chitosan Film  in water:acetic acid 2%
64905
    1CHTO  H203    1   5.385   6.881   5.676
    1CHTO   O82    2   5.389   6.799   5.630
    1CHTO  C123    3   5.510   6.792   5.553
    1CHTO  H227    4   5.596   6.802   5.622
    1CHTO   O77    5   5.506   6.656   5.498
    1CHTO  C118    6   5.625   6.621   5.426
    1CHTO  H222    7   5.711   6.637   5.491
    1CHTO  C125    8   5.617   6.468   5.390
    1CHTO   O84    9   5.505   6.437   5.307
    1CHTO  H205   10   5.504   6.346   5.287
    1CHTO  C114   11   5.637   6.710   5.301
    1CHTO  H218   12   5.550   6.694   5.237
    1CHTO  C116   13   5.639   6.861   5.341
    1CHTO  H220   14   5.735   6.884   5.392
    1CHTO   O79   15   5.638   6.941   5.221
    1CHTO  H201   16   5.718   6.930   5.174
    1CHTO  C120   17   5.517   6.897   5.436
    1CHTO  H224   18   5.425   6.890   5.374
    1CHTO   N21   19   5.525   7.037   5.486
    1CHTO  H211   20   5.476   7.045   5.582
    1CHTO  H212   21   5.628   7.069   5.494
    1CHTO   O75   22   5.758   6.668   5.234
    1CHTO  C112   23   5.744   6.656   5.072
    1CHTO  H216   24   5.674   6.733   5.035
    1CHTO   O73   25   5.696   6.524   5.043
    1CHTO  C113   26   5.676   6.496   4.904
    1CHTO  H217   27   5.608   6.572   4.860
    1CHTO  C124   28   5.604   6.360   4.897
    1CHTO   O83   29   5.539   6.338   4.771
    1CHTO  H204   30   5.498   6.254   4.771
    1CHTO  C109   31   5.814   6.498   4.831
    1CHTO  H213   32   5.876   6.420   4.878
    1CHTO  C110   33   5.880   6.638   4.853
    1CHTO  H214   34   5.821   6.712   4.797
    1CHTO   O78   35   6.011   6.635   4.795
    1CHTO  H200   36   6.050   6.721   4.797
    1CHTO  C111   37   5.885   6.677   5.004
    1CHTO  H215   38   5.956   6.610   5.054
    1CHTO   N19   39   5.933   6.816   5.027
    1CHTO  H207   40   6.032   6.828   4.986
    1CHTO  H208   41   5.936   6.837   5.133
    1CHTO   O74   42   5.802   6.472   4.688
    1CHTO  C115   43   5.840   6.320   4.642
    1CHTO  H219   44   5.857   6.255   4.728
    1CHTO   O76   45   5.722   6.253   4.563
    1CHTO  C122   46   5.714   6.303   4.429
    1CHTO  H226   47   5.712   6.412   4.434
    1CHTO  C126   48   5.576   6.260   4.367
    1CHTO   O85   49   5.555   6.318   4.238
    1CHTO  H206   50   5.544   6.411   4.246
    1CHTO  C121   51   5.837   6.252   4.344
    1CHTO  H225   52   5.809   6.158   4.292
    1CHTO   O81   53   5.869   6.350   4.244
    1CHTO  H202   54   5.798   6.358   4.183
    1CHTO  C119   55   5.962   6.224   4.435
    1CHTO  H223   56   5.942   6.126   4.480
    1CHTO  C117   57   5.973   6.327   4.554
    1CHTO  H221   58   5.983   6.431   4.525
    1CHTO   N20   59   6.093   6.299   4.639
    1CHTO  H209   60   6.099   6.372   4.719
    1CHTO  H210   61   6.182   6.303   4.579
    1CHTO   O80   62   6.094   6.192   4.349
    1CHTO  C103   63   6.142   6.042   4.329
    1CHTO  H190   64   6.158   5.994   4.426
    1CHTO  C101   65   6.048   5.949   4.242
    1CHTO  H188   66   6.024   6.001   4.149
    1CHTO   O68   67   5.916   5.923   4.319
    1CHTO  H168   68   5.857   5.873   4.266
    1CHTO   C99   69   6.123   5.812   4.206
    1CHTO  H186   70   6.146   5.757   4.300
    1CHTO   N17   71   6.043   5.719   4.119
    1CHTO  H174   72   6.022   5.766   4.024
    1CHTO  H175   73   5.951   5.691   4.170
    1CHTO   C97   74   6.261   5.845   4.142
    1CHTO  H184   75   6.242   5.897   4.046
    1CHTO   O64   76   6.338   5.924   4.233
    1CHTO  C104   77   6.283   6.054   4.260
    1CHTO  H191   78   6.272   6.112   4.168
    1CHTO  C108   79   6.380   6.133   4.349
    1CHTO   O71   80   6.504   6.158   4.281
    1CHTO  H171   81   6.491   6.219   4.211
    1CHTO   O62   82   6.343   5.728   4.119
    1CHTO   C91   83   6.445   5.744   4.019
    1CHTO  H178   84   6.466   5.851   4.009
    1CHTO   C92   85   6.390   5.697   3.879
    1CHTO  H179   86   6.284   5.725   3.870
    1CHTO   O66   87   6.459   5.770   3.776
    1CHTO  H166   88   6.435   5.861   3.779
    1CHTO   C93   89   6.413   5.543   3.850
    1CHTO  H180   90   6.396   5.529   3.742
    1CHTO   N16   91   6.312   5.456   3.915
    1CHTO  H172   92   6.332   5.352   3.891
    1CHTO  H173   93   6.213   5.483   3.883
    1CHTO   C94   94   6.561   5.500   3.884
    1CHTO  H181   95   6.565   5.421   3.959
    1CHTO   O61   96   6.639   5.609   3.938
    1CHTO   C95   97   6.581   5.671   4.053
    1CHTO  H182   98   6.563   5.595   4.129
    1CHTO  C106   99   6.685   5.772   4.114
    1CHTO   O69  100   6.802   5.703   4.158
    1CHTO  H169  101   6.865   5.765   4.189
    1CHTO   O63  102   6.632   5.451   3.752
    1CHTO   C96  103   6.751   5.351   3.783
    1CHTO  H183  104   6.714   5.276   3.853
    1CHTO   C98  105   6.878   5.418   3.846
    1CHTO  H185  106   6.851   5.500   3.913
    1CHTO   O67  107   6.945   5.321   3.928
    1CHTO  H167  108   6.892   5.300   4.003
    1CHTO  C102  109   6.982   5.469   3.736
    1CHTO  H189  110   7.071   5.503   3.792
    1CHTO   N18  111   6.941   5.588   3.656
    1CHTO  H176  112   6.849   5.566   3.603
    1CHTO  H177  113   6.925   5.672   3.721
    1CHTO  C105  114   7.023   5.347   3.647
    1CHTO  H192  115   7.048   5.380   3.546
    1CHTO   O65  116   6.926   5.240   3.638
    1CHTO  C100  117   6.788   5.278   3.646
    1CHTO  H187  118   6.767   5.347   3.562
    1CHTO  C107  119   6.702   5.151   3.624
    1CHTO   O70  120   6.563   5.184   3.612
    1CHTO  H170  121   6.530   5.214   3.694
    1CHTO   O57  122   7.152   5.297   3.719
    1CHTO   C85  123   7.272   5.259   3.651
    1CHTO  H157  124   7.242   5.208   3.556
    1CHTO   C83  125   7.343   5.150   3.739
    1CHTO  H155  126   7.278   5.062   3.742
    1CHTO   O56  127   7.353   5.198   3.874
    1CHTO  H135  128   7.386   5.130   3.930
    1CHTO   C81  129   7.479   5.109   3.675
    1CHTO  H153  130   7.459   5.074   3.574
    1CHTO   N14  131   7.542   4.994   3.743
    1CHTO  H141  132   7.570   5.020   3.843
    1CHTO  H142  133   7.630   4.963   3.690
    1CHTO   C79  134   7.572   5.236   3.665
    1CHTO  H151  135   7.663   5.204   3.613
    1CHTO   O52  136   7.509   5.337   3.582
    1CHTO   C86  137   7.374   5.378   3.625
    1CHTO  H158  138   7.392   5.433   3.720
    1CHTO   C90  139   7.319   5.482   3.525
    1CHTO   O60  140   7.308   5.428   3.393
    1CHTO  H138  141   7.393   5.411   3.358
    1CHTO   O50  142   7.610   5.292   3.792
    1CHTO   C73  143   7.709   5.363   3.868
    1CHTO  H145  144   7.795   5.388   3.805
    1CHTO   C74  145   7.758   5.273   3.987
    1CHTO  H146  146   7.800   5.181   3.942
    1CHTO   O54  147   7.869   5.339   4.051
    1CHTO  H133  148   7.841   5.420   4.090
    1CHTO   C75  149   7.637   5.243   4.083
    1CHTO  H147  150   7.562   5.185   4.027
    1CHTO   N13  151   7.671   5.158   4.200
    1CHTO  H139  152   7.653   5.211   4.293
    1CHTO  H140  153   7.774   5.128   4.198
    1CHTO   C76  154   7.566   5.381   4.126
    1CHTO  H148  155   7.635   5.434   4.192
    1CHTO   O49  156   7.536   5.465   4.010
    1CHTO   C77  157   7.650   5.494   3.927
    1CHTO  H149  158   7.726   5.544   3.987
    1CHTO   C88  159   7.611   5.594   3.817
    1CHTO   O58  160   7.567   5.722   3.875
    1CHTO  H136  161   7.541   5.780   3.806
    1CHTO   O51  162   7.423   5.353   4.194
    1CHTO   C78  163   7.380   5.475   4.284
    1CHTO  H150  164   7.444   5.564   4.262
    1CHTO   C80  165   7.393   5.440   4.433
    1CHTO  H152  166   7.326   5.353   4.455
    1CHTO   O55  167   7.529   5.400   4.458
    1CHTO  H134  168   7.547   5.317   4.417
    1CHTO   C84  169   7.353   5.563   4.524
    1CHTO  H156  170   7.429   5.639   4.508
    1CHTO   N15  171   7.353   5.533   4.672
    1CHTO  H143  172   7.382   5.431   4.690
    1CHTO  H144  173   7.421   5.598   4.722
    1CHTO   C87  174   7.216   5.622   4.481
    1CHTO  H159  175   7.134   5.560   4.516
    1CHTO   O53  176   7.208   5.637   4.324
    1CHTO   C82  177   7.235   5.516   4.253
    1CHTO  H154  178   7.165   5.438   4.282
    1CHTO   C89  179   7.215   5.540   4.101
    1CHTO   O59  180   7.079   5.576   4.073
    1CHTO  H137  181   7.069   5.590   3.981
    1CHTO   O45  182   7.201   5.769   4.544
    1CHTO   C67  183   7.079   5.836   4.511
    1CHTO  H124  184   7.003   5.767   4.476
    1CHTO   C65  185   7.027   5.910   4.638
    1CHTO  H122  186   7.032   5.836   4.718
    1CHTO   O44  187   6.890   5.951   4.620
    1CHTO  H102  188   6.885   6.017   4.555
    1CHTO   C63  189   7.128   6.023   4.677
    1CHTO  H120  190   7.228   5.979   4.686
    1CHTO   N11  191   7.109   6.082   4.813
    1CHTO  H108  192   7.107   6.004   4.887
    1CHTO  H109  193   7.017   6.137   4.816
    1CHTO   C61  194   7.136   6.128   4.560
    1CHTO  H118  195   7.220   6.195   4.585
    1CHTO   O40  196   7.169   6.065   4.433
    1CHTO   C68  197   7.106   5.938   4.393
    1CHTO  H125  198   7.179   5.889   4.326
    1CHTO   C72  199   6.979   5.964   4.308
    1CHTO   O48  200   7.012   6.018   4.180
    1CHTO  H105  201   6.933   6.033   4.131
    1CHTO   O38  202   7.014   6.204   4.541
    1CHTO   C55  203   7.029   6.346   4.518
    1CHTO  H112  204   7.128   6.367   4.474
    1CHTO   C56  205   7.008   6.424   4.655
    1CHTO  H113  206   6.920   6.378   4.703
    1CHTO   O42  207   7.120   6.399   4.741
    1CHTO  H100  208   7.104   6.436   4.826
    1CHTO   C57  209   6.985   6.579   4.635
    1CHTO  H114  210   7.082   6.623   4.607
    1CHTO   N10  211   6.940   6.647   4.759
    1CHTO  H106  212   6.974   6.750   4.758
    1CHTO  H107  213   6.980   6.598   4.846
    1CHTO   C58  214   6.885   6.604   4.520
    1CHTO  H115  215   6.784   6.567   4.550
    1CHTO   O37  216   6.929   6.536   4.401
    1CHTO   C59  217   6.925   6.393   4.412
    1CHTO  H116  218   6.824   6.361   4.440
    1CHTO   C70  219   6.958   6.336   4.274
    1CHTO   O46  220   6.858   6.369   4.176
    1CHTO  H103  221   6.883   6.332   4.093
    1CHTO   O39  222   6.877   6.762   4.479
    1CHTO   C60  223   6.764   6.792   4.395
    1CHTO  H117  224   6.726   6.700   4.350
    1CHTO   C62  225   6.648   6.855   4.478
    1CHTO  H119  226   6.623   6.781   4.558
    1CHTO   O43  227   6.692   6.976   4.541
    1CHTO  H101  228   6.714   7.041   4.477
    1CHTO   C66  229   6.520   6.874   4.383
    1CHTO  H123  230   6.495   6.777   4.339
    1CHTO   N12  231   6.398   6.919   4.455
    1CHTO  H110  232   6.417   6.931   4.560
    1CHTO  H111  233   6.316   6.850   4.438
    1CHTO   C69  234   6.555   6.968   4.264
    1CHTO  H126  235   6.575   7.071   4.301
    1CHTO   O41  236   6.685   6.912   4.189
    1CHTO   C64  237   6.804   6.886   4.279
    1CHTO  H121  238   6.842   6.982   4.321
    1CHTO   C71  239   6.917   6.823   4.193
    1CHTO   O47  240   6.964   6.916   4.094
    1CHTO  H104  241   7.034   6.877   4.045
    1CHTO   O34  242   6.435   6.974   4.159
    1CHTO   C49  243   6.458   7.029   4.021
    1CHTO   H91  244   6.542   7.098   4.028
    1CHTO   C47  245   6.332   7.107   3.977
    1CHTO   H89  246   6.359   7.159   3.882
    1CHTO   O33  247   6.302   7.205   4.077
    1CHTO   H70  248   6.369   7.271   4.080
    1CHTO   C45  249   6.213   7.003   3.950
    1CHTO   H87  250   6.201   6.940   4.040
    1CHTO    N8  251   6.083   7.070   3.923
    1CHTO   H75  252   6.089   7.127   3.831
    1CHTO   H76  253   6.004   6.996   3.914
    1CHTO   C43  254   6.257   6.903   3.832
    1CHTO   H85  255   6.176   6.831   3.823
    1CHTO   O29  256   6.381   6.838   3.868
    1CHTO   C50  257   6.491   6.915   3.919
    1CHTO   H92  258   6.556   6.843   3.972
    1CHTO   C54  259   6.582   6.963   3.803
    1CHTO   O36  260   6.706   7.018   3.850
    1CHTO   H72  261   6.690   7.099   3.895
    1CHTO   O27  262   6.268   6.969   3.704
    1CHTO   C37  263   6.225   6.920   3.576
    1CHTO   H79  264   6.242   6.812   3.569
    1CHTO   C38  265   6.072   6.944   3.551
    1CHTO   H80  266   6.051   7.052   3.566
    1CHTO   O31  267   5.998   6.869   3.648
    1CHTO   H68  268   5.907   6.893   3.645
    1CHTO   C39  269   6.028   6.902   3.404
    1CHTO   H81  270   6.029   6.793   3.401
    1CHTO    N7  271   5.888   6.945   3.370
    1CHTO   H73  272   5.818   6.902   3.440
    1CHTO   H74  273   5.863   6.912   3.270
    1CHTO   C40  274   6.130   6.952   3.295
    1CHTO   H82  275   6.114   7.058   3.271
    1CHTO   O26  276   6.264   6.926   3.336
    1CHTO   C41  277   6.302   6.990   3.461
    1CHTO   H83  278   6.276   7.097   3.458
    1CHTO   C52  279   6.456   6.979   3.472
    1CHTO   O35  280   6.525   7.052   3.363
    1CHTO   H71  281   6.617   7.039   3.370
    1CHTO   O28  282   6.119   6.874   3.174
    1CHTO   C42  283   6.179   6.917   3.047
    1CHTO   H84  284   6.171   6.827   2.985
    1CHTO   C44  285   6.331   6.954   3.049
    1CHTO   H86  286   6.346   7.034   3.122
    1CHTO   O32  287   6.404   6.838   3.094
    1CHTO   H69  288   6.384   6.820   3.184
    1CHTO   C48  289   6.385   7.006   2.910
    1CHTO   H90  290   6.386   6.921   2.840
    1CHTO    N9  291   6.528   7.053   2.918
    1CHTO   H77  292   6.561   7.087   2.821
    1CHTO   H78  293   6.591   6.974   2.954
    1CHTO   C51  294   6.288   7.116   2.854
    1CHTO   H93  295   6.292   7.201   2.921
    1CHTO   O30  296   6.156   7.061   2.844
    1CHTO   C46  297   6.095   7.028   2.978
    1CHTO   H88  298   6.095   7.118   3.040
    1CHTO   C53  299   5.950   6.980   2.954
    1CHTO   O72  300   5.873   7.081   2.888
    1CHTO  H199  301   5.786   7.049   2.875
    1CHTO   O22  302   6.324   7.155   2.720
    1CHTO   C31  303   6.247   7.254   2.644
    1CHTO   H59  304   6.140   7.234   2.667
    1CHTO   C29  305   6.274   7.402   2.680
    1CHTO   H57  306   6.383   7.418   2.669
    1CHTO   O21  307   6.244   7.422   2.820
    1CHTO   H37  308   6.152   7.413   2.836
    1CHTO   C27  309   6.196   7.503   2.587
    1CHTO   H55  310   6.089   7.493   2.607
    1CHTO    N5  311   6.236   7.644   2.610
    1CHTO   H43  312   6.177   7.709   2.547
    1CHTO   H44  313   6.220   7.670   2.714
    1CHTO   C25  314   6.220   7.461   2.437
    1CHTO   H53  315   6.328   7.471   2.415
    1CHTO   O17  316   6.181   7.323   2.416
    1CHTO   C32  317   6.262   7.231   2.490
    1CHTO   H60  318   6.367   7.245   2.463
    1CHTO   C36  319   6.223   7.086   2.449
    1CHTO   O25  320   6.088   7.054   2.483
    1CHTO   H40  321   6.029   7.104   2.429
    1CHTO   O15  322   6.137   7.551   2.337
    1CHTO   C19  323   6.186   7.579   2.202
    1CHTO   H47  324   6.110   7.647   2.161
    1CHTO   C20  325   6.325   7.650   2.198
    1CHTO   H48  326   6.404   7.589   2.245
    1CHTO   O19  327   6.313   7.772   2.273
    1CHTO   H35  328   6.301   7.754   2.364
    1CHTO   C21  329   6.371   7.679   2.049
    1CHTO   H49  330   6.301   7.750   2.005
    1CHTO    N4  331   6.507   7.739   2.039
    1CHTO   H41  332   6.550   7.754   2.137
    1CHTO   H42  333   6.501   7.835   1.989
    1CHTO   C22  334   6.360   7.547   1.967
    1CHTO   H50  335   6.433   7.476   2.004
    1CHTO   O14  336   6.228   7.491   1.978
    1CHTO   C23  337   6.187   7.453   2.110
    1CHTO   H51  338   6.257   7.376   2.146
    1CHTO   C34  339   6.047   7.391   2.100
    1CHTO   O23  340   6.048   7.271   2.022
    1CHTO   H38  341   5.961   7.235   2.019
    1CHTO   O16  342   6.374   7.571   1.826
    1CHTO   C24  343   6.444   7.454   1.745
    1CHTO   H52  344   6.470   7.370   1.809
    1CHTO   C26  345   6.573   7.512   1.681
    1CHTO   H54  346   6.549   7.614   1.642
    1CHTO   O20  347   6.671   7.530   1.784
    1CHTO   H36  348   6.696   7.448   1.821
    1CHTO   C30  349   6.627   7.426   1.562
    1CHTO   H58  350   6.670   7.332   1.601
    1CHTO    N6  351   6.738   7.494   1.489
    1CHTO   H45  352   6.759   7.592   1.530
    1CHTO   H46  353   6.828   7.434   1.492
    1CHTO   C33  354   6.509   7.388   1.468
    1CHTO   H61  355   6.463   7.481   1.432
    1CHTO   O18  356   6.413   7.317   1.548
    1CHTO   C28  357   6.343   7.402   1.639
    1CHTO   H56  358   6.299   7.487   1.587
    1CHTO   C35  359   6.229   7.319   1.703
    1CHTO   O24  360   6.130   7.280   1.608
    1CHTO   H39  361   6.166   7.218   1.547
    1CHTO    O9  362   6.545   7.313   1.350
    1CHTO   C13  363   6.446   7.350   1.222
    1CHTO   H26  364   6.472   7.453   1.191
    1CHTO   C11  365   6.292   7.337   1.261
    1CHTO   H24  366   6.272   7.407   1.343
    1CHTO    O8  367   6.261   7.205   1.310
    1CHTO    H3  368   6.274   7.141   1.243
    1CHTO    C9  369   6.209   7.383   1.138
    1CHTO   H22  370   6.244   7.485   1.115
    1CHTO    N2  371   6.065   7.399   1.168
    1CHTO   H10  372   6.051   7.466   1.251
    1CHTO   H11  373   6.020   7.303   1.189
    1CHTO    C7  374   6.240   7.290   1.015
    1CHTO   H20  375   6.196   7.346   0.930
    1CHTO    O4  376   6.382   7.274   0.990
    1CHTO   C14  377   6.479   7.259   1.096
    1CHTO   H27  378   6.575   7.294   1.054
    1CHTO   C18  379   6.496   7.108   1.127
    1CHTO   O13  380   6.610   7.080   1.210
    1CHTO    H7  381   6.595   7.114   1.296
    1CHTO    O2  382   6.168   7.141   1.028
    1CHTO    C1  383   6.186   7.051   0.917
    1CHTO   H14  384   6.295   7.041   0.896
    1CHTO    C2  385   6.113   7.091   0.781
    1CHTO   H15  386   6.007   7.104   0.805
    1CHTO    O6  387   6.166   7.216   0.733
    1CHTO    H1  388   6.118   7.244   0.657
    1CHTO    C3  389   6.132   6.976   0.671
    1CHTO   H16  390   6.239   6.972   0.642
    1CHTO    N1  391   6.054   7.003   0.546
    1CHTO    H8  392   5.949   7.011   0.569
    1CHTO    H9  393   6.089   7.094   0.500
    1CHTO    C4  394   6.099   6.834   0.731
    1CHTO   H17  395   5.991   6.825   0.744
    1CHTO    O1  396   6.166   6.813   0.857
    1CHTO    C5  397   6.136   6.910   0.959
    1CHTO   H18  398   6.027   6.916   0.971
    1CHTO   C16  399   6.199   6.861   1.091
    1CHTO   O11  400   6.138   6.740   1.136
    1CHTO    H5  401   6.175   6.714   1.218
    1CHTO    O3  402   6.149   6.730   0.645
    1CHTO    C6  403   6.086   6.599   0.659
    1CHTO   H19  404   6.027   6.590   0.749
    1CHTO    C8  405   5.993   6.570   0.536
    1CHTO   H21  406   6.052   6.583   0.445
    1CHTO    O7  407   5.887   6.668   0.538
    1CHTO    H2  408   5.833   6.656   0.614
    1CHTO   C12  409   5.938   6.422   0.541
    1CHTO   H25  410   5.871   6.417   0.630
    1CHTO    N3  411   5.855   6.387   0.421
    1CHTO   H12  412   5.847   6.471   0.353
    1CHTO   H13  413   5.756   6.355   0.452
    1CHTO   C15  414   6.057   6.322   0.563
    1CHTO   H28  415   6.121   6.314   0.475
    1CHTO   O10  416   6.008   6.183   0.603
    1CHTO    H4  417   5.959   6.145   0.532
    1CHTO    O5  418   6.136   6.359   0.677
    1CHTO   C10  419   6.196   6.489   0.666
    1CHTO   H23  420   6.255   6.492   0.575
    1CHTO   C17  421   6.291   6.510   0.784
    1CHTO   O12  422   6.405   6.424   0.776
    1CHTO    H6  423   6.460   6.438   0.850
    2CHTO  H203  424   6.668   5.416   6.614
    2CHTO   O82  425   6.676   5.379   6.528
    2CHTO  C123  426   6.546   5.338   6.481
    2CHTO  H227  427   6.480   5.426   6.478
    2CHTO   O77  428   6.573   5.292   6.345
    2CHTO  C118  429   6.456   5.260   6.269
    2CHTO  H222  430   6.391   5.348   6.265
    2CHTO  C125  431   6.502   5.223   6.122
    2CHTO   O84  432   6.592   5.112   6.118
    2CHTO  H205  433   6.673   5.135   6.158
    2CHTO  C114  434   6.380   5.143   6.337
    2CHTO  H218  435   6.444   5.055   6.336
    2CHTO  C116  436   6.351   5.173   6.487
    2CHTO  H220  437   6.273   5.252   6.496
    2CHTO   O79  438   6.294   5.054   6.545
    2CHTO  H201  439   6.269   5.069   6.634
    2CHTO  C120  440   6.482   5.220   6.563
    2CHTO  H224  441   6.551   5.132   6.564
    2CHTO   N21  442   6.455   5.257   6.704
    2CHTO  H211  443   6.356   5.298   6.714
    2CHTO  H212  444   6.468   5.171   6.768
    2CHTO   O75  445   6.265   5.117   6.254
    2CHTO  C112  446   6.137   5.223   6.270
    2CHTO  H216  447   6.175   5.325   6.286
    2CHTO   O73  448   6.057   5.178   6.381
    2CHTO  C113  449   5.949   5.266   6.412
    2CHTO  H217  450   5.988   5.368   6.428
    2CHTO  C124  451   5.890   5.217   6.546
    2CHTO   O83  452   5.787   5.301   6.598
    2CHTO  H204  453   5.711   5.297   6.543
    2CHTO  C109  454   5.846   5.265   6.295
    2CHTO  H213  455   5.806   5.162   6.289
    2CHTO  C110  456   5.917   5.303   6.162
    2CHTO  H214  457   5.939   5.410   6.164
    2CHTO   O78  458   5.825   5.281   6.053
    2CHTO  H200  459   5.754   5.342   6.058
    2CHTO  C111  460   6.048   5.222   6.139
    2CHTO  H215  461   6.021   5.117   6.119
    2CHTO   N19  462   6.127   5.269   6.023
    2CHTO  H207  463   6.215   5.207   6.009
    2CHTO  H208  464   6.157   5.372   6.037
    2CHTO   O74  465   5.736   5.358   6.322
    2CHTO  C115  466   5.592   5.297   6.293
    2CHTO  H219  467   5.597   5.211   6.225
    2CHTO   O76  468   5.525   5.238   6.426
    2CHTO  C122  469   5.455   5.338   6.502
    2CHTO  H226  470   5.526   5.416   6.528
    2CHTO  C126  471   5.407   5.277   6.638
    2CHTO   O85  472   5.516   5.239   6.723
    2CHTO  H206  473   5.483   5.205   6.803
    2CHTO  C121  474   5.333   5.399   6.420
    2CHTO  H225  475   5.240   5.346   6.449
    2CHTO   O81  476   5.320   5.537   6.457
    2CHTO  H202  477   5.240   5.572   6.422
    2CHTO  C119  478   5.353   5.384   6.266
    2CHTO  H223  479   5.332   5.280   6.244
    2CHTO  C117  480   5.503   5.409   6.226
    2CHTO  H221  481   5.546   5.504   6.259
    2CHTO   N20  482   5.521   5.409   6.077
    2CHTO  H209  483   5.460   5.486   6.032
    2CHTO  H210  484   5.625   5.425   6.052
    2CHTO   O80  485   5.238   5.459   6.182
    2CHTO  C103  486   5.152   5.378   6.078
    2CHTO  H190  487   5.217   5.326   6.008
    2CHTO  C101  488   5.050   5.274   6.141
    2CHTO  H188  489   5.009   5.317   6.232
    2CHTO   O68  490   5.128   5.148   6.179
    2CHTO  H168  491   5.073   5.089   6.226
    2CHTO   C99  492   4.928   5.240   6.042
    2CHTO  H186  493   4.967   5.185   5.953
    2CHTO   N17  494   4.821   5.153   6.103
    2CHTO  H174  495   4.864   5.060   6.136
    2CHTO  H175  496   4.774   5.206   6.185
    2CHTO   C97  497   4.871   5.373   5.987
    2CHTO  H184  498   4.838   5.433   6.074
    2CHTO   O64  499   4.975   5.438   5.913
    2CHTO  C104  500   5.078   5.491   5.997
    2CHTO  H191  501   5.037   5.564   6.067
    2CHTO  C108  502   5.176   5.569   5.909
    2CHTO   O71  503   5.112   5.688   5.862
    2CHTO  H171  504   5.172   5.736   5.807
    2CHTO   O62  505   4.763   5.360   5.892
    2CHTO   C91  506   4.670   5.470   5.892
    2CHTO  H178  507   4.643   5.491   5.995
    2CHTO   C92  508   4.537   5.425   5.821
    2CHTO  H179  509   4.508   5.325   5.857
    2CHTO   O66  510   4.432   5.513   5.864
    2CHTO  H166  511   4.450   5.602   5.840
    2CHTO   C93  512   4.544   5.431   5.664
    2CHTO  H180  513   4.440   5.425   5.628
    2CHTO   N16  514   4.612   5.314   5.603
    2CHTO  H172  515   4.610   5.323   5.496
    2CHTO  H173  516   4.714   5.308   5.639
    2CHTO   C94  517   4.606   5.569   5.616
    2CHTO  H181  518   4.700   5.555   5.563
    2CHTO   O61  519   4.636   5.658   5.724
    2CHTO   C95  520   4.725   5.604   5.824
    2CHTO  H182  521   4.821   5.583   5.776
    2CHTO  C106  522   4.752   5.715   5.932
    2CHTO   O69  523   4.820   5.828   5.875
    2CHTO  H169  524   4.907   5.804   5.851
    2CHTO   O63  525   4.504   5.636   5.515
    2CHTO   C96  526   4.402   5.742   5.575
    2CHTO  H183  527   4.416   5.749   5.683
    2CHTO   C98  528   4.253   5.704   5.549
    2CHTO  H185  529   4.243   5.661   5.448
    2CHTO   O67  530   4.220   5.596   5.640
    2CHTO  H167  531   4.267   5.519   5.617
    2CHTO  C102  532   4.151   5.827   5.566
    2CHTO  H189  533   4.156   5.856   5.672
    2CHTO   N18  534   4.008   5.798   5.539
    2CHTO  H176  535   3.970   5.857   5.457
    2CHTO  H177  536   3.993   5.693   5.518
    2CHTO  C105  537   4.208   5.943   5.480
    2CHTO  H192  538   4.220   5.908   5.378
    2CHTO   O65  539   4.336   5.981   5.531
    2CHTO  C100  540   4.439   5.883   5.513
    2CHTO  H187  541   4.455   5.870   5.404
    2CHTO  C107  542   4.569   5.940   5.573
    2CHTO   O70  543   4.613   6.055   5.500
    2CHTO  H170  544   4.691   6.089   5.539
    2CHTO   O57  545   4.111   6.074   5.486
    2CHTO   C85  546   4.081   6.152   5.368
    2CHTO  H157  547   4.000   6.096   5.317
    2CHTO   C83  548   4.200   6.157   5.266
    2CHTO  H155  549   4.219   6.056   5.230
    2CHTO   O56  550   4.321   6.200   5.333
    2CHTO  H135  551   4.345   6.138   5.398
    2CHTO   C81  552   4.160   6.246   5.145
    2CHTO  H153  553   4.067   6.206   5.103
    2CHTO   N14  554   4.257   6.237   5.032
    2CHTO  H141  555   4.291   6.335   5.004
    2CHTO  H142  556   4.213   6.190   4.947
    2CHTO   C79  557   4.132   6.392   5.195
    2CHTO  H151  558   4.100   6.450   5.108
    2CHTO   O52  559   4.020   6.390   5.289
    2CHTO   C86  560   4.036   6.301   5.404
    2CHTO  H158  561   4.112   6.352   5.467
    2CHTO   C90  562   3.904   6.304   5.484
    2CHTO   O60  563   3.915   6.239   5.611
    2CHTO  H138  564   3.926   6.147   5.599
    2CHTO   O50  565   4.246   6.457   5.254
    2CHTO   C73  566   4.299   6.590   5.241
    2CHTO  H145  567   4.217   6.662   5.226
    2CHTO   C74  568   4.395   6.597   5.118
    2CHTO  H146  569   4.338   6.564   5.030
    2CHTO   O54  570   4.428   6.736   5.096
    2CHTO  H133  571   4.353   6.784   5.068
    2CHTO   C75  572   4.522   6.506   5.144
    2CHTO  H147  573   4.488   6.402   5.156
    2CHTO   N13  574   4.620   6.504   5.033
    2CHTO  H139  575   4.588   6.567   4.951
    2CHTO  H140  576   4.633   6.404   4.996
    2CHTO   C76  577   4.589   6.550   5.282
    2CHTO  H148  578   4.626   6.652   5.271
    2CHTO   O49  579   4.491   6.545   5.391
    2CHTO   C77  580   4.377   6.629   5.371
    2CHTO  H149  581   4.408   6.733   5.363
    2CHTO   C88  582   4.289   6.621   5.497
    2CHTO   O58  583   4.170   6.712   5.488
    2CHTO  H136  584   4.112   6.682   5.421
    2CHTO   O51  585   4.705   6.446   5.326
    2CHTO   C78  586   4.803   6.510   5.430
    2CHTO  H150  587   4.754   6.594   5.483
    2CHTO   C80  588   4.930   6.563   5.360
    2CHTO  H152  589   4.974   6.481   5.299
    2CHTO   O55  590   4.888   6.668   5.271
    2CHTO  H134  591   4.961   6.699   5.220
    2CHTO   C84  592   5.037   6.614   5.465
    2CHTO  H156  593   4.995   6.701   5.516
    2CHTO   N15  594   5.164   6.661   5.401
    2CHTO  H143  595   5.232   6.697   5.475
    2CHTO  H144  596   5.210   6.580   5.348
    2CHTO   C87  597   5.063   6.505   5.572
    2CHTO  H159  598   5.115   6.420   5.528
    2CHTO   O53  599   4.928   6.460   5.633
    2CHTO   C82  600   4.839   6.404   5.536
    2CHTO  H154  601   4.884   6.317   5.489
    2CHTO   C89  602   4.712   6.354   5.610
    2CHTO   O59  603   4.645   6.459   5.682
    2CHTO  H137  604   4.570   6.424   5.725
    2CHTO   O45  605   5.151   6.565   5.697
    2CHTO   C67  606   5.199   6.463   5.786
    2CHTO  H124  607   5.142   6.371   5.772
    2CHTO   C65  608   5.350   6.432   5.758
    2CHTO  H122  609   5.392   6.524   5.716
    2CHTO   O44  610   5.352   6.330   5.657
    2CHTO  H102  611   5.440   6.317   5.626
    2CHTO   C63  612   5.435   6.408   5.889
    2CHTO  H120  613   5.456   6.504   5.935
    2CHTO   N11  614   5.574   6.357   5.869
    2CHTO  H108  615   5.625   6.417   5.797
    2CHTO  H109  616   5.571   6.255   5.834
    2CHTO   C61  617   5.350   6.328   5.996
    2CHTO  H118  618   5.409   6.330   6.089
    2CHTO   O40  619   5.222   6.393   6.025
    2CHTO   C68  620   5.178   6.502   5.938
    2CHTO  H125  621   5.235   6.594   5.962
    2CHTO   C72  622   5.029   6.533   5.968
    2CHTO   O48  623   5.010   6.580   6.102
    2CHTO  H105  624   4.919   6.598   6.116
    2CHTO   O38  625   5.326   6.192   5.956
    2CHTO   C55  626   5.273   6.104   6.058
    2CHTO  H112  627   5.214   6.162   6.130
    2CHTO   C56  628   5.389   6.022   6.128
    2CHTO  H113  629   5.446   5.971   6.049
    2CHTO   O42  630   5.480   6.112   6.194
    2CHTO  H100  631   5.524   6.165   6.130
    2CHTO   C57  632   5.329   5.916   6.230
    2CHTO  H114  633   5.286   5.972   6.313
    2CHTO   N10  634   5.433   5.826   6.288
    2CHTO  H106  635   5.512   5.808   6.217
    2CHTO  H107  636   5.390   5.731   6.318
    2CHTO   C58  637   5.216   5.833   6.162
    2CHTO  H115  638   5.262   5.767   6.085
    2CHTO   O37  639   5.119   5.918   6.097
    2CHTO   C59  640   5.173   6.002   5.994
    2CHTO  H116  641   5.224   5.941   5.919
    2CHTO   C70  642   5.058   6.075   5.923
    2CHTO   O46  643   4.983   6.162   6.007
    2CHTO  H103  644   4.914   6.202   5.958
    2CHTO   O39  645   5.137   5.734   6.282
    2CHTO   C60  646   4.995   5.744   6.303
    2CHTO  H117  647   4.946   5.783   6.213
    2CHTO   C62  648   4.934   5.604   6.336
    2CHTO  H119  649   4.957   5.538   6.250
    2CHTO   O43  650   4.997   5.547   6.452
    2CHTO  H101  651   5.087   5.528   6.434
    2CHTO   C66  652   4.775   5.618   6.349
    2CHTO  H123  653   4.737   5.667   6.260
    2CHTO   N12  654   4.706   5.487   6.355
    2CHTO  H110  655   4.724   5.431   6.264
    2CHTO  H111  656   4.739   5.431   6.441
    2CHTO   C69  657   4.741   5.708   6.471
    2CHTO  H126  658   4.775   5.658   6.565
    2CHTO   O41  659   4.814   5.844   6.456
    2CHTO   C64  660   4.962   5.842   6.419
    2CHTO  H121  661   5.022   5.812   6.508
    2CHTO   C71  662   5.001   5.988   6.386
    2CHTO   O47  663   4.919   6.044   6.282
    2CHTO  H104  664   4.831   6.055   6.312
    2CHTO   O34  665   4.580   5.735   6.483
    2CHTO   C49  666   4.478   5.856   6.461
    2CHTO   H91  667   4.423   5.868   6.554
    2CHTO   C47  668   4.380   5.819   6.347
    2CHTO   H89  669   4.303   5.899   6.344
    2CHTO   O33  670   4.315   5.695   6.381
    2CHTO   H70  671   4.377   5.624   6.380
    2CHTO   C45  672   4.459   5.813   6.206
    2CHTO   H87  673   4.538   5.737   6.216
    2CHTO    N8  674   4.371   5.774   6.093
    2CHTO   H75  675   4.268   5.770   6.123
    2CHTO   H76  676   4.382   5.842   6.010
    2CHTO   C43  677   4.539   5.951   6.181
    2CHTO   H85  678   4.604   5.932   6.095
    2CHTO   O29  679   4.615   5.991   6.297
    2CHTO   C50  680   4.551   5.988   6.427
    2CHTO   H92  681   4.630   6.001   6.502
    2CHTO   C54  682   4.461   6.112   6.451
    2CHTO   O36  683   4.536   6.234   6.449
    2CHTO   H72  684   4.568   6.251   6.362
    2CHTO   O27  685   4.453   6.060   6.141
    2CHTO   C37  686   4.463   6.158   6.036
    2CHTO   H79  687   4.518   6.117   5.950
    2CHTO   C38  688   4.320   6.195   5.985
    2CHTO   H80  689   4.256   6.218   6.072
    2CHTO   O31  690   4.267   6.078   5.919
    2CHTO   H68  691   4.178   6.092   5.895
    2CHTO   C39  692   4.321   6.320   5.887
    2CHTO   H81  693   4.374   6.290   5.797
    2CHTO    N7  694   4.183   6.364   5.845
    2CHTO   H73  695   4.107   6.301   5.888
    2CHTO   H74  696   4.165   6.467   5.872
    2CHTO   C40  697   4.404   6.437   5.953
    2CHTO   H82  698   4.351   6.473   6.042
    2CHTO   O26  699   4.535   6.389   5.985
    2CHTO   C41  700   4.536   6.286   6.087
    2CHTO   H83  701   4.487   6.323   6.179
    2CHTO   C52  702   4.685   6.258   6.120
    2CHTO   O35  703   4.755   6.376   6.174
    2CHTO   H71  704   4.761   6.443   6.108
    2CHTO   O28  705   4.428   6.547   5.864
    2CHTO   C42  706   4.451   6.682   5.917
    2CHTO   H84  707   4.482   6.739   5.829
    2CHTO   C44  708   4.566   6.699   6.023
    2CHTO   H86  709   4.547   6.630   6.106
    2CHTO   O32  710   4.688   6.659   5.958
    2CHTO   H69  711   4.759   6.659   6.020
    2CHTO   C48  712   4.573   6.846   6.083
    2CHTO   H90  713   4.602   6.914   6.003
    2CHTO    N9  714   4.679   6.861   6.189
    2CHTO   H77  715   4.680   6.963   6.225
    2CHTO   H78  716   4.775   6.835   6.148
    2CHTO   C51  717   4.429   6.884   6.133
    2CHTO   H93  718   4.398   6.809   6.206
    2CHTO   O30  719   4.347   6.884   6.016
    2CHTO   C46  720   4.319   6.747   5.968
    2CHTO   H88  721   4.279   6.688   6.051
    2CHTO   C53  722   4.213   6.757   5.857
    2CHTO   O72  723   4.089   6.807   5.910
    2CHTO  H199  724   4.026   6.813   5.841
    2CHTO   O22  725   4.415   7.016   6.190
    2CHTO   C31  726   4.293   7.052   6.268
    2CHTO   H59  727   4.303   7.161   6.289
    2CHTO   C29  728   4.160   7.033   6.190
    2CHTO   H57  729   4.159   6.929   6.154
    2CHTO   O21  730   4.165   7.118   6.074
    2CHTO   H37  731   4.233   7.090   6.015
    2CHTO   C27  732   4.031   7.058   6.277
    2CHTO   H55  733   4.028   7.164   6.306
    2CHTO    N5  734   3.907   7.023   6.204
    2CHTO   H43  735   3.849   6.948   6.256
    2CHTO   H44  736   3.846   7.112   6.189
    2CHTO   C25  737   4.047   6.975   6.410
    2CHTO   H53  738   4.055   6.868   6.384
    2CHTO   O17  739   4.168   7.016   6.479
    2CHTO   C32  740   4.288   6.982   6.408
    2CHTO   H60  741   4.293   6.874   6.393
    2CHTO   C36  742   4.410   7.023   6.494
    2CHTO   O25  743   4.405   6.963   6.624
    2CHTO   H40  744   4.417   6.871   6.618
    2CHTO   O15  745   3.927   6.993   6.504
    2CHTO   C19  746   3.862   6.919   6.611
    2CHTO   H47  747   3.755   6.934   6.591
    2CHTO   C20  748   3.890   6.765   6.612
    2CHTO   H48  749   3.997   6.743   6.628
    2CHTO   O19  750   3.853   6.715   6.482
    2CHTO   H35  751   3.874   6.624   6.475
    2CHTO   C21  752   3.807   6.693   6.726
    2CHTO   H49  753   3.700   6.704   6.704
    2CHTO    N4  754   3.835   6.547   6.736
    2CHTO   H41  755   3.875   6.521   6.832
    2CHTO   H42  756   3.745   6.491   6.719
    2CHTO   C22  757   3.830   6.768   6.861
    2CHTO   H50  758   3.933   6.752   6.893
    2CHTO   O14  759   3.805   6.909   6.847
    2CHTO   C23  760   3.889   6.977   6.752
    2CHTO   H51  761   3.994   6.963   6.783
    2CHTO   C34  762   3.855   7.127   6.761
    2CHTO   O23  763   3.949   7.207   6.689
    2CHTO   H38  764   4.032   7.207   6.734
    2CHTO   O16  765   3.738   6.724   6.963
    2CHTO   C24  766   3.782   6.770   7.110
    2CHTO   H52  767   3.859   6.848   7.107
    2CHTO   C26  768   3.835   6.649   7.189
    2CHTO   H54  769   3.755   6.570   7.190
    2CHTO   O20  770   3.949   6.595   7.120
    2CHTO   H36  771   3.923   6.557   7.038
    2CHTO   C30  772   3.870   6.687   7.336
    2CHTO   H58  773   3.960   6.751   7.336
    2CHTO    N6  774   3.904   6.567   7.417
    2CHTO   H45  775   3.834   6.553   7.499
    2CHTO   H46  776   4.004   6.576   7.458
    2CHTO   C33  777   3.757   6.773   7.403
    2CHTO   H61  778   3.672   6.709   7.430
    2CHTO   O18  779   3.710   6.876   7.313
    2CHTO   C28  780   3.661   6.830   7.186
    2CHTO   H56  781   3.586   6.752   7.200
    2CHTO   C35  782   3.594   6.947   7.111
    2CHTO   O24  783   3.682   7.059   7.089
    2CHTO   H39  784   3.634   7.127   7.045
    2CHTO    O9  785   3.805   6.828   7.527
    2CHTO   C13  786   3.716   6.947   7.591
    2CHTO   H26  787   3.611   6.933   7.558
    2CHTO   C11  788   3.774   7.087   7.541
    2CHTO   H24  789   3.747   7.099   7.435
    2CHTO    O8  790   3.918   7.087   7.550
    2CHTO    H3  791   3.945   7.076   7.639
    2CHTO    C9  792   3.708   7.199   7.624
    2CHTO   H22  793   3.599   7.182   7.615
    2CHTO    N2  794   3.728   7.336   7.568
    2CHTO   H10  795   3.635   7.375   7.529
    2CHTO   H11  796   3.804   7.336   7.492
    2CHTO    C7  797   3.747   7.182   7.777
    2CHTO   H20  798   3.652   7.204   7.830
    2CHTO    O4  799   3.789   7.048   7.810
    2CHTO   C14  800   3.713   6.941   7.750
    2CHTO   H27  801   3.608   6.951   7.784
    2CHTO   C18  802   3.765   6.807   7.807
    2CHTO   O13  803   3.746   6.799   7.949
    2CHTO    H7  804   3.778   6.717   7.980
    2CHTO    O2  805   3.863   7.284   7.830
    2CHTO    C1  806   3.852   7.308   7.972
    2CHTO   H14  807   3.789   7.229   8.019
    2CHTO    C2  808   3.788   7.449   8.005
    2CHTO   H15  809   3.851   7.524   7.955
    2CHTO    O6  810   3.655   7.453   7.950
    2CHTO    H1  811   3.619   7.539   7.959
    2CHTO    C3  812   3.787   7.472   8.164
    2CHTO   H16  813   3.716   7.401   0.020
    2CHTO    N1  814   3.738   7.610   0.012
    2CHTO    H8  815   3.737   7.621   0.119
    2CHTO    H9  816   3.803   7.685   8.157
    2CHTO    C4  817   3.927   7.439   0.037
    2CHTO   H17  818   3.997   7.519   0.012
    2CHTO    O1  819   3.978   7.312   8.181
    2CHTO    C5  820   3.992   7.297   8.039
    2CHTO   H18  821   4.057   7.375   7.998
    2CHTO   C16  822   4.059   7.159   8.018
    2CHTO   O11  823   4.103   7.140   7.883
    2CHTO    H5  824   4.029   7.134   7.826
    2CHTO    O3  825   3.917   7.423   0.180
    2CHTO    C6  826   4.038   7.453   0.257
    2CHTO   H19  827   4.126   7.468   0.194
    2CHTO    C8  828   4.016   7.582   0.342
    2CHTO   H21  829   3.922   7.571   0.396
    2CHTO    O7  830   4.005   7.692   0.249
    2CHTO    H2  831   3.925   7.686   0.201
    2CHTO   C12  832   4.133   7.604   0.445
    2CHTO   H25  833   4.223   7.632   0.386
    2CHTO    N3  834   4.104   7.721   0.536
    2CHTO   H12  835   4.186   7.736   0.604
    2CHTO   H13  836   4.013   7.702   0.591
    2CHTO   C15  837   4.164   7.471   0.523
    2CHTO   H28  838   4.083   7.446   0.593
    2CHTO   O10  839   4.298   7.477   0.600
    2CHTO    H4  840   4.308   7.400   0.653
    2CHTO    O5  841   4.186   7.363   0.432
    2CHTO   C10  842   4.071   7.333   0.351
    2CHTO   H23  843   3.985   7.313   0.416
    2CHTO   C17  844   4.099   7.204   0.272
    2CHTO   O12  845   4.118   7.092   0.359
    2CHTO    H6  846   4.200   7.101   0.404
    3CHTO  H203  847   5.479   3.785   4.159
    3CHTO   O82  848   5.563   3.801   4.122
    3CHTO  C123  849   5.567   3.756   3.986
    3CHTO  H227  850   5.489   3.808   3.928
    3CHTO   O77  851   5.699   3.798   3.942
    3CHTO  C118  852   5.725   3.774   3.803
    3CHTO  H222  853   5.649   3.827   3.743
    3CHTO  C125  854   5.866   3.835   3.769
    3CHTO   O84  855   5.969   3.779   3.851
    3CHTO  H205  856   6.051   3.818   3.828
    3CHTO  C114  857   5.720   3.623   3.770
    3CHTO  H218  858   5.804   3.574   3.819
    3CHTO  C116  859   5.589   3.556   3.823
    3CHTO  H220  860   5.505   3.583   3.755
    3CHTO   O79  861   5.606   3.413   3.811
    3CHTO  H201  862   5.526   3.369   3.835
    3CHTO  C120  863   5.555   3.599   3.972
    3CHTO  H224  864   5.631   3.550   4.037
    3CHTO   N21  865   5.421   3.549   4.013
    3CHTO  H211  866   5.419   3.533   4.119
    3CHTO  H212  867   5.344   3.618   3.983
    3CHTO   O75  868   5.732   3.617   3.627
    3CHTO  C112  869   5.829   3.501   3.569
    3CHTO  H216  870   5.833   3.418   3.641
    3CHTO   O73  871   5.958   3.561   3.548
    3CHTO  C113  872   6.057   3.477   3.486
    3CHTO  H217  873   6.073   3.387   3.550
    3CHTO  C124  874   6.190   3.553   3.480
    3CHTO   O83  875   6.241   3.585   3.609
    3CHTO  H204  876   6.323   3.630   3.600
    3CHTO  C109  877   6.010   3.434   3.345
    3CHTO  H213  878   5.994   3.526   3.287
    3CHTO  C110  879   5.875   3.357   3.360
    3CHTO  H214  880   5.892   3.266   3.418
    3CHTO   O78  881   5.830   3.316   3.229
    3CHTO  H200  882   5.813   3.391   3.175
    3CHTO  C111  883   5.770   3.448   3.432
    3CHTO  H215  884   5.751   3.535   3.368
    3CHTO   N19  885   5.638   3.382   3.455
    3CHTO  H207  886   5.560   3.437   3.405
    3CHTO  H208  887   5.639   3.280   3.419
    3CHTO   O74  888   6.110   3.351   3.278
    3CHTO  C115  889   6.182   3.428   3.152
    3CHTO  H219  890   6.170   3.536   3.159
    3CHTO   O76  891   6.338   3.405   3.151
    3CHTO  C122  892   6.372   3.265   3.149
    3CHTO  H226  893   6.360   3.227   3.251
    3CHTO  C126  894   6.525   3.251   3.117
    3CHTO   O85  895   6.607   3.303   3.221
    3CHTO  H206  896   6.600   3.249   3.298
    3CHTO  C121  897   6.286   3.179   3.048
    3CHTO  H225  898   6.353   3.112   2.990
    3CHTO   O81  899   6.198   3.094   3.123
    3CHTO  H202  900   6.154   3.035   3.066
    3CHTO  C119  901   6.209   3.271   2.947
    3CHTO  H223  902   6.288   3.327   2.897
    3CHTO  C117  903   6.116   3.375   3.019
    3CHTO  H221  904   6.020   3.336   3.053
    3CHTO   N20  905   6.080   3.487   2.925
    3CHTO  H209  906   6.168   3.543   2.898
    3CHTO  H210  907   6.007   3.552   2.971
    3CHTO   O80  908   6.144   3.193   2.822
    3CHTO  C103  909   6.037   3.080   2.846
    3CHTO  H190  910   6.047   3.037   2.945
    3CHTO  C101  911   5.887   3.124   2.827
    3CHTO  H188  912   5.876   3.175   2.731
    3CHTO   O68  913   5.849   3.219   2.937
    3CHTO  H168  914   5.762   3.252   2.922
    3CHTO   C99  915   5.791   2.996   2.828
    3CHTO  H186  916   5.797   2.946   2.927
    3CHTO   N17  917   5.646   3.027   2.805
    3CHTO  H174  918   5.632   3.071   2.707
    3CHTO  H175  919   5.610   3.093   2.882
    3CHTO   C97  920   5.843   2.892   2.725
    3CHTO  H184  921   5.832   2.933   2.624
    3CHTO   O64  922   5.980   2.858   2.754
    3CHTO  C104  923   6.073   2.967   2.742
    3CHTO  H191  924   6.074   3.008   2.641
    3CHTO  C108  925   6.213   2.907   2.766
    3CHTO   O71  926   6.319   2.998   2.733
    3CHTO  H171  927   6.320   3.070   2.793
    3CHTO   O62  928   5.774   2.766   2.738
    3CHTO   C91  929   5.764   2.686   2.619
    3CHTO  H178  930   5.765   2.752   2.532
    3CHTO   C92  931   5.623   2.619   2.620
    3CHTO  H179  932   5.603   2.580   2.721
    3CHTO   O66  933   5.527   2.725   2.598
    3CHTO  H166  934   5.525   2.783   2.672
    3CHTO   C93  935   5.612   2.504   2.514
    3CHTO  H180  936   5.628   2.549   2.415
    3CHTO   N16  937   5.477   2.442   2.510
    3CHTO  H172  938   5.473   2.366   2.434
    3CHTO  H173  939   5.452   2.401   2.606
    3CHTO   C94  940   5.725   2.394   2.538
    3CHTO  H181  941   5.687   2.308   2.594
    3CHTO   O61  942   5.834   2.444   2.620
    3CHTO   C95  943   5.880   2.579   2.605
    3CHTO  H182  944   5.954   2.599   2.683
    3CHTO  C106  945   5.959   2.598   2.469
    3CHTO   O69  946   6.023   2.725   2.464
    3CHTO  H169  947   6.069   2.734   2.383
    3CHTO   O63  948   5.790   2.345   2.400
    3CHTO   C96  949   5.703   2.258   2.309
    3CHTO  H183  950   5.601   2.297   2.311
    3CHTO   C98  951   5.698   2.106   2.340
    3CHTO  H185  952   5.800   2.065   2.336
    3CHTO   O67  953   5.654   2.084   2.476
    3CHTO  H167  954   5.717   2.118   2.536
    3CHTO  C102  955   5.600   2.027   2.240
    3CHTO  H189  956   5.503   2.023   2.291
    3CHTO   N18  957   5.637   1.885   2.216
    3CHTO  H176  958   5.735   1.879   2.171
    3CHTO  H177  959   5.564   1.838   2.152
    3CHTO  C105  960   5.579   2.107   2.107
    3CHTO  H192  961   5.555   2.038   2.026
    3CHTO   O65  962   5.691   2.187   2.065
    3CHTO  C100  963   5.755   2.273   2.161
    3CHTO  H187  964   5.862   2.246   2.163
    3CHTO  C107  965   5.747   2.421   2.114
    3CHTO   O70  966   5.824   2.442   1.995
    3CHTO  H170  967   5.915   2.434   2.015
    3CHTO   O57  968   5.450   2.194   2.139
    3CHTO   C85  969   5.372   2.251   2.033
    3CHTO  H157  970   5.424   2.229   1.938
    3CHTO   C83  971   5.373   2.406   2.048
    3CHTO  H155  972   5.476   2.440   2.037
    3CHTO   O56  973   5.334   2.442   2.182
    3CHTO  H135  974   5.344   2.535   2.195
    3CHTO   C81  975   5.287   2.471   1.937
    3CHTO  H153  976   5.326   2.438   1.841
    3CHTO   N14  977   5.299   2.619   1.931
    3CHTO  H141  978   5.354   2.657   2.014
    3CHTO  H142  979   5.202   2.666   1.929
    3CHTO   C79  980   5.139   2.420   1.949
    3CHTO  H151  981   5.084   2.460   1.864
    3CHTO   O52  982   5.135   2.274   1.936
    3CHTO   C86  983   5.221   2.201   2.030
    3CHTO  H158  984   5.172   2.215   2.129
    3CHTO   C90  985   5.210   2.050   1.997
    3CHTO   O60  986   5.273   1.969   2.097
    3CHTO  H138  987   5.263   1.878   2.074
    3CHTO   O50  988   5.072   2.461   2.070
    3CHTO   C73  989   4.932   2.482   2.090
    3CHTO  H145  990   4.874   2.405   2.037
    3CHTO   C74  991   4.891   2.622   2.035
    3CHTO  H146  992   4.920   2.626   1.929
    3CHTO   O54  993   4.747   2.631   2.037
    3CHTO  H133  994   4.719   2.712   2.000
    3CHTO   C75  995   4.962   2.734   2.120
    3CHTO  H147  996   5.071   2.720   2.112
    3CHTO   N13  997   4.937   2.872   2.071
    3CHTO  H139  998   4.831   2.894   2.076
    3CHTO  H140  999   4.990   2.943   2.132
    3CHTO   C76 1000   4.922   2.714   2.274
    3CHTO  H148 1001   4.814   2.727   2.282
    3CHTO   O49 1002   4.959   2.580   2.318
    3CHTO   C77 1003   4.899   2.473   2.243
    3CHTO  H149 1004   4.790   2.476   2.256
    3CHTO   C88 1005   4.944   2.341   2.306
    3CHTO   O58 1006   4.884   2.223   2.237
    3CHTO  H136 1007   4.792   2.221   2.253
    3CHTO   O51 1008   5.002   2.812   2.368
    3CHTO   C78 1009   4.919   2.853   2.494
    3CHTO  H150 1010   4.841   2.777   2.518
    3CHTO   C80 1011   4.850   2.989   2.469
    3CHTO  H152 1012   4.926   3.060   2.431
    3CHTO   O55 1013   4.753   2.970   2.365
    3CHTO  H134 1014   4.796   2.953   2.283
    3CHTO   C84 1015   4.782   3.048   2.599
    3CHTO  H156 1016   4.696   2.985   2.622
    3CHTO   N15 1017   4.729   3.187   2.579
    3CHTO  H143 1018   4.808   3.253   2.550
    3CHTO  H144 1019   4.654   3.187   2.503
    3CHTO   C87 1020   4.880   3.041   2.719
    3CHTO  H159 1021   4.961   3.113   2.705
    3CHTO   O53 1022   4.936   2.899   2.731
    3CHTO   C82 1023   5.013   2.860   2.616
    3CHTO  H154 1024   5.094   2.931   2.599
    3CHTO   C89 1025   5.078   2.723   2.649
    3CHTO   O59 1026   5.176   2.684   2.552
    3CHTO  H137 1027   5.250   2.742   2.556
    3CHTO   O45 1028   4.803   3.075   2.857
    3CHTO   C67 1029   4.891   3.090   2.970
    3CHTO  H124 1030   4.984   3.036   2.951
    3CHTO   C65 1031   4.924   3.241   2.999
    3CHTO  H122 1032   4.859   3.300   2.934
    3CHTO   O44 1033   5.061   3.263   2.959
    3CHTO  H102 1034   5.070   3.253   2.866
    3CHTO   C63 1035   4.887   3.284   3.146
    3CHTO  H120 1036   4.778   3.280   3.156
    3CHTO   N11 1037   4.915   3.427   3.182
    3CHTO  H108 1038   4.871   3.492   3.110
    3CHTO  H109 1039   5.020   3.443   3.186
    3CHTO   C61 1040   4.945   3.178   3.247
    3CHTO  H118 1041   4.900   3.201   3.345
    3CHTO   O40 1042   4.907   3.040   3.215
    3CHTO   C68 1043   4.826   3.019   3.095
    3CHTO  H125 1044   4.725   3.060   3.113
    3CHTO   C72 1045   4.808   2.866   3.074
    3CHTO   O48 1046   4.932   2.796   3.054
    3CHTO  H105 1047   4.983   2.798   3.132
    3CHTO   O38 1048   5.089   3.183   3.255
    3CHTO   C55 1049   5.148   3.115   3.368
    3CHTO  H112 1050   5.082   3.035   3.404
    3CHTO   C56 1051   5.182   3.219   3.483
    3CHTO  H113 1052   5.240   3.301   3.437
    3CHTO   O42 1053   5.059   3.278   3.530
    3CHTO  H100 1054   5.078   3.347   3.591
    3CHTO   C57 1055   5.263   3.151   3.601
    3CHTO  H114 1056   5.195   3.080   3.649
    3CHTO   N10 1057   5.309   3.246   3.705
    3CHTO  H106 1058   5.329   3.343   3.661
    3CHTO  H107 1059   5.234   3.257   3.781
    3CHTO   C58 1060   5.383   3.072   3.541
    3CHTO  H115 1061   5.455   3.144   3.497
    3CHTO   O37 1062   5.339   2.980   3.440
    3CHTO   C59 1063   5.280   3.043   3.325
    3CHTO  H116 1064   5.350   3.113   3.280
    3CHTO   C70 1065   5.252   2.931   3.223
    3CHTO   O46 1066   5.211   2.979   3.095
    3CHTO  H103 1067   5.194   2.906   3.038
    3CHTO   O39 1068   5.456   2.981   3.656
    3CHTO   C60 1069   5.598   2.965   3.633
    3CHTO  H117 1070   5.620   2.979   3.527
    3CHTO   C62 1071   5.680   3.070   3.714
    3CHTO  H119 1072   5.644   3.170   3.680
    3CHTO   O43 1073   5.652   3.057   3.855
    3CHTO  H101 1074   5.564   3.081   3.873
    3CHTO   C66 1075   5.835   3.055   3.677
    3CHTO  H123 1076   5.846   3.067   3.569
    3CHTO   N12 1077   5.919   3.161   3.738
    3CHTO  H110 1078   6.023   3.147   3.709
    3CHTO  H111 1079   5.884   3.259   3.707
    3CHTO   C69 1080   5.885   2.913   3.714
    3CHTO  H126 1081   5.886   2.900   3.824
    3CHTO   O41 1082   5.792   2.801   3.649
    3CHTO   C64 1083   5.642   2.821   3.670
    3CHTO  H121 1084   5.617   2.802   3.776
    3CHTO   C71 1085   5.566   2.715   3.585
    3CHTO   O47 1086   5.598   2.726   3.446
    3CHTO  H104 1087   5.550   2.661   3.398
    3CHTO   O34 1088   6.032   2.891   3.661
    3CHTO   C49 1089   6.123   2.840   3.549
    3CHTO   H91 1090   6.225   2.861   3.581
    3CHTO   C47 1091   6.094   2.914   3.417
    3CHTO   H89 1092   6.175   2.884   3.346
    3CHTO   O33 1093   6.104   3.055   3.441
    3CHTO   H70 1094   6.097   3.103   3.361
    3CHTO   C45 1095   5.951   2.868   3.358
    3CHTO   H87 1096   5.874   2.888   3.434
    3CHTO    N8 1097   5.913   2.942   3.234
    3CHTO   H75 1098   5.984   2.920   3.156
    3CHTO   H76 1099   5.912   3.048   3.254
    3CHTO   C43 1100   5.950   2.708   3.338
    3CHTO   H85 1101   5.847   2.683   3.309
    3CHTO   O29 1102   5.988   2.641   3.460
    3CHTO   C50 1103   6.106   2.687   3.530
    3CHTO   H92 1104   6.100   2.643   3.631
    3CHTO   C54 1105   6.236   2.624   3.473
    3CHTO   O36 1106   6.245   2.483   3.500
    3CHTO   H72 1107   6.257   2.469   3.592
    3CHTO   O27 1108   6.033   2.665   3.228
    3CHTO   C37 1109   6.062   2.545   3.154
    3CHTO   H79 1110   6.106   2.469   3.221
    3CHTO   C38 1111   5.933   2.482   3.092
    3CHTO   H80 1112   5.882   2.559   3.032
    3CHTO   O31 1113   5.846   2.442   3.200
    3CHTO   H68 1114   5.813   2.517   3.245
    3CHTO   C39 1115   5.968   2.358   3.000
    3CHTO   H81 1116   6.007   2.280   3.065
    3CHTO    N7 1117   5.849   2.301   2.929
    3CHTO   H73 1118   5.879   2.216   2.869
    3CHTO   H74 1119   5.774   2.270   3.000
    3CHTO   C40 1120   6.083   2.396   2.898
    3CHTO   H82 1121   6.045   2.463   2.821
    3CHTO   O26 1122   6.194   2.453   2.969
    3CHTO   C41 1123   6.162   2.576   3.040
    3CHTO   H83 1124   6.118   2.649   2.971
    3CHTO   C52 1125   6.294   2.637   3.094
    3CHTO   O35 1126   6.390   2.671   2.986
    3CHTO   H71 1127   6.420   2.593   2.944
    3CHTO   O28 1128   6.140   2.279   2.835
    3CHTO   C42 1129   6.199   2.277   2.701
    3CHTO   H84 1130   6.288   2.214   2.714
    3CHTO   C44 1131   6.251   2.411   2.637
    3CHTO   H86 1132   6.166   2.477   2.621
    3CHTO   O32 1133   6.341   2.475   2.730
    3CHTO   H69 1134   6.293   2.504   2.806
    3CHTO   C48 1135   6.322   2.386   2.497
    3CHTO   H90 1136   6.415   2.332   2.517
    3CHTO    N9 1137   6.365   2.514   2.430
    3CHTO   H77 1138   6.436   2.567   2.492
    3CHTO   H78 1139   6.279   2.576   2.410
    3CHTO   C51 1140   6.233   2.297   2.403
    3CHTO   H93 1141   6.149   2.357   2.366
    3CHTO   O30 1142   6.189   2.179   2.472
    3CHTO   C46 1143   6.108   2.206   2.596
    3CHTO   H88 1144   6.026   2.272   2.570
    3CHTO   C53 1145   6.052   2.071   2.646
    3CHTO   O72 1146   6.155   1.975   2.670
    3CHTO  H199 1147   6.117   1.895   2.700
    3CHTO   O22 1148   6.312   2.247   2.292
    3CHTO   C31 1149   6.256   2.185   2.170
    3CHTO   H59 1150   6.344   2.160   2.107
    3CHTO   C29 1151   6.178   2.053   2.192
    3CHTO   H57 1152   6.089   2.076   2.254
    3CHTO   O21 1153   6.261   1.964   2.268
    3CHTO   H37 1154   6.212   1.888   2.294
    3CHTO   C27 1155   6.130   1.989   2.056
    3CHTO   H55 1156   6.220   1.959   1.999
    3CHTO    N5 1157   6.043   1.870   2.073
    3CHTO   H43 1158   6.021   1.853   2.178
    3CHTO   H44 1159   6.090   1.783   2.030
    3CHTO   C25 1160   6.057   2.098   1.969
    3CHTO   H53 1161   5.960   2.122   2.014
    3CHTO   O17 1162   6.134   2.221   1.960
    3CHTO   C32 1163   6.169   2.282   2.085
    3CHTO   H60 1164   6.077   2.305   2.140
    3CHTO   C36 1165   6.240   2.416   2.055
    3CHTO   O25 1166   6.360   2.398   1.978
    3CHTO   H40 1167   6.399   2.482   1.962
    3CHTO   O15 1168   6.034   2.046   1.820
    3CHTO   C19 1169   5.925   2.078   1.730
    3CHTO   H47 1170   5.959   2.041   1.632
    3CHTO   C20 1171   5.790   2.008   1.766
    3CHTO   H48 1172   5.758   2.033   1.868
    3CHTO   O19 1173   5.814   1.866   1.762
    3CHTO   H35 1174   5.835   1.838   1.675
    3CHTO   C21 1175   5.673   2.049   1.667
    3CHTO   H49 1176   5.695   2.007   1.568
    3CHTO    N4 1177   5.542   1.994   1.707
    3CHTO   H41 1178   5.515   2.029   1.806
    3CHTO   H42 1179   5.546   1.886   1.708
    3CHTO   C22 1180   5.669   2.203   1.652
    3CHTO   H50 1181   5.639   2.247   1.747
    3CHTO   O14 1182   5.798   2.253   1.614
    3CHTO   C23 1183   5.901   2.231   1.711
    3CHTO   H51 1184   5.869   2.279   1.805
    3CHTO   C34 1185   6.028   2.303   1.663
    3CHTO   O23 1186   6.009   2.445   1.664
    3CHTO   H38 1187   6.087   2.487   1.633
    3CHTO   O16 1188   5.585   2.248   1.544
    3CHTO   C24 1189   5.473   2.358   1.588
    3CHTO   H52 1190   5.456   2.358   1.696
    3CHTO   C26 1191   5.340   2.325   1.517
    3CHTO   H54 1192   5.359   2.318   1.407
    3CHTO   O20 1193   5.296   2.196   1.564
    3CHTO   H36 1194   5.220   2.168   1.516
    3CHTO   C30 1195   5.233   2.437   1.541
    3CHTO   H58 1196   5.204   2.437   1.648
    3CHTO    N6 1197   5.107   2.410   1.465
    3CHTO   H45 1198   5.087   2.489   1.394
    3CHTO   H46 1199   5.024   2.400   1.533
    3CHTO   C33 1200   5.293   2.577   1.511
    3CHTO   H61 1201   5.314   2.586   1.403
    3CHTO   O18 1202   5.416   2.593   1.583
    3CHTO   C28 1203   5.520   2.501   1.549
    3CHTO   H56 1204   5.541   2.504   1.442
    3CHTO   C35 1205   5.648   2.545   1.625
    3CHTO   O24 1206   5.633   2.545   1.767
    3CHTO   H39 1207   5.714   2.572   1.807
    3CHTO    O9 1208   5.200   2.684   1.541
    3CHTO   C13 1209   5.209   2.831   1.456
    3CHTO   H26 1210   5.116   2.838   1.396
    3CHTO   C11 1211   5.339   2.848   1.365
    3CHTO   H24 1212   5.335   2.772   1.286
    3CHTO    O8 1213   5.460   2.828   1.440
    3CHTO    H3 1214   5.464   2.739   1.471
    3CHTO    C9 1215   5.331   2.988   1.299
    3CHTO   H22 1216   5.232   2.993   1.250
    3CHTO    N2 1217   5.426   3.009   1.187
    3CHTO   H10 1218   5.528   3.009   1.225
    3CHTO   H11 1219   5.405   3.102   1.137
    3CHTO    C7 1220   5.337   3.098   1.411
    3CHTO   H20 1221   5.321   3.194   1.356
    3CHTO    O4 1222   5.231   3.082   1.507
    3CHTO   C14 1223   5.197   2.951   1.560
    3CHTO   H27 1224   5.091   2.957   1.589
    3CHTO   C18 1225   5.278   2.926   1.690
    3CHTO   O13 1226   5.245   3.021   1.791
    3CHTO    H7 1227   5.278   3.106   1.768
    3CHTO    O2 1228   5.484   3.104   1.488
    3CHTO    C1 1229   5.503   3.204   1.590
    3CHTO   H14 1230   5.427   3.190   1.670
    3CHTO    C2 1231   5.497   3.355   1.540
    3CHTO   H15 1232   5.564   3.361   1.453
    3CHTO    O6 1233   5.363   3.387   1.500
    3CHTO    H1 1234   5.339   3.338   1.424
    3CHTO    C3 1235   5.547   3.457   1.654
    3CHTO   H16 1236   5.475   3.456   1.737
    3CHTO    N1 1237   5.556   3.598   1.604
    3CHTO    H8 1238   5.626   3.604   1.522
    3CHTO    H9 1239   5.459   3.632   1.572
    3CHTO    C4 1240   5.683   3.407   1.715
    3CHTO   H17 1241   5.761   3.413   1.639
    3CHTO    O1 1242   5.670   3.271   1.761
    3CHTO    C5 1243   5.642   3.176   1.657
    3CHTO   H18 1244   5.718   3.184   1.579
    3CHTO   C16 1245   5.649   3.034   1.719
    3CHTO   O11 1246   5.782   3.003   1.763
    3CHTO    H5 1247   5.783   2.917   1.800
    3CHTO    O3 1248   5.722   3.481   1.833
    3CHTO    C6 1249   5.866   3.504   1.849
    3CHTO   H19 1250   5.926   3.452   1.775
    3CHTO    C8 1251   5.898   3.657   1.838
    3CHTO   H21 1252   5.836   3.710   1.911
    3CHTO    O7 1253   5.862   3.698   1.705
    3CHTO    H2 1254   5.873   3.791   1.696
    3CHTO   C12 1255   6.051   3.683   1.870
    3CHTO   H25 1256   6.108   3.633   1.789
    3CHTO    N3 1257   6.083   3.830   1.863
    3CHTO   H12 1258   6.118   3.867   1.958
    3CHTO   H13 1259   6.157   3.848   1.787
    3CHTO   C15 1260   6.088   3.617   2.007
    3CHTO   H28 1261   6.040   3.668   2.091
    3CHTO   O10 1262   6.240   3.611   2.032
    3CHTO    H4 1263   6.283   3.569   1.960
    3CHTO    O5 1264   6.053   3.477   2.008
    3CHTO   C10 1265   5.913   3.452   1.989
    3CHTO   H23 1266   5.857   3.503   2.067
    3CHTO   C17 1267   5.888   3.302   2.008
    3CHTO   O12 1268   5.963   3.221   1.916
    3CHTO    H6 1269   5.931   3.233   1.829
    4CHTO  H203 1270   5.387   8.698   2.071
    4CHTO   O82 1271   5.452   8.699   2.138
    4CHTO  C123 1272   5.566   8.619   2.098
    4CHTO  H227 1273   5.529   8.525   2.056
    4CHTO   O77 1274   5.628   8.700   1.993
    4CHTO  C118 1275   5.746   8.642   1.934
    4CHTO  H222 1276   5.720   8.543   1.893
    4CHTO  C125 1277   5.792   8.735   1.816
    4CHTO   O84 1278   5.826   8.867   1.861
    4CHTO  H205 1279   5.850   8.920   1.787
    4CHTO  C114 1280   5.854   8.626   2.042
    4CHTO  H218 1281   5.875   8.724   2.086
    4CHTO  C116 1282   5.801   8.534   2.157
    4CHTO  H220 1283   5.782   8.432   2.116
    4CHTO   O79 1284   5.904   8.519   2.257
    4CHTO  H201 1285   5.977   8.473   2.221
    4CHTO  C120 1286   5.668   8.594   2.216
    4CHTO  H224 1287   5.695   8.691   2.263
    4CHTO   N21 1288   5.608   8.509   2.322
    4CHTO  H211 1289   5.630   8.404   2.304
    4CHTO  H212 1290   5.646   8.538   2.419
    4CHTO   O75 1291   5.971   8.575   1.975
    4CHTO  C112 1292   6.110   8.647   2.027
    4CHTO  H216 1293   6.102   8.667   2.135
    4CHTO   O73 1294   6.126   8.769   1.952
    4CHTO  C113 1295   6.243   8.844   1.987
    4CHTO  H217 1296   6.239   8.868   2.096
    4CHTO  C124 1297   6.240   8.978   1.911
    4CHTO   O83 1298   6.128   9.059   1.946
    4CHTO  H204 1299   6.131   9.139   1.897
    4CHTO  C109 1300   6.371   8.763   1.955
    4CHTO  H213 1301   6.371   8.746   1.846
    4CHTO  C110 1302   6.366   8.626   2.030
    4CHTO  H214 1303   6.376   8.645   2.137
    4CHTO   O78 1304   6.480   8.549   1.989
    4CHTO  H200 1305   6.485   8.470   2.040
    4CHTO  C111 1306   6.232   8.551   2.001
    4CHTO  H215 1307   6.231   8.523   1.895
    4CHTO   N19 1308   6.218   8.426   2.080
    4CHTO  H207 1309   6.300   8.359   2.058
    4CHTO  H208 1310   6.125   8.378   2.055
    4CHTO   O74 1311   6.491   8.837   1.993
    4CHTO  C115 1312   6.600   8.841   1.880
    4CHTO  H219 1313   6.585   8.763   1.806
    4CHTO   O76 1314   6.592   8.977   1.797
    4CHTO  C122 1315   6.651   9.088   1.867
    4CHTO  H226 1316   6.595   9.101   1.960
    4CHTO  C126 1317   6.629   9.219   1.784
    4CHTO   O85 1318   6.490   9.252   1.768
    4CHTO  H206 1319   6.454   9.278   1.851
    4CHTO  C121 1320   6.805   9.064   1.897
    4CHTO  H225 1321   6.865   9.129   1.831
    4CHTO   O81 1322   6.833   9.102   2.032
    4CHTO  H202 1323   6.785   9.049   2.093
    4CHTO  C119 1324   6.846   8.915   1.874
    4CHTO  H223 1325   6.836   8.898   1.766
    4CHTO  C117 1326   6.743   8.820   1.946
    4CHTO  H221 1327   6.729   8.840   2.052
    4CHTO   N20 1328   6.787   8.677   1.938
    4CHTO  H209 1329   6.803   8.637   2.037
    4CHTO  H210 1330   6.716   8.617   1.884
    4CHTO   O80 1331   7.006   8.888   1.895
    4CHTO  C103 1332   7.110   8.976   1.814
    4CHTO  H190 1333   7.057   9.048   1.751
    4CHTO  C101 1334   7.216   9.053   1.899
    4CHTO  H188 1335   7.273   8.982   1.959
    4CHTO   O68 1336   7.142   9.152   1.995
    4CHTO  H168 1337   7.090   9.104   2.057
    4CHTO   C99 1338   7.317   9.130   1.802
    4CHTO  H186 1339   7.259   9.205   1.744
    4CHTO   N17 1340   7.425   9.206   1.873
    4CHTO  H174 1341   7.490   9.137   1.925
    4CHTO  H175 1342   7.382   9.277   1.941
    4CHTO   C97 1343   7.376   9.032   1.695
    4CHTO  H184 1344   7.452   8.969   1.744
    4CHTO   O64 1345   7.274   8.955   1.630
    4CHTO  C104 1346   7.187   8.879   1.716
    4CHTO  H191 1347   7.242   8.806   1.774
    4CHTO  C108 1348   7.089   8.799   1.628
    4CHTO   O71 1349   7.158   8.702   1.549
    4CHTO  H171 1350   7.190   8.633   1.605
    4CHTO   O62 1351   7.434   9.107   1.586
    4CHTO   C91 1352   7.539   9.046   1.510
    4CHTO  H178 1353   7.571   8.955   1.560
    4CHTO   C92 1354   7.662   9.143   1.512
    4CHTO  H179 1355   7.690   9.165   1.616
    4CHTO   O66 1356   7.776   9.073   1.457
    4CHTO  H166 1357   7.854   9.124   1.466
    4CHTO   C93 1358   7.637   9.274   1.427
    4CHTO  H180 1359   7.735   9.308   1.390
    4CHTO   N16 1360   7.586   9.387   1.508
    4CHTO  H172 1361   7.491   9.361   1.552
    4CHTO  H173 1362   7.577   9.475   1.447
    4CHTO   C94 1363   7.544   9.244   1.303
    4CHTO  H181 1364   7.438   9.261   1.326
    4CHTO   O61 1365   7.554   9.105   1.263
    4CHTO   C95 1366   7.499   9.012   1.359
    4CHTO  H182 1367   7.391   9.013   1.350
    4CHTO  C106 1368   7.547   8.866   1.322
    4CHTO   O69 1369   7.504   8.827   1.191
    4CHTO  H169 1370   7.410   8.817   1.190
    4CHTO   O63 1371   7.588   9.337   1.184
    4CHTO   C96 1372   7.492   9.336   1.062
    4CHTO  H183 1373   7.409   9.269   1.084
    4CHTO   C98 1374   7.560   9.286   0.931
    4CHTO  H185 1375   7.649   9.347   0.910
    4CHTO   O67 1376   7.609   9.153   0.954
    4CHTO  H167 1377   7.657   9.123   0.879
    4CHTO  C102 1378   7.459   9.288   0.807
    4CHTO  H189 1379   7.396   9.198   0.819
    4CHTO   N18 1380   7.523   9.272   0.674
    4CHTO  H176 1381   7.592   9.354   0.656
    4CHTO  H177 1382   7.448   9.270   0.596
    4CHTO  C105 1383   7.365   9.413   0.815
    4CHTO  H192 1384   7.356   9.459   0.716
    4CHTO   O65 1385   7.411   9.517   0.903
    4CHTO  C100 1386   7.436   9.483   1.041
    4CHTO  H187 1387   7.512   9.553   1.077
    4CHTO  C107 1388   7.306   9.510   1.123
    4CHTO   O70 1389   7.325   9.489   1.263
    4CHTO  H170 1390   7.383   9.554   1.298
    4CHTO   O57 1391   7.225   9.353   0.857
    4CHTO   C85 1392   7.115   9.359   0.766
    4CHTO  H157 1393   7.156   9.385   0.667
    4CHTO   C83 1394   7.021   9.478   0.805
    4CHTO  H155 1395   7.078   9.571   0.794
    4CHTO   O56 1396   6.986   9.470   0.944
    4CHTO  H135 1397   6.934   9.394   0.961
    4CHTO   C81 1398   6.900   9.482   0.708
    4CHTO  H153 1399   6.938   9.493   0.606
    4CHTO   N14 1400   6.814   9.603   0.726
    4CHTO  H141 1401   6.711   9.575   0.739
    4CHTO  H142 1402   6.846   9.660   0.810
    4CHTO   C79 1403   6.820   9.346   0.716
    4CHTO  H151 1404   6.742   9.349   0.640
    4CHTO   O52 1405   6.908   9.235   0.681
    4CHTO   C86 1406   7.030   9.227   0.762
    4CHTO  H158 1407   6.995   9.198   0.864
    4CHTO   C90 1408   7.118   9.110   0.713
    4CHTO   O60 1409   7.050   8.985   0.728
    4CHTO  H138 1410   6.979   8.979   0.668
    4CHTO   O50 1411   6.757   9.320   0.843
    4CHTO   C73 1412   6.652   9.254   0.915
    4CHTO  H145 1413   6.555   9.279   0.870
    4CHTO   C74 1414   6.652   9.300   1.064
    4CHTO  H146 1415   6.643   9.410   1.064
    4CHTO   O54 1416   6.532   9.248   1.126
    4CHTO  H133 1417   6.526   9.279   1.214
    4CHTO   C75 1418   6.785   9.251   1.134
    4CHTO  H147 1419   6.870   9.300   1.085
    4CHTO   N13 1420   6.794   9.290   1.277
    4CHTO  H139 1421   6.888   9.257   1.319
    4CHTO  H140 1422   6.713   9.245   1.333
    4CHTO   C76 1423   6.803   9.093   1.112
    4CHTO  H148 1424   6.723   9.042   1.166
    4CHTO   O49 1425   6.795   9.061   0.969
    4CHTO   C77 1426   6.669   9.098   0.912
    4CHTO  H149 1427   6.588   9.053   0.971
    4CHTO   C88 1428   6.657   9.036   0.773
    4CHTO   O58 1429   6.524   9.055   0.720
    4CHTO  H136 1430   6.510   9.146   0.701
    4CHTO   O51 1431   6.946   9.046   1.160
    4CHTO   C78 1432   7.001   8.903   1.104
    4CHTO  H150 1433   6.999   8.901   0.993
    4CHTO   C80 1434   6.915   8.785   1.158
    4CHTO  H152 1435   6.901   8.800   1.267
    4CHTO   O55 1436   6.787   8.793   1.093
    4CHTO  H134 1437   6.728   8.729   1.129
    4CHTO   C84 1438   6.984   8.645   1.133
    4CHTO  H156 1439   6.991   8.629   1.026
    4CHTO   N15 1440   6.903   8.531   1.189
    4CHTO  H143 1441   6.878   8.462   1.111
    4CHTO  H144 1442   6.958   8.479   1.265
    4CHTO   C87 1443   7.127   8.652   1.191
    4CHTO  H159 1444   7.122   8.674   1.298
    4CHTO   O53 1445   7.202   8.763   1.117
    4CHTO   C82 1446   7.149   8.893   1.147
    4CHTO  H154 1447   7.161   8.915   1.253
    4CHTO   C89 1448   7.236   8.995   1.070
    4CHTO   O59 1449   7.205   9.130   1.104
    4CHTO  H137 1450   7.259   9.189   1.054
    4CHTO   O45 1451   7.208   8.516   1.168
    4CHTO   C67 1452   7.316   8.499   1.262
    4CHTO  H124 1453   7.359   8.596   1.289
    4CHTO   C65 1454   7.268   8.426   1.391
    4CHTO  H122 1455   7.178   8.479   1.423
    4CHTO   O44 1456   7.368   8.435   1.494
    4CHTO  H102 1457   7.334   8.402   1.575
    4CHTO   C63 1458   7.221   8.281   1.354
    4CHTO  H120 1459   7.143   8.289   1.278
    4CHTO   N11 1460   7.147   8.208   1.462
    4CHTO  H108 1461   7.068   8.269   1.500
    4CHTO  H109 1462   7.108   8.116   1.424
    4CHTO   C61 1463   7.339   8.200   1.288
    4CHTO  H118 1464   7.289   8.115   1.239
    4CHTO   O40 1465   7.408   8.274   1.182
    4CHTO   C68 1466   7.431   8.419   1.191
    4CHTO  H125 1467   7.434   8.456   1.086
    4CHTO   C72 1468   7.570   8.450   1.252
    4CHTO   O48 1469   7.676   8.410   1.165
    4CHTO  H105 1470   7.758   8.432   1.204
    4CHTO   O38 1471   7.439   8.152   1.381
    4CHTO   C55 1472   7.489   8.019   1.351
    4CHTO  H112 1473   7.474   7.997   1.244
    4CHTO   C56 1474   7.421   7.910   1.444
    4CHTO  H113 1475   7.439   7.940   1.548
    4CHTO   O42 1476   7.279   7.910   1.424
    4CHTO  H100 1477   7.242   7.992   1.453
    4CHTO   C57 1478   7.481   7.766   1.415
    4CHTO  H114 1479   7.444   7.739   1.317
    4CHTO   N10 1480   7.433   7.661   1.509
    4CHTO  H106 1481   7.333   7.682   1.541
    4CHTO  H107 1482   7.498   7.656   1.596
    4CHTO   C58 1483   7.636   7.770   1.412
    4CHTO  H115 1484   7.675   7.782   1.516
    4CHTO   O37 1485   7.687   7.878   1.333
    4CHTO   C59 1486   7.643   8.009   1.372
    4CHTO  H116 1487   7.668   8.026   1.477
    4CHTO   C70 1488   7.721   8.111   1.289
    4CHTO   O46 1489   7.700   8.099   1.148
    4CHTO  H103 1490   7.751   8.164   1.103
    4CHTO   O39 1491   7.701   7.626   1.345
    4CHTO   C60 1492   7.660   7.590   1.212
    4CHTO  H117 1493   7.553   7.610   1.200
    4CHTO   C62 1494   7.734   7.671   1.101
    4CHTO  H119 1495   7.709   7.777   1.116
    4CHTO   O43 1496   7.877   7.656   1.116
    4CHTO  H101 1497   7.902   7.567   1.102
    4CHTO   C66 1498   7.680   7.626   0.957
    4CHTO  H123 1499   7.571   7.637   0.956
    4CHTO   N12 1500   7.731   7.712   0.848
    4CHTO  H110 1501   7.701   7.815   0.865
    4CHTO  H111 1502   7.695   7.677   0.753
    4CHTO   C69 1503   7.710   7.475   0.937
    4CHTO  H126 1504   7.820   7.457   0.943
    4CHTO   O41 1505   7.639   7.395   1.049
    4CHTO   C64 1506   7.679   7.437   1.191
    4CHTO  H121 1507   7.785   7.411   1.209
    4CHTO   C71 1508   7.592   7.357   1.291
    4CHTO   O47 1509   7.616   7.216   1.280
    4CHTO  H104 1510   7.701   7.195   1.312
    4CHTO   O34 1511   7.658   7.420   0.799
    4CHTO   C49 1512   7.756   7.394   0.685
    4CHTO   H91 1513   7.825   7.478   0.683
    4CHTO   C47 1514   7.677   7.387   0.553
    4CHTO   H89 1515   7.755   7.379   0.474
    4CHTO   O33 1516   7.604   7.510   0.533
    4CHTO   H70 1517   7.664   7.581   0.522
    4CHTO   C45 1518   7.578   7.259   0.551
    4CHTO   H87 1519   7.483   7.288   0.599
    4CHTO    N8 1520   7.550   7.224   0.410
    4CHTO   H75 1521   7.476   7.146   0.405
    4CHTO   H76 1522   7.641   7.191   0.361
    4CHTO   C43 1523   7.637   7.139   0.644
    4CHTO   H85 1524   7.601   7.160   0.744
    4CHTO   O29 1525   7.781   7.143   0.637
    4CHTO   C50 1526   7.837   7.260   0.701
    4CHTO   H92 1527   7.847   7.239   0.808
    4CHTO   C54 1528   7.983   7.274   0.653
    4CHTO   O36 1529   8.055   7.374   0.727
    4CHTO   H72 1530   8.067   7.345   0.815
    4CHTO   O27 1531   7.585   7.008   0.614
    4CHTO   C37 1532   7.615   6.868   0.625
    4CHTO   H79 1533   7.691   6.840   0.551
    4CHTO   C38 1534   7.673   6.832   0.766
    4CHTO   H80 1535   7.608   6.878   0.843
    4CHTO   O31 1536   7.803   6.892   0.776
    4CHTO   H68 1537   7.796   6.986   0.779
    4CHTO   C39 1538   7.681   6.676   0.791
    4CHTO   H81 1539   7.756   6.637   0.723
    4CHTO    N7 1540   7.726   6.641   0.930
    4CHTO   H73 1541   7.825   6.681   0.948
    4CHTO   H74 1542   7.656   6.681   1.002
    4CHTO   C40 1543   7.544   6.607   0.754
    4CHTO   H82 1544   7.466   6.640   0.824
    4CHTO   O26 1545   7.513   6.642   0.618
    4CHTO   C41 1546   7.486   6.784   0.597
    4CHTO   H83 1547   7.404   6.817   0.664
    4CHTO   C52 1548   7.437   6.797   0.451
    4CHTO   O35 1549   7.381   6.926   0.420
    4CHTO   H71 1550   7.355   6.929   0.330
    4CHTO   O28 1551   7.551   6.463   0.758
    4CHTO   C42 1552   7.432   6.376   0.756
    4CHTO   H84 1553   7.476   6.276   0.745
    4CHTO   C44 1554   7.335   6.394   0.634
    4CHTO   H86 1555   7.303   6.498   0.630
    4CHTO   O32 1556   7.412   6.366   0.515
    4CHTO   H69 1557   7.476   6.433   0.501
    4CHTO   C48 1558   7.205   6.304   0.643
    4CHTO   H90 1559   7.235   6.199   0.635
    4CHTO    N9 1560   7.110   6.329   0.528
    4CHTO   H77 1561   7.023   6.265   0.538
    4CHTO   H78 1562   7.160   6.310   0.434
    4CHTO   C51 1563   7.138   6.327   0.783
    4CHTO   H93 1564   7.113   6.433   0.791
    4CHTO   O30 1565   7.232   6.286   0.882
    4CHTO   C46 1566   7.354   6.375   0.892
    4CHTO   H88 1567   7.322   6.477   0.916
    4CHTO   C53 1568   7.437   6.315   1.007
    4CHTO   O72 1569   7.538   6.405   1.053
    4CHTO  H199 1570   7.585   6.365   1.125
    4CHTO   O22 1571   7.021   6.245   0.803
    4CHTO   C31 1572   6.936   6.263   0.923
    4CHTO   H59 1573   7.005   6.295   1.005
    4CHTO   C29 1574   6.826   6.371   0.912
    4CHTO   H57 1575   6.758   6.341   0.831
    4CHTO   O21 1576   6.887   6.495   0.871
    4CHTO   H37 1577   6.820   6.559   0.852
    4CHTO   C27 1578   6.744   6.385   1.046
    4CHTO   H55 1579   6.812   6.422   1.125
    4CHTO    N5 1580   6.630   6.479   1.035
    4CHTO   H43 1581   6.581   6.489   1.131
    4CHTO   H44 1582   6.665   6.576   1.002
    4CHTO   C25 1583   6.695   6.243   1.093
    4CHTO   H53 1584   6.618   6.206   1.022
    4CHTO   O17 1585   6.804   6.146   1.095
    4CHTO   C32 1586   6.873   6.129   0.970
    4CHTO   H60 1587   6.802   6.095   0.895
    4CHTO   C36 1588   6.978   6.017   0.989
    4CHTO   O25 1589   7.076   6.050   1.088
    4CHTO   H40 1590   7.037   6.051   1.173
    4CHTO   O15 1591   6.633   6.247   1.239
    4CHTO   C19 1592   6.677   6.283   1.374
    4CHTO   H47 1593   6.623   6.211   1.438
    4CHTO   C20 1594   6.830   6.266   1.399
    4CHTO   H48 1595   6.890   6.326   1.329
    4CHTO   O19 1596   6.860   6.127   1.375
    4CHTO   H35 1597   6.953   6.113   1.380
    4CHTO   C21 1598   6.870   6.307   1.547
    4CHTO   H49 1599   6.826   6.235   1.615
    4CHTO    N4 1600   7.017   6.302   1.569
    4CHTO   H41 1601   7.056   6.399   1.597
    4CHTO   H42 1602   7.041   6.232   1.647
    4CHTO   C22 1603   6.807   6.444   1.582
    4CHTO   H50 1604   6.857   6.523   1.524
    4CHTO   O14 1605   6.666   6.447   1.556
    4CHTO   C23 1606   6.631   6.425   1.418
    4CHTO   H51 1607   6.680   6.504   1.359
    4CHTO   C34 1608   6.480   6.445   1.402
    4CHTO   O23 1609   6.403   6.349   1.476
    4CHTO   H38 1610   6.312   6.365   1.462
    4CHTO   O16 1611   6.819   6.469   1.724
    4CHTO   C24 1612   6.831   6.621   1.768
    4CHTO   H52 1613   6.780   6.688   1.699
    4CHTO   C26 1614   6.980   6.659   1.778
    4CHTO   H54 1615   7.034   6.576   1.827
    4CHTO   O20 1616   7.032   6.670   1.644
    4CHTO   H36 1617   7.125   6.682   1.646
    4CHTO   C30 1618   7.004   6.789   1.861
    4CHTO   H58 1619   6.964   6.876   1.807
    4CHTO    N6 1620   7.149   6.816   1.882
    4CHTO   H45 1621   7.195   6.733   1.934
    4CHTO   H46 1622   7.198   6.829   1.787
    4CHTO   C33 1623   6.925   6.781   1.995
    4CHTO   H61 1624   6.961   6.695   2.054
    4CHTO   O18 1625   6.787   6.760   1.964
    4CHTO   C28 1626   6.758   6.633   1.905
    4CHTO   H56 1627   6.792   6.553   1.970
    4CHTO   C35 1628   6.606   6.621   1.884
    4CHTO   O24 1629   6.531   6.631   2.006
    4CHTO   H39 1630   6.548   6.557   2.060
    4CHTO    O9 1631   6.943   6.896   2.080
    4CHTO   C13 1632   6.899   6.873   2.238
    4CHTO   H26 1633   6.944   6.777   2.273
    4CHTO   C11 1634   6.741   6.871   2.249
    4CHTO   H24 1635   6.706   6.776   2.206
    4CHTO    O8 1636   6.686   6.978   2.171
    4CHTO    H3 1637   6.592   6.971   2.168
    4CHTO    C9 1638   6.700   6.874   2.399
    4CHTO   H22 1639   6.753   6.790   2.446
    4CHTO    N2 1640   6.555   6.849   2.424
    4CHTO   H10 1641   6.501   6.843   2.331
    4CHTO   H11 1642   6.542   6.758   2.480
    4CHTO    C7 1643   6.750   7.008   2.463
    4CHTO   H20 1644   6.725   6.999   2.571
    4CHTO    O4 1645   6.893   7.023   2.450
    4CHTO   C14 1646   6.965   6.986   2.330
    4CHTO   H27 1647   7.062   6.944   2.367
    4CHTO   C18 1648   7.000   7.114   2.250
    4CHTO   O13 1649   7.086   7.202   2.325
    4CHTO    H7 1650   7.171   7.163   2.333
    4CHTO    O2 1651   6.673   7.141   2.399
    4CHTO    C1 1652   6.720   7.271   2.438
    4CHTO   H14 1653   6.831   7.272   2.433
    4CHTO    C2 1654   6.676   7.319   2.582
    4CHTO   H15 1655   6.566   7.310   2.585
    4CHTO    O6 1656   6.733   7.233   2.682
    4CHTO    H1 1657   6.827   7.236   2.678
    4CHTO    C3 1658   6.719   7.473   2.607
    4CHTO   H16 1659   6.829   7.475   2.617
    4CHTO    N1 1660   6.663   7.528   2.735
    4CHTO    H8 1661   6.555   7.526   2.731
    4CHTO    H9 1662   6.697   7.629   2.750
    4CHTO    C4 1663   6.685   7.563   2.483
    4CHTO   H17 1664   6.578   7.582   2.480
    4CHTO    O1 1665   6.729   7.502   2.360
    4CHTO    C5 1666   6.671   7.374   2.333
    4CHTO   H18 1667   6.562   7.380   2.339
    4CHTO   C16 1668   6.710   7.334   2.188
    4CHTO   O11 1669   6.661   7.427   2.091
    4CHTO    H5 1670   6.568   7.422   2.086
    4CHTO    O3 1671   6.758   7.688   2.489
    4CHTO    C6 1672   6.718   7.791   2.392
    4CHTO   H19 1673   6.653   7.752   2.313
    4CHTO    C8 1674   6.642   7.907   2.464
    4CHTO   H21 1675   6.703   7.942   2.547
    4CHTO    O7 1676   6.519   7.851   2.515
    4CHTO    H2 1677   6.474   7.915   2.568
    4CHTO   C12 1678   6.616   8.028   2.365
    4CHTO   H25 1679   6.543   7.991   2.289
    4CHTO    N3 1680   6.551   8.145   2.435
    4CHTO   H12 1681   6.455   8.165   2.391
    4CHTO   H13 1682   6.542   8.127   2.541
    4CHTO   C15 1683   6.750   8.067   2.292
    4CHTO   H28 1684   6.821   8.113   2.360
    4CHTO   O10 1685   6.726   8.162   2.170
    4CHTO    H4 1686   6.663   8.125   2.112
    4CHTO    O5 1687   6.809   7.952   2.229
    4CHTO   C10 1688   6.845   7.848   2.322
    4CHTO   H23 1689   6.911   7.891   2.398
    4CHTO   C17 1690   6.927   7.742   2.247
    4CHTO   O12 1691   6.854   7.684   2.138
    4CHTO    H6 1692   6.907   7.619   2.096
    5CHTO  H203 1693   7.341   3.990   4.075
    5CHTO   O82 1694   7.279   4.058   4.096
    5CHTO  C123 1695   7.326   4.134   4.208
    5CHTO  H227 1696   7.422   4.181   4.182
    5CHTO   O77 1697   7.223   4.237   4.222
    5CHTO  C118 1698   7.245   4.329   4.329
    5CHTO  H222 1699   7.344   4.375   4.317
    5CHTO  C125 1700   7.136   4.442   4.321
    5CHTO   O84 1701   7.158   4.527   4.208
    5CHTO  H205 1702   7.093   4.594   4.205
    5CHTO  C114 1703   7.239   4.253   4.463
    5CHTO  H218 1704   7.142   4.204   4.471
    5CHTO  C116 1705   7.348   4.142   4.467
    5CHTO  H220 1706   7.449   4.190   4.469
    5CHTO   O79 1707   7.335   4.070   4.591
    5CHTO  H201 1708   7.403   4.007   4.599
    5CHTO  C120 1709   7.337   4.048   4.341
    5CHTO  H224 1710   7.244   3.990   4.355
    5CHTO   N21 1711   7.449   3.950   4.335
    5CHTO  H211 1712   7.417   3.860   4.285
    5CHTO  H212 1713   7.534   3.993   4.285
    5CHTO   O75 1714   7.256   4.351   4.566
    5CHTO  C112 1715   7.142   4.344   4.681
    5CHTO  H216 1716   7.127   4.239   4.711
    5CHTO   O73 1717   7.022   4.400   4.624
    5CHTO  C113 1718   6.911   4.407   4.714
    5CHTO  H217 1719   6.893   4.306   4.756
    5CHTO  C124 1720   6.788   4.444   4.630
    5CHTO   O83 1721   6.665   4.439   4.701
    5CHTO  H204 1722   6.662   4.507   4.766
    5CHTO  C109 1723   6.945   4.508   4.827
    5CHTO  H213 1724   6.967   4.604   4.778
    5CHTO  C110 1725   7.070   4.456   4.904
    5CHTO  H214 1726   7.043   4.364   4.956
    5CHTO   O78 1727   7.106   4.554   5.003
    5CHTO  H200 1728   7.175   4.521   5.058
    5CHTO  C111 1729   7.189   4.429   4.806
    5CHTO  H215 1730   7.225   4.525   4.768
    5CHTO   N19 1731   7.305   4.363   4.872
    5CHTO  H207 1732   7.385   4.349   4.801
    5CHTO  H208 1733   7.275   4.267   4.912
    5CHTO   O74 1734   6.833   4.526   4.919
    5CHTO  C115 1735   6.766   4.678   4.916
    5CHTO  H219 1736   6.831   4.752   4.963
    5CHTO   O76 1737   6.744   4.730   4.765
    5CHTO  C122 1738   6.661   4.845   4.745
    5CHTO  H226 1739   6.637   4.847   4.639
    5CHTO  C126 1740   6.744   4.975   4.773
    5CHTO   O85 1741   6.668   5.094   4.748
    5CHTO  H206 1742   6.721   5.169   4.765
    5CHTO  C121 1743   6.527   4.837   4.827
    5CHTO  H225 1744   6.475   4.935   4.819
    5CHTO   O81 1745   6.441   4.739   4.767
    5CHTO  H202 1746   6.416   4.765   4.681
    5CHTO  C119 1747   6.553   4.808   4.978
    5CHTO  H223 1748   6.619   4.888   5.012
    5CHTO  C117 1749   6.631   4.673   4.996
    5CHTO  H221 1750   6.581   4.583   4.961
    5CHTO   N20 1751   6.659   4.647   5.141
    5CHTO  H209 1752   6.719   4.727   5.183
    5CHTO  H210 1753   6.567   4.637   5.196
    5CHTO   O80 1754   6.422   4.833   5.074
    5CHTO  C103 1755   6.280   4.777   5.034
    5CHTO  H190 1756   6.260   4.795   4.928
    5CHTO  C101 1757   6.255   4.624   5.066
    5CHTO  H188 1758   6.292   4.604   5.167
    5CHTO   O68 1759   6.337   4.537   4.966
    5CHTO  H168 1760   6.306   4.551   4.879
    5CHTO   C99 1761   6.100   4.587   5.061
    5CHTO  H186 1762   6.063   4.600   4.957
    5CHTO   N17 1763   6.071   4.445   5.102
    5CHTO  H174 1764   6.129   4.378   5.040
    5CHTO  H175 1765   5.966   4.425   5.093
    5CHTO   C97 1766   6.020   4.689   5.147
    5CHTO  H184 1767   6.057   4.679   5.251
    5CHTO   O64 1768   6.044   4.822   5.096
    5CHTO  C104 1769   6.178   4.868   5.115
    5CHTO  H191 1770   6.206   4.868   5.221
    5CHTO  C108 1771   6.182   5.015   5.070
    5CHTO   O71 1772   6.302   5.083   5.110
    5CHTO  H171 1773   6.298   5.172   5.081
    5CHTO   O62 1774   5.877   4.665   5.152
    5CHTO   C91 1775   5.785   4.710   5.050
    5CHTO  H178 1776   5.810   4.813   5.024
    5CHTO   C92 1777   5.643   4.716   5.117
    5CHTO  H179 1778   5.648   4.775   5.210
    5CHTO   O66 1779   5.554   4.788   5.030
    5CHTO  H166 1780   5.581   4.878   5.023
    5CHTO   C93 1781   5.581   4.572   5.142
    5CHTO  H180 1782   5.472   4.584   5.142
    5CHTO   N16 1783   5.614   4.515   5.275
    5CHTO  H172 1784   5.721   4.504   5.285
    5CHTO  H173 1785   5.564   4.420   5.288
    5CHTO   C94 1786   5.621   4.472   5.026
    5CHTO  H181 1787   5.710   4.413   5.052
    5CHTO   O61 1788   5.654   4.544   4.906
    5CHTO   C95 1789   5.777   4.620   4.917
    5CHTO  H182 1790   5.860   4.550   4.917
    5CHTO  C106 1791   5.793   4.709   4.789
    5CHTO   O69 1792   5.805   4.629   4.671
    5CHTO  H169 1793   5.724   4.587   4.652
    5CHTO   O63 1794   5.500   4.377   5.000
    5CHTO   C96 1795   5.524   4.262   4.896
    5CHTO  H183 1796   5.569   4.306   4.807
    5CHTO   C98 1797   5.389   4.195   4.853
    5CHTO  H185 1798   5.311   4.272   4.837
    5CHTO   O67 1799   5.406   4.130   4.726
    5CHTO  H167 1800   5.422   4.194   4.659
    5CHTO  C102 1801   5.339   4.085   4.957
    5CHTO  H189 1802   5.249   4.040   4.912
    5CHTO   N18 1803   5.294   4.134   5.090
    5CHTO  H176 1804   5.375   4.186   5.139
    5CHTO  H177 1805   5.261   4.052   5.151
    5CHTO  C105 1806   5.449   3.975   4.966
    5CHTO  H192 1807   5.448   3.929   5.065
    5CHTO   O65 1808   5.584   4.016   4.935
    5CHTO  C100 1809   5.624   4.153   4.957
    5CHTO  H187 1810   5.630   4.168   5.066
    5CHTO  C107 1811   5.767   4.170   4.899
    5CHTO   O70 1812   5.862   4.087   4.966
    5CHTO  H170 1813   5.876   4.118   5.054
    5CHTO   O57 1814   5.400   3.870   4.857
    5CHTO   C85 1815   5.400   3.728   4.878
    5CHTO  H157 1816   5.329   3.708   4.961
    5CHTO   C83 1817   5.539   3.678   4.927
    5CHTO  H155 1818   5.560   3.724   5.024
    5CHTO   O56 1819   5.641   3.725   4.837
    5CHTO  H135 1820   5.632   3.685   4.752
    5CHTO   C81 1821   5.535   3.523   4.945
    5CHTO  H153 1822   5.455   3.499   5.015
    5CHTO   N14 1823   5.658   3.468   5.009
    5CHTO  H141 1824   5.674   3.515   5.103
    5CHTO  H142 1825   5.743   3.485   4.946
    5CHTO   C79 1826   5.502   3.454   4.807
    5CHTO  H151 1827   5.491   3.348   4.826
    5CHTO   O52 1828   5.373   3.502   4.757
    5CHTO   C86 1829   5.361   3.648   4.747
    5CHTO  H158 1830   5.430   3.675   4.663
    5CHTO   C90 1831   5.219   3.687   4.700
    5CHTO   O60 1832   5.194   3.641   4.567
    5CHTO  H138 1833   5.110   3.671   4.538
    5CHTO   O50 1834   5.604   3.472   4.706
    5CHTO   C73 1835   5.647   3.402   4.589
    5CHTO  H145 1836   5.560   3.366   4.532
    5CHTO   C74 1837   5.735   3.279   4.628
    5CHTO  H146 1838   5.674   3.215   4.693
    5CHTO   O54 1839   5.761   3.202   4.509
    5CHTO  H133 1840   5.812   3.251   4.448
    5CHTO   C75 1841   5.867   3.329   4.699
    5CHTO  H147 1842   5.838   3.384   4.790
    5CHTO   N13 1843   5.956   3.220   4.745
    5CHTO  H139 1844   5.914   3.123   4.724
    5CHTO  H140 1845   5.973   3.228   4.852
    5CHTO   C76 1846   5.942   3.434   4.603
    5CHTO  H148 1847   5.975   3.381   4.514
    5CHTO   O49 1848   5.850   3.542   4.565
    5CHTO   C77 1849   5.730   3.497   4.498
    5CHTO  H149 1850   5.757   3.445   4.406
    5CHTO   C88 1851   5.649   3.620   4.456
    5CHTO   O58 1852   5.532   3.582   4.374
    5CHTO  H136 1853   5.485   3.659   4.348
    5CHTO   O51 1854   6.064   3.502   4.684
    5CHTO   C78 1855   6.134   3.626   4.619
    5CHTO  H150 1856   6.077   3.664   4.531
    5CHTO   C80 1857   6.276   3.587   4.573
    5CHTO  H152 1858   6.324   3.526   4.653
    5CHTO   O55 1859   6.263   3.502   4.457
    5CHTO  H134 1860   6.226   3.419   4.481
    5CHTO   C84 1861   6.369   3.713   4.543
    5CHTO  H156 1862   6.332   3.762   4.453
    5CHTO   N15 1863   6.512   3.676   4.516
    5CHTO  H143 1864   6.518   3.612   4.430
    5CHTO  H144 1865   6.553   3.624   4.601
    5CHTO   C87 1866   6.357   3.814   4.659
    5CHTO  H159 1867   6.395   3.769   4.750
    5CHTO   O53 1868   6.212   3.850   4.674
    5CHTO   C82 1869   6.137   3.739   4.725
    5CHTO  H154 1870   6.180   3.703   4.818
    5CHTO   C89 1871   5.995   3.792   4.758
    5CHTO   O59 1872   5.923   3.697   4.837
    5CHTO  H137 1873   5.836   3.730   4.854
    5CHTO   O45 1874   6.434   3.952   4.631
    5CHTO   C67 1875   6.456   4.023   4.754
    5CHTO  H124 1876   6.382   3.991   4.827
    5CHTO   C65 1877   6.599   3.993   4.811
    5CHTO  H122 1878   6.661   3.966   4.726
    5CHTO   O44 1879   6.586   3.879   4.898
    5CHTO  H102 1880   6.561   3.803   4.849
    5CHTO   C63 1881   6.668   4.122   4.872
    5CHTO  H120 1882   6.701   4.185   4.789
    5CHTO   N11 1883   6.797   4.099   4.944
    5CHTO  H108 1884   6.779   4.045   5.034
    5CHTO  H109 1885   6.844   4.192   4.966
    5CHTO   C61 1886   6.562   4.206   4.951
    5CHTO  H118 1887   6.612   4.298   4.983
    5CHTO   O40 1888   6.448   4.246   4.867
    5CHTO   C68 1889   6.432   4.179   4.737
    5CHTO  H125 1890   6.507   4.220   4.666
    5CHTO   C72 1891   6.292   4.211   4.680
    5CHTO   O48 1892   6.184   4.166   4.763
    5CHTO  H105 1893   6.103   4.186   4.722
    5CHTO   O38 1894   6.513   4.133   5.066
    5CHTO   C55 1895   6.440   4.210   5.164
    5CHTO  H112 1896   6.396   4.300   5.118
    5CHTO   C56 1897   6.534   4.248   5.287
    5CHTO  H113 1898   6.575   4.154   5.326
    5CHTO   O42 1899   6.647   4.324   5.241
    5CHTO  H100 1900   6.619   4.405   5.202
    5CHTO   C57 1901   6.453   4.323   5.400
    5CHTO  H114 1902   6.427   4.421   5.360
    5CHTO   N10 1903   6.532   4.346   5.524
    5CHTO  H106 1904   6.468   4.351   5.611
    5CHTO  H107 1905   6.604   4.267   5.538
    5CHTO   C58 1906   6.322   4.246   5.431
    5CHTO  H115 1907   6.347   4.151   5.485
    5CHTO   O37 1908   6.249   4.215   5.311
    5CHTO   C59 1909   6.320   4.129   5.221
    5CHTO  H116 1910   6.355   4.040   5.274
    5CHTO   C70 1911   6.224   4.085   5.110
    5CHTO   O46 1912   6.268   3.968   5.041
    5CHTO  H103 1913   6.207   3.946   4.974
    5CHTO   O39 1914   6.224   4.339   5.525
    5CHTO   C60 1915   6.101   4.276   5.566
    5CHTO  H117 1916   6.057   4.226   5.480
    5CHTO   C62 1917   6.122   4.171   5.679
    5CHTO  H119 1918   6.187   4.091   5.636
    5CHTO   O43 1919   6.192   4.233   5.788
    5CHTO  H101 1920   6.211   4.169   5.855
    5CHTO   C66 1921   5.980   4.107   5.721
    5CHTO  H123 1922   5.934   4.063   5.632
    5CHTO   N12 1923   5.994   3.996   5.819
    5CHTO  H110 1924   5.897   3.955   5.842
    5CHTO  H111 1925   6.043   4.032   5.908
    5CHTO   C69 1926   5.886   4.220   5.771
    5CHTO  H126 1927   5.934   4.270   5.858
    5CHTO   O41 1928   5.868   4.324   5.655
    5CHTO   C64 1929   6.000   4.386   5.610
    5CHTO  H121 1930   6.045   4.443   5.694
    5CHTO   C71 1931   5.972   4.485   5.494
    5CHTO   O47 1932   5.893   4.596   5.538
    5CHTO  H104 1933   5.944   4.650   5.596
    5CHTO   O34 1934   5.740   4.167   5.818
    5CHTO   C49 1935   5.676   4.249   5.938
    5CHTO   H91 1936   5.749   4.249   6.019
    5CHTO   C47 1937   5.547   4.179   5.985
    5CHTO   H89 1938   5.513   4.231   6.077
    5CHTO   O33 1939   5.579   4.042   6.019
    5CHTO   H70 1940   5.634   4.040   6.094
    5CHTO   C45 1941   5.434   4.192   5.870
    5CHTO   H87 1942   5.475   4.150   5.777
    5CHTO    N8 1943   5.310   4.117   5.903
    5CHTO   H75 1944   5.333   4.013   5.921
    5CHTO   H76 1945   5.264   4.159   5.992
    5CHTO   C43 1946   5.407   4.348   5.839
    5CHTO   H85 1947   5.339   4.350   5.754
    5CHTO   O29 1948   5.531   4.416   5.810
    5CHTO   C50 1949   5.644   4.396   5.898
    5CHTO   H92 1950   5.732   4.434   5.844
    5CHTO   C54 1951   5.639   4.488   6.023
    5CHTO   O36 1952   5.643   4.625   5.985
    5CHTO   H72 1953   5.641   4.679   6.062
    5CHTO   O27 1954   5.338   4.414   5.947
    5CHTO   C37 1955   5.271   4.529   6.001
    5CHTO   H79 1956   5.344   4.610   6.021
    5CHTO   C38 1957   5.164   4.587   5.902
    5CHTO   H80 1958   5.101   4.503   5.867
    5CHTO   O31 1959   5.234   4.642   5.789
    5CHTO   H68 1960   5.274   4.573   5.739
    5CHTO   C39 1961   5.071   4.695   5.971
    5CHTO   H81 1962   5.132   4.784   5.989
    5CHTO    N7 1963   4.956   4.739   5.883
    5CHTO   H73 1964   4.995   4.781   5.791
    5CHTO   H74 1965   4.897   4.813   5.935
    5CHTO   C40 1966   5.020   4.644   6.111
    5CHTO   H82 1967   4.954   4.559   6.096
    5CHTO   O26 1968   5.136   4.608   6.189
    5CHTO   C41 1969   5.202   4.490   6.134
    5CHTO   H83 1970   5.128   4.412   6.114
    5CHTO   C52 1971   5.299   4.432   6.241
    5CHTO   O35 1972   5.399   4.526   6.288
    5CHTO   H71 1973   5.458   4.548   6.218
    5CHTO   O28 1974   4.942   4.742   6.185
    5CHTO   C42 1975   4.924   4.745   6.330
    5CHTO   H84 1976   4.825   4.790   6.340
    5CHTO   C44 1977   5.022   4.843   6.404
    5CHTO   H86 1978   5.123   4.824   6.367
    5CHTO   O32 1979   4.986   4.976   6.363
    5CHTO   H69 1980   4.901   4.999   6.395
    5CHTO   C48 1981   5.023   4.825   6.561
    5CHTO   H90 1982   4.925   4.851   6.601
    5CHTO    N9 1983   5.120   4.918   6.629
    5CHTO   H77 1984   5.116   4.903   6.736
    5CHTO   H78 1985   5.220   4.900   6.592
    5CHTO   C51 1986   5.051   4.673   6.587
    5CHTO   H93 1987   5.135   4.644   6.523
    5CHTO   O30 1988   4.930   4.606   6.549
    5CHTO   C46 1989   4.915   4.602   6.397
    5CHTO   H88 1990   4.995   4.538   6.361
    5CHTO   C53 1991   4.780   4.533   6.365
    5CHTO   O72 1992   4.668   4.602   6.422
    5CHTO  H199 1993   4.671   4.596   6.516
    5CHTO   O22 1994   5.075   4.634   6.723
    5CHTO   C31 1995   5.176   4.528   6.749
    5CHTO   H59 1996   5.170   4.506   6.858
    5CHTO   C29 1997   5.147   4.394   6.674
    5CHTO   H57 1998   5.131   4.419   6.568
    5CHTO   O21 1999   5.022   4.343   6.723
    5CHTO   H37 2000   5.030   4.315   6.812
    5CHTO   C27 2001   5.265   4.289   6.684
    5CHTO   H55 2002   5.274   4.256   6.788
    5CHTO    N5 2003   5.243   4.170   6.598
    5CHTO   H43 2004   5.239   4.200   6.494
    5CHTO   H44 2005   5.321   4.098   6.614
    5CHTO   C25 2006   5.399   4.362   6.648
    5CHTO   H53 2007   5.392   4.402   6.546
    5CHTO   O17 2008   5.418   4.473   6.741
    5CHTO   C32 2009   5.322   4.578   6.724
    5CHTO   H60 2010   5.330   4.616   6.622
    5CHTO   C36 2011   5.360   4.692   6.821
    5CHTO   O25 2012   5.487   4.749   6.788
    5CHTO   H40 2013   5.480   4.797   6.708
    5CHTO   O15 2014   5.527   4.268   6.658
    5CHTO   C19 2015   5.657   4.323   6.618
    5CHTO   H47 2016   5.634   4.425   6.581
    5CHTO   C20 2017   5.759   4.337   6.735
    5CHTO   H48 2018   5.781   4.239   6.781
    5CHTO   O19 2019   5.698   4.419   6.837
    5CHTO   H35 2020   5.682   4.506   6.805
    5CHTO   C21 2021   5.896   4.400   6.687
    5CHTO   H49 2022   5.878   4.504   6.661
    5CHTO    N4 2023   6.000   4.399   6.793
    5CHTO   H41 2024   6.023   4.298   6.823
    5CHTO   H42 2025   6.091   4.446   6.756
    5CHTO   C22 2026   5.944   4.329   6.557
    5CHTO   H50 2027   5.977   4.228   6.581
    5CHTO   O14 2028   5.839   4.324   6.459
    5CHTO   C23 2029   5.724   4.248   6.499
    5CHTO   H51 2030   5.757   4.147   6.528
    5CHTO   C34 2031   5.634   4.236   6.375
    5CHTO   O23 2032   5.529   4.140   6.394
    5CHTO   H38 2033   5.565   4.054   6.397
    5CHTO   O16 2034   6.047   4.404   6.489
    5CHTO   C24 2035   6.175   4.317   6.445
    5CHTO   H52 2036   6.179   4.221   6.497
    5CHTO   C26 2037   6.303   4.397   6.480
    5CHTO   H54 2038   6.295   4.498   6.433
    5CHTO   O20 2039   6.308   4.416   6.623
    5CHTO   H36 2040   6.316   4.334   6.667
    5CHTO   C30 2041   6.431   4.327   6.425
    5CHTO   H58 2042   6.449   4.234   6.482
    5CHTO    N6 2043   6.554   4.410   6.446
    5CHTO   H45 2044   6.599   4.438   6.352
    5CHTO   H46 2045   6.532   4.500   6.503
    5CHTO   C33 2046   6.413   4.285   6.276
    5CHTO   H61 2047   6.411   4.375   6.212
    5CHTO   O18 2048   6.290   4.213   6.259
    5CHTO   C28 2049   6.172   4.287   6.293
    5CHTO   H56 2050   6.169   4.381   6.238
    5CHTO   C35 2051   6.050   4.201   6.250
    5CHTO   O24 2052   6.041   4.075   6.318
    5CHTO   H39 2053   6.023   4.089   6.409
    5CHTO    O9 2054   6.526   4.207   6.229
    5CHTO   C13 2055   6.523   4.176   6.070
    5CHTO   H26 2056   6.463   4.256   6.020
    5CHTO   C11 2057   6.462   4.032   6.045
    5CHTO   H24 2058   6.358   4.032   6.082
    5CHTO    O8 2059   6.536   3.936   6.124
    5CHTO    H3 2060   6.496   3.851   6.116
    5CHTO    C9 2061   6.461   4.005   5.892
    5CHTO   H22 2062   6.392   4.079   5.850
    5CHTO    N2 2063   6.397   3.875   5.857
    5CHTO   H10 2064   6.387   3.868   5.749
    5CHTO   H11 2065   6.301   3.867   5.904
    5CHTO    C7 2066   6.605   4.032   5.829
    5CHTO   H20 2067   6.586   4.119   5.762
    5CHTO    O4 2068   6.703   4.069   5.928
    5CHTO   C14 2069   6.669   4.185   6.006
    5CHTO   H27 2070   6.672   4.274   5.940
    5CHTO   C18 2071   6.781   4.205   6.112
    5CHTO   O13 2072   6.906   4.236   6.050
    5CHTO    H7 2073   6.972   4.247   6.115
    5CHTO    O2 2074   6.670   3.906   5.738
    5CHTO    C1 2075   6.712   3.943   5.605
    5CHTO   H14 2076   6.687   4.049   5.585
    5CHTO    C2 2077   6.645   3.853   5.493
    5CHTO   H15 2078   6.663   3.749   5.524
    5CHTO    O6 2079   6.504   3.879   5.492
    5CHTO    H1 2080   6.487   3.968   5.469
    5CHTO    C3 2081   6.710   3.880   5.348
    5CHTO   H16 2082   6.676   3.978   5.313
    5CHTO    N1 2083   6.664   3.780   5.246
    5CHTO    H8 2084   6.694   3.681   5.275
    5CHTO    H9 2085   6.705   3.804   5.149
    5CHTO    C4 2086   6.867   3.890   5.356
    5CHTO   H17 2087   6.909   3.790   5.366
    5CHTO    O1 2088   6.911   3.974   5.464
    5CHTO    C5 2089   6.867   3.932   5.594
    5CHTO   H18 2090   6.894   3.827   5.609
    5CHTO   C16 2091   6.942   4.017   5.700
    5CHTO   O11 2092   6.913   4.157   5.688
    5CHTO    H5 2093   6.948   4.191   5.608
    5CHTO    O3 2094   6.917   3.954   5.236
    5CHTO    C6 2095   7.060   3.938   5.207
    5CHTO   H19 2096   7.118   3.905   5.293
    5CHTO    C8 2097   7.078   3.832   5.092
    5CHTO   H21 2098   7.012   3.858   5.010
    5CHTO    O7 2099   7.039   3.704   5.145
    5CHTO    H2 2100   7.097   3.677   5.215
    5CHTO   C12 2101   7.227   3.831   5.038
    5CHTO   H25 2102   7.290   3.791   5.120
    5CHTO    N3 2103   7.243   3.738   4.922
    5CHTO   H12 2104   7.180   3.770   4.840
    5CHTO   H13 2105   7.347   3.735   4.891
    5CHTO   C15 2106   7.273   3.978   5.007
    5CHTO   H28 2107   7.219   4.020   4.922
    5CHTO   O10 2108   7.427   3.991   4.980
    5CHTO    H4 2109   7.475   3.953   5.050
    5CHTO    O5 2110   7.256   4.062   5.123
    5CHTO   C10 2111   7.118   4.075   5.162
    5CHTO   H23 2112   7.061   4.113   5.077
    5CHTO   C17 2113   7.108   4.180   5.273
    5CHTO   O12 2114   7.146   4.310   5.227
    5CHTO    H6 2115   7.238   4.312   5.211
    6CHTO  H203 2116   7.568   6.039   2.227
    6CHTO   O82 2117   7.499   6.001   2.176
    6CHTO  C123 2118   7.373   6.060   2.210
    6CHTO  H227 2119   7.378   6.168   2.189
    6CHTO   O77 2120   7.282   5.996   2.116
    6CHTO  C118 2121   7.145   6.038   2.129
    6CHTO  H222 2122   7.139   6.147   2.118
    6CHTO  C125 2123   7.063   5.971   2.014
    6CHTO   O84 2124   7.097   6.028   1.887
    6CHTO  H205 2125   7.063   6.116   1.882
    6CHTO  C114 2126   7.092   5.998   2.267
    6CHTO  H218 2127   7.099   5.890   2.278
    6CHTO  C116 2128   7.178   6.063   2.379
    6CHTO  H220 2129   7.162   6.173   2.378
    6CHTO   O79 2130   7.128   6.019   2.507
    6CHTO  H201 2131   7.140   5.926   2.516
    6CHTO  C120 2132   7.331   6.031   2.359
    6CHTO  H224 2133   7.343   5.922   2.381
    6CHTO   N21 2134   7.416   6.105   2.455
    6CHTO  H211 2135   7.444   6.202   2.415
    6CHTO  H212 2136   7.505   6.047   2.478
    6CHTO   O75 2137   6.955   6.042   2.269
    6CHTO  C112 2138   6.852   5.929   2.323
    6CHTO  H216 2139   6.901   5.869   2.401
    6CHTO   O73 2140   6.814   5.849   2.210
    6CHTO  C113 2141   6.720   5.746   2.240
    6CHTO  H217 2142   6.762   5.680   2.319
    6CHTO  C124 2143   6.701   5.658   2.115
    6CHTO   O83 2144   6.653   5.730   2.000
    6CHTO  H204 2145   6.719   5.789   1.970
    6CHTO  C109 2146   6.586   5.807   2.289
    6CHTO  H213 2147   6.545   5.866   2.205
    6CHTO  C110 2148   6.612   5.900   2.412
    6CHTO  H214 2149   6.637   5.837   2.497
    6CHTO   O78 2150   6.490   5.970   2.443
    6CHTO  H200 2151   6.425   5.910   2.475
    6CHTO  C111 2152   6.726   6.002   2.384
    6CHTO  H215 2153   6.690   6.073   2.309
    6CHTO   N19 2154   6.764   6.081   2.504
    6CHTO  H207 2155   6.801   6.016   2.582
    6CHTO  H208 2156   6.840   6.153   2.478
    6CHTO   O74 2157   6.492   5.700   2.321
    6CHTO  C115 2158   6.338   5.736   2.293
    6CHTO  H219 2159   6.328   5.831   2.241
    6CHTO   O76 2160   6.271   5.633   2.200
    6CHTO  C122 2161   6.285   5.498   2.247
    6CHTO  H226 2162   6.386   5.465   2.222
    6CHTO  C126 2163   6.189   5.409   2.160
    6CHTO   O85 2164   6.198   5.269   2.190
    6CHTO  H206 2165   6.166   5.253   2.276
    6CHTO  C121 2166   6.259   5.481   2.403
    6CHTO  H225 2167   6.192   5.394   2.419
    6CHTO   O81 2168   6.383   5.452   2.469
    6CHTO  H202 2169   6.367   5.425   2.558
    6CHTO  C119 2170   6.191   5.607   2.466
    6CHTO  H223 2171   6.090   5.609   2.423
    6CHTO  C117 2172   6.265   5.742   2.433
    6CHTO  H221 2173   6.344   5.767   2.503
    6CHTO   N20 2174   6.170   5.858   2.440
    6CHTO  H209 2175   6.224   5.951   2.427
    6CHTO  H210 2176   6.094   5.849   2.363
    6CHTO   O80 2177   6.158   5.589   2.624
    6CHTO  C103 2178   6.007   5.584   2.677
    6CHTO  H190 2179   6.008   5.570   2.786
    6CHTO  C101 2180   5.916   5.708   2.647
    6CHTO  H188 2181   5.918   5.728   2.539
    6CHTO   O68 2182   5.977   5.831   2.721
    6CHTO  H168 2183   5.929   5.909   2.697
    6CHTO   C99 2184   5.765   5.681   2.691
    6CHTO  H186 2185   5.762   5.669   2.801
    6CHTO   N17 2186   5.671   5.794   2.657
    6CHTO  H174 2187   5.667   5.807   2.550
    6CHTO  H175 2188   5.704   5.884   2.706
    6CHTO   C97 2189   5.715   5.545   2.631
    6CHTO  H184 2190   5.707   5.559   2.522
    6CHTO   O64 2191   5.807   5.439   2.665
    6CHTO  C104 2192   5.941   5.454   2.616
    6CHTO  H191 2193   5.942   5.461   2.508
    6CHTO  C108 2194   6.020   5.327   2.651
    6CHTO   O71 2195   6.027   5.304   2.793
    6CHTO  H171 2196   6.076   5.226   2.809
    6CHTO   O62 2197   5.585   5.505   2.680
    6CHTO   C91 2198   5.569   5.459   2.816
    6CHTO  H178 2199   5.652   5.498   2.875
    6CHTO   C92 2200   5.581   5.302   2.820
    6CHTO  H179 2201   5.658   5.268   2.750
    6CHTO   O66 2202   5.629   5.264   2.951
    6CHTO  H166 2203   5.569   5.292   3.018
    6CHTO   C93 2204   5.445   5.228   2.794
    6CHTO  H180 2205   5.464   5.122   2.813
    6CHTO   N16 2206   5.399   5.232   2.653
    6CHTO  H172 2207   5.306   5.178   2.643
    6CHTO  H173 2208   5.474   5.189   2.589
    6CHTO   C94 2209   5.335   5.279   2.897
    6CHTO  H181 2210   5.239   5.299   2.848
    6CHTO   O61 2211   5.372   5.401   2.965
    6CHTO   C95 2212   5.431   5.504   2.884
    6CHTO  H182 2213   5.361   5.530   2.804
    6CHTO  C106 2214   5.449   5.634   2.970
    6CHTO   O69 2215   5.537   5.614   3.081
    6CHTO  H169 2216   5.625   5.601   3.050
    6CHTO   O63 2217   5.316   5.170   3.007
    6CHTO   C96 2218   5.235   5.043   2.960
    6CHTO  H183 2219   5.245   5.033   2.851
    6CHTO   C98 2220   5.083   5.048   2.994
    6CHTO  H185 2221   5.070   5.082   3.098
    6CHTO   O67 2222   5.025   5.152   2.913
    6CHTO  H167 2223   4.935   5.165   2.936
    6CHTO  C102 2224   5.008   4.907   2.972
    6CHTO  H189 2225   5.012   4.888   2.863
    6CHTO   N18 2226   4.865   4.904   3.009
    6CHTO  H176 2227   4.832   5.001   3.045
    6CHTO  H177 2228   4.845   4.829   3.084
    6CHTO  C105 2229   5.093   4.798   3.043
    6CHTO  H192 2230   5.098   4.821   3.149
    6CHTO   O65 2231   5.227   4.797   2.991
    6CHTO  C100 2232   5.300   4.915   3.024
    6CHTO  H187 2233   5.299   4.928   3.134
    6CHTO  C107 2234   5.447   4.896   2.980
    6CHTO   O70 2235   5.508   4.787   3.049
    6CHTO  H170 2236   5.473   4.706   3.018
    6CHTO   O57 2237   5.023   4.647   3.021
    6CHTO   C85 2238   5.047   4.537   3.111
    6CHTO  H157 2239   5.009   4.448   3.056
    6CHTO   C83 2240   4.955   4.547   3.238
    6CHTO  H155 2241   4.852   4.532   3.204
    6CHTO   O56 2242   4.961   4.680   3.292
    6CHTO  H135 2243   4.897   4.690   3.360
    6CHTO   C81 2244   4.991   4.435   3.339
    6CHTO  H153 2245   4.977   4.339   3.290
    6CHTO   N14 2246   4.900   4.430   3.456
    6CHTO  H141 2247   4.798   4.423   3.422
    6CHTO  H142 2248   4.922   4.344   3.517
    6CHTO   C79 2249   5.143   4.445   3.381
    6CHTO  H151 2250   5.163   4.362   3.448
    6CHTO   O52 2251   5.225   4.424   3.263
    6CHTO   C86 2252   5.200   4.518   3.153
    6CHTO  H158 2253   5.244   4.614   3.188
    6CHTO   C90 2254   5.283   4.474   3.031
    6CHTO   O60 2255   5.424   4.483   3.057
    6CHTO  H138 2256   5.449   4.573   3.064
    6CHTO   O50 2257   5.182   4.567   3.446
    6CHTO   C73 2258   5.198   4.641   3.568
    6CHTO  H145 2259   5.158   4.584   3.653
    6CHTO   C74 2260   5.119   4.776   3.557
    6CHTO  H146 2261   5.014   4.750   3.537
    6CHTO   O54 2262   5.121   4.842   3.685
    6CHTO  H133 2263   5.068   4.919   3.682
    6CHTO   C75 2264   5.183   4.861   3.441
    6CHTO  H147 2265   5.179   4.802   3.348
    6CHTO   N13 2266   5.110   4.986   3.412
    6CHTO  H139 2267   5.009   4.964   3.382
    6CHTO  H140 2268   5.107   5.049   3.500
    6CHTO   C76 2269   5.337   4.885   3.473
    6CHTO  H148 2270   5.343   4.944   3.564
    6CHTO   O49 2271   5.406   4.757   3.493
    6CHTO   C77 2272   5.349   4.673   3.595
    6CHTO  H149 2273   5.358   4.722   3.692
    6CHTO   C88 2274   5.431   4.544   3.606
    6CHTO   O58 2275   5.570   4.572   3.650
    6CHTO  H136 2276   5.618   4.492   3.656
    6CHTO   O51 2277   5.411   4.952   3.351
    6CHTO   C78 2278   5.515   5.060   3.392
    6CHTO  H150 2279   5.551   5.043   3.495
    6CHTO   C80 2280   5.454   5.201   3.382
    6CHTO  H152 2281   5.408   5.214   3.281
    6CHTO   O55 2282   5.348   5.210   3.480
    6CHTO  H134 2283   5.382   5.203   3.567
    6CHTO   C84 2284   5.562   5.314   3.406
    6CHTO  H156 2285   5.595   5.307   3.509
    6CHTO   N15 2286   5.507   5.454   3.389
    6CHTO  H143 2287   5.403   5.452   3.365
    6CHTO  H144 2288   5.559   5.507   3.312
    6CHTO   C87 2289   5.685   5.288   3.315
    6CHTO  H159 2290   5.658   5.305   3.210
    6CHTO   O53 2291   5.735   5.145   3.335
    6CHTO   C82 2292   5.637   5.047   3.299
    6CHTO  H154 2293   5.607   5.060   3.195
    6CHTO   C89 2294   5.701   4.906   3.310
    6CHTO   O59 2295   5.743   4.875   3.443
    6CHTO  H137 2296   5.668   4.865   3.499
    6CHTO   O45 2297   5.807   5.381   3.355
    6CHTO   C67 2298   5.904   5.394   3.249
    6CHTO  H124 2299   5.902   5.305   3.186
    6CHTO   C65 2300   5.874   5.520   3.160
    6CHTO  H122 2301   5.774   5.553   3.187
    6CHTO   O44 2302   5.875   5.481   3.022
    6CHTO  H102 2303   5.962   5.458   2.995
    6CHTO   C63 2304   5.970   5.639   3.198
    6CHTO  H120 2305   5.960   5.658   3.305
    6CHTO   N11 2306   5.936   5.773   3.140
    6CHTO  H108 2307   5.835   5.798   3.162
    6CHTO  H109 2308   6.001   5.848   3.180
    6CHTO   C61 2309   6.119   5.591   3.173
    6CHTO  H118 2310   6.184   5.662   3.227
    6CHTO   O40 2311   6.148   5.458   3.226
    6CHTO   C68 2312   6.048   5.398   3.314
    6CHTO  H125 2313   6.045   5.458   3.407
    6CHTO   C72 2314   6.095   5.256   3.353
    6CHTO   O48 2315   6.216   5.256   3.429
    6CHTO  H105 2316   6.288   5.283   3.374
    6CHTO   O38 2317   6.152   5.584   3.033
    6CHTO   C55 2318   6.289   5.612   2.999
    6CHTO  H112 2319   6.353   5.606   3.088
    6CHTO   C56 2320   6.297   5.755   2.931
    6CHTO  H113 2321   6.216   5.759   2.856
    6CHTO   O42 2322   6.266   5.855   3.030
    6CHTO  H100 2323   6.262   5.940   2.990
    6CHTO   C57 2324   6.437   5.781   2.863
    6CHTO  H114 2325   6.510   5.791   2.943
    6CHTO   N10 2326   6.441   5.906   2.783
    6CHTO  H106 2327   6.344   5.927   2.740
    6CHTO  H107 2328   6.471   5.989   2.845
    6CHTO   C58 2329   6.477   5.658   2.777
    6CHTO  H115 2330   6.403   5.646   2.694
    6CHTO   O37 2331   6.475   5.539   2.859
    6CHTO   C59 2332   6.342   5.503   2.901
    6CHTO  H116 2333   6.277   5.495   2.814
    6CHTO   C70 2334   6.345   5.364   2.966
    6CHTO   O46 2335   6.419   5.355   3.088
    6CHTO  H103 2336   6.376   5.405   3.155
    6CHTO   O39 2337   6.632   5.680   2.707
    6CHTO   C60 2338   6.727   5.574   2.728
    6CHTO  H117 2339   6.726   5.546   2.833
    6CHTO   C62 2340   6.691   5.448   2.643
    6CHTO  H119 2341   6.587   5.420   2.669
    6CHTO   O43 2342   6.694   5.481   2.502
    6CHTO  H101 2343   6.626   5.542   2.481
    6CHTO   C66 2344   6.789   5.328   2.683
    6CHTO  H123 2345   6.782   5.313   2.791
    6CHTO   N12 2346   6.751   5.198   2.621
    6CHTO  H110 2347   6.664   5.209   2.558
    6CHTO  H111 2348   6.736   5.123   2.696
    6CHTO   C69 2349   6.936   5.368   2.654
    6CHTO  H126 2350   6.952   5.378   2.544
    6CHTO   O41 2351   6.971   5.506   2.724
    6CHTO   C64 2352   6.872   5.621   2.694
    6CHTO  H121 2353   6.878   5.649   2.587
    6CHTO   C71 2354   6.917   5.742   2.779
    6CHTO   O47 2355   6.842   5.861   2.752
    6CHTO  H104 2356   6.754   5.851   2.782
    6CHTO   O34 2357   7.034   5.260   2.709
    6CHTO   C49 2358   7.147   5.180   2.648
    6CHTO   H91 2359   7.104   5.116   2.571
    6CHTO   C47 2360   7.209   5.094   2.760
    6CHTO   H89 2361   7.286   5.031   2.708
    6CHTO   O33 2362   7.111   5.006   2.818
    6CHTO   H70 2363   7.044   5.056   2.861
    6CHTO   C45 2364   7.278   5.187   2.874
    6CHTO   H87 2365   7.203   5.208   2.952
    6CHTO    N8 2366   7.390   5.112   2.937
    6CHTO   H75 2367   7.354   5.018   2.977
    6CHTO   H76 2368   7.468   5.093   2.864
    6CHTO   C43 2369   7.316   5.331   2.813
    6CHTO   H85 2370   7.223   5.388   2.817
    6CHTO   O29 2371   7.363   5.314   2.678
    6CHTO   C50 2372   7.261   5.270   2.587
    6CHTO   H92 2373   7.214   5.359   2.543
    6CHTO   C54 2374   7.333   5.202   2.467
    6CHTO   O36 2375   7.241   5.171   2.361
    6CHTO   H72 2376   7.288   5.130   2.291
    6CHTO   O27 2377   7.407   5.409   2.893
    6CHTO   C37 2378   7.456   5.544   2.894
    6CHTO   H79 2379   7.558   5.547   2.854
    6CHTO   C38 2380   7.368   5.638   2.805
    6CHTO   H80 2381   7.262   5.620   2.829
    6CHTO   O31 2382   7.391   5.601   2.667
    6CHTO   H68 2383   7.356   5.516   2.649
    6CHTO   C39 2384   7.401   5.791   2.827
    6CHTO   H81 2385   7.500   5.809   2.785
    6CHTO    N7 2386   7.305   5.880   2.755
    6CHTO   H73 2387   7.310   5.862   2.648
    6CHTO   H74 2388   7.204   5.863   2.790
    6CHTO   C40 2389   7.407   5.826   2.980
    6CHTO   H82 2390   7.308   5.818   3.024
    6CHTO   O26 2391   7.501   5.736   3.043
    6CHTO   C41 2392   7.458   5.596   3.041
    6CHTO   H83 2393   7.358   5.587   3.085
    6CHTO   C52 2394   7.556   5.514   3.128
    6CHTO   O35 2395   7.559   5.561   3.267
    6CHTO   H71 2396   7.618   5.508   3.317
    6CHTO   O28 2397   7.458   5.958   3.007
    6CHTO   C42 2398   7.432   6.027   3.135
    6CHTO   H84 2399   7.506   6.106   3.136
    6CHTO   C44 2400   7.458   5.942   3.265
    6CHTO   H86 2401   7.403   5.848   3.257
    6CHTO   O32 2402   7.599   5.909   3.266
    6CHTO   H69 2403   7.619   5.850   3.197
    6CHTO   C48 2404   7.414   6.013   3.399
    6CHTO   H90 2405   7.483   6.096   3.418
    6CHTO    N9 2406   7.426   5.922   3.518
    6CHTO   H77 2407   7.395   5.974   3.608
    6CHTO   H78 2408   7.527   5.887   3.528
    6CHTO   C51 2409   7.269   6.072   3.382
    6CHTO   H93 2410   7.200   5.989   3.365
    6CHTO   O30 2411   7.273   6.162   3.271
    6CHTO   C46 2412   7.291   6.095   3.140
    6CHTO   H88 2413   7.213   6.021   3.125
    6CHTO   C53 2414   7.276   6.210   3.037
    6CHTO   O72 2415   7.272   6.165   2.901
    6CHTO  H199 2416   7.193   6.117   2.886
    6CHTO   O22 2417   7.227   6.149   3.496
    6CHTO   C31 2418   7.094   6.213   3.510
    6CHTO   H59 2419   7.086   6.245   3.616
    6CHTO   C29 2420   7.074   6.340   3.424
    6CHTO   H57 2421   7.082   6.311   3.318
    6CHTO   O21 2422   7.184   6.429   3.451
    6CHTO   H37 2423   7.183   6.501   3.391
    6CHTO   C27 2424   6.933   6.408   3.448
    6CHTO   H55 2425   6.930   6.446   3.551
    6CHTO    N5 2426   6.909   6.522   3.355
    6CHTO   H43 2427   6.815   6.569   3.379
    6CHTO   H44 2428   6.989   6.594   3.364
    6CHTO   C25 2429   6.820   6.300   3.434
    6CHTO   H53 2430   6.813   6.268   3.329
    6CHTO   O17 2431   6.849   6.183   3.515
    6CHTO   C32 2432   6.973   6.117   3.485
    6CHTO   H60 2433   6.973   6.086   3.381
    6CHTO   C36 2434   6.980   5.988   3.571
    6CHTO   O25 2435   6.967   6.015   3.711
    6CHTO   H40 2436   6.971   5.934   3.759
    6CHTO   O15 2437   6.675   6.360   3.480
    6CHTO   C19 2438   6.570   6.349   3.580
    6CHTO   H47 2439   6.479   6.334   3.520
    6CHTO   C20 2440   6.585   6.227   3.678
    6CHTO   H48 2441   6.682   6.230   3.731
    6CHTO   O19 2442   6.583   6.108   3.597
    6CHTO   H35 2443   6.660   6.102   3.544
    6CHTO   C21 2444   6.470   6.220   3.786
    6CHTO   H49 2445   6.377   6.192   3.735
    6CHTO    N4 2446   6.494   6.116   3.889
    6CHTO   H41 2447   6.411   6.113   3.959
    6CHTO   H42 2448   6.584   6.138   3.944
    6CHTO   C22 2449   6.445   6.360   3.848
    6CHTO   H50 2450   6.529   6.386   3.913
    6CHTO   O14 2451   6.430   6.460   3.746
    6CHTO   C23 2452   6.546   6.479   3.664
    6CHTO   H51 2453   6.631   6.502   3.730
    6CHTO   C34 2454   6.518   6.602   3.577
    6CHTO   O23 2455   6.635   6.649   3.509
    6CHTO   H38 2456   6.662   6.587   3.445
    6CHTO   O16 2457   6.321   6.361   3.921
    6CHTO   C24 2458   6.290   6.490   4.005
    6CHTO   H52 2459   6.340   6.578   3.964
    6CHTO   C26 2460   6.335   6.467   4.151
    6CHTO   H54 2461   6.296   6.367   4.183
    6CHTO   O20 2462   6.479   6.460   4.155
    6CHTO   H36 2463   6.516   6.542   4.129
    6CHTO   C30 2464   6.279   6.574   4.249
    6CHTO   H58 2465   6.328   6.671   4.230
    6CHTO    N6 2466   6.308   6.541   4.392
    6CHTO   H45 2467   6.217   6.526   4.448
    6CHTO   H46 2468   6.369   6.452   4.400
    6CHTO   C33 2469   6.127   6.597   4.223
    6CHTO   H61 2470   6.073   6.504   4.246
    6CHTO   O18 2471   6.107   6.627   4.083
    6CHTO   C28 2472   6.137   6.516   3.997
    6CHTO   H56 2473   6.083   6.427   4.028
    6CHTO   C35 2474   6.091   6.554   3.853
    6CHTO   O24 2475   6.099   6.446   3.760
    6CHTO   H39 2476   6.189   6.425   3.743
    6CHTO    O9 2477   6.068   6.698   4.307
    6CHTO   C13 2478   5.911   6.671   4.339
    6CHTO   H26 2479   5.900   6.565   4.370
    6CHTO   C11 2480   5.823   6.703   4.211
    6CHTO   H24 2481   5.857   6.639   4.128
    6CHTO    O8 2482   5.845   6.841   4.172
    6CHTO    H3 2483   5.934   6.853   4.144
    6CHTO    C9 2484   5.676   6.666   4.243
    6CHTO   H22 2485   5.675   6.557   4.254
    6CHTO    N2 2486   5.584   6.689   4.128
    6CHTO   H10 2487   5.487   6.648   4.150
    6CHTO   H11 2488   5.624   6.642   4.039
    6CHTO    C7 2489   5.631   6.728   4.383
    6CHTO   H20 2490   5.624   6.638   4.448
    6CHTO    O4 2491   5.730   6.817   4.438
    6CHTO   C14 2492   5.858   6.756   4.463
    6CHTO   H27 2493   5.846   6.687   4.549
    6CHTO   C18 2494   5.957   6.866   4.507
    6CHTO   O13 2495   5.920   6.922   4.634
    6CHTO    H7 2496   5.933   6.859   4.702
    6CHTO    O2 2497   5.484   6.806   4.383
    6CHTO    C1 2498   5.400   6.784   4.497
    6CHTO   H14 2499   5.309   6.848   4.484
    6CHTO    C2 2500   5.465   6.820   4.637
    6CHTO   H15 2501   5.557   6.760   4.646
    6CHTO    O6 2502   5.499   6.960   4.635
    6CHTO    H1 2503   5.545   6.984   4.713
    6CHTO    C3 2504   5.365   6.786   4.758
    6CHTO   H16 2505   5.279   6.854   4.751
    6CHTO    N1 2506   5.426   6.808   4.893
    6CHTO    H8 2507   5.369   6.882   4.948
    6CHTO    H9 2508   5.528   6.841   4.885
    6CHTO    C4 2509   5.307   6.641   4.741
    6CHTO   H17 2510   5.385   6.568   4.763
    6CHTO    O1 2511   5.254   6.620   4.609
    6CHTO    C5 2512   5.348   6.637   4.501
    6CHTO   H18 2513   5.433   6.570   4.517
    6CHTO   C16 2514   5.276   6.597   4.370
    6CHTO   O11 2515   5.245   6.458   4.369
    6CHTO    H5 2516   5.203   6.436   4.288
    6CHTO    O3 2517   5.192   6.620   4.827
    6CHTO    C6 2518   5.171   6.481   4.869
    6CHTO   H19 2519   5.236   6.410   4.816
    6CHTO    C8 2520   5.201   6.468   5.022
    6CHTO   H21 2521   5.137   6.539   5.076
    6CHTO    O7 2522   5.339   6.502   5.044
    6CHTO    H2 2523   5.353   6.594   5.026
    6CHTO   C12 2524   5.168   6.322   5.072
    6CHTO   H25 2525   5.239   6.255   5.018
    6CHTO    N3 2526   5.193   6.303   5.219
    6CHTO   H12 2527   5.267   6.226   5.235
    6CHTO   H13 2528   5.224   6.395   5.266
    6CHTO   C15 2529   5.022   6.284   5.028
    6CHTO   H28 2530   4.947   6.341   5.083
    6CHTO   O10 2531   4.993   6.137   5.042
    6CHTO    H4 2532   4.994   6.113   5.133
    6CHTO    O5 2533   5.005   6.302   4.887
    6CHTO   C10 2534   5.024   6.437   4.841
    6CHTO   H23 2535   4.954   6.502   4.893
    6CHTO   C17 2536   4.987   6.435   4.692
    6CHTO   O12 2537   4.972   6.566   4.639
    6CHTO    H6 2538   4.948   6.561   4.548
    7CHTO  H203 2539   5.157   3.902   5.623
    7CHTO   O82 2540   5.198   3.823   5.596
    7CHTO  C123 2541   5.277   3.846   5.477
    7CHTO  H227 2542   5.216   3.902   5.405
    7CHTO   O77 2543   5.387   3.929   5.526
    7CHTO  C118 2544   5.480   3.968   5.424
    7CHTO  H222 2545   5.426   4.017   5.341
    7CHTO  C125 2546   5.580   4.072   5.487
    7CHTO   O84 2547   5.514   4.194   5.523
    7CHTO  H205 2548   5.488   4.240   5.445
    7CHTO  C114 2549   5.552   3.842   5.372
    7CHTO  H218 2550   5.601   3.793   5.456
    7CHTO  C116 2551   5.448   3.741   5.313
    7CHTO  H220 2552   5.407   3.783   5.219
    7CHTO   O79 2553   5.517   3.620   5.277
    7CHTO  H201 2554   5.576   3.635   5.207
    7CHTO  C120 2555   5.331   3.712   5.415
    7CHTO  H224 2556   5.375   3.649   5.494
    7CHTO   N21 2557   5.222   3.632   5.353
    7CHTO  H211 2558   5.241   3.526   5.364
    7CHTO  H212 2559   5.210   3.658   5.249
    7CHTO   O75 2560   5.649   3.887   5.276
    7CHTO  C112 2561   5.805   3.814   5.283
    7CHTO  H216 2562   5.844   3.806   5.180
    7CHTO   O73 2563   5.792   3.684   5.345
    7CHTO  C113 2564   5.914   3.609   5.349
    7CHTO  H217 2565   5.952   3.597   5.245
    7CHTO  C124 2566   5.885   3.469   5.404
    7CHTO   O83 2567   5.795   3.395   5.321
    7CHTO  H204 2568   5.836   3.374   5.239
    7CHTO  C109 2569   6.021   3.682   5.435
    7CHTO  H213 2570   5.982   3.684   5.538
    7CHTO  C110 2571   6.041   3.827   5.382
    7CHTO  H214 2572   6.090   3.822   5.285
    7CHTO   O78 2573   6.130   3.897   5.471
    7CHTO  H200 2574   6.217   3.860   5.466
    7CHTO  C111 2575   5.904   3.901   5.369
    7CHTO  H215 2576   5.861   3.912   5.470
    7CHTO   N19 2577   5.914   4.037   5.311
    7CHTO  H207 2578   5.975   4.100   5.375
    7CHTO  H208 2579   5.958   4.033   5.213
    7CHTO   O74 2580   6.145   3.605   5.433
    7CHTO  C115 2581   6.243   3.618   5.563
    7CHTO  H219 2582   6.307   3.706   5.558
    7CHTO   O76 2583   6.159   3.635   5.700
    7CHTO  C122 2584   6.117   3.510   5.756
    7CHTO  H226 2585   6.052   3.462   5.683
    7CHTO  C126 2586   6.026   3.537   5.881
    7CHTO   O85 2587   5.907   3.609   5.848
    7CHTO  H206 2588   5.856   3.622   5.926
    7CHTO  C121 2589   6.238   3.417   5.794
    7CHTO  H225 2590   6.259   3.426   5.903
    7CHTO   O81 2591   6.200   3.281   5.767
    7CHTO  H202 2592   6.264   3.222   5.802
    7CHTO  C119 2593   6.368   3.453   5.716
    7CHTO  H223 2594   6.407   3.544   5.762
    7CHTO  C117 2595   6.335   3.489   5.566
    7CHTO  H221 2596   6.278   3.413   5.512
    7CHTO   N20 2597   6.459   3.510   5.483
    7CHTO  H209 2598   6.462   3.608   5.440
    7CHTO  H210 2599   6.548   3.492   5.541
    7CHTO   O80 2600   6.490   3.349   5.742
    7CHTO  C103 2601   6.573   3.351   5.883
    7CHTO  H190 2602   6.677   3.329   5.863
    7CHTO  C101 2603   6.568   3.482   5.970
    7CHTO  H188 2604   6.464   3.508   5.990
    7CHTO   O68 2605   6.634   3.598   5.889
    7CHTO  H168 2606   6.627   3.679   5.937
    7CHTO   C99 2607   6.642   3.458   6.111
    7CHTO  H186 2608   6.750   3.441   6.091
    7CHTO   N17 2609   6.636   3.575   6.204
    7CHTO  H174 2610   6.676   3.663   6.155
    7CHTO  H175 2611   6.534   3.592   6.236
    7CHTO   C97 2612   6.591   3.328   6.179
    7CHTO  H184 2613   6.489   3.346   6.217
    7CHTO   O64 2614   6.595   3.217   6.087
    7CHTO  C104 2615   6.516   3.232   5.969
    7CHTO  H191 2616   6.411   3.250   5.991
    7CHTO  C108 2617   6.520   3.100   5.891
    7CHTO   O71 2618   6.466   2.990   5.965
    7CHTO  H171 2619   6.374   3.001   5.975
    7CHTO   O62 2620   6.678   3.287   6.287
    7CHTO   C91 2621   6.626   3.192   6.382
    7CHTO  H178 2622   6.523   3.219   6.403
    7CHTO   C92 2623   6.704   3.214   6.517
    7CHTO  H179 2624   6.707   3.321   6.543
    7CHTO   O66 2625   6.629   3.151   6.623
    7CHTO  H166 2626   6.548   3.196   6.636
    7CHTO   C93 2627   6.848   3.150   6.517
    7CHTO  H180 2628   6.880   3.142   6.622
    7CHTO   N16 2629   6.950   3.235   6.452
    7CHTO  H172 2630   6.925   3.251   6.349
    7CHTO  H173 2631   7.048   3.190   6.461
    7CHTO   C94 2632   6.846   3.004   6.454
    7CHTO  H181 2633   6.895   3.001   6.357
    7CHTO   O61 2634   6.712   2.957   6.430
    7CHTO   C95 2635   6.636   3.039   6.339
    7CHTO  H182 2636   6.683   3.033   6.240
    7CHTO  C106 2637   6.493   2.976   6.324
    7CHTO   O69 2638   6.501   2.845   6.264
    7CHTO  H169 2639   6.414   2.809   6.257
    7CHTO   O63 2640   6.922   2.903   6.553
    7CHTO   C96 2641   6.843   2.866   6.687
    7CHTO  H183 2642   6.764   2.940   6.701
    7CHTO   C98 2643   6.933   2.868   6.815
    7CHTO  H185 2644   6.991   2.962   6.820
    7CHTO   O67 2645   6.847   2.870   6.930
    7CHTO  H167 2646   6.897   2.881   7.008
    7CHTO  C102 2647   7.029   2.740   6.825
    7CHTO  H189 2648   7.065   2.739   6.930
    7CHTO   N18 2649   7.152   2.745   6.742
    7CHTO  H176 2650   7.240   2.738   6.805
    7CHTO  H177 2651   7.156   2.837   6.685
    7CHTO  C105 2652   6.946   2.610   6.801
    7CHTO  H192 2653   6.987   2.554   6.716
    7CHTO   O65 2654   6.806   2.631   6.775
    7CHTO  C100 2655   6.777   2.723   6.668
    7CHTO  H187 2656   6.816   2.679   6.574
    7CHTO  C107 2657   6.624   2.733   6.653
    7CHTO   O70 2658   6.567   2.608   6.612
    7CHTO  H170 2659   6.574   2.546   6.682
    7CHTO   O57 2660   6.964   2.527   6.933
    7CHTO   C85 2661   7.037   2.404   6.932
    7CHTO  H157 2662   7.112   2.411   6.850
    7CHTO   C83 2663   6.942   2.286   6.893
    7CHTO  H155 2664   6.908   2.302   6.791
    7CHTO   O56 2665   6.825   2.289   6.977
    7CHTO  H135 2666   6.763   2.224   6.950
    7CHTO   C81 2667   7.020   2.152   6.900
    7CHTO  H153 2668   7.107   2.160   6.834
    7CHTO   N14 2669   6.944   2.036   6.846
    7CHTO  H141 2670   6.914   2.056   6.746
    7CHTO  H142 2671   7.006   1.949   6.847
    7CHTO   C79 2672   7.072   2.129   7.047
    7CHTO  H151 2673   7.131   2.037   7.047
    7CHTO   O52 2674   7.164   2.238   7.084
    7CHTO   C86 2675   7.106   2.372   7.071
    7CHTO  H158 2676   7.033   2.379   7.154
    7CHTO   C90 2677   7.215   2.478   7.101
    7CHTO   O60 2678   7.257   2.470   7.238
    7CHTO  H138 2679   7.320   2.538   7.255
    7CHTO   O50 2680   6.968   2.118   7.145
    7CHTO   C73 2681   6.947   2.042   7.265
    7CHTO  H145 2682   7.044   2.023   7.315
    7CHTO   C74 2683   6.881   1.905   7.231
    7CHTO  H146 2684   6.947   1.854   7.159
    7CHTO   O54 2685   6.881   1.825   7.350
    7CHTO  H133 2686   6.847   1.739   7.332
    7CHTO   C75 2687   6.737   1.931   7.171
    7CHTO  H147 2688   6.748   1.989   7.078
    7CHTO   N13 2689   6.665   1.807   7.132
    7CHTO  H139 2690   6.721   1.754   7.056
    7CHTO  H140 2691   6.654   1.742   7.218
    7CHTO   C76 2692   6.653   2.021   7.274
    7CHTO  H148 2693   6.637   1.962   7.364
    7CHTO   O49 2694   6.725   2.144   7.307
    7CHTO   C77 2695   6.855   2.122   7.363
    7CHTO  H149 2696   6.846   2.065   7.456
    7CHTO   C88 2697   6.917   2.256   7.403
    7CHTO   O58 2698   6.837   2.323   7.508
    7CHTO  H136 2699   6.881   2.401   7.536
    7CHTO   O51 2700   6.518   2.070   7.208
    7CHTO   C78 2701   6.402   2.084   7.313
    7CHTO  H150 2702   6.442   2.094   7.416
    7CHTO   C80 2703   6.309   1.961   7.307
    7CHTO  H152 2704   6.280   1.943   7.201
    7CHTO   O55 2705   6.387   1.848   7.351
    7CHTO  H134 2706   6.337   1.769   7.344
    7CHTO   C84 2707   6.179   1.980   7.395
    7CHTO  H156 2708   6.211   1.988   7.499
    7CHTO   N15 2709   6.085   1.863   7.386
    7CHTO  H143 2710   6.070   1.821   7.483
    7CHTO  H144 2711   5.991   1.892   7.345
    7CHTO   C87 2712   6.112   2.114   7.355
    7CHTO  H159 2713   6.078   2.108   7.252
    7CHTO   O53 2714   6.213   2.228   7.371
    7CHTO   C82 2715   6.325   2.214   7.282
    7CHTO  H154 2716   6.290   2.214   7.179
    7CHTO   C89 2717   6.416   2.339   7.297
    7CHTO   O59 2718   6.468   2.354   7.430
    7CHTO  H137 2719   6.399   2.376   7.489
    7CHTO   O45 2720   5.987   2.149   7.451
    7CHTO   C67 2721   5.905   2.255   7.400
    7CHTO  H124 2722   5.970   2.333   7.361
    7CHTO   C65 2723   5.811   2.205   7.284
    7CHTO  H122 2724   5.811   2.096   7.291
    7CHTO   O44 2725   5.875   2.244   7.161
    7CHTO  H102 2726   5.831   2.203   7.089
    7CHTO   C63 2727   5.660   2.247   7.304
    7CHTO  H120 2728   5.620   2.190   7.387
    7CHTO   N11 2729   5.567   2.209   7.193
    7CHTO  H108 2730   5.589   2.266   7.106
    7CHTO  H109 2731   5.466   2.227   7.223
    7CHTO   C61 2732   5.653   2.399   7.347
    7CHTO  H118 2733   5.549   2.418   7.376
    7CHTO   O40 2734   5.736   2.429   7.463
    7CHTO   C68 2735   5.823   2.324   7.516
    7CHTO  H125 2736   5.760   2.248   7.567
    7CHTO   C72 2737   5.916   2.385   7.624
    7CHTO   O48 2738   6.000   2.489   7.575
    7CHTO  H105 2739   5.949   2.564   7.551
    7CHTO   O38 2740   5.691   2.487   7.239
    7CHTO   C55 2741   5.661   2.627   7.260
    7CHTO  H112 2742   5.655   2.649   7.368
    7CHTO   C56 2743   5.529   2.667   7.184
    7CHTO  H113 2744   5.544   2.643   7.077
    7CHTO   O42 2745   5.419   2.586   7.229
    7CHTO  H100 2746   5.403   2.600   7.320
    7CHTO   C57 2747   5.501   2.822   7.202
    7CHTO  H114 2748   5.483   2.839   7.308
    7CHTO   N10 2749   5.381   2.870   7.128
    7CHTO  H106 2750   5.294   2.859   7.191
    7CHTO  H107 2751   5.392   2.974   7.101
    7CHTO   C58 2752   5.629   2.901   7.161
    7CHTO  H115 2753   5.645   2.888   7.051
    7CHTO   O37 2754   5.744   2.854   7.232
    7CHTO   C59 2755   5.777   2.716   7.207
    7CHTO  H116 2756   5.793   2.700   7.100
    7CHTO   C70 2757   5.909   2.687   7.281
    7CHTO   O46 2758   5.969   2.562   7.243
    7CHTO  H103 2759   5.998   2.567   7.154
    7CHTO   O39 2760   5.612   3.058   7.197
    7CHTO   C60 2761   5.709   3.148   7.139
    7CHTO  H117 2762   5.809   3.107   7.155
    7CHTO   C62 2763   5.689   3.168   6.985
    7CHTO  H119 2764   5.710   3.069   6.939
    7CHTO   O43 2765   5.552   3.203   6.957
    7CHTO  H101 2766   5.531   3.286   6.996
    7CHTO   C66 2767   5.796   3.274   6.930
    7CHTO  H123 2768   5.896   3.240   6.957
    7CHTO   N12 2769   5.795   3.285   6.782
    7CHTO  H110 2770   5.698   3.318   6.748
    7CHTO  H111 2771   5.873   3.352   6.749
    7CHTO   C69 2772   5.773   3.410   7.001
    7CHTO  H126 2773   5.672   3.451   6.976
    7CHTO   O41 2774   5.785   3.390   7.153
    7CHTO   C64 2775   5.702   3.283   7.216
    7CHTO  H121 2776   5.596   3.316   7.220
    7CHTO   C71 2777   5.753   3.264   7.360
    7CHTO   O47 2778   5.737   3.383   7.438
    7CHTO  H104 2779   5.795   3.450   7.407
    7CHTO   O34 2780   5.881   3.515   6.959
    7CHTO   C49 2781   5.965   3.637   7.003
    7CHTO   H91 2782   5.924   3.724   6.952
    7CHTO   C47 2783   6.110   3.612   6.956
    7CHTO   H89 2784   6.165   3.705   6.984
    7CHTO   O33 2785   6.113   3.598   6.813
    7CHTO   H70 2786   6.202   3.594   6.784
    7CHTO   C45 2787   6.172   3.483   7.032
    7CHTO   H87 2788   6.140   3.392   6.978
    7CHTO    N8 2789   6.320   3.491   7.024
    7CHTO   H75 2790   6.364   3.404   7.071
    7CHTO   H76 2791   6.352   3.496   6.921
    7CHTO   C43 2792   6.109   3.468   7.180
    7CHTO   H85 2793   6.021   3.405   7.166
    7CHTO   O29 2794   6.074   3.597   7.232
    7CHTO   C50 2795   5.967   3.660   7.158
    7CHTO   H92 2796   5.872   3.624   7.199
    7CHTO   C54 2797   5.963   3.811   7.195
    7CHTO   O36 2798   6.082   3.880   7.157
    7CHTO   H72 2799   6.075   3.971   7.181
    7CHTO   O27 2800   6.190   3.395   7.274
    7CHTO   C37 2801   6.159   3.283   7.358
    7CHTO   H79 2802   6.053   3.286   7.389
    7CHTO   C38 2803   6.180   3.151   7.279
    7CHTO   H80 2804   6.277   3.157   7.227
    7CHTO   O31 2805   6.076   3.143   7.180
    7CHTO   H68 2806   6.090   3.069   7.124
    7CHTO   C39 2807   6.181   3.023   7.373
    7CHTO   H81 2808   6.080   3.011   7.412
    7CHTO    N7 2809   6.216   2.898   7.298
    7CHTO   H73 2810   6.315   2.905   7.257
    7CHTO   H74 2811   6.209   2.813   7.364
    7CHTO   C40 2812   6.277   3.047   7.495
    7CHTO   H82 2813   6.379   3.056   7.459
    7CHTO   O26 2814   6.234   3.166   7.564
    7CHTO   C41 2815   6.247   3.288   7.486
    7CHTO   H83 2816   6.353   3.302   7.458
    7CHTO   C52 2817   6.207   3.404   7.581
    7CHTO   O35 2818   6.222   3.538   7.521
    7CHTO   H71 2819   6.313   3.556   7.507
    7CHTO   O28 2820   6.270   2.943   7.595
    7CHTO   C42 2821   6.389   2.909   7.675
    7CHTO   H84 2822   6.348   2.847   7.754
    7CHTO   C44 2823   6.457   3.031   7.748
    7CHTO   H86 2824   6.470   3.112   7.675
    7CHTO   O32 2825   6.363   3.076   7.847
    7CHTO   H69 2826   6.289   3.116   7.806
    7CHTO   C48 2827   6.599   2.998   7.808
    7CHTO   H90 2828   6.587   2.922   7.886
    7CHTO    N9 2829   6.660   3.118   7.875
    7CHTO   H77 2830   6.754   3.145   7.829
    7CHTO   H78 2831   6.675   3.098   7.981
    7CHTO   C51 2832   6.688   2.938   7.692
    7CHTO   H93 2833   6.685   3.007   7.608
    7CHTO   O30 2834   6.630   2.811   7.659
    7CHTO   C46 2835   6.490   2.820   7.594
    7CHTO   H88 2836   6.500   2.860   7.493
    7CHTO   C53 2837   6.440   2.673   7.585
    7CHTO   O72 2838   6.315   2.660   7.517
    7CHTO  H199 2839   6.246   2.698   7.569
    7CHTO   O22 2840   6.824   2.909   7.730
    7CHTO   C31 2841   6.938   2.923   7.635
    7CHTO   H59 2842   7.028   2.889   7.691
    7CHTO   C29 2843   6.928   2.834   7.509
    7CHTO   H57 2844   6.835   2.860   7.457
    7CHTO   O21 2845   6.916   2.697   7.551
    7CHTO   H37 2846   6.834   2.683   7.595
    7CHTO   C27 2847   7.050   2.856   7.410
    7CHTO   H55 2848   7.142   2.819   7.458
    7CHTO    N5 2849   7.033   2.784   7.281
    7CHTO   H43 2850   6.947   2.822   7.227
    7CHTO   H44 2851   7.122   2.794   7.221
    7CHTO   C25 2852   7.071   3.010   7.384
    7CHTO   H53 2853   6.985   3.049   7.328
    7CHTO   O17 2854   7.081   3.081   7.510
    7CHTO   C32 2855   6.966   3.071   7.595
    7CHTO   H60 2856   6.879   3.110   7.541
    7CHTO   C36 2857   6.991   3.163   7.717
    7CHTO   O25 2858   7.106   3.123   7.794
    7CHTO   H40 2859   7.088   3.041   7.836
    7CHTO   O15 2860   7.203   3.040   7.301
    7CHTO   C19 2861   7.247   3.131   7.196
    7CHTO   H47 2862   7.356   3.128   7.203
    7CHTO   C20 2863   7.205   3.088   7.053
    7CHTO   H48 2864   7.095   3.084   7.041
    7CHTO   O19 2865   7.256   2.955   7.033
    7CHTO   H35 2866   7.226   2.920   6.952
    7CHTO   C21 2867   7.262   3.189   6.945
    7CHTO   H49 2868   7.371   3.187   6.949
    7CHTO    N4 2869   7.224   3.153   6.806
    7CHTO   H41 2870   7.266   3.224   6.736
    7CHTO   H42 2871   7.260   3.054   6.782
    7CHTO   C22 2872   7.217   3.333   6.983
    7CHTO   H50 2873   7.109   3.337   6.977
    7CHTO   O14 2874   7.260   3.364   7.117
    7CHTO   C23 2875   7.206   3.280   7.221
    7CHTO   H51 2876   7.096   3.293   7.221
    7CHTO   C34 2877   7.259   3.331   7.355
    7CHTO   O23 2878   7.211   3.463   7.384
    7CHTO   H38 2879   7.120   3.460   7.405
    7CHTO   O16 2880   7.276   3.437   6.902
    7CHTO   C24 2881   7.164   3.550   6.850
    7CHTO   H52 2882   7.063   3.526   6.885
    7CHTO   C26 2883   7.165   3.555   6.696
    7CHTO   H54 2884   7.267   3.582   6.662
    7CHTO   O20 2885   7.133   3.424   6.648
    7CHTO   H36 2886   7.140   3.421   6.554
    7CHTO   C30 2887   7.064   3.662   6.645
    7CHTO   H58 2888   6.961   3.630   6.669
    7CHTO    N6 2889   7.068   3.675   6.496
    7CHTO   H45 2890   7.166   3.708   6.464
    7CHTO   H46 2891   6.994   3.746   6.463
    7CHTO   C33 2892   7.084   3.800   6.716
    7CHTO   H61 2893   7.174   3.850   6.676
    7CHTO   O18 2894   7.101   3.784   6.858
    7CHTO   C28 2895   7.199   3.690   6.905
    7CHTO   H56 2896   7.298   3.719   6.869
    7CHTO   C35 2897   7.202   3.693   7.060
    7CHTO   O24 2898   7.077   3.655   7.120
    7CHTO   H39 2899   7.012   3.720   7.104
    7CHTO    O9 2900   6.973   3.887   6.686
    7CHTO   C13 2901   7.006   4.034   6.629
    7CHTO   H26 2902   7.077   4.023   6.545
    7CHTO   C11 2903   7.065   4.126   6.745
    7CHTO   H24 2904   7.172   4.101   6.757
    7CHTO    O8 2905   6.999   4.099   6.870
    7CHTO    H3 2906   7.040   4.146   6.939
    7CHTO    C9 2907   7.051   4.275   6.702
    7CHTO   H22 2908   7.096   4.280   6.602
    7CHTO    N2 2909   7.131   4.369   6.783
    7CHTO   H10 2910   7.235   4.339   6.784
    7CHTO   H11 2911   7.092   4.373   6.884
    7CHTO    C7 2912   6.897   4.310   6.689
    7CHTO   H20 2913   6.894   4.385   6.607
    7CHTO    O4 2914   6.815   4.197   6.653
    7CHTO   C14 2915   6.875   4.100   6.565
    7CHTO   H27 2916   6.904   4.152   6.471
    7CHTO   C18 2917   6.767   3.995   6.527
    7CHTO   O13 2918   6.658   4.054   6.455
    7CHTO    H7 2919   6.608   4.109   6.512
    7CHTO    O2 2920   6.833   4.378   6.826
    7CHTO    C1 2921   6.703   4.437   6.808
    7CHTO   H14 2922   6.652   4.388   6.723
    7CHTO    C2 2923   6.709   4.594   6.781
    7CHTO   H15 2924   6.771   4.636   6.861
    7CHTO    O6 2925   6.772   4.617   6.654
    7CHTO    H1 2926   6.862   4.593   6.658
    7CHTO    C3 2927   6.561   4.658   6.786
    7CHTO   H16 2928   6.503   4.621   6.701
    7CHTO    N1 2929   6.565   4.808   6.775
    7CHTO    H8 2930   6.610   4.837   6.682
    7CHTO    H9 2931   6.621   4.850   6.857
    7CHTO    C4 2932   6.486   4.609   6.915
    7CHTO   H17 2933   6.536   4.649   7.004
    7CHTO    O1 2934   6.486   4.465   6.919
    7CHTO    C5 2935   6.616   4.407   6.933
    7CHTO   H18 2936   6.667   4.449   7.021
    7CHTO   C16 2937   6.600   4.255   6.955
    7CHTO   O11 2938   6.529   4.227   7.076
    7CHTO    H5 2939   6.521   4.134   7.087
    7CHTO    O3 2940   6.346   4.646   6.916
    7CHTO    C6 2941   6.277   4.666   7.046
    7CHTO   H19 2942   6.169   4.669   7.031
    7CHTO    C8 2943   6.302   4.549   7.148
    7CHTO   H21 2944   6.410   4.536   7.160
    7CHTO    O7 2945   6.245   4.430   7.092
    7CHTO    H2 2946   6.151   4.437   7.085
    7CHTO   C12 2947   6.241   4.583   7.291
    7CHTO   H25 2948   6.130   4.583   7.278
    7CHTO    N3 2949   6.273   4.475   7.391
    7CHTO   H12 2950   6.182   4.434   7.432
    7CHTO   H13 2951   6.337   4.513   7.469
    7CHTO   C15 2952   6.286   4.726   7.335
    7CHTO   H28 2953   6.393   4.730   7.356
    7CHTO   O10 2954   6.208   4.779   7.457
    7CHTO    H4 2955   6.228   4.726   7.533
    7CHTO    O5 2956   6.252   4.823   7.235
    7CHTO   C10 2957   6.318   4.803   7.109
    7CHTO   H23 2958   6.426   4.807   7.125
    7CHTO   C17 2959   6.280   4.920   7.018
    7CHTO   O12 2960   6.330   5.045   7.069
    7CHTO    H6 2961   6.303   5.115   7.012
    8CHTO  H203 2962   7.292   7.706   1.775
    8CHTO   O82 2963   7.282   7.798   1.785
    8CHTO  C123 2964   7.152   7.827   1.840
    8CHTO  H227 2965   7.143   7.776   1.938
    8CHTO   O77 2966   7.157   7.972   1.860
    8CHTO  C118 2967   7.038   8.028   1.916
    8CHTO  H222 2968   7.014   7.977   2.010
    8CHTO  C125 2969   7.065   8.181   1.947
    8CHTO   O84 2970   7.096   8.256   1.829
    8CHTO  H205 2971   7.178   8.227   1.793
    8CHTO  C114 2972   6.922   8.007   1.816
    8CHTO  H218 2973   6.949   8.053   1.721
    8CHTO  C116 2974   6.900   7.855   1.790
    8CHTO  H220 2975   6.864   7.807   1.883
    8CHTO   O79 2976   6.794   7.840   1.693
    8CHTO  H201 2977   6.819   7.877   1.610
    8CHTO  C120 2978   7.035   7.788   1.742
    8CHTO  H224 2979   7.056   7.828   1.640
    8CHTO   N21 2980   7.021   7.640   1.728
    8CHTO  H211 2981   7.088   7.603   1.653
    8CHTO  H212 2982   7.038   7.591   1.823
    8CHTO   O75 2983   6.808   8.074   1.874
    8CHTO  C112 2984   6.720   8.154   1.762
    8CHTO  H216 2985   6.693   8.083   1.681
    8CHTO   O73 2986   6.800   8.263   1.713
    8CHTO  C113 2987   6.739   8.334   1.604
    8CHTO  H217 2988   6.719   8.262   1.522
    8CHTO  C124 2989   6.840   8.436   1.550
    8CHTO   O83 2990   6.886   8.530   1.647
    8CHTO  H204 2991   6.938   8.486   1.712
    8CHTO  C109 2992   6.606   8.400   1.649
    8CHTO  H213 2993   6.632   8.478   1.723
    8CHTO  C110 2994   6.512   8.294   1.714
    8CHTO  H214 2995   6.476   8.226   1.636
    8CHTO   O78 2996   6.394   8.360   1.766
    8CHTO  H200 2997   6.418   8.420   1.834
    8CHTO  C111 2998   6.587   8.213   1.824
    8CHTO  H215 2999   6.615   8.282   1.905
    8CHTO   N19 3000   6.506   8.105   1.885
    8CHTO  H207 3001   6.563   8.054   1.962
    8CHTO  H208 3002   6.476   8.034   1.810
    8CHTO   O74 3003   6.543   8.465   1.534
    8CHTO  C115 3004   6.469   8.599   1.569
    8CHTO  H219 3005   6.429   8.598   1.671
    8CHTO   O76 3006   6.569   8.722   1.568
    8CHTO  C122 3007   6.619   8.757   1.438
    8CHTO  H226 3008   6.688   8.678   1.408
    8CHTO  C126 3009   6.706   8.887   1.453
    8CHTO   O85 3010   6.631   9.000   1.497
    8CHTO  H206 3011   6.687   9.075   1.505
    8CHTO  C121 3012   6.505   8.775   1.330
    8CHTO  H225 3013   6.511   8.877   1.288
    8CHTO   O81 3014   6.525   8.685   1.220
    8CHTO  H202 3015   6.519   8.596   1.250
    8CHTO  C119 3016   6.363   8.757   1.392
    8CHTO  H223 3017   6.354   8.833   1.469
    8CHTO  C117 3018   6.351   8.617   1.464
    8CHTO  H221 3019   6.359   8.531   1.397
    8CHTO   N20 3020   6.218   8.600   1.532
    8CHTO  H209 3021   6.163   8.519   1.487
    8CHTO  H210 3022   6.160   8.691   1.529
    8CHTO   O80 3023   6.244   8.796   1.293
    8CHTO  C103 3024   6.191   8.950   1.284
    8CHTO  H190 3025   6.086   8.949   1.254
    8CHTO  C101 3026   6.203   9.040   1.412
    8CHTO  H188 3027   6.308   9.047   1.442
    8CHTO   O68 3028   6.123   8.973   1.528
    8CHTO  H168 3029   6.134   9.022   1.607
    8CHTO   C99 3030   6.151   9.187   1.378
    8CHTO  H186 3031   6.044   9.181   1.347
    8CHTO   N17 3032   6.156   9.282   1.496
    8CHTO  H174 3033   6.057   9.313   1.523
    8CHTO  H175 3034   6.219   9.367   1.475
    8CHTO   C97 3035   6.228   9.242   1.255
    8CHTO  H184 3036   6.332   9.261   1.285
    8CHTO   O64 3037   6.220   9.151   1.144
    8CHTO  C104 3038   6.272   9.019   1.168
    8CHTO  H191 3039   6.377   9.024   1.195
    8CHTO  C108 3040   6.266   8.938   1.037
    8CHTO   O71 3041   6.132   8.924   0.989
    8CHTO  H171 3042   6.099   9.007   0.960
    8CHTO   O62 3043   6.167   9.362   1.202
    8CHTO   C91 3044   6.251   9.466   1.147
    8CHTO  H178 3045   6.355   9.441   1.165
    8CHTO   C92 3046   6.221   9.597   1.228
    8CHTO  H179 3047   6.112   9.608   1.239
    8CHTO   O66 3048   6.272   9.577   1.362
    8CHTO  H166 3049   6.248   9.650   1.417
    8CHTO   C93 3050   6.284   9.728   1.164
    8CHTO  H180 3051   6.393   9.722   1.177
    8CHTO   N16 3052   6.241   9.853   1.233
    8CHTO  H172 3053   6.187   9.918   1.167
    8CHTO  H173 3054   6.326   9.904   1.275
    8CHTO   C94 3055   6.252   9.732   1.010
    8CHTO  H181 3056   6.145   9.738   0.991
    8CHTO   O61 3057   6.300   9.611   0.950
    8CHTO   C95 3058   6.231   9.493   0.993
    8CHTO  H182 3059   6.125   9.504   0.970
    8CHTO  C106 3060   6.284   9.374   0.906
    8CHTO   O69 3061   6.254   9.392   0.767
    8CHTO  H169 3062   6.161   9.385   0.753
    8CHTO   O63 3063   6.328   9.856   0.939
    8CHTO   C96 3064   6.318   9.857   0.782
    8CHTO  H183 3065   6.246   9.781   0.751
    8CHTO   C98 3066   6.455   9.825   0.715
    8CHTO  H185 3067   6.534   9.882   0.766
    8CHTO   O67 3068   6.485   9.687   0.742
    8CHTO  H167 3069   6.422   9.631   0.700
    8CHTO  C102 3070   6.460   9.854   0.557
    8CHTO  H189 3071   6.398   9.776   0.511
    8CHTO   N18 3072   6.595   9.841   0.497
    8CHTO  H176 3073   6.594   9.768   0.417
    8CHTO  H177 3074   6.630   9.936   0.458
    8CHTO  C105 3075   6.392   9.991   0.528
    8CHTO  H192 3076   6.457   0.072   0.564
    8CHTO   O65 3077   6.264   0.004   0.590
    8CHTO  C100 3078   6.264   9.997   0.733
    8CHTO  H187 3079   6.329   0.077   0.772
    8CHTO  C107 3080   6.119   0.026   0.779
    8CHTO   O70 3081   6.109   0.040   0.921
    8CHTO  H170 3082   6.019   0.055   0.945
    8CHTO   O57 3083   6.373   0.001   0.368
    8CHTO   C85 3084   6.440   0.103   0.292
    8CHTO  H157 3085   6.547   0.098   0.323
    8CHTO   C83 3086   6.390   0.245   0.336
    8CHTO  H155 3087   6.423   0.263   0.438
    8CHTO   O56 3088   6.246   0.247   0.338
    8CHTO  H135 3089   6.214   0.187   0.402
    8CHTO   C81 3090   6.454   0.352   0.243
    8CHTO  H153 3091   6.563   0.341   0.249
    8CHTO   N14 3092   6.429   0.491   0.290
    8CHTO  H141 3093   6.385   0.551   0.213
    8CHTO  H142 3094   6.520   0.537   0.322
    8CHTO   C79 3095   6.410   0.326   0.094
    8CHTO  H151 3096   6.458   0.402   0.032
    8CHTO   O52 3097   6.463   0.196   0.051
    8CHTO   C86 3098   6.424   0.083   0.136
    8CHTO  H158 3099   6.317   0.067   0.111
    8CHTO   C90 3100   6.498   9.956   0.089
    8CHTO   O60 3101   6.640   9.970   0.099
    8CHTO  H138 3102   6.670   0.033   0.037
    8CHTO   O50 3103   6.268   0.331   0.072
    8CHTO   C73 3104   6.155   0.367   8.180
    8CHTO  H145 3105   6.184   0.370   8.074
    8CHTO   C74 3106   6.101   0.508   0.033
    8CHTO  H146 3107   6.183   0.580   0.018
    8CHTO   O54 3108   5.997   0.546   8.130
    8CHTO  H133 3109   6.032   0.560   8.044
    8CHTO   C75 3110   6.055   0.502   0.183
    8CHTO  H147 3111   6.143   0.482   0.246
    8CHTO   N13 3112   6.000   0.630   0.235
    8CHTO  H139 3113   6.075   0.708   0.228
    8CHTO  H140 3114   5.973   0.619   0.339
    8CHTO   C76 3115   5.954   0.379   0.208
    8CHTO  H148 3116   5.855   0.406   0.169
    8CHTO   O49 3117   5.999   0.255   0.146
    8CHTO   C77 3118   6.041   0.263   0.009
    8CHTO  H149 3119   5.957   0.291   8.135
    8CHTO   C88 3120   6.084   0.123   8.151
    8CHTO   O58 3121   5.970   0.029   8.153
    8CHTO  H136 3122   5.908   0.052   8.087
    8CHTO   O51 3123   5.954   0.343   0.361
    8CHTO   C78 3124   5.818   0.293   0.416
    8CHTO  H150 3125   5.746   0.275   0.334
    8CHTO   C80 3126   5.761   0.402   0.510
    8CHTO  H152 3127   5.843   0.434   0.579
    8CHTO   O55 3128   5.724   0.515   0.430
    8CHTO  H134 3129   5.801   0.556   0.394
    8CHTO   C84 3130   5.639   0.351   0.596
    8CHTO  H156 3131   5.554   0.338   0.529
    8CHTO   N15 3132   5.597   0.450   0.701
    8CHTO  H143 3133   5.677   0.467   0.770
    8CHTO  H144 3134   5.512   0.413   0.755
    8CHTO   C87 3135   5.673   0.213   0.659
    8CHTO  H159 3136   5.752   0.225   0.732
    8CHTO   O53 3137   5.716   0.119   0.549
    8CHTO   C82 3138   5.840   0.159   0.489
    8CHTO  H154 3139   5.918   0.168   0.565
    8CHTO   C89 3140   5.882   0.044   0.394
    8CHTO   O59 3141   6.020   0.053   0.356
    8CHTO  H137 3142   6.040   9.984   0.296
    8CHTO   O45 3143   5.545   0.147   0.728
    8CHTO   C67 3144   5.580   0.042   0.819
    8CHTO  H124 3145   5.669   9.991   0.783
    8CHTO   C65 3146   5.611   0.099   0.963
    8CHTO  H122 3147   5.567   0.200   0.966
    8CHTO   O44 3148   5.754   0.110   0.974
    8CHTO  H102 3149   5.787   0.173   0.912
    8CHTO   C63 3150   5.536   0.020   1.077
    8CHTO  H120 3151   5.430   0.044   1.072
    8CHTO   N11 3152   5.569   0.061   1.218
    8CHTO  H108 3153   5.556   0.167   1.228
    8CHTO  H109 3154   5.670   0.035   1.241
    8CHTO   C61 3155   5.549   9.866   1.050
    8CHTO  H118 3156   5.485   9.815   1.124
    8CHTO   O40 3157   5.499   9.827   0.919
    8CHTO   C68 3158   5.468   9.932   0.822
    8CHTO  H125 3159   5.370   9.976   0.850
    8CHTO   C72 3160   5.451   9.868   0.683
    8CHTO   O48 3161   5.349   9.767   0.677
    8CHTO  H105 3162   5.265   9.806   0.691
    8CHTO   O38 3163   5.686   9.820   1.063
    8CHTO   C55 3164   5.707   9.678   1.052
    8CHTO  H112 3165   5.628   9.632   0.992
    8CHTO   C56 3166   5.718   9.612   1.196
    8CHTO  H113 3167   5.797   9.666   1.251
    8CHTO   O42 3168   5.596   9.634   1.269
    8CHTO  H100 3169   5.605   9.604   1.357
    8CHTO   C57 3170   5.753   9.459   1.183
    8CHTO  H114 3171   5.667   9.409   1.140
    8CHTO   N10 3172   5.779   9.393   1.314
    8CHTO  H106 3173   5.883   9.402   1.342
    8CHTO  H107 3174   5.718   9.437   1.392
    8CHTO   C58 3175   5.874   9.440   1.088
    8CHTO  H115 3176   5.965   9.482   1.136
    8CHTO   O37 3177   5.855   9.509   0.963
    8CHTO   C59 3178   5.839   9.651   0.975
    8CHTO  H116 3179   5.924   9.694   1.027
    8CHTO   C70 3180   5.834   9.711   0.834
    8CHTO   O46 3181   5.957   9.693   0.763
    8CHTO  H103 3182   5.949   9.729   0.677
    8CHTO   O39 3183   5.900   9.277   1.054
    8CHTO   C60 3184   5.833   9.227   0.937
    8CHTO  H117 3185   5.744   9.287   0.917
    8CHTO   C62 3186   5.925   9.235   0.811
    8CHTO  H119 3187   5.952   9.342   0.798
    8CHTO   O43 3188   6.046   9.161   0.834
    8CHTO  H101 3189   6.027   9.070   0.847
    8CHTO   C66 3190   5.844   9.184   0.682
    8CHTO  H123 3191   5.752   9.242   0.673
    8CHTO   N12 3192   5.919   9.207   0.555
    8CHTO  H110 3193   5.937   9.312   0.542
    8CHTO  H111 3194   6.012   9.151   0.557
    8CHTO   C69 3195   5.804   9.036   0.703
    8CHTO  H126 3196   5.896   8.974   0.715
    8CHTO   O41 3197   5.717   9.025   0.836
    8CHTO   C64 3198   5.784   9.081   0.960
    8CHTO  H121 3199   5.872   9.018   0.986
    8CHTO   C71 3200   5.685   9.072   1.079
    8CHTO   O47 3201   5.563   9.144   1.053
    8CHTO  H104 3202   5.506   9.136   1.127
    8CHTO   O34 3203   5.722   8.980   0.584
    8CHTO   C49 3204   5.587   8.915   0.579
    8CHTO   H91 3205   5.590   8.828   0.644
    8CHTO   C47 3206   5.561   8.872   0.433
    8CHTO   H89 3207   5.462   8.820   0.436
    8CHTO   O33 3208   5.661   8.777   0.390
    8CHTO   H70 3209   5.745   8.818   0.388
    8CHTO   C45 3210   5.556   9.001   0.335
    8CHTO   H87 3211   5.658   9.024   0.303
    8CHTO    N8 3212   5.476   8.967   0.214
    8CHTO   H75 3213   5.429   8.870   0.222
    8CHTO   H76 3214   5.402   9.042   0.195
    8CHTO   C43 3215   5.508   9.132   0.418
    8CHTO   H85 3216   5.599   9.172   0.462
    8CHTO   O29 3217   5.412   9.093   0.518
    8CHTO   C50 3218   5.470   9.011   0.622
    8CHTO   H92 3219   5.506   9.078   0.701
    8CHTO   C54 3220   5.355   8.934   0.690
    8CHTO   O36 3221   5.399   8.863   0.807
    8CHTO   H72 3222   5.327   8.818   0.845
    8CHTO   O27 3223   5.458   9.239   0.336
    8CHTO   C37 3224   5.418   9.370   0.378
    8CHTO   H79 3225   5.390   9.368   0.484
    8CHTO   C38 3226   5.537   9.470   0.366
    8CHTO   H80 3227   5.580   9.460   0.265
    8CHTO   O31 3228   5.638   9.431   0.462
    8CHTO   H68 3229   5.676   9.349   0.438
    8CHTO   C39 3230   5.493   9.619   0.389
    8CHTO   H81 3231   5.466   9.629   0.494
    8CHTO    N7 3232   5.603   9.719   0.362
    8CHTO   H73 3233   5.694   9.670   0.332
    8CHTO   H74 3234   5.573   9.791   0.287
    8CHTO   C40 3235   5.363   9.652   0.305
    8CHTO   H82 3236   5.389   9.654   0.199
    8CHTO   O26 3237   5.261   9.554   0.333
    8CHTO   C41 3238   5.296   9.418   0.295
    8CHTO   H83 3239   5.320   9.414   0.188
    8CHTO   C52 3240   5.169   9.332   0.320
    8CHTO   O35 3241   5.182   9.192   0.272
    8CHTO   H71 3242   5.245   9.146   0.324
    8CHTO   O28 3243   5.300   9.776   0.345
    8CHTO   C42 3244   5.250   9.872   0.246
    8CHTO   H84 3245   5.175   9.928   0.301
    8CHTO   C44 3246   5.177   9.814   0.119
    8CHTO   H86 3247   5.245   9.745   0.068
    8CHTO   O32 3248   5.064   9.738   0.166
    8CHTO   H69 3249   5.092   9.661   0.210
    8CHTO   C48 3250   5.135   9.926   0.015
    8CHTO   H90 3251   5.057   9.987   0.060
    8CHTO    N9 3252   5.075   9.867   8.078
    8CHTO   H77 3253   5.049   9.946   8.010
    8CHTO   H78 3254   4.988   9.809   8.104
    8CHTO   C51 3255   5.260   0.016   8.173
    8CHTO   H93 3256   5.338   9.953   8.130
    8CHTO   O30 3257   5.302   0.076   0.108
    8CHTO   C46 3258   5.360   9.975   0.204
    8CHTO   H88 3259   5.442   9.922   0.155
    8CHTO   C53 3260   5.414   0.053   0.326
    8CHTO   O72 3261   5.520   0.142   0.289
    8CHTO  H199 3262   5.596   0.093   0.265
    8CHTO   O22 3263   5.231   0.127   8.085
    8CHTO   C31 3264   5.338   0.197   8.010
    8CHTO   H59 3265   5.287   0.279   7.955
    8CHTO   C29 3266   5.446   0.263   8.099
    8CHTO   H57 3267   5.491   0.184   8.161
    8CHTO   O21 3268   5.380   0.354   0.001
    8CHTO   H37 3269   5.345   0.427   8.143
    8CHTO   C27 3270   5.560   0.332   8.014
    8CHTO   H55 3271   5.516   0.415   7.957
    8CHTO    N5 3272   5.670   0.385   8.098
    8CHTO   H43 3273   5.716   0.305   8.154
    8CHTO   H44 3274   5.632   0.461   8.165
    8CHTO   C25 3275   5.614   0.228   7.909
    8CHTO   H53 3276   5.660   0.144   7.963
    8CHTO   O17 3277   5.505   0.178   7.827
    8CHTO   C32 3278   5.404   0.107   7.901
    8CHTO   H60 3279   5.451   0.021   7.949
    8CHTO   C36 3280   5.301   0.050   7.799
    8CHTO   O25 3281   5.239   0.154   7.723
    8CHTO   H40 3282   5.179   0.116   7.661
    8CHTO   O15 3283   5.720   0.290   7.811
    8CHTO   C19 3284   5.856   0.272   7.762
    8CHTO   H47 3285   5.846   0.276   7.653
    8CHTO   C20 3286   5.955   0.385   7.808
    8CHTO   H48 3287   5.964   0.389   7.918
    8CHTO   O19 3288   5.899   0.510   7.763
    8CHTO   H35 3289   5.821   0.530   7.812
    8CHTO   C21 3290   6.099   0.363   7.748
    8CHTO   H49 3291   6.093   0.373   7.640
    8CHTO    N4 3292   6.198   0.464   7.794
    8CHTO   H41 3293   6.295   0.445   7.749
    8CHTO   H42 3294   6.166   0.563   7.766
    8CHTO   C22 3295   6.146   0.218   7.775
    8CHTO   H50 3296   6.167   0.206   7.882
    8CHTO   O14 3297   6.047   0.122   7.733
    8CHTO   C23 3298   5.918   0.133   7.796
    8CHTO   H51 3299   5.932   0.119   7.904
    8CHTO   C34 3300   5.832   0.017   7.744
    8CHTO   O23 3301   5.884   9.891   7.786
    8CHTO   H38 3302   5.829   9.822   7.754
    8CHTO   O16 3303   6.261   0.183   7.695
    8CHTO   C24 3304   6.368   0.089   7.768
    8CHTO   H52 3305   6.337   0.064   7.870
    8CHTO   C26 3306   6.502   0.163   7.770
    8CHTO   H54 3307   6.527   0.195   7.666
    8CHTO   O20 3308   6.489   0.282   7.851
    8CHTO   H36 3309   6.434   0.345   7.807
    8CHTO   C30 3310   6.619   0.073   7.822
    8CHTO   H58 3311   6.607   0.058   7.930
    8CHTO    N6 3312   6.753   0.138   7.803
    8CHTO   H45 3313   6.800   0.156   7.899
    8CHTO   H46 3314   6.745   0.231   7.750
    8CHTO   C33 3315   6.615   9.931   7.758
    8CHTO   H61 3316   6.647   9.936   7.653
    8CHTO   O18 3317   6.481   9.878   7.762
    8CHTO   C28 3318   6.384   9.955   7.691
    8CHTO   H56 3319   6.417   9.977   7.589
    8CHTO   C35 3320   6.252   9.876   7.685
    8CHTO   O24 3321   6.265   9.755   7.610
    8CHTO   H39 3322   6.183   9.709   7.609
    8CHTO    O9 3323   6.709   9.843   7.823
    8CHTO   C13 3324   6.717   9.694   7.762
    8CHTO   H26 3325   6.700   9.700   7.652
    8CHTO   C11 3326   6.608   9.601   7.833
    8CHTO   H24 3327   6.511   9.619   7.784
    8CHTO    O8 3328   6.596   9.635   7.972
    8CHTO    H3 3329   6.564   9.723   7.981
    8CHTO    C9 3330   6.648   9.452   7.812
    8CHTO   H22 3331   6.663   9.441   7.704
    8CHTO    N2 3332   6.540   9.355   7.845
    8CHTO   H10 3333   6.505   9.307   7.755
    8CHTO   H11 3334   6.459   9.404   7.897
    8CHTO    C7 3335   6.787   9.425   7.884
    8CHTO   H20 3336   6.836   9.348   7.820
    8CHTO    O4 3337   6.871   9.543   7.890
    8CHTO   C14 3338   6.864   9.633   7.779
    8CHTO   H27 3339   6.889   9.576   7.686
    8CHTO   C18 3340   6.972   9.742   7.796
    8CHTO   O13 3341   7.103   9.684   7.798
    8CHTO    H7 3342   7.167   9.752   7.810
    8CHTO    O2 3343   6.772   9.367   8.038
    8CHTO    C1 3344   6.881   9.289   8.091
    8CHTO   H14 3345   6.868   9.285   0.012
    8CHTO    C2 3346   7.028   9.341   8.060
    8CHTO   H15 3347   7.037   9.349   7.951
    8CHTO    O6 3348   7.044   9.472   8.119
    8CHTO    H1 3349   7.035   9.468   0.023
    8CHTO    C3 3350   7.138   9.240   8.116
    8CHTO   H16 3351   7.135   9.244   0.038
    8CHTO    N1 3352   7.278   9.276   8.074
    8CHTO    H8 3353   7.279   9.365   8.013
    8CHTO    H9 3354   7.341   9.292   8.161
    8CHTO    C4 3355   7.102   9.091   8.078
    8CHTO   H17 3356   7.119   9.077   7.972
    8CHTO    O1 3357   6.966   9.059   8.110
    8CHTO    C5 3358   6.869   9.141   8.042
    8CHTO   H18 3359   6.890   9.140   7.935
    8CHTO   C16 3360   6.728   9.080   8.066
    8CHTO   O11 3361   6.690   9.080   0.016
    8CHTO    H5 3362   6.744   9.019   0.063
    8CHTO    O3 3363   7.182   8.999   8.156
    8CHTO    C6 3364   7.201   8.866   8.097
    8CHTO   H19 3365   7.119   8.837   8.032
    8CHTO    C8 3366   7.334   8.862   8.014
    8CHTO   H21 3367   7.415   8.901   8.077
    8CHTO    O7 3368   7.318   8.948   7.899
    8CHTO    H2 3369   7.251   8.915   7.842
    8CHTO   C12 3370   7.370   8.714   7.971
    8CHTO   H25 3371   7.293   8.683   7.897
    8CHTO    N3 3372   7.503   8.707   7.901
    8CHTO   H12 3373   7.523   8.606   7.870
    8CHTO   H13 3374   7.581   8.742   7.967
    8CHTO   C15 3375   7.360   8.618   8.096
    8CHTO   H28 3376   7.439   8.638   8.168
    8CHTO   O10 3377   7.363   8.473   8.057
    8CHTO    H4 3378   7.446   8.452   8.019
    8CHTO    O5 3379   7.231   8.630   8.159
    8CHTO   C10 3380   7.207   8.762   0.023
    8CHTO   H23 3381   7.288   8.787   0.091
    8CHTO   C17 3382   7.079   8.760   0.107
    8CHTO   O12 3383   7.095   8.678   0.223
    8CHTO    H6 3384   7.015   8.678   0.273
    9CHTO  H203 3385   7.047   5.422   5.540
    9CHTO   O82 3386   7.087   5.340   5.519
    9CHTO  C123 3387   7.208   5.362   5.445
    9CHTO  H227 3388   7.275   5.427   5.505
    9CHTO   O77 3389   7.264   5.228   5.437
    9CHTO  C118 3390   7.389   5.219   5.366
    9CHTO  H222 3391   7.462   5.287   5.413
    9CHTO  C125 3392   7.441   5.071   5.380
    9CHTO   O84 3393   7.349   4.975   5.325
    9CHTO  H205 3394   7.271   4.973   5.376
    9CHTO  C114 3395   7.366   5.260   5.220
    9CHTO  H218 3396   7.291   5.195   5.176
    9CHTO  C116 3397   7.311   5.406   5.212
    9CHTO  H220 3398   7.390   5.477   5.247
    9CHTO   O79 3399   7.286   5.437   5.074
    9CHTO  H201 3400   7.260   5.527   5.065
    9CHTO  C120 3401   7.182   5.421   5.301
    9CHTO  H224 3402   7.102   5.361   5.251
    9CHTO   N21 3403   7.133   5.561   5.308
    9CHTO  H211 3404   7.026   5.563   5.322
    9CHTO  H212 3405   7.159   5.614   5.217
    9CHTO   O75 3406   7.493   5.243   5.154
    9CHTO  C112 3407   7.479   5.161   5.013
    9CHTO  H216 3408   7.384   5.190   4.964
    9CHTO   O73 3409   7.481   5.021   5.045
    9CHTO  C113 3410   7.455   4.936   4.933
    9CHTO  H217 3411   7.356   4.963   4.890
    9CHTO  C124 3412   7.444   4.793   4.988
    9CHTO   O83 3413   7.395   4.700   4.892
    9CHTO  H204 3414   7.389   4.614   4.931
    9CHTO  C109 3415   7.568   4.952   4.826
    9CHTO  H213 3416   7.661   4.916   4.873
    9CHTO  C110 3417   7.582   5.103   4.787
    9CHTO  H214 3418   7.493   5.133   4.732
    9CHTO   O78 3419   7.694   5.119   4.697
    9CHTO  H200 3420   7.774   5.094   4.739
    9CHTO  C111 3421   7.598   5.192   4.915
    9CHTO  H215 3422   7.692   5.165   4.965
    9CHTO   N19 3423   7.605   5.337   4.886
    9CHTO  H207 3424   7.515   5.370   4.837
    9CHTO  H208 3425   7.620   5.393   4.977
    9CHTO   O74 3426   7.538   4.870   4.709
    9CHTO  C115 3427   7.668   4.817   4.636
    9CHTO  H219 3428   7.753   4.883   4.652
    9CHTO   O76 3429   7.714   4.674   4.692
    9CHTO  C122 3430   7.626   4.566   4.658
    9CHTO  H226 3431   7.531   4.582   4.708
    9CHTO  C126 3432   7.685   4.433   4.718
    9CHTO   O85 3433   7.692   4.435   4.861
    9CHTO  H206 3434   7.757   4.498   4.888
    9CHTO  C121 3435   7.606   4.557   4.503
    9CHTO  H225 3436   7.705   4.542   4.454
    9CHTO   O81 3437   7.524   4.444   4.468
    9CHTO  H202 3438   7.520   4.434   4.375
    9CHTO  C119 3439   7.544   4.691   4.452
    9CHTO  H223 3440   7.533   4.681   4.344
    9CHTO  C117 3441   7.637   4.815   4.481
    9CHTO  H221 3442   7.591   4.912   4.462
    9CHTO   N20 3443   7.763   4.816   4.398
    9CHTO  H209 3444   7.770   4.727   4.337
    9CHTO  H210 3445   7.851   4.825   4.461
    9CHTO   O80 3446   7.393   4.711   4.496
    9CHTO  C103 3447   7.307   4.836   4.437
    9CHTO  H190 3448   7.341   4.929   4.483
    9CHTO  C101 3449   7.304   4.854   4.280
    9CHTO  H188 3450   7.281   4.757   4.234
    9CHTO   O68 3451   7.443   4.899   4.231
    9CHTO  H168 3452   7.507   4.833   4.251
    9CHTO   C99 3453   7.190   4.959   4.236
    9CHTO  H186 3454   7.216   5.059   4.277
    9CHTO   N17 3455   7.177   4.974   4.087
    9CHTO  H174 3456   7.075   4.956   4.054
    9CHTO  H175 3457   7.211   5.072   4.056
    9CHTO   C97 3458   7.055   4.921   4.303
    9CHTO  H184 3459   7.022   4.824   4.260
    9CHTO   O64 3460   7.070   4.913   4.446
    9CHTO  C104 3461   7.160   4.809   4.489
    9CHTO  H191 3462   7.126   4.712   4.452
    9CHTO  C108 3463   7.154   4.800   4.643
    9CHTO   O71 3464   7.188   4.923   4.707
    9CHTO  H171 3465   7.121   4.987   4.691
    9CHTO   O62 3466   6.954   5.023   4.286
    9CHTO   C91 3467   6.827   4.979   4.236
    9CHTO  H178 3468   6.845   4.899   4.164
    9CHTO   C92 3469   6.763   5.097   4.153
    9CHTO  H179 3470   6.841   5.144   4.090
    9CHTO   O66 3471   6.669   5.041   4.060
    9CHTO  H166 3472   6.601   4.996   4.104
    9CHTO   C93 3473   6.686   5.203   4.241
    9CHTO  H180 3474   6.622   5.260   4.171
    9CHTO   N16 3475   6.775   5.305   4.302
    9CHTO  H172 3476   6.847   5.257   4.366
    9CHTO  H173 3477   6.825   5.362   4.225
    9CHTO   C94 3478   6.594   5.132   4.348
    9CHTO  H181 3479   6.625   5.153   4.450
    9CHTO   O61 3480   6.595   4.988   4.334
    9CHTO   C95 3481   6.725   4.929   4.348
    9CHTO  H182 3482   6.765   4.954   4.447
    9CHTO  C106 3483   6.704   4.773   4.346
    9CHTO   O69 3484   6.824   4.703   4.376
    9CHTO  H169 3485   6.808   4.611   4.373
    9CHTO   O63 3486   6.447   5.179   4.326
    9CHTO   C96 3487   6.356   5.176   4.459
    9CHTO  H183 3488   6.413   5.219   4.541
    9CHTO   C98 3489   6.305   5.035   4.502
    9CHTO  H185 3490   6.267   4.982   4.414
    9CHTO   O67 3491   6.419   4.959   4.547
    9CHTO  H167 3492   6.394   4.871   4.565
    9CHTO  C102 3493   6.193   5.039   4.617
    9CHTO  H189 3494   6.245   5.071   4.709
    9CHTO   N18 3495   6.131   4.907   4.649
    9CHTO  H176 3496   6.207   4.839   4.684
    9CHTO  H177 3497   6.083   4.867   4.561
    9CHTO  C105 3498   6.086   5.146   4.583
    9CHTO  H192 3499   6.026   5.112   4.498
    9CHTO   O65 3500   6.147   5.272   4.549
    9CHTO  C100 3501   6.232   5.269   4.433
    9CHTO  H187 3502   6.175   5.229   4.348
    9CHTO  C107 3503   6.276   5.413   4.398
    9CHTO   O70 3504   6.163   5.497   4.370
    9CHTO  H170 3505   6.115   5.512   4.449
    9CHTO   O57 3506   5.992   5.167   4.716
    9CHTO   C85 3507   5.857   5.218   4.706
    9CHTO  H157 3508   5.800   5.143   4.647
    9CHTO   C83 3509   5.853   5.350   4.622
    9CHTO  H155 3510   5.879   5.326   4.519
    9CHTO   O56 3511   5.956   5.439   4.670
    9CHTO  H135 3512   5.962   5.514   4.615
    9CHTO   C81 3513   5.711   5.412   4.626
    9CHTO  H153 3514   5.641   5.337   4.588
    9CHTO   N14 3515   5.694   5.527   4.533
    9CHTO  H141 3516   5.592   5.559   4.532
    9CHTO  H142 3517   5.756   5.609   4.565
    9CHTO   C79 3518   5.671   5.445   4.774
    9CHTO  H151 3519   5.570   5.485   4.772
    9CHTO   O52 3520   5.667   5.320   4.851
    9CHTO   C86 3521   5.792   5.244   4.849
    9CHTO  H158 3522   5.861   5.304   4.911
    9CHTO   C90 3523   5.772   5.111   4.925
    9CHTO   O60 3524   5.669   5.032   4.865
    9CHTO  H138 3525   5.658   4.952   4.913
    9CHTO   O50 3526   5.756   5.541   4.841
    9CHTO   C73 3527   5.786   5.653   4.926
    9CHTO  H145 3528   5.704   5.670   4.997
    9CHTO   C74 3529   5.806   5.782   4.840
    9CHTO  H146 3530   5.712   5.799   4.786
    9CHTO   O54 3531   5.823   5.894   4.929
    9CHTO  H133 3532   5.744   5.910   4.977
    9CHTO   C75 3533   5.927   5.759   4.742
    9CHTO  H147 3534   5.900   5.680   4.671
    9CHTO   N13 3535   5.958   5.875   4.656
    9CHTO  H139 3536   5.985   5.961   4.716
    9CHTO  H140 3537   6.041   5.852   4.590
    9CHTO   C76 3538   6.057   5.707   4.823
    9CHTO  H148 3539   6.100   5.792   4.877
    9CHTO   O49 3540   6.027   5.599   4.917
    9CHTO   C77 3541   5.917   5.626   5.006
    9CHTO  H149 3542   5.940   5.713   5.067
    9CHTO   C88 3543   5.900   5.510   5.105
    9CHTO   O58 3544   6.017   5.499   5.195
    9CHTO  H136 3545   6.020   5.572   5.253
    9CHTO   O51 3546   6.159   5.640   4.720
    9CHTO   C78 3547   6.309   5.665   4.753
    9CHTO  H150 3548   6.321   5.712   4.852
    9CHTO   C80 3549   6.369   5.757   4.645
    9CHTO  H152 3550   6.345   5.715   4.545
    9CHTO   O55 3551   6.303   5.885   4.657
    9CHTO  H134 3552   6.330   5.942   4.587
    9CHTO   C84 3553   6.526   5.773   4.659
    9CHTO  H156 3554   6.545   5.832   4.749
    9CHTO   N15 3555   6.586   5.849   4.544
    9CHTO  H143 3556   6.565   5.798   4.452
    9CHTO  H144 3557   6.545   5.948   4.540
    9CHTO   C87 3558   6.595   5.636   4.678
    9CHTO  H159 3559   6.592   5.579   4.584
    9CHTO   O53 3560   6.521   5.556   4.791
    9CHTO   C82 3561   6.384   5.531   4.757
    9CHTO  H154 3562   6.378   5.480   4.660
    9CHTO   C89 3563   6.322   5.434   4.861
    9CHTO   O59 3564   6.383   5.305   4.856
    9CHTO  H137 3565   6.472   5.310   4.886
    9CHTO   O45 3566   6.755   5.657   4.722
    9CHTO   C67 3567   6.816   5.544   4.785
    9CHTO  H124 3568   6.745   5.498   4.854
    9CHTO   C65 3569   6.861   5.436   4.680
    9CHTO  H122 3570   6.887   5.491   4.589
    9CHTO   O44 3571   6.744   5.357   4.652
    9CHTO  H102 3572   6.725   5.300   4.724
    9CHTO   C63 3573   6.993   5.360   4.721
    9CHTO  H120 3574   7.078   5.424   4.697
    9CHTO   N11 3575   7.028   5.238   4.640
    9CHTO  H108 3576   6.945   5.209   4.578
    9CHTO  H109 3577   7.055   5.156   4.703
    9CHTO   C61 3578   6.996   5.341   4.877
    9CHTO  H118 3579   7.094   5.295   4.901
    9CHTO   O40 3580   6.991   5.469   4.947
    9CHTO   C68 3581   6.939   5.586   4.875
    9CHTO  H125 3582   7.021   5.628   4.813
    9CHTO   C72 3583   6.903   5.692   4.982
    9CHTO   O48 3584   6.867   5.819   4.926
    9CHTO  H105 3585   6.786   5.812   4.880
    9CHTO   O38 3586   6.889   5.255   4.923
    9CHTO   C55 3587   6.888   5.220   5.063
    9CHTO  H112 3588   6.938   5.298   5.122
    9CHTO   C56 3589   6.954   5.077   5.086
    9CHTO  H113 3590   6.905   5.007   5.017
    9CHTO   O42 3591   7.093   5.081   5.048
    9CHTO  H100 3592   7.101   5.096   4.955
    9CHTO   C57 3593   6.936   5.029   5.236
    9CHTO  H114 3594   6.997   5.095   5.298
    9CHTO   N10 3595   6.984   4.890   5.259
    9CHTO  H106 3596   6.905   4.819   5.240
    9CHTO  H107 3597   7.018   4.879   5.361
    9CHTO   C58 3598   6.787   5.045   5.278
    9CHTO  H115 3599   6.725   4.972   5.221
    9CHTO   O37 3600   6.740   5.178   5.253
    9CHTO   C59 3601   6.741   5.216   5.115
    9CHTO  H116 3602   6.682   5.145   5.057
    9CHTO   C70 3603   6.672   5.353   5.102
    9CHTO   O46 3604   6.733   5.457   5.180
    9CHTO  H103 3605   6.819   5.475   5.148
    9CHTO   O39 3606   6.770   5.020   5.439
    9CHTO   C60 3607   6.635   4.999   5.485
    9CHTO  H117 3608   6.571   5.077   5.442
    9CHTO   C62 3609   6.578   4.861   5.441
    9CHTO  H119 3610   6.568   4.865   5.330
    9CHTO   O43 3611   6.672   4.758   5.476
    9CHTO  H101 3612   6.642   4.675   5.444
    9CHTO   C66 3613   6.432   4.838   5.506
    9CHTO  H123 3614   6.369   4.922   5.479
    9CHTO   N12 3615   6.366   4.716   5.451
    9CHTO  H110 3616   6.271   4.743   5.406
    9CHTO  H111 3617   6.352   4.641   5.528
    9CHTO   C69 3618   6.449   4.837   5.660
    9CHTO  H126 3619   6.526   4.762   5.687
    9CHTO   O41 3620   6.495   4.978   5.702
    9CHTO   C64 3621   6.632   5.018   5.639
    9CHTO  H121 3622   6.713   4.957   5.685
    9CHTO   C71 3623   6.660   5.167   5.673
    9CHTO   O47 3624   6.671   5.187   5.815
    9CHTO  H104 3625   6.688   5.277   5.832
    9CHTO   O34 3626   6.315   4.800   5.737
    9CHTO   C49 3627   6.230   4.762   5.859
    9CHTO   H91 3628   6.128   4.794   5.836
    9CHTO   C47 3629   6.281   4.839   5.984
    9CHTO   H89 3630   6.199   4.826   6.058
    9CHTO   O33 3631   6.293   4.980   5.955
    9CHTO   H70 3632   6.209   5.016   5.935
    9CHTO   C45 3633   6.422   4.782   6.039
    9CHTO   H87 3634   6.502   4.850   6.007
    9CHTO    N8 3635   6.417   4.782   6.188
    9CHTO   H75 3636   6.344   4.711   6.222
    9CHTO   H76 3637   6.514   4.756   6.227
    9CHTO   C43 3638   6.458   4.641   5.970
    9CHTO   H85 3639   6.487   4.666   5.869
    9CHTO   O29 3640   6.341   4.557   5.972
    9CHTO   C50 3641   6.231   4.609   5.893
    9CHTO   H92 3642   6.228   4.554   5.798
    9CHTO   C54 3643   6.098   4.570   5.962
    9CHTO   O36 3644   6.085   4.428   5.980
    9CHTO   H72 3645   6.147   4.398   6.043
    9CHTO   O27 3646   6.574   4.576   6.025
    9CHTO   C37 3647   6.717   4.586   6.005
    9CHTO   H79 3648   6.765   4.493   6.040
    9CHTO   C38 3649   6.754   4.600   5.853
    9CHTO   H80 3650   6.687   4.675   5.808
    9CHTO   O31 3651   6.726   4.472   5.793
    9CHTO   H68 3652   6.739   4.477   5.700
    9CHTO   C39 3653   6.903   4.646   5.831
    9CHTO   H81 3654   6.968   4.568   5.871
    9CHTO    N7 3655   6.937   4.664   5.686
    9CHTO   H73 3656   7.019   4.599   5.658
    9CHTO   H74 3657   6.962   4.767   5.664
    9CHTO   C40 3658   6.925   4.775   5.917
    9CHTO   H82 3659   6.851   4.850   5.887
    9CHTO   O26 3660   6.910   4.739   6.055
    9CHTO   C41 3661   6.773   4.705   6.090
    9CHTO   H83 3662   6.710   4.794   6.075
    9CHTO   C52 3663   6.771   4.672   6.242
    9CHTO   O35 3664   6.860   4.558   6.279
    9CHTO   H71 3665   6.950   4.581   6.264
    9CHTO   O28 3666   7.056   4.834   5.904
    9CHTO   C42 3667   7.077   4.976   5.935
    9CHTO   H84 3668   7.184   4.990   5.921
    9CHTO   C44 3669   7.047   5.021   6.082
    9CHTO   H86 3670   6.942   5.003   6.103
    9CHTO   O32 3671   7.127   4.937   6.167
    9CHTO   H69 3672   7.108   4.954   6.257
    9CHTO   C48 3673   7.076   5.176   6.104
    9CHTO   H90 3674   7.183   5.193   6.089
    9CHTO    N9 3675   7.046   5.220   6.244
    9CHTO   H77 3676   6.942   5.204   6.267
    9CHTO   H78 3677   7.073   5.324   6.257
    9CHTO   C51 3678   6.996   5.258   5.996
    9CHTO   H93 3679   6.890   5.237   6.010
    9CHTO   O30 3680   7.042   5.217   5.866
    9CHTO   C46 3681   7.005   5.072   5.835
    9CHTO   H88 3682   6.897   5.061   5.847
    9CHTO   C53 3683   7.043   5.041   5.687
    9CHTO   O72 3684   7.184   5.049   5.663
    9CHTO  H199 3685   7.213   5.138   5.671
    9CHTO   O22 3686   7.021   5.400   6.004
    9CHTO   C31 3687   6.932   5.501   5.942
    9CHTO   H59 3688   6.974   5.600   5.972
    9CHTO   C29 3689   6.934   5.498   5.787
    9CHTO   H57 3690   6.912   5.394   5.756
    9CHTO   O21 3691   7.069   5.526   5.747
    9CHTO   H37 3692   7.078   5.513   5.654
    9CHTO   C27 3693   6.828   5.594   5.721
    9CHTO   H55 3694   6.855   5.698   5.745
    9CHTO    N5 3695   6.823   5.580   5.574
    9CHTO   H43 3696   6.754   5.651   5.532
    9CHTO   H44 3697   6.794   5.479   5.547
    9CHTO   C25 3698   6.688   5.566   5.788
    9CHTO   H53 3699   6.662   5.461   5.773
    9CHTO   O17 3700   6.701   5.592   5.931
    9CHTO   C32 3701   6.786   5.498   5.999
    9CHTO   H60 3702   6.745   5.398   5.988
    9CHTO   C36 3703   6.787   5.536   6.149
    9CHTO   O25 3704   6.655   5.538   6.206
    9CHTO   H40 3705   6.621   5.451   6.210
    9CHTO   O15 3706   6.569   5.658   5.732
    9CHTO   C19 3707   6.443   5.624   5.666
    9CHTO   H47 3708   6.396   5.722   5.649
    9CHTO   C20 3709   6.460   5.552   5.528
    9CHTO   H48 3710   6.518   5.459   5.538
    9CHTO   O19 3711   6.534   5.642   5.444
    9CHTO   H35 3712   6.623   5.650   5.475
    9CHTO   C21 3713   6.322   5.517   5.459
    9CHTO   H49 3714   6.273   5.610   5.430
    9CHTO    N4 3715   6.337   5.435   5.335
    9CHTO   H41 3716   6.441   5.415   5.314
    9CHTO   H42 3717   6.293   5.487   5.251
    9CHTO   C22 3718   6.229   5.448   5.563
    9CHTO   H50 3719   6.268   5.349   5.586
    9CHTO   O14 3720   6.220   5.527   5.683
    9CHTO   C23 3721   6.343   5.544   5.755
    9CHTO   H51 3722   6.381   5.444   5.781
    9CHTO   C34 3723   6.306   5.617   5.885
    9CHTO   O23 3724   6.414   5.619   5.979
    9CHTO   H38 3725   6.387   5.662   6.057
    9CHTO   O16 3726   6.093   5.441   5.515
    9CHTO   C24 3727   6.013   5.309   5.566
    9CHTO   H52 3728   6.068   5.255   5.643
    9CHTO   C26 3729   5.987   5.216   5.446
    9CHTO   H54 3730   5.936   5.274   5.366
    9CHTO   O20 3731   6.115   5.172   5.396
    9CHTO   H36 3732   6.104   5.124   5.317
    9CHTO   C30 3733   5.896   5.095   5.485
    9CHTO   H58 3734   5.951   5.028   5.552
    9CHTO    N6 3735   5.859   5.012   5.366
    9CHTO   H45 3736   5.905   5.049   5.276
    9CHTO   H46 3737   5.752   5.008   5.352
    9CHTO   C33 3738   5.770   5.143   5.565
    9CHTO   H61 3739   5.701   5.197   5.499
    9CHTO   O18 3740   5.811   5.232   5.671
    9CHTO   C28 3741   5.878   5.352   5.629
    9CHTO   H56 3742   5.819   5.405   5.555
    9CHTO   C35 3743   5.901   5.443   5.752
    9CHTO   O24 3744   5.779   5.477   5.819
    9CHTO   H39 3745   5.742   5.401   5.859
    9CHTO    O9 3746   5.695   5.031   5.618
    9CHTO   C13 3747   5.537   5.019   5.573
    9CHTO   H26 3748   5.533   5.024   5.462
    9CHTO   C11 3749   5.445   5.133   5.641
    9CHTO   H24 3750   5.406   5.196   5.560
    9CHTO    O8 3751   5.524   5.219   5.725
    9CHTO    H3 3752   5.559   5.170   5.797
    9CHTO    C9 3753   5.324   5.069   5.714
    9CHTO   H22 3754   5.266   5.016   5.636
    9CHTO    N2 3755   5.226   5.165   5.771
    9CHTO   H10 3756   5.193   5.233   5.694
    9CHTO   H11 3757   5.142   5.112   5.814
    9CHTO    C7 3758   5.379   4.962   5.816
    9CHTO   H20 3759   5.288   4.916   5.862
    9CHTO    O4 3760   5.457   4.860   5.751
    9CHTO   C14 3761   5.487   4.873   5.611
    9CHTO   H27 3762   5.394   4.851   5.553
    9CHTO   C18 3763   5.590   4.765   5.573
    9CHTO   O13 3764   5.538   4.634   5.596
    9CHTO    H7 3765   5.602   4.570   5.570
    9CHTO    O2 3766   5.471   5.032   5.933
    9CHTO    C1 3767   5.517   4.940   6.034
    9CHTO   H14 3768   5.510   4.836   5.995
    9CHTO    C2 3769   5.433   4.948   6.168
    9CHTO   H15 3770   5.433   5.054   6.198
    9CHTO    O6 3771   5.299   4.906   6.141
    9CHTO    H1 3772   5.297   4.816   6.114
    9CHTO    C3 3773   5.502   4.858   6.282
    9CHTO   H16 3774   5.493   4.753   6.252
    9CHTO    N1 3775   5.432   4.871   6.415
    9CHTO    H8 3776   5.330   4.839   6.406
    9CHTO    H9 3777   5.435   4.974   6.447
    9CHTO    C4 3778   5.655   4.888   6.292
    9CHTO   H17 3779   5.670   4.988   6.333
    9CHTO    O1 3780   5.718   4.877   6.163
    9CHTO    C5 3781   5.668   4.965   6.062
    9CHTO   H18 3782   5.679   5.069   6.095
    9CHTO   C16 3783   5.752   4.944   5.934
    9CHTO   O11 3784   5.891   4.976   5.954
    9CHTO    H5 3785   5.901   5.068   5.967
    9CHTO    O3 3786   5.722   4.789   6.374
    9CHTO    C6 3787   5.834   4.837   6.456
    9CHTO   H19 3788   5.863   4.940   6.432
    9CHTO    C8 3789   5.796   4.832   6.608
    9CHTO   H21 3790   5.756   4.732   6.629
    9CHTO    O7 3791   5.692   4.930   6.628
    9CHTO    H2 3792   5.659   4.924   6.715
    9CHTO   C12 3793   5.922   4.859   6.700
    9CHTO   H25 3794   5.947   4.966   6.686
    9CHTO    N3 3795   5.887   4.842   6.845
    9CHTO   H12 3796   5.856   4.740   6.864
    9CHTO   H13 3797   5.972   4.867   6.907
    9CHTO   C15 3798   6.044   4.772   6.654
    9CHTO   H28 3799   6.030   4.667   6.677
    9CHTO   O10 3800   6.176   4.819   6.713
    9CHTO    H4 3801   6.174   4.809   6.806
    9CHTO    O5 3802   6.069   4.789   6.513
    9CHTO   C10 3803   5.959   4.748   6.430
    9CHTO   H23 3804   5.935   4.644   6.453
    9CHTO   C17 3805   6.005   4.752   6.284
    9CHTO   O12 3806   6.042   4.885   6.244
    9CHTO    H6 3807   6.073   4.884   6.156
   10CHTO  H203 3808   6.027   7.078   6.082
   10CHTO   O82 3809   5.977   7.006   6.048
   10CHTO  C123 3810   5.841   7.015   6.093
   10CHTO  H227 3811   5.798   7.110   6.057
   10CHTO   O77 3812   5.778   6.903   6.024
   10CHTO  C118 3813   5.635   6.896   6.042
   10CHTO  H222 3814   5.588   6.989   6.009
   10CHTO  C125 3815   5.587   6.778   5.950
   10CHTO   O84 3816   5.444   6.772   5.938
   10CHTO  H205 3817   5.413   6.847   5.891
   10CHTO  C114 3818   5.605   6.871   6.192
   10CHTO  H218 3819   5.649   6.776   6.221
   10CHTO  C116 3820   5.670   6.982   6.281
   10CHTO  H220 3821   5.618   7.078   6.263
   10CHTO   O79 3822   5.648   6.950   6.420
   10CHTO  H201 3823   5.691   6.870   6.442
   10CHTO  C120 3824   5.824   6.998   6.248
   10CHTO  H224 3825   5.873   6.904   6.281
   10CHTO   N21 3826   5.887   7.109   6.324
   10CHTO  H211 3827   5.816   7.188   6.343
   10CHTO  H212 3828   5.927   7.072   6.417
   10CHTO   O75 3829   5.462   6.865   6.201
   10CHTO  C112 3830   5.405   6.772   6.324
   10CHTO  H216 3831   5.443   6.812   6.419
   10CHTO   O73 3832   5.448   6.637   6.301
   10CHTO  C113 3833   5.418   6.550   6.411
   10CHTO  H217 3834   5.462   6.593   6.504
   10CHTO  C124 3835   5.487   6.416   6.384
   10CHTO   O83 3836   5.494   6.331   6.499
   10CHTO  H204 3837   5.408   6.302   6.522
   10CHTO  C109 3838   5.264   6.535   6.425
   10CHTO  H213 3839   5.229   6.484   6.334
   10CHTO  C110 3840   5.196   6.676   6.436
   10CHTO  H214 3841   5.217   6.716   6.536
   10CHTO   O78 3842   5.053   6.658   6.426
   10CHTO  H200 3843   5.021   6.612   6.502
   10CHTO  C111 3844   5.247   6.775   6.328
   10CHTO  H215 3845   5.211   6.741   6.230
   10CHTO   N19 3846   5.197   6.914   6.347
   10CHTO  H207 3847   5.089   6.915   6.344
   10CHTO  H208 3848   5.235   6.978   6.269
   10CHTO   O74 3849   5.231   6.454   6.542
   10CHTO  C115 3850   5.141   6.326   6.511
   10CHTO  H219 3851   5.111   6.322   6.406
   10CHTO   O76 3852   5.222   6.192   6.533
   10CHTO  C122 3853   5.260   6.173   6.670
   10CHTO  H226 3854   5.333   6.250   6.694
   10CHTO  C126 3855   5.337   6.036   6.682
   10CHTO   O85 3856   5.259   5.924   6.640
   10CHTO  H206 3857   5.243   5.928   6.548
   10CHTO  C121 3858   5.138   6.180   6.771
   10CHTO  H225 3859   5.130   6.083   6.825
   10CHTO   O81 3860   5.165   6.281   6.870
   10CHTO  H202 3861   5.101   6.277   6.938
   10CHTO  C119 3862   5.004   6.208   6.698
   10CHTO  H223 3863   4.987   6.121   6.634
   10CHTO  C117 3864   5.013   6.334   6.604
   10CHTO  H221 3865   5.023   6.429   6.657
   10CHTO   N20 3866   4.887   6.349   6.522
   10CHTO  H209 3867   4.876   6.266   6.455
   10CHTO  H210 3868   4.890   6.442   6.466
   10CHTO   O80 3869   4.881   6.201   6.793
   10CHTO  C103 3870   4.787   6.078   6.789
   10CHTO  H190 3871   4.747   6.064   6.689
   10CHTO  C101 3872   4.849   5.942   6.841
   10CHTO  H188 3873   4.903   5.961   6.934
   10CHTO   O68 3874   4.948   5.890   6.739
   10CHTO  H168 3875   4.992   5.814   6.772
   10CHTO   C99 3876   4.734   5.834   6.873
   10CHTO  H186 3877   4.681   5.808   6.779
   10CHTO   N17 3878   4.785   5.706   6.933
   10CHTO  H174 3879   4.704   5.636   6.945
   10CHTO  H175 3880   4.834   5.726   7.027
   10CHTO   C97 3881   4.628   5.901   6.965
   10CHTO  H184 3882   4.678   5.930   7.059
   10CHTO   O64 3883   4.573   6.015   6.896
   10CHTO  C104 3884   4.667   6.123   6.882
   10CHTO  H191 3885   4.706   6.154   6.979
   10CHTO  C108 3886   4.594   6.245   6.825
   10CHTO   O71 3887   4.493   6.291   6.915
   10CHTO  H171 3888   4.533   6.329   6.991
   10CHTO   O62 3889   4.512   5.820   6.993
   10CHTO   C91 3890   4.434   5.867   7.106
   10CHTO  H178 3891   4.469   5.967   7.134
   10CHTO   C92 3892   4.456   5.777   7.231
   10CHTO  H179 3893   4.419   5.675   7.210
   10CHTO   O66 3894   4.597   5.764   7.256
   10CHTO  H166 3895   4.638   5.716   7.187
   10CHTO   C93 3896   4.382   5.838   7.357
   10CHTO  H180 3897   4.440   5.927   7.386
   10CHTO   N16 3898   4.384   5.750   7.476
   10CHTO  H172 3899   4.336   5.798   7.559
   10CHTO  H173 3900   4.335   5.656   7.453
   10CHTO   C94 3901   4.234   5.883   7.323
   10CHTO  H181 3902   4.165   5.799   7.322
   10CHTO   O61 3903   4.221   5.946   7.194
   10CHTO   C95 3904   4.280   5.877   7.083
   10CHTO  H182 3905   4.236   5.777   7.075
   10CHTO  C106 3906   4.246   5.954   6.950
   10CHTO   O69 3907   4.105   5.959   6.927
   10CHTO  H169 3908   4.072   5.873   6.907
   10CHTO   O63 3909   4.185   5.994   7.431
   10CHTO   C96 3910   4.265   6.131   7.422
   10CHTO  H183 3911   4.327   6.129   7.332
   10CHTO   C98 3912   4.362   6.158   7.542
   10CHTO  H185 3913   4.427   6.071   7.560
   10CHTO   O67 3914   4.450   6.265   7.506
   10CHTO  H167 3915   4.507   6.238   7.437
   10CHTO  C102 3916   4.284   6.201   7.675
   10CHTO  H189 3917   4.361   6.243   7.742
   10CHTO   N18 3918   4.224   6.089   7.753
   10CHTO  H176 3919   4.302   6.021   7.785
   10CHTO  H177 3920   4.153   6.035   7.691
   10CHTO  C105 3921   4.180   6.313   7.642
   10CHTO  H192 3922   4.079   6.280   7.667
   10CHTO   O65 3923   4.179   6.355   7.504
   10CHTO  C100 3924   4.160   6.250   7.408
   10CHTO  H187 3925   4.058   6.210   7.422
   10CHTO  C107 3926   4.165   6.316   7.267
   10CHTO   O70 3927   4.128   6.225   7.164
   10CHTO  H170 3928   4.036   6.204   7.170
   10CHTO   O57 3929   4.223   6.432   7.740
   10CHTO   C85 3930   4.178   6.567   7.717
   10CHTO  H157 3931   4.078   6.559   7.668
   10CHTO   C83 3932   4.272   6.637   7.614
   10CHTO  H155 3933   4.264   6.584   7.519
   10CHTO   O56 3934   4.409   6.623   7.657
   10CHTO  H135 3935   4.467   6.657   7.591
   10CHTO   C81 3936   4.225   6.784   7.593
   10CHTO  H153 3937   4.121   6.781   7.561
   10CHTO   N14 3938   4.297   6.851   7.481
   10CHTO  H141 3939   4.341   6.943   7.514
   10CHTO  H142 3940   4.230   6.870   7.400
   10CHTO   C79 3941   4.231   6.862   7.730
   10CHTO  H151 3942   4.188   6.961   7.712
   10CHTO   O52 3943   4.145   6.797   7.828
   10CHTO   C86 3944   4.171   6.654   7.849
   10CHTO  H158 3945   4.268   6.651   7.902
   10CHTO   C90 3946   4.067   6.595   7.947
   10CHTO   O60 3947   4.074   6.658   8.075
   10CHTO  H138 3948   4.154   6.634   8.119
   10CHTO   O50 3949   4.364   6.881   7.783
   10CHTO   C73 3950   4.497   6.877   7.838
   10CHTO  H145 3951   4.563   6.819   7.772
   10CHTO   C74 3952   4.496   6.811   7.979
   10CHTO  H146 3953   4.454   6.709   7.968
   10CHTO   O54 3954   4.633   6.792   8.021
   10CHTO  H133 3955   4.635   6.748   8.104
   10CHTO   C75 3956   4.410   6.900   8.077
   10CHTO  H147 3957   4.308   6.906   8.038
   10CHTO   N13 3958   4.398   6.844   0.026
   10CHTO  H139 3959   4.496   6.832   0.070
   10CHTO  H140 3960   4.350   6.747   0.021
   10CHTO   C76 3961   4.471   7.048   8.077
   10CHTO  H148 3962   4.573   7.042   8.117
   10CHTO   O49 3963   4.476   7.102   7.941
   10CHTO   C77 3964   4.554   7.022   7.850
   10CHTO  H149 3965   4.656   7.016   7.886
   10CHTO   C88 3966   4.562   7.091   7.714
   10CHTO   O58 3967   4.632   7.223   7.725
   10CHTO  H136 3968   4.722   7.210   7.745
   10CHTO   O51 3969   4.381   7.150   8.158
   10CHTO   C78 3970   4.467   7.265   0.035
   10CHTO  H150 3971   4.567   7.273   8.174
   10CHTO   C80 3972   4.489   7.238   0.185
   10CHTO  H152 3973   4.390   7.225   0.234
   10CHTO   O55 3974   4.562   7.114   0.195
   10CHTO  H134 3975   4.570   7.088   0.285
   10CHTO   C84 3976   4.566   7.357   0.254
   10CHTO  H156 3977   4.666   7.361   0.210
   10CHTO   N15 3978   4.585   7.337   0.402
   10CHTO  H143 3979   4.639   7.246   0.420
   10CHTO  H144 3980   4.640   7.419   0.444
   10CHTO   C87 3981   4.495   7.491   0.224
   10CHTO  H159 3982   4.400   7.496   0.277
   10CHTO   O53 3983   4.472   7.506   0.071
   10CHTO   C82 3984   4.395   7.400   0.014
   10CHTO  H154 3985   4.296   7.397   0.061
   10CHTO   C89 3986   4.372   7.429   8.052
   10CHTO   O59 3987   4.494   7.441   7.978
   10CHTO  H137 3988   4.541   7.517   8.006
   10CHTO   O45 3989   4.588   7.613   0.266
   10CHTO   C67 3990   4.516   7.733   0.300
   10CHTO  H124 3991   4.415   7.732   0.258
   10CHTO   C65 3992   4.507   7.748   0.455
   10CHTO  H122 3993   4.469   7.652   0.491
   10CHTO   O44 3994   4.414   7.852   0.491
   10CHTO  H102 3995   4.448   7.936   0.465
   10CHTO   C63 3996   4.652   7.762   0.513
   10CHTO  H120 3997   4.711   7.677   0.480
   10CHTO   N11 3998   4.662   7.749   0.662
   10CHTO  H108 3999   4.764   7.745   0.692
   10CHTO  H109 4000   4.614   7.832   0.710
   10CHTO   C61 4001   4.722   7.890   0.453
   10CHTO  H118 4002   4.829   7.878   0.477
   10CHTO   O40 4003   4.713   7.897   0.307
   10CHTO   C68 4004   4.590   7.857   0.235
   10CHTO  H125 4005   4.623   7.825   0.134
   10CHTO   C72 4006   4.498   7.980   0.215
   10CHTO   O48 4007   4.382   7.952   0.135
   10CHTO  H105 4008   4.409   7.933   0.047
   10CHTO   O38 4009   4.673   8.016   0.506
   10CHTO   C55 4010   4.774   8.117   0.530
   10CHTO  H112 4011   4.859   8.100   0.463
   10CHTO   C56 4012   4.818   8.115   0.683
   10CHTO  H113 4013   4.726   8.121   0.744
   10CHTO   O42 4014   4.880   7.989   0.713
   10CHTO  H100 4015   4.899   7.983   0.805
   10CHTO   C57 4016   4.916   8.235   0.717
   10CHTO  H114 4017   5.010   8.210   0.669
   10CHTO   N10 4018   4.946   8.248   0.862
   10CHTO  H106 4019   4.873   8.311   0.911
   10CHTO  H107 4020   4.948   8.151   0.909
   10CHTO   C58 4021   4.864   8.369   0.658
   10CHTO  H115 4022   4.777   8.405   0.719
   10CHTO   O37 4023   4.824   8.356   0.521
   10CHTO   C59 4024   4.721   8.259   0.496
   10CHTO  H116 4025   4.632   8.283   0.555
   10CHTO   C70 4026   4.684   8.268   0.347
   10CHTO   O46 4027   4.624   8.393   0.311
   10CHTO  H103 4028   4.688   8.462   0.318
   10CHTO   O39 4029   4.985   8.480   0.656
   10CHTO   C60 4030   4.947   8.612   0.700
   10CHTO  H117 4031   4.848   8.635   0.662
   10CHTO   C62 4032   4.944   8.620   0.856
   10CHTO  H119 4033   4.867   8.548   0.890
   10CHTO   O43 4034   5.072   8.580   0.908
   10CHTO  H101 4035   5.070   8.579   1.002
   10CHTO   C66 4036   4.901   8.768   0.903
   10CHTO  H123 4037   4.805   8.792   0.858
   10CHTO   N12 4038   4.882   8.778   1.050
   10CHTO  H110 4039   4.973   8.752   1.101
   10CHTO  H111 4040   4.801   8.713   1.080
   10CHTO   C69 4041   5.005   8.871   0.849
   10CHTO  H126 4042   5.106   8.848   0.890
   10CHTO   O41 4043   5.009   8.860   0.691
   10CHTO   C64 4044   5.045   8.717   0.642
   10CHTO  H121 4045   5.148   8.693   0.674
   10CHTO   C71 4046   5.043   8.715   0.487
   10CHTO   O47 4047   5.143   8.801   0.431
   10CHTO  H104 4048   5.228   8.765   0.446
   10CHTO   O34 4049   4.968   9.019   0.891
   10CHTO   C49 4050   5.065   9.132   0.926
   10CHTO   H91 4051   5.153   9.085   0.971
   10CHTO   C47 4052   4.997   9.225   1.028
   10CHTO   H89 4053   5.073   9.300   1.059
   10CHTO   O33 4054   4.959   9.147   1.143
   10CHTO   H70 4055   5.035   9.117   1.188
   10CHTO   C45 4056   4.872   9.299   0.957
   10CHTO   H87 4057   4.803   9.220   0.923
   10CHTO    N8 4058   4.799   9.387   1.052
   10CHTO   H75 4059   4.699   9.348   1.069
   10CHTO   H76 4060   4.793   9.488   1.014
   10CHTO   C43 4061   4.919   9.374   0.822
   10CHTO   H85 4062   4.827   9.403   0.772
   10CHTO   O29 4063   5.001   9.289   0.740
   10CHTO   C50 4064   5.107   9.212   0.801
   10CHTO   H92 4065   5.141   9.139   0.725
   10CHTO   C54 4066   5.234   9.297   0.828
   10CHTO   O36 4067   5.287   9.355   0.708
   10CHTO   H72 4068   5.230   9.423   0.678
   10CHTO   O27 4069   4.989   9.498   0.847
   10CHTO   C37 4070   5.038   9.607   0.766
   10CHTO   H79 4071   5.139   9.584   0.730
   10CHTO   C38 4072   4.949   9.631   0.640
   10CHTO   H80 4073   4.844   9.639   0.673
   10CHTO   O31 4074   4.960   9.515   0.555
   10CHTO   H68 4075   5.048   9.505   0.525
   10CHTO   C39 4076   4.990   9.761   0.562
   10CHTO   H81 4077   5.086   9.739   0.514
   10CHTO    N7 4078   4.894   9.796   0.452
   10CHTO   H73 4079   4.796   9.816   0.494
   10CHTO   H74 4080   4.930   9.882   0.397
   10CHTO   C40 4081   5.013   9.883   0.658
   10CHTO   H82 4082   4.919   9.930   0.688
   10CHTO   O26 4083   5.093   9.847   0.772
   10CHTO   C41 4084   5.043   9.736   0.852
   10CHTO   H83 4085   4.942   9.760   0.889
   10CHTO   C52 4086   5.137   9.719   0.974
   10CHTO   O35 4087   5.144   9.841   1.054
   10CHTO   H71 4088   5.201   9.827   1.127
   10CHTO   O28 4089   5.100   9.980   0.595
   10CHTO   C42 4090   5.073   0.123   0.588
   10CHTO   H84 4091   4.976   0.138   0.636
   10CHTO   C44 4092   5.059   0.177   0.442
   10CHTO   H86 4093   5.145   0.143   0.384
   10CHTO   O32 4094   4.942   0.117   0.385
   10CHTO   H69 4095   4.934   0.140   0.295
   10CHTO   C48 4096   5.054   0.335   0.432
   10CHTO   H90 4097   4.957   0.368   0.470
   10CHTO    N9 4098   5.060   0.384   0.289
   10CHTO   H77 4099   5.148   0.443   0.272
   10CHTO   H78 4100   5.055   0.302   0.219
   10CHTO   C51 4101   5.166   0.398   0.522
   10CHTO   H93 4102   5.263   0.371   0.481
   10CHTO   O30 4103   5.149   0.351   0.656
   10CHTO   C46 4104   5.177   0.206   0.670
   10CHTO   H88 4105   5.277   0.185   0.633
   10CHTO   C53 4106   5.169   0.174   0.821
   10CHTO   O72 4107   5.275   0.239   0.892
   10CHTO  H199 4108   5.270   0.217   0.984
   10CHTO   O22 4109   5.152   0.541   0.532
   10CHTO   C31 4110   5.266   0.622   0.578
   10CHTO   H59 4111   5.334   0.552   0.632
   10CHTO   C29 4112   5.348   0.684   0.463
   10CHTO   H57 4113   5.277   0.741   0.400
   10CHTO   O21 4114   5.400   0.578   0.380
   10CHTO   H37 4115   5.330   0.532   0.338
   10CHTO   C27 4116   5.462   0.781   0.514
   10CHTO   H55 4117   5.539   0.722   0.565
   10CHTO    N5 4118   5.528   0.856   0.403
   10CHTO   H43 4119   5.455   0.917   0.351
   10CHTO   H44 4120   5.574   0.787   0.334
   10CHTO   C25 4121   5.400   0.879   0.620
   10CHTO   H53 4122   5.322   0.939   0.570
   10CHTO   O17 4123   5.338   0.802   0.727
   10CHTO   C32 4124   5.223   0.729   0.682
   10CHTO   H60 4125   5.151   0.797   0.636
   10CHTO   C36 4126   5.156   0.664   0.806
   10CHTO   O25 4127   5.108   0.763   0.898
   10CHTO   H40 4128   5.180   0.807   0.939
   10CHTO   O15 4129   5.504   0.976   0.684
   10CHTO   C19 4130   5.472   1.114   0.717
   10CHTO   H47 4131   5.427   1.154   0.625
   10CHTO   C20 4132   5.369   1.133   0.834
   10CHTO   H48 4133   5.404   1.085   0.927
   10CHTO   O19 4134   5.246   1.069   0.795
   10CHTO   H35 4135   5.257   0.976   0.791
   10CHTO   C21 4136   5.342   1.286   0.865
   10CHTO   H49 4137   5.291   1.330   0.779
   10CHTO    N4 4138   5.253   1.305   0.983
   10CHTO   H41 4139   5.164   1.359   0.955
   10CHTO   H42 4140   5.304   1.360   1.062
   10CHTO   C22 4141   5.478   1.360   0.878
   10CHTO   H50 4142   5.528   1.325   0.968
   10CHTO   O14 4143   5.561   1.338   0.764
   10CHTO   C23 4144   5.599   1.201   0.744
   10CHTO   H51 4145   5.652   1.168   0.834
   10CHTO   C34 4146   5.700   1.194   0.628
   10CHTO   O23 4147   5.646   1.244   0.505
   10CHTO   H38 4148   5.580   1.185   0.473
   10CHTO   O16 4149   5.458   1.503   0.883
   10CHTO   C24 4150   5.576   1.580   0.954
   10CHTO   H52 4151   5.668   1.521   0.956
   10CHTO   C26 4152   5.533   1.614   1.098
   10CHTO   H54 4153   5.434   1.667   1.094
   10CHTO   O20 4154   5.515   1.490   1.169
   10CHTO   H36 4155   5.478   1.507   1.254
   10CHTO   C30 4156   5.636   1.708   1.168
   10CHTO   H58 4157   5.730   1.654   1.185
   10CHTO    N6 4158   5.588   1.750   1.303
   10CHTO   H45 4159   5.662   1.812   1.351
   10CHTO   H46 4160   5.496   1.805   1.294
   10CHTO   C33 4161   5.672   1.829   1.076
   10CHTO   H61 4162   5.584   1.895   1.065
   10CHTO   O18 4163   5.709   1.781   0.945
   10CHTO   C28 4164   5.607   1.710   0.874
   10CHTO   H56 4165   5.516   1.769   0.866
   10CHTO   C35 4166   5.663   1.678   0.733
   10CHTO   O24 4167   5.564   1.627   0.643
   10CHTO   H39 4168   5.536   1.542   0.671
   10CHTO    O9 4169   5.776   1.912   1.132
   10CHTO   C13 4170   5.728   2.053   1.199
   10CHTO   H26 4171   5.642   2.032   1.266
   10CHTO   C11 4172   5.690   2.158   1.086
   10CHTO   H24 4173   5.601   2.120   1.033
   10CHTO    O8 4174   5.798   2.168   0.990
   10CHTO    H3 4175   5.809   2.087   0.945
   10CHTO    C9 4176   5.655   2.292   1.156
   10CHTO   H22 4177   5.572   2.268   1.225
   10CHTO    N2 4178   5.594   2.391   1.064
   10CHTO   H10 4179   5.511   2.347   1.011
   10CHTO   H11 4180   5.562   2.478   1.119
   10CHTO    C7 4181   5.778   2.344   1.243
   10CHTO   H20 4182   5.732   2.361   1.343
   10CHTO    O4 4183   5.882   2.246   1.256
   10CHTO   C14 4184   5.842   2.113   1.294
   10CHTO   H27 4185   5.802   2.118   1.397
   10CHTO   C18 4186   5.969   2.024   1.299
   10CHTO   O13 4187   6.064   2.072   1.395
   10CHTO    H7 4188   6.100   2.154   1.366
   10CHTO    O2 4189   5.847   2.485   1.190
   10CHTO    C1 4190   5.868   2.583   1.293
   10CHTO   H14 4191   5.833   2.543   1.391
   10CHTO    C2 4192   5.793   2.719   1.264
   10CHTO   H15 4193   5.830   2.754   1.166
   10CHTO    O6 4194   5.651   2.693   1.256
   10CHTO    H1 4195   5.632   2.641   1.180
   10CHTO    C3 4196   5.825   2.827   1.378
   10CHTO   H16 4197   5.773   2.795   1.470
   10CHTO    N1 4198   5.774   2.965   1.344
   10CHTO    H8 4199   5.703   2.997   1.419
   10CHTO    H9 4200   5.728   2.966   1.247
   10CHTO    C4 4201   5.978   2.830   1.414
   10CHTO   H17 4202   6.032   2.887   1.338
   10CHTO    O1 4203   6.034   2.698   1.426
   10CHTO    C5 4204   6.019   2.615   1.310
   10CHTO   H18 4205   6.055   2.667   1.221
   10CHTO   C16 4206   6.109   2.491   1.335
   10CHTO   O11 4207   6.129   2.415   1.216
   10CHTO    H5 4208   6.182   2.463   1.156
   10CHTO    O3 4209   5.997   2.889   1.545
   10CHTO    C6 4210   6.126   2.956   1.566
   10CHTO   H19 4211   6.195   2.943   1.482
   10CHTO    C8 4212   6.103   3.110   1.585
   10CHTO   H21 4213   6.030   3.123   1.665
   10CHTO    O7 4214   6.049   3.162   1.462
   10CHTO    H2 4215   6.111   3.153   1.393
   10CHTO   C12 4216   6.238   3.182   1.626
   10CHTO   H25 4217   6.303   3.178   1.536
   10CHTO    N3 4218   6.216   3.327   1.658
   10CHTO   H12 4219   6.310   3.373   1.685
   10CHTO   H13 4220   6.173   3.377   1.572
   10CHTO   C15 4221   6.310   3.103   1.742
   10CHTO   H28 4222   6.258   3.116   1.838
   10CHTO   O10 4223   6.458   3.144   1.758
   10CHTO    H4 4224   6.464   3.234   1.784
   10CHTO    O5 4225   6.322   2.963   1.712
   10CHTO   C10 4226   6.196   2.898   1.692
   10CHTO   H23 4227   6.133   2.917   1.780
   10CHTO   C17 4228   6.219   2.747   1.685
   10CHTO   O12 4229   6.297   2.708   1.571
   10CHTO    H6 4230   6.385   2.739   1.580
   11CHTO  H203 4231   7.512   6.574   2.445
   11CHTO   O82 4232   7.478   6.522   2.374
   11CHTO  C123 4233   7.340   6.554   2.353
   11CHTO  H227 4234   7.331   6.663   2.333
   11CHTO   O77 4235   7.307   6.479   2.233
   11CHTO  C118 4236   7.176   6.506   2.181
   11CHTO  H222 4237   7.164   6.613   2.161
   11CHTO  C125 4238   7.162   6.428   2.045
   11CHTO   O84 4239   7.257   6.472   1.948
   11CHTO  H205 4240   7.343   6.448   1.975
   11CHTO  C114 4241   7.070   6.459   2.283
   11CHTO  H218 4242   7.077   6.351   2.293
   11CHTO  C116 4243   7.094   6.522   2.424
   11CHTO  H220 4244   7.065   6.630   2.420
   11CHTO   O79 4245   7.004   6.459   2.517
   11CHTO  H201 4246   7.011   6.500   2.601
   11CHTO  C120 4247   7.245   6.508   2.470
   11CHTO  H224 4248   7.262   6.401   2.491
   11CHTO   N21 4249   7.272   6.584   2.595
   11CHTO  H211 4250   7.209   6.671   2.602
   11CHTO  H212 4251   7.256   6.520   2.681
   11CHTO   O75 4252   6.943   6.497   2.226
   11CHTO  C112 4253   6.833   6.376   2.217
   11CHTO  H216 4254   6.860   6.296   2.288
   11CHTO   O73 4255   6.834   6.329   2.081
   11CHTO  C113 4256   6.742   6.222   2.054
   11CHTO  H217 4257   6.763   6.138   2.122
   11CHTO  C124 4258   6.772   6.175   1.911
   11CHTO   O83 4259   6.714   6.047   1.882
   11CHTO  H204 4260   6.736   6.022   1.794
   11CHTO  C109 4261   6.596   6.274   2.072
   11CHTO  H213 4262   6.580   6.352   1.996
   11CHTO  C110 4263   6.578   6.333   2.215
   11CHTO  H214 4264   6.576   6.250   2.287
   11CHTO   O78 4265   6.449   6.395   2.225
   11CHTO  H200 4266   6.442   6.467   2.165
   11CHTO  C111 4267   6.691   6.434   2.253
   11CHTO  H215 4268   6.677   6.525   2.194
   11CHTO   N19 4269   6.687   6.475   2.396
   11CHTO  H207 4270   6.593   6.523   2.418
   11CHTO  H208 4271   6.699   6.388   2.460
   11CHTO   O74 4272   6.498   6.167   2.051
   11CHTO  C115 4273   6.425   6.168   1.905
   11CHTO  H219 4274   6.494   6.200   1.826
   11CHTO   O76 4275   6.380   6.025   1.862
   11CHTO  C122 4276   6.287   5.967   1.955
   11CHTO  H226 4277   6.341   5.946   2.047
   11CHTO  C126 4278   6.241   5.828   1.900
   11CHTO   O85 4279   6.348   5.734   1.890
   11CHTO  H206 4280   6.409   5.761   1.824
   11CHTO  C121 4281   6.162   6.062   1.984
   11CHTO  H225 4282   6.069   6.007   1.962
   11CHTO   O81 4283   6.158   6.094   2.124
   11CHTO  H202 4284   6.233   6.144   2.149
   11CHTO  C119 4285   6.166   6.190   1.894
   11CHTO  H223 4286   6.165   6.150   1.793
   11CHTO  C117 4287   6.302   6.268   1.911
   11CHTO  H221 4288   6.315   6.320   2.005
   11CHTO   N20 4289   6.314   6.376   1.807
   11CHTO  H209 4290   6.405   6.431   1.821
   11CHTO  H210 4291   6.229   6.443   1.814
   11CHTO   O80 4292   6.028   6.278   1.894
   11CHTO  C103 4293   5.969   6.341   2.031
   11CHTO  H190 4294   5.945   6.263   2.103
   11CHTO  C101 4295   6.057   6.451   2.103
   11CHTO  H188 4296   6.103   6.515   2.026
   11CHTO   O68 4297   6.168   6.382   2.180
   11CHTO  H168 4298   6.226   6.338   2.120
   11CHTO   C99 4299   5.972   6.543   2.202
   11CHTO  H186 4300   5.939   6.481   2.287
   11CHTO   N17 4301   6.052   6.657   2.260
   11CHTO  H174 4302   6.141   6.618   2.308
   11CHTO  H175 4303   5.991   6.712   2.331
   11CHTO   C97 4304   5.842   6.592   2.132
   11CHTO  H184 4305   5.871   6.656   2.047
   11CHTO   O64 4306   5.767   6.476   2.089
   11CHTO  C104 4307   5.832   6.404   1.983
   11CHTO  H191 4308   5.850   6.467   1.897
   11CHTO  C108 4309   5.739   6.291   1.935
   11CHTO   O71 4310   5.615   6.342   1.885
   11CHTO  H171 4311   5.629   6.387   1.804
   11CHTO   O62 4312   5.755   6.664   2.223
   11CHTO   C91 4313   5.641   6.735   2.170
   11CHTO  H178 4314   5.589   6.667   2.103
   11CHTO   C92 4315   5.686   6.859   2.083
   11CHTO  H179 4316   5.771   6.833   2.019
   11CHTO   O66 4317   5.579   6.892   1.992
   11CHTO  H166 4318   5.567   6.822   1.930
   11CHTO   C93 4319   5.715   6.989   2.168
   11CHTO  H180 4320   5.724   7.072   2.097
   11CHTO   N16 4321   5.846   6.986   2.237
   11CHTO  H172 4322   5.861   7.077   2.293
   11CHTO  H173 4323   5.925   6.972   2.166
   11CHTO   C94 4324   5.595   7.019   2.267
   11CHTO  H181 4325   5.628   7.024   2.372
   11CHTO   O61 4326   5.492   6.918   2.263
   11CHTO   C95 4327   5.542   6.784   2.285
   11CHTO  H182 4328   5.595   6.782   2.380
   11CHTO  C106 4329   5.418   6.689   2.301
   11CHTO   O69 4330   5.459   6.558   2.340
   11CHTO  H169 4331   5.505   6.516   2.269
   11CHTO   O63 4332   5.529   7.154   2.224
   11CHTO   C96 4333   5.553   7.272   2.325
   11CHTO  H183 4334   5.571   7.229   2.424
   11CHTO   C98 4335   5.431   7.368   2.337
   11CHTO  H185 4336   5.339   7.311   2.358
   11CHTO   O67 4337   5.452   7.452   2.452
   11CHTO  H167 4338   5.376   7.505   2.468
   11CHTO  C102 4339   5.413   7.461   2.207
   11CHTO  H189 4340   5.347   7.543   2.239
   11CHTO   N18 4341   5.343   7.397   2.093
   11CHTO  H176 4342   5.407   7.389   2.006
   11CHTO  H177 4343   5.307   7.299   2.120
   11CHTO  C105 4344   5.551   7.524   2.167
   11CHTO  H192 4345   5.580   7.490   2.067
   11CHTO   O65 4346   5.660   7.493   2.256
   11CHTO  C100 4347   5.683   7.353   2.280
   11CHTO  H187 4348   5.720   7.310   2.185
   11CHTO  C107 4349   5.799   7.339   2.382
   11CHTO   O70 4350   5.768   7.403   2.507
   11CHTO  H170 4351   5.700   7.357   2.551
   11CHTO   O57 4352   5.521   7.682   2.166
   11CHTO   C85 4353   5.570   7.778   2.071
   11CHTO  H157 4354   5.537   7.875   2.113
   11CHTO   C83 4355   5.497   7.766   1.933
   11CHTO  H155 4356   5.389   7.773   1.952
   11CHTO   O56 4357   5.520   7.637   1.873
   11CHTO  H135 4358   5.484   7.569   1.927
   11CHTO   C81 4359   5.540   7.886   1.845
   11CHTO  H153 4360   5.517   7.978   1.899
   11CHTO   N14 4361   5.460   7.898   1.720
   11CHTO  H141 4362   5.488   7.988   1.668
   11CHTO  H142 4363   5.356   7.902   1.743
   11CHTO   C79 4364   5.696   7.883   1.819
   11CHTO  H151 4365   5.723   7.977   1.771
   11CHTO   O52 4366   5.770   7.879   1.946
   11CHTO   C86 4367   5.726   7.776   2.042
   11CHTO  H158 4368   5.758   7.680   1.996
   11CHTO   C90 4369   5.809   7.790   2.173
   11CHTO   O60 4370   5.789   7.917   2.236
   11CHTO  H138 4371   5.702   7.922   2.271
   11CHTO   O50 4372   5.739   7.775   1.734
   11CHTO   C73 4373   5.842   7.766   1.634
   11CHTO  H145 4374   5.907   7.854   1.637
   11CHTO   C74 4375   5.780   7.756   1.491
   11CHTO  H146 4376   5.719   7.847   1.477
   11CHTO   O54 4377   5.886   7.762   1.394
   11CHTO  H133 4378   5.927   7.847   1.395
   11CHTO   C75 4379   5.693   7.625   1.483
   11CHTO  H147 4380   5.609   7.634   1.554
   11CHTO   N13 4381   5.630   7.603   1.350
   11CHTO  H139 4382   5.522   7.596   1.360
   11CHTO  H140 4383   5.666   7.513   1.303
   11CHTO   C76 4384   5.779   7.498   1.530
   11CHTO  H148 4385   5.853   7.476   1.453
   11CHTO   O49 4386   5.847   7.521   1.658
   11CHTO   C77 4387   5.929   7.639   1.661
   11CHTO  H149 4388   6.007   7.633   1.585
   11CHTO   C88 4389   6.001   7.646   1.796
   11CHTO   O58 4390   6.098   7.758   1.800
   11CHTO  H136 4391   6.141   7.759   1.883
   11CHTO   O51 4392   5.679   7.377   1.557
   11CHTO   C78 4393   5.750   7.244   1.584
   11CHTO  H150 4394   5.855   7.259   1.618
   11CHTO   C80 4395   5.750   7.156   1.458
   11CHTO  H152 4396   5.645   7.142   1.424
   11CHTO   O55 4397   5.822   7.228   1.356
   11CHTO  H134 4398   5.817   7.183   1.274
   11CHTO   C84 4399   5.816   7.016   1.487
   11CHTO  H156 4400   5.920   7.035   1.511
   11CHTO   N15 4401   5.815   6.924   1.368
   11CHTO  H143 4402   5.862   6.831   1.392
   11CHTO  H144 4403   5.714   6.905   1.338
   11CHTO   C87 4404   5.748   6.949   1.610
   11CHTO  H159 4405   5.647   6.917   1.582
   11CHTO   O53 4406   5.739   7.049   1.730
   11CHTO   C82 4407   5.675   7.173   1.698
   11CHTO  H154 4408   5.571   7.155   1.670
   11CHTO   C89 4409   5.673   7.261   1.825
   11CHTO   O59 4410   5.588   7.205   1.926
   11CHTO  H137 4411   5.627   7.127   1.961
   11CHTO   O45 4412   5.830   6.814   1.665
   11CHTO   C67 4413   5.971   6.829   1.691
   11CHTO  H124 4414   6.018   6.877   1.605
   11CHTO   C65 4415   6.001   6.915   1.819
   11CHTO  H122 4416   5.912   6.908   1.881
   11CHTO   O44 4417   6.016   7.051   1.775
   11CHTO  H102 4418   6.098   7.061   1.730
   11CHTO   C63 4419   6.117   6.855   1.908
   11CHTO  H120 4420   6.079   6.767   1.960
   11CHTO   N11 4421   6.163   6.940   2.022
   11CHTO  H108 4422   6.211   7.029   1.985
   11CHTO  H109 4423   6.231   6.886   2.084
   11CHTO   C61 4424   6.231   6.806   1.812
   11CHTO  H118 4425   6.309   6.761   1.876
   11CHTO   O40 4426   6.187   6.702   1.720
   11CHTO   C68 4427   6.042   6.687   1.700
   11CHTO  H125 4428   5.999   6.630   1.786
   11CHTO   C72 4429   6.016   6.603   1.573
   11CHTO   O48 4430   6.064   6.469   1.583
   11CHTO  H105 4431   6.158   6.468   1.585
   11CHTO   O38 4432   6.285   6.916   1.734
   11CHTO   C55 4433   6.426   6.910   1.706
   11CHTO  H112 4434   6.463   6.807   1.718
   11CHTO   C56 4435   6.503   7.012   1.799
   11CHTO  H113 4436   6.457   7.111   1.785
   11CHTO   O42 4437   6.483   6.977   1.937
   11CHTO  H100 4438   6.519   7.043   1.993
   11CHTO   C57 4439   6.657   7.016   1.764
   11CHTO  H114 4440   6.698   6.922   1.800
   11CHTO   N10 4441   6.732   7.125   1.833
   11CHTO  H106 4442   6.834   7.095   1.848
   11CHTO  H107 4443   6.687   7.146   1.929
   11CHTO   C58 4444   6.678   7.024   1.611
   11CHTO  H115 4445   6.657   7.127   1.575
   11CHTO   O37 4446   6.596   6.930   1.538
   11CHTO   C59 4447   6.455   6.947   1.558
   11CHTO  H116 4448   6.426   7.049   1.536
   11CHTO   C70 4449   6.385   6.853   1.459
   11CHTO   O46 4450   6.244   6.876   1.452
   11CHTO  H103 4451   6.205   6.816   1.390
   11CHTO   O39 4452   6.826   6.982   1.578
   11CHTO   C60 4453   6.880   7.042   1.459
   11CHTO  H117 4454   6.800   7.084   1.398
   11CHTO   C62 4455   6.978   7.158   1.496
   11CHTO  H119 4456   6.917   7.236   1.545
   11CHTO   O43 4457   7.076   7.110   1.590
   11CHTO  H101 4458   7.036   7.091   1.672
   11CHTO   C66 4459   7.044   7.218   1.362
   11CHTO  H123 4460   6.963   7.251   1.296
   11CHTO   N12 4461   7.127   7.338   1.389
   11CHTO  H110 4462   7.090   7.423   1.333
   11CHTO  H111 4463   7.231   7.320   1.366
   11CHTO   C69 4464   7.119   7.104   1.289
   11CHTO  H126 4465   7.198   7.063   1.355
   11CHTO   O41 4466   7.016   6.992   1.253
   11CHTO   C64 4467   6.949   6.932   1.374
   11CHTO  H121 4468   7.025   6.880   1.437
   11CHTO   C71 4469   6.844   6.827   1.329
   11CHTO   O47 4470   6.904   6.718   1.260
   11CHTO  H104 4471   6.938   6.747   1.177
   11CHTO   O34 4472   7.188   7.152   1.157
   11CHTO   C49 4473   7.305   7.076   1.090
   11CHTO   H91 4474   7.392   7.088   1.155
   11CHTO   C47 4475   7.331   7.141   0.952
   11CHTO   H89 4476   7.422   7.089   0.913
   11CHTO   O33 4477   7.363   7.281   0.967
   11CHTO   H70 4478   7.290   7.328   1.001
   11CHTO   C45 4479   7.204   7.121   0.854
   11CHTO   H87 4480   7.138   7.208   0.865
   11CHTO    N8 4481   7.252   7.117   0.713
   11CHTO   H75 4482   7.316   7.030   0.698
   11CHTO   H76 4483   7.307   7.207   0.690
   11CHTO   C43 4484   7.115   6.994   0.901
   11CHTO   H85 4485   7.050   7.032   0.980
   11CHTO   O29 4486   7.201   6.889   0.948
   11CHTO   C50 4487   7.277   6.924   1.066
   11CHTO   H92 4488   7.223   6.885   1.154
   11CHTO   C54 4489   7.409   6.844   1.067
   11CHTO   O36 4490   7.387   6.702   1.072
   11CHTO   H72 4491   7.351   6.679   1.155
   11CHTO   O27 4492   7.023   6.948   0.800
   11CHTO   C37 4493   6.921   6.850   0.780
   11CHTO   H79 4494   6.946   6.757   0.835
   11CHTO   C38 4495   6.783   6.898   0.834
   11CHTO   H80 4496   6.764   6.999   0.793
   11CHTO   O31 4497   6.794   6.908   0.977
   11CHTO   H68 4498   6.715   6.944   1.013
   11CHTO   C39 4499   6.666   6.801   0.791
   11CHTO   H81 4500   6.681   6.707   0.846
   11CHTO    N7 4501   6.530   6.853   0.827
   11CHTO   H73 4502   6.524   6.868   0.933
   11CHTO   H74 4503   6.454   6.782   0.796
   11CHTO   C40 4504   6.676   6.766   0.637
   11CHTO   H82 4505   6.649   6.853   0.578
   11CHTO   O26 4506   6.807   6.718   0.605
   11CHTO   C41 4507   6.911   6.817   0.629
   11CHTO   H83 4508   6.887   6.910   0.574
   11CHTO   C52 4509   7.045   6.765   0.571
   11CHTO   O35 4510   7.093   6.648   0.639
   11CHTO   H71 4511   7.172   6.619   0.598
   11CHTO   O28 4512   6.588   6.657   0.602
   11CHTO   C42 4513   6.544   6.635   0.464
   11CHTO   H84 4514   6.626   6.673   0.402
   11CHTO   C44 4515   6.416   6.713   0.420
   11CHTO   H86 4516   6.337   6.691   0.491
   11CHTO   O32 4517   6.444   6.854   0.430
   11CHTO   H69 4518   6.511   6.879   0.369
   11CHTO   C48 4519   6.364   6.673   0.275
   11CHTO   H90 4520   6.437   6.710   0.202
   11CHTO    N9 4521   6.234   6.740   0.241
   11CHTO   H77 4522   6.246   6.847   0.245
   11CHTO   H78 4523   6.202   6.709   0.143
   11CHTO   C51 4524   6.357   6.516   0.263
   11CHTO   H93 4525   6.283   6.479   0.335
   11CHTO   O30 4526   6.488   6.464   0.289
   11CHTO   C46 4527   6.530   6.483   0.433
   11CHTO   H88 4528   6.454   6.440   0.498
   11CHTO   C53 4529   6.664   6.409   0.454
   11CHTO   O72 4530   6.647   6.267   0.441
   11CHTO  H199 4531   6.628   6.246   0.352
   11CHTO   O22 4532   6.326   6.469   0.130
   11CHTO   C31 4533   6.206   6.388   0.099
   11CHTO   H59 4534   6.135   6.403   0.184
   11CHTO   C29 4535   6.133   6.433   8.159
   11CHTO   H57 4536   6.205   6.422   8.076
   11CHTO   O21 4537   6.103   6.573   8.170
   11CHTO   H37 4538   6.071   6.606   8.088
   11CHTO   C27 4539   6.005   6.346   8.127
   11CHTO   H55 4540   5.928   6.369   0.015
   11CHTO    N5 4541   5.947   6.376   7.993
   11CHTO   H43 4542   5.922   6.480   7.986
   11CHTO   H44 4543   6.019   6.350   7.916
   11CHTO   C25 4544   6.037   6.193   8.142
   11CHTO   H53 4545   6.103   6.162   8.059
   11CHTO   O17 4546   6.106   6.166   0.079
   11CHTO   C32 4547   6.232   6.234   0.090
   11CHTO   H60 4548   6.293   6.213   0.002
   11CHTO   C36 4549   6.302   6.174   0.215
   11CHTO   O25 4550   6.443   6.197   0.208
   11CHTO   H40 4551   6.485   6.158   0.283
   11CHTO   O15 4552   5.902   6.106   8.137
   11CHTO   C19 4553   5.858   5.968   8.119
   11CHTO   H47 4554   5.940   5.908   8.161
   11CHTO   C20 4555   5.726   5.933   0.007
   11CHTO   H48 4556   5.642   5.997   8.164
   11CHTO   O19 4557   5.750   5.959   0.147
   11CHTO   H35 4558   5.817   5.902   0.181
   11CHTO   C21 4559   5.683   5.782   8.173
   11CHTO   H49 4560   5.758   5.717   0.031
   11CHTO    N4 4561   5.553   5.748   0.048
   11CHTO   H41 4562   5.529   5.644   0.030
   11CHTO   H42 4563   5.558   5.765   0.154
   11CHTO   C22 4564   5.684   5.749   8.021
   11CHTO   H50 4565   5.603   5.803   7.972
   11CHTO   O14 4566   5.810   5.787   7.962
   11CHTO   C23 4567   5.844   5.926   7.970
   11CHTO   H51 4568   5.765   5.983   7.919
   11CHTO   C34 4569   5.975   5.947   7.895
   11CHTO   O23 4570   5.963   5.914   7.756
   11CHTO   H38 4571   5.953   5.821   7.746
   11CHTO   O16 4572   5.675   5.607   7.996
   11CHTO   C24 4573   5.626   5.567   7.847
   11CHTO   H52 4574   5.617   5.654   7.782
   11CHTO   C26 4575   5.490   5.495   7.858
   11CHTO   H54 4576   5.499   5.412   7.932
   11CHTO   O20 4577   5.394   5.590   7.909
   11CHTO   H36 4578   5.312   5.547   7.925
   11CHTO   C30 4579   5.445   5.434   7.721
   11CHTO   H58 4580   5.419   5.516   7.651
   11CHTO    N6 4581   5.322   5.352   7.736
   11CHTO   H45 4582   5.241   5.413   7.775
   11CHTO   H46 4583   5.292   5.312   7.640
   11CHTO   C33 4584   5.561   5.354   7.655
   11CHTO   H61 4585   5.581   5.265   7.717
   11CHTO   O18 4586   5.680   5.434   7.653
   11CHTO   C28 4587   5.730   5.472   7.782
   11CHTO   H56 4588   5.742   5.384   7.845
   11CHTO   C35 4589   5.869   5.538   7.763
   11CHTO   O24 4590   5.868   5.649   7.672
   11CHTO   H39 4591   5.818   5.720   7.708
   11CHTO    O9 4592   5.532   5.301   7.523
   11CHTO   C13 4593   5.456   5.394   7.405
   11CHTO   H26 4594   5.362   5.434   7.449
   11CHTO   C11 4595   5.426   5.299   7.282
   11CHTO   H24 4596   5.357   5.221   7.316
   11CHTO    O8 4597   5.547   5.233   7.239
   11CHTO    H3 4598   5.527   5.171   7.172
   11CHTO    C9 4599   5.356   5.383   7.172
   11CHTO   H22 4600   5.267   5.426   7.220
   11CHTO    N2 4601   5.303   5.302   7.059
   11CHTO   H10 4602   5.238   5.224   7.097
   11CHTO   H11 4603   5.248   5.365   6.991
   11CHTO    C7 4604   5.450   5.500   7.126
   11CHTO   H20 4605   5.385   5.561   7.060
   11CHTO    O4 4606   5.493   5.582   7.237
   11CHTO   C14 4607   5.540   5.522   7.359
   11CHTO   H27 4608   5.525   5.598   7.438
   11CHTO   C18 4609   5.692   5.499   7.347
   11CHTO   O13 4610   5.759   5.625   7.340
   11CHTO    H7 4611   5.756   5.668   7.424
   11CHTO    O2 4612   5.583   5.447   7.040
   11CHTO    C1 4613   5.660   5.547   6.970
   11CHTO   H14 4614   5.697   5.622   7.042
   11CHTO    C2 4615   5.583   5.622   6.852
   11CHTO   H15 4616   5.530   5.543   6.796
   11CHTO    O6 4617   5.486   5.712   6.909
   11CHTO    H1 4618   5.432   5.748   6.841
   11CHTO    C3 4619   5.682   5.703   6.755
   11CHTO   H16 4620   5.716   5.794   6.809
   11CHTO    N1 4621   5.612   5.750   6.631
   11CHTO    H8 4622   5.573   5.665   6.576
   11CHTO    H9 4623   5.532   5.817   6.656
   11CHTO    C4 4624   5.812   5.622   6.723
   11CHTO   H17 4625   5.788   5.542   6.653
   11CHTO    O1 4626   5.871   5.569   6.843
   11CHTO    C5 4627   5.786   5.476   6.912
   11CHTO   H18 4628   5.752   5.399   6.842
   11CHTO   C16 4629   5.871   5.408   7.022
   11CHTO   O11 4630   5.979   5.332   6.967
   11CHTO    H5 4631   5.946   5.257   6.922
   11CHTO    O3 4632   5.915   5.707   6.667
   11CHTO    C6 4633   6.003   5.644   6.568
   11CHTO   H19 4634   5.994   5.536   6.567
   11CHTO    C8 4635   5.970   5.696   6.424
   11CHTO   H21 4636   5.968   5.805   6.427
   11CHTO    O7 4637   5.839   5.646   6.390
   11CHTO    H2 4638   5.773   5.689   6.442
   11CHTO   C12 4639   6.078   5.650   6.319
   11CHTO   H25 4640   6.067   5.540   6.308
   11CHTO    N3 4641   6.053   5.710   6.183
   11CHTO   H12 4642   6.126   5.674   6.113
   11CHTO   H13 4643   6.056   5.818   6.190
   11CHTO   C15 4644   6.223   5.679   6.373
   11CHTO   H28 4645   6.245   5.786   6.376
   11CHTO   O10 4646   6.333   5.606   6.294
   11CHTO    H4 4647   6.337   5.641   6.206
   11CHTO    O5 4648   6.240   5.622   6.504
   11CHTO   C10 4649   6.151   5.677   6.603
   11CHTO   H23 4650   6.165   5.785   6.605
   11CHTO   C17 4651   6.193   5.623   6.740
   11CHTO   O12 4652   6.178   5.481   6.749
   11CHTO    H6 4653   6.087   5.458   6.749
   12CHTO  H203 4654   5.883   2.545   6.382
   12CHTO   O82 4655   5.896   2.550   6.475
   12CHTO  C123 4656   5.824   2.444   6.540
   12CHTO  H227 4657   5.721   2.441   6.499
   12CHTO   O77 4658   5.896   2.323   6.502
   12CHTO  C118 4659   5.837   2.202   6.550
   12CHTO  H222 4660   5.732   2.197   6.515
   12CHTO  C125 4661   5.915   2.079   6.489
   12CHTO   O84 4662   6.051   2.074   6.532
   12CHTO  H205 4663   6.094   2.000   6.494
   12CHTO  C114 4664   5.838   2.202   6.704
   12CHTO  H218 4665   5.942   2.209   6.738
   12CHTO  C116 4666   5.763   2.326   6.760
   12CHTO  H220 4667   5.654   2.318   6.735
   12CHTO   O79 4668   5.772   2.326   6.904
   12CHTO  H201 4669   5.725   2.252   6.939
   12CHTO  C120 4670   5.822   2.459   6.697
   12CHTO  H224 4671   5.927   2.468   6.735
   12CHTO   N21 4672   5.748   2.579   6.743
   12CHTO  H211 4673   5.791   2.616   6.835
   12CHTO  H212 4674   5.750   2.656   6.667
   12CHTO   O75 4675   5.780   2.076   6.742
   12CHTO  C112 4676   5.850   2.008   6.873
   12CHTO  H216 4677   5.839   2.075   6.959
   12CHTO   O73 4678   5.988   1.984   6.841
   12CHTO  C113 4679   6.064   1.919   6.944
   12CHTO  H217 4680   6.057   1.979   7.038
   12CHTO  C124 4681   6.212   1.920   6.903
   12CHTO   O83 4682   6.236   1.853   6.778
   12CHTO  H204 4683   6.328   1.856   6.758
   12CHTO  C109 4684   6.006   1.777   6.968
   12CHTO  H213 4685   6.012   1.723   6.872
   12CHTO  C110 4686   5.858   1.791   7.012
   12CHTO  H214 4687   5.855   1.844   7.108
   12CHTO   O78 4688   5.802   1.660   7.033
   12CHTO  H200 4689   5.715   1.667   7.068
   12CHTO  C111 4690   5.777   1.871   6.905
   12CHTO  H215 4691   5.776   1.812   6.812
   12CHTO   N19 4692   5.635   1.896   6.941
   12CHTO  H207 4693   5.569   1.852   6.868
   12CHTO  H208 4694   5.612   1.856   7.039
   12CHTO   O74 4695   6.084   1.703   7.069
   12CHTO  C115 4696   6.175   1.583   7.006
   12CHTO  H219 4697   6.222   1.613   6.912
   12CHTO   O76 4698   6.294   1.546   7.100
   12CHTO  C122 4699   6.251   1.508   7.231
   12CHTO  H226 4700   6.218   1.599   7.282
   12CHTO  C126 4701   6.377   1.458   7.310
   12CHTO   O85 4702   6.349   1.429   7.447
   12CHTO  H206 4703   6.330   1.508   7.494
   12CHTO  C121 4704   6.134   1.399   7.229
   12CHTO  H225 4705   6.163   1.315   7.295
   12CHTO   O81 4706   6.015   1.455   7.285
   12CHTO  H202 4707   5.984   1.526   7.232
   12CHTO  C119 4708   6.109   1.343   7.086
   12CHTO  H223 4709   6.202   1.293   7.058
   12CHTO  C117 4710   6.081   1.457   6.981
   12CHTO  H221 4711   5.980   1.497   6.985
   12CHTO   N20 4712   6.095   1.405   6.841
   12CHTO  H209 4713   6.029   1.321   6.826
   12CHTO  H210 4714   6.070   1.483   6.770
   12CHTO   O80 4715   6.005   1.222   7.082
   12CHTO  C103 4716   6.043   1.085   7.145
   12CHTO  H190 4717   6.149   1.084   7.173
   12CHTO  C101 4718   5.958   1.041   7.270
   12CHTO  H188 4719   5.852   1.043   7.243
   12CHTO   O68 4720   5.981   1.142   7.385
   12CHTO  H168 4721   5.926   1.121   7.457
   12CHTO   C99 4722   5.996   0.891   7.312
   12CHTO  H186 4723   6.103   0.888   7.342
   12CHTO   N17 4724   5.918   0.838   7.428
   12CHTO  H174 4725   5.955   0.740   7.457
   12CHTO  H175 4726   5.813   0.833   7.403
   12CHTO   C97 4727   5.985   0.796   7.188
   12CHTO  H184 4728   5.879   0.780   7.163
   12CHTO   O64 4729   6.060   0.848   7.077
   12CHTO  C104 4730   6.024   0.979   7.031
   12CHTO  H191 4731   5.920   0.982   6.997
   12CHTO  C108 4732   6.110   1.012   6.908
   12CHTO   O71 4733   6.086   0.921   6.800
   12CHTO  H171 4734   6.000   0.934   6.766
   12CHTO   O62 4735   6.055   0.672   7.207
   12CHTO   C91 4736   5.981   0.549   7.218
   12CHTO  H178 4737   5.885   0.569   7.265
   12CHTO   C92 4738   6.062   0.459   7.316
   12CHTO  H179 4739   6.167   0.459   7.282
   12CHTO   O66 4740   6.064   0.523   7.445
   12CHTO  H166 4741   5.978   0.529   7.481
   12CHTO   C93 4742   6.008   0.310   7.331
   12CHTO  H180 4743   5.926   0.311   7.404
   12CHTO   N16 4744   6.113   0.223   7.391
   12CHTO  H172 4745   6.200   0.220   7.326
   12CHTO  H173 4746   6.074   0.124   7.407
   12CHTO   C94 4747   5.954   0.248   7.195
   12CHTO  H181 4748   6.035   0.207   7.134
   12CHTO   O61 4749   5.887   0.346   7.114
   12CHTO   C95 4750   5.961   0.466   7.086
   12CHTO  H182 4751   6.058   0.439   7.044
   12CHTO  C106 4752   5.884   0.546   6.974
   12CHTO   O69 4753   5.753   0.583   7.016
   12CHTO  H169 4754   5.709   0.630   6.947
   12CHTO   O63 4755   5.835   0.130   7.222
   12CHTO   C96 4756   5.869   0.001   7.314
   12CHTO  H183 4757   5.916   0.036   7.406
   12CHTO   C98 4758   5.960   9.891   7.253
   12CHTO  H185 4759   5.911   9.848   7.164
   12CHTO   O67 4760   6.081   9.951   7.205
   12CHTO  H167 4761   6.130   9.988   7.276
   12CHTO  C102 4762   5.991   9.776   7.361
   12CHTO  H189 4763   6.056   9.824   7.436
   12CHTO   N18 4764   6.068   9.660   7.310
   12CHTO  H176 4765   6.164   9.692   7.273
   12CHTO  H177 4766   6.013   9.612   7.230
   12CHTO  C105 4767   5.860   9.731   7.434
   12CHTO  H192 4768   5.809   9.655   7.374
   12CHTO   O65 4769   5.765   9.836   7.463
   12CHTO  C100 4770   5.736   9.929   7.358
   12CHTO  H187 4771   5.694   9.875   7.272
   12CHTO  C107 4772   5.630   0.030   7.408
   12CHTO   O70 4773   5.507   9.964   7.439
   12CHTO  H170 4774   5.443   0.027   7.465
   12CHTO   O57 4775   5.911   9.670   7.576
   12CHTO   C85 4776   5.872   9.540   7.621
   12CHTO  H157 4777   5.912   9.469   7.545
   12CHTO   C83 4778   5.717   9.521   7.618
   12CHTO  H155 4779   5.684   9.529   7.514
   12CHTO   O56 4780   5.655   9.631   7.688
   12CHTO  H135 4781   5.561   9.626   7.679
   12CHTO   C81 4782   5.681   9.380   7.672
   12CHTO  H153 4783   5.734   9.306   7.611
   12CHTO   N14 4784   5.537   9.346   7.655
   12CHTO  H141 4785   5.509   9.355   7.552
   12CHTO  H142 4786   5.520   9.245   7.687
   12CHTO   C79 4787   5.731   9.366   7.820
   12CHTO  H151 4788   5.709   9.264   7.852
   12CHTO   O52 4789   5.876   9.382   7.826
   12CHTO   C86 4790   5.925   9.507   7.767
   12CHTO  H158 4791   5.893   9.585   7.839
   12CHTO   C90 4792   6.080   9.508   7.770
   12CHTO   O60 4793   6.137   9.402   7.692
   12CHTO  H138 4794   6.120   9.320   7.733
   12CHTO   O50 4795   5.668   9.458   7.912
   12CHTO   C73 4796   5.588   9.481   8.028
   12CHTO  H145 4797   5.496   9.421   8.023
   12CHTO   C74 4798   5.550   9.632   8.039
   12CHTO  H146 4799   5.499   9.659   7.946
   12CHTO   O54 4800   5.453   9.644   8.145
   12CHTO  H133 4801   5.423   9.733   8.151
   12CHTO   C75 4802   5.681   9.718   8.062
   12CHTO  H147 4803   5.743   9.710   7.972
   12CHTO   N13 4804   5.656   9.863   8.079
   12CHTO  H139 4805   5.591   9.879   8.165
   12CHTO  H140 4806   5.607   9.903   7.992
   12CHTO   C76 4807   5.767   9.658   8.183
   12CHTO  H148 4808   5.711   9.674   0.087
   12CHTO   O49 4809   5.790   9.514   8.165
   12CHTO   C77 4810   5.667   9.439   8.156
   12CHTO  H149 4811   5.605   9.460   0.055
   12CHTO   C88 4812   5.699   9.289   8.162
   12CHTO   O58 4813   5.575   9.207   8.162
   12CHTO  H136 4814   5.530   9.217   8.080
   12CHTO   O51 4815   5.912   9.730   8.187
   12CHTO   C78 4816   6.032   9.657   0.071
   12CHTO  H150 4817   6.042   9.552   0.033
   12CHTO   C80 4818   6.014   9.653   0.224
   12CHTO  H152 4819   5.990   9.756   0.259
   12CHTO   O55 4820   5.901   9.569   0.255
   12CHTO  H134 4821   5.917   9.481   0.228
   12CHTO   C84 4822   6.145   9.602   0.298
   12CHTO  H156 4823   6.157   9.497   0.274
   12CHTO   N15 4824   6.134   9.611   0.448
   12CHTO  H143 4825   6.054   9.550   0.482
   12CHTO  H144 4826   6.116   9.713   0.477
   12CHTO   C87 4827   6.269   9.679   0.245
   12CHTO  H159 4828   6.262   9.784   0.275
   12CHTO   O53 4829   6.273   9.668   0.093
   12CHTO   C82 4830   6.160   9.731   0.032
   12CHTO  H154 4831   6.155   9.836   0.062
   12CHTO   C89 4832   6.180   9.730   8.067
   12CHTO   O59 4833   6.294   9.809   8.029
   12CHTO  H137 4834   6.302   9.809   7.936
   12CHTO   O45 4835   6.410   9.619   0.303
   12CHTO   C67 4836   6.450   9.492   0.250
   12CHTO  H124 4837   6.365   9.438   0.209
   12CHTO   C65 4838   6.557   9.512   0.138
   12CHTO  H122 4839   6.517   9.588   0.071
   12CHTO   O44 4840   6.574   9.390   0.064
   12CHTO  H102 4841   6.613   9.324   0.118
   12CHTO   C63 4842   6.687   9.574   0.201
   12CHTO  H120 4843   6.659   9.666   0.253
   12CHTO   N11 4844   6.788   9.625   0.103
   12CHTO  H108 4845   6.865   9.679   0.154
   12CHTO  H109 4846   6.741   9.689   0.032
   12CHTO   C61 4847   6.745   9.477   0.311
   12CHTO  H118 4848   6.818   9.537   0.366
   12CHTO   O40 4849   6.644   9.435   0.409
   12CHTO   C68 4850   6.507   9.404   0.368
   12CHTO  H125 4851   6.443   9.425   0.456
   12CHTO   C72 4852   6.492   9.253   0.338
   12CHTO   O48 4853   6.511   9.174   0.456
   12CHTO  H105 4854   6.600   9.180   0.485
   12CHTO   O38 4855   6.809   9.359   0.255
   12CHTO   C55 4856   6.923   9.305   0.327
   12CHTO  H112 4857   6.901   9.306   0.434
   12CHTO   C56 4858   7.058   9.383   0.292
   12CHTO  H113 4859   7.064   9.389   0.183
   12CHTO   O42 4860   7.051   9.519   0.339
   12CHTO  H100 4861   6.984   9.566   0.293
   12CHTO   C57 4862   7.185   9.311   0.353
   12CHTO  H114 4863   7.180   9.325   0.461
   12CHTO   N10 4864   7.314   9.369   0.307
   12CHTO  H106 4865   7.304   9.409   0.207
   12CHTO  H107 4866   7.344   9.448   0.374
   12CHTO   C58 4867   7.182   9.159   0.323
   12CHTO  H115 4868   7.202   9.141   0.215
   12CHTO   O37 4869   7.056   9.100   0.359
   12CHTO   C59 4870   6.943   9.155   0.288
   12CHTO  H116 4871   6.959   9.145   0.181
   12CHTO   C70 4872   6.821   9.068   0.323
   12CHTO   O46 4873   6.794   9.058   0.463
   12CHTO  H103 4874   6.862   9.009   0.505
   12CHTO   O39 4875   7.292   9.080   0.415
   12CHTO   C60 4876   7.361   8.972   0.350
   12CHTO  H117 4877   7.290   8.913   0.292
   12CHTO   C62 4878   7.471   9.025   0.253
   12CHTO  H119 4879   7.419   9.082   0.174
   12CHTO   O43 4880   7.557   9.115   0.326
   12CHTO  H101 4881   7.620   9.154   0.268
   12CHTO   C66 4882   7.551   8.902   0.187
   12CHTO  H123 4883   7.480   8.838   0.136
   12CHTO   N12 4884   7.647   8.947   0.083
   12CHTO  H110 4885   7.699   8.862   0.041
   12CHTO  H111 4886   7.594   9.002   0.006
   12CHTO   C69 4887   7.617   8.817   0.299
   12CHTO  H126 4888   7.690   8.879   0.356
   12CHTO   O41 4889   7.505   8.766   0.395
   12CHTO   C64 4890   7.421   8.878   0.458
   12CHTO  H121 4891   7.485   8.938   0.526
   12CHTO   C71 4892   7.309   8.814   0.542
   12CHTO   O47 4893   7.364   8.741   0.652
   12CHTO  H104 4894   7.294   8.703   0.703
   12CHTO   O34 4895   7.691   8.695   0.242
   12CHTO   C49 4896   7.801   8.596   0.264
   12CHTO   H91 4897   7.895   8.650   0.251
   12CHTO   C47 4898   7.787   8.486   0.157
   12CHTO   H89 4899   7.878   8.422   0.171
   12CHTO   O33 4900   7.793   8.543   0.025
   12CHTO   H70 4901   7.798   8.475   8.149
   12CHTO   C45 4902   7.650   8.401   0.177
   12CHTO   H87 4903   7.573   8.446   0.114
   12CHTO    N8 4904   7.674   8.262   0.130
   12CHTO   H75 4905   7.649   8.191   0.206
   12CHTO   H76 4906   7.616   8.243   0.041
   12CHTO   C43 4907   7.595   8.417   0.329
   12CHTO   H85 4908   7.540   8.511   0.329
   12CHTO   O29 4909   7.704   8.418   0.422
   12CHTO   C50 4910   7.797   8.527   0.404
   12CHTO   H92 4911   7.776   8.604   0.480
   12CHTO   C54 4912   7.939   8.477   0.442
   12CHTO   O36 4913   7.946   8.429   0.577
   12CHTO   H72 4914   8.033   8.400   0.595
   12CHTO   O27 4915   7.496   8.319   0.364
   12CHTO   C37 4916   7.372   8.313   0.438
   12CHTO   H79 4917   7.340   8.208   0.447
   12CHTO   C38 4918   7.389   8.369   0.583
   12CHTO   H80 4919   7.430   8.471   0.576
   12CHTO   O31 4920   7.484   8.285   0.651
   12CHTO   H68 4921   7.569   8.295   0.614
   12CHTO   C39 4922   7.250   8.373   0.659
   12CHTO   H81 4923   7.217   8.270   0.672
   12CHTO    N7 4924   7.259   8.434   0.796
   12CHTO   H73 4925   7.292   8.536   0.789
   12CHTO   H74 4926   7.162   8.429   0.845
   12CHTO   C40 4927   7.141   8.445   0.570
   12CHTO   H82 4928   7.162   8.552   0.565
   12CHTO   O26 4929   7.138   8.385   0.440
   12CHTO   C41 4930   7.261   8.394   0.364
   12CHTO   H83 4931   7.292   8.499   0.354
   12CHTO   C52 4932   7.227   8.339   0.224
   12CHTO   O35 4933   7.330   8.349   0.130
   12CHTO   H71 4934   7.347   8.439   0.110
   12CHTO   O28 4935   7.006   8.428   0.622
   12CHTO   C42 4936   6.888   8.493   0.564
   12CHTO   H84 4937   6.808   8.462   0.633
   12CHTO   C44 4938   6.843   8.442   0.423
   12CHTO   H86 4939   6.928   8.451   0.354
   12CHTO   O32 4940   6.813   8.302   0.436
   12CHTO   H69 4941   6.738   8.289   0.491
   12CHTO   C48 4942   6.723   8.524   0.359
   12CHTO   H90 4943   6.633   8.505   0.417
   12CHTO    N9 4944   6.694   8.478   0.218
   12CHTO   H77 4945   6.612   8.536   0.177
   12CHTO   H78 4946   6.669   8.373   0.218
   12CHTO   C51 4947   6.759   8.677   0.367
   12CHTO   H93 4948   6.853   8.690   0.314
   12CHTO   O30 4949   6.771   8.710   0.506
   12CHTO   C46 4950   6.894   8.649   0.570
   12CHTO   H88 4951   6.983   8.685   0.517
   12CHTO   C53 4952   6.895   8.700   0.716
   12CHTO   O72 4953   7.022   8.679   0.779
   12CHTO  H199 4954   7.019   8.710   0.867
   12CHTO   O22 4955   6.662   8.768   0.312
   12CHTO   C31 4956   6.514   8.771   0.323
   12CHTO   H59 4957   6.480   8.666   0.313
   12CHTO   C29 4958   6.459   8.825   0.457
   12CHTO   H57 4959   6.510   8.920   0.477
   12CHTO   O21 4960   6.497   8.735   0.563
   12CHTO   H37 4961   6.591   8.734   0.572
   12CHTO   C27 4962   6.302   8.850   0.456
   12CHTO   H55 4963   6.251   8.752   0.450
   12CHTO    N5 4964   6.251   8.922   0.576
   12CHTO   H43 4965   6.183   8.859   0.631
   12CHTO   H44 4966   6.333   8.953   0.639
   12CHTO   C25 4967   6.265   8.928   0.325
   12CHTO   H53 4968   6.316   9.026   0.326
   12CHTO   O17 4969   6.311   8.851   0.211
   12CHTO   C32 4970   6.453   8.848   0.202
   12CHTO   H60 4971   6.493   8.949   0.201
   12CHTO   C36 4972   6.489   8.781   0.067
   12CHTO   O25 4973   6.441   8.858   8.145
   12CHTO   H40 4974   6.466   8.817   8.065
   12CHTO   O15 4975   6.109   8.955   0.306
   12CHTO   C19 4976   6.055   9.010   0.182
   12CHTO   H47 4977   5.955   9.046   0.211
   12CHTO   C20 4978   6.134   9.131   0.122
   12CHTO   H48 4979   6.239   9.104   0.100
   12CHTO   O19 4980   6.136   9.234   0.223
   12CHTO   H35 4981   6.190   9.208   0.295
   12CHTO   C21 4982   6.069   9.186   8.177
   12CHTO   H49 4983   5.973   9.231   0.013
   12CHTO    N4 4984   6.151   9.292   8.112
   12CHTO   H41 4985   6.182   9.262   8.013
   12CHTO   H42 4986   6.094   9.384   8.105
   12CHTO   C22 4987   6.038   9.067   8.081
   12CHTO   H50 4988   6.132   9.027   8.042
   12CHTO   O14 4989   5.965   8.963   8.148
   12CHTO   C23 4990   6.033   8.904   0.071
   12CHTO   H51 4991   6.129   8.864   0.033
   12CHTO   C34 4992   5.952   8.784   0.120
   12CHTO   O23 4993   5.818   8.821   0.154
   12CHTO   H38 4994   5.771   8.745   0.185
   12CHTO   O16 4995   5.951   9.106   7.973
   12CHTO   C24 4996   5.953   9.002   7.847
   12CHTO   H52 4997   6.010   8.911   7.871
   12CHTO   C26 4998   6.016   9.072   7.725
   12CHTO   H54 4999   5.957   9.164   7.704
   12CHTO   O20 5000   6.150   9.110   7.759
   12CHTO   H36 5001   6.150   9.179   7.823
   12CHTO   C30 5002   6.012   8.981   7.599
   12CHTO   H58 5003   6.082   8.897   7.613
   12CHTO    N6 5004   6.057   9.053   7.476
   12CHTO   H45 5005   6.084   9.155   7.498
   12CHTO   H46 5006   6.142   9.002   7.432
   12CHTO   C33 5007   5.870   8.917   7.578
   12CHTO   H61 5008   5.800   8.995   7.544
   12CHTO   O18 5009   5.820   8.863   7.702
   12CHTO   C28 5010   5.810   8.956   7.811
   12CHTO   H56 5011   5.751   9.043   7.782
   12CHTO   C35 5012   5.741   8.886   7.931
   12CHTO   O24 5013   5.607   8.846   7.901
   12CHTO   H39 5014   5.569   8.803   7.975
   12CHTO    O9 5015   5.870   8.817   7.473
   12CHTO   C13 5016   5.947   8.678   7.513
   12CHTO   H26 5017   5.999   8.694   7.609
   12CHTO   C11 5018   6.047   8.638   7.398
   12CHTO   H24 5019   6.122   8.718   7.390
   12CHTO    O8 5020   5.980   8.629   7.271
   12CHTO    H3 5021   6.042   8.614   7.202
   12CHTO    C9 5022   6.119   8.508   7.442
   12CHTO   H22 5023   6.166   8.532   7.539
   12CHTO    N2 5024   6.233   8.470   7.355
   12CHTO   H10 5025   6.236   8.530   7.266
   12CHTO   H11 5026   6.229   8.365   7.329
   12CHTO    C7 5027   6.013   8.393   7.467
   12CHTO   H20 5028   6.072   8.316   7.522
   12CHTO    O4 5029   5.903   8.432   7.551
   12CHTO   C14 5030   5.842   8.562   7.541
   12CHTO   H27 5031   5.798   8.583   7.641
   12CHTO   C18 5032   5.725   8.559   7.440
   12CHTO   O13 5033   5.621   8.472   7.486
   12CHTO    H7 5034   5.551   8.471   7.424
   12CHTO    O2 5035   5.954   8.327   7.327
   12CHTO    C1 5036   5.947   8.183   7.327
   12CHTO   H14 5037   5.913   8.148   7.427
   12CHTO    C2 5038   6.085   8.111   7.293
   12CHTO   H15 5039   6.122   8.157   7.200
   12CHTO    O6 5040   6.179   8.137   7.399
   12CHTO    H1 5041   6.264   8.105   7.375
   12CHTO    C3 5042   6.065   7.953   7.273
   12CHTO   H16 5043   6.036   7.910   7.370
   12CHTO    N1 5044   6.192   7.883   7.230
   12CHTO    H8 5045   6.273   7.954   7.219
   12CHTO    H9 5046   6.219   7.807   7.301
   12CHTO    C4 5047   5.945   7.925   7.176
   12CHTO   H17 5048   5.972   7.957   7.075
   12CHTO    O1 5049   5.827   7.994   7.221
   12CHTO    C5 5050   5.839   8.137   7.225
   12CHTO   H18 5051   5.868   8.174   7.126
   12CHTO   C16 5052   5.700   8.195   7.260
   12CHTO   O11 5053   5.603   8.164   7.160
   12CHTO    H5 5054   5.622   8.212   7.081
   12CHTO    O3 5055   5.907   7.785   7.178
   12CHTO    C6 5056   5.871   7.724   7.049
   12CHTO   H19 5057   5.851   7.798   6.971
   12CHTO    C8 5058   5.986   7.631   7.000
   12CHTO   H21 5059   6.020   7.570   7.084
   12CHTO    O7 5060   6.094   7.717   6.958
   12CHTO    H2 5061   6.169   7.666   6.936
   12CHTO   C12 5062   5.940   7.536   6.882
   12CHTO   H25 5063   5.924   7.601   6.793
   12CHTO    N3 5064   6.048   7.438   6.845
   12CHTO   H12 5065   6.137   7.492   6.813
   12CHTO   H13 5066   6.014   7.374   6.766
   12CHTO   C15 5067   5.804   7.467   6.919
   12CHTO   H28 5068   5.816   7.397   7.002
   12CHTO   O10 5069   5.738   7.394   6.798
   12CHTO    H4 5070   5.664   7.344   6.827
   12CHTO    O5 5071   5.706   7.566   6.952
   12CHTO   C10 5072   5.739   7.643   7.069
   12CHTO   H23 5073   5.751   7.574   7.152
   12CHTO   C17 5074   5.619   7.733   7.101
   12CHTO   O12 5075   5.589   7.826   6.996
   12CHTO    H6 5076   5.514   7.877   7.019
   13CHTO  H203 5077   7.116   5.161   3.245
   13CHTO   O82 5078   7.140   5.246   3.214
   13CHTO  C123 5079   7.029   5.337   3.229
   13CHTO  H227 5080   7.001   5.342   3.335
   13CHTO   O77 5081   7.085   5.465   3.186
   13CHTO  C118 5082   6.994   5.576   3.195
   13CHTO  H222 5083   6.956   5.583   3.298
   13CHTO  C125 5084   7.074   5.706   3.161
   13CHTO   O84 5085   7.174   5.732   3.260
   13CHTO  H205 5086   7.221   5.810   3.237
   13CHTO  C114 5087   6.877   5.552   3.097
   13CHTO  H218 5088   6.919   5.536   2.998
   13CHTO  C116 5089   6.804   5.420   3.134
   13CHTO  H220 5090   6.754   5.431   3.234
   13CHTO   O79 5091   6.700   5.399   3.037
   13CHTO  H201 5092   6.648   5.325   3.061
   13CHTO  C120 5093   6.906   5.299   3.138
   13CHTO  H224 5094   6.939   5.283   3.033
   13CHTO   N21 5095   6.841   5.173   3.183
   13CHTO  H211 5096   6.738   5.170   3.151
   13CHTO  H212 5097   6.847   5.163   3.290
   13CHTO   O75 5098   6.795   5.671   3.094
   13CHTO  C112 5099   6.717   5.724   3.234
   13CHTO  H216 5100   6.788   5.724   3.318
   13CHTO   O73 5101   6.606   5.636   3.258
   13CHTO  C113 5102   6.533   5.669   3.378
   13CHTO  H217 5103   6.604   5.673   3.464
   13CHTO  C124 5104   6.432   5.557   3.408
   13CHTO   O83 5105   6.496   5.431   3.433
   13CHTO  H204 5106   6.431   5.366   3.449
   13CHTO  C109 5107   6.464   5.806   3.361
   13CHTO  H213 5108   6.394   5.796   3.276
   13CHTO  C110 5109   6.572   5.914   3.329
   13CHTO  H214 5110   6.633   5.930   3.418
   13CHTO   O78 5111   6.506   6.039   3.299
   13CHTO  H200 5112   6.463   6.073   3.375
   13CHTO  C111 5113   6.663   5.870   3.211
   13CHTO  H215 5114   6.603   5.869   3.119
   13CHTO   N19 5115   6.778   5.962   3.186
   13CHTO  H207 5116   6.772   6.003   3.086
   13CHTO  H208 5117   6.780   6.043   3.258
   13CHTO   O74 5118   6.389   5.843   3.481
   13CHTO  C115 5119   6.237   5.887   3.453
   13CHTO  H219 5120   6.222   5.914   3.348
   13CHTO   O76 5121   6.135   5.766   3.479
   13CHTO  C122 5122   6.107   5.748   3.619
   13CHTO  H226 5123   6.202   5.726   3.668
   13CHTO  C126 5124   6.019   5.619   3.637
   13CHTO   O85 5125   5.993   5.589   3.774
   13CHTO  H206 5126   5.938   5.655   3.812
   13CHTO  C121 5127   6.037   5.875   3.682
   13CHTO  H225 5128   5.928   5.854   3.693
   13CHTO   O81 5129   6.091   5.899   3.813
   13CHTO  H202 5130   6.070   5.828   3.871
   13CHTO  C119 5131   6.055   6.001   3.593
   13CHTO  H223 5132   5.995   5.983   3.504
   13CHTO  C117 5133   6.204   6.013   3.545
   13CHTO  H221 5134   6.279   6.012   3.623
   13CHTO   N20 5135   6.226   6.140   3.470
   13CHTO  H209 5136   6.204   6.225   3.533
   13CHTO  H210 5137   6.329   6.146   3.436
   13CHTO   O80 5138   5.982   6.134   3.656
   13CHTO  C103 5139   5.820   6.147   3.649
   13CHTO  H190 5140   5.792   6.252   3.642
   13CHTO  C101 5141   5.747   6.068   3.534
   13CHTO  H188 5142   5.777   5.964   3.537
   13CHTO   O68 5143   5.793   6.128   3.397
   13CHTO  H168 5144   5.885   6.116   3.385
   13CHTO   C99 5145   5.589   6.075   3.552
   13CHTO  H186 5146   5.556   6.180   3.542
   13CHTO   N17 5147   5.514   5.996   3.448
   13CHTO  H174 5148   5.407   6.012   3.459
   13CHTO  H175 5149   5.538   5.891   3.457
   13CHTO   C97 5150   5.550   6.032   3.697
   13CHTO  H184 5151   5.567   5.923   3.707
   13CHTO   O64 5152   5.623   6.107   3.795
   13CHTO  C104 5153   5.766   6.095   3.788
   13CHTO  H191 5154   5.795   5.990   3.801
   13CHTO  C108 5155   5.830   6.170   3.907
   13CHTO   O71 5156   5.797   6.310   3.906
   13CHTO  H171 5157   5.838   6.352   3.979
   13CHTO   O62 5158   5.412   6.065   3.726
   13CHTO   C91 5159   5.338   5.980   3.815
   13CHTO  H178 5160   5.407   5.911   3.864
   13CHTO   C92 5161   5.238   5.893   3.732
   13CHTO  H179 5162   5.185   5.959   3.661
   13CHTO   O66 5163   5.316   5.804   3.650
   13CHTO  H166 5164   5.261   5.757   3.590
   13CHTO   C93 5165   5.136   5.811   3.820
   13CHTO  H180 5166   5.191   5.728   3.865
   13CHTO   N16 5167   5.028   5.747   3.740
   13CHTO  H172 5168   5.071   5.681   3.667
   13CHTO  H173 5169   4.961   5.693   3.805
   13CHTO   C94 5170   5.076   5.900   3.935
   13CHTO  H181 5171   5.010   5.978   3.896
   13CHTO   O61 5172   5.181   5.966   4.007
   13CHTO   C95 5173   5.258   6.057   3.927
   13CHTO  H182 5174   5.191   6.129   3.880
   13CHTO  C106 5175   5.355   6.137   4.020
   13CHTO   O69 5176   5.282   6.220   4.111
   13CHTO  H169 5177   5.342   6.267   4.165
   13CHTO   O63 5178   4.998   5.808   4.040
   13CHTO   C96 5179   4.915   5.889   4.142
   13CHTO  H183 5180   4.888   5.984   4.097
   13CHTO   C98 5181   4.989   5.917   4.276
   13CHTO  H185 5182   5.092   5.952   4.257
   13CHTO   O67 5183   4.923   6.026   4.344
   13CHTO  H167 5184   4.933   6.105   4.296
   13CHTO  C102 5185   4.989   5.791   4.374
   13CHTO  H189 5186   5.027   5.828   4.470
   13CHTO   N18 5187   5.081   5.680   4.337
   13CHTO  H176 5188   5.027   5.589   4.316
   13CHTO  H177 5189   5.141   5.708   4.251
   13CHTO  C105 5190   4.841   5.744   4.395
   13CHTO  H192 5191   4.833   5.636   4.384
   13CHTO   O65 5192   4.744   5.803   4.306
   13CHTO  C100 5193   4.781   5.806   4.168
   13CHTO  H187 5194   4.796   5.702   4.135
   13CHTO  C107 5195   4.661   5.862   4.087
   13CHTO   O70 5196   4.687   5.862   3.946
   13CHTO  H170 5197   4.752   5.926   3.926
   13CHTO   O57 5198   4.808   5.785   4.543
   13CHTO   C85 5199   4.845   5.698   4.651
   13CHTO  H157 5200   4.941   5.651   4.621
   13CHTO   C83 5201   4.742   5.582   4.662
   13CHTO  H155 5202   4.745   5.524   4.569
   13CHTO   O56 5203   4.609   5.637   4.671
   13CHTO  H135 5204   4.545   5.568   4.667
   13CHTO   C81 5205   4.781   5.488   4.779
   13CHTO  H153 5206   4.882   5.452   4.762
   13CHTO   N14 5207   4.698   5.365   4.786
   13CHTO  H141 5208   4.734   5.302   4.864
   13CHTO  H142 5209   4.703   5.313   4.693
   13CHTO   C79 5210   4.782   5.571   4.914
   13CHTO  H151 5211   4.818   5.504   4.992
   13CHTO   O52 5212   4.879   5.680   4.903
   13CHTO   C86 5213   4.856   5.771   4.791
   13CHTO  H158 5214   4.762   5.825   4.817
   13CHTO   C90 5215   4.968   5.878   4.793
   13CHTO   O60 5216   4.943   5.985   4.701
   13CHTO  H138 5217   5.012   6.048   4.706
   13CHTO   O50 5218   4.652   5.620   4.953
   13CHTO   C73 5219   4.551   5.671   5.042
   13CHTO  H145 5220   4.451   5.652   4.999
   13CHTO   C74 5221   4.564   5.824   5.065
   13CHTO  H146 5222   4.556   5.872   4.966
   13CHTO   O54 5223   4.451   5.870   5.141
   13CHTO  H133 5224   4.372   5.861   5.091
   13CHTO   C75 5225   4.702   5.856   5.134
   13CHTO  H147 5226   4.782   5.834   5.062
   13CHTO   N13 5227   4.723   5.999   5.167
   13CHTO  H139 5228   4.809   6.039   5.115
   13CHTO  H140 5229   4.636   6.058   5.140
   13CHTO   C76 5230   4.729   5.761   5.261
   13CHTO  H148 5231   4.677   5.802   5.348
   13CHTO   O49 5232   4.688   5.622   5.241
   13CHTO   C77 5233   4.561   5.598   5.179
   13CHTO  H149 5234   4.481   5.633   5.244
   13CHTO   C88 5235   4.544   5.446   5.168
   13CHTO   O58 5236   4.422   5.408   5.092
   13CHTO  H136 5237   4.432   5.434   5.002
   13CHTO   O51 5238   4.885   5.747   5.281
   13CHTO   C78 5239   4.942   5.770   5.426
   13CHTO  H150 5240   4.861   5.766   5.503
   13CHTO   C80 5241   5.010   5.908   5.431
   13CHTO  H152 5242   5.065   5.924   5.335
   13CHTO   O55 5243   4.907   6.009   5.436
   13CHTO  H134 5244   4.858   6.001   5.516
   13CHTO   C84 5245   5.112   5.926   5.551
   13CHTO  H156 5246   5.054   5.928   5.643
   13CHTO   N15 5247   5.188   6.056   5.545
   13CHTO  H143 5248   5.294   6.039   5.536
   13CHTO  H144 5249   5.155   6.116   5.464
   13CHTO   C87 5250   5.205   5.802   5.555
   13CHTO  H159 5251   5.264   5.796   5.463
   13CHTO   O53 5252   5.119   5.684   5.572
   13CHTO   C82 5253   5.040   5.654   5.457
   13CHTO  H154 5254   5.105   5.635   5.371
   13CHTO   C89 5255   4.968   5.521   5.490
   13CHTO   O59 5256   4.890   5.470   5.382
   13CHTO  H137 5257   4.947   5.443   5.312
   13CHTO   O45 5258   5.304   5.802   5.685
   13CHTO   C67 5259   5.445   5.811   5.658
   13CHTO  H124 5260   5.461   5.838   5.553
   13CHTO   C65 5261   5.509   5.922   5.749
   13CHTO  H122 5262   5.437   5.941   5.829
   13CHTO   O44 5263   5.521   6.040   5.669
   13CHTO  H102 5264   5.545   6.113   5.722
   13CHTO   C63 5265   5.639   5.872   5.824
   13CHTO  H120 5266   5.610   5.799   5.900
   13CHTO   N11 5267   5.710   5.974   5.908
   13CHTO  H108 5268   5.752   6.050   5.846
   13CHTO  H109 5269   5.787   5.928   5.965
   13CHTO   C61 5270   5.730   5.797   5.721
   13CHTO  H118 5271   5.813   5.753   5.779
   13CHTO   O40 5272   5.662   5.688   5.654
   13CHTO   C68 5273   5.519   5.671   5.677
   13CHTO  H125 5274   5.503   5.631   5.779
   13CHTO   C72 5275   5.473   5.561   5.578
   13CHTO   O48 5276   5.345   5.507   5.609
   13CHTO  H105 5277   5.322   5.441   5.545
   13CHTO   O38 5278   5.781   5.886   5.620
   13CHTO   C55 5279   5.895   5.839   5.546
   13CHTO  H112 5280   5.904   5.729   5.551
   13CHTO   C56 5281   6.025   5.911   5.599
   13CHTO  H113 5282   6.003   6.019   5.601
   13CHTO   O42 5283   6.050   5.871   5.736
   13CHTO  H100 5284   5.981   5.902   5.792
   13CHTO   C57 5285   6.151   5.883   5.507
   13CHTO  H114 5286   6.178   5.779   5.524
   13CHTO   N10 5287   6.268   5.966   5.545
   13CHTO  H106 5288   6.360   5.914   5.520
   13CHTO  H107 5289   6.266   6.061   5.494
   13CHTO   C58 5290   6.113   5.901   5.358
   13CHTO  H115 5291   6.098   6.009   5.336
   13CHTO   O37 5292   5.994   5.828   5.324
   13CHTO   C59 5293   5.877   5.873   5.395
   13CHTO  H116 5294   5.863   5.980   5.381
   13CHTO   C70 5295   5.753   5.801   5.339
   13CHTO   O46 5296   5.722   5.842   5.206
   13CHTO  H103 5297   5.646   5.795   5.176
   13CHTO   O39 5298   6.227   5.838   5.258
   13CHTO   C60 5299   6.323   5.932   5.205
   13CHTO  H117 5300   6.315   6.028   5.256
   13CHTO   C62 5301   6.467   5.877   5.228
   13CHTO  H119 5302   6.478   5.867   5.338
   13CHTO   O43 5303   6.481   5.747   5.169
   13CHTO  H101 5304   6.472   5.752   5.075
   13CHTO   C66 5305   6.574   5.984   5.175
   13CHTO  H123 5306   6.553   6.081   5.221
   13CHTO   N12 5307   6.713   5.949   5.215
   13CHTO  H110 5308   6.782   6.023   5.176
   13CHTO  H111 5309   6.719   5.943   5.323
   13CHTO   C69 5310   6.556   5.999   5.021
   13CHTO  H126 5311   6.573   5.901   4.971
   13CHTO   O41 5312   6.409   6.049   4.993
   13CHTO   C64 5313   6.298   5.958   5.054
   13CHTO  H121 5314   6.295   5.862   5.001
   13CHTO   C71 5315   6.162   6.029   5.034
   13CHTO   O47 5316   6.136   6.053   4.895
   13CHTO  H104 5317   6.053   6.095   4.886
   13CHTO   O34 5318   6.656   6.102   4.963
   13CHTO   C49 5319   6.688   6.221   4.880
   13CHTO   H91 5320   6.745   6.185   4.794
   13CHTO   C47 5321   6.776   6.315   4.966
   13CHTO   H89 5322   6.805   6.397   4.895
   13CHTO   O33 5323   6.895   6.249   5.010
   13CHTO   H70 5324   6.874   6.178   5.067
   13CHTO   C45 5325   6.693   6.374   5.092
   13CHTO   H87 5326   6.708   6.306   5.177
   13CHTO    N8 5327   6.750   6.507   5.128
   13CHTO   H75 5328   6.856   6.497   5.149
   13CHTO   H76 5329   6.735   6.577   5.048
   13CHTO   C43 5330   6.534   6.370   5.063
   13CHTO   H85 5331   6.503   6.270   5.090
   13CHTO   O29 5332   6.508   6.398   4.924
   13CHTO   C50 5333   6.562   6.301   4.833
   13CHTO   H92 5334   6.482   6.228   4.810
   13CHTO   C54 5335   6.585   6.373   4.697
   13CHTO   O36 5336   6.622   6.282   4.593
   13CHTO   H72 5337   6.549   6.227   4.571
   13CHTO   O27 5338   6.458   6.455   5.150
   13CHTO   C37 5339   6.341   6.459   5.232
   13CHTO   H79 5340   6.321   6.562   5.266
   13CHTO   C38 5341   6.215   6.411   5.154
   13CHTO   H80 5342   6.236   6.310   5.114
   13CHTO   O31 5343   6.194   6.500   5.043
   13CHTO   H68 5344   6.174   6.587   5.074
   13CHTO   C39 5345   6.088   6.404   5.248
   13CHTO   H81 5346   6.061   6.507   5.270
   13CHTO    N7 5347   5.968   6.340   5.183
   13CHTO   H73 5348   5.886   6.411   5.178
   13CHTO   H74 5349   5.992   6.305   5.083
   13CHTO   C40 5350   6.121   6.333   5.386
   13CHTO   H82 5351   6.129   6.226   5.369
   13CHTO   O26 5352   6.242   6.386   5.444
   13CHTO   C41 5353   6.359   6.368   5.357
   13CHTO   H83 5354   6.366   6.263   5.326
   13CHTO   C52 5355   6.487   6.402   5.437
   13CHTO   O35 5356   6.506   6.312   5.554
   13CHTO   H71 5357   6.439   6.327   5.617
   13CHTO   O28 5358   6.013   6.347   5.481
   13CHTO   C42 5359   5.998   6.440   5.594
   13CHTO   H84 5360   5.892   6.430   5.619
   13CHTO   C44 5361   6.022   6.593   5.570
   13CHTO   H86 5362   6.129   6.610   5.554
   13CHTO   O32 5363   5.952   6.631   5.451
   13CHTO   H69 5364   5.859   6.623   5.463
   13CHTO   C48 5365   5.977   6.675   5.699
   13CHTO   H90 5366   5.872   6.653   5.717
   13CHTO    N9 5367   5.985   6.824   5.681
   13CHTO   H77 5368   5.923   6.854   5.599
   13CHTO   H78 5369   5.954   6.873   5.772
   13CHTO   C51 5370   6.061   6.624   5.823
   13CHTO   H93 5371   6.166   6.647   5.806
   13CHTO   O30 5372   6.039   6.483   5.838
   13CHTO   C46 5373   6.079   6.396   5.720
   13CHTO   H88 5374   6.185   6.409   5.701
   13CHTO   C53 5375   6.049   6.250   5.758
   13CHTO   O72 5376   6.134   6.205   5.863
   13CHTO  H199 5377   6.222   6.196   5.832
   13CHTO   O22 5378   6.016   6.684   5.946
   13CHTO   C31 5379   6.059   6.640   6.080
   13CHTO   H59 5380   6.107   6.541   6.066
   13CHTO   C29 5381   6.164   6.732   6.146
   13CHTO   H57 5382   6.123   6.834   6.146
   13CHTO   O21 5383   6.282   6.734   6.063
   13CHTO   H37 5384   6.263   6.773   5.980
   13CHTO   C27 5385   6.195   6.690   6.296
   13CHTO   H55 5386   6.246   6.592   6.295
   13CHTO    N5 5387   6.283   6.787   6.366
   13CHTO   H43 5388   6.378   6.795   6.313
   13CHTO   H44 5389   6.235   6.884   6.370
   13CHTO   C25 5390   6.060   6.671   6.373
   13CHTO   H53 5391   6.007   6.767   6.374
   13CHTO   O17 5392   5.978   6.574   6.303
   13CHTO   C32 5393   5.937   6.617   6.172
   13CHTO   H60 5394   5.881   6.710   6.180
   13CHTO   C36 5395   5.844   6.509   6.113
   13CHTO   O25 5396   5.719   6.504   6.183
   13CHTO   H40 5397   5.669   6.581   6.165
   13CHTO   O15 5398   6.077   6.619   6.524
   13CHTO   C19 5399   5.993   6.667   6.634
   13CHTO   H47 5400   6.028   6.609   6.720
   13CHTO   C20 5401   6.011   6.819   6.664
   13CHTO   H48 5402   5.995   6.881   6.574
   13CHTO   O19 5403   6.148   6.837   6.705
   13CHTO   H35 5404   6.206   6.825   6.632
   13CHTO   C21 5405   5.912   6.872   6.776
   13CHTO   H49 5406   5.938   6.824   6.871
   13CHTO    N4 5407   5.920   7.019   6.797
   13CHTO   H41 5408   5.852   7.049   6.875
   13CHTO   H42 5409   6.021   7.046   6.825
   13CHTO   C22 5410   5.769   6.825   6.739
   13CHTO   H50 5411   5.741   6.872   6.644
   13CHTO   O14 5412   5.765   6.682   6.726
   13CHTO   C23 5413   5.841   6.631   6.616
   13CHTO   H51 5414   5.799   6.673   6.523
   13CHTO   C34 5415   5.814   6.480   6.618
   13CHTO   O23 5416   5.866   6.413   6.502
   13CHTO   H38 5417   5.816   6.438   6.426
   13CHTO   O16 5418   5.671   6.855   6.841
   13CHTO   C24 5419   5.522   6.866   6.782
   13CHTO   H52 5420   5.515   6.825   6.681
   13CHTO   C26 5421   5.481   7.014   6.780
   13CHTO   H54 5422   5.495   7.057   6.883
   13CHTO   O20 5423   5.569   7.085   6.690
   13CHTO   H36 5424   5.552   7.177   6.694
   13CHTO   C30 5425   5.330   7.031   6.740
   13CHTO   H58 5426   5.318   7.005   6.634
   13CHTO    N6 5427   5.286   7.173   6.753
   13CHTO   H45 5428   5.295   7.205   6.855
   13CHTO   H46 5429   5.183   7.182   6.721
   13CHTO   C33 5430   5.240   6.933   6.821
   13CHTO   H61 5431   5.236   6.965   6.926
   13CHTO   O18 5432   5.293   6.800   6.815
   13CHTO   C28 5433   5.424   6.786   6.871
   13CHTO   H56 5434   5.427   6.827   6.972
   13CHTO   C35 5435   5.460   6.635   6.880
   13CHTO   O24 5436   5.458   6.567   6.754
   13CHTO   H39 5437   5.527   6.599   6.700
   13CHTO    O9 5438   5.103   6.937   6.775
   13CHTO   C13 5439   4.997   6.867   6.874
   13CHTO   H26 5440   5.025   6.893   6.978
   13CHTO   C11 5441   4.998   6.711   6.850
   13CHTO   H24 5442   5.096   6.672   6.880
   13CHTO    O8 5443   4.981   6.683   6.710
   13CHTO    H3 5444   4.991   6.591   6.694
   13CHTO    C9 5445   4.891   6.647   6.942
   13CHTO   H22 5446   4.917   6.677   7.044
   13CHTO    N2 5447   4.896   6.498   6.943
   13CHTO   H10 5448   4.995   6.465   6.971
   13CHTO   H11 5449   4.869   6.459   6.846
   13CHTO    C7 5450   4.749   6.705   6.907
   13CHTO   H20 5451   4.684   6.665   6.987
   13CHTO    O4 5452   4.746   6.849   6.912
   13CHTO   C14 5453   4.851   6.929   6.854
   13CHTO   H27 5454   4.848   7.026   6.908
   13CHTO   C18 5455   4.812   6.959   6.706
   13CHTO   O13 5456   4.889   7.066   6.649
   13CHTO    H7 5457   4.867   7.146   6.692
   13CHTO    O2 5458   4.697   6.655   6.762
   13CHTO    C1 5459   4.558   6.670   6.729
   13CHTO   H14 5460   4.542   6.774   6.695
   13CHTO    C2 5461   4.453   6.638   6.845
   13CHTO   H15 5462   4.493   6.550   6.898
   13CHTO    O6 5463   4.450   6.750   6.936
   13CHTO    H1 5464   4.398   6.729   7.011
   13CHTO    C3 5465   4.304   6.607   6.791
   13CHTO   H16 5466   4.258   6.701   6.757
   13CHTO    N1 5467   4.217   6.550   6.898
   13CHTO    H8 5468   4.117   6.533   6.860
   13CHTO    H9 5469   4.258   6.457   6.935
   13CHTO    C4 5470   4.311   6.515   6.664
   13CHTO   H17 5471   4.352   6.418   6.693
   13CHTO    O1 5472   4.395   6.578   6.566
   13CHTO    C5 5473   4.533   6.580   6.604
   13CHTO   H18 5474   4.566   6.479   6.628
   13CHTO   C16 5475   4.614   6.630   6.482
   13CHTO   O11 5476   4.600   6.543   6.370
   13CHTO    H5 5477   4.642   6.461   6.387
   13CHTO    O3 5478   4.183   6.498   6.599
   13CHTO    C6 5479   4.176   6.381   6.510
   13CHTO   H19 5480   4.275   6.340   6.488
   13CHTO    C8 5481   4.092   6.268   6.578
   13CHTO   H21 5482   3.996   6.310   6.609
   13CHTO    O7 5483   4.166   6.226   6.695
   13CHTO    H2 5484   4.116   6.163   6.744
   13CHTO   C12 5485   4.067   6.148   6.478
   13CHTO   H25 5486   4.166   6.101   6.461
   13CHTO    N3 5487   3.979   6.043   6.540
   13CHTO   H12 5488   4.029   5.948   6.542
   13CHTO   H13 5489   3.885   6.035   6.487
   13CHTO   C15 5490   4.013   6.204   6.341
   13CHTO   H28 5491   3.912   6.243   6.350
   13CHTO   O10 5492   4.016   6.097   6.227
   13CHTO    H4 5493   4.102   6.059   6.220
   13CHTO    O5 5494   4.101   6.305   6.290
   13CHTO   C10 5495   4.112   6.421   6.374
   13CHTO   H23 5496   4.013   6.464   6.389
   13CHTO   C17 5497   4.196   6.522   6.296
   13CHTO   O12 5498   4.190   6.652   6.354
   13CHTO    H6 5499   4.241   6.712   6.304
   14CHTO  H203 5500   5.281   6.183   4.529
   14CHTO   O82 5501   5.260   6.163   4.618
   14CHTO  C123 5502   5.349   6.062   4.668
   14CHTO  H227 5503   5.452   6.099   4.660
   14CHTO   O77 5504   5.310   6.051   4.808
   14CHTO  C118 5505   5.392   5.960   4.884
   14CHTO  H222 5506   5.498   5.988   4.871
   14CHTO  C125 5507   5.355   5.977   5.035
   14CHTO   O84 5508   5.217   5.945   5.061
   14CHTO  H205 5509   5.198   5.957   5.152
   14CHTO  C114 5510   5.372   5.816   4.831
   14CHTO  H218 5511   5.267   5.789   4.843
   14CHTO  C116 5512   5.408   5.810   4.679
   14CHTO  H220 5513   5.518   5.822   4.668
   14CHTO   O79 5514   5.377   5.678   4.629
   14CHTO  H201 5515   5.407   5.670   4.540
   14CHTO  C120 5516   5.332   5.922   4.597
   14CHTO  H224 5517   5.224   5.893   4.596
   14CHTO   N21 5518   5.377   5.926   4.455
   14CHTO  H211 5519   5.297   5.962   4.392
   14CHTO  H212 5520   5.465   5.988   4.445
   14CHTO   O75 5521   5.454   5.733   4.916
   14CHTO  C112 5522   5.394   5.578   4.962
   14CHTO  H216 5523   5.479   5.519   4.999
   14CHTO   O73 5524   5.333   5.517   4.848
   14CHTO  C113 5525   5.300   5.379   4.869
   14CHTO  H217 5526   5.390   5.325   4.906
   14CHTO  C124 5527   5.263   5.318   4.734
   14CHTO   O83 5528   5.372   5.321   4.642
   14CHTO  H204 5529   5.391   5.409   4.617
   14CHTO  C109 5530   5.185   5.368   4.973
   14CHTO  H213 5531   5.095   5.409   4.926
   14CHTO  C110 5532   5.222   5.448   5.102
   14CHTO  H214 5533   5.291   5.387   5.161
   14CHTO   O78 5534   5.102   5.462   5.181
   14CHTO  H200 5535   5.074   5.379   5.214
   14CHTO  C111 5536   5.286   5.588   5.076
   14CHTO  H215 5537   5.207   5.657   5.042
   14CHTO   N19 5538   5.346   5.648   5.198
   14CHTO  H207 5539   5.422   5.582   5.238
   14CHTO  H208 5540   5.269   5.665   5.272
   14CHTO   O74 5541   5.162   5.228   5.011
   14CHTO  C115 5542   5.036   5.152   4.939
   14CHTO  H219 5543   4.981   5.218   4.872
   14CHTO   O76 5544   5.086   5.031   4.847
   14CHTO  C122 5545   4.984   4.948   4.789
   14CHTO  H226 5546   5.035   4.861   4.747
   14CHTO  C126 5547   4.916   5.021   4.667
   14CHTO   O85 5548   5.008   5.051   4.562
   14CHTO  H206 5549   4.963   5.092   4.491
   14CHTO  C121 5550   4.878   4.899   4.894
   14CHTO  H225 5551   4.794   4.851   4.839
   14CHTO   O81 5552   4.936   4.799   4.979
   14CHTO  H202 5553   4.959   4.723   4.929
   14CHTO  C119 5554   4.821   5.016   4.979
   14CHTO  H223 5555   4.772   5.083   4.907
   14CHTO  C117 5556   4.935   5.099   5.049
   14CHTO  H221 5557   4.997   5.044   5.119
   14CHTO   N20 5558   4.877   5.213   5.127
   14CHTO  H209 5559   4.902   5.203   5.232
   14CHTO  H210 5560   4.911   5.309   5.090
   14CHTO   O80 5561   4.695   4.970   5.070
   14CHTO  C103 5562   4.555   5.042   5.049
   14CHTO  H190 5563   4.570   5.149   5.039
   14CHTO  C101 5564   4.467   4.992   4.929
   14CHTO  H188 5565   4.452   4.884   4.939
   14CHTO   O68 5566   4.544   5.018   4.796
   14CHTO  H168 5567   4.495   4.982   4.724
   14CHTO   C99 5568   4.324   5.064   4.931
   14CHTO  H186 5569   4.339   5.172   4.911
   14CHTO   N17 5570   4.231   5.013   4.824
   14CHTO  H174 5571   4.136   4.981   4.865
   14CHTO  H175 5572   4.216   5.088   4.748
   14CHTO   C97 5573   4.259   5.057   5.073
   14CHTO  H184 5574   4.224   4.954   5.090
   14CHTO   O64 5575   4.353   5.099   5.175
   14CHTO  C104 5576   4.473   5.019   5.181
   14CHTO  H191 5577   4.449   4.913   5.191
   14CHTO  C108 5578   4.553   5.057   5.306
   14CHTO   O71 5579   4.482   5.023   5.426
   14CHTO  H171 5580   4.478   4.930   5.436
   14CHTO   O62 5581   4.145   5.146   5.079
   14CHTO   C91 5582   4.084   5.180   5.205
   14CHTO  H178 5583   4.113   5.105   5.278
   14CHTO   C92 5584   3.928   5.169   5.189
   14CHTO  H179 5585   3.902   5.067   5.157
   14CHTO   O66 5586   3.870   5.185   5.319
   14CHTO  H166 5587   3.777   5.169   5.315
   14CHTO   C93 5588   3.869   5.280   5.093
   14CHTO  H180 5589   3.768   5.305   5.129
   14CHTO   N16 5590   3.850   5.232   4.954
   14CHTO  H172 5591   3.780   5.149   4.952
   14CHTO  H173 5592   3.944   5.202   4.911
   14CHTO   C94 5593   3.958   5.409   5.097
   14CHTO  H181 5594   4.041   5.405   5.025
   14CHTO   O61 5595   4.019   5.424   5.227
   14CHTO   C95 5596   4.122   5.327   5.254
   14CHTO  H182 5597   4.213   5.359   5.204
   14CHTO  C106 5598   4.153   5.333   5.408
   14CHTO   O69 5599   4.266   5.252   5.442
   14CHTO  H169 5600   4.281   5.257   5.534
   14CHTO   O63 5601   3.870   5.537   5.070
   14CHTO   C96 5602   3.928   5.636   4.955
   14CHTO  H183 5603   3.867   5.726   4.958
   14CHTO   C98 5604   3.921   5.580   4.810
   14CHTO  H185 5605   3.970   5.481   4.805
   14CHTO   O67 5606   3.782   5.556   4.782
   14CHTO  H167 5607   3.749   5.485   4.834
   14CHTO  C102 5608   3.986   5.681   4.704
   14CHTO  H189 5609   3.923   5.771   4.706
   14CHTO   N18 5610   3.983   5.633   4.563
   14CHTO  H176 5611   4.082   5.623   4.523
   14CHTO  H177 5612   3.926   5.701   4.502
   14CHTO  C105 5613   4.129   5.720   4.753
   14CHTO  H192 5614   4.193   5.632   4.748
   14CHTO   O65 5615   4.129   5.770   4.888
   14CHTO  C100 5616   4.077   5.679   4.986
   14CHTO  H187 5617   4.141   5.589   4.985
   14CHTO  C107 5618   4.087   5.744   5.126
   14CHTO   O70 5619   4.216   5.724   5.184
   14CHTO  H170 5620   4.281   5.770   5.134
   14CHTO   O57 5621   4.184   5.836   4.651
   14CHTO   C85 5622   4.325   5.857   4.633
   14CHTO  H157 5623   4.376   5.769   4.677
   14CHTO   C83 5624   4.370   5.979   4.720
   14CHTO  H155 5625   4.355   5.954   4.825
   14CHTO   O56 5626   4.284   6.092   4.692
   14CHTO  H135 5627   4.304   6.163   4.750
   14CHTO   C81 5628   4.521   6.007   4.696
   14CHTO  H153 5629   4.576   5.916   4.721
   14CHTO   N14 5630   4.578   6.111   4.787
   14CHTO  H141 5631   4.502   6.158   4.844
   14CHTO  H142 5632   4.650   6.067   4.853
   14CHTO   C79 5633   4.547   6.039   4.544
   14CHTO  H151 5634   4.655   6.049   4.531
   14CHTO   O52 5635   4.506   5.925   4.462
   14CHTO   C86 5636   4.367   5.882   4.483
   14CHTO  H158 5637   4.307   5.965   4.438
   14CHTO   C90 5638   4.338   5.758   4.395
   14CHTO   O60 5639   4.426   5.648   4.425
   14CHTO  H138 5640   4.406   5.615   4.510
   14CHTO   O50 5641   4.483   6.159   4.497
   14CHTO   C73 5642   4.424   6.278   4.442
   14CHTO  H145 5643   4.355   6.322   4.514
   14CHTO   C74 5644   4.345   6.243   4.312
   14CHTO  H146 5645   4.269   6.169   4.339
   14CHTO   O54 5646   4.273   6.361   4.270
   14CHTO  H133 5647   4.206   6.383   4.332
   14CHTO   C75 5648   4.445   6.188   4.203
   14CHTO  H147 5649   4.491   6.096   4.242
   14CHTO   N13 5650   4.380   6.149   4.076
   14CHTO  H139 5651   4.331   6.234   4.031
   14CHTO  H140 5652   4.453   6.110   4.007
   14CHTO   C76 5653   4.563   6.294   4.181
   14CHTO  H148 5654   4.521   6.383   4.134
   14CHTO   O49 5655   4.626   6.332   4.308
   14CHTO   C77 5656   4.536   6.382   4.408
   14CHTO  H149 5657   4.489   6.474   4.372
   14CHTO   C88 5658   4.618   6.422   4.531
   14CHTO   O58 5659   4.534   6.482   4.636
   14CHTO  H136 5660   4.587   6.505   4.710
   14CHTO   O51 5661   4.681   6.229   4.096
   14CHTO   C78 5662   4.767   6.335   4.016
   14CHTO  H150 5663   4.752   6.438   4.057
   14CHTO   C80 5664   4.727   6.334   3.867
   14CHTO  H152 5665   4.729   6.229   3.831
   14CHTO   O55 5666   4.591   6.381   3.861
   14CHTO  H134 5667   4.559   6.375   3.773
   14CHTO   C84 5668   4.825   6.422   3.780
   14CHTO  H156 5669   4.817   6.525   3.813
   14CHTO   N15 5670   4.791   6.420   3.634
   14CHTO  H143 5671   4.692   6.457   3.619
   14CHTO  H144 5672   4.859   6.482   3.579
   14CHTO   C87 5673   4.970   6.373   3.805
   14CHTO  H159 5674   4.981   6.270   3.772
   14CHTO   O53 5675   5.000   6.384   3.955
   14CHTO   C82 5676   4.916   6.299   4.035
   14CHTO  H154 5677   4.934   6.195   4.008
   14CHTO   C89 5678   4.958   6.315   4.184
   14CHTO   O59 5679   4.946   6.450   4.231
   14CHTO  H137 5680   4.973   6.454   4.321
   14CHTO   O45 5681   5.082   6.468   3.729
   14CHTO   C67 5682   5.198   6.391   3.693
   14CHTO  H124 5683   5.217   6.312   3.766
   14CHTO   C65 5684   5.174   6.326   3.553
   14CHTO  H122 5685   5.072   6.287   3.554
   14CHTO   O44 5686   5.265   6.216   3.533
   14CHTO  H102 5687   5.247   6.148   3.596
   14CHTO   C63 5688   5.178   6.437   3.442
   14CHTO  H120 5689   5.108   6.516   3.471
   14CHTO   N11 5690   5.127   6.396   3.308
   14CHTO  H108 5691   5.111   6.290   3.304
   14CHTO  H109 5692   5.036   6.447   3.284
   14CHTO   C61 5693   5.321   6.502   3.441
   14CHTO  H118 5694   5.316   6.586   3.370
   14CHTO   O40 5695   5.351   6.561   3.571
   14CHTO   C68 5696   5.327   6.484   3.694
   14CHTO  H125 5697   5.311   6.558   3.775
   14CHTO   C72 5698   5.456   6.405   3.732
   14CHTO   O48 5699   5.566   6.491   3.762
   14CHTO  H105 5700   5.594   6.535   3.684
   14CHTO   O38 5701   5.429   6.412   3.407
   14CHTO   C55 5702   5.515   6.444   3.296
   14CHTO  H112 5703   5.484   6.538   3.248
   14CHTO   C56 5704   5.515   6.322   3.195
   14CHTO  H113 5705   5.531   6.231   3.255
   14CHTO   O42 5706   5.384   6.307   3.137
   14CHTO  H100 5707   5.361   6.384   3.087
   14CHTO   C57 5708   5.625   6.334   3.082
   14CHTO  H114 5709   5.590   6.410   3.012
   14CHTO   N10 5710   5.642   6.208   3.005
   14CHTO  H106 5711   5.549   6.154   2.999
   14CHTO  H107 5712   5.676   6.231   2.905
   14CHTO   C58 5713   5.761   6.380   3.141
   14CHTO  H115 5714   5.807   6.296   3.199
   14CHTO   O37 5715   5.743   6.494   3.227
   14CHTO   C59 5716   5.662   6.468   3.343
   14CHTO  H116 5717   5.700   6.380   3.397
   14CHTO   C70 5718   5.672   6.589   3.436
   14CHTO   O46 5719   5.804   6.606   3.489
   14CHTO  H103 5720   5.806   6.682   3.544
   14CHTO   O39 5721   5.862   6.429   3.020
   14CHTO   C60 5722   6.005   6.420   3.035
   14CHTO  H117 5723   6.049   6.471   2.949
   14CHTO   C62 5724   6.064   6.491   3.161
   14CHTO  H119 5725   6.025   6.595   3.160
   14CHTO   O43 5726   6.019   6.428   3.283
   14CHTO  H101 5727   6.049   6.339   3.287
   14CHTO   C66 5728   6.225   6.495   3.149
   14CHTO  H123 5729   6.251   6.546   3.056
   14CHTO   N12 5730   6.290   6.571   3.259
   14CHTO  H110 5731   6.345   6.655   3.219
   14CHTO  H111 5732   6.217   6.603   3.332
   14CHTO   C69 5733   6.281   6.350   3.139
   14CHTO  H126 5734   6.265   6.297   3.235
   14CHTO   O41 5735   6.210   6.272   3.025
   14CHTO   C64 5736   6.057   6.273   3.031
   14CHTO  H121 5737   6.022   6.219   3.121
   14CHTO   C71 5738   6.004   6.197   2.907
   14CHTO   O47 5739   6.048   6.061   2.909
   14CHTO  H104 5740   6.015   6.017   2.832
   14CHTO   O34 5741   6.437   6.348   3.109
   14CHTO   C49 5742   6.576   6.355   3.041
   14CHTO   H91 5743   6.647   6.319   3.115
   14CHTO   C47 5744   6.609   6.500   3.003
   14CHTO   H89 5745   6.716   6.496   2.972
   14CHTO   O33 5746   6.600   6.586   3.118
   14CHTO   H70 5747   6.634   6.671   3.098
   14CHTO   C45 5748   6.515   6.555   2.882
   14CHTO   H87 5749   6.430   6.609   2.926
   14CHTO    N8 5750   6.595   6.651   2.802
   14CHTO   H75 5751   6.531   6.698   2.728
   14CHTO   H76 5752   6.676   6.600   2.752
   14CHTO   C43 5753   6.448   6.432   2.801
   14CHTO   H85 5754   6.361   6.403   2.859
   14CHTO   O29 5755   6.542   6.324   2.787
   14CHTO   C50 5756   6.584   6.266   2.912
   14CHTO   H92 5757   6.522   6.177   2.930
   14CHTO   C54 5758   6.726   6.205   2.893
   14CHTO   O36 5759   6.822   6.301   2.847
   14CHTO   H72 5760   6.905   6.259   2.836
   14CHTO   O27 5761   6.395   6.470   2.672
   14CHTO   C37 5762   6.273   6.468   2.597
   14CHTO   H79 5763   6.293   6.501   2.493
   14CHTO   C38 5764   6.213   6.325   2.588
   14CHTO   H80 5765   6.206   6.284   2.690
   14CHTO   O31 5766   6.305   6.244   2.512
   14CHTO   H68 5767   6.384   6.230   2.560
   14CHTO   C39 5768   6.069   6.326   2.522
   14CHTO   H81 5769   6.082   6.356   2.418
   14CHTO    N7 5770   6.002   6.192   2.521
   14CHTO   H73 5771   5.906   6.199   2.473
   14CHTO   H74 5772   6.064   6.120   2.468
   14CHTO   C40 5773   5.978   6.435   2.591
   14CHTO   H82 5774   5.954   6.404   2.693
   14CHTO   O26 5775   6.045   6.562   2.588
   14CHTO   C41 5776   6.171   6.566   2.660
   14CHTO   H83 5777   6.154   6.539   2.766
   14CHTO   C52 5778   6.222   6.712   2.656
   14CHTO   O35 5779   6.130   6.803   2.714
   14CHTO   H71 5780   6.165   6.890   2.711
   14CHTO   O28 5781   5.855   6.457   2.519
   14CHTO   C42 5782   5.740   6.526   2.576
   14CHTO   H84 5783   5.670   6.531   2.492
   14CHTO   C44 5784   5.761   6.674   2.622
   14CHTO   H86 5785   5.833   6.675   2.705
   14CHTO   O32 5786   5.818   6.744   2.510
   14CHTO   H69 5787   5.905   6.715   2.494
   14CHTO   C48 5788   5.626   6.737   2.674
   14CHTO   H90 5789   5.553   6.734   2.593
   14CHTO    N9 5790   5.640   6.883   2.709
   14CHTO   H77 5791   5.714   6.896   2.786
   14CHTO   H78 5792   5.668   6.939   2.621
   14CHTO   C51 5793   5.572   6.650   2.793
   14CHTO   H93 5794   5.648   6.647   2.872
   14CHTO   O30 5795   5.543   6.518   2.743
   14CHTO   C46 5796   5.670   6.443   2.689
   14CHTO   H88 5797   5.739   6.430   2.772
   14CHTO   C53 5798   5.625   6.304   2.636
   14CHTO   O72 5799   5.528   6.315   2.531
   14CHTO  H199 5800   5.505   6.229   2.501
   14CHTO   O22 5801   5.445   6.696   2.845
   14CHTO   C31 5802   5.421   6.721   2.989
   14CHTO   H59 5803   5.466   6.636   3.043
   14CHTO   C29 5804   5.487   6.851   3.044
   14CHTO   H57 5805   5.460   6.931   2.973
   14CHTO   O21 5806   5.630   6.835   3.039
   14CHTO   H37 5807   5.659   6.825   2.950
   14CHTO   C27 5808   5.440   6.891   3.189
   14CHTO   H55 5809   5.486   6.822   3.261
   14CHTO    N5 5810   5.483   7.030   3.224
   14CHTO   H43 5811   5.399   7.091   3.254
   14CHTO   H44 5812   5.557   7.028   3.302
   14CHTO   C25 5813   5.285   6.873   3.206
   14CHTO   H53 5814   5.233   6.946   3.142
   14CHTO   O17 5815   5.246   6.739   3.163
   14CHTO   C32 5816   5.269   6.718   3.022
   14CHTO   H60 5817   5.219   6.797   2.965
   14CHTO   C36 5818   5.206   6.583   2.979
   14CHTO   O25 5819   5.063   6.587   2.992
   14CHTO   H40 5820   5.027   6.504   2.965
   14CHTO   O15 5821   5.236   6.897   3.361
   14CHTO   C19 5822   5.240   6.871   3.504
   14CHTO   H47 5823   5.234   6.761   3.510
   14CHTO   C20 5824   5.370   6.918   3.577
   14CHTO   H48 5825   5.385   7.026   3.566
   14CHTO   O19 5826   5.480   6.850   3.513
   14CHTO   H35 5827   5.561   6.883   3.545
   14CHTO   C21 5828   5.368   6.884   3.731
   14CHTO   H49 5829   5.373   6.775   3.743
   14CHTO    N4 5830   5.487   6.937   3.805
   14CHTO   H41 5831   5.554   6.988   3.738
   14CHTO   H42 5832   5.457   7.005   3.884
   14CHTO   C22 5833   5.233   6.928   3.794
   14CHTO   H50 5834   5.230   7.037   3.800
   14CHTO   O14 5835   5.121   6.880   3.719
   14CHTO   C23 5836   5.116   6.925   3.582
   14CHTO   H51 5837   5.114   7.035   3.583
   14CHTO   C34 5838   4.984   6.878   3.519
   14CHTO   O23 5839   4.968   6.736   3.520
   14CHTO   H38 5840   4.959   6.705   3.608
   14CHTO   O16 5841   5.218   6.869   3.926
   14CHTO   C24 5842   5.120   6.947   4.027
   14CHTO   H52 5843   5.046   7.008   3.974
   14CHTO   C26 5844   5.204   7.035   4.121
   14CHTO   H54 5845   5.287   6.972   4.163
   14CHTO   O20 5846   5.264   7.139   4.041
   14CHTO   H36 5847   5.323   7.190   4.093
   14CHTO   C30 5848   5.120   7.092   4.239
   14CHTO   H58 5849   5.047   7.165   4.201
   14CHTO    N6 5850   5.206   7.167   4.336
   14CHTO   H45 5851   5.145   7.208   4.415
   14CHTO   H46 5852   5.280   7.101   4.379
   14CHTO   C33 5853   5.038   6.978   4.308
   14CHTO   H61 5854   5.108   6.907   4.356
   14CHTO   O18 5855   4.962   6.908   4.209
   14CHTO   C28 5856   5.040   6.841   4.108
   14CHTO   H56 5857   5.110   6.771   4.155
   14CHTO   C35 5858   4.941   6.763   4.018
   14CHTO   O24 5859   5.007   6.679   3.923
   14CHTO   H39 5860   4.944   6.634   3.872
   14CHTO    O9 5861   4.954   7.027   4.415
   14CHTO   C13 5862   4.922   6.917   4.530
   14CHTO   H26 5863   4.935   6.816   4.485
   14CHTO   C11 5864   4.775   6.937   4.587
   14CHTO   H24 5865   4.705   6.918   4.504
   14CHTO    O8 5866   4.754   7.074   4.628
   14CHTO    H3 5867   4.811   7.095   4.699
   14CHTO    C9 5868   4.752   6.831   4.697
   14CHTO   H22 5869   4.769   6.734   4.649
   14CHTO    N2 5870   4.612   6.824   4.745
   14CHTO   H10 5871   4.586   6.914   4.798
   14CHTO   H11 5872   4.598   6.738   4.808
   14CHTO    C7 5873   4.859   6.848   4.812
   14CHTO   H20 5874   4.845   6.757   4.875
   14CHTO    O4 5875   4.994   6.846   4.761
   14CHTO   C14 5876   5.029   6.926   4.646
   14CHTO   H27 5877   5.123   6.883   4.606
   14CHTO   C18 5878   5.060   7.072   4.688
   14CHTO   O13 5879   5.173   7.079   4.776
   14CHTO    H7 5880   5.191   7.169   4.797
   14CHTO    O2 5881   4.838   6.985   4.906
   14CHTO    C1 5882   4.815   6.962   5.046
   14CHTO   H14 5883   4.801   6.853   5.065
   14CHTO    C2 5884   4.688   7.040   5.100
   14CHTO   H15 5885   4.702   7.145   5.072
   14CHTO    O6 5886   4.571   6.988   5.035
   14CHTO    H1 5887   4.558   6.898   5.056
   14CHTO    C3 5888   4.676   7.028   5.261
   14CHTO   H16 5889   4.657   6.923   5.287
   14CHTO    N1 5890   4.561   7.109   5.316
   14CHTO    H8 5891   4.507   7.158   5.237
   14CHTO    H9 5892   4.494   7.045   5.372
   14CHTO    C4 5893   4.814   7.066   5.328
   14CHTO   H17 5894   4.835   7.171   5.307
   14CHTO    O1 5895   4.918   6.984   5.270
   14CHTO    C5 5896   4.940   7.006   5.130
   14CHTO   H18 5897   4.957   7.112   5.111
   14CHTO   C16 5898   5.067   6.928   5.089
   14CHTO   O11 5899   5.183   6.981   5.154
   14CHTO    H5 5900   5.259   6.934   5.126
   14CHTO    O3 5901   4.808   7.048   5.472
   14CHTO    C6 5902   4.918   6.991   5.550
   14CHTO   H19 5903   4.972   6.913   5.496
   14CHTO    C8 5904   5.021   7.101   5.593
   14CHTO   H21 5905   4.967   7.181   5.643
   14CHTO    O7 5906   5.083   7.152   5.473
   14CHTO    H2 5907   5.021   7.201   5.423
   14CHTO   C12 5908   5.129   7.041   5.692
   14CHTO   H25 5909   5.191   6.971   5.633
   14CHTO    N3 5910   5.222   7.147   5.744
   14CHTO   H12 5911   5.166   7.223   5.797
   14CHTO   H13 5912   5.278   7.190   5.663
   14CHTO   C15 5913   5.059   6.960   5.807
   14CHTO   H28 5914   5.008   7.026   5.878
   14CHTO   O10 5915   5.158   6.869   5.885
   14CHTO    H4 5916   5.115   6.831   5.959
   14CHTO    O5 5917   4.966   6.864   5.754
   14CHTO   C10 5918   4.860   6.924   5.678
   14CHTO   H23 5919   4.811   6.999   5.740
   14CHTO   C17 5920   4.758   6.813   5.651
   14CHTO   O12 5921   4.637   6.859   5.590
   14CHTO    H6 5922   4.655   6.889   5.503
   15CHTO  H203 5923   5.385   5.810   4.015
   15CHTO   O82 5924   5.420   5.751   4.079
   15CHTO  C123 5925   5.464   5.629   4.017
   15CHTO  H227 5926   5.511   5.565   4.094
   15CHTO   O77 5927   5.340   5.568   3.970
   15CHTO  C118 5928   5.353   5.438   3.910
   15CHTO  H222 5929   5.392   5.367   3.983
   15CHTO  C125 5930   5.209   5.392   3.866
   15CHTO   O84 5931   5.121   5.379   3.978
   15CHTO  H205 5932   5.149   5.307   4.032
   15CHTO  C114 5933   5.447   5.444   3.788
   15CHTO  H218 5934   5.402   5.507   3.712
   15CHTO  C116 5935   5.584   5.511   3.823
   15CHTO  H220 5936   5.643   5.445   3.890
   15CHTO   O79 5937   5.661   5.524   3.701
   15CHTO  H201 5938   5.618   5.581   3.641
   15CHTO  C120 5939   5.561   5.651   3.894
   15CHTO  H224 5940   5.514   5.717   3.819
   15CHTO   N21 5941   5.689   5.716   3.934
   15CHTO  H211 5942   5.720   5.683   4.033
   15CHTO  H212 5943   5.767   5.695   3.862
   15CHTO   O75 5944   5.453   5.309   3.737
   15CHTO  C112 5945   5.561   5.205   3.810
   15CHTO  H216 5946   5.575   5.234   3.915
   15CHTO   O73 5947   5.684   5.214   3.736
   15CHTO  C113 5948   5.791   5.135   3.790
   15CHTO  H217 5949   5.811   5.167   3.894
   15CHTO  C124 5950   5.918   5.160   3.707
   15CHTO   O83 5951   5.966   5.295   3.719
   15CHTO  H204 5952   5.997   5.310   3.806
   15CHTO  C109 5953   5.755   4.984   3.788
   15CHTO  H213 5954   5.746   4.954   3.683
   15CHTO  C110 5955   5.619   4.961   3.861
   15CHTO  H214 5956   5.633   4.978   3.968
   15CHTO   O78 5957   5.583   4.822   3.844
   15CHTO  H200 5958   5.505   4.802   3.894
   15CHTO  C111 5959   5.509   5.056   3.805
   15CHTO  H215 5960   5.491   5.030   3.700
   15CHTO   N19 5961   5.379   5.043   3.875
   15CHTO  H207 5962   5.306   5.111   3.831
   15CHTO  H208 5963   5.342   4.942   3.866
   15CHTO   O74 5964   5.862   4.908   3.851
   15CHTO  C115 5965   5.897   4.772   3.773
   15CHTO  H219 5966   5.809   4.730   3.723
   15CHTO   O76 5967   6.004   4.797   3.657
   15CHTO  C122 5968   6.063   4.683   3.592
   15CHTO  H226 5969   6.157   4.718   3.550
   15CHTO  C126 5970   5.977   4.637   3.467
   15CHTO   O85 5971   5.844   4.593   3.498
   15CHTO  H206 5972   5.848   4.514   3.549
   15CHTO  C121 5973   6.095   4.562   3.687
   15CHTO  H225 5974   6.108   4.472   3.624
   15CHTO   O81 5975   6.220   4.585   3.753
   15CHTO  H202 5976   6.249   4.508   3.797
   15CHTO  C119 5977   5.982   4.534   3.790
   15CHTO  H223 5978   5.892   4.513   3.731
   15CHTO  C117 5979   5.950   4.663   3.874
   15CHTO  H221 5980   6.035   4.709   3.925
   15CHTO   N20 5981   5.849   4.637   3.981
   15CHTO  H209 5982   5.887   4.562   4.050
   15CHTO  H210 5983   5.828   4.728   4.035
   15CHTO   O80 5984   6.002   4.394   3.869
   15CHTO  C103 5985   5.903   4.271   3.838
   15CHTO  H190 5986   5.932   4.184   3.897
   15CHTO  C101 5987   5.751   4.299   3.866
   15CHTO  H188 5988   5.724   4.396   3.824
   15CHTO   O68 5989   5.729   4.306   4.021
   15CHTO  H168 5990   5.778   4.378   4.057
   15CHTO   C99 5991   5.659   4.188   3.797
   15CHTO  H186 5992   5.683   4.088   3.841
   15CHTO   N17 5993   5.511   4.210   3.818
   15CHTO  H174 5994   5.470   4.131   3.878
   15CHTO  H175 5995   5.493   4.307   3.863
   15CHTO   C97 5996   5.698   4.179   3.647
   15CHTO  H184 5997   5.682   4.278   3.601
   15CHTO   O64 5998   5.835   4.137   3.638
   15CHTO  C104 5999   5.928   4.236   3.686
   15CHTO  H191 6000   5.918   4.326   3.626
   15CHTO  C108 6001   6.073   4.188   3.666
   15CHTO   O71 6002   6.105   4.070   3.740
   15CHTO  H171 6003   6.105   4.089   3.832
   15CHTO   O62 6004   5.627   4.077   3.572
   15CHTO   C91 6005   5.524   4.123   3.482
   15CHTO  H178 6006   5.504   4.228   3.503
   15CHTO   C92 6007   5.390   4.048   3.514
   15CHTO  H179 6008   5.374   4.042   3.623
   15CHTO   O66 6009   5.283   4.129   3.464
   15CHTO  H166 6010   5.275   4.208   3.514
   15CHTO   C93 6011   5.377   3.907   3.446
   15CHTO  H180 6012   5.272   3.878   3.454
   15CHTO   N16 6013   5.449   3.799   3.518
   15CHTO  H172 6014   5.410   3.788   3.618
   15CHTO  H173 6015   5.555   3.821   3.521
   15CHTO   C94 6016   5.417   3.914   3.293
   15CHTO  H181 6017   5.501   3.849   3.268
   15CHTO   O61 6018   5.454   4.046   3.249
   15CHTO   C95 6019   5.558   4.109   3.326
   15CHTO  H182 6020   5.649   4.051   3.315
   15CHTO  C106 6021   5.589   4.250   3.265
   15CHTO   O69 6022   5.638   4.238   3.131
   15CHTO  H169 6023   5.655   4.323   3.096
   15CHTO   O63 6024   5.290   3.869   3.212
   15CHTO   C96 6025   5.317   3.818   3.067
   15CHTO  H183 6026   5.425   3.813   3.051
   15CHTO   C98 6027   5.255   3.910   2.958
   15CHTO  H185 6028   5.151   3.933   2.986
   15CHTO   O67 6029   5.325   4.035   2.962
   15CHTO  H167 6030   5.306   4.081   3.041
   15CHTO  C102 6031   5.260   3.845   2.811
   15CHTO  H189 6032   5.366   3.847   2.781
   15CHTO   N18 6033   5.188   3.923   2.707
   15CHTO  H176 6034   5.229   4.023   2.701
   15CHTO  H177 6035   5.197   3.874   2.611
   15CHTO  C105 6036   5.212   3.697   2.817
   15CHTO  H192 6037   5.105   3.695   2.838
   15CHTO   O65 6038   5.279   3.622   2.921
   15CHTO  C100 6039   5.259   3.672   3.054
   15CHTO  H187 6040   5.151   3.675   3.075
   15CHTO  C107 6041   5.325   3.576   3.155
   15CHTO   O70 6042   5.267   3.445   3.150
   15CHTO  H170 6043   5.309   3.389   3.212
   15CHTO   O57 6044   5.244   3.627   2.671
   15CHTO   C85 6045   5.183   3.500   2.641
   15CHTO  H157 6046   5.098   3.489   2.712
   15CHTO   C83 6047   5.283   3.384   2.676
   15CHTO  H155 6048   5.308   3.391   2.782
   15CHTO   O56 6049   5.405   3.400   2.602
   15CHTO  H135 6050   5.449   3.479   2.629
   15CHTO   C81 6051   5.213   3.248   2.649
   15CHTO  H153 6052   5.121   3.246   2.708
   15CHTO   N14 6053   5.291   3.132   2.698
   15CHTO  H141 6054   5.234   3.042   2.685
   15CHTO  H142 6055   5.314   3.143   2.801
   15CHTO   C79 6056   5.173   3.238   2.497
   15CHTO  H151 6057   5.116   3.146   2.485
   15CHTO   O52 6058   5.084   3.348   2.462
   15CHTO   C86 6059   5.137   3.482   2.490
   15CHTO  H158 6060   5.222   3.493   2.420
   15CHTO   C90 6061   5.031   3.586   2.447
   15CHTO   O60 6062   5.083   3.720   2.445
   15CHTO  H138 6063   5.146   3.728   2.376
   15CHTO   O50 6064   5.285   3.233   2.406
   15CHTO   C73 6065   5.289   3.205   2.265
   15CHTO  H145 6066   5.208   3.260   2.214
   15CHTO   C74 6067   5.268   3.053   2.239
   15CHTO  H146 6068   5.172   3.024   2.285
   15CHTO   O54 6069   5.253   3.034   2.097
   15CHTO  H133 6070   5.235   2.944   2.078
   15CHTO   C75 6071   5.390   2.972   2.301
   15CHTO  H147 6072   5.391   2.988   2.409
   15CHTO   N13 6073   5.379   2.824   2.284
   15CHTO  H139 6074   5.288   2.797   2.234
   15CHTO  H140 6075   5.463   2.785   2.228
   15CHTO   C76 6076   5.527   3.031   2.242
   15CHTO  H148 6077   5.529   3.010   2.135
   15CHTO   O49 6078   5.534   3.176   2.264
   15CHTO   C77 6079   5.426   3.250   2.206
   15CHTO  H149 6080   5.424   3.235   2.098
   15CHTO   C88 6081   5.450   3.400   2.227
   15CHTO   O58 6082   5.575   3.446   2.157
   15CHTO  H136 6083   5.651   3.407   2.198
   15CHTO   O51 6084   5.654   2.971   2.318
   15CHTO   C78 6085   5.788   3.003   2.241
   15CHTO  H150 6086   5.771   3.082   2.164
   15CHTO   C80 6087   5.840   2.876   2.171
   15CHTO  H152 6088   5.847   2.794   2.247
   15CHTO   O55 6089   5.741   2.838   2.073
   15CHTO  H134 6090   5.765   2.756   2.034
   15CHTO   C84 6091   5.982   2.898   2.105
   15CHTO  H156 6092   5.970   2.970   2.023
   15CHTO   N15 6093   6.039   2.773   2.043
   15CHTO  H143 6094   6.131   2.745   2.090
   15CHTO  H144 6095   5.970   2.692   2.050
   15CHTO   C87 6096   6.078   2.961   2.209
   15CHTO  H159 6097   6.099   2.888   2.288
   15CHTO   O53 6098   6.013   3.087   2.268
   15CHTO   C82 6099   5.893   3.058   2.340
   15CHTO  H154 6100   5.912   2.987   2.421
   15CHTO   C89 6101   5.848   3.191   2.406
   15CHTO   O59 6102   5.739   3.175   2.497
   15CHTO  H137 6103   5.767   3.126   2.572
   15CHTO   O45 6104   6.221   3.007   2.141
   15CHTO   C67 6105   6.313   3.063   2.236
   15CHTO  H124 6106   6.259   3.130   2.303
   15CHTO   C65 6107   6.383   2.952   2.322
   15CHTO  H122 6108   6.382   2.861   2.262
   15CHTO   O44 6109   6.299   2.932   2.437
   15CHTO  H102 6110   6.327   2.857   2.485
   15CHTO   C63 6111   6.536   2.980   2.349
   15CHTO  H120 6112   6.592   2.958   2.257
   15CHTO   N11 6113   6.604   2.889   2.447
   15CHTO  H108 6114   6.586   2.787   2.420
   15CHTO  H109 6115   6.567   2.907   2.545
   15CHTO   C61 6116   6.558   3.134   2.375
   15CHTO  H118 6117   6.666   3.150   2.382
   15CHTO   O40 6118   6.510   3.216   2.264
   15CHTO   C68 6119   6.421   3.155   2.165
   15CHTO  H125 6120   6.481   3.095   2.094
   15CHTO   C72 6121   6.354   3.268   2.084
   15CHTO   O48 6122   6.449   3.345   2.009
   15CHTO  H105 6123   6.404   3.411   1.961
   15CHTO   O38 6124   6.494   3.177   2.498
   15CHTO   C55 6125   6.514   3.314   2.539
   15CHTO  H112 6126   6.534   3.377   2.452
   15CHTO   C56 6127   6.629   3.325   2.648
   15CHTO  H113 6128   6.605   3.253   2.728
   15CHTO   O42 6129   6.753   3.282   2.590
   15CHTO  H100 6130   6.820   3.280   2.655
   15CHTO   C57 6131   6.637   3.472   2.706
   15CHTO  H114 6132   6.672   3.536   2.625
   15CHTO   N10 6133   6.736   3.486   2.817
   15CHTO  H106 6134   6.775   3.586   2.819
   15CHTO  H107 6135   6.690   3.464   2.912
   15CHTO   C58 6136   6.496   3.519   2.750
   15CHTO  H115 6137   6.463   3.459   2.838
   15CHTO   O37 6138   6.400   3.504   2.643
   15CHTO   C59 6139   6.381   3.368   2.600
   15CHTO  H116 6140   6.351   3.307   2.685
   15CHTO   C70 6141   6.266   3.365   2.499
   15CHTO   O46 6142   6.290   3.443   2.382
   15CHTO  H103 6143   6.217   3.436   2.323
   15CHTO   O39 6144   6.495   3.680   2.786
   15CHTO   C60 6145   6.416   3.710   2.903
   15CHTO  H117 6146   6.342   3.632   2.918
   15CHTO   C62 6147   6.505   3.717   3.030
   15CHTO  H119 6148   6.552   3.616   3.040
   15CHTO   O43 6149   6.610   3.815   3.012
   15CHTO  H101 6150   6.669   3.786   2.945
   15CHTO   C66 6151   6.413   3.745   3.158
   15CHTO  H123 6152   6.337   3.667   3.164
   15CHTO   N12 6153   6.488   3.736   3.286
   15CHTO  H110 6154   6.422   3.755   3.369
   15CHTO  H111 6155   6.535   3.639   3.294
   15CHTO   C69 6156   6.337   3.879   3.141
   15CHTO  H126 6157   6.409   3.964   3.139
   15CHTO   O41 6158   6.256   3.876   3.007
   15CHTO   C64 6159   6.338   3.843   2.884
   15CHTO  H121 6160   6.410   3.926   2.865
   15CHTO   C71 6161   6.242   3.834   2.762
   15CHTO   O47 6162   6.177   3.959   2.739
   15CHTO  H104 6163   6.118   3.950   2.666
   15CHTO   O34 6164   6.236   3.903   3.257
   15CHTO   C49 6165   6.147   4.012   3.315
   15CHTO   H91 6166   6.211   4.075   3.378
   15CHTO   C47 6167   6.040   3.943   3.401
   15CHTO   H89 6168   5.982   4.026   3.447
   15CHTO   O33 6169   6.100   3.866   3.506
   15CHTO   H70 6170   6.146   3.923   3.566
   15CHTO   C45 6171   5.944   3.851   3.309
   15CHTO   H87 6172   5.992   3.753   3.297
   15CHTO    N8 6173   5.814   3.831   3.378
   15CHTO   H75 6174   5.806   3.892   3.467
   15CHTO   H76 6175   5.801   3.727   3.405
   15CHTO   C43 6176   5.934   3.911   3.158
   15CHTO   H85 6177   6.015   3.863   3.103
   15CHTO   O29 6178   5.947   4.054   3.160
   15CHTO   C50 6179   6.074   4.100   3.209
   15CHTO   H92 6180   6.142   4.110   3.122
   15CHTO   C54 6181   6.057   4.247   3.255
   15CHTO   O36 6182   5.952   4.264   3.351
   15CHTO   H72 6183   5.975   4.222   3.431
   15CHTO   O27 6184   5.814   3.875   3.087
   15CHTO   C37 6185   5.791   3.795   2.971
   15CHTO   H79 6186   5.887   3.768   2.924
   15CHTO   C38 6187   5.719   3.663   3.009
   15CHTO   H80 6188   5.627   3.689   3.064
   15CHTO   O31 6189   5.806   3.590   3.097
   15CHTO   H68 6190   5.763   3.514   3.129
   15CHTO   C39 6191   5.682   3.580   2.880
   15CHTO   H81 6192   5.776   3.552   2.832
   15CHTO    N7 6193   5.606   3.453   2.909
   15CHTO   H73 6194   5.590   3.441   3.015
   15CHTO   H74 6195   5.660   3.368   2.870
   15CHTO   C40 6196   5.604   3.672   2.778
   15CHTO   H82 6197   5.506   3.693   2.821
   15CHTO   O26 6198   5.677   3.794   2.753
   15CHTO   C41 6199   5.707   3.876   2.869
   15CHTO   H83 6200   5.613   3.910   2.915
   15CHTO   C52 6201   5.782   4.000   2.814
   15CHTO   O35 6202   5.796   4.107   2.911
   15CHTO   H71 6203   5.841   4.179   2.871
   15CHTO   O28 6204   5.579   3.606   2.652
   15CHTO   C42 6205   5.647   3.628   2.524
   15CHTO   H84 6206   5.616   3.541   2.465
   15CHTO   C44 6207   5.804   3.625   2.526
   15CHTO   H86 6208   5.840   3.699   2.598
   15CHTO   O32 6209   5.844   3.495   2.573
   15CHTO   H69 6210   5.821   3.484   2.664
   15CHTO   C48 6211   5.867   3.660   2.385
   15CHTO   H90 6212   5.846   3.578   2.316
   15CHTO    N9 6213   6.017   3.670   2.391
   15CHTO   H77 6214   6.046   3.746   2.462
   15CHTO   H78 6215   6.059   3.575   2.420
   15CHTO   C51 6216   5.801   3.791   2.330
   15CHTO   H93 6217   5.821   3.872   2.401
   15CHTO   O30 6218   5.660   3.766   2.318
   15CHTO   C46 6219   5.594   3.754   2.450
   15CHTO   H88 6220   5.617   3.843   2.509
   15CHTO   C53 6221   5.442   3.745   2.426
   15CHTO   O72 6222   5.392   3.864   2.364
   15CHTO  H199 6223   5.299   3.856   2.350
   15CHTO   O22 6224   5.843   3.828   2.197
   15CHTO   C31 6225   5.827   3.968   2.149
   15CHTO   H59 6226   5.857   3.966   2.042
   15CHTO   C29 6227   5.682   4.022   2.155
   15CHTO   H57 6228   5.648   4.014   2.259
   15CHTO   O21 6229   5.600   3.934   2.077
   15CHTO   H37 6230   5.509   3.954   2.089
   15CHTO   C27 6231   5.670   4.173   2.109
   15CHTO   H55 6232   5.691   4.178   2.001
   15CHTO    N5 6233   5.534   4.228   2.133
   15CHTO   H43 6234   5.513   4.231   2.238
   15CHTO   H44 6235   5.527   4.328   2.091
   15CHTO   C25 6236   5.780   4.259   2.180
   15CHTO   H53 6237   5.759   4.263   2.288
   15CHTO   O17 6238   5.911   4.199   2.161
   15CHTO   C32 6239   5.925   4.068   2.219
   15CHTO   H60 6240   5.901   4.072   2.325
   15CHTO   C36 6241   6.072   4.022   2.203
   15CHTO   O25 6242   6.163   4.107   2.274
   15CHTO   H40 6243   6.150   4.097   2.367
   15CHTO   O15 6244   5.786   4.407   2.122
   15CHTO   C19 6245   5.814   4.536   2.185
   15CHTO   H47 6246   5.845   4.600   2.100
   15CHTO   C20 6247   5.691   4.602   2.255
   15CHTO   H48 6248   5.649   4.537   2.333
   15CHTO   O19 6249   5.591   4.619   2.153
   15CHTO   H35 6250   5.511   4.651   2.191
   15CHTO   C21 6251   5.731   4.741   2.321
   15CHTO   H49 6252   5.764   4.809   2.243
   15CHTO    N4 6253   5.618   4.808   2.391
   15CHTO   H41 6254   5.539   4.830   2.320
   15CHTO   H42 6255   5.579   4.744   2.468
   15CHTO   C22 6256   5.852   4.716   2.415
   15CHTO   H50 6257   5.822   4.647   2.493
   15CHTO   O14 6258   5.961   4.661   2.339
   15CHTO   C23 6259   5.936   4.532   2.282
   15CHTO   H51 6260   5.920   4.462   2.365
   15CHTO   C34 6261   6.064   4.489   2.208
   15CHTO   O23 6262   6.175   4.472   2.297
   15CHTO   H38 6263   6.159   4.397   2.352
   15CHTO   O16 6264   5.908   4.837   2.471
   15CHTO   C24 6265   5.959   4.819   2.625
   15CHTO   H52 6266   5.941   4.718   2.663
   15CHTO   C26 6267   5.886   4.921   2.715
   15CHTO   H54 6268   5.905   5.023   2.675
   15CHTO   O20 6269   5.745   4.896   2.707
   15CHTO   H36 6270   5.724   4.811   2.742
   15CHTO   C30 6271   5.939   4.915   2.862
   15CHTO   H58 6272   5.910   4.819   2.907
   15CHTO    N6 6273   5.879   5.020   2.948
   15CHTO   H45 6274   5.915   5.011   3.049
   15CHTO   H46 6275   5.904   5.118   2.910
   15CHTO   C33 6276   6.095   4.919   2.865
   15CHTO   H61 6277   6.130   5.019   2.837
   15CHTO   O18 6278   6.150   4.824   2.772
   15CHTO   C28 6279   6.112   4.843   2.635
   15CHTO   H56 6280   6.134   4.945   2.603
   15CHTO   C35 6281   6.192   4.743   2.548
   15CHTO   O24 6282   6.333   4.766   2.555
   15CHTO   H39 6283   6.377   4.705   2.499
   15CHTO    O9 6284   6.146   4.896   2.999
   15CHTO   C13 6285   6.291   4.958   3.026
   15CHTO   H26 6286   6.289   5.064   2.993
   15CHTO   C11 6287   6.402   4.875   2.949
   15CHTO   H24 6288   6.389   4.893   2.841
   15CHTO    O8 6289   6.386   4.734   2.971
   15CHTO    H3 6290   6.304   4.704   2.936
   15CHTO    C9 6291   6.541   4.931   2.991
   15CHTO   H22 6292   6.535   5.039   2.974
   15CHTO    N2 6293   6.652   4.885   2.905
   15CHTO   H10 6294   6.743   4.938   2.931
   15CHTO   H11 6295   6.667   4.779   2.917
   15CHTO    C7 6296   6.562   4.906   3.145
   15CHTO   H20 6297   6.656   4.959   3.168
   15CHTO    O4 6298   6.457   4.968   3.224
   15CHTO   C14 6299   6.319   4.965   3.183
   15CHTO   H27 6300   6.280   5.063   3.217
   15CHTO   C18 6301   6.243   4.857   3.265
   15CHTO   O13 6302   6.292   4.724   3.247
   15CHTO    H7 6303   6.275   4.696   3.159
   15CHTO    O2 6304   6.576   4.744   3.189
   15CHTO    C1 6305   6.710   4.706   3.228
   15CHTO   H14 6306   6.781   4.788   3.204
   15CHTO    C2 6307   6.761   4.574   3.156
   15CHTO   H15 6308   6.692   4.493   3.186
   15CHTO    O6 6309   6.754   4.593   3.014
   15CHTO    H1 6310   6.776   4.513   2.970
   15CHTO    C3 6311   6.910   4.542   3.205
   15CHTO   H16 6312   6.976   4.625   3.174
   15CHTO    N1 6313   6.966   4.417   3.144
   15CHTO    H8 6314   6.904   4.332   3.170
   15CHTO    H9 6315   6.971   4.427   3.037
   15CHTO    C4 6316   6.915   4.540   3.363
   15CHTO   H17 6317   6.862   4.451   3.399
   15CHTO    O1 6318   6.857   4.659   3.418
   15CHTO    C5 6319   6.720   4.683   3.382
   15CHTO   H18 6320   6.659   4.596   3.408
   15CHTO   C16 6321   6.674   4.804   3.466
   15CHTO   O11 6322   6.531   4.814   3.471
   15CHTO    H5 6323   6.507   4.889   3.522
   15CHTO    O3 6324   7.052   4.540   3.411
   15CHTO    C6 6325   7.077   4.470   3.537
   15CHTO   H19 6326   6.987   4.460   3.598
   15CHTO    C8 6327   7.133   4.326   3.508
   15CHTO   H21 6328   7.214   4.335   3.436
   15CHTO    O7 6329   7.027   4.248   3.451
   15CHTO    H2 6330   6.956   4.238   3.512
   15CHTO   C12 6331   7.190   4.258   3.640
   15CHTO   H25 6332   7.103   4.237   3.704
   15CHTO    N3 6333   7.255   4.126   3.610
   15CHTO   H12 6334   7.290   4.081   3.702
   15CHTO   H13 6335   7.337   4.139   3.541
   15CHTO   C15 6336   7.285   4.358   3.715
   15CHTO   H28 6337   7.377   4.377   3.659
   15CHTO   O10 6338   7.321   4.312   3.859
   15CHTO    H4 6339   7.371   4.233   3.855
   15CHTO    O5 6340   7.217   4.482   3.740
   15CHTO   C10 6341   7.179   4.552   3.621
   15CHTO   H23 6342   7.269   4.571   3.561
   15CHTO   C17 6343   7.122   4.689   3.661
   15CHTO   O12 6344   7.221   4.772   3.722
   15CHTO    H6 6345   7.284   4.799   3.659
   16CHTO  H203 6346   5.183   4.363   2.413
   16CHTO   O82 6347   5.228   4.445   2.426
   16CHTO  C123 6348   5.309   4.439   2.544
   16CHTO  H227 6349   5.251   4.394   2.626
   16CHTO   O77 6350   5.419   4.350   2.506
   16CHTO  C118 6351   5.508   4.317   2.614
   16CHTO  H222 6352   5.452   4.270   2.696
   16CHTO  C125 6353   5.612   4.214   2.558
   16CHTO   O84 6354   5.548   4.092   2.520
   16CHTO  H205 6355   5.612   4.031   2.489
   16CHTO  C114 6356   5.579   4.444   2.664
   16CHTO  H218 6357   5.644   4.482   2.585
   16CHTO  C116 6358   5.477   4.557   2.700
   16CHTO  H220 6359   5.427   4.530   2.795
   16CHTO   O79 6360   5.552   4.677   2.727
   16CHTO  H201 6361   5.495   4.745   2.755
   16CHTO  C120 6362   5.369   4.579   2.586
   16CHTO  H224 6363   5.423   4.623   2.500
   16CHTO   N21 6364   5.264   4.675   2.627
   16CHTO  H211 6365   5.304   4.749   2.695
   16CHTO  H212 6366   5.221   4.723   2.540
   16CHTO   O75 6367   5.656   4.401   2.778
   16CHTO  C112 6368   5.809   4.458   2.781
   16CHTO  H216 6369   5.812   4.556   2.730
   16CHTO   O73 6370   5.892   4.361   2.715
   16CHTO  C113 6371   6.032   4.392   2.710
   16CHTO  H217 6372   6.047   4.488   2.657
   16CHTO  C124 6373   6.102   4.282   2.628
   16CHTO   O83 6374   6.049   4.271   2.495
   16CHTO  H204 6375   6.093   4.203   2.450
   16CHTO  C109 6376   6.090   4.401   2.855
   16CHTO  H213 6377   6.071   4.303   2.903
   16CHTO  C110 6378   6.011   4.512   2.931
   16CHTO  H214 6379   6.027   4.608   2.881
   16CHTO   O78 6380   6.065   4.525   3.064
   16CHTO  H200 6381   6.052   4.445   3.113
   16CHTO  C111 6382   5.859   4.477   2.931
   16CHTO  H215 6383   5.845   4.381   2.983
   16CHTO   N19 6384   5.774   4.577   3.001
   16CHTO  H207 6385   5.782   4.673   2.954
   16CHTO  H208 6386   5.671   4.544   3.002
   16CHTO   O74 6387   6.234   4.428   2.855
   16CHTO  C115 6388   6.321   4.301   2.918
   16CHTO  H219 6389   6.259   4.237   2.981
   16CHTO   O76 6390   6.378   4.202   2.801
   16CHTO  C122 6391   6.514   4.229   2.765
   16CHTO  H226 6392   6.519   4.333   2.731
   16CHTO  C126 6393   6.553   4.142   2.640
   16CHTO   O85 6394   6.548   4.001   2.663
   16CHTO  H206 6395   6.613   3.976   2.726
   16CHTO  C121 6396   6.613   4.209   2.888
   16CHTO  H225 6397   6.649   4.104   2.888
   16CHTO   O81 6398   6.726   4.295   2.872
   16CHTO  H202 6399   6.700   4.385   2.873
   16CHTO  C119 6400   6.542   4.237   3.025
   16CHTO  H223 6401   6.482   4.148   3.044
   16CHTO  C117 6402   6.440   4.356   3.008
   16CHTO  H221 6403   6.477   4.445   2.957
   16CHTO   N20 6404   6.387   4.405   3.139
   16CHTO  H209 6405   6.339   4.325   3.193
   16CHTO  H210 6406   6.467   4.447   3.198
   16CHTO   O80 6407   6.644   4.236   3.152
   16CHTO  C103 6408   6.690   4.096   3.212
   16CHTO  H190 6409   6.629   4.016   3.170
   16CHTO  C101 6410   6.841   4.059   3.192
   16CHTO  H188 6411   6.903   4.139   3.232
   16CHTO   O68 6412   6.869   4.044   3.041
   16CHTO  H168 6413   6.961   4.030   3.027
   16CHTO   C99 6414   6.877   3.924   3.272
   16CHTO  H186 6415   6.820   3.840   3.226
   16CHTO   N17 6416   7.022   3.887   3.267
   16CHTO  H174 6417   7.038   3.792   3.314
   16CHTO  H175 6418   7.056   3.886   3.164
   16CHTO   C97 6419   6.826   3.933   3.419
   16CHTO  H184 6420   6.891   4.004   3.473
   16CHTO   O64 6421   6.688   3.973   3.424
   16CHTO  C104 6422   6.660   4.102   3.366
   16CHTO  H191 6423   6.720   4.181   3.411
   16CHTO  C108 6424   6.513   4.138   3.395
   16CHTO   O71 6425   6.489   4.150   3.535
   16CHTO  H171 6426   6.399   4.171   3.550
   16CHTO   O62 6427   6.827   3.804   3.485
   16CHTO   C91 6428   6.849   3.806   3.627
   16CHTO  H178 6429   6.933   3.872   3.646
   16CHTO   C92 6430   6.895   3.663   3.675
   16CHTO  H179 6431   6.970   3.623   3.605
   16CHTO   O66 6432   6.965   3.680   3.799
   16CHTO  H166 6433   7.006   3.600   3.825
   16CHTO   C93 6434   6.777   3.560   3.700
   16CHTO  H180 6435   6.814   3.485   3.771
   16CHTO   N16 6436   6.740   3.483   3.579
   16CHTO  H172 6437   6.704   3.550   3.502
   16CHTO  H173 6438   6.664   3.410   3.603
   16CHTO   C94 6439   6.651   3.632   3.764
   16CHTO  H181 6440   6.572   3.650   3.690
   16CHTO   O61 6441   6.687   3.761   3.816
   16CHTO   C95 6442   6.723   3.855   3.713
   16CHTO  H182 6443   6.637   3.869   3.647
   16CHTO  C106 6444   6.748   3.992   3.784
   16CHTO   O69 6445   6.772   4.098   3.691
   16CHTO  H169 6446   6.853   4.084   3.647
   16CHTO   O63 6447   6.593   3.547   3.885
   16CHTO   C96 6448   6.435   3.567   3.899
   16CHTO  H183 6449   6.391   3.530   3.807
   16CHTO   C98 6450   6.387   3.716   3.918
   16CHTO  H185 6451   6.441   3.783   3.850
   16CHTO   O67 6452   6.250   3.724   3.878
   16CHTO  H167 6453   6.241   3.708   3.786
   16CHTO  C102 6454   6.398   3.767   4.069
   16CHTO  H189 6455   6.340   3.859   4.072
   16CHTO   N18 6456   6.533   3.805   4.114
   16CHTO  H176 6457   6.600   3.721   4.106
   16CHTO  H177 6458   6.570   3.887   4.054
   16CHTO  C105 6459   6.330   3.662   4.165
   16CHTO  H192 6460   6.403   3.626   4.238
   16CHTO   O65 6461   6.281   3.545   4.097
   16CHTO  C100 6462   6.382   3.477   4.020
   16CHTO  H187 6463   6.466   3.454   4.086
   16CHTO  C107 6464   6.322   3.343   3.971
   16CHTO   O70 6465   6.423   3.264   3.907
   16CHTO  H170 6466   6.386   3.181   3.882
   16CHTO   O57 6467   6.208   3.741   4.249
   16CHTO   C85 6468   6.112   3.829   4.189
   16CHTO  H157 6469   6.126   3.821   4.079
   16CHTO   C83 6470   6.146   3.976   4.227
   16CHTO  H155 6471   6.250   3.996   4.199
   16CHTO   O56 6472   6.139   3.994   4.370
   16CHTO  H135 6473   6.205   3.942   4.412
   16CHTO   C81 6474   6.054   4.069   4.145
   16CHTO  H153 6475   6.065   4.044   4.039
   16CHTO   N14 6476   6.095   4.212   4.152
   16CHTO  H141 6477   6.131   4.246   4.057
   16CHTO  H142 6478   6.171   4.227   4.225
   16CHTO   C79 6479   5.902   4.044   4.183
   16CHTO  H151 6480   5.842   4.094   4.108
   16CHTO   O52 6481   5.867   3.902   4.174
   16CHTO   C86 6482   5.961   3.804   4.230
   16CHTO  H158 6483   5.946   3.811   4.340
   16CHTO   C90 6484   5.915   3.662   4.190
   16CHTO   O60 6485   5.985   3.560   4.261
   16CHTO  H138 6486   5.955   3.476   4.234
   16CHTO   O50 6487   5.862   4.098   4.311
   16CHTO   C73 6488   5.817   4.101   4.447
   16CHTO  H145 6489   5.898   4.068   4.514
   16CHTO   C74 6490   5.695   4.005   4.465
   16CHTO  H146 6491   5.728   3.905   4.431
   16CHTO   O54 6492   5.668   3.992   4.606
   16CHTO  H133 6493   5.598   3.932   4.621
   16CHTO   C75 6494   5.572   4.058   4.381
   16CHTO  H147 6495   5.600   4.056   4.275
   16CHTO   N13 6496   5.449   3.975   4.393
   16CHTO  H139 6497   5.466   3.891   4.459
   16CHTO  H140 6498   5.420   3.938   4.296
   16CHTO   C76 6499   5.543   4.211   4.419
   16CHTO  H148 6500   5.509   4.215   4.522
   16CHTO   O49 6501   5.664   4.292   4.406
   16CHTO   C77 6502   5.772   4.245   4.488
   16CHTO  H149 6503   5.738   4.242   4.592
   16CHTO   C88 6504   5.887   4.347   4.488
   16CHTO   O58 6505   5.920   4.397   4.353
   16CHTO  H136 6506   5.849   4.448   4.320
   16CHTO   O51 6507   5.434   4.278   4.317
   16CHTO   C78 6508   5.385   4.424   4.364
   16CHTO  H150 6509   5.465   4.475   4.423
   16CHTO   C80 6510   5.258   4.416   4.451
   16CHTO  H152 6511   5.176   4.372   4.390
   16CHTO   O55 6512   5.285   4.329   4.562
   16CHTO  H134 6513   5.295   4.240   4.532
   16CHTO   C84 6514   5.213   4.559   4.501
   16CHTO  H156 6515   5.293   4.597   4.565
   16CHTO   N15 6516   5.087   4.557   4.583
   16CHTO  H143 6517   5.102   4.494   4.669
   16CHTO  H144 6518   5.063   4.656   4.616
   16CHTO   C87 6519   5.199   4.656   4.381
   16CHTO  H159 6520   5.108   4.633   4.324
   16CHTO   O53 6521   5.326   4.645   4.283
   16CHTO   C82 6522   5.356   4.511   4.241
   16CHTO  H154 6523   5.273   4.470   4.183
   16CHTO   C89 6524   5.479   4.514   4.146
   16CHTO   O59 6525   5.450   4.586   4.025
   16CHTO  H137 6526   5.389   4.538   3.973
   16CHTO   O45 6527   5.183   4.815   4.439
   16CHTO   C67 6528   5.295   4.903   4.419
   16CHTO  H124 6529   5.380   4.848   4.378
   16CHTO   C65 6530   5.256   5.017   4.318
   16CHTO  H122 6531   5.149   5.036   4.333
   16CHTO   O44 6532   5.276   4.962   4.187
   16CHTO  H102 6533   5.214   4.893   4.170
   16CHTO   C63 6534   5.326   5.155   4.352
   16CHTO  H120 6535   5.272   5.201   4.435
   16CHTO   N11 6536   5.317   5.262   4.248
   16CHTO  H108 6537   5.355   5.354   4.287
   16CHTO  H109 6538   5.215   5.276   4.219
   16CHTO   C61 6539   5.472   5.126   4.404
   16CHTO  H118 6540   5.516   5.223   4.430
   16CHTO   O40 6541   5.471   5.045   4.527
   16CHTO   C68 6542   5.349   4.966   4.554
   16CHTO  H125 6543   5.272   5.034   4.597
   16CHTO   C72 6544   5.381   4.860   4.661
   16CHTO   O48 6545   5.403   4.917   4.790
   16CHTO  H105 6546   5.483   4.966   4.790
   16CHTO   O38 6547   5.551   5.060   4.303
   16CHTO   C55 6548   5.694   5.067   4.316
   16CHTO  H112 6549   5.722   5.083   4.421
   16CHTO   C56 6550   5.751   5.180   4.221
   16CHTO  H113 6551   5.710   5.162   4.120
   16CHTO   O42 6552   5.701   5.309   4.262
   16CHTO  H100 6553   5.730   5.329   4.349
   16CHTO   C57 6554   5.909   5.177   4.217
   16CHTO  H114 6555   5.944   5.204   4.317
   16CHTO   N10 6556   5.970   5.272   4.121
   16CHTO  H106 6557   5.904   5.287   4.036
   16CHTO  H107 6558   5.987   5.367   4.169
   16CHTO   C58 6559   5.955   5.032   4.187
   16CHTO  H115 6560   5.922   5.004   4.084
   16CHTO   O37 6561   5.899   4.939   4.281
   16CHTO   C59 6562   5.756   4.930   4.276
   16CHTO  H116 6563   5.725   4.901   4.175
   16CHTO   C70 6564   5.710   4.820   4.373
   16CHTO   O46 6565   5.756   4.690   4.336
   16CHTO  H103 6566   5.715   4.662   4.256
   16CHTO   O39 6567   6.117   5.013   4.200
   16CHTO   C60 6568   6.172   4.929   4.097
   16CHTO  H117 6569   6.095   4.862   4.060
   16CHTO   C62 6570   6.222   5.014   3.976
   16CHTO  H119 6571   6.132   5.067   3.937
   16CHTO   O43 6572   6.316   5.114   4.021
   16CHTO  H101 6573   6.393   5.072   4.055
   16CHTO   C66 6574   6.280   4.917   3.862
   16CHTO  H123 6575   6.204   4.843   3.837
   16CHTO   N12 6576   6.310   4.989   3.736
   16CHTO  H110 6577   6.348   4.920   3.662
   16CHTO  H111 6578   6.221   5.038   3.700
   16CHTO   C69 6579   6.403   4.842   3.920
   16CHTO  H126 6580   6.479   4.915   3.953
   16CHTO   O41 6581   6.355   4.757   4.042
   16CHTO   C64 6582   6.287   4.840   4.153
   16CHTO  H121 6583   6.363   4.906   4.202
   16CHTO   C71 6584   6.234   4.742   4.261
   16CHTO   O47 6585   6.140   4.647   4.208
   16CHTO  H104 6586   6.061   4.692   4.183
   16CHTO   O34 6587   6.470   4.744   3.815
   16CHTO   C49 6588   6.605   4.665   3.818
   16CHTO   H91 6589   6.668   4.708   3.740
   16CHTO   C47 6590   6.576   4.517   3.787
   16CHTO   H89 6591   6.674   4.466   3.777
   16CHTO   O33 6592   6.508   4.510   3.660
   16CHTO   H70 6593   6.496   4.421   3.635
   16CHTO   C45 6594   6.492   4.454   3.909
   16CHTO   H87 6595   6.402   4.514   3.924
   16CHTO    N8 6596   6.450   4.314   3.883
   16CHTO   H75 6597   6.536   4.250   3.872
   16CHTO   H76 6598   6.390   4.309   3.793
   16CHTO   C43 6599   6.577   4.469   4.045
   16CHTO   H85 6600   6.511   4.435   4.125
   16CHTO   O29 6601   6.618   4.606   4.065
   16CHTO   C50 6602   6.678   4.677   3.955
   16CHTO   H92 6603   6.679   4.784   3.982
   16CHTO   C54 6604   6.830   4.645   3.940
   16CHTO   O36 6605   6.903   4.672   4.059
   16CHTO   H72 6606   6.878   4.612   4.127
   16CHTO   O27 6607   6.692   4.383   4.048
   16CHTO   C37 6608   6.783   4.319   4.139
   16CHTO   H79 6609   6.852   4.393   4.182
   16CHTO   C38 6610   6.707   4.252   4.257
   16CHTO   H80 6611   6.624   4.192   4.215
   16CHTO   O31 6612   6.650   4.356   4.338
   16CHTO   H68 6613   6.717   4.408   4.378
   16CHTO   C39 6614   6.800   4.156   4.342
   16CHTO   H81 6615   6.872   4.219   4.395
   16CHTO    N7 6616   6.724   4.078   4.446
   16CHTO   H73 6617   6.793   4.017   4.503
   16CHTO   H74 6618   6.650   4.016   4.398
   16CHTO   C40 6619   6.882   4.061   4.246
   16CHTO   H82 6620   6.812   3.991   4.199
   16CHTO   O26 6621   6.953   4.139   4.150
   16CHTO   C41 6622   6.864   4.213   4.061
   16CHTO   H83 6623   6.793   4.142   4.015
   16CHTO   C52 6624   6.948   4.274   3.946
   16CHTO   O35 6625   7.050   4.365   3.990
   16CHTO   H71 6626   7.097   4.398   3.916
   16CHTO   O28 6627   6.989   3.990   4.313
   16CHTO   C42 6628   7.001   3.844   4.320
   16CHTO   H84 6629   7.107   3.827   4.300
   16CHTO   C44 6630   6.924   3.758   4.213
   16CHTO   H86 6631   6.817   3.780   4.221
   16CHTO   O32 6632   6.970   3.799   4.083
   16CHTO   H69 6633   6.940   3.887   4.064
   16CHTO   C48 6634   6.941   3.602   4.235
   16CHTO   H90 6635   7.044   3.576   4.211
   16CHTO    N9 6636   6.856   3.520   4.140
   16CHTO   H77 6637   6.798   3.584   4.075
   16CHTO   H78 6638   6.791   3.453   4.194
   16CHTO   C51 6639   6.913   3.568   4.386
   16CHTO   H93 6640   6.809   3.593   4.407
   16CHTO   O30 6641   7.004   3.645   4.466
   16CHTO   C46 6642   6.973   3.790   4.464
   16CHTO   H88 6643   6.867   3.804   4.489
   16CHTO   C53 6644   7.062   3.854   4.572
   16CHTO   O72 6645   7.027   3.991   4.598
   16CHTO  H199 6646   7.047   4.044   4.524
   16CHTO   O22 6647   6.940   3.430   4.420
   16CHTO   C31 6648   6.874   3.368   4.537
   16CHTO   H59 6649   6.921   3.268   4.548
   16CHTO   C29 6650   6.898   3.443   4.671
   16CHTO   H57 6651   6.870   3.548   4.654
   16CHTO   O21 6652   7.040   3.441   4.698
   16CHTO   H37 6653   7.086   3.489   4.632
   16CHTO   C27 6654   6.813   3.387   4.791
   16CHTO   H55 6655   6.848   3.285   4.815
   16CHTO    N5 6656   6.825   3.471   4.913
   16CHTO   H43 6657   6.928   3.477   4.943
   16CHTO   H44 6658   6.766   3.428   4.993
   16CHTO   C25 6659   6.664   3.374   4.743
   16CHTO   H53 6660   6.626   3.474   4.715
   16CHTO   O17 6661   6.658   3.286   4.627
   16CHTO   C32 6662   6.722   3.341   4.512
   16CHTO   H60 6663   6.674   3.435   4.485
   16CHTO   C36 6664   6.703   3.242   4.394
   16CHTO   O25 6665   6.564   3.230   4.360
   16CHTO   H40 6666   6.555   3.169   4.289
   16CHTO   O15 6667   6.573   3.315   4.845
   16CHTO   C19 6668   6.486   3.329   4.961
   16CHTO   H47 6669   6.548   3.385   5.034
   16CHTO   C20 6670   6.356   3.410   4.933
   16CHTO   H48 6671   6.300   3.368   4.848
   16CHTO   O19 6672   6.397   3.543   4.897
   16CHTO   H35 6673   6.324   3.594   4.870
   16CHTO   C21 6674   6.259   3.413   5.059
   16CHTO   H49 6675   6.307   3.471   5.138
   16CHTO    N4 6676   6.128   3.478   5.031
   16CHTO   H41 6677   6.122   3.512   4.929
   16CHTO   H42 6678   6.114   3.563   5.097
   16CHTO   C22 6679   6.242   3.269   5.113
   16CHTO   H50 6680   6.191   3.208   5.038
   16CHTO   O14 6681   6.371   3.212   5.142
   16CHTO   C23 6682   6.455   3.192   5.028
   16CHTO   H51 6683   6.403   3.124   4.959
   16CHTO   C34 6684   6.581   3.121   5.078
   16CHTO   O23 6685   6.672   3.087   4.973
   16CHTO   H38 6686   6.748   3.046   5.010
   16CHTO   O16 6687   6.170   3.265   5.238
   16CHTO   C24 6688   6.135   3.118   5.289
   16CHTO   H52 6689   6.193   3.042   5.235
   16CHTO   C26 6690   5.985   3.091   5.269
   16CHTO   H54 6691   5.928   3.176   5.313
   16CHTO   O20 6692   5.958   3.088   5.127
   16CHTO   H36 6693   5.969   3.174   5.090
   16CHTO   C30 6694   5.940   2.960   5.340
   16CHTO   H58 6695   5.986   2.873   5.291
   16CHTO    N6 6696   5.792   2.940   5.330
   16CHTO   H45 6697   5.746   2.937   5.428
   16CHTO   H46 6698   5.770   2.848   5.279
   16CHTO   C33 6699   5.991   2.961   5.488
   16CHTO   H61 6700   5.945   3.045   5.542
   16CHTO   O18 6701   6.134   2.980   5.486
   16CHTO   C28 6702   6.175   3.108   5.438
   16CHTO   H56 6703   6.127   3.189   5.493
   16CHTO   C35 6704   6.328   3.120   5.454
   16CHTO   O24 6705   6.370   3.108   5.590
   16CHTO   H39 6706   6.463   3.115   5.595
   16CHTO    O9 6707   5.956   2.842   5.562
   16CHTO   C13 6708   5.934   2.868   5.721
   16CHTO   H26 6709   5.842   2.929   5.732
   16CHTO   C11 6710   6.059   2.940   5.788
   16CHTO   H24 6711   6.069   3.040   5.743
   16CHTO    O8 6712   6.181   2.869   5.759
   16CHTO    H3 6713   6.179   2.783   5.796
   16CHTO    C9 6714   6.029   2.956   5.939
   16CHTO   H22 6715   5.933   3.010   5.944
   16CHTO    N2 6716   6.124   3.043   6.012
   16CHTO   H10 6717   6.222   2.998   6.013
   16CHTO   H11 6718   6.128   3.141   5.966
   16CHTO    C7 6719   6.011   2.815   6.004
   16CHTO   H20 6720   5.974   2.838   6.105
   16CHTO    O4 6721   5.910   2.736   5.937
   16CHTO   C14 6722   5.902   2.731   5.793
   16CHTO   H27 6723   5.796   2.707   5.770
   16CHTO   C18 6724   5.986   2.613   5.739
   16CHTO   O13 6725   5.935   2.487   5.783
   16CHTO    H7 6726   5.852   2.470   5.742
   16CHTO    O2 6727   6.153   2.730   6.008
   16CHTO    C1 6728   6.167   2.627   6.108
   16CHTO   H14 6729   6.082   2.556   6.098
   16CHTO    C2 6730   6.172   2.679   6.259
   16CHTO   H15 6731   6.241   2.764   6.259
   16CHTO    O6 6732   6.041   2.724   6.297
   16CHTO    H1 6733   6.017   2.800   6.248
   16CHTO    C3 6734   6.222   2.566   6.361
   16CHTO   H16 6735   6.142   2.491   6.373
   16CHTO    N1 6736   6.248   2.623   6.498
   16CHTO    H8 6737   6.326   2.697   6.493
   16CHTO    H9 6738   6.277   2.544   6.566
   16CHTO    C4 6739   6.346   2.487   6.304
   16CHTO   H17 6740   6.433   2.553   6.304
   16CHTO    O1 6741   6.317   2.441   6.171
   16CHTO    C5 6742   6.296   2.546   6.076
   16CHTO   H18 6743   6.380   2.616   6.081
   16CHTO   C16 6744   6.294   2.483   5.935
   16CHTO   O11 6745   6.192   2.383   5.922
   16CHTO    H5 6746   6.194   2.347   5.836
   16CHTO    O3 6747   6.373   2.370   6.385
   16CHTO    C6 6748   6.483   2.283   6.344
   16CHTO   H19 6749   6.504   2.287   6.237
   16CHTO    C8 6750   6.615   2.319   6.420
   16CHTO   H21 6751   6.591   2.328   6.527
   16CHTO    O7 6752   6.660   2.447   6.371
   16CHTO    H2 6753   6.601   2.515   6.398
   16CHTO   C12 6754   6.725   2.207   6.401
   16CHTO   H25 6755   6.757   2.212   6.295
   16CHTO    N3 6756   6.847   2.235   6.485
   16CHTO   H12 6757   6.820   2.239   6.590
   16CHTO   H13 6758   6.892   2.329   6.455
   16CHTO   C15 6759   6.664   2.065   6.428
   16CHTO   H28 6760   6.638   2.052   6.533
   16CHTO   O10 6761   6.757   1.949   6.383
   16CHTO    H4 6762   6.722   1.867   6.410
   16CHTO    O5 6763   6.548   2.045   6.346
   16CHTO   C10 6764   6.441   2.136   6.375
   16CHTO   H23 6765   6.415   2.127   6.481
   16CHTO   C17 6766   6.317   2.095   6.294
   16CHTO   O12 6767   6.269   1.966   6.334
   16CHTO    H6 6768   6.231   1.972   6.420
   17CHTO  H203 6769   6.210   5.369   7.023
   17CHTO   O82 6770   6.285   5.426   7.027
   17CHTO  C123 6771   6.268   5.525   7.129
   17CHTO  H227 6772   6.360   5.587   7.134
   17CHTO   O77 6773   6.157   5.607   7.081
   17CHTO  C118 6774   6.124   5.721   7.163
   17CHTO  H222 6775   6.212   5.786   7.171
   17CHTO  C125 6776   6.008   5.800   7.092
   17CHTO   O84 6777   6.051   5.856   6.967
   17CHTO  H205 6778   5.981   5.904   6.928
   17CHTO  C114 6779   6.081   5.672   7.302
   17CHTO  H218 6780   5.995   5.606   7.291
   17CHTO  C116 6781   6.191   5.582   7.368
   17CHTO  H220 6782   6.281   5.645   7.391
   17CHTO   O79 6783   6.140   5.534   7.493
   17CHTO  H201 6784   6.207   5.486   7.539
   17CHTO  C120 6785   6.233   5.465   7.270
   17CHTO  H224 6786   6.144   5.398   7.261
   17CHTO   N21 6787   6.344   5.383   7.325
   17CHTO  H211 6788   6.410   5.443   7.387
   17CHTO  H212 6789   6.305   5.301   7.383
   17CHTO   O75 6790   6.041   5.788   7.378
   17CHTO  C112 6791   6.163   5.883   7.440
   17CHTO  H216 6792   6.245   5.889   7.367
   17CHTO   O73 6793   6.207   5.823   7.563
   17CHTO  C113 6794   6.321   5.888   7.621
   17CHTO  H217 6795   6.402   5.893   7.545
   17CHTO  C124 6796   6.374   5.802   7.737
   17CHTO   O83 6797   6.280   5.783   7.844
   17CHTO  H204 6798   6.266   5.864   7.889
   17CHTO  C109 6799   6.282   6.032   7.665
   17CHTO  H213 6800   6.207   6.022   7.745
   17CHTO  C110 6801   6.222   6.110   7.544
   17CHTO  H214 6802   6.303   6.132   7.475
   17CHTO   O78 6803   6.172   6.237   7.591
   17CHTO  H200 6804   6.103   6.224   7.654
   17CHTO  C111 6805   6.111   6.029   7.471
   17CHTO  H215 6806   6.024   6.020   7.538
   17CHTO   N19 6807   6.063   6.094   7.346
   17CHTO  H207 6808   5.985   6.034   7.301
   17CHTO  H208 6809   6.024   6.192   7.369
   17CHTO   O74 6810   6.400   6.100   7.720
   17CHTO  C115 6811   6.369   6.186   7.852
   17CHTO  H219 6812   6.263   6.211   7.860
   17CHTO   O76 6813   6.401   6.104   7.983
   17CHTO  C122 6814   6.542   6.096   8.010
   17CHTO  H226 6815   6.589   6.050   7.923
   17CHTO  C126 6816   6.567   5.997   8.129
   17CHTO   O85 6817   6.528   5.863   8.099
   17CHTO  H206 6818   6.586   5.826   8.035
   17CHTO  C121 6819   6.605   6.238   8.039
   17CHTO  H225 6820   6.614   6.252   8.149
   17CHTO   O81 6821   6.736   6.241   7.982
   17CHTO  H202 6822   6.782   6.318   8.010
   17CHTO  C119 6823   6.518   6.355   7.981
   17CHTO  H223 6824   6.435   6.368   8.051
   17CHTO  C117 6825   6.456   6.319   7.841
   17CHTO  H221 6826   6.529   6.298   7.763
   17CHTO   N20 6827   6.371   6.430   7.786
   17CHTO  H209 6828   6.415   6.470   7.695
   17CHTO  H210 6829   6.358   6.509   7.859
   17CHTO   O80 6830   6.591   6.497   7.990
   17CHTO  C103 6831   6.600   6.571   8.123
   17CHTO  H190 6832   6.531   6.529   0.008
   17CHTO  C101 6833   6.744   6.577   8.187
   17CHTO  H188 6834   6.816   6.598   8.108
   17CHTO   O68 6835   6.778   6.436   0.058
   17CHTO  H168 6836   6.720   6.417   0.130
   17CHTO   C99 6837   6.755   6.693   0.109
   17CHTO  H186 6838   6.686   6.669   0.193
   17CHTO   N17 6839   6.893   6.707   0.167
   17CHTO  H174 6840   6.892   6.686   0.273
   17CHTO  H175 6841   6.934   6.806   0.148
   17CHTO   C97 6842   6.702   6.825   0.047
   17CHTO  H184 6843   6.766   6.850   8.149
   17CHTO   O64 6844   6.564   6.807   0.009
   17CHTO  C104 6845   6.547   6.716   8.087
   17CHTO  H191 6846   6.599   6.752   7.998
   17CHTO  C108 6847   6.398   6.711   8.051
   17CHTO   O71 6848   6.347   6.838   8.007
   17CHTO  H171 6849   6.385   6.859   7.923
   17CHTO   O62 6850   6.698   6.934   0.141
   17CHTO   C91 6851   6.700   7.066   0.083
   17CHTO  H178 6852   6.751   7.060   8.175
   17CHTO   C92 6853   6.791   7.158   0.173
   17CHTO  H179 6854   6.888   7.108   0.191
   17CHTO   O66 6855   6.823   7.276   0.097
   17CHTO  H166 6856   6.745   7.323   0.075
   17CHTO   C93 6857   6.721   7.201   0.307
   17CHTO  H180 6858   6.773   7.291   0.343
   17CHTO   N16 6859   6.736   7.103   0.417
   17CHTO  H172 6860   6.688   7.140   0.507
   17CHTO  H173 6861   6.841   7.084   0.435
   17CHTO   C94 6862   6.569   7.238   0.282
   17CHTO  H181 6863   6.501   7.162   0.320
   17CHTO   O61 6864   6.539   7.252   0.142
   17CHTO   C95 6865   6.556   7.133   0.064
   17CHTO  H182 6866   6.480   7.061   0.093
   17CHTO  C106 6867   6.528   7.171   8.103
   17CHTO   O69 6868   6.540   7.059   8.016
   17CHTO  H169 6869   6.521   7.085   7.928
   17CHTO   O63 6870   6.542   7.375   0.352
   17CHTO   C96 6871   6.394   7.394   0.395
   17CHTO  H183 6872   6.347   7.296   0.404
   17CHTO   C98 6873   6.308   7.480   0.299
   17CHTO  H185 6874   6.358   7.577   0.282
   17CHTO   O67 6875   6.305   7.415   0.171
   17CHTO  H167 6876   6.260   7.468   0.109
   17CHTO  C102 6877   6.159   7.501   0.356
   17CHTO  H189 6878   6.109   7.404   0.344
   17CHTO   N18 6879   6.078   7.598   0.277
   17CHTO  H176 6880   6.124   7.695   0.279
   17CHTO  H177 6881   5.978   7.604   0.317
   17CHTO  C105 6882   6.161   7.536   0.508
   17CHTO  H192 6883   6.184   7.642   0.520
   17CHTO   O65 6884   6.255   7.461   0.586
   17CHTO  C100 6885   6.390   7.461   0.537
   17CHTO  H187 6886   6.424   7.565   0.529
   17CHTO  C107 6887   6.482   7.391   0.641
   17CHTO   O70 6888   6.451   7.252   0.658
   17CHTO  H170 6889   6.368   7.243   0.700
   17CHTO   O57 6890   6.014   7.501   0.560
   17CHTO   C85 6891   5.938   7.600   0.633
   17CHTO  H157 6892   5.966   7.699   0.590
   17CHTO   C83 6893   5.983   7.604   0.783
   17CHTO  H155 6894   6.087   7.637   0.786
   17CHTO   O56 6895   5.980   7.471   0.836
   17CHTO  H135 6896   6.015   7.470   0.923
   17CHTO   C81 6897   5.895   7.707   0.860
   17CHTO  H153 6898   5.909   7.804   0.813
   17CHTO   N14 6899   5.940   7.729   1.000
   17CHTO  H141 6900   5.924   7.640   1.058
   17CHTO  H142 6901   5.884   7.809   1.044
   17CHTO   C79 6902   5.743   7.669   0.849
   17CHTO  H151 6903   5.686   7.750   0.896
   17CHTO   O52 6904   5.703   7.666   0.709
   17CHTO   C86 6905   5.783   7.575   0.626
   17CHTO  H158 6906   5.757   7.473   0.662
   17CHTO   C90 6907   5.734   7.582   0.479
   17CHTO   O60 6908   5.598   7.538   0.470
   17CHTO  H138 6909   5.571   7.541   0.380
   17CHTO   O50 6910   5.706   7.546   0.914
   17CHTO   C73 6911   5.601   7.470   0.977
   17CHTO  H145 6912   5.548   7.534   1.050
   17CHTO   C74 6913   5.662   7.349   1.053
   17CHTO  H146 6914   5.736   7.389   1.124
   17CHTO   O54 6915   5.558   7.288   1.132
   17CHTO  H133 6916   5.593   7.218   1.182
   17CHTO   C75 6917   5.729   7.250   0.948
   17CHTO  H147 6918   5.812   7.303   0.900
   17CHTO   N13 6919   5.790   7.130   1.009
   17CHTO  H139 6920   5.866   7.159   1.079
   17CHTO  H140 6921   5.835   7.069   0.932
   17CHTO   C76 6922   5.624   7.213   0.833
   17CHTO  H148 6923   5.546   7.151   0.876
   17CHTO   O49 6924   5.562   7.333   0.774
   17CHTO   C77 6925   5.498   7.417   0.872
   17CHTO  H149 6926   5.422   7.358   0.925
   17CHTO   C88 6927   5.421   7.531   0.805
   17CHTO   O58 6928   5.309   7.480   0.723
   17CHTO  H136 6929   5.243   7.442   0.778
   17CHTO   O51 6930   5.702   7.141   0.710
   17CHTO   C78 6931   5.609   7.044   0.627
   17CHTO  H150 6932   5.504   7.078   0.631
   17CHTO   C80 6933   5.617   6.899   0.682
   17CHTO  H152 6934   5.724   6.868   0.684
   17CHTO   O55 6935   5.567   6.901   0.817
   17CHTO  H134 6936   5.578   6.817   0.856
   17CHTO   C84 6937   5.534   6.800   0.590
   17CHTO  H156 6938   5.429   6.829   0.596
   17CHTO   N15 6939   5.543   6.657   0.636
   17CHTO  H143 6940   5.644   6.624   0.634
   17CHTO  H144 6941   5.484   6.594   0.573
   17CHTO   C87 6942   5.581   6.816   0.443
   17CHTO  H159 6943   5.685   6.785   0.434
   17CHTO   O53 6944   5.568   6.961   0.401
   17CHTO   C82 6945   5.652   7.048   0.480
   17CHTO  H154 6946   5.756   7.016   0.470
   17CHTO   C89 6947   5.644   7.191   0.423
   17CHTO   O59 6948   5.509   7.239   0.419
   17CHTO  H137 6949   5.508   7.326   0.382
   17CHTO   O45 6950   5.488   6.730   0.339
   17CHTO   C67 6951   5.564   6.629   0.271
   17CHTO  H124 6952   5.647   6.596   0.332
   17CHTO   C65 6953   5.473   6.507   0.238
   17CHTO  H122 6954   5.413   6.490   0.327
   17CHTO   O44 6955   5.555   6.391   0.214
   17CHTO  H102 6956   5.602   6.367   0.291
   17CHTO   C63 6957   5.372   6.543   0.124
   17CHTO  H120 6958   5.316   6.633   0.153
   17CHTO   N11 6959   5.261   6.445   0.100
   17CHTO  H108 6960   5.256   6.417   8.185
   17CHTO  H109 6961   5.275   6.357   0.159
   17CHTO   C61 6962   5.454   6.582   8.184
   17CHTO  H118 6963   5.381   6.615   8.109
   17CHTO   O40 6964   5.539   6.697   0.023
   17CHTO   C68 6965   5.629   6.694   0.140
   17CHTO  H125 6966   5.651   6.800   0.164
   17CHTO   C72 6967   5.764   6.629   0.101
   17CHTO   O48 6968   5.866   6.648   0.200
   17CHTO  H105 6969   5.890   6.739   0.204
   17CHTO   O38 6970   5.534   6.474   8.130
   17CHTO   C55 6971   5.556   6.460   7.988
   17CHTO  H112 6972   5.643   6.393   7.980
   17CHTO   C56 6973   5.580   6.598   7.911
   17CHTO  H113 6974   5.500   6.667   7.939
   17CHTO   O42 6975   5.703   6.655   7.958
   17CHTO  H100 6976   5.715   6.741   7.921
   17CHTO   C57 6977   5.581   6.578   7.754
   17CHTO  H114 6978   5.668   6.517   7.729
   17CHTO   N10 6979   5.591   6.705   7.679
   17CHTO  H106 6980   5.641   6.688   7.584
   17CHTO  H107 6981   5.647   6.778   7.735
   17CHTO   C58 6982   5.454   6.500   7.715
   17CHTO  H115 6983   5.364   6.559   7.746
   17CHTO   O37 6984   5.453   6.373   7.782
   17CHTO   C59 6985   5.438   6.378   7.924
   17CHTO  H116 6986   5.341   6.422   7.950
   17CHTO   C70 6987   5.439   6.231   7.970
   17CHTO   O46 6988   5.418   6.211   8.110
   17CHTO  H103 6989   5.490   6.246   8.158
   17CHTO   O39 6990   5.447   6.465   7.550
   17CHTO   C60 6991   5.317   6.492   7.493
   17CHTO  H117 6992   5.252   6.540   7.567
   17CHTO   C62 6993   5.328   6.588   7.371
   17CHTO  H119 6994   5.380   6.680   7.409
   17CHTO   O43 6995   5.410   6.530   7.268
   17CHTO  H101 6996   5.498   6.521   7.297
   17CHTO   C66 6997   5.181   6.628   7.322
   17CHTO  H123 6998   5.128   6.674   7.405
   17CHTO   N12 6999   5.180   6.729   7.214
   17CHTO  H110 7000   5.079   6.753   7.186
   17CHTO  H111 7001   5.233   6.817   7.246
   17CHTO   C69 7002   5.098   6.501   7.285
   17CHTO  H126 7003   5.136   6.457   7.190
   17CHTO   O41 7004   5.107   6.394   7.398
   17CHTO   C64 7005   5.245   6.361   7.448
   17CHTO  H121 7006   5.304   6.313   7.368
   17CHTO   C71 7007   5.232   6.260   7.565
   17CHTO   O47 7008   5.174   6.137   7.520
   17CHTO  H104 7009   5.235   6.092   7.465
   17CHTO   O34 7010   4.943   6.539   7.265
   17CHTO   C49 7011   4.804   6.593   7.323
   17CHTO   H91 7012   4.798   6.698   7.296
   17CHTO   C47 7013   4.803   6.576   7.476
   17CHTO   H89 7014   4.711   6.630   7.510
   17CHTO   O33 7015   4.916   6.642   7.534
   17CHTO   H70 7016   4.907   6.646   7.627
   17CHTO   C45 7017   4.800   6.420   7.521
   17CHTO   H87 7018   4.902   6.389   7.545
   17CHTO    N8 7019   4.717   6.404   7.643
   17CHTO   H75 7020   4.664   6.495   7.668
   17CHTO   H76 7021   4.779   6.374   7.726
   17CHTO   C43 7022   4.759   6.328   7.395
   17CHTO   H85 7023   4.849   6.326   7.333
   17CHTO   O29 7024   4.649   6.388   7.324
   17CHTO   C50 7025   4.680   6.516   7.266
   17CHTO   H92 7026   4.697   6.500   7.158
   17CHTO   C54 7027   4.552   6.603   7.269
   17CHTO   O36 7028   4.446   6.546   7.191
   17CHTO   H72 7029   4.416   6.466   7.231
   17CHTO   O27 7030   4.733   6.190   7.426
   17CHTO   C37 7031   4.828   6.083   7.441
   17CHTO   H79 7032   4.923   6.122   7.480
   17CHTO   C38 7033   4.775   5.978   7.543
   17CHTO   H80 7034   4.676   5.943   7.509
   17CHTO   O31 7035   4.760   6.043   7.670
   17CHTO   H68 7036   4.690   6.106   7.667
   17CHTO   C39 7037   4.873   5.854   7.554
   17CHTO   H81 7038   4.963   5.891   7.603
   17CHTO    N7 7039   4.820   5.743   7.641
   17CHTO   H73 7040   4.804   5.779   7.742
   17CHTO   H74 7041   4.727   5.706   7.600
   17CHTO   C40 7042   4.914   5.799   7.412
   17CHTO   H82 7043   4.832   5.741   7.371
   17CHTO   O26 7044   4.952   5.906   7.324
   17CHTO   C41 7045   4.854   6.011   7.305
   17CHTO   H83 7046   4.760   5.968   7.268
   17CHTO   C52 7047   4.910   6.102   7.192
   17CHTO   O35 7048   5.044   6.160   7.223
   17CHTO   H71 7049   5.108   6.091   7.227
   17CHTO   O28 7050   5.027   5.708   7.415
   17CHTO   C42 7051   5.171   5.737   7.431
   17CHTO   H84 7052   5.217   5.638   7.422
   17CHTO   C44 7053   5.217   5.793   7.570
   17CHTO   H86 7054   5.168   5.889   7.586
   17CHTO   O32 7055   5.172   5.700   7.670
   17CHTO   H69 7056   5.078   5.702   7.676
   17CHTO   C48 7057   5.373   5.816   7.579
   17CHTO   H90 7058   5.422   5.719   7.580
   17CHTO    N9 7059   5.413   5.883   7.708
   17CHTO   H77 7060   5.383   5.822   7.792
   17CHTO   H78 7061   5.520   5.898   7.710
   17CHTO   C51 7062   5.424   5.896   7.453
   17CHTO   H93 7063   5.385   5.997   7.458
   17CHTO   O30 7064   5.381   5.828   7.334
   17CHTO   C46 7065   5.233   5.825   7.317
   17CHTO   H88 7066   5.196   5.927   7.326
   17CHTO   C53 7067   5.202   5.769   7.176
   17CHTO   O72 7068   5.249   5.858   7.074
   17CHTO  H199 7069   5.343   5.858   7.072
   17CHTO   O22 7070   5.568   5.897   7.443
   17CHTO   C31 7071   5.639   6.010   7.380
   17CHTO   H59 7072   5.745   5.976   7.369
   17CHTO   C29 7073   5.589   6.049   7.239
   17CHTO   H57 7074   5.482   6.073   7.247
   17CHTO   O21 7075   5.598   5.932   7.154
   17CHTO   H37 7076   5.688   5.909   7.139
   17CHTO   C27 7077   5.666   6.173   7.178
   17CHTO   H55 7078   5.770   6.143   7.158
   17CHTO    N5 7079   5.606   6.224   7.052
   17CHTO   H43 7080   5.675   6.209   6.970
   17CHTO   H44 7081   5.512   6.175   7.031
   17CHTO   C25 7082   5.674   6.288   7.285
   17CHTO   H53 7083   5.573   6.330   7.302
   17CHTO   O17 7084   5.724   6.238   7.411
   17CHTO   C32 7085   5.644   6.136   7.472
   17CHTO   H60 7086   5.543   6.172   7.488
   17CHTO   C36 7087   5.707   6.103   7.610
   17CHTO   O25 7088   5.704   6.216   7.698
   17CHTO   H40 7089   5.616   6.234   7.724
   17CHTO   O15 7090   5.772   6.404   7.239
   17CHTO   C19 7091   5.825   6.536   7.269
   17CHTO   H47 7092   5.927   6.533   7.227
   17CHTO   C20 7093   5.748   6.653   7.201
   17CHTO   H48 7094   5.643   6.656   7.233
   17CHTO   O19 7095   5.752   6.630   7.059
   17CHTO   H35 7096   5.700   6.555   7.037
   17CHTO   C21 7097   5.813   6.794   7.236
   17CHTO   H49 7098   5.912   6.798   7.191
   17CHTO    N4 7099   5.737   6.910   7.183
   17CHTO   H41 7100   5.636   6.909   7.221
   17CHTO   H42 7101   5.733   6.904   7.075
   17CHTO   C22 7102   5.833   6.804   7.390
   17CHTO   H50 7103   5.735   6.810   7.438
   17CHTO   O14 7104   5.905   6.690   7.439
   17CHTO   C23 7105   5.842   6.563   7.421
   17CHTO   H51 7106   5.745   6.564   7.473
   17CHTO   C34 7107   5.932   6.459   7.489
   17CHTO   O23 7108   5.935   6.476   7.631
   17CHTO   H38 7109   5.980   6.556   7.653
   17CHTO   O16 7110   5.917   6.915   7.428
   17CHTO   C24 7111   5.899   6.955   7.582
   17CHTO   H52 7112   5.838   6.882   7.637
   17CHTO   C26 7113   5.830   7.093   7.588
   17CHTO   H54 7114   5.887   7.163   7.523
   17CHTO   O20 7115   5.698   7.077   7.534
   17CHTO   H36 7116   5.656   7.161   7.527
   17CHTO   C30 7117   5.829   7.149   7.733
   17CHTO   H58 7118   5.763   7.087   7.796
   17CHTO    N6 7119   5.772   7.287   7.739
   17CHTO   H45 7120   5.830   7.354   7.677
   17CHTO   H46 7121   5.670   7.286   7.704
   17CHTO   C33 7122   5.971   7.141   7.797
   17CHTO   H61 7123   6.040   7.209   7.745
   17CHTO   O18 7124   6.021   7.006   7.786
   17CHTO   C28 7125   6.038   6.958   7.652
   17CHTO   H56 7126   6.104   7.023   7.595
   17CHTO   C35 7127   6.097   6.815   7.657
   17CHTO   O24 7128   6.228   6.808   7.715
   17CHTO   H39 7129   6.257   6.719   7.715
   17CHTO    O9 7130   5.968   7.186   7.934
   17CHTO   C13 7131   6.098   7.164   8.021
   17CHTO   H26 7132   6.182   7.132   7.957
   17CHTO   C11 7133   6.066   7.058   8.137
   17CHTO   H24 7134   6.161   7.005   8.159
   17CHTO    O8 7135   5.977   6.959   8.082
   17CHTO    H3 7136   5.892   6.996   8.069
   17CHTO    C9 7137   6.023   7.127   0.082
   17CHTO   H22 7138   6.118   7.153   0.133
   17CHTO    N2 7139   5.957   7.039   0.181
   17CHTO   H10 7140   6.016   6.950   0.196
   17CHTO   H11 7141   5.858   7.012   0.145
   17CHTO    C7 7142   5.948   7.263   0.054
   17CHTO   H20 7143   5.923   7.304   0.154
   17CHTO    O4 7144   6.037   7.356   8.176
   17CHTO   C14 7145   6.136   7.305   8.083
   17CHTO   H27 7146   6.233   7.295   8.137
   17CHTO   C18 7147   6.157   7.409   7.971
   17CHTO   O13 7148   6.198   7.535   8.025
   17CHTO    H7 7149   6.210   7.597   7.956
   17CHTO    O2 7150   5.813   7.248   8.151
   17CHTO    C1 7151   5.689   7.235   0.034
   17CHTO   H14 7152   5.709   7.216   0.141
   17CHTO    C2 7153   5.600   7.118   8.165
   17CHTO   H15 7154   5.587   7.139   8.058
   17CHTO    O6 7155   5.672   6.995   8.181
   17CHTO    H1 7156   5.625   6.924   8.141
   17CHTO    C3 7157   5.458   7.114   0.051
   17CHTO   H16 7158   5.473   7.086   0.156
   17CHTO    N1 7159   5.367   7.012   8.178
   17CHTO    H8 7160   5.412   6.914   8.185
   17CHTO    H9 7161   5.272   7.012   0.042
   17CHTO    C4 7162   5.393   7.258   0.055
   17CHTO   H17 7163   5.362   7.285   8.142
   17CHTO    O1 7164   5.487   7.355   0.105
   17CHTO    C5 7165   5.607   7.368   0.027
   17CHTO   H18 7166   5.581   7.385   8.111
   17CHTO   C16 7167   5.685   7.490   0.080
   17CHTO   O11 7168   5.612   7.611   0.059
   17CHTO    H5 7169   5.662   7.684   0.090
   17CHTO    O3 7170   5.279   7.262   0.144
   17CHTO    C6 7171   5.194   7.381   0.135
   17CHTO   H19 7172   5.246   7.467   0.090
   17CHTO    C8 7173   5.066   7.354   0.050
   17CHTO   H21 7174   5.013   7.269   0.093
   17CHTO    O7 7175   5.109   7.321   8.105
   17CHTO    H2 7176   5.151   7.237   8.104
   17CHTO   C12 7177   4.971   7.480   0.053
   17CHTO   H25 7178   5.027   7.564   0.006
   17CHTO    N3 7179   4.845   7.460   8.161
   17CHTO   H12 7180   4.784   7.549   8.166
   17CHTO   H13 7181   4.871   7.438   8.058
   17CHTO   C15 7182   4.942   7.518   0.203
   17CHTO   H28 7183   4.882   7.442   0.253
   17CHTO   O10 7184   4.874   7.654   0.219
   17CHTO    H4 7185   4.789   7.652   0.179
   17CHTO    O5 7186   5.064   7.539   0.275
   17CHTO   C10 7187   5.151   7.425   0.278
   17CHTO   H23 7188   5.099   7.342   0.327
   17CHTO   C17 7189   5.271   7.460   0.368
   17CHTO   O12 7190   5.347   7.570   0.316
   17CHTO    H6 7191   5.420   7.587   0.372
   18CHTO  H203 7192   5.739   8.405   1.642
   18CHTO   O82 7193   5.818   8.393   1.692
   18CHTO  C123 7194   5.877   8.265   1.662
   18CHTO  H227 7195   5.798   8.188   1.665
   18CHTO   O77 7196   5.925   8.281   1.525
   18CHTO  C118 7197   5.980   8.162   1.468
   18CHTO  H222 7198   5.908   8.079   1.475
   18CHTO  C125 7199   6.008   8.193   1.316
   18CHTO   O84 7200   6.039   8.075   1.241
   18CHTO  H205 7201   5.963   8.020   1.235
   18CHTO  C114 7202   6.108   8.126   1.546
   18CHTO  H218 7203   6.179   8.209   1.537
   18CHTO  C116 7204   6.077   8.106   1.697
   18CHTO  H220 7205   6.018   8.013   1.710
   18CHTO   O79 7206   6.201   8.084   1.766
   18CHTO  H201 7207   6.186   8.065   1.857
   18CHTO  C120 7208   5.997   8.229   1.757
   18CHTO  H224 7209   6.069   8.314   1.761
   18CHTO   N21 7210   5.953   8.202   1.896
   18CHTO  H211 7211   5.856   8.155   1.897
   18CHTO  H212 7212   5.949   8.295   1.952
   18CHTO   O75 7213   6.161   8.008   1.482
   18CHTO  C112 7214   6.325   8.009   1.461
   18CHTO  H216 7215   6.374   8.027   1.558
   18CHTO   O73 7216   6.357   8.111   1.365
   18CHTO  C113 7217   6.498   8.131   1.348
   18CHTO  H217 7218   6.543   8.156   1.446
   18CHTO  C124 7219   6.514   8.254   1.258
   18CHTO   O83 7220   6.648   8.302   1.248
   18CHTO  H204 7221   6.701   8.240   1.201
   18CHTO  C109 7222   6.567   8.003   1.291
   18CHTO  H213 7223   6.532   7.992   1.187
   18CHTO  C110 7224   6.528   7.878   1.376
   18CHTO  H214 7225   6.582   7.882   1.471
   18CHTO   O78 7226   6.575   7.760   1.306
   18CHTO  H200 7227   6.561   7.684   1.358
   18CHTO  C111 7228   6.375   7.871   1.403
   18CHTO  H215 7229   6.323   7.854   1.307
   18CHTO   N19 7230   6.335   7.760   1.493
   18CHTO  H207 7231   6.228   7.760   1.506
   18CHTO  H208 7232   6.366   7.666   1.451
   18CHTO   O74 7233   6.713   8.022   1.291
   18CHTO  C115 7234   6.791   7.953   1.166
   18CHTO  H219 7235   6.753   7.853   1.144
   18CHTO   O76 7236   6.770   8.035   1.033
   18CHTO  C122 7237   6.861   8.144   1.021
   18CHTO  H226 7238   6.852   8.204   1.112
   18CHTO  C126 7239   6.817   8.239   0.903
   18CHTO   O85 7240   6.813   8.174   0.775
   18CHTO  H206 7241   6.900   8.150   0.749
   18CHTO  C121 7242   7.010   8.094   1.006
   18CHTO  H225 7243   7.028   8.079   0.898
   18CHTO   O81 7244   7.097   8.197   1.052
   18CHTO  H202 7245   7.086   8.211   1.145
   18CHTO  C119 7246   7.037   7.958   1.081
   18CHTO  H223 7247   7.010   7.879   1.010
   18CHTO  C117 7248   6.944   7.943   1.207
   18CHTO  H221 7249   6.958   8.020   1.283
   18CHTO   N20 7250   6.969   7.813   1.279
   18CHTO  H209 7251   7.041   7.752   1.226
   18CHTO  H210 7252   7.004   7.832   1.380
   18CHTO   O80 7253   7.206   7.924   1.107
   18CHTO  C103 7254   7.298   7.849   0.990
   18CHTO  H190 7255   7.401   7.840   1.025
   18CHTO  C101 7256   7.251   7.705   0.945
   18CHTO  H188 7257   7.143   7.706   0.938
   18CHTO   O68 7258   7.290   7.603   1.056
   18CHTO  H168 7259   7.384   7.597   1.062
   18CHTO   C99 7260   7.311   7.664   0.801
   18CHTO  H186 7261   7.421   7.655   0.808
   18CHTO   N17 7262   7.259   7.535   0.746
   18CHTO  H174 7263   7.183   7.493   0.810
   18CHTO  H175 7264   7.341   7.465   0.733
   18CHTO   C97 7265   7.285   7.781   0.702
   18CHTO  H184 7266   7.176   7.799   0.697
   18CHTO   O64 7267   7.356   7.896   0.750
   18CHTO  C104 7268   7.300   7.951   0.870
   18CHTO  H191 7269   7.199   7.984   0.849
   18CHTO  C108 7270   7.379   8.078   0.906
   18CHTO   O71 7271   7.518   8.051   0.924
   18CHTO  H171 7272   7.563   8.131   0.945
   18CHTO   O62 7273   7.344   7.768   0.571
   18CHTO   C91 7274   7.257   7.769   0.456
   18CHTO  H178 7275   7.173   7.703   0.476
   18CHTO   C92 7276   7.340   7.705   0.340
   18CHTO  H179 7277   7.438   7.754   0.336
   18CHTO   O66 7278   7.366   7.568   0.377
   18CHTO  H166 7279   7.426   7.528   0.316
   18CHTO   C93 7280   7.270   7.709   0.198
   18CHTO  H180 7281   7.190   7.634   0.199
   18CHTO   N16 7282   7.359   7.668   0.086
   18CHTO  H172 7283   7.376   7.749   0.017
   18CHTO  H173 7284   7.454   7.631   0.124
   18CHTO   C94 7285   7.205   7.850   0.171
   18CHTO  H181 7286   7.280   7.927   0.151
   18CHTO   O61 7287   7.128   7.893   0.284
   18CHTO   C95 7288   7.201   7.910   0.406
   18CHTO  H182 7289   7.284   7.978   0.388
   18CHTO  C106 7290   7.104   7.979   0.507
   18CHTO   O69 7291   7.061   8.107   0.461
   18CHTO  H169 7292   7.003   8.146   0.524
   18CHTO   O63 7293   7.100   7.836   0.049
   18CHTO   C96 7294   7.098   7.955   8.132
   18CHTO  H183 7295   7.028   7.926   8.054
   18CHTO   C98 7296   7.233   7.990   8.064
   18CHTO  H185 7297   7.308   8.017   8.140
   18CHTO   O67 7298   7.283   7.870   8.001
   18CHTO  H167 7299   7.226   7.843   7.932
   18CHTO  C102 7300   7.217   8.108   7.956
   18CHTO  H189 7301   7.164   8.063   7.871
   18CHTO   N18 7302   7.345   8.159   7.901
   18CHTO  H176 7303   7.326   8.236   7.827
   18CHTO  H177 7304   7.406   8.200   7.980
   18CHTO  C105 7305   7.127   8.223   8.011
   18CHTO  H192 7306   7.188   8.292   8.071
   18CHTO   O65 7307   7.015   8.182   8.092
   18CHTO  C100 7308   7.044   8.088   0.007
   18CHTO  H187 7309   7.122   8.130   0.073
   18CHTO  C107 7310   6.917   8.066   0.092
   18CHTO   O70 7311   6.878   8.186   0.159
   18CHTO  H170 7312   6.845   8.248   0.097
   18CHTO   O57 7313   7.071   8.295   7.878
   18CHTO   C85 7314   7.040   8.435   7.874
   18CHTO  H157 7315   7.131   8.488   7.908
   18CHTO   C83 7316   6.928   8.472   7.976
   18CHTO  H155 7317   6.968   8.458   8.077
   18CHTO   O56 7318   6.818   8.380   7.963
   18CHTO  H135 7319   6.777   8.389   7.879
   18CHTO   C81 7320   6.888   8.622   7.958
   18CHTO  H153 7321   6.977   8.682   7.973
   18CHTO   N14 7322   6.793   8.670   8.062
   18CHTO  H141 7323   6.833   8.652   8.159
   18CHTO  H142 7324   6.775   8.775   8.049
   18CHTO   C79 7325   6.836   8.647   7.812
   18CHTO  H151 7326   6.815   8.754   7.803
   18CHTO   O52 7327   6.943   8.617   7.717
   18CHTO   C86 7328   6.997   8.481   7.728
   18CHTO  H158 7329   6.916   8.417   7.689
   18CHTO   C90 7330   7.116   8.465   7.629
   18CHTO   O60 7331   7.222   8.557   7.656
   18CHTO  H138 7332   7.263   8.535   7.737
   18CHTO   O50 7333   6.717   8.574   7.779
   18CHTO   C73 7334   6.622   8.562   7.672
   18CHTO  H145 7335   6.673   8.541   7.578
   18CHTO   C74 7336   6.541   8.695   7.656
   18CHTO  H146 7337   6.614   8.775   7.637
   18CHTO   O54 7338   6.461   8.686   7.536
   18CHTO  H133 7339   6.397   8.618   7.545
   18CHTO   C75 7340   6.457   8.722   7.786
   18CHTO  H147 7341   6.526   8.732   7.871
   18CHTO   N13 7342   6.379   8.848   7.783
   18CHTO  H139 7343   6.325   8.861   7.876
   18CHTO  H140 7344   6.307   8.844   7.702
   18CHTO   C76 7345   6.365   8.593   7.816
   18CHTO  H148 7346   6.294   8.584   7.734
   18CHTO   O49 7347   6.447   8.472   7.823
   18CHTO   C77 7348   6.523   8.446   7.704
   18CHTO  H149 7349   6.455   8.433   7.619
   18CHTO   C88 7350   6.595   8.311   7.721
   18CHTO   O58 7351   6.667   8.271   7.597
   18CHTO  H136 7352   6.738   8.331   7.581
   18CHTO   O51 7353   6.294   8.607   7.959
   18CHTO   C78 7354   6.187   8.494   7.990
   18CHTO  H150 7355   6.220   8.396   7.950
   18CHTO   C80 7356   6.049   8.529   7.930
   18CHTO  H152 7357   6.024   8.634   7.957
   18CHTO   O55 7358   6.062   8.521   7.787
   18CHTO  H134 7359   6.115   8.591   7.755
   18CHTO   C84 7360   5.935   8.432   7.981
   18CHTO  H156 7361   5.956   8.332   7.944
   18CHTO   N15 7362   5.798   8.470   7.930
   18CHTO  H143 7363   5.725   8.401   7.966
   18CHTO  H144 7364   5.772   8.568   7.964
   18CHTO   C87 7365   5.939   8.428   8.135
   18CHTO  H159 7366   5.916   8.527   8.175
   18CHTO   O53 7367   6.079   8.384   8.179
   18CHTO   C82 7368   6.180   8.479   8.143
   18CHTO  H154 7369   6.159   8.576   0.002
   18CHTO   C89 7370   6.316   8.432   0.010
   18CHTO   O59 7371   6.317   8.431   0.153
   18CHTO  H137 7372   6.402   8.404   0.184
   18CHTO   O45 7373   5.835   8.320   0.009
   18CHTO   C67 7374   5.806   8.351   0.147
   18CHTO  H124 7375   5.879   8.423   0.184
   18CHTO   C65 7376   5.663   8.413   0.162
   18CHTO  H122 7377   5.599   8.361   0.090
   18CHTO   O44 7378   5.676   8.550   0.122
   18CHTO  H102 7379   5.592   8.591   0.117
   18CHTO   C63 7380   5.597   8.383   0.303
   18CHTO  H120 7381   5.550   8.285   0.299
   18CHTO   N11 7382   5.482   8.469   0.342
   18CHTO  H108 7383   5.409   8.470   0.264
   18CHTO  H109 7384   5.516   8.569   0.360
   18CHTO   C61 7385   5.710   8.372   0.412
   18CHTO  H118 7386   5.661   8.342   0.506
   18CHTO   O40 7387   5.807   8.267   0.381
   18CHTO   C68 7388   5.820   8.225   0.241
   18CHTO  H125 7389   5.739   8.152   0.218
   18CHTO   C72 7390   5.954   8.152   0.220
   18CHTO   O48 7391   5.962   8.028   0.291
   18CHTO  H105 7392   5.902   7.966   0.254
   18CHTO   O38 7393   5.779   8.497   0.429
   18CHTO   C55 7394   5.862   8.511   0.546
   18CHTO  H112 7395   5.892   8.412   0.584
   18CHTO   C56 7396   5.789   8.598   0.657
   18CHTO  H113 7397   5.763   8.694   0.610
   18CHTO   O42 7398   5.664   8.536   0.693
   18CHTO  H100 7399   5.680   8.451   0.731
   18CHTO   C57 7400   5.884   8.620   0.781
   18CHTO  H114 7401   5.901   8.523   0.827
   18CHTO   N10 7402   5.826   8.707   0.886
   18CHTO  H106 7403   5.903   8.759   0.941
   18CHTO  H107 7404   5.760   8.780   0.842
   18CHTO   C58 7405   6.021   8.675   0.732
   18CHTO  H115 7406   6.008   8.781   0.699
   18CHTO   O37 7407   6.076   8.600   0.623
   18CHTO   C59 7408   5.994   8.584   0.507
   18CHTO  H116 7409   5.972   8.681   0.463
   18CHTO   C70 7410   6.074   8.504   0.403
   18CHTO   O46 7411   6.117   8.375   0.449
   18CHTO  H103 7412   6.043   8.319   0.462
   18CHTO   O39 7413   6.135   8.669   0.858
   18CHTO   C60 7414   6.204   8.543   0.866
   18CHTO  H117 7415   6.141   8.465   0.824
   18CHTO   C62 7416   6.337   8.549   0.786
   18CHTO  H119 7417   6.311   8.588   0.685
   18CHTO   O43 7418   6.429   8.642   0.846
   18CHTO  H101 7419   6.453   8.614   0.932
   18CHTO   C66 7420   6.393   8.400   0.771
   18CHTO  H123 7421   6.317   8.340   0.722
   18CHTO   N12 7422   6.512   8.393   0.681
   18CHTO  H110 7423   6.546   8.291   0.673
   18CHTO  H111 7424   6.487   8.434   0.584
   18CHTO   C69 7425   6.419   8.338   0.910
   18CHTO  H126 7426   6.509   8.385   0.957
   18CHTO   O41 7427   6.291   8.358   1.008
   18CHTO   C64 7428   6.235   8.500   1.012
   18CHTO  H121 7429   6.310   8.569   1.057
   18CHTO   C71 7430   6.110   8.498   1.103
   18CHTO   O47 7431   6.063   8.631   1.130
   18CHTO  H104 7432   5.987   8.626   1.184
   18CHTO   O34 7433   6.447   8.184   0.898
   18CHTO   C49 7434   6.425   8.034   0.874
   18CHTO   H91 7435   6.515   7.984   0.911
   18CHTO   C47 7436   6.408   8.005   0.723
   18CHTO   H89 7437   6.415   7.893   0.716
   18CHTO   O33 7438   6.517   8.061   0.648
   18CHTO   H70 7439   6.598   8.021   0.674
   18CHTO   C45 7440   6.267   8.058   0.664
   18CHTO   H87 7441   6.283   8.156   0.617
   18CHTO    N8 7442   6.221   7.964   0.558
   18CHTO   H75 7443   6.296   7.954   0.482
   18CHTO   H76 7444   6.200   7.867   0.601
   18CHTO   C43 7445   6.162   8.085   0.783
   18CHTO   H85 7446   6.189   8.182   0.824
   18CHTO   O29 7447   6.172   7.981   0.882
   18CHTO   C50 7448   6.300   7.977   0.949
   18CHTO   H92 7449   6.289   8.035   1.042
   18CHTO   C54 7450   6.325   7.833   1.002
   18CHTO   O36 7451   6.324   7.736   0.897
   18CHTO   H72 7452   6.339   7.651   0.934
   18CHTO   O27 7453   6.027   8.102   0.736
   18CHTO   C37 7454   5.896   8.101   0.795
   18CHTO   H79 7455   5.885   8.013   0.860
   18CHTO   C38 7456   5.871   8.227   0.882
   18CHTO   H80 7457   5.889   8.316   0.820
   18CHTO   O31 7458   5.966   8.224   0.990
   18CHTO   H68 7459   6.053   8.240   0.957
   18CHTO   C39 7460   5.723   8.230   0.937
   18CHTO   H81 7461   5.713   8.146   1.006
   18CHTO    N7 7462   5.690   8.354   1.015
   18CHTO   H73 7463   5.754   8.361   1.102
   18CHTO   H74 7464   5.701   8.441   0.953
   18CHTO   C40 7465   5.620   8.206   0.820
   18CHTO   H82 7466   5.618   8.293   0.755
   18CHTO   O26 7467   5.657   8.087   0.748
   18CHTO   C41 7468   5.787   8.095   0.685
   18CHTO   H83 7469   5.793   8.186   0.623
   18CHTO   C52 7470   5.804   7.973   0.591
   18CHTO   O35 7471   5.702   7.971   0.482
   18CHTO   H71 7472   5.617   7.956   0.518
   18CHTO   O28 7473   5.486   8.183   0.870
   18CHTO   C42 7474   5.371   8.157   0.782
   18CHTO   H84 7475   5.285   8.167   0.849
   18CHTO   C44 7476   5.363   8.012   0.723
   18CHTO   H86 7477   5.451   7.994   0.662
   18CHTO   O32 7478   5.365   7.922   0.836
   18CHTO   H69 7479   5.451   7.922   0.876
   18CHTO   C48 7480   5.236   7.991   0.632
   18CHTO   H90 7481   5.147   8.002   0.695
   18CHTO    N9 7482   5.230   7.852   0.575
   18CHTO   H77 7483   5.317   7.834   0.513
   18CHTO   H78 7484   5.139   7.839   0.518
   18CHTO   C51 7485   5.233   8.103   0.521
   18CHTO   H93 7486   5.321   8.090   0.458
   18CHTO   O30 7487   5.230   8.232   0.583
   18CHTO   C46 7488   5.353   8.264   0.669
   18CHTO   H88 7489   5.442   8.264   0.605
   18CHTO   C53 7490   5.333   8.403   0.732
   18CHTO   O72 7491   5.324   8.505   0.633
   18CHTO  H199 7492   5.313   8.589   0.674
   18CHTO   O22 7493   5.112   8.097   0.442
   18CHTO   C31 7494   5.111   8.125   0.296
   18CHTO   H59 7495   5.005   8.112   0.264
   18CHTO   C29 7496   5.151   8.270   0.260
   18CHTO   H57 7497   5.246   8.291   0.312
   18CHTO   O21 7498   5.053   8.359   0.316
   18CHTO   H37 7499   4.971   8.351   0.272
   18CHTO   C27 7500   5.173   8.291   0.104
   18CHTO   H55 7501   5.078   8.272   0.052
   18CHTO    N5 7502   5.220   8.427   0.068
   18CHTO   H43 7503   5.147   8.500   0.097
   18CHTO   H44 7504   5.314   8.448   0.116
   18CHTO   C25 7505   5.276   8.181   0.060
   18CHTO   H53 7506   5.364   8.188   0.126
   18CHTO   O17 7507   5.210   8.053   0.079
   18CHTO   C32 7508   5.193   8.017   0.216
   18CHTO   H60 7509   5.291   8.006   0.262
   18CHTO   C36 7510   5.121   7.881   0.219
   18CHTO   O25 7511   5.198   7.780   0.151
   18CHTO   H40 7512   5.151   7.699   0.153
   18CHTO   O15 7513   5.325   8.186   8.101
   18CHTO   C19 7514   5.416   8.105   8.020
   18CHTO   H47 7515   5.362   8.010   8.007
   18CHTO   C20 7516   5.442   8.167   7.879
   18CHTO   H48 7517   5.480   8.271   7.886
   18CHTO   O19 7518   5.315   8.173   7.812
   18CHTO   H35 7519   5.259   8.237   7.852
   18CHTO   C21 7520   5.547   8.084   7.793
   18CHTO   H49 7521   5.504   7.986   7.772
   18CHTO    N4 7522   5.580   8.147   7.662
   18CHTO   H41 7523   5.526   8.239   7.648
   18CHTO   H42 7524   5.556   8.079   7.581
   18CHTO   C22 7525   5.673   8.062   7.881
   18CHTO   H50 7526   5.715   8.160   7.905
   18CHTO   O14 7527   5.635   7.994   8.001
   18CHTO   C23 7528   5.552   8.068   8.090
   18CHTO   H51 7529   5.607   8.158   8.122
   18CHTO   C34 7530   5.533   7.978   0.025
   18CHTO   O23 7531   5.657   7.949   0.090
   18CHTO   H38 7532   5.641   7.894   0.164
   18CHTO   O16 7533   5.772   7.977   7.821
   18CHTO   C24 7534   5.916   8.000   7.889
   18CHTO   H52 7535   5.909   8.061   7.979
   18CHTO   C26 7536   6.008   8.070   7.787
   18CHTO   H54 7537   6.025   8.002   7.701
   18CHTO   O20 7538   5.943   8.189   7.738
   18CHTO   H36 7539   5.929   8.251   7.807
   18CHTO   C30 7540   6.145   8.101   7.855
   18CHTO   H58 7541   6.131   8.178   7.932
   18CHTO    N6 7542   6.242   8.159   7.758
   18CHTO   H45 7543   6.203   8.250   7.716
   18CHTO   H46 7544   6.336   8.180   7.807
   18CHTO   C33 7545   6.204   7.976   7.928
   18CHTO   H61 7546   6.251   7.909   7.855
   18CHTO   O18 7547   6.103   7.902   8.000
   18CHTO   C28 7548   5.984   7.867   7.929
   18CHTO   H56 7549   6.007   7.809   7.840
   18CHTO   C35 7550   5.897   7.781   8.025
   18CHTO   O24 7551   5.786   7.720   7.959
   18CHTO   H39 7552   5.737   7.669   8.021
   18CHTO    O9 7553   6.310   8.018   8.017
   18CHTO   C13 7554   6.447   7.933   8.015
   18CHTO   H26 7555   6.493   7.947   7.915
   18CHTO   C11 7556   6.421   7.780   8.047
   18CHTO   H24 7557   6.359   7.739   7.966
   18CHTO    O8 7558   6.348   7.764   8.170
   18CHTO    H3 7559   6.326   7.674   8.183
   18CHTO    C9 7560   6.559   7.708   8.044
   18CHTO   H22 7561   6.602   7.731   7.945
   18CHTO    N2 7562   6.550   7.560   8.046
   18CHTO   H10 7563   6.509   7.527   8.141
   18CHTO   H11 7564   6.489   7.525   7.965
   18CHTO    C7 7565   6.653   7.768   8.155
   18CHTO   H20 7566   6.753   7.727   8.128
   18CHTO    O4 7567   6.662   7.912   8.151
   18CHTO   C14 7568   6.549   7.996   8.119
   18CHTO   H27 7569   6.592   8.087   8.071
   18CHTO   C18 7570   6.480   8.044   0.061
   18CHTO   O13 7571   6.567   8.125   0.140
   18CHTO    H7 7572   6.522   8.151   0.218
   18CHTO    O2 7573   6.610   7.719   0.118
   18CHTO    C1 7574   6.714   7.717   0.218
   18CHTO   H14 7575   6.771   7.812   0.213
   18CHTO    C2 7576   6.817   7.595   0.207
   18CHTO   H15 7577   6.755   7.505   0.198
   18CHTO    O6 7578   6.896   7.611   0.088
   18CHTO    H1 7579   6.950   7.535   0.075
   18CHTO    C3 7580   6.912   7.585   0.337
   18CHTO   H16 7581   6.978   7.673   0.339
   18CHTO    N1 7582   7.002   7.464   0.335
   18CHTO    H8 7583   6.981   7.398   0.419
   18CHTO    H9 7584   6.991   7.409   0.243
   18CHTO    C4 7585   6.824   7.594   0.467
   18CHTO   H17 7586   6.760   7.506   0.473
   18CHTO    O1 7587   6.745   7.714   0.462
   18CHTO    C5 7588   6.646   7.714   0.359
   18CHTO   H18 7589   6.586   7.623   0.365
   18CHTO   C16 7590   6.555   7.836   0.386
   18CHTO   O11 7591   6.432   7.827   0.313
   18CHTO    H5 7592   6.379   7.901   0.333
   18CHTO    O3 7593   6.905   7.605   0.586
   18CHTO    C6 7594   6.834   7.577   0.711
   18CHTO   H19 7595   6.726   7.575   0.699
   18CHTO    C8 7596   6.878   7.439   0.770
   18CHTO   H21 7597   6.987   7.437   0.776
   18CHTO    O7 7598   6.833   7.338   0.678
   18CHTO    H2 7599   6.864   7.253   0.705
   18CHTO   C12 7600   6.818   7.418   0.915
   18CHTO   H25 7601   6.708   7.409   0.903
   18CHTO    N3 7602   6.866   7.289   0.976
   18CHTO   H12 7603   6.973   7.291   0.987
   18CHTO   H13 7604   6.819   7.275   1.073
   18CHTO   C15 7605   6.848   7.544   1.004
   18CHTO   H28 7606   6.955   7.552   1.029
   18CHTO   O10 7607   6.765   7.545   1.136
   18CHTO    H4 7608   6.673   7.537   1.117
   18CHTO    O5 7609   6.805   7.665   0.940
   18CHTO   C10 7610   6.866   7.690   0.813
   18CHTO   H23 7611   6.974   7.694   0.827
   18CHTO   C17 7612   6.823   7.828   0.764
   18CHTO   O12 7613   6.681   7.836   0.749
   18CHTO    H6 7614   6.657   7.922   0.720
   19CHTO  H203 7615   5.837   9.187   1.680
   19CHTO   O82 7616   5.859   9.098   1.659
   19CHTO  C123 7617   5.783   9.054   1.546
   19CHTO  H227 7618   5.806   9.119   1.460
   19CHTO   O77 7619   5.835   8.920   1.521
   19CHTO  C118 7620   5.782   8.857   1.404
   19CHTO  H222 7621   5.798   8.923   1.317
   19CHTO  C125 7622   5.859   8.722   1.379
   19CHTO   O84 7623   5.843   8.629   1.487
   19CHTO  H205 7624   5.890   8.550   1.468
   19CHTO  C114 7625   5.630   8.835   1.422
   19CHTO  H218 7626   5.615   8.769   1.508
   19CHTO  C116 7627   5.557   8.969   1.454
   19CHTO  H220 7628   5.558   9.033   1.362
   19CHTO   O79 7629   5.419   8.941   1.482
   19CHTO  H201 7630   5.376   8.910   1.405
   19CHTO  C120 7631   5.628   9.045   1.573
   19CHTO  H224 7632   5.609   8.985   1.665
   19CHTO   N21 7633   5.567   9.179   1.596
   19CHTO  H211 7634   5.577   9.207   1.700
   19CHTO  H212 7635   5.613   9.253   1.532
   19CHTO   O75 7636   5.587   8.772   1.301
   19CHTO  C112 7637   5.470   8.660   1.323
   19CHTO  H216 7638   5.390   8.703   1.386
   19CHTO   O73 7639   5.531   8.546   1.386
   19CHTO  C113 7640   5.438   8.440   1.415
   19CHTO  H217 7641   5.356   8.481   1.478
   19CHTO  C124 7642   5.510   8.334   1.500
   19CHTO   O83 7643   5.623   8.275   1.435
   19CHTO  H204 7644   5.691   8.339   1.425
   19CHTO  C109 7645   5.379   8.382   1.284
   19CHTO  H213 7646   5.463   8.338   1.228
   19CHTO  C110 7647   5.313   8.497   1.201
   19CHTO  H214 7648   5.221   8.528   1.252
   19CHTO   O78 7649   5.274   8.443   1.073
   19CHTO  H200 7650   5.225   8.507   1.025
   19CHTO  C111 7651   5.409   8.618   1.184
   19CHTO  H215 7652   5.493   8.587   1.119
   19CHTO   N19 7653   5.345   8.735   1.118
   19CHTO  H207 7654   5.313   8.708   1.019
   19CHTO  H208 7655   5.261   8.769   1.176
   19CHTO   O74 7656   5.283   8.277   1.316
   19CHTO  C115 7657   5.267   8.163   1.202
   19CHTO  H219 7658   5.225   8.204   1.110
   19CHTO   O76 7659   5.409   8.101   1.160
   19CHTO  C122 7660   5.454   8.000   1.250
   19CHTO  H226 7661   5.465   8.046   1.348
   19CHTO  C126 7662   5.598   7.954   1.208
   19CHTO   O85 7663   5.697   8.052   1.237
   19CHTO  H206 7664   5.781   8.020   1.210
   19CHTO  C121 7665   5.354   7.877   1.259
   19CHTO  H225 7666   5.395   7.793   1.199
   19CHTO   O81 7667   5.348   7.833   1.396
   19CHTO  H202 7668   5.312   7.900   1.451
   19CHTO  C119 7669   5.212   7.913   1.206
   19CHTO  H223 7670   5.221   7.920   1.098
   19CHTO  C117 7671   5.167   8.054   1.259
   19CHTO  H221 7672   5.169   8.066   1.368
   19CHTO   N20 7673   5.026   8.086   1.220
   19CHTO  H209 7674   4.959   8.011   1.259
   19CHTO  H210 7675   4.998   8.184   1.258
   19CHTO   O80 7676   5.107   7.791   1.221
   19CHTO  C103 7677   5.135   7.659   1.146
   19CHTO  H190 7678   5.220   7.670   1.078
   19CHTO  C101 7679   5.159   7.532   1.236
   19CHTO  H188 7680   5.076   7.523   1.305
   19CHTO   O68 7681   5.289   7.552   1.318
   19CHTO  H168 7682   5.363   7.558   1.261
   19CHTO   C99 7683   5.167   7.400   1.147
   19CHTO  H186 7684   5.259   7.405   1.084
   19CHTO   N17 7685   5.178   7.274   1.227
   19CHTO  H174 7686   5.088   7.258   1.284
   19CHTO  H175 7687   5.199   7.190   1.162
   19CHTO   C97 7688   5.048   7.393   1.046
   19CHTO  H184 7689   4.956   7.365   1.101
   19CHTO   O64 7690   5.032   7.517   0.974
   19CHTO  C104 7691   5.008   7.632   1.056
   19CHTO  H191 7692   4.922   7.616   1.121
   19CHTO  C108 7693   4.972   7.751   0.967
   19CHTO   O71 7694   5.079   7.786   0.877
   19CHTO  H171 7695   5.053   7.859   0.825
   19CHTO   O62 7696   5.077   7.301   0.940
   19CHTO   C91 7697   4.992   7.186   0.925
   19CHTO  H178 7698   4.939   7.168   1.019
   19CHTO   C92 7699   5.085   7.061   0.903
   19CHTO  H179 7700   5.170   7.065   0.973
   19CHTO   O66 7701   5.012   6.943   0.937
   19CHTO  H166 7702   5.069   6.868   0.938
   19CHTO   C93 7703   5.133   7.046   0.753
   19CHTO  H180 7704   5.175   6.944   0.745
   19CHTO   N16 7705   5.245   7.136   0.718
   19CHTO  H172 7706   5.330   7.116   0.780
   19CHTO  H173 7707   5.214   7.239   0.729
   19CHTO   C94 7708   5.011   7.059   0.653
   19CHTO  H181 7709   5.023   7.142   0.583
   19CHTO   O61 7710   4.886   7.083   0.721
   19CHTO   C95 7711   4.886   7.199   0.806
   19CHTO  H182 7712   4.912   7.286   0.746
   19CHTO  C106 7713   4.740   7.221   0.858
   19CHTO   O69 7714   4.729   7.344   0.932
   19CHTO  H169 7715   4.776   7.336   1.013
   19CHTO   O63 7716   4.993   6.925   0.573
   19CHTO   C96 7717   5.111   6.891   0.472
   19CHTO  H183 7718   5.201   6.873   0.531
   19CHTO   C98 7719   5.144   7.002   0.367
   19CHTO  H185 7720   5.154   7.100   0.416
   19CHTO   O67 7721   5.274   6.974   0.312
   19CHTO  H167 7722   5.274   6.892   0.267
   19CHTO  C102 7723   5.037   7.007   0.249
   19CHTO  H189 7724   5.081   7.073   0.172
   19CHTO   N18 7725   4.907   7.071   0.283
   19CHTO  H176 7726   4.907   7.105   0.386
   19CHTO  H177 7727   4.886   7.153   0.217
   19CHTO  C105 7728   5.019   6.864   0.188
   19CHTO  H192 7729   4.913   6.836   0.186
   19CHTO   O65 7730   5.091   6.759   0.256
   19CHTO  C100 7731   5.070   6.756   0.399
   19CHTO  H187 7732   4.963   6.738   0.416
   19CHTO  C107 7733   5.146   6.635   0.459
   19CHTO   O70 7734   5.092   6.511   0.412
   19CHTO  H170 7735   5.140   6.440   0.449
   19CHTO   O57 7736   5.072   6.881   0.039
   19CHTO   C85 7737   4.993   6.835   8.117
   19CHTO  H157 7738   4.902   6.786   8.158
   19CHTO   C83 7739   5.071   6.722   8.041
   19CHTO  H155 7740   5.089   6.640   8.111
   19CHTO   O56 7741   5.202   6.770   8.002
   19CHTO  H135 7742   5.194   6.840   7.939
   19CHTO   C81 7743   4.985   6.670   7.923
   19CHTO  H153 7744   4.890   6.634   7.964
   19CHTO   N14 7745   5.044   6.552   7.854
   19CHTO  H141 7746   4.984   6.465   7.871
   19CHTO  H142 7747   5.143   6.533   7.888
   19CHTO   C79 7748   4.952   6.789   7.824
   19CHTO  H151 7749   4.879   6.751   7.752
   19CHTO   O52 7750   4.886   6.898   7.894
   19CHTO   C86 7751   4.957   6.947   8.012
   19CHTO  H158 7752   5.048   6.996   7.971
   19CHTO   C90 7753   4.875   7.060   8.078
   19CHTO   O60 7754   4.855   7.169   7.987
   19CHTO  H138 7755   4.936   7.214   7.972
   19CHTO   O50 7756   5.066   6.840   7.752
   19CHTO   C73 7757   5.127   6.888   7.631
   19CHTO  H145 7758   5.118   6.813   7.552
   19CHTO   C74 7759   5.278   6.915   7.657
   19CHTO  H146 7760   5.321   6.821   7.694
   19CHTO   O54 7761   5.342   6.941   7.530
   19CHTO  H133 7762   5.309   7.020   7.492
   19CHTO   C75 7763   5.293   7.033   7.761
   19CHTO  H147 7764   5.250   6.999   7.857
   19CHTO   N13 7765   5.434   7.069   7.793
   19CHTO  H139 7766   5.503   7.007   7.738
   19CHTO  H140 7767   5.453   7.057   7.899
   19CHTO   C76 7768   5.209   7.160   7.714
   19CHTO  H148 7769   5.258   7.203   7.626
   19CHTO   O49 7770   5.071   7.123   7.681
   19CHTO   C77 7771   5.061   7.020   7.581
   19CHTO  H149 7772   5.111   7.052   7.490
   19CHTO   C88 7773   4.913   7.000   7.543
   19CHTO   O58 7774   4.858   7.123   7.480
   19CHTO  H136 7775   4.769   7.108   7.457
   19CHTO   O51 7776   5.192   7.262   7.832
   19CHTO   C78 7777   5.202   7.413   7.789
   19CHTO  H150 7778   5.222   7.424   7.681
   19CHTO   C80 7779   5.317   7.479   7.869
   19CHTO  H152 7780   5.305   7.454   7.976
   19CHTO   O55 7781   5.441   7.421   7.823
   19CHTO  H134 7782   5.446   7.331   7.851
   19CHTO   C84 7783   5.319   7.637   7.853
   19CHTO  H156 7784   5.342   7.660   7.750
   19CHTO   N15 7785   5.423   7.704   7.939
   19CHTO  H143 7786   5.479   7.632   7.995
   19CHTO  H144 7787   5.490   7.760   7.877
   19CHTO   C87 7788   5.177   7.692   7.884
   19CHTO  H159 7789   5.151   7.670   7.987
   19CHTO   O53 7790   5.079   7.622   7.787
   19CHTO   C82 7791   5.068   7.482   7.818
   19CHTO  H154 7792   5.039   7.470   7.923
   19CHTO   C89 7793   4.953   7.422   7.733
   19CHTO   O59 7794   4.827   7.477   7.771
   19CHTO  H137 7795   4.759   7.441   7.718
   19CHTO   O45 7796   5.164   7.855   7.858
   19CHTO   C67 7797   5.029   7.901   7.872
   19CHTO  H124 7798   4.961   7.823   7.838
   19CHTO   C65 7799   4.995   7.935   8.021
   19CHTO  H122 7800   5.086   7.977   8.064
   19CHTO   O44 7801   4.965   7.810   8.085
   19CHTO  H102 7802   4.955   7.822   8.177
   19CHTO   C63 7803   4.886   8.050   8.034
   19CHTO  H120 7804   4.937   8.147   8.021
   19CHTO   N11 7805   4.823   8.068   8.168
   19CHTO  H108 7806   4.899   8.077   0.055
   19CHTO  H109 7807   4.761   7.984   0.002
   19CHTO   C61 7808   4.786   8.038   7.914
   19CHTO  H118 7809   4.712   8.120   7.923
   19CHTO   O40 7810   4.853   8.056   7.786
   19CHTO   C68 7811   4.997   8.026   7.779
   19CHTO  H125 7812   5.054   8.115   7.814
   19CHTO   C72 7813   5.034   8.003   7.631
   19CHTO   O48 7814   5.175   7.989   7.607
   19CHTO  H105 7815   5.218   8.071   7.624
   19CHTO   O38 7816   4.719   7.910   7.913
   19CHTO   C55 7817   4.594   7.901   7.841
   19CHTO  H112 7818   4.581   7.989   7.776
   19CHTO   C56 7819   4.475   7.884   7.944
   19CHTO  H113 7820   4.503   7.801   8.012
   19CHTO   O42 7821   4.467   8.002   8.027
   19CHTO  H100 7822   4.446   8.077   7.975
   19CHTO   C57 7823   4.338   7.853   7.871
   19CHTO  H114 7824   4.309   7.944   7.819
   19CHTO   N10 7825   4.228   7.819   7.966
   19CHTO  H106 7826   4.178   7.909   7.997
   19CHTO  H107 7827   4.157   7.753   7.919
   19CHTO   C58 7828   4.358   7.741   7.766
   19CHTO  H115 7829   4.378   7.644   7.819
   19CHTO   O37 7830   4.468   7.770   7.678
   19CHTO   C59 7831   4.595   7.778   7.745
   19CHTO  H116 7832   4.613   7.686   7.801
   19CHTO   C70 7833   4.705   7.787   7.639
   19CHTO   O46 7834   4.693   7.900   7.552
   19CHTO  H103 7835   4.708   7.979   7.600
   19CHTO   O39 7836   4.225   7.727   7.671
   19CHTO   C60 7837   4.229   7.620   7.575
   19CHTO  H117 7838   4.323   7.625   7.520
   19CHTO   C62 7839   4.220   7.479   7.641
   19CHTO  H119 7840   4.310   7.470   7.706
   19CHTO   O43 7841   4.103   7.473   7.724
   19CHTO  H101 7842   4.100   7.390   7.769
   19CHTO   C66 7843   4.226   7.367   7.527
   19CHTO  H123 7844   4.317   7.381   7.468
   19CHTO   N12 7845   4.235   7.230   7.584
   19CHTO  H110 7846   4.238   7.157   7.505
   19CHTO  H111 7847   4.323   7.222   7.646
   19CHTO   C69 7848   4.105   7.384   7.432
   19CHTO  H126 7849   4.010   7.375   7.489
   19CHTO   O41 7850   4.114   7.525   7.367
   19CHTO   C64 7851   4.115   7.639   7.470
   19CHTO  H121 7852   4.018   7.641   7.524
   19CHTO   C71 7853   4.129   7.774   7.395
   19CHTO   O47 7854   4.248   7.780   7.316
   19CHTO  H104 7855   4.251   7.862   7.270
   19CHTO   O34 7856   4.104   7.276   7.319
   19CHTO   C49 7857   4.042   7.268   7.185
   19CHTO   H91 7858   3.946   7.321   7.190
   19CHTO   C47 7859   4.020   7.119   7.151
   19CHTO   H89 7860   3.965   7.120   7.054
   19CHTO   O33 7861   3.936   7.058   7.250
   19CHTO   H70 7862   3.911   6.972   7.222
   19CHTO   C45 7863   4.161   7.041   7.139
   19CHTO   H87 7864   4.189   7.005   7.240
   19CHTO    N8 7865   4.142   6.923   7.051
   19CHTO   H75 7866   4.214   6.923   6.971
   19CHTO   H76 7867   4.152   6.832   7.108
   19CHTO   C43 7868   4.279   7.143   7.098
   19CHTO   H85 7869   4.312   7.187   7.192
   19CHTO   O29 7870   4.226   7.243   7.009
   19CHTO   C50 7871   4.132   7.331   7.073
   19CHTO   H92 7872   4.188   7.414   7.119
   19CHTO   C54 7873   4.046   7.402   6.965
   19CHTO   O36 7874   4.126   7.482   6.878
   19CHTO   H72 7875   4.180   7.427   6.825
   19CHTO   O27 7876   4.396   7.079   7.044
   19CHTO   C37 7877   4.532   7.120   7.027
   19CHTO   H79 7878   4.587   7.042   6.972
   19CHTO   C38 7879   4.542   7.251   6.944
   19CHTO   H80 7880   4.477   7.327   6.990
   19CHTO   O31 7881   4.493   7.223   6.811
   19CHTO   H68 7882   4.401   7.208   6.813
   19CHTO   C39 7883   4.690   7.306   6.940
   19CHTO   H81 7884   4.749   7.236   6.881
   19CHTO    N7 7885   4.701   7.441   6.873
   19CHTO   H73 7886   4.804   7.473   6.871
   19CHTO   H74 7887   4.641   7.513   6.926
   19CHTO   C40 7888   4.752   7.309   7.085
   19CHTO   H82 7889   4.706   7.389   7.144
   19CHTO   O26 7890   4.738   7.181   7.149
   19CHTO   C41 7891   4.599   7.139   7.166
   19CHTO   H83 7892   4.545   7.217   7.222
   19CHTO   C52 7893   4.598   7.011   7.252
   19CHTO   O35 7894   4.678   6.904   7.194
   19CHTO   H71 7895   4.673   6.828   7.248
   19CHTO   O28 7896   4.894   7.331   7.082
   19CHTO   C42 7897   4.972   7.355   7.203
   19CHTO   H84 7898   4.918   7.305   7.283
   19CHTO   C44 7899   4.984   7.505   7.247
   19CHTO   H86 7900   5.021   7.563   7.162
   19CHTO   O32 7901   4.851   7.551   7.276
   19CHTO   H69 7902   4.852   7.643   7.295
   19CHTO   C48 7903   5.084   7.526   7.368
   19CHTO   H90 7904   5.040   7.480   7.457
   19CHTO    N9 7905   5.101   7.671   7.403
   19CHTO   H77 7906   5.141   7.725   7.318
   19CHTO   H78 7907   5.006   7.714   7.434
   19CHTO   C51 7908   5.220   7.455   7.336
   19CHTO   H93 7909   5.260   7.499   7.244
   19CHTO   O30 7910   5.190   7.315   7.319
   19CHTO   C46 7911   5.113   7.289   7.193
   19CHTO   H88 7912   5.167   7.331   7.108
   19CHTO   C53 7913   5.100   7.135   7.176
   19CHTO   O72 7914   5.228   7.074   7.161
   19CHTO  H199 7915   5.264   7.097   7.077
   19CHTO   O22 7916   5.317   7.459   7.442
   19CHTO   C31 7917   5.455   7.504   7.415
   19CHTO   H59 7918   5.455   7.548   7.313
   19CHTO   C29 7919   5.504   7.615   7.512
   19CHTO   H57 7920   5.502   7.572   7.614
   19CHTO   O21 7921   5.408   7.722   7.509
   19CHTO   H37 7922   5.427   7.784   7.577
   19CHTO   C27 7923   5.650   7.665   7.479
   19CHTO   H55 7924   5.647   7.719   7.383
   19CHTO    N5 7925   5.702   7.758   7.582
   19CHTO   H43 7926   5.720   7.856   7.539
   19CHTO   H44 7927   5.793   7.720   7.627
   19CHTO   C25 7928   5.745   7.543   7.457
   19CHTO   H53 7929   5.765   7.495   7.554
   19CHTO   O17 7930   5.686   7.444   7.367
   19CHTO   C32 7931   5.562   7.390   7.413
   19CHTO   H60 7932   5.573   7.349   7.514
   19CHTO   C36 7933   5.528   7.275   7.315
   19CHTO   O25 7934   5.435   7.183   7.373
   19CHTO   H40 7935   5.350   7.223   7.380
   19CHTO   O15 7936   5.877   7.586   7.397
   19CHTO   C19 7937   6.017   7.552   7.413
   19CHTO   H47 7938   6.066   7.602   7.328
   19CHTO   C20 7939   6.082   7.602   7.545
   19CHTO   H48 7940   6.038   7.553   7.634
   19CHTO   O19 7941   6.055   7.744   7.555
   19CHTO   H35 7942   6.086   7.777   7.637
   19CHTO   C21 7943   6.238   7.573   7.545
   19CHTO   H49 7944   6.283   7.632   7.464
   19CHTO    N4 7945   6.306   7.615   7.670
   19CHTO   H41 7946   6.412   7.596   7.663
   19CHTO   H42 7947   6.266   7.561   7.754
   19CHTO   C22 7948   6.263   7.424   7.511
   19CHTO   H50 7949   6.230   7.362   7.595
   19CHTO   O14 7950   6.191   7.385   7.392
   19CHTO   C23 7951   6.049   7.401   7.398
   19CHTO   H51 7952   6.012   7.342   7.484
   19CHTO   C34 7953   5.989   7.339   7.270
   19CHTO   O23 7954   6.011   7.198   7.265
   19CHTO   H38 7955   6.102   7.180   7.250
   19CHTO   O16 7956   6.402   7.400   7.480
   19CHTO   C24 7957   6.455   7.245   7.432
   19CHTO   H52 7958   6.562   7.232   7.450
   19CHTO   C26 7959   6.430   7.227   7.282
   19CHTO   H54 7960   6.322   7.241   7.261
   19CHTO   O20 7961   6.504   7.330   7.213
   19CHTO   H36 7962   6.486   7.327   7.121
   19CHTO   C30 7963   6.469   7.084   7.235
   19CHTO   H58 7964   6.577   7.070   7.244
   19CHTO    N6 7965   6.437   7.063   7.090
   19CHTO   H45 7966   6.332   7.079   7.072
   19CHTO   H46 7967   6.494   7.133   7.030
   19CHTO   C33 7968   6.402   6.976   7.326
   19CHTO   H61 7969   6.294   6.973   7.309
   19CHTO   O18 7970   6.426   7.005   7.466
   19CHTO   C28 7971   6.383   7.134   7.513
   19CHTO   H56 7972   6.275   7.144   7.501
   19CHTO   C35 7973   6.421   7.149   7.663
   19CHTO   O24 7974   6.346   7.064   7.750
   19CHTO   H39 7975   6.256   7.091   7.750
   19CHTO    O9 7976   6.451   6.845   7.290
   19CHTO   C13 7977   6.372   6.716   7.344
   19CHTO   H26 7978   6.340   6.735   7.448
   19CHTO   C11 7979   6.472   6.593   7.334
   19CHTO   H24 7980   6.552   6.609   7.408
   19CHTO    O8 7981   6.536   6.590   7.204
   19CHTO    H3 7982   6.472   6.574   7.137
   19CHTO    C9 7983   6.397   6.462   7.370
   19CHTO   H22 7984   6.356   6.478   7.471
   19CHTO    N2 7985   6.485   6.343   7.383
   19CHTO   H10 7986   6.490   6.310   7.486
   19CHTO   H11 7987   6.585   6.363   7.346
   19CHTO    C7 7988   6.278   6.441   7.270
   19CHTO   H20 7989   6.224   6.352   7.309
   19CHTO    O4 7990   6.188   6.554   7.274
   19CHTO   C14 7991   6.238   6.688   7.260
   19CHTO   H27 7992   6.160   6.755   7.302
   19CHTO   C18 7993   6.251   6.724   7.110
   19CHTO   O13 7994   6.124   6.724   7.044
   19CHTO    H7 7995   6.092   6.636   7.038
   19CHTO    O2 7996   6.328   6.415   7.112
   19CHTO    C1 7997   6.280   6.296   7.047
   19CHTO   H14 7998   6.236   6.227   7.122
   19CHTO    C2 7999   6.396   6.219   6.970
   19CHTO   H15 8000   6.449   6.295   6.911
   19CHTO    O6 8001   6.486   6.163   7.068
   19CHTO    H1 8002   6.560   6.125   7.025
   19CHTO    C3 8003   6.338   6.105   6.872
   19CHTO   H16 8004   6.293   6.024   6.932
   19CHTO    N1 8005   6.446   6.043   6.787
   19CHTO    H8 8006   6.403   5.966   6.724
   19CHTO    H9 8007   6.492   6.119   6.725
   19CHTO    C4 8008   6.221   6.164   6.786
   19CHTO   H17 8009   6.261   6.242   6.721
   19CHTO    O1 8010   6.122   6.219   6.874
   19CHTO    C5 8011   6.166   6.334   6.948
   19CHTO   H18 8012   6.203   6.411   6.880
   19CHTO   C16 8013   6.041   6.387   7.021
   19CHTO   O11 8014   5.943   6.436   6.928
   19CHTO    H5 8015   5.868   6.465   6.976
   19CHTO    O3 8016   6.150   6.066   6.707
   19CHTO    C6 8017   6.068   6.126   6.600
   19CHTO   H19 8018   6.057   6.234   6.611
   19CHTO    C8 8019   6.133   6.101   6.460
   19CHTO   H21 8020   6.147   5.993   6.448
   19CHTO    O7 8021   6.262   6.166   6.460
   19CHTO    H2 8022   6.252   6.259   6.468
   19CHTO   C12 8023   6.039   6.155   6.346
   19CHTO   H25 8024   6.035   6.265   6.357
   19CHTO    N3 8025   6.095   6.128   6.209
   19CHTO   H12 8026   6.190   6.178   6.198
   19CHTO   H13 8027   6.107   6.021   6.194
   19CHTO   C15 8028   5.893   6.098   6.365
   19CHTO   H28 8029   5.888   5.991   6.342
   19CHTO   O10 8030   5.788   6.173   6.280
   19CHTO    H4 8031   5.807   6.161   6.188
   19CHTO    O5 8032   5.845   6.122   6.498
   19CHTO   C10 8033   5.924   6.066   6.603
   19CHTO   H23 8034   5.928   5.958   6.592
   19CHTO   C17 8035   5.855   6.097   6.737
   19CHTO   O12 8036   5.721   6.048   6.743
   19CHTO    H6 8037   5.667   6.096   6.684
   20CHTO  H203 8038   5.279   1.862   7.165
   20CHTO   O82 8039   5.320   1.912   7.233
   20CHTO  C123 8040   5.226   2.004   7.291
   20CHTO  H227 8041   5.140   1.948   7.330
   20CHTO   O77 8042   5.302   2.063   7.401
   20CHTO  C118 8043   5.226   2.155   7.481
   20CHTO  H222 8044   5.134   2.106   7.516
   20CHTO  C125 8045   5.313   2.195   7.607
   20CHTO   O84 8046   5.434   2.261   7.570
   20CHTO  H205 8047   5.483   2.282   7.648
   20CHTO  C114 8048   5.188   2.277   7.394
   20CHTO  H218 8049   5.280   2.324   7.359
   20CHTO  C116 8050   5.106   2.232   7.269
   20CHTO  H220 8051   5.006   2.196   7.303
   20CHTO   O79 8052   5.082   2.347   7.187
   20CHTO  H201 8053   5.162   2.383   7.155
   20CHTO  C120 8054   5.181   2.117   7.190
   20CHTO  H224 8055   5.270   2.164   7.143
   20CHTO   N21 8056   5.098   2.063   7.078
   20CHTO  H211 8057   4.993   2.068   7.103
   20CHTO  H212 8058   5.127   1.962   7.054
   20CHTO   O75 8059   5.115   2.365   7.481
   20CHTO  C112 8060   5.159   2.520   7.464
   20CHTO  H216 8061   5.199   2.536   7.362
   20CHTO   O73 8062   5.259   2.548   7.564
   20CHTO  C113 8063   5.315   2.679   7.554
   20CHTO  H217 8064   5.359   2.692   7.452
   20CHTO  C124 8065   5.431   2.691   7.654
   20CHTO   O83 8066   5.539   2.601   7.625
   20CHTO  H204 8067   5.512   2.512   7.641
   20CHTO  C109 8068   5.208   2.788   7.577
   20CHTO  H213 8069   5.176   2.781   7.682
   20CHTO  C110 8070   5.086   2.765   7.481
   20CHTO  H214 8071   5.117   2.791   7.379
   20CHTO   O78 8072   4.980   2.856   7.518
   20CHTO  H200 8073   4.909   2.850   7.456
   20CHTO  C111 8074   5.037   2.617   7.485
   20CHTO  H215 8075   4.995   2.597   7.585
   20CHTO   N19 8076   4.929   2.588   7.387
   20CHTO  H207 8077   4.896   2.486   7.397
   20CHTO  H208 8078   4.964   2.605   7.287
   20CHTO   O74 8079   5.271   2.918   7.556
   20CHTO  C115 8080   5.194   3.049   7.603
   20CHTO  H219 8081   5.098   3.025   7.649
   20CHTO   O76 8082   5.273   3.127   7.713
   20CHTO  C122 8083   5.409   3.154   7.676
   20CHTO  H226 8084   5.467   3.065   7.700
   20CHTO  C126 8085   5.465   3.268   7.768
   20CHTO   O85 8086   5.392   3.390   7.756
   20CHTO  H206 8087   5.429   3.455   7.813
   20CHTO  C121 8088   5.429   3.189   7.522
   20CHTO  H225 8089   5.503   3.272   7.514
   20CHTO   O81 8090   5.486   3.077   7.454
   20CHTO  H202 8091   5.427   3.004   7.455
   20CHTO  C119 8092   5.296   3.236   7.454
   20CHTO  H223 8093   5.273   3.330   7.503
   20CHTO  C117 8094   5.174   3.137   7.474
   20CHTO  H221 8095   5.163   3.064   7.394
   20CHTO   N20 8096   5.044   3.211   7.476
   20CHTO  H209 8097   5.032   3.268   7.385
   20CHTO  H210 8098   5.040   3.277   7.562
   20CHTO   O80 8099   5.317   3.283   7.306
   20CHTO  C103 8100   5.304   3.436   7.267
   20CHTO  H190 8101   5.202   3.471   7.282
   20CHTO  C101 8102   5.404   3.537   7.337
   20CHTO  H188 8103   5.505   3.494   7.334
   20CHTO   O68 8104   5.364   3.554   7.485
   20CHTO  H168 8105   5.428   3.606   7.530
   20CHTO   C99 8106   5.408   3.678   7.261
   20CHTO  H186 8107   5.308   3.727   7.272
   20CHTO   N17 8108   5.510   3.774   7.315
   20CHTO  H174 8109   5.462   3.860   7.360
   20CHTO  H175 8110   5.576   3.725   7.385
   20CHTO   C97 8111   5.427   3.656   7.109
   20CHTO  H184 8112   5.527   3.614   7.092
   20CHTO   O64 8113   5.324   3.569   7.059
   20CHTO  C104 8114   5.331   3.436   7.112
   20CHTO  H191 8115   5.429   3.392   7.092
   20CHTO  C108 8116   5.230   3.347   7.037
   20CHTO   O71 8117   5.266   3.333   6.899
   20CHTO  H171 8118   5.204   3.277   6.856
   20CHTO   O62 8119   5.409   3.777   7.030
   20CHTO   C91 8120   5.474   3.776   6.901
   20CHTO  H178 8121   5.502   3.673   6.877
   20CHTO   C92 8122   5.606   3.858   6.906
   20CHTO  H179 8123   5.582   3.962   6.934
   20CHTO   O66 8124   5.688   3.807   7.012
   20CHTO  H166 8125   5.712   3.718   6.995
   20CHTO   C93 8126   5.682   3.853   6.767
   20CHTO  H180 8127   5.718   3.750   6.756
   20CHTO   N16 8128   5.802   3.939   6.762
   20CHTO  H172 8129   5.775   4.043   6.777
   20CHTO  H173 8130   5.853   3.927   6.667
   20CHTO   C94 8131   5.583   3.886   6.648
   20CHTO  H181 8132   5.554   3.992   6.647
   20CHTO   O61 8133   5.459   3.812   6.659
   20CHTO   C95 8134   5.388   3.830   6.782
   20CHTO  H182 8135   5.368   3.937   6.796
   20CHTO  C106 8136   5.249   3.757   6.772
   20CHTO   O69 8137   5.167   3.816   6.671
   20CHTO  H169 8138   5.203   3.800   6.586
   20CHTO   O63 8139   5.650   3.847   6.504
   20CHTO   C96 8140   5.677   3.690   6.481
   20CHTO  H183 8141   5.698   3.644   6.578
   20CHTO   C98 8142   5.799   3.662   6.388
   20CHTO  H185 8143   5.889   3.712   6.428
   20CHTO   O67 8144   5.829   3.521   6.395
   20CHTO  H167 8145   5.908   3.502   6.347
   20CHTO  C102 8146   5.770   3.702   6.236
   20CHTO  H189 8147   5.838   3.641   6.175
   20CHTO   N18 8148   5.803   3.843   6.201
   20CHTO  H176 8149   5.745   3.910   6.263
   20CHTO  H177 8150   5.908   3.861   6.217
   20CHTO  C105 8151   5.623   3.666   6.197
   20CHTO  H192 8152   5.561   3.756   6.197
   20CHTO   O65 8153   5.562   3.572   6.287
   20CHTO  C100 8154   5.545   3.624   6.421
   20CHTO  H187 8155   5.466   3.701   6.416
   20CHTO  C107 8156   5.489   3.511   6.511
   20CHTO   O70 8157   5.580   3.400   6.521
   20CHTO  H170 8158   5.543   3.335   6.578
   20CHTO   O57 8159   5.634   3.608   6.054
   20CHTO   C85 8160   5.521   3.614   5.965
   20CHTO  H157 8161   5.454   3.694   6.002
   20CHTO   C83 8162   5.438   3.482   5.975
   20CHTO  H155 8163   5.392   3.478   6.075
   20CHTO   O56 8164   5.526   3.368   5.966
   20CHTO  H135 8165   5.479   3.289   5.982
   20CHTO   C81 8166   5.325   3.482   5.868
   20CHTO  H153 8167   5.262   3.569   5.885
   20CHTO   N14 8168   5.231   3.367   5.882
   20CHTO  H141 8169   5.151   3.377   5.812
   20CHTO  H142 8170   5.283   3.275   5.862
   20CHTO   C79 8171   5.388   3.493   5.725
   20CHTO  H151 8172   5.306   3.498   5.653
   20CHTO   O52 8173   5.462   3.620   5.714
   20CHTO   C86 8174   5.565   3.639   5.815
   20CHTO  H158 8175   5.646   3.568   5.786
   20CHTO   C90 8176   5.626   3.780   5.802
   20CHTO   O60 8177   5.704   3.792   5.682
   20CHTO  H138 8178   5.740   3.879   5.677
   20CHTO   O50 8179   5.474   3.384   5.689
   20CHTO   C73 8180   5.549   3.334   5.577
   20CHTO  H145 8181   5.603   3.417   5.529
   20CHTO   C74 8182   5.454   3.269   5.472
   20CHTO  H146 8183   5.382   3.347   5.441
   20CHTO   O54 8184   5.530   3.236   5.355
   20CHTO  H133 8185   5.561   3.313   5.312
   20CHTO   C75 8186   5.382   3.145   5.538
   20CHTO  H147 8187   5.322   3.182   5.623
   20CHTO   N13 8188   5.286   3.077   5.448
   20CHTO  H139 8189   5.315   2.975   5.430
   20CHTO  H140 8190   5.187   3.077   5.491
   20CHTO   C76 8191   5.491   3.045   5.599
   20CHTO  H148 8192   5.546   3.000   5.516
   20CHTO   O49 8193   5.586   3.115   5.687
   20CHTO   C77 8194   5.652   3.228   5.626
   20CHTO  H149 8195   5.711   3.194   5.540
   20CHTO   C88 8196   5.752   3.289   5.724
   20CHTO   O58 8197   5.859   3.198   5.757
   20CHTO  H136 8198   5.914   3.185   5.681
   20CHTO   O51 8199   5.420   2.937   5.693
   20CHTO   C78 8200   5.513   2.814   5.726
   20CHTO  H150 8201   5.620   2.838   5.706
   20CHTO   C80 8202   5.472   2.692   5.641
   20CHTO  H152 8203   5.364   2.672   5.656
   20CHTO   O55 8204   5.492   2.726   5.502
   20CHTO  H134 8205   5.583   2.740   5.484
   20CHTO   C84 8206   5.554   2.562   5.681
   20CHTO  H156 8207   5.659   2.579   5.654
   20CHTO   N15 8208   5.511   2.439   5.607
   20CHTO  H143 8209   5.407   2.419   5.627
   20CHTO  H144 8210   5.524   2.453   5.502
   20CHTO   C87 8211   5.548   2.541   5.835
   20CHTO  H159 8212   5.447   2.509   5.864
   20CHTO   O53 8213   5.586   2.671   5.909
   20CHTO   C82 8214   5.500   2.781   5.876
   20CHTO  H154 8215   5.397   2.754   5.899
   20CHTO   C89 8216   5.536   2.902   5.966
   20CHTO   O59 8217   5.672   2.944   5.948
   20CHTO  H137 8218   5.689   3.018   6.003
   20CHTO   O45 8219   5.655   2.428   5.883
   20CHTO   C67 8220   5.619   2.366   6.007
   20CHTO  H124 8221   5.542   2.425   6.056
   20CHTO   C65 8222   5.562   2.221   5.982
   20CHTO  H122 8223   5.608   2.186   5.890
   20CHTO   O44 8224   5.421   2.237   5.959
   20CHTO  H102 8225   5.376   2.256   6.039
   20CHTO   C63 8226   5.607   2.117   6.092
   20CHTO  H120 8227   5.710   2.089   6.072
   20CHTO   N11 8228   5.540   1.982   6.087
   20CHTO  H108 8229   5.505   1.954   6.185
   20CHTO  H109 8230   5.457   1.984   6.019
   20CHTO   C61 8231   5.607   2.187   6.233
   20CHTO  H118 8232   5.647   2.114   6.305
   20CHTO   O40 8233   5.696   2.303   6.238
   20CHTO   C68 8234   5.739   2.360   6.110
   20CHTO  H125 8235   5.820   2.297   6.069
   20CHTO   C72 8236   5.801   2.499   6.137
   20CHTO   O48 8237   5.711   2.594   6.196
   20CHTO  H105 8238   5.643   2.616   6.135
   20CHTO   O38 8239   5.475   2.229   6.271
   20CHTO   C55 8240   5.451   2.248   6.412
   20CHTO  H112 8241   5.545   2.277   6.462
   20CHTO   C56 8242   5.389   2.116   6.475
   20CHTO  H113 8243   5.307   2.084   6.408
   20CHTO   O42 8244   5.485   2.009   6.472
   20CHTO  H100 8245   5.560   2.031   6.525
   20CHTO   C57 8246   5.333   2.140   6.622
   20CHTO  H114 8247   5.419   2.154   6.687
   20CHTO   N10 8248   5.257   2.024   6.676
   20CHTO  H106 8249   5.297   1.931   6.637
   20CHTO  H107 8250   5.153   2.031   6.650
   20CHTO   C58 8251   5.248   2.269   6.623
   20CHTO  H115 8252   5.158   2.254   6.558
   20CHTO   O37 8253   5.327   2.378   6.574
   20CHTO   C59 8254   5.355   2.368   6.434
   20CHTO  H116 8255   5.263   2.355   6.377
   20CHTO   C70 8256   5.418   2.502   6.393
   20CHTO   O46 8257   5.420   2.521   6.251
   20CHTO  H103 8258   5.460   2.603   6.231
   20CHTO   O39 8259   5.198   2.310   6.774
   20CHTO   C60 8260   5.125   2.434   6.774
   20CHTO  H117 8261   5.138   2.486   6.680
   20CHTO   C62 8262   4.972   2.409   6.789
   20CHTO  H119 8263   4.944   2.340   6.707
   20CHTO   O43 8264   4.942   2.345   6.915
   20CHTO  H101 8265   4.977   2.258   6.915
   20CHTO   C66 8266   4.896   2.549   6.768
   20CHTO  H123 8267   4.924   2.589   6.671
   20CHTO   N12 8268   4.748   2.534   6.765
   20CHTO  H110 8269   4.702   2.590   6.846
   20CHTO  H111 8270   4.709   2.566   6.670
   20CHTO   C69 8271   4.946   2.652   6.874
   20CHTO  H126 8272   4.911   2.623   6.976
   20CHTO   O41 8273   5.106   2.660   6.873
   20CHTO   C64 8274   5.176   2.529   6.886
   20CHTO  H121 8275   5.155   2.485   6.986
   20CHTO   C71 8276   5.328   2.556   6.875
   20CHTO   O47 8277   5.407   2.443   6.913
   20CHTO  H104 8278   5.396   2.426   7.005
   20CHTO   O34 8279   4.891   2.793   6.841
   20CHTO   C49 8280   4.888   2.918   6.925
   20CHTO   H91 8281   4.809   2.904   6.999
   20CHTO   C47 8282   4.854   3.038   6.833
   20CHTO   H89 8283   4.839   3.123   6.904
   20CHTO   O33 8284   4.730   3.015   6.764
   20CHTO   H70 8285   4.703   3.093   6.720
   20CHTO   C45 8286   4.974   3.068   6.728
   20CHTO   H87 8287   4.950   3.017   6.633
   20CHTO    N8 8288   4.977   3.215   6.703
   20CHTO   H75 8289   5.006   3.267   6.793
   20CHTO   H76 8290   5.048   3.236   6.624
   20CHTO   C43 8291   5.112   3.002   6.778
   20CHTO   H85 8292   5.106   2.897   6.749
   20CHTO   O29 8293   5.125   3.017   6.920
   20CHTO   C50 8294   5.024   2.949   6.997
   20CHTO   H92 8295   5.066   2.854   7.033
   20CHTO   C54 8296   5.003   3.030   7.128
   20CHTO   O36 8297   4.921   2.961   7.222
   20CHTO   H72 8298   4.910   3.013   7.299
   20CHTO   O27 8299   5.229   3.050   6.709
   20CHTO   C37 8300   5.304   3.009   6.593
   20CHTO   H79 8301   5.271   2.909   6.560
   20CHTO   C38 8302   5.281   3.107   6.473
   20CHTO   H80 8303   5.294   3.210   6.510
   20CHTO   O31 8304   5.145   3.090   6.430
   20CHTO   H68 8305   5.124   3.154   6.365
   20CHTO   C39 8306   5.382   3.080   6.355
   20CHTO   H81 8307   5.355   2.985   6.309
   20CHTO    N7 8308   5.374   3.184   6.246
   20CHTO   H73 8309   5.275   3.185   6.204
   20CHTO   H74 8310   5.398   3.282   6.287
   20CHTO   C40 8311   5.530   3.066   6.408
   20CHTO   H82 8312   5.567   3.162   6.444
   20CHTO   O26 8313   5.533   2.966   6.512
   20CHTO   C41 8314   5.455   3.003   6.630
   20CHTO   H83 8315   5.488   3.101   6.667
   20CHTO   C52 8316   5.482   2.899   6.740
   20CHTO   O35 8317   5.622   2.895   6.780
   20CHTO   H71 8318   5.644   2.974   6.826
   20CHTO   O28 8319   5.621   3.016   6.308
   20CHTO   C42 8320   5.766   3.038   6.318
   20CHTO   H84 8321   5.807   2.975   6.239
   20CHTO   C44 8322   5.835   2.991   6.451
   20CHTO   H86 8323   5.789   3.044   6.534
   20CHTO   O32 8324   5.806   2.850   6.466
   20CHTO   H69 8325   5.848   2.801   6.398
   20CHTO   C48 8326   5.990   3.021   6.454
   20CHTO   H90 8327   6.039   2.959   6.379
   20CHTO    N9 8328   6.053   2.984   6.585
   20CHTO   H77 8329   6.009   3.042   6.665
   20CHTO   H78 8330   6.160   3.001   6.581
   20CHTO   C51 8331   6.016   3.171   6.414
   20CHTO   H93 8332   5.973   3.235   6.491
   20CHTO   O30 8333   5.958   3.196   6.286
   20CHTO   C46 8334   5.808   3.185   6.285
   20CHTO   H88 8335   5.767   3.252   6.360
   20CHTO   C53 8336   5.761   3.226   6.145
   20CHTO   O72 8337   5.797   3.362   6.117
   20CHTO  H199 8338   5.767   3.386   6.031
   20CHTO   O22 8339   6.157   3.199   6.396
   20CHTO   C31 8340   6.213   3.335   6.403
   20CHTO   H59 8341   6.323   3.323   6.394
   20CHTO   C29 8342   6.170   3.431   6.289
   20CHTO   H57 8343   6.061   3.445   6.296
   20CHTO   O21 8344   6.195   3.366   6.163
   20CHTO   H37 8345   6.287   3.355   6.149
   20CHTO   C27 8346   6.242   3.571   6.301
   20CHTO   H55 8347   6.349   3.556   6.284
   20CHTO    N5 8348   6.193   3.670   6.201
   20CHTO   H43 8349   6.089   3.694   6.220
   20CHTO   H44 8350   6.253   3.760   6.205
   20CHTO   C25 8351   6.228   3.628   6.446
   20CHTO   H53 8352   6.124   3.661   6.464
   20CHTO   O17 8353   6.262   3.529   6.547
   20CHTO   C32 8354   6.190   3.405   6.540
   20CHTO   H60 8355   6.083   3.426   6.552
   20CHTO   C36 8356   6.236   3.318   6.660
   20CHTO   O25 8357   6.377   3.296   6.658
   20CHTO   H40 8358   6.400   3.241   6.586
   20CHTO   O15 8359   6.327   3.750   6.467
   20CHTO   C19 8360   6.381   3.817   6.585
   20CHTO   H47 8361   6.453   3.889   6.543
   20CHTO   C20 8362   6.274   3.896   6.667
   20CHTO   H48 8363   6.194   3.830   6.703
   20CHTO   O19 8364   6.216   3.991   6.576
   20CHTO   H35 8365   6.146   4.037   6.618
   20CHTO   C21 8366   6.340   3.968   6.792
   20CHTO   H49 8367   6.410   4.044   6.756
   20CHTO    N4 8368   6.240   4.039   6.877
   20CHTO   H41 8369   6.168   3.969   6.917
   20CHTO   H42 8370   6.290   4.089   6.959
   20CHTO   C22 8371   6.423   3.864   6.872
   20CHTO   H50 8372   6.354   3.789   6.912
   20CHTO   O14 8373   6.519   3.801   6.785
   20CHTO   C23 8374   6.461   3.724   6.679
   20CHTO   H51 8375   6.396   3.648   6.726
   20CHTO   C34 8376   6.574   3.650   6.605
   20CHTO   O23 8377   6.635   3.551   6.688
   20CHTO   H38 8378   6.682   3.592   6.758
   20CHTO   O16 8379   6.500   3.922   6.979
   20CHTO   C24 8380   6.565   3.809   7.075
   20CHTO   H52 8381   6.558   3.709   7.031
   20CHTO   C26 8382   6.497   3.810   7.212
   20CHTO   H54 8383   6.510   3.911   7.258
   20CHTO   O20 8384   6.355   3.788   7.195
   20CHTO   H36 8385   6.339   3.703   7.158
   20CHTO   C30 8386   6.561   3.704   7.307
   20CHTO   H58 8387   6.530   3.603   7.274
   20CHTO    N6 8388   6.509   3.715   7.446
   20CHTO   H45 8389   6.402   3.702   7.447
   20CHTO   H46 8390   6.554   3.640   7.509
   20CHTO   C33 8391   6.717   3.706   7.303
   20CHTO   H61 8392   6.754   3.786   7.369
   20CHTO   O18 8393   6.772   3.729   7.172
   20CHTO   C28 8394   6.716   3.837   7.096
   20CHTO   H56 8395   6.727   3.932   7.150
   20CHTO   C35 8396   6.792   3.849   6.962
   20CHTO   O24 8397   6.794   3.728   6.886
   20CHTO   H39 8398   6.707   3.708   6.856
   20CHTO    O9 8399   6.769   3.584   7.361
   20CHTO   C13 8400   6.824   3.448   7.267
   20CHTO   H26 8401   6.935   3.450   7.272
   20CHTO   C11 8402   6.773   3.440   7.116
   20CHTO   H24 8403   6.819   3.523   7.060
   20CHTO    O8 8404   6.630   3.456   7.110
   20CHTO    H3 8405   6.602   3.462   7.021
   20CHTO    C9 8406   6.824   3.307   7.053
   20CHTO   H22 8407   6.932   3.309   7.065
   20CHTO    N2 8408   6.802   3.298   6.906
   20CHTO   H10 8409   6.697   3.291   6.885
   20CHTO   H11 8410   6.855   3.213   6.867
   20CHTO    C7 8411   6.769   3.185   7.133
   20CHTO   H20 8412   6.823   3.098   7.089
   20CHTO    O4 8413   6.804   3.194   7.273
   20CHTO   C14 8414   6.784   3.317   7.346
   20CHTO   H27 8415   6.850   3.311   7.435
   20CHTO   C18 8416   6.638   3.324   7.400
   20CHTO   O13 8417   6.612   3.220   7.494
   20CHTO    H7 8418   6.524   3.227   7.525
   20CHTO    O2 8419   6.605   3.163   7.119
   20CHTO    C1 8420   6.550   3.030   7.129
   20CHTO   H14 8421   6.454   3.039   7.183
   20CHTO    C2 8422   6.638   2.920   7.204
   20CHTO   H15 8423   6.736   2.917   7.154
   20CHTO    O6 8424   6.653   2.963   7.340
   20CHTO    H1 8425   6.712   2.906   7.385
   20CHTO    C3 8426   6.569   2.775   7.198
   20CHTO   H16 8427   6.481   2.776   7.263
   20CHTO    N1 8428   6.659   2.667   7.250
   20CHTO    H8 8429   6.683   2.686   7.353
   20CHTO    H9 8430   6.750   2.663   7.191
   20CHTO    C4 8431   6.514   2.742   7.053
   20CHTO   H17 8432   6.599   2.717   6.988
   20CHTO    O1 8433   6.441   2.852   6.997
   20CHTO    C5 8434   6.513   2.976   6.988
   20CHTO   H18 8435   6.606   2.959   6.933
   20CHTO   C16 8436   6.427   3.075   6.906
   20CHTO   O11 8437   6.299   3.100   6.967
   20CHTO    H5 8438   6.251   3.161   6.914
   20CHTO    O3 8439   6.420   2.633   7.060
   20CHTO    C6 8440   6.390   2.564   6.935
   20CHTO   H19 8441   6.412   2.624   6.847
   20CHTO    C8 8442   6.472   2.431   6.925
   20CHTO   H21 8443   6.455   2.374   7.017
   20CHTO    O7 8444   6.610   2.468   6.916
   20CHTO    H2 8445   6.665   2.392   6.921
   20CHTO   C12 8446   6.426   2.344   6.801
   20CHTO   H25 8447   6.458   2.399   6.710
   20CHTO    N3 8448   6.496   2.211   6.799
   20CHTO   H12 8449   6.603   2.227   6.794
   20CHTO   H13 8450   6.463   2.153   6.714
   20CHTO   C15 8451   6.269   2.331   6.799
   20CHTO   H28 8452   6.233   2.265   6.878
   20CHTO   O10 8453   6.217   2.281   6.663
   20CHTO    H4 8454   6.126   2.261   6.669
   20CHTO    O5 8455   6.206   2.460   6.809
   20CHTO   C10 8456   6.238   2.531   6.930
   20CHTO   H23 8457   6.212   2.469   7.015
   20CHTO   C17 8458   6.150   2.657   6.938
   20CHTO   O12 8459   6.174   2.747   6.829
   20CHTO    H6 8460   6.117   2.821   6.837
   21GLOH   H03 8461   0.030   4.184   0.442
   21GLOH    O1 8462   9.959   4.213   0.379
   21GLOH    C1 8463   0.004   4.203   0.242
   21GLOH   H02 8464   0.030   4.302   0.205
   21GLOH   H08 8465   9.922   4.167   0.180
   21GLOH    C2 8466   0.125   4.110   0.218
   21GLOH   H04 8467   0.208   4.143   0.283
   21GLOH    O2 8468   0.093   3.972   0.248
   21GLOH   H05 8469   0.176   3.917   0.248
   21GLOH    C3 8470   0.172   4.119   0.072
   21GLOH   H06 8471   0.089   4.086   0.008
   21GLOH   H07 8472   0.253   4.048   0.057
   21GLOH    O3 8473   0.215   4.251   0.033
   21GLOH   H01 8474   0.209   4.257   8.124
   22GLOH   H03 8475   7.225   9.726   6.594
   22GLOH    O1 8476   7.315   9.689   6.602
   22GLOH    C1 8477   7.321   9.613   6.724
   22GLOH   H02 8478   7.422   9.619   6.767
   22GLOH   H08 8479   7.303   9.508   6.703
   22GLOH    C2 8480   7.221   9.660   6.832
   22GLOH   H04 8481   7.249   9.761   6.863
   22GLOH    O2 8482   7.087   9.662   6.778
   22GLOH   H05 8483   7.027   9.660   6.856
   22GLOH    C3 8484   7.227   9.568   6.955
   22GLOH   H06 8485   7.327   9.573   6.998
   22GLOH   H07 8486   7.211   9.465   6.923
   22GLOH    O3 8487   7.128   9.606   7.053
   22GLOH   H01 8488   7.162   9.592   7.143
   23GLOH   H03 8489   7.728   7.954   3.223
   23GLOH    O1 8490   7.733   7.996   3.133
   23GLOH    C1 8491   7.820   7.914   3.052
   23GLOH   H02 8492   7.772   7.818   3.032
   23GLOH   H08 8493   7.912   7.892   3.106
   23GLOH    C2 8494   7.857   7.978   2.917
   23GLOH   H04 8495   7.764   7.997   2.861
   23GLOH    O2 8496   7.928   8.103   2.935
   23GLOH   H05 8497   7.924   8.158   2.852
   23GLOH    C3 8498   7.945   7.882   2.835
   23GLOH   H06 8499   8.035   7.860   2.892
   23GLOH   H07 8500   7.977   7.932   2.744
   23GLOH    O3 8501   7.876   7.760   2.803
   23GLOH   H01 8502   7.819   7.777   2.723
   24GLOH   H03 8503   1.207   0.461   7.574
   24GLOH    O1 8504   1.226   0.454   7.477
   24GLOH    C1 8505   1.162   0.335   7.429
   24GLOH   H02 8506   1.226   0.248   7.445
   24GLOH   H08 8507   1.145   0.342   7.321
   24GLOH    C2 8508   1.027   0.310   7.498
   24GLOH   H04 8509   0.962   0.397   7.481
   24GLOH    O2 8510   0.963   0.192   7.446
   24GLOH   H05 8511   0.920   0.212   7.361
   24GLOH    C3 8512   1.048   0.295   7.650
   24GLOH   H06 8513   1.107   0.205   7.668
   24GLOH   H07 8514   0.951   0.280   7.697
   24GLOH    O3 8515   1.114   0.410   7.708
   24GLOH   H01 8516   1.104   0.406   7.806
   25GLOH   H03 8517   0.375   4.120   3.187
   25GLOH    O1 8518   0.341   4.179   3.260
   25GLOH    C1 8519   0.249   4.273   3.200
   25GLOH   H02 8520   0.242   4.257   3.092
   25GLOH   H08 8521   0.285   4.375   3.213
   25GLOH    C2 8522   0.107   4.263   3.260
   25GLOH   H04 8523   0.114   4.291   3.366
   25GLOH    O2 8524   0.019   4.356   3.193
   25GLOH   H05 8525   9.971   4.310   3.118
   25GLOH    C3 8526   0.054   4.119   3.252
   25GLOH   H06 8527   0.048   4.089   3.147
   25GLOH   H07 8528   9.952   4.117   3.291
   25GLOH    O3 8529   0.138   4.027   3.325
   25GLOH   H01 8530   0.229   4.063   3.317
   26GLOH   H03 8531   8.109   1.787   3.544
   26GLOH    O1 8532   8.132   1.858   3.477
   26GLOH    C1 8533   8.131   1.802   3.344
   26GLOH   H02 8534   8.181   1.705   3.344
   26GLOH   H08 8535   8.189   1.866   3.277
   26GLOH    C2 8536   7.991   1.783   3.283
   26GLOH   H04 8537   7.939   1.704   3.339
   26GLOH    O2 8538   7.910   1.902   3.284
   26GLOH   H05 8539   7.925   1.952   3.370
   26GLOH    C3 8540   8.004   1.737   3.136
   26GLOH   H06 8541   8.065   1.810   3.082
   26GLOH   H07 8542   7.906   1.739   3.090
   26GLOH    O3 8543   8.061   1.606   3.127
   26GLOH   H01 8544   7.985   1.543   3.125
   27GLOH   H03 8545   2.572   5.548   7.266
   27GLOH    O1 8546   2.487   5.545   7.313
   27GLOH    C1 8547   2.492   5.448   7.419
   27GLOH   H02 8548   2.419   5.473   7.497
   27GLOH   H08 8549   2.590   5.449   7.468
   27GLOH    C2 8550   2.464   5.306   7.369
   27GLOH   H04 8551   2.546   5.276   7.302
   27GLOH    O2 8552   2.460   5.214   7.480
   27GLOH   H05 8553   2.369   5.211   7.515
   27GLOH    C3 8554   2.332   5.301   7.290
   27GLOH   H06 8555   2.312   5.197   7.263
   27GLOH   H07 8556   2.345   5.356   7.197
   27GLOH    O3 8557   2.222   5.355   7.365
   27GLOH   H01 8558   2.228   5.452   7.364
   28GLOH   H03 8559   6.433   0.788   6.735
   28GLOH    O1 8560   6.393   0.734   6.805
   28GLOH    C1 8561   6.433   0.784   6.935
   28GLOH   H02 8562   6.404   0.888   6.945
   28GLOH   H08 8563   6.541   0.780   6.945
   28GLOH    C2 8564   6.369   0.703   7.050
   28GLOH   H04 8565   6.260   0.714   7.043
   28GLOH    O2 8566   6.404   0.564   7.038
   28GLOH   H05 8567   6.389   0.540   6.944
   28GLOH    C3 8568   6.416   0.757   7.186
   28GLOH   H06 8569   6.523   0.741   7.195
   28GLOH   H07 8570   6.368   0.698   7.264
   28GLOH    O3 8571   6.385   0.897   7.204
   28GLOH   H01 8572   6.409   0.924   7.295
   29GLOH   H03 8573   4.205   6.731   4.901
   29GLOH    O1 8574   4.221   6.668   4.826
   29GLOH    C1 8575   4.103   6.586   4.814
   29GLOH   H02 8576   4.016   6.649   4.793
   29GLOH   H08 8577   4.082   6.534   4.907
   29GLOH    C2 8578   4.114   6.481   4.702
   29GLOH   H04 8579   4.195   6.411   4.727
   29GLOH    O2 8580   3.989   6.409   4.691
   29GLOH   H05 8581   4.001   6.335   4.625
   29GLOH    C3 8582   4.148   6.550   4.569
   29GLOH   H06 8583   4.063   6.612   4.539
   29GLOH   H07 8584   4.161   6.473   4.492
   29GLOH    O3 8585   4.267   6.630   4.580
   29GLOH   H01 8586   4.272   6.654   4.676
   30GLOH   H03 8587   7.988   8.191   0.222
   30GLOH    O1 8588   7.974   8.156   0.314
   30GLOH    C1 8589   8.068   8.049   0.335
   30GLOH   H02 8590   8.154   8.062   0.269
   30GLOH   H08 8591   8.023   7.953   0.309
   30GLOH    C2 8592   8.118   8.043   0.480
   30GLOH   H04 8593   8.030   8.041   0.546
   30GLOH    O2 8594   8.195   7.922   0.503
   30GLOH   H05 8595   8.203   7.908   0.601
   30GLOH    C3 8596   8.201   8.168   0.516
   30GLOH   H06 8597   8.232   8.159   0.620
   30GLOH   H07 8598   8.135   8.254   0.511
   30GLOH    O3 8599   8.317   8.191   0.433
   30GLOH   H01 8600   8.377   8.112   0.437
   31GLOH   H03 8601   4.652   8.633   4.196
   31GLOH    O1 8602   4.607   8.712   4.157
   31GLOH    C1 8603   4.700   8.780   4.071
   31GLOH   H02 8604   4.793   8.800   4.124
   31GLOH   H08 8605   4.660   8.876   4.041
   31GLOH    C2 8606   4.734   8.700   3.943
   31GLOH   H04 8607   4.815   8.755   3.891
   31GLOH    O2 8608   4.783   8.567   3.974
   31GLOH   H05 8609   4.861   8.578   4.037
   31GLOH    C3 8610   4.614   8.694   3.848
   31GLOH   H06 8611   4.528   8.654   3.903
   31GLOH   H07 8612   4.637   8.621   3.770
   31GLOH    O3 8613   4.581   8.820   3.789
   31GLOH   H01 8614   4.502   8.857   3.835
   32GLOH   H03 8615   7.418   6.872   8.060
   32GLOH    O1 8616   7.358   6.827   8.123
   32GLOH    C1 8617   7.428   6.714   8.179
   32GLOH   H02 8618   7.357   6.633   0.011
   32GLOH   H08 8619   7.472   6.741   0.086
   32GLOH    C2 8620   7.538   6.660   8.086
   32GLOH   H04 8621   7.491   6.624   7.993
   32GLOH    O2 8622   7.632   6.765   8.055
   32GLOH   H05 8623   7.674   6.799   8.138
   32GLOH    C3 8624   7.612   6.542   8.151
   32GLOH   H06 8625   7.657   6.577   0.055
   32GLOH   H07 8626   7.694   6.513   8.086
   32GLOH    O3 8627   7.527   6.429   8.177
   32GLOH   H01 8628   7.576   6.347   8.155
   33GLOH   H03 8629   5.819   1.229   1.007
   33GLOH    O1 8630   5.866   1.308   0.972
   33GLOH    C1 8631   5.914   1.382   1.086
   33GLOH   H02 8632   5.837   1.449   1.123
   33GLOH   H08 8633   5.999   1.445   1.058
   33GLOH    C2 8634   5.958   1.290   1.202
   33GLOH   H04 8635   6.039   1.225   1.166
   33GLOH    O2 8636   6.005   1.366   1.315
   33GLOH   H05 8637   6.103   1.351   1.328
   33GLOH    C3 8638   5.838   1.201   1.242
   33GLOH   H06 8639   5.758   1.266   1.275
   33GLOH   H07 8640   5.867   1.140   1.328
   33GLOH    O3 8641   5.793   1.117   1.134
   33GLOH   H01 8642   5.713   1.067   1.165
   34GLOH   H03 8643   8.403   0.716   7.822
   34GLOH    O1 8644   8.370   0.645   7.763
   34GLOH    C1 8645   8.352   0.523   7.837
   34GLOH   H02 8646   8.292   0.541   7.926
   34GLOH   H08 8647   8.448   0.485   7.872
   34GLOH    C2 8648   8.284   0.414   7.753
   34GLOH   H04 8649   8.278   0.322   7.813
   34GLOH    O2 8650   8.150   0.456   7.718
   34GLOH   H05 8651   8.154   0.550   7.693
   34GLOH    C3 8652   8.365   0.383   7.626
   34GLOH   H06 8653   8.362   0.470   7.561
   34GLOH   H07 8654   8.315   0.302   7.572
   34GLOH    O3 8655   8.501   0.347   7.656
   34GLOH   H01 8656   8.556   0.427   7.658
   35GLOH   H03 8657   9.735   7.274   5.719
   35GLOH    O1 8658   9.801   7.323   5.662
   35GLOH    C1 8659   9.726   7.396   5.563
   35GLOH   H02 8660   9.650   7.458   5.611
   35GLOH   H08 8661   9.673   7.327   5.497
   35GLOH    C2 8662   9.816   7.486   5.477
   35GLOH   H04 8663   9.892   7.423   5.429
   35GLOH    O2 8664   9.736   7.552   5.377
   35GLOH   H05 8665   9.796   7.576   5.301
   35GLOH    C3 8666   9.887   7.589   5.568
   35GLOH   H06 8667   9.937   7.534   5.648
   35GLOH   H07 8668   9.811   7.651   5.615
   35GLOH    O3 8669   9.983   7.671   5.498
   35GLOH   H01 8670   0.055   7.614   5.462
   36GLOH   H03 8671   3.964   8.025   7.360
   36GLOH    O1 8672   4.003   8.113   7.375
   36GLOH    C1 8673   4.036   8.128   7.515
   36GLOH   H02 8674   4.102   8.048   7.547
   36GLOH   H08 8675   3.946   8.122   7.576
   36GLOH    C2 8676   4.105   8.263   7.543
   36GLOH   H04 8677   4.202   8.264   7.491
   36GLOH    O2 8678   4.024   8.372   7.496
   36GLOH   H05 8679   3.991   8.346   7.408
   36GLOH    C3 8680   4.130   8.279   7.694
   36GLOH   H06 8681   4.034   8.283   7.745
   36GLOH   H07 8682   4.179   8.375   7.711
   36GLOH    O3 8683   4.210   8.172   7.747
   36GLOH   H01 8684   4.221   8.184   7.844
   37GLOH   H03 8685   5.325   4.005   7.341
   37GLOH    O1 8686   5.270   4.026   7.264
   37GLOH    C1 8687   5.311   4.152   7.206
   37GLOH   H02 8688   5.409   4.141   7.160
   37GLOH   H08 8689   5.320   4.228   7.284
   37GLOH    C2 8690   5.212   4.202   7.100
   37GLOH   H04 8691   5.114   4.218   7.147
   37GLOH    O2 8692   5.259   4.328   7.046
   37GLOH   H05 8693   5.187   4.373   6.999
   37GLOH    C3 8694   5.197   4.097   6.989
   37GLOH   H06 8695   5.293   4.084   6.939
   37GLOH   H07 8696   5.126   4.134   6.914
   37GLOH    O3 8697   5.152   3.972   7.042
   37GLOH   H01 8698   5.187   3.967   7.135
   38GLOH   H03 8699   9.968   0.302   5.242
   38GLOH    O1 8700   9.900   0.301   5.169
   38GLOH    C1 8701   9.928   0.189   5.082
   38GLOH   H02 8702   9.863   0.192   4.995
   38GLOH   H08 8703   9.907   0.095   5.134
   38GLOH    C2 8704   0.075   0.185   5.034
   38GLOH   H04 8705   0.139   0.177   5.123
   38GLOH    O2 8706   0.098   0.068   4.953
   38GLOH   H05 8707   0.159   0.093   4.878
   38GLOH    C3 8708   0.113   0.315   4.961
   38GLOH   H06 8709   0.222   0.317   4.950
   38GLOH   H07 8710   0.088   0.399   5.026
   38GLOH    O3 8711   0.050   0.331   4.833
   38GLOH   H01 8712   0.055   0.428   4.810
   39GLOH   H03 8713   3.194   8.783   6.739
   39GLOH    O1 8714   3.209   8.690   6.714
   39GLOH    C1 8715   3.087   8.635   6.659
   39GLOH   H02 8716   3.023   8.600   6.740
   39GLOH   H08 8717   3.110   8.547   6.599
   39GLOH    C2 8718   3.005   8.734   6.573
   39GLOH   H04 8719   2.948   8.800   6.641
   39GLOH    O2 8720   3.088   8.814   6.486
   39GLOH   H05 8721   3.029   8.879   6.436
   39GLOH    C3 8722   2.906   8.654   6.487
   39GLOH   H06 8723   2.962   8.582   6.428
   39GLOH   H07 8724   2.860   8.723   6.417
   39GLOH    O3 8725   2.806   8.587   6.565
   39GLOH   H01 8726   2.727   8.576   6.506
   40GLOH   H03 8727   0.833   3.939   3.807
   40GLOH    O1 8728   0.848   4.038   3.804
   40GLOH    C1 8729   0.864   4.092   3.937
   40GLOH   H02 8730   0.767   4.110   3.982
   40GLOH   H08 8731   0.914   4.189   3.931
   40GLOH    C2 8732   0.946   4.004   4.034
   40GLOH   H04 8733   0.896   3.906   4.039
   40GLOH    O2 8734   1.082   3.983   3.991
   40GLOH   H05 8735   1.129   4.071   3.983
   40GLOH    C3 8736   0.938   4.065   4.176
   40GLOH   H06 8737   1.011   4.014   4.239
   40GLOH   H07 8738   0.840   4.041   4.217
   40GLOH    O3 8739   0.960   4.207   4.181
   40GLOH   H01 8740   0.944   4.236   4.274
   41GLOH   H03 8741   1.030   2.907   3.590
   41GLOH    O1 8742   1.070   2.817   3.599
   41GLOH    C1 8743   1.198   2.816   3.534
   41GLOH   H02 8744   1.270   2.757   3.591
   41GLOH   H08 8745   1.239   2.918   3.528
   41GLOH    C2 8746   1.193   2.759   3.391
   41GLOH   H04 8747   1.293   2.769   3.346
   41GLOH    O2 8748   1.157   2.619   3.392
   41GLOH   H05 8749   1.076   2.609   3.448
   41GLOH    C3 8750   1.095   2.838   3.303
   41GLOH   H06 8751   0.995   2.833   3.347
   41GLOH   H07 8752   1.089   2.790   3.205
   41GLOH    O3 8753   1.137   2.975   3.289
   41GLOH   H01 8754   1.071   3.020   3.230
   42GLOH   H03 8755   2.675   7.444   0.778
   42GLOH    O1 8756   2.613   7.521   0.789
   42GLOH    C1 8757   2.692   7.632   0.834
   42GLOH   H02 8758   2.704   7.705   0.753
   42GLOH   H08 8759   2.793   7.599   0.860
   42GLOH    C2 8760   2.634   7.706   0.956
   42GLOH   H04 8761   2.629   7.634   1.039
   42GLOH    O2 8762   2.722   7.814   0.994
   42GLOH   H05 8763   2.692   7.899   0.951
   42GLOH    C3 8764   2.490   7.753   0.927
   42GLOH   H06 8765   2.427   7.665   0.916
   42GLOH   H07 8766   2.490   7.803   0.830
   42GLOH    O3 8767   2.434   7.839   1.028
   42GLOH   H01 8768   2.453   7.800   1.118
   43GLOH   H03 8769   4.623   8.655   7.838
   43GLOH    O1 8770   4.712   8.615   7.852
   43GLOH    C1 8771   4.743   8.527   7.742
   43GLOH   H02 8772   4.784   8.583   7.658
   43GLOH   H08 8773   4.653   8.477   7.706
   43GLOH    C2 8774   4.845   8.418   7.782
   43GLOH   H04 8775   4.803   8.359   7.864
   43GLOH    O2 8776   4.873   8.332   7.670
   43GLOH   H05 8777   4.807   8.259   7.666
   43GLOH    C3 8778   4.975   8.484   7.832
   43GLOH   H06 8779   5.022   8.537   7.749
   43GLOH   H07 8780   5.044   8.406   7.864
   43GLOH    O3 8781   4.947   8.574   7.940
   43GLOH   H01 8782   4.853   8.601   7.927
   44GLOH   H03 8783   6.361   3.592   0.209
   44GLOH    O1 8784   6.459   3.582   0.198
   44GLOH    C1 8785   6.503   3.678   0.100
   44GLOH   H02 8786   6.461   3.776   0.122
   44GLOH   H08 8787   6.465   3.650   0.001
   44GLOH    C2 8788   6.656   3.693   0.090
   44GLOH   H04 8789   6.678   3.764   0.009
   44GLOH    O2 8790   6.712   3.744   0.213
   44GLOH   H05 8791   6.646   3.806   0.256
   44GLOH    C3 8792   6.722   3.558   0.053
   44GLOH   H06 8793   6.707   3.488   0.135
   44GLOH   H07 8794   6.829   3.574   0.043
   44GLOH    O3 8795   6.668   3.503   8.120
   44GLOH   H01 8796   6.587   3.453   8.142
   45GLOH   H03 8797   2.236   3.755   1.461
   45GLOH    O1 8798   2.210   3.844   1.426
   45GLOH    C1 8799   2.066   3.847   1.427
   45GLOH   H02 8800   2.029   3.819   1.526
   45GLOH   H08 8801   2.027   3.773   1.357
   45GLOH    C2 8802   2.008   3.984   1.391
   45GLOH   H04 8803   2.039   4.008   1.288
   45GLOH    O2 8804   1.864   3.982   1.396
   45GLOH   H05 8805   1.829   3.911   1.333
   45GLOH    C3 8806   2.065   4.094   1.483
   45GLOH   H06 8807   2.017   4.189   1.457
   45GLOH   H07 8808   2.171   4.107   1.459
   45GLOH    O3 8809   2.048   4.067   1.624
   45GLOH   H01 8810   1.954   4.043   1.641
   46GLOH   H03 8811   4.454   4.502   5.043
   46GLOH    O1 8812   4.459   4.592   5.084
   46GLOH    C1 8813   4.588   4.647   5.050
   46GLOH   H02 8814   4.618   4.721   5.124
   46GLOH   H08 8815   4.583   4.698   4.954
   46GLOH    C2 8816   4.697   4.538   5.042
   46GLOH   H04 8817   4.790   4.587   5.009
   46GLOH    O2 8818   4.719   4.476   5.170
   46GLOH   H05 8819   4.634   4.434   5.204
   46GLOH    C3 8820   4.658   4.435   4.934
   46GLOH   H06 8821   4.739   4.363   4.924
   46GLOH   H07 8822   4.651   4.487   4.838
   46GLOH    O3 8823   4.533   4.369   4.962
   46GLOH   H01 8824   4.558   4.277   4.992
   47GLOH   H03 8825   1.949   4.893   6.423
   47GLOH    O1 8826   1.881   4.903   6.494
   47GLOH    C1 8827   1.778   4.804   6.476
   47GLOH   H02 8828   1.807   4.710   6.523
   47GLOH   H08 8829   1.763   4.784   6.370
   47GLOH    C2 8830   1.643   4.849   6.536
   47GLOH   H04 8831   1.616   4.946   6.492
   47GLOH    O2 8832   1.539   4.752   6.508
   47GLOH   H05 8833   1.528   4.738   6.410
   47GLOH    C3 8834   1.656   4.867   6.689
   47GLOH   H06 8835   1.571   4.925   6.724
   47GLOH   H07 8836   1.746   4.924   6.711
   47GLOH    O3 8837   1.660   4.739   6.755
   47GLOH   H01 8838   1.592   4.685   6.710
   48GLOH   H03 8839   7.942   3.668   8.163
   48GLOH    O1 8840   8.030   3.695   0.008
   48GLOH    C1 8841   8.108   3.746   8.086
   48GLOH   H02 8842   8.118   3.669   8.009
   48GLOH   H08 8843   8.209   3.769   8.120
   48GLOH    C2 8844   8.048   3.872   8.021
   48GLOH   H04 8845   8.103   3.889   7.927
   48GLOH    O2 8846   7.909   3.853   7.988
   48GLOH   H05 8847   7.853   3.874   8.065
   48GLOH    C3 8848   8.068   3.997   8.109
   48GLOH   H06 8849   8.018   3.980   0.015
   48GLOH   H07 8850   8.018   4.081   8.060
   48GLOH    O3 8851   8.207   4.028   8.130
   48GLOH   H01 8852   8.216   4.126   8.144
   49GLOH   H03 8853   4.387   0.517   1.518
   49GLOH    O1 8854   4.394   0.552   1.611
   49GLOH    C1 8855   4.299   0.659   1.628
   49GLOH   H02 8856   4.252   0.653   1.726
   49GLOH   H08 8857   4.219   0.651   1.554
   49GLOH    C2 8858   4.367   0.796   1.613
   49GLOH   H04 8859   4.412   0.801   1.513
   49GLOH    O2 8860   4.273   0.905   1.627
   49GLOH   H05 8861   4.315   0.987   1.585
   49GLOH    C3 8862   4.479   0.808   1.717
   49GLOH   H06 8863   4.436   0.803   1.817
   49GLOH   H07 8864   4.525   0.907   1.708
   49GLOH    O3 8865   4.577   0.704   1.699
   49GLOH   H01 8866   4.522   0.626   1.671
   50GLOH   H03 8867   4.494   7.314   1.477
   50GLOH    O1 8868   4.573   7.289   1.423
   50GLOH    C1 8869   4.542   7.168   1.352
   50GLOH   H02 8870   4.434   7.161   1.334
   50GLOH   H08 8871   4.569   7.080   1.411
   50GLOH    C2 8872   4.613   7.159   1.215
   50GLOH   H04 8873   4.576   7.241   1.152
   50GLOH    O2 8874   4.756   7.170   1.230
   50GLOH   H05 8875   4.776   7.253   1.281
   50GLOH    C3 8876   4.576   7.025   1.149
   50GLOH   H06 8877   4.613   6.944   1.212
   50GLOH   H07 8878   4.628   7.019   1.053
   50GLOH    O3 8879   4.434   7.010   1.129
   50GLOH   H01 8880   4.407   6.927   1.175
   51GLOH   H03 8881   7.806   0.095   7.921
   51GLOH    O1 8882   7.818   0.009   7.965
   51GLOH    C1 8883   7.926   0.015   8.060
   51GLOH   H02 8884   7.937   0.115   8.100
   51GLOH   H08 8885   8.020   9.991   8.010
   51GLOH    C2 8886   7.906   9.917   8.177
   51GLOH   H04 8887   8.000   9.915   0.047
   51GLOH    O2 8888   7.800   9.959   0.076
   51GLOH   H05 8889   7.736   0.019   0.029
   51GLOH    C3 8890   7.879   9.774   8.128
   51GLOH   H06 8891   7.791   9.775   8.064
   51GLOH   H07 8892   7.853   9.712   0.026
   51GLOH    O3 8893   7.991   9.717   8.059
   51GLOH   H01 8894   7.989   9.749   7.966
   52GLOH   H03 8895   7.941   8.527   6.171
   52GLOH    O1 8896   7.856   8.509   6.219
   52GLOH    C1 8897   7.760   8.461   6.122
   52GLOH   H02 8898   7.701   8.380   6.165
   52GLOH   H08 8899   7.811   8.420   6.034
   52GLOH    C2 8900   7.666   8.574   6.077
   52GLOH   H04 8901   7.727   8.656   6.037
   52GLOH    O2 8902   7.575   8.527   5.976
   52GLOH   H05 8903   7.548   8.605   5.919
   52GLOH    C3 8904   7.587   8.626   6.199
   52GLOH   H06 8905   7.517   8.549   6.232
   52GLOH   H07 8906   7.527   8.712   6.167
   52GLOH    O3 8907   7.675   8.663   6.306
   52GLOH   H01 8908   7.755   8.605   6.295
   53GLOH   H03 8909   4.540   1.524   5.742
   53GLOH    O1 8910   4.498   1.611   5.764
   53GLOH    C1 8911   4.603   1.705   5.797
   53GLOH   H02 8912   4.566   1.807   5.785
   53GLOH   H08 8913   4.686   1.695   5.728
   53GLOH    C2 8914   4.655   1.689   5.941
   53GLOH   H04 8915   4.678   1.583   5.958
   53GLOH    O2 8916   4.775   1.768   5.958
   53GLOH   H05 8917   4.809   1.752   6.051
   53GLOH    C3 8918   4.545   1.732   6.041
   53GLOH   H06 8919   4.455   1.675   6.018
   53GLOH   H07 8920   4.522   1.837   6.023
   53GLOH    O3 8921   4.581   1.713   6.180
   53GLOH   H01 8922   4.678   1.727   6.192
   54GLOH   H03 8923   5.652   4.927   7.619
   54GLOH    O1 8924   5.668   5.014   7.659
   54GLOH    C1 8925   5.744   5.001   7.781
   54GLOH   H02 8926   5.796   5.095   7.803
   54GLOH   H08 8927   5.821   4.925   7.770
   54GLOH    C2 8928   5.656   4.965   7.901
   54GLOH   H04 8929   5.599   4.873   7.877
   54GLOH    O2 8930   5.739   4.939   8.017
   54GLOH   H05 8931   5.681   4.904   8.089
   54GLOH    C3 8932   5.555   5.078   7.928
   54GLOH   H06 8933   5.496   5.093   7.837
   54GLOH   H07 8934   5.610   5.171   7.945
   54GLOH    O3 8935   5.465   5.053   8.038
   54GLOH   H01 8936   5.498   4.974   8.089
   55GLOH   H03 8937   4.036   8.694   2.142
   55GLOH    O1 8938   3.994   8.645   2.067
   55GLOH    C1 8939   3.905   8.547   2.123
   55GLOH   H02 8940   3.804   8.560   2.084
   55GLOH   H08 8941   3.898   8.558   2.231
   55GLOH    C2 8942   3.951   8.403   2.093
   55GLOH   H04 8943   4.048   8.387   2.142
   55GLOH    O2 8944   3.855   8.310   2.143
   55GLOH   H05 8945   3.892   8.217   2.134
   55GLOH    C3 8946   3.969   8.384   1.941
   55GLOH   H06 8947   3.874   8.399   1.892
   55GLOH   H07 8948   3.999   8.280   1.922
   55GLOH    O3 8949   4.069   8.474   1.891
   55GLOH   H01 8950   4.062   8.555   1.947
   56GLOH   H03 8951   1.002   8.974   6.494
   56GLOH    O1 8952   0.998   8.989   6.397
   56GLOH    C1 8953   1.115   9.061   6.353
   56GLOH   H02 8954   1.152   9.126   6.432
   56GLOH   H08 8955   1.088   9.126   6.269
   56GLOH    C2 8956   1.229   8.968   6.308
   56GLOH   H04 8957   1.254   8.901   6.391
   56GLOH    O2 8958   1.190   8.889   6.194
   56GLOH   H05 8959   1.162   8.950   6.120
   56GLOH    C3 8960   1.356   9.047   6.271
   56GLOH   H06 8961   1.330   9.120   6.195
   56GLOH   H07 8962   1.427   8.978   6.224
   56GLOH    O3 8963   1.418   9.112   6.384
   56GLOH   H01 8964   1.417   9.052   6.461
   57GLOH   H03 8965   2.460   7.990   1.052
   57GLOH    O1 8966   2.480   8.087   1.061
   57GLOH    C1 8967   2.414   8.156   0.953
   57GLOH   H02 8968   2.445   8.260   0.950
   57GLOH   H08 8969   2.306   8.157   0.971
   57GLOH    C2 8970   2.437   8.094   0.813
   57GLOH   H04 8971   2.397   7.991   0.815
   57GLOH    O2 8972   2.362   8.169   0.716
   57GLOH   H05 8973   2.396   8.148   0.624
   57GLOH    C3 8974   2.585   8.087   0.770
   57GLOH   H06 8975   2.613   8.184   0.728
   57GLOH   H07 8976   2.592   8.016   0.688
   57GLOH    O3 8977   2.677   8.049   0.874
   57GLOH   H01 8978   2.685   8.129   0.931
   58GLOH   H03 8979   1.565   8.844   8.008
   58GLOH    O1 8980   1.579   8.780   8.083
   58GLOH    C1 8981   1.491   8.668   8.062
   58GLOH   H02 8982   1.396   8.685   8.112
   58GLOH   H08 8983   1.535   8.578   8.105
   58GLOH    C2 8984   1.464   8.643   7.912
   58GLOH   H04 8985   1.560   8.620   7.863
   58GLOH    O2 8986   1.375   8.531   7.893
   58GLOH   H05 8987   1.419   8.448   7.918
   58GLOH    C3 8988   1.405   8.770   7.847
   58GLOH   H06 8989   1.308   8.788   7.892
   58GLOH   H07 8990   1.389   8.750   7.741
   58GLOH    O3 8991   1.491   8.884   7.864
   58GLOH   H01 8992   1.453   8.961   7.817
   59GLOH   H03 8993   4.929   1.981   6.691
   59GLOH    O1 8994   4.943   1.892   6.732
   59GLOH    C1 8995   4.834   1.867   6.822
   59GLOH   H02 8996   4.856   1.908   6.921
   59GLOH   H08 8997   4.819   1.760   6.835
   59GLOH    C2 8998   4.702   1.929   6.772
   59GLOH   H04 8999   4.675   1.881   6.677
   59GLOH    O2 9000   4.595   1.906   6.867
   59GLOH   H05 9001   4.555   1.819   6.852
   59GLOH    C3 9002   4.722   2.080   6.747
   59GLOH   H06 9003   4.754   2.126   6.840
   59GLOH   H07 9004   4.625   2.124   6.721
   59GLOH    O3 9005   4.818   2.105   6.643
   59GLOH   H01 9006   4.777   2.073   6.557
   60GLOH   H03 9007   1.891   0.084   3.749
   60GLOH    O1 9008   1.922   0.101   3.656
   60GLOH    C1 9009   1.861   0.004   3.567
   60GLOH   H02 9010   1.884   9.903   3.600
   60GLOH   H08 9011   1.902   0.014   3.467
   60GLOH    C2 9012   1.707   0.016   3.555
   60GLOH   H04 9013   1.675   9.941   3.481
   60GLOH    O2 9014   1.639   9.985   3.679
   60GLOH   H05 9015   1.579   9.907   3.660
   60GLOH    C3 9016   1.666   0.154   3.501
   60GLOH   H06 9017   1.719   0.231   3.557
   60GLOH   H07 9018   1.560   0.168   3.519
   60GLOH    O3 9019   1.694   0.165   3.360
   60GLOH   H01 9020   1.755   0.241   3.343
   61GLOH   H03 9021   3.522   9.983   2.945
   61GLOH    O1 9022   3.445   9.924   2.962
   61GLOH    C1 9023   3.363   9.988   3.062
   61GLOH   H02 9024   3.397   0.090   3.081
   61GLOH   H08 9025   3.371   9.934   3.156
   61GLOH    C2 9026   3.214   9.993   3.023
   61GLOH   H04 9027   3.177   9.889   3.021
   61GLOH    O2 9028   3.139   0.066   3.123
   61GLOH   H05 9029   3.041   0.048   3.113
   61GLOH    C3 9030   3.193   0.053   2.883
   61GLOH   H06 9031   3.086   0.052   2.862
   61GLOH   H07 9032   3.238   9.985   2.810
   61GLOH    O3 9033   3.245   0.186   2.864
   61GLOH   H01 9034   3.271   0.224   2.952
   62GLOH   H03 9035   0.731   0.021   2.520
   62GLOH    O1 9036   0.753   0.037   2.424
   62GLOH    C1 9037   0.768   9.906   2.365
   62GLOH   H02 9038   0.685   9.842   2.395
   62GLOH   H08 9039   0.858   9.858   2.403
   62GLOH    C2 9040   0.775   9.904   2.211
   62GLOH   H04 9041   0.799   9.800   2.183
   62GLOH    O2 9042   0.651   9.940   2.146
   62GLOH   H05 9043   0.583   9.965   2.215
   62GLOH    C3 9044   0.892   9.991   2.160
   62GLOH   H06 9045   0.872   0.095   2.187
   62GLOH   H07 9046   0.893   9.986   2.051
   62GLOH    O3 9047   1.018   9.948   2.214
   62GLOH   H01 9048   1.019   9.848   2.221
   63GLOH   H03 9049   5.009   8.533   2.161
   63GLOH    O1 9050   4.949   8.612   2.145
   63GLOH    C1 9051   4.858   8.574   2.040
   63GLOH   H02 9052   4.770   8.525   2.082
   63GLOH   H08 9053   4.905   8.502   1.973
   63GLOH    C2 9054   4.812   8.694   1.955
   63GLOH   H04 9055   4.902   8.744   1.917
   63GLOH    O2 9056   4.733   8.650   1.843
   63GLOH   H05 9057   4.703   8.727   1.790
   63GLOH    C3 9058   4.736   8.797   2.042
   63GLOH   H06 9059   4.713   8.884   1.980
   63GLOH   H07 9060   4.803   8.831   2.121
   63GLOH    O3 9061   4.614   8.746   2.101
   63GLOH   H01 9062   4.635   8.715   2.194
   64GLOH   H03 9063   5.067   8.410   6.039
   64GLOH    O1 9064   5.054   8.405   6.137
   64GLOH    C1 9065   4.936   8.332   6.174
   64GLOH   H02 9066   4.850   8.375   6.123
   64GLOH   H08 9067   4.918   8.344   6.281
   64GLOH    C2 9068   4.940   8.181   6.143
   64GLOH   H04 9069   4.950   8.168   6.034
   64GLOH    O2 9070   5.050   8.114   6.209
   64GLOH   H05 9071   5.081   8.169   6.287
   64GLOH    C3 9072   4.808   8.115   6.187
   64GLOH   H06 9073   4.800   8.124   6.295
   64GLOH   H07 9074   4.813   8.009   6.165
   64GLOH    O3 9075   4.693   8.174   6.123
   64GLOH   H01 9076   4.611   8.129   6.157
   65GLOH   H03 9077   4.580   2.129   0.528
   65GLOH    O1 9078   4.509   2.171   0.584
   65GLOH    C1 9079   4.407   2.072   0.611
   65GLOH   H02 9080   4.348   2.054   0.522
   65GLOH   H08 9081   4.339   2.110   0.687
   65GLOH    C2 9082   4.464   1.938   0.660
   65GLOH   H04 9083   4.528   1.897   0.580
   65GLOH    O2 9084   4.544   1.951   0.780
   65GLOH   H05 9085   4.621   2.013   0.763
   65GLOH    C3 9086   4.349   1.837   0.682
   65GLOH   H06 9087   4.393   1.743   0.715
   65GLOH   H07 9088   4.303   1.817   0.585
   65GLOH    O3 9089   4.250   1.882   0.776
   65GLOH   H01 9090   4.168   1.826   0.761
   66GLOH   H03 9091   4.195   1.121   6.343
   66GLOH    O1 9092   4.195   1.155   6.436
   66GLOH    C1 9093   4.298   1.255   6.448
   66GLOH   H02 9094   4.273   1.325   6.527
   66GLOH   H08 9095   4.306   1.313   6.356
   66GLOH    C2 9096   4.436   1.193   6.477
   66GLOH   H04 9097   4.461   1.127   6.392
   66GLOH    O2 9098   4.537   1.296   6.487
   66GLOH   H05 9099   4.526   1.340   6.575
   66GLOH    C3 9100   4.433   1.104   6.603
   66GLOH   H06 9101   4.528   1.049   6.607
   66GLOH   H07 9102   4.355   1.029   6.590
   66GLOH    O3 9103   4.412   1.176   6.726
   66GLOH   H01 9104   4.434   1.116   6.800
   67GLOH   H03 9105   7.533   6.011   0.647
   67GLOH    O1 9106   7.435   6.024   0.652
   67GLOH    C1 9107   7.389   5.979   0.782
   67GLOH   H02 9108   7.336   6.059   0.833
   67GLOH   H08 9109   7.474   5.951   0.845
   67GLOH    C2 9110   7.295   5.858   0.769
   67GLOH   H04 9111   7.350   5.777   0.719
   67GLOH    O2 9112   7.250   5.809   0.897
   67GLOH   H05 9113   7.328   5.801   0.960
   67GLOH    C3 9114   7.174   5.896   0.682
   67GLOH   H06 9115   7.121   5.979   0.730
   67GLOH   H07 9116   7.106   5.812   0.677
   67GLOH    O3 9117   7.217   5.935   0.551
   67GLOH   H01 9118   7.303   5.983   0.565
   68GLOH   H03 9119   0.081   3.810   4.024
   68GLOH    O1 9120   0.157   3.773   4.074
   68GLOH    C1 9121   0.118   3.644   4.125
   68GLOH   H02 9122   0.044   3.656   4.205
   68GLOH   H08 9123   0.204   3.594   4.169
   68GLOH    C2 9124   0.056   3.554   4.017
   68GLOH   H04 9125   0.126   3.550   3.932
   68GLOH    O2 9126   0.038   3.421   4.068
   68GLOH   H05 9127   9.945   3.386   4.050
   68GLOH    C3 9128   9.924   3.617   3.968
   68GLOH   H06 9129   9.854   3.622   4.052
   68GLOH   H07 9130   9.879   3.550   3.894
   68GLOH    O3 9131   9.943   3.748   3.912
   68GLOH   H01 9132   9.999   3.737   3.830
   69GLOH   H03 9133   1.361   4.268   0.272
   69GLOH    O1 9134   1.360   4.173   0.244
   69GLOH    C1 9135   1.226   4.143   0.197
   69GLOH   H02 9136   1.220   4.159   0.090
   69GLOH   H08 9137   1.153   4.210   0.244
   69GLOH    C2 9138   1.187   3.998   0.229
   69GLOH   H04 9139   1.185   3.986   0.338
   69GLOH    O2 9140   1.055   3.968   0.177
   69GLOH   H05 9141   0.990   4.035   0.215
   69GLOH    C3 9142   1.291   3.901   0.171
   69GLOH   H06 9143   1.289   3.909   0.062
   69GLOH   H07 9144   1.262   3.800   0.196
   69GLOH    O3 9145   1.423   3.930   0.221
   69GLOH   H01 9146   1.422   4.029   0.237
   70GLOH   H03 9147   7.460   6.222   1.357
   70GLOH    O1 9148   7.366   6.198   1.375
   70GLOH    C1 9149   7.353   6.058   1.343
   70GLOH   H02 9150   7.313   6.045   1.242
   70GLOH   H08 9151   7.282   6.010   1.411
   70GLOH    C2 9152   7.487   5.982   1.352
   70GLOH   H04 9153   7.520   5.983   1.457
   70GLOH    O2 9154   7.472   5.845   1.308
   70GLOH   H05 9155   7.476   5.783   1.386
   70GLOH    C3 9156   7.593   6.054   1.267
   70GLOH   H06 9157   7.565   6.044   1.162
   70GLOH   H07 9158   7.688   6.001   1.278
   70GLOH    O3 9159   7.608   6.193   1.302
   70GLOH   H01 9160   7.693   6.225   1.262
   71GLOH   H03 9161   3.881   9.415   4.295
   71GLOH    O1 9162   3.803   9.358   4.319
   71GLOH    C1 9163   3.706   9.441   4.386
   71GLOH   H02 9164   3.605   9.404   4.366
   71GLOH   H08 9165   3.709   9.543   4.347
   71GLOH    C2 9166   3.725   9.449   4.539
   71GLOH   H04 9167   3.657   9.527   4.577
   71GLOH    O2 9168   3.693   9.324   4.605
   71GLOH   H05 9169   3.690   9.340   4.704
   71GLOH    C3 9170   3.869   9.492   4.570
   71GLOH   H06 9171   3.895   9.576   4.506
   71GLOH   H07 9172   3.937   9.410   4.543
   71GLOH    O3 9173   3.888   9.528   4.708
   71GLOH   H01 9174   3.832   9.609   4.725
   72GLOH   H03 9175   1.808   9.286   2.385
   72GLOH    O1 9176   1.748   9.326   2.452
   72GLOH    C1 9177   1.691   9.222   2.534
   72GLOH   H02 9178   1.687   9.127   2.479
   72GLOH   H08 9179   1.588   9.246   2.560
   72GLOH    C2 9180   1.771   9.200   2.664
   72GLOH   H04 9181   1.773   9.295   2.719
   72GLOH    O2 9182   1.706   9.099   2.745
   72GLOH   H05 9183   1.739   9.008   2.720
   72GLOH    C3 9184   1.916   9.161   2.629
   72GLOH   H06 9185   1.959   9.240   2.568
   72GLOH   H07 9186   1.914   9.071   2.568
   72GLOH    O3 9187   1.998   9.139   2.746
   72GLOH   H01 9188   2.053   9.058   2.728
   73GLOH   H03 9189   5.819   0.647   3.074
   73GLOH    O1 9190   5.888   0.583   3.108
   73GLOH    C1 9191   5.852   0.550   3.243
   73GLOH   H02 9192   5.862   0.442   3.259
   73GLOH   H08 9193   5.747   0.575   3.263
   73GLOH    C2 9194   5.941   0.623   3.346
   73GLOH   H04 9195   5.935   0.731   3.325
   73GLOH    O2 9196   5.897   0.598   3.481
   73GLOH   H05 9197   5.850   0.510   3.486
   73GLOH    C3 9198   6.087   0.578   3.328
   73GLOH   H06 9199   6.097   0.475   3.361
   73GLOH   H07 9200   6.150   0.639   3.393
   73GLOH    O3 9201   6.128   0.592   3.191
   73GLOH   H01 9202   6.043   0.583   3.139
   74GLOH   H03 9203   6.682   5.262   0.269
   74GLOH    O1 9204   6.604   5.271   0.330
   74GLOH    C1 9205   6.603   5.155   0.416
   74GLOH   H02 9206   6.704   5.136   0.455
   74GLOH   H08 9207   6.573   5.066   0.360
   74GLOH    C2 9208   6.509   5.171   0.537
   74GLOH   H04 9209   6.407   5.190   0.498
   74GLOH    O2 9210   6.508   5.051   0.616
   74GLOH   H05 9211   6.465   4.979   0.561
   74GLOH    C3 9212   6.551   5.293   0.621
   74GLOH   H06 9213   6.649   5.273   0.665
   74GLOH   H07 9214   6.481   5.305   0.703
   74GLOH    O3 9215   6.556   5.412   0.540
   74GLOH   H01 9216   6.583   5.382   0.450
   75GLOH   H03 9217   0.536   1.945   6.646
   75GLOH    O1 9218   0.566   1.986   6.563
   75GLOH    C1 9219   0.662   1.902   6.497
   75GLOH   H02 9220   0.621   1.802   6.481
   75GLOH   H08 9221   0.750   1.889   6.560
   75GLOH    C2 9222   0.708   1.958   6.361
   75GLOH   H04 9223   0.791   1.896   6.325
   75GLOH    O2 9224   0.601   1.954   6.264
   75GLOH   H05 9225   0.545   2.038   6.270
   75GLOH    C3 9226   0.761   2.101   6.381
   75GLOH   H06 9227   0.824   2.102   6.469
   75GLOH   H07 9228   0.676   2.167   6.402
   75GLOH    O3 9229   0.834   2.148   6.266
   75GLOH   H01 9230   0.802   2.240   6.246
   76GLOH   H03 9231   6.244   6.821   5.203
   76GLOH    O1 9232   6.190   6.799   5.282
   76GLOH    C1 9233   6.159   6.921   5.352
   76GLOH   H02 9234   6.075   6.906   5.420
   76GLOH   H08 9235   6.128   6.999   5.282
   76GLOH    C2 9236   6.279   6.974   5.433
   76GLOH   H04 9237   6.361   6.997   5.363
   76GLOH    O2 9238   6.244   7.094   5.506
   76GLOH   H05 9239   6.235   7.171   5.443
   76GLOH    C3 9240   6.329   6.868   5.533
   76GLOH   H06 9241   6.260   6.861   5.617
   76GLOH   H07 9242   6.424   6.903   5.572
   76GLOH    O3 9243   6.347   6.739   5.471
   76GLOH   H01 9244   6.284   6.736   5.395
   77GLOH   H03 9245   4.933   8.781   7.504
   77GLOH    O1 9246   4.983   8.720   7.563
   77GLOH    C1 9247   5.063   8.798   7.652
   77GLOH   H02 9248   5.119   8.874   7.596
   77GLOH   H08 9249   5.136   8.735   7.702
   77GLOH    C2 9250   4.977   8.869   7.759
   77GLOH   H04 9251   4.944   8.793   7.830
   77GLOH    O2 9252   5.055   8.967   7.831
   77GLOH   H05 9253   5.122   8.921   7.885
   77GLOH    C3 9254   4.851   8.930   7.696
   77GLOH   H06 9255   4.803   8.995   7.769
   77GLOH   H07 9256   4.780   8.849   7.675
   77GLOH    O3 9257   4.879   9.002   7.575
   77GLOH   H01 9258   4.939   9.076   7.597
   78GLOH   H03 9259   0.400   8.949   3.620
   78GLOH    O1 9260   0.314   8.955   3.670
   78GLOH    C1 9261   0.325   8.875   3.790
   78GLOH   H02 9262   0.430   8.860   3.817
   78GLOH   H08 9263   0.282   8.777   3.773
   78GLOH    C2 9264   0.252   8.941   3.909
   78GLOH   H04 9265   0.146   8.950   3.881
   78GLOH    O2 9266   0.262   8.861   4.029
   78GLOH   H05 9267   0.357   8.840   4.050
   78GLOH    C3 9268   0.306   9.084   3.932
   78GLOH   H06 9269   0.412   9.078   3.955
   78GLOH   H07 9270   0.256   9.126   4.019
   78GLOH    O3 9271   0.285   9.166   3.816
   78GLOH   H01 9272   0.278   9.104   3.739
   79GLOH   H03 9273   3.201   5.099   2.258
   79GLOH    O1 9274   3.206   5.133   2.352
   79GLOH    C1 9275   3.287   5.252   2.352
   79GLOH   H02 9276   3.263   5.313   2.440
   79GLOH   H08 9277   3.264   5.314   2.265
   79GLOH    C2 9278   3.440   5.227   2.354
   79GLOH   H04 9279   3.490   5.324   2.342
   79GLOH    O2 9280   3.485   5.168   2.478
   79GLOH   H05 9281   3.481   5.238   2.549
   79GLOH    C3 9282   3.481   5.137   2.236
   79GLOH   H06 9283   3.436   5.039   2.249
   79GLOH   H07 9284   3.589   5.123   2.240
   79GLOH    O3 9285   3.446   5.193   2.109
   79GLOH   H01 9286   3.466   5.124   2.041
   80GLOH   H03 9287   7.388   2.375   5.285
   80GLOH    O1 9288   7.310   2.359   5.225
   80GLOH    C1 9289   7.198   2.324   5.308
   80GLOH   H02 9290   7.201   2.381   5.402
   80GLOH   H08 9291   7.203   2.219   5.335
   80GLOH    C2 9292   7.062   2.350   5.240
   80GLOH   H04 9293   7.061   2.296   5.145
   80GLOH    O2 9294   6.954   2.303   5.323
   80GLOH   H05 9295   6.905   2.229   5.276
   80GLOH    C3 9296   7.045   2.501   5.210
   80GLOH   H06 9297   6.953   2.513   5.153
   80GLOH   H07 9298   7.125   2.532   5.144
   80GLOH    O3 9299   7.042   2.584   5.327
   80GLOH   H01 9300   6.993   2.667   5.304
   81GLOH   H03 9301   1.763   3.445   5.306
   81GLOH    O1 9302   1.812   3.423   5.222
   81GLOH    C1 9303   1.954   3.418   5.248
   81GLOH   H02 9304   1.980   3.321   5.291
   81GLOH   H08 9305   1.982   3.493   5.322
   81GLOH    C2 9306   2.041   3.440   5.122
   81GLOH   H04 9307   2.013   3.361   5.050
   81GLOH    O2 9308   2.017   3.568   5.060
   81GLOH   H05 9309   1.977   3.629   5.129
   81GLOH    C3 9310   2.190   3.420   5.157
   81GLOH   H06 9311   2.249   3.440   5.067
   81GLOH   H07 9312   2.205   3.315   5.181
   81GLOH    O3 9313   2.236   3.502   5.266
   81GLOH   H01 9314   2.259   3.592   5.232
   82GLOH   H03 9315   5.098   7.013   2.275
   82GLOH    O1 9316   5.083   7.110   2.265
   82GLOH    C1 9317   5.045   7.134   2.128
   82GLOH   H02 9318   5.133   7.130   2.064
   82GLOH   H08 9319   5.003   7.234   2.118
   82GLOH    C2 9320   4.942   7.031   2.077
   82GLOH   H04 9321   4.854   7.036   2.142
   82GLOH    O2 9322   4.904   7.063   1.942
   82GLOH   H05 9323   4.835   6.999   1.908
   82GLOH    C3 9324   5.001   6.889   2.084
   82GLOH   H06 9325   5.085   6.884   2.014
   82GLOH   H07 9326   4.926   6.819   2.048
   82GLOH    O3 9327   5.045   6.853   2.216
   82GLOH   H01 9328   4.964   6.841   2.273
   83GLOH   H03 9329   9.159   7.519   0.360
   83GLOH    O1 9330   9.204   7.607   0.374
   83GLOH    C1 9331   9.305   7.622   0.273
   83GLOH   H02 9332   9.341   7.525   0.239
   83GLOH   H08 9333   9.390   7.675   0.314
   83GLOH    C2 9334   9.255   7.701   0.150
   83GLOH   H04 9335   9.238   7.805   0.183
   83GLOH    O2 9336   9.357   7.704   0.047
   83GLOH   H05 9337   9.312   7.715   8.149
   83GLOH    C3 9338   9.122   7.644   0.096
   83GLOH   H06 9339   9.094   7.556   0.153
   83GLOH   H07 9340   9.136   7.610   8.182
   83GLOH    O3 9341   9.017   7.742   0.100
   83GLOH   H01 9342   8.984   7.753   0.192
   84GLOH   H03 9343   9.563   3.829   3.505
   84GLOH    O1 9344   9.542   3.922   3.477
   84GLOH    C1 9345   9.603   4.012   3.572
   84GLOH   H02 9346   9.609   4.113   3.530
   84GLOH   H08 9347   9.706   3.981   3.593
   84GLOH    C2 9348   9.527   4.019   3.706
   84GLOH   H04 9349   9.528   3.918   3.748
   84GLOH    O2 9350   9.594   4.106   3.799
   84GLOH   H05 9351   9.680   4.062   3.828
   84GLOH    C3 9352   9.380   4.059   3.684
   84GLOH   H06 9353   9.333   4.068   3.781
   84GLOH   H07 9354   9.330   3.977   3.633
   84GLOH    O3 9355   9.364   4.181   3.609
   84GLOH   H01 9356   9.401   4.254   3.666
   85GLOH   H03 9357   8.292   8.111   2.519
   85GLOH    O1 9358   8.350   8.192   2.524
   85GLOH    C1 9359   8.488   8.152   2.538
   85GLOH   H02 9360   8.511   8.072   2.467
   85GLOH   H08 9361   8.504   8.110   2.637
   85GLOH    C2 9362   8.589   8.266   2.516
   85GLOH   H04 9363   8.564   8.314   2.421
   85GLOH    O2 9364   8.584   8.370   2.617
   85GLOH   H05 9365   8.571   8.332   2.709
   85GLOH    C3 9366   8.732   8.210   2.498
   85GLOH   H06 9367   8.803   8.292   2.502
   85GLOH   H07 9368   8.739   8.168   2.397
   85GLOH    O3 9369   8.766   8.110   2.595
   85GLOH   H01 9370   8.768   8.021   2.550
   86GLOH   H03 9371   4.512   3.372   5.406
   86GLOH    O1 9372   4.546   3.309   5.477
   86GLOH    C1 9373   4.535   3.376   5.604
   86GLOH   H02 9374   4.431   3.403   5.624
   86GLOH   H08 9375   4.592   3.469   5.603
   86GLOH    C2 9376   4.586   3.289   5.721
   86GLOH   H04 9377   4.693   3.268   5.704
   86GLOH    O2 9378   4.571   3.359   5.846
   86GLOH   H05 9379   4.623   3.445   5.842
   86GLOH    C3 9380   4.510   3.155   5.725
   86GLOH   H06 9381   4.406   3.175   5.752
   86GLOH   H07 9382   4.552   3.094   5.805
   86GLOH    O3 9383   4.517   3.084   5.600
   86GLOH   H01 9384   4.518   3.154   5.530
   87GLOH   H03 9385   0.562   1.329   2.291
   87GLOH    O1 9386   0.565   1.428   2.280
   87GLOH    C1 9387   0.700   1.475   2.299
   87GLOH   H02 9388   0.755   1.472   2.205
   87GLOH   H08 9389   0.754   1.409   2.368
   87GLOH    C2 9390   0.709   1.619   2.352
   87GLOH   H04 9391   0.816   1.641   2.366
   87GLOH    O2 9392   0.656   1.717   2.260
   87GLOH   H05 9393   0.567   1.688   2.224
   87GLOH    C3 9394   0.642   1.630   2.490
   87GLOH   H06 9395   0.536   1.611   2.478
   87GLOH   H07 9396   0.652   1.734   2.525
   87GLOH    O3 9397   0.701   1.541   2.586
   87GLOH   H01 9398   0.650   1.455   2.587
   88GLOH   H03 9399   8.927   6.285   1.288
   88GLOH    O1 9400   8.838   6.274   1.331
   88GLOH    C1 9401   8.851   6.282   1.475
   88GLOH   H02 9402   8.810   6.377   1.511
   88GLOH   H08 9403   8.955   6.279   1.505
   88GLOH    C2 9404   8.776   6.167   1.545
   88GLOH   H04 9405   8.829   6.074   1.520
   88GLOH    O2 9406   8.778   6.181   1.689
   88GLOH   H05 9407   8.762   6.278   1.713
   88GLOH    C3 9408   8.633   6.154   1.490
   88GLOH   H06 9409   8.582   6.074   1.545
   88GLOH   H07 9410   8.640   6.120   1.387
   88GLOH    O3 9411   8.557   6.276   1.498
   88GLOH   H01 9412   8.475   6.262   1.444
   89GLOH   H03 9413   8.129   9.631   0.805
   89GLOH    O1 9414   8.067   9.575   0.750
   89GLOH    C1 9415   7.943   9.647   0.732
   89GLOH   H02 9416   7.933   9.676   0.628
   89GLOH   H08 9417   7.942   9.739   0.791
   89GLOH    C2 9418   7.820   9.563   0.772
   89GLOH   H04 9419   7.826   9.466   0.720
   89GLOH    O2 9420   7.815   9.540   0.915
   89GLOH   H05 9421   7.904   9.512   0.947
   89GLOH    C3 9422   7.691   9.634   0.728
   89GLOH   H06 9423   7.682   9.727   0.783
   89GLOH   H07 9424   7.606   9.572   0.758
   89GLOH    O3 9425   7.686   9.658   0.586
   89GLOH   H01 9426   7.689   9.756   0.573
   90GLOH   H03 9427   1.411   1.470   6.006
   90GLOH    O1 9428   1.430   1.414   5.926
   90GLOH    C1 9429   1.516   1.306   5.966
   90GLOH   H02 9430   1.584   1.339   6.044
   90GLOH   H08 9431   1.577   1.274   5.881
   90GLOH    C2 9432   1.438   1.183   6.018
   90GLOH   H04 9433   1.376   1.145   5.935
   90GLOH    O2 9434   1.529   1.078   6.060
   90GLOH   H05 9435   1.624   1.110   6.047
   90GLOH    C3 9436   1.344   1.224   6.133
   90GLOH   H06 9437   1.399   1.287   6.203
   90GLOH   H07 9438   1.315   1.135   6.188
   90GLOH    O3 9439   1.226   1.293   6.086
   90GLOH   H01 9440   1.167   1.223   6.048
   91GLOH   H03 9441   4.461   1.723   2.389
   91GLOH    O1 9442   4.367   1.718   2.421
   91GLOH    C1 9443   4.350   1.592   2.490
   91GLOH   H02 9444   4.263   1.597   2.556
   91GLOH   H08 9445   4.437   1.573   2.554
   91GLOH    C2 9446   4.332   1.472   2.395
   91GLOH   H04 9447   4.421   1.465   2.331
   91GLOH    O2 9448   4.316   1.350   2.470
   91GLOH   H05 9449   4.398   1.336   2.526
   91GLOH    C3 9450   4.209   1.496   2.305
   91GLOH   H06 9451   4.119   1.493   2.367
   91GLOH   H07 9452   4.202   1.413   2.234
   91GLOH    O3 9453   4.218   1.621   2.236
   91GLOH   H01 9454   4.260   1.684   2.300
   92GLOH   H03 9455   2.227   3.920   6.935
   92GLOH    O1 9456   2.261   3.965   7.014
   92GLOH    C1 9457   2.241   3.884   7.131
   92GLOH   H02 9458   2.305   3.796   7.128
   92GLOH   H08 9459   2.138   3.848   7.135
   92GLOH    C2 9460   2.269   3.961   7.261
   92GLOH   H04 9461   2.196   4.042   7.269
   92GLOH    O2 9462   2.255   3.874   7.375
   92GLOH   H05 9463   2.299   3.919   7.450
   92GLOH    C3 9464   2.410   4.024   7.258
   92GLOH   H06 9465   2.413   4.097   7.178
   92GLOH   H07 9466   2.482   3.946   7.233
   92GLOH    O3 9467   2.444   4.085   7.384
   92GLOH   H01 9468   2.522   4.143   7.372
   93GLOH   H03 9469   2.608   2.420   4.587
   93GLOH    O1 9470   2.535   2.353   4.578
   93GLOH    C1 9471   2.554   2.256   4.683
   93GLOH   H02 9472   2.457   2.220   4.718
   93GLOH   H08 9473   2.602   2.303   4.769
   93GLOH    C2 9474   2.640   2.134   4.642
   93GLOH   H04 9475   2.676   2.086   4.734
   93GLOH    O2 9476   2.566   2.036   4.565
   93GLOH   H05 9477   2.619   1.951   4.571
   93GLOH    C3 9478   2.763   2.180   4.562
   93GLOH   H06 9479   2.728   2.231   4.472
   93GLOH   H07 9480   2.816   2.091   4.528
   93GLOH    O3 9481   2.851   2.266   4.637
   93GLOH   H01 9482   2.824   2.359   4.620
   94GLOH   H03 9483   6.600   2.213   2.617
   94GLOH    O1 9484   6.621   2.275   2.692
   94GLOH    C1 9485   6.551   2.232   2.811
   94GLOH   H02 9486   6.516   2.130   2.800
   94GLOH   H08 9487   6.464   2.294   2.829
   94GLOH    C2 9488   6.641   2.241   2.936
   94GLOH   H04 9489   6.680   2.344   2.943
   94GLOH    O2 9490   6.566   2.211   3.056
   94GLOH   H05 9491   6.484   2.159   3.035
   94GLOH    C3 9492   6.761   2.146   2.920
   94GLOH   H06 9493   6.726   2.043   2.925
   94GLOH   H07 9494   6.829   2.160   3.004
   94GLOH    O3 9495   6.829   2.171   2.796
   94GLOH   H01 9496   6.763   2.214   2.737
   95GLOH   H03 9497   5.406   1.478   2.929
   95GLOH    O1 9498   5.474   1.529   2.878
   95GLOH    C1 9499   5.594   1.449   2.862
   95GLOH   H02 9500   5.659   1.462   2.948
   95GLOH   H08 9501   5.651   1.485   2.776
   95GLOH    C2 9502   5.570   1.298   2.842
   95GLOH   H04 9503   5.667   1.251   2.822
   95GLOH    O2 9504   5.513   1.240   2.962
   95GLOH   H05 9505   5.422   1.279   2.978
   95GLOH    C3 9506   5.480   1.274   2.719
   95GLOH   H06 9507   5.383   1.320   2.738
   95GLOH   H07 9508   5.462   1.167   2.710
   95GLOH    O3 9509   5.537   1.326   2.598
   95GLOH   H01 9510   5.505   1.271   2.522
   96GLOH   H03 9511   0.033   1.371   2.591
   96GLOH    O1 9512   9.982   1.435   2.648
   96GLOH    C1 9513   9.936   1.368   2.766
   96GLOH   H02 9514   0.018   1.359   2.838
   96GLOH   H08 9515   9.905   1.266   2.742
   96GLOH    C2 9516   9.818   1.439   2.836
   96GLOH   H04 9517   9.789   1.377   2.922
   96GLOH    O2 9518   9.851   1.572   2.884
   96GLOH   H05 9519   9.946   1.573   2.917
   96GLOH    C3 9520   9.697   1.447   2.741
   96GLOH   H06 9521   9.726   1.504   2.653
   96GLOH   H07 9522   9.618   1.503   2.790
   96GLOH    O3 9523   9.648   1.317   2.701
   96GLOH   H01 9524   9.592   1.278   2.773
   97GLOH   H03 9525   7.916   5.972   4.186
   97GLOH    O1 9526   7.964   5.884   4.191
   97GLOH    C1 9527   7.866   5.778   4.187
   97GLOH   H02 9528   7.915   5.681   4.201
   97GLOH   H08 9529   7.818   5.775   4.089
   97GLOH    C2 9530   7.757   5.793   4.294
   97GLOH   H04 9531   7.710   5.892   4.282
   97GLOH    O2 9532   7.657   5.691   4.278
   97GLOH   H05 9533   7.570   5.726   4.311
   97GLOH    C3 9534   7.818   5.786   4.436
   97GLOH   H06 9535   7.740   5.811   4.508
   97GLOH   H07 9536   7.896   5.861   4.445
   97GLOH    O3 9537   7.871   5.655   4.463
   97GLOH   H01 9538   7.803   5.591   4.432
   98GLOH   H03 9539   5.877   9.041   6.936
   98GLOH    O1 9540   5.849   9.002   7.021
   98GLOH    C1 9541   5.745   9.081   7.081
   98GLOH   H02 9542   5.657   9.083   7.016
   98GLOH   H08 9543   5.778   9.185   7.093
   98GLOH    C2 9544   5.702   9.028   7.219
   98GLOH   H04 9545   5.789   9.031   7.286
   98GLOH    O2 9546   5.597   9.111   7.274
   98GLOH   H05 9547   5.635   9.177   7.334
   98GLOH    C3 9548   5.655   8.882   7.207
   98GLOH   H06 9549   5.566   8.879   7.144
   98GLOH   H07 9550   5.625   8.847   7.306
   98GLOH    O3 9551   5.759   8.800   7.153
   98GLOH   H01 9552   5.811   8.857   7.093
   99GLOH   H03 9553   3.496   0.000   6.390
   99GLOH    O1 9554   3.522   9.915   6.433
   99GLOH    C1 9555   3.403   9.836   6.453
   99GLOH   H02 9556   3.316   9.899   6.470
   99GLOH   H08 9557   3.414   9.773   6.541
   99GLOH    C2 9558   3.374   9.744   6.332
   99GLOH   H04 9559   3.458   9.674   6.325
   99GLOH    O2 9560   3.253   9.668   6.351
   99GLOH   H05 9561   3.175   9.729   6.349
   99GLOH    C3 9562   3.369   9.824   6.201
   99GLOH   H06 9563   3.337   9.757   6.121
   99GLOH   H07 9564   3.471   9.856   6.176
   99GLOH    O3 9565   3.282   9.938   6.207
   99GLOH   H01 9566   3.193   9.905   6.235
  100GLOH   H03 9567   1.123   3.113   4.914
  100GLOH    O1 9568   1.166   3.032   4.877
  100GLOH    C1 9569   1.287   3.009   4.953
  100GLOH   H02 9570   1.277   3.050   5.054
  100GLOH   H08 9571   1.370   3.062   4.907
  100GLOH    C2 9572   1.327   2.861   4.967
  100GLOH   H04 9573   1.417   2.857   5.030
  100GLOH    O2 9574   1.223   2.784   5.032
  100GLOH   H05 9575   1.199   2.828   5.118
  100GLOH    C3 9576   1.363   2.798   4.831
  100GLOH   H06 9577   1.273   2.791   4.771
  100GLOH   H07 9578   1.395   2.695   4.849
  100GLOH    O3 9579   1.465   2.869   4.758
  100GLOH   H01 9580   1.542   2.887   4.818
  101GLOH   H03 9581   3.381   9.174   6.115
  101GLOH    O1 9582   3.333   9.229   6.048
  101GLOH    C1 9583   3.421   9.334   6.007
  101GLOH   H02 9584   3.394   9.369   5.907
  101GLOH   H08 9585   3.524   9.298   5.999
  101GLOH    C2 9586   3.421   9.457   6.101
  101GLOH   H04 9587   3.320   9.500   6.099
  101GLOH    O2 9588   3.453   9.424   6.237
  101GLOH   H05 9589   3.381   9.460   6.294
  101GLOH    C3 9590   3.518   9.563   6.047
  101GLOH   H06 9591   3.614   9.515   6.027
  101GLOH   H07 9592   3.536   9.638   6.124
  101GLOH    O3 9593   3.468   9.625   5.927
  101GLOH   H01 9594   3.518   9.587   5.850
  102GLOH   H03 9595   9.172   5.354   3.239
  102GLOH    O1 9596   9.189   5.292   3.164
  102GLOH    C1 9597   9.188   5.364   3.039
  102GLOH   H02 9598   9.088   5.402   3.019
  102GLOH   H08 9599   9.214   5.297   2.957
  102GLOH    C2 9600   9.286   5.484   3.035
  102GLOH   H04 9601   9.285   5.523   2.932
  102GLOH    O2 9602   9.244   5.590   3.124
  102GLOH   H05 9603   9.215   5.551   3.210
  102GLOH    C3 9604   9.430   5.440   3.068
  102GLOH   H06 9605   9.432   5.401   3.169
  102GLOH   H07 9606   9.493   5.529   3.068
  102GLOH    O3 9607   9.483   5.343   2.976
  102GLOH   H01 9608   9.473   5.378   2.883
  103GLOH   H03 9609   7.788   6.295   4.475
  103GLOH    O1 9610   7.803   6.196   4.486
  103GLOH    C1 9611   7.672   6.136   4.496
  103GLOH   H02 9612   7.673   6.040   4.444
  103GLOH   H08 9613   7.599   6.198   4.445
  103GLOH    C2 9614   7.621   6.112   4.639
  103GLOH   H04 9615   7.694   6.047   4.690
  103GLOH    O2 9616   7.605   6.233   4.716
  103GLOH   H05 9617   7.538   6.292   4.672
  103GLOH    C3 9618   7.486   6.038   4.634
  103GLOH   H06 9619   7.419   6.093   4.567
  103GLOH   H07 9620   7.441   6.039   4.733
  103GLOH    O3 9621   7.502   5.902   4.588
  103GLOH   H01 9622   7.539   5.853   4.667
  104GLOH   H03 9623   6.997   9.794   8.139
  104GLOH    O1 9624   7.092   9.770   8.134
  104GLOH    C1 9625   7.150   9.767   0.077
  104GLOH   H02 9626   7.108   9.685   0.135
  104GLOH   H08 9627   7.127   9.859   0.131
  104GLOH    C2 9628   7.302   9.750   0.073
  104GLOH   H04 9629   7.345   9.834   0.015
  104GLOH    O2 9630   7.353   9.755   0.208
  104GLOH   H05 9631   7.443   9.713   0.212
  104GLOH    C3 9632   7.340   9.618   0.002
  104GLOH   H06 9633   7.293   9.618   8.092
  104GLOH   H07 9634   7.296   9.536   0.058
  104GLOH    O3 9635   7.482   9.600   8.176
  104GLOH   H01 9636   7.528   9.617   0.073
  105GLOH   H03 9637   6.423   1.159   7.503
  105GLOH    O1 9638   6.385   1.086   7.555
  105GLOH    C1 9639   6.241   1.096   7.557
  105GLOH   H02 9640   6.198   1.030   7.482
  105GLOH   H08 9641   6.209   1.198   7.533
  105GLOH    C2 9642   6.181   1.059   7.694
  105GLOH   H04 9643   6.221   1.129   7.769
  105GLOH    O2 9644   6.037   1.070   7.691
  105GLOH   H05 9645   6.010   1.162   7.710
  105GLOH    C3 9646   6.223   0.916   7.736
  105GLOH   H06 9647   6.332   0.914   7.748
  105GLOH   H07 9648   6.198   0.847   7.655
  105GLOH    O3 9649   6.159   0.877   7.858
  105GLOH   H01 9650   6.063   0.894   7.843
  106GLOH   H03 9651   4.082   7.141   3.456
  106GLOH    O1 9652   4.155   7.206   3.439
  106GLOH    C1 9653   4.196   7.192   3.301
  106GLOH   H02 9654   4.116   7.227   3.235
  106GLOH   H08 9655   4.214   7.087   3.278
  106GLOH    C2 9656   4.323   7.272   3.271
  106GLOH   H04 9657   4.402   7.239   3.341
  106GLOH    O2 9658   4.367   7.248   3.136
  106GLOH   H05 9659   4.441   7.313   3.116
  106GLOH    C3 9660   4.297   7.422   3.295
  106GLOH   H06 9661   4.245   7.435   3.390
  106GLOH   H07 9662   4.230   7.458   3.217
  106GLOH    O3 9663   4.418   7.501   3.294
  106GLOH   H01 9664   4.403   7.579   3.236
  107GLOH   H03 9665   7.726   6.312   4.768
  107GLOH    O1 9666   7.787   6.383   4.801
  107GLOH    C1 9667   7.793   6.376   4.945
  107GLOH   H02 9668   7.838   6.282   4.977
  107GLOH   H08 9669   7.693   6.379   4.987
  107GLOH    C2 9670   7.874   6.493   5.004
  107GLOH   H04 9671   7.819   6.585   4.981
  107GLOH    O2 9672   7.885   6.482   5.147
  107GLOH   H05 9673   7.878   6.576   5.185
  107GLOH    C3 9674   8.012   6.505   4.936
  107GLOH   H06 9675   8.071   6.576   4.993
  107GLOH   H07 9676   7.997   6.549   4.837
  107GLOH    O3 9677   8.084   6.381   4.924
  107GLOH   H01 9678   8.170   6.403   4.880
  108GLOH   H03 9679   3.969   7.276   3.970
  108GLOH    O1 9680   3.972   7.375   3.964
  108GLOH    C1 9681   4.112   7.411   3.954
  108GLOH   H02 9682   4.173   7.323   3.930
  108GLOH   H08 9683   4.148   7.447   4.051
  108GLOH    C2 9684   4.140   7.519   3.848
  108GLOH   H04 9685   4.097   7.613   3.885
  108GLOH    O2 9686   4.282   7.537   3.828
  108GLOH   H05 9687   4.293   7.612   3.763
  108GLOH    C3 9688   4.070   7.484   3.716
  108GLOH   H06 9689   4.105   7.386   3.682
  108GLOH   H07 9690   4.099   7.556   3.639
  108GLOH    O3 9691   3.927   7.483   3.733
  108GLOH   H01 9692   3.912   7.434   3.817
  109GLOH   H03 9693   4.792   3.606   0.886
  109GLOH    O1 9694   4.703   3.564   0.865
  109GLOH    C1 9695   4.659   3.485   0.978
  109GLOH   H02 9696   4.564   3.438   0.955
  109GLOH   H08 9697   4.643   3.549   1.065
  109GLOH    C2 9698   4.761   3.376   1.016
  109GLOH   H04 9699   4.786   3.319   0.926
  109GLOH    O2 9700   4.881   3.435   1.069
  109GLOH   H05 9701   4.960   3.388   1.027
  109GLOH    C3 9702   4.699   3.278   1.118
  109GLOH   H06 9703   4.672   3.333   1.208
  109GLOH   H07 9704   4.775   3.206   1.147
  109GLOH    O3 9705   4.584   3.210   1.064
  109GLOH   H01 9706   4.574   3.123   1.113
  110GLOH   H03 9707   4.558   9.081   4.166
  110GLOH    O1 9708   4.490   9.092   4.094
  110GLOH    C1 9709   4.391   9.186   4.142
  110GLOH   H02 9710   4.313   9.197   4.067
  110GLOH   H08 9711   4.436   9.285   4.155
  110GLOH    C2 9712   4.325   9.145   4.275
  110GLOH   H04 9713   4.289   9.041   4.265
  110GLOH    O2 9714   4.418   9.151   4.385
  110GLOH   H05 9715   4.374   9.109   4.465
  110GLOH    C3 9716   4.203   9.234   4.303
  110GLOH   H06 9717   4.235   9.338   4.305
  110GLOH   H07 9718   4.164   9.211   4.402
  110GLOH    O3 9719   4.100   9.216   4.204
  110GLOH   H01 9720   4.058   9.128   4.220
  111GLOH   H03 9721   8.502   5.313   3.416
  111GLOH    O1 9722   8.585   5.258   3.406
  111GLOH    C1 9723   8.674   5.333   3.320
  111GLOH   H02 9724   8.640   5.436   3.309
  111GLOH   H08 9725   8.673   5.289   3.220
  111GLOH    C2 9726   8.821   5.336   3.368
  111GLOH   H04 9727   8.863   5.236   3.352
  111GLOH    O2 9728   8.897   5.431   3.291
  111GLOH   H05 9729   8.990   5.434   3.325
  111GLOH    C3 9730   8.828   5.367   3.519
  111GLOH   H06 9731   8.787   5.466   3.537
  111GLOH   H07 9732   8.932   5.369   3.549
  111GLOH    O3 9733   8.755   5.268   3.593
  111GLOH   H01 9734   8.678   5.248   3.534
  112GLOH   H03 9735   7.078   9.828   4.871
  112GLOH    O1 9736   7.052   9.854   4.962
  112GLOH    C1 9737   6.911   9.885   4.963
  112GLOH   H02 9738   6.883   9.923   5.062
  112GLOH   H08 9739   6.852   9.795   4.947
  112GLOH    C2 9740   6.870   9.990   4.857
  112GLOH   H04 9741   6.933   0.079   4.871
  112GLOH    O2 9742   6.890   9.938   4.724
  112GLOH   H05 9743   6.989   9.935   4.707
  112GLOH    C3 9744   6.723   0.032   4.877
  112GLOH   H06 9745   6.660   9.943   4.867
  112GLOH   H07 9746   6.696   0.100   4.797
  112GLOH    O3 9747   6.702   0.094   5.005
  112GLOH   H01 9748   6.752   0.180   5.007
  113GLOH   H03 9749   6.262   1.856   4.704
  113GLOH    O1 9750   6.264   1.758   4.720
  113GLOH    C1 9751   6.395   1.718   4.765
  113GLOH   H02 9752   6.387   1.644   4.846
  113GLOH   H08 9753   6.450   1.803   4.806
  113GLOH    C2 9754   6.479   1.655   4.653
  113GLOH   H04 9755   6.492   1.729   4.573
  113GLOH    O2 9756   6.609   1.617   4.703
  113GLOH   H05 9757   6.669   1.602   4.622
  113GLOH    C3 9758   6.408   1.532   4.594
  113GLOH   H06 9759   6.407   1.454   4.670
  113GLOH   H07 9760   6.468   1.494   4.510
  113GLOH    O3 9761   6.274   1.561   4.550
  113GLOH   H01 9762   6.247   1.643   4.599
  114GLOH   H03 9763   9.364   0.524   5.887
  114GLOH    O1 9764   9.391   0.567   5.972
  114GLOH    C1 9765   9.518   0.513   6.015
  114GLOH   H02 9766   9.592   0.527   5.937
  114GLOH   H08 9767   9.510   0.406   6.033
  114GLOH    C2 9768   9.570   0.580   6.144
  114GLOH   H04 9769   9.578   0.688   6.124
  114GLOH    O2 9770   9.481   0.561   6.256
  114GLOH   H05 9771   9.438   0.470   6.252
  114GLOH    C3 9772   9.711   0.529   6.180
  114GLOH   H06 9773   9.707   0.420   6.186
  114GLOH   H07 9774   9.735   0.565   6.280
  114GLOH    O3 9775   9.814   0.571   6.088
  114GLOH   H01 9776   9.812   0.515   6.005
  115GLOH   H03 9777   5.050   5.722   2.898
  115GLOH    O1 9778   5.098   5.653   2.846
  115GLOH    C1 9779   5.040   5.526   2.882
  115GLOH   H02 9780   5.071   5.496   2.982
  115GLOH   H08 9781   5.074   5.448   2.813
  115GLOH    C2 9782   4.886   5.529   2.877
  115GLOH   H04 9783   4.856   5.557   2.776
  115GLOH    O2 9784   4.830   5.398   2.906
  115GLOH   H05 9785   4.857   5.368   2.997
  115GLOH    C3 9786   4.828   5.634   2.975
  115GLOH   H06 9787   4.843   5.598   3.077
  115GLOH   H07 9788   4.721   5.639   2.959
  115GLOH    O3 9789   4.887   5.764   2.959
  115GLOH   H01 9790   4.812   5.830   2.946
  116GLOH   H03 9791   8.628   6.052   7.386
  116GLOH    O1 9792   8.665   6.003   7.310
  116GLOH    C1 9793   8.579   5.891   7.283
  116GLOH   H02 9794   8.607   5.844   7.189
  116GLOH   H08 9795   8.476   5.924   7.272
  116GLOH    C2 9796   8.584   5.783   7.394
  116GLOH   H04 9797   8.495   5.719   7.383
  116GLOH    O2 9798   8.703   5.703   7.384
  116GLOH   H05 9799   8.751   5.724   7.302
  116GLOH    C3 9800   8.579   5.849   7.533
  116GLOH   H06 9801   8.677   5.894   7.554
  116GLOH   H07 9802   8.564   5.771   7.607
  116GLOH    O3 9803   8.476   5.949   7.543
  116GLOH   H01 9804   8.459   5.970   7.636
  117GLOH   H03 9805   3.548   8.859   3.535
  117GLOH    O1 9806   3.596   8.835   3.618
  117GLOH    C1 9807   3.573   8.697   3.650
  117GLOH   H02 9808   3.475   8.666   3.613
  117GLOH   H08 9809   3.570   8.684   3.758
  117GLOH    C2 9810   3.678   8.599   3.593
  117GLOH   H04 9811   3.655   8.499   3.632
  117GLOH    O2 9812   3.673   8.594   3.449
  117GLOH   H05 9813   3.702   8.682   3.411
  117GLOH    C3 9814   3.820   8.635   3.640
  117GLOH   H06 9815   3.848   8.730   3.595
  117GLOH   H07 9816   3.889   8.561   3.600
  117GLOH    O3 9817   3.834   8.642   3.783
  117GLOH   H01 9818   3.805   8.555   3.822
  118GLOH   H03 9819   7.446   3.384   0.015
  118GLOH    O1 9820   7.455   3.476   8.166
  118GLOH    C1 9821   7.343   3.554   0.023
  118GLOH   H02 9822   7.336   3.554   0.131
  118GLOH   H08 9823   7.250   3.509   8.175
  118GLOH    C2 9824   7.349   3.699   8.162
  118GLOH   H04 9825   7.450   3.738   8.183
  118GLOH    O2 9826   7.325   3.705   8.020
  118GLOH   H05 9827   7.383   3.638   7.978
  118GLOH    C3 9828   7.248   3.787   0.049
  118GLOH   H06 9829   7.151   3.738   0.046
  118GLOH   H07 9830   7.237   3.881   8.183
  118GLOH    O3 9831   7.287   3.813   0.185
  118GLOH   H01 9832   7.213   3.861   0.230
  119GLOH   H03 9833   7.470   9.911   2.302
  119GLOH    O1 9834   7.497   9.877   2.392
  119GLOH    C1 9835   7.540   9.741   2.371
  119GLOH   H02 9836   7.643   9.739   2.336
  119GLOH   H08 9837   7.479   9.693   2.294
  119GLOH    C2 9838   7.531   9.654   2.498
  119GLOH   H04 9839   7.571   9.555   2.471
  119GLOH    O2 9840   7.613   9.706   2.605
  119GLOH   H05 9841   7.594   9.803   2.621
  119GLOH    C3 9842   7.385   9.634   2.539
  119GLOH   H06 9843   7.333   9.728   2.525
  119GLOH   H07 9844   7.380   9.609   2.645
  119GLOH    O3 9845   7.321   9.531   2.461
  119GLOH   H01 9846   7.230   9.518   2.497
  120GLOH   H03 9847   3.086   9.716   4.012
  120GLOH    O1 9848   3.078   9.662   3.929
  120GLOH    C1 9849   2.965   9.712   3.855
  120GLOH   H02 9850   2.975   9.685   3.750
  120GLOH   H08 9851   2.963   9.822   3.859
  120GLOH    C2 9852   2.830   9.659   3.907
  120GLOH   H04 9853   2.832   9.549   3.902
  120GLOH    O2 9854   2.809   9.701   4.043
  120GLOH   H05 9855   2.714   9.685   4.069
  120GLOH    C3 9856   2.715   9.708   3.818
  120GLOH   H06 9857   2.711   9.817   3.822
  120GLOH   H07 9858   2.621   9.672   3.860
  120GLOH    O3 9859   2.727   9.665   3.681
  120GLOH   H01 9860   2.656   9.598   3.662
  121ACOH    H4 9861   4.466   2.458   2.765
  121ACOH    O2 9862   4.529   2.454   2.687
  121ACOH    C2 9863   4.650   2.491   2.732
  121ACOH    O1 9864   4.675   2.539   2.841
  121ACOH    C1 9865   4.753   2.472   2.627
  121ACOH    H1 9866   4.851   2.501   2.664
  121ACOH    H2 9867   4.729   2.533   2.541
  121ACOH    H3 9868   4.756   2.368   2.597
  122ACOH    H4 9869   4.694   9.245   0.619
  122ACOH    O2 9870   4.639   9.228   0.702
  122ACOH    C2 9871   4.553   9.331   0.711
  122ACOH    O1 9872   4.531   9.417   0.628
  122ACOH    C1 9873   4.468   9.319   0.832
  122ACOH    H1 9874   4.506   9.243   0.899
  122ACOH    H2 9875   4.367   9.292   0.803
  122ACOH    H3 9876   4.466   9.414   0.885
  123ACOH    H4 9877   4.438   7.520   4.748
  123ACOH    O2 9878   4.432   7.436   4.800
  123ACOH    C2 9879   4.456   7.334   4.715
  123ACOH    O1 9880   4.459   7.340   4.594
  123ACOH    C1 9881   4.477   7.208   4.791
  123ACOH    H1 9882   4.390   7.189   4.853
  123ACOH    H2 9883   4.564   7.219   4.855
  123ACOH    H3 9884   4.492   7.125   4.723
  124ACOH    H4 9885   4.574   6.814   4.011
  124ACOH    O2 9886   4.592   6.746   4.082
  124ACOH    C2 9887   4.632   6.813   4.191
  124ACOH    O1 9888   4.635   6.934   4.206
  124ACOH    C1 9889   4.670   6.720   4.299
  124ACOH    H1 9890   4.772   6.741   4.332
  124ACOH    H2 9891   4.665   6.617   4.265
  124ACOH    H3 9892   4.602   6.732   4.383
  125ACOH    H4 9893   6.614   5.900   6.204
  125ACOH    O2 9894   6.522   5.904   6.165
  125ACOH    C2 9895   6.533   5.957   6.042
  125ACOH    O1 9896   6.636   5.986   5.983
  125ACOH    C1 9897   6.400   5.978   5.980
  125ACOH    H1 9898   6.322   5.941   6.045
  125ACOH    H2 9899   6.396   5.925   5.885
  125ACOH    H3 9900   6.385   6.084   5.962
  126ACOH    H4 9901   5.820   5.415   0.042
  126ACOH    O2 9902   5.877   5.467   8.168
  126ACOH    C2 9903   5.964   5.537   0.054
  126ACOH    O1 9904   5.969   5.539   0.176
  126ACOH    C1 9905   6.058   5.613   8.157
  126ACOH    H1 9906   6.114   5.543   8.095
  126ACOH    H2 9907   6.128   5.670   0.030
  126ACOH    H3 9908   6.003   5.680   8.093
  127ACOH    H4 9909   9.004   3.145   1.269
  127ACOH    O2 9910   8.952   3.179   1.345
  127ACOH    C2 9911   8.828   3.130   1.337
  127ACOH    O1 9912   8.781   3.063   1.246
  127ACOH    C1 9913   8.748   3.169   1.455
  127ACOH    H1 9914   8.796   3.133   1.545
  127ACOH    H2 9915   8.647   3.130   1.450
  127ACOH    H3 9916   8.743   3.277   1.460
  128ACOH    H4 9917   6.713   4.385   2.002
  128ACOH    O2 9918   6.625   4.389   2.049
  128ACOH    C2 9919   6.535   4.424   1.954
  128ACOH    O1 9920   6.550   4.415   1.834
  128ACOH    C1 9921   6.402   4.451   2.014
  128ACOH    H1 9922   6.409   4.455   2.122
  128ACOH    H2 9923   6.332   4.374   1.985
  128ACOH    H3 9924   6.366   4.547   1.978
  129ACOH    H4 9925   9.305   4.830   1.746
  129ACOH    O2 9926   9.291   4.891   1.669
  129ACOH    C2 9927   9.162   4.928   1.670
  129ACOH    O1 9928   9.079   4.903   1.756
  129ACOH    C1 9929   9.133   5.013   1.552
  129ACOH    H1 9930   9.032   5.053   1.558
  129ACOH    H2 9931   9.142   4.953   1.462
  129ACOH    H3 9932   9.203   5.095   1.548
  130ACOH    H4 9933   7.806   8.978   5.869
  130ACOH    O2 9934   7.874   8.950   5.936
  130ACOH    C2 9935   7.809   8.932   6.053
  130ACOH    O1 9936   7.691   8.952   6.075
  130ACOH    C1 9937   7.904   8.887   6.157
  130ACOH    H1 9938   7.856   8.882   6.254
  130ACOH    H2 9939   7.987   8.956   6.162
  130ACOH    H3 9940   7.941   8.788   6.131
  131ACOH    H4 9941   1.596   2.619   2.538
  131ACOH    O2 9942   1.569   2.583   2.449
  131ACOH    C2 9943   1.506   2.466   2.473
  131ACOH    O1 9944   1.469   2.423   2.581
  131ACOH    C1 9945   1.471   2.396   2.347
  131ACOH    H1 9946   1.363   2.387   2.338
  131ACOH    H2 9947   1.514   2.296   2.348
  131ACOH    H3 9948   1.509   2.450   2.261
  132ACOH    H4 9949   5.043   1.785   6.759
  132ACOH    O2 9950   5.108   1.717   6.792
  132ACOH    C2 9951   5.142   1.639   6.688
  132ACOH    O1 9952   5.097   1.642   6.575
  132ACOH    C1 9953   5.243   1.539   6.730
  132ACOH    H1 9954   5.333   1.591   6.763
  132ACOH    H2 9955   5.269   1.473   6.648
  132ACOH    H3 9956   5.204   1.481   6.813
  133ACOH    H4 9957   6.860   9.659   1.294
  133ACOH    O2 9958   6.920   9.676   1.217
  133ACOH    C2 9959   6.865   9.774   1.144
  133ACOH    O1 9960   6.752   9.819   1.154
  133ACOH    C1 9961   6.960   9.818   1.038
  133ACOH    H1 9962   6.992   9.733   0.980
  133ACOH    H2 9963   7.046   9.864   1.085
  133ACOH    H3 9964   6.912   9.890   0.972
  134ACOH    H4 9965   3.781   6.996   5.345
  134ACOH    O2 9966   3.757   6.903   5.321
  134ACOH    C2 9967   3.871   6.843   5.282
  134ACOH    O1 9968   3.956   6.898   5.214
  134ACOH    C1 9969   3.860   6.696   5.287
  134ACOH    H1 9970   3.784   6.666   5.359
  134ACOH    H2 9971   3.956   6.653   5.316
  134ACOH    H3 9972   3.833   6.657   5.189
  135ACOH    H4 9973   3.836   5.908   0.509
  135ACOH    O2 9974   3.800   6.000   0.494
  135ACOH    C2 9975   3.885   6.085   0.555
  135ACOH    O1 9976   3.955   6.059   0.652
  135ACOH    C1 9977   3.857   6.225   0.515
  135ACOH    H1 9978   3.749   6.240   0.511
  135ACOH    H2 9979   3.899   6.243   0.417
  135ACOH    H3 9980   3.899   6.295   0.586
  136ACOH    H4 9981   7.588   3.270   5.232
  136ACOH    O2 9982   7.588   3.171   5.243
  136ACOH    C2 9983   7.583   3.119   5.119
  136ACOH    O1 9984   7.559   3.180   5.015
  136ACOH    C1 9985   7.603   2.972   5.125
  136ACOH    H1 9986   7.520   2.926   5.178
  136ACOH    H2 9987   7.695   2.951   5.178
  136ACOH    H3 9988   7.610   2.930   5.025
  137ACOH    H4 9989   7.252   6.353   4.076
  137ACOH    O2 9990   7.206   6.276   4.034
  137ACOH    C2 9991   7.294   6.215   3.952
  137ACOH    O1 9992   7.408   6.250   3.928
  137ACOH    C1 9993   7.231   6.102   3.880
  137ACOH    H1 9994   7.293   6.013   3.890
  137ACOH    H2 9995   7.221   6.127   3.775
  137ACOH    H3 9996   7.132   6.081   3.921
  138ACOH    H4 9997   7.127   5.940   5.206
  138ACOH    O2 9998   7.149   5.893   5.121
  138ACOH    C2 9999   7.277   5.853   5.126
  138ACOH    O110000   7.355   5.864   5.219
  138ACOH    C110001   7.313   5.784   5.000
  138ACOH    H110002   7.243   5.703   4.982
  138ACOH    H210003   7.414   5.745   5.004
  138ACOH    H310004   7.306   5.855   4.917
  139ACOH    H410005   3.081   8.215   2.398
  139ACOH    O210006   3.074   8.311   2.425
  139ACOH    C210007   3.176   8.333   2.510
  139ACOH    O110008   3.275   8.263   2.524
  139ACOH    C110009   3.164   8.467   2.573
  139ACOH    H110010   3.072   8.471   2.631
  139ACOH    H210011   3.161   8.544   2.496
  139ACOH    H310012   3.248   8.486   2.639
  140ACOH    H410013   6.874   2.925   4.725
  140ACOH    O210014   6.816   2.883   4.795
  140ACOH    C210015   6.693   2.867   4.742
  140ACOH    O110016   6.661   2.886   4.626
  140ACOH    C110017   6.598   2.809   4.841
  140ACOH    H110018   6.645   2.801   4.938
  140ACOH    H210019   6.567   2.711   4.808
  140ACOH    H310020   6.511   2.873   4.849
  141ACOH    H410021   9.890   9.957   2.565
  141ACOH    O210022   9.949   0.031   2.533
  141ACOH    C210023   9.870   0.109   2.457
  141ACOH    O110024   9.754   0.090   2.426
  141ACOH    C110025   9.947   0.224   2.403
  141ACOH    H110026   9.885   0.286   2.340
  141ACOH    H210027   0.031   0.187   2.345
  141ACOH    H310028   9.985   0.284   2.486
  142ACOH    H410029   5.522   7.720   2.519
  142ACOH    O210030   5.618   7.720   2.493
  142ACOH    C210031   5.689   7.704   2.606
  142ACOH    O110032   5.645   7.693   2.719
  142ACOH    C110033   5.835   7.708   2.580
  142ACOH    H110034   5.878   7.797   2.624
  142ACOH    H210035   5.855   7.708   2.473
  142ACOH    H310036   5.882   7.621   2.625
  143ACOH    H410037   0.572   9.579   5.974
  143ACOH    O210038   0.489   9.554   5.923
  143ACOH    C210039   0.476   9.421   5.933
  143ACOH    O110040   0.560   9.341   5.971
  143ACOH    C110041   0.349   9.379   5.869
  143ACOH    H110042   0.265   9.416   5.928
  143ACOH    H210043   0.342   9.271   5.862
  143ACOH    H310044   0.343   9.421   5.768
  144ACOH    H410045   6.127   4.602   1.612
  144ACOH    O210046   6.184   4.671   1.655
  144ACOH    C210047   6.100   4.753   1.722
  144ACOH    O110048   5.987   4.727   1.759
  144ACOH    C110049   6.172   4.876   1.765
  144ACOH    H110050   6.109   4.937   1.829
  144ACOH    H210051   6.200   4.933   1.677
  144ACOH    H310052   6.261   4.848   1.820
  145ACOH    H410053   4.206   7.159   0.900
  145ACOH    O210054   4.145   7.236   0.915
  145ACOH    C210055   4.044   7.225   0.826
  145ACOH    O110056   4.046   7.161   0.722
  145ACOH    C110057   3.935   7.321   0.856
  145ACOH    H110058   3.932   7.398   0.780
  145ACOH    H210059   3.951   7.368   0.953
  145ACOH    H310060   3.840   7.269   0.858
  146ACOH    H410061   9.837   9.497   4.891
  146ACOH    O210062   9.935   9.497   4.870
  146ACOH    C210063   9.993   9.409   4.954
  146ACOH    O110064   9.939   9.349   5.045
  146ACOH    C110065   0.138   9.395   4.927
  146ACOH    H110066   0.163   9.290   4.916
  146ACOH    H210067   0.194   9.437   5.010
  146ACOH    H310068   0.165   9.447   4.836
  147ACOH    H410069   5.586   5.776   2.253
  147ACOH    O210070   5.649   5.846   2.286
  147ACOH    C210071   5.642   5.949   2.201
  147ACOH    O110072   5.564   5.963   2.108
  147ACOH    C110073   5.737   6.055   2.243
  147ACOH    H110074   5.839   6.021   2.227
  147ACOH    H210075   5.723   6.076   2.349
  147ACOH    H310076   5.721   6.147   2.187
  148ACOH    H410077   6.417   3.714   1.792
  148ACOH    O210078   6.367   3.678   1.713
  148ACOH    C210079   6.356   3.776   1.622
  148ACOH    O110080   6.387   3.893   1.636
  148ACOH    C110081   6.289   3.728   1.499
  148ACOH    H110082   6.271   3.621   1.506
  148ACOH    H210083   6.353   3.747   1.413
  148ACOH    H310084   6.195   3.779   1.486
  149ACOH    H410085   6.662   6.578   6.504
  149ACOH    O210086   6.569   6.601   6.522
  149ACOH    C210087   6.518   6.498   6.591
  149ACOH    O110088   6.580   6.406   6.640
  149ACOH    C110089   6.372   6.515   6.611
  149ACOH    H110090   6.322   6.501   6.516
  149ACOH    H210091   6.352   6.616   6.646
  149ACOH    H310092   6.334   6.444   6.683
  150ACOH    H410093   5.011   3.714   5.001
  150ACOH    O210094   5.060   3.629   5.017
  150ACOH    C210095   4.977   3.545   5.081
  150ACOH    O110096   4.872   3.574   5.137
  150ACOH    C110097   5.035   3.409   5.092
  150ACOH    H110098   5.126   3.402   5.033
  150ACOH    H210099   4.964   3.336   5.056
  150ACOH    H310100   5.059   3.388   5.196
  151ACOH    H410101   4.974   2.705   5.807
  151ACOH    O210102   5.024   2.761   5.873
  151ACOH    C210103   5.095   2.677   5.952
  151ACOH    O110104   5.115   2.559   5.934
  151ACOH    C110105   5.162   2.753   6.059
  151ACOH    H110106   5.234   2.691   6.112
  151ACOH    H210107   5.088   2.788   6.130
  151ACOH    H310108   5.214   2.839   6.017
  152ACOH    H410109   1.418   7.346   3.101
  152ACOH    O210110   1.355   7.391   3.164
  152ACOH    C210111   1.241   7.405   3.094
  152ACOH    O110112   1.230   7.409   2.973
  152ACOH    C110113   1.128   7.435   3.185
  152ACOH    H110114   1.117   7.354   3.256
  152ACOH    H210115   1.036   7.445   3.130
  152ACOH    H310116   1.147   7.528   3.239
  153ACOH    H410117   0.651   5.329   2.097
  153ACOH    O210118   0.632   5.262   2.025
  153ACOH    C210119   0.541   5.177   2.077
  153ACOH    O110120   0.508   5.169   2.194
  153ACOH    C110121   0.498   5.077   1.977
  153ACOH    H110122   0.444   4.995   2.024
  153ACOH    H210123   0.584   5.036   1.925
  153ACOH    H310124   0.433   5.124   1.904
  154ACOH    H410125   2.299   2.543   3.302
  154ACOH    O210126   2.388   2.565   3.341
  154ACOH    C210127   2.413   2.474   3.437
  154ACOH    O110128   2.337   2.388   3.479
  154ACOH    C110129   2.551   2.491   3.490
  154ACOH    H110130   2.569   2.423   3.572
  154ACOH    H210131   2.564   2.593   3.524
  154ACOH    H310132   2.623   2.471   3.411
  155ACOH    H410133   5.181   2.237   1.187
  155ACOH    O210134   5.135   2.160   1.229
  155ACOH    C210135   5.224   2.061   1.244
  155ACOH    O110136   5.343   2.065   1.221
  155ACOH    C110137   5.156   1.940   1.297
  155ACOH    H110138   5.228   1.860   1.314
  155ACOH    H210139   5.082   1.906   1.225
  155ACOH    H310140   5.106   1.964   1.390
  156ACOH    H410141   4.099   7.255   4.800
  156ACOH    O210142   4.152   7.225   4.721
  156ACOH    C210143   4.141   7.090   4.716
  156ACOH    O110144   4.069   7.021   4.786
  156ACOH    C110145   4.224   7.031   4.609
  156ACOH    H110146   4.283   7.108   4.559
  156ACOH    H210147   4.160   6.984   4.535
  156ACOH    H310148   4.291   6.956   4.650
  157ACOH    H410149   7.645   2.148   1.982
  157ACOH    O210150   7.639   2.211   1.903
  157ACOH    C210151   7.535   2.169   1.829
  157ACOH    O110152   7.476   2.063   1.839
  157ACOH    C110153   7.514   2.258   1.712
  157ACOH    H110154   7.409   2.285   1.705
  157ACOH    H210155   7.544   2.207   1.621
  157ACOH    H310156   7.573   2.349   1.722
  158ACOH    H410157   8.039   8.140   1.344
  158ACOH    O210158   8.042   8.044   1.370
  158ACOH    C210159   8.076   7.973   1.261
  158ACOH    O110160   8.087   8.015   1.147
  158ACOH    C110161   8.090   7.829   1.296
  158ACOH    H110162   7.996   7.792   1.337
  158ACOH    H210163   8.168   7.817   1.371
  158ACOH    H310164   8.116   7.770   1.209
  159ACOH    H410165   4.125   7.292   5.476
  159ACOH    O210166   4.105   7.264   5.570
  159ACOH    C210167   4.087   7.130   5.565
  159ACOH    O110168   4.135   7.055   5.481
  159ACOH    C110169   4.033   7.080   5.693
  159ACOH    H110170   3.987   7.160   5.750
  159ACOH    H210171   4.113   7.037   5.752
  159ACOH    H310172   3.958   7.003   5.674
  160ACOH    H410173   2.263   1.979   3.958
  160ACOH    O210174   2.291   1.887   3.983
  160ACOH    C210175   2.423   1.879   3.960
  160ACOH    O110176   2.489   1.955   3.892
  160ACOH    C110177   2.478   1.755   4.021
  160ACOH    H110178   2.582   1.742   3.993
  160ACOH    H210179   2.421   1.670   3.986
  160ACOH    H310180   2.470   1.761   4.129
  161ACOH    H410181   4.066   7.660   1.144
  161ACOH    O210182   4.131   7.694   1.077
  161ACOH    C210183   4.250   7.638   1.104
  161ACOH    O110184   4.281   7.580   1.206
  161ACOH    C110185   4.351   7.674   1.001
  161ACOH    H110186   4.407   7.585   0.972
  161ACOH    H210187   4.419   7.748   1.041
  161ACOH    H310188   4.303   7.714   0.912
  162ACOH    H410189   4.893   7.437   1.435
  162ACOH    O210190   4.834   7.426   1.356
  162ACOH    C210191   4.748   7.529   1.359
  162ACOH    O110192   4.733   7.611   1.448
  162ACOH    C110193   4.664   7.533   1.236
  162ACOH    H110194   4.697   7.457   1.166
  162ACOH    H210195   4.672   7.631   1.189
  162ACOH    H310196   4.561   7.514   1.263
  163ACOH    H410197   6.919   5.144   6.631
  163ACOH    O210198   6.865   5.149   6.550
  163ACOH    C210199   6.846   5.021   6.510
  163ACOH    O110200   6.878   4.922   6.571
  163ACOH    C110201   6.770   5.015   6.383
  163ACOH    H110202   6.674   4.968   6.400
  163ACOH    H210203   6.826   4.956   6.311
  163ACOH    H310204   6.755   5.114   6.342
  164ACOH    H410205   4.306   1.279   6.755
  164ACOH    O210206   4.231   1.342   6.772
  164ACOH    C210207   4.271   1.462   6.727
  164ACOH    O110208   4.385   1.494   6.697
  164ACOH    C110209   4.156   1.554   6.721
  164ACOH    H110210   4.083   1.515   6.651
  164ACOH    H210211   4.187   1.653   6.688
  164ACOH    H310212   4.110   1.561   6.819
  165ACOH    H410213   9.443   9.932   2.508
  165ACOH    O210214   9.449   9.865   2.434
  165ACOH    C210215   9.323   9.830   2.405
  165ACOH    O110216   9.224   9.846   2.474
  165ACOH    C110217   9.319   9.741   2.286
  165ACOH    H110218   9.234   9.767   2.224
  165ACOH    H210219   9.312   9.637   2.317
  165ACOH    H310220   9.409   9.754   2.226
  166ACOH    H410221   4.864   3.791   3.680
  166ACOH    O210222   4.961   3.767   3.666
  166ACOH    C210223   4.965   3.637   3.633
  166ACOH    O110224   4.870   3.563   3.616
  166ACOH    C110225   5.105   3.590   3.619
  166ACOH    H110226   5.121   3.556   3.517
  166ACOH    H210227   5.123   3.508   3.688
  166ACOH    H310228   5.175   3.670   3.641
  167ACOH    H410229   6.823   2.916   5.971
  167ACOH    O210230   6.783   2.852   6.037
  167ACOH    C210231   6.879   2.824   6.127
  167ACOH    O110232   6.989   2.876   6.137
  167ACOH    C110233   6.836   2.717   6.221
  167ACOH    H110234   6.733   2.689   6.202
  167ACOH    H210235   6.846   2.751   6.324
  167ACOH    H310236   6.899   2.630   6.207
  168ACOH    H410237   3.742   6.883   5.610
  168ACOH    O210238   3.791   6.798   5.601
  168ACOH    C210239   3.807   6.746   5.724
  168ACOH    O110240   3.789   6.804   5.829
  168ACOH    C110241   3.866   6.610   5.716
  168ACOH    H110242   3.893   6.574   5.815
  168ACOH    H210243   3.955   6.612   5.654
  168ACOH    H310244   3.794   6.542   5.672
  169ACOH    H410245   4.965   4.250   5.805
  169ACOH    O210246   5.031   4.264   5.731
  169ACOH    C210247   5.024   4.157   5.650
  169ACOH    O110248   4.948   4.062   5.659
  169ACOH    C110249   5.121   4.172   5.538
  169ACOH    H110250   5.104   4.267   5.488
  169ACOH    H210251   5.109   4.092   5.466
  169ACOH    H310252   5.222   4.170   5.578
  170ACOH    H410253   2.796   7.433   1.809
  170ACOH    O210254   2.885   7.425   1.853
  170ACOH    C210255   2.900   7.534   1.931
  170ACOH    O110256   2.820   7.624   1.946
  170ACOH    C110257   3.032   7.534   1.999
  170ACOH    H110258   3.087   7.443   1.975
  170ACOH    H210259   3.017   7.539   2.107
  170ACOH    H310260   3.090   7.620   1.968
  171ACOH    H410261   5.469   2.373   5.247
  171ACOH    O210262   5.439   2.467   5.232
  171ACOH    C210263   5.533   2.528   5.158
  171ACOH    O110264   5.626   2.476   5.099
  171ACOH    C110265   5.499   2.671   5.137
  171ACOH    H110266   5.431   2.706   5.214
  171ACOH    H210267   5.451   2.683   5.040
  171ACOH    H310268   5.589   2.732   5.140
  172ACOH    H410269   6.737   4.414   2.428
  172ACOH    O210270   6.759   4.485   2.495
  172ACOH    C210271   6.852   4.434   2.577
  172ACOH    O110272   6.887   4.317   2.587
  172ACOH    C110273   6.900   4.537   2.673
  172ACOH    H110274   7.008   4.543   2.669
  172ACOH    H210275   6.869   4.510   2.774
  172ACOH    H310276   6.859   4.634   2.648
  173ACOH    H410277   7.833   1.866   6.700
  173ACOH    O210278   7.748   1.882   6.657
  173ACOH    C210279   7.762   1.848   6.527
  173ACOH    O110280   7.866   1.815   6.474
  173ACOH    C110281   7.634   1.858   6.454
  173ACOH    H110282   7.607   1.761   6.412
  173ACOH    H210283   7.644   1.929   6.372
  173ACOH    H310284   7.554   1.892   6.519
  174ACOH    H410285   4.600   8.079   1.087
  174ACOH    O210286   4.599   8.136   1.005
  174ACOH    C210287   4.477   8.125   0.949
  174ACOH    O110288   4.383   8.057   0.989
  174ACOH    C110289   4.467   8.209   0.828
  174ACOH    H110290   4.449   8.147   0.741
  174ACOH    H210291   4.558   8.267   0.813
  174ACOH    H310292   4.384   8.278   0.839
  175ACOH    H410293   3.992   1.249   0.797
  175ACOH    O210294   4.045   1.213   0.874
  175ACOH    C210295   4.167   1.269   0.865
  175ACOH    O110296   4.219   1.322   0.768
  175ACOH    C110297   4.242   1.244   0.989
  175ACOH    H110298   4.248   1.137   1.009
  175ACOH    H210299   4.191   1.292   1.072
  175ACOH    H310300   4.343   1.284   0.983
  176ACOH    H410301   9.391   4.491   6.662
  176ACOH    O210302   9.361   4.403   6.634
  176ACOH    C210303   9.422   4.375   6.517
  176ACOH    O110304   9.499   4.448   6.458
  176ACOH    C110305   9.385   4.241   6.467
  176ACOH    H110306   9.337   4.251   6.370
  176ACOH    H210307   9.316   4.191   6.535
  176ACOH    H310308   9.473   4.179   6.456
  177ACOH    H410309   7.698   7.515   5.081
  177ACOH    O210310   7.672   7.604   5.118
  177ACOH    C210311   7.679   7.595   5.252
  177ACOH    O110312   7.686   7.492   5.316
  177ACOH    C110313   7.649   7.725   5.315
  177ACOH    H110314   7.549   7.724   5.356
  177ACOH    H210315   7.658   7.807   5.244
  177ACOH    H310316   7.720   7.743   5.396
  178ACOH    H410317   7.719   5.925   2.770
  178ACOH    O210318   7.662   6.000   2.741
  178ACOH    C210319   7.683   6.103   2.825
  178ACOH    O110320   7.757   6.105   2.922
  178ACOH    C110321   7.604   6.222   2.787
  178ACOH    H110322   7.539   6.251   2.869
  178ACOH    H210323   7.543   6.202   2.700
  178ACOH    H310324   7.671   6.305   2.765
  179ACOH    H410325   5.287   5.825   0.369
  179ACOH    O210326   5.219   5.835   0.297
  179ACOH    C210327   5.197   5.967   0.286
  179ACOH    O110328   5.229   6.053   0.366
  179ACOH    C110329   5.113   5.997   0.168
  179ACOH    H110330   5.168   5.973   0.077
  179ACOH    H210331   5.085   6.102   0.166
  179ACOH    H310332   5.022   5.937   0.171
  180ACOH    H410333   4.527   8.492   1.422
  180ACOH    O210334   4.554   8.476   1.327
  180ACOH    C210335   4.684   8.442   1.332
  180ACOH    O110336   4.751   8.426   1.432
  180ACOH    C110337   4.738   8.422   1.195
  180ACOH    H110338   4.844   8.397   1.199
  180ACOH    H210339   4.726   8.514   1.138
  180ACOH    H310340   4.685   8.342   1.146
  181ACOH    H410341   4.406   3.140   2.667
  181ACOH    O210342   4.407   3.047   2.632
  181ACOH    C210343   4.447   2.967   2.732
  181ACOH    O110344   4.468   3.001   2.847
  181ACOH    C110345   4.459   2.827   2.686
  181ACOH    H110346   4.490   2.762   2.768
  181ACOH    H210347   4.533   2.822   2.607
  181ACOH    H310348   4.364   2.793   2.648
  182ACOH    H410349   6.664   3.600   2.340
  182ACOH    O210350   6.601   3.645   2.403
  182ACOH    C210351   6.504   3.701   2.330
  182ACOH    O110352   6.492   3.700   2.209
  182ACOH    C110353   6.407   3.773   2.417
  182ACOH    H110354   6.308   3.731   2.402
  182ACOH    H210355   6.406   3.878   2.391
  182ACOH    H310356   6.435   3.762   2.521
  183ACOH    H410357   8.072   5.586   3.669
  183ACOH    O210358   8.025   5.506   3.633
  183ACOH    C210359   7.920   5.550   3.561
  183ACOH    O110360   7.882   5.665   3.551
  183ACOH    C110361   7.853   5.437   3.493
  183ACOH    H110362   7.921   5.392   3.422
  183ACOH    H210363   7.763   5.471   3.441
  183ACOH    H310364   7.825   5.362   3.567
  184ACOH    H410365   5.250   1.454   0.474
  184ACOH    O210366   5.225   1.362   0.504
  184ACOH    C210367   5.264   1.279   0.405
  184ACOH    O110368   5.333   1.307   0.308
  184ACOH    C110369   5.212   1.142   0.427
  184ACOH    H110370   5.284   1.069   0.391
  184ACOH    H210371   5.119   1.129   0.372
  184ACOH    H310372   5.194   1.124   0.532
  185ACOH    H410373   6.152   8.253   2.585
  185ACOH    O210374   6.170   8.251   2.487
  185ACOH    C210375   6.152   8.123   2.446
  185ACOH    O110376   6.096   8.035   2.509
  185ACOH    C110377   6.192   8.105   2.305
  185ACOH    H110378   6.105   8.084   2.244
  185ACOH    H210379   6.262   8.023   2.298
  185ACOH    H310380   6.240   8.195   2.267
  186ACOH    H410381   0.074   3.141   1.704
  186ACOH    O210382   0.035   3.065   1.754
  186ACOH    C210383   0.110   2.957   1.727
  186ACOH    O110384   0.208   2.953   1.655
  186ACOH    C110385   0.056   2.839   1.798
  186ACOH    H110386   0.057   2.858   1.905
  186ACOH    H210387   0.116   2.751   1.778
  186ACOH    H310388   9.954   2.821   1.766
  187ACOH    H410389   3.769   7.064   0.430
  187ACOH    O210390   3.743   7.078   0.335
  187ACOH    C210391   3.804   6.984   0.260
  187ACOH    O110392   3.871   6.890   0.301
  187ACOH    C110393   3.777   7.004   0.116
  187ACOH    H110394   3.871   7.019   0.063
  187ACOH    H210395   3.714   7.091   0.101
  187ACOH    H310396   3.727   6.916   0.076
  188ACOH    H410397   5.206   2.878   4.102
  188ACOH    O210398   5.120   2.920   4.074
  188ACOH    C210399   5.141   3.053   4.071
  188ACOH    O110400   5.238   3.113   4.113
  188ACOH    C110401   5.023   3.122   4.015
  188ACOH    H110402   5.000   3.084   3.916
  188ACOH    H210403   5.042   3.229   4.008
  188ACOH    H310404   4.937   3.106   4.081
  189ACOH    H410405   5.449   7.269   3.610
  189ACOH    O210406   5.546   7.248   3.597
  189ACOH    C210407   5.608   7.270   3.715
  189ACOH    O110408   5.563   7.328   3.813
  189ACOH    C110409   5.748   7.223   3.708
  189ACOH    H110410   5.803   7.249   3.799
  189ACOH    H210411   5.798   7.270   3.624
  189ACOH    H310412   5.750   7.116   3.695
  190ACOH    H410413   7.974   8.025   1.013
  190ACOH    O210414   7.902   8.041   0.948
  190ACOH    C210415   7.943   8.143   0.870
  190ACOH    O110416   8.059   8.171   0.848
  190ACOH    C110417   7.832   8.196   0.787
  190ACOH    H110418   7.829   8.304   0.796
  190ACOH    H210419   7.737   8.155   0.818
  190ACOH    H310420   7.850   8.170   0.683
  191ACOH    H410421   7.360   8.133   4.401
  191ACOH    O210422   7.351   8.146   4.500
  191ACOH    C210423   7.220   8.162   4.527
  191ACOH    O110424   7.126   8.147   4.452
  191ACOH    C110425   7.199   8.191   4.671
  191ACOH    H110426   7.140   8.281   4.681
  191ACOH    H210427   7.294   8.206   4.722
  191ACOH    H310428   7.146   8.108   4.718
  192ACOH    H410429   4.086   7.457   6.298
  192ACOH    O210430   4.112   7.404   6.379
  192ACOH    C210431   4.236   7.440   6.415
  192ACOH    O110432   4.314   7.512   6.355
  192ACOH    C110433   4.271   7.375   6.544
  192ACOH    H110434   4.372   7.398   6.574
  192ACOH    H210435   4.260   7.267   6.534
  192ACOH    H310436   4.202   7.409   6.621
  193ACOH    H410437   4.904   3.001   6.200
  193ACOH    O210438   4.923   2.920   6.254
  193ACOH    C210439   4.845   2.925   6.364
  193ACOH    O110440   4.766   3.013   6.392
  193ACOH    C110441   4.870   2.809   6.453
  193ACOH    H110442   4.814   2.820   6.546
  193ACOH    H210443   4.976   2.802   6.475
  193ACOH    H310444   4.837   2.718   6.403
  194ACOH    H410445   4.517   7.526   6.092
  194ACOH    O210446   4.454   7.530   6.015
  194ACOH    C210447   4.425   7.402   5.984
  194ACOH    O110448   4.469   7.303   6.039
  194ACOH    C110449   4.326   7.396   5.873
  194ACOH    H110450   4.370   7.439   5.784
  194ACOH    H210451   4.237   7.452   5.901
  194ACOH    H310452   4.298   7.293   5.854
  195ACOH    H410453   9.673   2.338   6.346
  195ACOH    O210454   9.723   2.339   6.263
  195ACOH    C210455   9.649   2.415   6.178
  195ACOH    O110456   9.540   2.462   6.202
  195ACOH    C110457   9.713   2.427   6.045
  195ACOH    H110458   9.812   2.384   6.044
  195ACOH    H210459   9.721   2.532   6.017
  195ACOH    H310460   9.652   2.376   5.971
  196ACOH    H410461   6.111   6.014   0.837
  196ACOH    O210462   6.168   6.009   0.755
  196ACOH    C210463   6.275   6.087   0.777
  196ACOH    O110464   6.317   6.122   0.886
  196ACOH    C110465   6.358   6.101   0.654
  196ACOH    H110466   6.302   6.070   0.566
  196ACOH    H210467   6.447   6.040   0.663
  196ACOH    H310468   6.387   6.205   0.641
  197ACOH    H410469   7.184   4.049   6.260
  197ACOH    O210470   7.123   4.125   6.281
  197ACOH    C210471   7.201   4.233   6.300
  197ACOH    O110472   7.322   4.235   6.306
  197ACOH    C110473   7.118   4.355   6.318
  197ACOH    H110474   7.044   4.338   6.395
  197ACOH    H210475   7.068   4.378   6.224
  197ACOH    H310476   7.181   4.440   6.347
  198ACOH    H410477   7.478   5.226   6.158
  198ACOH    O210478   7.447   5.176   6.078
  198ACOH    C210479   7.422   5.267   5.982
  198ACOH    O110480   7.423   5.388   5.995
  198ACOH    C110481   7.387   5.203   5.853
  198ACOH    H110482   7.462   5.227   5.778
  198ACOH    H210483   7.291   5.240   5.819
  198ACOH    H310484   7.382   5.095   5.864
  199ACOH    H410485   7.263   7.402   2.131
  199ACOH    O210486   7.230   7.330   2.070
  199ACOH    C210487   7.234   7.380   1.945
  199ACOH    O110488   7.298   7.477   1.909
  199ACOH    C110489   7.172   7.286   1.849
  199ACOH    H110490   7.188   7.320   1.746
  199ACOH    H210491   7.066   7.279   1.868
  199ACOH    H310492   7.217   7.187   1.860
  200ACOH    H410493   5.986   1.574   6.253
  200ACOH    O210494   5.919   1.592   6.325
  200ACOH    C210495   5.989   1.639   6.430
  200ACOH    O110496   6.110   1.648   6.440
  200ACOH    C110497   5.899   1.676   6.542
  200ACOH    H110498   5.923   1.615   6.629
  200ACOH    H210499   5.795   1.660   6.515
  200ACOH    H310500   5.914   1.781   6.567
  201ACOH    H410501   5.772   7.294   3.051
  201ACOH    O210502   5.691   7.286   2.994
  201ACOH    C210503   5.719   7.340   2.874
  201ACOH    O110504   5.816   7.406   2.845
  201ACOH    C110505   5.604   7.323   2.781
  201ACOH    H110506   5.638   7.273   2.690
  201ACOH    H210507   5.563   7.420   2.755
  201ACOH    H310508   5.526   7.263   2.827
  202ACOH    H410509   7.131   7.342   8.166
  202ACOH    O210510   7.172   7.274   0.034
  202ACOH    C210511   7.116   7.157   8.184
  202ACOH    O110512   7.038   7.143   8.091
  202ACOH    C110513   7.165   7.045   0.078
  202ACOH    H110514   7.126   6.950   0.042
  202ACOH    H210515   7.135   7.059   0.181
  202ACOH    H310516   7.274   7.040   0.074
  203ACOH    H410517   5.091   4.804   2.171
  203ACOH    O210518   5.059   4.714   2.147
  203ACOH    C210519   5.160   4.650   2.087
  203ACOH    O110520   5.271   4.695   2.063
  203ACOH    C110521   5.120   4.514   2.045
  203ACOH    H110522   5.200   4.465   1.990
  203ACOH    H210523   5.032   4.521   1.981
  203ACOH    H310524   5.095   4.455   2.133
  204ACOH    H410525   1.559   4.094   6.648
  204ACOH    O210526   1.519   4.181   6.659
  204ACOH    C210527   1.615   4.272   6.632
  204ACOH    O110528   1.730   4.247   6.601
  204ACOH    C110529   1.562   4.410   6.642
  204ACOH    H110530   1.639   4.483   6.618
  204ACOH    H210531   1.526   4.428   6.743
  204ACOH    H310532   1.479   4.422   6.572
  205ACOH    H410533   6.314   7.107   5.641
  205ACOH    O210534   6.372   7.101   5.721
  205ACOH    C210535   6.291   7.077   5.826
  205ACOH    O110536   6.171   7.094   5.829
  205ACOH    C110537   6.370   7.041   5.946
  205ACOH    H110538   6.444   7.118   5.965
  205ACOH    H210539   6.421   6.947   5.929
  205ACOH    H310540   6.306   7.031   6.033
  206ACOH    H410541   5.862   7.497   5.812
  206ACOH    O210542   5.916   7.420   5.778
  206ACOH    C210543   5.846   7.365   5.678
  206ACOH    O110544   5.744   7.410   5.627
  206ACOH    C110545   5.917   7.248   5.622
  206ACOH    H110546   5.922   7.169   5.697
  206ACOH    H210547   6.019   7.276   5.595
  206ACOH    H310548   5.866   7.210   5.534
  207ACOH    H410549   5.771   0.089   4.924
  207ACOH    O210550   5.681   0.072   4.883
  207ACOH    C210551   5.672   9.938   4.869
  207ACOH    O110552   5.763   9.858   4.873
  207ACOH    C110553   5.535   9.898   4.829
  207ACOH    H110554   5.536   9.866   4.725
  207ACOH    H210555   5.465   9.979   4.842
  207ACOH    H310556   5.503   9.814   4.891
  208ACOH    H410557   5.014   3.744   2.108
  208ACOH    O210558   5.102   3.697   2.100
  208ACOH    C210559   5.189   3.783   2.044
  208ACOH    O110560   5.169   3.900   2.014
  208ACOH    C110561   5.323   3.720   2.033
  208ACOH    H110562   5.318   3.637   1.963
  208ACOH    H210563   5.353   3.682   2.130
  208ACOH    H310564   5.397   3.791   1.998
  209ACOH    H410565   9.681   3.083   0.294
  209ACOH    O210566   9.770   3.037   0.286
  209ACOH    C210567   9.833   3.041   0.404
  209ACOH    O110568   9.951   3.012   0.417
  209ACOH    C110569   9.752   3.090   0.518
  209ACOH    H110570   9.663   3.028   0.530
  209ACOH    H210571   9.721   3.192   0.500
  209ACOH    H310572   9.809   3.087   0.611
  210ACOH    H410573   1.055   7.675   2.850
  210ACOH    O210574   0.963   7.646   2.872
  210ACOH    C210575   0.945   7.671   3.003
  210ACOH    O110576   1.019   7.734   3.076
  210ACOH    C110577   0.815   7.615   3.047
  210ACOH    H110578   0.797   7.637   3.151
  210ACOH    H210579   0.815   7.507   3.033
  210ACOH    H310580   0.735   7.658   2.987
  211ACOH    H410581   5.313   6.517   2.035
  211ACOH    O210582   5.371   6.440   2.058
  211ACOH    C210583   5.305   6.369   2.152
  211ACOH    O110584   5.201   6.401   2.207
  211ACOH    C110585   5.380   6.247   2.190
  211ACOH    H110586   5.322   6.159   2.165
  211ACOH    H210587   5.399   6.248   2.296
  211ACOH    H310588   5.475   6.242   2.137
  212ACOH    H410589   7.465   5.872   4.448
  212ACOH    O210590   7.454   5.835   4.355
  212ACOH    C210591   7.432   5.938   4.271
  212ACOH    O110592   7.437   6.056   4.297
  212ACOH    C110593   7.407   5.889   4.133
  212ACOH    H110594   7.480   5.933   4.066
  212ACOH    H210595   7.307   5.918   4.103
  212ACOH    H310596   7.416   5.781   4.128
  213ACOH    H410597   3.970   6.299   4.273
  213ACOH    O210598   3.975   6.200   4.266
  213ACOH    C210599   4.002   6.156   4.391
  213ACOH    O110600   4.021   6.224   4.490
  213ACOH    C110601   4.012   6.008   4.392
  213ACOH    H110602   4.045   5.973   4.490
  213ACOH    H210603   4.083   5.975   4.317
  213ACOH    H310604   3.915   5.965   4.371
  214ACOH    H410605   0.009   1.206   5.777
  214ACOH    O210606   0.087   1.257   5.810
  214ACOH    C210607   0.136   1.183   5.911
  214ACOH    O110608   0.138   1.061   5.914
  214ACOH    C110609   0.227   1.263   5.996
  214ACOH    H110610   0.202   1.369   5.988
  214ACOH    H210611   0.329   1.249   5.964
  214ACOH    H310612   0.217   1.233   6.100
  215ACOH    H410613   9.537   1.808   1.526
  215ACOH    O210614   9.601   1.800   1.602
  215ACOH    C210615   9.535   1.744   1.704
  215ACOH    O110616   9.417   1.713   1.706
  215ACOH    C110617   9.621   1.727   1.824
  215ACOH    H110618   9.590   1.796   1.901
  215ACOH    H210619   9.725   1.745   1.799
  215ACOH    H310620   9.611   1.625   1.862
  216ACOH    H410621   6.344   5.176   1.740
  216ACOH    O210622   6.258   5.212   1.774
  216ACOH    C210623   6.266   5.345   1.760
  216ACOH    O110624   6.368   5.410   1.748
  216ACOH    C110625   6.133   5.408   1.783
  216ACOH    H110626   6.067   5.384   1.700
  216ACOH    H210627   6.142   5.516   1.791
  216ACOH    H310628   6.090   5.369   1.875
  217ACOH    H410629   4.911   3.753   6.432
  217ACOH    O210630   4.999   3.711   6.429
  217ACOH    C210631   4.990   3.597   6.501
  217ACOH    O110632   4.890   3.555   6.556
  217ACOH    C110633   5.116   3.520   6.497
  217ACOH    H110634   5.149   3.499   6.599
  217ACOH    H210635   5.194   3.576   6.447
  217ACOH    H310636   5.100   3.426   6.445
  218ACOH    H410637   3.394   5.331   3.435
  218ACOH    O210638   3.365   5.421   3.465
  218ACOH    C210639   3.401   5.508   3.369
  218ACOH    O110640   3.452   5.481   3.262
  218ACOH    C110641   3.373   5.648   3.409
  218ACOH    H110642   3.326   5.651   3.507
  218ACOH    H210643   3.306   5.694   3.337
  218ACOH    H310644   3.465   5.704   3.413
  219ACOH    H410645   6.086   7.349   3.439
  219ACOH    O210646   6.101   7.331   3.342
  219ACOH    C210647   6.231   7.356   3.317
  219ACOH    O110648   6.318   7.383   3.399
  219ACOH    C110649   6.264   7.342   3.174
  219ACOH    H110650   6.175   7.319   3.115
  219ACOH    H210651   6.336   7.262   3.160
  219ACOH    H310652   6.307   7.434   3.137
  220ACOH    H410653   7.502   8.014   2.252
  220ACOH    O210654   7.529   7.962   2.172
  220ACOH    C210655   7.448   7.855   2.163
  220ACOH    O110656   7.361   7.822   2.240
  220ACOH    C110657   7.482   7.776   2.042
  220ACOH    H110658   7.413   7.694   2.028
  220ACOH    H210659   7.583   7.737   2.052
  220ACOH    H310660   7.478   7.841   1.955
  221ACOH    H410661   4.366   2.361   0.730
  221ACOH    O210662   4.300   2.393   0.662
  221ACOH    C210663   4.250   2.508   0.713
  221ACOH    O110664   4.281   2.561   0.818
  221ACOH    C110665   4.149   2.567   0.623
  221ACOH    H110666   4.180   2.667   0.594
  221ACOH    H210667   4.053   2.573   0.675
  221ACOH    H310668   4.136   2.507   0.533
  222ACOH    H410669   7.229   1.945   6.549
  222ACOH    O210670   7.205   1.855   6.517
  222ACOH    C210671   7.157   1.861   6.392
  222ACOH    O110672   7.125   1.763   6.327
  222ACOH    C110673   7.145   1.996   6.332
  222ACOH    H110674   7.041   2.016   6.307
  222ACOH    H210675   7.205   2.001   6.242
  222ACOH    H310676   7.181   2.073   6.401
  223ACOH    H410677   9.683   3.462   5.993
  223ACOH    O210678   9.713   3.417   6.077
  223ACOH    C210679   9.724   3.286   6.047
  223ACOH    O110680   9.679   3.231   5.948
  223ACOH    C110681   9.785   3.210   6.159
  223ACOH    H110682   9.820   3.276   6.237
  223ACOH    H210683   9.869   3.152   6.122
  223ACOH    H310684   9.711   3.142   6.200
  224ACOH    H410685   6.795   2.145   6.004
  224ACOH    O210686   6.869   2.083   6.032
  224ACOH    C210687   6.811   1.963   6.050
  224ACOH    O110688   6.691   1.940   6.059
  224ACOH    C110689   6.911   1.857   6.073
  224ACOH    H110690   6.895   1.775   6.004
  224ACOH    H210691   6.902   1.819   6.175
  224ACOH    H310692   7.012   1.895   6.059
  225ACOH    H410693   7.849   8.825   2.090
  225ACOH    O210694   7.943   8.845   2.066
  225ACOH    C210695   7.988   8.740   1.995
  225ACOH    O110696   7.920   8.653   1.944
  225ACOH    C110697   8.132   8.756   1.960
  225ACOH    H110698   8.175   8.839   2.016
  225ACOH    H210699   8.141   8.777   1.854
  225ACOH    H310700   8.186   8.665   1.984
  226ACOH    H410701   6.055   8.122   4.989
  226ACOH    O210702   5.982   8.085   4.931
  226ACOH    C210703   5.884   8.179   4.930
  226ACOH    O110704   5.891   8.294   4.969
  226ACOH    C110705   5.764   8.130   4.859
  226ACOH    H110706   5.677   8.142   4.923
  226ACOH    H210707   5.774   8.025   4.832
  226ACOH    H310708   5.749   8.188   4.769
  227ACOH    H410709   4.187   0.606   6.171
  227ACOH    O210710   4.241   0.617   6.254
  227ACOH    C210711   4.202   0.728   6.319
  227ACOH    O110712   4.260   0.771   6.417
  227ACOH    C110713   4.083   0.796   6.260
  227ACOH    H110714   4.060   0.886   6.316
  227ACOH    H210715   3.997   0.729   6.263
  227ACOH    H310716   4.104   0.823   6.157
  228ACOH    H410717   7.489   3.790   6.775
  228ACOH    O210718   7.458   3.875   6.740
  228ACOH    C210719   7.436   3.859   6.609
  228ACOH    O110720   7.447   3.754   6.548
  228ACOH    C110721   7.393   3.984   6.543
  228ACOH    H110722   7.296   3.970   6.497
  228ACOH    H210723   7.464   4.012   6.466
  228ACOH    H310724   7.386   4.065   6.616
  229ACOH    H410725   7.871   3.848   1.289
  229ACOH    O210726   7.840   3.919   1.351
  229ACOH    C210727   7.923   4.024   1.337
  229ACOH    O110728   8.024   4.029   1.269
  229ACOH    C110729   7.874   4.139   1.417
  229ACOH    H110730   7.941   4.224   1.407
  229ACOH    H210731   7.869   4.110   1.521
  229ACOH    H310732   7.775   4.168   1.383
  230ACOH    H410733   5.274   4.897   5.120
  230ACOH    O210734   5.250   4.814   5.070
  230ACOH    C210735   5.201   4.728   5.161
  230ACOH    O110736   5.167   4.754   5.275
  230ACOH    C110737   5.176   4.595   5.101
  230ACOH    H110738   5.228   4.519   5.159
  230ACOH    H210739   5.212   4.591   4.999
  230ACOH    H310740   5.070   4.573   5.103
  231ACOH    H410741   7.713   5.339   5.811
  231ACOH    O210742   7.649   5.384   5.750
  231ACOH    C210743   7.641   5.513   5.786
  231ACOH    O110744   7.717   5.574   5.859
  231ACOH    C110745   7.529   5.578   5.716
  231ACOH    H110746   7.521   5.683   5.743
  231ACOH    H210747   7.436   5.528   5.742
  231ACOH    H310748   7.544   5.571   5.608
  232ACOH    H410749   7.411   6.383   4.516
  232ACOH    O210750   7.435   6.390   4.613
  232ACOH    C210751   7.409   6.516   4.652
  232ACOH    O110752   7.368   6.608   4.583
  232ACOH    C110753   7.436   6.530   4.797
  232ACOH    H110754   7.541   6.511   4.817
  232ACOH    H210755   7.376   6.460   4.854
  232ACOH    H310756   7.413   6.631   4.832
  233ACOH    H410757   5.405   1.257   4.189
  233ACOH    O210758   5.363   1.337   4.232
  233ACOH    C210759   5.230   1.312   4.239
  233ACOH    O110760   5.175   1.207   4.211
  233ACOH    C110761   5.157   1.426   4.299
  233ACOH    H110762   5.110   1.394   4.391
  233ACOH    H210763   5.080   1.459   4.230
  233ACOH    H310764   5.224   1.508   4.320
  234ACOH    H410765   7.862   8.569   1.064
  234ACOH    O210766   7.801   8.645   1.042
  234ACOH    C210767   7.784   8.644   0.908
  234ACOH    O110768   7.849   8.581   0.827
  234ACOH    C110769   7.683   8.745   0.868
  234ACOH    H110770   7.588   8.722   0.916
  234ACOH    H210771   7.669   8.745   0.760
  234ACOH    H310772   7.716   8.844   0.900
  235ACOH    H410773   4.536   8.921   0.426
  235ACOH    O210774   4.615   8.900   0.368
  235ACOH    C210775   4.619   8.766   0.356
  235ACOH    O110776   4.537   8.687   0.398
  235ACOH    C110777   4.734   8.723   0.272
  235ACOH    H110778   4.697   8.685   0.177
  235ACOH    H210779   4.787   8.643   0.323
  235ACOH    H310780   4.802   8.805   0.254
  236ACOH    H410781   7.529   2.169   6.432
  236ACOH    O210782   7.565   2.177   6.525
  236ACOH    C210783   7.697   2.199   6.516
  236ACOH    O110784   7.766   2.198   6.416
  236ACOH    C110785   7.753   2.220   6.652
  236ACOH    H110786   7.861   2.230   6.649
  236ACOH    H210787   7.726   2.135   6.715
  236ACOH    H310788   7.709   2.310   6.695
  237ACOH    H410789   4.308   6.689   4.449
  237ACOH    O210790   4.337   6.740   4.369
  237ACOH    C210791   4.235   6.741   4.281
  237ACOH    O110792   4.133   6.675   4.287
  237ACOH    C110793   4.264   6.828   4.165
  237ACOH    H110794   4.358   6.882   4.180
  237ACOH    H210795   4.184   6.901   4.152
  237ACOH    H310796   4.272   6.768   4.075
  238ACOH    H410797   6.157   4.832   0.124
  238ACOH    O210798   6.216   4.791   0.193
  238ACOH    C210799   6.256   4.673   0.142
  238ACOH    O110800   6.272   4.647   0.024
  238ACOH    C110801   6.312   4.586   0.248
  238ACOH    H110802   6.231   4.544   0.307
  238ACOH    H210803   6.376   4.645   0.313
  238ACOH    H310804   6.372   4.506   0.206
  239ACOH    H410805   3.440   7.177   0.415
  239ACOH    O210806   3.491   7.256   0.449
  239ACOH    C210807   3.534   7.323   0.340
  239ACOH    O110808   3.517   7.292   0.224
  239ACOH    C110809   3.597   7.451   0.382
  239ACOH    H110810   3.688   7.430   0.439
  239ACOH    H210811   3.528   7.507   0.444
  239ACOH    H310812   3.623   7.511   0.295
  240ACOH    H410813   3.609   6.435   0.102
  240ACOH    O210814   3.703   6.409   0.081
  240ACOH    C210815   3.731   6.299   0.153
  240ACOH    O110816   3.651   6.231   0.215
  240ACOH    C110817   3.873   6.261   0.137
  240ACOH    H110818   3.893   6.165   0.186
  240ACOH    H210819   3.936   6.338   0.182
  240ACOH    H310820   3.897   6.252   0.032
  241ACOH    H410821   6.247   2.920   4.847
  241ACOH    O210822   6.289   2.986   4.784
  241ACOH    C210823   6.225   2.982   4.667
  241ACOH    O110824   6.139   2.902   4.633
  241ACOH    C110825   6.280   3.082   4.573
  241ACOH    H110826   6.200   3.144   4.533
  241ACOH    H210827   6.330   3.031   4.491
  241ACOH    H310828   6.352   3.146   4.623
  242ACOH    H410829   6.840   5.256   1.976
  242ACOH    O210830   6.833   5.297   2.066
  242ACOH    C210831   6.918   5.233   2.148
  242ACOH    O110832   6.986   5.135   2.122
  242ACOH    C110833   6.913   5.294   2.283
  242ACOH    H110834   6.811   5.291   2.320
  242ACOH    H210835   6.946   5.397   2.277
  242ACOH    H310836   6.977   5.240   2.352
  243ACOH    H410837   8.593   6.434   1.072
  243ACOH    O210838   8.558   6.428   0.979
  243ACOH    C210839   8.431   6.472   0.977
  243ACOH    O110840   8.364   6.487   0.876
  243ACOH    C110841   8.375   6.504   1.111
  243ACOH    H110842   8.271   6.536   1.103
  243ACOH    H210843   8.432   6.585   1.157
  243ACOH    H310844   8.380   6.417   1.175
  244ACOH    H410845   7.449   7.183   1.623
  244ACOH    O210846   7.379   7.112   1.611
  244ACOH    C210847   7.444   7.001   1.573
  244ACOH    O110848   7.563   6.991   1.546
  244ACOH    C110849   7.352   6.886   1.555
  244ACOH    H110850   7.352   6.855   1.451
  244ACOH    H210851   7.250   6.914   1.583
  244ACOH    H310852   7.384   6.803   1.617
  245ACOH    H410853   5.564   2.743   4.822
  245ACOH    O210854   5.525   2.832   4.842
  245ACOH    C210855   5.627   2.912   4.879
  245ACOH    O110856   5.746   2.889   4.861
  245ACOH    C110857   5.579   3.039   4.938
  245ACOH    H110858   5.613   3.046   5.041
  245ACOH    H210859   5.471   3.045   4.936
  245ACOH    H310860   5.620   3.123   4.883
  246ACOH    H410861   7.046   9.564   5.809
  246ACOH    O210862   7.105   9.643   5.824
  246ACOH    C210863   7.024   9.749   5.842
  246ACOH    O110864   6.903   9.750   5.839
  246ACOH    C110865   7.103   9.872   5.870
  246ACOH    H110866   7.040   9.952   5.908
  246ACOH    H210867   7.152   9.906   5.780
  246ACOH    H310868   7.179   9.849   5.944
  247ACOH    H410869   7.129   7.701   2.644
  247ACOH    O210870   7.103   7.608   2.622
  247ACOH    C210871   7.207   7.529   2.653
  247ACOH    O110872   7.318   7.566   2.688
  247ACOH    C110873   7.176   7.386   2.628
  247ACOH    H110874   7.072   7.374   2.602
  247ACOH    H210875   7.198   7.327   2.717
  247ACOH    H310876   7.237   7.350   2.546
  248ACOH    H410877   9.357   6.447   4.818
  248ACOH    O210878   9.321   6.485   4.904
  248ACOH    C210879   9.373   6.408   5.001
  248ACOH    O110880   9.473   6.338   4.992
  248ACOH    C110881   9.308   6.435   5.131
  248ACOH    H110882   9.306   6.542   5.149
  248ACOH    H210883   9.361   6.387   5.212
  248ACOH    H310884   9.206   6.398   5.129
  249ACOH    H410885   0.189   7.244   1.569
  249ACOH    O210886   0.144   7.289   1.491
  249ACOH    C210887   0.089   7.191   1.417
  249ACOH    O110888   0.093   7.071   1.437
  249ACOH    C110889   0.021   7.250   1.299
  249ACOH    H110890   9.942   7.317   1.332
  249ACOH    H210891   9.977   7.171   1.238
  249ACOH    H310892   0.092   7.305   1.239
  250ACOH    H410893   1.512   0.925   6.011
  250ACOH    O210894   1.530   0.829   5.995
  250ACOH    C210895   1.428   0.779   5.924
  250ACOH    O110896   1.325   0.837   5.893
  250ACOH    C110897   1.447   0.635   5.893
  250ACOH    H110898   1.438   0.620   5.785
  250ACOH    H210899   1.372   0.576   5.944
  250ACOH    H310900   1.546   0.603   5.924
  251ACOH    H410901   1.578   8.257   2.634
  251ACOH    O210902   1.662   8.309   2.646
  251ACOH    C210903   1.633   8.415   2.723
  251ACOH    O110904   1.522   8.462   2.743
  251ACOH    C110905   1.758   8.483   2.763
  251ACOH    H110906   1.819   8.413   2.820
  251ACOH    H210907   1.738   8.570   2.825
  251ACOH    H310908   1.813   8.514   2.674
  252ACOH    H410909   2.387   9.345   6.103
  252ACOH    O210910   2.354   9.439   6.104
  252ACOH    C210911   2.289   9.457   6.220
  252ACOH    O110912   2.279   9.377   6.312
  252ACOH    C110913   2.234   9.594   6.232
  252ACOH    H110914   2.286   9.647   6.310
  252ACOH    H210915   2.128   9.588   6.258
  252ACOH    H310916   2.244   9.648   6.138
  253ACOH    H410917   7.647   7.972   1.773
  253ACOH    O210918   7.551   8.001   1.770
  253ACOH    C210919   7.551   8.132   1.739
  253ACOH    O110920   7.645   8.200   1.702
  253ACOH    C110921   7.413   8.185   1.746
  253ACOH    H110922   7.378   8.180   1.848
  253ACOH    H210923   7.348   8.123   1.684
  253ACOH    H310924   7.409   8.288   1.711
  254ACOH    H410925   9.877   7.823   1.951
  254ACOH    O210926   9.947   7.759   1.980
  254ACOH    C210927   9.910   7.715   2.102
  254ACOH    O110928   9.806   7.741   2.161
  254ACOH    C110929   0.012   7.625   2.161
  254ACOH    H110930   0.047   7.667   2.255
  254ACOH    H210931   0.096   7.613   2.094
  254ACOH    H310932   9.968   7.527   2.180
  255ACOH    H410933   6.122   3.682   1.229
  255ACOH    O210934   6.050   3.672   1.297
  255ACOH    C210935   6.035   3.540   1.318
  255ACOH    O110936   6.097   3.449   1.265
  255ACOH    C110937   5.931   3.515   1.421
  255ACOH    H110938   5.918   3.408   1.437
  255ACOH    H210939   5.837   3.558   1.388
  255ACOH    H310940   5.961   3.562   1.514
  256ACOH    H410941   4.795   2.526   6.029
  256ACOH    O210942   4.786   2.612   5.980
  256ACOH    C210943   4.722   2.699   6.062
  256ACOH    O110944   4.684   2.677   6.175
  256ACOH    C110945   4.696   2.828   5.993
  256ACOH    H110946   4.726   2.910   6.058
  256ACOH    H210947   4.590   2.836   5.972
  256ACOH    H310948   4.752   2.834   5.900
  257ACOH    H410949   8.727   0.919   4.429
  257ACOH    O210950   8.650   0.942   4.489
  257ACOH    C210951   8.555   0.991   4.408
  257ACOH    O110952   8.576   1.047   4.301
  257ACOH    C110953   8.425   1.000   4.479
  257ACOH    H110954   8.386   0.900   4.495
  257ACOH    H210955   8.353   1.056   4.420
  257ACOH    H310956   8.438   1.050   4.574
  258ACOH    H410957   6.821   5.660   6.725
  258ACOH    O210958   6.724   5.663   6.721
  258ACOH    C210959   6.692   5.691   6.593
  258ACOH    O110960   6.770   5.705   6.501
  258ACOH    C110961   6.545   5.702   6.577
  258ACOH    H110962   6.498   5.609   6.610
  258ACOH    H210963   6.518   5.720   6.473
  258ACOH    H310964   6.508   5.783   6.638
  259ACOH    H410965   5.538   2.043   3.105
  259ACOH    O210966   5.511   2.140   3.101
  259ACOH    C210967   5.477   2.163   2.972
  259ACOH    O110968   5.475   2.082   2.881
  259ACOH    C110969   5.451   2.307   2.947
  259ACOH    H110970   5.458   2.364   3.039
  259ACOH    H210971   5.352   2.319   2.905
  259ACOH    H310972   5.524   2.345   2.876
  260ACOH    H410973   4.827   4.492   5.269
  260ACOH    O210974   4.898   4.485   5.339
  260ACOH    C210975   4.852   4.555   5.445
  260ACOH    O110976   4.750   4.622   5.450
  260ACOH    C110977   4.941   4.537   5.563
  260ACOH    H110978   4.889   4.481   5.639
  260ACOH    H210979   4.968   4.634   5.603
  260ACOH    H310980   5.032   4.484   5.536
  261ACOH    H410981   2.587   7.466   5.035
  261ACOH    O210982   2.507   7.409   5.045
  261ACOH    C210983   2.430   7.433   4.937
  261ACOH    O110984   2.456   7.505   4.843
  261ACOH    C110985   2.300   7.361   4.949
  261ACOH    H110986   2.317   7.254   4.949
  261ACOH    H210987   2.235   7.386   4.865
  261ACOH    H310988   2.251   7.390   5.041
  262ACOH    H410989   7.531   0.828   2.462
  262ACOH    O210990   7.501   0.871   2.548
  262ACOH    C210991   7.370   0.896   2.533
  262ACOH    O110992   7.296   0.847   2.449
  262ACOH    C110993   7.316   0.972   2.648
  262ACOH    H110994   7.257   1.056   2.612
  262ACOH    H210995   7.396   1.009   2.711
  262ACOH    H310996   7.252   0.907   2.708
  263ACOH    H410997   7.835   5.148   5.762
  263ACOH    O210998   7.869   5.107   5.678
  263ACOH    C210999   7.768   5.033   5.628
  263ACOH    O111000   7.666   5.000   5.686
  263ACOH    C111001   7.802   4.984   5.493
  263ACOH    H111002   7.896   4.929   5.496
  263ACOH    H211003   7.813   5.069   5.425
  263ACOH    H311004   7.725   4.918   5.454
  264ACOH    H411005   1.958   3.077   3.389
  264ACOH    O211006   2.056   3.090   3.381
  264ACOH    C211007   2.110   2.967   3.365
  264ACOH    O111008   2.053   2.861   3.375
  264ACOH    C111009   2.255   2.978   3.334
  264ACOH    H111010   2.269   3.035   3.243
  264ACOH    H211011   2.299   2.879   3.321
  264ACOH    H311012   2.306   3.028   3.416
  265ACOH    H411013   5.016   4.260   4.265
  265ACOH    O211014   5.089   4.192   4.251
  265ACOH    C211015   5.134   4.211   4.125
  265ACOH    O111016   5.094   4.293   4.045
  265ACOH    C111017   5.246   4.119   4.093
  265ACOH    H111018   5.337   4.176   4.079
  265ACOH    H211019   5.224   4.065   4.002
  265ACOH    H311020   5.261   4.047   4.173
  266ACOH    H411021   3.010   9.340   2.870
  266ACOH    O211022   3.067   9.420   2.891
  266ACOH    C211023   3.076   9.492   2.778
  266ACOH    O111024   3.051   9.454   2.666
  266ACOH    C111025   3.138   9.624   2.806
  266ACOH    H111026   3.232   9.611   2.859
  266ACOH    H211027   3.071   9.684   2.867
  266ACOH    H311028   3.158   9.678   2.713
  267ACOH    H411029   6.229   2.167   3.219
  267ACOH    O211030   6.159   2.112   3.174
  267ACOH    C211031   6.214   2.055   3.066
  267ACOH    O111032   6.326   2.071   3.023
  267ACOH    C111033   6.118   1.959   3.006
  267ACOH    H111034   6.086   1.887   3.081
  267ACOH    H211035   6.163   1.906   2.923
  267ACOH    H311036   6.031   2.014   2.969
  268ACOH    H411037   4.491   2.020   3.009
  268ACOH    O211038   4.576   2.033   2.960
  268ACOH    C211039   4.624   2.153   2.999
  268ACOH    O111040   4.568   2.236   3.069
  268ACOH    C111041   4.754   2.181   2.933
  268ACOH    H111042   4.743   2.174   2.825
  268ACOH    H211043   4.827   2.108   2.966
  268ACOH    H311044   4.789   2.281   2.957
  269ACOH    H411045   1.725   9.636   3.525
  269ACOH    O211046   1.753   9.702   3.456
  269ACOH    C211047   1.731   9.643   3.337
  269ACOH    O111048   1.686   9.532   3.318
  269ACOH    C111049   1.770   9.734   3.226
  269ACOH    H111050   1.875   9.758   3.235
  269ACOH    H211051   1.712   9.826   3.232
  269ACOH    H311052   1.752   9.687   3.129
  270ACOH    H411053   4.821   3.792   3.324
  270ACOH    O211054   4.908   3.837   3.342
  270ACOH    C211055   4.902   3.958   3.284
  270ACOH    O111056   4.808   4.006   3.222
  270ACOH    C111057   5.026   4.036   3.306
  270ACOH    H111058   5.098   3.976   3.360
  270ACOH    H211059   5.004   4.124   3.365
  270ACOH    H311060   5.069   4.066   3.210
  271ACOH    H411061   6.005   9.688   1.703
  271ACOH    O211062   6.091   9.642   1.727
  271ACOH    C211063   6.056   9.528   1.791
  271ACOH    O111064   5.944   9.481   1.800
  271ACOH    C111065   6.174   9.458   1.847
  271ACOH    H111066   6.265   9.516   1.832
  271ACOH    H211067   6.185   9.361   1.800
  271ACOH    H311068   6.159   9.443   1.954
  272ACOH    H411069   4.996   7.379   1.782
  272ACOH    O211070   5.072   7.444   1.781
  272ACOH    C211071   5.078   7.493   1.656
  272ACOH    O111072   5.006   7.463   1.563
  272ACOH    C111073   5.187   7.593   1.646
  272ACOH    H111074   5.283   7.545   1.664
  272ACOH    H211075   5.172   7.670   1.721
  272ACOH    H311076   5.188   7.639   1.548
  273ACOH    H411077   7.637   6.928   2.683
  273ACOH    O211078   7.574   6.899   2.612
  273ACOH    C211079   7.490   7.003   2.593
  273ACOH    O111080   7.496   7.112   2.645
  273ACOH    C111081   7.387   6.971   2.490
  273ACOH    H111082   7.288   6.983   2.533
  273ACOH    H211083   7.399   6.869   2.455
  273ACOH    H311084   7.398   7.039   2.406
  274ACOH    H411085   4.503   7.771   5.704
  274ACOH    O211086   4.525   7.826   5.784
  274ACOH    C211087   4.646   7.785   5.826
  274ACOH    O111088   4.704   7.682   5.797
  274ACOH    C111089   4.695   7.878   5.931
  274ACOH    H111090   4.620   7.888   6.009
  274ACOH    H211091   4.713   7.976   5.888
  274ACOH    H311092   4.787   7.841   5.975
  275ACOH    H411093   9.967   3.131   1.153
  275ACOH    O211094   9.918   3.072   1.218
  275ACOH    C211095   0.003   3.048   1.319
  275ACOH    O111096   0.091   3.124   1.357
  275ACOH    C111097   9.956   2.936   1.403
  275ACOH    H111098   9.908   2.974   1.493
  275ACOH    H211099   0.040   2.874   1.432
  275ACOH    H311100   9.885   2.874   1.348
  276ACOH    H411101   7.176   7.740   3.839
  276ACOH    O211102   7.129   7.788   3.767
  276ACOH    C211103   7.163   7.918   3.775
  276ACOH    O111104   7.269   7.960   3.816
  276ACOH    C111105   7.073   8.002   3.692
  276ACOH    H111106   7.051   8.094   3.744
  276ACOH    H211107   6.980   7.949   3.673
  276ACOH    H311108   7.121   8.024   3.597
  277ACOH    H411109   1.033   1.369   2.611
  277ACOH    O211110   0.990   1.337   2.528
  277ACOH    C211111   1.038   1.214   2.505
  277ACOH    O111112   1.124   1.157   2.570
  277ACOH    C111113   0.970   1.151   2.390
  277ACOH    H111114   1.004   1.048   2.375
  277ACOH    H211115   0.992   1.207   2.300
  277ACOH    H311116   0.862   1.150   2.406
  278ACOH    H411117   1.206   3.941   2.760
  278ACOH    O211118   1.256   3.855   2.753
  278ACOH    C211119   1.165   3.762   2.720
  278ACOH    O111120   1.052   3.780   2.679
  278ACOH    C111121   1.228   3.628   2.725
  278ACOH    H111122   1.257   3.605   2.827
  278ACOH    H211123   1.316   3.626   2.661
  278ACOH    H311124   1.158   3.551   2.690
  279ACOH    H411125   4.065   4.501   5.572
  279ACOH    O211126   4.120   4.514   5.654
  279ACOH    C211127   4.242   4.463   5.627
  279ACOH    O111128   4.276   4.406   5.525
  279ACOH    C111129   4.330   4.470   5.747
  279ACOH    H111130   4.288   4.536   5.822
  279ACOH    H211131   4.428   4.505   5.718
  279ACOH    H311132   4.339   4.370   5.790
  280ACOH    H411133   8.353   6.113   0.555
  280ACOH    O211134   8.282   6.072   0.498
  280ACOH    C211135   8.344   5.990   0.410
  280ACOH    O111136   8.462   5.961   0.406
  280ACOH    C111137   8.243   5.923   0.324
  280ACOH    H111138   8.195   5.998   0.262
  280ACOH    H211139   8.167   5.876   0.386
  280ACOH    H311140   8.290   5.848   0.261
  281ACOH    H411141   4.617   7.252   6.112
  281ACOH    O211142   4.701   7.251   6.163
  281ACOH    C211143   4.801   7.238   6.073
  281ACOH    O111144   4.790   7.247   5.952
  281ACOH    C111145   4.933   7.226   6.139
  281ACOH    H111146   4.986   7.139   6.101
  281ACOH    H211147   4.922   7.215   6.247
  281ACOH    H311148   4.992   7.315   6.120
  282ACOH    H411149   7.163   3.432   6.156
  282ACOH    O211150   7.103   3.352   6.153
  282ACOH    C211151   7.025   3.365   6.044
  282ACOH    O111152   7.018   3.461   5.969
  282ACOH    C111153   6.950   3.240   6.019
  282ACOH    H111154   6.994   3.189   5.933
  282ACOH    H211155   6.847   3.262   5.996
  282ACOH    H311156   6.953   3.174   6.105
  283ACOH    H411157   5.076   4.818   5.406
  283ACOH    O211158   5.012   4.840   5.478
  283ACOH    C211159   4.995   4.973   5.478
  283ACOH    O111160   5.060   5.054   5.415
  283ACOH    C111161   4.891   5.015   5.575
  283ACOH    H111162   4.843   4.928   5.619
  283ACOH    H211163   4.815   5.074   5.524
  283ACOH    H311164   4.936   5.074   5.653
  284ACOH    H411165   6.991   9.336   1.699
  284ACOH    O211166   6.987   9.262   1.633
  284ACOH    C211167   7.090   9.276   1.547
  284ACOH    O111168   7.169   9.368   1.542
  284ACOH    C111169   7.094   9.165   1.448
  284ACOH    H111170   7.191   9.117   1.452
  284ACOH    H211171   7.078   9.205   1.349
  284ACOH    H311172   7.016   9.092   1.470
  285ACOH    H411173   8.246   1.228   0.380
  285ACOH    O211174   8.169   1.212   0.319
  285ACOH    C211175   8.224   1.166   0.204
  285ACOH    O111176   8.341   1.173   0.171
  285ACOH    C111177   8.119   1.120   0.110
  285ACOH    H111178   8.109   1.191   0.028
  285ACOH    H211179   8.024   1.109   0.161
  285ACOH    H311180   8.147   1.023   0.069
  286ACOH    H411181   1.489   2.209   0.491
  286ACOH    O211182   1.543   2.250   0.563
  286ACOH    C211183   1.642   2.319   0.506
  286ACOH    O111184   1.650   2.349   0.388
  286ACOH    C111185   1.736   2.375   0.606
  286ACOH    H111186   1.837   2.346   0.582
  286ACOH    H211187   1.712   2.337   0.705
  286ACOH    H311188   1.728   2.483   0.608
  287ACOH    H411189   4.819   8.994   1.439
  287ACOH    O211190   4.914   8.989   1.414
  287ACOH    C211191   4.952   8.861   1.433
  287ACOH    O111192   4.879   8.768   1.459
  287ACOH    C111193   5.097   8.842   1.405
  287ACOH    H111194   5.144   8.798   1.493
  287ACOH    H211195   5.144   8.937   1.383
  287ACOH    H311196   5.109   8.775   1.321
  288ACOH    H411197   9.063   3.060   6.130
  288ACOH    O211198   9.053   2.961   6.119
  288ACOH    C211199   9.140   2.922   6.024
  288ACOH    O111200   9.216   2.994   5.961
  288ACOH    C111201   9.130   2.777   5.996
  288ACOH    H111202   9.057   2.730   6.061
  288ACOH    H211203   9.227   2.731   6.013
  288ACOH    H311204   9.101   2.761   5.893
  289ACOH    H411205   5.980   0.945   2.133
  289ACOH    O211206   5.926   0.892   2.068
  289ACOH    C211207   6.008   0.862   1.966
  289ACOH    O111208   6.129   0.868   1.966
  289ACOH    C111209   5.933   0.800   1.854
  289ACOH    H111210   5.958   0.850   1.760
  289ACOH    H211211   5.826   0.806   1.870
  289ACOH    H311212   5.961   0.695   1.845
  290ACOH    H411213   5.107   7.088   2.961
  290ACOH    O211214   5.178   7.043   2.909
  290ACOH    C211215   5.126   7.005   2.791
  290ACOH    O111216   5.013   7.026   2.752
  290ACOH    C111217   5.226   6.936   2.707
  290ACOH    H111218   5.192   6.835   2.685
  290ACOH    H211219   5.322   6.930   2.758
  290ACOH    H311220   5.240   6.989   2.614
  291ACOH    H411221   1.693   6.691   1.663
  291ACOH    O211222   1.784   6.718   1.692
  291ACOH    C211223   1.792   6.852   1.684
  291ACOH    O111224   1.701   6.929   1.660
  291ACOH    C111225   1.930   6.898   1.715
  291ACOH    H111226   1.998   6.859   1.640
  291ACOH    H211227   1.960   6.860   1.812
  291ACOH    H311228   1.935   7.006   1.716
  292ACOH    H411229   5.503   3.022   4.456
  292ACOH    O211230   5.432   3.089   4.473
  292ACOH    C211231   5.314   3.024   4.471
  292ACOH    O111232   5.294   2.913   4.424
  292ACOH    C111233   5.203   3.114   4.509
  292ACOH    H111234   5.141   3.066   4.584
  292ACOH    H211235   5.142   3.137   4.422
  292ACOH    H311236   5.241   3.208   4.550
  293ACOH    H411237   5.356   6.667   1.891
  293ACOH    O211238   5.443   6.680   1.845
  293ACOH    C211239   5.456   6.579   1.757
  293ACOH    O111240   5.381   6.485   1.741
  293ACOH    C111241   5.583   6.593   1.681
  293ACOH    H111242   5.666   6.602   1.751
  293ACOH    H211243   5.579   6.682   1.619
  293ACOH    H311244   5.600   6.506   1.618
  294ACOH    H411245   9.892   3.224   6.764
  294ACOH    O211246   9.935   3.138   6.754
  294ACOH    C211247   0.067   3.160   6.764
  294ACOH    O111248   0.120   3.268   6.784
  294ACOH    C111249   0.143   3.034   6.750
  294ACOH    H111250   0.124   2.991   6.653
  294ACOH    H211251   0.112   2.965   6.827
  294ACOH    H311252   0.250   3.053   6.760
  295ACOH    H411253   7.017   3.166   5.177
  295ACOH    O211254   7.084   3.241   5.177
  295ACOH    C211255   7.134   3.247   5.052
  295ACOH    O111256   7.119   3.167   4.962
  295ACOH    C111257   7.226   3.363   5.038
  295ACOH    H111258   7.197   3.422   4.951
  295ACOH    H211259   7.328   3.327   5.025
  295ACOH    H311260   7.222   3.426   5.126
  296ACOH    H411261   3.919   9.714   3.201
  296ACOH    O211262   3.825   9.740   3.183
  296ACOH    C211263   3.749   9.674   3.273
  296ACOH    O111264   3.788   9.632   3.381
  296ACOH    C111265   3.604   9.689   3.243
  296ACOH    H111266   3.559   9.761   3.310
  296ACOH    H211267   3.555   9.593   3.256
  296ACOH    H311268   3.590   9.722   3.140
  297ACOH    H411269   6.763   2.782   2.116
  297ACOH    O211270   6.688   2.815   2.059
  297ACOH    C211271   6.590   2.723   2.065
  297ACOH    O111272   6.605   2.606   2.097
  297ACOH    C111273   6.467   2.769   1.997
  297ACOH    H111274   6.380   2.742   2.056
  297ACOH    H211275   6.460   2.723   1.899
  297ACOH    H311276   6.468   2.877   1.985
  298ACOH    H411277   2.584   4.059   3.003
  298ACOH    O211278   2.599   3.962   3.026
  298ACOH    C211279   2.692   3.962   3.123
  298ACOH    O111280   2.707   4.051   3.206
  298ACOH    C111281   2.743   3.824   3.144
  298ACOH    H111282   2.660   3.753   3.143
  298ACOH    H211283   2.795   3.816   3.239
  298ACOH    H311284   2.812   3.799   3.064
  299ACOH    H411285   5.804   4.124   1.797
  299ACOH    O211286   5.893   4.160   1.828
  299ACOH    C211287   5.887   4.294   1.816
  299ACOH    O111288   5.789   4.361   1.790
  299ACOH    C111289   6.018   4.353   1.850
  299ACOH    H111290   6.092   4.321   1.777
  299ACOH    H211291   6.048   4.319   1.949
  299ACOH    H311292   6.012   4.462   1.850
  300ACOH    H411293   9.761   0.525   1.684
  300ACOH    O211294   9.735   0.539   1.779
  300ACOH    C211295   9.686   0.664   1.787
  300ACOH    O111296   9.650   0.735   1.694
  300ACOH    C111297   9.659   0.700   1.928
  300ACOH    H111298   9.752   0.727   1.977
  300ACOH    H211299   9.616   0.614   1.979
  300ACOH    H311300   9.589   0.783   1.935
  301ACOH    H411301   6.648   6.536   6.234
  301ACOH    O211302   6.653   6.449   6.280
  301ACOH    C211303   6.544   6.378   6.242
  301ACOH    O111304   6.444   6.422   6.190
  301ACOH    C111305   6.553   6.240   6.293
  301ACOH    H111306   6.569   6.242   6.401
  301ACOH    H211307   6.638   6.190   6.247
  301ACOH    H311308   6.463   6.184   6.271
  302ACOH    H411309   4.201   9.504   4.798
  302ACOH    O211310   4.174   9.591   4.758
  302ACOH    C211311   4.226   9.597   4.634
  302ACOH    O111312   4.314   9.526   4.589
  302ACOH    C111313   4.181   9.719   4.564
  302ACOH    H111314   4.204   9.807   4.624
  302ACOH    H211315   4.073   9.715   4.549
  302ACOH    H311316   4.229   9.730   4.467
  303ACOH    H411317   7.523   1.247   3.170
  303ACOH    O211318   7.583   1.254   3.091
  303ACOH    C211319   7.534   1.171   2.997
  303ACOH    O111320   7.421   1.126   2.991
  303ACOH    C111321   7.634   1.153   2.889
  303ACOH    H111322   7.593   1.094   2.807
  303ACOH    H211323   7.722   1.102   2.929
  303ACOH    H311324   7.664   1.250   2.851
  304ACOH    H411325   7.210   3.304   4.272
  304ACOH    O211326   7.207   3.398   4.304
  304ACOH    C211327   7.333   3.442   4.314
  304ACOH    O111328   7.432   3.391   4.267
  304ACOH    C111329   7.335   3.575   4.380
  304ACOH    H111330   7.298   3.565   4.481
  304ACOH    H211331   7.270   3.643   4.325
  304ACOH    H311332   7.436   3.615   4.382
  305ACOH    H411333   3.302   2.800   1.531
  305ACOH    O211334   3.362   2.830   1.458
  305ACOH    C211335   3.448   2.918   1.512
  305ACOH    O111336   3.447   2.961   1.626
  305ACOH    C111337   3.547   2.964   1.411
  305ACOH    H111338   3.545   3.072   1.403
  305ACOH    H211339   3.526   2.921   1.314
  305ACOH    H311340   3.646   2.932   1.442
  306ACOH    H411341   3.775   5.919   5.065
  306ACOH    O211342   3.832   5.983   5.014
  306ACOH    C211343   3.812   5.961   4.883
  306ACOH    O111344   3.711   5.911   4.835
  306ACOH    C111345   3.906   6.041   4.801
  306ACOH    H111346   3.927   5.991   4.707
  306ACOH    H211347   4.000   6.054   4.855
  306ACOH    H311348   3.863   6.139   4.781
  307ACOH    H411349   2.613   6.259   6.475
  307ACOH    O211350   2.548   6.261   6.402
  307ACOH    C211351   2.599   6.343   6.308
  307ACOH    O111352   2.699   6.411   6.319
  307ACOH    C111353   2.509   6.349   6.190
  307ACOH    H111354   2.499   6.250   6.147
  307ACOH    H211355   2.549   6.416   6.115
  307ACOH    H311356   2.411   6.384   6.220
  308ACOH    H411357   6.520   8.970   2.285
  308ACOH    O211358   6.580   8.892   2.269
  308ACOH    C211359   6.548   8.795   2.356
  308ACOH    O111360   6.461   8.797   2.442
  308ACOH    C111361   6.635   8.677   2.334
  308ACOH    H111362   6.738   8.705   2.351
  308ACOH    H211363   6.624   8.643   2.231
  308ACOH    H311364   6.609   8.596   2.401
  309ACOH    H411365   5.967   0.941   0.849
  309ACOH    O211366   5.977   0.931   0.750
  309ACOH    C211367   5.881   0.844   0.711
  309ACOH    O111368   5.813   0.773   0.782
  309ACOH    C111369   5.882   0.833   0.563
  309ACOH    H111370   5.813   0.756   0.530
  309ACOH    H211371   5.982   0.808   0.529
  309ACOH    H311372   5.853   0.928   0.519
  310ACOH    H411373   5.401   2.111   2.721
  310ACOH    O211374   5.364   2.161   2.644
  310ACOH    C211375   5.316   2.070   2.557
  310ACOH    O111376   5.333   1.950   2.561
  310ACOH    C111377   5.245   2.135   2.444
  310ACOH    H111378   5.143   2.100   2.441
  310ACOH    H211379   5.294   2.110   2.350
  310ACOH    H311380   5.244   2.243   2.456
  311ACOH    H411381   7.120   9.906   0.732
  311ACOH    O211382   7.172   9.822   0.714
  311ACOH    C211383   7.181   9.812   0.580
  311ACOH    O111384   7.137   9.889   0.497
  311ACOH    C111385   7.258   9.690   0.544
  311ACOH    H111386   7.268   9.682   0.436
  311ACOH    H211387   7.207   9.602   0.582
  311ACOH    H311388   7.358   9.696   0.588
  312ACOH    H411389   7.911   3.893   4.550
  312ACOH    O211390   7.830   3.888   4.611
  312ACOH    C211391   7.786   4.015   4.622
  312ACOH    O111392   7.815   4.108   4.550
  312ACOH    C111393   7.678   4.025   4.724
  312ACOH    H111394   7.664   3.931   4.776
  312ACOH    H211395   7.585   4.054   4.676
  312ACOH    H311396   7.705   4.101   4.797
  313ACOH    H411397   3.012   5.388   5.447
  313ACOH    O211398   2.980   5.299   5.480
  313ACOH    C211399   3.055   5.267   5.588
  313ACOH    O111400   3.150   5.329   5.632
  313ACOH    C111401   3.009   5.140   5.646
  313ACOH    H111402   3.068   5.114   5.734
  313ACOH    H211403   3.019   5.060   5.573
  313ACOH    H311404   2.904   5.147   5.676
  314ACOH    H411405   5.105   3.387   1.599
  314ACOH    O211406   5.127   3.334   1.682
  314ACOH    C211407   5.169   3.423   1.774
  314ACOH    O111408   5.167   3.544   1.766
  314ACOH    C111409   5.209   3.351   1.897
  314ACOH    H111410   5.131   3.280   1.925
  314ACOH    H211411   5.223   3.421   1.979
  314ACOH    H311412   5.301   3.297   1.880
  315ACOH    H411413   7.373   4.883   3.386
  315ACOH    O211414   7.290   4.922   3.426
  315ACOH    C211415   7.189   4.894   3.342
  315ACOH    O111416   7.194   4.830   3.238
  315ACOH    C111417   7.063   4.952   3.394
  315ACOH    H111418   6.979   4.928   3.328
  315ACOH    H211419   7.073   5.060   3.400
  315ACOH    H311420   7.042   4.913   3.493
  316ACOH    H411421   6.847   6.208   5.711
  316ACOH    O211422   6.758   6.163   5.702
  316ACOH    C211423   6.774   6.061   5.615
  316ACOH    O111424   6.871   6.041   5.544
  316ACOH    C111425   6.652   5.979   5.606
  316ACOH    H111426   6.678   5.874   5.619
  316ACOH    H211427   6.605   5.993   5.509
  316ACOH    H311428   6.581   6.007   5.684
  317ACOH    H411429   6.686   7.441   3.266
  317ACOH    O211430   6.734   7.462   3.182
  317ACOH    C211431   6.794   7.349   3.141
  317ACOH    O111432   6.777   7.238   3.187
  317ACOH    C111433   6.877   7.371   3.020
  317ACOH    H111434   6.881   7.477   2.995
  317ACOH    H211435   6.834   7.317   2.936
  317ACOH    H311436   6.977   7.335   3.038
  318ACOH    H411437   4.673   7.151   5.859
  318ACOH    O211438   4.596   7.095   5.835
  318ACOH    C211439   4.539   7.149   5.726
  318ACOH    O111440   4.581   7.244   5.662
  318ACOH    C111441   4.416   7.076   5.688
  318ACOH    H111442   4.429   7.029   5.592
  318ACOH    H211443   4.333   7.146   5.681
  318ACOH    H311444   4.392   7.000   5.762
  319ACOH    H411445   4.655   3.186   2.209
  319ACOH    O211446   4.740   3.204   2.160
  319ACOH    C211447   4.798   3.311   2.216
  319ACOH    O111448   4.747   3.391   2.293
  319ACOH    C111449   4.928   3.340   2.150
  319ACOH    H111450   5.001   3.372   2.224
  319ACOH    H211451   4.914   3.418   2.076
  319ACOH    H311452   4.966   3.251   2.101
  320ACOH    H411453   4.851   5.523   3.306
  320ACOH    O211454   4.949   5.509   3.307
  320ACOH    C211455   4.973   5.392   3.246
  320ACOH    O111456   4.897   5.337   3.168
  320ACOH    C111457   5.116   5.357   3.256
  320ACOH    H111458   5.142   5.276   3.188
  320ACOH    H211459   5.136   5.325   3.358
  320ACOH    H311460   5.177   5.443   3.234
  321ACOH    H411461   6.320   7.097   5.010
  321ACOH    O211462   6.318   7.039   4.928
  321ACOH    C211463   6.349   6.914   4.968
  321ACOH    O111464   6.359   6.873   5.082
  321ACOH    C111465   6.350   6.822   4.851
  321ACOH    H111466   6.257   6.831   4.796
  321ACOH    H211467   6.364   6.719   4.883
  321ACOH    H311468   6.433   6.850   4.786
  322ACOH    H411469   4.686   8.410   6.650
  322ACOH    O211470   4.679   8.464   6.570
  322ACOH    C211471   4.661   8.379   6.467
  322ACOH    O111472   4.657   8.257   6.475
  322ACOH    C111473   4.648   8.453   6.340
  322ACOH    H111474   4.639   8.385   6.256
  322ACOH    H211475   4.736   8.516   6.325
  322ACOH    H311476   4.560   8.516   6.344
  323ACOH    H411477   7.578   4.421   4.152
  323ACOH    O211478   7.500   4.475   4.123
  323ACOH    C211479   7.544   4.572   4.041
  323ACOH    O111480   7.660   4.600   4.016
  323ACOH    C111481   7.431   4.648   3.982
  323ACOH    H111482   7.336   4.610   4.018
  323ACOH    H211483   7.434   4.637   3.874
  323ACOH    H311484   7.440   4.753   4.007
  324ACOH    H411485   4.749   4.648   3.889
  324ACOH    O211486   4.764   4.741   3.920
  324ACOH    C211487   4.897   4.764   3.932
  324ACOH    O111488   4.943   4.872   3.965
  324ACOH    C111489   4.983   4.646   3.909
  324ACOH    H111490   4.959   4.568   3.981
  324ACOH    H211491   5.088   4.672   3.921
  324ACOH    H311492   4.968   4.608   3.808
  325ACOH    H411493   7.601   5.712   2.324
  325ACOH    O211494   7.573   5.668   2.239
  325ACOH    C211495   7.582   5.535   2.260
  325ACOH    O111496   7.612   5.479   2.363
  325ACOH    C111497   7.544   5.461   2.137
  325ACOH    H111498   7.443   5.489   2.108
  325ACOH    H211499   7.548   5.354   2.154
  325ACOH    H311500   7.612   5.487   2.057
  326ACOH    H411501   6.200   5.821   1.443
  326ACOH    O211502   6.249   5.889   1.496
  326ACOH    C211503   6.379   5.854   1.496
  326ACOH    O111504   6.424   5.743   1.470
  326ACOH    C111505   6.465   5.962   1.551
  326ACOH    H111506   6.406   6.051   1.571
  326ACOH    H211507   6.542   5.986   1.479
  326ACOH    H311508   6.512   5.928   1.643
  327ACOH    H411509   6.619   2.987   5.372
  327ACOH    O211510   6.678   3.067   5.382
  327ACOH    C211511   6.704   3.079   5.514
  327ACOH    O111512   6.684   2.996   5.600
  327ACOH    C111513   6.780   3.204   5.542
  327ACOH    H111514   6.882   3.180   5.570
  327ACOH    H211515   6.733   3.258   5.624
  327ACOH    H311516   6.782   3.269   5.454
  328ACOH    H411517   5.402   4.229   0.772
  328ACOH    O211518   5.398   4.134   0.740
  328ACOH    C211519   5.267   4.103   0.728
  328ACOH    O111520   5.174   4.181   0.729
  328ACOH    C111521   5.248   3.959   0.697
  328ACOH    H111522   5.342   3.904   0.707
  328ACOH    H211523   5.213   3.948   0.595
  328ACOH    H311524   5.175   3.916   0.764
  329ACOH    H411525   7.431   8.490   1.933
  329ACOH    O211526   7.426   8.512   1.836
  329ACOH    C211527   7.498   8.624   1.819
  329ACOH    O111528   7.546   8.695   1.906
  329ACOH    C111529   7.510   8.657   1.675
  329ACOH    H111530   7.562   8.576   1.624
  329ACOH    H211531   7.566   8.749   1.661
  329ACOH    H311532   7.411   8.668   1.632
  330ACOH    H411533   0.006   3.332   5.559
  330ACOH    O211534   0.053   3.403   5.610
  330ACOH    C211535   0.154   3.348   5.681
  330ACOH    O111536   0.255   3.409   5.710
  330ACOH    C111537   0.144   3.201   5.701
  330ACOH    H111538   0.215   3.150   5.637
  330ACOH    H211539   0.044   3.164   5.680
  330ACOH    H311540   0.168   3.177   5.805
  331ACOH    H411541   5.934   2.022   5.382
  331ACOH    O211542   5.890   2.008   5.471
  331ACOH    C211543   5.859   2.131   5.517
  331ACOH    O111544   5.888   2.238   5.467
  331ACOH    C111545   5.784   2.123   5.645
  331ACOH    H111546   5.688   2.171   5.634
  331ACOH    H211547   5.840   2.174   5.723
  331ACOH    H311548   5.768   2.019   5.675
  332ACOH    H411549   5.054   8.660   7.992
  332ACOH    O211550   5.128   8.720   8.024
  332ACOH    C211551   5.092   8.757   8.148
  332ACOH    O111552   4.979   8.765   0.002
  332ACOH    C111553   5.207   8.819   0.030
  332ACOH    H111554   5.280   8.743   0.054
  332ACOH    H211555   5.174   8.868   0.122
  332ACOH    H311556   5.253   8.893   8.154
  333ACOH    H411557   4.643   5.353   4.211
  333ACOH    O211558   4.739   5.379   4.218
  333ACOH    C211559   4.801   5.284   4.289
  333ACOH    O111560   4.762   5.170   4.309
  333ACOH    C111561   4.938   5.328   4.326
  333ACOH    H111562   4.931   5.408   4.398
  333ACOH    H211563   4.989   5.364   4.237
  333ACOH    H311564   4.995   5.246   4.369
  334ACOH    H411565   8.044   9.577   1.108
  334ACOH    O211566   8.014   9.486   1.078
  334ACOH    C211567   7.970   9.422   1.187
  334ACOH    O111568   7.995   9.451   1.303
  334ACOH    C111569   7.908   9.294   1.147
  334ACOH    H111570   7.885   9.232   1.234
  334ACOH    H211571   7.976   9.240   1.083
  334ACOH    H311572   7.817   9.314   1.092
  335ACOH    H411573   8.396   1.879   6.155
  335ACOH    O211574   8.341   1.862   6.237
  335ACOH    C211575   8.422   1.889   6.341
  335ACOH    O111576   8.536   1.932   6.337
  335ACOH    C111577   8.349   1.870   6.469
  335ACOH    H111578   8.260   1.932   6.469
  335ACOH    H211579   8.412   1.898   6.553
  335ACOH    H311580   8.321   1.766   6.479
  336ACOH    H411581   4.865   2.322   6.503
  336ACOH    O211582   4.896   2.406   6.467
  336ACOH    C211583   4.977   2.379   6.364
  336ACOH    O111584   4.995   2.270   6.314
  336ACOH    C111585   5.034   2.504   6.307
  336ACOH    H111586   4.953   2.568   6.272
  336ACOH    H211587   5.100   2.482   6.224
  336ACOH    H311588   5.089   2.557   6.385
  337ACOH    H411589   2.680   1.051   1.759
  337ACOH    O211590   2.610   0.980   1.757
  337ACOH    C211591   2.631   0.908   1.646
  337ACOH    O111592   2.701   0.940   1.552
  337ACOH    C111593   2.542   0.790   1.638
  337ACOH    H111594   2.490   0.774   1.732
  337ACOH    H211595   2.600   0.701   1.616
  337ACOH    H311596   2.468   0.804   1.560
  338ACOH    H411597   1.600   9.896   5.487
  338ACOH    O211598   1.696   9.895   5.462
  338ACOH    C211599   1.740   0.021   5.477
  338ACOH    O111600   1.675   0.117   5.517
  338ACOH    C111601   1.883   0.030   5.441
  338ACOH    H111602   1.919   0.132   5.453
  338ACOH    H211603   1.897  10.000   5.338
  338ACOH    H311604   1.941   9.965   5.506
  339ACOH    H411605   4.681   6.644   3.252
  339ACOH    O211606   4.757   6.709   3.257
  339ACOH    C211607   4.784   6.749   3.132
  339ACOH    O111608   4.729   6.712   3.029
  339ACOH    C111609   4.895   6.847   3.132
  339ACOH    H111610   4.921   6.877   3.030
  339ACOH    H211611   4.982   6.803   3.179
  339ACOH    H311612   4.866   6.935   3.188
  340ACOH    H411613   4.290   0.467   3.588
  340ACOH    O211614   4.299   0.406   3.510
  340ACOH    C211615   4.208   0.447   3.420
  340ACOH    O111616   4.140   0.548   3.425
  340ACOH    C111617   4.201   0.352   3.306
  340ACOH    H111618   4.124   0.381   3.236
  340ACOH    H211619   4.181   0.252   3.343
  340ACOH    H311620   4.297   0.351   3.254
  341ACOH    H411621   7.610   3.927   3.930
  341ACOH    O211622   7.528   3.903   3.980
  341ACOH    C211623   7.484   3.785   3.932
  341ACOH    O111624   7.530   3.724   3.837
  341ACOH    C111625   7.366   3.737   4.008
  341ACOH    H111626   7.333   3.641   3.970
  341ACOH    H211627   7.286   3.809   3.998
  341ACOH    H311628   7.393   3.727   4.112
  342ACOH    H411629   6.951   0.884   6.459
  342ACOH    O211630   7.036   0.853   6.499
  342ACOH    C211631   7.131   0.939   6.458
  342ACOH    O111632   7.113   1.053   6.419
  342ACOH    C111633   7.265   0.885   6.489
  342ACOH    H111634   7.272   0.861   6.595
  342ACOH    H211635   7.343   0.956   6.462
  342ACOH    H311636   7.280   0.793   6.432
  343ACOH    H411637   6.374   0.590   0.925
  343ACOH    O211638   6.279   0.618   0.908
  343ACOH    C211639   6.214   0.506   0.868
  343ACOH    O111640   6.243   0.393   0.900
  343ACOH    C111641   6.082   0.540   0.811
  343ACOH    H111642   6.063   0.479   0.723
  343ACOH    H211643   6.078   0.645   0.782
  343ACOH    H311644   6.004   0.521   0.884
  344ACOH    H411645   7.349   4.910   6.348
  344ACOH    O211646   7.288   4.901   6.427
  344ACOH    C211647   7.290   4.771   6.463
  344ACOH    O111648   7.354   4.681   6.413
  344ACOH    C111649   7.204   4.748   6.581
  344ACOH    H111650   7.265   4.717   6.666
  344ACOH    H211651   7.132   4.669   6.560
  344ACOH    H311652   7.149   4.838   6.608
  345ACOH    H411653   6.091   7.331   4.886
  345ACOH    O211654   6.076   7.258   4.821
  345ACOH    C211655   6.056   7.316   4.701
  345ACOH    O111656   6.013   7.429   4.683
  345ACOH    C111657   6.069   7.218   4.592
  345ACOH    H111658   6.108   7.124   4.629
  345ACOH    H211659   6.138   7.256   4.517
  345ACOH    H311660   5.973   7.200   4.545
  346ACOH    H411661   9.620   1.097   5.749
  346ACOH    O211662   9.664   1.009   5.737
  346ACOH    C211663   9.797   1.029   5.739
  346ACOH    O111664   9.854   1.137   5.732
  346ACOH    C111665   9.872   0.901   5.731
  346ACOH    H111666   9.804   0.817   5.736
  346ACOH    H211667   9.942   0.895   5.814
  346ACOH    H311668   9.927   0.896   5.637
  347ACOH    H411669   5.505   3.514   1.027
  347ACOH    O211670   5.525   3.427   1.071
  347ACOH    C211671   5.651   3.435   1.118
  347ACOH    O111672   5.722   3.534   1.119
  347ACOH    C111673   5.690   3.308   1.184
  347ACOH    H111674   5.614   3.278   1.255
  347ACOH    H211675   5.785   3.320   1.235
  347ACOH    H311676   5.701   3.231   1.108
  348ACOH    H411677   5.385   6.755   1.335
  348ACOH    O211678   5.394   6.849   1.305
  348ACOH    C211679   5.440   6.846   1.179
  348ACOH    O111680   5.508   6.757   1.130
  348ACOH    C111681   5.428   6.979   1.115
  348ACOH    H111682   5.362   7.043   1.172
  348ACOH    H211683   5.388   6.967   1.015
  348ACOH    H311684   5.526   7.025   1.109
  349ACOH    H411685   2.467   7.465   0.804
  349ACOH    O211686   2.371   7.445   0.807
  349ACOH    C211687   2.346   7.407   0.934
  349ACOH    O111688   2.427   7.396   1.023
  349ACOH    C111689   2.202   7.377   0.953
  349ACOH    H111690   2.144   7.467   0.936
  349ACOH    H211691   2.183   7.341   1.054
  349ACOH    H311692   2.171   7.301   0.882
  350ACOH    H411693   6.224   1.714   1.011
  350ACOH    O211694   6.184   1.802   0.987
  350ACOH    C211695   6.089   1.776   0.894
  350ACOH    O111696   6.045   1.667   0.865
  350ACOH    C111697   6.029   1.901   0.841
  350ACOH    H111698   6.025   1.896   0.732
  350ACOH    H211699   6.088   1.987   0.869
  350ACOH    H311700   5.928   1.913   0.879
  351ACOH    H411701   1.071   5.419   0.418
  351ACOH    O211702   1.099   5.512   0.397
  351ACOH    C211703   1.233   5.515   0.402
  351ACOH    O111704   1.307   5.423   0.432
  351ACOH    C111705   1.282   5.651   0.370
  351ACOH    H111706   1.240   5.722   0.440
  351ACOH    H211707   1.251   5.678   0.269
  351ACOH    H311708   1.390   5.655   0.376
  352ACOH    H411709   7.929   7.859   6.553
  352ACOH    O211710   7.934   7.943   6.605
  352ACOH    C211711   7.809   7.992   6.614
  352ACOH    O111712   7.706   7.938   6.578
  352ACOH    C111713   7.810   8.125   6.680
  352ACOH    H111714   7.709   8.162   6.692
  352ACOH    H211715   7.867   8.194   6.619
  352ACOH    H311716   7.857   8.116   6.777
  353ACOH    H411717   0.105   0.467   4.454
  353ACOH    O211718   0.071   0.555   4.426
  353ACOH    C211719   0.164   0.645   4.461
  353ACOH    O111720   0.271   0.622   4.515
  353ACOH    C111721   0.122   0.781   4.422
  353ACOH    H111722   0.107   0.786   4.315
  353ACOH    H211723   0.196   0.855   4.451
  353ACOH    H311724   0.028   0.805   4.471
  354ACOH    H411725   7.976   6.809   0.098
  354ACOH    O211726   7.969   6.905   0.122
  354ACOH    C211727   7.838   6.937   0.123
  354ACOH    O111728   7.744   6.863   0.101
  354ACOH    C111729   7.818   7.080   0.157
  354ACOH    H111730   7.913   7.134   0.151
  354ACOH    H211731   7.781   7.087   0.259
  354ACOH    H311732   7.747   7.126   0.090
  355ACOH    H411733   5.030   3.910   3.641
  355ACOH    O211734   5.062   4.002   3.624
  355ACOH    C211735   5.043   4.070   3.739
  355ACOH    O111736   5.010   4.024   3.846
  355ACOH    C111737   5.079   4.213   3.722
  355ACOH    H111738   4.996   4.275   3.754
  355ACOH    H211739   5.101   4.235   3.618
  355ACOH    H311740   5.166   4.236   3.783
  356ACOH    H411741   5.212   6.430   2.600
  356ACOH    O211742   5.257   6.381   2.674
  356ACOH    C211743   5.238   6.250   2.650
  356ACOH    O111744   5.184   6.200   2.553
  356ACOH    C111745   5.299   6.166   2.756
  356ACOH    H111746   5.378   6.105   2.714
  356ACOH    H211747   5.222   6.100   2.798
  356ACOH    H311748   5.340   6.228   2.835
  357ACOH    H411749   8.286   7.602   0.547
  357ACOH    O211750   8.194   7.612   0.587
  357ACOH    C211751   8.110   7.636   0.484
  357ACOH    O111752   8.130   7.614   0.367
  357ACOH    C111753   7.975   7.673   0.532
  357ACOH    H111754   7.944   7.766   0.485
  357ACOH    H211755   7.974   7.686   0.640
  357ACOH    H311756   7.904   7.594   0.505
  358ACOH    H411757   4.947   1.262   4.031
  358ACOH    O211758   4.874   1.244   4.095
  358ACOH    C211759   4.760   1.283   4.034
  358ACOH    O111760   4.751   1.369   3.948
  358ACOH    C111761   4.641   1.235   4.108
  358ACOH    H111762   4.666   1.148   4.169
  358ACOH    H211763   4.563   1.207   4.038
  358ACOH    H311764   4.604   1.314   4.173
  359ACOH    H411765   3.289   5.597   4.157
  359ACOH    O211766   3.377   5.614   4.113
  359ACOH    C211767   3.457   5.511   4.146
  359ACOH    O111768   3.446   5.440   4.245
  359ACOH    C111769   3.583   5.515   4.068
  359ACOH    H111770   3.569   5.575   3.978
  359ACOH    H211771   3.612   5.414   4.040
  359ACOH    H311772   3.661   5.560   4.128
  360ACOH    H411773   0.202   4.919   4.892
  360ACOH    O211774   0.177   5.015   4.896
  360ACOH    C211775   0.245   5.069   4.999
  360ACOH    O111776   0.307   5.007   5.083
  360ACOH    C111777   0.227   5.215   5.009
  360ACOH    H111778   0.165   5.239   5.095
  360ACOH    H211779   0.179   5.255   4.920
  360ACOH    H311780   0.323   5.264   5.021
  361ACOH    H411781   7.738   6.347   0.569
  361ACOH    O211782   7.721   6.412   0.495
  361ACOH    C211783   7.797   6.373   0.391
  361ACOH    O111784   7.886   6.290   0.391
  361ACOH    C111785   7.763   6.450   0.269
  361ACOH    H111786   7.730   6.382   0.191
  361ACOH    H211787   7.851   6.504   0.234
  361ACOH    H311788   7.684   6.522   0.290
  362ACOH    H411789   6.363   6.649   5.590
  362ACOH    O211790   6.364   6.587   5.668
  362ACOH    C211791   6.457   6.632   5.754
  362ACOH    O111792   6.521   6.734   5.744
  362ACOH    C111793   6.468   6.539   5.869
  362ACOH    H111794   6.370   6.527   5.916
  362ACOH    H211795   6.537   6.578   5.944
  362ACOH    H311796   6.503   6.443   5.835
  363ACOH    H411797   4.301   2.851   2.355
  363ACOH    O211798   4.342   2.766   2.387
  363ACOH    C211799   4.450   2.744   2.310
  363ACOH    O111800   4.496   2.819   2.226
  363ACOH    C111801   4.515   2.616   2.348
  363ACOH    H111802   4.451   2.533   2.319
  363ACOH    H211803   4.528   2.614   2.456
  363ACOH    H311804   4.611   2.606   2.300
  364ACOH    H411805   3.761   5.478   5.567
  364ACOH    O211806   3.682   5.445   5.515
  364ACOH    C211807   3.650   5.540   5.426
  364ACOH    O111808   3.724   5.627   5.382
  364ACOH    C111809   3.516   5.515   5.369
  364ACOH    H111810   3.441   5.534   5.445
  364ACOH    H211811   3.508   5.412   5.337
  364ACOH    H311812   3.497   5.580   5.283
  365ACOH    H411813   7.697   5.414   2.688
  365ACOH    O211814   7.682   5.317   2.703
  365ACOH    C211815   7.773   5.275   2.792
  365ACOH    O111816   7.853   5.343   2.853
  365ACOH    C111817   7.764   5.128   2.813
  365ACOH    H111818   7.742   5.108   2.918
  365ACOH    H211819   7.859   5.082   2.787
  365ACOH    H311820   7.686   5.085   2.752
  366ACOH    H411821   4.632   9.728   1.461
  366ACOH    O211822   4.571   9.709   1.384
  366ACOH    C211823   4.642   9.728   1.272
  366ACOH    O111824   4.757   9.766   1.264
  366ACOH    C111825   4.562   9.695   1.152
  366ACOH    H111826   4.560   9.780   1.085
  366ACOH    H211827   4.459   9.671   1.180
  366ACOH    H311828   4.605   9.610   1.101
  367ACOH    H411829   6.675   1.537   6.645
  367ACOH    O211830   6.682   1.633   6.643
  367ACOH    C211831   6.590   1.680   6.729
  367ACOH    O111832   6.519   1.614   6.801
  367ACOH    C111833   6.588   1.829   6.729
  367ACOH    H111834   6.491   1.863   6.694
  367ACOH    H211835   6.666   1.868   6.665
  367ACOH    H311836   6.603   1.865   6.831
  368ACOH    H411837   1.307   8.659   4.478
  368ACOH    O211838   1.343   8.734   4.532
  368ACOH    C211839   1.476   8.717   4.541
  368ACOH    O111840   1.543   8.629   4.489
  368ACOH    C111841   1.536   8.825   4.624
  368ACOH    H111842   1.520   8.921   4.575
  368ACOH    H211843   1.642   8.810   4.639
  368ACOH    H311844   1.486   8.827   4.721
  369ACOH    H411845   5.582   3.304   4.202
  369ACOH    O211846   5.671   3.335   4.170
  369ACOH    C211847   5.753   3.229   4.166
  369ACOH    O111848   5.731   3.117   4.209
  369ACOH    C111849   5.888   3.267   4.116
  369ACOH    H111850   5.922   3.195   4.043
  369ACOH    H211851   5.958   3.270   4.199
  369ACOH    H311852   5.884   3.365   4.069
  370ACOH    H411853   2.307   8.637   3.676
  370ACOH    O211854   2.366   8.610   3.601
  370ACOH    C211855   2.300   8.637   3.487
  370ACOH    O111856   2.190   8.689   3.476
  370ACOH    C111857   2.383   8.601   3.370
  370ACOH    H111858   2.331   8.623   3.277
  370ACOH    H211859   2.406   8.495   3.373
  370ACOH    H311860   2.476   8.657   3.373
  371ACOH    H411861   7.147   6.270   0.096
  371ACOH    O211862   7.049   6.254   0.108
  371ACOH    C211863   7.036   6.157   0.200
  371ACOH    O111864   7.126   6.093   0.252
  371ACOH    C111865   6.894   6.130   0.231
  371ACOH    H111866   6.875   6.152   0.336
  371ACOH    H211867   6.872   6.025   0.213
  371ACOH    H311868   6.828   6.192   0.170
  372ACOH    H411869   6.878   4.147   2.538
  372ACOH    O211870   6.865   4.059   2.496
  372ACOH    C211871   6.869   3.967   2.595
  372ACOH    O111872   6.899   3.986   2.711
  372ACOH    C111873   6.837   3.831   2.544
  372ACOH    H111874   6.924   3.767   2.555
  372ACOH    H211875   6.810   3.835   2.439
  372ACOH    H311876   6.754   3.789   2.600
  373ACOH    H411877   8.109   6.869   0.636
  373ACOH    O211878   8.056   6.789   0.609
  373ACOH    C211879   7.980   6.828   0.504
  373ACOH    O111880   7.966   6.941   0.461
  373ACOH    C111881   7.908   6.712   0.447
  373ACOH    H111882   7.846   6.666   0.522
  373ACOH    H211883   7.981   6.639   0.412
  373ACOH    H311884   7.846   6.743   0.363
  374ACOH    H411885   4.646   5.238   6.686
  374ACOH    O211886   4.688   5.160   6.646
  374ACOH    C211887   4.612   5.128   6.539
  374ACOH    O111888   4.516   5.190   6.498
  374ACOH    C111889   4.663   5.007   6.470
  374ACOH    H111890   4.751   4.968   6.521
  374ACOH    H211891   4.689   5.031   6.367
  374ACOH    H311892   4.586   4.930   6.471
  375ACOH    H411893   3.687   6.350   6.226
  375ACOH    O211894   3.740   6.434   6.235
  375ACOH    C211895   3.806   6.455   6.119
  375ACOH    O111896   3.802   6.386   6.019
  375ACOH    C111897   3.880   6.584   6.122
  375ACOH    H111898   3.829   6.655   6.058
  375ACOH    H211899   3.981   6.569   6.085
  375ACOH    H311900   3.884   6.624   6.223
  376ACOH    H411901   4.239   6.892   1.306
  376ACOH    O211902   4.157   6.946   1.319
  376ACOH    C211903   4.145   6.967   1.451
  376ACOH    O111904   4.226   6.938   1.537
  376ACOH    C111905   4.019   7.038   1.481
  376ACOH    H111906   4.008   7.053   1.589
  376ACOH    H211907   3.934   6.980   1.445
  376ACOH    H311908   4.019   7.135   1.432
  377ACOH    H411909   4.658   4.360   4.461
  377ACOH    O211910   4.675   4.423   4.537
  377ACOH    C211911   4.648   4.546   4.489
  377ACOH    O111912   4.589   4.573   4.386
  377ACOH    C111913   4.688   4.652   4.585
  377ACOH    H111914   4.747   4.610   4.667
  377ACOH    H211915   4.599   4.699   4.626
  377ACOH    H311916   4.747   4.727   4.534
  378ACOH    H411917   5.420   5.170   8.120
  378ACOH    O211918   5.411   5.248   8.182
  378ACOH    C211919   5.295   5.310   8.151
  378ACOH    O111920   5.198   5.257   8.101
  378ACOH    C111921   5.287   5.442   0.028
  378ACOH    H111922   5.257   5.517   8.144
  378ACOH    H211923   5.382   5.471   0.071
  378ACOH    H311924   5.212   5.439   0.107
  379ACOH    H411925   1.952   5.429   2.503
  379ACOH    O211926   2.001   5.509   2.470
  379ACOH    C211927   2.098   5.536   2.561
  379ACOH    O111928   2.124   5.473   2.661
  379ACOH    C111929   2.173   5.659   2.526
  379ACOH    H111930   2.136   5.702   2.433
  379ACOH    H211931   2.278   5.635   2.513
  379ACOH    H311932   2.162   5.733   2.605
  380ACOH    H411933   4.733   6.696   0.379
  380ACOH    O211934   4.746   6.664   0.286
  380ACOH    C211935   4.729   6.531   0.284
  380ACOH    O111936   4.720   6.456   0.380
  380ACOH    C111937   4.735   6.479   0.146
  380ACOH    H111938   4.740   6.561   0.075
  380ACOH    H211939   4.646   6.420   0.125
  380ACOH    H311940   4.823   6.417   0.134
  381ACOH    H411941   5.604   8.167   2.234
  381ACOH    O211942   5.635   8.195   2.145
  381ACOH    C211943   5.530   8.199   2.062
  381ACOH    O111944   5.421   8.148   2.082
  381ACOH    C111945   5.563   8.265   1.933
  381ACOH    H111946   5.663   8.308   1.937
  381ACOH    H211947   5.492   8.345   1.913
  381ACOH    H311948   5.559   8.193   1.852
  382ACOH    H411949   6.723   0.167   0.667
  382ACOH    O211950   6.645   0.164   0.729
  382ACOH    C211951   6.691   0.140   0.853
  382ACOH    O111952   6.807   0.134   0.888
  382ACOH    C111953   6.578   0.133   0.950
  382ACOH    H111954   6.519   0.224   0.944
  382ACOH    H211955   6.615   0.121   1.051
  382ACOH    H311956   6.516   0.048   0.925
  383ACOH    H411957   6.101   7.293   4.269
  383ACOH    O211958   6.030   7.224   4.274
  383ACOH    C211959   5.924   7.266   4.204
  383ACOH    O111960   5.920   7.357   4.123
  383ACOH    C111961   5.808   7.175   4.222
  383ACOH    H111962   5.790   7.120   4.130
  383ACOH    H211963   5.719   7.233   4.247
  383ACOH    H311964   5.828   7.104   4.302
  384ACOH    H411965   7.606   4.633   5.320
  384ACOH    O211966   7.523   4.664   5.366
  384ACOH    C211967   7.427   4.572   5.341
  384ACOH    O111968   7.439   4.469   5.278
  384ACOH    C111969   7.298   4.614   5.400
  384ACOH    H111970   7.218   4.547   5.369
  384ACOH    H211971   7.273   4.715   5.370
  384ACOH    H311972   7.305   4.610   5.509
  385ACOH    H411973   8.003   5.187   5.021
  385ACOH    O211974   8.013   5.192   4.921
  385ACOH    C211975   7.995   5.067   4.873
  385ACOH    O111976   7.952   4.971   4.934
  385ACOH    C111977   8.030   5.059   4.729
  385ACOH    H111978   7.943   5.029   4.671
  385ACOH    H211979   8.109   4.985   4.715
  385ACOH    H311980   8.065   5.155   4.692
  386ACOH    H411981   7.220   3.308   3.602
  386ACOH    O211982   7.150   3.288   3.671
  386ACOH    C211983   7.178   3.366   3.777
  386ACOH    O111984   7.256   3.460   3.779
  386ACOH    C111985   7.089   3.337   3.891
  386ACOH    H111986   7.022   3.421   3.908
  386ACOH    H211987   7.149   3.320   3.981
  386ACOH    H311988   7.030   3.247   3.872
  387ACOH    H411989   6.317   7.926   2.810
  387ACOH    O211990   6.408   7.888   2.827
  387ACOH    C211991   6.494   7.991   2.822
  387ACOH    O111992   6.468   8.108   2.801
  387ACOH    C111993   6.633   7.942   2.842
  387ACOH    H111994   6.704   8.024   2.833
  387ACOH    H211995   6.656   7.866   2.768
  387ACOH    H311996   6.642   7.898   2.941
  388ACOH    H411997   4.817   3.907   2.708
  388ACOH    O211998   4.846   3.822   2.750
  388ACOH    C211999   4.777   3.722   2.692
  388ACOH    O112000   4.698   3.733   2.600
  388ACOH    C112001   4.807   3.591   2.755
  388ACOH    H112002   4.850   3.524   2.682
  388ACOH    H212003   4.715   3.547   2.793
  388ACOH    H312004   4.877   3.603   2.838
  389ACOH    H412005   6.655   3.780   1.432
  389ACOH    O212006   6.609   3.697   1.462
  389ACOH    C212007   6.671   3.656   1.574
  389ACOH    O112008   6.749   3.721   1.642
  389ACOH    C112009   6.625   3.521   1.616
  389ACOH    H112010   6.554   3.481   1.544
  389ACOH    H212011   6.576   3.527   1.713
  389ACOH    H312012   6.710   3.454   1.623
  390ACOH    H412013   8.040   6.003   3.544
  390ACOH    O212014   8.004   5.991   3.636
  390ACOH    C212015   7.871   6.003   3.624
  390ACOH    O112016   7.813   6.063   3.535
  390ACOH    C112017   7.803   5.959   3.748
  390ACOH    H112018   7.815   5.852   3.759
  390ACOH    H212019   7.697   5.982   3.744
  390ACOH    H312020   7.847   6.010   3.834
  391ACOH    H412021   1.650   3.230   4.713
  391ACOH    O212022   1.593   3.184   4.645
  391ACOH    C212023   1.465   3.209   4.677
  391ACOH    O112024   1.425   3.284   4.764
  391ACOH    C112025   1.371   3.136   4.589
  391ACOH    H112026   1.305   3.074   4.649
  391ACOH    H212027   1.425   3.073   4.519
  391ACOH    H312028   1.311   3.207   4.532
  392ACOH    H412029   6.446   6.026   0.957
  392ACOH    O212030   6.518   5.962   0.978
  392ACOH    C212031   6.503   5.932   1.109
  392ACOH    O112032   6.420   5.978   1.185
  392ACOH    C112033   6.608   5.837   1.152
  392ACOH    H112034   6.601   5.818   1.259
  392ACOH    H212035   6.706   5.877   1.130
  392ACOH    H312036   6.596   5.743   1.100
  393ACOH    H412037   1.685   4.531   2.510
  393ACOH    O212038   1.661   4.628   2.497
  393ACOH    C212039   1.774   4.693   2.463
  393ACOH    O112040   1.882   4.644   2.435
  393ACOH    C112041   1.747   4.838   2.450
  393ACOH    H112042   1.666   4.855   2.380
  393ACOH    H212043   1.835   4.891   2.414
  393ACOH    H312044   1.719   4.878   2.547
  394ACOH    H412045   4.976   5.773   3.086
  394ACOH    O212046   5.056   5.766   3.145
  394ACOH    C212047   5.016   5.793   3.271
  394ACOH    O112048   4.903   5.821   3.308
  394ACOH    C112049   5.128   5.782   3.366
  394ACOH    H112050   5.222   5.764   3.314
  394ACOH    H212051   5.110   5.699   3.434
  394ACOH    H312052   5.137   5.874   3.424
  395ACOH    H412053   7.799   9.242   1.971
  395ACOH    O212054   7.750   9.156   1.961
  395ACOH    C212055   7.811   9.084   1.865
  395ACOH    O112056   7.921   9.106   1.817
  395ACOH    C112057   7.735   8.962   1.831
  395ACOH    H112058   7.718   8.958   1.724
  395ACOH    H212059   7.639   8.960   1.882
  395ACOH    H312060   7.791   8.874   1.860
  396ACOH    H412061   6.626   4.062   1.844
  396ACOH    O212062   6.560   4.101   1.909
  396ACOH    C212063   6.586   4.041   2.027
  396ACOH    O112064   6.674   3.961   2.052
  396ACOH    C112065   6.482   4.079   2.126
  396ACOH    H112066   6.487   4.186   2.144
  396ACOH    H212067   6.498   4.027   2.220
  396ACOH    H312068   6.384   4.053   2.087
  397ACOH    H412069   4.936   4.283   2.539
  397ACOH    O212070   4.972   4.353   2.600
  397ACOH    C212071   4.870   4.393   2.678
  397ACOH    O112072   4.759   4.343   2.686
  397ACOH    C112073   4.909   4.508   2.763
  397ACOH    H112074   4.886   4.485   2.867
  397ACOH    H212075   4.854   4.596   2.733
  397ACOH    H312076   5.015   4.527   2.755
  398ACOH    H412077   5.317   7.443   6.082
  398ACOH    O212078   5.372   7.376   6.130
  398ACOH    C212079   5.309   7.351   6.246
  398ACOH    O112080   5.198   7.389   6.278
  398ACOH    C112081   5.389   7.258   6.330
  398ACOH    H112082   5.335   7.234   6.422
  398ACOH    H212083   5.483   7.305   6.355
  398ACOH    H312084   5.407   7.166   6.275
  399ACOH    H412085   5.684   7.281   4.531
  399ACOH    O212086   5.725   7.212   4.590
  399ACOH    C212087   5.665   7.223   4.710
  399ACOH    O112088   5.570   7.294   4.738
  399ACOH    C112089   5.727   7.131   4.808
  399ACOH    H112090   5.833   7.155   4.819
  399ACOH    H212091   5.718   7.029   4.773
  399ACOH    H312092   5.679   7.139   4.906
  400ACOH    H412093   4.974   9.409   1.400
  400ACOH    O212094   5.051   9.465   1.372
  400ACOH    C212095   5.163   9.393   1.394
  400ACOH    O112096   5.169   9.279   1.437
  400ACOH    C112097   5.285   9.470   1.362
  400ACOH    H112098   5.340   9.420   1.283
  400ACOH    H212099   5.348   9.476   1.451
  400ACOH    H312100   5.260   9.571   1.330
  401ACOH    H412101   7.258   5.705   2.056
  401ACOH    O212102   7.280   5.693   2.152
  401ACOH    C212103   7.172   5.644   2.215
  401ACOH    O112104   7.068   5.609   2.163
  401ACOH    C112105   7.197   5.626   2.360
  401ACOH    H112106   7.193   5.521   2.384
  401ACOH    H212107   7.121   5.679   2.417
  401ACOH    H312108   7.295   5.665   2.386
  402ACOH    H412109   4.857   6.153   3.128
  402ACOH    O212110   4.946   6.119   3.158
  402ACOH    C212111   5.019   6.096   3.048
  402ACOH    O112112   4.980   6.099   2.932
  402ACOH    C112113   5.158   6.059   3.082
  402ACOH    H112114   5.181   5.961   3.042
  402ACOH    H212115   5.172   6.057   3.190
  402ACOH    H312116   5.226   6.132   3.039
  403ACOH    H412117   5.861   1.986   0.460
  403ACOH    O212118   5.767   1.965   0.485
  403ACOH    C212119   5.726   2.060   0.570
  403ACOH    O112120   5.795   2.143   0.627
  403ACOH    C112121   5.582   2.044   0.601
  403ACOH    H112122   5.525   2.069   0.512
  403ACOH    H212123   5.552   2.110   0.682
  403ACOH    H312124   5.561   1.942   0.629
  404ACOH    H412125   3.764   1.275   4.550
  404ACOH    O212126   3.698   1.331   4.600
  404ACOH    C212127   3.757   1.365   4.716
  404ACOH    O112128   3.873   1.345   4.749
  404ACOH    C112129   3.662   1.439   4.802
  404ACOH    H112130   3.627   1.528   4.751
  404ACOH    H212131   3.709   1.469   4.895
  404ACOH    H312132   3.577   1.376   4.825
  405ACOH    H412133   4.962   3.873   6.190
  405ACOH    O212134   5.061   3.888   6.191
  405ACOH    C212135   5.116   3.767   6.170
  405ACOH    O112136   5.066   3.674   6.108
  405ACOH    C112137   5.259   3.769   6.207
  405ACOH    H112138   5.308   3.675   6.182
  405ACOH    H212139   5.267   3.786   6.314
  405ACOH    H312140   5.309   3.850   6.155
  406ACOH    H412141   8.834   0.465   6.241
  406ACOH    O212142   8.892   0.542   6.216
  406ACOH    C212143   9.019   0.498   6.210
  406ACOH    O112144   9.060   0.387   6.240
  406ACOH    C112145   9.109   0.607   6.165
  406ACOH    H112146   9.100   0.692   6.232
  406ACOH    H212147   9.082   0.639   6.065
  406ACOH    H312148   9.213   0.575   6.164
  407ACOH    H412149   7.559   3.337   4.934
  407ACOH    O212150   7.564   3.429   4.898
  407ACOH    C212151   7.516   3.421   4.773
  407ACOH    O112152   7.435   3.339   4.733
  407ACOH    C112153   7.543   3.546   4.698
  407ACOH    H112154   7.625   3.601   4.743
  407ACOH    H212155   7.454   3.608   4.697
  407ACOH    H312156   7.570   3.522   4.595
  408ACOH    H412157   6.416   2.981   3.689
  408ACOH    O212158   6.374   3.069   3.672
  408ACOH    C212159   6.446   3.128   3.575
  408ACOH    O112160   6.543   3.083   3.517
  408ACOH    C112161   6.391   3.262   3.545
  408ACOH    H112162   6.393   3.323   3.635
  408ACOH    H212163   6.288   3.252   3.512
  408ACOH    H312164   6.449   3.311   3.468
  409ACOH    H412165   6.737   6.861   5.100
  409ACOH    O212166   6.815   6.874   5.040
  409ACOH    C212167   6.772   6.954   4.940
  409ACOH    O112168   6.657   6.976   4.909
  409ACOH    C112169   6.887   6.999   4.857
  409ACOH    H112170   6.852   7.043   4.764
  409ACOH    H212171   6.954   6.917   4.835
  409ACOH    H312172   6.942   7.074   4.913
  410ACOH    H412173   5.775   4.145   1.305
  410ACOH    O212174   5.820   4.075   1.360
  410ACOH    C212175   5.904   4.139   1.444
  410ACOH    O112176   5.902   4.258   1.472
  410ACOH    C112177   5.992   4.043   1.514
  410ACOH    H112178   6.095   4.079   1.511
  410ACOH    H212179   5.988   3.945   1.467
  410ACOH    H312180   5.961   4.034   1.618
  411ACOH    H412181   6.017   2.581   4.005
  411ACOH    O212182   6.071   2.665   4.010
  411ACOH    C212183   6.040   2.720   4.129
  411ACOH    O112184   5.995   2.663   4.227
  411ACOH    C112185   6.087   2.861   4.133
  411ACOH    H112186   6.036   2.918   4.055
  411ACOH    H212187   6.194   2.865   4.115
  411ACOH    H312188   6.065   2.906   4.229
  412ACOH    H412189   6.983   3.499   5.803
  412ACOH    O212190   6.960   3.516   5.709
  412ACOH    C212191   7.076   3.517   5.640
  412ACOH    O112192   7.185   3.486   5.684
  412ACOH    C112193   7.052   3.544   5.496
  412ACOH    H112194   7.119   3.624   5.463
  412ACOH    H212195   6.949   3.575   5.479
  412ACOH    H312196   7.072   3.455   5.438
  413ACOH    H412197   7.154   6.748   3.598
  413ACOH    O212198   7.105   6.722   3.682
  413ACOH    C212199   7.162   6.608   3.726
  413ACOH    O112200   7.280   6.581   3.715
  413ACOH    C112201   7.073   6.541   3.824
  413ACOH    H112202   6.997   6.484   3.771
  413ACOH    H212203   7.023   6.615   3.886
  413ACOH    H312204   7.129   6.474   3.888
  414ACOH    H412205   2.004   0.757   0.940
  414ACOH    O212206   2.063   0.726   1.012
  414ACOH    C212207   1.985   0.671   1.107
  414ACOH    O112208   1.864   0.658   1.101
  414ACOH    C112209   2.063   0.627   1.224
  414ACOH    H112210   2.057   0.519   1.234
  414ACOH    H212211   2.024   0.672   1.315
  414ACOH    H312212   2.168   0.655   1.213
  415ACOH    H412213   9.305   9.964   4.800
  415ACOH    O212214   9.276   9.895   4.733
  415ACOH    C212215   9.148   9.866   4.760
  415ACOH    O112216   9.070   9.937   4.822
  415ACOH    C112217   9.104   9.749   4.680
  415ACOH    H112218   9.124   9.766   4.575
  415ACOH    H212219   8.998   9.731   4.693
  415ACOH    H312220   9.159   9.662   4.713
  416ACOH    H412221   2.661   9.465   5.706
  416ACOH    O212222   2.710   9.522   5.641
  416ACOH    C212223   2.698   9.466   5.520
  416ACOH    O112224   2.673   9.349   5.494
  416ACOH    C112225   2.740   9.562   5.416
  416ACOH    H112226   2.842   9.594   5.436
  416ACOH    H212227   2.676   9.650   5.420
  416ACOH    H312228   2.734   9.520   5.316
  417ACOH    H412229   6.008   8.852   2.328
  417ACOH    O212230   6.028   8.760   2.360
  417ACOH    C212231   6.103   8.770   2.471
  417ACOH    O112232   6.131   8.870   2.533
  417ACOH    C112233   6.142   8.635   2.520
  417ACOH    H112234   6.096   8.617   2.617
  417ACOH    H212235   6.250   8.629   2.530
  417ACOH    H312236   6.109   8.558   2.451
  418ACOH    H412237   7.398   6.777   2.877
  418ACOH    O212238   7.454   6.694   2.877
  418ACOH    C212239   7.437   6.635   2.997
  418ACOH    O112240   7.344   6.651   3.075
  418ACOH    C112241   7.535   6.526   3.017
  418ACOH    H112242   7.484   6.430   3.021
  418ACOH    H212243   7.590   6.543   3.109
  418ACOH    H312244   7.607   6.524   2.935
  419ACOH    H412245   6.432   3.004   1.346
  419ACOH    O212246   6.381   2.933   1.297
  419ACOH    C212247   6.457   2.822   1.303
  419ACOH    O112248   6.552   2.802   1.376
  419ACOH    C112249   6.401   2.717   1.215
  419ACOH    H112250   6.297   2.699   1.241
  419ACOH    H212251   6.456   2.624   1.224
  419ACOH    H312252   6.406   2.750   1.112
  420ACOH    H412253   2.299   5.906   0.072
  420ACOH    O212254   2.350   5.838   0.118
  420ACOH    C212255   2.262   5.739   0.146
  420ACOH    O112256   2.147   5.734   0.107
  420ACOH    C112257   2.327   5.630   0.222
  420ACOH    H112258   2.414   5.595   0.168
  420ACOH    H212259   2.258   5.547   0.235
  420ACOH    H312260   2.357   5.667   0.319
  421ACOH    H412261   9.980   6.819   5.306
  421ACOH    O212262   9.996   6.903   5.254
  421ACOH    C212263   0.112   6.888   5.188
  421ACOH    O112264   0.195   6.801   5.203
  421ACOH    C112265   0.133   7.006   5.100
  421ACOH    H112266   0.228   6.999   5.047
  421ACOH    H212267   0.133   7.096   5.160
  421ACOH    H312268   0.052   7.012   5.028
  422ACOH    H412269   5.762   6.321   0.958
  422ACOH    O212270   5.744   6.417   0.945
  422ACOH    C212271   5.862   6.481   0.960
  422ACOH    O112272   5.972   6.429   0.966
  422ACOH    C112273   5.842   6.627   0.955
  422ACOH    H112274   5.783   6.659   1.040
  422ACOH    H212275   5.789   6.654   0.864
  422ACOH    H312276   5.937   6.679   0.956
  423ACOH    H412277   4.263   9.102   0.299
  423ACOH    O212278   4.269   9.048   0.215
  423ACOH    C212279   4.212   8.929   0.242
  423ACOH    O112280   4.137   8.905   0.335
  423ACOH    C112281   4.237   8.832   0.133
  423ACOH    H112282   4.343   8.806   0.130
  423ACOH    H212283   4.209   8.875   0.038
  423ACOH    H312284   4.180   8.741   0.149
  424ACOH    H412285   0.418   3.148   4.894
  424ACOH    O212286   0.419   3.069   4.955
  424ACOH    C212287   0.472   3.109   5.072
  424ACOH    O112288   0.550   3.202   5.086
  424ACOH    C112289   0.459   3.006   5.177
  424ACOH    H112290   0.427   3.052   5.270
  424ACOH    H212291   0.555   2.956   5.193
  424ACOH    H312292   0.386   2.931   5.148
  425ACOH    H412293   6.989   3.292   3.127
  425ACOH    O212294   6.913   3.342   3.168
  425ACOH    C212295   6.941   3.473   3.160
  425ACOH    O112296   7.043   3.523   3.115
  425ACOH    C112297   6.836   3.556   3.222
  425ACOH    H112298   6.756   3.494   3.261
  425ACOH    H212299   6.795   3.624   3.148
  425ACOH    H312300   6.879   3.613   3.304
  426ACOH    H412301   5.377   8.712   1.802
  426ACOH    O212302   5.356   8.615   1.791
  426ACOH    C212303   5.222   8.604   1.782
  426ACOH    O112304   5.142   8.695   1.771
  426ACOH    C112305   5.183   8.462   1.777
  426ACOH    H112306   5.076   8.452   1.758
  426ACOH    H212307   5.206   8.415   1.872
  426ACOH    H312308   5.238   8.412   1.698
  427ACOH    H412309   0.148   4.776   3.449
  427ACOH    O212310   0.125   4.871   3.431
  427ACOH    C212311   0.177   4.942   3.533
  427ACOH    O112312   0.251   4.902   3.622
  427ACOH    C112313   0.129   5.081   3.526
  427ACOH    H112314   0.020   5.084   3.528
  427ACOH    H212315   0.164   5.127   3.434
  427ACOH    H312316   0.166   5.138   3.610
  428ACOH    H412317   7.255   6.274   1.313
  428ACOH    O212318   7.184   6.318   1.257
  428ACOH    C212319   7.215   6.448   1.252
  428ACOH    O112320   7.301   6.507   1.315
  428ACOH    C112321   7.122   6.518   1.160
  428ACOH    H112322   7.139   6.625   1.162
  428ACOH    H212323   7.020   6.496   1.191
  428ACOH    H312324   7.137   6.481   1.059
  429ACOH    H412325   5.021   1.627   3.584
  429ACOH    O212326   4.927   1.608   3.555
  429ACOH    C212327   4.932   1.599   3.420
  429ACOH    O112328   5.032   1.591   3.353
  429ACOH    C112329   4.796   1.582   3.363
  429ACOH    H112330   4.780   1.657   3.286
  429ACOH    H212331   4.719   1.594   3.439
  429ACOH    H312332   4.787   1.483   3.318
  430ACOH    H412333   2.924   8.421   3.336
  430ACOH    O212334   2.852   8.480   3.369
  430ACOH    C212335   2.829   8.442   3.497
  430ACOH    O112336   2.889   8.356   3.558
  430ACOH    C112337   2.722   8.525   3.557
  430ACOH    H112338   2.709   8.500   3.662
  430ACOH    H212339   2.628   8.506   3.506
  430ACOH    H312340   2.747   8.630   3.548
  431ACOH    H412341   4.551   0.028   0.532
  431ACOH    O212342   4.545   9.931   0.506
  431ACOH    C212343   4.554   9.927   0.372
  431ACOH    O112344   4.606   0.011   0.300
  431ACOH    C112345   4.517   9.793   0.320
  431ACOH    H112346   4.451   9.804   0.234
  431ACOH    H212347   4.465   9.736   0.396
  431ACOH    H312348   4.606   9.739   0.290
  432ACOH    H412349   0.036   3.271   8.052
  432ACOH    O212350   9.968   3.290   8.119
  432ACOH    C212351   0.032   3.321   0.044
  432ACOH    O112352   0.153   3.324   0.060
  432ACOH    C112353   9.938   3.349   0.155
  432ACOH    H112354   9.956   3.449   0.194
  432ACOH    H212355   9.951   3.276   0.234
  432ACOH    H312356   9.835   3.344   0.119
  433ACOH    H412357   7.404   2.293   6.668
  433ACOH    O212358   7.407   2.243   6.752
  433ACOH    C212359   7.363   2.119   6.726
  433ACOH    O112360   7.290   2.086   6.634
  433ACOH    C112361   7.395   2.026   6.837
  433ACOH    H112362   7.343   1.931   6.825
  433ACOH    H212363   7.366   2.071   6.931
  433ACOH    H312364   7.502   2.008   6.838
  434ACOH    H412365   1.848   6.472   4.011
  434ACOH    O212366   1.765   6.445   4.061
  434ACOH    C212367   1.804   6.421   4.187
  434ACOH    O112368   1.886   6.486   4.249
  434ACOH    C112369   1.705   6.334   4.255
  434ACOH    H112370   1.646   6.279   4.182
  434ACOH    H212371   1.638   6.395   4.315
  434ACOH    H312372   1.756   6.263   4.319
  435ACOH    H412373   7.472   2.517   6.523
  435ACOH    O212374   7.407   2.445   6.546
  435ACOH    C212375   7.293   2.478   6.482
  435ACOH    O112376   7.265   2.584   6.428
  435ACOH    C112377   7.195   2.367   6.493
  435ACOH    H112378   7.103   2.393   6.443
  435ACOH    H212379   7.175   2.346   6.598
  435ACOH    H312380   7.238   2.279   6.446
  436ACOH    H412381   6.060   1.706   5.789
  436ACOH    O212382   6.131   1.775   5.797
  436ACOH    C212383   6.235   1.734   5.723
  436ACOH    O112384   6.229   1.655   5.630
  436ACOH    C112385   6.355   1.815   5.750
  436ACOH    H112386   6.437   1.787   5.683
  436ACOH    H212387   6.386   1.800   5.853
  436ACOH    H312388   6.332   1.920   5.734
  437ACOH    H412389   7.077   7.085   3.105
  437ACOH    O212390   7.022   7.013   3.061
  437ACOH    C212391   7.018   7.041   2.930
  437ACOH    O112392   7.103   7.103   2.868
  437ACOH    C112393   6.919   6.955   2.861
  437ACOH    H112394   6.971   6.872   2.813
  437ACOH    H212395   6.868   7.012   2.784
  437ACOH    H312396   6.846   6.917   2.931
  438ACOH    H412397   5.089   6.861   1.758
  438ACOH    O212398   5.168   6.921   1.758
  438ACOH    C212399   5.257   6.869   1.673
  438ACOH    O112400   5.247   6.764   1.613
  438ACOH    C112401   5.379   6.953   1.664
  438ACOH    H112402   5.403   6.971   1.560
  438ACOH    H212403   5.461   6.901   1.712
  438ACOH    H312404   5.363   7.048   1.714
  439ACOH    H412405   6.636   4.859   2.410
  439ACOH    O212406   6.566   4.923   2.439
  439ACOH    C212407   6.537   5.005   2.337
  439ACOH    O112408   6.587   5.004   2.226
  439ACOH    C112409   6.427   5.099   2.372
  439ACOH    H112410   6.341   5.079   2.309
  439ACOH    H212411   6.460   5.201   2.357
  439ACOH    H312412   6.398   5.086   2.476
  440ACOH    H412413   5.819   5.613   1.863
  440ACOH    O212414   5.833   5.585   1.959
  440ACOH    C212415   5.861   5.697   2.028
  440ACOH    O112416   5.871   5.810   1.984
  440ACOH    C112417   5.884   5.667   2.171
  440ACOH    H112418   5.793   5.626   2.214
  440ACOH    H212419   5.910   5.757   2.227
  440ACOH    H312420   5.963   5.594   2.182
  441ACOH    H412421   0.757   5.428   4.835
  441ACOH    O212422   0.678   5.366   4.838
  441ACOH    C212423   0.647   5.342   4.709
  441ACOH    O112424   0.721   5.352   4.613
  441ACOH    C112425   0.513   5.279   4.700
  441ACOH    H112426   0.438   5.348   4.739
  441ACOH    H212427   0.511   5.188   4.760
  441ACOH    H312428   0.489   5.254   4.597
  442ACOH    H412429   7.766   6.886   1.234
  442ACOH    O212430   7.797   6.928   1.149
  442ACOH    C212431   7.865   7.039   1.183
  442ACOH    O112432   7.931   7.054   1.284
  442ACOH    C112433   7.885   7.126   1.065
  442ACOH    H112434   7.882   7.231   1.094
  442ACOH    H212435   7.806   7.109   0.992
  442ACOH    H312436   7.981   7.105   1.018
  443ACOH    H412437   8.234   2.463   2.240
  443ACOH    O212438   8.155   2.479   2.299
  443ACOH    C212439   8.177   2.421   2.419
  443ACOH    O112440   8.108   2.444   2.517
  443ACOH    C112441   8.298   2.335   2.427
  443ACOH    H112442   8.387   2.392   2.403
  443ACOH    H212443   8.288   2.253   2.356
  443ACOH    H312444   8.309   2.292   2.527
  444ACOH    H412445   7.851   8.130   0.395
  444ACOH    O212446   7.774   8.118   0.458
  444ACOH    C212447   7.717   8.000   0.429
  444ACOH    O112448   7.752   7.920   0.345
  444ACOH    C112449   7.600   7.974   0.518
  444ACOH    H112450   7.614   7.879   0.568
  444ACOH    H212451   7.510   7.971   0.458
  444ACOH    H312452   7.591   8.053   0.592
  445ACOH    H412453   3.927   5.231   4.572
  445ACOH    O212454   4.026   5.246   4.579
  445ACOH    C212455   4.067   5.300   4.463
  445ACOH    O112456   3.998   5.336   4.369
  445ACOH    C112457   4.214   5.319   4.463
  445ACOH    H112458   4.238   5.424   4.453
  445ACOH    H212459   4.259   5.264   4.380
  445ACOH    H312460   4.257   5.282   4.556
  446ACOH    H412461   5.109   3.456   4.175
  446ACOH    O212462   5.047   3.469   4.099
  446ACOH    C212463   4.923   3.440   4.144
  446ACOH    O112464   4.894   3.395   4.253
  446ACOH    C112465   4.821   3.458   4.037
  446ACOH    H112466   4.742   3.524   4.073
  446ACOH    H212467   4.778   3.362   4.011
  446ACOH    H312468   4.866   3.502   3.948
  447ACOH    H412469   7.033   7.343   4.795
  447ACOH    O212470   7.007   7.376   4.705
  447ACOH    C212471   6.877   7.347   4.688
  447ACOH    O112472   6.799   7.311   4.775
  447ACOH    C112473   6.831   7.376   4.550
  447ACOH    H112474   6.723   7.365   4.542
  447ACOH    H212475   6.878   7.306   4.482
  447ACOH    H312476   6.858   7.477   4.523
  448ACOH    H412477   1.670   6.347   2.244
  448ACOH    O212478   1.715   6.431   2.277
  448ACOH    C212479   1.628   6.532   2.259
  448ACOH    O112480   1.517   6.526   2.209
  448ACOH    C112481   1.686   6.661   2.305
  448ACOH    H112482   1.620   6.707   2.378
  448ACOH    H212483   1.698   6.728   2.220
  448ACOH    H312484   1.783   6.645   2.351
  449ACOH    H412485   6.309   2.074   5.921
  449ACOH    O212486   6.230   2.033   5.967
  449ACOH    C212487   6.122   2.059   5.891
  449ACOH    O112488   6.120   2.106   5.779
  449ACOH    C112489   5.999   2.019   5.964
  449ACOH    H112490   6.002   1.912   5.984
  449ACOH    H212491   5.910   2.042   5.906
  449ACOH    H312492   5.994   2.072   6.059
  450ACOH    H412493   5.688   2.200   3.400
  450ACOH    O212494   5.786   2.183   3.392
  450ACOH    C212495   5.849   2.278   3.463
  450ACOH    O112496   5.802   2.346   3.553
  450ACOH    C112497   5.994   2.274   3.437
  450ACOH    H112498   6.046   2.226   3.520
  450ACOH    H212499   6.032   2.375   3.426
  450ACOH    H312500   6.016   2.219   3.346
  451ACOH    H412501   8.908   4.179   0.500
  451ACOH    O212502   8.851   4.163   0.582
  451ACOH    C212503   8.728   4.129   0.538
  451ACOH    O112504   8.681   4.159   0.430
  451ACOH    C112505   8.646   4.086   0.654
  451ACOH    H112506   8.658   4.156   0.736
  451ACOH    H212507   8.679   3.988   0.686
  451ACOH    H312508   8.541   4.081   0.626
  452ACOH    H412509   5.545   1.667   2.870
  452ACOH    O212510   5.597   1.752   2.876
  452ACOH    C212511   5.648   1.777   2.754
  452ACOH    O112512   5.617   1.722   2.650
  452ACOH    C112513   5.742   1.891   2.758
  452ACOH    H112514   5.827   1.867   2.822
  452ACOH    H212515   5.692   1.979   2.797
  452ACOH    H312516   5.779   1.913   2.658
  453ACOH    H412517   2.346   2.981   3.666
  453ACOH    O212518   2.247   2.979   3.664
  453ACOH    C212519   2.207   2.937   3.785
  453ACOH    O112520   2.278   2.907   3.879
  453ACOH    C112521   2.059   2.926   3.790
  453ACOH    H112522   2.015   3.024   3.769
  453ACOH    H212523   2.026   2.893   3.888
  453ACOH    H312524   2.025   2.856   3.715
  454ACOH    H412525   7.715   4.325   5.903
  454ACOH    O212526   7.736   4.384   5.826
  454ACOH    C212527   7.678   4.502   5.852
  454ACOH    O112528   7.604   4.530   5.945
  454ACOH    C112529   7.708   4.599   5.743
  454ACOH    H112530   7.661   4.694   5.763
  454ACOH    H212531   7.670   4.559   5.649
  454ACOH    H312532   7.815   4.612   5.736
  455ACOH    H412533   1.039   9.224   0.367
  455ACOH    O212534   1.124   9.173   0.351
  455ACOH    C212535   1.221   9.240   0.415
  455ACOH    O112536   1.206   9.325   0.500
  455ACOH    C112537   1.353   9.180   0.385
  455ACOH    H112538   1.354   9.074   0.411
  455ACOH    H212539   1.433   9.230   0.439
  455ACOH    H312540   1.374   9.189   0.278
  456ACOH    H412541   7.057   8.665   2.314
  456ACOH    O212542   7.060   8.623   2.223
  456ACOH    C212543   7.151   8.693   2.154
  456ACOH    O112544   7.201   8.800   2.185
  456ACOH    C112545   7.177   8.629   2.022
  456ACOH    H112546   7.085   8.626   1.965
  456ACOH    H212547   7.212   8.528   2.039
  456ACOH    H312548   7.252   8.685   1.967
  457ACOH    H412549   3.366   0.050   6.250
  457ACOH    O212550   3.435   0.112   6.289
  457ACOH    C212551   3.427   0.226   6.219
  457ACOH    O112552   3.353   0.250   6.126
  457ACOH    C112553   3.528   0.325   6.265
  457ACOH    H112554   3.479   0.419   6.291
  457ACOH    H212555   3.600   0.343   6.186
  457ACOH    H312556   3.580   0.288   6.353
  458ACOH    H412557   1.092   8.849   4.045
  458ACOH    O212558   1.055   8.929   4.089
  458ACOH    C212559   1.077   9.031   4.003
  458ACOH    O112560   1.104   9.019   3.885
  458ACOH    C112561   1.044   9.161   4.065
  458ACOH    H112562   1.038   9.153   4.173
  458ACOH    H212563   0.948   9.195   4.027
  458ACOH    H312564   1.120   9.235   4.039
  459ACOH    H412565   7.996   8.720   8.148
  459ACOH    O212566   8.020   8.764   0.043
  459ACOH    C212567   8.002   8.896   0.021
  459ACOH    O112568   7.985   8.947   8.100
  459ACOH    C112569   8.023   8.977   0.143
  459ACOH    H112570   8.029   8.913   0.232
  459ACOH    H212571   7.940   9.046   0.156
  459ACOH    H312572   8.114   9.034   0.134
  460ACOH    H412573   5.664   7.378   5.326
  460ACOH    O212574   5.749   7.328   5.311
  460ACOH    C212575   5.776   7.334   5.179
  460ACOH    O112576   5.707   7.383   5.092
  460ACOH    C112577   5.900   7.258   5.150
  460ACOH    H112578   5.984   7.306   5.199
  460ACOH    H212579   5.919   7.255   5.043
  460ACOH    H312580   5.891   7.157   5.187
  461ACOH    H412581   8.902   0.232   1.490
  461ACOH    O212582   8.802   0.238   1.484
  461ACOH    C212583   8.767   0.364   1.454
  461ACOH    O112584   8.651   0.400   1.450
  461ACOH    C112585   8.879   0.457   1.425
  461ACOH    H112586   8.842   0.556   1.401
  461ACOH    H212587   8.936   0.420   1.340
  461ACOH    H312588   8.944   0.464   1.512
  462ACOH    H412589   5.193   5.149   5.361
  462ACOH    O212590   5.272   5.207   5.344
  462ACOH    C212591   5.354   5.140   5.262
  462ACOH    O112592   5.329   5.037   5.202
  462ACOH    C112593   5.482   5.213   5.240
  462ACOH    H112594   5.486   5.300   5.305
  462ACOH    H212595   5.488   5.245   5.137
  462ACOH    H312596   5.565   5.147   5.262
  463ACOH    H412597   7.383   4.722   5.720
  463ACOH    O212598   7.337   4.667   5.790
  463ACOH    C212599   7.359   4.731   5.906
  463ACOH    O112600   7.412   4.840   5.920
  463ACOH    C112601   7.299   4.656   6.019
  463ACOH    H112602   7.195   4.636   5.999
  463ACOH    H212603   7.308   4.713   6.111
  463ACOH    H312604   7.352   4.562   6.031
  464ACOH    H412605   7.457   9.899   1.200
  464ACOH    O212606   7.548   9.860   1.186
  464ACOH    C212607   7.564   9.761   1.275
  464ACOH    O112608   7.499   9.744   1.376
  464ACOH    C112609   7.692   9.688   1.252
  464ACOH    H112610   7.765   9.717   1.327
  464ACOH    H212611   7.732   9.709   1.153
  464ACOH    H312612   7.674   9.581   1.260
  465SOL     OW12613   4.193   5.842   1.761
  465SOL    HW112614   4.125   5.769   1.775
  465SOL    HW212615   4.239   5.861   1.847
  466SOL     OW12616   1.980   6.683   5.811
  466SOL    HW112617   1.996   6.714   5.718
  466SOL    HW212618   1.902   6.621   5.813
  467SOL     OW12619   7.088   0.730   3.795
  467SOL    HW112620   7.093   0.817   3.844
  467SOL    HW212621   6.993   0.701   3.789
  468SOL     OW12622   1.150   1.559   2.989
  468SOL    HW112623   1.075   1.608   3.033
  468SOL    HW212624   1.212   1.624   2.944
  469SOL     OW12625   1.179   1.030   2.003
  469SOL    HW112626   1.103   0.981   2.046
  469SOL    HW212627   1.159   1.044   1.906
  470SOL     OW12628   7.790   9.446   3.419
  470SOL    HW112629   7.810   9.352   3.445
  470SOL    HW212630   7.748   9.447   3.328
  471SOL     OW12631   0.520   9.951   2.933
  471SOL    HW112632   0.531   0.043   2.895
  471SOL    HW212633   0.563   9.947   3.023
  472SOL     OW12634   7.648   9.445   3.190
  472SOL    HW112635   7.549   9.458   3.196
  472SOL    HW212636   7.667   9.360   3.141
  473SOL     OW12637   0.869   9.625   1.186
  473SOL    HW112638   0.859   9.689   1.263
  473SOL    HW212639   0.928   9.667   1.117
  474SOL     OW12640   2.648   4.626   1.325
  474SOL    HW112641   2.736   4.652   1.287
  474SOL    HW212642   2.623   4.688   1.399
  475SOL     OW12643   8.412   1.388   5.905
  475SOL    HW112644   8.416   1.290   5.883
  475SOL    HW212645   8.317   1.418   5.908
  476SOL     OW12646   4.891   0.972   3.203
  476SOL    HW112647   4.962   0.948   3.136
  476SOL    HW212648   4.935   0.995   3.290
  477SOL     OW12649   7.275   6.204   5.394
  477SOL    HW112650   7.337   6.236   5.323
  477SOL    HW212651   7.323   6.202   5.482
  478SOL     OW12652   0.515   8.481   0.909
  478SOL    HW112653   0.493   8.534   0.992
  478SOL    HW212654   0.491   8.534   0.828
  479SOL     OW12655   1.530   1.501   0.135
  479SOL    HW112656   1.458   1.564   0.108
  479SOL    HW212657   1.618   1.549   0.137
  480SOL     OW12658   2.082   9.770   1.433
  480SOL    HW112659   2.119   9.684   1.399
  480SOL    HW212660   2.003   9.752   1.491
  481SOL     OW12661   0.787   6.105   1.336
  481SOL    HW112662   0.863   6.066   1.388
  481SOL    HW212663   0.755   6.188   1.382
  482SOL     OW12664   8.624   8.906   0.375
  482SOL    HW112665   8.602   8.883   0.470
  482SOL    HW212666   8.540   8.918   0.323
  483SOL     OW12667   5.075   0.575   3.907
  483SOL    HW112668   5.041   0.608   3.820
  483SOL    HW212669   5.116   0.650   3.958
  484SOL     OW12670   1.339   6.906   5.922
  484SOL    HW112671   1.415   6.956   5.963
  484SOL    HW212672   1.255   6.925   5.973
  485SOL     OW12673   9.118   7.018   1.718
  485SOL    HW112674   9.127   6.936   1.775
  485SOL    HW212675   9.100   6.991   1.624
  486SOL     OW12676   7.940   2.209   3.135
  486SOL    HW112677   8.034   2.179   3.153
  486SOL    HW212678   7.942   2.293   3.079
  487SOL     OW12679   3.533   4.086   4.646
  487SOL    HW112680   3.599   4.113   4.575
  487SOL    HW212681   3.542   3.988   4.664
  488SOL     OW12682   9.922   3.548   0.487
  488SOL    HW112683   9.960   3.596   0.407
  488SOL    HW212684   9.960   3.588   0.570
  489SOL     OW12685   9.881   7.842   3.451
  489SOL    HW112686   9.844   7.901   3.379
  489SOL    HW212687   9.821   7.763   3.463
  490SOL     OW12688   7.961   1.974   2.730
  490SOL    HW112689   8.048   1.927   2.744
  490SOL    HW212690   7.913   1.982   2.816
  491SOL     OW12691   2.701   3.653   3.620
  491SOL    HW112692   2.723   3.659   3.717
  491SOL    HW212693   2.611   3.609   3.608
  492SOL     OW12694   5.227   9.731   2.309
  492SOL    HW112695   5.264   9.737   2.402
  492SOL    HW212696   5.262   9.648   2.265
  493SOL     OW12697   2.527   4.198   0.502
  493SOL    HW112698   2.445   4.182   0.557
  493SOL    HW212699   2.553   4.114   0.454
  494SOL     OW12700   1.350   0.269   2.622
  494SOL    HW112701   1.387   0.307   2.537
  494SOL    HW212702   1.281   0.200   2.601
  495SOL     OW12703   0.394   5.612   4.696
  495SOL    HW112704   0.432   5.704   4.700
  495SOL    HW212705   0.375   5.587   4.601
  496SOL     OW12706   9.582   2.111   3.078
  496SOL    HW112707   9.581   2.011   3.075
  496SOL    HW212708   9.540   2.143   3.163
  497SOL     OW12709   4.801   2.035   6.014
  497SOL    HW112710   4.865   2.084   5.955
  497SOL    HW212711   4.778   1.947   5.973
  498SOL     OW12712   8.139   2.697   1.109
  498SOL    HW112713   8.179   2.607   1.125
  498SOL    HW212714   8.052   2.704   1.158
  499SOL     OW12715   1.924   3.522   6.374
  499SOL    HW112716   2.019   3.494   6.362
  499SOL    HW212717   1.882   3.535   6.284
  500SOL     OW12718   5.064   1.457   2.673
  500SOL    HW112719   5.051   1.549   2.708
  500SOL    HW212720   5.079   1.460   2.574
  501SOL     OW12721   7.628   9.157   4.022
  501SOL    HW112722   7.578   9.078   3.986
  501SOL    HW212723   7.726   9.140   4.017
  502SOL     OW12724   9.534   7.362   1.958
  502SOL    HW112725   9.488   7.280   1.922
  502SOL    HW212726   9.602   7.335   2.026
  503SOL     OW12727   3.412   1.093   5.492
  503SOL    HW112728   3.436   1.177   5.444
  503SOL    HW212729   3.329   1.108   5.545
  504SOL     OW12730   0.584   5.564   5.099
  504SOL    HW112731   0.563   5.615   5.183
  504SOL    HW212732   0.499   5.536   5.055
  505SOL     OW12733   7.983   8.816   4.918
  505SOL    HW112734   7.962   8.810   4.820
  505SOL    HW212735   7.947   8.736   4.965
  506SOL     OW12736   0.243   0.139   4.746
  506SOL    HW112737   0.235   0.076   4.669
  506SOL    HW212738   0.182   0.217   4.733
  507SOL     OW12739   9.895   8.729   1.743
  507SOL    HW112740   9.887   8.669   1.823
  507SOL    HW212741   9.991   8.732   1.714
  508SOL     OW12742   9.801   5.178   1.494
  508SOL    HW112743   9.830   5.269   1.461
  508SOL    HW212744   9.702   5.176   1.502
  509SOL     OW12745   9.371   6.007   5.009
  509SOL    HW112746   9.288   6.022   5.062
  509SOL    HW212747   9.438   5.959   5.067
  510SOL     OW12748   2.596   2.727   0.992
  510SOL    HW112749   2.654   2.655   1.030
  510SOL    HW212750   2.563   2.700   0.902
  511SOL     OW12751   1.919   8.800   1.422
  511SOL    HW112752   1.973   8.854   1.486
  511SOL    HW212753   1.845   8.855   1.384
  512SOL     OW12754   4.749   2.830   0.077
  512SOL    HW112755   4.690   2.793   0.149
  512SOL    HW212756   4.762   2.761   0.006
  513SOL     OW12757   9.080   7.112   1.259
  513SOL    HW112758   9.077   7.207   1.289
  513SOL    HW212759   9.061   7.052   1.336
  514SOL     OW12760   7.371   0.315   1.385
  514SOL    HW112761   7.383   0.414   1.387
  514SOL    HW212762   7.298   0.288   1.448
  515SOL     OW12763   9.498   5.909   3.708
  515SOL    HW112764   9.489   5.810   3.702
  515SOL    HW212765   9.562   5.941   3.638
  516SOL     OW12766   5.359   1.520   1.537
  516SOL    HW112767   5.364   1.578   1.619
  516SOL    HW212768   5.309   1.436   1.560
  517SOL     OW12769   1.113   5.205   3.046
  517SOL    HW112770   1.206   5.187   3.078
  517SOL    HW212771   1.051   5.212   3.125
  518SOL     OW12772   4.186   2.212   5.938
  518SOL    HW112773   4.090   2.194   5.958
  518SOL    HW212774   4.193   2.300   5.891
  519SOL     OW12775   3.093   8.054   2.384
  519SOL    HW112776   3.058   7.978   2.329
  519SOL    HW212777   3.106   8.023   2.478
  520SOL     OW12778   5.332   0.923   2.105
  520SOL    HW112779   5.355   1.018   2.127
  520SOL    HW212780   5.417   0.870   2.099
  521SOL     OW12781   0.392   1.033   6.422
  521SOL    HW112782   0.379   1.131   6.406
  521SOL    HW212783   0.328   1.002   6.493
  522SOL     OW12784   3.265   4.120   4.609
  522SOL    HW112785   3.224   4.137   4.698
  522SOL    HW212786   3.364   4.107   4.620
  523SOL     OW12787   9.838   8.691   5.458
  523SOL    HW112788   9.903   8.629   5.500
  523SOL    HW212789   9.825   8.771   5.518
  524SOL     OW12790   7.739   3.127   4.331
  524SOL    HW112791   7.657   3.071   4.335
  524SOL    HW212792   7.725   3.201   4.265
  525SOL     OW12793   9.820   6.970   0.219
  525SOL    HW112794   9.825   6.872   0.236
  525SOL    HW212795   9.825   7.020   0.305
  526SOL     OW12796   2.269   5.879   2.173
  526SOL    HW112797   2.339   5.929   2.122
  526SOL    HW212798   2.266   5.912   2.267
  527SOL     OW12799   2.134   6.023   1.573
  527SOL    HW112800   2.211   6.022   1.509
  527SOL    HW212801   2.055   6.065   1.529
  528SOL     OW12802   7.181   2.829   0.115
  528SOL    HW112803   7.265   2.867   0.076
  528SOL    HW212804   7.123   2.903   0.149
  529SOL     OW12805   7.661   2.049   5.777
  529SOL    HW112806   7.646   1.950   5.784
  529SOL    HW212807   7.606   2.096   5.846
  530SOL     OW12808   7.521   3.932   2.597
  530SOL    HW112809   7.521   3.843   2.550
  530SOL    HW212810   7.474   3.999   2.540
  531SOL     OW12811   4.068   1.246   1.289
  531SOL    HW112812   3.969   1.228   1.295
  531SOL    HW212813   4.116   1.160   1.270
  532SOL     OW12814   2.930   8.970   6.352
  532SOL    HW112815   2.841   8.933   6.325
  532SOL    HW212816   2.930   9.069   6.341
  533SOL     OW12817   7.927   4.246   1.957
  533SOL    HW112818   7.969   4.174   2.012
  533SOL    HW212819   7.960   4.335   1.989
  534SOL     OW12820   1.525   8.706   5.626
  534SOL    HW112821   1.558   8.783   5.681
  534SOL    HW212822   1.430   8.685   5.651
  535SOL     OW12823   9.524   4.896   2.007
  535SOL    HW112824   9.514   4.845   2.092
  535SOL    HW212825   9.470   4.853   1.935
  536SOL     OW12826   7.835   2.013   2.965
  536SOL    HW112827   7.871   2.069   3.039
  536SOL    HW212828   7.777   1.941   3.003
  537SOL     OW12829   7.314   9.613   1.572
  537SOL    HW112830   7.366   9.642   1.492
  537SOL    HW212831   7.267   9.527   1.551
  538SOL     OW12832   6.381   1.568   6.315
  538SOL    HW112833   6.419   1.647   6.267
  538SOL    HW212834   6.296   1.594   6.360
  539SOL     OW12835   9.923   0.653   2.378
  539SOL    HW112836   9.837   0.629   2.334
  539SOL    HW212837   9.934   0.598   2.461
  540SOL     OW12838   4.390   2.381   6.112
  540SOL    HW112839   4.406   2.405   6.016
  540SOL    HW212840   4.299   2.413   6.139
  541SOL     OW12841   9.908   1.476   1.274
  541SOL    HW112842   9.873   1.480   1.368
  541SOL    HW212843   9.837   1.441   1.214
  542SOL     OW12844   8.745   8.410   2.071
  542SOL    HW112845   8.688   8.329   2.089
  542SOL    HW212846   8.814   8.386   2.003
  543SOL     OW12847   7.014   8.390   2.378
  543SOL    HW112848   6.952   8.418   2.451
  543SOL    HW212849   7.021   8.464   2.311
  544SOL     OW12850   8.427   8.312   4.636
  544SOL    HW112851   8.485   8.317   4.555
  544SOL    HW212852   8.358   8.384   4.632
  545SOL     OW12853   9.596   2.352   2.175
  545SOL    HW112854   9.659   2.312   2.108
  545SOL    HW212855   9.534   2.416   2.129
  546SOL     OW12856   9.783   2.002   1.677
  546SOL    HW112857   9.840   1.980   1.756
  546SOL    HW212858   9.746   1.918   1.638
  547SOL     OW12859   5.297   2.064   3.714
  547SOL    HW112860   5.294   2.147   3.770
  547SOL    HW212861   5.212   2.054   3.663
  548SOL     OW12862   2.644   7.964   1.757
  548SOL    HW112863   2.716   7.943   1.823
  548SOL    HW212864   2.646   8.061   1.733
  549SOL     OW12865   9.606   1.178   0.639
  549SOL    HW112866   9.652   1.090   0.627
  549SOL    HW212867   9.544   1.194   0.563
  550SOL     OW12868   5.178   9.524   4.025
  550SOL    HW112869   5.254   9.589   4.030
  550SOL    HW212870   5.191   9.453   4.095
  551SOL     OW12871   0.188   9.703   4.467
  551SOL    HW112872   0.111   9.678   4.525
  551SOL    HW212873   0.156   9.720   4.374
  552SOL     OW12874   1.401   7.809   3.400
  552SOL    HW112875   1.302   7.813   3.384
  552SOL    HW212876   1.431   7.714   3.399
  553SOL     OW12877   7.096   0.984   1.183
  553SOL    HW112878   7.133   1.022   1.267
  553SOL    HW212879   7.050   0.897   1.203
  554SOL     OW12880   8.315   4.740   5.915
  554SOL    HW112881   8.349   4.826   5.877
  554SOL    HW212882   8.386   4.670   5.910
  555SOL     OW12883   2.980   7.635   2.825
  555SOL    HW112884   3.079   7.642   2.833
  555SOL    HW212885   2.944   7.573   2.894
  556SOL     OW12886   6.947   8.562   3.109
  556SOL    HW112887   6.912   8.469   3.096
  556SOL    HW212888   6.870   8.624   3.124
  557SOL     OW12889   9.746   9.023   4.486
  557SOL    HW112890   9.822   8.963   4.462
  557SOL    HW212891   9.669   8.968   4.518
  558SOL     OW12892   9.307   4.173   4.571
  558SOL    HW112893   9.322   4.153   4.474
  558SOL    HW212894   9.239   4.246   4.579
  559SOL     OW12895   1.938   6.725   5.249
  559SOL    HW112896   1.918   6.818   5.218
  559SOL    HW212897   1.859   6.666   5.235
  560SOL     OW12898   3.189   6.023   0.941
  560SOL    HW112899   3.250   6.000   1.017
  560SOL    HW212900   3.212   5.967   0.861
  561SOL     OW12901   8.677   1.773   0.438
  561SOL    HW112902   8.752   1.734   0.386
  561SOL    HW212903   8.616   1.823   0.376
  562SOL     OW12904   9.545   9.368   0.235
  562SOL    HW112905   9.575   9.385   0.329
  562SOL    HW212906   9.621   9.388   0.172
  563SOL     OW12907   7.622   2.376   4.953
  563SOL    HW112908   7.654   2.457   5.003
  563SOL    HW212909   7.583   2.311   5.018
  564SOL     OW12910   7.092   2.780   5.691
  564SOL    HW112911   7.136   2.754   5.777
  564SOL    HW212912   7.143   2.741   5.615
  565SOL     OW12913   7.714   8.576   2.874
  565SOL    HW112914   7.770   8.517   2.933
  565SOL    HW212915   7.619   8.574   2.906
  566SOL     OW12916   8.370   8.897   5.554
  566SOL    HW112917   8.448   8.932   5.607
  566SOL    HW212918   8.349   8.960   5.479
  567SOL     OW12919   9.916   1.982   3.023
  567SOL    HW112920   0.001   2.017   2.984
  567SOL    HW212921   9.863   1.935   2.953
  568SOL     OW12922   9.906   5.270   3.286
  568SOL    HW112923   9.820   5.223   3.306
  568SOL    HW212924   9.970   5.206   3.243
  569SOL     OW12925   8.967   8.280   1.270
  569SOL    HW112926   9.015   8.292   1.183
  569SOL    HW212927   8.892   8.346   1.276
  570SOL     OW12928   1.632   4.921   1.554
  570SOL    HW112929   1.570   4.941   1.630
  570SOL    HW212930   1.580   4.885   1.477
  571SOL     OW12931   4.516   3.135   2.268
  571SOL    HW112932   4.456   3.189   2.327
  571SOL    HW212933   4.479   3.042   2.259
  572SOL     OW12934   8.834   7.507   1.308
  572SOL    HW112935   8.819   7.605   1.322
  572SOL    HW212936   8.774   7.455   1.369
  573SOL     OW12937   4.189   4.258   0.923
  573SOL    HW112938   4.236   4.270   1.010
  573SOL    HW212939   4.213   4.333   0.861
  574SOL     OW12940   3.963   0.713   4.935
  574SOL    HW112941   3.879   0.735   4.984
  574SOL    HW212942   3.975   0.613   4.933
  575SOL     OW12943   1.063   6.622   4.298
  575SOL    HW112944   1.155   6.590   4.319
  575SOL    HW212945   1.069   6.710   4.250
  576SOL     OW12946   2.339   0.007   5.892
  576SOL    HW112947   2.300   0.059   5.968
  576SOL    HW212948   2.282   0.021   5.810
  577SOL     OW12949   9.826   3.214   1.569
  577SOL    HW112950   9.829   3.252   1.477
  577SOL    HW212951   9.907   3.243   1.620
  578SOL     OW12952   9.363   5.893   5.448
  578SOL    HW112953   9.434   5.832   5.484
  578SOL    HW212954   9.320   5.849   5.370
  579SOL     OW12955   4.826   0.118   2.699
  579SOL    HW112956   4.800   0.032   2.741
  579SOL    HW212957   4.756   0.187   2.718
  580SOL     OW12958   6.992   7.371   5.692
  580SOL    HW112959   6.948   7.418   5.769
  580SOL    HW212960   6.967   7.418   5.607
  581SOL     OW12961   7.226   1.513   3.666
  581SOL    HW112962   7.244   1.610   3.651
  581SOL    HW212963   7.197   1.498   3.761
  582SOL     OW12964   9.822   5.867   3.847
  582SOL    HW112965   9.800   5.786   3.792
  582SOL    HW212966   9.740   5.899   3.894
  583SOL     OW12967   0.237   5.103   3.073
  583SOL    HW112968   0.324   5.069   3.108
  583SOL    HW212969   0.161   5.054   3.118
  584SOL     OW12970   2.554   6.927   5.740
  584SOL    HW112971   2.535   7.017   5.700
  584SOL    HW212972   2.577   6.937   5.836
  585SOL     OW12973   2.338   9.090   5.780
  585SOL    HW112974   2.363   9.039   5.862
  585SOL    HW212975   2.337   9.028   5.701
  586SOL     OW12976   6.306   0.943   3.708
  586SOL    HW112977   6.267   1.019   3.760
  586SOL    HW212978   6.401   0.929   3.737
  587SOL     OW12979   8.845   9.305   3.401
  587SOL    HW112980   8.894   9.359   3.470
  587SOL    HW212981   8.771   9.359   3.362
  588SOL     OW12982   7.744   5.178   0.877
  588SOL    HW112983   7.668   5.243   0.870
  588SOL    HW212984   7.742   5.117   0.799
  589SOL     OW12985   3.342   1.576   0.779
  589SOL    HW112986   3.248   1.610   0.789
  589SOL    HW212987   3.398   1.613   0.853
  590SOL     OW12988   4.476   1.981   0.289
  590SOL    HW112989   4.443   2.058   0.234
  590SOL    HW212990   4.558   2.009   0.339
  591SOL     OW12991   9.039   7.235   4.316
  591SOL    HW112992   9.057   7.183   4.233
  591SOL    HW212993   8.941   7.233   4.337
  592SOL     OW12994   3.065   5.133   0.248
  592SOL    HW112995   2.988   5.197   0.244
  592SOL    HW212996   3.031   5.040   0.250
  593SOL     OW12997   4.289   8.443   6.004
  593SOL    HW112998   4.377   8.490   5.993
  593SOL    HW212999   4.224   8.505   6.048
  594SOL     OW13000   8.321   1.458   0.674
  594SOL    HW113001   8.412   1.495   0.652
  594SOL    HW213002   8.264   1.531   0.713
  595SOL     OW13003   4.005   1.769   4.681
  595SOL    HW113004   4.095   1.812   4.675
  595SOL    HW213005   3.934   1.838   4.670
  596SOL     OW13006   7.307   3.145   2.331
  596SOL    HW113007   7.275   3.237   2.354
  596SOL    HW213008   7.268   3.117   2.244
  597SOL     OW13009   2.709   3.356   0.972
  597SOL    HW113010   2.705   3.258   0.992
  597SOL    HW213011   2.801   3.381   0.943
  598SOL     OW13012   0.639   0.087   0.812
  598SOL    HW113013   0.575   0.164   0.816
  598SOL    HW213014   0.626   0.037   0.726
  599SOL     OW13015   4.294   7.863   4.622
  599SOL    HW113016   4.308   7.939   4.560
  599SOL    HW213017   4.287   7.897   4.716
  600SOL     OW13018   8.830   6.145   2.642
  600SOL    HW113019   8.919   6.115   2.609
  600SOL    HW213020   8.783   6.197   2.571
  601SOL     OW13021   9.776   4.847   6.186
  601SOL    HW113022   9.795   4.752   6.164
  601SOL    HW213023   9.725   4.852   6.272
  602SOL     OW13024   3.493   5.709   2.257
  602SOL    HW113025   3.566   5.648   2.288
  602SOL    HW213026   3.442   5.744   2.335
  603SOL     OW13027   3.872   0.496   2.871
  603SOL    HW113028   3.780   0.519   2.840
  603SOL    HW213029   3.938   0.523   2.801
  604SOL     OW13030   4.327   1.354   4.117
  604SOL    HW113031   4.352   1.446   4.149
  604SOL    HW213032   4.343   1.288   4.191
  605SOL     OW13033   9.491   5.616   1.823
  605SOL    HW113034   9.441   5.537   1.859
  605SOL    HW213035   9.439   5.657   1.748
  606SOL     OW13036   4.456   3.170   3.075
  606SOL    HW113037   4.456   3.097   3.006
  606SOL    HW213038   4.494   3.136   3.160
  607SOL     OW13039   9.995   0.902   0.067
  607SOL    HW113040   9.934   0.891   8.177
  607SOL    HW213041   9.966   0.841   0.141
  608SOL     OW13042   8.034   1.108   4.696
  608SOL    HW113043   7.996   1.086   4.786
  608SOL    HW213044   7.999   1.043   4.629
  609SOL     OW13045   7.413   8.722   4.512
  609SOL    HW113046   7.341   8.669   4.466
  609SOL    HW213047   7.399   8.819   4.495
  610SOL     OW13048   6.208   0.843   3.165
  610SOL    HW113049   6.184   0.748   3.184
  610SOL    HW213050   6.245   0.885   3.248
  611SOL     OW13051   3.235   7.449   6.187
  611SOL    HW113052   3.270   7.540   6.210
  611SOL    HW213053   3.282   7.415   6.106
  612SOL     OW13054   8.520   8.369   1.071
  612SOL    HW113055   8.602   8.346   1.018
  612SOL    HW213056   8.445   8.308   1.045
  613SOL     OW13057   1.620   6.202   2.202
  613SOL    HW113058   1.662   6.112   2.200
  613SOL    HW213059   1.524   6.195   2.178
  614SOL     OW13060   3.447   2.935   0.557
  614SOL    HW113061   3.489   2.887   0.633
  614SOL    HW213062   3.376   2.878   0.516
  615SOL     OW13063   4.485   7.393   3.924
  615SOL    HW113064   4.405   7.440   3.887
  615SOL    HW213065   4.456   7.310   3.971
  616SOL     OW13066   2.896   2.052   1.056
  616SOL    HW113067   2.995   2.067   1.051
  616SOL    HW213068   2.857   2.112   1.126
  617SOL     OW13069   7.065   0.442   0.506
  617SOL    HW113070   7.086   0.350   0.473
  617SOL    HW213071   7.116   0.509   0.453
  618SOL     OW13072   9.071   2.969   4.457
  618SOL    HW113073   9.028   3.050   4.499
  618SOL    HW213074   9.002   2.919   4.404
  619SOL     OW13075   4.537   0.742   5.494
  619SOL    HW113076   4.622   0.689   5.508
  619SOL    HW213077   4.458   0.682   5.511
  620SOL     OW13078   9.616   8.700   3.028
  620SOL    HW113079   9.674   8.627   3.065
  620SOL    HW213080   9.532   8.660   2.992
  621SOL     OW13081   9.163   6.067   3.341
  621SOL    HW113082   9.091   6.019   3.292
  621SOL    HW213083   9.153   6.166   3.327
  622SOL     OW13084   9.360   1.285   3.401
  622SOL    HW113085   9.446   1.244   3.372
  622SOL    HW213086   9.329   1.242   3.486
  623SOL     OW13087   5.130   8.541   4.344
  623SOL    HW113088   5.080   8.504   4.422
  623SOL    HW213089   5.200   8.604   4.376
  624SOL     OW13090   9.236   7.761   3.521
  624SOL    HW113091   9.279   7.672   3.504
  624SOL    HW213092   9.305   7.825   3.556
  625SOL     OW13093   7.419   3.199   0.512
  625SOL    HW113094   7.403   3.280   0.456
  625SOL    HW213095   7.382   3.216   0.604
  626SOL     OW13096   5.422   1.223   6.217
  626SOL    HW113097   5.519   1.203   6.230
  626SOL    HW213098   5.412   1.303   6.158
  627SOL     OW13099   0.840   0.882   0.963
  627SOL    HW113100   0.820   0.932   0.879
  627SOL    HW213101   0.862   0.947   1.036
  628SOL     OW13102   5.897   4.890   2.023
  628SOL    HW113103   5.896   4.827   1.945
  628SOL    HW213104   5.985   4.885   2.069
  629SOL     OW13105   2.932   1.740   0.234
  629SOL    HW113106   2.892   1.828   0.262
  629SOL    HW213107   3.032   1.746   0.236
  630SOL     OW13108   8.831   4.715   5.911
  630SOL    HW113109   8.796   4.625   5.884
  630SOL    HW213110   8.799   4.784   5.845
  631SOL     OW13111   6.566   2.010   1.767
  631SOL    HW113112   6.478   1.966   1.750
  631SOL    HW213113   6.620   2.010   1.683
  632SOL     OW13114   0.024   6.240   3.604
  632SOL    HW113115   0.033   6.262   3.507
  632SOL    HW213116   9.991   6.147   3.614
  633SOL     OW13117   3.892   3.988   3.907
  633SOL    HW113118   3.820   4.006   3.975
  633SOL    HW213119   3.936   4.073   3.882
  634SOL     OW13120   8.225   2.291   0.193
  634SOL    HW113121   8.196   2.239   0.112
  634SOL    HW213122   8.313   2.256   0.225
  635SOL     OW13123   2.459   4.581   1.835
  635SOL    HW113124   2.393   4.608   1.765
  635SOL    HW213125   2.551   4.593   1.800
  636SOL     OW13126   2.356   5.972   1.015
  636SOL    HW113127   2.341   6.054   0.960
  636SOL    HW213128   2.403   5.903   0.960
  637SOL     OW13129   7.881   6.651   5.524
  637SOL    HW113130   7.783   6.629   5.524
  637SOL    HW213131   7.934   6.568   5.510
  638SOL     OW13132   1.164   0.142   6.317
  638SOL    HW113133   1.262   0.137   6.300
  638SOL    HW213134   1.142   0.227   6.366
  639SOL     OW13135   4.172   9.464   5.252
  639SOL    HW113136   4.147   9.554   5.217
  639SOL    HW213137   4.268   9.466   5.281
  640SOL     OW13138   1.924   4.777   3.254
  640SOL    HW113139   1.876   4.697   3.219
  640SOL    HW213140   2.004   4.796   3.196
  641SOL     OW13141   1.836   5.400   4.665
  641SOL    HW113142   1.811   5.337   4.738
  641SOL    HW213143   1.856   5.349   4.581
  642SOL     OW13144   0.967   7.755   2.118
  642SOL    HW113145   1.064   7.746   2.141
  642SOL    HW213146   0.953   7.729   2.022
  643SOL     OW13147   0.433   3.965   0.794
  643SOL    HW113148   0.393   3.988   0.883
  643SOL    HW213149   0.503   3.894   0.807
  644SOL     OW13150   6.208   8.381   4.774
  644SOL    HW113151   6.305   8.398   4.762
  644SOL    HW213152   6.181   8.402   4.867
  645SOL     OW13153   6.843   2.671   5.603
  645SOL    HW113154   6.784   2.670   5.683
  645SOL    HW213155   6.925   2.725   5.623
  646SOL     OW13156   4.261   2.223   3.676
  646SOL    HW113157   4.310   2.162   3.739
  646SOL    HW213158   4.207   2.168   3.612
  647SOL     OW13159   3.618   2.436   2.159
  647SOL    HW113160   3.590   2.347   2.122
  647SOL    HW213161   3.635   2.500   2.084
  648SOL     OW13162   7.983   2.687   0.847
  648SOL    HW113163   8.049   2.688   0.922
  648SOL    HW213164   7.992   2.771   0.794
  649SOL     OW13165   0.285   2.347   1.271
  649SOL    HW113166   0.229   2.346   1.354
  649SOL    HW213167   0.311   2.254   1.247
  650SOL     OW13168   0.318   4.077   1.019
  650SOL    HW113169   0.270   4.036   1.097
  650SOL    HW213170   0.388   4.140   1.053
  651SOL     OW13171   8.015   4.779   6.241
  651SOL    HW113172   7.977   4.698   6.287
  651SOL    HW213173   8.114   4.768   6.231
  652SOL     OW13174   2.351   1.706   6.273
  652SOL    HW113175   2.359   1.606   6.278
  652SOL    HW213176   2.432   1.743   6.229
  653SOL     OW13177   6.961   5.576   1.031
  653SOL    HW113178   6.907   5.616   0.956
  653SOL    HW213179   7.054   5.557   0.999
  654SOL     OW13180   3.976   8.147   5.087
  654SOL    HW113181   4.068   8.181   5.067
  654SOL    HW213182   3.924   8.219   5.134
  655SOL     OW13183   2.711   8.898   0.710
  655SOL    HW113184   2.747   8.857   0.794
  655SOL    HW213185   2.686   8.993   0.728
  656SOL     OW13186   8.862   2.540   1.633
  656SOL    HW113187   8.834   2.629   1.598
  656SOL    HW213188   8.781   2.484   1.649
  657SOL     OW13189   0.700   5.423   2.218
  657SOL    HW113190   0.761   5.366   2.272
  657SOL    HW213191   0.641   5.476   2.278
  658SOL     OW13192   8.994   2.577   0.183
  658SOL    HW113193   9.085   2.605   0.152
  658SOL    HW213194   8.965   2.636   0.258
  659SOL     OW13195   4.096   8.526   4.332
  659SOL    HW113196   4.090   8.523   4.432
  659SOL    HW213197   4.139   8.612   4.303
  660SOL     OW13198   9.237   3.865   5.196
  660SOL    HW113199   9.196   3.902   5.279
  660SOL    HW213200   9.309   3.800   5.221
  661SOL     OW13201   6.941   6.357   6.079
  661SOL    HW113202   6.992   6.280   6.040
  661SOL    HW213203   6.844   6.348   6.057
  662SOL     OW13204   3.413   3.834   6.158
  662SOL    HW113205   3.512   3.822   6.152
  662SOL    HW213206   3.367   3.771   6.095
  663SOL     OW13207   7.321   2.708   2.268
  663SOL    HW113208   7.376   2.634   2.307
  663SOL    HW213209   7.246   2.669   2.215
  664SOL     OW13210   9.094   2.595   3.249
  664SOL    HW113211   9.000   2.600   3.217
  664SOL    HW213212   9.101   2.633   3.341
  665SOL     OW13213   5.964   0.954   1.003
  665SOL    HW113214   5.903   1.009   1.060
  665SOL    HW213215   5.996   0.875   1.054
  666SOL     OW13216   4.379   8.885   1.629
  666SOL    HW113217   4.391   8.973   1.583
  666SOL    HW213218   4.463   8.832   1.624
  667SOL     OW13219   4.832   0.392   1.325
  667SOL    HW113220   4.807   0.314   1.267
  667SOL    HW213221   4.906   0.444   1.282
  668SOL     OW13222   3.016   6.965   6.217
  668SOL    HW113223   2.947   6.999   6.280
  668SOL    HW213224   3.017   7.023   6.135
  669SOL     OW13225   9.207   1.371   5.084
  669SOL    HW113226   9.114   1.348   5.058
  669SOL    HW213227   9.235   1.455   5.039
  670SOL     OW13228   7.347   4.005   1.866
  670SOL    HW113229   7.333   4.100   1.892
  670SOL    HW213230   7.444   3.990   1.847
  671SOL     OW13231   5.432   9.629   3.028
  671SOL    HW113232   5.373   9.557   2.993
  671SOL    HW213233   5.523   9.592   3.046
  672SOL     OW13234   2.030   0.309   5.283
  672SOL    HW113235   1.984   0.334   5.368
  672SOL    HW213236   2.119   0.355   5.279
  673SOL     OW13237   7.094   0.280   5.880
  673SOL    HW113238   7.058   0.229   5.802
  673SOL    HW213239   7.132   0.367   5.847
  674SOL     OW13240   2.438   7.023   3.280
  674SOL    HW113241   2.411   7.050   3.373
  674SOL    HW213242   2.460   7.105   3.227
  675SOL     OW13243   2.516   6.070   5.268
  675SOL    HW113244   2.543   5.974   5.261
  675SOL    HW213245   2.509   6.095   5.365
  676SOL     OW13246   0.118   1.464   1.835
  676SOL    HW113247   0.040   1.422   1.882
  676SOL    HW213248   0.160   1.396   1.774
  677SOL     OW13249   9.934   0.814   4.728
  677SOL    HW113250   9.877   0.851   4.655
  677SOL    HW213251   0.006   0.879   4.751
  678SOL     OW13252   3.999   3.486   4.242
  678SOL    HW113253   3.960   3.486   4.335
  678SOL    HW213254   4.085   3.436   4.242
  679SOL     OW13255   3.112   0.771   3.184
  679SOL    HW113256   3.208   0.790   3.201
  679SOL    HW213257   3.079   0.828   3.108
  680SOL     OW13258   2.108   4.441   2.087
  680SOL    HW113259   2.068   4.489   2.009
  680SOL    HW213260   2.071   4.478   2.172
  681SOL     OW13261   0.935   5.548   0.643
  681SOL    HW113262   0.979   5.637   0.636
  681SOL    HW213263   0.974   5.486   0.575
  682SOL     OW13264   0.623   5.852   2.860
  682SOL    HW113265   0.704   5.827   2.808
  682SOL    HW213266   0.593   5.774   2.914
  683SOL     OW13267   0.109   9.462   3.421
  683SOL    HW113268   0.056   9.379   3.437
  683SOL    HW213269   0.113   9.516   3.506
  684SOL     OW13270   5.813   9.630   5.873
  684SOL    HW113271   5.735   9.687   5.900
  684SOL    HW213272   5.821   9.553   5.936
  685SOL     OW13273   7.329   3.799   0.998
  685SOL    HW113274   7.413   3.748   0.979
  685SOL    HW213275   7.353   3.890   1.032
  686SOL     OW13276   0.933   5.321   3.725
  686SOL    HW113277   1.026   5.349   3.703
  686SOL    HW213278   0.925   5.221   3.720
  687SOL     OW13279   6.704   1.716   2.281
  687SOL    HW113280   6.675   1.783   2.213
  687SOL    HW213281   6.659   1.629   2.263
  688SOL     OW13282   0.943   3.006   3.866
  688SOL    HW113283   0.941   3.019   3.767
  688SOL    HW213284   0.883   3.073   3.910
  689SOL     OW13285   1.962   8.778   1.083
  689SOL    HW113286   2.039   8.743   1.137
  689SOL    HW213287   1.912   8.700   1.043
  690SOL     OW13288   2.675   2.375   5.010
  690SOL    HW113289   2.684   2.475   5.006
  690SOL    HW213290   2.582   2.352   5.041
  691SOL     OW13291   7.338   1.878   3.228
  691SOL    HW113292   7.363   1.796   3.280
  691SOL    HW213293   7.296   1.851   3.142
  692SOL     OW13294   1.887   1.595   3.005
  692SOL    HW113295   1.960   1.660   2.987
  692SOL    HW213296   1.866   1.594   3.103
  693SOL     OW13297   0.110   9.557   5.587
  693SOL    HW113298   0.187   9.495   5.572
  693SOL    HW213299   0.099   9.575   5.685
  694SOL     OW13300   0.060   8.315   3.341
  694SOL    HW113301   0.066   8.262   3.256
  694SOL    HW213302   0.151   8.320   3.383
  695SOL     OW13303   2.917   0.976   2.331
  695SOL    HW113304   2.875   1.066   2.339
  695SOL    HW213305   2.970   0.956   2.413
  696SOL     OW13306   7.889   5.547   0.247
  696SOL    HW113307   7.928   5.456   0.261
  696SOL    HW213308   7.950   5.603   0.192
  697SOL     OW13309   1.527   5.586   4.738
  697SOL    HW113310   1.510   5.495   4.702
  697SOL    HW213311   1.559   5.646   4.665
  698SOL     OW13312   0.020   5.612   6.242
  698SOL    HW113313   0.071   5.556   6.178
  698SOL    HW213314   9.965   5.553   6.302
  699SOL     OW13315   8.404   7.364   1.409
  699SOL    HW113316   8.331   7.302   1.380
  699SOL    HW213317   8.402   7.446   1.352
  700SOL     OW13318   9.719   8.291   2.277
  700SOL    HW113319   9.734   8.199   2.314
  700SOL    HW213320   9.621   8.308   2.272
  701SOL     OW13321   1.271   0.312   5.332
  701SOL    HW113322   1.205   0.364   5.278
  701SOL    HW213323   1.336   0.375   5.374
  702SOL     OW13324   1.017   3.302   3.516
  702SOL    HW113325   1.096   3.304   3.577
  702SOL    HW213326   1.029   3.370   3.444
  703SOL     OW13327   2.823   9.832   1.422
  703SOL    HW113328   2.728   9.840   1.391
  703SOL    HW213329   2.878   9.902   1.376
  704SOL     OW13330   7.304   4.272   1.920
  704SOL    HW113331   7.315   4.327   1.838
  704SOL    HW213332   7.370   4.303   1.989
  705SOL     OW13333   5.760   2.430   0.339
  705SOL    HW113334   5.671   2.473   0.322
  705SOL    HW213335   5.823   2.455   0.266
  706SOL     OW13336   5.854   0.675   1.520
  706SOL    HW113337   5.951   0.675   1.496
  706SOL    HW213338   5.830   0.589   1.565
  707SOL     OW13339   5.175   1.857   4.961
  707SOL    HW113340   5.197   1.781   5.023
  707SOL    HW213341   5.204   1.943   5.003
  708SOL     OW13342   8.277   3.379   4.014
  708SOL    HW113343   8.221   3.374   4.096
  708SOL    HW213344   8.317   3.470   4.006
  709SOL     OW13345   8.954   4.316   4.131
  709SOL    HW113346   8.956   4.370   4.215
  709SOL    HW213347   8.912   4.370   4.057
  710SOL     OW13348   6.641   3.528   0.379
  710SOL    HW113349   6.565   3.531   0.315
  710SOL    HW213350   6.704   3.603   0.360
  711SOL     OW13351   4.890   8.351   2.976
  711SOL    HW113352   4.794   8.361   2.950
  711SOL    HW213353   4.917   8.427   3.035
  712SOL     OW13354   2.612   8.107   5.972
  712SOL    HW113355   2.549   8.076   5.901
  712SOL    HW213356   2.564   8.167   6.036
  713SOL     OW13357   9.847   6.685   1.124
  713SOL    HW113358   9.942   6.678   1.094
  713SOL    HW213359   9.837   6.639   1.212
  714SOL     OW13360   4.519   0.401   0.025
  714SOL    HW113361   4.540   0.360   0.114
  714SOL    HW213362   4.592   0.380   8.149
  715SOL     OW13363   9.178   6.707   5.942
  715SOL    HW113364   9.201   6.754   6.027
  715SOL    HW213365   9.262   6.684   5.892
  716SOL     OW13366   5.137   6.000   1.144
  716SOL    HW113367   5.105   6.094   1.155
  716SOL    HW213368   5.113   5.947   1.226
  717SOL     OW13369   0.358   2.100   1.188
  717SOL    HW113370   0.426   2.123   1.118
  717SOL    HW213371   0.374   2.008   1.222
  718SOL     OW13372   1.080   9.814   4.062
  718SOL    HW113373   1.094   9.811   3.963
  718SOL    HW213374   1.146   9.878   4.103
  719SOL     OW13375   5.441   7.795   3.865
  719SOL    HW113376   5.364   7.821   3.807
  719SOL    HW213377   5.411   7.727   3.932
  720SOL     OW13378   8.732   3.832   1.278
  720SOL    HW113379   8.813   3.888   1.294
  720SOL    HW213380   8.695   3.852   1.187
  721SOL     OW13381   2.124   6.031   3.471
  721SOL    HW113382   2.194   6.102   3.468
  721SOL    HW213383   2.040   6.065   3.428
  722SOL     OW13384   0.008   0.663   2.839
  722SOL    HW113385   9.939   0.686   2.908
  722SOL    HW213386   0.068   0.742   2.825
  723SOL     OW13387   1.340   9.543   3.234
  723SOL    HW113388   1.373   9.629   3.272
  723SOL    HW213389   1.308   9.484   3.308
  724SOL     OW13390   9.749   1.886   6.331
  724SOL    HW113391   9.728   1.949   6.256
  724SOL    HW213392   9.706   1.919   6.415
  725SOL     OW13393   5.296   8.026   3.382
  725SOL    HW113394   5.345   7.950   3.425
  725SOL    HW213395   5.293   8.014   3.283
  726SOL     OW13396   1.324   8.963   4.341
  726SOL    HW113397   1.263   8.937   4.417
  726SOL    HW213398   1.327   8.889   4.274
  727SOL     OW13399   8.928   8.410   5.874
  727SOL    HW113400   8.968   8.328   5.833
  727SOL    HW213401   9.001   8.474   5.896
  728SOL     OW13402   0.818   7.085   2.717
  728SOL    HW113403   0.740   7.107   2.659
  728SOL    HW213404   0.868   7.168   2.739
  729SOL     OW13405   9.927   5.301   2.434
  729SOL    HW113406   9.932   5.202   2.443
  729SOL    HW213407   9.855   5.337   2.493
  730SOL     OW13408   2.013   7.887   2.543
  730SOL    HW113409   2.103   7.930   2.533
  730SOL    HW213410   1.952   7.950   2.591
  731SOL     OW13411   3.656   4.976   5.343
  731SOL    HW113412   3.656   5.036   5.422
  731SOL    HW213413   3.601   5.017   5.269
  732SOL     OW13414   8.999   0.284   2.668
  732SOL    HW113415   8.902   0.293   2.690
  732SOL    HW213416   9.016   0.195   2.626
  733SOL     OW13417   7.059   9.932   5.508
  733SOL    HW113418   6.971   9.886   5.501
  733SOL    HW213419   7.129   9.867   5.538
  734SOL     OW13420   3.946   5.351   4.088
  734SOL    HW113421   3.939   5.443   4.050
  734SOL    HW213422   3.965   5.356   4.186
  735SOL     OW13423   8.811   9.954   2.835
  735SOL    HW113424   8.888   0.010   2.803
  735SOL    HW213425   8.763   9.916   2.756
  736SOL     OW13426   5.592   1.895   3.107
  736SOL    HW113427   5.573   1.854   3.018
  736SOL    HW213428   5.672   1.851   3.147
  737SOL     OW13429   0.747   3.796   6.273
  737SOL    HW113430   0.843   3.778   6.295
  737SOL    HW213431   0.688   3.744   6.335
  738SOL     OW13432   8.221   0.589   3.836
  738SOL    HW113433   8.290   0.658   3.813
  738SOL    HW213434   8.150   0.631   3.893
  739SOL     OW13435   0.587   3.388   0.297
  739SOL    HW113436   0.629   3.477   0.278
  739SOL    HW213437   0.487   3.397   0.288
  740SOL     OW13438   0.893   9.927   0.572
  740SOL    HW113439   0.796   9.948   0.561
  740SOL    HW213440   0.940   0.006   0.610
  741SOL     OW13441   4.920   0.434   2.728
  741SOL    HW113442   4.983   0.356   2.727
  741SOL    HW213443   4.886   0.451   2.636
  742SOL     OW13444   6.398   8.969   4.954
  742SOL    HW113445   6.434   8.928   4.870
  742SOL    HW213446   6.300   8.955   4.959
  743SOL     OW13447   2.429   6.999   3.939
  743SOL    HW113448   2.450   6.999   4.037
  743SOL    HW213449   2.461   6.913   3.898
  744SOL     OW13450   2.260   5.526   2.931
  744SOL    HW113451   2.221   5.538   2.839
  744SOL    HW213452   2.309   5.609   2.957
  745SOL     OW13453   7.235   4.639   1.051
  745SOL    HW113454   7.184   4.613   1.133
  745SOL    HW213455   7.314   4.578   1.041
  746SOL     OW13456   3.428   4.413   2.053
  746SOL    HW113457   3.449   4.315   2.055
  746SOL    HW213458   3.387   4.440   2.139
  747SOL     OW13459   4.835   0.164   4.669
  747SOL    HW113460   4.929   0.174   4.637
  747SOL    HW213461   4.773   0.157   4.591
  748SOL     OW13462   4.367   9.839   5.462
  748SOL    HW113463   4.418   9.900   5.523
  748SOL    HW213464   4.318   9.771   5.517
  749SOL     OW13465   3.045   6.665   1.617
  749SOL    HW113466   3.096   6.615   1.547
  749SOL    HW213467   3.014   6.601   1.688
  750SOL     OW13468   7.641   8.840   3.089
  750SOL    HW113469   7.664   8.748   3.120
  750SOL    HW213470   7.658   8.906   3.163
  751SOL     OW13471   4.758   9.944   5.574
  751SOL    HW113472   4.661   9.943   5.600
  751SOL    HW213473   4.787   0.038   5.557
  752SOL     OW13474   0.961   1.948   3.500
  752SOL    HW113475   0.985   1.861   3.455
  752SOL    HW213476   1.026   2.018   3.472
  753SOL     OW13477   1.170   3.506   5.668
  753SOL    HW113478   1.212   3.596   5.672
  753SOL    HW213479   1.158   3.470   5.761
  754SOL     OW13480   5.550   9.214   4.022
  754SOL    HW113481   5.630   9.154   4.013
  754SOL    HW213482   5.508   9.201   4.112
  755SOL     OW13483   7.206   1.773   3.008
  755SOL    HW113484   7.229   1.752   2.913
  755SOL    HW213485   7.114   1.813   3.012
  756SOL     OW13486   2.221   0.186   1.432
  756SOL    HW113487   2.225   0.217   1.527
  756SOL    HW213488   2.131   0.205   1.394
  757SOL     OW13489   7.484   0.335   6.051
  757SOL    HW113490   7.389   0.305   6.060
  757SOL    HW213491   7.489   0.418   5.997
  758SOL     OW13492   2.069   1.947   2.167
  758SOL    HW113493   2.158   1.903   2.173
  758SOL    HW213494   1.998   1.884   2.199
  759SOL     OW13495   0.333   2.264   0.306
  759SOL    HW113496   0.304   2.324   0.232
  759SOL    HW213497   0.357   2.318   0.387
  760SOL     OW13498   0.352   8.528   2.769
  760SOL    HW113499   0.272   8.468   2.771
  760SOL    HW213500   0.371   8.561   2.862
  761SOL     OW13501   6.675   2.627   5.376
  761SOL    HW113502   6.737   2.635   5.454
  761SOL    HW213503   6.712   2.562   5.310
  762SOL     OW13504   1.696   0.590   0.489
  762SOL    HW113505   1.675   0.593   0.391
  762SOL    HW213506   1.650   0.511   0.530
  763SOL     OW13507   6.976   3.004   4.176
  763SOL    HW113508   6.956   2.948   4.096
  763SOL    HW213509   6.923   2.971   4.254
  764SOL     OW13510   4.475   9.602   1.652
  764SOL    HW113511   4.562   9.650   1.644
  764SOL    HW213512   4.403   9.655   1.606
  765SOL     OW13513   5.980   2.056   4.519
  765SOL    HW113514   6.066   2.101   4.497
  765SOL    HW213515   5.972   2.045   4.618
  766SOL     OW13516   3.129   8.396   1.667
  766SOL    HW113517   3.126   8.408   1.568
  766SOL    HW213518   3.071   8.464   1.711
  767SOL     OW13519   8.980   6.143   0.615
  767SOL    HW113520   9.077   6.168   0.612
  767SOL    HW213521   8.959   6.081   0.539
  768SOL     OW13522   6.333   1.949   1.174
  768SOL    HW113523   6.313   1.911   1.264
  768SOL    HW213524   6.270   1.910   1.106
  769SOL     OW13525   3.056   4.736   1.552
  769SOL    HW113526   3.102   4.787   1.624
  769SOL    HW213527   2.978   4.789   1.518
  770SOL     OW13528   0.528   0.867   1.457
  770SOL    HW113529   0.593   0.869   1.533
  770SOL    HW213530   0.563   0.925   1.382
  771SOL     OW13531   8.854   7.505   2.651
  771SOL    HW113532   8.788   7.565   2.606
  771SOL    HW213533   8.851   7.519   2.750
  772SOL     OW13534   0.312   3.411   0.303
  772SOL    HW113535   0.264   3.338   0.351
  772SOL    HW213536   0.267   3.429   0.216
  773SOL     OW13537   2.875   5.569   1.279
  773SOL    HW113538   2.950   5.634   1.292
  773SOL    HW213539   2.882   5.498   1.348
  774SOL     OW13540   3.267   2.200   0.700
  774SOL    HW113541   3.181   2.250   0.705
  774SOL    HW213542   3.253   2.113   0.653
  775SOL     OW13543   9.754   7.349   4.877
  775SOL    HW113544   9.694   7.269   4.871
  775SOL    HW213545   9.713   7.416   4.940
  776SOL     OW13546   4.216   9.669   1.411
  776SOL    HW113547   4.149   9.649   1.483
  776SOL    HW213548   4.266   9.586   1.389
  777SOL     OW13549   8.302   9.597   2.577
  777SOL    HW113550   8.208   9.584   2.609
  777SOL    HW213551   8.304   9.671   2.510
  778SOL     OW13552   0.868   6.479   0.557
  778SOL    HW113553   0.902   6.393   0.594
  778SOL    HW213554   0.886   6.553   0.621
  779SOL     OW13555   3.996   8.975   4.236
  779SOL    HW113556   3.987   8.969   4.136
  779SOL    HW213557   3.906   8.963   4.278
  780SOL     OW13558   2.000   6.917   4.169
  780SOL    HW113559   1.997   6.853   4.246
  780SOL    HW213560   1.911   6.917   4.123
  781SOL     OW13561   5.838   0.295   1.457
  781SOL    HW113562   5.824   0.325   1.363
  781SOL    HW213563   5.789   0.355   1.519
  782SOL     OW13564   8.513   1.472   3.569
  782SOL    HW113565   8.610   1.479   3.544
  782SOL    HW213566   8.457   1.471   3.486
  783SOL     OW13567   1.548   9.966   4.139
  783SOL    HW113568   1.571   0.013   4.054
  783SOL    HW213569   1.584   9.872   4.136
  784SOL     OW13570   1.698   4.001   3.655
  784SOL    HW113571   1.727   3.969   3.745
  784SOL    HW213572   1.771   4.057   3.615
  785SOL     OW13573   8.660   7.826   0.258
  785SOL    HW113574   8.755   7.796   0.270
  785SOL    HW213575   8.603   7.747   0.238
  786SOL     OW13576   2.081   0.999   2.454
  786SOL    HW113577   2.147   0.927   2.435
  786SOL    HW213578   1.993   0.975   2.414
  787SOL     OW13579   3.777   5.188   2.959
  787SOL    HW113580   3.703   5.188   3.027
  787SOL    HW213581   3.764   5.112   2.895
  788SOL     OW13582   3.595   5.944   2.514
  788SOL    HW113583   3.585   6.010   2.439
  788SOL    HW213584   3.678   5.965   2.567
  789SOL     OW13585   7.214   4.308   1.269
  789SOL    HW113586   7.140   4.258   1.314
  789SOL    HW213587   7.209   4.295   1.170
  790SOL     OW13588   8.813   8.678   6.055
  790SOL    HW113589   8.812   8.776   6.075
  790SOL    HW213590   8.906   8.650   6.030
  791SOL     OW13591   0.564   1.434   0.051
  791SOL    HW113592   0.662   1.452   0.062
  791SOL    HW213593   0.512   1.516   0.076
  792SOL     OW13594   6.371   1.676   2.047
  792SOL    HW113595   6.321   1.669   1.961
  792SOL    HW213596   6.311   1.649   2.123
  793SOL     OW13597   7.213   2.197   1.172
  793SOL    HW113598   7.228   2.242   1.260
  793SOL    HW213599   7.151   2.119   1.184
  794SOL     OW13600   0.521   3.454   6.171
  794SOL    HW113601   0.513   3.503   6.258
  794SOL    HW213602   0.575   3.509   6.108
  795SOL     OW13603   1.496   5.591   2.176
  795SOL    HW113604   1.567   5.523   2.161
  795SOL    HW213605   1.514   5.672   2.121
  796SOL     OW13606   6.770   4.019   1.107
  796SOL    HW113607   6.712   4.099   1.098
  796SOL    HW213608   6.852   4.031   1.051
  797SOL     OW13609   5.574   7.788   5.697
  797SOL    HW113610   5.629   7.829   5.770
  797SOL    HW213611   5.627   7.790   5.612
  798SOL     OW13612   3.671   4.789   3.910
  798SOL    HW113613   3.729   4.837   3.844
  798SOL    HW213614   3.705   4.804   4.002
  799SOL     OW13615   4.194   7.116   2.971
  799SOL    HW113616   4.202   7.018   2.987
  799SOL    HW213617   4.254   7.165   3.034
  800SOL     OW13618   9.149   6.465   2.848
  800SOL    HW113619   9.221   6.532   2.869
  800SOL    HW213620   9.066   6.490   2.897
  801SOL     OW13621   0.662   6.772   3.752
  801SOL    HW113622   0.594   6.775   3.679
  801SOL    HW213623   0.754   6.777   3.712
  802SOL     OW13624   6.744   2.288   5.674
  802SOL    HW113625   6.744   2.204   5.621
  802SOL    HW213626   6.820   2.346   5.645
  803SOL     OW13627   7.832   7.671   4.757
  803SOL    HW113628   7.929   7.695   4.755
  803SOL    HW213629   7.784   7.730   4.822
  804SOL     OW13630   3.726   7.105   3.226
  804SOL    HW113631   3.725   7.133   3.322
  804SOL    HW213632   3.659   7.158   3.174
  805SOL     OW13633   9.678   6.485   5.229
  805SOL    HW113634   9.629   6.410   5.272
  805SOL    HW213635   9.775   6.478   5.250
  806SOL     OW13636   0.690   1.723   5.109
  806SOL    HW113637   0.725   1.816   5.106
  806SOL    HW213638   0.590   1.725   5.102
  807SOL     OW13639   1.441   9.886   5.523
  807SOL    HW113640   1.385   9.955   5.478
  807SOL    HW213641   1.411   9.795   5.496
  808SOL     OW13642   1.033   1.975   3.064
  808SOL    HW113643   1.010   2.057   3.115
  808SOL    HW213644   1.132   1.970   3.050
  809SOL     OW13645   0.194   4.856   1.685
  809SOL    HW113646   0.124   4.923   1.662
  809SOL    HW213647   0.170   4.768   1.645
  810SOL     OW13648   5.568   0.754   6.405
  810SOL    HW113649   5.538   0.805   6.324
  810SOL    HW213650   5.597   0.817   6.476
  811SOL     OW13651   6.417   9.939   3.552
  811SOL    HW113652   6.326   9.968   3.578
  811SOL    HW213653   6.485   9.982   3.611
  812SOL     OW13654   8.986   0.305   0.449
  812SOL    HW113655   9.033   0.381   0.494
  812SOL    HW213656   8.976   0.229   0.513
  813SOL     OW13657   7.281   8.967   3.234
  813SOL    HW113658   7.348   8.946   3.305
  813SOL    HW213659   7.189   8.951   3.270
  814SOL     OW13660   3.949   7.439   3.063
  814SOL    HW113661   3.936   7.340   3.052
  814SOL    HW213662   4.021   7.470   3.001
  815SOL     OW13663   0.541   8.766   1.323
  815SOL    HW113664   0.545   8.824   1.404
  815SOL    HW213665   0.623   8.781   1.267
  816SOL     OW13666   0.677   1.763   0.958
  816SOL    HW113667   0.741   1.693   0.990
  816SOL    HW213668   0.593   1.719   0.925
  817SOL     OW13669   3.450   9.170   3.338
  817SOL    HW113670   3.491   9.213   3.418
  817SOL    HW213671   3.358   9.206   3.324
  818SOL     OW13672   3.719   5.520   1.040
  818SOL    HW113673   3.734   5.448   0.972
  818SOL    HW213674   3.636   5.500   1.092
  819SOL     OW13675   4.146   1.109   3.832
  819SOL    HW113676   4.168   1.206   3.844
  819SOL    HW213677   4.208   1.069   3.765
  820SOL     OW13678   3.826   0.450   2.006
  820SOL    HW113679   3.770   0.501   2.072
  820SOL    HW213680   3.766   0.401   1.943
  821SOL     OW13681   3.861   2.560   0.907
  821SOL    HW113682   3.852   2.461   0.898
  821SOL    HW213683   3.839   2.587   1.000
  822SOL     OW13684   0.857   0.912   2.656
  822SOL    HW113685   0.956   0.908   2.671
  822SOL    HW213686   0.821   0.999   2.688
  823SOL     OW13687   2.265   6.785   2.492
  823SOL    HW113688   2.330   6.720   2.531
  823SOL    HW213689   2.175   6.770   2.532
  824SOL     OW13690   4.992   8.188   2.046
  824SOL    HW113691   5.050   8.107   2.044
  824SOL    HW213692   4.921   8.181   1.975
  825SOL     OW13693   0.901   5.449   0.171
  825SOL    HW113694   0.907   5.547   0.186
  825SOL    HW213695   0.992   5.412   0.151
  826SOL     OW13696   8.647   2.392   3.580
  826SOL    HW113697   8.692   2.308   3.611
  826SOL    HW213698   8.557   2.399   3.621
  827SOL     OW13699   0.142   8.712   5.716
  827SOL    HW113700   0.095   8.747   5.797
  827SOL    HW213701   0.241   8.717   5.732
  828SOL     OW13702   9.921   0.191   0.227
  828SOL    HW113703   9.902   0.093   0.237
  828SOL    HW213704   9.842   0.236   0.185
  829SOL     OW13705   0.661   7.263   5.281
  829SOL    HW113706   0.610   7.184   5.248
  829SOL    HW213707   0.750   7.232   5.317
  830SOL     OW13708   7.382   8.934   4.208
  830SOL    HW113709   7.292   8.891   4.199
  830SOL    HW213710   7.392   8.972   4.300
  831SOL     OW13711   2.122   2.081   6.127
  831SOL    HW113712   2.105   2.005   6.190
  831SOL    HW213713   2.219   2.083   6.104
  832SOL     OW13714   6.368   9.009   2.653
  832SOL    HW113715   6.449   9.046   2.608
  832SOL    HW213716   6.317   8.952   2.588
  833SOL     OW13717   7.528   5.781   1.983
  833SOL    HW113718   7.609   5.839   1.980
  833SOL    HW213719   7.524   5.734   2.072
  834SOL     OW13720   2.903   1.375   5.795
  834SOL    HW113721   2.849   1.303   5.838
  834SOL    HW213722   2.983   1.395   5.852
  835SOL     OW13723   5.910   8.428   4.097
  835SOL    HW113724   6.000   8.432   4.053
  835SOL    HW213725   5.903   8.344   4.151
  836SOL     OW13726   6.931   7.370   6.230
  836SOL    HW113727   6.870   7.375   6.151
  836SOL    HW213728   6.904   7.294   6.289
  837SOL     OW13729   9.023   2.932   0.983
  837SOL    HW113730   8.967   2.989   0.922
  837SOL    HW213731   9.071   2.991   1.048
  838SOL     OW13732   3.051   8.338   0.178
  838SOL    HW113733   3.050   8.255   0.234
  838SOL    HW213734   3.145   8.371   0.168
  839SOL     OW13735   3.858   2.461   5.881
  839SOL    HW113736   3.877   2.553   5.916
  839SOL    HW213737   3.761   2.455   5.856
  840SOL     OW13738   3.047   0.967   3.383
  840SOL    HW113739   2.954   0.973   3.417
  840SOL    HW213740   3.056   0.887   3.324
  841SOL     OW13741   9.274   1.640   4.464
  841SOL    HW113742   9.327   1.725   4.465
  841SOL    HW213743   9.182   1.658   4.430
  842SOL     OW13744   7.989   2.640   3.162
  842SOL    HW113745   8.051   2.707   3.120
  842SOL    HW213746   7.969   2.567   3.097
  843SOL     OW13747   1.977   6.210   2.062
  843SOL    HW113748   2.011   6.118   2.042
  843SOL    HW213749   1.911   6.237   1.992
  844SOL     OW13750   3.552   2.188   2.052
  844SOL    HW113751   3.461   2.146   2.054
  844SOL    HW213752   3.589   2.182   1.959
  845SOL     OW13753   3.262   2.244   1.696
  845SOL    HW113754   3.355   2.238   1.659
  845SOL    HW213755   3.226   2.152   1.710
  846SOL     OW13756   0.102   4.782   4.638
  846SOL    HW113757   0.178   4.778   4.573
  846SOL    HW213758   0.137   4.765   4.730
  847SOL     OW13759   4.595   2.420   0.492
  847SOL    HW113760   4.533   2.345   0.515
  847SOL    HW213761   4.657   2.392   0.419
  848SOL     OW13762   4.771   7.727   6.224
  848SOL    HW113763   4.716   7.643   6.224
  848SOL    HW213764   4.727   7.795   6.282
  849SOL     OW13765   5.246   9.336   5.175
  849SOL    HW113766   5.184   9.414   5.166
  849SOL    HW213767   5.220   9.265   5.110
  850SOL     OW13768   7.110   8.545   5.753
  850SOL    HW113769   7.012   8.527   5.739
  850SOL    HW213770   7.125   8.643   5.754
  851SOL     OW13771   0.687   9.228   5.275
  851SOL    HW113772   0.666   9.134   5.303
  851SOL    HW213773   0.630   9.291   5.327
  852SOL     OW13774   1.540   5.998   3.610
  852SOL    HW113775   1.474   5.983   3.683
  852SOL    HW213776   1.630   6.016   3.648
  853SOL     OW13777   7.558   3.672   5.591
  853SOL    HW113778   7.597   3.764   5.603
  853SOL    HW213779   7.520   3.641   5.678
  854SOL     OW13780   3.494   9.166   5.660
  854SOL    HW113781   3.479   9.115   5.575
  854SOL    HW213782   3.512   9.102   5.735
  855SOL     OW13783   0.958   8.084   3.687
  855SOL    HW113784   1.040   8.079   3.744
  855SOL    HW213785   0.878   8.102   3.745
  856SOL     OW13786   0.079   4.133   6.035
  856SOL    HW113787   0.017   4.080   6.093
  856SOL    HW213788   0.029   4.169   5.957
  857SOL     OW13789   5.254   5.654   1.675
  857SOL    HW113790   5.169   5.606   1.695
  857SOL    HW213791   5.258   5.672   1.576
  858SOL     OW13792   7.276   8.313   6.095
  858SOL    HW113793   7.289   8.359   6.183
  858SOL    HW213794   7.352   8.249   6.080
  859SOL     OW13795   1.679   6.499   6.035
  859SOL    HW113796   1.586   6.484   6.069
  859SOL    HW213797   1.695   6.597   6.025
  860SOL     OW13798   0.992   1.335   0.646
  860SOL    HW113799   1.060   1.266   0.620
  860SOL    HW213800   1.031   1.426   0.634
  861SOL     OW13801   0.628   8.759   5.190
  861SOL    HW113802   0.559   8.705   5.237
  861SOL    HW213803   0.583   8.819   5.123
  862SOL     OW13804   1.666   7.367   1.413
  862SOL    HW113805   1.581   7.409   1.445
  862SOL    HW213806   1.725   7.436   1.372
  863SOL     OW13807   0.852   6.274   2.562
  863SOL    HW113808   0.894   6.213   2.497
  863SOL    HW213809   0.837   6.226   2.649
  864SOL     OW13810   6.259   0.878   4.950
  864SOL    HW113811   6.257   0.835   5.040
  864SOL    HW213812   6.187   0.838   4.893
  865SOL     OW13813   0.724   9.659   3.160
  865SOL    HW113814   0.690   9.752   3.147
  865SOL    HW213815   0.815   9.651   3.120
  866SOL     OW13816   5.120   1.279   1.850
  866SOL    HW113817   5.147   1.284   1.754
  866SOL    HW213818   5.119   1.183   1.879
  867SOL     OW13819   6.427   9.609   2.936
  867SOL    HW113820   6.477   9.643   3.015
  867SOL    HW213821   6.332   9.641   2.940
  868SOL     OW13822   1.190   0.725   3.810
  868SOL    HW113823   1.222   0.698   3.719
  868SOL    HW213824   1.226   0.815   3.832
  869SOL     OW13825   0.685   6.097   4.396
  869SOL    HW113826   0.699   6.192   4.368
  869SOL    HW213827   0.673   6.040   4.315
  870SOL     OW13828   9.653   0.382   4.814
  870SOL    HW113829   9.710   0.306   4.781
  870SOL    HW213830   9.556   0.357   4.804
  871SOL     OW13831   0.185   0.333   1.477
  871SOL    HW113832   0.132   0.317   1.560
  871SOL    HW213833   0.265   0.389   1.498
  872SOL     OW13834   2.002   2.295   3.968
  872SOL    HW113835   1.994   2.391   3.943
  872SOL    HW213836   1.912   2.260   3.995
  873SOL     OW13837   1.470   5.881   1.053
  873SOL    HW113838   1.484   5.785   1.075
  873SOL    HW213839   1.558   5.927   1.048
  874SOL     OW13840   8.093   3.745   1.494
  874SOL    HW113841   8.079   3.827   1.549
  874SOL    HW213842   8.065   3.665   1.546
  875SOL     OW13843   2.195   9.377   4.123
  875SOL    HW113844   2.199   9.304   4.055
  875SOL    HW213845   2.116   9.364   4.182
  876SOL     OW13846   1.459   7.216   4.591
  876SOL    HW113847   1.500   7.273   4.519
  876SOL    HW213848   1.361   7.233   4.594
  877SOL     OW13849   4.661   2.174   4.672
  877SOL    HW113850   4.602   2.232   4.728
  877SOL    HW213851   4.677   2.219   4.584
  878SOL     OW13852   7.456   3.580   5.829
  878SOL    HW113853   7.473   3.512   5.901
  878SOL    HW213854   7.361   3.574   5.800
  879SOL     OW13855   9.506   8.749   5.718
  879SOL    HW113856   9.468   8.664   5.755
  879SOL    HW213857   9.466   8.766   5.628
  880SOL     OW13858   9.504   5.002   2.355
  880SOL    HW113859   9.526   4.913   2.315
  880SOL    HW213860   9.415   4.997   2.401
  881SOL     OW13861   9.431   9.847   5.141
  881SOL    HW113862   9.332   9.834   5.130
  881SOL    HW213863   9.476   9.830   5.053
  882SOL     OW13864   9.167   6.569   1.215
  882SOL    HW113865   9.095   6.638   1.225
  882SOL    HW213866   9.213   6.582   1.128
  883SOL     OW13867   1.372   0.785   3.333
  883SOL    HW113868   1.304   0.765   3.263
  883SOL    HW213869   1.379   0.884   3.346
  884SOL     OW13870   7.282   3.002   4.457
  884SOL    HW113871   7.288   3.031   4.552
  884SOL    HW213872   7.326   2.913   4.446
  885SOL     OW13873   0.188   5.875   0.739
  885SOL    HW113874   0.136   5.862   0.654
  885SOL    HW213875   0.134   5.931   0.802
  886SOL     OW13876   2.596   8.520   1.562
  886SOL    HW113877   2.496   8.519   1.563
  886SOL    HW213878   2.630   8.430   1.591
  887SOL     OW13879   3.928   7.403   4.343
  887SOL    HW113880   3.974   7.478   4.296
  887SOL    HW213881   3.830   7.406   4.322
  888SOL     OW13882   2.976   4.528   5.229
  888SOL    HW113883   2.994   4.440   5.274
  888SOL    HW213884   3.035   4.598   5.268
  889SOL     OW13885   1.991   0.119   0.736
  889SOL    HW113886   2.024   0.118   0.830
  889SOL    HW213887   2.069   0.127   0.673
  890SOL     OW13888   0.997   1.996   4.973
  890SOL    HW113889   1.008   2.091   4.944
  890SOL    HW213890   0.910   1.987   5.023
  891SOL     OW13891   0.885   1.998   2.831
  891SOL    HW113892   0.940   2.004   2.747
  891SOL    HW213893   0.946   1.997   2.910
  892SOL     OW13894   2.882   5.320   3.849
  892SOL    HW113895   2.877   5.277   3.759
  892SOL    HW213896   2.860   5.252   3.919
  893SOL     OW13897   2.721   8.349   2.475
  893SOL    HW113898   2.702   8.296   2.558
  893SOL    HW213899   2.740   8.286   2.400
  894SOL     OW13900   5.354   6.279   0.958
  894SOL    HW113901   5.257   6.292   0.939
  894SOL    HW213902   5.400   6.368   0.964
  895SOL     OW13903   0.867   2.971   1.919
  895SOL    HW113904   0.913   3.057   1.895
  895SOL    HW213905   0.927   2.918   1.979
  896SOL     OW13906   4.619   3.178   6.049
  896SOL    HW113907   4.604   3.249   5.980
  896SOL    HW213908   4.716   3.159   6.057
  897SOL     OW13909   9.773   2.423   5.670
  897SOL    HW113910   9.688   2.392   5.711
  897SOL    HW213911   9.768   2.414   5.571
  898SOL     OW13912   6.111   1.351   4.577
  898SOL    HW113913   6.017   1.384   4.577
  898SOL    HW213914   6.173   1.426   4.556
  899SOL     OW13915   1.953   6.481   3.889
  899SOL    HW113916   1.981   6.559   3.832
  899SOL    HW213917   1.955   6.397   3.834
  900SOL     OW13918   4.000   0.346   1.582
  900SOL    HW113919   3.903   0.322   1.576
  900SOL    HW213920   4.055   0.274   1.539
  901SOL     OW13921   8.256   9.423   4.505
  901SOL    HW113922   8.209   9.511   4.506
  901SOL    HW213923   8.355   9.437   4.506
  902SOL     OW13924   6.704   1.714   3.347
  902SOL    HW113925   6.722   1.672   3.258
  902SOL    HW213926   6.754   1.665   3.418
  903SOL     OW13927   2.951   1.013   2.061
  903SOL    HW113928   2.994   1.102   2.046
  903SOL    HW213929   2.940   0.997   2.159
  904SOL     OW13930   0.336   0.669   3.085
  904SOL    HW113931   0.340   0.750   3.143
  904SOL    HW213932   0.253   0.618   3.105
  905SOL     OW13933   5.407   8.687   6.170
  905SOL    HW113934   5.407   8.657   6.075
  905SOL    HW213935   5.327   8.650   6.217
  906SOL     OW13936   9.286   9.588   4.421
  906SOL    HW113937   9.303   9.684   4.400
  906SOL    HW213938   9.191   9.566   4.399
  907SOL     OW13939   1.693   1.154   4.111
  907SOL    HW113940   1.608   1.164   4.059
  907SOL    HW213941   1.689   1.070   4.165
  908SOL     OW13942   3.132   6.421   2.130
  908SOL    HW113943   3.103   6.511   2.165
  908SOL    HW213944   3.051   6.363   2.117
  909SOL     OW13945   8.741   2.549   0.492
  909SOL    HW113946   8.682   2.474   0.520
  909SOL    HW213947   8.834   2.515   0.477
  910SOL     OW13948   6.743   0.398   5.493
  910SOL    HW113949   6.805   0.329   5.455
  910SOL    HW213950   6.756   0.402   5.592
  911SOL     OW13951   0.017   2.124   3.425
  911SOL    HW113952   0.088   2.194   3.428
  911SOL    HW213953   9.957   2.134   3.504
  912SOL     OW13954   0.694   9.628   6.053
  912SOL    HW113955   0.681   9.684   6.135
  912SOL    HW213956   0.792   9.622   6.032
  913SOL     OW13957   6.776   8.000   5.809
  913SOL    HW113958   6.742   7.970   5.898
  913SOL    HW213959   6.858   7.947   5.785
  914SOL     OW13960   6.121   2.254   5.145
  914SOL    HW113961   6.040   2.308   5.169
  914SOL    HW213962   6.189   2.314   5.103
  915SOL     OW13963   6.471   0.319   2.168
  915SOL    HW113964   6.539   0.254   2.201
  915SOL    HW213965   6.390   0.313   2.226
  916SOL     OW13966   8.912   9.452   0.382
  916SOL    HW113967   8.878   9.440   0.288
  916SOL    HW213968   8.988   9.388   0.398
  917SOL     OW13969   7.017   7.695   4.538
  917SOL    HW113970   7.104   7.744   4.537
  917SOL    HW213971   6.980   7.690   4.445
  918SOL     OW13972   1.247   8.047   4.212
  918SOL    HW113973   1.238   8.083   4.305
  918SOL    HW213974   1.158   8.050   4.167
  919SOL     OW13975   4.808   3.621   4.595
  919SOL    HW113976   4.836   3.705   4.547
  919SOL    HW213977   4.730   3.581   4.548
  920SOL     OW13978   7.084   9.966   2.506
  920SOL    HW113979   7.149   0.039   2.485
  920SOL    HW213980   6.991   9.999   2.491
  921SOL     OW13981   7.454   1.227   3.315
  921SOL    HW113982   7.408   1.139   3.323
  921SOL    HW213983   7.434   1.283   3.395
  922SOL     OW13984   1.572   4.237   5.982
  922SOL    HW113985   1.489   4.190   5.951
  922SOL    HW213986   1.571   4.330   5.946
  923SOL     OW13987   9.924   2.154   4.384
  923SOL    HW113988   0.022   2.172   4.391
  923SOL    HW213989   9.906   2.095   4.306
  924SOL     OW13990   1.394   0.576   2.946
  924SOL    HW113991   1.398   0.676   2.937
  924SOL    HW213992   1.319   0.541   2.891
  925SOL     OW13993   6.633   9.519   4.990
  925SOL    HW113994   6.599   9.465   4.913
  925SOL    HW213995   6.731   9.503   5.002
  926SOL     OW13996   3.640   6.098   2.822
  926SOL    HW113997   3.705   6.052   2.760
  926SOL    HW213998   3.618   6.188   2.785
  927SOL     OW13999   3.518   5.859   3.697
  927SOL    HW114000   3.430   5.889   3.661
  927SOL    HW214001   3.516   5.761   3.713
  928SOL     OW14002   2.257   0.475   0.819
  928SOL    HW114003   2.236   0.458   0.723
  928SOL    HW214004   2.184   0.438   0.877
  929SOL     OW14005   7.197   1.542   6.167
  929SOL    HW114006   7.177   1.623   6.223
  929SOL    HW214007   7.217   1.465   6.227
  930SOL     OW14008   8.468   1.515   2.198
  930SOL    HW114009   8.404   1.564   2.258
  930SOL    HW214010   8.541   1.577   2.170
  931SOL     OW14011   0.772   2.394   6.207
  931SOL    HW114012   0.784   2.475   6.264
  931SOL    HW214013   0.842   2.393   6.135
  932SOL     OW14014   2.451   0.491   1.536
  932SOL    HW114015   2.535   0.466   1.488
  932SOL    HW214016   2.450   0.450   1.627
  933SOL     OW14017   5.294   8.401   3.016
  933SOL    HW114018   5.262   8.307   3.012
  933SOL    HW214019   5.302   8.438   2.924
  934SOL     OW14020   3.520   0.583   3.533
  934SOL    HW114021   3.511   0.495   3.581
  934SOL    HW214022   3.594   0.636   3.576
  935SOL     OW14023   0.573   6.067   2.698
  935SOL    HW114024   0.573   5.986   2.757
  935SOL    HW214025   0.499   6.128   2.726
  936SOL     OW14026   8.623   6.766   1.948
  936SOL    HW114027   8.614   6.741   2.044
  936SOL    HW214028   8.701   6.828   1.937
  937SOL     OW14029   8.158   1.979   5.696
  937SOL    HW114030   8.184   2.015   5.786
  937SOL    HW214031   8.228   2.002   5.629
  938SOL     OW14032   6.014   8.424   6.237
  938SOL    HW114033   6.045   8.509   6.279
  938SOL    HW214034   6.042   8.347   6.293
  939SOL     OW14035   0.633   6.336   0.183
  939SOL    HW114036   0.626   6.368   0.277
  939SOL    HW214037   0.551   6.362   0.132
  940SOL     OW14038   2.280   6.848   4.214
  940SOL    HW114039   2.189   6.884   4.191
  940SOL    HW214040   2.347   6.923   4.211
  941SOL     OW14041   7.860   3.786   4.991
  941SOL    HW114042   7.896   3.732   4.914
  941SOL    HW214043   7.886   3.882   4.980
  942SOL     OW14044   9.817   3.984   3.859
  942SOL    HW114045   9.901   4.037   3.845
  942SOL    HW214046   9.840   3.891   3.889
  943SOL     OW14047   4.791   0.727   2.464
  943SOL    HW114048   4.887   0.748   2.450
  943SOL    HW214049   4.778   0.628   2.467
  944SOL     OW14050   3.258   4.272   5.616
  944SOL    HW114051   3.344   4.306   5.654
  944SOL    HW214052   3.193   4.255   5.690
  945SOL     OW14053   4.227   8.774   3.081
  945SOL    HW114054   4.322   8.797   3.097
  945SOL    HW214055   4.172   8.802   3.160
  946SOL     OW14056   2.324   1.541   1.660
  946SOL    HW114057   2.248   1.557   1.723
  946SOL    HW214058   2.411   1.563   1.706
  947SOL     OW14059   7.361   4.120   2.847
  947SOL    HW114060   7.293   4.048   2.841
  947SOL    HW214061   7.444   4.091   2.799
  948SOL     OW14062   6.405   2.110   4.282
  948SOL    HW114063   6.502   2.105   4.307
  948SOL    HW214064   6.396   2.147   4.190
  949SOL     OW14065   8.435   1.072   2.381
  949SOL    HW114066   8.507   1.029   2.436
  949SOL    HW214067   8.397   1.005   2.318
  950SOL     OW14068   0.880   0.800   5.781
  950SOL    HW114069   0.841   0.731   5.720
  950SOL    HW214070   0.865   0.772   5.876
  951SOL     OW14071   1.536   3.210   1.848
  951SOL    HW114072   1.514   3.189   1.752
  951SOL    HW214073   1.619   3.162   1.875
  952SOL     OW14074   1.565   1.009   6.315
  952SOL    HW114075   1.552   1.034   6.219
  952SOL    HW214076   1.635   0.938   6.322
  953SOL     OW14077   1.284   3.128   6.050
  953SOL    HW114078   1.315   3.220   6.075
  953SOL    HW214079   1.304   3.065   6.125
  954SOL     OW14080   5.526   4.187   1.528
  954SOL    HW114081   5.493   4.245   1.454
  954SOL    HW214082   5.492   4.093   1.514
  955SOL     OW14083   8.026   2.472   6.218
  955SOL    HW114084   8.006   2.384   6.174
  955SOL    HW214085   8.125   2.487   6.217
  956SOL     OW14086   4.252   3.912   0.258
  956SOL    HW114087   4.189   3.861   0.200
  956SOL    HW214088   4.307   3.847   0.313
  957SOL     OW14089   8.174   2.122   3.715
  957SOL    HW114090   8.215   2.121   3.624
  957SOL    HW214091   8.246   2.131   3.784
  958SOL     OW14092   3.820   3.832   4.633
  958SOL    HW114093   3.809   3.797   4.540
  958SOL    HW214094   3.730   3.836   4.678
  959SOL     OW14095   1.606   3.657   2.158
  959SOL    HW114096   1.683   3.709   2.121
  959SOL    HW214097   1.546   3.628   2.083
  960SOL     OW14098   0.120   6.263   4.994
  960SOL    HW114099   0.039   6.225   5.040
  960SOL    HW214100   0.143   6.205   4.915
  961SOL     OW14101   4.921   8.060   5.551
  961SOL    HW114102   4.980   8.070   5.631
  961SOL    HW214103   4.925   7.966   5.518
  962SOL     OW14104   4.009   4.451   1.366
  962SOL    HW114105   3.932   4.449   1.302
  962SOL    HW214106   4.045   4.358   1.378
  963SOL     OW14107   5.630   8.372   3.459
  963SOL    HW114108   5.552   8.338   3.407
  963SOL    HW214109   5.691   8.423   3.399
  964SOL     OW14110   8.165   6.025   2.405
  964SOL    HW114111   8.102   6.038   2.481
  964SOL    HW214112   8.152   6.098   2.337
  965SOL     OW14113   2.884   4.269   5.522
  965SOL    HW114114   2.801   4.319   5.497
  965SOL    HW214115   2.961   4.302   5.468
  966SOL     OW14116   6.427   0.423   1.472
  966SOL    HW114117   6.432   0.459   1.379
  966SOL    HW214118   6.372   0.340   1.472
  967SOL     OW14119   4.214   5.078   0.960
  967SOL    HW114120   4.272   5.115   1.033
  967SOL    HW214121   4.271   5.030   0.893
  968SOL     OW14122   2.512   3.261   1.910
  968SOL    HW114123   2.559   3.244   1.997
  968SOL    HW214124   2.423   3.304   1.928
  969SOL     OW14125   3.336   3.660   0.230
  969SOL    HW114126   3.315   3.685   0.324
  969SOL    HW214127   3.387   3.574   0.228
  970SOL     OW14128   3.808   8.076   1.877
  970SOL    HW114129   3.750   7.997   1.898
  970SOL    HW214130   3.753   8.146   1.830
  971SOL     OW14131   7.118   7.645   5.136
  971SOL    HW114132   7.182   7.589   5.188
  971SOL    HW214133   7.133   7.631   5.038
  972SOL     OW14134   9.088   2.391   6.110
  972SOL    HW114135   9.046   2.349   6.030
  972SOL    HW214136   9.100   2.323   6.182
  973SOL     OW14137   1.250   4.957   4.045
  973SOL    HW114138   1.335   4.943   3.994
  973SOL    HW214139   1.193   4.875   4.038
  974SOL     OW14140   2.619   5.778   2.388
  974SOL    HW114141   2.544   5.725   2.350
  974SOL    HW214142   2.584   5.859   2.434
  975SOL     OW14143   1.466   8.529   4.066
  975SOL    HW114144   1.446   8.601   4.131
  975SOL    HW214145   1.566   8.519   4.057
  976SOL     OW14146   0.309   3.915   4.622
  976SOL    HW114147   0.341   3.875   4.536
  976SOL    HW214148   0.387   3.958   4.669
  977SOL     OW14149   4.917   4.233   0.590
  977SOL    HW114150   4.848   4.162   0.595
  977SOL    HW214151   5.001   4.202   0.635
  978SOL     OW14152   5.111   8.910   5.245
  978SOL    HW114153   5.165   8.989   5.273
  978SOL    HW214154   5.049   8.936   5.171
  979SOL     OW14155   5.623   0.110   5.758
  979SOL    HW114156   5.581   0.038   5.702
  979SOL    HW214157   5.702   0.072   5.806
  980SOL     OW14158   2.380   2.031   6.057
  980SOL    HW114159   2.392   1.953   5.995
  980SOL    HW214160   2.401   2.116   6.008
  981SOL     OW14161   7.592   7.478   4.052
  981SOL    HW114162   7.667   7.439   4.105
  981SOL    HW214163   7.618   7.483   3.956
  982SOL     OW14164   1.810   1.915   2.932
  982SOL    HW114165   1.738   1.848   2.915
  982SOL    HW214166   1.899   1.874   2.913
  983SOL     OW14167   2.895   6.202   5.276
  983SOL    HW114168   2.987   6.165   5.261
  983SOL    HW214169   2.901   6.298   5.303
  984SOL     OW14170   3.420   9.435   2.986
  984SOL    HW114171   3.346   9.473   3.042
  984SOL    HW214172   3.493   9.401   3.046
  985SOL     OW14173   0.348   4.762   4.086
  985SOL    HW114174   0.444   4.774   4.111
  985SOL    HW214175   0.290   4.813   4.149
  986SOL     OW14176   9.754   2.991   2.293
  986SOL    HW114177   9.825   3.050   2.331
  986SOL    HW214178   9.761   2.992   2.193
  987SOL     OW14179   0.250   3.635   3.014
  987SOL    HW114180   0.205   3.551   2.983
  987SOL    HW214181   0.294   3.680   2.936
  988SOL     OW14182   0.509   7.825   4.079
  988SOL    HW114183   0.458   7.747   4.115
  988SOL    HW214184   0.601   7.827   4.120
  989SOL     OW14185   2.662   4.994   3.272
  989SOL    HW114186   2.622   4.948   3.351
  989SOL    HW214187   2.683   5.089   3.295
  990SOL     OW14188   1.547   5.581   2.465
  990SOL    HW114189   1.603   5.653   2.505
  990SOL    HW214190   1.532   5.601   2.368
  991SOL     OW14191   5.884   3.290   0.879
  991SOL    HW114192   5.968   3.316   0.927
  991SOL    HW214193   5.874   3.345   0.796
  992SOL     OW14194   2.203   0.840   4.500
  992SOL    HW114195   2.104   0.824   4.501
  992SOL    HW214196   2.223   0.928   4.543
  993SOL     OW14197   3.111   9.276   0.806
  993SOL    HW114198   3.080   9.183   0.825
  993SOL    HW214199   3.083   9.336   0.882
  994SOL     OW14200   1.597   8.276   0.451
  994SOL    HW114201   1.539   8.355   0.470
  994SOL    HW214202   1.692   8.304   0.445
  995SOL     OW14203   2.420   8.054   5.784
  995SOL    HW114204   2.466   8.029   5.699
  995SOL    HW214205   2.365   8.137   5.770
  996SOL     OW14206   4.505   7.716   2.029
  996SOL    HW114207   4.555   7.730   1.944
  996SOL    HW214208   4.569   7.703   2.104
  997SOL     OW14209   9.885   1.110   2.960
  997SOL    HW114210   9.863   1.134   3.054
  997SOL    HW214211   9.818   1.044   2.925
  998SOL     OW14212   7.717   7.512   5.675
  998SOL    HW114213   7.643   7.575   5.654
  998SOL    HW214214   7.773   7.549   5.750
  999SOL     OW14215   5.107   0.490   1.637
  999SOL    HW114216   5.203   0.462   1.647
  999SOL    HW214217   5.051   0.410   1.615
 1000SOL     OW14218   4.341   7.878   4.170
 1000SOL    HW114219   4.386   7.916   4.088
 1000SOL    HW214220   4.287   7.949   4.214
 1001SOL     OW14221   5.020   4.954   0.322
 1001SOL    HW114222   5.024   4.855   0.313
 1001SOL    HW214223   4.940   4.980   0.376
 1002SOL     OW14224   9.117   6.730   5.521
 1002SOL    HW114225   9.129   6.783   5.605
 1002SOL    HW214226   9.114   6.792   5.442
 1003SOL     OW14227   6.078   8.811   3.971
 1003SOL    HW114228   6.002   8.850   3.919
 1003SOL    HW214229   6.138   8.760   3.910
 1004SOL     OW14230   4.996   7.963   2.758
 1004SOL    HW114231   5.032   8.030   2.694
 1004SOL    HW214232   4.983   8.007   2.848
 1005SOL     OW14233   2.913   7.400   5.873
 1005SOL    HW114234   2.940   7.331   5.941
 1005SOL    HW214235   2.924   7.362   5.781
 1006SOL     OW14236   6.561   2.093   5.293
 1006SOL    HW114237   6.648   2.112   5.247
 1006SOL    HW214238   6.489   2.082   5.224
 1007SOL     OW14239   3.637   6.333   5.788
 1007SOL    HW114240   3.548   6.352   5.831
 1007SOL    HW214241   3.710   6.348   5.855
 1008SOL     OW14242   6.232   2.602   0.947
 1008SOL    HW114243   6.331   2.588   0.952
 1008SOL    HW214244   6.185   2.514   0.957
 1009SOL     OW14245   8.060   7.908   6.261
 1009SOL    HW114246   8.003   7.976   6.215
 1009SOL    HW214247   8.105   7.851   6.192
 1010SOL     OW14248   5.428   5.496   1.315
 1010SOL    HW114249   5.499   5.531   1.254
 1010SOL    HW214250   5.362   5.568   1.334
 1011SOL     OW14251   2.528   1.204   4.604
 1011SOL    HW114252   2.579   1.203   4.518
 1011SOL    HW214253   2.584   1.248   4.675
 1012SOL     OW14254   1.353   7.036   1.433
 1012SOL    HW114255   1.256   7.042   1.458
 1012SOL    HW214256   1.380   6.940   1.428
 1013SOL     OW14257   8.197   5.676   1.054
 1013SOL    HW114258   8.190   5.595   1.111
 1013SOL    HW214259   8.276   5.731   1.082
 1014SOL     OW14260   1.923   6.528   0.675
 1014SOL    HW114261   1.969   6.593   0.614
 1014SOL    HW214262   1.958   6.436   0.659
 1015SOL     OW14263   2.750   6.579   2.395
 1015SOL    HW114264   2.730   6.587   2.492
 1015SOL    HW214265   2.777   6.668   2.358
 1016SOL     OW14266   7.177   3.983   0.547
 1016SOL    HW114267   7.171   3.887   0.575
 1016SOL    HW214268   7.151   3.991   0.450
 1017SOL     OW14269   2.025   2.014   3.750
 1017SOL    HW114270   2.083   2.049   3.822
 1017SOL    HW214271   1.931   2.045   3.765
 1018SOL     OW14272   4.157   8.151   0.327
 1018SOL    HW114273   4.092   8.095   0.275
 1018SOL    HW214274   4.131   8.153   0.423
 1019SOL     OW14275   2.021   4.671   4.653
 1019SOL    HW114276   2.117   4.687   4.678
 1019SOL    HW214277   2.018   4.617   4.569
 1020SOL     OW14278   4.806   4.414   0.766
 1020SOL    HW114279   4.865   4.399   0.845
 1020SOL    HW214280   4.838   4.359   0.689
 1021SOL     OW14281   7.021   5.302   0.547
 1021SOL    HW114282   7.014   5.263   0.455
 1021SOL    HW214283   6.970   5.245   0.612
 1022SOL     OW14284   9.733   5.094   5.542
 1022SOL    HW114285   9.640   5.118   5.514
 1022SOL    HW214286   9.732   5.062   5.636
 1023SOL     OW14287   6.815   0.039   3.117
 1023SOL    HW114288   6.722   0.059   3.086
 1023SOL    HW214289   6.880   0.093   3.064
 1024SOL     OW14290   0.980   4.461   5.880
 1024SOL    HW114291   1.053   4.436   5.944
 1024SOL    HW214292   1.007   4.437   5.787
 1025SOL     OW14293   4.287   9.284   5.632
 1025SOL    HW114294   4.313   9.371   5.674
 1025SOL    HW214295   4.204   9.297   5.578
 1026SOL     OW14296   5.509   2.268   4.192
 1026SOL    HW114297   5.542   2.193   4.250
 1026SOL    HW214298   5.534   2.356   4.233
 1027SOL     OW14299   2.780   9.058   5.489
 1027SOL    HW114300   2.868   9.063   5.537
 1027SOL    HW214301   2.734   9.147   5.496
 1028SOL     OW14302   8.489   0.643   1.867
 1028SOL    HW114303   8.557   0.715   1.881
 1028SOL    HW214304   8.437   0.629   1.951
 1029SOL     OW14305   4.185   4.045   1.192
 1029SOL    HW114306   4.122   4.021   1.118
 1029SOL    HW214307   4.266   3.988   1.186
 1030SOL     OW14308   9.162   3.292   0.435
 1030SOL    HW114309   9.132   3.382   0.401
 1030SOL    HW214310   9.113   3.220   0.385
 1031SOL     OW14311   7.195   9.793   3.566
 1031SOL    HW114312   7.147   9.774   3.480
 1031SOL    HW214313   7.206   9.892   3.577
 1032SOL     OW14314   9.243   5.714   2.277
 1032SOL    HW114315   9.153   5.682   2.245
 1032SOL    HW214316   9.284   5.773   2.206
 1033SOL     OW14317   7.630   5.746   5.236
 1033SOL    HW114318   7.679   5.745   5.323
 1033SOL    HW214319   7.535   5.772   5.252
 1034SOL     OW14320   0.440   7.582   3.140
 1034SOL    HW114321   0.497   7.662   3.158
 1034SOL    HW214322   0.393   7.593   3.053
 1035SOL     OW14323   0.501   3.997   3.535
 1035SOL    HW114324   0.574   4.041   3.482
 1035SOL    HW214325   0.432   4.065   3.558
 1036SOL     OW14326   3.054   1.881   3.219
 1036SOL    HW114327   2.993   1.813   3.178
 1036SOL    HW214328   3.003   1.965   3.237
 1037SOL     OW14329   3.471   8.932   2.979
 1037SOL    HW114330   3.445   8.898   3.069
 1037SOL    HW214331   3.435   9.025   2.967
 1038SOL     OW14332   7.656   4.121   0.497
 1038SOL    HW114333   7.574   4.074   0.529
 1038SOL    HW214334   7.708   4.155   0.575
 1039SOL     OW14335   0.676   9.803   0.882
 1039SOL    HW114336   0.672   9.902   0.867
 1039SOL    HW214337   0.761   9.766   0.845
 1040SOL     OW14338   5.760   9.298   5.781
 1040SOL    HW114339   5.820   9.335   5.709
 1040SOL    HW214340   5.670   9.340   5.774
 1041SOL     OW14341   0.034   6.156   0.124
 1041SOL    HW114342   9.981   6.218   0.182
 1041SOL    HW214343   0.018   6.062   0.153
 1042SOL     OW14344   3.443   0.580   0.394
 1042SOL    HW114345   3.446   0.532   0.306
 1042SOL    HW214346   3.532   0.621   0.412
 1043SOL     OW14347   8.886   8.028   3.619
 1043SOL    HW114348   8.923   8.116   3.648
 1043SOL    HW214349   8.786   8.032   3.620
 1044SOL     OW14350   3.973   3.119   1.807
 1044SOL    HW114351   3.967   3.218   1.791
 1044SOL    HW214352   3.930   3.070   1.732
 1045SOL     OW14353   8.949   3.539   2.075
 1045SOL    HW114354   9.003   3.469   2.030
 1045SOL    HW214355   8.967   3.628   2.032
 1046SOL     OW14356   9.801   2.549   4.982
 1046SOL    HW114357   9.718   2.500   5.008
 1046SOL    HW214358   9.859   2.490   4.927
 1047SOL     OW14359   9.648   2.546   2.375
 1047SOL    HW114360   9.641   2.465   2.317
 1047SOL    HW214361   9.594   2.620   2.336
 1048SOL     OW14362   7.110   9.965   1.725
 1048SOL    HW114363   7.014   9.945   1.742
 1048SOL    HW214364   7.136   0.050   1.771
 1049SOL     OW14365   8.164   8.406   5.761
 1049SOL    HW114366   8.107   8.482   5.792
 1049SOL    HW214367   8.260   8.433   5.764
 1050SOL     OW14368   7.446   8.955   5.942
 1050SOL    HW114369   7.380   8.909   6.003
 1050SOL    HW214370   7.534   8.963   5.989
 1051SOL     OW14371   4.657   3.252   4.782
 1051SOL    HW114372   4.657   3.336   4.835
 1051SOL    HW214373   4.562   3.223   4.766
 1052SOL     OW14374   0.222   8.181   1.816
 1052SOL    HW114375   0.208   8.237   1.734
 1052SOL    HW214376   0.319   8.181   1.840
 1053SOL     OW14377   4.949   1.474   0.901
 1053SOL    HW114378   5.003   1.448   0.821
 1053SOL    HW214379   5.000   1.542   0.954
 1054SOL     OW14380   2.170   4.285   6.114
 1054SOL    HW114381   2.191   4.225   6.192
 1054SOL    HW214382   2.132   4.230   6.039
 1055SOL     OW14383   4.398   8.573   5.067
 1055SOL    HW114384   4.300   8.561   5.049
 1055SOL    HW214385   4.431   8.497   5.123
 1056SOL     OW14386   8.532   7.895   3.126
 1056SOL    HW114387   8.578   7.901   3.214
 1056SOL    HW214388   8.434   7.880   3.140
 1057SOL     OW14389   9.733   3.180   5.067
 1057SOL    HW114390   9.749   3.145   5.160
 1057SOL    HW214391   9.642   3.152   5.036
 1058SOL     OW14392   9.456   3.689   2.654
 1058SOL    HW114393   9.431   3.610   2.598
 1058SOL    HW214394   9.553   3.685   2.676
 1059SOL     OW14395   7.893   5.497   2.089
 1059SOL    HW114396   7.979   5.491   2.039
 1059SOL    HW214397   7.862   5.405   2.114
 1060SOL     OW14398   8.276   6.473   2.583
 1060SOL    HW114399   8.347   6.536   2.615
 1060SOL    HW214400   8.230   6.432   2.661
 1061SOL     OW14401   0.366   7.974   4.788
 1061SOL    HW114402   0.296   7.928   4.843
 1061SOL    HW214403   0.324   8.043   4.731
 1062SOL     OW14404   9.607   7.129   0.161
 1062SOL    HW114405   9.530   7.066   0.172
 1062SOL    HW214406   9.692   7.077   0.160
 1063SOL     OW14407   5.377   4.684   0.375
 1063SOL    HW114408   5.351   4.779   0.358
 1063SOL    HW214409   5.372   4.633   0.289
 1064SOL     OW14410   4.032   0.119   2.728
 1064SOL    HW114411   4.125   0.153   2.711
 1064SOL    HW214412   4.000   0.154   2.816
 1065SOL     OW14413   7.252   3.685   3.573
 1065SOL    HW114414   7.230   3.632   3.491
 1065SOL    HW214415   7.259   3.624   3.651
 1066SOL     OW14416   4.747   2.524   3.801
 1066SOL    HW114417   4.796   2.611   3.801
 1066SOL    HW214418   4.696   2.515   3.716
 1067SOL     OW14419   4.491   5.180   3.493
 1067SOL    HW114420   4.456   5.163   3.401
 1067SOL    HW214421   4.571   5.239   3.488
 1068SOL     OW14422   0.323   5.348   3.483
 1068SOL    HW114423   0.259   5.352   3.560
 1068SOL    HW214424   0.394   5.417   3.497
 1069SOL     OW14425   1.662   5.386   1.753
 1069SOL    HW114426   1.721   5.369   1.674
 1069SOL    HW214427   1.694   5.467   1.802
 1070SOL     OW14428   8.218   6.965   5.359
 1070SOL    HW114429   8.198   7.057   5.392
 1070SOL    HW214430   8.189   6.898   5.428
 1071SOL     OW14431   1.409   7.427   0.916
 1071SOL    HW114432   1.423   7.329   0.924
 1071SOL    HW214433   1.386   7.450   0.822
 1072SOL     OW14434   4.779   2.620   1.214
 1072SOL    HW114435   4.840   2.547   1.186
 1072SOL    HW214436   4.711   2.585   1.279
 1073SOL     OW14437   4.456   8.490   3.653
 1073SOL    HW114438   4.366   8.463   3.618
 1073SOL    HW214439   4.470   8.451   3.744
 1074SOL     OW14440   1.964   0.589   0.530
 1074SOL    HW114441   1.981   0.644   0.612
 1074SOL    HW214442   1.865   0.577   0.518
 1075SOL     OW14443   4.799   3.966   5.947
 1075SOL    HW114444   4.788   3.935   6.042
 1075SOL    HW214445   4.837   3.892   5.892
 1076SOL     OW14446   3.500   1.864   5.633
 1076SOL    HW114447   3.427   1.886   5.568
 1076SOL    HW214448   3.467   1.881   5.726
 1077SOL     OW14449   9.458   4.597   3.270
 1077SOL    HW114450   9.363   4.618   3.246
 1077SOL    HW214451   9.460   4.513   3.325
 1078SOL     OW14452   1.299   9.255   1.694
 1078SOL    HW114453   1.332   9.323   1.758
 1078SOL    HW214454   1.338   9.272   1.603
 1079SOL     OW14455   0.749   5.460   5.826
 1079SOL    HW114456   0.826   5.397   5.840
 1079SOL    HW214457   0.663   5.409   5.830
 1080SOL     OW14458   1.168   8.735   3.933
 1080SOL    HW114459   1.136   8.803   3.866
 1080SOL    HW214460   1.245   8.684   3.894
 1081SOL     OW14461   4.265   9.193   0.436
 1081SOL    HW114462   4.194   9.195   0.506
 1081SOL    HW214463   4.299   9.286   0.421
 1082SOL     OW14464   4.345   4.996   0.731
 1082SOL    HW114465   4.421   5.062   0.726
 1082SOL    HW214466   4.279   5.015   0.658
 1083SOL     OW14467   3.153   4.182   4.054
 1083SOL    HW114468   3.191   4.169   4.146
 1083SOL    HW214469   3.057   4.209   4.061
 1084SOL     OW14470   3.890   9.156   0.222
 1084SOL    HW114471   3.795   9.176   0.197
 1084SOL    HW214472   3.910   9.195   0.311
 1085SOL     OW14473   2.549   1.962   1.843
 1085SOL    HW114474   2.484   1.890   1.865
 1085SOL    HW214475   2.630   1.954   1.900
 1086SOL     OW14476   2.801   0.611   4.134
 1086SOL    HW114477   2.792   0.669   4.053
 1086SOL    HW214478   2.711   0.598   4.175
 1087SOL     OW14479   4.231   8.735   0.662
 1087SOL    HW114480   4.229   8.685   0.749
 1087SOL    HW214481   4.257   8.672   0.589
 1088SOL     OW14482   7.918   1.037   3.584
 1088SOL    HW114483   7.845   1.075   3.526
 1088SOL    HW214484   7.999   1.094   3.576
 1089SOL     OW14485   9.619   5.182   0.385
 1089SOL    HW114486   9.712   5.147   0.393
 1089SOL    HW214487   9.616   5.255   0.317
 1090SOL     OW14488   3.266   4.688   6.338
 1090SOL    HW114489   3.319   4.603   6.337
 1090SOL    HW214490   3.169   4.666   6.321
 1091SOL     OW14491   8.461   7.249   0.203
 1091SOL    HW114492   8.501   7.250   0.295
 1091SOL    HW214493   8.415   7.161   0.188
 1092SOL     OW14494   1.921   1.534   5.267
 1092SOL    HW114495   1.996   1.472   5.245
 1092SOL    HW214496   1.956   1.627   5.279
 1093SOL     OW14497   7.123   1.369   4.179
 1093SOL    HW114498   7.029   1.336   4.190
 1093SOL    HW214499   7.130   1.424   4.097
 1094SOL     OW14500   8.821   6.779   2.828
 1094SOL    HW114501   8.878   6.855   2.859
 1094SOL    HW214502   8.729   6.811   2.809
 1095SOL     OW14503   6.846   9.920   1.786
 1095SOL    HW114504   6.831   9.822   1.800
 1095SOL    HW214505   6.798   9.971   1.857
 1096SOL     OW14506   2.545   4.770   6.326
 1096SOL    HW114507   2.524   4.783   6.229
 1096SOL    HW214508   2.485   4.699   6.363
 1097SOL     OW14509   1.610   4.040   3.151
 1097SOL    HW114510   1.571   4.098   3.222
 1097SOL    HW214511   1.645   3.956   3.192
 1098SOL     OW14512   9.706   3.158   4.232
 1098SOL    HW114513   9.753   3.212   4.162
 1098SOL    HW214514   9.666   3.219   4.300
 1099SOL     OW14515   6.613   0.661   3.939
 1099SOL    HW114516   6.671   0.654   4.020
 1099SOL    HW214517   6.552   0.583   3.934
 1100SOL     OW14518   8.914   8.805   5.670
 1100SOL    HW114519   8.894   8.895   5.710
 1100SOL    HW214520   8.828   8.758   5.651
 1101SOL     OW14521   8.790   1.071   6.301
 1101SOL    HW114522   8.696   1.106   6.299
 1101SOL    HW214523   8.803   1.013   6.382
 1102SOL     OW14524   0.231   3.092   6.078
 1102SOL    HW114525   0.299   3.071   6.008
 1102SOL    HW214526   0.169   3.014   6.088
 1103SOL     OW14527   9.345   6.354   5.713
 1103SOL    HW114528   9.351   6.428   5.646
 1103SOL    HW214529   9.374   6.268   5.672
 1104SOL     OW14530   5.848   8.822   5.526
 1104SOL    HW114531   5.832   8.838   5.429
 1104SOL    HW214532   5.761   8.810   5.574
 1105SOL     OW14533   9.806   0.479   1.540
 1105SOL    HW114534   9.851   0.389   1.541
 1105SOL    HW214535   9.734   0.478   1.471
 1106SOL     OW14536   0.515   3.428   1.032
 1106SOL    HW114537   0.456   3.503   1.065
 1106SOL    HW214538   0.530   3.363   1.106
 1107SOL     OW14539   2.039   5.114   2.666
 1107SOL    HW114540   2.118   5.108   2.727
 1107SOL    HW214541   2.065   5.083   2.574
 1108SOL     OW14542   0.077   2.814   1.077
 1108SOL    HW114543   0.097   2.730   1.128
 1108SOL    HW214544   0.162   2.857   1.048
 1109SOL     OW14545   3.826   7.839   3.114
 1109SOL    HW114546   3.805   7.919   3.057
 1109SOL    HW214547   3.916   7.803   3.088
 1110SOL     OW14548   1.999   4.639   2.908
 1110SOL    HW114549   1.922   4.690   2.868
 1110SOL    HW214550   2.008   4.551   2.861
 1111SOL     OW14551   7.366   4.406   5.695
 1111SOL    HW114552   7.353   4.495   5.737
 1111SOL    HW214553   7.373   4.336   5.766
 1112SOL     OW14554   8.507   1.538   6.111
 1112SOL    HW114555   8.490   1.508   6.205
 1112SOL    HW214556   8.465   1.474   6.047
 1113SOL     OW14557   4.872   9.959   3.576
 1113SOL    HW114558   4.820   9.883   3.539
 1113SOL    HW214559   4.927   0.000   3.503
 1114SOL     OW14560   3.302   2.424   5.454
 1114SOL    HW114561   3.247   2.479   5.517
 1114SOL    HW214562   3.398   2.449   5.463
 1115SOL     OW14563   7.940   2.427   2.948
 1115SOL    HW114564   8.014   2.474   2.900
 1115SOL    HW214565   7.852   2.453   2.907
 1116SOL     OW14566   2.806   3.173   4.898
 1116SOL    HW114567   2.784   3.087   4.944
 1116SOL    HW214568   2.901   3.171   4.867
 1117SOL     OW14569   1.016   9.933   5.534
 1117SOL    HW114570   1.080   9.975   5.598
 1117SOL    HW214571   0.940   9.892   5.585
 1118SOL     OW14572   0.408   1.096   3.535
 1118SOL    HW114573   0.420   0.998   3.524
 1118SOL    HW214574   0.496   1.138   3.561
 1119SOL     OW14575   7.231   3.547   3.333
 1119SOL    HW114576   7.162   3.548   3.260
 1119SOL    HW214577   7.322   3.543   3.292
 1120SOL     OW14578   8.159   5.942   4.368
 1120SOL    HW114579   8.228   5.871   4.381
 1120SOL    HW214580   8.085   5.907   4.310
 1121SOL     OW14581   9.139   9.364   1.971
 1121SOL    HW114582   9.218   9.352   2.032
 1121SOL    HW214583   9.144   9.454   1.928
 1122SOL     OW14584   3.926   3.179   0.205
 1122SOL    HW114585   3.846   3.189   0.146
 1122SOL    HW214586   3.917   3.096   0.260
 1123SOL     OW14587   2.883   7.532   3.298
 1123SOL    HW114588   2.921   7.446   3.331
 1123SOL    HW214589   2.939   7.608   3.331
 1124SOL     OW14590   3.181   2.215   3.148
 1124SOL    HW114591   3.218   2.177   3.232
 1124SOL    HW214592   3.253   2.263   3.098
 1125SOL     OW14593   3.445   2.492   2.582
 1125SOL    HW114594   3.378   2.419   2.576
 1125SOL    HW214595   3.399   2.577   2.608
 1126SOL     OW14596   9.144   7.687   1.996
 1126SOL    HW114597   9.060   7.682   1.941
 1126SOL    HW214598   9.207   7.616   1.966
 1127SOL     OW14599   6.103   1.151   3.345
 1127SOL    HW114600   6.164   1.168   3.269
 1127SOL    HW214601   6.123   1.213   3.420
 1128SOL     OW14602   9.822   2.849   0.971
 1128SOL    HW114603   9.911   2.848   1.016
 1128SOL    HW214604   9.759   2.907   1.023
 1129SOL     OW14605   0.519   0.749   4.564
 1129SOL    HW114606   0.434   0.699   4.544
 1129SOL    HW214607   0.596   0.686   4.564
 1130SOL     OW14608   3.230   3.185   3.255
 1130SOL    HW114609   3.181   3.142   3.331
 1130SOL    HW214610   3.250   3.281   3.278
 1131SOL     OW14611   5.870   9.550   3.281
 1131SOL    HW114612   5.928   9.553   3.200
 1131SOL    HW214613   5.918   9.589   3.359
 1132SOL     OW14614   3.876   5.756   0.520
 1132SOL    HW114615   3.958   5.730   0.570
 1132SOL    HW214616   3.837   5.675   0.475
 1133SOL     OW14617   3.147   1.681   1.109
 1133SOL    HW114618   3.205   1.607   1.141
 1133SOL    HW214619   3.170   1.765   1.157
 1134SOL     OW14620   0.328   5.935   3.055
 1134SOL    HW114621   0.279   5.922   2.969
 1134SOL    HW214622   0.329   5.849   3.106
 1135SOL     OW14623   2.779   1.126   0.243
 1135SOL    HW114624   2.827   1.039   0.255
 1135SOL    HW214625   2.845   1.199   0.227
 1136SOL     OW14626   1.951   9.324   3.285
 1136SOL    HW114627   1.886   9.359   3.217
 1136SOL    HW214628   2.021   9.394   3.302
 1137SOL     OW14629   8.292   0.482   4.584
 1137SOL    HW114630   8.360   0.538   4.536
 1137SOL    HW214631   8.326   0.460   4.675
 1138SOL     OW14632   3.003   4.617   6.277
 1138SOL    HW114633   2.938   4.689   6.300
 1138SOL    HW214634   2.976   4.532   6.323
 1139SOL     OW14635   4.822   0.451   6.179
 1139SOL    HW114636   4.743   0.510   6.195
 1139SOL    HW214637   4.899   0.483   6.233
 1140SOL     OW14638   4.263   1.855   1.764
 1140SOL    HW114639   4.194   1.866   1.835
 1140SOL    HW214640   4.276   1.758   1.745
 1141SOL     OW14641   3.080   3.407   0.407
 1141SOL    HW114642   2.988   3.418   0.444
 1141SOL    HW214643   3.086   3.450   0.318
 1142SOL     OW14644   7.909   9.921   1.599
 1142SOL    HW114645   7.921   0.020   1.592
 1142SOL    HW214646   7.812   9.899   1.602
 1143SOL     OW14647   2.666   8.616   1.970
 1143SOL    HW114648   2.602   8.551   2.011
 1143SOL    HW214649   2.756   8.606   2.013
 1144SOL     OW14650   0.365   2.516   5.496
 1144SOL    HW114651   0.313   2.460   5.561
 1144SOL    HW214652   0.462   2.495   5.504
 1145SOL     OW14653   9.597   0.329   3.247
 1145SOL    HW114654   9.684   0.285   3.227
 1145SOL    HW214655   9.523   0.263   3.235
 1146SOL     OW14656   2.227   2.390   0.136
 1146SOL    HW114657   2.175   2.447   0.072
 1146SOL    HW214658   2.198   2.295   0.128
 1147SOL     OW14659   0.612   7.889   0.342
 1147SOL    HW114660   0.524   7.882   0.388
 1147SOL    HW214661   0.640   7.985   0.336
 1148SOL     OW14662   5.026   1.426   5.430
 1148SOL    HW114663   4.964   1.470   5.495
 1148SOL    HW214664   5.112   1.404   5.476
 1149SOL     OW14665   5.564   0.252   3.214
 1149SOL    HW114666   5.483   0.293   3.256
 1149SOL    HW214667   5.613   0.198   3.282
 1150SOL     OW14668   4.741   9.884   2.796
 1150SOL    HW114669   4.735   9.796   2.749
 1150SOL    HW214670   4.722   9.871   2.894
 1151SOL     OW14671   5.918   2.456   3.983
 1151SOL    HW114672   5.830   2.469   3.936
 1151SOL    HW214673   5.912   2.378   4.044
 1152SOL     OW14674   7.220   1.525   0.498
 1152SOL    HW114675   7.262   1.612   0.522
 1152SOL    HW214676   7.177   1.484   0.579
 1153SOL     OW14677   5.144   5.810   2.377
 1153SOL    HW114678   5.176   5.754   2.454
 1153SOL    HW214679   5.070   5.870   2.409
 1154SOL     OW14680   4.745   6.801   0.961
 1154SOL    HW114681   4.784   6.838   1.045
 1154SOL    HW214682   4.664   6.747   0.983
 1155SOL     OW14683   0.884   3.253   1.152
 1155SOL    HW114684   0.956   3.204   1.201
 1155SOL    HW214685   0.920   3.340   1.120
 1156SOL     OW14686   0.052   2.638   0.166
 1156SOL    HW114687   0.039   2.610   0.262
 1156SOL    HW214688   9.982   2.704   0.141
 1157SOL     OW14689   1.305   4.265   3.532
 1157SOL    HW114690   1.234   4.325   3.495
 1157SOL    HW214691   1.263   4.186   3.575
 1158SOL     OW14692   6.719   0.654   1.678
 1158SOL    HW114693   6.679   0.696   1.759
 1158SOL    HW214694   6.752   0.562   1.700
 1159SOL     OW14695   9.150   5.768   1.938
 1159SOL    HW114696   9.235   5.800   1.980
 1159SOL    HW214697   9.073   5.821   1.974
 1160SOL     OW14698   9.650   1.957   3.699
 1160SOL    HW114699   9.697   1.881   3.655
 1160SOL    HW214700   9.614   1.928   3.788
 1161SOL     OW14701   1.080   3.814   3.682
 1161SOL    HW114702   1.052   3.805   3.778
 1161SOL    HW214703   1.137   3.736   3.657
 1162SOL     OW14704   7.504   7.663   2.896
 1162SOL    HW114705   7.429   7.627   2.841
 1162SOL    HW214706   7.475   7.667   2.992
 1163SOL     OW14707   4.616   0.303   0.269
 1163SOL    HW114708   4.622   0.206   0.296
 1163SOL    HW214709   4.657   0.360   0.340
 1164SOL     OW14710   8.967   7.851   3.816
 1164SOL    HW114711   9.033   7.901   3.872
 1164SOL    HW214712   8.934   7.910   3.743
 1165SOL     OW14713   3.020   1.034   6.319
 1165SOL    HW114714   3.100   0.975   6.324
 1165SOL    HW214715   2.982   1.047   6.411
 1166SOL     OW14716   3.260   5.118   5.295
 1166SOL    HW114717   3.217   5.198   5.253
 1166SOL    HW214718   3.199   5.039   5.286
 1167SOL     OW14719   3.685   5.830   5.169
 1167SOL    HW114720   3.608   5.882   5.205
 1167SOL    HW214721   3.717   5.765   5.238
 1168SOL     OW14722   5.181   3.458   0.332
 1168SOL    HW114723   5.122   3.384   0.300
 1168SOL    HW214724   5.243   3.424   0.402
 1169SOL     OW14725   7.027   7.858   5.806
 1169SOL    HW114726   7.067   7.775   5.843
 1169SOL    HW214727   7.047   7.935   5.866
 1170SOL     OW14728   9.994   5.283   3.901
 1170SOL    HW114729   9.971   5.187   3.915
 1170SOL    HW214730   9.926   5.340   3.946
 1171SOL     OW14731   0.061   6.276   3.333
 1171SOL    HW114732   0.132   6.222   3.288
 1171SOL    HW214733   0.073   6.372   3.309
 1172SOL     OW14734   4.578   2.525   1.375
 1172SOL    HW114735   4.558   2.437   1.332
 1172SOL    HW214736   4.574   2.515   1.475
 1173SOL     OW14737   7.037   4.432   2.312
 1173SOL    HW114738   6.998   4.344   2.285
 1173SOL    HW214739   7.042   4.492   2.232
 1174SOL     OW14740   4.197   6.387   2.716
 1174SOL    HW114741   4.287   6.369   2.754
 1174SOL    HW214742   4.199   6.473   2.665
 1175SOL     OW14743   9.834   7.346   6.279
 1175SOL    HW114744   9.808   7.315   6.371
 1175SOL    HW214745   9.920   7.302   6.253
 1176SOL     OW14746   2.167   4.105   6.327
 1176SOL    HW114747   2.168   4.127   6.424
 1176SOL    HW214748   2.074   4.078   6.300
 1177SOL     OW14749   7.593   9.557   2.819
 1177SOL    HW114750   7.600   9.620   2.742
 1177SOL    HW214751   7.634   9.469   2.793
 1178SOL     OW14752   2.753   1.315   2.731
 1178SOL    HW114753   2.711   1.285   2.816
 1178SOL    HW214754   2.748   1.242   2.664
 1179SOL     OW14755   3.701   3.493   0.446
 1179SOL    HW114756   3.687   3.564   0.515
 1179SOL    HW214757   3.619   3.486   0.389
 1180SOL     OW14758   8.104   1.186   5.290
 1180SOL    HW114759   8.100   1.250   5.213
 1180SOL    HW214760   8.163   1.224   5.362
 1181SOL     OW14761   9.923   9.892   2.210
 1181SOL    HW114762   9.934   9.811   2.267
 1181SOL    HW214763   9.826   9.918   2.208
 1182SOL     OW14764   2.617   5.288   1.675
 1182SOL    HW114765   2.642   5.383   1.657
 1182SOL    HW214766   2.562   5.282   1.758
 1183SOL     OW14767   5.936   9.444   4.489
 1183SOL    HW114768   5.968   9.463   4.581
 1183SOL    HW214769   5.974   9.511   4.425
 1184SOL     OW14770   8.960   6.626   0.243
 1184SOL    HW114771   9.003   6.545   0.284
 1184SOL    HW214772   9.016   6.706   0.261
 1185SOL     OW14773   4.193   5.071   3.050
 1185SOL    HW114774   4.241   5.080   3.138
 1185SOL    HW214775   4.236   4.998   2.997
 1186SOL     OW14776   0.749   0.686   5.222
 1186SOL    HW114777   0.712   0.611   5.278
 1186SOL    HW214778   0.691   0.699   5.142
 1187SOL     OW14779   6.806   8.261   5.894
 1187SOL    HW114780   6.894   8.284   5.934
 1187SOL    HW214781   6.810   8.168   5.856
 1188SOL     OW14782   4.982   2.415   0.175
 1188SOL    HW114783   5.082   2.410   0.184
 1188SOL    HW214784   4.957   2.414   0.079
 1189SOL     OW14785   4.013   8.487   3.207
 1189SOL    HW114786   3.953   8.534   3.272
 1189SOL    HW214787   4.108   8.506   3.229
 1190SOL     OW14788   3.454   5.272   4.952
 1190SOL    HW114789   3.416   5.270   4.859
 1190SOL    HW214790   3.428   5.358   4.997
 1191SOL     OW14791   3.909   1.282   3.532
 1191SOL    HW114792   3.829   1.333   3.563
 1191SOL    HW214793   3.946   1.326   3.450
 1192SOL     OW14794   0.257   9.292   1.554
 1192SOL    HW114795   0.250   9.336   1.643
 1192SOL    HW214796   0.172   9.307   1.503
 1193SOL     OW14797   2.861   2.322   1.611
 1193SOL    HW114798   2.764   2.329   1.636
 1193SOL    HW214799   2.918   2.354   1.687
 1194SOL     OW14800   4.303   3.975   5.035
 1194SOL    HW114801   4.240   4.028   4.978
 1194SOL    HW214802   4.381   3.945   4.980
 1195SOL     OW14803   8.245   9.987   2.024
 1195SOL    HW114804   8.320   9.921   2.027
 1195SOL    HW214805   8.183   9.963   1.949
 1196SOL     OW14806   9.041   9.108   6.325
 1196SOL    HW114807   8.982   9.034   6.358
 1196SOL    HW214808   9.023   9.191   6.377
 1197SOL     OW14809   5.079   0.953   4.783
 1197SOL    HW114810   5.083   0.926   4.880
 1197SOL    HW214811   5.154   0.910   4.733
 1198SOL     OW14812   7.022   9.098   6.147
 1198SOL    HW114813   6.971   9.183   6.157
 1198SOL    HW214814   7.117   9.119   6.123
 1199SOL     OW14815   3.926   8.967   3.513
 1199SOL    HW114816   3.907   8.971   3.611
 1199SOL    HW214817   3.951   9.058   3.479
 1200SOL     OW14818   0.331   5.581   4.969
 1200SOL    HW114819   0.346   5.586   4.870
 1200SOL    HW214820   0.317   5.673   5.006
 1201SOL     OW14821   9.508   6.865   1.255
 1201SOL    HW114822   9.569   6.945   1.254
 1201SOL    HW214823   9.469   6.855   1.347
 1202SOL     OW14824   5.740   2.718   0.125
 1202SOL    HW114825   5.804   2.642   0.116
 1202SOL    HW214826   5.783   2.802   0.091
 1203SOL     OW14827   4.088   3.394   0.212
 1203SOL    HW114828   4.075   3.434   0.303
 1203SOL    HW214829   4.030   3.314   0.202
 1204SOL     OW14830   2.604   5.258   3.684
 1204SOL    HW114831   2.564   5.348   3.703
 1204SOL    HW214832   2.693   5.270   3.640
 1205SOL     OW14833   2.912   7.710   5.636
 1205SOL    HW114834   2.831   7.651   5.633
 1205SOL    HW214835   2.885   7.801   5.668
 1206SOL     OW14836   5.559   0.173   5.402
 1206SOL    HW114837   5.585   0.259   5.357
 1206SOL    HW214838   5.636   0.110   5.401
 1207SOL     OW14839   1.706   1.941   0.098
 1207SOL    HW114840   1.792   1.891   0.089
 1207SOL    HW214841   1.657   1.938   0.011
 1208SOL     OW14842   2.337   5.470   4.342
 1208SOL    HW114843   2.339   5.546   4.277
 1208SOL    HW214844   2.429   5.432   4.351
 1209SOL     OW14845   9.800   1.327   4.221
 1209SOL    HW114846   9.740   1.371   4.154
 1209SOL    HW214847   9.748   1.264   4.278
 1210SOL     OW14848   2.664   8.939   5.869
 1210SOL    HW114849   2.644   8.912   5.775
 1210SOL    HW214850   2.694   9.035   5.870
 1211SOL     OW14851   1.610   3.556   0.768
 1211SOL    HW114852   1.526   3.604   0.742
 1211SOL    HW214853   1.587   3.481   0.829
 1212SOL     OW14854   1.346   7.765   0.643
 1212SOL    HW114855   1.299   7.853   0.642
 1212SOL    HW214856   1.430   7.773   0.698
 1213SOL     OW14857   1.735   3.423   0.098
 1213SOL    HW114858   1.722   3.488   0.024
 1213SOL    HW214859   1.826   3.382   0.091
 1214SOL     OW14860   2.324   9.974   0.175
 1214SOL    HW114861   2.360   0.058   0.134
 1214SOL    HW214862   2.356   9.895   0.121
 1215SOL     OW14863   3.802   4.442   1.189
 1215SOL    HW114864   3.721   4.383   1.189
 1215SOL    HW214865   3.820   4.474   1.096
 1216SOL     OW14866   1.303   4.504   2.199
 1216SOL    HW114867   1.252   4.559   2.265
 1216SOL    HW214868   1.273   4.525   2.106
 1217SOL     OW14869   8.236   4.272   0.029
 1217SOL    HW114870   8.225   4.372   0.029
 1217SOL    HW214871   8.258   4.240   0.121
 1218SOL     OW14872   3.004   3.732   5.813
 1218SOL    HW114873   3.012   3.741   5.714
 1218SOL    HW214874   3.052   3.649   5.843
 1219SOL     OW14875   3.171   1.170   3.244
 1219SOL    HW114876   3.134   1.088   3.289
 1219SOL    HW214877   3.269   1.176   3.262
 1220SOL     OW14878   1.264   3.928   0.888
 1220SOL    HW114879   1.350   3.896   0.928
 1220SOL    HW214880   1.278   3.951   0.792
 1221SOL     OW14881   3.396   2.505   4.022
 1221SOL    HW114882   3.352   2.576   4.078
 1221SOL    HW214883   3.485   2.483   4.061
 1222SOL     OW14884   8.686   9.806   1.474
 1222SOL    HW114885   8.656   9.821   1.568
 1222SOL    HW214886   8.647   9.720   1.439
 1223SOL     OW14887   1.567   4.241   5.370
 1223SOL    HW114888   1.573   4.300   5.289
 1223SOL    HW214889   1.524   4.292   5.445
 1224SOL     OW14890   6.000   0.260   5.853
 1224SOL    HW114891   6.075   0.239   5.791
 1224SOL    HW214892   6.037   0.285   5.943
 1225SOL     OW14893   8.675   8.697   4.880
 1225SOL    HW114894   8.607   8.646   4.932
 1225SOL    HW214895   8.682   8.660   4.787
 1226SOL     OW14896   3.614   0.566   3.861
 1226SOL    HW114897   3.663   0.610   3.786
 1226SOL    HW214898   3.679   0.524   3.924
 1227SOL     OW14899   0.337   2.906   1.023
 1227SOL    HW114900   0.351   2.933   1.119
 1227SOL    HW214901   0.394   2.827   1.002
 1228SOL     OW14902   3.076   6.849   3.161
 1228SOL    HW114903   3.129   6.910   3.102
 1228SOL    HW214904   3.115   6.852   3.254
 1229SOL     OW14905   7.899   9.884   1.008
 1229SOL    HW114906   7.810   9.902   0.967
 1229SOL    HW214907   7.966   9.950   0.972
 1230SOL     OW14908   9.004   8.915   1.889
 1230SOL    HW114909   9.004   8.936   1.987
 1230SOL    HW214910   9.058   8.832   1.873
 1231SOL     OW14911   9.299   3.233   4.338
 1231SOL    HW114912   9.351   3.165   4.286
 1231SOL    HW214913   9.208   3.243   4.297
 1232SOL     OW14914   0.126   1.655   2.646
 1232SOL    HW114915   0.063   1.578   2.650
 1232SOL    HW214916   0.099   1.716   2.571
 1233SOL     OW14917   0.473   6.199   0.529
 1233SOL    HW114918   0.402   6.223   0.462
 1233SOL    HW214919   0.458   6.106   0.562
 1234SOL     OW14920   0.054   4.487   4.247
 1234SOL    HW114921   0.029   4.572   4.293
 1234SOL    HW214922   0.151   4.489   4.224
 1235SOL     OW14923   5.191   1.562   1.309
 1235SOL    HW114924   5.166   1.466   1.298
 1235SOL    HW214925   5.265   1.570   1.377
 1236SOL     OW14926   9.890   7.910   3.054
 1236SOL    HW114927   9.884   8.002   3.016
 1236SOL    HW214928   9.825   7.900   3.128
 1237SOL     OW14929   9.237   8.117   6.341
 1237SOL    HW114930   9.253   8.019   6.328
 1237SOL    HW214931   9.323   8.167   6.333
 1238SOL     OW14932   4.764   5.045   3.371
 1238SOL    HW114933   4.832   5.118   3.370
 1238SOL    HW214934   4.762   5.002   3.461
 1239SOL     OW14935   1.525   8.816   4.984
 1239SOL    HW114936   1.606   8.765   4.956
 1239SOL    HW214937   1.443   8.764   4.958
 1240SOL     OW14938   3.949   0.257   0.431
 1240SOL    HW114939   4.045   0.246   0.458
 1240SOL    HW214940   3.937   0.224   0.338
 1241SOL     OW14941   4.689   4.101   6.272
 1241SOL    HW114942   4.659   4.174   6.334
 1241SOL    HW214943   4.619   4.088   6.201
 1242SOL     OW14944   8.650   5.175   5.085
 1242SOL    HW114945   8.710   5.219   5.018
 1242SOL    HW214946   8.561   5.222   5.085
 1243SOL     OW14947   0.406   6.243   5.944
 1243SOL    HW114948   0.475   6.233   6.015
 1243SOL    HW214949   0.430   6.186   5.865
 1244SOL     OW14950   8.477   1.881   0.270
 1244SOL    HW114951   8.428   1.806   0.313
 1244SOL    HW214952   8.472   1.873   0.171
 1245SOL     OW14953   5.633   0.087   2.072
 1245SOL    HW114954   5.587   0.175   2.086
 1245SOL    HW214955   5.638   0.068   1.974
 1246SOL     OW14956   1.818   1.472   3.939
 1246SOL    HW114957   1.762   1.505   4.016
 1246SOL    HW214958   1.848   1.378   3.958
 1247SOL     OW14959   8.879   1.234   0.752
 1247SOL    HW114960   8.881   1.198   0.659
 1247SOL    HW214961   8.942   1.312   0.759
 1248SOL     OW14962   2.361   0.575   0.391
 1248SOL    HW114963   2.309   0.657   0.367
 1248SOL    HW214964   2.418   0.548   0.313
 1249SOL     OW14965   9.401   6.389   4.677
 1249SOL    HW114966   9.353   6.311   4.637
 1249SOL    HW214967   9.436   6.447   4.603
 1250SOL     OW14968   8.042   4.718   1.233
 1250SOL    HW114969   8.130   4.745   1.272
 1250SOL    HW214970   7.970   4.736   1.300
 1251SOL     OW14971   8.658   4.085   3.618
 1251SOL    HW114972   8.655   4.176   3.576
 1251SOL    HW214973   8.705   4.022   3.556
 1252SOL     OW14974   2.899   5.340   3.146
 1252SOL    HW114975   2.881   5.420   3.089
 1252SOL    HW214976   2.914   5.260   3.088
 1253SOL     OW14977   1.519   4.938   1.811
 1253SOL    HW114978   1.608   4.933   1.856
 1253SOL    HW214979   1.464   5.010   1.854
 1254SOL     OW14980   0.793   2.334   3.947
 1254SOL    HW114981   0.838   2.399   4.009
 1254SOL    HW214982   0.862   2.282   3.898
 1255SOL     OW14983   8.157   9.870   5.697
 1255SOL    HW114984   8.184   9.950   5.643
 1255SOL    HW214985   8.238   9.821   5.727
 1256SOL     OW14986   2.466   4.483   0.648
 1256SOL    HW114987   2.551   4.444   0.612
 1256SOL    HW214988   2.451   4.451   0.741
 1257SOL     OW14989   2.773   3.688   3.885
 1257SOL    HW114990   2.739   3.687   3.979
 1257SOL    HW214991   2.805   3.779   3.862
 1258SOL     OW14992   5.650   8.624   6.285
 1258SOL    HW114993   5.563   8.656   6.247
 1258SOL    HW214994   5.726   8.664   6.235
 1259SOL     OW14995   9.488   7.272   1.202
 1259SOL    HW114996   9.561   7.205   1.218
 1259SOL    HW214997   9.451   7.302   1.290
 1260SOL     OW14998   5.027   7.713   5.086
 1260SOL    HW114999   4.972   7.631   5.070
 1260SOL    HW215000   5.116   7.703   5.041
 1261SOL     OW15001   2.108   1.773   5.017
 1261SOL    HW115002   2.094   1.754   5.114
 1261SOL    HW215003   2.088   1.870   4.999
 1262SOL     OW15004   7.754   8.229   4.005
 1262SOL    HW115005   7.714   8.148   4.048
 1262SOL    HW215006   7.691   8.307   4.017
 1263SOL     OW15007   1.280   8.933   5.328
 1263SOL    HW115008   1.230   8.873   5.265
 1263SOL    HW215009   1.245   8.921   5.421
 1264SOL     OW15010   8.994   8.832   4.804
 1264SOL    HW115011   8.976   8.764   4.875
 1264SOL    HW215012   9.042   8.910   4.844
 1265SOL     OW15013   9.347   8.579   0.573
 1265SOL    HW115014   9.439   8.549   0.548
 1265SOL    HW215015   9.316   8.648   0.507
 1266SOL     OW15016   1.826   0.584   2.372
 1266SOL    HW115017   1.903   0.620   2.320
 1266SOL    HW215018   1.743   0.632   2.347
 1267SOL     OW15019   2.783   1.223   2.338
 1267SOL    HW115020   2.734   1.171   2.408
 1267SOL    HW215021   2.799   1.317   2.371
 1268SOL     OW15022   3.606   2.569   3.488
 1268SOL    HW115023   3.568   2.496   3.544
 1268SOL    HW215024   3.697   2.543   3.456
 1269SOL     OW15025   8.125   1.118   6.174
 1269SOL    HW115026   8.223   1.104   6.157
 1269SOL    HW215027   8.080   1.029   6.181
 1270SOL     OW15028   8.685   2.109   3.113
 1270SOL    HW115029   8.754   2.038   3.100
 1270SOL    HW215030   8.651   2.140   3.023
 1271SOL     OW15031   4.320   3.215   5.046
 1271SOL    HW115032   4.318   3.314   5.054
 1271SOL    HW215033   4.229   3.178   5.064
 1272SOL     OW15034   9.300   7.648   0.614
 1272SOL    HW115035   9.264   7.633   0.522
 1272SOL    HW215036   9.344   7.738   0.618
 1273SOL     OW15037   1.427   0.741   1.581
 1273SOL    HW115038   1.348   0.802   1.579
 1273SOL    HW215039   1.404   0.658   1.631
 1274SOL     OW15040   1.872   2.093   3.142
 1274SOL    HW115041   1.835   2.033   3.071
 1274SOL    HW215042   1.854   2.053   3.232
 1275SOL     OW15043   3.617   6.647   1.206
 1275SOL    HW115044   3.716   6.643   1.220
 1275SOL    HW215045   3.594   6.607   1.117
 1276SOL     OW15046   0.938   5.468   3.972
 1276SOL    HW115047   0.932   5.393   3.907
 1276SOL    HW215048   0.968   5.433   4.061
 1277SOL     OW15049   4.915   2.966   5.564
 1277SOL    HW115050   4.826   2.921   5.572
 1277SOL    HW215051   4.973   2.913   5.503
 1278SOL     OW15052   3.065   4.544   2.236
 1278SOL    HW115053   3.074   4.642   2.251
 1278SOL    HW215054   2.969   4.520   2.223
 1279SOL     OW15055   8.433   7.207   6.379
 1279SOL    HW115056   8.518   7.169   6.341
 1279SOL    HW215057   8.392   7.142   6.442
 1280SOL     OW15058   9.034   8.938   2.169
 1280SOL    HW115059   9.132   8.940   2.147
 1280SOL    HW215060   9.021   8.958   2.266
 1281SOL     OW15061   8.404   8.994   1.867
 1281SOL    HW115062   8.325   9.055   1.878
 1281SOL    HW215063   8.424   8.949   1.954
 1282SOL     OW15064   5.943   8.688   4.196
 1282SOL    HW115065   5.999   8.734   4.127
 1282SOL    HW215066   5.922   8.595   4.165
 1283SOL     OW15067   8.020   3.594   5.671
 1283SOL    HW115068   8.113   3.561   5.656
 1283SOL    HW215069   8.005   3.610   5.769
 1284SOL     OW15070   3.585   1.122   2.439
 1284SOL    HW115071   3.633   1.110   2.351
 1284SOL    HW215072   3.498   1.168   2.423
 1285SOL     OW15073   0.838   5.062   0.278
 1285SOL    HW115074   0.800   4.987   0.223
 1285SOL    HW215075   0.784   5.145   0.263
 1286SOL     OW15076   1.800   0.749   1.504
 1286SOL    HW115077   1.752   0.776   1.587
 1286SOL    HW215078   1.734   0.713   1.437
 1287SOL     OW15079   7.967   9.168   6.327
 1287SOL    HW115080   7.868   9.162   6.342
 1287SOL    HW215081   7.984   9.208   6.237
 1288SOL     OW15082   9.465   5.204   0.976
 1288SOL    HW115083   9.401   5.252   0.915
 1288SOL    HW215084   9.514   5.134   0.924
 1289SOL     OW15085   2.047   7.171   0.629
 1289SOL    HW115086   1.997   7.246   0.673
 1289SOL    HW215087   2.064   7.099   0.696
 1290SOL     OW15088   0.399   8.329   2.557
 1290SOL    HW115089   0.409   8.386   2.639
 1290SOL    HW215090   0.325   8.364   2.501
 1291SOL     OW15091   2.571   2.164   2.688
 1291SOL    HW115092   2.655   2.126   2.648
 1291SOL    HW215093   2.493   2.141   2.630
 1292SOL     OW15094   9.695   4.217   2.287
 1292SOL    HW115095   9.722   4.246   2.195
 1292SOL    HW215096   9.721   4.287   2.354
 1293SOL     OW15097   0.812   0.735   6.035
 1293SOL    HW115098   0.756   0.814   6.062
 1293SOL    HW215099   0.882   0.719   6.104
 1294SOL     OW15100   2.652   7.029   2.450
 1294SOL    HW115101   2.555   7.028   2.428
 1294SOL    HW215102   2.664   7.025   2.549
 1295SOL     OW15103   7.688   5.962   0.646
 1295SOL    HW115104   7.766   5.977   0.586
 1295SOL    HW215105   7.670   5.864   0.654
 1296SOL     OW15106   0.129   6.121   4.752
 1296SOL    HW115107   0.154   6.075   4.666
 1296SOL    HW215108   0.108   6.217   4.734
 1297SOL     OW15109   4.003   9.209   3.407
 1297SOL    HW115110   3.985   9.286   3.468
 1297SOL    HW215111   4.100   9.208   3.382
 1298SOL     OW15112   2.500   7.184   5.657
 1298SOL    HW115113   2.561   7.169   5.579
 1298SOL    HW215114   2.424   7.243   5.629
 1299SOL     OW15115   5.185   8.571   3.197
 1299SOL    HW115116   5.225   8.509   3.130
 1299SOL    HW215117   5.192   8.531   3.288
 1300SOL     OW15118   2.820   1.050   5.232
 1300SOL    HW115119   2.865   1.077   5.317
 1300SOL    HW215120   2.745   1.112   5.212
 1301SOL     OW15121   9.104   2.924   5.455
 1301SOL    HW115122   9.137   2.844   5.504
 1301SOL    HW215123   9.159   2.937   5.372
 1302SOL     OW15124   0.602   4.379   2.764
 1302SOL    HW115125   0.583   4.300   2.705
 1302SOL    HW215126   0.692   4.416   2.740
 1303SOL     OW15127   0.686   7.083   4.953
 1303SOL    HW115128   0.782   7.107   4.970
 1303SOL    HW215129   0.643   7.056   5.039
 1304SOL     OW15130   1.604   2.476   5.195
 1304SOL    HW115131   1.568   2.503   5.285
 1304SOL    HW215132   1.530   2.439   5.139
 1305SOL     OW15133   0.325   5.696   3.195
 1305SOL    HW115134   0.312   5.597   3.197
 1305SOL    HW215135   0.354   5.728   3.285
 1306SOL     OW15136   6.279   0.946   3.425
 1306SOL    HW115137   6.204   1.009   3.405
 1306SOL    HW215138   6.290   0.938   3.524
 1307SOL     OW15139   0.568   9.897   4.150
 1307SOL    HW115140   0.492   9.836   4.126
 1307SOL    HW215141   0.652   9.864   4.107
 1308SOL     OW15142   9.632   5.860   4.359
 1308SOL    HW115143   9.660   5.801   4.436
 1308SOL    HW215144   9.681   5.947   4.366
 1309SOL     OW15145   0.650   4.919   5.449
 1309SOL    HW115146   0.639   5.008   5.407
 1309SOL    HW215147   0.668   4.850   5.378
 1310SOL     OW15148   4.790   1.790   4.993
 1310SOL    HW115149   4.811   1.863   4.929
 1310SOL    HW215150   4.848   1.799   5.074
 1311SOL     OW15151   3.486   4.219   5.993
 1311SOL    HW115152   3.447   4.287   5.932
 1311SOL    HW215153   3.413   4.159   6.027
 1312SOL     OW15154   1.370   9.150   1.140
 1312SOL    HW115155   1.357   9.214   1.064
 1312SOL    HW215156   1.457   9.102   1.129
 1313SOL     OW15157   4.834   4.625   4.236
 1313SOL    HW115158   4.737   4.609   4.254
 1313SOL    HW215159   4.854   4.723   4.242
 1314SOL     OW15160   6.977   4.659   0.274
 1314SOL    HW115161   6.879   4.644   0.259
 1314SOL    HW215162   7.007   4.609   0.355
 1315SOL     OW15163   9.331   5.989   5.849
 1315SOL    HW115164   9.234   6.005   5.864
 1315SOL    HW215165   9.382   6.007   5.933
 1316SOL     OW15166   2.723   4.771   2.484
 1316SOL    HW115167   2.683   4.694   2.433
 1316SOL    HW215168   2.675   4.855   2.461
 1317SOL     OW15169   0.538   7.022   5.194
 1317SOL    HW115170   0.582   6.982   5.274
 1317SOL    HW215171   0.500   6.949   5.137
 1318SOL     OW15172   0.779   1.913   3.280
 1318SOL    HW115173   0.821   1.830   3.244
 1318SOL    HW215174   0.829   1.943   3.362
 1319SOL     OW15175   1.857   0.142   1.806
 1319SOL    HW115176   1.830   0.210   1.875
 1319SOL    HW215177   1.850   0.183   1.715
 1320SOL     OW15178   9.361   1.640   4.728
 1320SOL    HW115179   9.452   1.599   4.737
 1320SOL    HW215180   9.328   1.627   4.634
 1321SOL     OW15181   4.490   1.777   4.041
 1321SOL    HW115182   4.573   1.742   3.998
 1321SOL    HW215183   4.507   1.869   4.076
 1322SOL     OW15184   9.727   2.104   5.750
 1322SOL    HW115185   9.665   2.182   5.750
 1322SOL    HW215186   9.794   2.114   5.823
 1323SOL     OW15187   7.568   0.402   1.728
 1323SOL    HW115188   7.566   0.476   1.661
 1323SOL    HW215189   7.591   0.316   1.682
 1324SOL     OW15190   1.561   1.861   1.433
 1324SOL    HW115191   1.486   1.927   1.437
 1324SOL    HW215192   1.563   1.818   1.343
 1325SOL     OW15193   2.762   3.131   0.393
 1325SOL    HW115194   2.725   3.043   0.424
 1325SOL    HW215195   2.715   3.205   0.441
 1326SOL     OW15196   4.378   4.786   6.414
 1326SOL    HW115197   4.401   4.838   6.332
 1326SOL    HW215198   4.307   4.718   6.391
 1327SOL     OW15199   1.603   6.652   2.714
 1327SOL    HW115200   1.524   6.622   2.660
 1327SOL    HW215201   1.640   6.736   2.675
 1328SOL     OW15202   1.344   9.910   1.465
 1328SOL    HW115203   1.353   9.814   1.491
 1328SOL    HW215204   1.387   9.924   1.375
 1329SOL     OW15205   7.342   6.928   2.881
 1329SOL    HW115206   7.272   6.999   2.869
 1329SOL    HW215207   7.422   6.967   2.925
 1330SOL     OW15208   1.407   5.971   1.674
 1330SOL    HW115209   1.464   5.894   1.703
 1330SOL    HW215210   1.321   5.969   1.724
 1331SOL     OW15211   9.044   9.843   1.986
 1331SOL    HW115212   8.995   9.894   2.057
 1331SOL    HW215213   8.990   9.843   1.902
 1332SOL     OW15214   9.146   0.833   3.500
 1332SOL    HW115215   9.107   0.876   3.581
 1332SOL    HW215216   9.242   0.810   3.516
 1333SOL     OW15217   2.454   1.378   3.674
 1333SOL    HW115218   2.378   1.427   3.717
 1333SOL    HW215219   2.541   1.419   3.703
 1334SOL     OW15220   5.273   9.053   3.096
 1334SOL    HW115221   5.298   8.960   3.119
 1334SOL    HW215222   5.282   9.066   2.997
 1335SOL     OW15223   8.616   3.570   1.131
 1335SOL    HW115224   8.617   3.555   1.230
 1335SOL    HW215225   8.630   3.667   1.112
 1336SOL     OW15226   2.594   7.851   4.673
 1336SOL    HW115227   2.676   7.795   4.679
 1336SOL    HW215228   2.541   7.824   4.592
 1337SOL     OW15229   3.658   2.696   5.570
 1337SOL    HW115230   3.756   2.716   5.569
 1337SOL    HW215231   3.619   2.726   5.657
 1338SOL     OW15232   8.350   9.840   3.717
 1338SOL    HW115233   8.325   9.919   3.772
 1338SOL    HW215234   8.307   9.758   3.754
 1339SOL     OW15235   1.772   1.148   6.029
 1339SOL    HW115236   1.833   1.224   6.050
 1339SOL    HW215237   1.807   1.099   5.949
 1340SOL     OW15238   1.692   0.450   5.054
 1340SOL    HW115239   1.714   0.547   5.063
 1340SOL    HW215240   1.710   0.421   4.960
 1341SOL     OW15241   3.121   2.566   5.614
 1341SOL    HW115242   3.048   2.521   5.665
 1341SOL    HW215243   3.082   2.638   5.557
 1342SOL     OW15244   2.490   8.151   2.882
 1342SOL    HW115245   2.516   8.103   2.965
 1342SOL    HW215246   2.402   8.118   2.849
 1343SOL     OW15247   0.890   1.293   6.099
 1343SOL    HW115248   0.951   1.223   6.062
 1343SOL    HW215249   0.941   1.355   6.159
 1344SOL     OW15250   8.037   9.219   4.695
 1344SOL    HW115251   7.980   9.165   4.633
 1344SOL    HW215252   8.028   9.316   4.673
 1345SOL     OW15253   0.583   7.425   4.234
 1345SOL    HW115254   0.572   7.343   4.177
 1345SOL    HW215255   0.513   7.491   4.211
 1346SOL     OW15256   0.938   7.744   5.695
 1346SOL    HW115257   0.902   7.833   5.723
 1346SOL    HW215258   1.004   7.757   5.621
 1347SOL     OW15259   7.006   7.726   3.027
 1347SOL    HW115260   6.994   7.674   3.112
 1347SOL    HW215261   7.099   7.762   3.023
 1348SOL     OW15262   4.710   9.655   4.313
 1348SOL    HW115263   4.629   9.600   4.336
 1348SOL    HW215264   4.748   9.695   4.396
 1349SOL     OW15265   0.406   4.377   0.179
 1349SOL    HW115266   0.333   4.328   0.131
 1349SOL    HW215267   0.427   4.461   0.129
 1350SOL     OW15268   4.097   7.974   5.267
 1350SOL    HW115269   4.042   8.024   5.201
 1350SOL    HW215270   4.140   8.038   5.331
 1351SOL     OW15271   6.187   9.438   2.229
 1351SOL    HW115272   6.202   9.470   2.322
 1351SOL    HW215273   6.177   9.338   2.229
 1352SOL     OW15274   8.143   5.644   1.390
 1352SOL    HW115275   8.161   5.565   1.332
 1352SOL    HW215276   8.057   5.686   1.363
 1353SOL     OW15277   5.230   9.958   5.968
 1353SOL    HW115278   5.191   9.983   5.880
 1353SOL    HW215279   5.320  10.000   5.977
 1354SOL     OW15280   4.038   1.745   0.736
 1354SOL    HW115281   3.947   1.786   0.746
 1354SOL    HW215282   4.042   1.694   0.650
 1355SOL     OW15283   3.555   0.140   0.306
 1355SOL    HW115284   3.590   0.049   0.281
 1355SOL    HW215285   3.599   0.209   0.249
 1356SOL     OW15286   8.363   9.903   5.960
 1356SOL    HW115287   8.393   9.832   5.897
 1356SOL    HW215288   8.310   9.861   6.035
 1357SOL     OW15289   6.658   4.904   1.077
 1357SOL    HW115290   6.626   4.955   1.156
 1357SOL    HW215291   6.753   4.875   1.091
 1358SOL     OW15292   8.375   4.936   4.131
 1358SOL    HW115293   8.401   5.031   4.112
 1358SOL    HW215294   8.276   4.926   4.120
 1359SOL     OW15295   8.899   2.212   4.570
 1359SOL    HW115296   8.943   2.252   4.650
 1359SOL    HW215297   8.802   2.239   4.569
 1360SOL     OW15298   1.978   9.811   6.312
 1360SOL    HW115299   1.940   9.809   6.405
 1360SOL    HW215300   1.977   9.905   6.278
 1361SOL     OW15301   0.888   8.529   3.740
 1361SOL    HW115302   0.931   8.510   3.828
 1361SOL    HW215303   0.838   8.449   3.709
 1362SOL     OW15304   3.635   8.594   5.608
 1362SOL    HW115305   3.690   8.596   5.524
 1362SOL    HW215306   3.683   8.642   5.681
 1363SOL     OW15307   8.862   4.783   6.172
 1363SOL    HW115308   8.840   4.761   6.076
 1363SOL    HW215309   8.956   4.754   6.192
 1364SOL     OW15310   0.647   0.965   6.017
 1364SOL    HW115311   0.683   1.002   5.931
 1364SOL    HW215312   0.647   1.037   6.086
 1365SOL     OW15313   3.067   7.216   2.331
 1365SOL    HW115314   3.085   7.288   2.398
 1365SOL    HW215315   2.969   7.216   2.308
 1366SOL     OW15316   5.997   7.864   5.224
 1366SOL    HW115317   6.082   7.880   5.274
 1366SOL    HW215318   5.944   7.948   5.220
 1367SOL     OW15319   4.473   9.712   3.164
 1367SOL    HW115320   4.413   9.714   3.244
 1367SOL    HW215321   4.428   9.758   3.087
 1368SOL     OW15322   0.998   3.579   4.101
 1368SOL    HW115323   0.980   3.495   4.153
 1368SOL    HW215324   0.980   3.562   4.004
 1369SOL     OW15325   1.295   8.311   0.221
 1369SOL    HW115326   1.221   8.335   0.158
 1369SOL    HW215327   1.256   8.276   0.306
 1370SOL     OW15328   2.286   4.474   4.525
 1370SOL    HW115329   2.338   4.497   4.443
 1370SOL    HW215330   2.292   4.551   4.590
 1371SOL     OW15331   9.190   6.477   1.613
 1371SOL    HW115332   9.243   6.500   1.531
 1371SOL    HW215333   9.195   6.379   1.629
 1372SOL     OW15334   0.127   8.516   4.960
 1372SOL    HW115335   0.052   8.450   4.961
 1372SOL    HW215336   0.092   8.606   4.934
 1373SOL     OW15337   2.913   2.612   4.013
 1373SOL    HW115338   2.822   2.597   3.976
 1373SOL    HW215339   2.965   2.671   3.952
 1374SOL     OW15340   2.052   2.902   1.804
 1374SOL    HW115341   2.091   2.993   1.821
 1374SOL    HW215342   1.994   2.906   1.723
 1375SOL     OW15343   0.153   0.435   2.888
 1375SOL    HW115344   0.164   0.435   2.987
 1375SOL    HW215345   0.108   0.519   2.859
 1376SOL     OW15346   1.516   7.457   0.281
 1376SOL    HW115347   1.556   7.394   0.215
 1376SOL    HW215348   1.531   7.422   0.374
 1377SOL     OW15349   9.130   2.460   1.004
 1377SOL    HW115350   9.181   2.487   1.085
 1377SOL    HW215351   9.100   2.542   0.955
 1378SOL     OW15352   6.084   3.057   0.700
 1378SOL    HW115353   6.155   3.122   0.728
 1378SOL    HW215354   6.097   2.971   0.747
 1379SOL     OW15355   9.041   8.305   6.350
 1379SOL    HW115356   8.991   8.309   6.263
 1379SOL    HW215357   9.109   8.231   6.345
 1380SOL     OW15358   2.377   9.400   4.832
 1380SOL    HW115359   2.400   9.309   4.800
 1380SOL    HW215360   2.360   9.461   4.754
 1381SOL     OW15361   6.053   9.530   3.078
 1381SOL    HW115362   6.115   9.485   3.143
 1381SOL    HW215363   6.105   9.596   3.023
 1382SOL     OW15364   4.045   0.926   5.771
 1382SOL    HW115365   4.106   0.921   5.692
 1382SOL    HW215366   3.953   0.898   5.743
 1383SOL     OW15367   5.866   8.606   5.006
 1383SOL    HW115368   5.851   8.580   4.911
 1383SOL    HW215369   5.809   8.684   5.029
 1384SOL     OW15370   0.246   9.159   6.212
 1384SOL    HW115371   0.188   9.178   6.133
 1384SOL    HW215372   0.271   9.244   6.257
 1385SOL     OW15373   0.786   4.286   3.174
 1385SOL    HW115374   0.822   4.299   3.081
 1385SOL    HW215375   0.808   4.367   3.229
 1386SOL     OW15376   9.544   6.390   1.237
 1386SOL    HW115377   9.565   6.471   1.181
 1386SOL    HW215378   9.488   6.418   1.316
 1387SOL     OW15379   5.282   5.335   1.655
 1387SOL    HW115380   5.287   5.435   1.650
 1387SOL    HW215381   5.310   5.297   1.567
 1388SOL     OW15382   9.091   1.739   3.110
 1388SOL    HW115383   9.048   1.700   3.191
 1388SOL    HW215384   9.136   1.825   3.134
 1389SOL     OW15385   0.179   4.621   5.113
 1389SOL    HW115386   0.167   4.695   5.179
 1389SOL    HW215387   0.245   4.554   5.150
 1390SOL     OW15388   9.907   8.333   1.461
 1390SOL    HW115389   9.855   8.299   1.383
 1390SOL    HW215390   9.984   8.388   1.429
 1391SOL     OW15391   1.912   1.316   0.161
 1391SOL    HW115392   1.918   1.323   0.260
 1391SOL    HW215393   1.981   1.252   0.128
 1392SOL     OW15394   0.689   7.840   0.901
 1392SOL    HW115395   0.593   7.814   0.895
 1392SOL    HW215396   0.696   7.938   0.920
 1393SOL     OW15397   0.351   5.063   0.722
 1393SOL    HW115398   0.406   4.982   0.745
 1393SOL    HW215399   0.336   5.067   0.624
 1394SOL     OW15400   1.374   1.057   3.364
 1394SOL    HW115401   1.301   1.123   3.344
 1394SOL    HW215402   1.447   1.067   3.296
 1395SOL     OW15403   8.965   6.828   4.454
 1395SOL    HW115404   8.962   6.915   4.502
 1395SOL    HW215405   8.885   6.820   4.394
 1396SOL     OW15406   3.941   7.616   1.242
 1396SOL    HW115407   3.849   7.655   1.235
 1396SOL    HW215408   3.934   7.520   1.271
 1397SOL     OW15409   6.410   0.510   1.208
 1397SOL    HW115410   6.442   0.604   1.217
 1397SOL    HW215411   6.440   0.473   1.121
 1398SOL     OW15412   2.700   0.879   4.838
 1398SOL    HW115413   2.668   0.862   4.744
 1398SOL    HW215414   2.623   0.867   4.901
 1399SOL     OW15415   4.594   2.360   6.284
 1399SOL    HW115416   4.517   2.372   6.222
 1399SOL    HW215417   4.588   2.428   6.358
 1400SOL     OW15418   3.747   4.427   0.278
 1400SOL    HW115419   3.843   4.439   0.254
 1400SOL    HW215420   3.717   4.336   0.251
 1401SOL     OW15421   1.099   1.758   5.087
 1401SOL    HW115422   1.033   1.742   5.160
 1401SOL    HW215423   1.077   1.843   5.040
 1402SOL     OW15424   3.500   2.391   3.664
 1402SOL    HW115425   3.404   2.364   3.669
 1402SOL    HW215426   3.543   2.377   3.753
 1403SOL     OW15427   7.025   9.662   5.149
 1403SOL    HW115428   7.037   9.733   5.080
 1403SOL    HW215429   7.107   9.657   5.206
 1404SOL     OW15430   5.407   8.269   3.336
 1404SOL    HW115431   5.370   8.180   3.362
 1404SOL    HW215432   5.338   8.339   3.350
 1405SOL     OW15433   8.247   0.286   5.159
 1405SOL    HW115434   8.290   0.308   5.071
 1405SOL    HW215435   8.301   0.217   5.206
 1406SOL     OW15436   8.309   5.314   1.483
 1406SOL    HW115437   8.219   5.283   1.451
 1406SOL    HW215438   8.367   5.332   1.404
 1407SOL     OW15439   2.981   6.366   3.640
 1407SOL    HW115440   2.934   6.338   3.723
 1407SOL    HW215441   3.058   6.305   3.623
 1408SOL     OW15442   4.953   8.126   4.892
 1408SOL    HW115443   5.037   8.142   4.944
 1408SOL    HW215444   4.875   8.124   4.955
 1409SOL     OW15445   4.344   3.342   6.338
 1409SOL    HW115446   4.354   3.431   6.293
 1409SOL    HW215447   4.433   3.299   6.349
 1410SOL     OW15448   6.182   1.626   3.337
 1410SOL    HW115449   6.195   1.723   3.358
 1410SOL    HW215450   6.097   1.594   3.380
 1411SOL     OW15451   1.334   1.914   2.646
 1411SOL    HW115452   1.401   1.988   2.646
 1411SOL    HW215453   1.348   1.856   2.565
 1412SOL     OW15454   4.437   2.709   5.483
 1412SOL    HW115455   4.411   2.762   5.402
 1412SOL    HW215456   4.493   2.631   5.456
 1413SOL     OW15457   3.194   2.705   3.041
 1413SOL    HW115458   3.162   2.618   3.076
 1413SOL    HW215459   3.261   2.744   3.105
 1414SOL     OW15460   9.399   4.985   1.340
 1414SOL    HW115461   9.346   5.038   1.273
 1414SOL    HW215462   9.353   4.898   1.357
 1415SOL     OW15463   7.060   3.368   1.928
 1415SOL    HW115464   7.142   3.424   1.937
 1415SOL    HW215465   7.084   3.279   1.890
 1416SOL     OW15466   7.549   0.506   4.738
 1416SOL    HW115467   7.505   0.433   4.687
 1416SOL    HW215468   7.554   0.482   4.835
 1417SOL     OW15469   7.996   6.291   2.024
 1417SOL    HW115470   7.965   6.386   2.012
 1417SOL    HW215471   8.069   6.272   1.958
 1418SOL     OW15472   6.190   7.606   4.478
 1418SOL    HW115473   6.199   7.697   4.438
 1418SOL    HW215474   6.104   7.600   4.529
 1419SOL     OW15475   9.661   0.040   1.915
 1419SOL    HW115476   9.655   0.045   2.014
 1419SOL    HW215477   9.587   9.983   1.879
 1420SOL     OW15478   5.065   2.369   4.971
 1420SOL    HW115479   4.981   2.349   4.922
 1420SOL    HW215480   5.115   2.442   4.924
 1421SOL     OW15481   0.106   6.134   0.525
 1421SOL    HW115482   0.167   6.173   0.457
 1421SOL    HW215483   0.101   6.035   0.514
 1422SOL     OW15484   1.069   1.004   1.752
 1422SOL    HW115485   1.131   0.987   1.676
 1422SOL    HW215486   1.026   0.918   1.780
 1423SOL     OW15487   4.563   2.576   4.894
 1423SOL    HW115488   4.525   2.668   4.895
 1423SOL    HW215489   4.646   2.575   4.838
 1424SOL     OW15490   9.934   8.282   0.771
 1424SOL    HW115491   9.934   8.366   0.826
 1424SOL    HW215492   9.861   8.222   0.803
 1425SOL     OW15493   0.686   0.422   2.898
 1425SOL    HW115494   0.722   0.504   2.854
 1425SOL    HW215495   0.629   0.448   2.976
 1426SOL     OW15496   0.634   0.972   5.530
 1426SOL    HW115497   0.656   1.011   5.619
 1426SOL    HW215498   0.582   1.038   5.476
 1427SOL     OW15499   2.902   8.555   0.870
 1427SOL    HW115500   2.921   8.498   0.950
 1427SOL    HW215501   2.849   8.504   0.804
 1428SOL     OW15502   0.883   4.129   0.291
 1428SOL    HW115503   0.871   4.069   0.370
 1428SOL    HW215504   0.803   4.189   0.281
 1429SOL     OW15505   7.280   8.816   6.097
 1429SOL    HW115506   7.187   8.827   6.062
 1429SOL    HW215507   7.277   8.766   6.183
 1430SOL     OW15508   8.851   7.786   4.490
 1430SOL    HW115509   8.943   7.825   4.495
 1430SOL    HW215510   8.842   7.730   4.408
 1431SOL     OW15511   6.748   9.258   2.897
 1431SOL    HW115512   6.763   9.175   2.951
 1431SOL    HW215513   6.652   9.285   2.903
 1432SOL     OW15514   3.685   4.802   1.122
 1432SOL    HW115515   3.664   4.892   1.085
 1432SOL    HW215516   3.782   4.783   1.109
 1433SOL     OW15517   9.594   7.056   3.744
 1433SOL    HW115518   9.650   6.997   3.686
 1433SOL    HW215519   9.651   7.099   3.814
 1434SOL     OW15520   0.524   3.650   6.377
 1434SOL    HW115521   0.480   3.654   6.466
 1434SOL    HW215522   0.468   3.699   6.309
 1435SOL     OW15523   8.817   9.658   4.210
 1435SOL    HW115524   8.740   9.713   4.178
 1435SOL    HW215525   8.882   9.645   4.135
 1436SOL     OW15526   4.466   3.287   4.277
 1436SOL    HW115527   4.405   3.330   4.343
 1436SOL    HW215528   4.420   3.208   4.236
 1437SOL     OW15529   0.235   4.024   2.839
 1437SOL    HW115530   0.266   3.938   2.800
 1437SOL    HW215531   0.274   4.035   2.931
 1438SOL     OW15532   0.270   1.324   3.721
 1438SOL    HW115533   0.323   1.253   3.675
 1438SOL    HW215534   0.207   1.366   3.656
 1439SOL     OW15535   6.427   1.960   0.155
 1439SOL    HW115536   6.468   2.045   0.121
 1439SOL    HW215537   6.486   1.883   0.131
 1440SOL     OW15538   6.873   0.423   2.866
 1440SOL    HW115539   6.821   0.420   2.951
 1440SOL    HW215540   6.908   0.515   2.851
 1441SOL     OW15541   2.178   7.800   4.980
 1441SOL    HW115542   2.218   7.821   5.070
 1441SOL    HW215543   2.200   7.873   4.916
 1442SOL     OW15544   1.490   6.915   0.322
 1442SOL    HW115545   1.524   6.978   0.391
 1442SOL    HW215546   1.530   6.938   0.233
 1443SOL     OW15547   0.564   0.195   2.800
 1443SOL    HW115548   0.623   0.267   2.835
 1443SOL    HW215549   0.481   0.235   2.761
 1444SOL     OW15550   8.247   5.319   5.601
 1444SOL    HW115551   8.173   5.372   5.643
 1444SOL    HW215552   8.335   5.358   5.627
 1445SOL     OW15553   1.445   1.124   1.554
 1445SOL    HW115554   1.432   1.169   1.643
 1445SOL    HW215555   1.543   1.117   1.535
 1446SOL     OW15556   4.838   5.282   1.244
 1446SOL    HW115557   4.755   5.229   1.261
 1446SOL    HW215558   4.869   5.325   1.330
 1447SOL     OW15559   2.857   4.001   5.481
 1447SOL    HW115560   2.797   3.988   5.402
 1447SOL    HW215561   2.872   4.098   5.497
 1448SOL     OW15562   8.911   1.694   6.152
 1448SOL    HW115563   8.889   1.789   6.132
 1448SOL    HW215564   8.989   1.689   6.215
 1449SOL     OW15565   2.000   7.395   4.656
 1449SOL    HW115566   2.089   7.354   4.640
 1449SOL    HW215567   2.011   7.477   4.713
 1450SOL     OW15568   4.265   1.672   2.801
 1450SOL    HW115569   4.194   1.677   2.870
 1450SOL    HW215570   4.282   1.764   2.764
 1451SOL     OW15571   3.115   1.605   4.727
 1451SOL    HW115572   3.167   1.570   4.649
 1451SOL    HW215573   3.131   1.703   4.736
 1452SOL     OW15574   7.448   3.526   6.373
 1452SOL    HW115575   7.380   3.542   6.301
 1452SOL    HW215576   7.441   3.599   6.441
 1453SOL     OW15577   0.089   4.055   3.798
 1453SOL    HW115578   0.059   4.006   3.716
 1453SOL    HW215579   0.179   4.096   3.782
 1454SOL     OW15580   6.173   9.111   6.080
 1454SOL    HW115581   6.146   9.199   6.119
 1454SOL    HW215582   6.099   9.077   6.021
 1455SOL     OW15583   3.057   3.335   5.677
 1455SOL    HW115584   3.099   3.246   5.664
 1455SOL    HW215585   2.986   3.349   5.608
 1456SOL     OW15586   2.257   1.183   3.624
 1456SOL    HW115587   2.276   1.152   3.531
 1456SOL    HW215588   2.326   1.249   3.652
 1457SOL     OW15589   2.931   9.427   0.553
 1457SOL    HW115590   2.927   9.333   0.586
 1457SOL    HW215591   2.901   9.429   0.457
 1458SOL     OW15592   9.619   4.338   0.351
 1458SOL    HW115593   9.666   4.289   0.426
 1458SOL    HW215594   9.615   4.279   0.271
 1459SOL     OW15595   0.468   6.913   1.194
 1459SOL    HW115596   0.426   6.906   1.284
 1459SOL    HW215597   0.418   6.981   1.139
 1460SOL     OW15598   5.318   0.671   5.090
 1460SOL    HW115599   5.302   0.576   5.117
 1460SOL    HW215600   5.378   0.673   5.010
 1461SOL     OW15601   5.779   9.991   5.384
 1461SOL    HW115602   5.822   9.985   5.474
 1461SOL    HW215603   5.850   9.988   5.313
 1462SOL     OW15604   7.839   4.358   5.554
 1462SOL    HW115605   7.780   4.282   5.525
 1462SOL    HW215606   7.836   4.367   5.654
 1463SOL     OW15607   2.802   2.909   4.583
 1463SOL    HW115608   2.883   2.858   4.556
 1463SOL    HW215609   2.801   2.997   4.535
 1464SOL     OW15610   5.437   1.305   4.687
 1464SOL    HW115611   5.344   1.268   4.694
 1464SOL    HW215612   5.451   1.340   4.594
 1465SOL     OW15613   3.301   5.757   6.341
 1465SOL    HW115614   3.228   5.746   6.274
 1465SOL    HW215615   3.288   5.693   6.416
 1466SOL     OW15616   6.934   1.452   2.656
 1466SOL    HW115617   6.866   1.405   2.712
 1466SOL    HW215618   6.914   1.435   2.559
 1467SOL     OW15619   3.668   2.134   0.912
 1467SOL    HW115620   3.593   2.200   0.906
 1467SOL    HW215621   3.751   2.180   0.944
 1468SOL     OW15622   2.242   1.644   0.972
 1468SOL    HW115623   2.274   1.714   1.036
 1468SOL    HW215624   2.190   1.575   1.022
 1469SOL     OW15625   6.754   0.647   1.101
 1469SOL    HW115626   6.824   0.683   1.161
 1469SOL    HW215627   6.797   0.599   1.024
 1470SOL     OW15628   4.393   8.551   2.796
 1470SOL    HW115629   4.444   8.637   2.788
 1470SOL    HW215630   4.367   8.537   2.891
 1471SOL     OW15631   5.874   3.789   0.419
 1471SOL    HW115632   5.971   3.790   0.444
 1471SOL    HW215633   5.823   3.739   0.490
 1472SOL     OW15634   0.946   7.138   5.015
 1472SOL    HW115635   1.037   7.126   4.975
 1472SOL    HW215636   0.930   7.236   5.033
 1473SOL     OW15637   6.983   2.649   4.396
 1473SOL    HW115638   6.977   2.626   4.299
 1473SOL    HW215639   6.947   2.741   4.411
 1474SOL     OW15640   5.649   5.610   1.178
 1474SOL    HW115641   5.633   5.707   1.157
 1474SOL    HW215642   5.747   5.591   1.175
 1475SOL     OW15643   1.793   1.616   5.779
 1475SOL    HW115644   1.867   1.559   5.742
 1475SOL    HW215645   1.793   1.609   5.879
 1476SOL     OW15646   8.692   8.335   3.351
 1476SOL    HW115647   8.594   8.323   3.337
 1476SOL    HW215648   8.742   8.259   3.309
 1477SOL     OW15649   6.859   2.989   5.832
 1477SOL    HW115650   6.948   3.016   5.796
 1477SOL    HW215651   6.792   2.985   5.757
 1478SOL     OW15652   3.873   1.514   0.394
 1478SOL    HW115653   3.884   1.418   0.369
 1478SOL    HW215654   3.957   1.548   0.437
 1479SOL     OW15655   3.545   6.225   5.539
 1479SOL    HW115656   3.515   6.131   5.550
 1479SOL    HW215657   3.587   6.258   5.623
 1480SOL     OW15658   3.266   5.691   2.099
 1480SOL    HW115659   3.259   5.603   2.051
 1480SOL    HW215660   3.349   5.692   2.154
 1481SOL     OW15661   2.895   7.152   0.220
 1481SOL    HW115662   2.831   7.223   0.194
 1481SOL    HW215663   2.977   7.194   0.259
 1482SOL     OW15664   2.355   9.719   0.053
 1482SOL    HW115665   2.398   9.630   0.070
 1482SOL    HW215666   2.256   9.709   0.053
 1483SOL     OW15667   2.671   9.463   1.977
 1483SOL    HW115668   2.746   9.463   2.043
 1483SOL    HW215669   2.638   9.370   1.964
 1484SOL     OW15670   9.076   5.827   4.736
 1484SOL    HW115671   9.068   5.912   4.787
 1484SOL    HW215672   9.169   5.817   4.700
 1485SOL     OW15673   2.365   5.728   5.139
 1485SOL    HW115674   2.399   5.635   5.143
 1485SOL    HW215675   2.310   5.740   5.056
 1486SOL     OW15676   0.390   9.038   0.789
 1486SOL    HW115677   0.373   9.134   0.812
 1486SOL    HW215678   0.452   8.999   0.856
 1487SOL     OW15679   9.403   1.255   5.230
 1487SOL    HW115680   9.453   1.179   5.187
 1487SOL    HW215681   9.332   1.287   5.167
 1488SOL     OW15682   5.065   4.765   0.626
 1488SOL    HW115683   4.980   4.736   0.670
 1488SOL    HW215684   5.129   4.688   0.624
 1489SOL     OW15685   3.479   5.973   6.275
 1489SOL    HW115686   3.471   5.957   6.176
 1489SOL    HW215687   3.415   5.914   6.324
 1490SOL     OW15688   2.340   0.582   2.152
 1490SOL    HW115689   2.387   0.665   2.183
 1490SOL    HW215690   2.326   0.586   2.053
 1491SOL     OW15691   9.409   3.763   4.626
 1491SOL    HW115692   9.492   3.737   4.676
 1491SOL    HW215693   9.434   3.802   4.538
 1492SOL     OW15694   0.376   1.888   5.646
 1492SOL    HW115695   0.424   1.968   5.609
 1492SOL    HW215696   0.378   1.891   5.746
 1493SOL     OW15697   7.326   2.480   0.577
 1493SOL    HW115698   7.424   2.482   0.553
 1493SOL    HW215699   7.273   2.455   0.496
 1494SOL     OW15700   8.604   1.815   4.332
 1494SOL    HW115701   8.519   1.864   4.311
 1494SOL    HW215702   8.630   1.759   4.253
 1495SOL     OW15703   8.307   3.666   4.303
 1495SOL    HW115704   8.227   3.670   4.242
 1495SOL    HW215705   8.284   3.616   4.385
 1496SOL     OW15706   9.473   3.086   5.285
 1496SOL    HW115707   9.391   3.038   5.254
 1496SOL    HW215708   9.447   3.165   5.341
 1497SOL     OW15709   8.925   5.696   2.651
 1497SOL    HW115710   8.917   5.597   2.664
 1497SOL    HW215711   8.919   5.742   2.739
 1498SOL     OW15712   6.608   7.706   4.511
 1498SOL    HW115713   6.557   7.638   4.564
 1498SOL    HW215714   6.573   7.706   4.417
 1499SOL     OW15715   7.363   0.573   0.052
 1499SOL    HW115716   7.396   0.667   0.040
 1499SOL    HW215717   7.263   0.574   0.059
 1500SOL     OW15718   5.410   4.069   0.384
 1500SOL    HW115719   5.464   4.149   0.412
 1500SOL    HW215720   5.472   3.993   0.363
 1501SOL     OW15721   3.944   9.148   2.300
 1501SOL    HW115722   3.982   9.130   2.390
 1501SOL    HW215723   3.997   9.099   2.231
 1502SOL     OW15724   6.949   0.037   3.607
 1502SOL    HW115725   6.890   0.053   3.686
 1502SOL    HW215726   6.915   9.958   3.556
 1503SOL     OW15727   7.939   6.995   6.131
 1503SOL    HW115728   7.879   7.072   6.106
 1503SOL    HW215729   8.034   7.020   6.111
 1504SOL     OW15730   3.200   4.714   0.525
 1504SOL    HW115731   3.194   4.692   0.622
 1504SOL    HW215732   3.270   4.657   0.482
 1505SOL     OW15733   8.310   4.000   0.536
 1505SOL    HW115734   8.338   3.917   0.584
 1505SOL    HW215735   8.356   4.005   0.447
 1506SOL     OW15736   4.383   7.707   3.137
 1506SOL    HW115737   4.287   7.735   3.133
 1506SOL    HW215738   4.431   7.737   3.054
 1507SOL     OW15739   8.615   1.081   1.182
 1507SOL    HW115740   8.685   1.146   1.153
 1507SOL    HW215741   8.648   0.988   1.167
 1508SOL     OW15742   2.388   9.757   1.845
 1508SOL    HW115743   2.368   9.665   1.812
 1508SOL    HW215744   2.310   9.793   1.896
 1509SOL     OW15745   1.279   4.622   3.348
 1509SOL    HW115746   1.304   4.716   3.328
 1509SOL    HW215747   1.257   4.614   3.446
 1510SOL     OW15748   1.656   9.712   4.105
 1510SOL    HW115749   1.744   9.745   4.072
 1510SOL    HW215750   1.624   9.638   4.046
 1511SOL     OW15751   0.700   0.790   3.615
 1511SOL    HW115752   0.752   0.867   3.577
 1511SOL    HW215753   0.759   0.709   3.620
 1512SOL     OW15754   0.743   9.517   2.789
 1512SOL    HW115755   0.789   9.495   2.704
 1512SOL    HW215756   0.760   9.444   2.856
 1513SOL     OW15757   2.737   9.958   1.007
 1513SOL    HW115758   2.637   9.964   1.010
 1513SOL    HW215759   2.766   9.925   0.917
 1514SOL     OW15760   0.011   1.639   4.400
 1514SOL    HW115761   9.950   1.662   4.324
 1514SOL    HW215762   0.078   1.571   4.370
 1515SOL     OW15763   1.402   1.224   4.411
 1515SOL    HW115764   1.425   1.129   4.390
 1515SOL    HW215765   1.468   1.285   4.366
 1516SOL     OW15766   8.783   2.790   1.535
 1516SOL    HW115767   8.782   2.839   1.622
 1516SOL    HW215768   8.702   2.814   1.482
 1517SOL     OW15769   4.892   3.123   6.083
 1517SOL    HW115770   4.926   3.214   6.105
 1517SOL    HW215771   4.923   3.096   5.992
 1518SOL     OW15772   3.718   1.283   4.153
 1518SOL    HW115773   3.812   1.291   4.185
 1518SOL    HW215774   3.682   1.193   4.178
 1519SOL     OW15775   0.390   1.722   3.386
 1519SOL    HW115776   0.302   1.765   3.406
 1519SOL    HW215777   0.461   1.762   3.443
 1520SOL     OW15778   0.868   5.982   0.729
 1520SOL    HW115779   0.798   5.970   0.659
 1520SOL    HW215780   0.842   5.931   0.811
 1521SOL     OW15781   2.649   4.013   1.678
 1521SOL    HW115782   2.575   4.055   1.731
 1521SOL    HW215783   2.719   3.978   1.740
 1522SOL     OW15784   1.474   8.755   1.066
 1522SOL    HW115785   1.520   8.668   1.050
 1522SOL    HW215786   1.402   8.768   0.998
 1523SOL     OW15787   4.137   9.285   2.710
 1523SOL    HW115788   4.147   9.193   2.747
 1523SOL    HW215789   4.040   9.305   2.693
 1524SOL     OW15790   0.534   3.505   3.174
 1524SOL    HW115791   0.505   3.415   3.140
 1524SOL    HW215792   0.580   3.493   3.262
 1525SOL     OW15793   2.318   2.214   1.564
 1525SOL    HW115794   2.318   2.253   1.656
 1525SOL    HW215795   2.357   2.281   1.500
 1526SOL     OW15796   1.330   6.512   4.318
 1526SOL    HW115797   1.412   6.542   4.367
 1526SOL    HW215798   1.296   6.427   4.359
 1527SOL     OW15799   8.742   4.466   5.833
 1527SOL    HW115800   8.735   4.377   5.878
 1527SOL    HW215801   8.794   4.456   5.748
 1528SOL     OW15802   0.547   9.561   2.240
 1528SOL    HW115803   0.487   9.636   2.269
 1528SOL    HW215804   0.495   9.476   2.235
 1529SOL     OW15805   4.550   6.576   2.639
 1529SOL    HW115806   4.498   6.661   2.651
 1529SOL    HW215807   4.515   6.507   2.701
 1530SOL     OW15808   4.636   0.324   4.780
 1530SOL    HW115809   4.635   0.405   4.721
 1530SOL    HW215810   4.715   0.268   4.757
 1531SOL     OW15811   8.225   4.662   5.167
 1531SOL    HW115812   8.312   4.618   5.147
 1531SOL    HW215813   8.206   4.653   5.265
 1532SOL     OW15814   3.923   2.945   0.373
 1532SOL    HW115815   3.995   2.947   0.442
 1532SOL    HW215816   3.941   2.871   0.309
 1533SOL     OW15817   1.957   9.030   1.186
 1533SOL    HW115818   1.954   8.944   1.137
 1533SOL    HW215819   1.878   9.036   1.248
 1534SOL     OW15820   9.252   1.098   5.820
 1534SOL    HW115821   9.226   1.085   5.725
 1534SOL    HW215822   9.217   1.023   5.875
 1535SOL     OW15823   9.846   7.671   5.970
 1535SOL    HW115824   9.930   7.673   5.916
 1535SOL    HW215825   9.801   7.583   5.959
 1536SOL     OW15826   9.022   8.248   2.140
 1536SOL    HW115827   9.013   8.293   2.051
 1536SOL    HW215828   9.046   8.316   2.209
 1537SOL     OW15829   2.291   2.152   5.708
 1537SOL    HW115830   2.206   2.104   5.727
 1537SOL    HW215831   2.358   2.088   5.670
 1538SOL     OW15832   8.670   5.647   5.225
 1538SOL    HW115833   8.707   5.739   5.207
 1538SOL    HW215834   8.664   5.597   5.139
 1539SOL     OW15835   0.130   2.079   5.610
 1539SOL    HW115836   0.196   2.017   5.568
 1539SOL    HW215837   0.114   2.051   5.705
 1540SOL     OW15838   9.763   3.915   0.288
 1540SOL    HW115839   9.848   3.935   0.336
 1540SOL    HW215840   9.688   3.907   0.354
 1541SOL     OW15841   2.161   7.845   5.495
 1541SOL    HW115842   2.097   7.772   5.517
 1541SOL    HW215843   2.151   7.919   5.562
 1542SOL     OW15844   2.804   9.128   4.340
 1542SOL    HW115845   2.758   9.082   4.416
 1542SOL    HW215846   2.903   9.119   4.350
 1543SOL     OW15847   0.491   2.338   5.727
 1543SOL    HW115848   0.554   2.312   5.800
 1543SOL    HW215849   0.541   2.387   5.656
 1544SOL     OW15850   3.563   0.176   0.577
 1544SOL    HW115851   3.593   0.092   0.623
 1544SOL    HW215852   3.562   0.162   0.478
 1545SOL     OW15853   7.051   1.770   3.899
 1545SOL    HW115854   7.009   1.780   3.989
 1545SOL    HW215855   7.149   1.786   3.906
 1546SOL     OW15856   3.092   4.829   4.022
 1546SOL    HW115857   3.113   4.887   3.944
 1546SOL    HW215858   3.080   4.735   3.992
 1547SOL     OW15859   7.815   3.931   2.045
 1547SOL    HW115860   7.907   3.968   2.062
 1547SOL    HW215861   7.809   3.903   1.949
 1548SOL     OW15862   6.569   0.337   2.487
 1548SOL    HW115863   6.635   0.317   2.559
 1548SOL    HW215864   6.583   0.274   2.410
 1549SOL     OW15865   8.702   4.229   5.969
 1549SOL    HW115866   8.765   4.157   5.995
 1549SOL    HW215867   8.626   4.232   6.034
 1550SOL     OW15868   8.973   0.104   6.246
 1550SOL    HW115869   8.907   0.104   6.172
 1550SOL    HW215870   9.009   0.197   6.259
 1551SOL     OW15871   1.689   6.911   1.371
 1551SOL    HW115872   1.619   6.846   1.340
 1551SOL    HW215873   1.680   6.926   1.469
 1552SOL     OW15874   8.897   9.352   0.955
 1552SOL    HW115875   8.809   9.399   0.968
 1552SOL    HW215876   8.882   9.255   0.942
 1553SOL     OW15877   3.421   7.711   1.983
 1553SOL    HW115878   3.334   7.747   2.017
 1553SOL    HW215879   3.467   7.661   2.056
 1554SOL     OW15880   9.132   9.641   2.657
 1554SOL    HW115881   9.186   9.649   2.741
 1554SOL    HW215882   9.160   9.712   2.592
 1555SOL     OW15883   9.975   2.573   0.418
 1555SOL    HW115884   9.879   2.550   0.400
 1555SOL    HW215885   0.004   2.528   0.503
 1556SOL     OW15886   8.374   5.740   3.196
 1556SOL    HW115887   8.370   5.840   3.188
 1556SOL    HW215888   8.461   5.713   3.238
 1557SOL     OW15889   9.122   2.004   4.277
 1557SOL    HW115890   9.213   2.037   4.303
 1557SOL    HW215891   9.130   1.947   4.195
 1558SOL     OW15892   9.384   5.132   3.597
 1558SOL    HW115893   9.299   5.135   3.651
 1558SOL    HW215894   9.363   5.099   3.505
 1559SOL     OW15895   9.832   6.191   0.536
 1559SOL    HW115896   9.932   6.196   0.545
 1559SOL    HW215897   9.804   6.095   0.535
 1560SOL     OW15898   0.150   0.986   3.567
 1560SOL    HW115899   0.134   0.987   3.665
 1560SOL    HW215900   0.232   1.040   3.546
 1561SOL     OW15901   3.267   8.447   6.256
 1561SOL    HW115902   3.258   8.525   6.318
 1561SOL    HW215903   3.205   8.458   6.179
 1562SOL     OW15904   5.746   6.338   1.260
 1562SOL    HW115905   5.718   6.428   1.295
 1562SOL    HW215906   5.666   6.287   1.232
 1563SOL     OW15907   1.714   6.035   1.047
 1563SOL    HW115908   1.777   6.112   1.034
 1563SOL    HW215909   1.741   5.959   0.988
 1564SOL     OW15910   2.265   1.634   3.018
 1564SOL    HW115911   2.336   1.648   3.086
 1564SOL    HW215912   2.229   1.541   3.025
 1565SOL     OW15913   0.570   3.146   3.708
 1565SOL    HW115914   0.586   3.050   3.684
 1565SOL    HW215915   0.639   3.203   3.665
 1566SOL     OW15916   2.785   6.849   1.279
 1566SOL    HW115917   2.795   6.829   1.377
 1566SOL    HW215918   2.795   6.948   1.264
 1567SOL     OW15919   8.877   1.582   5.262
 1567SOL    HW115920   8.818   1.530   5.200
 1567SOL    HW215921   8.956   1.616   5.212
 1568SOL     OW15922   3.933   2.204   0.112
 1568SOL    HW115923   3.874   2.266   0.060
 1568SOL    HW215924   3.885   2.175   0.195
 1569SOL     OW15925   8.957   4.605   4.002
 1569SOL    HW115926   9.001   4.568   3.920
 1569SOL    HW215927   8.859   4.615   3.985
 1570SOL     OW15928   5.749   8.116   3.411
 1570SOL    HW115929   5.722   8.203   3.452
 1570SOL    HW215930   5.728   8.116   3.314
 1571SOL     OW15931   7.932   2.036   3.504
 1571SOL    HW115932   8.017   1.982   3.513
 1571SOL    HW215933   7.913   2.081   3.591
 1572SOL     OW15934   1.460   4.449   3.216
 1572SOL    HW115935   1.398   4.509   3.268
 1572SOL    HW215936   1.487   4.495   3.131
 1573SOL     OW15937   8.043   2.182   1.365
 1573SOL    HW115938   8.087   2.114   1.307
 1573SOL    HW215939   8.105   2.259   1.381
 1574SOL     OW15940   3.411   2.948   0.977
 1574SOL    HW115941   3.442   3.034   0.937
 1574SOL    HW215942   3.361   2.967   1.062
 1575SOL     OW15943   8.051   0.950   5.169
 1575SOL    HW115944   8.064   1.033   5.224
 1575SOL    HW215945   8.128   0.939   5.106
 1576SOL     OW15946   2.522   3.640   2.147
 1576SOL    HW115947   2.579   3.632   2.065
 1576SOL    HW215948   2.572   3.690   2.217
 1577SOL     OW15949   5.715   0.308   2.588
 1577SOL    HW115950   5.754   0.399   2.595
 1577SOL    HW215951   5.648   0.295   2.662
 1578SOL     OW15952   8.683   2.444   2.907
 1578SOL    HW115953   8.782   2.458   2.900
 1578SOL    HW215954   8.645   2.505   2.977
 1579SOL     OW15955   4.713   8.466   3.555
 1579SOL    HW115956   4.742   8.559   3.533
 1579SOL    HW215957   4.616   8.466   3.578
 1580SOL     OW15958   2.641   5.353   4.587
 1580SOL    HW115959   2.622   5.356   4.489
 1580SOL    HW215960   2.561   5.321   4.636
 1581SOL     OW15961   3.750   1.864   1.147
 1581SOL    HW115962   3.776   1.951   1.189
 1581SOL    HW215963   3.654   1.869   1.119
 1582SOL     OW15964   8.094   1.359   5.057
 1582SOL    HW115965   8.002   1.335   5.023
 1582SOL    HW215966   8.087   1.439   5.117
 1583SOL     OW15967   8.536   7.355   4.015
 1583SOL    HW115968   8.628   7.385   4.039
 1583SOL    HW215969   8.540   7.278   3.953
 1584SOL     OW15970   3.363   1.440   5.540
 1584SOL    HW115971   3.335   1.396   5.625
 1584SOL    HW215972   3.446   1.493   5.556
 1585SOL     OW15973   5.246   0.446   5.706
 1585SOL    HW115974   5.255   0.420   5.802
 1585SOL    HW215975   5.316   0.514   5.683
 1586SOL     OW15976   8.374   1.968   4.292
 1586SOL    HW115977   8.393   2.051   4.240
 1586SOL    HW215978   8.370   1.989   4.390
 1587SOL     OW15979   4.788   8.040   4.506
 1587SOL    HW115980   4.860   8.049   4.436
 1587SOL    HW215981   4.747   7.949   4.499
 1588SOL     OW15982   6.977   5.643   1.298
 1588SOL    HW115983   6.954   5.561   1.351
 1588SOL    HW215984   6.959   5.626   1.201
 1589SOL     OW15985   8.930   6.215   3.155
 1589SOL    HW115986   8.840   6.224   3.113
 1589SOL    HW215987   8.921   6.219   3.254
 1590SOL     OW15988   7.848   1.953   1.740
 1590SOL    HW115989   7.765   1.898   1.750
 1590SOL    HW215990   7.890   1.967   1.829
 1591SOL     OW15991   1.148   9.555   5.575
 1591SOL    HW115992   1.055   9.566   5.610
 1591SOL    HW215993   1.204   9.508   5.644
 1592SOL     OW15994   7.173   7.854   2.680
 1592SOL    HW115995   7.267   7.871   2.706
 1592SOL    HW215996   7.111   7.898   2.744
 1593SOL     OW15997   7.358   9.494   6.332
 1593SOL    HW115998   7.337   9.540   6.418
 1593SOL    HW215999   7.275   9.487   6.277
 1594SOL     OW16000   7.244   5.897   1.665
 1594SOL    HW116001   7.199   5.860   1.583
 1594SOL    HW216002   7.200   5.983   1.691
 1595SOL     OW16003   0.537   9.328   2.922
 1595SOL    HW116004   0.500   9.296   2.835
 1595SOL    HW216005   0.632   9.298   2.930
 1596SOL     OW16006   3.459   9.039   0.261
 1596SOL    HW116007   3.523   9.093   0.207
 1596SOL    HW216008   3.369   9.041   0.218
 1597SOL     OW16009   3.521   3.087   5.441
 1597SOL    HW116010   3.504   2.989   5.433
 1597SOL    HW216011   3.585   3.116   5.369
 1598SOL     OW16012   3.269   1.396   3.559
 1598SOL    HW116013   3.177   1.359   3.570
 1598SOL    HW216014   3.336   1.323   3.569
 1599SOL     OW16015   0.936   4.735   5.107
 1599SOL    HW116016   0.926   4.701   5.013
 1599SOL    HW216017   1.014   4.689   5.150
 1600SOL     OW16018   1.403   9.406   1.896
 1600SOL    HW116019   1.478   9.340   1.905
 1600SOL    HW216020   1.435   9.496   1.928
 1601SOL     OW16021   4.036   1.325   1.968
 1601SOL    HW116022   4.013   1.252   2.031
 1601SOL    HW216023   4.009   1.299   1.875
 1602SOL     OW16024   6.061   1.541   0.301
 1602SOL    HW116025   6.064   1.449   0.340
 1602SOL    HW216026   6.081   1.537   0.203
 1603SOL     OW16027   9.445   9.596   3.112
 1603SOL    HW116028   9.511   9.521   3.106
 1603SOL    HW216029   9.466   9.665   3.043
 1604SOL     OW16030   8.521   3.594   5.878
 1604SOL    HW116031   8.588   3.556   5.813
 1604SOL    HW216032   8.455   3.524   5.902
 1605SOL     OW16033   0.977   1.188   2.902
 1605SOL    HW116034   0.954   1.234   2.988
 1605SOL    HW216035   1.021   1.100   2.922
 1606SOL     OW16036   7.779   0.084   1.898
 1606SOL    HW116037   7.763   0.091   1.997
 1606SOL    HW216038   7.808   9.991   1.876
 1607SOL     OW16039   1.233   5.741   0.788
 1607SOL    HW116040   1.226   5.815   0.855
 1607SOL    HW216041   1.166   5.755   0.715
 1608SOL     OW16042   4.364   1.902   1.021
 1608SOL    HW116043   4.352   1.909   0.922
 1608SOL    HW216044   4.323   1.817   1.054
 1609SOL     OW16045   1.598   5.868   0.674
 1609SOL    HW116046   1.647   5.851   0.759
 1609SOL    HW216047   1.587   5.783   0.623
 1610SOL     OW16048   1.402   8.648   3.246
 1610SOL    HW116049   1.476   8.687   3.190
 1610SOL    HW216050   1.441   8.594   3.320
 1611SOL     OW16051   9.173   6.242   0.067
 1611SOL    HW116052   9.075   6.250   0.086
 1611SOL    HW216053   9.213   6.333   0.057
 1612SOL     OW16054   9.869   3.484   4.758
 1612SOL    HW116055   9.863   3.393   4.716
 1612SOL    HW216056   9.851   3.476   4.856
 1613SOL     OW16057   4.957   9.367   2.433
 1613SOL    HW116058   4.967   9.441   2.367
 1613SOL    HW216059   4.943   9.406   2.524
 1614SOL     OW16060   0.886   7.271   4.603
 1614SOL    HW116061   0.806   7.305   4.553
 1614SOL    HW216062   0.917   7.341   4.668
 1615SOL     OW16063   0.087   7.651   5.824
 1615SOL    HW116064   0.147   7.588   5.774
 1615SOL    HW216065   0.066   7.730   5.765
 1616SOL     OW16066   8.878   6.076   4.256
 1616SOL    HW116067   8.942   6.026   4.197
 1616SOL    HW216068   8.795   6.022   4.268
 1617SOL     OW16069   9.253   3.915   6.296
 1617SOL    HW116070   9.172   3.966   6.267
 1617SOL    HW216071   9.329   3.937   6.235
 1618SOL     OW16072   8.379   3.225   5.583
 1618SOL    HW116073   8.410   3.223   5.488
 1618SOL    HW216074   8.449   3.186   5.642
 1619SOL     OW16075   7.545   7.327   1.919
 1619SOL    HW116076   7.483   7.403   1.936
 1619SOL    HW216077   7.553   7.312   1.820
 1620SOL     OW16078   3.444   4.516   3.033
 1620SOL    HW116079   3.350   4.507   3.066
 1620SOL    HW216080   3.445   4.569   2.948
 1621SOL     OW16081   0.835   0.273   5.932
 1621SOL    HW116082   0.787   0.361   5.936
 1621SOL    HW216083   0.873   0.253   6.022
 1622SOL     OW16084   6.766   1.835   4.733
 1622SOL    HW116085   6.699   1.760   4.730
 1622SOL    HW216086   6.856   1.799   4.758
 1623SOL     OW16087   2.023   5.531   1.467
 1623SOL    HW116088   2.017   5.533   1.367
 1623SOL    HW216089   2.006   5.623   1.503
 1624SOL     OW16090   9.226   8.104   4.181
 1624SOL    HW116091   9.256   8.061   4.267
 1624SOL    HW216092   9.199   8.198   4.199
 1625SOL     OW16093   2.699   6.748   4.832
 1625SOL    HW116094   2.734   6.654   4.828
 1625SOL    HW216095   2.647   6.767   4.750
 1626SOL     OW16096   2.029   7.784   5.791
 1626SOL    HW116097   1.978   7.863   5.825
 1626SOL    HW216098   2.125   7.793   5.816
 1627SOL     OW16099   2.153   1.047   0.393
 1627SOL    HW116100   2.186   0.955   0.371
 1627SOL    HW216101   2.055   1.043   0.414
 1628SOL     OW16102   5.189   2.744   0.665
 1628SOL    HW116103   5.092   2.732   0.642
 1628SOL    HW216104   5.198   2.816   0.734
 1629SOL     OW16105   5.764   0.369   3.495
 1629SOL    HW116106   5.747   0.281   3.450
 1629SOL    HW216107   5.781   0.354   3.592
 1630SOL     OW16108   3.406   5.348   0.493
 1630SOL    HW116109   3.430   5.389   0.581
 1630SOL    HW216110   3.484   5.353   0.431
 1631SOL     OW16111   4.133   8.559   5.599
 1631SOL    HW116112   4.167   8.616   5.673
 1631SOL    HW216113   4.208   8.538   5.535
 1632SOL     OW16114   7.854   7.540   1.700
 1632SOL    HW116115   7.936   7.582   1.661
 1632SOL    HW216116   7.835   7.580   1.790
 1633SOL     OW16117   9.042   5.549   3.741
 1633SOL    HW116118   9.079   5.456   3.737
 1633SOL    HW216119   9.110   5.610   3.782
 1634SOL     OW16120   1.281   1.959   6.017
 1634SOL    HW116121   1.246   2.052   6.027
 1634SOL    HW216122   1.208   1.900   5.981
 1635SOL     OW16123   6.999   3.124   0.460
 1635SOL    HW116124   7.001   3.079   0.549
 1635SOL    HW216125   6.913   3.175   0.450
 1636SOL     OW16126   8.002   3.814   2.618
 1636SOL    HW116127   8.049   3.889   2.666
 1636SOL    HW216128   7.991   3.737   2.681
 1637SOL     OW16129   8.245   4.144   4.407
 1637SOL    HW116130   8.170   4.124   4.344
 1637SOL    HW216131   8.308   4.066   4.409
 1638SOL     OW16132   9.284   6.961   2.075
 1638SOL    HW116133   9.209   7.024   2.093
 1638SOL    HW216134   9.348   7.003   2.011
 1639SOL     OW16135   5.770   5.250   0.417
 1639SOL    HW116136   5.699   5.229   0.485
 1639SOL    HW216137   5.846   5.187   0.428
 1640SOL     OW16138   6.640   1.970   5.736
 1640SOL    HW116139   6.569   2.007   5.796
 1640SOL    HW216140   6.667   1.879   5.766
 1641SOL     OW16141   7.811   1.322   5.012
 1641SOL    HW116142   7.756   1.271   4.945
 1641SOL    HW216143   7.803   1.278   5.101
 1642SOL     OW16144   9.390   2.149   5.576
 1642SOL    HW116145   9.416   2.201   5.495
 1642SOL    HW216146   9.390   2.051   5.555
 1643SOL     OW16147   3.905   4.243   3.598
 1643SOL    HW116148   3.961   4.234   3.680
 1643SOL    HW216149   3.826   4.301   3.617
 1644SOL     OW16150   2.154   3.547   1.787
 1644SOL    HW116151   2.054   3.546   1.791
 1644SOL    HW216152   2.183   3.586   1.699
 1645SOL     OW16153   9.487   9.649   2.694
 1645SOL    HW116154   9.446   9.559   2.683
 1645SOL    HW216155   9.562   9.660   2.629
 1646SOL     OW16156   9.630   3.733   0.121
 1646SOL    HW116157   9.693   3.791   0.171
 1646SOL    HW216158   9.640   3.638   0.150
 1647SOL     OW16159   0.947   1.719   3.098
 1647SOL    HW116160   0.874   1.703   3.032
 1647SOL    HW216161   0.981   1.812   3.088
 1648SOL     OW16162   1.968   3.233   4.313
 1648SOL    HW116163   1.975   3.203   4.409
 1648SOL    HW216164   1.875   3.262   4.294
 1649SOL     OW16165   7.318   5.526   1.649
 1649SOL    HW116166   7.389   5.591   1.625
 1649SOL    HW216167   7.272   5.494   1.566
 1650SOL     OW16168   1.795   6.527   1.458
 1650SOL    HW116169   1.774   6.442   1.506
 1650SOL    HW216170   1.732   6.540   1.382
 1651SOL     OW16171   0.096   4.091   4.643
 1651SOL    HW116172   0.080   4.148   4.563
 1651SOL    HW216173   0.173   4.029   4.625
 1652SOL     OW16174   9.742   6.108   4.418
 1652SOL    HW116175   9.779   6.121   4.510
 1652SOL    HW216176   9.663   6.168   4.405
 1653SOL     OW16177   1.923   1.958   0.698
 1653SOL    HW116178   2.010   1.932   0.740
 1653SOL    HW216179   1.935   1.969   0.600
 1654SOL     OW16180   6.898   2.275   0.790
 1654SOL    HW116181   6.869   2.351   0.732
 1654SOL    HW216182   6.959   2.309   0.862
 1655SOL     OW16183   2.758   4.305   0.204
 1655SOL    HW116184   2.823   4.268   0.138
 1655SOL    HW216185   2.665   4.281   0.175
 1656SOL     OW16186   0.533   3.672   3.848
 1656SOL    HW116187   0.460   3.649   3.784
 1656SOL    HW216188   0.494   3.703   3.934
 1657SOL     OW16189   5.406   9.675   4.042
 1657SOL    HW116190   5.470   9.602   4.020
 1657SOL    HW216191   5.435   9.720   4.126
 1658SOL     OW16192   0.619   6.831   1.959
 1658SOL    HW116193   0.660   6.909   1.911
 1658SOL    HW216194   0.579   6.862   2.045
 1659SOL     OW16195   3.976   6.815   2.838
 1659SOL    HW116196   4.049   6.841   2.901
 1659SOL    HW216197   4.001   6.843   2.745
 1660SOL     OW16198   7.063   5.640   0.367
 1660SOL    HW116199   7.112   5.656   0.281
 1660SOL    HW216200   6.982   5.584   0.348
 1661SOL     OW16201   9.422   8.123   2.688
 1661SOL    HW116202   9.344   8.061   2.679
 1661SOL    HW216203   9.396   8.201   2.744
 1662SOL     OW16204   0.947   7.322   2.770
 1662SOL    HW116205   1.045   7.328   2.753
 1662SOL    HW216206   0.900   7.394   2.720
 1663SOL     OW16207   3.344   1.266   2.451
 1663SOL    HW116208   3.279   1.324   2.402
 1663SOL    HW216209   3.390   1.319   2.522
 1664SOL     OW16210   8.894   7.663   1.867
 1664SOL    HW116211   8.840   7.614   1.798
 1664SOL    HW216212   8.841   7.740   1.902
 1665SOL     OW16213   5.573   5.235   2.282
 1665SOL    HW116214   5.616   5.166   2.223
 1665SOL    HW216215   5.475   5.238   2.263
 1666SOL     OW16216   3.016   5.882   2.862
 1666SOL    HW116217   2.979   5.844   2.777
 1666SOL    HW216218   3.096   5.830   2.890
 1667SOL     OW16219   8.534   2.015   3.329
 1667SOL    HW116220   8.566   2.050   3.241
 1667SOL    HW216221   8.612   2.004   3.391
 1668SOL     OW16222   8.834   3.890   4.911
 1668SOL    HW116223   8.924   3.858   4.940
 1668SOL    HW216224   8.769   3.880   4.987
 1669SOL     OW16225   2.476   5.478   3.988
 1669SOL    HW116226   2.430   5.547   4.044
 1669SOL    HW216227   2.458   5.497   3.892
 1670SOL     OW16228   2.300   3.038   1.619
 1670SOL    HW116229   2.244   2.988   1.553
 1670SOL    HW216230   2.241   3.082   1.686
 1671SOL     OW16231   7.769   3.311   0.586
 1671SOL    HW116232   7.863   3.314   0.553
 1671SOL    HW216233   7.728   3.223   0.562
 1672SOL     OW16234   4.234   6.564   1.166
 1672SOL    HW116235   4.185   6.515   1.238
 1672SOL    HW216236   4.303   6.504   1.126
 1673SOL     OW16237   7.030   1.798   3.520
 1673SOL    HW116238   7.043   1.861   3.443
 1673SOL    HW216239   7.118   1.781   3.564
 1674SOL     OW16240   6.674   1.467   4.937
 1674SOL    HW116241   6.642   1.516   4.856
 1674SOL    HW216242   6.773   1.477   4.945
 1675SOL     OW16243   5.907   9.947   5.633
 1675SOL    HW116244   5.876   9.973   5.724
 1675SOL    HW216245   5.973   0.015   5.600
 1676SOL     OW16246   1.768   8.731   1.828
 1676SOL    HW116247   1.823   8.766   1.903
 1676SOL    HW216248   1.727   8.643   1.854
 1677SOL     OW16249   3.806   0.128   5.917
 1677SOL    HW116250   3.716   0.089   5.936
 1677SOL    HW216251   3.855   0.145   6.002
 1678SOL     OW16252   8.944   2.640   5.705
 1678SOL    HW116253   8.875   2.654   5.635
 1678SOL    HW216254   8.901   2.608   5.789
 1679SOL     OW16255   4.368   5.026   1.518
 1679SOL    HW116256   4.346   5.024   1.616
 1679SOL    HW216257   4.344   5.115   1.480
 1680SOL     OW16258   6.575   2.502   4.650
 1680SOL    HW116259   6.502   2.524   4.585
 1680SOL    HW216260   6.661   2.488   4.601
 1681SOL     OW16261   3.158   7.460   1.584
 1681SOL    HW116262   3.170   7.511   1.499
 1681SOL    HW216263   3.157   7.362   1.564
 1682SOL     OW16264   0.784   2.758   1.769
 1682SOL    HW116265   0.819   2.836   1.821
 1682SOL    HW216266   0.771   2.785   1.674
 1683SOL     OW16267   4.404   1.868   6.311
 1683SOL    HW116268   4.379   1.944   6.250
 1683SOL    HW216269   4.467   1.807   6.263
 1684SOL     OW16270   1.001   5.673   5.207
 1684SOL    HW116271   0.948   5.590   5.187
 1684SOL    HW216272   0.963   5.750   5.157
 1685SOL     OW16273   4.086   3.084   5.105
 1685SOL    HW116274   4.054   3.048   5.192
 1685SOL    HW216275   4.009   3.128   5.057
 1686SOL     OW16276   1.239   8.502   4.707
 1686SOL    HW116277   1.253   8.568   4.781
 1686SOL    HW216278   1.155   8.524   4.658
 1687SOL     OW16279   9.991   8.271   0.125
 1687SOL    HW116280   9.957   8.222   0.205
 1687SOL    HW216281   0.070   8.222   0.087
 1688SOL     OW16282   2.642   3.950   2.681
 1688SOL    HW116283   2.700   3.886   2.732
 1688SOL    HW216284   2.569   3.900   2.635
 1689SOL     OW16285   5.445   9.111   3.788
 1689SOL    HW116286   5.353   9.073   3.798
 1689SOL    HW216287   5.473   9.154   3.874
 1690SOL     OW16288   0.030   8.929   0.046
 1690SOL    HW116289   9.972   8.974   0.114
 1690SOL    HW216290   9.974   8.898   8.158
 1691SOL     OW16291   2.168   5.768   3.394
 1691SOL    HW116292   2.084   5.719   3.371
 1691SOL    HW216293   2.147   5.865   3.409
 1692SOL     OW16294   0.905   0.045   4.969
 1692SOL    HW116295   0.864   0.029   5.058
 1692SOL    HW216296   0.873   9.976   4.904
 1693SOL     OW16297   2.739   5.555   4.748
 1693SOL    HW116298   2.716   5.483   4.682
 1693SOL    HW216299   2.709   5.643   4.712
 1694SOL     OW16300   1.542   0.005   5.958
 1694SOL    HW116301   1.530   0.099   5.926
 1694SOL    HW216302   1.466   9.980   6.018
 1695SOL     OW16303   2.047   0.262   2.085
 1695SOL    HW116304   1.965   0.298   2.040
 1695SOL    HW216305   2.021   0.207   2.164
 1696SOL     OW16306   7.161   3.695   0.567
 1696SOL    HW116307   7.243   3.657   0.611
 1696SOL    HW216308   7.137   3.639   0.488
 1697SOL     OW16309   3.683   8.915   1.542
 1697SOL    HW116310   3.774   8.914   1.585
 1697SOL    HW216311   3.613   8.913   1.613
 1698SOL     OW16312   7.701   1.253   5.916
 1698SOL    HW116313   7.614   1.273   5.961
 1698SOL    HW216314   7.721   1.156   5.925
 1699SOL     OW16315   9.970   3.415   4.451
 1699SOL    HW116316   9.968   3.511   4.477
 1699SOL    HW216317   0.060   3.393   4.412
 1700SOL     OW16318   2.385   8.393   0.464
 1700SOL    HW116319   2.402   8.294   0.459
 1700SOL    HW216320   2.460   8.442   0.419
 1701SOL     OW16321   0.210   2.196   4.319
 1701SOL    HW116322   0.289   2.145   4.285
 1701SOL    HW216323   0.236   2.250   4.399
 1702SOL     OW16324   2.472   5.295   1.909
 1702SOL    HW116325   2.489   5.364   1.979
 1702SOL    HW216326   2.418   5.220   1.947
 1703SOL     OW16327   4.418   1.482   1.174
 1703SOL    HW116328   4.348   1.551   1.157
 1703SOL    HW216329   4.471   1.467   1.090
 1704SOL     OW16330   3.809   4.244   2.493
 1704SOL    HW116331   3.834   4.319   2.554
 1704SOL    HW216332   3.858   4.255   2.406
 1705SOL     OW16333   8.406   5.952   2.151
 1705SOL    HW116334   8.466   5.941   2.230
 1705SOL    HW216335   8.427   5.881   2.083
 1706SOL     OW16336   6.943   7.107   5.736
 1706SOL    HW116337   6.969   7.200   5.709
 1706SOL    HW216338   6.950   7.099   5.835
 1707SOL     OW16339   9.020   7.885   2.920
 1707SOL    HW116340   9.026   7.952   2.846
 1707SOL    HW216341   9.040   7.930   3.008
 1708SOL     OW16342   1.811   9.985   2.973
 1708SOL    HW116343   1.842   9.920   2.903
 1708SOL    HW216344   1.712   9.977   2.983
 1709SOL     OW16345   8.884   9.039   1.684
 1709SOL    HW116346   8.920   8.987   1.761
 1709SOL    HW216347   8.791   9.070   1.705
 1710SOL     OW16348   6.527   9.287   6.010
 1710SOL    HW116349   6.566   9.226   5.941
 1710SOL    HW216350   6.490   9.233   6.085
 1711SOL     OW16351   9.833   6.821   4.932
 1711SOL    HW116352   9.930   6.796   4.923
 1711SOL    HW216353   9.806   6.878   4.855
 1712SOL     OW16354   6.366   1.053   6.312
 1712SOL    HW116355   6.318   1.116   6.373
 1712SOL    HW216356   6.300   0.989   6.272
 1713SOL     OW16357   0.888   9.967   3.729
 1713SOL    HW116358   0.823   9.917   3.673
 1713SOL    HW216359   0.841   0.039   3.780
 1714SOL     OW16360   1.569   2.397   5.764
 1714SOL    HW116361   1.484   2.399   5.711
 1714SOL    HW216362   1.612   2.307   5.754
 1715SOL     OW16363   6.661   9.926   4.342
 1715SOL    HW116364   6.608   0.011   4.335
 1715SOL    HW216365   6.658   9.892   4.436
 1716SOL     OW16366   2.910   8.298   2.810
 1716SOL    HW116367   2.998   8.251   2.802
 1716SOL    HW216368   2.839   8.245   2.762
 1717SOL     OW16369   5.861   5.121   1.215
 1717SOL    HW116370   5.838   5.044   1.273
 1717SOL    HW216371   5.780   5.147   1.161
 1718SOL     OW16372   4.387   0.911   0.726
 1718SOL    HW116373   4.450   0.851   0.776
 1718SOL    HW216374   4.416   1.006   0.737
 1719SOL     OW16375   2.277   2.875   5.884
 1719SOL    HW116376   2.291   2.821   5.966
 1719SOL    HW216377   2.299   2.820   5.803
 1720SOL     OW16378   9.557   2.940   2.468
 1720SOL    HW116379   9.567   3.002   2.546
 1720SOL    HW216380   9.631   2.957   2.403
 1721SOL     OW16381   3.533   7.889   1.128
 1721SOL    HW116382   3.560   7.803   1.173
 1721SOL    HW216383   3.459   7.932   1.179
 1722SOL     OW16384   9.881   4.824   2.314
 1722SOL    HW116385   9.845   4.856   2.226
 1722SOL    HW216386   9.965   4.773   2.299
 1723SOL     OW16387   9.412   8.743   0.142
 1723SOL    HW116388   9.380   8.784   0.057
 1723SOL    HW216389   9.498   8.788   0.169
 1724SOL     OW16390   7.377   7.216   3.772
 1724SOL    HW116391   7.371   7.280   3.848
 1724SOL    HW216392   7.285   7.193   3.740
 1725SOL     OW16393   8.339   2.760   5.570
 1725SOL    HW116394   8.334   2.669   5.611
 1725SOL    HW216395   8.247   2.793   5.548
 1726SOL     OW16396   5.563   7.471   3.142
 1726SOL    HW116397   5.592   7.394   3.086
 1726SOL    HW216398   5.592   7.457   3.237
 1727SOL     OW16399   1.397   6.875   5.450
 1727SOL    HW116400   1.304   6.871   5.414
 1727SOL    HW216401   1.459   6.915   5.382
 1728SOL     OW16402   1.263   6.007   3.221
 1728SOL    HW116403   1.219   5.935   3.168
 1728SOL    HW216404   1.313   5.967   3.297
 1729SOL     OW16405   7.086   6.810   5.113
 1729SOL    HW116406   6.992   6.836   5.090
 1729SOL    HW216407   7.090   6.712   5.134
 1730SOL     OW16408   4.655   8.117   5.516
 1730SOL    HW116409   4.751   8.092   5.532
 1730SOL    HW216410   4.631   8.194   5.574
 1731SOL     OW16411   8.264   6.600   4.099
 1731SOL    HW116412   8.341   6.539   4.075
 1731SOL    HW216413   8.208   6.556   4.169
 1732SOL     OW16414   6.071   0.617   5.982
 1732SOL    HW116415   5.971   0.609   5.990
 1732SOL    HW216416   6.096   0.713   5.971
 1733SOL     OW16417   4.580   8.043   2.028
 1733SOL    HW116418   4.534   8.119   2.074
 1733SOL    HW216419   4.577   8.057   1.929
 1734SOL     OW16420   9.346   8.565   3.685
 1734SOL    HW116421   9.424   8.561   3.622
 1734SOL    HW216422   9.262   8.580   3.633
 1735SOL     OW16423   2.295   8.171   1.743
 1735SOL    HW116424   2.356   8.166   1.664
 1735SOL    HW216425   2.203   8.198   1.713
 1736SOL     OW16426   8.422   8.567   2.533
 1736SOL    HW116427   8.476   8.651   2.522
 1736SOL    HW216428   8.482   8.491   2.554
 1737SOL     OW16429   3.870   3.200   5.394
 1737SOL    HW116430   3.805   3.174   5.322
 1737SOL    HW216431   3.828   3.268   5.454
 1738SOL     OW16432   6.584   4.889   1.552
 1738SOL    HW116433   6.667   4.846   1.588
 1738SOL    HW216434   6.521   4.819   1.520
 1739SOL     OW16435   2.873   8.074   4.219
 1739SOL    HW116436   2.879   7.977   4.243
 1739SOL    HW216437   2.780   8.107   4.237
 1740SOL     OW16438   2.022   5.411   0.755
 1740SOL    HW116439   2.115   5.396   0.722
 1740SOL    HW216440   1.970   5.461   0.687
 1741SOL     OW16441   3.281   7.205   3.708
 1741SOL    HW116442   3.187   7.229   3.688
 1741SOL    HW216443   3.303   7.229   3.802
 1742SOL     OW16444   3.185   3.091   5.635
 1742SOL    HW116445   3.277   3.116   5.666
 1742SOL    HW216446   3.192   3.042   5.548
 1743SOL     OW16447   7.171   7.418   6.351
 1743SOL    HW116448   7.076   7.413   6.320
 1743SOL    HW216449   7.219   7.491   6.300
 1744SOL     OW16450   4.260   4.330   3.538
 1744SOL    HW116451   4.241   4.381   3.454
 1744SOL    HW216452   4.252   4.391   3.617
 1745SOL     OW16453   3.713   4.682   1.480
 1745SOL    HW116454   3.706   4.664   1.382
 1745SOL    HW216455   3.785   4.624   1.519
 1746SOL     OW16456   2.336   8.435   0.764
 1746SOL    HW116457   2.402   8.485   0.708
 1746SOL    HW216458   2.341   8.337   0.741
 1747SOL     OW16459   7.088   5.926   5.702
 1747SOL    HW116460   7.031   5.959   5.627
 1747SOL    HW216461   7.031   5.907   5.782
 1748SOL     OW16462   6.220   2.187   4.470
 1748SOL    HW116463   6.289   2.155   4.405
 1748SOL    HW216464   6.201   2.284   4.454
 1749SOL     OW16465   8.983   6.352   2.403
 1749SOL    HW116466   9.025   6.417   2.466
 1749SOL    HW216467   8.884   6.350   2.417
 1750SOL     OW16468   8.594   7.796   4.044
 1750SOL    HW116469   8.631   7.884   4.074
 1750SOL    HW216470   8.666   7.742   4.003
 1751SOL     OW16471   0.582   5.521   4.228
 1751SOL    HW116472   0.507   5.515   4.293
 1751SOL    HW216473   0.589   5.435   4.176
 1752SOL     OW16474   1.329   4.418   0.326
 1752SOL    HW116475   1.333   4.480   0.405
 1752SOL    HW216476   1.355   4.468   0.243
 1753SOL     OW16477   0.007   5.524   1.827
 1753SOL    HW116478   9.912   5.506   1.805
 1753SOL    HW216479   0.059   5.439   1.824
 1754SOL     OW16480   4.105   2.351   1.162
 1754SOL    HW116481   4.167   2.423   1.192
 1754SOL    HW216482   4.149   2.262   1.172
 1755SOL     OW16483   9.140   4.738   0.030
 1755SOL    HW116484   9.226   4.789   0.028
 1755SOL    HW216485   9.073   4.786   0.087
 1756SOL     OW16486   9.813   3.375   3.010
 1756SOL    HW116487   9.818   3.303   3.079
 1756SOL    HW216488   9.734   3.434   3.028
 1757SOL     OW16489   5.023   0.605   4.937
 1757SOL    HW116490   4.949   0.622   4.872
 1757SOL    HW216491   5.076   0.689   4.950
 1758SOL     OW16492   4.155   2.039   5.258
 1758SOL    HW116493   4.213   1.966   5.221
 1758SOL    HW216494   4.076   1.998   5.304
 1759SOL     OW16495   9.966   1.211   1.634
 1759SOL    HW116496   9.948   1.123   1.591
 1759SOL    HW216497   0.064   1.223   1.648
 1760SOL     OW16498   2.360   3.139   0.156
 1760SOL    HW116499   2.433   3.071   0.144
 1760SOL    HW216500   2.282   3.096   0.201
 1761SOL     OW16501   0.905   6.805   3.642
 1761SOL    HW116502   0.962   6.765   3.570
 1761SOL    HW216503   0.946   6.891   3.673
 1762SOL     OW16504   6.571   1.701   0.530
 1762SOL    HW116505   6.511   1.706   0.610
 1762SOL    HW216506   6.517   1.682   0.448
 1763SOL     OW16507   3.472   9.085   6.218
 1763SOL    HW116508   3.505   9.130   6.301
 1763SOL    HW216509   3.463   8.987   6.235
 1764SOL     OW16510   7.481   2.976   0.130
 1764SOL    HW116511   7.434   2.968   0.218
 1764SOL    HW216512   7.517   2.887   0.103
 1765SOL     OW16513   0.150   2.217   4.957
 1765SOL    HW116514   0.234   2.196   4.907
 1765SOL    HW216515   0.173   2.245   5.050
 1766SOL     OW16516   0.261   1.246   1.240
 1766SOL    HW116517   0.184   1.184   1.254
 1766SOL    HW216518   0.238   1.337   1.273
 1767SOL     OW16519   9.831   1.960   1.095
 1767SOL    HW116520   9.918   2.008   1.104
 1767SOL    HW216521   9.809   1.913   1.181
 1768SOL     OW16522   9.768   8.209   1.265
 1768SOL    HW116523   9.822   8.160   1.197
 1768SOL    HW216524   9.687   8.155   1.288
 1769SOL     OW16525   9.630   0.068   2.178
 1769SOL    HW116526   9.537   0.104   2.180
 1769SOL    HW216527   9.671   0.076   2.268
 1770SOL     OW16528   4.116   2.066   3.509
 1770SOL    HW116529   4.153   1.977   3.483
 1770SOL    HW216530   4.078   2.111   3.428
 1771SOL     OW16531   9.761   5.682   1.524
 1771SOL    HW116532   9.831   5.750   1.508
 1771SOL    HW216533   9.670   5.724   1.516
 1772SOL     OW16534   8.609   3.031   4.692
 1772SOL    HW116535   8.582   3.024   4.788
 1772SOL    HW216536   8.677   2.960   4.672
 1773SOL     OW16537   0.796   9.771   4.037
 1773SOL    HW116538   0.888   9.808   4.048
 1773SOL    HW216539   0.796   9.674   4.061
 1774SOL     OW16540   1.945   2.536   6.069
 1774SOL    HW116541   2.042   2.528   6.091
 1774SOL    HW216542   1.934   2.559   5.972
 1775SOL     OW16543   5.055   0.739   2.425
 1775SOL    HW116544   5.112   0.796   2.484
 1775SOL    HW216545   5.104   0.653   2.405
 1776SOL     OW16546   6.881   3.658   1.332
 1776SOL    HW116547   6.854   3.753   1.349
 1776SOL    HW216548   6.976   3.655   1.302
 1777SOL     OW16549   7.783   7.173   3.215
 1777SOL    HW116550   7.834   7.207   3.136
 1777SOL    HW216551   7.687   7.200   3.206
 1778SOL     OW16552   1.529   8.493   3.435
 1778SOL    HW116553   1.602   8.560   3.449
 1778SOL    HW216554   1.479   8.479   3.520
 1779SOL     OW16555   4.421   3.494   0.555
 1779SOL    HW116556   4.360   3.507   0.633
 1779SOL    HW216557   4.511   3.464   0.588
 1780SOL     OW16558   4.117   4.113   2.444
 1780SOL    HW116559   4.119   4.169   2.526
 1780SOL    HW216560   4.165   4.027   2.461
 1781SOL     OW16561   7.140   2.257   4.539
 1781SOL    HW116562   7.157   2.335   4.479
 1781SOL    HW216563   7.079   2.285   4.613
 1782SOL     OW16564   4.131   7.361   5.331
 1782SOL    HW116565   4.037   7.381   5.305
 1782SOL    HW216566   4.182   7.331   5.250
 1783SOL     OW16567   5.667   8.200   5.719
 1783SOL    HW116568   5.732   8.149   5.662
 1783SOL    HW216569   5.651   8.150   5.804
 1784SOL     OW16570   9.959   1.457   0.284
 1784SOL    HW116571   0.008   1.458   0.196
 1784SOL    HW216572   9.979   1.371   0.332
 1785SOL     OW16573   8.381   0.439   4.837
 1785SOL    HW116574   8.327   0.496   4.899
 1785SOL    HW216575   8.476   0.470   4.837
 1786SOL     OW16576   0.982   3.367   0.800
 1786SOL    HW116577   1.047   3.291   0.796
 1786SOL    HW216578   0.896   3.339   0.756
 1787SOL     OW16579   0.092   4.622   3.092
 1787SOL    HW116580   0.012   4.682   3.103
 1787SOL    HW216581   0.087   4.547   3.158
 1788SOL     OW16582   7.866   9.471   4.332
 1788SOL    HW116583   7.947   9.444   4.281
 1788SOL    HW216584   7.789   9.412   4.306
 1789SOL     OW16585   9.166   0.731   0.734
 1789SOL    HW116586   9.190   0.723   0.830
 1789SOL    HW216587   9.202   0.817   0.697
 1790SOL     OW16588   0.438   4.134   2.090
 1790SOL    HW116589   0.404   4.148   1.997
 1790SOL    HW216590   0.404   4.207   2.149
 1791SOL     OW16591   2.324   2.037   5.132
 1791SOL    HW116592   2.236   2.024   5.086
 1791SOL    HW216593   2.314   2.015   5.229
 1792SOL     OW16594   1.104   0.881   1.294
 1792SOL    HW116595   1.192   0.913   1.260
 1792SOL    HW216596   1.085   0.790   1.257
 1793SOL     OW16597   4.287   7.742   3.662
 1793SOL    HW116598   4.369   7.782   3.621
 1793SOL    HW216599   4.234   7.814   3.708
 1794SOL     OW16600   2.315   5.100   2.035
 1794SOL    HW116601   2.230   5.143   2.065
 1794SOL    HW216602   2.339   5.026   2.097
 1795SOL     OW16603   8.056   1.672   3.940
 1795SOL    HW116604   8.130   1.705   3.998
 1795SOL    HW216605   8.044   1.574   3.953
 1796SOL     OW16606   5.979   2.437   0.928
 1796SOL    HW116607   5.957   2.530   0.957
 1796SOL    HW216608   5.915   2.409   0.857
 1797SOL     OW16609   4.629   0.527   5.165
 1797SOL    HW116610   4.572   0.597   5.121
 1797SOL    HW216611   4.724   0.557   5.164
 1798SOL     OW16612   1.580   1.051   3.192
 1798SOL    HW116613   1.608   0.956   3.178
 1798SOL    HW216614   1.623   1.109   3.122
 1799SOL     OW16615   8.683   4.328   4.338
 1799SOL    HW116616   8.668   4.229   4.329
 1799SOL    HW216617   8.650   4.374   4.255
 1800SOL     OW16618   3.764   0.028   1.927
 1800SOL    HW116619   3.791   0.011   2.022
 1800SOL    HW216620   3.702   9.955   1.897
 1801SOL     OW16621   6.550   0.730   5.935
 1801SOL    HW116622   6.469   0.690   5.892
 1801SOL    HW216623   6.542   0.830   5.933
 1802SOL     OW16624   8.752   3.063   3.838
 1802SOL    HW116625   8.833   3.014   3.806
 1802SOL    HW216626   8.675   3.000   3.844
 1803SOL     OW16627   2.851   5.071   5.976
 1803SOL    HW116628   2.787   5.099   5.904
 1803SOL    HW216629   2.865   5.146   6.040
 1804SOL     OW16630   8.530   5.610   3.588
 1804SOL    HW116631   8.481   5.693   3.614
 1804SOL    HW216632   8.575   5.571   3.668
 1805SOL     OW16633   8.201   9.155   4.079
 1805SOL    HW116634   8.260   9.162   4.160
 1805SOL    HW216635   8.257   9.146   3.997
 1806SOL     OW16636   5.840   5.189   0.806
 1806SOL    HW116637   5.893   5.149   0.880
 1806SOL    HW216638   5.902   5.224   0.735
 1807SOL     OW16639   9.518   1.068   6.024
 1807SOL    HW116640   9.478   0.985   5.985
 1807SOL    HW216641   9.447   1.136   6.038
 1808SOL     OW16642   3.506   3.445   0.246
 1808SOL    HW116643   3.450   3.374   0.204
 1808SOL    HW216644   3.588   3.459   0.191
 1809SOL     OW16645   1.011   5.294   0.506
 1809SOL    HW116646   0.921   5.259   0.531
 1809SOL    HW216647   1.081   5.248   0.561
 1810SOL     OW16648   2.681   4.928   4.956
 1810SOL    HW116649   2.746   4.886   4.893
 1810SOL    HW216650   2.590   4.888   4.942
 1811SOL     OW16651   2.345   1.061   5.432
 1811SOL    HW116652   2.394   1.092   5.514
 1811SOL    HW216653   2.407   1.008   5.374
 1812SOL     OW16654   9.831   6.558   3.462
 1812SOL    HW116655   9.825   6.561   3.562
 1812SOL    HW216656   9.916   6.601   3.432
 1813SOL     OW16657   0.747   8.101   0.964
 1813SOL    HW116658   0.840   8.138   0.974
 1813SOL    HW216659   0.697   8.155   0.897
 1814SOL     OW16660   4.106   4.446   3.970
 1814SOL    HW116661   4.162   4.466   3.890
 1814SOL    HW216662   4.072   4.531   4.010
 1815SOL     OW16663   2.778   7.877   3.426
 1815SOL    HW116664   2.842   7.856   3.352
 1815SOL    HW216665   2.783   7.806   3.496
 1816SOL     OW16666   6.552   0.930   2.622
 1816SOL    HW116667   6.609   1.003   2.584
 1816SOL    HW216668   6.513   0.960   2.709
 1817SOL     OW16669   4.532   0.542   1.023
 1817SOL    HW116670   4.629   0.550   1.045
 1817SOL    HW216671   4.511   0.446   1.003
 1818SOL     OW16672   5.581   5.610   0.536
 1818SOL    HW116673   5.542   5.532   0.584
 1818SOL    HW216674   5.657   5.580   0.478
 1819SOL     OW16675   4.713   4.056   0.621
 1819SOL    HW116676   4.683   3.975   0.571
 1819SOL    HW216677   4.634   4.098   0.666
 1820SOL     OW16678   2.438   6.753   2.817
 1820SOL    HW116679   2.424   6.700   2.733
 1820SOL    HW216680   2.402   6.701   2.894
 1821SOL     OW16681   7.170   9.361   4.187
 1821SOL    HW116682   7.071   9.364   4.173
 1821SOL    HW216683   7.209   9.450   4.163
 1822SOL     OW16684   8.343   5.011   3.655
 1822SOL    HW116685   8.430   5.048   3.687
 1822SOL    HW216686   8.302   4.955   3.727
 1823SOL     OW16687   0.027   1.603   6.134
 1823SOL    HW116688   0.066   1.534   6.195
 1823SOL    HW216689   9.940   1.570   6.097
 1824SOL     OW16690   4.416   0.865   2.613
 1824SOL    HW116691   4.398   0.791   2.548
 1824SOL    HW216692   4.386   0.952   2.573
 1825SOL     OW16693   8.370   8.895   0.247
 1825SOL    HW116694   8.322   8.809   0.227
 1825SOL    HW216695   8.387   8.944   0.162
 1826SOL     OW16696   2.252   5.382   3.597
 1826SOL    HW116697   2.220   5.379   3.502
 1826SOL    HW216698   2.275   5.289   3.627
 1827SOL     OW16699   4.662   4.067   5.612
 1827SOL    HW116700   4.604   4.054   5.692
 1827SOL    HW216701   4.758   4.058   5.639
 1828SOL     OW16702   4.437   4.587   3.896
 1828SOL    HW116703   4.422   4.591   3.995
 1828SOL    HW216704   4.532   4.559   3.878
 1829SOL     OW16705   4.051   1.654   6.047
 1829SOL    HW116706   4.021   1.627   6.138
 1829SOL    HW216707   4.119   1.589   6.013
 1830SOL     OW16708   8.416   0.115   1.267
 1830SOL    HW116709   8.425   0.178   1.190
 1830SOL    HW216710   8.507   0.094   1.303
 1831SOL     OW16711   1.101   8.203   1.257
 1831SOL    HW116712   1.149   8.126   1.217
 1831SOL    HW216713   1.167   8.273   1.285
 1832SOL     OW16714   8.051   5.849   0.660
 1832SOL    HW116715   7.998   5.906   0.597
 1832SOL    HW216716   8.048   5.754   0.630
 1833SOL     OW16717   8.690   7.072   2.130
 1833SOL    HW116718   8.678   7.171   2.144
 1833SOL    HW216719   8.601   7.027   2.134
 1834SOL     OW16720   0.411   6.149   2.027
 1834SOL    HW116721   0.337   6.199   2.071
 1834SOL    HW216722   0.490   6.145   2.088
 1835SOL     OW16723   6.895   2.783   5.247
 1835SOL    HW116724   6.915   2.772   5.149
 1835SOL    HW216725   6.800   2.757   5.264
 1836SOL     OW16726   1.037   6.039   4.590
 1836SOL    HW116727   0.946   5.999   4.603
 1836SOL    HW216728   1.032   6.138   4.602
 1837SOL     OW16729   1.880   1.978   3.385
 1837SOL    HW116730   1.852   1.895   3.432
 1837SOL    HW216731   1.963   2.014   3.428
 1838SOL     OW16732   9.010   1.439   1.062
 1838SOL    HW116733   9.005   1.520   1.003
 1838SOL    HW216734   9.076   1.374   1.023
 1839SOL     OW16735   7.003   9.071   3.585
 1839SOL    HW116736   7.022   9.120   3.500
 1839SOL    HW216737   7.079   9.084   3.649
 1840SOL     OW16738   8.568   2.199   2.866
 1840SOL    HW116739   8.474   2.214   2.897
 1840SOL    HW216740   8.619   2.285   2.874
 1841SOL     OW16741   8.764   5.199   0.502
 1841SOL    HW116742   8.860   5.227   0.507
 1841SOL    HW216743   8.705   5.279   0.504
 1842SOL     OW16744   7.074   0.681   5.155
 1842SOL    HW116745   7.118   0.591   5.160
 1842SOL    HW216746   7.047   0.710   5.247
 1843SOL     OW16747   3.113   3.047   3.469
 1843SOL    HW116748   3.044   3.049   3.541
 1843SOL    HW216749   3.203   3.031   3.509
 1844SOL     OW16750   1.364   9.644   5.438
 1844SOL    HW116751   1.280   9.607   5.476
 1844SOL    HW216752   1.354   9.653   5.339
 1845SOL     OW16753   4.713   9.390   3.645
 1845SOL    HW116754   4.791   9.450   3.629
 1845SOL    HW216755   4.717   9.354   3.738
 1846SOL     OW16756   3.299   7.741   4.787
 1846SOL    HW116757   3.211   7.728   4.742
 1846SOL    HW216758   3.360   7.666   4.763
 1847SOL     OW16759   2.371   7.021   2.407
 1847SOL    HW116760   2.349   7.028   2.310
 1847SOL    HW216761   2.337   6.934   2.443
 1848SOL     OW16762   8.755   4.413   2.584
 1848SOL    HW116763   8.694   4.412   2.664
 1848SOL    HW216764   8.702   4.399   2.501
 1849SOL     OW16765   1.639   8.090   1.033
 1849SOL    HW116766   1.663   8.086   0.936
 1849SOL    HW216767   1.677   8.010   1.080
 1850SOL     OW16768   1.445   0.046   1.226
 1850SOL    HW116769   1.427   0.055   1.128
 1850SOL    HW216770   1.411   0.126   1.274
 1851SOL     OW16771   5.478   0.835   5.930
 1851SOL    HW116772   5.383   0.827   5.900
 1851SOL    HW216773   5.525   0.747   5.919
 1852SOL     OW16774   9.500   4.748   2.236
 1852SOL    HW116775   9.417   4.705   2.271
 1852SOL    HW216776   9.572   4.679   2.229
 1853SOL     OW16777   5.494   8.028   4.003
 1853SOL    HW116778   5.568   8.018   4.069
 1853SOL    HW216779   5.486   7.944   3.948
 1854SOL     OW16780   9.942   6.445   5.311
 1854SOL    HW116781   0.033   6.430   5.274
 1854SOL    HW216782   9.911   6.363   5.359
 1855SOL     OW16783   8.124   3.851   6.338
 1855SOL    HW116784   8.091   3.913   6.409
 1855SOL    HW216785   8.051   3.834   6.272
 1856SOL     OW16786   1.028   1.750   6.216
 1856SOL    HW116787   1.035   1.755   6.116
 1856SOL    HW216788   1.044   1.840   6.255
 1857SOL     OW16789   2.734   8.700   1.718
 1857SOL    HW116790   2.704   8.681   1.811
 1857SOL    HW216791   2.687   8.640   1.654
 1858SOL     OW16792   1.092   1.115   4.312
 1858SOL    HW116793   1.099   1.110   4.411
 1858SOL    HW216794   0.997   1.133   4.286
 1859SOL     OW16795   5.302   4.816   1.553
 1859SOL    HW116796   5.331   4.827   1.649
 1859SOL    HW216797   5.217   4.866   1.538
 1860SOL     OW16798   9.965   0.711   1.175
 1860SOL    HW116799   9.939   0.790   1.119
 1860SOL    HW216800   9.922   0.629   1.139
 1861SOL     OW16801   8.529   4.164   4.023
 1861SOL    HW116802   8.609   4.141   3.968
 1861SOL    HW216803   8.536   4.259   4.054
 1862SOL     OW16804   3.574   3.408   1.972
 1862SOL    HW116805   3.589   3.327   1.914
 1862SOL    HW216806   3.575   3.380   2.068
 1863SOL     OW16807   0.241   4.759   4.879
 1863SOL    HW116808   0.324   4.714   4.847
 1863SOL    HW216809   0.208   4.712   4.961
 1864SOL     OW16810   8.124   7.102   3.761
 1864SOL    HW116811   8.036   7.114   3.716
 1864SOL    HW216812   8.110   7.079   3.857
 1865SOL     OW16813   5.876   8.901   3.804
 1865SOL    HW116814   5.782   8.905   3.770
 1865SOL    HW216815   5.939   8.928   3.731
 1866SOL     OW16816   5.313   9.047   2.815
 1866SOL    HW116817   5.413   9.045   2.819
 1866SOL    HW216818   5.283   9.108   2.742
 1867SOL     OW16819   0.061   2.800   2.620
 1867SOL    HW116820   0.023   2.872   2.677
 1867SOL    HW216821   9.988   2.754   2.570
 1868SOL     OW16822   0.946   9.281   2.176
 1868SOL    HW116823   0.950   9.304   2.079
 1868SOL    HW216824   1.000   9.198   2.192
 1869SOL     OW16825   7.096   4.310   0.036
 1869SOL    HW116826   7.096   4.292   8.126
 1869SOL    HW216827   7.162   4.250   0.080
 1870SOL     OW16828   9.632   0.763   2.486
 1870SOL    HW116829   9.709   0.825   2.500
 1870SOL    HW216830   9.653   0.702   2.409
 1871SOL     OW16831   2.213   2.622   4.907
 1871SOL    HW116832   2.149   2.675   4.851
 1871SOL    HW216833   2.306   2.638   4.876
 1872SOL     OW16834   0.044   7.106   3.196
 1872SOL    HW116835   0.103   7.109   3.115
 1872SOL    HW216836   0.052   7.193   3.246
 1873SOL     OW16837   1.284   0.085   0.193
 1873SOL    HW116838   1.202   0.029   0.183
 1873SOL    HW216839   1.267   0.176   0.156
 1874SOL     OW16840   9.480   7.761   6.107
 1874SOL    HW116841   9.557   7.824   6.118
 1874SOL    HW216842   9.505   7.688   6.043
 1875SOL     OW16843   4.530   2.270   1.294
 1875SOL    HW116844   4.477   2.234   1.371
 1875SOL    HW216845   4.500   2.227   1.209
 1876SOL     OW16846   3.227   2.599   5.062
 1876SOL    HW116847   3.187   2.533   5.125
 1876SOL    HW216848   3.252   2.553   4.977
 1877SOL     OW16849   7.125   9.195   5.375
 1877SOL    HW116850   7.036   9.214   5.416
 1877SOL    HW216851   7.194   9.253   5.419
 1878SOL     OW16852   1.195   0.085   5.686
 1878SOL    HW116853   1.162   0.179   5.677
 1878SOL    HW216854   1.285   0.077   5.644
 1879SOL     OW16855   3.396   0.551   0.667
 1879SOL    HW116856   3.420   0.562   0.570
 1879SOL    HW216857   3.397   0.453   0.690
 1880SOL     OW16858   0.213   9.972   4.533
 1880SOL    HW116859   0.255   0.029   4.462
 1880SOL    HW216860   0.219   9.876   4.507
 1881SOL     OW16861   7.722   2.826   4.660
 1881SOL    HW116862   7.631   2.860   4.685
 1881SOL    HW216863   7.714   2.734   4.621
 1882SOL     OW16864   2.654   2.435   0.239
 1882SOL    HW116865   2.740   2.397   0.206
 1882SOL    HW216866   2.585   2.430   0.166
 1883SOL     OW16867   1.990   9.056   4.206
 1883SOL    HW116868   2.002   9.005   4.292
 1883SOL    HW216869   1.990   9.154   4.225
 1884SOL     OW16870   3.408   0.807   0.781
 1884SOL    HW116871   3.415   0.715   0.744
 1884SOL    HW216872   3.342   0.860   0.727
 1885SOL     OW16873   9.379   0.316   4.776
 1885SOL    HW116874   9.333   0.314   4.687
 1885SOL    HW216875   9.380   0.224   4.815
 1886SOL     OW16876   9.424   7.123   3.238
 1886SOL    HW116877   9.325   7.139   3.228
 1886SOL    HW216878   9.460   7.183   3.309
 1887SOL     OW16879   1.983   5.784   1.568
 1887SOL    HW116880   2.045   5.862   1.577
 1887SOL    HW216881   1.889   5.813   1.584
 1888SOL     OW16882   4.393   9.804   0.876
 1888SOL    HW116883   4.324   9.818   0.805
 1888SOL    HW216884   4.368   9.855   0.958
 1889SOL     OW16885   3.318   0.513   5.295
 1889SOL    HW116886   3.307   0.474   5.203
 1889SOL    HW216887   3.229   0.540   5.330
 1890SOL     OW16888   8.364   3.373   5.929
 1890SOL    HW116889   8.293   3.317   5.887
 1890SOL    HW216890   8.443   3.316   5.952
 1891SOL     OW16891   9.019   9.093   6.046
 1891SOL    HW116892   9.005   9.182   6.001
 1891SOL    HW216893   9.037   9.107   6.143
 1892SOL     OW16894   4.492   8.696   5.707
 1892SOL    HW116895   4.502   8.648   5.620
 1892SOL    HW216896   4.395   8.713   5.725
 1893SOL     OW16897   1.873   7.451   2.110
 1893SOL    HW116898   1.820   7.392   2.048
 1893SOL    HW216899   1.891   7.402   2.195
 1894SOL     OW16900   8.939   4.333   3.393
 1894SOL    HW116901   8.855   4.324   3.340
 1894SOL    HW216902   8.937   4.420   3.443
 1895SOL     OW16903   2.449   4.856   4.500
 1895SOL    HW116904   2.482   4.847   4.406
 1895SOL    HW216905   2.404   4.945   4.511
 1896SOL     OW16906   0.052   7.231   5.660
 1896SOL    HW116907   9.964   7.273   5.682
 1896SOL    HW216908   0.043   7.178   5.575
 1897SOL     OW16909   3.558   1.024   5.970
 1897SOL    HW116910   3.629   0.977   6.024
 1897SOL    HW216911   3.473   0.973   5.976
 1898SOL     OW16912   0.856   1.287   3.775
 1898SOL    HW116913   0.926   1.297   3.704
 1898SOL    HW216914   0.898   1.304   3.865
 1899SOL     OW16915   2.760   2.526   1.096
 1899SOL    HW116916   2.854   2.537   1.064
 1899SOL    HW216917   2.761   2.510   1.195
 1900SOL     OW16918   3.532   5.892   1.593
 1900SOL    HW116919   3.443   5.870   1.631
 1900SOL    HW216920   3.543   5.991   1.586
 1901SOL     OW16921   5.624   3.890   0.323
 1901SOL    HW116922   5.713   3.878   0.366
 1901SOL    HW216923   5.586   3.801   0.298
 1902SOL     OW16924   8.077   9.183   1.588
 1902SOL    HW116925   8.030   9.150   1.670
 1902SOL    HW216926   8.055   9.279   1.574
 1903SOL     OW16927   6.645   1.047   2.249
 1903SOL    HW116928   6.570   0.981   2.246
 1903SOL    HW216929   6.659   1.077   2.343
 1904SOL     OW16930   1.758   4.624   6.151
 1904SOL    HW116931   1.790   4.708   6.109
 1904SOL    HW216932   1.836   4.567   6.177
 1905SOL     OW16933   4.378   7.522   1.761
 1905SOL    HW116934   4.345   7.453   1.826
 1905SOL    HW216935   4.300   7.568   1.719
 1906SOL     OW16936   7.496   1.288   6.299
 1906SOL    HW116937   7.491   1.300   6.199
 1906SOL    HW216938   7.556   1.211   6.320
 1907SOL     OW16939   2.238   1.095   1.059
 1907SOL    HW116940   2.295   1.177   1.049
 1907SOL    HW216941   2.174   1.109   1.135
 1908SOL     OW16942   8.179   6.930   4.363
 1908SOL    HW116943   8.240   6.928   4.283
 1908SOL    HW216944   8.171   6.837   4.400
 1909SOL     OW16945   8.927   1.410   1.913
 1909SOL    HW116946   8.909   1.448   2.004
 1909SOL    HW216947   8.841   1.395   1.865
 1910SOL     OW16948   9.165   6.801   1.887
 1910SOL    HW116949   9.126   6.716   1.922
 1910SOL    HW216950   9.204   6.854   1.963
 1911SOL     OW16951   4.028   0.601   1.150
 1911SOL    HW116952   3.998   0.630   1.059
 1911SOL    HW216953   4.127   0.614   1.159
 1912SOL     OW16954   5.771   9.699   5.603
 1912SOL    HW116955   5.820   9.786   5.598
 1912SOL    HW216956   5.775   9.664   5.697
 1913SOL     OW16957   7.187   3.680   2.446
 1913SOL    HW116958   7.162   3.674   2.349
 1913SOL    HW216959   7.182   3.775   2.476
 1914SOL     OW16960   4.729   5.946   1.668
 1914SOL    HW116961   4.637   5.909   1.655
 1914SOL    HW216962   4.724   6.033   1.715
 1915SOL     OW16963   0.532   8.942   3.534
 1915SOL    HW116964   0.571   8.852   3.514
 1915SOL    HW216965   0.500   8.984   3.449
 1916SOL     OW16966   4.545   4.142   2.876
 1916SOL    HW116967   4.504   4.193   2.800
 1916SOL    HW216968   4.485   4.146   2.955
 1917SOL     OW16969   9.806   0.708   3.028
 1917SOL    HW116970   9.735   0.638   3.028
 1917SOL    HW216971   9.815   0.747   3.119
 1918SOL     OW16972   1.928   1.650   1.411
 1918SOL    HW116973   1.993   1.577   1.389
 1918SOL    HW216974   1.836   1.612   1.419
 1919SOL     OW16975   8.067   2.986   4.963
 1919SOL    HW116976   8.084   3.082   4.985
 1919SOL    HW216977   8.080   2.931   5.045
 1920SOL     OW16978   1.217   1.808   1.965
 1920SOL    HW116979   1.256   1.716   1.973
 1920SOL    HW216980   1.165   1.830   2.047
 1921SOL     OW16981   2.576   6.613   4.283
 1921SOL    HW116982   2.578   6.651   4.191
 1921SOL    HW216983   2.502   6.655   4.335
 1922SOL     OW16984   7.710   3.648   2.986
 1922SOL    HW116985   7.795   3.648   2.934
 1922SOL    HW216986   7.702   3.734   3.036
 1923SOL     OW16987   0.102   1.823   3.179
 1923SOL    HW116988   0.116   1.833   3.277
 1923SOL    HW216989   0.013   1.861   3.154
 1924SOL     OW16990   3.701   6.215   1.364
 1924SOL    HW116991   3.647   6.197   1.282
 1924SOL    HW216992   3.646   6.194   1.445
 1925SOL     OW16993   1.384   9.425   2.625
 1925SOL    HW116994   1.358   9.340   2.670
 1925SOL    HW216995   1.330   9.436   2.542
 1926SOL     OW16996   3.751   9.745   4.746
 1926SOL    HW116997   3.743   9.814   4.673
 1926SOL    HW216998   3.660   9.716   4.775
 1927SOL     OW16999   6.016   0.508   5.293
 1927SOL    HW117000   6.065   0.564   5.360
 1927SOL    HW217001   6.053   0.415   5.295
 1928SOL     OW17002   1.503   4.694   4.898
 1928SOL    HW117003   1.572   4.637   4.942
 1928SOL    HW217004   1.479   4.655   4.809
 1929SOL     OW17005   2.409   3.894   5.967
 1929SOL    HW117006   2.398   3.911   6.065
 1929SOL    HW217007   2.320   3.905   5.922
 1930SOL     OW17008   0.025   2.775   5.661
 1930SOL    HW117009   0.118   2.810   5.665
 1930SOL    HW217010   0.023   2.681   5.696
 1931SOL     OW17011   6.870   8.807   4.567
 1931SOL    HW117012   6.924   8.856   4.635
 1931SOL    HW217013   6.775   8.840   4.568
 1932SOL     OW17014   3.884   5.083   0.506
 1932SOL    HW117015   3.858   5.086   0.603
 1932SOL    HW217016   3.802   5.068   0.451
 1933SOL     OW17017   7.745   0.782   1.725
 1933SOL    HW117018   7.822   0.816   1.671
 1933SOL    HW217019   7.773   0.770   1.820
 1934SOL     OW17020   5.920   1.931   3.367
 1934SOL    HW117021   6.019   1.927   3.372
 1934SOL    HW217022   5.890   2.027   3.360
 1935SOL     OW17023   9.445   8.070   2.418
 1935SOL    HW117024   9.361   8.021   2.393
 1935SOL    HW217025   9.443   8.092   2.515
 1936SOL     OW17026   2.741   7.460   2.534
 1936SOL    HW117027   2.680   7.461   2.455
 1936SOL    HW217028   2.708   7.393   2.601
 1937SOL     OW17029   4.848   1.846   0.415
 1937SOL    HW117030   4.914   1.811   0.481
 1937SOL    HW217031   4.792   1.770   0.381
 1938SOL     OW17032   3.675   4.068   1.791
 1938SOL    HW117033   3.740   3.992   1.790
 1938SOL    HW217034   3.720   4.151   1.757
 1939SOL     OW17035   1.130   3.570   2.102
 1939SOL    HW117036   1.108   3.583   2.006
 1939SOL    HW217037   1.112   3.475   2.128
 1940SOL     OW17038   2.845   9.371   0.293
 1940SOL    HW117039   2.919   9.324   0.244
 1940SOL    HW217040   2.781   9.304   0.330
 1941SOL     OW17041   3.327   0.882   5.999
 1941SOL    HW117042   3.271   0.820   5.944
 1941SOL    HW217043   3.267   0.950   6.043
 1942SOL     OW17044   4.162   6.180   1.110
 1942SOL    HW117045   4.117   6.096   1.143
 1942SOL    HW217046   4.120   6.208   1.024
 1943SOL     OW17047   6.735   8.190   5.411
 1943SOL    HW117048   6.779   8.103   5.433
 1943SOL    HW217049   6.787   8.265   5.452
 1944SOL     OW17050   2.939   2.613   4.286
 1944SOL    HW117051   2.997   2.539   4.319
 1944SOL    HW217052   2.939   2.614   4.186
 1945SOL     OW17053   4.013   2.234   4.071
 1945SOL    HW117054   3.940   2.273   4.127
 1945SOL    HW217055   4.018   2.284   3.985
 1946SOL     OW17056   1.887   2.333   0.201
 1946SOL    HW117057   1.945   2.373   0.272
 1946SOL    HW217058   1.796   2.315   0.238
 1947SOL     OW17059   0.213   8.724   0.113
 1947SOL    HW117060   0.154   8.794   0.075
 1947SOL    HW217061   0.248   8.754   0.202
 1948SOL     OW17062   8.965   3.597   3.901
 1948SOL    HW117063   9.023   3.642   3.969
 1948SOL    HW217064   8.892   3.546   3.948
 1949SOL     OW17065   9.596   4.068   4.793
 1949SOL    HW117066   9.498   4.044   4.796
 1949SOL    HW217067   9.646   4.004   4.852
 1950SOL     OW17068   0.334   7.692   5.259
 1950SOL    HW117069   0.407   7.753   5.292
 1950SOL    HW217070   0.353   7.668   5.164
 1951SOL     OW17071   4.761   0.182   1.160
 1951SOL    HW117072   4.743   0.174   1.062
 1951SOL    HW217073   4.799   0.096   1.194
 1952SOL     OW17074   6.770   0.752   0.409
 1952SOL    HW117075   6.857   0.800   0.397
 1952SOL    HW217076   6.716   0.798   0.479
 1953SOL     OW17077   6.387   3.072   0.950
 1953SOL    HW117078   6.306   3.037   0.997
 1953SOL    HW217079   6.359   3.119   0.866
 1954SOL     OW17080   5.253   5.277   0.627
 1954SOL    HW117081   5.219   5.186   0.647
 1954SOL    HW217082   5.237   5.299   0.531
 1955SOL     OW17083   9.712   5.495   4.676
 1955SOL    HW117084   9.705   5.594   4.661
 1955SOL    HW217085   9.768   5.454   4.605
 1956SOL     OW17086   8.402   2.882   2.641
 1956SOL    HW117087   8.470   2.834   2.696
 1956SOL    HW217088   8.402   2.846   2.548
 1957SOL     OW17089   8.846   6.616   0.942
 1957SOL    HW117090   8.876   6.708   0.966
 1957SOL    HW217091   8.925   6.558   0.925
 1958SOL     OW17092   8.780   2.911   1.787
 1958SOL    HW117093   8.684   2.935   1.799
 1958SOL    HW217094   8.836   2.973   1.842
 1959SOL     OW17095   6.729   0.601   0.030
 1959SOL    HW117096   6.695   0.683   0.077
 1959SOL    HW217097   6.758   0.626   8.126
 1960SOL     OW17098   1.163   3.707   4.451
 1960SOL    HW117099   1.168   3.748   4.542
 1960SOL    HW217100   1.072   3.720   4.413
 1961SOL     OW17101   6.375   9.205   5.462
 1961SOL    HW117102   6.453   9.170   5.410
 1961SOL    HW217103   6.408   9.256   5.541
 1962SOL     OW17104   0.976   3.805   5.093
 1962SOL    HW117105   0.985   3.821   5.192
 1962SOL    HW217106   0.899   3.744   5.076
 1963SOL     OW17107   1.549   3.318   0.899
 1963SOL    HW117108   1.485   3.257   0.852
 1963SOL    HW217109   1.630   3.265   0.926
 1964SOL     OW17110   5.933   5.600   1.141
 1964SOL    HW117111   5.977   5.512   1.122
 1964SOL    HW217112   5.933   5.657   1.059
 1965SOL     OW17113   5.707   0.584   3.779
 1965SOL    HW117114   5.700   0.657   3.711
 1965SOL    HW217115   5.696   0.622   3.871
 1966SOL     OW17116   6.497   1.441   5.681
 1966SOL    HW117117   6.541   1.510   5.624
 1966SOL    HW217118   6.414   1.409   5.637
 1967SOL     OW17119   2.397   8.009   4.267
 1967SOL    HW117120   2.337   7.941   4.226
 1967SOL    HW217121   2.343   8.089   4.293
 1968SOL     OW17122   0.711   9.834   3.571
 1968SOL    HW117123   0.696   9.743   3.532
 1968SOL    HW217124   0.727   9.899   3.497
 1969SOL     OW17125   8.808   4.908   4.917
 1969SOL    HW117126   8.863   4.837   4.960
 1969SOL    HW217127   8.867   4.976   4.875
 1970SOL     OW17128   8.724   4.332   3.224
 1970SOL    HW117129   8.720   4.308   3.127
 1970SOL    HW217130   8.669   4.414   3.240
 1971SOL     OW17131   4.163   6.162   1.486
 1971SOL    HW117132   4.076   6.118   1.463
 1971SOL    HW217133   4.238   6.111   1.446
 1972SOL     OW17134   7.333   2.318   6.116
 1972SOL    HW117135   7.243   2.296   6.078
 1972SOL    HW217136   7.347   2.418   6.113
 1973SOL     OW17137   7.646   9.501   2.168
 1973SOL    HW117138   7.550   9.471   2.177
 1973SOL    HW217139   7.648   9.595   2.137
 1974SOL     OW17140   9.589   6.160   0.701
 1974SOL    HW117141   9.648   6.169   0.781
 1974SOL    HW217142   9.643   6.176   0.618
 1975SOL     OW17143   0.132   8.373   2.802
 1975SOL    HW117144   0.045   8.402   2.841
 1975SOL    HW217145   0.124   8.279   2.769
 1976SOL     OW17146   8.403   7.594   4.053
 1976SOL    HW117147   8.468   7.669   4.062
 1976SOL    HW217148   8.453   7.507   4.047
 1977SOL     OW17149   9.862   3.715   3.453
 1977SOL    HW117150   9.777   3.700   3.504
 1977SOL    HW217151   9.908   3.796   3.488
 1978SOL     OW17152   2.156   8.543   6.283
 1978SOL    HW117153   2.064   8.552   6.244
 1978SOL    HW217154   2.200   8.462   6.246
 1979SOL     OW17155   8.711   5.294   5.715
 1979SOL    HW117156   8.795   5.262   5.759
 1979SOL    HW217157   8.687   5.233   5.640
 1980SOL     OW17158   1.870   6.092   5.969
 1980SOL    HW117159   1.884   5.995   5.949
 1980SOL    HW217160   1.959   6.139   5.972
 1981SOL     OW17161   8.341   5.856   0.760
 1981SOL    HW117162   8.365   5.759   0.767
 1981SOL    HW217163   8.250   5.865   0.719
 1982SOL     OW17164   2.350   5.149   3.724
 1982SOL    HW117165   2.332   5.170   3.820
 1982SOL    HW217166   2.445   5.172   3.701
 1983SOL     OW17167   2.654   3.689   5.603
 1983SOL    HW117168   2.556   3.683   5.588
 1983SOL    HW217169   2.677   3.778   5.643
 1984SOL     OW17170   9.939   8.727   3.805
 1984SOL    HW117171   9.857   8.687   3.845
 1984SOL    HW217172   0.019   8.677   3.836
 1985SOL     OW17173   9.435   9.531   4.777
 1985SOL    HW117174   9.407   9.467   4.705
 1985SOL    HW217175   9.371   9.526   4.853
 1986SOL     OW17176   1.179   1.149   0.570
 1986SOL    HW117177   1.171   1.052   0.549
 1986SOL    HW217178   1.241   1.162   0.647
 1987SOL     OW17179   1.993   4.150   4.616
 1987SOL    HW117180   1.941   4.143   4.700
 1987SOL    HW217181   2.086   4.182   4.636
 1988SOL     OW17182   1.647   0.814   1.724
 1988SOL    HW117183   1.565   0.801   1.668
 1988SOL    HW217184   1.632   0.772   1.814
 1989SOL     OW17185   1.799   7.383   1.088
 1989SOL    HW117186   1.818   7.450   1.159
 1989SOL    HW217187   1.785   7.293   1.130
 1990SOL     OW17188   2.599   4.475   1.100
 1990SOL    HW117189   2.599   4.525   1.186
 1990SOL    HW217190   2.667   4.515   1.038
 1991SOL     OW17191   1.084   4.599   3.158
 1991SOL    HW117192   1.158   4.597   3.226
 1991SOL    HW217193   1.050   4.692   3.148
 1992SOL     OW17194   3.412   1.935   4.171
 1992SOL    HW117195   3.411   2.020   4.118
 1992SOL    HW217196   3.440   1.859   4.112
 1993SOL     OW17197   0.522   2.044   5.075
 1993SOL    HW117198   0.469   2.077   5.154
 1993SOL    HW217199   0.513   2.108   4.999
 1994SOL     OW17200   8.166   4.684   2.222
 1994SOL    HW117201   8.143   4.612   2.156
 1994SOL    HW217202   8.106   4.762   2.207
 1995SOL     OW17203   2.710   4.394   0.546
 1995SOL    HW117204   2.800   4.359   0.573
 1995SOL    HW217205   2.651   4.317   0.522
 1996SOL     OW17206   6.763   2.068   1.238
 1996SOL    HW117207   6.798   2.150   1.281
 1996SOL    HW217208   6.677   2.089   1.192
 1997SOL     OW17209   8.642   2.339   5.789
 1997SOL    HW117210   8.639   2.261   5.852
 1997SOL    HW217211   8.676   2.309   5.700
 1998SOL     OW17212   8.153   1.491   5.923
 1998SOL    HW117213   8.056   1.481   5.944
 1998SOL    HW217214   8.168   1.577   5.874
 1999SOL     OW17215   8.707   6.507   6.013
 1999SOL    HW117216   8.798   6.517   5.973
 1999SOL    HW217217   8.683   6.589   6.064
 2000SOL     OW17218   7.495   4.342   2.104
 2000SOL    HW117219   7.553   4.418   2.076
 2000SOL    HW217220   7.471   4.352   2.201
 2001SOL     OW17221   1.048   1.203   5.007
 2001SOL    HW117222   0.957   1.166   5.026
 2001SOL    HW217223   1.053   1.228   4.910
 2002SOL     OW17224   2.589   2.925   2.051
 2002SOL    HW117225   2.570   2.937   1.953
 2002SOL    HW217226   2.623   3.011   2.089
 2003SOL     OW17227   3.612   3.148   4.693
 2003SOL    HW117228   3.599   3.067   4.635
 2003SOL    HW217229   3.564   3.135   4.779
 2004SOL     OW17230   2.331   3.964   3.114
 2004SOL    HW117231   2.274   3.982   3.034
 2004SOL    HW217232   2.423   3.939   3.084
 2005SOL     OW17233   9.088   1.107   4.873
 2005SOL    HW117234   9.029   1.041   4.828
 2005SOL    HW217235   9.033   1.170   4.928
 2006SOL     OW17236   3.729   3.706   4.403
 2006SOL    HW117237   3.719   3.739   4.309
 2006SOL    HW217238   3.642   3.671   4.436
 2007SOL     OW17239   2.397   8.803   2.130
 2007SOL    HW117240   2.487   8.845   2.120
 2007SOL    HW217241   2.351   8.840   2.211
 2008SOL     OW17242   4.636   8.925   4.550
 2008SOL    HW117243   4.563   8.903   4.615
 2008SOL    HW217244   4.697   8.992   4.592
 2009SOL     OW17245   0.616   7.886   6.018
 2009SOL    HW117246   0.598   7.840   5.932
 2009SOL    HW217247   0.585   7.828   6.094
 2010SOL     OW17248   2.292   4.556   3.289
 2010SOL    HW117249   2.269   4.541   3.385
 2010SOL    HW217250   2.207   4.566   3.236
 2011SOL     OW17251   7.469   1.922   2.631
 2011SOL    HW117252   7.434   1.965   2.715
 2011SOL    HW217253   7.505   1.832   2.652
 2012SOL     OW17254   0.689   5.289   0.217
 2012SOL    HW117255   0.769   5.349   0.212
 2012SOL    HW217256   0.633   5.301   0.135
 2013SOL     OW17257   2.061   2.983   5.614
 2013SOL    HW117258   2.149   3.030   5.608
 2013SOL    HW217259   2.074   2.885   5.602
 2014SOL     OW17260   4.288   4.933   2.299
 2014SOL    HW117261   4.265   4.876   2.378
 2014SOL    HW217262   4.380   4.970   2.311
 2015SOL     OW17263   2.953   7.699   3.909
 2015SOL    HW117264   2.951   7.653   3.999
 2015SOL    HW217265   2.871   7.756   3.900
 2016SOL     OW17266   0.249   1.697   1.451
 2016SOL    HW117267   0.181   1.769   1.432
 2016SOL    HW217268   0.212   1.609   1.423
 2017SOL     OW17269   3.990   3.270   3.054
 2017SOL    HW117270   4.086   3.296   3.046
 2017SOL    HW217271   3.968   3.203   2.983
 2018SOL     OW17272   2.054   9.065   3.359
 2018SOL    HW117273   2.153   9.063   3.348
 2018SOL    HW217274   2.018   9.149   3.318
 2019SOL     OW17275   8.969   6.534   5.925
 2019SOL    HW117276   9.004   6.448   5.888
 2019SOL    HW217277   9.044   6.600   5.932
 2020SOL     OW17278   8.309   4.613   3.180
 2020SOL    HW117279   8.246   4.538   3.165
 2020SOL    HW217280   8.264   4.700   3.156
 2021SOL     OW17281   7.996   3.147   4.214
 2021SOL    HW117282   7.918   3.114   4.267
 2021SOL    HW217283   8.065   3.075   4.207
 2022SOL     OW17284   1.015   3.727   6.304
 2022SOL    HW117285   1.024   3.628   6.309
 2022SOL    HW217286   1.105   3.768   6.297
 2023SOL     OW17287   9.085   2.690   3.509
 2023SOL    HW117288   9.055   2.781   3.482
 2023SOL    HW217289   9.016   2.649   3.569
 2024SOL     OW17290   9.857   3.822   2.896
 2024SOL    HW117291   9.911   3.785   2.972
 2024SOL    HW217292   9.811   3.748   2.848
 2025SOL     OW17293   2.135   5.912   4.464
 2025SOL    HW117294   2.077   5.989   4.440
 2025SOL    HW217295   2.163   5.920   4.559
 2026SOL     OW17296   5.669   4.067   1.738
 2026SOL    HW117297   5.637   4.117   1.658
 2026SOL    HW217298   5.591   4.022   1.782
 2027SOL     OW17299   3.268   9.781   0.631
 2027SOL    HW117300   3.230   9.689   0.628
 2027SOL    HW217301   3.233   9.834   0.555
 2028SOL     OW17302   8.364   4.001   6.253
 2028SOL    HW117303   8.296   3.952   6.307
 2028SOL    HW217304   8.341   3.996   6.156
 2029SOL     OW17305   1.796   2.330   2.584
 2029SOL    HW117306   1.780   2.242   2.629
 2029SOL    HW217307   1.801   2.403   2.653
 2030SOL     OW17308   7.852   2.249   5.783
 2030SOL    HW117309   7.804   2.161   5.791
 2030SOL    HW217310   7.949   2.235   5.803
 2031SOL     OW17311   8.178   8.118   5.375
 2031SOL    HW117312   8.101   8.070   5.334
 2031SOL    HW217313   8.145   8.191   5.435
 2032SOL     OW17314   1.016   3.165   5.672
 2032SOL    HW117315   1.099   3.209   5.640
 2032SOL    HW217316   1.027   3.138   5.768
 2033SOL     OW17317   1.106   1.585   0.611
 2033SOL    HW117318   1.201   1.607   0.588
 2033SOL    HW217319   1.084   1.625   0.701
 2034SOL     OW17320   7.767   2.912   2.649
 2034SOL    HW117321   7.667   2.913   2.657
 2034SOL    HW217322   7.806   2.871   2.731
 2035SOL     OW17323   1.246   4.244   0.543
 2035SOL    HW117324   1.226   4.306   0.619
 2035SOL    HW217325   1.283   4.297   0.466
 2036SOL     OW17326   3.702   5.547   2.327
 2036SOL    HW117327   3.719   5.489   2.407
 2036SOL    HW217328   3.681   5.490   2.248
 2037SOL     OW17329   8.672   2.811   3.534
 2037SOL    HW117330   8.621   2.739   3.487
 2037SOL    HW217331   8.609   2.881   3.568
 2038SOL     OW17332   3.766   8.680   0.228
 2038SOL    HW117333   3.800   8.759   0.177
 2038SOL    HW217334   3.685   8.644   0.184
 2039SOL     OW17335   9.556   7.544   3.819
 2039SOL    HW117336   9.473   7.491   3.802
 2039SOL    HW217337   9.636   7.489   3.796
 2040SOL     OW17338   1.979   7.645   5.562
 2040SOL    HW117339   1.985   7.546   5.573
 2040SOL    HW217340   1.983   7.690   5.651
 2041SOL     OW17341   2.338   0.743   0.762
 2041SOL    HW117342   2.310   0.654   0.799
 2041SOL    HW217343   2.277   0.814   0.798
 2042SOL     OW17344   2.243   7.464   1.607
 2042SOL    HW117345   2.267   7.558   1.632
 2042SOL    HW217346   2.247   7.454   1.508
 2043SOL     OW17347   3.503   9.838   3.936
 2043SOL    HW117348   3.579   9.879   3.886
 2043SOL    HW217349   3.524   9.837   4.034
 2044SOL     OW17350   3.308   1.682   1.399
 2044SOL    HW117351   3.233   1.652   1.458
 2044SOL    HW217352   3.330   1.610   1.333
 2045SOL     OW17353   7.465   4.799   5.609
 2045SOL    HW117354   7.497   4.767   5.519
 2045SOL    HW217355   7.523   4.874   5.639
 2046SOL     OW17356   0.010   9.966   1.633
 2046SOL    HW117357   0.084   9.941   1.696
 2046SOL    HW217358   9.927   9.919   1.660
 2047SOL     OW17359   9.233   5.240   5.356
 2047SOL    HW117360   9.251   5.302   5.280
 2047SOL    HW217361   9.170   5.168   5.327
 2048SOL     OW17362   8.686   9.810   2.634
 2048SOL    HW117363   8.748   9.732   2.644
 2048SOL    HW217364   8.597   9.787   2.673
 2049SOL     OW17365   6.818   0.328   4.991
 2049SOL    HW117366   6.813   0.382   5.075
 2049SOL    HW217367   6.750   0.361   4.926
 2050SOL     OW17368   5.587   4.302   0.159
 2050SOL    HW117369   5.586   4.294   0.259
 2050SOL    HW217370   5.613   4.214   0.119
 2051SOL     OW17371   5.351   0.489   4.394
 2051SOL    HW117372   5.293   0.413   4.364
 2051SOL    HW217373   5.297   0.573   4.398
 2052SOL     OW17374   1.468   8.214   4.161
 2052SOL    HW117375   1.466   8.273   4.241
 2052SOL    HW217376   1.395   8.146   4.169
 2053SOL     OW17377   2.247   6.098   1.811
 2053SOL    HW117378   2.249   6.198   1.810
 2053SOL    HW217379   2.207   6.064   1.725
 2054SOL     OW17380   0.965   3.068   3.121
 2054SOL    HW117381   0.912   3.152   3.132
 2054SOL    HW217382   0.905   2.996   3.086
 2055SOL     OW17383   9.355   3.863   1.457
 2055SOL    HW117384   9.293   3.938   1.437
 2055SOL    HW217385   9.302   3.781   1.480
 2056SOL     OW17386   0.538   8.111   4.326
 2056SOL    HW117387   0.439   8.116   4.340
 2056SOL    HW217388   0.560   8.128   4.230
 2057SOL     OW17389   7.515   4.550   1.554
 2057SOL    HW117390   7.476   4.601   1.478
 2057SOL    HW217391   7.446   4.486   1.589
 2058SOL     OW17392   1.434   2.314   6.015
 2058SOL    HW117393   1.516   2.256   6.014
 2058SOL    HW217394   1.432   2.371   5.934
 2059SOL     OW17395   8.029   5.277   1.810
 2059SOL    HW117396   8.073   5.348   1.865
 2059SOL    HW217397   8.080   5.192   1.817
 2060SOL     OW17398   2.266   9.415   0.831
 2060SOL    HW117399   2.326   9.352   0.782
 2060SOL    HW217400   2.292   9.416   0.928
 2061SOL     OW17401   8.146   9.652   4.807
 2061SOL    HW117402   8.211   9.578   4.825
 2061SOL    HW217403   8.053   9.621   4.829
 2062SOL     OW17404   2.127   3.756   4.899
 2062SOL    HW117405   2.096   3.689   4.966
 2062SOL    HW217406   2.048   3.788   4.846
 2063SOL     OW17407   2.881   6.912   2.851
 2063SOL    HW117408   2.806   6.939   2.791
 2063SOL    HW217409   2.920   6.825   2.820
 2064SOL     OW17410   2.326   9.587   3.735
 2064SOL    HW117411   2.261   9.522   3.695
 2064SOL    HW217412   2.419   9.562   3.708
 2065SOL     OW17413   2.628   9.280   3.955
 2065SOL    HW117414   2.712   9.287   4.009
 2065SOL    HW217415   2.582   9.194   3.978
 2066SOL     OW17416   8.543   8.027   0.405
 2066SOL    HW117417   8.611   8.087   0.448
 2066SOL    HW217418   8.590   7.953   0.357
 2067SOL     OW17419   2.528   1.570   2.796
 2067SOL    HW117420   2.584   1.640   2.751
 2067SOL    HW217421   2.483   1.515   2.726
 2068SOL     OW17422   7.475   8.547   3.009
 2068SOL    HW117423   7.378   8.558   3.028
 2068SOL    HW217424   7.528   8.566   3.091
 2069SOL     OW17425   2.033   7.222   3.108
 2069SOL    HW117426   2.075   7.237   3.198
 2069SOL    HW217427   2.073   7.140   3.066
 2070SOL     OW17428   0.025   8.543   0.192
 2070SOL    HW117429   0.103   8.595   0.158
 2070SOL    HW217430   0.035   8.447   0.166
 2071SOL     OW17431   3.718   7.943   5.809
 2071SOL    HW117432   3.621   7.959   5.830
 2071SOL    HW217433   3.753   7.873   5.871
 2072SOL     OW17434   3.356   8.243   1.979
 2072SOL    HW117435   3.359   8.307   2.057
 2072SOL    HW217436   3.382   8.291   1.896
 2073SOL     OW17437   8.256   4.165   3.175
 2073SOL    HW117438   8.342   4.145   3.128
 2073SOL    HW217439   8.194   4.086   3.166
 2074SOL     OW17440   1.221   2.440   4.864
 2074SOL    HW117441   1.281   2.443   4.784
 2074SOL    HW217442   1.160   2.519   4.864
 2075SOL     OW17443   8.762   1.999   3.479
 2075SOL    HW117444   8.844   2.018   3.425
 2075SOL    HW217445   8.758   2.062   3.556
 2076SOL     OW17446   7.712   6.653   2.554
 2076SOL    HW117447   7.779   6.663   2.628
 2076SOL    HW217448   7.640   6.721   2.565
 2077SOL     OW17449   2.522   0.717   0.557
 2077SOL    HW117450   2.471   0.740   0.641
 2077SOL    HW217451   2.466   0.656   0.501
 2078SOL     OW17452   1.761   3.777   3.501
 2078SOL    HW117453   1.823   3.726   3.561
 2078SOL    HW217454   1.738   3.864   3.543
 2079SOL     OW17455   7.254   7.429   5.754
 2079SOL    HW117456   7.164   7.393   5.729
 2079SOL    HW217457   7.243   7.503   5.821
 2080SOL     OW17458   7.767   0.185   0.913
 2080SOL    HW117459   7.719   0.099   0.923
 2080SOL    HW217460   7.715   0.258   0.957
 2081SOL     OW17461   9.894   9.236   2.342
 2081SOL    HW117462   9.957   9.159   2.331
 2081SOL    HW217463   9.801   9.201   2.355
 2082SOL     OW17464   9.636   1.694   5.314
 2082SOL    HW117465   9.724   1.658   5.346
 2082SOL    HW217466   9.564   1.670   5.379
 2083SOL     OW17467   7.686   1.723   1.473
 2083SOL    HW117468   7.625   1.646   1.454
 2083SOL    HW217469   7.706   1.771   1.388
 2084SOL     OW17470   2.507   7.455   6.299
 2084SOL    HW117471   2.579   7.393   6.269
 2084SOL    HW217472   2.480   7.433   6.393
 2085SOL     OW17473   4.023   1.962   3.751
 2085SOL    HW117474   4.059   1.996   3.664
 2085SOL    HW217475   3.958   2.028   3.788
 2086SOL     OW17476   6.815   9.120   4.656
 2086SOL    HW117477   6.783   9.148   4.747
 2086SOL    HW217478   6.749   9.057   4.615
 2087SOL     OW17479   1.132   2.132   3.412
 2087SOL    HW117480   1.186   2.207   3.450
 2087SOL    HW217481   1.088   2.161   3.328
 2088SOL     OW17482   0.668   3.726   1.653
 2088SOL    HW117483   0.641   3.689   1.564
 2088SOL    HW217484   0.756   3.772   1.645
 2089SOL     OW17485   3.726   9.254   0.668
 2089SOL    HW117486   3.791   9.182   0.689
 2089SOL    HW217487   3.636   9.232   0.707
 2090SOL     OW17488   2.235   6.244   3.753
 2090SOL    HW117489   2.232   6.177   3.827
 2090SOL    HW217490   2.286   6.325   3.783
 2091SOL     OW17491   2.172   6.398   2.133
 2091SOL    HW117492   2.106   6.326   2.111
 2091SOL    HW217493   2.194   6.450   2.050
 2092SOL     OW17494   0.431   4.550   3.496
 2092SOL    HW117495   0.466   4.468   3.451
 2092SOL    HW217496   0.507   4.612   3.518
 2093SOL     OW17497   5.112   8.818   3.617
 2093SOL    HW117498   5.021   8.854   3.596
 2093SOL    HW217499   5.172   8.830   3.537
 2094SOL     OW17500   7.995   1.293   4.453
 2094SOL    HW117501   8.090   1.308   4.482
 2094SOL    HW217502   7.940   1.266   4.531
 2095SOL     OW17503   3.700   3.943   1.414
 2095SOL    HW117504   3.684   3.908   1.322
 2095SOL    HW217505   3.683   3.871   1.482
 2096SOL     OW17506   1.584   3.188   0.133
 2096SOL    HW117507   1.638   3.271   0.118
 2096SOL    HW217508   1.489   3.214   0.156
 2097SOL     OW17509   2.203   9.147   1.496
 2097SOL    HW117510   2.140   9.221   1.473
 2097SOL    HW217511   2.272   9.138   1.424
 2098SOL     OW17512   4.673   8.483   3.193
 2098SOL    HW117513   4.612   8.548   3.240
 2098SOL    HW217514   4.763   8.524   3.181
 2099SOL     OW17515   8.204   6.984   0.684
 2099SOL    HW117516   8.235   7.007   0.776
 2099SOL    HW217517   8.237   7.052   0.619
 2100SOL     OW17518   5.648   7.877   5.082
 2100SOL    HW117519   5.586   7.945   5.042
 2100SOL    HW217520   5.727   7.924   5.121
 2101SOL     OW17521   9.104   7.262   5.109
 2101SOL    HW117522   9.189   7.211   5.123
 2101SOL    HW217523   9.095   7.284   5.012
 2102SOL     OW17524   9.123   8.614   3.529
 2102SOL    HW117525   9.166   8.671   3.459
 2102SOL    HW217526   9.056   8.554   3.487
 2103SOL     OW17527   3.076   0.953   0.915
 2103SOL    HW117528   3.168   0.942   0.952
 2103SOL    HW217529   3.054   0.875   0.856
 2104SOL     OW17530   0.697   2.806   3.240
 2104SOL    HW117531   0.605   2.779   3.212
 2104SOL    HW217532   0.751   2.830   3.160
 2105SOL     OW17533   1.767   9.393   6.242
 2105SOL    HW117534   1.667   9.396   6.246
 2105SOL    HW217535   1.802   9.478   6.203
 2106SOL     OW17536   4.289   3.261   0.486
 2106SOL    HW117537   4.307   3.193   0.558
 2106SOL    HW217538   4.344   3.343   0.504
 2107SOL     OW17539   7.288   7.470   5.263
 2107SOL    HW117540   7.345   7.482   5.345
 2107SOL    HW217541   7.220   7.398   5.280
 2108SOL     OW17542   7.712   9.034   5.750
 2108SOL    HW117543   7.671   9.113   5.798
 2108SOL    HW217544   7.651   9.003   5.678
 2109SOL     OW17545   9.679   7.084   1.269
 2109SOL    HW117546   9.746   7.047   1.205
 2109SOL    HW217547   9.715   7.076   1.362
 2110SOL     OW17548   4.593   1.215   5.480
 2110SOL    HW117549   4.519   1.196   5.416
 2110SOL    HW217550   4.675   1.242   5.430
 2111SOL     OW17551   8.030   1.648   0.161
 2111SOL    HW117552   8.123   1.612   0.155
 2111SOL    HW217553   7.992   1.628   0.251
 2112SOL     OW17554   3.789   9.936   5.717
 2112SOL    HW117555   3.703   9.964   5.674
 2112SOL    HW217556   3.818   0.006   5.783
 2113SOL     OW17557   1.702   6.547   4.870
 2113SOL    HW117558   1.744   6.504   4.949
 2113SOL    HW217559   1.701   6.483   4.793
 2114SOL     OW17560   6.052   0.010   4.532
 2114SOL    HW117561   6.049   9.911   4.525
 2114SOL    HW217562   6.060   0.036   4.628
 2115SOL     OW17563   4.220   4.682   1.978
 2115SOL    HW117564   4.125   4.658   1.994
 2115SOL    HW217565   4.279   4.614   2.022
 2116SOL     OW17566   9.489   9.616   3.545
 2116SOL    HW117567   9.425   9.541   3.533
 2116SOL    HW217568   9.471   9.687   3.476
 2117SOL     OW17569   7.749   6.443   4.440
 2117SOL    HW117570   7.747   6.508   4.516
 2117SOL    HW217571   7.729   6.491   4.355
 2118SOL     OW17572   8.006   8.631   5.810
 2118SOL    HW117573   7.912   8.625   5.776
 2118SOL    HW217574   8.060   8.687   5.748
 2119SOL     OW17575   0.625   7.600   2.465
 2119SOL    HW117576   0.557   7.614   2.393
 2119SOL    HW217577   0.583   7.615   2.554
 2120SOL     OW17578   0.899   5.968   3.040
 2120SOL    HW117579   0.831   5.907   3.081
 2120SOL    HW217580   0.863   6.005   2.954
 2121SOL     OW17581   7.610   8.663   5.009
 2121SOL    HW117582   7.597   8.749   5.059
 2121SOL    HW217583   7.552   8.661   4.928
 2122SOL     OW17584   2.147   8.933   2.701
 2122SOL    HW117585   2.172   8.904   2.793
 2122SOL    HW217586   2.227   8.967   2.653
 2123SOL     OW17587   6.532   2.210   0.100
 2123SOL    HW117588   6.597   2.259   0.042
 2123SOL    HW217589   6.542   2.240   0.194
 2124SOL     OW17590   0.791   3.586   2.323
 2124SOL    HW117591   0.792   3.507   2.386
 2124SOL    HW217592   0.884   3.618   2.309
 2125SOL     OW17593   8.431   6.028   3.188
 2125SOL    HW117594   8.445   6.007   3.091
 2125SOL    HW217595   8.413   6.126   3.198
 2126SOL     OW17596   2.897   2.653   6.153
 2126SOL    HW117597   2.936   2.646   6.245
 2126SOL    HW217598   2.921   2.741   6.113
 2127SOL     OW17599   3.320   4.399   3.456
 2127SOL    HW117600   3.232   4.442   3.437
 2127SOL    HW217601   3.312   4.300   3.445
 2128SOL     OW17602   5.846   8.638   3.682
 2128SOL    HW117603   5.867   8.711   3.747
 2128SOL    HW217604   5.839   8.551   3.731
 2129SOL     OW17605   8.805   3.906   3.463
 2129SOL    HW117606   8.896   3.905   3.505
 2129SOL    HW217607   8.798   3.829   3.399
 2130SOL     OW17608   1.436   4.785   4.314
 2130SOL    HW117609   1.352   4.734   4.296
 2130SOL    HW217610   1.415   4.882   4.321
 2131SOL     OW17611   5.097   1.787   5.534
 2131SOL    HW117612   5.049   1.778   5.621
 2131SOL    HW217613   5.031   1.807   5.462
 2132SOL     OW17614   6.379   0.921   4.643
 2132SOL    HW117615   6.363   1.015   4.675
 2132SOL    HW217616   6.361   0.916   4.545
 2133SOL     OW17617   2.514   4.507   5.967
 2133SOL    HW117618   2.417   4.503   5.944
 2133SOL    HW217619   2.545   4.416   5.996
 2134SOL     OW17620   9.154   2.687   4.757
 2134SOL    HW117621   9.200   2.747   4.692
 2134SOL    HW217622   9.080   2.638   4.711
 2135SOL     OW17623   2.801   9.394   3.413
 2135SOL    HW117624   2.840   9.486   3.424
 2135SOL    HW217625   2.849   9.330   3.473
 2136SOL     OW17626   1.848   8.562   0.951
 2136SOL    HW117627   1.878   8.476   0.910
 2136SOL    HW217628   1.750   8.556   0.971
 2137SOL     OW17629   9.575   1.050   3.900
 2137SOL    HW117630   9.512   1.063   3.823
 2137SOL    HW217631   9.659   1.007   3.867
 2138SOL     OW17632   3.665   7.937   5.316
 2138SOL    HW117633   3.694   7.954   5.222
 2138SOL    HW217634   3.587   7.874   5.316
 2139SOL     OW17635   2.635   7.392   0.462
 2139SOL    HW117636   2.656   7.295   0.477
 2139SOL    HW217637   2.713   7.448   0.491
 2140SOL     OW17638   9.230   8.722   1.576
 2140SOL    HW117639   9.270   8.806   1.539
 2140SOL    HW217640   9.247   8.647   1.512
 2141SOL     OW17641   3.479   9.903   0.910
 2141SOL    HW117642   3.484   9.988   0.964
 2141SOL    HW217643   3.540   9.911   0.830
 2142SOL     OW17644   0.619   2.985   4.608
 2142SOL    HW117645   0.690   2.917   4.627
 2142SOL    HW217646   0.533   2.955   4.650
 2143SOL     OW17647   0.563   0.124   5.095
 2143SOL    HW117648   0.606   0.214   5.084
 2143SOL    HW217649   0.629   0.061   5.135
 2144SOL     OW17650   6.740   2.785   4.175
 2144SOL    HW117651   6.647   2.753   4.155
 2144SOL    HW217652   6.793   2.791   4.091
 2145SOL     OW17653   0.925   6.044   1.778
 2145SOL    HW117654   0.887   5.959   1.813
 2145SOL    HW217655   0.880   6.122   1.823
 2146SOL     OW17656   7.725   1.089   1.622
 2146SOL    HW117657   7.689   1.117   1.711
 2146SOL    HW217658   7.808   1.034   1.636
 2147SOL     OW17659   1.825   7.558   1.298
 2147SOL    HW117660   1.919   7.592   1.297
 2147SOL    HW217661   1.762   7.634   1.315
 2148SOL     OW17662   4.132   9.325   1.001
 2148SOL    HW117663   4.183   9.407   0.976
 2148SOL    HW217664   4.047   9.350   1.046
 2149SOL     OW17665   2.906   1.444   1.913
 2149SOL    HW117666   2.839   1.397   1.970
 2149SOL    HW217667   2.877   1.538   1.897
 2150SOL     OW17668   8.021   4.501   2.027
 2150SOL    HW117669   7.979   4.557   1.956
 2150SOL    HW217670   7.960   4.496   2.106
 2151SOL     OW17671   8.404   5.517   0.233
 2151SOL    HW117672   8.494   5.479   0.211
 2151SOL    HW217673   8.333   5.457   0.197
 2152SOL     OW17674   2.054   2.853   0.494
 2152SOL    HW117675   2.136   2.846   0.437
 2152SOL    HW217676   1.985   2.790   0.459
 2153SOL     OW17677   4.610   3.052   3.956
 2153SOL    HW117678   4.682   2.992   3.989
 2153SOL    HW217679   4.540   3.063   4.027
 2154SOL     OW17680   6.428   4.684   1.468
 2154SOL    HW117681   6.372   4.639   1.537
 2154SOL    HW217682   6.503   4.623   1.441
 2155SOL     OW17683   7.600   2.420   1.144
 2155SOL    HW117684   7.536   2.495   1.128
 2155SOL    HW217685   7.685   2.438   1.095
 2156SOL     OW17686   7.628   9.389   3.879
 2156SOL    HW117687   7.621   9.310   3.940
 2156SOL    HW217688   7.617   9.360   3.784
 2157SOL     OW17689   2.029   6.526   1.682
 2157SOL    HW117690   2.100   6.495   1.619
 2157SOL    HW217691   1.947   6.549   1.630
 2158SOL     OW17692   8.132   2.548   2.798
 2158SOL    HW117693   8.137   2.489   2.717
 2158SOL    HW217694   8.128   2.644   2.770
 2159SOL     OW17695   9.346   6.126   2.148
 2159SOL    HW117696   9.355   6.200   2.081
 2159SOL    HW217697   9.406   6.145   2.226
 2160SOL     OW17698   0.214   6.299   2.150
 2160SOL    HW117699   0.232   6.377   2.209
 2160SOL    HW217700   0.123   6.262   2.170
 2161SOL     OW17701   9.595   5.010   0.823
 2161SOL    HW117702   9.567   5.008   0.727
 2161SOL    HW217703   9.694   4.998   0.830
 2162SOL     OW17704   0.779   7.610   5.879
 2162SOL    HW117705   0.685   7.644   5.868
 2162SOL    HW217706   0.839   7.659   5.816
 2163SOL     OW17707   1.098   5.938   0.380
 2163SOL    HW117708   1.053   6.020   0.346
 2163SOL    HW217709   1.196   5.956   0.389
 2164SOL     OW17710   1.156   5.680   4.500
 2164SOL    HW117711   1.062   5.669   4.531
 2164SOL    HW217712   1.159   5.676   4.400
 2165SOL     OW17713   0.865   4.355   1.793
 2165SOL    HW117714   0.835   4.357   1.888
 2165SOL    HW217715   0.787   4.375   1.733
 2166SOL     OW17716   0.561   6.730   1.712
 2166SOL    HW117717   0.527   6.636   1.704
 2166SOL    HW217718   0.581   6.750   1.808
 2167SOL     OW17719   2.783   9.963   1.669
 2167SOL    HW117720   2.814   9.902   1.596
 2167SOL    HW217721   2.683   9.964   1.672
 2168SOL     OW17722   5.050   2.052   3.584
 2168SOL    HW117723   5.074   2.080   3.491
 2168SOL    HW217724   4.952   2.065   3.599
 2169SOL     OW17725   1.160   8.694   0.955
 2169SOL    HW117726   1.172   8.793   0.963
 2169SOL    HW217727   1.177   8.651   1.045
 2170SOL     OW17728   4.461   0.705   5.034
 2170SOL    HW117729   4.501   0.777   4.978
 2170SOL    HW217730   4.362   0.715   5.036
 2171SOL     OW17731   3.437   8.265   5.225
 2171SOL    HW117732   3.468   8.347   5.176
 2171SOL    HW217733   3.503   8.241   5.296
 2172SOL     OW17734   3.605   3.889   5.429
 2172SOL    HW117735   3.652   3.955   5.370
 2172SOL    HW217736   3.562   3.938   5.505
 2173SOL     OW17737   5.222   6.649   1.994
 2173SOL    HW117738   5.135   6.613   1.960
 2173SOL    HW217739   5.205   6.714   2.068
 2174SOL     OW17740   6.285   9.104   3.620
 2174SOL    HW117741   6.349   9.050   3.565
 2174SOL    HW217742   6.336   9.167   3.679
 2175SOL     OW17743   1.346   1.823   5.703
 2175SOL    HW117744   1.409   1.753   5.737
 2175SOL    HW217745   1.289   1.785   5.631
 2176SOL     OW17746   8.193   1.589   4.901
 2176SOL    HW117747   8.167   1.499   4.936
 2176SOL    HW217748   8.110   1.638   4.874
 2177SOL     OW17749   8.059   3.015   2.551
 2177SOL    HW117750   8.128   3.075   2.593
 2177SOL    HW217751   7.988   3.071   2.509
 2178SOL     OW17752   6.462   7.960   4.992
 2178SOL    HW117753   6.556   7.927   4.982
 2178SOL    HW217754   6.402   7.906   4.933
 2179SOL     OW17755   2.843   8.331   3.076
 2179SOL    HW117756   2.866   8.315   2.980
 2179SOL    HW217757   2.926   8.342   3.129
 2180SOL     OW17758   1.863   5.103   3.318
 2180SOL    HW117759   1.856   5.080   3.415
 2180SOL    HW217760   1.951   5.072   3.282
 2181SOL     OW17761   3.602   2.547   1.597
 2181SOL    HW117762   3.678   2.531   1.659
 2181SOL    HW217763   3.634   2.542   1.502
 2182SOL     OW17764   8.577   2.633   4.615
 2182SOL    HW117765   8.594   2.553   4.672
 2182SOL    HW217766   8.496   2.681   4.649
 2183SOL     OW17767   8.803   9.838   4.444
 2183SOL    HW117768   8.890   9.886   4.453
 2183SOL    HW217769   8.812   9.766   4.375
 2184SOL     OW17770   0.936   8.717   6.027
 2184SOL    HW117771   0.940   8.618   6.012
 2184SOL    HW217772   0.840   8.747   6.027
 2185SOL     OW17773   0.387   2.692   0.397
 2185SOL    HW117774   0.296   2.724   0.423
 2185SOL    HW217775   0.425   2.754   0.327
 2186SOL     OW17776   1.073   4.223   5.411
 2186SOL    HW117777   0.981   4.186   5.401
 2186SOL    HW217778   1.103   4.261   5.323
 2187SOL     OW17779   0.974   6.174   0.294
 2187SOL    HW117780   1.039   6.216   0.358
 2187SOL    HW217781   0.951   6.240   0.223
 2188SOL     OW17782   5.651   0.671   4.044
 2188SOL    HW117783   5.748   0.690   4.060
 2188SOL    HW217784   5.621   0.599   4.106
 2189SOL     OW17785   2.237   8.523   5.227
 2189SOL    HW117786   2.227   8.622   5.234
 2189SOL    HW217787   2.326   8.502   5.185
 2190SOL     OW17788   4.674   9.386   4.849
 2190SOL    HW117789   4.635   9.477   4.832
 2190SOL    HW217790   4.763   9.379   4.803
 2191SOL     OW17791   7.644   3.060   0.567
 2191SOL    HW117792   7.559   3.113   0.564
 2191SOL    HW217793   7.673   3.049   0.662
 2192SOL     OW17794   4.756   1.787   3.689
 2192SOL    HW117795   4.740   1.752   3.781
 2192SOL    HW217796   4.813   1.722   3.638
 2193SOL     OW17797   6.759   0.774   3.440
 2193SOL    HW117798   6.827   0.843   3.418
 2193SOL    HW217799   6.688   0.814   3.499
 2194SOL     OW17800   5.211   8.144   2.969
 2194SOL    HW117801   5.259   8.077   3.025
 2194SOL    HW217802   5.112   8.129   2.977
 2195SOL     OW17803   3.532   1.272   5.271
 2195SOL    HW117804   3.583   1.346   5.315
 2195SOL    HW217805   3.471   1.310   5.202
 2196SOL     OW17806   1.474   9.734   4.735
 2196SOL    HW117807   1.514   9.775   4.654
 2196SOL    HW217808   1.542   9.729   4.808
 2197SOL     OW17809   1.067   7.322   4.168
 2197SOL    HW117810   1.101   7.238   4.211
 2197SOL    HW217811   0.987   7.300   4.112
 2198SOL     OW17812   9.901   2.278   0.494
 2198SOL    HW117813   9.973   2.219   0.458
 2198SOL    HW217814   9.937   2.332   0.570
 2199SOL     OW17815   3.205   0.976   3.613
 2199SOL    HW117816   3.252   0.889   3.601
 2199SOL    HW217817   3.154   0.999   3.530
 2200SOL     OW17818   6.555   1.563   5.925
 2200SOL    HW117819   6.513   1.509   5.852
 2200SOL    HW217820   6.627   1.621   5.885
 2201SOL     OW17821   9.066   9.907   3.976
 2201SOL    HW117822   9.110   9.975   4.036
 2201SOL    HW217823   9.123   9.892   3.896
 2202SOL     OW17824   2.906   9.072   3.942
 2202SOL    HW117825   2.843   9.009   3.988
 2202SOL    HW217826   2.979   9.019   3.899
 2203SOL     OW17827   6.832   0.209   0.556
 2203SOL    HW117828   6.922   0.178   0.524
 2203SOL    HW217829   6.811   0.298   0.514
 2204SOL     OW17830   2.370   6.583   5.052
 2204SOL    HW117831   2.415   6.554   5.136
 2204SOL    HW217832   2.411   6.668   5.019
 2205SOL     OW17833   0.752   0.329   1.814
 2205SOL    HW117834   0.726   0.237   1.846
 2205SOL    HW217835   0.800   0.320   1.727
 2206SOL     OW17836   4.205   4.684   5.083
 2206SOL    HW117837   4.302   4.661   5.074
 2206SOL    HW217838   4.193   4.747   5.159
 2207SOL     OW17839   8.893   9.041   2.708
 2207SOL    HW117840   8.925   9.020   2.615
 2207SOL    HW217841   8.915   8.966   2.769
 2208SOL     OW17842   9.761   6.891   0.609
 2208SOL    HW117843   9.789   6.965   0.548
 2208SOL    HW217844   9.820   6.812   0.593
 2209SOL     OW17845   9.720   0.908   2.851
 2209SOL    HW117846   9.749   0.837   2.916
 2209SOL    HW217847   9.634   0.881   2.808
 2210SOL     OW17848   7.215   9.819   3.847
 2210SOL    HW117849   7.198   9.803   3.750
 2210SOL    HW217850   7.186   9.739   3.900
 2211SOL     OW17851   4.507   7.024   2.529
 2211SOL    HW117852   4.488   7.121   2.547
 2211SOL    HW217853   4.605   7.007   2.539
 2212SOL     OW17854   5.395   8.770   4.981
 2212SOL    HW117855   5.415   8.686   4.930
 2212SOL    HW217856   5.333   8.749   5.056
 2213SOL     OW17857   5.160   2.409   4.571
 2213SOL    HW117858   5.211   2.444   4.493
 2213SOL    HW217859   5.154   2.309   4.565
 2214SOL     OW17860   2.565   2.372   0.969
 2214SOL    HW117861   2.608   2.296   0.920
 2214SOL    HW217862   2.635   2.429   1.011
 2215SOL     OW17863   7.910   1.009   4.930
 2215SOL    HW117864   7.955   0.997   5.018
 2215SOL    HW217865   7.874   0.921   4.899
 2216SOL     OW17866   3.085   0.400   2.838
 2216SOL    HW117867   3.130   0.475   2.886
 2216SOL    HW217868   3.142   0.318   2.844
 2217SOL     OW17869   1.365   7.108   6.248
 2217SOL    HW117870   1.278   7.157   6.251
 2217SOL    HW217871   1.350   7.011   6.269
 2218SOL     OW17872   8.195   4.230   2.417
 2218SOL    HW117873   8.285   4.187   2.427
 2218SOL    HW217874   8.198   4.296   2.342
 2219SOL     OW17875   6.162   2.498   0.667
 2219SOL    HW117876   6.215   2.422   0.704
 2219SOL    HW217877   6.163   2.574   0.732
 2220SOL     OW17878   5.804   7.596   6.284
 2220SOL    HW117879   5.814   7.519   6.222
 2220SOL    HW217880   5.711   7.597   6.322
 2221SOL     OW17881   5.254   9.902   1.336
 2221SOL    HW117882   5.292   9.887   1.245
 2221SOL    HW217883   5.173   9.846   1.348
 2222SOL     OW17884   1.454   5.598   0.838
 2222SOL    HW117885   1.477   5.612   0.935
 2222SOL    HW217886   1.374   5.653   0.815
 2223SOL     OW17887   0.557   1.578   6.329
 2223SOL    HW117888   0.498   1.659   6.335
 2223SOL    HW217889   0.652   1.605   6.345
 2224SOL     OW17890   8.084   2.585   5.838
 2224SOL    HW117891   8.011   2.612   5.901
 2224SOL    HW217892   8.172   2.616   5.874
 2225SOL     OW17893   8.683   3.481   5.698
 2225SOL    HW117894   8.682   3.496   5.599
 2225SOL    HW217895   8.760   3.422   5.722
 2226SOL     OW17896   8.640   3.957   6.199
 2226SOL    HW117897   8.626   3.927   6.104
 2226SOL    HW217898   8.551   3.976   6.241
 2227SOL     OW17899   5.308   0.172   6.308
 2227SOL    HW117900   5.388   0.222   6.273
 2227SOL    HW217901   5.233   0.180   6.243
 2228SOL     OW17902   5.397   8.752   4.160
 2228SOL    HW117903   5.307   8.775   4.122
 2228SOL    HW217904   5.465   8.752   4.087
 2229SOL     OW17905   8.637   9.831   4.078
 2229SOL    HW117906   8.554   9.878   4.109
 2229SOL    HW217907   8.630   9.812   3.980
 2230SOL     OW17908   7.659   2.995   5.670
 2230SOL    HW117909   7.752   2.959   5.667
 2230SOL    HW217910   7.602   2.936   5.728
 2231SOL     OW17911   2.473   2.563   0.541
 2231SOL    HW117912   2.450   2.619   0.621
 2231SOL    HW217913   2.562   2.589   0.505
 2232SOL     OW17914   2.155   9.954   2.400
 2232SOL    HW117915   2.082   0.020   2.383
 2232SOL    HW217916   2.206   9.981   2.482
 2233SOL     OW17917   3.567   2.817   0.771
 2233SOL    HW117918   3.667   2.818   0.771
 2233SOL    HW217919   3.533   2.864   0.852
 2234SOL     OW17920   9.066   2.291   3.017
 2234SOL    HW117921   9.117   2.225   2.962
 2234SOL    HW217922   9.033   2.365   2.959
 2235SOL     OW17923   4.000   8.869   5.826
 2235SOL    HW117924   3.986   8.956   5.779
 2235SOL    HW217925   4.021   8.886   5.922
 2236SOL     OW17926   8.158   2.438   5.378
 2236SOL    HW117927   8.250   2.457   5.344
 2236SOL    HW217928   8.102   2.403   5.302
 2237SOL     OW17929   9.681   9.186   4.279
 2237SOL    HW117930   9.703   9.132   4.360
 2237SOL    HW217931   9.643   9.274   4.307
 2238SOL     OW17932   8.572   4.782   4.860
 2238SOL    HW117933   8.584   4.740   4.769
 2238SOL    HW217934   8.654   4.834   4.884
 2239SOL     OW17935   5.249   1.657   5.140
 2239SOL    HW117936   5.177   1.589   5.124
 2239SOL    HW217937   5.275   1.656   5.236
 2240SOL     OW17938   7.991   0.172   5.118
 2240SOL    HW117939   7.973   0.158   5.021
 2240SOL    HW217940   8.075   0.224   5.129
 2241SOL     OW17941   0.839   1.753   2.067
 2241SOL    HW117942   0.790   1.790   1.988
 2241SOL    HW217943   0.774   1.739   2.143
 2242SOL     OW17944   4.652   3.399   0.665
 2242SOL    HW117945   4.677   3.463   0.738
 2242SOL    HW217946   4.630   3.310   0.703
 2243SOL     OW17947   0.668   4.752   2.486
 2243SOL    HW117948   0.675   4.747   2.585
 2243SOL    HW217949   0.586   4.802   2.460
 2244SOL     OW17950   8.971   2.208   1.756
 2244SOL    HW117951   9.026   2.287   1.728
 2244SOL    HW217952   8.957   2.209   1.855
 2245SOL     OW17953   2.404   6.848   1.430
 2245SOL    HW117954   2.449   6.813   1.348
 2245SOL    HW217955   2.389   6.947   1.420
 2246SOL     OW17956   9.892   0.986   1.499
 2246SOL    HW117957   9.906   0.887   1.492
 2246SOL    HW217958   9.802   1.009   1.462
 2247SOL     OW17959   4.068   0.266   5.239
 2247SOL    HW117960   4.028   0.217   5.162
 2247SOL    HW217961   4.031   0.229   5.324
 2248SOL     OW17962   7.505   1.282   1.022
 2248SOL    HW117963   7.432   1.328   1.072
 2248SOL    HW217964   7.526   1.194   1.067
 2249SOL     OW17965   1.557   7.040   1.027
 2249SOL    HW117966   1.533   6.947   1.054
 2249SOL    HW217967   1.517   7.105   1.091
 2250SOL     OW17968   3.428   8.757   0.709
 2250SOL    HW117969   3.448   8.807   0.625
 2250SOL    HW217970   3.356   8.690   0.693
 2251SOL     OW17971   3.726   8.539   1.720
 2251SOL    HW117972   3.772   8.610   1.773
 2251SOL    HW217973   3.759   8.541   1.626
 2252SOL     OW17974   8.862   8.662   5.269
 2252SOL    HW117975   8.766   8.689   5.279
 2252SOL    HW217976   8.885   8.594   5.339
 2253SOL     OW17977   4.369   8.192   3.097
 2253SOL    HW117978   4.345   8.168   3.003
 2253SOL    HW217979   4.310   8.142   3.161
 2254SOL     OW17980   3.738   0.963   4.619
 2254SOL    HW117981   3.660   0.949   4.557
 2254SOL    HW217982   3.706   1.008   4.702
 2255SOL     OW17983   5.141   7.514   5.733
 2255SOL    HW117984   5.051   7.471   5.736
 2255SOL    HW217985   5.134   7.603   5.688
 2256SOL     OW17986   6.712   4.588   0.236
 2256SOL    HW117987   6.750   4.503   0.199
 2256SOL    HW217988   6.660   4.635   0.164
 2257SOL     OW17989   1.544   4.387   5.131
 2257SOL    HW117990   1.614   4.443   5.085
 2257SOL    HW217991   1.492   4.337   5.062
 2258SOL     OW17992   2.787   3.385   2.001
 2258SOL    HW117993   2.717   3.442   1.958
 2258SOL    HW217994   2.861   3.442   2.034
 2259SOL     OW17995   0.963   1.569   1.906
 2259SOL    HW117996   0.989   1.627   1.828
 2259SOL    HW217997   0.914   1.624   1.973
 2260SOL     OW17998   9.321   3.573   6.213
 2260SOL    HW117999   9.382   3.643   6.249
 2260SOL    HW218000   9.228   3.590   6.246
 2261SOL     OW18001   9.566   2.168   1.653
 2261SOL    HW118002   9.647   2.109   1.658
 2261SOL    HW218003   9.486   2.112   1.632
 2262SOL     OW18004   8.520   9.365   2.041
 2262SOL    HW118005   8.597   9.304   2.024
 2262SOL    HW218006   8.506   9.374   2.139
 2263SOL     OW18007   7.597   7.200   3.609
 2263SOL    HW118008   7.592   7.285   3.557
 2263SOL    HW218009   7.520   7.196   3.674
 2264SOL     OW18010   8.710   5.276   2.577
 2264SOL    HW118011   8.672   5.185   2.556
 2264SOL    HW218012   8.639   5.345   2.561
 2265SOL     OW18013   8.811   6.535   3.493
 2265SOL    HW118014   8.839   6.627   3.467
 2265SOL    HW218015   8.889   6.488   3.534
 2266SOL     OW18016   4.410   3.148   1.733
 2266SOL    HW118017   4.429   3.092   1.653
 2266SOL    HW218018   4.452   3.238   1.722
 2267SOL     OW18019   6.364   4.185   1.694
 2267SOL    HW118020   6.367   4.085   1.694
 2267SOL    HW218021   6.431   4.220   1.759
 2268SOL     OW18022   8.125   4.991   2.569
 2268SOL    HW118023   8.184   5.071   2.561
 2268SOL    HW218024   8.119   4.963   2.665
 2269SOL     OW18025   7.923   3.594   5.950
 2269SOL    HW118026   8.007   3.562   5.994
 2269SOL    HW218027   7.871   3.516   5.917
 2270SOL     OW18028   7.406   2.380   3.864
 2270SOL    HW118029   7.397   2.479   3.877
 2270SOL    HW218030   7.361   2.354   3.778
 2271SOL     OW18031   4.476   1.710   0.303
 2271SOL    HW118032   4.391   1.664   0.278
 2271SOL    HW218033   4.464   1.809   0.293
 2272SOL     OW18034   9.989   3.733   6.292
 2272SOL    HW118035   0.050   3.686   6.228
 2272SOL    HW218036   9.902   3.684   6.296
 2273SOL     OW18037   0.767   6.791   3.166
 2273SOL    HW118038   0.680   6.763   3.126
 2273SOL    HW218039   0.840   6.730   3.133
 2274SOL     OW18040   6.710   1.752   2.938
 2274SOL    HW118041   6.723   1.670   2.993
 2274SOL    HW218042   6.746   1.736   2.846
 2275SOL     OW18043   9.111   9.135   4.420
 2275SOL    HW118044   9.068   9.133   4.510
 2275SOL    HW218045   9.207   9.107   4.428
 2276SOL     OW18046   3.324   1.047   4.125
 2276SOL    HW118047   3.260   0.972   4.141
 2276SOL    HW218048   3.308   1.085   4.034
 2277SOL     OW18049   8.626   5.964   4.258
 2277SOL    HW118050   8.599   5.890   4.196
 2277SOL    HW218051   8.588   5.947   4.349
 2278SOL     OW18052   2.922   2.280   5.365
 2278SOL    HW118053   2.955   2.211   5.429
 2278SOL    HW218054   2.853   2.240   5.305
 2279SOL     OW18055   9.145   9.888   0.586
 2279SOL    HW118056   9.096   9.817   0.536
 2279SOL    HW218057   9.238   9.897   0.550
 2280SOL     OW18058   2.665   4.985   5.563
 2280SOL    HW118059   2.674   4.896   5.607
 2280SOL    HW218060   2.727   4.989   5.485
 2281SOL     OW18061   7.282   1.780   3.627
 2281SOL    HW118062   7.273   1.856   3.692
 2281SOL    HW218063   7.375   1.780   3.589
 2282SOL     OW18064   5.011   9.573   5.705
 2282SOL    HW118065   5.010   9.672   5.688
 2282SOL    HW218066   5.030   9.557   5.802
 2283SOL     OW18067   1.782   6.863   0.692
 2283SOL    HW118068   1.811   6.911   0.609
 2283SOL    HW218069   1.732   6.780   0.668
 2284SOL     OW18070   2.030   1.200   5.672
 2284SOL    HW118071   2.008   1.292   5.705
 2284SOL    HW218072   2.069   1.206   5.580
 2285SOL     OW18073   7.575   9.858   4.998
 2285SOL    HW118074   7.546   9.772   4.957
 2285SOL    HW218075   7.542   9.934   4.942
 2286SOL     OW18076   7.610   4.564   2.499
 2286SOL    HW118077   7.573   4.657   2.493
 2286SOL    HW218078   7.709   4.568   2.493
 2287SOL     OW18079   0.857   0.999   3.523
 2287SOL    HW118080   0.876   1.021   3.427
 2287SOL    HW218081   0.942   1.000   3.575
 2288SOL     OW18082   0.001   0.728   5.212
 2288SOL    HW118083   9.941   0.751   5.136
 2288SOL    HW218084   9.952   0.670   5.277
 2289SOL     OW18085   2.715   1.821   4.569
 2289SOL    HW118086   2.803   1.821   4.521
 2289SOL    HW218087   2.657   1.749   4.532
 2290SOL     OW18088   0.358   8.951   6.060
 2290SOL    HW118089   0.335   9.030   6.116
 2290SOL    HW218090   0.302   8.873   6.087
 2291SOL     OW18091   3.486   3.256   6.165
 2291SOL    HW118092   3.582   3.277   6.148
 2291SOL    HW218093   3.434   3.341   6.174
 2292SOL     OW18094   5.006   2.110   5.844
 2292SOL    HW118095   5.081   2.047   5.863
 2292SOL    HW218096   4.946   2.070   5.775
 2293SOL     OW18097   2.518   4.157   5.555
 2293SOL    HW118098   2.510   4.140   5.653
 2293SOL    HW218099   2.485   4.077   5.505
 2294SOL     OW18100   0.498   2.053   1.578
 2294SOL    HW118101   0.573   2.000   1.538
 2294SOL    HW218102   0.492   2.142   1.533
 2295SOL     OW18103   8.357   4.443   0.977
 2295SOL    HW118104   8.430   4.397   1.028
 2295SOL    HW218105   8.276   4.451   1.035
 2296SOL     OW18106   8.222   0.540   0.325
 2296SOL    HW118107   8.316   0.505   0.323
 2296SOL    HW218108   8.163   0.472   0.369
 2297SOL     OW18109   9.129   9.265   1.074
 2297SOL    HW118110   9.214   9.317   1.067
 2297SOL    HW218111   9.057   9.311   1.022
 2298SOL     OW18112   8.449   6.357   0.403
 2298SOL    HW118113   8.522   6.350   0.470
 2298SOL    HW218114   8.367   6.395   0.446
 2299SOL     OW18115   3.715   1.169   5.090
 2299SOL    HW118116   3.781   1.242   5.078
 2299SOL    HW218117   3.643   1.198   5.153
 2300SOL     OW18118   1.287   8.642   1.569
 2300SOL    HW118119   1.322   8.688   1.487
 2300SOL    HW218120   1.298   8.543   1.559
 2301SOL     OW18121   8.665   9.887   5.451
 2301SOL    HW118122   8.598   9.859   5.382
 2301SOL    HW218123   8.617   9.909   5.536
 2302SOL     OW18124   4.278   5.305   0.472
 2302SOL    HW118125   4.329   5.314   0.557
 2302SOL    HW218126   4.326   5.354   0.399
 2303SOL     OW18127   9.224   2.933   3.898
 2303SOL    HW118128   9.259   2.888   3.980
 2303SOL    HW218129   9.289   2.920   3.823
 2304SOL     OW18130   8.102   8.925   3.259
 2304SOL    HW118131   8.120   8.985   3.181
 2304SOL    HW218132   8.133   8.970   3.343
 2305SOL     OW18133   8.631   9.487   5.434
 2305SOL    HW118134   8.659   9.392   5.423
 2305SOL    HW218135   8.605   9.524   5.345
 2306SOL     OW18136   0.002   2.948   6.341
 2306SOL    HW118137   0.033   2.905   6.256
 2306SOL    HW218138   0.045   3.038   6.350
 2307SOL     OW18139   3.662   9.502   0.782
 2307SOL    HW118140   3.743   9.561   0.780
 2307SOL    HW218141   3.682   9.415   0.737
 2308SOL     OW18142   6.268   8.079   3.159
 2308SOL    HW118143   6.252   7.982   3.141
 2308SOL    HW218144   6.190   8.132   3.125
 2309SOL     OW18145   0.978   7.473   5.663
 2309SOL    HW118146   0.894   7.418   5.663
 2309SOL    HW218147   0.953   7.570   5.667
 2310SOL     OW18148   1.317   8.871   2.919
 2310SOL    HW118149   1.219   8.878   2.899
 2310SOL    HW218150   1.361   8.958   2.896
 2311SOL     OW18151   9.512   7.685   5.340
 2311SOL    HW118152   9.481   7.719   5.429
 2311SOL    HW218153   9.593   7.628   5.353
 2312SOL     OW18154   9.579   8.192   3.053
 2312SOL    HW118155   9.611   8.228   3.141
 2312SOL    HW218156   9.503   8.129   3.068
 2313SOL     OW18157   8.595   2.813   6.198
 2313SOL    HW118158   8.593   2.790   6.101
 2313SOL    HW218159   8.690   2.826   6.227
 2314SOL     OW18160   9.477   6.200   3.017
 2314SOL    HW118161   9.458   6.144   3.098
 2314SOL    HW218162   9.397   6.201   2.957
 2315SOL     OW18163   7.594   9.653   0.221
 2315SOL    HW118164   7.654   9.731   0.239
 2315SOL    HW218165   7.625   9.574   0.273
 2316SOL     OW18166   3.886   2.726   5.958
 2316SOL    HW118167   3.840   2.755   6.042
 2316SOL    HW218168   3.870   2.793   5.886
 2317SOL     OW18169   7.473   7.725   4.109
 2317SOL    HW118170   7.383   7.716   4.152
 2317SOL    HW218171   7.516   7.635   4.104
 2318SOL     OW18172   9.240   1.696   2.728
 2318SOL    HW118173   9.293   1.767   2.773
 2318SOL    HW218174   9.242   1.709   2.629
 2319SOL     OW18175   6.175   6.289   1.107
 2319SOL    HW118176   6.113   6.345   1.052
 2319SOL    HW218177   6.240   6.243   1.046
 2320SOL     OW18178   9.425   6.910   2.482
 2320SOL    HW118179   9.438   6.853   2.563
 2320SOL    HW218180   9.360   6.866   2.420
 2321SOL     OW18181   4.382   2.295   2.517
 2321SOL    HW118182   4.440   2.259   2.443
 2321SOL    HW218183   4.435   2.357   2.574
 2322SOL     OW18184   9.106   7.370   4.857
 2322SOL    HW118185   9.156   7.446   4.899
 2322SOL    HW218186   9.032   7.405   4.801
 2323SOL     OW18187   3.284   3.435   0.593
 2323SOL    HW118188   3.208   3.421   0.529
 2323SOL    HW218189   3.341   3.354   0.595
 2324SOL     OW18190   3.516   2.686   1.080
 2324SOL    HW118191   3.614   2.693   1.096
 2324SOL    HW218192   3.482   2.771   1.041
 2325SOL     OW18193   2.419   7.287   4.315
 2325SOL    HW118194   2.484   7.331   4.253
 2325SOL    HW218195   2.429   7.326   4.406
 2326SOL     OW18196   2.835   4.561   2.630
 2326SOL    HW118197   2.798   4.640   2.582
 2326SOL    HW218198   2.788   4.549   2.717
 2327SOL     OW18199   3.088   4.226   2.417
 2327SOL    HW118200   3.162   4.177   2.462
 2327SOL    HW218201   3.095   4.215   2.318
 2328SOL     OW18202   8.217   7.686   2.210
 2328SOL    HW118203   8.177   7.693   2.119
 2328SOL    HW218204   8.258   7.596   2.222
 2329SOL     OW18205   4.621   2.113   5.319
 2329SOL    HW118206   4.629   2.122   5.220
 2329SOL    HW218207   4.530   2.144   5.348
 2330SOL     OW18208   4.203   3.321   2.044
 2330SOL    HW118209   4.128   3.311   2.110
 2330SOL    HW218210   4.219   3.232   1.999
 2331SOL     OW18211   3.537   5.685   4.981
 2331SOL    HW118212   3.559   5.722   4.891
 2331SOL    HW218213   3.590   5.732   5.051
 2332SOL     OW18214   5.336   0.493   2.862
 2332SOL    HW118215   5.247   0.456   2.835
 2332SOL    HW218216   5.323   0.573   2.920
 2333SOL     OW18217   1.158   2.078   5.184
 2333SOL    HW118218   1.250   2.090   5.146
 2333SOL    HW218219   1.095   2.051   5.112
 2334SOL     OW18220   2.736   4.223   1.884
 2334SOL    HW118221   2.639   4.203   1.868
 2334SOL    HW218222   2.766   4.295   1.821
 2335SOL     OW18223   4.457   3.953   3.332
 2335SOL    HW118224   4.480   3.901   3.414
 2335SOL    HW218225   4.401   3.897   3.271
 2336SOL     OW18226   8.856   8.891   3.128
 2336SOL    HW118227   8.820   8.984   3.129
 2336SOL    HW218228   8.780   8.826   3.130
 2337SOL     OW18229   4.224   8.996   5.519
 2337SOL    HW118230   4.272   8.919   5.477
 2337SOL    HW218231   4.131   9.002   5.481
 2338SOL     OW18232   2.160   0.891   1.632
 2338SOL    HW118233   2.174   0.793   1.620
 2338SOL    HW218234   2.174   0.915   1.728
 2339SOL     OW18235   1.914   6.127   1.439
 2339SOL    HW118236   1.955   6.187   1.370
 2339SOL    HW218237   1.851   6.063   1.394
 2340SOL     OW18238   3.829   7.373   1.940
 2340SOL    HW118239   3.890   7.409   2.011
 2340SOL    HW218240   3.810   7.445   1.873
 2341SOL     OW18241   1.498   3.568   1.526
 2341SOL    HW118242   1.491   3.615   1.614
 2341SOL    HW218243   1.425   3.500   1.519
 2342SOL     OW18244   1.373   1.942   4.850
 2342SOL    HW118245   1.303   1.941   4.779
 2342SOL    HW218246   1.441   1.871   4.831
 2343SOL     OW18247   9.820   9.358   2.917
 2343SOL    HW118248   9.773   9.339   2.830
 2343SOL    HW218249   9.911   9.316   2.915
 2344SOL     OW18250   8.920   9.004   0.130
 2344SOL    HW118251   8.885   8.913   0.153
 2344SOL    HW218252   8.844   9.066   0.114
 2345SOL     OW18253   2.785   7.324   0.779
 2345SOL    HW118254   2.749   7.230   0.787
 2345SOL    HW218255   2.871   7.331   0.830
 2346SOL     OW18256   4.197   0.791   2.239
 2346SOL    HW118257   4.228   0.879   2.202
 2346SOL    HW218258   4.194   0.723   2.165
 2347SOL     OW18259   7.223   9.130   3.740
 2347SOL    HW118260   7.256   9.208   3.686
 2347SOL    HW218261   7.236   9.148   3.837
 2348SOL     OW18262   2.275   8.471   2.425
 2348SOL    HW118263   2.208   8.516   2.485
 2348SOL    HW218264   2.230   8.441   2.341
 2349SOL     OW18265   3.902   3.903   0.392
 2349SOL    HW118266   3.930   3.975   0.327
 2349SOL    HW218267   3.841   3.943   0.461
 2350SOL     OW18268   7.697   4.821   2.086
 2350SOL    HW118269   7.686   4.821   2.185
 2350SOL    HW218270   7.628   4.881   2.045
 2351SOL     OW18271   8.546   7.258   2.423
 2351SOL    HW118272   8.578   7.284   2.332
 2351SOL    HW218273   8.468   7.315   2.448
 2352SOL     OW18274   8.300   9.124   4.673
 2352SOL    HW118275   8.295   9.055   4.601
 2352SOL    HW218276   8.210   9.164   4.687
 2353SOL     OW18277   5.438   9.462   6.017
 2353SOL    HW118278   5.464   9.434   5.925
 2353SOL    HW218279   5.414   9.559   6.017
 2354SOL     OW18280   2.861   9.080   4.790
 2354SOL    HW118281   2.902   9.171   4.785
 2354SOL    HW218282   2.800   9.067   4.712
 2355SOL     OW18283   1.749   7.999   1.539
 2355SOL    HW118284   1.802   7.989   1.454
 2355SOL    HW218285   1.773   7.926   1.602
 2356SOL     OW18286   0.645   1.329   3.152
 2356SOL    HW118287   0.590   1.378   3.219
 2356SOL    HW218288   0.655   1.384   3.069
 2357SOL     OW18289   1.165   1.470   1.529
 2357SOL    HW118290   1.073   1.508   1.534
 2357SOL    HW218291   1.197   1.471   1.434
 2358SOL     OW18292   9.090   0.321   5.767
 2358SOL    HW118293   9.174   0.376   5.764
 2358SOL    HW218294   9.105   0.242   5.826
 2359SOL     OW18295   2.124   3.434   1.252
 2359SOL    HW118296   2.026   3.414   1.258
 2359SOL    HW218297   2.168   3.412   1.339
 2360SOL     OW18298   2.063   8.222   0.416
 2360SOL    HW118299   2.081   8.207   0.513
 2360SOL    HW218300   2.059   8.134   0.369
 2361SOL     OW18301   2.830   5.086   1.673
 2361SOL    HW118302   2.908   5.146   1.655
 2361SOL    HW218303   2.748   5.142   1.688
 2362SOL     OW18304   9.753   3.895   4.934
 2362SOL    HW118305   9.837   3.891   4.880
 2362SOL    HW218306   9.770   3.946   5.018
 2363SOL     OW18307   5.167   9.054   4.634
 2363SOL    HW118308   5.206   9.144   4.653
 2363SOL    HW218309   5.091   9.064   4.570
 2364SOL     OW18310   2.208   1.393   6.049
 2364SOL    HW118311   2.239   1.351   5.963
 2364SOL    HW218312   2.190   1.490   6.033
 2365SOL     OW18313   4.265   0.588   3.010
 2365SOL    HW118314   4.261   0.490   2.991
 2365SOL    HW218315   4.178   0.617   3.049
 2366SOL     OW18316   6.924   8.230   2.797
 2366SOL    HW118317   6.860   8.295   2.756
 2366SOL    HW218318   7.015   8.244   2.759
 2367SOL     OW18319   8.665   9.093   6.303
 2367SOL    HW118320   8.659   9.189   6.273
 2367SOL    HW218321   8.718   9.041   6.237
 2368SOL     OW18322   0.002   0.100   5.920
 2368SOL    HW118323   9.972   0.191   5.892
 2368SOL    HW218324   9.990   0.090   6.019
 2369SOL     OW18325   1.125   9.341   5.229
 2369SOL    HW118326   1.057   9.316   5.297
 2369SOL    HW218327   1.120   9.439   5.210
 2370SOL     OW18328   8.394   9.874   3.440
 2370SOL    HW118329   8.357   9.790   3.400
 2370SOL    HW218330   8.382   9.872   3.539
 2371SOL     OW18331   1.801   6.222   0.312
 2371SOL    HW118332   1.720   6.279   0.305
 2371SOL    HW218333   1.793   6.162   0.391
 2372SOL     OW18334   4.109   5.117   2.777
 2372SOL    HW118335   4.120   5.106   2.876
 2372SOL    HW218336   4.193   5.088   2.731
 2373SOL     OW18337   3.964   8.063   5.849
 2373SOL    HW118338   3.994   8.083   5.942
 2373SOL    HW218339   3.873   8.022   5.851
 2374SOL     OW18340   8.429   3.369   3.696
 2374SOL    HW118341   8.426   3.469   3.698
 2374SOL    HW218342   8.340   3.332   3.723
 2375SOL     OW18343   1.547   3.873   5.235
 2375SOL    HW118344   1.532   3.812   5.313
 2375SOL    HW218345   1.517   3.828   5.151
 2376SOL     OW18346   3.398   1.810   1.625
 2376SOL    HW118347   3.388   1.774   1.532
 2376SOL    HW218348   3.368   1.740   1.690
 2377SOL     OW18349   0.644   3.173   2.397
 2377SOL    HW118350   0.580   3.123   2.338
 2377SOL    HW218351   0.669   3.116   2.475
 2378SOL     OW18352   8.865   0.732   2.187
 2378SOL    HW118353   8.946   0.711   2.241
 2378SOL    HW218354   8.877   0.821   2.142
 2379SOL     OW18355   8.138   6.781   5.549
 2379SOL    HW118356   8.197   6.701   5.561
 2379SOL    HW218357   8.043   6.751   5.539
 2380SOL     OW18358   9.500   2.142   2.343
 2380SOL    HW118359   9.535   2.154   2.436
 2380SOL    HW218360   9.542   2.211   2.283
 2381SOL     OW18361   4.924   9.675   3.017
 2381SOL    HW118362   4.904   9.579   3.000
 2381SOL    HW218363   4.838   9.725   3.028
 2382SOL     OW18364   9.704   6.410   4.722
 2382SOL    HW118365   9.725   6.458   4.807
 2382SOL    HW218366   9.608   6.382   4.722
 2383SOL     OW18367   4.314   3.968   4.695
 2383SOL    HW118368   4.354   4.030   4.629
 2383SOL    HW218369   4.387   3.925   4.749
 2384SOL     OW18370   1.650   7.557   1.688
 2384SOL    HW118371   1.568   7.538   1.634
 2384SOL    HW218372   1.711   7.478   1.685
 2385SOL     OW18373   0.387   2.994   5.877
 2385SOL    HW118374   0.336   2.951   5.802
 2385SOL    HW218375   0.478   3.020   5.844
 2386SOL     OW18376   0.569   4.421   3.035
 2386SOL    HW118377   0.624   4.357   3.089
 2386SOL    HW218378   0.575   4.395   2.938
 2387SOL     OW18379   2.986   5.835   1.045
 2387SOL    HW118380   3.045   5.894   0.991
 2387SOL    HW218381   2.959   5.755   0.990
 2388SOL     OW18382   2.516   6.895   2.033
 2388SOL    HW118383   2.507   6.888   1.934
 2388SOL    HW218384   2.586   6.963   2.056
 2389SOL     OW18385   1.695   9.294   4.234
 2389SOL    HW118386   1.666   9.205   4.269
 2389SOL    HW218387   1.616   9.353   4.222
 2390SOL     OW18388   9.339   0.587   0.452
 2390SOL    HW118389   9.245   0.621   0.450
 2390SOL    HW218390   9.352   0.532   0.535
 2391SOL     OW18391   3.292   1.618   1.786
 2391SOL    HW118392   3.322   1.523   1.790
 2391SOL    HW218393   3.213   1.626   1.726
 2392SOL     OW18394   8.813   2.216   1.510
 2392SOL    HW118395   8.876   2.205   1.588
 2392SOL    HW218396   8.719   2.209   1.543
 2393SOL     OW18397   0.741   2.555   5.770
 2393SOL    HW118398   0.672   2.625   5.753
 2393SOL    HW218399   0.764   2.509   5.685
 2394SOL     OW18400   8.538   1.915   1.618
 2394SOL    HW118401   8.502   1.846   1.554
 2394SOL    HW218402   8.635   1.898   1.633
 2395SOL     OW18403   7.831   2.782   1.623
 2395SOL    HW118404   7.848   2.877   1.651
 2395SOL    HW218405   7.829   2.723   1.703
 2396SOL     OW18406   3.049   2.029   1.416
 2396SOL    HW118407   3.070   2.126   1.426
 2396SOL    HW218408   2.951   2.014   1.429
 2397SOL     OW18409   0.937   1.401   4.398
 2397SOL    HW118410   0.901   1.313   4.367
 2397SOL    HW218411   0.864   1.454   4.440
 2398SOL     OW18412   1.158   0.724   2.200
 2398SOL    HW118413   1.140   0.710   2.298
 2398SOL    HW218414   1.086   0.781   2.161
 2399SOL     OW18415   2.202   4.469   3.543
 2399SOL    HW118416   2.179   4.492   3.638
 2399SOL    HW218417   2.119   4.470   3.487
 2400SOL     OW18418   0.002   8.065   1.479
 2400SOL    HW118419   9.968   8.159   1.486
 2400SOL    HW218420   0.061   8.057   1.399
 2401SOL     OW18421   0.942   8.043   5.113
 2401SOL    HW118422   0.925   8.031   5.015
 2401SOL    HW218423   0.901   8.129   5.143
 2402SOL     OW18424   9.137   6.019   5.160
 2402SOL    HW118425   9.168   5.926   5.183
 2402SOL    HW218426   9.106   6.065   5.243
 2403SOL     OW18427   1.900   2.319   1.450
 2403SOL    HW118428   1.947   2.231   1.459
 2403SOL    HW218429   1.968   2.392   1.446
 2404SOL     OW18430   0.997   3.885   5.361
 2404SOL    HW118431   1.081   3.895   5.414
 2404SOL    HW218432   0.940   3.967   5.373
 2405SOL     OW18433   7.450   6.016   1.831
 2405SOL    HW118434   7.472   5.944   1.897
 2405SOL    HW218435   7.398   5.977   1.755
 2406SOL     OW18436   3.488   6.369   4.591
 2406SOL    HW118437   3.525   6.294   4.647
 2406SOL    HW218438   3.420   6.420   4.643
 2407SOL     OW18439   7.080   6.595   6.073
 2407SOL    HW118440   7.025   6.512   6.068
 2407SOL    HW218441   7.149   6.593   6.000
 2408SOL     OW18442   5.309   7.710   5.022
 2408SOL    HW118443   5.301   7.710   5.122
 2408SOL    HW218444   5.395   7.665   4.996
 2409SOL     OW18445   2.047   2.831   1.164
 2409SOL    HW118446   1.979   2.770   1.123
 2409SOL    HW218447   2.038   2.922   1.123
 2410SOL     OW18448   8.904   7.022   0.552
 2410SOL    HW118449   8.918   6.925   0.572
 2410SOL    HW218450   8.842   7.032   0.474
 2411SOL     OW18451   1.030   9.691   2.238
 2411SOL    HW118452   0.961   9.622   2.257
 2411SOL    HW218453   1.119   9.648   2.226
 2412SOL     OW18454   7.461   2.245   2.423
 2412SOL    HW118455   7.368   2.230   2.454
 2412SOL    HW218456   7.509   2.157   2.419
 2413SOL     OW18457   3.586   0.852   2.066
 2413SOL    HW118458   3.499   0.894   2.090
 2413SOL    HW218459   3.578   0.753   2.073
 2414SOL     OW18460   4.660   2.851   5.596
 2414SOL    HW118461   4.621   2.942   5.607
 2414SOL    HW218462   4.589   2.787   5.566
 2415SOL     OW18463   5.829   1.299   5.169
 2415SOL    HW118464   5.770   1.371   5.131
 2415SOL    HW218465   5.915   1.340   5.198
 2416SOL     OW18466   9.241   5.817   1.097
 2416SOL    HW118467   9.224   5.885   1.026
 2416SOL    HW218468   9.254   5.727   1.055
 2417SOL     OW18469   2.599   9.262   3.297
 2417SOL    HW118470   2.674   9.312   3.341
 2417SOL    HW218471   2.596   9.168   3.331
 2418SOL     OW18472   9.531   8.287   0.722
 2418SOL    HW118473   9.529   8.279   0.622
 2418SOL    HW218474   9.469   8.220   0.762
 2419SOL     OW18475   9.241   3.695   3.655
 2419SOL    HW118476   9.185   3.613   3.672
 2419SOL    HW218477   9.327   3.687   3.705
 2420SOL     OW18478   0.822   0.311   5.653
 2420SOL    HW118479   0.724   0.308   5.632
 2420SOL    HW218480   0.836   0.289   5.750
 2421SOL     OW18481   6.003   0.746   6.357
 2421SOL    HW118482   6.039   0.702   6.439
 2421SOL    HW218483   5.923   0.695   6.324
 2422SOL     OW18484   0.129   8.946   3.035
 2422SOL    HW118485   0.084   8.906   2.955
 2422SOL    HW218486   0.189   9.020   3.006
 2423SOL     OW18487   7.800   5.228   5.899
 2423SOL    HW118488   7.770   5.155   5.961
 2423SOL    HW218489   7.877   5.277   5.940
 2424SOL     OW18490   8.891   5.430   2.715
 2424SOL    HW118491   8.979   5.382   2.726
 2424SOL    HW218492   8.827   5.371   2.665
 2425SOL     OW18493   8.503   5.925   4.496
 2425SOL    HW118494   8.513   5.950   4.593
 2425SOL    HW218495   8.448   5.842   4.488
 2426SOL     OW18496   2.663   5.749   1.239
 2426SOL    HW118497   2.733   5.684   1.269
 2426SOL    HW218498   2.704   5.838   1.223
 2427SOL     OW18499   1.708   0.011   0.425
 2427SOL    HW118500   1.764   0.088   0.453
 2427SOL    HW218501   1.718   9.996   0.327
 2428SOL     OW18502   2.837   0.611   2.571
 2428SOL    HW118503   2.827   0.707   2.597
 2428SOL    HW218504   2.917   0.600   2.512
 2429SOL     OW18505   1.192   3.668   0.987
 2429SOL    HW118506   1.207   3.766   0.973
 2429SOL    HW218507   1.275   3.627   1.025
 2430SOL     OW18508   0.148   8.112   5.089
 2430SOL    HW118509   0.161   8.034   5.150
 2430SOL    HW218510   0.082   8.175   5.130
 2431SOL     OW18511   2.997   1.119   1.584
 2431SOL    HW118512   2.971   1.132   1.489
 2431SOL    HW218513   2.915   1.120   1.642
 2432SOL     OW18514   0.698   0.364   5.081
 2432SOL    HW118515   0.690   0.396   5.176
 2432SOL    HW218516   0.794   0.356   5.057
 2433SOL     OW18517   0.033   5.646   0.199
 2433SOL    HW118518   9.973   5.582   0.247
 2433SOL    HW218519   0.119   5.599   0.176
 2434SOL     OW18520   6.967   2.698   0.373
 2434SOL    HW118521   6.938   2.635   0.302
 2434SOL    HW218522   6.947   2.659   0.463
 2435SOL     OW18523   3.311   2.724   2.640
 2435SOL    HW118524   3.362   2.810   2.644
 2435SOL    HW218525   3.223   2.740   2.595
 2436SOL     OW18526   7.805   1.741   0.028
 2436SOL    HW118527   7.741   1.757   0.103
 2436SOL    HW218528   7.893   1.710   0.065
 2437SOL     OW18529   8.994   7.119   5.675
 2437SOL    HW118530   8.934   7.103   5.596
 2437SOL    HW218531   9.003   7.218   5.690
 2438SOL     OW18532   8.679   4.713   2.313
 2438SOL    HW118533   8.583   4.691   2.293
 2438SOL    HW218534   8.703   4.799   2.269
 2439SOL     OW18535   3.309   2.210   2.474
 2439SOL    HW118536   3.275   2.133   2.421
 2439SOL    HW218537   3.409   2.204   2.481
 2440SOL     OW18538   3.848   9.991   3.057
 2440SOL    HW118539   3.826   9.903   3.098
 2440SOL    HW218540   3.770   0.022   3.001
 2441SOL     OW18541   8.994   1.148   1.843
 2441SOL    HW118542   8.982   1.243   1.873
 2441SOL    HW218543   8.949   1.135   1.755
 2442SOL     OW18544   4.671   7.569   2.913
 2442SOL    HW118545   4.710   7.556   2.822
 2442SOL    HW218546   4.605   7.644   2.911
 2443SOL     OW18547   4.650   3.466   4.955
 2443SOL    HW118548   4.702   3.475   5.040
 2443SOL    HW218549   4.555   3.492   4.972
 2444SOL     OW18550   1.747   0.802   6.323
 2444SOL    HW118551   1.737   0.742   6.402
 2444SOL    HW218552   1.747   0.748   6.239
 2445SOL     OW18553   8.369   0.514   5.602
 2445SOL    HW118554   8.330   0.510   5.510
 2445SOL    HW218555   8.373   0.422   5.641
 2446SOL     OW18556   1.306   8.214   3.631
 2446SOL    HW118557   1.275   8.265   3.550
 2446SOL    HW218558   1.370   8.143   3.603
 2447SOL     OW18559   9.166   8.002   3.939
 2447SOL    HW118560   9.170   8.038   4.032
 2447SOL    HW218561   9.239   8.042   3.884
 2448SOL     OW18562   6.863   3.737   2.081
 2448SOL    HW118563   6.819   3.666   2.135
 2448SOL    HW218564   6.805   3.818   2.077
 2449SOL     OW18565   0.030   9.347   1.417
 2449SOL    HW118566   9.981   9.430   1.445
 2449SOL    HW218567   9.968   9.269   1.425
 2450SOL     OW18568   3.314   3.669   5.967
 2450SOL    HW118569   3.339   3.729   5.890
 2450SOL    HW218570   3.247   3.602   5.936
 2451SOL     OW18571   8.833   5.664   1.236
 2451SOL    HW118572   8.902   5.736   1.247
 2451SOL    HW218573   8.821   5.643   1.139
 2452SOL     OW18574   7.709   4.323   4.183
 2452SOL    HW118575   7.767   4.330   4.102
 2452SOL    HW218576   7.765   4.330   4.265
 2453SOL     OW18577   1.454   5.374   1.361
 2453SOL    HW118578   1.429   5.292   1.310
 2453SOL    HW218579   1.546   5.403   1.334
 2454SOL     OW18580   9.464   9.628   0.966
 2454SOL    HW118581   9.406   9.699   1.007
 2454SOL    HW218582   9.554   9.630   1.010
 2455SOL     OW18583   0.407   1.406   2.913
 2455SOL    HW118584   0.372   1.455   2.834
 2455SOL    HW218585   0.345   1.418   2.991
 2456SOL     OW18586   7.557   1.798   3.579
 2456SOL    HW118587   7.592   1.880   3.624
 2456SOL    HW218588   7.588   1.796   3.484
 2457SOL     OW18589   0.989   3.807   2.139
 2457SOL    HW118590   1.037   3.878   2.089
 2457SOL    HW218591   1.047   3.726   2.148
 2458SOL     OW18592   6.801   2.321   0.399
 2458SOL    HW118593   6.817   2.378   0.481
 2458SOL    HW218594   6.704   2.303   0.390
 2459SOL     OW18595   0.622   7.140   1.539
 2459SOL    HW118596   0.562   7.151   1.460
 2459SOL    HW218597   0.613   7.218   1.600
 2460SOL     OW18598   9.385   2.790   1.133
 2460SOL    HW118599   9.448   2.740   1.073
 2460SOL    HW218600   9.373   2.883   1.098
 2461SOL     OW18601   9.803   3.316   4.014
 2461SOL    HW118602   9.817   3.242   3.948
 2461SOL    HW218603   9.721   3.367   3.990
 2462SOL     OW18604   8.617   2.936   4.202
 2462SOL    HW118605   8.578   2.999   4.135
 2462SOL    HW218606   8.575   2.953   4.292
 2463SOL     OW18607   2.005   5.201   4.215
 2463SOL    HW118608   2.103   5.205   4.231
 2463SOL    HW218609   1.983   5.247   4.129
 2464SOL     OW18610   1.100   6.974   2.362
 2464SOL    HW118611   1.200   6.979   2.374
 2464SOL    HW218612   1.066   6.892   2.407
 2465SOL     OW18613   9.778   7.060   2.245
 2465SOL    HW118614   9.786   6.962   2.261
 2465SOL    HW218615   9.696   7.095   2.290
 2466SOL     OW18616   6.259   1.324   1.378
 2466SOL    HW118617   6.335   1.282   1.327
 2466SOL    HW218618   6.257   1.288   1.471
 2467SOL     OW18619   0.343   0.444   6.166
 2467SOL    HW118620   0.408   0.511   6.203
 2467SOL    HW218621   0.254   0.488   6.154
 2468SOL     OW18622   2.735   3.274   3.060
 2468SOL    HW118623   2.822   3.249   3.102
 2468SOL    HW218624   2.695   3.351   3.111
 2469SOL     OW18625   2.566   9.668   4.135
 2469SOL    HW118626   2.518   9.580   4.136
 2469SOL    HW218627   2.613   9.681   4.223
 2470SOL     OW18628   8.219   1.529   6.394
 2470SOL    HW118629   8.174   1.440   6.398
 2470SOL    HW218630   8.162   1.593   6.342
 2471SOL     OW18631   9.052   5.325   6.258
 2471SOL    HW118632   8.960   5.292   6.280
 2471SOL    HW218633   9.047   5.417   6.219
 2472SOL     OW18634   9.616   0.584   4.434
 2472SOL    HW118635   9.640   0.596   4.530
 2472SOL    HW218636   9.656   0.658   4.380
 2473SOL     OW18637   4.546   9.182   5.661
 2473SOL    HW118638   4.565   9.084   5.654
 2473SOL    HW218639   4.447   9.198   5.653
 2474SOL     OW18640   2.625   8.163   4.288
 2474SOL    HW118641   2.630   8.201   4.381
 2474SOL    HW218642   2.546   8.102   4.281
 2475SOL     OW18643   6.384   1.351   2.352
 2475SOL    HW118644   6.352   1.347   2.446
 2475SOL    HW218645   6.357   1.267   2.304
 2476SOL     OW18646   1.612   0.175   4.315
 2476SOL    HW118647   1.586   0.098   4.256
 2476SOL    HW218648   1.710   0.171   4.334
 2477SOL     OW18649   7.397   4.696   3.072
 2477SOL    HW118650   7.374   4.627   3.004
 2477SOL    HW218651   7.314   4.739   3.106
 2478SOL     OW18652   0.895   6.838   0.375
 2478SOL    HW118653   0.918   6.748   0.341
 2478SOL    HW218654   0.961   6.865   0.446
 2479SOL     OW18655   5.690   2.471   3.832
 2479SOL    HW118656   5.626   2.398   3.859
 2479SOL    HW218657   5.706   2.465   3.733
 2480SOL     OW18658   1.543   0.428   3.599
 2480SOL    HW118659   1.453   0.402   3.562
 2480SOL    HW218660   1.597   0.471   3.527
 2481SOL     OW18661   7.550   0.746   4.966
 2481SOL    HW118662   7.468   0.780   4.921
 2481SOL    HW218663   7.539   0.648   4.986
 2482SOL     OW18664   2.677   2.619   4.362
 2482SOL    HW118665   2.771   2.627   4.328
 2482SOL    HW218666   2.635   2.535   4.327
 2483SOL     OW18667   6.330   2.247   3.313
 2483SOL    HW118668   6.398   2.312   3.279
 2483SOL    HW218669   6.345   2.230   3.411
 2484SOL     OW18670   1.407   1.986   1.862
 2484SOL    HW118671   1.341   1.925   1.905
 2484SOL    HW218672   1.422   1.958   1.767
 2485SOL     OW18673   5.799   0.686   6.029
 2485SOL    HW118674   5.814   0.785   6.027
 2485SOL    HW218675   5.786   0.656   6.123
 2486SOL     OW18676   8.979   9.643   3.987
 2486SOL    HW118677   8.999   9.741   3.993
 2486SOL    HW218678   9.028   9.604   3.910
 2487SOL     OW18679   4.500   4.993   3.692
 2487SOL    HW118680   4.413   4.996   3.742
 2487SOL    HW218681   4.500   5.064   3.622
 2488SOL     OW18682   1.095   5.618   1.888
 2488SOL    HW118683   1.067   5.525   1.867
 2488SOL    HW218684   1.018   5.680   1.876
 2489SOL     OW18685   4.774   0.740   3.469
 2489SOL    HW118686   4.716   0.659   3.469
 2489SOL    HW218687   4.720   0.820   3.497
 2490SOL     OW18688   1.281   0.162   1.993
 2490SOL    HW118689   1.275   0.114   2.080
 2490SOL    HW218690   1.193   0.205   1.972
 2491SOL     OW18691   9.500   3.760   6.319
 2491SOL    HW118692   9.424   3.784   6.379
 2491SOL    HW218693   9.539   3.843   6.280
 2492SOL     OW18694   7.399   2.913   2.103
 2492SOL    HW118695   7.379   2.835   2.163
 2492SOL    HW218696   7.464   2.885   2.032
 2493SOL     OW18697   8.317   8.860   3.704
 2493SOL    HW118698   8.304   8.787   3.772
 2493SOL    HW218699   8.396   8.838   3.646
 2494SOL     OW18700   3.304   3.101   6.315
 2494SOL    HW118701   3.232   3.160   6.352
 2494SOL    HW218702   3.375   3.158   6.274
 2495SOL     OW18703   7.810   3.263   4.818
 2495SOL    HW118704   7.832   3.272   4.721
 2495SOL    HW218705   7.802   3.166   4.842
 2496SOL     OW18706   5.190   1.890   0.887
 2496SOL    HW118707   5.228   1.859   0.800
 2496SOL    HW218708   5.226   1.981   0.908
 2497SOL     OW18709   3.608   7.457   3.824
 2497SOL    HW118710   3.538   7.527   3.804
 2497SOL    HW218711   3.663   7.487   3.902
 2498SOL     OW18712   1.819   5.044   2.811
 2498SOL    HW118713   1.903   5.066   2.760
 2498SOL    HW218714   1.804   5.113   2.882
 2499SOL     OW18715   2.082   3.649   4.168
 2499SOL    HW118716   2.147   3.719   4.197
 2499SOL    HW218717   2.007   3.644   4.233
 2500SOL     OW18718   0.994   0.606   3.365
 2500SOL    HW118719   1.054   0.542   3.317
 2500SOL    HW218720   0.910   0.619   3.313
 2501SOL     OW18721   0.180   4.320   5.681
 2501SOL    HW118722   0.104   4.270   5.722
 2501SOL    HW218723   0.155   4.416   5.670
 2502SOL     OW18724   8.316   1.631   3.055
 2502SOL    HW118725   8.222   1.630   3.088
 2502SOL    HW218726   8.336   1.547   3.004
 2503SOL     OW18727   5.918   7.616   5.178
 2503SOL    HW118728   5.942   7.711   5.195
 2503SOL    HW218729   5.897   7.603   5.081
 2504SOL     OW18730   1.849   4.703   4.324
 2504SOL    HW118731   1.922   4.643   4.357
 2504SOL    HW218732   1.888   4.791   4.296
 2505SOL     OW18733   8.147   5.228   4.338
 2505SOL    HW118734   8.132   5.299   4.406
 2505SOL    HW218735   8.185   5.269   4.255
 2506SOL     OW18736   8.355   6.753   5.874
 2506SOL    HW118737   8.440   6.796   5.901
 2506SOL    HW218738   8.292   6.822   5.838
 2507SOL     OW18739   7.816   9.258   0.268
 2507SOL    HW118740   7.789   9.341   0.317
 2507SOL    HW218741   7.739   9.224   0.214
 2508SOL     OW18742   3.546   0.802   4.854
 2508SOL    HW118743   3.447   0.805   4.861
 2508SOL    HW218744   3.582   0.895   4.846
 2509SOL     OW18745   9.809   3.898   5.961
 2509SOL    HW118746   9.729   3.838   5.965
 2509SOL    HW218747   9.784   3.983   5.915
 2510SOL     OW18748   3.550   7.485   6.340
 2510SOL    HW118749   3.628   7.449   6.288
 2510SOL    HW218750   3.512   7.412   6.397
 2511SOL     OW18751   8.566   3.866   5.942
 2511SOL    HW118752   8.594   3.910   5.857
 2511SOL    HW218753   8.555   3.767   5.927
 2512SOL     OW18754   3.105   0.834   2.557
 2512SOL    HW118755   3.094   0.751   2.502
 2512SOL    HW218756   3.163   0.814   2.636
 2513SOL     OW18757   7.315   7.413   3.245
 2513SOL    HW118758   7.336   7.504   3.209
 2513SOL    HW218759   7.255   7.422   3.324
 2514SOL     OW18760   8.216   0.280   0.870
 2514SOL    HW118761   8.138   0.337   0.898
 2514SOL    HW218762   8.203   0.249   0.777
 2515SOL     OW18763   2.009   2.731   4.727
 2515SOL    HW118764   1.941   2.661   4.751
 2515SOL    HW218765   2.017   2.737   4.628
 2516SOL     OW18766   7.327   1.698   1.129
 2516SOL    HW118767   7.240   1.688   1.177
 2516SOL    HW218768   7.383   1.767   1.175
 2517SOL     OW18769   8.231   7.945   1.904
 2517SOL    HW118770   8.201   8.018   1.843
 2517SOL    HW218771   8.329   7.928   1.890
 2518SOL     OW18772   6.650   5.075   0.850
 2518SOL    HW118773   6.646   5.000   0.917
 2518SOL    HW218774   6.591   5.053   0.772
 2519SOL     OW18775   8.368   8.269   2.264
 2519SOL    HW118776   8.354   8.255   2.362
 2519SOL    HW218777   8.283   8.300   2.222
 2520SOL     OW18778   0.680   5.127   3.580
 2520SOL    HW118779   0.669   5.215   3.625
 2520SOL    HW218780   0.642   5.055   3.637
 2521SOL     OW18781   5.078   9.616   3.235
 2521SOL    HW118782   5.020   9.641   3.157
 2521SOL    HW218783   5.159   9.674   3.235
 2522SOL     OW18784   7.453   9.863   3.057
 2522SOL    HW118785   7.534   9.804   3.056
 2522SOL    HW218786   7.481   9.959   3.051
 2523SOL     OW18787   8.413   0.273   1.568
 2523SOL    HW118788   8.336   0.309   1.515
 2523SOL    HW218789   8.498   0.291   1.519
 2524SOL     OW18790   2.904   6.346   2.370
 2524SOL    HW118791   2.904   6.319   2.274
 2524SOL    HW218792   2.855   6.433   2.380
 2525SOL     OW18793   9.754   8.913   2.916
 2525SOL    HW118794   9.709   8.996   2.950
 2525SOL    HW218795   9.705   8.833   2.951
 2526SOL     OW18796   9.307   1.929   5.962
 2526SOL    HW118797   9.384   1.908   5.902
 2526SOL    HW218798   9.223   1.889   5.924
 2527SOL     OW18799   7.161   2.758   0.883
 2527SOL    HW118800   7.185   2.699   0.960
 2527SOL    HW218801   7.075   2.804   0.903
 2528SOL     OW18802   6.035   0.745   4.831
 2528SOL    HW118803   6.037   0.688   4.749
 2528SOL    HW218804   5.991   0.696   4.906
 2529SOL     OW18805   9.679   6.177   5.624
 2529SOL    HW118806   9.586   6.140   5.630
 2529SOL    HW218807   9.737   6.133   5.693
 2530SOL     OW18808   3.888   9.645   0.773
 2530SOL    HW118809   3.909   9.737   0.804
 2530SOL    HW218810   3.971   9.601   0.738
 2531SOL     OW18811   3.712   4.382   3.286
 2531SOL    HW118812   3.809   4.362   3.292
 2531SOL    HW218813   3.675   4.343   3.202
 2532SOL     OW18814   1.448   1.423   0.381
 2532SOL    HW118815   1.501   1.348   0.421
 2532SOL    HW218816   1.485   1.447   0.291
 2533SOL     OW18817   3.454   9.248   4.511
 2533SOL    HW118818   3.420   9.180   4.576
 2533SOL    HW218819   3.546   9.277   4.539
 2534SOL     OW18820   2.948   4.907   3.656
 2534SOL    HW118821   2.929   4.810   3.665
 2534SOL    HW218822   3.029   4.930   3.711
 2535SOL     OW18823   6.131   0.879   5.941
 2535SOL    HW118824   6.201   0.908   5.876
 2535SOL    HW218825   6.166   0.887   6.034
 2536SOL     OW18826   4.143   4.105   3.207
 2536SOL    HW118827   4.092   4.058   3.135
 2536SOL    HW218828   4.235   4.127   3.175
 2537SOL     OW18829   4.003   4.248   4.627
 2537SOL    HW118830   4.041   4.192   4.701
 2537SOL    HW218831   3.993   4.192   4.545
 2538SOL     OW18832   0.894   9.290   0.399
 2538SOL    HW118833   0.860   9.385   0.403
 2538SOL    HW218834   0.825   9.233   0.355
 2539SOL     OW18835   6.294   7.875   3.765
 2539SOL    HW118836   6.209   7.836   3.727
 2539SOL    HW218837   6.303   7.848   3.860
 2540SOL     OW18838   8.166   6.394   4.547
 2540SOL    HW118839   8.213   6.417   4.633
 2540SOL    HW218840   8.125   6.304   4.555
 2541SOL     OW18841   3.487   5.461   1.184
 2541SOL    HW118842   3.419   5.531   1.204
 2541SOL    HW218843   3.525   5.426   1.269
 2542SOL     OW18844   9.670   4.521   3.672
 2542SOL    HW118845   9.690   4.476   3.584
 2542SOL    HW218846   9.638   4.614   3.655
 2543SOL     OW18847   2.412   2.267   5.925
 2543SOL    HW118848   2.405   2.366   5.930
 2543SOL    HW218849   2.364   2.235   5.843
 2544SOL     OW18850   1.804   5.170   4.836
 2544SOL    HW118851   1.718   5.120   4.849
 2544SOL    HW218852   1.875   5.106   4.809
 2545SOL     OW18853   1.802   7.052   2.838
 2545SOL    HW118854   1.774   7.105   2.758
 2545SOL    HW218855   1.786   7.106   2.920
 2546SOL     OW18856   0.746   3.814   3.258
 2546SOL    HW118857   0.790   3.844   3.343
 2546SOL    HW218858   0.762   3.883   3.187
 2547SOL     OW18859   5.216   1.035   3.871
 2547SOL    HW118860   5.307   1.076   3.861
 2547SOL    HW218861   5.187   0.997   3.783
 2548SOL     OW18862   0.955   8.884   3.214
 2548SOL    HW118863   0.878   8.822   3.231
 2548SOL    HW218864   1.028   8.863   3.278
 2549SOL     OW18865   2.243   2.701   1.812
 2549SOL    HW118866   2.301   2.706   1.894
 2549SOL    HW218867   2.179   2.778   1.812
 2550SOL     OW18868   2.278   9.160   3.039
 2550SOL    HW118869   2.202   9.219   3.011
 2550SOL    HW218870   2.293   9.169   3.137
 2551SOL     OW18871   0.055   4.932   1.203
 2551SOL    HW118872   9.977   4.932   1.265
 2551SOL    HW218873   0.048   4.855   1.140
 2552SOL     OW18874   3.025   8.068   3.352
 2552SOL    HW118875   3.070   8.038   3.436
 2552SOL    HW218876   3.009   7.989   3.293
 2553SOL     OW18877   8.806   1.093   3.609
 2553SOL    HW118878   8.864   1.171   3.586
 2553SOL    HW218879   8.770   1.052   3.525
 2554SOL     OW18880   0.542   7.749   1.203
 2554SOL    HW118881   0.583   7.683   1.139
 2554SOL    HW218882   0.581   7.840   1.185
 2555SOL     OW18883   1.024   1.413   2.128
 2555SOL    HW118884   0.949   1.347   2.130
 2555SOL    HW218885   1.015   1.471   2.047
 2556SOL     OW18886   3.731   1.547   2.538
 2556SOL    HW118887   3.818   1.577   2.579
 2556SOL    HW218888   3.750   1.495   2.455
 2557SOL     OW18889   6.520   9.960   5.139
 2557SOL    HW118890   6.588   0.011   5.086
 2557SOL    HW218891   6.434   0.010   5.141
 2558SOL     OW18892   7.012   1.737   5.316
 2558SOL    HW118893   7.100   1.716   5.274
 2558SOL    HW218894   7.017   1.826   5.361
 2559SOL     OW18895   8.675   3.588   2.050
 2559SOL    HW118896   8.631   3.524   1.987
 2559SOL    HW218897   8.771   3.561   2.063
 2560SOL     OW18898   8.576   8.095   5.035
 2560SOL    HW118899   8.577   8.186   4.995
 2560SOL    HW218900   8.587   8.101   5.134
 2561SOL     OW18901   0.446   3.383   1.463
 2561SOL    HW118902   0.399   3.349   1.382
 2561SOL    HW218903   0.447   3.312   1.533
 2562SOL     OW18904   9.777   4.880   4.304
 2562SOL    HW118905   9.694   4.863   4.357
 2562SOL    HW218906   9.786   4.978   4.287
 2563SOL     OW18907   4.609   0.643   0.135
 2563SOL    HW118908   4.560   0.573   0.082
 2563SOL    HW218909   4.562   0.657   0.222
 2564SOL     OW18910   1.393   2.949   5.865
 2564SOL    HW118911   1.358   3.026   5.919
 2564SOL    HW218912   1.392   2.866   5.921
 2565SOL     OW18913   1.609   7.184   5.401
 2565SOL    HW118914   1.647   7.120   5.468
 2565SOL    HW218915   1.567   7.132   5.326
 2566SOL     OW18916   0.061   2.466   1.805
 2566SOL    HW118917   9.970   2.506   1.792
 2566SOL    HW218918   0.116   2.527   1.861
 2567SOL     OW18919   4.531   9.235   3.867
 2567SOL    HW118920   4.480   9.196   3.790
 2567SOL    HW218921   4.524   9.175   3.946
 2568SOL     OW18922   1.184   8.071   3.325
 2568SOL    HW118923   1.110   8.120   3.373
 2568SOL    HW218924   1.169   7.973   3.333
 2569SOL     OW18925   2.203   9.565   0.606
 2569SOL    HW118926   2.231   9.516   0.689
 2569SOL    HW218927   2.181   9.660   0.630
 2570SOL     OW18928   4.356   6.002   1.366
 2570SOL    HW118929   4.438   6.048   1.402
 2570SOL    HW218930   4.368   5.986   1.268
 2571SOL     OW18931   0.658   4.619   6.165
 2571SOL    HW118932   0.644   4.716   6.187
 2571SOL    HW218933   0.605   4.563   6.228
 2572SOL     OW18934   0.155   2.231   2.243
 2572SOL    HW118935   0.206   2.270   2.319
 2572SOL    HW218936   0.104   2.151   2.274
 2573SOL     OW18937   7.378   2.965   0.373
 2573SOL    HW118938   7.374   3.048   0.429
 2573SOL    HW218939   7.311   2.899   0.407
 2574SOL     OW18940   2.819   0.898   6.164
 2574SOL    HW118941   2.756   0.855   6.229
 2574SOL    HW218942   2.900   0.932   6.212
 2575SOL     OW18943   3.742   8.822   6.065
 2575SOL    HW118944   3.750   8.793   6.160
 2575SOL    HW218945   3.734   8.921   6.061
 2576SOL     OW18946   8.525   7.839   5.389
 2576SOL    HW118947   8.427   7.845   5.408
 2576SOL    HW218948   8.563   7.759   5.434
 2577SOL     OW18949   0.231   8.808   2.399
 2577SOL    HW118950   0.190   8.732   2.349
 2577SOL    HW218951   0.223   8.792   2.497
 2578SOL     OW18952   6.628   7.367   4.255
 2578SOL    HW118953   6.579   7.330   4.334
 2578SOL    HW218954   6.564   7.412   4.193
 2579SOL     OW18955   0.072   2.866   6.083
 2579SOL    HW118956   0.115   2.780   6.059
 2579SOL    HW218957   0.001   2.888   6.016
 2580SOL     OW18958   2.285   6.507   5.649
 2580SOL    HW118959   2.293   6.606   5.659
 2580SOL    HW218960   2.188   6.481   5.648
 2581SOL     OW18961   7.924   0.586   3.342
 2581SOL    HW118962   8.009   0.541   3.316
 2581SOL    HW218963   7.944   0.657   3.410
 2582SOL     OW18964   4.953   2.231   0.613
 2582SOL    HW118965   4.954   2.309   0.550
 2582SOL    HW218966   5.047   2.211   0.642
 2583SOL     OW18967   3.106   6.890   1.779
 2583SOL    HW118968   3.085   6.823   1.708
 2583SOL    HW218969   3.021   6.936   1.807
 2584SOL     OW18970   1.901   8.649   4.160
 2584SOL    HW118971   1.880   8.638   4.257
 2584SOL    HW218972   1.842   8.589   4.106
 2585SOL     OW18973   0.853   4.028   2.246
 2585SOL    HW118974   0.903   3.944   2.225
 2585SOL    HW218975   0.801   4.057   2.166
 2586SOL     OW18976   4.692   2.072   0.433
 2586SOL    HW118977   4.734   2.150   0.387
 2586SOL    HW218978   4.757   1.996   0.435
 2587SOL     OW18979   8.401   4.743   2.730
 2587SOL    HW118980   8.476   4.809   2.735
 2587SOL    HW218981   8.363   4.744   2.638
 2588SOL     OW18982   2.547   1.102   1.357
 2588SOL    HW118983   2.459   1.084   1.401
 2588SOL    HW218984   2.621   1.059   1.410
 2589SOL     OW18985   9.790   1.764   0.896
 2589SOL    HW118986   9.776   1.814   0.811
 2589SOL    HW218987   9.798   1.829   0.972
 2590SOL     OW18988   1.864   2.664   3.438
 2590SOL    HW118989   1.900   2.603   3.508
 2590SOL    HW218990   1.932   2.734   3.416
 2591SOL     OW18991   8.490   8.946   4.134
 2591SOL    HW118992   8.554   8.966   4.060
 2591SOL    HW218993   8.524   8.988   4.219
 2592SOL     OW18994   9.329   2.352   5.940
 2592SOL    HW118995   9.268   2.406   5.997
 2592SOL    HW218996   9.373   2.282   5.997
 2593SOL     OW18997   5.914   0.752   4.087
 2593SOL    HW118998   5.939   0.801   4.170
 2593SOL    HW218999   5.895   0.817   4.014
 2594SOL     OW19000   1.797   7.980   0.198
 2594SOL    HW119001   1.707   8.024   0.202
 2594SOL    HW219002   1.790   7.895   0.146
 2595SOL     OW19003   3.834   2.030   4.360
 2595SOL    HW119004   3.754   1.974   4.337
 2595SOL    HW219005   3.916   1.988   4.321
 2596SOL     OW19006   1.649   1.252   0.128
 2596SOL    HW119007   1.746   1.277   0.126
 2596SOL    HW219008   1.594   1.335   0.118
 2597SOL     OW19009   8.329   8.649   3.894
 2597SOL    HW119010   8.280   8.562   3.892
 2597SOL    HW219011   8.294   8.705   3.969
 2598SOL     OW19012   8.356   8.547   1.654
 2598SOL    HW119013   8.343   8.511   1.746
 2598SOL    HW219014   8.363   8.647   1.658
 2599SOL     OW19015   6.801   4.754   1.654
 2599SOL    HW119016   6.789   4.732   1.751
 2599SOL    HW219017   6.854   4.682   1.610
 2600SOL     OW19018   8.851   0.244   3.608
 2600SOL    HW119019   8.917   0.260   3.681
 2600SOL    HW219020   8.814   0.151   3.616
 2601SOL     OW19021   9.457   8.727   2.184
 2601SOL    HW119022   9.479   8.659   2.115
 2601SOL    HW219023   9.520   8.805   2.176
 2602SOL     OW19024   9.644   3.010   3.433
 2602SOL    HW119025   9.577   3.041   3.366
 2602SOL    HW219026   9.639   2.911   3.443
 2603SOL     OW19027   2.497   4.220   3.299
 2603SOL    HW119028   2.577   4.169   3.266
 2603SOL    HW219029   2.435   4.157   3.345
 2604SOL     OW19030   3.785   7.129   1.198
 2604SOL    HW119031   3.866   7.085   1.159
 2604SOL    HW219032   3.730   7.061   1.247
 2605SOL     OW19033   5.665   9.891   3.110
 2605SOL    HW119034   5.759   9.861   3.094
 2605SOL    HW219035   5.636   9.864   3.202
 2606SOL     OW19036   5.278   0.394   5.143
 2606SOL    HW119037   5.223   0.379   5.061
 2606SOL    HW219038   5.313   0.307   5.177
 2607SOL     OW19039   1.477   1.301   5.516
 2607SOL    HW119040   1.442   1.241   5.444
 2607SOL    HW219041   1.496   1.391   5.478
 2608SOL     OW19042   0.295   3.087   0.169
 2608SOL    HW119043   0.279   3.162   0.105
 2608SOL    HW219044   0.262   3.113   0.260
 2609SOL     OW19045   3.614   7.681   3.182
 2609SOL    HW119046   3.686   7.747   3.159
 2609SOL    HW219047   3.525   7.728   3.184
 2610SOL     OW19048   9.561   7.990   2.086
 2610SOL    HW119049   9.604   7.971   2.174
 2610SOL    HW219050   9.474   7.940   2.080
 2611SOL     OW19051   8.432   7.207   4.994
 2611SOL    HW119052   8.528   7.212   4.968
 2611SOL    HW219053   8.383   7.148   4.929
 2612SOL     OW19054   5.331   8.539   5.362
 2612SOL    HW119055   5.383   8.612   5.406
 2612SOL    HW219056   5.285   8.573   5.281
 2613SOL     OW19057   0.029   0.966   0.773
 2613SOL    HW119058   0.119   0.923   0.774
 2613SOL    HW219059   9.983   0.950   0.860
 2614SOL     OW19060   5.545   8.166   2.400
 2614SOL    HW119061   5.472   8.231   2.383
 2614SOL    HW219062   5.511   8.090   2.455
 2615SOL     OW19063   1.111   7.227   6.244
 2615SOL    HW119064   1.095   7.228   6.146
 2615SOL    HW219065   1.060   7.302   6.287
 2616SOL     OW19066   3.732   8.530   6.281
 2616SOL    HW119067   3.646   8.537   6.229
 2616SOL    HW219068   3.772   8.440   6.265
 2617SOL     OW19069   8.134   5.789   4.007
 2617SOL    HW119070   8.198   5.729   4.055
 2617SOL    HW219071   8.064   5.821   4.071
 2618SOL     OW19072   7.695   0.047   2.453
 2618SOL    HW119073   7.630   9.977   2.422
 2618SOL    HW219074   7.766   0.059   2.384
 2619SOL     OW19075   3.574   5.117   4.741
 2619SOL    HW119076   3.582   5.152   4.835
 2619SOL    HW219077   3.494   5.157   4.698
 2620SOL     OW19078   6.932   4.186   2.237
 2620SOL    HW119079   6.937   4.105   2.295
 2620SOL    HW219080   6.976   4.168   2.149
 2621SOL     OW19081   8.080   5.886   5.219
 2621SOL    HW119082   8.069   5.801   5.167
 2621SOL    HW219083   8.003   5.947   5.200
 2622SOL     OW19084   3.645   6.917   1.303
 2622SOL    HW119085   3.630   6.832   1.252
 2622SOL    HW219086   3.603   6.910   1.393
 2623SOL     OW19087   0.929   5.281   3.248
 2623SOL    HW119088   1.004   5.301   3.311
 2623SOL    HW219089   0.912   5.361   3.191
 2624SOL     OW19090   0.339   0.240   2.335
 2624SOL    HW119091   0.432   0.260   2.366
 2624SOL    HW219092   0.282   0.213   2.413
 2625SOL     OW19093   8.081   4.993   3.534
 2625SOL    HW119094   8.107   5.009   3.439
 2625SOL    HW219095   8.162   5.004   3.593
 2626SOL     OW19096   9.158   3.568   4.851
 2626SOL    HW119097   9.160   3.566   4.751
 2626SOL    HW219098   9.247   3.597   4.886
 2627SOL     OW19099   0.175   6.819   5.807
 2627SOL    HW119100   0.268   6.827   5.771
 2627SOL    HW219101   0.170   6.743   5.872
 2628SOL     OW19102   8.703   3.518   5.425
 2628SOL    HW119103   8.801   3.537   5.420
 2628SOL    HW219104   8.681   3.439   5.367
 2629SOL     OW19105   7.534   9.729   5.889
 2629SOL    HW119106   7.513   9.826   5.878
 2629SOL    HW219107   7.497   9.696   5.976
 2630SOL     OW19108   3.407   5.278   1.827
 2630SOL    HW119109   3.448   5.350   1.771
 2630SOL    HW219110   3.465   5.197   1.825
 2631SOL     OW19111   3.320   6.360   6.199
 2631SOL    HW119112   3.230   6.327   6.225
 2631SOL    HW219113   3.326   6.458   6.216
 2632SOL     OW19114   6.649   1.546   1.751
 2632SOL    HW119115   6.560   1.502   1.765
 2632SOL    HW219116   6.716   1.477   1.722
 2633SOL     OW19117   8.666   6.271   3.093
 2633SOL    HW119118   8.579   6.276   3.143
 2633SOL    HW219119   8.646   6.267   2.994
 2634SOL     OW19120   8.994   3.726   1.649
 2634SOL    HW119121   9.085   3.712   1.610
 2634SOL    HW219122   8.936   3.648   1.627
 2635SOL     OW19123   9.843   5.342   5.475
 2635SOL    HW119124   9.821   5.245   5.477
 2635SOL    HW219125   9.781   5.391   5.537
 2636SOL     OW19126   3.736   8.799   6.340
 2636SOL    HW119127   3.751   8.700   6.342
 2636SOL    HW219128   3.638   8.817   6.339
 2637SOL     OW19129   3.738   4.508   1.815
 2637SOL    HW119130   3.742   4.409   1.801
 2637SOL    HW219131   3.808   4.552   1.759
 2638SOL     OW19132   2.687   5.901   2.706
 2638SOL    HW119133   2.630   5.937   2.632
 2638SOL    HW219134   2.775   5.872   2.669
 2639SOL     OW19135   9.677   9.397   0.751
 2639SOL    HW119136   9.661   9.461   0.826
 2639SOL    HW219137   9.608   9.325   0.752
 2640SOL     OW19138   8.062   9.241   0.385
 2640SOL    HW119139   8.094   9.148   0.404
 2640SOL    HW219140   7.970   9.236   0.346
 2641SOL     OW19141   4.656   2.504   3.129
 2641SOL    HW119142   4.664   2.542   3.037
 2641SOL    HW219143   4.611   2.415   3.124
 2642SOL     OW19144   5.205   2.374   1.082
 2642SOL    HW119145   5.110   2.398   1.102
 2642SOL    HW219146   5.254   2.457   1.055
 2643SOL     OW19147   6.590   5.099   1.946
 2643SOL    HW119148   6.607   5.076   2.041
 2643SOL    HW219149   6.673   5.139   1.906
 2644SOL     OW19150   6.379   2.450   4.180
 2644SOL    HW119151   6.386   2.366   4.126
 2644SOL    HW219152   6.314   2.435   4.255
 2645SOL     OW19153   2.776   5.182   5.043
 2645SOL    HW119154   2.732   5.098   5.011
 2645SOL    HW219155   2.764   5.191   5.141
 2646SOL     OW19156   1.398   0.482   5.047
 2646SOL    HW119157   1.394   0.515   4.952
 2646SOL    HW219158   1.486   0.438   5.063
 2647SOL     OW19159   8.080   8.000   3.919
 2647SOL    HW119160   8.122   7.924   3.869
 2647SOL    HW219161   8.043   8.066   3.854
 2648SOL     OW19162   0.438   2.847   4.351
 2648SOL    HW119163   0.519   2.787   4.353
 2648SOL    HW219164   0.391   2.837   4.264
 2649SOL     OW19165   1.453   8.161   2.628
 2649SOL    HW119166   1.433   8.083   2.568
 2649SOL    HW219167   1.410   8.147   2.717
 2650SOL     OW19168   9.936   6.701   5.408
 2650SOL    HW119169   9.849   6.712   5.455
 2650SOL    HW219170   9.945   6.606   5.376
 2651SOL     OW19171   3.324   5.088   6.013
 2651SOL    HW119172   3.347   5.052   6.104
 2651SOL    HW219173   3.238   5.048   5.982
 2652SOL     OW19174   0.947   5.349   0.837
 2652SOL    HW119175   0.933   5.430   0.779
 2652SOL    HW219176   1.032   5.360   0.889
 2653SOL     OW19177   9.576   6.480   0.038
 2653SOL    HW119178   9.600   6.390   0.075
 2653SOL    HW219179   9.637   6.502   8.150
 2654SOL     OW19180   4.825   1.989   4.811
 2654SOL    HW119181   4.918   2.024   4.800
 2654SOL    HW219182   4.764   2.039   4.750
 2655SOL     OW19183   6.205   2.051   5.507
 2655SOL    HW119184   6.169   2.072   5.598
 2655SOL    HW219185   6.262   2.127   5.475
 2656SOL     OW19186   9.859   2.643   6.275
 2656SOL    HW119187   9.809   2.681   6.198
 2656SOL    HW219188   9.851   2.705   6.354
 2657SOL     OW19189   0.997   2.434   2.300
 2657SOL    HW119190   1.036   2.361   2.355
 2657SOL    HW219191   0.897   2.423   2.296
 2658SOL     OW19192   5.268   0.347   2.529
 2658SOL    HW119193   5.208   0.293   2.587
 2658SOL    HW219194   5.215   0.388   2.454
 2659SOL     OW19195   3.416   9.908   5.052
 2659SOL    HW119196   3.323   9.901   5.089
 2659SOL    HW219197   3.475   9.841   5.096
 2660SOL     OW19198   2.911   3.044   3.664
 2660SOL    HW119199   2.863   3.124   3.627
 2660SOL    HW219200   2.845   2.972   3.684
 2661SOL     OW19201   1.661   9.632   1.381
 2661SOL    HW119202   1.722   9.575   1.327
 2661SOL    HW219203   1.573   9.586   1.393
 2662SOL     OW19204   3.912   3.827   3.425
 2662SOL    HW119205   3.997   3.813   3.476
 2662SOL    HW219206   3.929   3.818   3.327
 2663SOL     OW19207   4.208   2.591   5.238
 2663SOL    HW119208   4.158   2.581   5.324
 2663SOL    HW219209   4.262   2.675   5.240
 2664SOL     OW19210   9.922   2.521   1.067
 2664SOL    HW119211   0.012   2.533   1.111
 2664SOL    HW219212   9.925   2.559   0.975
 2665SOL     OW19213   1.621   6.564   1.252
 2665SOL    HW119214   1.535   6.514   1.254
 2665SOL    HW219215   1.648   6.583   1.158
 2666SOL     OW19216   2.162   3.814   2.726
 2666SOL    HW119217   2.075   3.787   2.768
 2666SOL    HW219218   2.226   3.737   2.731
 2667SOL     OW19219   3.291   4.070   2.520
 2667SOL    HW119220   3.352   4.113   2.453
 2667SOL    HW219221   3.322   4.092   2.612
 2668SOL     OW19222   1.942   7.502   6.040
 2668SOL    HW119223   1.882   7.487   5.962
 2668SOL    HW219224   2.028   7.542   6.009
 2669SOL     OW19225   2.576   6.196   4.816
 2669SOL    HW119226   2.616   6.178   4.906
 2669SOL    HW219227   2.522   6.280   4.819
 2670SOL     OW19228   4.368   3.338   1.158
 2670SOL    HW119229   4.402   3.404   1.224
 2670SOL    HW219230   4.446   3.291   1.115
 2671SOL     OW19231   8.456   3.168   2.026
 2671SOL    HW119232   8.512   3.102   2.077
 2671SOL    HW219233   8.408   3.227   2.090
 2672SOL     OW19234   2.268   1.518   3.827
 2672SOL    HW119235   2.181   1.560   3.851
 2672SOL    HW219236   2.296   1.455   3.899
 2673SOL     OW19237   0.513   5.727   5.313
 2673SOL    HW119238   0.578   5.789   5.356
 2673SOL    HW219239   0.477   5.663   5.381
 2674SOL     OW19240   8.861   9.608   2.689
 2674SOL    HW119241   8.957   9.619   2.662
 2674SOL    HW219242   8.852   9.623   2.787
 2675SOL     OW19243   2.582   8.542   0.330
 2675SOL    HW119244   2.615   8.624   0.377
 2675SOL    HW219245   2.655   8.503   0.275
 2676SOL     OW19246   3.235   9.568   1.282
 2676SOL    HW119247   3.237   9.597   1.187
 2676SOL    HW219248   3.143   9.580   1.319
 2677SOL     OW19249   1.707   3.394   0.570
 2677SOL    HW119250   1.807   3.403   0.574
 2677SOL    HW219251   1.666   3.450   0.642
 2678SOL     OW19252   9.361   2.669   3.574
 2678SOL    HW119253   9.380   2.748   3.632
 2678SOL    HW219254   9.264   2.670   3.548
 2679SOL     OW19255   9.366   1.868   5.570
 2679SOL    HW119256   9.273   1.859   5.606
 2679SOL    HW219257   9.399   1.778   5.540
 2680SOL     OW19258   3.533   3.299   3.314
 2680SOL    HW119259   3.495   3.210   3.290
 2680SOL    HW219260   3.466   3.371   3.294
 2681SOL     OW19261   1.756   3.753   1.772
 2681SOL    HW119262   1.659   3.730   1.771
 2681SOL    HW219263   1.811   3.669   1.774
 2682SOL     OW19264   9.216   3.735   3.386
 2682SOL    HW119265   9.245   3.715   3.480
 2682SOL    HW219266   9.262   3.819   3.355
 2683SOL     OW19267   0.719   2.301   4.691
 2683SOL    HW119268   0.655   2.344   4.626
 2683SOL    HW219269   0.802   2.276   4.642
 2684SOL     OW19270   0.158   2.622   5.976
 2684SOL    HW119271   0.255   2.601   5.958
 2684SOL    HW219272   0.102   2.585   5.902
 2685SOL     OW19273   2.011   8.142   2.243
 2685SOL    HW119274   1.924   8.150   2.292
 2685SOL    HW219275   2.076   8.090   2.297
 2686SOL     OW19276   2.149   4.893   5.550
 2686SOL    HW119277   2.184   4.944   5.628
 2686SOL    HW219278   2.195   4.804   5.546
 2687SOL     OW19279   0.651   8.694   3.506
 2687SOL    HW119280   0.680   8.687   3.411
 2687SOL    HW219281   0.729   8.718   3.563
 2688SOL     OW19282   3.355   3.866   5.768
 2688SOL    HW119283   3.414   3.933   5.721
 2688SOL    HW219284   3.273   3.912   5.802
 2689SOL     OW19285   7.106   7.144   3.742
 2689SOL    HW119286   7.031   7.185   3.795
 2689SOL    HW219287   7.140   7.063   3.790
 2690SOL     OW19288   7.790   1.718   5.574
 2690SOL    HW119289   7.860   1.658   5.611
 2690SOL    HW219290   7.717   1.663   5.534
 2691SOL     OW19291   0.579   4.188   0.725
 2691SOL    HW119292   0.673   4.152   0.724
 2691SOL    HW219293   0.517   4.117   0.760
 2692SOL     OW19294   2.386   3.639   3.936
 2692SOL    HW119295   2.411   3.546   3.908
 2692SOL    HW219296   2.406   3.651   4.033
 2693SOL     OW19297   4.645   8.678   2.346
 2693SOL    HW119298   4.629   8.585   2.379
 2693SOL    HW219299   4.599   8.743   2.407
 2694SOL     OW19300   8.992   2.214   5.920
 2694SOL    HW119301   9.052   2.218   5.839
 2694SOL    HW219302   8.900   2.187   5.891
 2695SOL     OW19303   5.846   1.095   2.498
 2695SOL    HW119304   5.896   1.053   2.573
 2695SOL    HW219305   5.762   1.043   2.481
 2696SOL     OW19306   4.866   6.049   0.620
 2696SOL    HW119307   4.850   6.093   0.531
 2696SOL    HW219308   4.781   6.005   0.650
 2697SOL     OW19309   1.932   0.969   5.496
 2697SOL    HW119310   1.847   0.980   5.444
 2697SOL    HW219311   1.956   1.055   5.539
 2698SOL     OW19312   2.732   3.097   2.607
 2698SOL    HW119313   2.760   3.071   2.514
 2698SOL    HW219314   2.794   3.055   2.673
 2699SOL     OW19315   3.344   7.063   0.349
 2699SOL    HW119316   3.365   7.061   0.251
 2699SOL    HW219317   3.283   6.987   0.371
 2700SOL     OW19318   0.800   9.010   1.415
 2700SOL    HW119319   0.829   8.959   1.334
 2700SOL    HW219320   0.880   9.050   1.459
 2701SOL     OW19321   3.395   8.779   5.775
 2701SOL    HW119322   3.450   8.855   5.810
 2701SOL    HW219323   3.408   8.772   5.676
 2702SOL     OW19324   9.411   8.763   4.246
 2702SOL    HW119325   9.312   8.755   4.230
 2702SOL    HW219326   9.437   8.859   4.246
 2703SOL     OW19327   3.085   9.324   0.146
 2703SOL    HW119328   3.108   9.415   0.180
 2703SOL    HW219329   3.090   9.324   0.046
 2704SOL     OW19330   0.506   7.238   6.240
 2704SOL    HW119331   0.432   7.261   6.177
 2704SOL    HW219332   0.583   7.202   6.188
 2705SOL     OW19333   9.598   9.047   5.178
 2705SOL    HW119334   9.619   8.957   5.215
 2705SOL    HW219335   9.667   9.112   5.209
 2706SOL     OW19336   1.565   4.092   1.823
 2706SOL    HW119337   1.538   4.188   1.815
 2706SOL    HW219338   1.650   4.076   1.772
 2707SOL     OW19339   2.838   5.693   6.055
 2707SOL    HW119340   2.773   5.755   6.010
 2707SOL    HW219341   2.792   5.608   6.079
 2708SOL     OW19342   7.838   6.108   4.193
 2708SOL    HW119343   7.792   6.150   4.114
 2708SOL    HW219344   7.825   6.165   4.274
 2709SOL     OW19345   3.139   0.148   0.596
 2709SOL    HW119346   3.125   0.067   0.540
 2709SOL    HW219347   3.058   0.207   0.590
 2710SOL     OW19348   0.131   5.503   5.158
 2710SOL    HW119349   0.185   5.525   5.076
 2710SOL    HW219350   0.192   5.473   5.231
 2711SOL     OW19351   8.095   9.893   1.809
 2711SOL    HW119352   8.043   9.897   1.724
 2711SOL    HW219353   8.165   9.822   1.802
 2712SOL     OW19354   0.716   3.143   4.847
 2712SOL    HW119355   0.647   3.184   4.907
 2712SOL    HW219356   0.677   3.131   4.756
 2713SOL     OW19357   8.927   6.320   5.193
 2713SOL    HW119358   8.957   6.385   5.263
 2713SOL    HW219359   8.889   6.239   5.238
 2714SOL     OW19360   2.284   0.711   4.841
 2714SOL    HW119361   2.340   0.681   4.764
 2714SOL    HW219362   2.209   0.646   4.854
 2715SOL     OW19363   3.438   1.216   3.314
 2715SOL    HW119364   3.428   1.315   3.307
 2715SOL    HW219365   3.462   1.192   3.408
 2716SOL     OW19366   9.847   8.173   2.977
 2716SOL    HW119367   9.750   8.164   3.000
 2716SOL    HW219368   9.863   8.259   2.928
 2717SOL     OW19369   3.272   3.991   1.364
 2717SOL    HW119370   3.261   4.038   1.277
 2717SOL    HW219371   3.291   4.057   1.436
 2718SOL     OW19372   4.925   4.634   1.654
 2718SOL    HW119373   4.974   4.703   1.707
 2718SOL    HW219374   4.988   4.562   1.625
 2719SOL     OW19375   7.121   8.602   5.265
 2719SOL    HW119376   7.151   8.654   5.185
 2719SOL    HW219377   7.023   8.616   5.280
 2720SOL     OW19378   4.090   4.335   6.258
 2720SOL    HW119379   4.165   4.361   6.319
 2720SOL    HW219380   4.066   4.411   6.199
 2721SOL     OW19381   0.928   3.385   2.909
 2721SOL    HW119382   0.889   3.344   2.992
 2721SOL    HW219383   0.973   3.471   2.933
 2722SOL     OW19384   2.932   7.143   1.639
 2722SOL    HW119385   2.854   7.186   1.593
 2722SOL    HW219386   3.016   7.165   1.590
 2723SOL     OW19387   3.188   6.061   5.670
 2723SOL    HW119388   3.155   5.969   5.687
 2723SOL    HW219389   3.111   6.125   5.670
 2724SOL     OW19390   1.748   1.515   3.681
 2724SOL    HW119391   1.770   1.501   3.778
 2724SOL    HW219392   1.808   1.458   3.625
 2725SOL     OW19393   1.835   2.515   4.783
 2725SOL    HW119394   1.753   2.463   4.761
 2725SOL    HW219395   1.916   2.464   4.753
 2726SOL     OW19396   7.381   6.878   4.194
 2726SOL    HW119397   7.327   6.949   4.151
 2726SOL    HW219398   7.463   6.919   4.236
 2727SOL     OW19399   0.092   4.685   3.954
 2727SOL    HW119400   0.173   4.705   4.010
 2727SOL    HW219401   0.010   4.718   4.001
 2728SOL     OW19402   7.812   9.835   3.220
 2728SOL    HW119403   7.742   9.869   3.283
 2728SOL    HW219404   7.768   9.781   3.147
 2729SOL     OW19405   0.203   0.236   4.131
 2729SOL    HW119406   0.158   0.325   4.129
 2729SOL    HW219407   0.133   0.164   4.129
 2730SOL     OW19408   9.803   1.567   5.755
 2730SOL    HW119409   9.842   1.511   5.682
 2730SOL    HW219410   9.868   1.638   5.781
 2731SOL     OW19411   8.372   4.094   3.651
 2731SOL    HW119412   8.348   4.152   3.573
 2731SOL    HW219413   8.470   4.077   3.651
 2732SOL     OW19414   4.914   9.539   5.444
 2732SOL    HW119415   4.900   9.442   5.421
 2732SOL    HW219416   4.951   9.545   5.537
 2733SOL     OW19417   6.565   1.838   3.723
 2733SOL    HW119418   6.536   1.922   3.677
 2733SOL    HW219419   6.664   1.837   3.731
 2734SOL     OW19420   2.168   3.336   4.724
 2734SOL    HW119421   2.190   3.287   4.808
 2734SOL    HW219422   2.091   3.292   4.679
 2735SOL     OW19423   5.585   9.617   5.115
 2735SOL    HW119424   5.603   9.673   5.196
 2735SOL    HW219425   5.667   9.613   5.058
 2736SOL     OW19426   1.398   3.556   0.195
 2736SOL    HW119427   1.423   3.614   0.118
 2736SOL    HW219428   1.477   3.542   0.255
 2737SOL     OW19429   2.761   9.073   5.047
 2737SOL    HW119430   2.790   9.154   5.097
 2737SOL    HW219431   2.800   9.074   4.955
 2738SOL     OW19432   2.893   3.273   0.666
 2738SOL    HW119433   2.858   3.326   0.589
 2738SOL    HW219434   2.909   3.333   0.744
 2739SOL     OW19435   1.474   7.995   3.591
 2739SOL    HW119436   1.447   7.927   3.523
 2739SOL    HW219437   1.574   8.005   3.589
 2740SOL     OW19438   0.788   3.381   2.501
 2740SOL    HW119439   0.725   3.312   2.465
 2740SOL    HW219440   0.863   3.335   2.550
 2741SOL     OW19441   1.655   0.530   3.366
 2741SOL    HW119442   1.732   0.474   3.336
 2741SOL    HW219443   1.576   0.512   3.306
 2742SOL     OW19444   6.670   6.820   5.507
 2742SOL    HW119445   6.750   6.760   5.509
 2742SOL    HW219446   6.607   6.794   5.581
 2743SOL     OW19447   5.956   9.494   3.985
 2743SOL    HW119448   5.885   9.540   4.038
 2743SOL    HW219449   5.983   9.409   4.031
 2744SOL     OW19450   9.702   7.705   1.583
 2744SOL    HW119451   9.737   7.778   1.523
 2744SOL    HW219452   9.764   7.627   1.580
 2745SOL     OW19453   0.195   7.101   2.963
 2745SOL    HW119454   0.189   7.007   2.928
 2745SOL    HW219455   0.290   7.132   2.957
 2746SOL     OW19456   1.845   0.211   5.108
 2746SOL    HW119457   1.788   0.290   5.088
 2746SOL    HW219458   1.918   0.237   5.172
 2747SOL     OW19459   1.986   3.455   3.322
 2747SOL    HW119460   1.892   3.429   3.346
 2747SOL    HW219461   2.050   3.413   3.387
 2748SOL     OW19462   7.943   8.986   5.586
 2748SOL    HW119463   7.861   9.008   5.639
 2748SOL    HW219464   7.931   9.017   5.491
 2749SOL     OW19465   8.043   5.586   0.585
 2749SOL    HW119466   7.954   5.547   0.563
 2749SOL    HW219467   8.069   5.559   0.678
 2750SOL     OW19468   8.286   6.546   5.583
 2750SOL    HW119469   8.374   6.524   5.540
 2750SOL    HW219470   8.292   6.528   5.681
 2751SOL     OW19471   3.222   3.180   2.977
 2751SOL    HW119472   3.143   3.230   2.943
 2751SOL    HW219473   3.219   3.176   3.077
 2752SOL     OW19474   1.811   3.825   0.249
 2752SOL    HW119475   1.741   3.796   0.184
 2752SOL    HW219476   1.898   3.779   0.228
 2753SOL     OW19477   3.167   4.503   3.054
 2753SOL    HW119478   3.176   4.448   2.970
 2753SOL    HW219479   3.098   4.462   3.113
 2754SOL     OW19480   0.010   1.995   2.660
 2754SOL    HW119481   9.943   1.944   2.713
 2754SOL    HW219482   0.038   1.942   2.581
 2755SOL     OW19483   0.283   0.134   0.657
 2755SOL    HW119484   0.219   0.090   0.593
 2755SOL    HW219485   0.356   0.178   0.605
 2756SOL     OW19486   7.542   0.575   5.914
 2756SOL    HW119487   7.592   0.535   5.837
 2756SOL    HW219488   7.516   0.669   5.890
 2757SOL     OW19489   0.227   7.551   4.623
 2757SOL    HW119490   0.245   7.499   4.707
 2757SOL    HW219491   0.165   7.627   4.644
 2758SOL     OW19492   0.435   5.311   1.724
 2758SOL    HW119493   0.449   5.379   1.652
 2758SOL    HW219494   0.506   5.240   1.718
 2759SOL     OW19495   2.210   7.025   5.299
 2759SOL    HW119496   2.286   7.084   5.275
 2759SOL    HW219497   2.214   6.942   5.243
 2760SOL     OW19498   1.188   4.694   5.434
 2760SOL    HW119499   1.255   4.685   5.507
 2760SOL    HW219500   1.098   4.665   5.468
 2761SOL     OW19501   1.436   3.659   3.897
 2761SOL    HW119502   1.436   3.680   3.799
 2761SOL    HW219503   1.352   3.695   3.938
 2762SOL     OW19504   2.302   7.548   0.259
 2762SOL    HW119505   2.329   7.469   0.204
 2762SOL    HW219506   2.271   7.517   0.349
 2763SOL     OW19507   8.056   0.928   5.580
 2763SOL    HW119508   8.065   0.839   5.535
 2763SOL    HW219509   8.057   1.001   5.511
 2764SOL     OW19510   0.398   3.891   5.403
 2764SOL    HW119511   0.407   3.792   5.398
 2764SOL    HW219512   0.336   3.915   5.477
 2765SOL     OW19513   8.120   0.047   0.983
 2765SOL    HW119514   8.196   9.994   1.021
 2765SOL    HW219515   8.156   0.127   0.936
 2766SOL     OW19516   1.247   4.512   2.640
 2766SOL    HW119517   1.225   4.537   2.735
 2766SOL    HW219518   1.298   4.587   2.597
 2767SOL     OW19519   0.435   1.637   0.850
 2767SOL    HW119520   0.350   1.680   0.821
 2767SOL    HW219521   0.474   1.585   0.774
 2768SOL     OW19522   9.432   1.127   5.474
 2768SOL    HW119523   9.420   1.177   5.388
 2768SOL    HW219524   9.344   1.089   5.503
 2769SOL     OW19525   7.307   9.320   3.551
 2769SOL    HW119526   7.282   9.311   3.454
 2769SOL    HW219527   7.310   9.416   3.576
 2770SOL     OW19528   7.907   0.807   0.147
 2770SOL    HW119529   7.880   0.897   0.112
 2770SOL    HW219530   7.999   0.813   0.184
 2771SOL     OW19531   6.041   7.642   5.990
 2771SOL    HW119532   5.944   7.622   5.973
 2771SOL    HW219533   6.058   7.643   6.088
 2772SOL     OW19534   3.553   3.653   3.769
 2772SOL    HW119535   3.574   3.558   3.745
 2772SOL    HW219536   3.463   3.657   3.813
 2773SOL     OW19537   8.005   5.841   0.944
 2773SOL    HW119538   8.080   5.787   0.983
 2773SOL    HW219539   8.009   5.835   0.844
 2774SOL     OW19540   9.259   6.211   2.849
 2774SOL    HW119541   9.215   6.301   2.846
 2774SOL    HW219542   9.282   6.182   2.756
 2775SOL     OW19543   8.544   7.146   4.521
 2775SOL    HW119544   8.446   7.153   4.541
 2775SOL    HW219545   8.588   7.089   4.591
 2776SOL     OW19546   3.662   7.155   4.319
 2776SOL    HW119547   3.739   7.098   4.348
 2776SOL    HW219548   3.615   7.113   4.242
 2777SOL     OW19549   0.042   4.422   6.358
 2777SOL    HW119550   9.943   4.415   6.348
 2777SOL    HW219551   0.086   4.393   6.273
 2778SOL     OW19552   3.065   0.926   4.456
 2778SOL    HW119553   2.985   0.967   4.499
 2778SOL    HW219554   3.036   0.853   4.394
 2779SOL     OW19555   0.712   6.721   5.096
 2779SOL    HW119556   0.701   6.635   5.146
 2779SOL    HW219557   0.622   6.756   5.070
 2780SOL     OW19558   6.636   9.659   5.662
 2780SOL    HW119559   6.616   9.613   5.575
 2780SOL    HW219560   6.667   9.591   5.728
 2781SOL     OW19561   8.381   6.076   0.929
 2781SOL    HW119562   8.363   5.993   0.876
 2781SOL    HW219563   8.453   6.058   0.996
 2782SOL     OW19564   3.955   3.759   3.157
 2782SOL    HW119565   3.866   3.714   3.144
 2782SOL    HW219566   4.027   3.690   3.162
 2783SOL     OW19567   9.464   7.514   4.781
 2783SOL    HW119568   9.544   7.517   4.722
 2783SOL    HW219569   9.412   7.430   4.762
 2784SOL     OW19570   7.493   8.150   6.044
 2784SOL    HW119571   7.564   8.141   6.114
 2784SOL    HW219572   7.527   8.207   5.970
 2785SOL     OW19573   1.757   2.161   4.622
 2785SOL    HW119574   1.819   2.200   4.554
 2785SOL    HW219575   1.695   2.231   4.655
 2786SOL     OW19576   0.917   9.142   0.076
 2786SOL    HW119577   1.013   9.139   0.047
 2786SOL    HW219578   0.894   9.057   0.123
 2787SOL     OW19579   2.484   0.822   4.994
 2787SOL    HW119580   2.516   0.759   5.065
 2787SOL    HW219581   2.408   0.779   4.944
 2788SOL     OW19582   5.011   2.457   0.458
 2788SOL    HW119583   4.988   2.451   0.361
 2788SOL    HW219584   4.978   2.544   0.495
 2789SOL     OW19585   6.015   9.705   5.065
 2789SOL    HW119586   6.072   9.639   5.115
 2789SOL    HW219587   5.940   9.656   5.019
 2790SOL     OW19588   2.150   1.568   4.153
 2790SOL    HW119589   2.114   1.475   4.159
 2790SOL    HW219590   2.117   1.611   4.068
 2791SOL     OW19591   6.920   1.582   5.519
 2791SOL    HW119592   6.956   1.635   5.442
 2791SOL    HW219593   6.820   1.587   5.519
 2792SOL     OW19594   0.963   8.015   2.256
 2792SOL    HW119595   0.949   7.921   2.224
 2792SOL    HW219596   1.013   8.013   2.342
 2793SOL     OW19597   2.047   0.310   2.500
 2793SOL    HW119598   2.087   0.349   2.417
 2793SOL    HW219599   2.068   0.369   2.578
 2794SOL     OW19600   8.738   9.991   3.647
 2794SOL    HW119601   8.674   0.028   3.580
 2794SOL    HW219602   8.687   9.939   3.716
 2795SOL     OW19603   1.160   4.175   0.971
 2795SOL    HW119604   1.171   4.171   1.071
 2795SOL    HW219605   1.196   4.092   0.930
 2796SOL     OW19606   9.214   6.220   4.148
 2796SOL    HW119607   9.306   6.181   4.155
 2796SOL    HW219608   9.196   6.278   4.227
 2797SOL     OW19609   0.418   3.263   4.783
 2797SOL    HW119610   0.329   3.308   4.773
 2797SOL    HW219611   0.486   3.312   4.728
 2798SOL     OW19612   1.332   6.448   6.370
 2798SOL    HW119613   1.254   6.508   6.384
 2798SOL    HW219614   1.405   6.498   6.322
 2799SOL     OW19615   9.155   1.394   4.581
 2799SOL    HW119616   9.205   1.468   4.536
 2799SOL    HW219617   9.218   1.342   4.639
 2800SOL     OW19618   2.403   7.775   2.507
 2800SOL    HW119619   2.396   7.730   2.596
 2800SOL    HW219620   2.369   7.713   2.436
 2801SOL     OW19621   5.516   9.866   5.662
 2801SOL    HW119622   5.422   9.857   5.629
 2801SOL    HW219623   5.573   9.795   5.620
 2802SOL     OW19624   3.443   8.764   1.227
 2802SOL    HW119625   3.394   8.730   1.307
 2802SOL    HW219626   3.398   8.729   1.144
 2803SOL     OW19627   5.981   8.764   5.906
 2803SOL    HW119628   5.977   8.864   5.911
 2803SOL    HW219629   6.067   8.736   5.864
 2804SOL     OW19630   8.857   2.843   6.260
 2804SOL    HW119631   8.928   2.894   6.212
 2804SOL    HW219632   8.880   2.746   6.261
 2805SOL     OW19633   9.392   3.659   4.946
 2805SOL    HW119634   9.419   3.604   5.025
 2805SOL    HW219635   9.473   3.679   4.890
 2806SOL     OW19636   8.230   2.450   1.886
 2806SOL    HW119637   8.202   2.394   1.809
 2806SOL    HW219638   8.186   2.539   1.880
 2807SOL     OW19639   7.905   3.783   6.176
 2807SOL    HW119640   7.830   3.742   6.227
 2807SOL    HW219641   7.919   3.731   6.091
 2808SOL     OW19642   5.076   1.831   2.490
 2808SOL    HW119643   5.043   1.803   2.580
 2808SOL    HW219644   5.168   1.870   2.499
 2809SOL     OW19645   6.226   1.121   0.123
 2809SOL    HW119646   6.270   1.202   0.085
 2809SOL    HW219647   6.209   1.054   0.051
 2810SOL     OW19648   1.248   4.935   4.666
 2810SOL    HW119649   1.175   4.992   4.705
 2810SOL    HW219650   1.212   4.844   4.647
 2811SOL     OW19651   0.322   5.208   5.564
 2811SOL    HW119652   0.272   5.122   5.554
 2811SOL    HW219653   0.375   5.225   5.481
 2812SOL     OW19654   4.579   1.500   0.680
 2812SOL    HW119655   4.648   1.446   0.631
 2812SOL    HW219656   4.620   1.584   0.714
 2813SOL     OW19657   8.088   4.513   0.632
 2813SOL    HW119658   8.121   4.423   0.661
 2813SOL    HW219659   8.010   4.540   0.689
 2814SOL     OW19660   4.746   6.343   2.225
 2814SOL    HW119661   4.684   6.378   2.295
 2814SOL    HW219662   4.822   6.295   2.269
 2815SOL     OW19663   9.924   6.757   3.747
 2815SOL    HW119664   0.005   6.702   3.726
 2815SOL    HW219665   9.888   6.730   3.837
 2816SOL     OW19666   6.934   7.555   3.928
 2816SOL    HW119667   6.849   7.598   3.897
 2816SOL    HW219668   6.916   7.498   4.008
 2817SOL     OW19669   0.891   3.441   6.074
 2817SOL    HW119670   0.822   3.513   6.062
 2817SOL    HW219671   0.929   3.447   6.167
 2818SOL     OW19672   2.254   8.203   4.999
 2818SOL    HW119673   2.236   8.136   4.927
 2818SOL    HW219674   2.272   8.292   4.957
 2819SOL     OW19675   6.457   9.128   2.298
 2819SOL    HW119676   6.500   9.137   2.387
 2819SOL    HW219677   6.493   9.197   2.235
 2820SOL     OW19678   8.034   4.334   4.882
 2820SOL    HW119679   8.069   4.306   4.793
 2820SOL    HW219680   8.051   4.432   4.895
 2821SOL     OW19681   9.279   4.963   2.506
 2821SOL    HW119682   9.281   4.868   2.536
 2821SOL    HW219683   9.289   5.024   2.585
 2822SOL     OW19684   3.112   7.966   2.641
 2822SOL    HW119685   3.143   8.043   2.697
 2822SOL    HW219686   3.024   7.933   2.676
 2823SOL     OW19687   6.592   0.808   1.485
 2823SOL    HW119688   6.511   0.846   1.530
 2823SOL    HW219689   6.638   0.746   1.548
 2824SOL     OW19690   9.306   1.188   4.718
 2824SOL    HW119691   9.233   1.165   4.783
 2824SOL    HW219692   9.288   1.144   4.631
 2825SOL     OW19693   2.550   4.967   2.389
 2825SOL    HW119694   2.483   4.947   2.318
 2825SOL    HW219695   2.504   4.976   2.477
 2826SOL     OW19696   5.847   8.070   5.555
 2826SOL    HW119697   5.810   7.987   5.515
 2826SOL    HW219698   5.885   8.128   5.483
 2827SOL     OW19699   5.475   0.319   6.131
 2827SOL    HW119700   5.408   0.364   6.072
 2827SOL    HW219701   5.550   0.383   6.149
 2828SOL     OW19702   3.228   5.453   1.962
 2828SOL    HW119703   3.157   5.399   2.007
 2828SOL    HW219704   3.300   5.392   1.930
 2829SOL     OW19705   0.337   2.402   1.614
 2829SOL    HW119706   0.375   2.413   1.706
 2829SOL    HW219707   0.408   2.369   1.552
 2830SOL     OW19708   4.642   4.758   0.530
 2830SOL    HW119709   4.616   4.705   0.449
 2830SOL    HW219710   4.568   4.756   0.596
 2831SOL     OW19711   0.073   5.858   0.476
 2831SOL    HW119712   0.041   5.881   0.384
 2831SOL    HW219713   0.116   5.768   0.475
 2832SOL     OW19714   2.851   4.962   5.351
 2832SOL    HW119715   2.943   4.936   5.322
 2832SOL    HW219716   2.833   5.057   5.325
 2833SOL     OW19717   9.240   7.108   5.523
 2833SOL    HW119718   9.167   7.113   5.591
 2833SOL    HW219719   9.213   7.044   5.450
 2834SOL     OW19720   9.518   4.609   0.688
 2834SOL    HW119721   9.501   4.587   0.784
 2834SOL    HW219722   9.473   4.541   0.630
 2835SOL     OW19723   8.178   3.169   1.946
 2835SOL    HW119724   8.277   3.163   1.959
 2835SOL    HW219725   8.136   3.205   2.029
 2836SOL     OW19726   9.202   0.345   4.551
 2836SOL    HW119727   9.171   0.440   4.561
 2836SOL    HW219728   9.135   0.284   4.594
 2837SOL     OW19729   3.819   3.262   0.523
 2837SOL    HW119730   3.775   3.346   0.494
 2837SOL    HW219731   3.770   3.183   0.486
 2838SOL     OW19732   9.224   1.200   1.271
 2838SOL    HW119733   9.239   1.102   1.286
 2838SOL    HW219734   9.204   1.216   1.174
 2839SOL     OW19735   8.595   7.645   6.023
 2839SOL    HW119736   8.684   7.613   5.992
 2839SOL    HW219737   8.549   7.696   5.950
 2840SOL     OW19738   1.367   2.514   0.633
 2840SOL    HW119739   1.344   2.537   0.539
 2840SOL    HW219740   1.309   2.438   0.664
 2841SOL     OW19741   0.335   4.128   5.274
 2841SOL    HW119742   0.355   4.038   5.312
 2841SOL    HW219743   0.343   4.197   5.345
 2842SOL     OW19744   9.763   1.201   2.492
 2842SOL    HW119745   9.790   1.108   2.517
 2842SOL    HW219746   9.738   1.252   2.574
 2843SOL     OW19747   9.374   9.755   3.329
 2843SOL    HW119748   9.282   9.731   3.360
 2843SOL    HW219749   9.399   9.697   3.251
 2844SOL     OW19750   2.220   0.432   3.064
 2844SOL    HW119751   2.273   0.362   3.016
 2844SOL    HW219752   2.135   0.450   3.014
 2845SOL     OW19753   0.508   0.263   3.237
 2845SOL    HW119754   0.490   0.177   3.188
 2845SOL    HW219755   0.536   0.242   3.331
 2846SOL     OW19756   8.625   7.604   5.490
 2846SOL    HW119757   8.610   7.515   5.446
 2846SOL    HW219758   8.713   7.604   5.537
 2847SOL     OW19759   2.469   7.761   1.267
 2847SOL    HW119760   2.530   7.691   1.305
 2847SOL    HW219761   2.427   7.812   1.342
 2848SOL     OW19762   2.423   7.806   4.461
 2848SOL    HW119763   2.334   7.773   4.492
 2848SOL    HW219764   2.410   7.889   4.406
 2849SOL     OW19765   1.111   2.547   5.662
 2849SOL    HW119766   1.056   2.630   5.678
 2849SOL    HW219767   1.050   2.470   5.645
 2850SOL     OW19768   3.378   7.355   5.968
 2850SOL    HW119769   3.354   7.404   5.885
 2850SOL    HW219770   3.477   7.342   5.971
 2851SOL     OW19771   6.844   8.208   4.821
 2851SOL    HW119772   6.745   8.208   4.834
 2851SOL    HW219773   6.886   8.149   4.889
 2852SOL     OW19774   1.514   7.799   5.281
 2852SOL    HW119775   1.424   7.786   5.323
 2852SOL    HW219776   1.571   7.855   5.341
 2853SOL     OW19777   0.306   8.308   5.612
 2853SOL    HW119778   0.252   8.299   5.696
 2853SOL    HW219779   0.332   8.404   5.601
 2854SOL     OW19780   1.185   5.362   0.979
 2854SOL    HW119781   1.261   5.352   0.915
 2854SOL    HW219782   1.203   5.438   1.041
 2855SOL     OW19783   0.804   6.858   5.638
 2855SOL    HW119784   0.885   6.914   5.621
 2855SOL    HW219785   0.831   6.769   5.674
 2856SOL     OW19786   7.479   0.895   5.371
 2856SOL    HW119787   7.422   0.977   5.358
 2856SOL    HW219788   7.539   0.909   5.450
 2857SOL     OW19789   7.067   8.279   6.355
 2857SOL    HW119790   7.067   8.186   6.318
 2857SOL    HW219791   6.994   8.332   6.311
 2858SOL     OW19792   8.551   9.061   3.291
 2858SOL    HW119793   8.629   9.094   3.238
 2858SOL    HW219794   8.469   9.114   3.266
 2859SOL     OW19795   0.630   6.735   4.233
 2859SOL    HW119796   0.582   6.664   4.285
 2859SOL    HW219797   0.630   6.710   4.136
 2860SOL     OW19798   2.515   1.891   0.665
 2860SOL    HW119799   2.421   1.876   0.637
 2860SOL    HW219800   2.562   1.947   0.598
 2861SOL     OW19801   0.979   8.724   6.298
 2861SOL    HW119802   1.010   8.816   6.323
 2861SOL    HW219803   0.967   8.719   6.198
 2862SOL     OW19804   5.814   9.144   2.076
 2862SOL    HW119805   5.836   9.190   1.990
 2862SOL    HW219806   5.824   9.208   2.152
 2863SOL     OW19807   1.677   3.248   5.571
 2863SOL    HW119808   1.740   3.186   5.524
 2863SOL    HW219809   1.673   3.223   5.668
 2864SOL     OW19810   8.392   1.469   1.936
 2864SOL    HW119811   8.341   1.553   1.918
 2864SOL    HW219812   8.424   1.470   2.031
 2865SOL     OW19813   1.413   4.362   5.569
 2865SOL    HW119814   1.413   4.436   5.503
 2865SOL    HW219815   1.387   4.396   5.659
 2866SOL     OW19816   6.462   1.249   1.201
 2866SOL    HW119817   6.452   1.163   1.151
 2866SOL    HW219818   6.479   1.323   1.135
 2867SOL     OW19819   9.126   7.186   0.554
 2867SOL    HW119820   9.142   7.191   0.653
 2867SOL    HW219821   9.043   7.135   0.536
 2868SOL     OW19822   3.131   5.635   1.771
 2868SOL    HW119823   3.171   5.575   1.840
 2868SOL    HW219824   3.032   5.641   1.785
 2869SOL     OW19825   0.995   1.862   4.727
 2869SOL    HW119826   1.002   1.912   4.813
 2869SOL    HW219827   1.087   1.838   4.695
 2870SOL     OW19828   1.393   8.857   1.954
 2870SOL    HW119829   1.332   8.936   1.948
 2870SOL    HW219830   1.387   8.818   2.046
 2871SOL     OW19831   3.205   2.729   1.636
 2871SOL    HW119832   3.145   2.761   1.709
 2871SOL    HW219833   3.257   2.650   1.669
 2872SOL     OW19834   3.734   3.391   5.528
 2872SOL    HW119835   3.690   3.396   5.617
 2872SOL    HW219836   3.740   3.483   5.489
 2873SOL     OW19837   8.033   6.131   4.841
 2873SOL    HW119838   8.034   6.132   4.741
 2873SOL    HW219839   8.033   6.224   4.876
 2874SOL     OW19840   7.755   8.295   5.302
 2874SOL    HW119841   7.791   8.241   5.378
 2874SOL    HW219842   7.683   8.243   5.255
 2875SOL     OW19843   7.547   8.960   5.544
 2875SOL    HW119844   7.588   8.874   5.513
 2875SOL    HW219845   7.543   9.024   5.467
 2876SOL     OW19846   6.284   1.618   3.073
 2876SOL    HW119847   6.353   1.689   3.064
 2876SOL    HW219848   6.246   1.620   3.166
 2877SOL     OW19849   3.294   3.115   3.997
 2877SOL    HW119850   3.360   3.044   4.022
 2877SOL    HW219851   3.205   3.073   3.978
 2878SOL     OW19852   9.278   6.665   4.081
 2878SOL    HW119853   9.223   6.729   4.027
 2878SOL    HW219854   9.261   6.682   4.179
 2879SOL     OW19855   5.046   4.109   0.172
 2879SOL    HW119856   5.101   4.142   0.096
 2879SOL    HW219857   5.018   4.186   0.229
 2880SOL     OW19858   7.809   3.151   2.511
 2880SOL    HW119859   7.814   3.083   2.584
 2880SOL    HW219860   7.723   3.141   2.461
 2881SOL     OW19861   1.863   0.712   2.624
 2881SOL    HW119862   1.872   0.667   2.535
 2881SOL    HW219863   1.815   0.799   2.612
 2882SOL     OW19864   3.550   1.115   3.839
 2882SOL    HW119865   3.615   1.039   3.837
 2882SOL    HW219866   3.595   1.196   3.876
 2883SOL     OW19867   0.245   3.338   4.416
 2883SOL    HW119868   0.292   3.404   4.475
 2883SOL    HW219869   0.205   3.266   4.472
 2884SOL     OW19870   1.510   7.883   2.040
 2884SOL    HW119871   1.540   7.796   2.003
 2884SOL    HW219872   1.504   7.951   1.967
 2885SOL     OW19873   3.609   2.671   4.770
 2885SOL    HW119874   3.690   2.730   4.769
 2885SOL    HW219875   3.638   2.575   4.774
 2886SOL     OW19876   2.758   9.429   2.633
 2886SOL    HW119877   2.734   9.406   2.539
 2886SOL    HW219878   2.857   9.432   2.642
 2887SOL     OW19879   2.016   2.628   2.693
 2887SOL    HW119880   2.060   2.709   2.731
 2887SOL    HW219881   2.030   2.626   2.594
 2888SOL     OW19882   0.189   9.254   4.239
 2888SOL    HW119883   0.187   9.314   4.319
 2888SOL    HW219884   0.096   9.229   4.215
 2889SOL     OW19885   1.372   6.572   2.587
 2889SOL    HW119886   1.318   6.626   2.652
 2889SOL    HW219887   1.385   6.480   2.624
 2890SOL     OW19888   8.883   2.345   1.089
 2890SOL    HW119889   8.975   2.368   1.055
 2890SOL    HW219890   8.866   2.395   1.174
 2891SOL     OW19891   9.675   3.069   1.744
 2891SOL    HW119892   9.735   3.116   1.680
 2891SOL    HW219893   9.627   2.995   1.697
 2892SOL     OW19894   2.722   7.854   3.852
 2892SOL    HW119895   2.793   7.925   3.857
 2892SOL    HW219896   2.634   7.894   3.877
 2893SOL     OW19897   1.070   3.276   0.121
 2893SOL    HW119898   1.023   3.215   0.058
 2893SOL    HW219899   1.016   3.360   0.133
 2894SOL     OW19900   3.919   6.238   3.837
 2894SOL    HW119901   3.888   6.322   3.794
 2894SOL    HW219902   3.919   6.164   3.771
 2895SOL     OW19903   7.306   2.915   0.712
 2895SOL    HW119904   7.269   2.855   0.783
 2895SOL    HW219905   7.385   2.871   0.668
 2896SOL     OW19906   1.695   8.041   2.895
 2896SOL    HW119907   1.643   8.119   2.929
 2896SOL    HW219908   1.729   7.987   2.971
 2897SOL     OW19909   1.243   8.489   2.880
 2897SOL    HW119910   1.173   8.498   2.809
 2897SOL    HW219911   1.332   8.476   2.838
 2898SOL     OW19912   8.035   0.130   4.609
 2898SOL    HW119913   8.012   0.104   4.703
 2898SOL    HW219914   8.031   0.049   4.551
 2899SOL     OW19915   1.315   5.698   4.876
 2899SOL    HW119916   1.284   5.772   4.817
 2899SOL    HW219917   1.394   5.653   4.836
 2900SOL     OW19918   1.653   6.391   5.370
 2900SOL    HW119919   1.605   6.319   5.319
 2900SOL    HW219920   1.590   6.434   5.433
 2901SOL     OW19921   3.269   6.775   2.379
 2901SOL    HW119922   3.353   6.736   2.344
 2901SOL    HW219923   3.190   6.735   2.332
 2902SOL     OW19924   0.516   8.637   6.295
 2902SOL    HW119925   0.535   8.540   6.314
 2902SOL    HW219926   0.493   8.648   6.198
 2903SOL     OW19927   9.290   0.431   0.957
 2903SOL    HW119928   9.341   0.375   1.022
 2903SOL    HW219929   9.339   0.436   0.870
 2904SOL     OW19930   4.752   7.415   5.493
 2904SOL    HW119931   4.680   7.354   5.525
 2904SOL    HW219932   4.819   7.429   5.566
 2905SOL     OW19933   8.700   1.972   5.477
 2905SOL    HW119934   8.662   1.905   5.541
 2905SOL    HW219935   8.786   1.936   5.439
 2906SOL     OW19936   4.545   2.692   0.526
 2906SOL    HW119937   4.553   2.593   0.512
 2906SOL    HW219938   4.603   2.719   0.603
 2907SOL     OW19939   5.059   2.031   5.263
 2907SOL    HW119940   4.991   2.091   5.305
 2907SOL    HW219941   5.018   1.940   5.249
 2908SOL     OW19942   4.033   0.736   0.477
 2908SOL    HW119943   4.103   0.720   0.407
 2908SOL    HW219944   3.959   0.791   0.438
 2909SOL     OW19945   4.466   6.407   0.805
 2909SOL    HW119946   4.540   6.430   0.743
 2909SOL    HW219947   4.493   6.330   0.863
 2910SOL     OW19948   1.648   8.895   5.780
 2910SOL    HW119949   1.631   8.914   5.877
 2910SOL    HW219950   1.642   8.980   5.728
 2911SOL     OW19951   2.312   8.785   1.493
 2911SOL    HW119952   2.323   8.691   1.526
 2911SOL    HW219953   2.238   8.830   1.543
 2912SOL     OW19954   7.622   1.776   5.790
 2912SOL    HW119955   7.685   1.754   5.716
 2912SOL    HW219956   7.532   1.738   5.769
 2913SOL     OW19957   3.684   2.051   5.722
 2913SOL    HW119958   3.633   2.134   5.746
 2913SOL    HW219959   3.621   1.982   5.689
 2914SOL     OW19960   2.652   7.448   1.735
 2914SOL    HW119961   2.637   7.541   1.702
 2914SOL    HW219962   2.564   7.404   1.753
 2915SOL     OW19963   1.760   6.760   6.022
 2915SOL    HW119964   1.732   6.777   6.117
 2915SOL    HW219965   1.850   6.799   6.006
 2916SOL     OW19966   6.282   0.190   1.447
 2916SOL    HW119967   6.254   0.164   1.354
 2916SOL    HW219968   6.328   0.113   1.491
 2917SOL     OW19969   9.188   4.612   3.176
 2917SOL    HW119970   9.185   4.512   3.179
 2917SOL    HW219971   9.094   4.648   3.172
 2918SOL     OW19972   0.361   8.447   4.340
 2918SOL    HW119973   0.459   8.464   4.333
 2918SOL    HW219974   0.342   8.350   4.329
 2919SOL     OW19975   1.622   7.603   4.762
 2919SOL    HW119976   1.674   7.569   4.684
 2919SOL    HW219977   1.666   7.684   4.799
 2920SOL     OW19978   2.914   2.325   2.323
 2920SOL    HW119979   3.009   2.347   2.304
 2920SOL    HW219980   2.901   2.315   2.422
 2921SOL     OW19981   2.704   5.465   6.132
 2921SOL    HW119982   2.659   5.477   6.221
 2921SOL    HW219983   2.635   5.443   6.063
 2922SOL     OW19984   9.255   3.517   0.704
 2922SOL    HW119985   9.302   3.603   0.725
 2922SOL    HW219986   9.316   3.458   0.651
 2923SOL     OW19987   9.966   3.551   0.976
 2923SOL    HW119988   9.891   3.510   1.029
 2923SOL    HW219989   0.045   3.490   0.977
 2924SOL     OW19990   6.138   2.395   5.499
 2924SOL    HW119991   6.049   2.349   5.496
 2924SOL    HW219992   6.206   2.337   5.454
 2925SOL     OW19993   6.850   8.861   5.146
 2925SOL    HW119994   6.929   8.919   5.165
 2925SOL    HW219995   6.848   8.786   5.211
 2926SOL     OW19996   4.612   4.903   1.569
 2926SOL    HW119997   4.532   4.951   1.535
 2926SOL    HW219998   4.609   4.898   1.668
 2927SOL     OW19999   0.301   7.629   2.906
 2927SOL    HW120000   0.284   7.563   2.833
 2927SOL    HW220001   0.215   7.652   2.952
 2928SOL     OW20002   7.832   8.134   5.522
 2928SOL    HW120003   7.757   8.129   5.588
 2928SOL    HW220004   7.870   8.043   5.508
 2929SOL     OW20005   8.419   3.359   4.499
 2929SOL    HW120006   8.365   3.277   4.519
 2929SOL    HW220007   8.363   3.441   4.518
 2930SOL     OW20008   4.817   1.397   3.061
 2930SOL    HW120009   4.797   1.327   3.130
 2930SOL    HW220010   4.894   1.367   3.005
 2931SOL     OW20011   2.716   8.967   4.128
 2931SOL    HW120012   2.765   8.881   4.139
 2931SOL    HW220013   2.734   9.026   4.207
 2932SOL     OW20014   1.822   3.794   6.308
 2932SOL    HW120015   1.860   3.723   6.369
 2932SOL    HW220016   1.808   3.755   6.217
 2933SOL     OW20017   9.331   6.103   2.598
 2933SOL    HW120018   9.396   6.116   2.524
 2933SOL    HW220019   9.346   6.014   2.641
 2934SOL     OW20020   3.339   3.582   0.822
 2934SOL    HW120021   3.310   3.528   0.744
 2934SOL    HW220022   3.264   3.589   0.888
 2935SOL     OW20023   7.972   0.577   1.594
 2935SOL    HW120024   8.030   0.634   1.537
 2935SOL    HW220025   7.929   0.505   1.539
 2936SOL     OW20026   6.143   4.048   0.798
 2936SOL    HW120027   6.086   4.080   0.723
 2936SOL    HW220028   6.102   4.076   0.885
 2937SOL     OW20029   7.904   8.639   3.480
 2937SOL    HW120030   7.965   8.619   3.557
 2937SOL    HW220031   7.957   8.641   3.395
 2938SOL     OW20032   1.346   6.009   5.135
 2938SOL    HW120033   1.317   5.914   5.147
 2938SOL    HW220034   1.391   6.019   5.047
 2939SOL     OW20035   9.177   3.405   5.462
 2939SOL    HW120036   9.123   3.327   5.494
 2939SOL    HW220037   9.269   3.374   5.438
 2940SOL     OW20038   9.087   4.625   5.253
 2940SOL    HW120039   9.184   4.605   5.237
 2940SOL    HW220040   9.079   4.693   5.325
 2941SOL     OW20041   8.874   9.070   5.736
 2941SOL    HW120042   8.966   9.095   5.707
 2941SOL    HW220043   8.821   9.153   5.754
 2942SOL     OW20044   4.019   1.415   3.314
 2942SOL    HW120045   4.109   1.386   3.283
 2942SOL    HW220046   3.963   1.441   3.235
 2943SOL     OW20047   9.264   3.947   2.220
 2943SOL    HW120048   9.168   3.973   2.217
 2943SOL    HW220049   9.291   3.924   2.313
 2944SOL     OW20050   3.427   7.904   3.461
 2944SOL    HW120051   3.508   7.870   3.509
 2944SOL    HW220052   3.453   7.980   3.401
 2945SOL     OW20053   0.939   7.200   3.017
 2945SOL    HW120054   1.014   7.135   3.003
 2945SOL    HW220055   0.930   7.257   2.935
 2946SOL     OW20056   3.419   1.790   4.796
 2946SOL    HW120057   3.322   1.812   4.802
 2946SOL    HW220058   3.452   1.759   4.885
 2947SOL     OW20059   6.301   3.225   0.735
 2947SOL    HW120060   6.307   3.245   0.637
 2947SOL    HW220061   6.317   3.308   0.787
 2948SOL     OW20062   7.834   9.455   4.606
 2948SOL    HW120063   7.867   9.474   4.514
 2948SOL    HW220064   7.772   9.376   4.604
 2949SOL     OW20065   2.818   9.415   1.560
 2949SOL    HW120066   2.730   9.434   1.603
 2949SOL    HW220067   2.816   9.324   1.519
 2950SOL     OW20068   1.596   4.037   4.961
 2950SOL    HW120069   1.529   3.964   4.975
 2950SOL    HW220070   1.548   4.124   4.950
 2951SOL     OW20071   1.887   6.671   3.193
 2951SOL    HW120072   1.914   6.641   3.102
 2951SOL    HW220073   1.955   6.734   3.229
 2952SOL     OW20074   0.038   6.118   2.871
 2952SOL    HW120075   0.100   6.041   2.858
 2952SOL    HW220076   9.979   6.128   2.790
 2953SOL     OW20077   1.797   9.653   2.286
 2953SOL    HW120078   1.891   9.653   2.320
 2953SOL    HW220079   1.740   9.710   2.345
 2954SOL     OW20080   2.453   9.200   6.097
 2954SOL    HW120081   2.432   9.105   6.074
 2954SOL    HW220082   2.546   9.206   6.133
 2955SOL     OW20083   1.796   2.335   3.031
 2955SOL    HW120084   1.796   2.411   3.095
 2955SOL    HW220085   1.841   2.256   3.072
 2956SOL     OW20086   0.984   2.227   0.269
 2956SOL    HW120087   0.942   2.303   0.319
 2956SOL    HW220088   0.912   2.174   0.223
 2957SOL     OW20089   2.440   4.474   0.149
 2957SOL    HW120090   2.462   4.381   0.119
 2957SOL    HW220091   2.501   4.500   0.224
 2958SOL     OW20092   4.106   6.811   3.580
 2958SOL    HW120093   4.103   6.742   3.507
 2958SOL    HW220094   4.065   6.896   3.547
 2959SOL     OW20095   7.020   5.117   0.325
 2959SOL    HW120096   7.040   5.052   0.252
 2959SOL    HW220097   7.000   5.066   0.409
 2960SOL     OW20098   7.492   2.517   2.374
 2960SOL    HW120099   7.483   2.417   2.378
 2960SOL    HW220100   7.577   2.540   2.326
 2961SOL     OW20101   6.438   3.052   0.492
 2961SOL    HW120102   6.409   2.978   0.552
 2961SOL    HW220103   6.514   3.101   0.533
 2962SOL     OW20104   6.419   4.136   0.200
 2962SOL    HW120105   6.347   4.182   0.148
 2962SOL    HW220106   6.438   4.188   0.284
 2963SOL     OW20107   5.392   5.246   1.018
 2963SOL    HW120108   5.328   5.172   0.999
 2963SOL    HW220109   5.344   5.323   1.061
 2964SOL     OW20110   7.074   4.495   0.485
 2964SOL    HW120111   7.069   4.411   0.540
 2964SOL    HW220112   7.164   4.502   0.443
 2965SOL     OW20113   2.485   5.482   5.142
 2965SOL    HW120114   2.410   5.429   5.101
 2965SOL    HW220115   2.567   5.472   5.086
 2966SOL     OW20116   7.120   2.619   2.099
 2966SOL    HW120117   7.165   2.633   2.011
 2966SOL    HW220118   7.082   2.527   2.104
 2967SOL     OW20119   1.340   4.698   1.510
 2967SOL    HW120120   1.406   4.731   1.442
 2967SOL    HW220121   1.250   4.692   1.467
 2968SOL     OW20122   1.874   4.576   3.759
 2968SOL    HW120123   1.971   4.556   3.774
 2968SOL    HW220124   1.836   4.513   3.692
 2969SOL     OW20125   6.508   0.397   5.801
 2969SOL    HW120126   6.448   0.319   5.785
 2969SOL    HW220127   6.453   0.476   5.828
 2970SOL     OW20128   2.865   5.351   1.446
 2970SOL    HW120129   2.838   5.277   1.384
 2970SOL    HW220130   2.784   5.394   1.485
 2971SOL     OW20131   6.868   8.900   6.282
 2971SOL    HW120132   6.926   8.972   6.245
 2971SOL    HW220133   6.924   8.820   6.304
 2972SOL     OW20134   9.600   2.175   5.099
 2972SOL    HW120135   9.638   2.129   5.180
 2972SOL    HW220136   9.574   2.106   5.032
 2973SOL     OW20137   0.222   5.876   4.880
 2973SOL    HW120138   0.180   5.964   4.859
 2973SOL    HW220139   0.250   5.874   4.976
 2974SOL     OW20140   7.154   2.865   3.285
 2974SOL    HW120141   7.110   2.807   3.216
 2974SOL    HW220142   7.212   2.933   3.239
 2975SOL     OW20143   3.105   2.181   5.080
 2975SOL    HW120144   3.114   2.262   5.136
 2975SOL    HW220145   3.036   2.197   5.009
 2976SOL     OW20146   0.703   1.578   4.149
 2976SOL    HW120147   0.803   1.582   4.152
 2976SOL    HW220148   0.671   1.501   4.205
 2977SOL     OW20149   1.590   0.990   2.201
 2977SOL    HW120150   1.515   0.943   2.154
 2977SOL    HW220151   1.555   1.073   2.245
 2978SOL     OW20152   2.972   9.909   3.404
 2978SOL    HW120153   2.911   9.984   3.431
 2978SOL    HW220154   3.059   9.919   3.452
 2979SOL     OW20155   2.047   1.937   4.332
 2979SOL    HW120156   2.132   1.959   4.284
 2979SOL    HW220157   2.067   1.874   4.407
 2980SOL     OW20158   4.093   8.606   6.096
 2980SOL    HW120159   4.006   8.562   6.073
 2980SOL    HW220160   4.082   8.705   6.096
 2981SOL     OW20161   8.109   8.892   5.200
 2981SOL    HW120162   8.122   8.793   5.204
 2981SOL    HW220163   8.069   8.918   5.112
 2982SOL     OW20164   2.388   3.667   5.555
 2982SOL    HW120165   2.337   3.753   5.550
 2982SOL    HW220166   2.338   3.602   5.612
 2983SOL     OW20167   3.697   1.097   1.073
 2983SOL    HW120168   3.648   1.069   0.990
 2983SOL    HW220169   3.793   1.072   1.065
 2984SOL     OW20170   9.772   5.296   2.007
 2984SOL    HW120171   9.739   5.352   1.930
 2984SOL    HW220172   9.694   5.252   2.051
 2985SOL     OW20173   4.608   1.918   5.514
 2985SOL    HW120174   4.620   1.980   5.437
 2985SOL    HW220175   4.525   1.944   5.565
 2986SOL     OW20176   6.327   0.729   4.244
 2986SOL    HW120177   6.311   0.817   4.289
 2986SOL    HW220178   6.367   0.665   4.308
 2987SOL     OW20179   0.879   4.099   2.715
 2987SOL    HW120180   0.826   4.014   2.709
 2987SOL    HW220181   0.899   4.132   2.622
 2988SOL     OW20182   3.959   2.289   6.279
 2988SOL    HW120183   3.878   2.326   6.325
 2988SOL    HW220184   3.993   2.209   6.329
 2989SOL     OW20185   2.745   4.571   4.026
 2989SOL    HW120186   2.720   4.665   4.002
 2989SOL    HW220187   2.719   4.552   4.121
 2990SOL     OW20188   1.988   4.471   6.207
 2990SOL    HW120189   1.930   4.416   6.267
 2990SOL    HW220190   2.058   4.412   6.167
 2991SOL     OW20191   0.589   7.724   1.467
 2991SOL    HW120192   0.580   7.733   1.368
 2991SOL    HW220193   0.519   7.778   1.512
 2992SOL     OW20194   4.318   9.616   6.371
 2992SOL    HW120195   4.390   9.658   6.317
 2992SOL    HW220196   4.246   9.683   6.390
 2993SOL     OW20197   5.608   1.987   5.153
 2993SOL    HW120198   5.568   1.897   5.131
 2993SOL    HW220199   5.589   2.050   5.078
 2994SOL     OW20200   0.327   8.279   0.980
 2994SOL    HW120201   0.399   8.342   0.952
 2994SOL    HW220202   0.355   8.230   1.063
 2995SOL     OW20203   1.049   0.315   3.512
 2995SOL    HW120204   1.030   0.332   3.609
 2995SOL    HW220205   1.140   0.350   3.489
 2996SOL     OW20206   3.612   4.863   0.727
 2996SOL    HW120207   3.525   4.901   0.694
 2996SOL    HW220208   3.662   4.823   0.650
 2997SOL     OW20209   8.567   6.881   2.765
 2997SOL    HW120210   8.563   6.938   2.683
 2997SOL    HW220211   8.518   6.927   2.839
 2998SOL     OW20212   1.656   9.539   0.600
 2998SOL    HW120213   1.756   9.549   0.601
 2998SOL    HW220214   1.626   9.521   0.507
 2999SOL     OW20215   4.692   5.351   2.331
 2999SOL    HW120216   4.626   5.300   2.275
 2999SOL    HW220217   4.645   5.423   2.381
 3000SOL     OW20218   1.113   2.755   2.789
 3000SOL    HW120219   1.073   2.664   2.794
 3000SOL    HW220220   1.205   2.749   2.751
 3001SOL     OW20221   9.151   3.964   5.434
 3001SOL    HW120222   9.105   3.898   5.493
 3001SOL    HW220223   9.097   4.049   5.430
 3002SOL     OW20224   3.142   9.591   0.220
 3002SOL    HW120225   3.078   9.623   0.290
 3002SOL    HW220226   3.153   9.661   0.150
 3003SOL     OW20227   4.390   8.623   4.516
 3003SOL    HW120228   4.410   8.698   4.454
 3003SOL    HW220229   4.419   8.536   4.476
 3004SOL     OW20230   4.834   6.385   1.024
 3004SOL    HW120231   4.766   6.428   1.083
 3004SOL    HW220232   4.892   6.455   0.984
 3005SOL     OW20233   7.272   0.588   2.014
 3005SOL    HW120234   7.211   0.650   1.965
 3005SOL    HW220235   7.219   0.538   2.082
 3006SOL     OW20236   4.274   5.477   4.074
 3006SOL    HW120237   4.185   5.434   4.089
 3006SOL    HW220238   4.262   5.564   4.028
 3007SOL     OW20239   9.978   9.228   3.499
 3007SOL    HW120240   0.042   9.156   3.475
 3007SOL    HW220241   9.970   9.234   3.599
 3008SOL     OW20242   7.939   3.636   3.471
 3008SOL    HW120243   8.032   3.598   3.472
 3008SOL    HW220244   7.890   3.602   3.391
 3009SOL     OW20245   7.872   6.766   5.774
 3009SOL    HW120246   7.875   6.730   5.681
 3009SOL    HW220247   7.861   6.866   5.772
 3010SOL     OW20248   7.732   4.236   0.739
 3010SOL    HW120249   7.704   4.324   0.701
 3010SOL    HW220250   7.657   4.197   0.792
 3011SOL     OW20251   3.869   5.503   5.691
 3011SOL    HW120252   3.833   5.559   5.766
 3011SOL    HW220253   3.954   5.459   5.719
 3012SOL     OW20254   0.893   0.465   0.829
 3012SOL    HW120255   0.870   0.369   0.816
 3012SOL    HW220256   0.934   0.502   0.746
 3013SOL     OW20257   7.355   0.097   2.532
 3013SOL    HW120258   7.397   0.009   2.512
 3013SOL    HW220259   7.377   0.124   2.626
 3014SOL     OW20260   1.781   6.632   1.958
 3014SOL    HW120261   1.863   6.644   2.014
 3014SOL    HW220262   1.807   6.631   1.861
 3015SOL     OW20263   1.389   6.793   3.848
 3015SOL    HW120264   1.388   6.726   3.922
 3015SOL    HW220265   1.433   6.753   3.768
 3016SOL     OW20266   8.146   3.405   3.765
 3016SOL    HW120267   8.069   3.468   3.773
 3016SOL    HW220268   8.185   3.388   3.856
 3017SOL     OW20269   0.171   5.601   2.209
 3017SOL    HW120270   0.225   5.620   2.126
 3017SOL    HW220271   0.102   5.531   2.188
 3018SOL     OW20272   1.225   0.470   1.062
 3018SOL    HW120273   1.309   0.477   1.115
 3018SOL    HW220274   1.243   0.496   0.967
 3019SOL     OW20275   3.741   3.624   1.019
 3019SOL    HW120276   3.822   3.661   0.974
 3019SOL    HW220277   3.695   3.697   1.070
 3020SOL     OW20278   1.467   0.178   0.392
 3020SOL    HW120279   1.543   0.114   0.405
 3020SOL    HW220280   1.400   0.138   0.330
 3021SOL     OW20281   4.276   3.908   2.551
 3021SOL    HW120282   4.252   3.930   2.646
 3021SOL    HW220283   4.367   3.944   2.531
 3022SOL     OW20284   7.469   1.913   6.167
 3022SOL    HW120285   7.402   1.922   6.094
 3022SOL    HW220286   7.555   1.876   6.129
 3023SOL     OW20287   8.840   7.978   5.880
 3023SOL    HW120288   8.829   7.984   5.980
 3023SOL    HW220289   8.751   7.990   5.836
 3024SOL     OW20290   2.402   6.860   0.592
 3024SOL    HW120291   2.349   6.792   0.642
 3024SOL    HW220292   2.365   6.951   0.610
 3025SOL     OW20293   0.722   4.542   4.048
 3025SOL    HW120294   0.673   4.618   4.090
 3025SOL    HW220295   0.659   4.490   3.990
 3026SOL     OW20296   1.803   6.019   3.705
 3026SOL    HW120297   1.800   5.985   3.799
 3026SOL    HW220298   1.831   5.945   3.644
 3027SOL     OW20299   3.408   1.911   2.635
 3027SOL    HW120300   3.502   1.880   2.619
 3027SOL    HW220301   3.406   2.011   2.635
 3028SOL     OW20302   1.924   6.978   3.454
 3028SOL    HW120303   1.886   6.928   3.532
 3028SOL    HW220304   1.850   7.006   3.393
 3029SOL     OW20305   0.198   1.658   2.273
 3029SOL    HW120306   0.271   1.687   2.212
 3029SOL    HW220307   0.229   1.579   2.327
 3030SOL     OW20308   5.532   4.474   1.862
 3030SOL    HW120309   5.539   4.574   1.865
 3030SOL    HW220310   5.623   4.435   1.848
 3031SOL     OW20311   4.892   7.474   5.013
 3031SOL    HW120312   4.977   7.422   5.002
 3031SOL    HW220313   4.836   7.465   4.931
 3032SOL     OW20314   2.411   9.601   2.320
 3032SOL    HW120315   2.477   9.673   2.301
 3032SOL    HW220316   2.454   9.511   2.309
 3033SOL     OW20317   0.132   1.283   2.498
 3033SOL    HW120318   0.202   1.343   2.460
 3033SOL    HW220319   0.135   1.195   2.451
 3034SOL     OW20320   7.958   8.319   4.584
 3034SOL    HW120321   7.998   8.324   4.675
 3034SOL    HW220322   7.977   8.229   4.544
 3035SOL     OW20323   8.565   7.123   3.873
 3035SOL    HW120324   8.489   7.066   3.843
 3035SOL    HW220325   8.650   7.088   3.835
 3036SOL     OW20326   4.178   4.221   2.700
 3036SOL    HW120327   4.187   4.134   2.748
 3036SOL    HW220328   4.269   4.253   2.673
 3037SOL     OW20329   0.174   1.863   1.007
 3037SOL    HW120330   0.135   1.941   1.057
 3037SOL    HW220331   0.150   1.778   1.055
 3038SOL     OW20332   9.145   3.946   2.564
 3038SOL    HW120333   9.147   4.025   2.625
 3038SOL    HW220334   9.238   3.925   2.532
 3039SOL     OW20335   8.911   8.656   5.001
 3039SOL    HW120336   8.899   8.657   5.100
 3039SOL    HW220337   8.823   8.672   4.956
 3040SOL     OW20338   8.205   9.947   0.369
 3040SOL    HW120339   8.139   0.014   0.334
 3040SOL    HW220340   8.192   9.936   0.468
 3041SOL     OW20341   8.284   5.619   2.960
 3041SOL    HW120342   8.350   5.546   2.940
 3041SOL    HW220343   8.309   5.664   3.046
 3042SOL     OW20344   4.449   8.258   2.136
 3042SOL    HW120345   4.351   8.239   2.146
 3042SOL    HW220346   4.461   8.352   2.105
 3043SOL     OW20347   8.230   0.732   3.070
 3043SOL    HW120348   8.205   0.638   3.048
 3043SOL    HW220349   8.329   0.738   3.081
 3044SOL     OW20350   1.640   1.312   4.711
 3044SOL    HW120351   1.628   1.365   4.795
 3044SOL    HW220352   1.557   1.259   4.693
 3045SOL     OW20353   2.973   7.491   5.092
 3045SOL    HW120354   2.997   7.396   5.114
 3045SOL    HW220355   3.053   7.549   5.107
 3046SOL     OW20356   0.934   7.514   0.957
 3046SOL    HW120357   0.941   7.437   0.894
 3046SOL    HW220358   1.016   7.517   1.015
 3047SOL     OW20359   1.910   7.131   0.149
 3047SOL    HW120360   1.970   7.198   0.193
 3047SOL    HW220361   1.930   7.040   0.185
 3048SOL     OW20362   9.644   1.516   3.707
 3048SOL    HW120363   9.567   1.504   3.643
 3048SOL    HW220364   9.691   1.602   3.686
 3049SOL     OW20365   9.266   8.498   0.194
 3049SOL    HW120366   9.198   8.495   0.120
 3049SOL    HW220367   9.331   8.572   0.176
 3050SOL     OW20368   3.397   9.898   4.674
 3050SOL    HW120369   3.362   9.958   4.603
 3050SOL    HW220370   3.456   9.949   4.736
 3051SOL     OW20371   0.387   7.908   0.495
 3051SOL    HW120372   0.316   7.930   0.428
 3051SOL    HW220373   0.406   7.988   0.552
 3052SOL     OW20374   4.185   4.470   3.305
 3052SOL    HW120375   4.187   4.503   3.211
 3052SOL    HW220376   4.101   4.417   3.320
 3053SOL     OW20377   2.400   0.149   4.540
 3053SOL    HW120378   2.417   0.235   4.494
 3053SOL    HW220379   2.416   0.160   4.639
 3054SOL     OW20380   4.238   6.622   2.583
 3054SOL    HW120381   4.259   6.711   2.623
 3054SOL    HW220382   4.274   6.618   2.490
 3055SOL     OW20383   5.111   8.773   5.533
 3055SOL    HW120384   5.021   8.817   5.527
 3055SOL    HW220385   5.158   8.781   5.445
 3056SOL     OW20386   7.162   2.782   4.724
 3056SOL    HW120387   7.111   2.858   4.684
 3056SOL    HW220388   7.247   2.768   4.674
 3057SOL     OW20389   2.063   7.588   5.127
 3057SOL    HW120390   2.105   7.657   5.068
 3057SOL    HW220391   2.001   7.632   5.191
 3058SOL     OW20392   5.928   1.730   2.433
 3058SOL    HW120393   5.882   1.660   2.377
 3058SOL    HW220394   5.937   1.814   2.380
 3059SOL     OW20395   1.438   0.395   2.383
 3059SOL    HW120396   1.429   0.489   2.415
 3059SOL    HW220397   1.352   0.364   2.344
 3060SOL     OW20398   3.209   7.458   0.629
 3060SOL    HW120399   3.212   7.358   0.621
 3060SOL    HW220400   3.208   7.499   0.538
 3061SOL     OW20401   0.885   7.041   6.289
 3061SOL    HW120402   0.974   7.086   6.300
 3061SOL    HW220403   0.830   7.091   6.222
 3062SOL     OW20404   6.791   9.225   3.693
 3062SOL    HW120405   6.764   9.278   3.612
 3062SOL    HW220406   6.862   9.159   3.668
 3063SOL     OW20407   8.197   2.406   3.941
 3063SOL    HW120408   8.254   2.327   3.917
 3063SOL    HW220409   8.126   2.377   4.005
 3064SOL     OW20410   6.927   9.862   4.355
 3064SOL    HW120411   6.830   9.887   4.347
 3064SOL    HW220412   6.979   9.942   4.384
 3065SOL     OW20413   1.513   8.136   0.225
 3065SOL    HW120414   1.440   8.196   0.196
 3065SOL    HW220415   1.557   8.174   0.306
 3066SOL     OW20416   4.534   0.128   1.765
 3066SOL    HW120417   4.502   0.038   1.794
 3066SOL    HW220418   4.469   0.197   1.796
 3067SOL     OW20419   9.777   4.063   5.156
 3067SOL    HW120420   9.722   4.142   5.130
 3067SOL    HW220421   9.866   4.093   5.190
 3068SOL     OW20422   1.923   3.651   4.393
 3068SOL    HW120423   1.891   3.568   4.440
 3068SOL    HW220424   1.991   3.697   4.450
 3069SOL     OW20425   2.004   1.798   5.285
 3069SOL    HW120426   2.034   1.848   5.366
 3069SOL    HW220427   1.916   1.835   5.254
 3070SOL     OW20428   0.145   7.675   0.731
 3070SOL    HW120429   0.093   7.752   0.694
 3070SOL    HW220430   0.177   7.617   0.656
 3071SOL     OW20431   6.928   2.516   3.401
 3071SOL    HW120432   7.013   2.517   3.348
 3071SOL    HW220433   6.927   2.593   3.464
 3072SOL     OW20434   2.208   9.536   0.272
 3072SOL    HW120435   2.287   9.582   0.311
 3072SOL    HW220436   2.201   9.444   0.310
 3073SOL     OW20437   3.362   3.733   3.286
 3073SOL    HW120438   3.393   3.806   3.225
 3073SOL    HW220439   3.386   3.756   3.380
 3074SOL     OW20440   7.195   3.145   4.244
 3074SOL    HW120441   7.109   3.103   4.216
 3074SOL    HW220442   7.233   3.096   4.322
 3075SOL     OW20443   0.026   7.461   4.451
 3075SOL    HW120444   9.960   7.533   4.433
 3075SOL    HW220445   0.094   7.493   4.517
 3076SOL     OW20446   3.227   4.029   0.470
 3076SOL    HW120447   3.203   3.975   0.551
 3076SOL    HW220448   3.319   4.064   0.480
 3077SOL     OW20449   2.655   7.590   1.380
 3077SOL    HW120450   2.661   7.632   1.471
 3077SOL    HW220451   2.734   7.619   1.326
 3078SOL     OW20452   7.502   3.000   5.438
 3078SOL    HW120453   7.555   2.996   5.522
 3078SOL    HW220454   7.540   3.070   5.378
 3079SOL     OW20455   3.086   4.811   2.290
 3079SOL    HW120456   3.048   4.838   2.378
 3079SOL    HW220457   3.087   4.891   2.229
 3080SOL     OW20458   0.024   5.773   4.232
 3080SOL    HW120459   0.005   5.852   4.173
 3080SOL    HW220460   0.002   5.797   4.327
 3081SOL     OW20461   7.751   1.996   4.761
 3081SOL    HW120462   7.842   2.037   4.760
 3081SOL    HW220463   7.742   1.933   4.684
 3082SOL     OW20464   7.946   1.055   2.192
 3082SOL    HW120465   8.007   1.010   2.127
 3082SOL    HW220466   7.964   1.153   2.191
 3083SOL     OW20467   3.949   0.161   6.148
 3083SOL    HW120468   3.940   0.096   6.224
 3083SOL    HW220469   3.972   0.251   6.184
 3084SOL     OW20470   1.211   4.065   2.503
 3084SOL    HW120471   1.272   4.137   2.536
 3084SOL    HW220472   1.119   4.102   2.491
 3085SOL     OW20473   3.610   1.579   0.021
 3085SOL    HW120474   3.651   1.582   8.118
 3085SOL    HW220475   3.521   1.534   0.016
 3086SOL     OW20476   4.482   4.136   0.752
 3086SOL    HW120477   4.507   4.093   0.839
 3086SOL    HW220478   4.399   4.093   0.717
 3087SOL     OW20479   6.573   0.993   4.059
 3087SOL    HW120480   6.543   0.965   3.968
 3087SOL    HW220481   6.589   0.912   4.115
 3088SOL     OW20482   7.654   0.123   6.086
 3088SOL    HW120483   7.593   0.202   6.077
 3088SOL    HW220484   7.616   0.059   6.153
 3089SOL     OW20485   6.061   4.499   1.501
 3089SOL    HW120486   5.991   4.428   1.495
 3089SOL    HW220487   6.042   4.571   1.435
 3090SOL     OW20488   7.293   1.058   0.541
 3090SOL    HW120489   7.207   1.107   0.555
 3090SOL    HW220490   7.332   1.085   0.453
 3091SOL     OW20491   9.019   3.481   2.626
 3091SOL    HW120492   8.988   3.480   2.531
 3091SOL    HW220493   9.020   3.576   2.659
 3092SOL     OW20494   2.705   2.800   3.698
 3092SOL    HW120495   2.781   2.764   3.644
 3092SOL    HW220496   2.680   2.734   3.768
 3093SOL     OW20497   1.908   4.661   0.197
 3093SOL    HW120498   1.999   4.633   0.164
 3093SOL    HW220499   1.916   4.693   0.291
 3094SOL     OW20500   3.366   6.812   3.826
 3094SOL    HW120501   3.378   6.715   3.849
 3094SOL    HW220502   3.450   6.861   3.849
 3095SOL     OW20503   5.202   5.352   0.367
 3095SOL    HW120504   5.151   5.294   0.304
 3095SOL    HW220505   5.160   5.443   0.370
 3096SOL     OW20506   1.739   4.620   1.277
 3096SOL    HW120507   1.778   4.581   1.360
 3096SOL    HW220508   1.733   4.549   1.207
 3097SOL     OW20509   6.080   9.704   2.653
 3097SOL    HW120510   6.094   9.796   2.618
 3097SOL    HW220511   5.982   9.683   2.652
 3098SOL     OW20512   8.644   5.308   4.262
 3098SOL    HW120513   8.700   5.258   4.196
 3098SOL    HW220514   8.593   5.244   4.319
 3099SOL     OW20515   1.707   9.339   4.602
 3099SOL    HW120516   1.764   9.414   4.570
 3099SOL    HW220517   1.612   9.371   4.610
 3100SOL     OW20518   6.354   1.338   0.002
 3100SOL    HW120519   6.430   1.379   0.053
 3100SOL    HW220520   6.385   1.314   8.099
 3101SOL     OW20521   4.630   6.902   2.170
 3101SOL    HW120522   4.556   6.857   2.121
 3101SOL    HW220523   4.612   7.000   2.174
 3102SOL     OW20524   5.426   0.651   5.673
 3102SOL    HW120525   5.450   0.722   5.607
 3102SOL    HW220526   5.509   0.621   5.721
 3103SOL     OW20527   5.783   3.267   0.470
 3103SOL    HW120528   5.799   3.244   0.374
 3103SOL    HW220529   5.792   3.185   0.527
 3104SOL     OW20530   7.656   1.061   0.357
 3104SOL    HW120531   7.715   1.138   0.330
 3104SOL    HW220532   7.560   1.086   0.344
 3105SOL     OW20533   5.988   8.453   4.604
 3105SOL    HW120534   5.946   8.371   4.567
 3105SOL    HW220535   6.068   8.428   4.658
 3106SOL     OW20536   3.762   2.905   0.990
 3106SOL    HW120537   3.807   2.869   0.908
 3106SOL    HW220538   3.763   3.005   0.988
 3107SOL     OW20539   7.046   1.529   1.695
 3107SOL    HW120540   6.985   1.452   1.675
 3107SOL    HW220541   7.037   1.555   1.791
 3108SOL     OW20542   7.519   0.765   4.657
 3108SOL    HW120543   7.534   0.668   4.675
 3108SOL    HW220544   7.438   0.796   4.706
 3109SOL     OW20545   8.555   0.379   1.784
 3109SOL    HW120546   8.492   0.336   1.720
 3109SOL    HW220547   8.514   0.463   1.820
 3110SOL     OW20548   6.024   5.101   1.498
 3110SOL    HW120549   5.984   5.154   1.423
 3110SOL    HW220550   6.123   5.097   1.487
 3111SOL     OW20551   2.656   7.584   3.015
 3111SOL    HW120552   2.627   7.580   3.111
 3111SOL    HW220553   2.747   7.543   3.006
 3112SOL     OW20554   2.545   8.921   1.426
 3112SOL    HW120555   2.609   8.931   1.503
 3112SOL    HW220556   2.463   8.873   1.457
 3113SOL     OW20557   0.553   0.485   4.879
 3113SOL    HW120558   0.595   0.441   4.958
 3113SOL    HW220559   0.581   0.438   4.796
 3114SOL     OW20560   9.800   0.815   3.282
 3114SOL    HW120561   9.723   0.872   3.254
 3114SOL    HW220562   9.880   0.872   3.300
 3115SOL     OW20563   9.450   1.286   2.006
 3115SOL    HW120564   9.400   1.274   2.091
 3115SOL    HW220565   9.533   1.229   2.007
 3116SOL     OW20566   5.239   0.146   4.789
 3116SOL    HW120567   5.205   0.222   4.844
 3116SOL    HW220568   5.225   0.060   4.838
 3117SOL     OW20569   2.143   1.830   1.767
 3117SOL    HW120570   2.130   1.843   1.669
 3117SOL    HW220571   2.122   1.916   1.815
 3118SOL     OW20572   8.169   1.470   2.624
 3118SOL    HW120573   8.193   1.394   2.563
 3118SOL    HW220574   8.071   1.466   2.644
 3119SOL     OW20575   8.321   3.989   2.021
 3119SOL    HW120576   8.305   3.948   1.931
 3119SOL    HW220577   8.411   4.032   2.022
 3120SOL     OW20578   5.169   1.605   2.154
 3120SOL    HW120579   5.169   1.595   2.054
 3120SOL    HW220580   5.119   1.688   2.179
 3121SOL     OW20581   5.011   7.337   2.394
 3121SOL    HW120582   5.047   7.253   2.354
 3121SOL    HW220583   4.961   7.389   2.324
 3122SOL     OW20584   3.697   1.668   0.544
 3122SOL    HW120585   3.750   1.611   0.481
 3122SOL    HW220586   3.689   1.622   0.632
 3123SOL     OW20587   1.090   9.800   3.790
 3123SOL    HW120588   1.011   9.858   3.769
 3123SOL    HW220589   1.083   9.714   3.740
 3124SOL     OW20590   9.337   9.550   0.266
 3124SOL    HW120591   9.412   9.491   0.238
 3124SOL    HW220592   9.327   9.545   0.366
 3125SOL     OW20593   9.953   6.229   2.195
 3125SOL    HW120594   9.926   6.148   2.247
 3125SOL    HW220595   9.917   6.222   2.102
 3126SOL     OW20596   8.157   1.212   3.856
 3126SOL    HW120597   8.109   1.290   3.897
 3126SOL    HW220598   8.245   1.200   3.903
 3127SOL     OW20599   6.828   1.539   0.235
 3127SOL    HW120600   6.809   1.532   0.333
 3127SOL    HW220601   6.921   1.508   0.217
 3128SOL     OW20602   5.232   4.558   0.573
 3128SOL    HW120603   5.293   4.600   0.506
 3128SOL    HW220604   5.260   4.464   0.591
 3129SOL     OW20605   9.588   0.958   3.192
 3129SOL    HW120606   9.499   0.929   3.156
 3129SOL    HW220607   9.583   1.054   3.219
 3130SOL     OW20608   4.630   9.395   5.511
 3130SOL    HW120609   4.711   9.365   5.460
 3130SOL    HW220610   4.596   9.320   5.567
 3131SOL     OW20611   0.363   7.620   4.209
 3131SOL    HW120612   0.304   7.540   4.214
 3131SOL    HW220613   0.389   7.648   4.301
 3132SOL     OW20614   1.768   8.897   4.164
 3132SOL    HW120615   1.807   8.807   4.147
 3132SOL    HW220616   1.842   8.965   4.166
 3133SOL     OW20617   8.634   0.755   4.118
 3133SOL    HW120618   8.706   0.809   4.077
 3133SOL    HW220619   8.545   0.791   4.090
 3134SOL     OW20620   1.868   2.000   6.293
 3134SOL    HW120621   1.862   2.099   6.301
 3134SOL    HW220622   1.956   1.969   6.327
 3135SOL     OW20623   0.799   9.845   5.686
 3135SOL    HW120624   0.813   9.897   5.770
 3135SOL    HW220625   0.702   9.847   5.662
 3136SOL     OW20626   2.542   8.225   3.435
 3136SOL    HW120627   2.468   8.183   3.383
 3136SOL    HW220628   2.629   8.208   3.389
 3137SOL     OW20629   1.324   4.187   4.225
 3137SOL    HW120630   1.394   4.117   4.234
 3137SOL    HW220631   1.283   4.183   4.133
 3138SOL     OW20632   0.523   9.378   3.515
 3138SOL    HW120633   0.579   9.453   3.483
 3138SOL    HW220634   0.459   9.351   3.443
 3139SOL     OW20635   0.375   6.623   2.106
 3139SOL    HW120636   0.449   6.558   2.121
 3139SOL    HW220637   0.338   6.610   2.013
 3140SOL     OW20638   0.175   6.049   4.487
 3140SOL    HW120639   0.116   6.077   4.411
 3140SOL    HW220640   0.236   5.976   4.456
 3141SOL     OW20641   9.129   5.285   2.685
 3141SOL    HW120642   9.177   5.348   2.625
 3141SOL    HW220643   9.070   5.225   2.630
 3142SOL     OW20644   8.756   5.551   0.986
 3142SOL    HW120645   8.835   5.490   0.995
 3142SOL    HW220646   8.675   5.497   0.965
 3143SOL     OW20647   9.082   8.625   6.000
 3143SOL    HW120648   9.137   8.583   6.072
 3143SOL    HW220649   9.120   8.714   5.976
 3144SOL     OW20650   2.254   7.878   6.175
 3144SOL    HW120651   2.349   7.907   6.184
 3144SOL    HW220652   2.244   7.786   6.212
 3145SOL     OW20653   9.035   5.167   4.551
 3145SOL    HW120654   9.098   5.244   4.562
 3145SOL    HW220655   9.049   5.126   4.461
 3146SOL     OW20656   3.589   8.340   3.403
 3146SOL    HW120657   3.629   8.276   3.469
 3146SOL    HW220658   3.627   8.431   3.418
 3147SOL     OW20659   7.970   9.929   5.894
 3147SOL    HW120660   7.906   9.853   5.910
 3147SOL    HW220661   8.033   9.904   5.820
 3148SOL     OW20662   8.790   5.616   3.122
 3148SOL    HW120663   8.840   5.545   3.172
 3148SOL    HW220664   8.723   5.659   3.182
 3149SOL     OW20665   8.311   0.943   5.701
 3149SOL    HW120666   8.352   0.916   5.614
 3149SOL    HW220667   8.212   0.949   5.691
 3150SOL     OW20668   9.516   8.782   5.018
 3150SOL    HW120669   9.451   8.847   4.979
 3150SOL    HW220670   9.610   8.815   5.003
 3151SOL     OW20671   1.951   9.018   0.231
 3151SOL    HW120672   2.026   8.968   0.187
 3151SOL    HW220673   1.906   8.958   0.297
 3152SOL     OW20674   0.210   0.481   5.519
 3152SOL    HW120675   0.253   0.435   5.596
 3152SOL    HW220676   0.217   0.580   5.531
 3153SOL     OW20677   2.601   1.636   0.698
 3153SOL    HW120678   2.577   1.732   0.685
 3153SOL    HW220679   2.673   1.628   0.767
 3154SOL     OW20680   2.690   8.840   6.285
 3154SOL    HW120681   2.625   8.898   6.335
 3154SOL    HW220682   2.675   8.744   6.310
 3155SOL     OW20683   4.317   0.487   4.101
 3155SOL    HW120684   4.269   0.561   4.054
 3155SOL    HW220685   4.316   0.405   4.043
 3156SOL     OW20686   7.235   8.271   5.766
 3156SOL    HW120687   7.330   8.285   5.794
 3156SOL    HW220688   7.193   8.360   5.747
 3157SOL     OW20689   2.417   5.130   5.141
 3157SOL    HW120690   2.367   5.213   5.116
 3157SOL    HW220691   2.423   5.123   5.241
 3158SOL     OW20692   7.277   9.760   1.788
 3158SOL    HW120693   7.219   9.836   1.761
 3158SOL    HW220694   7.290   9.698   1.711
 3159SOL     OW20695   1.784   6.260   2.779
 3159SOL    HW120696   1.705   6.269   2.840
 3159SOL    HW220697   1.781   6.172   2.733
 3160SOL     OW20698   8.385   2.184   3.906
 3160SOL    HW120699   8.395   2.197   4.004
 3160SOL    HW220700   8.441   2.107   3.876
 3161SOL     OW20701   5.602   1.290   5.343
 3161SOL    HW120702   5.691   1.270   5.302
 3161SOL    HW220703   5.531   1.283   5.274
 3162SOL     OW20704   5.219   9.146   3.352
 3162SOL    HW120705   5.246   9.133   3.257
 3162SOL    HW220706   5.261   9.230   3.387
 3163SOL     OW20707   8.609   8.043   4.345
 3163SOL    HW120708   8.656   7.980   4.407
 3163SOL    HW220709   8.652   8.039   4.255
 3164SOL     OW20710   9.915   9.928   0.283
 3164SOL    HW120711   9.833   9.880   0.250
 3164SOL    HW220712   9.991   9.911   0.220
 3165SOL     OW20713   2.526   2.635   2.400
 3165SOL    HW120714   2.454   2.677   2.454
 3165SOL    HW220715   2.490   2.555   2.352
 3166SOL     OW20716   4.265   8.225   6.168
 3166SOL    HW120717   4.281   8.309   6.117
 3166SOL    HW220718   4.177   8.186   6.140
 3167SOL     OW20719   0.665   1.178   3.602
 3167SOL    HW120720   0.710   1.226   3.677
 3167SOL    HW220721   0.726   1.107   3.567
 3168SOL     OW20722   1.381   7.235   1.626
 3168SOL    HW120723   1.373   7.165   1.555
 3168SOL    HW220724   1.440   7.201   1.700
 3169SOL     OW20725   2.663   2.938   4.988
 3169SOL    HW120726   2.579   2.990   4.976
 3169SOL    HW220727   2.670   2.907   5.083
 3170SOL     OW20728   8.961   7.947   0.811
 3170SOL    HW120729   9.030   8.019   0.809
 3170SOL    HW220730   8.993   7.870   0.867
 3171SOL     OW20731   1.247   3.418   2.434
 3171SOL    HW120732   1.330   3.459   2.471
 3171SOL    HW220733   1.178   3.489   2.421
 3172SOL     OW20734   8.101   7.052   2.737
 3172SOL    HW120735   8.003   7.064   2.751
 3172SOL    HW220736   8.146   7.141   2.735
 3173SOL     OW20737   9.481   4.988   0.239
 3173SOL    HW120738   9.423   4.930   0.296
 3173SOL    HW220739   9.516   5.064   0.294
 3174SOL     OW20740   0.195   8.008   0.317
 3174SOL    HW120741   0.153   7.933   0.267
 3174SOL    HW220742   0.141   8.028   0.399
 3175SOL     OW20743   9.304   6.987   0.464
 3175SOL    HW120744   9.374   6.985   0.535
 3175SOL    HW220745   9.243   7.065   0.478
 3176SOL     OW20746   2.833   1.022   4.558
 3176SOL    HW120747   2.788   1.090   4.501
 3176SOL    HW220748   2.866   1.064   4.642
 3177SOL     OW20749   7.221   5.357   1.837
 3177SOL    HW120750   7.137   5.404   1.864
 3177SOL    HW220751   7.274   5.416   1.776
 3178SOL     OW20752   9.437   1.868   4.515
 3178SOL    HW120753   9.537   1.872   4.525
 3178SOL    HW220754   9.394   1.888   4.603
 3179SOL     OW20755   7.839   2.419   3.748
 3179SOL    HW120756   7.896   2.487   3.793
 3179SOL    HW220757   7.873   2.402   3.656
 3180SOL     OW20758   7.997   4.076   5.218
 3180SOL    HW120759   8.066   4.031   5.275
 3180SOL    HW220760   8.020   4.173   5.208
 3181SOL     OW20761   7.684   9.179   6.346
 3181SOL    HW120762   7.602   9.209   6.296
 3181SOL    HW220763   7.668   9.088   6.384
 3182SOL     OW20764   0.975   7.355   1.343
 3182SOL    HW120765   1.039   7.301   1.288
 3182SOL    HW220766   0.885   7.354   1.300
 3183SOL     OW20767   2.549   1.056   0.657
 3183SOL    HW120768   2.449   1.061   0.668
 3183SOL    HW220769   2.576   1.106   0.575
 3184SOL     OW20770   5.530   2.620   4.028
 3184SOL    HW120771   5.598   2.595   3.959
 3184SOL    HW220772   5.438   2.602   3.992
 3185SOL     OW20773   0.796   2.805   2.238
 3185SOL    HW120774   0.716   2.745   2.239
 3185SOL    HW220775   0.847   2.793   2.153
 3186SOL     OW20776   4.597   8.336   5.664
 3186SOL    HW120777   4.622   8.333   5.761
 3186SOL    HW220778   4.656   8.400   5.616
 3187SOL     OW20779   5.307   4.954   0.358
 3187SOL    HW120780   5.207   4.960   0.351
 3187SOL    HW220781   5.348   5.036   0.319
 3188SOL     OW20782   9.197   2.792   5.010
 3188SOL    HW120783   9.167   2.756   4.921
 3188SOL    HW220784   9.296   2.800   5.010
 3189SOL     OW20785   2.688   0.215   3.096
 3189SOL    HW120786   2.668   0.266   3.013
 3189SOL    HW220787   2.686   0.276   3.175
 3190SOL     OW20788   0.594   9.062   3.102
 3190SOL    HW120789   0.683   9.097   3.131
 3190SOL    HW220790   0.606   9.007   3.019
 3191SOL     OW20791   4.408   1.137   5.290
 3191SOL    HW120792   4.316   1.176   5.288
 3191SOL    HW220793   4.402   1.038   5.293
 3192SOL     OW20794   8.476   5.846   1.694
 3192SOL    HW120795   8.399   5.857   1.632
 3192SOL    HW220796   8.537   5.775   1.659
 3193SOL     OW20797   5.671   8.485   3.979
 3193SOL    HW120798   5.761   8.462   4.016
 3193SOL    HW220799   5.630   8.403   3.938
 3194SOL     OW20800   1.925   2.394   2.350
 3194SOL    HW120801   1.861   2.416   2.277
 3194SOL    HW220802   1.874   2.371   2.433
 3195SOL     OW20803   7.619   6.238   1.844
 3195SOL    HW120804   7.548   6.168   1.846
 3195SOL    HW220805   7.624   6.283   1.933
 3196SOL     OW20806   2.464   3.512   3.586
 3196SOL    HW120807   2.448   3.452   3.508
 3196SOL    HW220808   2.449   3.462   3.671
 3197SOL     OW20809   2.864   7.709   1.198
 3197SOL    HW120810   2.958   7.740   1.184
 3197SOL    HW220811   2.805   7.747   1.128
 3198SOL     OW20812   9.909   4.082   2.011
 3198SOL    HW120813   9.851   4.007   2.042
 3198SOL    HW220814   9.983   4.046   1.955
 3199SOL     OW20815   5.219   0.648   2.123
 3199SOL    HW120816   5.217   0.748   2.126
 3199SOL    HW220817   5.148   0.615   2.060
 3200SOL     OW20818   4.984   1.304   0.634
 3200SOL    HW120819   4.931   1.384   0.606
 3200SOL    HW220820   5.077   1.312   0.598
 3201SOL     OW20821   8.582   3.372   1.879
 3201SOL    HW120822   8.526   3.388   1.798
 3201SOL    HW220823   8.539   3.301   1.935
 3202SOL     OW20824   0.742   7.850   2.679
 3202SOL    HW120825   0.837   7.833   2.650
 3202SOL    HW220826   0.689   7.880   2.600
 3203SOL     OW20827   7.998   9.451   1.610
 3203SOL    HW120828   7.926   9.496   1.663
 3203SOL    HW220829   7.992   9.480   1.515
 3204SOL     OW20830   3.307   1.740   2.441
 3204SOL    HW120831   3.337   1.794   2.520
 3204SOL    HW220832   3.220   1.696   2.463
 3205SOL     OW20833   4.746   0.971   0.482
 3205SOL    HW120834   4.653   0.937   0.474
 3205SOL    HW220835   4.784   0.985   0.390
 3206SOL     OW20836   3.209   8.685   3.938
 3206SOL    HW120837   3.268   8.606   3.952
 3206SOL    HW220838   3.121   8.655   3.900
 3207SOL     OW20839   1.927   0.547   1.647
 3207SOL    HW120840   1.891   0.620   1.588
 3207SOL    HW220841   1.897   0.563   1.741
 3208SOL     OW20842   7.239   0.253   1.144
 3208SOL    HW120843   7.229   0.348   1.114
 3208SOL    HW220844   7.290   0.250   1.230
 3209SOL     OW20845   9.296   7.848   6.297
 3209SOL    HW120846   9.372   7.823   6.236
 3209SOL    HW220847   9.247   7.766   6.325
 3210SOL     OW20848   4.490   2.260   0.181
 3210SOL    HW120849   4.430   2.283   0.258
 3210SOL    HW220850   4.438   2.268   0.096
 3211SOL     OW20851   2.903   5.659   5.592
 3211SOL    HW120852   2.838   5.724   5.555
 3211SOL    HW220853   2.855   5.595   5.652
 3212SOL     OW20854   7.291   5.247   0.329
 3212SOL    HW120855   7.205   5.198   0.318
 3212SOL    HW220856   7.298   5.283   0.422
 3213SOL     OW20857   3.157   4.874   1.769
 3213SOL    HW120858   3.159   4.971   1.792
 3213SOL    HW220859   3.225   4.825   1.825
 3214SOL     OW20860   6.717   2.899   1.798
 3214SOL    HW120861   6.746   2.994   1.789
 3214SOL    HW220862   6.708   2.875   1.895
 3215SOL     OW20863   3.285   8.882   1.932
 3215SOL    HW120864   3.345   8.816   1.978
 3215SOL    HW220865   3.189   8.860   1.953
 3216SOL     OW20866   3.335   4.935   6.249
 3216SOL    HW120867   3.288   5.003   6.304
 3216SOL    HW220868   3.318   4.844   6.286
 3217SOL     OW20869   9.577   5.388   1.150
 3217SOL    HW120870   9.538   5.312   1.099
 3217SOL    HW220871   9.506   5.433   1.204
 3218SOL     OW20872   7.319   2.246   4.846
 3218SOL    HW120873   7.409   2.224   4.808
 3218SOL    HW220874   7.323   2.334   4.892
 3219SOL     OW20875   1.721   2.788   1.250
 3219SOL    HW120876   1.668   2.703   1.244
 3219SOL    HW220877   1.798   2.774   1.312
 3220SOL     OW20878   3.116   7.038   2.929
 3220SOL    HW120879   3.182   7.036   2.854
 3220SOL    HW220880   3.031   6.996   2.899
 3221SOL     OW20881   1.847   2.045   1.766
 3221SOL    HW120882   1.851   1.971   1.699
 3221SOL    HW220883   1.938   2.062   1.802
 3222SOL     OW20884   6.770   1.754   1.892
 3222SOL    HW120885   6.705   1.796   1.955
 3222SOL    HW220886   6.723   1.683   1.839
 3223SOL     OW20887   3.132   1.302   0.733
 3223SOL    HW120888   3.118   1.321   0.830
 3223SOL    HW220889   3.073   1.226   0.705
 3224SOL     OW20890   0.760   2.680   6.020
 3224SOL    HW120891   0.674   2.731   6.033
 3224SOL    HW220892   0.754   2.625   5.937
 3225SOL     OW20893   7.312   3.050   3.155
 3225SOL    HW120894   7.378   3.036   3.081
 3225SOL    HW220895   7.361   3.073   3.240
 3226SOL     OW20896   2.981   0.801   5.772
 3226SOL    HW120897   2.990   0.892   5.813
 3226SOL    HW220898   3.063   0.747   5.791
 3227SOL     OW20899   0.169   4.274   4.838
 3227SOL    HW120900   0.126   4.212   4.772
 3227SOL    HW220901   0.219   4.220   4.906
 3228SOL     OW20902   7.447   4.003   0.625
 3228SOL    HW120903   7.467   4.035   0.718
 3228SOL    HW220904   7.348   4.008   0.609
 3229SOL     OW20905   8.931   2.689   4.103
 3229SOL    HW120906   8.861   2.617   4.094
 3229SOL    HW220907   8.940   2.737   4.016
 3230SOL     OW20908   8.392   2.689   0.649
 3230SOL    HW120909   8.340   2.638   0.581
 3230SOL    HW220910   8.342   2.771   0.676
 3231SOL     OW20911   1.778   8.135   2.396
 3231SOL    HW120912   1.738   8.050   2.362
 3231SOL    HW220913   1.791   8.128   2.495
 3232SOL     OW20914   3.091   3.852   1.785
 3232SOL    HW120915   3.133   3.844   1.694
 3232SOL    HW220916   3.163   3.844   1.855
 3233SOL     OW20917   7.217   9.910   2.017
 3233SOL    HW120918   7.241   9.850   1.941
 3233SOL    HW220919   7.201   0.003   1.981
 3234SOL     OW20920   3.888   2.793   5.147
 3234SOL    HW120921   3.885   2.706   5.197
 3234SOL    HW220922   3.924   2.864   5.207
 3235SOL     OW20923   0.935   2.510   4.097
 3235SOL    HW120924   1.032   2.487   4.094
 3235SOL    HW220925   0.922   2.603   4.062
 3236SOL     OW20926   8.204   7.926   0.770
 3236SOL    HW120927   8.298   7.956   0.786
 3236SOL    HW220928   8.141   7.997   0.801
 3237SOL     OW20929   0.935   7.416   5.037
 3237SOL    HW120930   0.898   7.505   5.064
 3237SOL    HW220931   1.025   7.403   5.080
 3238SOL     OW20932   6.609   7.977   4.537
 3238SOL    HW120933   6.698   8.022   4.550
 3238SOL    HW220934   6.622   7.878   4.536
 3239SOL     OW20935   1.576   8.787   0.503
 3239SOL    HW120936   1.508   8.785   0.430
 3239SOL    HW220937   1.585   8.695   0.542
 3240SOL     OW20938   2.737   9.104   1.298
 3240SOL    HW120939   2.835   9.094   1.313
 3240SOL    HW220940   2.688   9.043   1.361
 3241SOL     OW20941   4.397   6.793   0.796
 3241SOL    HW120942   4.436   6.771   0.707
 3241SOL    HW220943   4.446   6.743   0.867
 3242SOL     OW20944   2.048   2.391   4.662
 3242SOL    HW120945   2.132   2.437   4.634
 3242SOL    HW220946   1.999   2.358   4.580
 3243SOL     OW20947   2.993   7.290   3.366
 3243SOL    HW120948   3.076   7.238   3.346
 3243SOL    HW220949   2.914   7.241   3.328
 3244SOL     OW20950   3.507   3.589   4.543
 3244SOL    HW120951   3.417   3.547   4.557
 3244SOL    HW220952   3.578   3.525   4.574
 3245SOL     OW20953   3.136   6.092   1.619
 3245SOL    HW120954   3.038   6.109   1.610
 3245SOL    HW220955   3.179   6.168   1.669
 3246SOL     OW20956   7.415   2.220   0.230
 3246SOL    HW120957   7.474   2.203   0.308
 3246SOL    HW220958   7.345   2.148   0.225
 3247SOL     OW20959   0.542   0.805   2.087
 3247SOL    HW120960   0.531   0.791   1.988
 3247SOL    HW220961   0.453   0.824   2.127
 3248SOL     OW20962   7.860   7.045   5.726
 3248SOL    HW120963   7.943   7.102   5.729
 3248SOL    HW220964   7.781   7.102   5.702
 3249SOL     OW20965   3.106   9.341   6.143
 3249SOL    HW120966   3.189   9.298   6.109
 3249SOL    HW220967   3.078   9.414   6.080
 3250SOL     OW20968   6.770   3.930   0.633
 3250SOL    HW120969   6.760   4.017   0.585
 3250SOL    HW220970   6.687   3.911   0.685
 3251SOL     OW20971   4.880   3.853   4.474
 3251SOL    HW120972   4.964   3.905   4.484
 3251SOL    HW220973   4.815   3.904   4.418
 3252SOL     OW20974   9.278   5.471   2.550
 3252SOL    HW120975   9.340   5.473   2.471
 3252SOL    HW220976   9.236   5.561   2.562
 3253SOL     OW20977   6.762   0.799   5.747
 3253SOL    HW120978   6.724   0.875   5.694
 3253SOL    HW220979   6.695   0.770   5.815
 3254SOL     OW20980   9.812   5.053   2.716
 3254SOL    HW120981   9.870   5.051   2.635
 3254SOL    HW220982   9.717   5.072   2.690
 3255SOL     OW20983   7.954   1.929   5.480
 3255SOL    HW120984   8.017   1.953   5.554
 3255SOL    HW220985   7.886   1.863   5.514
 3256SOL     OW20986   6.530   2.276   0.367
 3256SOL    HW120987   6.509   2.183   0.398
 3256SOL    HW220988   6.449   2.334   0.378
 3257SOL     OW20989   8.542   1.974   3.813
 3257SOL    HW120990   8.610   1.919   3.861
 3257SOL    HW220991   8.491   1.916   3.750
 3258SOL     OW20992   7.924   8.803   4.649
 3258SOL    HW120993   8.000   8.786   4.586
 3258SOL    HW220994   7.843   8.755   4.616
 3259SOL     OW20995   0.781   1.967   3.943
 3259SOL    HW120996   0.821   1.878   3.923
 3259SOL    HW220997   0.767   2.017   3.857
 3260SOL     OW20998   9.865   3.535   1.596
 3260SOL    HW120999   9.853   3.510   1.692
 3260SOL    HW221000   9.963   3.544   1.576
 3261SOL     OW21001   1.724   4.543   4.991
 3261SOL    HW121002   1.805   4.550   5.049
 3261SOL    HW221003   1.752   4.549   4.895
 3262SOL     OW21004   9.016   4.806   2.939
 3262SOL    HW121005   9.044   4.898   2.967
 3262SOL    HW221006   8.973   4.759   3.016
 3263SOL     OW21007   4.064   2.834   2.116
 3263SOL    HW121008   4.010   2.915   2.096
 3263SOL    HW221009   4.057   2.770   2.039
 3264SOL     OW21010   4.277   1.024   2.114
 3264SOL    HW121011   4.376   1.014   2.108
 3264SOL    HW221012   4.238   1.022   2.022
 3265SOL     OW21013   1.120   1.007   3.619
 3265SOL    HW121014   1.166   0.999   3.708
 3265SOL    HW221015   1.160   0.942   3.555
 3266SOL     OW21016   1.377   7.608   4.598
 3266SOL    HW121017   1.455   7.608   4.661
 3266SOL    HW221018   1.407   7.638   4.508
 3267SOL     OW21019   3.995   5.166   0.259
 3267SOL    HW121020   4.020   5.097   0.191
 3267SOL    HW221021   3.954   5.121   0.339
 3268SOL     OW21022   5.103   2.359   3.155
 3268SOL    HW121023   5.015   2.378   3.197
 3268SOL    HW221024   5.157   2.443   3.150
 3269SOL     OW21025   7.840   6.299   6.216
 3269SOL    HW121026   7.917   6.243   6.185
 3269SOL    HW221027   7.875   6.374   6.272
 3270SOL     OW21028   8.393   7.698   1.522
 3270SOL    HW121029   8.391   7.663   1.429
 3270SOL    HW221030   8.411   7.797   1.520
 3271SOL     OW21031   0.448   2.854   3.917
 3271SOL    HW121032   0.380   2.817   3.980
 3271SOL    HW221033   0.444   2.954   3.918
 3272SOL     OW21034   6.800   0.071   2.091
 3272SOL    HW121035   6.854   9.987   2.085
 3272SOL    HW221036   6.858   0.149   2.066
 3273SOL     OW21037   1.376   4.114   5.214
 3273SOL    HW121038   1.407   4.020   5.199
 3273SOL    HW221039   1.438   4.160   5.278
 3274SOL     OW21040   9.659   4.534   5.911
 3274SOL    HW121041   9.589   4.602   5.935
 3274SOL    HW221042   9.616   4.445   5.897
 3275SOL     OW21043   4.120   8.316   4.157
 3275SOL    HW121044   4.103   8.386   4.227
 3275SOL    HW221045   4.194   8.347   4.097
 3276SOL     OW21046   3.972   7.027   3.469
 3276SOL    HW121047   3.972   6.993   3.375
 3276SOL    HW221048   3.882   7.065   3.490
 3277SOL     OW21049   2.151   0.060   2.836
 3277SOL    HW121050   2.157   9.981   2.898
 3277SOL    HW221051   2.206   0.135   2.872
 3278SOL     OW21052   5.509   9.398   5.757
 3278SOL    HW121053   5.447   9.330   5.717
 3278SOL    HW221054   5.503   9.483   5.704
 3279SOL     OW21055   8.124   2.313   5.831
 3279SOL    HW121056   8.102   2.409   5.845
 3279SOL    HW221057   8.167   2.301   5.742
 3280SOL     OW21058   8.074   9.727   1.138
 3280SOL    HW121059   8.005   9.784   1.094
 3280SOL    HW221060   8.084   9.755   1.234
 3281SOL     OW21061   4.448   0.132   4.717
 3281SOL    HW121062   4.522   0.193   4.747
 3281SOL    HW221063   4.382   0.185   4.663
 3282SOL     OW21064   3.409   9.117   2.649
 3282SOL    HW121065   3.328   9.146   2.599
 3282SOL    HW221066   3.410   9.017   2.656
 3283SOL     OW21067   3.769   5.459   3.509
 3283SOL    HW121068   3.695   5.399   3.538
 3283SOL    HW221069   3.836   5.468   3.582
 3284SOL     OW21070   8.121   7.155   0.330
 3284SOL    HW121071   8.050   7.092   0.364
 3284SOL    HW221072   8.077   7.235   0.290
 3285SOL     OW21073   1.634   1.376   3.241
 3285SOL    HW121074   1.653   1.320   3.160
 3285SOL    HW221075   1.695   1.455   3.242
 3286SOL     OW21076   0.104   7.948   1.710
 3286SOL    HW121077   0.058   7.976   1.626
 3286SOL    HW221078   0.152   8.027   1.750
 3287SOL     OW21079   8.307   2.609   3.016
 3287SOL    HW121080   8.260   2.695   3.036
 3287SOL    HW221081   8.262   2.564   2.939
 3288SOL     OW21082   9.109   8.903   1.293
 3288SOL    HW121083   9.136   8.940   1.204
 3288SOL    HW221084   9.036   8.959   1.332
 3289SOL     OW21085   3.750   3.576   5.194
 3289SOL    HW121086   3.664   3.527   5.179
 3289SOL    HW221087   3.757   3.601   5.291
 3290SOL     OW21088   9.452   5.552   2.349
 3290SOL    HW121089   9.527   5.600   2.394
 3290SOL    HW221090   9.381   5.618   2.322
 3291SOL     OW21091   7.355   0.741   1.193
 3291SOL    HW121092   7.441   0.701   1.161
 3291SOL    HW221093   7.326   0.813   1.130
 3292SOL     OW21094   3.856   6.973   4.394
 3292SOL    HW121095   3.935   7.031   4.376
 3292SOL    HW221096   3.849   6.903   4.322
 3293SOL     OW21097   5.163   7.750   2.203
 3293SOL    HW121098   5.170   7.696   2.287
 3293SOL    HW221099   5.130   7.692   2.129
 3294SOL     OW21100   2.465   4.256   1.229
 3294SOL    HW121101   2.525   4.184   1.263
 3294SOL    HW221102   2.520   4.328   1.186
 3295SOL     OW21103   4.501   1.057   5.868
 3295SOL    HW121104   4.570   1.125   5.892
 3295SOL    HW221105   4.524   1.017   5.779
 3296SOL     OW21106   6.910   9.351   6.179
 3296SOL    HW121107   6.860   9.341   6.265
 3296SOL    HW221108   6.853   9.397   6.111
 3297SOL     OW21109   6.993   1.495   5.991
 3297SOL    HW121110   7.065   1.524   6.054
 3297SOL    HW221111   6.992   1.556   5.912
 3298SOL     OW21112   3.093   8.006   5.914
 3298SOL    HW121113   3.018   8.025   5.976
 3298SOL    HW221114   3.156   7.941   5.956
 3299SOL     OW21115   8.148   3.482   6.063
 3299SOL    HW121116   8.110   3.397   6.100
 3299SOL    HW221117   8.234   3.462   6.016
 3300SOL     OW21118   2.162   5.427   5.787
 3300SOL    HW121119   2.185   5.385   5.700
 3300SOL    HW221120   2.145   5.356   5.856
 3301SOL     OW21121   8.016   9.688   6.386
 3301SOL    HW121122   8.061   9.616   6.333
 3301SOL    HW221123   8.076   9.719   6.460
 3302SOL     OW21124   4.343   3.097   0.700
 3302SOL    HW121125   4.439   3.108   0.728
 3302SOL    HW221126   4.284   3.150   0.761
 3303SOL     OW21127   1.232   6.216   6.089
 3303SOL    HW121128   1.204   6.187   6.180
 3303SOL    HW221129   1.329   6.194   6.076
 3304SOL     OW21130   0.860   9.052   4.520
 3304SOL    HW121131   0.899   9.143   4.535
 3304SOL    HW221132   0.849   9.037   4.421
 3305SOL     OW21133   4.326   4.773   0.226
 3305SOL    HW121134   4.343   4.870   0.208
 3305SOL    HW221135   4.388   4.741   0.297
 3306SOL     OW21136   9.373   7.350   1.456
 3306SOL    HW121137   9.344   7.427   1.399
 3306SOL    HW221138   9.330   7.356   1.546
 3307SOL     OW21139   2.762   9.344   2.365
 3307SOL    HW121140   2.818   9.264   2.386
 3307SOL    HW221141   2.804   9.396   2.290
 3308SOL     OW21142   2.301   2.704   1.192
 3308SOL    HW121143   2.310   2.624   1.133
 3308SOL    HW221144   2.212   2.746   1.177
 3309SOL     OW21145   8.565   9.600   5.191
 3309SOL    HW121146   8.541   9.525   5.130
 3309SOL    HW221147   8.640   9.653   5.152
 3310SOL     OW21148   2.250   6.914   0.359
 3310SOL    HW121149   2.309   6.868   0.425
 3310SOL    HW221150   2.154   6.897   0.383
 3311SOL     OW21151   6.491   1.393   6.134
 3311SOL    HW121152   6.459   1.449   6.210
 3311SOL    HW221153   6.526   1.453   6.061
 3312SOL     OW21154   3.557   6.250   5.260
 3312SOL    HW121155   3.570   6.239   5.358
 3312SOL    HW221156   3.524   6.342   5.240
 3313SOL     OW21157   8.327   2.715   4.703
 3313SOL    HW121158   8.277   2.801   4.708
 3313SOL    HW221159   8.289   2.659   4.629
 3314SOL     OW21160   8.829   1.228   2.213
 3314SOL    HW121161   8.878   1.314   2.197
 3314SOL    HW221162   8.736   1.249   2.242
 3315SOL     OW21163   9.408   8.920   2.702
 3315SOL    HW121164   9.331   8.901   2.643
 3315SOL    HW221165   9.433   9.017   2.695
 3316SOL     OW21166   1.381   3.385   0.557
 3316SOL    HW121167   1.377   3.481   0.586
 3316SOL    HW221168   1.465   3.370   0.505
 3317SOL     OW21169   1.743   4.949   1.972
 3317SOL    HW121170   1.703   4.976   2.059
 3317SOL    HW221171   1.762   4.851   1.972
 3318SOL     OW21172   0.353   4.423   0.452
 3318SOL    HW121173   0.362   4.329   0.484
 3318SOL    HW221174   0.358   4.426   0.352
 3319SOL     OW21175   9.387   9.102   4.463
 3319SOL    HW121176   9.432   9.036   4.524
 3319SOL    HW221177   9.410   9.081   4.368
 3320SOL     OW21178   7.742   5.951   1.987
 3320SOL    HW121179   7.767   5.993   1.900
 3320SOL    HW221180   7.812   5.884   2.013
 3321SOL     OW21181   9.985   8.777   2.839
 3321SOL    HW121182   0.013   8.716   2.913
 3321SOL    HW221183   9.905   8.829   2.866
 3322SOL     OW21184   3.689   4.158   0.226
 3322SOL    HW121185   3.787   4.143   0.237
 3322SOL    HW221186   3.659   4.117   0.140
 3323SOL     OW21187   2.859   5.582   3.015
 3323SOL    HW121188   2.782   5.643   2.999
 3323SOL    HW221189   2.926   5.627   3.073
 3324SOL     OW21190   7.095   3.990   0.278
 3324SOL    HW121191   7.001   4.022   0.282
 3324SOL    HW221192   7.153   4.060   0.237
 3325SOL     OW21193   6.125   2.216   0.991
 3325SOL    HW121194   6.062   2.291   0.973
 3325SOL    HW221195   6.099   2.171   1.076
 3326SOL     OW21196   8.358   9.398   6.356
 3326SOL    HW121197   8.362   9.493   6.390
 3326SOL    HW221198   8.295   9.345   6.412
 3327SOL     OW21199   7.982   1.404   3.959
 3327SOL    HW121200   7.900   1.414   3.903
 3327SOL    HW221201   7.958   1.360   4.046
 3328SOL     OW21202   4.125   9.367   3.985
 3328SOL    HW121203   4.104   9.312   4.066
 3328SOL    HW221204   4.147   9.460   4.012
 3329SOL     OW21205   7.570   3.844   1.212
 3329SOL    HW121206   7.593   3.747   1.220
 3329SOL    HW221207   7.621   3.884   1.136
 3330SOL     OW21208   7.372   4.479   2.894
 3330SOL    HW121209   7.290   4.444   2.848
 3330SOL    HW221210   7.452   4.462   2.837
 3331SOL     OW21211   1.378   2.474   4.641
 3331SOL    HW121212   1.293   2.449   4.595
 3331SOL    HW221213   1.408   2.564   4.608
 3332SOL     OW21214   2.193   8.980   6.148
 3332SOL    HW121215   2.122   9.015   6.086
 3332SOL    HW221216   2.275   8.957   6.096
 3333SOL     OW21217   1.401   2.960   2.282
 3333SOL    HW121218   1.394   3.014   2.198
 3333SOL    HW221219   1.316   2.965   2.333
 3334SOL     OW21220   7.762   9.261   5.480
 3334SOL    HW121221   7.814   9.276   5.564
 3334SOL    HW221222   7.816   9.291   5.402
 3335SOL     OW21223   7.291   4.906   1.069
 3335SOL    HW121224   7.266   4.810   1.061
 3335SOL    HW221225   7.240   4.948   1.144
 3336SOL     OW21226   8.419   6.455   2.093
 3336SOL    HW121227   8.351   6.459   2.167
 3336SOL    HW221228   8.434   6.359   2.068
 3337SOL     OW21229   0.760   1.015   0.730
 3337SOL    HW121230   0.763   1.085   0.659
 3337SOL    HW221231   0.667   0.978   0.737
 3338SOL     OW21232   8.630   9.605   6.281
 3338SOL    HW121233   8.694   9.621   6.357
 3338SOL    HW221234   8.624   9.507   6.262
 3339SOL     OW21235   9.555   0.833   1.216
 3339SOL    HW121236   9.585   0.744   1.181
 3339SOL    HW221237   9.531   0.825   1.313
 3340SOL     OW21238   5.922   7.622   4.894
 3340SOL    HW121239   5.912   7.562   4.814
 3340SOL    HW221240   5.953   7.712   4.864
 3341SOL     OW21241   3.586   9.538   1.043
 3341SOL    HW121242   3.612   9.523   0.948
 3341SOL    HW221243   3.616   9.461   1.099
 3342SOL     OW21244   0.225   6.428   5.614
 3342SOL    HW121245   0.233   6.491   5.538
 3342SOL    HW221246   0.291   6.453   5.685
 3343SOL     OW21247   8.168   9.539   5.812
 3343SOL    HW121248   8.252   9.593   5.807
 3343SOL    HW221249   8.189   9.442   5.796
 3344SOL     OW21250   8.740   8.644   0.557
 3344SOL    HW121251   8.684   8.593   0.492
 3344SOL    HW221252   8.685   8.716   0.599
 3345SOL     OW21253   4.846   2.337   4.817
 3345SOL    HW121254   4.793   2.264   4.774
 3345SOL    HW221255   4.817   2.425   4.779
 3346SOL     OW21256   1.737   9.439   4.906
 3346SOL    HW121257   1.790   9.443   4.991
 3346SOL    HW221258   1.798   9.423   4.829
 3347SOL     OW21259   2.463   4.153   1.827
 3347SOL    HW121260   2.418   4.225   1.880
 3347SOL    HW221261   2.394   4.101   1.777
 3348SOL     OW21262   7.026   4.586   2.075
 3348SOL    HW121263   7.016   4.686   2.074
 3348SOL    HW221264   6.944   4.544   2.037
 3349SOL     OW21265   9.109   5.092   0.908
 3349SOL    HW121266   9.140   5.103   1.002
 3349SOL    HW221267   9.015   5.060   0.907
 3350SOL     OW21268   8.240   3.811   3.359
 3350SOL    HW121269   8.336   3.836   3.371
 3350SOL    HW221270   8.199   3.866   3.286
 3351SOL     OW21271   5.838   7.870   6.320
 3351SOL    HW121272   5.936   7.889   6.316
 3351SOL    HW221273   5.822   7.773   6.302
 3352SOL     OW21274   9.872   1.374   5.564
 3352SOL    HW121275   9.868   1.318   5.480
 3352SOL    HW221276   9.858   1.315   5.643
 3353SOL     OW21277   9.440   4.225   0.740
 3353SOL    HW121278   9.502   4.211   0.816
 3353SOL    HW221279   9.347   4.238   0.774
 3354SOL     OW21280   3.681   9.313   6.313
 3354SOL    HW121281   3.760   9.372   6.294
 3354SOL    HW221282   3.597   9.360   6.287
 3355SOL     OW21283   8.173   0.739   2.419
 3355SOL    HW121284   8.084   0.702   2.390
 3355SOL    HW221285   8.234   0.663   2.443
 3356SOL     OW21286   7.777   4.201   2.320
 3356SOL    HW121287   7.854   4.138   2.333
 3356SOL    HW221288   7.706   4.156   2.266
 3357SOL     OW21289   1.854   3.421   4.562
 3357SOL    HW121290   1.893   3.329   4.565
 3357SOL    HW221291   1.872   3.468   4.649
 3358SOL     OW21292   4.155   2.282   1.496
 3358SOL    HW121293   4.105   2.202   1.462
 3358SOL    HW221294   4.251   2.258   1.507
 3359SOL     OW21295   2.119   7.128   3.583
 3359SOL    HW121296   2.128   7.102   3.679
 3359SOL    HW221297   2.046   7.075   3.541
 3360SOL     OW21298   3.447   9.026   1.405
 3360SOL    HW121299   3.415   9.036   1.310
 3360SOL    HW221300   3.526   8.966   1.408
 3361SOL     OW21301   9.696   7.024   5.078
 3361SOL    HW121302   9.643   7.067   5.004
 3361SOL    HW221303   9.748   6.947   5.041
 3362SOL     OW21304   8.373   1.309   4.182
 3362SOL    HW121305   8.297   1.246   4.202
 3362SOL    HW221306   8.419   1.334   4.267
 3363SOL     OW21307   0.902   3.918   3.472
 3363SOL    HW121308   0.940   3.885   3.559
 3363SOL    HW221309   0.970   3.905   3.399
 3364SOL     OW21310   4.968   3.984   5.204
 3364SOL    HW121311   4.962   3.921   5.127
 3364SOL    HW221312   4.954   3.934   5.290
 3365SOL     OW21313   7.229   6.781   3.463
 3365SOL    HW121314   7.316   6.734   3.446
 3365SOL    HW221315   7.181   6.795   3.376
 3366SOL     OW21316   8.475   5.455   5.662
 3366SOL    HW121317   8.492   5.508   5.579
 3366SOL    HW221318   8.557   5.401   5.684
 3367SOL     OW21319   8.678   0.707   6.119
 3367SOL    HW121320   8.663   0.653   6.036
 3367SOL    HW221321   8.748   0.662   6.175
 3368SOL     OW21322   5.285   0.369   1.925
 3368SOL    HW121323   5.326   0.391   1.837
 3368SOL    HW221324   5.201   0.423   1.936
 3369SOL     OW21325   4.713   6.513   1.439
 3369SOL    HW121326   4.806   6.538   1.468
 3369SOL    HW221327   4.673   6.451   1.506
 3370SOL     OW21328   3.226   4.337   0.295
 3370SOL    HW121329   3.216   4.244   0.259
 3370SOL    HW221330   3.136   4.380   0.303
 3371SOL     OW21331   0.971   8.386   4.944
 3371SOL    HW121332   0.929   8.381   4.853
 3371SOL    HW221333   0.915   8.445   5.002
 3372SOL     OW21334   4.349   7.894   2.729
 3372SOL    HW121335   4.386   7.949   2.655
 3372SOL    HW221336   4.304   7.813   2.691
 3373SOL     OW21337   1.931   9.545   0.531
 3373SOL    HW121338   2.026   9.546   0.562
 3373SOL    HW221339   1.916   9.465   0.472
 3374SOL     OW21340   4.157   4.697   2.773
 3374SOL    HW121341   4.077   4.715   2.716
 3374SOL    HW221342   4.131   4.637   2.850
 3375SOL     OW21343   4.447   1.371   4.401
 3375SOL    HW121344   4.440   1.395   4.498
 3375SOL    HW221345   4.442   1.454   4.346
 3376SOL     OW21346   0.364   6.246   2.766
 3376SOL    HW121347   0.304   6.226   2.689
 3376SOL    HW221348   0.309   6.276   2.845
 3377SOL     OW21349   7.062   4.905   0.164
 3377SOL    HW121350   7.154   4.883   0.131
 3377SOL    HW221351   7.022   4.824   0.207
 3378SOL     OW21352   5.453   0.455   3.802
 3378SOL    HW121353   5.546   0.460   3.764
 3378SOL    HW221354   5.424   0.546   3.832
 3379SOL     OW21355   1.331   4.095   5.939
 3379SOL    HW121356   1.301   4.098   6.035
 3379SOL    HW221357   1.256   4.127   5.881
 3380SOL     OW21358   3.887   9.776   4.351
 3380SOL    HW121359   3.841   9.828   4.422
 3380SOL    HW221360   3.868   9.816   4.262
 3381SOL     OW21361   0.661   8.196   1.600
 3381SOL    HW121362   0.576   8.163   1.559
 3381SOL    HW221363   0.670   8.294   1.583
 3382SOL     OW21364   0.528   0.762   1.821
 3382SOL    HW121365   0.597   0.800   1.760
 3382SOL    HW221366   0.521   0.663   1.806
 3383SOL     OW21367   9.213   4.769   1.059
 3383SOL    HW121368   9.197   4.675   1.028
 3383SOL    HW221369   9.263   4.820   0.989
 3384SOL     OW21370   8.347   2.456   2.131
 3384SOL    HW121371   8.299   2.444   2.044
 3384SOL    HW221372   8.435   2.500   2.114
 3385SOL     OW21373   8.783   8.186   0.505
 3385SOL    HW121374   8.780   8.237   0.419
 3385SOL    HW221375   8.866   8.208   0.555
 3386SOL     OW21376   8.529   5.310   4.648
 3386SOL    HW121377   8.493   5.352   4.732
 3386SOL    HW221378   8.627   5.295   4.659
 3387SOL     OW21379   4.251   3.357   3.026
 3387SOL    HW121380   4.322   3.291   3.050
 3387SOL    HW221381   4.270   3.396   2.936
 3388SOL     OW21382   9.941   9.091   1.704
 3388SOL    HW121383   9.913   9.180   1.741
 3388SOL    HW221384   0.031   9.068   1.739
 3389SOL     OW21385   9.584   6.672   0.241
 3389SOL    HW121386   9.584   6.610   0.163
 3389SOL    HW221387   9.679   6.689   0.270
 3390SOL     OW21388   5.037   0.081   3.396
 3390SOL    HW121389   5.072   0.167   3.433
 3390SOL    HW221390   5.107   0.010   3.404
 3391SOL     OW21391   5.255   5.880   2.134
 3391SOL    HW121392   5.355   5.879   2.127
 3391SOL    HW221393   5.228   5.844   2.223
 3392SOL     OW21394   1.705   6.788   6.286
 3392SOL    HW121395   1.710   6.885   6.313
 3392SOL    HW221396   1.776   6.737   6.334
 3393SOL     OW21397   6.208   0.856   6.205
 3393SOL    HW121398   6.280   0.786   6.202
 3393SOL    HW221399   6.129   0.820   6.256
 3394SOL     OW21400   9.266   3.060   4.732
 3394SOL    HW121401   9.267   2.977   4.676
 3394SOL    HW221402   9.174   3.073   4.770
 3395SOL     OW21403   4.041   7.565   5.038
 3395SOL    HW121404   4.081   7.606   5.120
 3395SOL    HW221405   3.981   7.631   4.993
 3396SOL     OW21406   7.586   7.574   2.579
 3396SOL    HW121407   7.488   7.576   2.600
 3396SOL    HW221408   7.636   7.531   2.653
 3397SOL     OW21409   1.942   8.787   3.360
 3397SOL    HW121410   2.021   8.742   3.402
 3397SOL    HW221411   1.962   8.884   3.346
 3398SOL     OW21412   1.162   0.886   0.502
 3398SOL    HW121413   1.202   0.794   0.504
 3398SOL    HW221414   1.100   0.893   0.424
 3399SOL     OW21415   8.923   7.880   5.156
 3399SOL    HW121416   8.830   7.845   5.169
 3399SOL    HW221417   8.975   7.870   5.241
 3400SOL     OW21418   0.730   5.015   2.700
 3400SOL    HW121419   0.672   5.043   2.624
 3400SOL    HW221420   0.691   5.050   2.786
 3401SOL     OW21421   9.373   7.983   5.852
 3401SOL    HW121422   9.345   8.017   5.762
 3401SOL    HW221423   9.458   7.931   5.842
 3402SOL     OW21424   9.503   0.803   5.659
 3402SOL    HW121425   9.542   0.762   5.577
 3402SOL    HW221426   9.561   0.879   5.689
 3403SOL     OW21427   0.024   8.063   6.006
 3403SOL    HW121428   0.095   8.131   6.018
 3403SOL    HW221429   0.064   7.971   6.014
 3404SOL     OW21430   4.917   4.101   4.857
 3404SOL    HW121431   4.910   4.154   4.942
 3404SOL    HW221432   4.847   4.132   4.793
 3405SOL     OW21433   4.300   9.316   6.374
 3405SOL    HW121434   4.203   9.295   6.382
 3405SOL    HW221435   4.314   9.415   6.383
 3406SOL     OW21436   8.845   9.082   0.933
 3406SOL    HW121437   8.784   9.078   0.853
 3406SOL    HW221438   8.920   9.018   0.921
 3407SOL     OW21439   1.997   6.705   2.542
 3407SOL    HW121440   2.030   6.664   2.457
 3407SOL    HW221441   1.938   6.640   2.590
 3408SOL     OW21442   0.828   2.391   4.324
 3408SOL    HW121443   0.745   2.339   4.305
 3408SOL    HW221444   0.860   2.435   4.239
 3409SOL     OW21445   6.124   5.996   1.206
 3409SOL    HW121446   6.084   6.074   1.253
 3409SOL    HW221447   6.223   6.005   1.204
 3410SOL     OW21448   5.644   9.953   2.804
 3410SOL    HW121449   5.671   9.968   2.899
 3410SOL    HW221450   5.604   9.861   2.796
 3411SOL     OW21451   0.352   8.405   4.855
 3411SOL    HW121452   0.350   8.443   4.762
 3411SOL    HW221453   0.273   8.437   4.906
 3412SOL     OW21454   3.498   0.769   0.093
 3412SOL    HW121455   3.425   0.759   0.026
 3412SOL    HW221456   3.470   0.834   0.164
 3413SOL     OW21457   1.964   2.581   5.783
 3413SOL    HW121458   2.008   2.492   5.796
 3413SOL    HW221459   2.011   2.631   5.710
 3414SOL     OW21460   9.781   8.511   3.144
 3414SOL    HW121461   9.737   8.434   3.191
 3414SOL    HW221462   9.854   8.547   3.202
 3415SOL     OW21463   7.709   7.803   6.025
 3415SOL    HW121464   7.722   7.766   6.117
 3415SOL    HW221465   7.618   7.778   5.992
 3416SOL     OW21466   9.861   5.368   0.590
 3416SOL    HW121467   9.796   5.386   0.663
 3416SOL    HW221468   9.895   5.274   0.597
 3417SOL     OW21469   7.361   7.612   4.416
 3417SOL    HW121470   7.338   7.677   4.489
 3417SOL    HW221471   7.303   7.630   4.336
 3418SOL     OW21472   7.081   6.026   5.333
 3418SOL    HW121473   7.151   6.091   5.360
 3418SOL    HW221474   7.004   6.031   5.396
 3419SOL     OW21475   0.104   6.959   0.753
 3419SOL    HW121476   0.159   6.986   0.674
 3419SOL    HW221477   0.096   6.859   0.755
 3420SOL     OW21478   6.433   9.947   2.381
 3420SOL    HW121479   6.373   9.964   2.302
 3420SOL    HW221480   6.398   9.996   2.460
 3421SOL     OW21481   8.082   8.293   6.083
 3421SOL    HW121482   8.129   8.264   6.167
 3421SOL    HW221483   8.084   8.393   6.077
 3422SOL     OW21484   1.297   7.063   3.072
 3422SOL    HW121485   1.243   7.075   2.989
 3422SOL    HW221486   1.380   7.119   3.067
 3423SOL     OW21487   7.708   2.292   2.567
 3423SOL    HW121488   7.616   2.290   2.528
 3423SOL    HW221489   7.751   2.380   2.546
 3424SOL     OW21490   4.190   2.706   4.546
 3424SOL    HW121491   4.124   2.703   4.471
 3424SOL    HW221492   4.194   2.799   4.583
 3425SOL     OW21493   6.680   1.989   1.498
 3425SOL    HW121494   6.675   1.891   1.518
 3425SOL    HW221495   6.705   2.002   1.402
 3426SOL     OW21496   2.066   1.783   2.907
 3426SOL    HW121497   2.145   1.731   2.939
 3426SOL    HW221498   2.069   1.792   2.808
 3427SOL     OW21499   7.699   0.428   3.406
 3427SOL    HW121500   7.777   0.485   3.379
 3427SOL    HW221501   7.719   0.383   3.493
 3428SOL     OW21502   8.283   9.582   4.150
 3428SOL    HW121503   8.196   9.630   4.134
 3428SOL    HW221504   8.333   9.627   4.224
 3429SOL     OW21505   8.480   5.760   1.962
 3429SOL    HW121506   8.576   5.733   1.970
 3429SOL    HW221507   8.462   5.792   1.869
 3430SOL     OW21508   9.006   6.282   5.551
 3430SOL    HW121509   9.045   6.196   5.517
 3430SOL    HW221510   9.031   6.294   5.647
 3431SOL     OW21511   3.685   9.600   1.443
 3431SOL    HW121512   3.605   9.540   1.442
 3431SOL    HW221513   3.683   9.660   1.363
 3432SOL     OW21514   1.536   9.972   2.987
 3432SOL    HW121515   1.526   0.044   2.918
 3432SOL    HW221516   1.521   9.883   2.945
 3433SOL     OW21517   5.294   7.302   3.618
 3433SOL    HW121518   5.269   7.342   3.706
 3433SOL    HW221519   5.232   7.336   3.547
 3434SOL     OW21520   1.228   8.546   4.385
 3434SOL    HW121521   1.270   8.456   4.374
 3434SOL    HW221522   1.143   8.536   4.437
 3435SOL     OW21523   1.634   0.505   1.031
 3435SOL    HW121524   1.562   0.494   1.100
 3435SOL    HW221525   1.710   0.556   1.071
 3436SOL     OW21526   9.322   9.217   3.309
 3436SOL    HW121527   9.313   9.128   3.353
 3436SOL    HW221528   9.277   9.215   3.220
 3437SOL     OW21529   8.254   7.858   5.440
 3437SOL    HW121530   8.183   7.806   5.393
 3437SOL    HW221531   8.239   7.956   5.427
 3438SOL     OW21532   8.285   1.238   0.846
 3438SOL    HW121533   8.311   1.315   0.787
 3438SOL    HW221534   8.212   1.186   0.802
 3439SOL     OW21535   0.929   1.066   3.266
 3439SOL    HW121536   0.915   1.153   3.220
 3439SOL    HW221537   0.897   0.991   3.207
 3440SOL     OW21538   6.848   1.719   2.693
 3440SOL    HW121539   6.921   1.779   2.658
 3440SOL    HW221540   6.877   1.624   2.686
 3441SOL     OW21541   7.790   5.343   5.267
 3441SOL    HW121542   7.778   5.417   5.200
 3441SOL    HW221543   7.848   5.272   5.227
 3442SOL     OW21544   6.340   2.693   3.923
 3442SOL    HW121545   6.242   2.681   3.939
 3442SOL    HW221546   6.386   2.709   4.011
 3443SOL     OW21547   1.982   6.118   5.486
 3443SOL    HW121548   2.000   6.095   5.390
 3443SOL    HW221549   2.067   6.118   5.537
 3444SOL     OW21550   9.573   6.633   0.681
 3444SOL    HW121551   9.615   6.719   0.654
 3444SOL    HW221552   9.642   6.561   0.684
 3445SOL     OW21553   1.500   3.398   6.334
 3445SOL    HW121554   1.485   3.473   6.399
 3445SOL    HW221555   1.588   3.355   6.353
 3446SOL     OW21556   8.619   2.011   5.212
 3446SOL    HW121557   8.578   2.099   5.188
 3446SOL    HW221558   8.641   2.010   5.310
 3447SOL     OW21559   7.892   9.559   4.856
 3447SOL    HW121560   7.868   9.529   4.764
 3447SOL    HW221561   7.881   9.483   4.920
 3448SOL     OW21562   0.001   7.345   5.148
 3448SOL    HW121563   0.082   7.327   5.204
 3448SOL    HW221564   0.020   7.317   5.053
 3449SOL     OW21565   6.714   3.994   1.733
 3449SOL    HW121566   6.727   3.898   1.709
 3449SOL    HW221567   6.739   4.051   1.655
 3450SOL     OW21568   2.263   2.946   0.832
 3450SOL    HW121569   2.171   2.907   0.824
 3450SOL    HW221570   2.257   3.045   0.844
 3451SOL     OW21571   0.826   4.105   5.391
 3451SOL    HW121572   0.755   4.076   5.454
 3451SOL    HW221573   0.786   4.162   5.319
 3452SOL     OW21574   6.181   0.029   3.667
 3452SOL    HW121575   6.180   9.946   3.723
 3452SOL    HW221576   6.173   0.110   3.726
 3453SOL     OW21577   8.183   3.746   2.414
 3453SOL    HW121578   8.250   3.702   2.473
 3453SOL    HW221579   8.105   3.777   2.469
 3454SOL     OW21580   0.706   7.088   1.900
 3454SOL    HW121581   0.722   7.183   1.874
 3454SOL    HW221582   0.656   7.085   1.987
 3455SOL     OW21583   2.024   9.739   0.347
 3455SOL    HW121584   2.092   9.675   0.311
 3455SOL    HW221585   1.968   9.693   0.415
 3456SOL     OW21586   9.150   2.959   0.153
 3456SOL    HW121587   9.138   2.975   0.055
 3456SOL    HW221588   9.082   3.011   0.204
 3457SOL     OW21589   6.678   1.195   4.846
 3457SOL    HW121590   6.726   1.198   4.758
 3457SOL    HW221591   6.667   1.288   4.882
 3458SOL     OW21592   6.638   2.145   1.992
 3458SOL    HW121593   6.642   2.242   1.967
 3458SOL    HW221594   6.612   2.091   1.912
 3459SOL     OW21595   0.584   9.446   4.229
 3459SOL    HW121596   0.500   9.442   4.175
 3459SOL    HW221597   0.565   9.414   4.322
 3460SOL     OW21598   6.688   2.684   5.839
 3460SOL    HW121599   6.718   2.754   5.903
 3460SOL    HW221600   6.608   2.717   5.789
 3461SOL     OW21601   2.746   8.417   0.691
 3461SOL    HW121602   2.672   8.481   0.670
 3461SOL    HW221603   2.781   8.378   0.606
 3462SOL     OW21604   8.450   0.709   5.781
 3462SOL    HW121605   8.412   0.645   5.714
 3462SOL    HW221606   8.404   0.798   5.772
 3463SOL     OW21607   0.201   2.020   3.006
 3463SOL    HW121608   0.171   1.977   3.092
 3463SOL    HW221609   0.219   1.949   2.938
 3464SOL     OW21610   2.040   2.528   1.725
 3464SOL    HW121611   2.119   2.577   1.762
 3464SOL    HW221612   2.059   2.501   1.631
 3465SOL     OW21613   7.682   1.017   0.724
 3465SOL    HW121614   7.630   0.959   0.786
 3465SOL    HW221615   7.776   1.026   0.757
 3466SOL     OW21616   3.890   3.214   4.959
 3466SOL    HW121617   3.913   3.177   4.869
 3466SOL    HW221618   3.791   3.229   4.965
 3467SOL     OW21619   5.444   9.423   6.284
 3467SOL    HW121620   5.440   9.425   6.184
 3467SOL    HW221621   5.359   9.384   6.320
 3468SOL     OW21622   0.014   7.872   5.668
 3468SOL    HW121623   0.028   7.966   5.637
 3468SOL    HW221624   9.999   7.812   5.589
 3469SOL     OW21625   0.253   7.991   3.004
 3469SOL    HW121626   0.211   7.944   2.927
 3469SOL    HW221627   0.349   8.008   2.985
 3470SOL     OW21628   7.810   2.996   4.864
 3470SOL    HW121629   7.786   2.925   4.797
 3470SOL    HW221630   7.900   2.977   4.902
 3471SOL     OW21631   3.872   3.379   1.061
 3471SOL    HW121632   3.816   3.462   1.057
 3471SOL    HW221633   3.968   3.404   1.076
 3472SOL     OW21634   0.691   8.210   3.383
 3472SOL    HW121635   0.663   8.245   3.294
 3472SOL    HW221636   0.612   8.175   3.432
 3473SOL     OW21637   0.859   6.941   5.194
 3473SOL    HW121638   0.821   6.859   5.151
 3473SOL    HW221639   0.902   6.999   5.125
 3474SOL     OW21640   6.830   9.214   4.345
 3474SOL    HW121641   6.856   9.264   4.263
 3474SOL    HW221642   6.843   9.272   4.425
 3475SOL     OW21643   4.512   0.259   1.253
 3475SOL    HW121644   4.605   0.242   1.221
 3475SOL    HW221645   4.498   0.210   1.339
 3476SOL     OW21646   5.918   9.436   5.597
 3476SOL    HW121647   6.005   9.459   5.640
 3476SOL    HW221648   5.869   9.520   5.574
 3477SOL     OW21649   2.768   0.298   4.778
 3477SOL    HW121650   2.735   0.370   4.840
 3477SOL    HW221651   2.811   0.225   4.831
 3478SOL     OW21652   3.023   3.474   5.074
 3478SOL    HW121653   2.926   3.464   5.052
 3478SOL    HW221654   3.046   3.414   5.150
 3479SOL     OW21655   1.166   4.156   1.517
 3479SOL    HW121656   1.229   4.081   1.539
 3479SOL    HW221657   1.204   4.242   1.551
 3480SOL     OW21658   1.395   2.734   6.035
 3480SOL    HW121659   1.480   2.688   6.061
 3480SOL    HW221660   1.368   2.797   6.108
 3481SOL     OW21661   9.684   4.114   2.711
 3481SOL    HW121662   9.669   4.082   2.805
 3481SOL    HW221663   9.782   4.124   2.694
 3482SOL     OW21664   9.871   2.046   5.510
 3482SOL    HW121665   9.809   2.062   5.586
 3482SOL    HW221666   9.964   2.071   5.536
 3483SOL     OW21667   6.481   5.097   1.692
 3483SOL    HW121668   6.518   5.019   1.640
 3483SOL    HW221669   6.521   5.098   1.783
 3484SOL     OW21670   9.642   5.369   0.190
 3484SOL    HW121671   9.650   5.340   0.095
 3484SOL    HW221672   9.574   5.442   0.197
 3485SOL     OW21673   9.761   9.865   1.696
 3485SOL    HW121674   9.739   9.912   1.782
 3485SOL    HW221675   9.710   9.779   1.690
 3486SOL     OW21676   6.260   2.243   3.783
 3486SOL    HW121677   6.181   2.303   3.769
 3486SOL    HW221678   6.340   2.282   3.737
 3487SOL     OW21679   7.482   2.486   3.541
 3487SOL    HW121680   7.520   2.393   3.539
 3487SOL    HW221681   7.536   2.543   3.603
 3488SOL     OW21682   3.498   7.292   2.360
 3488SOL    HW121683   3.594   7.275   2.337
 3488SOL    HW221684   3.444   7.296   2.275
 3489SOL     OW21685   4.810   9.770   5.979
 3489SOL    HW121686   4.782   9.681   5.945
 3489SOL    HW221687   4.730   9.831   5.983
 3490SOL     OW21688   2.405   0.615   3.443
 3490SOL    HW121689   2.423   0.590   3.348
 3490SOL    HW221690   2.475   0.678   3.474
 3491SOL     OW21691   1.365   2.734   2.688
 3491SOL    HW121692   1.449   2.683   2.706
 3491SOL    HW221693   1.388   2.829   2.663
 3492SOL     OW21694   4.400   6.964   3.505
 3492SOL    HW121695   4.393   6.897   3.578
 3492SOL    HW221696   4.393   7.056   3.543
 3493SOL     OW21697   6.559   9.891   1.913
 3493SOL    HW121698   6.482   9.842   1.872
 3493SOL    HW221699   6.603   9.833   1.981
 3494SOL     OW21700   3.670   0.600   1.612
 3494SOL    HW121701   3.606   0.664   1.654
 3494SOL    HW221702   3.619   0.529   1.563
 3495SOL     OW21703   0.749   2.016   0.895
 3495SOL    HW121704   0.715   1.925   0.916
 3495SOL    HW221705   0.737   2.035   0.798
 3496SOL     OW21706   1.861   7.025   0.485
 3496SOL    HW121707   1.930   7.085   0.524
 3496SOL    HW221708   1.895   6.985   0.399
 3497SOL     OW21709   7.013   0.577   4.617
 3497SOL    HW121710   7.039   0.611   4.708
 3497SOL    HW221711   6.921   0.538   4.622
 3498SOL     OW21712   1.301   1.973   3.027
 3498SOL    HW121713   1.372   1.985   3.097
 3498SOL    HW221714   1.299   2.054   2.968
 3499SOL     OW21715   2.395   5.807   1.253
 3499SOL    HW121716   2.492   5.782   1.247
 3499SOL    HW221717   2.365   5.845   1.165
 3500SOL     OW21718   9.370   0.634   3.959
 3500SOL    HW121719   9.347   0.601   3.867
 3500SOL    HW221720   9.339   0.568   4.027
 3501SOL     OW21721   7.424   2.277   4.528
 3501SOL    HW121722   7.327   2.260   4.546
 3501SOL    HW221723   7.478   2.256   4.609
 3502SOL     OW21724   3.208   1.769   0.264
 3502SOL    HW121725   3.216   1.853   0.211
 3502SOL    HW221726   3.282   1.766   0.331
 3503SOL     OW21727   0.892   8.773   3.618
 3503SOL    HW121728   0.971   8.785   3.558
 3503SOL    HW221729   0.900   8.685   3.666
 3504SOL     OW21730   0.838   8.780   2.757
 3504SOL    HW121731   0.867   8.822   2.671
 3504SOL    HW221732   0.772   8.707   2.738
 3505SOL     OW21733   2.152   8.418   0.966
 3505SOL    HW121734   2.069   8.381   0.924
 3505SOL    HW221735   2.221   8.432   0.895
 3506SOL     OW21736   3.626   3.486   5.771
 3506SOL    HW121737   3.702   3.546   5.746
 3506SOL    HW221738   3.624   3.475   5.871
 3507SOL     OW21739   0.791   6.433   4.543
 3507SOL    HW121740   0.703   6.442   4.591
 3507SOL    HW221741   0.810   6.517   4.492
 3508SOL     OW21742   2.748   3.628   1.347
 3508SOL    HW121743   2.703   3.709   1.384
 3508SOL    HW221744   2.773   3.567   1.423
 3509SOL     OW21745   8.207   3.923   4.894
 3509SOL    HW121746   8.125   3.981   4.894
 3509SOL    HW221747   8.214   3.876   4.982
 3510SOL     OW21748   3.297   3.664   3.865
 3510SOL    HW121749   3.247   3.589   3.821
 3510SOL    HW221750   3.234   3.719   3.920
 3511SOL     OW21751   1.079   3.642   2.420
 3511SOL    HW121752   1.038   3.682   2.502
 3511SOL    HW221753   1.144   3.707   2.380
 3512SOL     OW21754   2.505   7.363   1.368
 3512SOL    HW121755   2.565   7.442   1.369
 3512SOL    HW221756   2.411   7.392   1.347
 3513SOL     OW21757   3.013   3.344   2.874
 3513SOL    HW121758   3.043   3.356   2.779
 3513SOL    HW221759   2.913   3.348   2.878
 3514SOL     OW21760   6.741   9.998   6.400
 3514SOL    HW121761   6.749   9.977   6.497
 3514SOL    HW221762   6.645   9.987   6.372
 3515SOL     OW21763   9.219   4.920   5.013
 3515SOL    HW121764   9.283   4.850   4.982
 3515SOL    HW221765   9.176   4.965   4.934
 3516SOL     OW21766   3.058   4.956   0.530
 3516SOL    HW121767   3.104   5.044   0.529
 3516SOL    HW221768   3.125   4.882   0.524
 3517SOL     OW21769   3.514   2.510   6.127
 3517SOL    HW121770   3.518   2.417   6.164
 3517SOL    HW221771   3.582   2.567   6.172
 3518SOL     OW21772   5.451   0.656   1.071
 3518SOL    HW121773   5.413   0.741   1.109
 3518SOL    HW221774   5.398   0.629   0.991
 3519SOL     OW21775   9.665   5.724   4.115
 3519SOL    HW121776   9.633   5.798   4.055
 3519SOL    HW221777   9.659   5.753   4.210
 3520SOL     OW21778   3.224   8.836   0.430
 3520SOL    HW121779   3.214   8.738   0.410
 3520SOL    HW221780   3.321   8.857   0.444
 3521SOL     OW21781   0.661   3.741   5.605
 3521SOL    HW121782   0.599   3.664   5.622
 3521SOL    HW221783   0.723   3.719   5.530
 3522SOL     OW21784   2.843   2.444   3.716
 3522SOL    HW121785   2.768   2.479   3.773
 3522SOL    HW221786   2.830   2.347   3.700
 3523SOL     OW21787   6.773   0.410   5.763
 3523SOL    HW121788   6.673   0.406   5.773
 3523SOL    HW221789   6.816   0.384   5.849
 3524SOL     OW21790   7.376   4.062   1.091
 3524SOL    HW121791   7.418   4.088   1.178
 3524SOL    HW221792   7.303   4.126   1.069
 3525SOL     OW21793   3.492   1.230   3.588
 3525SOL    HW121794   3.566   1.297   3.596
 3525SOL    HW221795   3.499   1.163   3.661
 3526SOL     OW21796   3.943   0.620   1.596
 3526SOL    HW121797   3.843   0.619   1.595
 3526SOL    HW221798   3.977   0.527   1.581
 3527SOL     OW21799   1.665   2.171   6.016
 3527SOL    HW121800   1.634   2.122   6.098
 3527SOL    HW221801   1.764   2.184   6.021
 3528SOL     OW21802   8.704   1.761   3.617
 3528SOL    HW121803   8.604   1.762   3.620
 3528SOL    HW221804   8.736   1.835   3.558
 3529SOL     OW21805   7.848   2.596   1.838
 3529SOL    HW121806   7.773   2.613   1.901
 3529SOL    HW221807   7.865   2.497   1.831
 3530SOL     OW21808   1.112   3.383   0.478
 3530SOL    HW121809   1.205   3.372   0.512
 3530SOL    HW221810   1.073   3.293   0.457
 3531SOL     OW21811   3.958   2.618   4.006
 3531SOL    HW121812   3.882   2.621   3.940
 3531SOL    HW221813   4.045   2.623   3.956
 3532SOL     OW21814   5.633   5.565   1.490
 3532SOL    HW121815   5.548   5.533   1.448
 3532SOL    HW221816   5.682   5.624   1.426
 3533SOL     OW21817   8.732   0.481   0.259
 3533SOL    HW121818   8.791   0.515   0.333
 3533SOL    HW221819   8.772   0.398   0.221
 3534SOL     OW21820   2.632   5.996   3.971
 3534SOL    HW121821   2.599   5.967   3.881
 3534SOL    HW221822   2.597   6.088   3.991
 3535SOL     OW21823   9.708   4.110   5.822
 3535SOL    HW121824   9.665   4.043   5.763
 3535SOL    HW221825   9.643   4.183   5.844
 3536SOL     OW21826   9.187   4.778   0.650
 3536SOL    HW121827   9.119   4.713   0.685
 3536SOL    HW221828   9.248   4.805   0.723
 3537SOL     OW21829   3.122   3.986   5.865
 3537SOL    HW121830   3.076   4.067   5.828
 3537SOL    HW221831   3.063   3.906   5.855
 3538SOL     OW21832   0.898   2.125   5.958
 3538SOL    HW121833   0.956   2.117   5.878
 3538SOL    HW221834   0.954   2.132   6.040
 3539SOL     OW21835   1.086   5.499   6.074
 3539SOL    HW121836   1.114   5.570   6.138
 3539SOL    HW221837   1.093   5.535   5.980
 3540SOL     OW21838   9.281   8.735   6.311
 3540SOL    HW121839   9.330   8.755   6.226
 3540SOL    HW221840   9.281   8.637   6.327
 3541SOL     OW21841   2.608   7.383   4.141
 3541SOL    HW121842   2.645   7.469   4.106
 3541SOL    HW221843   2.572   7.329   4.065
 3542SOL     OW21844   5.130   1.333   2.129
 3542SOL    HW121845   5.144   1.431   2.142
 3542SOL    HW221846   5.115   1.314   2.032
 3543SOL     OW21847   1.574   7.369   0.534
 3543SOL    HW121848   1.495   7.400   0.587
 3543SOL    HW221849   1.574   7.269   0.529
 3544SOL     OW21850   8.604   0.088   0.917
 3544SOL    HW121851   8.537   0.153   0.953
 3544SOL    HW221852   8.683   0.084   0.978
 3545SOL     OW21853   4.882   3.935   1.174
 3545SOL    HW121854   4.858   3.976   1.262
 3545SOL    HW221855   4.904   3.838   1.187
 3546SOL     OW21856   8.099   8.766   4.432
 3546SOL    HW121857   8.138   8.683   4.391
 3546SOL    HW221858   8.016   8.791   4.382
 3547SOL     OW21859   8.235   2.431   1.158
 3547SOL    HW121860   8.313   2.368   1.159
 3547SOL    HW221861   8.176   2.408   1.081
 3548SOL     OW21862   8.802   5.877   5.150
 3548SOL    HW121863   8.783   5.901   5.055
 3548SOL    HW221864   8.808   5.960   5.206
 3549SOL     OW21865   9.749   2.947   2.868
 3549SOL    HW121866   9.839   2.972   2.833
 3549SOL    HW221867   9.735   2.989   2.957
 3550SOL     OW21868   6.761   1.050   3.163
 3550SOL    HW121869   6.814   1.033   3.246
 3550SOL    HW221870   6.664   1.044   3.184
 3551SOL     OW21871   9.073   6.111   2.499
 3551SOL    HW121872   9.164   6.112   2.540
 3551SOL    HW221873   9.052   6.202   2.464
 3552SOL     OW21874   2.077   7.240   1.613
 3552SOL    HW121875   2.136   7.169   1.652
 3552SOL    HW221876   2.125   7.328   1.617
 3553SOL     OW21877   9.803   3.448   5.014
 3553SOL    HW121878   9.777   3.357   5.044
 3553SOL    HW221879   9.808   3.509   5.093
 3554SOL     OW21880   9.064   4.078   6.163
 3554SOL    HW121881   9.013   4.061   6.079
 3554SOL    HW221882   9.105   4.169   6.160
 3555SOL     OW21883   7.492   6.672   4.045
 3555SOL    HW121884   7.452   6.748   4.097
 3555SOL    HW221885   7.514   6.702   3.952
 3556SOL     OW21886   9.409   6.116   6.098
 3556SOL    HW121887   9.394   6.207   6.058
 3556SOL    HW221888   9.324   6.084   6.139
 3557SOL     OW21889   1.412   0.019   4.764
 3557SOL    HW121890   1.319   0.044   4.793
 3557SOL    HW221891   1.421   9.920   4.765
 3558SOL     OW21892   5.129   1.721   4.718
 3558SOL    HW121893   5.203   1.654   4.718
 3558SOL    HW221894   5.126   1.768   4.806
 3559SOL     OW21895   6.431   0.873   2.244
 3559SOL    HW121896   6.391   0.839   2.329
 3559SOL    HW221897   6.409   0.811   2.169
 3560SOL     OW21898   2.224   6.601   3.298
 3560SOL    HW121899   2.295   6.563   3.357
 3560SOL    HW221900   2.184   6.529   3.241
 3561SOL     OW21901   3.977   3.576   2.855
 3561SOL    HW121902   3.882   3.577   2.824
 3561SOL    HW221903   3.980   3.552   2.952
 3562SOL     OW21904   9.921   1.264   1.912
 3562SOL    HW121905   9.833   1.229   1.944
 3562SOL    HW221906   9.944   1.221   1.825
 3563SOL     OW21907   1.245   8.167   4.460
 3563SOL    HW121908   1.318   8.236   4.454
 3563SOL    HW221909   1.236   8.137   4.554
 3564SOL     OW21910   2.582   9.134   0.126
 3564SOL    HW121911   2.654   9.071   0.154
 3564SOL    HW221912   2.493   9.095   0.146
 3565SOL     OW21913   3.827   4.740   6.133
 3565SOL    HW121914   3.847   4.836   6.150
 3565SOL    HW221915   3.801   4.728   6.037
 3566SOL     OW21916   7.532   1.323   5.239
 3566SOL    HW121917   7.563   1.417   5.228
 3566SOL    HW221918   7.612   1.262   5.246
 3567SOL     OW21919   8.107   2.885   5.458
 3567SOL    HW121920   8.113   2.984   5.461
 3567SOL    HW221921   8.104   2.854   5.363
 3568SOL     OW21922   3.372   2.208   0.952
 3568SOL    HW121923   3.346   2.204   0.855
 3568SOL    HW221924   3.294   2.177   1.007
 3569SOL     OW21925   4.037   0.677   4.415
 3569SOL    HW121926   4.121   0.732   4.408
 3569SOL    HW221927   3.988   0.704   4.498
 3570SOL     OW21928   6.753   5.894   6.277
 3570SOL    HW121929   6.762   5.826   6.350
 3570SOL    HW221930   6.836   5.948   6.271
 3571SOL     OW21931   2.480   2.400   1.427
 3571SOL    HW121932   2.493   2.348   1.343
 3571SOL    HW221933   2.490   2.498   1.407
 3572SOL     OW21934   3.191   5.834   0.723
 3572SOL    HW121935   3.221   5.749   0.766
 3572SOL    HW221936   3.091   5.832   0.712
 3573SOL     OW21937   2.583   2.315   0.476
 3573SOL    HW121938   2.523   2.382   0.520
 3573SOL    HW221939   2.611   2.349   0.386
 3574SOL     OW21940   9.320   4.912   0.852
 3574SOL    HW121941   9.412   4.946   0.833
 3574SOL    HW221942   9.258   4.989   0.862
 3575SOL     OW21943   4.564   3.920   5.398
 3575SOL    HW121944   4.524   3.840   5.442
 3575SOL    HW221945   4.610   3.976   5.467
 3576SOL     OW21946   2.621   7.883   2.646
 3576SOL    HW121947   2.600   7.867   2.743
 3576SOL    HW221948   2.547   7.848   2.590
 3577SOL     OW21949   6.996   4.163   1.356
 3577SOL    HW121950   7.028   4.080   1.311
 3577SOL    HW221951   6.943   4.218   1.291
 3578SOL     OW21952   0.403   8.157   0.623
 3578SOL    HW121953   0.394   8.236   0.562
 3578SOL    HW221954   0.323   8.151   0.682
 3579SOL     OW21955   8.567   8.626   5.934
 3579SOL    HW121956   8.514   8.666   6.008
 3579SOL    HW221957   8.665   8.634   5.955
 3580SOL     OW21958   2.294   1.981   5.396
 3580SOL    HW121959   2.205   1.969   5.441
 3580SOL    HW221960   2.366   1.973   5.465
 3581SOL     OW21961   2.678   9.201   0.432
 3581SOL    HW121962   2.729   9.194   0.518
 3581SOL    HW221963   2.590   9.155   0.441
 3582SOL     OW21964   1.512   3.776   4.717
 3582SOL    HW121965   1.574   3.848   4.683
 3582SOL    HW221966   1.537   3.689   4.675
 3583SOL     OW21967   2.843   8.757   4.623
 3583SOL    HW121968   2.897   8.791   4.700
 3583SOL    HW221969   2.876   8.666   4.597
 3584SOL     OW21970   6.270   0.255   2.359
 3584SOL    HW121971   6.226   0.339   2.390
 3584SOL    HW221972   6.315   0.210   2.437
 3585SOL     OW21973   4.721   1.608   0.311
 3585SOL    HW121974   4.767   1.631   0.225
 3585SOL    HW221975   4.627   1.643   0.309
 3586SOL     OW21976   2.115   1.855   6.288
 3586SOL    HW121977   2.051   1.778   6.293
 3586SOL    HW221978   2.209   1.821   6.296
 3587SOL     OW21979   7.266   2.686   5.888
 3587SOL    HW121980   7.304   2.656   5.976
 3587SOL    HW221981   7.283   2.617   5.818
 3588SOL     OW21982   4.971   4.108   1.871
 3588SOL    HW121983   5.015   4.047   1.937
 3588SOL    HW221984   4.889   4.148   1.913
 3589SOL     OW21985   1.864   7.757   0.936
 3589SOL    HW121986   1.835   7.806   1.018
 3589SOL    HW221987   1.798   7.686   0.913
 3590SOL     OW21988   0.256   8.204   6.086
 3590SOL    HW121989   0.353   8.187   6.069
 3590SOL    HW221990   0.225   8.145   6.161
 3591SOL     OW21991   8.918   4.030   3.154
 3591SOL    HW121992   8.966   3.944   3.174
 3591SOL    HW221993   8.921   4.090   3.233
 3592SOL     OW21994   1.857   0.360   3.278
 3592SOL    HW121995   1.870   0.300   3.199
 3592SOL    HW221996   1.945   0.389   3.313
 3593SOL     OW21997   2.218   5.067   5.761
 3593SOL    HW121998   2.231   5.132   5.686
 3593SOL    HW221999   2.173   5.113   5.838
 3594SOL     OW22000   1.750   0.647   6.102
 3594SOL    HW122001   1.776   0.695   6.018
 3594SOL    HW222002   1.791   0.556   6.102
 3595SOL     OW22003   0.641   4.247   4.723
 3595SOL    HW122004   0.626   4.272   4.627
 3595SOL    HW222005   0.585   4.168   4.745
 3596SOL     OW22006   5.402   0.471   4.668
 3596SOL    HW122007   5.402   0.471   4.568
 3596SOL    HW222008   5.473   0.408   4.701
 3597SOL     OW22009   5.038   7.880   1.796
 3597SOL    HW122010   5.090   7.922   1.870
 3597SOL    HW222011   5.022   7.947   1.724
 3598SOL     OW22012   9.351   6.578   5.542
 3598SOL    HW122013   9.263   6.625   5.532
 3598SOL    HW222014   9.412   6.605   5.467
 3599SOL     OW22015   0.366   6.882   3.160
 3599SOL    HW122016   0.436   6.815   3.135
 3599SOL    HW222017   0.296   6.886   3.089
 3600SOL     OW22018   1.665   8.182   6.089
 3600SOL    HW122019   1.680   8.088   6.057
 3600SOL    HW222020   1.657   8.182   6.189
 3601SOL     OW22021   6.285   8.269   6.113
 3601SOL    HW122022   6.262   8.366   6.120
 3601SOL    HW222023   6.376   8.259   6.073
 3602SOL     OW22024   1.055   9.967   3.473
 3602SOL    HW122025   1.061   9.975   3.573
 3602SOL    HW222026   0.964   9.994   3.443
 3603SOL     OW22027   7.304   9.475   5.105
 3603SOL    HW122028   7.404   9.477   5.102
 3603SOL    HW222029   7.272   9.531   5.182
 3604SOL     OW22030   9.430   0.554   0.196
 3604SOL    HW122031   9.433   0.459   0.164
 3604SOL    HW222032   9.391   0.556   0.288
 3605SOL     OW22033   0.077   9.032   4.944
 3605SOL    HW122034   0.084   9.052   5.041
 3605SOL    HW222035   9.987   9.061   4.910
 3606SOL     OW22036   6.051   4.101   1.047
 3606SOL    HW122037   6.070   4.172   1.115
 3606SOL    HW222038   5.952   4.089   1.039
 3607SOL     OW22039   2.273   1.100   4.577
 3607SOL    HW122040   2.364   1.141   4.587
 3607SOL    HW222041   2.206   1.155   4.627
 3608SOL     OW22042   6.041   1.328   5.857
 3608SOL    HW122043   6.111   1.335   5.928
 3608SOL    HW222044   6.075   1.269   5.783
 3609SOL     OW22045   2.993   7.126   5.973
 3609SOL    HW122046   3.089   7.138   6.000
 3609SOL    HW222047   2.989   7.090   5.880
 3610SOL     OW22048   1.608   9.209   1.885
 3610SOL    HW122049   1.609   9.120   1.841
 3610SOL    HW222050   1.643   9.278   1.822
 3611SOL     OW22051   5.664   1.320   3.190
 3611SOL    HW122052   5.610   1.291   3.111
 3611SOL    HW222053   5.721   1.244   3.222
 3612SOL     OW22054   7.171   3.264   2.664
 3612SOL    HW122055   7.193   3.314   2.747
 3612SOL    HW222056   7.116   3.183   2.686
 3613SOL     OW22057   8.575   3.835   2.836
 3613SOL    HW122058   8.623   3.852   2.921
 3613SOL    HW222059   8.629   3.773   2.779
 3614SOL     OW22060   3.761   8.415   3.880
 3614SOL    HW122061   3.831   8.347   3.905
 3614SOL    HW222062   3.674   8.368   3.864
 3615SOL     OW22063   7.314   0.826   4.829
 3615SOL    HW122064   7.238   0.763   4.842
 3615SOL    HW222065   7.280   0.920   4.827
 3616SOL     OW22066   9.128   4.712   2.045
 3616SOL    HW122067   9.120   4.811   2.037
 3616SOL    HW222068   9.090   4.683   2.133
 3617SOL     OW22069   0.175   9.239   0.306
 3617SOL    HW122070   0.217   9.197   0.225
 3617SOL    HW222071   0.157   9.168   0.374
 3618SOL     OW22072   1.342   6.218   0.254
 3618SOL    HW122073   1.300   6.160   0.184
 3618SOL    HW222074   1.273   6.248   0.319
 3619SOL     OW22075   4.647   3.076   4.324
 3619SOL    HW122076   4.591   3.155   4.298
 3619SOL    HW222077   4.706   3.100   4.400
 3620SOL     OW22078   8.640   4.679   5.261
 3620SOL    HW122079   8.630   4.770   5.222
 3620SOL    HW222080   8.573   4.617   5.220
 3621SOL     OW22081   3.121   8.969   2.738
 3621SOL    HW122082   3.203   8.914   2.724
 3621SOL    HW222083   3.111   8.990   2.836
 3622SOL     OW22084   1.950   5.521   2.196
 3622SOL    HW122085   2.034   5.548   2.149
 3622SOL    HW222086   1.964   5.524   2.295
 3623SOL     OW22087   4.351   1.429   0.306
 3623SOL    HW122088   4.441   1.386   0.299
 3623SOL    HW222089   4.333   1.455   0.401
 3624SOL     OW22090   4.414   4.524   2.999
 3624SOL    HW122091   4.450   4.462   3.069
 3624SOL    HW222092   4.452   4.615   3.014
 3625SOL     OW22093   0.499   2.475   4.908
 3625SOL    HW122094   0.510   2.528   4.825
 3625SOL    HW222095   0.482   2.379   4.885
 3626SOL     OW22096   3.215   9.229   5.295
 3626SOL    HW122097   3.186   9.134   5.304
 3626SOL    HW222098   3.242   9.265   5.385
 3627SOL     OW22099   3.658   3.737   3.378
 3627SOL    HW122100   3.589   3.744   3.451
 3627SOL    HW222101   3.748   3.759   3.416
 3628SOL     OW22102   7.587   9.636   3.471
 3628SOL    HW122103   7.668   9.581   3.447
 3628SOL    HW222104   7.606   9.732   3.454
 3629SOL     OW22105   2.780   1.482   3.256
 3629SOL    HW122106   2.719   1.460   3.180
 3629SOL    HW222107   2.836   1.402   3.278
 3630SOL     OW22108   7.018   1.015   1.602
 3630SOL    HW122109   6.919   1.006   1.614
 3630SOL    HW222110   7.053   1.084   1.665
 3631SOL     OW22111   0.461   6.497   3.257
 3631SOL    HW122112   0.484   6.402   3.275
 3631SOL    HW222113   0.521   6.557   3.310
 3632SOL     OW22114   2.306   4.879   3.674
 3632SOL    HW122115   2.313   4.974   3.704
 3632SOL    HW222116   2.210   4.854   3.665
 3633SOL     OW22117   5.363   6.083   0.768
 3633SOL    HW122118   5.372   6.158   0.834
 3633SOL    HW222119   5.288   6.103   0.706
 3634SOL     OW22120   9.214   3.571   4.570
 3634SOL    HW122121   9.291   3.633   4.587
 3634SOL    HW222122   9.243   3.477   4.585
 3635SOL     OW22123   9.615   7.042   3.065
 3635SOL    HW122124   9.607   6.944   3.046
 3635SOL    HW222125   9.544   7.069   3.130
 3636SOL     OW22126   9.657   3.003   1.156
 3636SOL    HW122127   9.744   3.045   1.181
 3636SOL    HW222128   9.623   2.949   1.233
 3637SOL     OW22129   0.743   6.012   6.297
 3637SOL    HW122130   0.773   5.934   6.242
 3637SOL    HW222131   0.658   5.989   6.345
 3638SOL     OW22132   0.219   8.763   2.673
 3638SOL    HW122133   0.134   8.773   2.724
 3638SOL    HW222134   0.262   8.676   2.698
 3639SOL     OW22135   9.344   5.183   4.001
 3639SOL    HW122136   9.422   5.140   4.046
 3639SOL    HW222137   9.265   5.120   4.003
 3640SOL     OW22138   9.467   4.704   6.005
 3640SOL    HW122139   9.478   4.802   5.988
 3640SOL    HW222140   9.472   4.686   6.103
 3641SOL     OW22141   0.586   8.281   3.138
 3641SOL    HW122142   0.492   8.315   3.135
 3641SOL    HW222143   0.644   8.340   3.082
 3642SOL     OW22144   2.240   4.484   5.937
 3642SOL    HW122145   2.225   4.414   6.007
 3642SOL    HW222146   2.189   4.458   5.854
 3643SOL     OW22147   8.882   0.343   3.125
 3643SOL    HW122148   8.964   0.340   3.183
 3643SOL    HW222149   8.801   0.335   3.183
 3644SOL     OW22150   0.126   3.190   6.315
 3644SOL    HW122151   0.131   3.289   6.327
 3644SOL    HW222152   0.171   3.164   6.230
 3645SOL     OW22153   7.911   8.413   2.984
 3645SOL    HW122154   7.978   8.487   2.989
 3645SOL    HW222155   7.930   8.356   2.904
 3646SOL     OW22156   2.373   3.297   3.100
 3646SOL    HW122157   2.424   3.212   3.089
 3646SOL    HW222158   2.295   3.297   3.037
 3647SOL     OW22159   4.077   3.900   5.791
 3647SOL    HW122160   4.017   3.941   5.860
 3647SOL    HW222161   4.054   3.937   5.701
 3648SOL     OW22162   1.983   9.847   4.453
 3648SOL    HW122163   1.903   9.898   4.485
 3648SOL    HW222164   2.065   9.902   4.467
 3649SOL     OW22165   3.211   4.317   6.166
 3649SOL    HW122166   3.278   4.365   6.221
 3649SOL    HW222167   3.243   4.223   6.149
 3650SOL     OW22168   1.911   1.978   0.418
 3650SOL    HW122169   1.950   2.069   0.431
 3650SOL    HW222170   1.814   1.986   0.398
 3651SOL     OW22171   7.043   5.766   6.408
 3651SOL    HW122172   7.058   5.745   6.312
 3651SOL    HW222173   6.958   5.723   6.439
 3652SOL     OW22174   5.560   1.959   4.063
 3652SOL    HW122175   5.554   1.993   4.157
 3652SOL    HW222176   5.635   2.004   4.016
 3653SOL     OW22177   4.946   0.872   4.334
 3653SOL    HW122178   4.942   0.784   4.380
 3653SOL    HW222179   5.041   0.893   4.309
 3654SOL     OW22180   3.569   5.862   0.422
 3654SOL    HW122181   3.625   5.939   0.450
 3654SOL    HW222182   3.611   5.817   0.343
 3655SOL     OW22183   9.449   0.431   0.717
 3655SOL    HW122184   9.380   0.369   0.678
 3655SOL    HW222185   9.537   0.383   0.720
 3656SOL     OW22186   5.877   5.974   1.747
 3656SOL    HW122187   5.899   5.912   1.672
 3656SOL    HW222188   5.898   5.929   1.834
 3657SOL     OW22189   2.860   8.569   2.800
 3657SOL    HW122190   2.802   8.590   2.720
 3657SOL    HW222191   2.876   8.471   2.805
 3658SOL     OW22192   4.978   9.602   2.279
 3658SOL    HW122193   4.899   9.642   2.324
 3658SOL    HW222194   5.057   9.663   2.290
 3659SOL     OW22195   4.514   7.299   2.602
 3659SOL    HW122196   4.613   7.298   2.591
 3659SOL    HW222197   4.476   7.383   2.563
 3660SOL     OW22198   8.313   6.476   5.249
 3660SOL    HW122199   8.394   6.456   5.303
 3660SOL    HW222200   8.309   6.574   5.230
 3661SOL     OW22201   0.455   5.498   1.286
 3661SOL    HW122202   0.486   5.455   1.202
 3661SOL    HW222203   0.366   5.541   1.270
 3662SOL     OW22204   9.093   5.275   4.995
 3662SOL    HW122205   9.111   5.199   4.932
 3662SOL    HW222206   9.179   5.310   5.031
 3663SOL     OW22207   1.999   4.630   5.688
 3663SOL    HW122208   2.084   4.637   5.636
 3663SOL    HW222209   1.938   4.704   5.662
 3664SOL     OW22210   1.099   6.118   2.801
 3664SOL    HW122211   1.000   6.111   2.812
 3664SOL    HW222212   1.124   6.214   2.789
 3665SOL     OW22213   9.906   6.149   5.106
 3665SOL    HW122214   9.807   6.161   5.101
 3665SOL    HW222215   9.928   6.082   5.177
 3666SOL     OW22216   9.527   7.773   1.778
 3666SOL    HW122217   9.595   7.740   1.712
 3666SOL    HW222218   9.530   7.873   1.781
 3667SOL     OW22219   1.315   0.915   4.163
 3667SOL    HW122220   1.283   1.003   4.130
 3667SOL    HW222221   1.238   0.861   4.197
 3668SOL     OW22222   4.466   6.244   3.199
 3668SOL    HW122223   4.454   6.153   3.158
 3668SOL    HW222224   4.404   6.308   3.155
 3669SOL     OW22225   0.654   8.460   1.526
 3669SOL    HW122226   0.631   8.541   1.581
 3669SOL    HW222227   0.601   8.461   1.442
 3670SOL     OW22228   2.677   7.123   5.464
 3670SOL    HW122229   2.731   7.195   5.421
 3670SOL    HW222230   2.719   7.034   5.447
 3671SOL     OW22231   7.726   1.127   3.404
 3671SOL    HW122232   7.669   1.201   3.370
 3671SOL    HW222233   7.669   1.052   3.438
 3672SOL     OW22234   7.979   3.879   0.896
 3672SOL    HW122235   7.993   3.838   0.806
 3672SOL    HW222236   8.054   3.853   0.957
 3673SOL     OW22237   4.861   6.917   1.191
 3673SOL    HW122238   4.835   7.013   1.191
 3673SOL    HW222239   4.884   6.889   1.284
 3674SOL     OW22240   2.479   6.759   3.807
 3674SOL    HW122241   2.508   6.774   3.712
 3674SOL    HW222242   2.380   6.752   3.810
 3675SOL     OW22243   5.726   1.809   0.260
 3675SOL    HW122244   5.799   1.841   0.199
 3675SOL    HW222245   5.733   1.857   0.347
 3676SOL     OW22246   0.714   3.342   5.721
 3676SOL    HW122247   0.722   3.266   5.656
 3676SOL    HW222248   0.736   3.309   5.813
 3677SOL     OW22249   0.976   5.320   2.835
 3677SOL    HW122250   1.027   5.276   2.909
 3677SOL    HW222251   0.880   5.328   2.862
 3678SOL     OW22252   4.670   0.119   5.105
 3678SOL    HW122253   4.635   0.051   5.170
 3678SOL    HW222254   4.599   0.186   5.085
 3679SOL     OW22255   4.955   2.811   3.554
 3679SOL    HW122256   4.925   2.785   3.646
 3679SOL    HW222257   4.901   2.889   3.522
 3680SOL     OW22258   5.534   2.561   0.232
 3680SOL    HW122259   5.455   2.617   0.254
 3680SOL    HW222260   5.599   2.614   0.178
 3681SOL     OW22261   9.040   7.788   4.235
 3681SOL    HW122262   9.115   7.771   4.171
 3681SOL    HW222263   8.986   7.704   4.246
 3682SOL     OW22264   0.177   0.305   0.847
 3682SOL    HW122265   0.225   0.246   0.782
 3682SOL    HW222266   0.079   0.292   0.838
 3683SOL     OW22267   2.747   9.787   5.909
 3683SOL    HW122268   2.784   9.864   5.961
 3683SOL    HW222269   2.806   9.707   5.922
 3684SOL     OW22270   8.772   9.462   0.609
 3684SOL    HW122271   8.815   9.463   0.519
 3684SOL    HW222272   8.842   9.461   0.681
 3685SOL     OW22273   5.603   9.189   2.360
 3685SOL    HW122274   5.684   9.237   2.326
 3685SOL    HW222275   5.627   9.094   2.381
 3686SOL     OW22276   6.347   9.024   5.864
 3686SOL    HW122277   6.382   8.944   5.912
 3686SOL    HW222278   6.283   9.073   5.924
 3687SOL     OW22279   7.722   8.564   4.231
 3687SOL    HW122280   7.726   8.517   4.320
 3687SOL    HW222281   7.815   8.580   4.198
 3688SOL     OW22282   4.516   4.343   6.238
 3688SOL    HW122283   4.583   4.402   6.192
 3688SOL    HW222284   4.430   4.393   6.249
 3689SOL     OW22285   8.025   1.169   1.142
 3689SOL    HW122286   7.960   1.128   1.205
 3689SOL    HW222287   8.110   1.190   1.191
 3690SOL     OW22288   2.834   6.838   2.314
 3690SOL    HW122289   2.887   6.889   2.247
 3690SOL    HW222290   2.771   6.900   2.362
 3691SOL     OW22291   1.409   4.076   3.794
 3691SOL    HW122292   1.493   4.048   3.748
 3691SOL    HW222293   1.331   4.059   3.733
 3692SOL     OW22294   8.136   0.153   0.640
 3692SOL    HW122295   8.038   0.135   0.654
 3692SOL    HW222296   8.187   0.067   0.644
 3693SOL     OW22297   8.992   4.184   5.429
 3693SOL    HW122298   8.915   4.207   5.370
 3693SOL    HW222299   9.066   4.251   5.416
 3694SOL     OW22300   9.878   2.210   2.542
 3694SOL    HW122301   9.909   2.298   2.580
 3694SOL    HW222302   9.928   2.136   2.587
 3695SOL     OW22303   2.522   6.516   5.289
 3695SOL    HW122304   2.590   6.529   5.362
 3695SOL    HW222305   2.450   6.455   5.322
 3696SOL     OW22306   9.993   7.023   3.697
 3696SOL    HW122307   9.974   6.925   3.709
 3696SOL    HW222308   9.994   7.068   3.786
 3697SOL     OW22309   9.323   3.000   0.364
 3697SOL    HW122310   9.274   2.991   0.450
 3697SOL    HW222311   9.261   2.986   0.287
 3698SOL     OW22312   9.647   5.901   2.283
 3698SOL    HW122313   9.643   5.829   2.352
 3698SOL    HW222314   9.638   5.860   2.192
 3699SOL     OW22315   9.334   2.251   3.932
 3699SOL    HW122316   9.330   2.351   3.930
 3699SOL    HW222317   9.368   2.217   3.845
 3700SOL     OW22318   8.142   3.022   3.888
 3700SOL    HW122319   8.177   3.000   3.979
 3700SOL    HW222320   8.196   2.974   3.819
 3701SOL     OW22321   0.578   6.033   3.145
 3701SOL    HW122322   0.498   6.004   3.093
 3701SOL    HW222323   0.637   5.954   3.165
 3702SOL     OW22324   0.549   2.143   1.837
 3702SOL    HW122325   0.533   2.114   1.742
 3702SOL    HW222326   0.534   2.242   1.844
 3703SOL     OW22327   2.943   2.224   0.415
 3703SOL    HW122328   2.899   2.239   0.504
 3703SOL    HW222329   2.931   2.129   0.388
 3704SOL     OW22330   9.400   9.909   4.141
 3704SOL    HW122331   9.342   9.894   4.221
 3704SOL    HW222332   9.495   9.921   4.171
 3705SOL     OW22333   9.090   9.742   5.848
 3705SOL    HW122334   8.992   9.758   5.836
 3705SOL    HW222335   9.113   9.652   5.810
 3706SOL     OW22336   2.055   3.249   0.334
 3706SOL    HW122337   2.111   3.201   0.402
 3706SOL    HW222338   2.066   3.348   0.345
 3707SOL     OW22339   5.095   0.925   3.648
 3707SOL    HW122340   5.089   0.826   3.639
 3707SOL    HW222341   5.080   0.969   3.559
 3708SOL     OW22342   0.727   7.349   5.647
 3708SOL    HW122343   0.724   7.400   5.561
 3708SOL    HW222344   0.637   7.348   5.689
 3709SOL     OW22345   4.377   1.113   4.454
 3709SOL    HW122346   4.431   1.087   4.534
 3709SOL    HW222347   4.406   1.203   4.422
 3710SOL     OW22348   5.186   3.608   1.271
 3710SOL    HW122349   5.249   3.681   1.246
 3710SOL    HW222350   5.217   3.522   1.231
 3711SOL     OW22351   4.067   7.781   1.430
 3711SOL    HW122352   4.029   7.711   1.369
 3711SOL    HW222353   4.011   7.864   1.425
 3712SOL     OW22354   3.116   3.109   0.676
 3712SOL    HW122355   3.035   3.167   0.673
 3712SOL    HW222356   3.142   3.084   0.583
 3713SOL     OW22357   7.584   5.362   1.150
 3713SOL    HW122358   7.515   5.383   1.081
 3713SOL    HW222359   7.661   5.425   1.140
 3714SOL     OW22360   1.574   1.434   4.944
 3714SOL    HW122361   1.475   1.445   4.954
 3714SOL    HW222362   1.619   1.456   5.030
 3715SOL     OW22363   9.781   1.113   1.172
 3715SOL    HW122364   9.725   1.081   1.248
 3715SOL    HW222365   9.752   1.205   1.146
 3716SOL     OW22366   5.614   8.174   3.170
 3716SOL    HW122367   5.530   8.199   3.220
 3716SOL    HW222368   5.595   8.097   3.109
 3717SOL     OW22369   1.203   9.362   6.216
 3717SOL    HW122370   1.301   9.376   6.232
 3717SOL    HW222371   1.187   9.347   6.119
 3718SOL     OW22372   4.474   7.687   4.314
 3718SOL    HW122373   4.400   7.650   4.371
 3718SOL    HW222374   4.438   7.763   4.258
 3719SOL     OW22375   8.330   6.961   4.128
 3719SOL    HW122376   8.247   6.959   4.073
 3719SOL    HW222377   8.403   6.911   4.081
 3720SOL     OW22378   0.805   9.624   1.633
 3720SOL    HW122379   0.843   9.659   1.718
 3720SOL    HW222380   0.708   9.603   1.646
 3721SOL     OW22381   2.103   9.607   4.455
 3721SOL    HW122382   2.157   9.602   4.371
 3721SOL    HW222383   2.055   9.695   4.458
 3722SOL     OW22384   8.833   6.267   1.009
 3722SOL    HW122385   8.766   6.341   1.008
 3722SOL    HW222386   8.910   6.293   1.067
 3723SOL     OW22387   8.954   2.227   4.224
 3723SOL    HW122388   8.991   2.143   4.264
 3723SOL    HW222389   8.988   2.236   4.130
 3724SOL     OW22390   8.344   6.240   1.361
 3724SOL    HW122391   8.308   6.228   1.268
 3724SOL    HW222392   8.268   6.241   1.426
 3725SOL     OW22393   4.463   0.687   3.593
 3725SOL    HW122394   4.395   0.648   3.655
 3725SOL    HW222395   4.518   0.614   3.553
 3726SOL     OW22396   3.865   0.853   2.041
 3726SOL    HW122397   3.905   0.790   1.974
 3726SOL    HW222398   3.765   0.854   2.031
 3727SOL     OW22399   3.369   0.802   5.634
 3727SOL    HW122400   3.404   0.895   5.642
 3727SOL    HW222401   3.421   0.753   5.565
 3728SOL     OW22402   4.142   1.827   3.138
 3728SOL    HW122403   4.120   1.743   3.090
 3728SOL    HW222404   4.071   1.846   3.206
 3729SOL     OW22405   9.860   9.136   0.479
 3729SOL    HW122406   9.945   9.084   0.467
 3729SOL    HW222407   9.871   9.200   0.556
 3730SOL     OW22408   7.436   2.639   1.121
 3730SOL    HW122409   7.439   2.685   1.210
 3730SOL    HW222410   7.342   2.613   1.100
 3731SOL     OW22411   6.119   7.455   4.982
 3731SOL    HW122412   6.047   7.521   4.958
 3731SOL    HW222413   6.152   7.474   5.075
 3732SOL     OW22414   1.794   9.099   4.511
 3732SOL    HW122415   1.722   9.074   4.447
 3732SOL    HW222416   1.769   9.182   4.560
 3733SOL     OW22417   3.751   0.903   6.128
 3733SOL    HW122418   3.762   0.804   6.132
 3733SOL    HW222419   3.839   0.945   6.104
 3734SOL     OW22420   9.878   1.087   0.253
 3734SOL    HW122421   9.935   1.039   0.186
 3734SOL    HW222422   9.938   1.135   0.318
 3735SOL     OW22423   1.232   6.075   2.367
 3735SOL    HW122424   1.138   6.106   2.354
 3735SOL    HW222425   1.241   6.033   2.457
 3736SOL     OW22426   6.526   3.117   1.404
 3736SOL    HW122427   6.608   3.114   1.461
 3736SOL    HW222428   6.526   3.201   1.349
 3737SOL     OW22429   1.235   1.512   4.014
 3737SOL    HW122430   1.149   1.534   4.061
 3737SOL    HW222431   1.311   1.533   4.075
 3738SOL     OW22432   3.851   9.407   3.563
 3738SOL    HW122433   3.827   9.488   3.509
 3738SOL    HW222434   3.824   9.421   3.658
 3739SOL     OW22435   2.245   2.830   0.293
 3739SOL    HW122436   2.178   2.837   0.219
 3739SOL    HW222437   2.269   2.734   0.307
 3740SOL     OW22438   9.100   6.448   4.310
 3740SOL    HW122439   9.024   6.460   4.246
 3740SOL    HW222440   9.153   6.532   4.316
 3741SOL     OW22441   3.673   4.935   1.589
 3741SOL    HW122442   3.747   4.960   1.651
 3741SOL    HW222443   3.689   4.843   1.553
 3742SOL     OW22444   9.049   2.290   4.797
 3742SOL    HW122445   9.120   2.247   4.742
 3742SOL    HW222446   9.089   2.323   4.883
 3743SOL     OW22447   3.014   3.111   1.121
 3743SOL    HW122448   2.961   3.028   1.138
 3743SOL    HW222449   2.966   3.190   1.159
 3744SOL     OW22450   3.573   4.273   3.073
 3744SOL    HW122451   3.531   4.359   3.046
 3744SOL    HW222452   3.501   4.206   3.094
 3745SOL     OW22453   8.587   4.084   2.000
 3745SOL    HW122454   8.626   4.157   2.056
 3745SOL    HW222455   8.649   4.005   2.000
 3746SOL     OW22456   0.761   8.687   3.257
 3746SOL    HW122457   0.705   8.687   3.174
 3746SOL    HW222458   0.828   8.613   3.252
 3747SOL     OW22459   0.836   8.950   4.259
 3747SOL    HW122460   0.920   8.940   4.207
 3747SOL    HW222461   0.764   8.986   4.200
 3748SOL     OW22462   3.587   6.355   2.712
 3748SOL    HW122463   3.588   6.455   2.703
 3748SOL    HW222464   3.521   6.316   2.648
 3749SOL     OW22465   5.592   0.988   1.231
 3749SOL    HW122466   5.623   0.931   1.307
 3749SOL    HW222467   5.505   0.952   1.196
 3750SOL     OW22468   6.886   1.277   5.863
 3750SOL    HW122469   6.911   1.361   5.911
 3750SOL    HW222470   6.876   1.203   5.929
 3751SOL     OW22471   8.439   0.537   2.352
 3751SOL    HW122472   8.418   0.512   2.446
 3751SOL    HW222473   8.521   0.594   2.350
 3752SOL     OW22474   7.884   4.767   3.094
 3752SOL    HW122475   7.867   4.763   2.996
 3752SOL    HW222476   7.852   4.683   3.138
 3753SOL     OW22477   0.540   2.181   0.990
 3753SOL    HW122478   0.473   2.132   0.935
 3753SOL    HW222479   0.631   2.142   0.974
 3754SOL     OW22480   9.268   3.657   5.527
 3754SOL    HW122481   9.238   3.563   5.511
 3754SOL    HW222482   9.332   3.684   5.455
 3755SOL     OW22483   4.494   2.150   1.046
 3755SOL    HW122484   4.442   2.066   1.033
 3755SOL    HW222485   4.484   2.209   0.966
 3756SOL     OW22486   3.472   4.144   2.062
 3756SOL    HW122487   3.436   4.123   1.971
 3756SOL    HW222488   3.540   4.075   2.087
 3757SOL     OW22489   9.309   2.175   0.496
 3757SOL    HW122490   9.374   2.103   0.517
 3757SOL    HW222491   9.285   2.172   0.399
 3758SOL     OW22492   0.403   6.453   0.062
 3758SOL    HW122493   0.394   6.497   8.161
 3758SOL    HW222494   0.396   6.522   0.133
 3759SOL     OW22495   1.138   2.426   4.522
 3759SOL    HW122496   1.159   2.451   4.427
 3759SOL    HW222497   1.077   2.346   4.522
 3760SOL     OW22498   3.288   4.390   4.930
 3760SOL    HW122499   3.229   4.466   4.902
 3760SOL    HW222500   3.371   4.391   4.874
 3761SOL     OW22501   2.248   3.675   6.198
 3761SOL    HW122502   2.273   3.647   6.105
 3761SOL    HW222503   2.218   3.594   6.250
 3762SOL     OW22504   2.911   9.641   3.502
 3762SOL    HW122505   2.935   9.727   3.457
 3762SOL    HW222506   2.839   9.657   3.568
 3763SOL     OW22507   7.473   8.903   3.426
 3763SOL    HW122508   7.528   8.820   3.425
 3763SOL    HW222509   7.438   8.919   3.518
 3764SOL     OW22510   4.111   6.395   1.348
 3764SOL    HW122511   4.035   6.375   1.287
 3764SOL    HW222512   4.132   6.314   1.402
 3765SOL     OW22513   3.430   0.035   1.478
 3765SOL    HW122514   3.362   0.109   1.484
 3765SOL    HW222515   3.401   9.968   1.411
 3766SOL     OW22516   8.663   6.584   2.442
 3766SOL    HW122517   8.675   6.485   2.430
 3766SOL    HW222518   8.744   6.622   2.487
 3767SOL     OW22519   3.996   7.170   2.696
 3767SOL    HW122520   4.033   7.190   2.786
 3767SOL    HW222521   3.897   7.165   2.701
 3768SOL     OW22522   1.615   2.999   1.117
 3768SOL    HW122523   1.523   2.967   1.097
 3768SOL    HW222524   1.665   2.931   1.170
 3769SOL     OW22525   8.432   0.569   0.723
 3769SOL    HW122526   8.377   0.575   0.805
 3769SOL    HW222527   8.415   0.649   0.665
 3770SOL     OW22528   1.188   7.410   5.429
 3770SOL    HW122529   1.155   7.401   5.523
 3770SOL    HW222530   1.288   7.414   5.428
 3771SOL     OW22531   8.216   0.263   4.448
 3771SOL    HW122532   8.149   0.211   4.502
 3771SOL    HW222533   8.238   0.348   4.495
 3772SOL     OW22534   3.364   7.844   0.813
 3772SOL    HW122535   3.336   7.840   0.717
 3772SOL    HW222536   3.445   7.903   0.822
 3773SOL     OW22537   2.438   4.789   4.921
 3773SOL    HW122538   2.377   4.813   4.997
 3773SOL    HW222539   2.460   4.692   4.925
 3774SOL     OW22540   2.505   2.669   1.374
 3774SOL    HW122541   2.440   2.691   1.301
 3774SOL    HW222542   2.583   2.732   1.370
 3775SOL     OW22543   8.951   9.456   3.610
 3775SOL    HW122544   9.028   9.490   3.665
 3775SOL    HW222545   8.867   9.501   3.639
 3776SOL     OW22546   7.071   5.808   6.126
 3776SOL    HW122547   7.063   5.895   6.174
 3776SOL    HW222548   7.160   5.804   6.079
 3777SOL     OW22549   5.476   9.169   4.290
 3777SOL    HW122550   5.468   9.074   4.321
 3777SOL    HW222551   5.551   9.214   4.338
 3778SOL     OW22552   2.184   9.828   2.984
 3778SOL    HW122553   2.157   9.732   2.994
 3778SOL    HW222554   2.284   9.835   2.982
 3779SOL     OW22555   4.205   8.339   2.393
 3779SOL    HW122556   4.215   8.266   2.325
 3779SOL    HW222557   4.108   8.351   2.414
 3780SOL     OW22558   8.635   2.553   2.632
 3780SOL    HW122559   8.625   2.472   2.690
 3780SOL    HW222560   8.620   2.635   2.688
 3781SOL     OW22561   9.666   9.825   0.208
 3781SOL    HW122562   9.639   9.766   0.132
 3781SOL    HW222563   9.607   9.906   0.210
 3782SOL     OW22564   7.571   9.902   6.265
 3782SOL    HW122565   7.559   9.932   6.360
 3782SOL    HW222566   7.653   9.846   6.259
 3783SOL     OW22567   0.096   9.103   1.208
 3783SOL    HW122568   0.180   9.156   1.227
 3783SOL    HW222569   0.047   9.088   1.294
 3784SOL     OW22570   5.212   2.223   0.696
 3784SOL    HW122571   5.251   2.196   0.784
 3784SOL    HW222572   5.236   2.319   0.677
 3785SOL     OW22573   7.474   1.125   2.259
 3785SOL    HW122574   7.377   1.104   2.261
 3785SOL    HW222575   7.488   1.218   2.226
 3786SOL     OW22576   2.404   3.656   3.264
 3786SOL    HW122577   2.410   3.711   3.347
 3786SOL    HW222578   2.308   3.644   3.239
 3787SOL     OW22579   9.146   1.310   6.046
 3787SOL    HW122580   9.237   1.298   6.085
 3787SOL    HW222581   9.128   1.237   5.981
 3788SOL     OW22582   9.432   2.090   1.260
 3788SOL    HW122583   9.460   2.186   1.247
 3788SOL    HW222584   9.339   2.087   1.296
 3789SOL     OW22585   2.692   3.711   4.146
 3789SOL    HW122586   2.594   3.710   4.170
 3789SOL    HW222587   2.729   3.802   4.164
 3790SOL     OW22588   1.321   4.869   3.211
 3790SOL    HW122589   1.293   4.863   3.115
 3790SOL    HW222590   1.262   4.933   3.259
 3791SOL     OW22591   9.380   5.989   0.681
 3791SOL    HW122592   9.468   6.034   0.693
 3791SOL    HW222593   9.315   6.054   0.641
 3792SOL     OW22594   9.911   7.835   0.680
 3792SOL    HW122595   9.824   7.809   0.637
 3792SOL    HW222596   9.914   7.801   0.774
 3793SOL     OW22597   6.985   3.172   2.260
 3793SOL    HW122598   6.958   3.113   2.335
 3793SOL    HW222599   7.050   3.124   2.201
 3794SOL     OW22600   0.104   2.429   3.159
 3794SOL    HW122601   0.029   2.364   3.147
 3794SOL    HW222602   0.158   2.404   3.240
 3795SOL     OW22603   1.542   1.748   4.753
 3795SOL    HW122604   1.483   1.671   4.728
 3795SOL    HW222605   1.575   1.793   4.670
 3796SOL     OW22606   8.604   8.021   5.739
 3796SOL    HW122607   8.631   8.052   5.648
 3796SOL    HW222608   8.554   8.095   5.786
 3797SOL     OW22609   6.343   2.065   5.127
 3797SOL    HW122610   6.325   1.967   5.123
 3797SOL    HW222611   6.258   2.113   5.148
 3798SOL     OW22612   5.480   0.649   4.862
 3798SOL    HW122613   5.550   0.599   4.913
 3798SOL    HW222614   5.444   0.591   4.790
 3799SOL     OW22615   0.919   8.446   1.472
 3799SOL    HW122616   0.822   8.447   1.494
 3799SOL    HW222617   0.935   8.494   1.386
 3800SOL     OW22618   2.251   6.527   0.324
 3800SOL    HW122619   2.237   6.471   0.242
 3800SOL    HW222620   2.326   6.591   0.309
 3801SOL     OW22621   0.586   0.878   3.850
 3801SOL    HW122622   0.598   0.811   3.923
 3801SOL    HW222623   0.629   0.844   3.766
 3802SOL     OW22624   8.063   4.833   1.666
 3802SOL    HW122625   8.135   4.766   1.645
 3802SOL    HW222626   7.999   4.837   1.590
 3803SOL     OW22627   2.940   3.107   6.222
 3803SOL    HW122628   2.843   3.120   6.242
 3803SOL    HW222629   2.952   3.024   6.168
 3804SOL     OW22630   5.583   4.536   0.472
 3804SOL    HW122631   5.510   4.592   0.433
 3804SOL    HW222632   5.672   4.576   0.452
 3805SOL     OW22633   3.825   1.018   5.294
 3805SOL    HW122634   3.787   1.061   5.212
 3805SOL    HW222635   3.750   0.983   5.351
 3806SOL     OW22636   3.451   3.171   5.695
 3806SOL    HW122637   3.430   3.269   5.686
 3806SOL    HW222638   3.486   3.136   5.608
 3807SOL     OW22639   2.639   9.488   2.871
 3807SOL    HW122640   2.682   9.468   2.784
 3807SOL    HW222641   2.546   9.520   2.856
 3808SOL     OW22642   2.729   1.890   2.045
 3808SOL    HW122643   2.747   1.970   2.102
 3808SOL    HW222644   2.689   1.818   2.101
 3809SOL     OW22645   1.371   5.992   0.409
 3809SOL    HW122646   1.375   6.075   0.353
 3809SOL    HW222647   1.444   5.929   0.381
 3810SOL     OW22648   9.761   3.053   2.004
 3810SOL    HW122649   9.840   3.113   2.013
 3810SOL    HW222650   9.728   3.054   1.910
 3811SOL     OW22651   0.825   7.779   0.196
 3811SOL    HW122652   0.736   7.816   0.224
 3811SOL    HW222653   0.814   7.687   0.159
 3812SOL     OW22654   1.068   2.027   6.268
 3812SOL    HW122655   0.977   2.065   6.279
 3812SOL    HW222656   1.126   2.093   6.219
 3813SOL     OW22657   3.110   4.589   2.677
 3813SOL    HW122658   3.098   4.671   2.733
 3813SOL    HW222659   3.021   4.561   2.641
 3814SOL     OW22660   9.735   2.399   5.395
 3814SOL    HW122661   9.798   2.346   5.337
 3814SOL    HW222662   9.745   2.496   5.374
 3815SOL     OW22663   7.985   6.317   0.830
 3815SOL    HW122664   8.017   6.405   0.794
 3815SOL    HW222665   8.039   6.243   0.788
 3816SOL     OW22666   3.879   0.498   5.899
 3816SOL    HW122667   3.897   0.417   5.843
 3816SOL    HW222668   3.808   0.553   5.855
 3817SOL     OW22669   2.745   6.884   0.198
 3817SOL    HW122670   2.769   6.789   0.177
 3817SOL    HW222671   2.829   6.937   0.214
 3818SOL     OW22672   6.840   5.506   0.302
 3818SOL    HW122673   6.768   5.572   0.281
 3818SOL    HW222674   6.823   5.420   0.253
 3819SOL     OW22675   9.652   4.804   3.335
 3819SOL    HW122676   9.580   4.740   3.306
 3819SOL    HW222677   9.736   4.784   3.285
 3820SOL     OW22678   9.339   8.946   4.874
 3820SOL    HW122679   9.384   9.029   4.840
 3820SOL    HW222680   9.322   8.883   4.798
 3821SOL     OW22681   3.067   5.567   3.585
 3821SOL    HW122682   3.046   5.664   3.572
 3821SOL    HW222683   3.069   5.521   3.496
 3822SOL     OW22684   2.740   6.961   3.695
 3822SOL    HW122685   2.662   6.915   3.651
 3822SOL    HW222686   2.749   7.053   3.657
 3823SOL     OW22687   1.741   9.004   5.371
 3823SOL    HW122688   1.786   9.065   5.306
 3823SOL    HW222689   1.661   8.962   5.327
 3824SOL     OW22690   1.721   5.067   3.826
 3824SOL    HW122691   1.639   5.018   3.856
 3824SOL    HW222692   1.705   5.166   3.831
 3825SOL     OW22693   3.241   6.291   4.114
 3825SOL    HW122694   3.274   6.314   4.205
 3825SOL    HW222695   3.195   6.370   4.074
 3826SOL     OW22696   3.826   6.215   2.239
 3826SOL    HW122697   3.764   6.275   2.189
 3826SOL    HW222698   3.898   6.183   2.177
 3827SOL     OW22699   4.735   6.927   1.785
 3827SOL    HW122700   4.722   7.008   1.728
 3827SOL    HW222701   4.659   6.863   1.769
 3828SOL     OW22702   6.299   2.567   0.051
 3828SOL    HW122703   6.219   2.619   0.078
 3828SOL    HW222704   6.381   2.624   0.058
 3829SOL     OW22705   4.699   3.670   2.310
 3829SOL    HW122706   4.712   3.571   2.314
 3829SOL    HW222707   4.688   3.705   2.403
 3830SOL     OW22708   2.446   4.368   0.898
 3830SOL    HW122709   2.495   4.408   0.975
 3830SOL    HW222710   2.486   4.278   0.877
 3831SOL     OW22711   5.546   3.082   0.316
 3831SOL    HW122712   5.452   3.098   0.287
 3831SOL    HW222713   5.551   3.084   0.416
 3832SOL     OW22714   7.664   8.577   3.205
 3832SOL    HW122715   7.641   8.611   3.296
 3832SOL    HW222716   7.706   8.487   3.212
 3833SOL     OW22717   4.473   8.058   6.198
 3833SOL    HW122718   4.405   8.132   6.199
 3833SOL    HW222719   4.435   7.979   6.150
 3834SOL     OW22720   9.209   4.538   4.793
 3834SOL    HW122721   9.169   4.494   4.874
 3834SOL    HW222722   9.284   4.596   4.821
 3835SOL     OW22723   2.101   2.508   1.444
 3835SOL    HW122724   2.121   2.463   1.357
 3835SOL    HW222725   2.179   2.564   1.472
 3836SOL     OW22726   3.668   2.872   4.253
 3836SOL    HW122727   3.739   2.941   4.262
 3836SOL    HW222728   3.670   2.810   4.332
 3837SOL     OW22729   0.981   2.212   3.195
 3837SOL    HW122730   0.883   2.227   3.206
 3837SOL    HW222731   1.027   2.300   3.182
 3838SOL     OW22732   9.484   3.272   5.724
 3838SOL    HW122733   9.389   3.244   5.735
 3838SOL    HW222734   9.530   3.269   5.813
 3839SOL     OW22735   3.244   6.861   6.337
 3839SOL    HW122736   3.232   6.874   6.435
 3839SOL    HW222737   3.169   6.906   6.288
 3840SOL     OW22738   0.967   4.414   6.240
 3840SOL    HW122739   1.014   4.497   6.268
 3840SOL    HW222740   0.870   4.432   6.230
 3841SOL     OW22741   4.610   0.887   3.165
 3841SOL    HW122742   4.588   0.803   3.116
 3841SOL    HW222743   4.709   0.902   3.163
 3842SOL     OW22744   8.342   1.059   3.331
 3842SOL    HW122745   8.343   1.133   3.264
 3842SOL    HW222746   8.270   0.994   3.309
 3843SOL     OW22747   3.415   5.296   6.399
 3843SOL    HW122748   3.450   5.351   6.475
 3843SOL    HW222749   3.466   5.318   6.316
 3844SOL     OW22750   5.141   0.335   3.135
 3844SOL    HW122751   5.170   0.266   3.068
 3844SOL    HW222752   5.043   0.350   3.128
 3845SOL     OW22753   3.397   6.500   2.117
 3845SOL    HW122754   3.300   6.476   2.115
 3845SOL    HW222755   3.415   6.568   2.045
 3846SOL     OW22756   8.114   5.799   2.249
 3846SOL    HW122757   8.156   5.878   2.293
 3846SOL    HW222758   8.185   5.744   2.205
 3847SOL     OW22759   9.593   4.794   1.005
 3847SOL    HW122760   9.592   4.865   0.934
 3847SOL    HW222761   9.547   4.712   0.971
 3848SOL     OW22762   3.832   3.073   1.564
 3848SOL    HW122763   3.764   3.146   1.559
 3848SOL    HW222764   3.906   3.092   1.499
 3849SOL     OW22765   3.861   8.013   3.329
 3849SOL    HW122766   3.843   7.938   3.266
 3849SOL    HW222767   3.881   8.097   3.278
 3850SOL     OW22768   8.472   4.521   6.199
 3850SOL    HW122769   8.487   4.532   6.101
 3850SOL    HW222770   8.547   4.564   6.249
 3851SOL     OW22771   6.776   8.436   2.694
 3851SOL    HW122772   6.688   8.417   2.737
 3851SOL    HW222773   6.786   8.534   2.680
 3852SOL     OW22774   5.577   3.453   0.463
 3852SOL    HW122775   5.489   3.408   0.478
 3852SOL    HW222776   5.650   3.386   0.462
 3853SOL     OW22777   9.581   3.088   2.699
 3853SOL    HW122778   9.643   3.030   2.752
 3853SOL    HW222779   9.513   3.129   2.759
 3854SOL     OW22780   9.789   5.645   5.720
 3854SOL    HW122781   9.747   5.555   5.714
 3854SOL    HW222782   9.887   5.635   5.736
 3855SOL     OW22783   1.843   5.334   1.560
 3855SOL    HW122784   1.910   5.396   1.519
 3855SOL    HW222785   1.851   5.244   1.516
 3856SOL     OW22786   0.435   3.124   3.947
 3856SOL    HW122787   0.489   3.129   4.031
 3856SOL    HW222788   0.492   3.149   3.869
 3857SOL     OW22789   1.624   2.372   3.405
 3857SOL    HW122790   1.546   2.433   3.421
 3857SOL    HW222791   1.668   2.352   3.493
 3858SOL     OW22792   9.872   4.707   4.816
 3858SOL    HW122793   9.921   4.629   4.855
 3858SOL    HW222794   9.923   4.744   4.739
 3859SOL     OW22795   0.570   7.448   1.428
 3859SOL    HW122796   0.568   7.410   1.521
 3859SOL    HW222797   0.569   7.547   1.433
 3860SOL     OW22798   8.150   1.178   3.581
 3860SOL    HW122799   8.151   1.205   3.678
 3860SOL    HW222800   8.223   1.111   3.565
 3861SOL     OW22801   3.505   6.687   4.741
 3861SOL    HW122802   3.493   6.759   4.810
 3861SOL    HW222803   3.598   6.651   4.747
 3862SOL     OW22804   8.778   7.341   0.574
 3862SOL    HW122805   8.837   7.420   0.587
 3862SOL    HW222806   8.786   7.280   0.653
 3863SOL     OW22807   1.961   3.473   2.795
 3863SOL    HW122808   1.920   3.382   2.800
 3863SOL    HW222809   2.051   3.472   2.837
 3864SOL     OW22810   2.610   2.044   0.458
 3864SOL    HW122811   2.605   2.143   0.469
 3864SOL    HW222812   2.547   2.015   0.386
 3865SOL     OW22813   4.051   0.428   2.171
 3865SOL    HW122814   3.975   0.428   2.106
 3865SOL    HW222815   4.045   0.347   2.229
 3866SOL     OW22816   1.210   8.598   1.212
 3866SOL    HW122817   1.264   8.670   1.257
 3866SOL    HW222818   1.246   8.508   1.237
 3867SOL     OW22819   3.602   4.573   6.165
 3867SOL    HW122820   3.566   4.558   6.073
 3867SOL    HW222821   3.678   4.637   6.161
 3868SOL     OW22822   2.678   7.132   2.055
 3868SOL    HW122823   2.607   7.202   2.043
 3868SOL    HW222824   2.733   7.154   2.135
 3869SOL     OW22825   8.442   6.696   0.532
 3869SOL    HW122826   8.439   6.743   0.620
 3869SOL    HW222827   8.538   6.680   0.507
 3870SOL     OW22828   1.457   1.915   4.027
 3870SOL    HW122829   1.500   1.851   3.964
 3870SOL    HW222830   1.373   1.951   3.986
 3871SOL     OW22831   4.102   1.337   2.900
 3871SOL    HW122832   4.012   1.299   2.924
 3871SOL    HW222833   4.104   1.356   2.802
 3872SOL     OW22834   5.839   1.301   5.573
 3872SOL    HW122835   5.907   1.367   5.544
 3872SOL    HW222836   5.750   1.346   5.583
 3873SOL     OW22837   8.173   5.043   1.834
 3873SOL    HW122838   8.131   4.968   1.784
 3873SOL    HW222839   8.255   5.074   1.785
 3874SOL     OW22840   9.783   0.904   3.793
 3874SOL    HW122841   9.858   0.901   3.860
 3874SOL    HW222842   9.728   0.821   3.801
 3875SOL     OW22843   8.582   9.345   6.205
 3875SOL    HW122844   8.496   9.350   6.257
 3875SOL    HW222845   8.561   9.343   6.107
 3876SOL     OW22846   9.460   9.191   4.791
 3876SOL    HW122847   9.552   9.202   4.755
 3876SOL    HW222848   9.395   9.239   4.732
 3877SOL     OW22849   8.583   5.953   2.364
 3877SOL    HW122850   8.519   5.977   2.437
 3877SOL    HW222851   8.642   5.879   2.395
 3878SOL     OW22852   2.886   1.855   0.841
 3878SOL    HW122853   2.831   1.775   0.867
 3878SOL    HW222854   2.883   1.923   0.915
 3879SOL     OW22855   1.292   5.255   5.505
 3879SOL    HW122856   1.340   5.281   5.589
 3879SOL    HW222857   1.245   5.335   5.468
 3880SOL     OW22858   8.452   2.762   2.246
 3880SOL    HW122859   8.352   2.771   2.248
 3880SOL    HW222860   8.479   2.713   2.163
 3881SOL     OW22861   3.907   6.350   3.494
 3881SOL    HW122862   3.879   6.393   3.409
 3881SOL    HW222863   3.870   6.401   3.571
 3882SOL     OW22864   9.781   5.531   1.050
 3882SOL    HW122865   9.707   5.479   1.094
 3882SOL    HW222866   9.868   5.504   1.091
 3883SOL     OW22867   1.283   9.893   4.478
 3883SOL    HW122868   1.381   9.873   4.480
 3883SOL    HW222869   1.243   9.872   4.567
 3884SOL     OW22870   1.838   9.562   4.514
 3884SOL    HW122871   1.931   9.555   4.477
 3884SOL    HW222872   1.838   9.622   4.593
 3885SOL     OW22873   3.176   3.608   1.056
 3885SOL    HW122874   3.109   3.627   1.128
 3885SOL    HW222875   3.227   3.525   1.079
 3886SOL     OW22876   1.272   7.246   5.789
 3886SOL    HW122877   1.278   7.162   5.736
 3886SOL    HW222878   1.199   7.238   5.857
 3887SOL     OW22879   9.333   7.111   5.120
 3887SOL    HW122880   9.398   7.175   5.160
 3887SOL    HW222881   9.357   7.018   5.148
 3888SOL     OW22882   5.607   1.437   3.590
 3888SOL    HW122883   5.586   1.517   3.647
 3888SOL    HW222884   5.699   1.404   3.613
 3889SOL     OW22885   2.074   6.987   0.822
 3889SOL    HW122886   1.975   6.987   0.837
 3889SOL    HW222887   2.119   6.935   0.895
 3890SOL     OW22888   0.428   0.343   4.001
 3890SOL    HW122889   0.471   0.381   4.083
 3890SOL    HW222890   0.343   0.297   4.027
 3891SOL     OW22891   0.775   6.634   6.187
 3891SOL    HW122892   0.695   6.574   6.179
 3891SOL    HW222893   0.752   6.712   6.245
 3892SOL     OW22894   0.777   7.028   4.692
 3892SOL    HW122895   0.741   7.047   4.783
 3892SOL    HW222896   0.823   7.110   4.656
 3893SOL     OW22897   7.210   2.009   2.189
 3893SOL    HW122898   7.198   1.963   2.101
 3893SOL    HW222899   7.121   2.033   2.227
 3894SOL     OW22900   8.404   5.299   5.117
 3894SOL    HW122901   8.334   5.370   5.122
 3894SOL    HW222902   8.413   5.254   5.207
 3895SOL     OW22903   7.135   6.809   3.211
 3895SOL    HW122904   7.199   6.760   3.152
 3895SOL    HW222905   7.082   6.874   3.157
 3896SOL     OW22906   2.790   0.139   3.439
 3896SOL    HW122907   2.716   0.090   3.486
 3896SOL    HW222908   2.751   0.216   3.388
 3897SOL     OW22909   2.937   9.123   1.751
 3897SOL    HW122910   2.932   9.189   1.825
 3897SOL    HW222911   3.029   9.127   1.710
 3898SOL     OW22912   4.927   1.735   4.310
 3898SOL    HW122913   4.948   1.732   4.212
 3898SOL    HW222914   5.004   1.777   4.359
 3899SOL     OW22915   4.161   0.857   3.427
 3899SOL    HW122916   4.182   0.907   3.343
 3899SOL    HW222917   4.180   0.759   3.413
 3900SOL     OW22918   1.697   3.949   4.602
 3900SOL    HW122919   1.721   3.914   4.511
 3900SOL    HW222920   1.669   4.045   4.594
 3901SOL     OW22921   7.897   9.122   4.005
 3901SOL    HW122922   7.926   9.122   4.101
 3901SOL    HW222923   7.966   9.170   3.950
 3902SOL     OW22924   4.224   0.321   2.955
 3902SOL    HW122925   4.131   0.294   2.978
 3902SOL    HW222926   4.240   0.308   2.857
 3903SOL     OW22927   2.241   7.815   4.160
 3903SOL    HW122928   2.187   7.749   4.211
 3903SOL    HW222929   2.198   7.831   4.071
 3904SOL     OW22930   1.281   2.525   6.396
 3904SOL    HW122931   1.364   2.504   6.344
 3904SOL    HW222932   1.233   2.600   6.352
 3905SOL     OW22933   2.501   0.011   4.317
 3905SOL    HW122934   2.472   0.067   4.395
 3905SOL    HW222935   2.455   9.922   4.321
 3906SOL     OW22936   9.952   3.243   2.032
 3906SOL    HW122937   0.012   3.279   2.103
 3906SOL    HW222938   9.931   3.316   1.967
 3907SOL     OW22939   3.226   2.471   2.816
 3907SOL    HW122940   3.129   2.462   2.835
 3907SOL    HW222941   3.249   2.567   2.800
 3908SOL     OW22942   1.738   7.054   6.336
 3908SOL    HW122943   1.685   7.138   6.350
 3908SOL    HW222944   1.835   7.076   6.327
 3909SOL     OW22945   8.018   0.653   2.775
 3909SOL    HW122946   8.050   0.738   2.734
 3909SOL    HW222947   7.975   0.596   2.704
 3910SOL     OW22948   9.973   6.530   1.595
 3910SOL    HW122949   9.994   6.628   1.589
 3910SOL    HW222950   9.919   6.512   1.677
 3911SOL     OW22951   1.774   9.337   0.989
 3911SOL    HW122952   1.858   9.363   0.941
 3911SOL    HW222953   1.752   9.242   0.967
 3912SOL     OW22954   7.609   7.007   4.268
 3912SOL    HW122955   7.628   7.059   4.184
 3912SOL    HW222956   7.679   6.937   4.281
 3913SOL     OW22957   3.041   0.291   5.405
 3913SOL    HW122958   2.951   0.272   5.367
 3913SOL    HW222959   3.111   0.239   5.355
 3914SOL     OW22960   6.017   4.094   0.146
 3914SOL    HW122961   5.923   4.101   0.115
 3914SOL    HW222962   6.070   4.171   0.111
 3915SOL     OW22963   2.662   1.133   4.135
 3915SOL    HW122964   2.575   1.085   4.150
 3915SOL    HW222965   2.711   1.091   4.059
 3916SOL     OW22966   1.182   4.307   5.173
 3916SOL    HW122967   1.255   4.240   5.182
 3916SOL    HW222968   1.130   4.289   5.089
 3917SOL     OW22969   3.584   4.263   2.650
 3917SOL    HW122970   3.651   4.234   2.581
 3917SOL    HW222971   3.564   4.360   2.639
 3918SOL     OW22972   1.513   0.809   3.691
 3918SOL    HW122973   1.444   0.748   3.652
 3918SOL    HW222974   1.511   0.803   3.791
 3919SOL     OW22975   8.147   9.005   3.534
 3919SOL    HW122976   8.206   8.949   3.591
 3919SOL    HW222977   8.052   8.975   3.544
 3920SOL     OW22978   0.787   0.636   3.192
 3920SOL    HW122979   0.799   0.725   3.149
 3920SOL    HW222980   0.695   0.602   3.173
 3921SOL     OW22981   9.477   3.677   3.807
 3921SOL    HW122982   9.519   3.600   3.855
 3921SOL    HW222983   9.439   3.741   3.874
 3922SOL     OW22984   2.222   8.025   4.788
 3922SOL    HW122985   2.169   8.014   4.704
 3922SOL    HW222986   2.316   8.050   4.765
 3923SOL     OW22987   4.879   1.642   4.616
 3923SOL    HW122988   4.884   1.641   4.516
 3923SOL    HW222989   4.967   1.669   4.654
 3924SOL     OW22990   6.739   0.415   3.105
 3924SOL    HW122991   6.775   0.356   3.177
 3924SOL    HW222992   6.714   0.503   3.143
 3925SOL     OW22993   8.205   3.278   3.109
 3925SOL    HW122994   8.128   3.300   3.167
 3925SOL    HW222995   8.287   3.263   3.165
 3926SOL     OW22996   9.577   9.116   3.002
 3926SOL    HW122997   9.492   9.066   3.020
 3926SOL    HW222998   9.577   9.202   3.054
 3927SOL     OW22999   3.459   7.838   5.587
 3927SOL    HW123000   3.453   7.820   5.489
 3927SOL    HW223001   3.387   7.903   5.614
 3928SOL     OW23002   0.091   1.741   1.778
 3928SOL    HW123003   0.104   1.645   1.805
 3928SOL    HW223004   0.179   1.781   1.754
 3929SOL     OW23005   5.627   2.189   0.275
 3929SOL    HW123006   5.674   2.158   0.193
 3929SOL    HW223007   5.675   2.269   0.313
 3930SOL     OW23008   4.101   0.316   3.773
 3930SOL    HW123009   4.063   0.292   3.684
 3930SOL    HW223010   4.032   0.300   3.844
 3931SOL     OW23011   8.256   6.791   0.970
 3931SOL    HW123012   8.307   6.804   1.055
 3931SOL    HW223013   8.320   6.786   0.893
 3932SOL     OW23014   8.989   1.873   2.365
 3932SOL    HW123015   8.979   1.904   2.270
 3932SOL    HW223016   8.901   1.837   2.397
 3933SOL     OW23017   8.217   7.548   3.857
 3933SOL    HW123018   8.291   7.564   3.922
 3933SOL    HW223019   8.151   7.484   3.897
 3934SOL     OW23020   4.085   1.850   1.978
 3934SOL    HW123021   4.031   1.900   2.045
 3934SOL    HW223022   4.071   1.752   1.991
 3935SOL     OW23023   4.838   2.082   3.274
 3935SOL    HW123024   4.934   2.104   3.293
 3935SOL    HW223025   4.779   2.147   3.323
 3936SOL     OW23026   9.512   6.134   2.374
 3936SOL    HW123027   9.564   6.053   2.346
 3936SOL    HW223028   9.576   6.209   2.394
 3937SOL     OW23029   1.842   4.410   5.445
 3937SOL    HW123030   1.824   4.501   5.409
 3937SOL    HW223031   1.882   4.353   5.374
 3938SOL     OW23032   9.937   6.469   2.325
 3938SOL    HW123033   9.935   6.381   2.277
 3938SOL    HW223034   0.029   6.508   2.319
 3939SOL     OW23035   3.367   1.450   0.019
 3939SOL    HW123036   3.314   1.462   0.104
 3939SOL    HW223037   3.306   1.456   8.129
 3940SOL     OW23038   0.133   2.790   0.467
 3940SOL    HW123039   0.079   2.873   0.450
 3940SOL    HW223040   0.076   2.709   0.453
 3941SOL     OW23041   7.425   7.100   2.028
 3941SOL    HW123042   7.343   7.135   2.075
 3941SOL    HW223043   7.477   7.176   1.991
 3942SOL     OW23044   5.196   5.377   2.277
 3942SOL    HW123045   5.260   5.434   2.329
 3942SOL    HW223046   5.104   5.415   2.284
 3943SOL     OW23047   1.790   6.809   4.909
 3943SOL    HW123048   1.766   6.712   4.898
 3943SOL    HW223049   1.706   6.863   4.918
 3944SOL     OW23050   3.141   4.605   4.831
 3944SOL    HW123051   3.227   4.636   4.793
 3944SOL    HW223052   3.082   4.569   4.758
 3945SOL     OW23053   2.282   2.566   0.341
 3945SOL    HW123054   2.352   2.549   0.410
 3945SOL    HW223055   2.286   2.494   0.272
 3946SOL     OW23056   8.373   9.543   0.398
 3946SOL    HW123057   8.294   9.504   0.444
 3946SOL    HW223058   8.342   9.595   0.318
 3947SOL     OW23059   1.024   8.045   4.043
 3947SOL    HW123060   0.961   7.979   4.003
 3947SOL    HW223061   1.094   8.070   3.976
 3948SOL     OW23062   3.198   7.324   5.565
 3948SOL    HW123063   3.242   7.382   5.633
 3948SOL    HW223064   3.102   7.311   5.590
 3949SOL     OW23065   5.873   2.787   0.527
 3949SOL    HW123066   5.959   2.764   0.481
 3949SOL    HW223067   5.800   2.792   0.459
 3950SOL     OW23068   7.105   1.137   5.214
 3950SOL    HW123069   7.045   1.118   5.292
 3950SOL    HW223070   7.089   1.069   5.142
 3951SOL     OW23071   1.899   9.209   2.271
 3951SOL    HW123072   1.939   9.119   2.288
 3951SOL    HW223073   1.964   9.266   2.222
 3952SOL     OW23074   7.770   5.745   5.482
 3952SOL    HW123075   7.863   5.773   5.504
 3952SOL    HW223076   7.705   5.795   5.538
 3953SOL     OW23077   2.937   5.065   6.328
 3953SOL    HW123078   2.910   5.139   6.267
 3953SOL    HW223079   3.033   5.076   6.354
 3954SOL     OW23080   2.207   6.986   4.933
 3954SOL    HW123081   2.221   6.915   5.002
 3954SOL    HW223082   2.142   6.954   4.864
 3955SOL     OW23083   9.802   5.516   4.004
 3955SOL    HW123084   9.759   5.598   4.042
 3955SOL    HW223085   9.752   5.486   3.923
 3956SOL     OW23086   9.445   1.041   3.644
 3956SOL    HW123087   9.358   1.089   3.638
 3956SOL    HW223088   9.432   0.944   3.622
 3957SOL     OW23089   9.525   1.963   4.932
 3957SOL    HW123090   9.552   1.872   4.962
 3957SOL    HW223091   9.451   1.955   4.865
 3958SOL     OW23092   7.501   8.312   3.409
 3958SOL    HW123093   7.597   8.337   3.423
 3958SOL    HW223094   7.454   8.388   3.364
 3959SOL     OW23095   8.683   6.110   3.523
 3959SOL    HW123096   8.626   6.141   3.599
 3959SOL    HW223097   8.724   6.022   3.546
 3960SOL     OW23098   3.324   4.169   1.573
 3960SOL    HW123099   3.349   4.124   1.658
 3960SOL    HW223100   3.274   4.254   1.593
 3961SOL     OW23101   5.898   9.110   3.454
 3961SOL    HW123102   5.857   9.045   3.390
 3961SOL    HW223103   5.961   9.062   3.516
 3962SOL     OW23104   6.412   9.978   1.559
 3962SOL    HW123105   6.481   9.937   1.499
 3962SOL    HW223106   6.376   9.908   1.621
 3963SOL     OW23107   3.568   9.608   5.488
 3963SOL    HW123108   3.603   9.694   5.453
 3963SOL    HW223109   3.548   9.547   5.411
 3964SOL     OW23110   9.570   4.344   4.499
 3964SOL    HW123111   9.662   4.339   4.537
 3964SOL    HW223112   9.508   4.290   4.556
 3965SOL     OW23113   4.145   2.475   6.190
 3965SOL    HW123114   4.160   2.545   6.260
 3965SOL    HW223115   4.075   2.411   6.221
 3966SOL     OW23116   9.388   5.017   5.840
 3966SOL    HW123117   9.309   4.995   5.897
 3966SOL    HW223118   9.472   5.005   5.892
 3967SOL     OW23119   3.724   1.164   0.124
 3967SOL    HW123120   3.810   1.196   0.163
 3967SOL    HW223121   3.731   1.066   0.106
 3968SOL     OW23122   4.188   5.771   3.500
 3968SOL    HW123123   4.175   5.821   3.586
 3968SOL    HW223124   4.170   5.674   3.515
 3969SOL     OW23125   8.039   3.298   2.165
 3969SOL    HW123126   7.984   3.308   2.081
 3969SOL    HW223127   7.983   3.321   2.244
 3970SOL     OW23128   5.876   7.825   4.296
 3970SOL    HW123129   5.923   7.865   4.375
 3970SOL    HW223130   5.942   7.809   4.223
 3971SOL     OW23131   6.655   0.694   2.726
 3971SOL    HW123132   6.636   0.702   2.824
 3971SOL    HW223133   6.638   0.782   2.681
 3972SOL     OW23134   1.782   7.303   6.152
 3972SOL    HW123135   1.825   7.391   6.131
 3972SOL    HW223136   1.700   7.318   6.208
 3973SOL     OW23137   8.630   3.502   1.495
 3973SOL    HW123138   8.727   3.504   1.519
 3973SOL    HW223139   8.598   3.596   1.477
 3974SOL     OW23140   3.217   8.944   2.288
 3974SOL    HW123141   3.163   8.872   2.331
 3974SOL    HW223142   3.156   9.007   2.240
 3975SOL     OW23143   4.527   8.570   5.950
 3975SOL    HW123144   4.529   8.610   5.859
 3975SOL    HW223145   4.536   8.642   6.019
 3976SOL     OW23146   1.905   4.095   0.929
 3976SOL    HW123147   1.872   4.119   1.020
 3976SOL    HW223148   1.999   4.062   0.935
 3977SOL     OW23149   1.744   8.296   4.769
 3977SOL    HW123150   1.793   8.221   4.812
 3977SOL    HW223151   1.706   8.356   4.839
 3978SOL     OW23152   5.268   3.117   0.329
 3978SOL    HW123153   5.175   3.148   0.312
 3978SOL    HW223154   5.266   3.031   0.381
 3979SOL     OW23155   2.403   5.284   4.710
 3979SOL    HW123156   2.413   5.206   4.772
 3979SOL    HW223157   2.317   5.331   4.730
 3980SOL     OW23158   6.649   0.658   5.493
 3980SOL    HW123159   6.703   0.705   5.562
 3980SOL    HW223160   6.675   0.562   5.490
 3981SOL     OW23161   6.783   0.481   5.215
 3981SOL    HW123162   6.760   0.578   5.205
 3981SOL    HW223163   6.769   0.453   5.310
 3982SOL     OW23164   1.753   3.309   6.411
 3982SOL    HW123165   1.775   3.258   6.494
 3982SOL    HW223166   1.814   3.388   6.403
 3983SOL     OW23167   3.771   3.334   3.894
 3983SOL    HW123168   3.694   3.346   3.832
 3983SOL    HW223169   3.766   3.402   3.967
 3984SOL     OW23170   7.929   5.766   2.049
 3984SOL    HW123171   7.896   5.672   2.058
 3984SOL    HW223172   7.999   5.783   2.118
 3985SOL     OW23173   7.788   3.065   2.011
 3985SOL    HW123174   7.703   3.092   2.057
 3985SOL    HW223175   7.836   3.147   1.979
 3986SOL     OW23176   0.548   2.644   4.693
 3986SOL    HW123177   0.641   2.680   4.683
 3986SOL    HW223178   0.484   2.719   4.707
 3987SOL     OW23179   8.319   7.444   5.446
 3987SOL    HW123180   8.413   7.427   5.414
 3987SOL    HW223181   8.322   7.488   5.535
 3988SOL     OW23182   9.963   6.017   2.608
 3988SOL    HW123183   9.932   6.011   2.513
 3988SOL    HW223184   9.938   5.934   2.658
 3989SOL     OW23185   6.267   1.186   3.126
 3989SOL    HW123186   6.331   1.257   3.096
 3989SOL    HW223187   6.196   1.174   3.057
 3990SOL     OW23188   9.429   9.564   1.998
 3990SOL    HW123189   9.403   9.499   2.069
 3990SOL    HW223190   9.516   9.608   2.023
 3991SOL     OW23191   8.939   1.277   5.045
 3991SOL    HW123192   8.932   1.219   5.127
 3991SOL    HW223193   8.865   1.344   5.046
 3992SOL     OW23194   2.942   5.131   2.430
 3992SOL    HW123195   3.034   5.159   2.401
 3992SOL    HW223196   2.949   5.050   2.487
 3993SOL     OW23197   6.821   7.935   6.302
 3993SOL    HW123198   6.908   7.975   6.274
 3993SOL    HW223199   6.834   7.879   6.383
 3994SOL     OW23200   8.907   3.327   5.740
 3994SOL    HW123201   8.984   3.372   5.785
 3994SOL    HW223202   8.941   3.263   5.671
 3995SOL     OW23203   1.891   7.184   5.724
 3995SOL    HW123204   1.836   7.128   5.662
 3995SOL    HW223205   1.876   7.154   5.818
 3996SOL     OW23206   1.478   4.927   3.883
 3996SOL    HW123207   1.536   4.845   3.875
 3996SOL    HW223208   1.434   4.945   3.795
 3997SOL     OW23209   8.449   7.644   0.229
 3997SOL    HW123210   8.398   7.572   0.181
 3997SOL    HW223211   8.396   7.728   0.230
 3998SOL     OW23212   0.331   3.258   1.240
 3998SOL    HW123213   0.422   3.224   1.218
 3998SOL    HW223214   0.272   3.182   1.265
 3999SOL     OW23215   0.370   7.611   4.997
 3999SOL    HW123216   0.322   7.537   4.950
 3999SOL    HW223217   0.435   7.654   4.934
 4000SOL     OW23218   8.301   2.890   3.317
 4000SOL    HW123219   8.270   2.973   3.365
 4000SOL    HW223220   8.288   2.811   3.377
 4001SOL     OW23221   7.682   0.603   6.154
 4001SOL    HW123222   7.634   0.553   6.226
 4001SOL    HW223223   7.631   0.594   6.068
 4002SOL     OW23224   1.461   7.415   5.404
 4002SOL    HW123225   1.506   7.327   5.415
 4002SOL    HW223226   1.522   7.478   5.356
 4003SOL     OW23227   6.151   8.456   3.971
 4003SOL    HW123228   6.175   8.541   3.923
 4003SOL    HW223229   6.155   8.379   3.907
 4004SOL     OW23230   3.428   7.912   1.729
 4004SOL    HW123231   3.371   7.894   1.649
 4004SOL    HW223232   3.370   7.934   1.808
 4005SOL     OW23233   6.432   0.965   2.870
 4005SOL    HW123234   6.482   0.895   2.921
 4005SOL    HW223235   6.334   0.948   2.879
 4006SOL     OW23236   2.780   5.982   1.157
 4006SOL    HW123237   2.745   6.051   1.094
 4006SOL    HW223238   2.858   5.936   1.115
 4007SOL     OW23239   8.254   1.790   4.113
 4007SOL    HW123240   8.308   1.707   4.098
 4007SOL    HW223241   8.298   1.847   4.182
 4008SOL     OW23242   8.059   3.267   0.763
 4008SOL    HW123243   8.068   3.359   0.801
 4008SOL    HW223244   8.075   3.199   0.834
 4009SOL     OW23245   8.845   4.489   5.314
 4009SOL    HW123246   8.933   4.533   5.295
 4009SOL    HW223247   8.771   4.556   5.304
 4010SOL     OW23248   0.492   0.939   0.723
 4010SOL    HW123249   0.407   0.889   0.735
 4010SOL    HW223250   0.473   1.028   0.680
 4011SOL     OW23251   1.869   5.673   4.275
 4011SOL    HW123252   1.864   5.647   4.372
 4011SOL    HW223253   1.822   5.604   4.220
 4012SOL     OW23254   5.817   9.972   5.893
 4012SOL    HW123255   5.886   9.986   5.965
 4012SOL    HW223256   5.749   9.906   5.925
 4013SOL     OW23257   3.009   1.307   3.607
 4013SOL    HW123258   2.950   1.387   3.595
 4013SOL    HW223259   2.998   1.270   3.699
 4014SOL     OW23260   6.455   7.301   4.478
 4014SOL    HW123261   6.461   7.227   4.545
 4014SOL    HW223262   6.454   7.389   4.525
 4015SOL     OW23263   4.431   1.419   4.669
 4015SOL    HW123264   4.429   1.517   4.690
 4015SOL    HW223265   4.398   1.367   4.748
 4016SOL     OW23266   3.706   2.964   1.936
 4016SOL    HW123267   3.781   2.994   1.995
 4016SOL    HW223268   3.743   2.912   1.859
 4017SOL     OW23269   5.446   4.426   1.100
 4017SOL    HW123270   5.513   4.500   1.103
 4017SOL    HW223271   5.426   4.396   1.194
 4018SOL     OW23272   6.836   8.493   5.756
 4018SOL    HW123273   6.811   8.410   5.805
 4018SOL    HW223274   6.825   8.479   5.657
 4019SOL     OW23275   0.424   9.051   3.309
 4019SOL    HW123276   0.378   9.139   3.320
 4019SOL    HW223277   0.487   9.056   3.231
 4020SOL     OW23278   0.219   2.541   4.064
 4020SOL    HW123279   0.212   2.558   3.965
 4020SOL    HW223280   0.160   2.464   4.088
 4021SOL     OW23281   4.232   9.007   1.314
 4021SOL    HW123282   4.231   8.954   1.229
 4021SOL    HW223283   4.166   8.967   1.378
 4022SOL     OW23284   0.647   7.383   4.502
 4022SOL    HW123285   0.639   7.407   4.405
 4022SOL    HW223286   0.559   7.347   4.534
 4023SOL     OW23287   0.083   6.664   3.404
 4023SOL    HW123288   0.117   6.610   3.327
 4023SOL    HW223289   0.129   6.753   3.404
 4024SOL     OW23290   9.764   1.540   0.473
 4024SOL    HW123291   9.782   1.639   0.467
 4024SOL    HW223292   9.811   1.494   0.398
 4025SOL     OW23293   9.496   8.148   6.040
 4025SOL    HW123294   9.435   8.088   5.989
 4025SOL    HW223295   9.510   8.233   5.988
 4026SOL     OW23296   6.705   3.447   0.794
 4026SOL    HW123297   6.733   3.429   0.889
 4026SOL    HW223298   6.782   3.429   0.733
 4027SOL     OW23299   0.900   7.316   0.296
 4027SOL    HW123300   0.834   7.353   0.361
 4027SOL    HW223301   0.987   7.365   0.306
 4028SOL     OW23302   5.211   8.440   3.436
 4028SOL    HW123303   5.274   8.466   3.508
 4028SOL    HW223304   5.126   8.405   3.477
 4029SOL     OW23305   3.496   6.140   0.686
 4029SOL    HW123306   3.559   6.128   0.762
 4029SOL    HW223307   3.516   6.226   0.640
 4030SOL     OW23308   0.508   4.844   0.787
 4030SOL    HW123309   0.498   4.770   0.721
 4030SOL    HW223310   0.602   4.848   0.819
 4031SOL     OW23311   1.858   8.657   3.116
 4031SOL    HW123312   1.882   8.687   3.208
 4031SOL    HW223313   1.873   8.731   3.051
 4032SOL     OW23314   6.486   1.431   4.181
 4032SOL    HW123315   6.507   1.423   4.083
 4032SOL    HW223316   6.571   1.425   4.234
 4033SOL     OW23317   9.197   5.803   2.958
 4033SOL    HW123318   9.219   5.736   3.028
 4033SOL    HW223319   9.177   5.891   3.001
 4034SOL     OW23320   1.110   4.948   0.850
 4034SOL    HW123321   1.136   4.895   0.931
 4034SOL    HW223322   1.064   4.888   0.784
 4035SOL     OW23323   0.575   6.662   0.756
 4035SOL    HW123324   0.632   6.744   0.758
 4035SOL    HW223325   0.627   6.584   0.792
 4036SOL     OW23326   4.131   6.975   2.194
 4036SOL    HW123327   4.058   6.936   2.250
 4036SOL    HW223328   4.220   6.946   2.231
 4037SOL     OW23329   3.786   5.076   0.769
 4037SOL    HW123330   3.717   5.004   0.761
 4037SOL    HW223331   3.850   5.052   0.842
 4038SOL     OW23332   3.943   0.666   4.146
 4038SOL    HW123333   3.899   0.754   4.128
 4038SOL    HW223334   3.977   0.665   4.240
 4039SOL     OW23335   8.168   7.482   5.220
 4039SOL    HW123336   8.226   7.476   5.300
 4039SOL    HW223337   8.090   7.419   5.230
 4040SOL     OW23338   0.740   8.198   5.336
 4040SOL    HW123339   0.699   8.139   5.266
 4040SOL    HW223340   0.674   8.211   5.410
 4041SOL     OW23341   8.229   1.295   4.615
 4041SOL    HW123342   8.164   1.228   4.651
 4041SOL    HW223343   8.316   1.286   4.665
 4042SOL     OW23344   6.289   1.064   1.826
 4042SOL    HW123345   6.230   1.004   1.881
 4042SOL    HW223346   6.351   1.113   1.887
 4043SOL     OW23347   2.416   4.951   2.630
 4043SOL    HW123348   2.399   4.918   2.723
 4043SOL    HW223349   2.384   5.045   2.621
 4044SOL     OW23350   7.293   5.366   0.576
 4044SOL    HW123351   7.195   5.350   0.583
 4044SOL    HW223352   7.310   5.463   0.562
 4045SOL     OW23353   8.808   3.740   6.273
 4045SOL    HW123354   8.768   3.832   6.267
 4045SOL    HW223355   8.762   3.680   6.208
 4046SOL     OW23356   1.363   1.765   2.421
 4046SOL    HW123357   1.304   1.698   2.376
 4046SOL    HW223358   1.393   1.833   2.354
 4047SOL     OW23359   1.104   0.693   2.468
 4047SOL    HW123360   1.027   0.635   2.493
 4047SOL    HW223361   1.111   0.770   2.532
 4048SOL     OW23362   0.111   2.773   3.380
 4048SOL    HW123363   0.125   2.694   3.439
 4048SOL    HW223364   0.053   2.746   3.302
 4049SOL     OW23365   3.358   5.293   4.685
 4049SOL    HW123366   3.394   5.382   4.658
 4049SOL    HW223367   3.260   5.302   4.707
 4050SOL     OW23368   1.314   0.272   1.340
 4050SOL    HW123369   1.314   0.239   1.434
 4050SOL    HW223370   1.220   0.285   1.309
 4051SOL     OW23371   5.085   1.592   0.198
 4051SOL    HW123372   5.141   1.543   0.131
 4051SOL    HW223373   5.010   1.639   0.151
 4052SOL     OW23374   2.555   2.385   4.295
 4052SOL    HW123375   2.597   2.317   4.235
 4052SOL    HW223376   2.537   2.343   4.384
 4053SOL     OW23377   2.092   2.895   5.243
 4053SOL    HW123378   2.110   2.797   5.251
 4053SOL    HW223379   2.175   2.946   5.263
 4054SOL     OW23380   3.560   4.528   3.461
 4054SOL    HW123381   3.616   4.479   3.394
 4054SOL    HW223382   3.468   4.488   3.462
 4055SOL     OW23383   2.952   3.437   0.874
 4055SOL    HW123384   3.033   3.387   0.906
 4055SOL    HW223385   2.970   3.535   0.876
 4056SOL     OW23386   9.615   4.137   0.169
 4056SOL    HW123387   9.520   4.112   0.149
 4056SOL    HW223388   9.668   4.054   0.188
 4057SOL     OW23389   9.118   6.510   2.580
 4057SOL    HW123390   9.133   6.487   2.677
 4057SOL    HW223391   9.205   6.530   2.536
 4058SOL     OW23392   7.536   1.507   1.427
 4058SOL    HW123393   7.592   1.425   1.434
 4058SOL    HW223394   7.445   1.489   1.465
 4059SOL     OW23395   3.391   9.296   4.882
 4059SOL    HW123396   3.317   9.364   4.886
 4059SOL    HW223397   3.477   9.342   4.861
 4060SOL     OW23398   1.414   0.837   2.672
 4060SOL    HW123399   1.441   0.837   2.768
 4060SOL    HW223400   1.452   0.918   2.626
 4061SOL     OW23401   4.329   7.554   5.374
 4061SOL    HW123402   4.257   7.485   5.379
 4061SOL    HW223403   4.389   7.535   5.296
 4062SOL     OW23404   1.553   6.468   5.637
 4062SOL    HW123405   1.478   6.411   5.671
 4062SOL    HW223406   1.517   6.538   5.576
 4063SOL     OW23407   9.301   0.223   2.448
 4063SOL    HW123408   9.343   0.162   2.515
 4063SOL    HW223409   9.349   0.311   2.449
 4064SOL     OW23410   8.426   0.038   3.220
 4064SOL    HW123411   8.505   0.018   3.162
 4064SOL    HW223412   8.433   9.984   3.304
 4065SOL     OW23413   6.754   1.321   2.805
 4065SOL    HW123414   6.660   1.290   2.797
 4065SOL    HW223415   6.786   1.306   2.899
 4066SOL     OW23416   4.022   0.943   2.775
 4066SOL    HW123417   4.100   0.882   2.791
 4066SOL    HW223418   4.019   0.970   2.679
 4067SOL     OW23419   9.335   9.837   1.106
 4067SOL    HW123420   9.290   9.797   1.187
 4067SOL    HW223421   9.289   9.922   1.082
 4068SOL     OW23422   9.850   1.337   3.447
 4068SOL    HW123423   9.795   1.418   3.429
 4068SOL    HW223424   9.797   1.273   3.503
 4069SOL     OW23425   5.872   0.151   4.376
 4069SOL    HW123426   5.952   0.120   4.427
 4069SOL    HW223427   5.789   0.126   4.425
 4070SOL     OW23428   8.281   1.829   0.606
 4070SOL    HW123429   8.227   1.776   0.672
 4070SOL    HW223430   8.238   1.918   0.591
 4071SOL     OW23431   8.826   7.756   4.762
 4071SOL    HW123432   8.806   7.840   4.812
 4071SOL    HW223433   8.824   7.774   4.664
 4072SOL     OW23434   3.336   3.130   5.967
 4072SOL    HW123435   3.394   3.172   6.037
 4072SOL    HW223436   3.379   3.141   5.877
 4073SOL     OW23437   3.173   8.817   3.149
 4073SOL    HW123438   3.164   8.902   3.098
 4073SOL    HW223439   3.123   8.744   3.102
 4074SOL     OW23440   3.094   3.255   6.037
 4074SOL    HW123441   3.051   3.207   6.114
 4074SOL    HW223442   3.178   3.208   6.011
 4075SOL     OW23443   2.798   4.435   3.802
 4075SOL    HW123444   2.768   4.476   3.888
 4075SOL    HW223445   2.726   4.377   3.765
 4076SOL     OW23446   2.923   9.404   1.163
 4076SOL    HW123447   2.926   9.475   1.233
 4076SOL    HW223448   2.855   9.427   1.094
 4077SOL     OW23449   1.171   7.383   5.156
 4077SOL    HW123450   1.257   7.350   5.116
 4077SOL    HW223451   1.179   7.384   5.255
 4078SOL     OW23452   3.969   4.153   5.208
 4078SOL    HW123453   3.987   4.213   5.130
 4078SOL    HW223454   4.044   4.159   5.273
 4079SOL     OW23455   7.689   9.013   2.881
 4079SOL    HW123456   7.601   9.051   2.851
 4079SOL    HW223457   7.674   8.945   2.952
 4080SOL     OW23458   1.787   1.726   0.732
 4080SOL    HW123459   1.715   1.728   0.662
 4080SOL    HW223460   1.841   1.810   0.728
 4081SOL     OW23461   3.425   7.898   2.869
 4081SOL    HW123462   3.466   7.943   2.789
 4081SOL    HW223463   3.390   7.808   2.842
 4082SOL     OW23464   6.245   3.720   1.126
 4082SOL    HW123465   6.323   3.657   1.123
 4082SOL    HW223466   6.279   3.814   1.133
 4083SOL     OW23467   1.797   6.256   1.849
 4083SOL    HW123468   1.820   6.264   1.752
 4083SOL    HW223469   1.721   6.319   1.870
 4084SOL     OW23470   2.048   6.282   1.256
 4084SOL    HW123471   2.061   6.378   1.283
 4084SOL    HW223472   2.137   6.239   1.239
 4085SOL     OW23473   4.469   7.700   4.991
 4085SOL    HW123474   4.457   7.615   5.042
 4085SOL    HW223475   4.480   7.680   4.894
 4086SOL     OW23476   4.780   7.470   4.754
 4086SOL    HW123477   4.751   7.566   4.757
 4086SOL    HW223478   4.755   7.431   4.665
 4087SOL     OW23479   6.660   7.358   6.419
 4087SOL    HW123480   6.632   7.384   6.511
 4087SOL    HW223481   6.648   7.436   6.357
 4088SOL     OW23482   2.398   5.188   0.063
 4088SOL    HW123483   2.434   5.095   0.073
 4088SOL    HW223484   2.345   5.212   0.144
 4089SOL     OW23485   1.272   1.813   1.094
 4089SOL    HW123486   1.192   1.764   1.128
 4089SOL    HW223487   1.254   1.911   1.096
 4090SOL     OW23488   8.306   6.809   1.491
 4090SOL    HW123489   8.296   6.711   1.508
 4090SOL    HW223490   8.217   6.854   1.498
 4091SOL     OW23491   8.643   5.128   5.507
 4091SOL    HW123492   8.620   5.035   5.536
 4091SOL    HW223493   8.564   5.169   5.462
 4092SOL     OW23494   3.328   4.639   2.516
 4092SOL    HW123495   3.243   4.610   2.561
 4092SOL    HW223496   3.326   4.739   2.503
 4093SOL     OW23497   2.951   8.506   4.626
 4093SOL    HW123498   3.045   8.477   4.606
 4093SOL    HW223499   2.932   8.493   4.723
 4094SOL     OW23500   1.895   4.136   3.508
 4094SOL    HW123501   1.892   4.110   3.412
 4094SOL    HW223502   1.990   4.151   3.536
 4095SOL     OW23503   8.338   5.004   6.217
 4095SOL    HW123504   8.266   5.051   6.268
 4095SOL    HW223505   8.322   4.906   6.219
 4096SOL     OW23506   3.458   6.914   2.116
 4096SOL    HW123507   3.523   6.933   2.189
 4096SOL    HW223508   3.376   6.970   2.129
 4097SOL     OW23509   0.479   2.038   0.229
 4097SOL    HW123510   0.407   1.976   0.199
 4097SOL    HW223511   0.438   2.126   0.256
 4098SOL     OW23512   4.803   3.005   0.738
 4098SOL    HW123513   4.887   3.027   0.787
 4098SOL    HW223514   4.806   3.046   0.647
 4099SOL     OW23515   0.725   5.422   2.578
 4099SOL    HW123516   0.793   5.368   2.526
 4099SOL    HW223517   0.729   5.395   2.674
 4100SOL     OW23518   0.867   7.673   3.716
 4100SOL    HW123519   0.897   7.584   3.683
 4100SOL    HW223520   0.865   7.738   3.640
 4101SOL     OW23521   6.355   0.110   2.611
 4101SOL    HW123522   6.443   0.080   2.647
 4101SOL    HW223523   6.310   0.169   2.678
 4102SOL     OW23524   9.736   6.480   2.866
 4102SOL    HW123525   9.660   6.477   2.931
 4102SOL    HW223526   9.791   6.562   2.883
 4103SOL     OW23527   4.282   6.544   1.996
 4103SOL    HW123528   4.214   6.543   1.924
 4103SOL    HW223529   4.242   6.507   2.081
 4104SOL     OW23530   1.394   9.228   1.416
 4104SOL    HW123531   1.369   9.211   1.321
 4104SOL    HW223532   1.450   9.152   1.450
 4105SOL     OW23533   3.451   6.502   5.217
 4105SOL    HW123534   3.367   6.493   5.164
 4105SOL    HW223535   3.505   6.579   5.181
 4106SOL     OW23536   8.367   0.470   2.600
 4106SOL    HW123537   8.355   0.372   2.612
 4106SOL    HW223538   8.423   0.506   2.675
 4107SOL     OW23539   3.793   2.696   1.151
 4107SOL    HW123540   3.781   2.782   1.100
 4107SOL    HW223541   3.887   2.691   1.184
 4108SOL     OW23542   3.977   9.542   4.250
 4108SOL    HW123543   3.949   9.626   4.297
 4108SOL    HW223544   4.062   9.559   4.200
 4109SOL     OW23545   0.200   1.932   4.081
 4109SOL    HW123546   0.276   1.982   4.122
 4109SOL    HW223547   0.214   1.834   4.095
 4110SOL     OW23548   2.922   9.704   1.912
 4110SOL    HW123549   2.834   9.748   1.894
 4110SOL    HW223550   2.943   9.710   2.010
 4111SOL     OW23551   9.156   5.372   1.241
 4111SOL    HW123552   9.116   5.359   1.332
 4111SOL    HW223553   9.230   5.438   1.247
 4112SOL     OW23554   6.839   1.932   4.485
 4112SOL    HW123555   6.809   1.904   4.576
 4112SOL    HW223556   6.936   1.954   4.487
 4113SOL     OW23557   2.943   8.012   0.797
 4113SOL    HW123558   2.848   8.020   0.827
 4113SOL    HW223559   2.990   7.942   0.850
 4114SOL     OW23560   6.766   0.219   6.233
 4114SOL    HW123561   6.775   0.144   6.299
 4114SOL    HW223562   6.727   0.299   6.280
 4115SOL     OW23563   0.393   1.774   3.117
 4115SOL    HW123564   0.411   1.742   3.210
 4115SOL    HW223565   0.295   1.788   3.105
 4116SOL     OW23566   2.587   8.577   4.195
 4116SOL    HW123567   2.677   8.572   4.239
 4116SOL    HW223568   2.574   8.495   4.138
 4117SOL     OW23569   5.753   9.569   2.293
 4117SOL    HW123570   5.838   9.609   2.258
 4117SOL    HW223571   5.728   9.614   2.379
 4118SOL     OW23572   6.212   1.036   0.656
 4118SOL    HW123573   6.125   0.999   0.688
 4118SOL    HW223574   6.267   1.065   0.734
 4119SOL     OW23575   9.577   7.143   4.855
 4119SOL    HW123576   9.625   7.084   4.791
 4119SOL    HW223577   9.489   7.171   4.816
 4120SOL     OW23578   8.621   0.831   0.490
 4120SOL    HW123579   8.526   0.813   0.516
 4120SOL    HW223580   8.635   0.803   0.395
 4121SOL     OW23581   0.826   9.843   4.798
 4121SOL    HW123582   0.865   9.807   4.713
 4121SOL    HW223583   0.727   9.848   4.789
 4122SOL     OW23584   0.298   6.627   4.247
 4122SOL    HW123585   0.237   6.679   4.307
 4122SOL    HW223586   0.378   6.597   4.300
 4123SOL     OW23587   1.918   0.845   0.822
 4123SOL    HW123588   2.004   0.896   0.813
 4123SOL    HW223589   1.864   0.858   0.739
 4124SOL     OW23590   4.870   2.211   5.375
 4124SOL    HW123591   4.867   2.262   5.461
 4124SOL    HW223592   4.780   2.171   5.357
 4125SOL     OW23593   9.287   3.308   4.603
 4125SOL    HW123594   9.279   3.226   4.660
 4125SOL    HW223595   9.290   3.281   4.507
 4126SOL     OW23596   6.891   9.383   4.133
 4126SOL    HW123597   6.806   9.428   4.162
 4126SOL    HW223598   6.902   9.392   4.034
 4127SOL     OW23599   2.039   6.542   0.075
 4127SOL    HW123600   2.085   6.629   0.086
 4127SOL    HW223601   2.106   6.468   0.073
 4128SOL     OW23602   0.011   1.598   3.975
 4128SOL    HW123603   0.020   1.501   3.952
 4128SOL    HW223604   0.093   1.628   4.025
 4129SOL     OW23605   7.537   0.899   1.871
 4129SOL    HW123606   7.569   0.992   1.886
 4129SOL    HW223607   7.598   0.854   1.805
 4130SOL     OW23608   1.539   7.815   0.848
 4130SOL    HW123609   1.582   7.731   0.881
 4130SOL    HW223610   1.487   7.857   0.922
 4131SOL     OW23611   7.940   6.475   4.093
 4131SOL    HW123612   8.008   6.447   4.160
 4131SOL    HW223613   7.857   6.505   4.140
 4132SOL     OW23614   9.332   5.110   2.735
 4132SOL    HW123615   9.338   5.077   2.829
 4132SOL    HW223616   9.261   5.179   2.728
 4133SOL     OW23617   2.785   0.106   0.654
 4133SOL    HW123618   2.837   0.191   0.648
 4133SOL    HW223619   2.689   0.127   0.670
 4134SOL     OW23620   8.387   1.273   3.167
 4134SOL    HW123621   8.365   1.312   3.078
 4134SOL    HW223622   8.388   1.346   3.236
 4135SOL     OW23623   6.482   9.515   4.428
 4135SOL    HW123624   6.443   9.428   4.461
 4135SOL    HW223625   6.556   9.543   4.490
 4136SOL     OW23626   1.200   9.782   4.727
 4136SOL    HW123627   1.293   9.745   4.738
 4136SOL    HW223628   1.135   9.725   4.777
 4137SOL     OW23629   6.111   5.501   0.533
 4137SOL    HW123630   6.198   5.546   0.512
 4137SOL    HW223631   6.041   5.531   0.469
 4138SOL     OW23632   8.774   2.825   4.616
 4138SOL    HW123633   8.705   2.752   4.609
 4138SOL    HW223634   8.821   2.833   4.528
 4139SOL     OW23635   1.067   1.107   6.004
 4139SOL    HW123636   1.080   1.039   6.075
 4139SOL    HW223637   1.074   1.064   5.914
 4140SOL     OW23638   7.850   2.790   2.882
 4140SOL    HW123639   7.936   2.833   2.909
 4140SOL    HW223640   7.779   2.814   2.948
 4141SOL     OW23641   9.131   5.398   4.299
 4141SOL    HW123642   9.118   5.301   4.276
 4141SOL    HW223643   9.164   5.405   4.393
 4142SOL     OW23644   9.891   7.392   0.651
 4142SOL    HW123645   9.795   7.420   0.651
 4142SOL    HW223646   9.911   7.341   0.734
 4143SOL     OW23647   5.880   3.448   0.652
 4143SOL    HW123648   5.823   3.529   0.638
 4143SOL    HW223649   5.859   3.380   0.582
 4144SOL     OW23650   4.326   3.786   3.163
 4144SOL    HW123651   4.364   3.754   3.077
 4144SOL    HW223652   4.249   3.727   3.189
 4145SOL     OW23653   2.268   7.605   6.241
 4145SOL    HW123654   2.243   7.588   6.145
 4145SOL    HW223655   2.351   7.554   6.263
 4146SOL     OW23656   4.112   3.779   1.479
 4146SOL    HW123657   4.147   3.772   1.386
 4146SOL    HW223658   4.187   3.800   1.542
 4147SOL     OW23659   3.807   9.991   2.205
 4147SOL    HW123660   3.712   9.980   2.234
 4147SOL    HW223661   3.866   9.933   2.262
 4148SOL     OW23662   0.223   9.921   1.810
 4148SOL    HW123663   0.296   9.985   1.789
 4148SOL    HW223664   0.181   9.945   1.898
 4149SOL     OW23665   6.344   2.828   0.630
 4149SOL    HW123666   6.351   2.754   0.562
 4149SOL    HW223667   6.257   2.820   0.679
 4150SOL     OW23668   3.490   0.745   4.024
 4150SOL    HW123669   3.531   0.675   3.965
 4150SOL    HW223670   3.550   0.825   4.027
 4151SOL     OW23671   4.694   2.781   1.740
 4151SOL    HW123672   4.691   2.848   1.814
 4151SOL    HW223673   4.606   2.735   1.733
 4152SOL     OW23674   8.208   7.807   3.778
 4152SOL    HW123675   8.305   7.833   3.773
 4152SOL    HW223676   8.201   7.711   3.805
 4153SOL     OW23677   7.753   1.360   2.023
 4153SOL    HW123678   7.771   1.445   1.973
 4153SOL    HW223679   7.827   1.343   2.088
 4154SOL     OW23680   6.770   8.713   2.675
 4154SOL    HW123681   6.816   8.785   2.625
 4154SOL    HW223682   6.744   8.747   2.766
 4155SOL     OW23683   9.075   6.056   5.916
 4155SOL    HW123684   8.983   6.019   5.905
 4155SOL    HW223685   9.101   6.054   6.012
 4156SOL     OW23686   2.810   0.754   3.896
 4156SOL    HW123687   2.894   0.768   3.844
 4156SOL    HW223688   2.743   0.704   3.841
 4157SOL     OW23689   1.435   1.957   2.233
 4157SOL    HW123690   1.369   2.012   2.181
 4157SOL    HW223691   1.461   1.877   2.179
 4158SOL     OW23692   6.175   1.298   0.575
 4158SOL    HW123693   6.106   1.336   0.636
 4158SOL    HW223694   6.192   1.202   0.598
 4159SOL     OW23695   4.133   9.514   0.698
 4159SOL    HW123696   4.110   9.419   0.679
 4159SOL    HW223697   4.176   9.521   0.788
 4160SOL     OW23698   3.547   8.047   2.672
 4160SOL    HW123699   3.502   8.047   2.582
 4160SOL    HW223700   3.592   8.136   2.685
 4161SOL     OW23701   3.582   7.515   5.422
 4161SOL    HW123702   3.582   7.539   5.519
 4161SOL    HW223703   3.507   7.451   5.403
 4162SOL     OW23704   0.889   0.554   2.581
 4162SOL    HW123705   0.925   0.465   2.609
 4162SOL    HW223706   0.852   0.601   2.661
 4163SOL     OW23707   7.629   1.270   4.146
 4163SOL    HW123708   7.645   1.210   4.068
 4163SOL    HW223709   7.560   1.339   4.122
 4164SOL     OW23710   9.183   4.329   6.167
 4164SOL    HW123711   9.130   4.369   6.242
 4164SOL    HW223712   9.205   4.400   6.100
 4165SOL     OW23713   1.706   1.496   1.462
 4165SOL    HW123714   1.616   1.532   1.486
 4165SOL    HW223715   1.697   1.429   1.389
 4166SOL     OW23716   3.236   4.073   5.337
 4166SOL    HW123717   3.183   4.157   5.353
 4166SOL    HW223718   3.212   4.005   5.405
 4167SOL     OW23719   6.353   0.100   6.000
 4167SOL    HW123720   6.452   0.088   6.010
 4167SOL    HW223721   6.311   0.013   5.977
 4168SOL     OW23722   1.731   9.084   0.870
 4168SOL    HW123723   1.824   9.092   0.836
 4168SOL    HW223724   1.670   9.060   0.795
 4169SOL     OW23725   4.332   4.543   1.087
 4169SOL    HW123726   4.335   4.449   1.122
 4169SOL    HW223727   4.260   4.594   1.134
 4170SOL     OW23728   0.894   9.414   4.814
 4170SOL    HW123729   0.916   9.369   4.728
 4170SOL    HW223730   0.868   9.345   4.882
 4171SOL     OW23731   7.509   8.043   3.471
 4171SOL    HW123732   7.503   8.134   3.430
 4171SOL    HW223733   7.512   8.052   3.571
 4172SOL     OW23734   0.519   6.529   4.374
 4172SOL    HW123735   0.571   6.453   4.333
 4172SOL    HW223736   0.523   6.522   4.474
 4173SOL     OW23737   7.220   2.844   6.306
 4173SOL    HW123738   7.224   2.759   6.357
 4173SOL    HW223739   7.141   2.843   6.245
 4174SOL     OW23740   7.593   6.815   3.219
 4174SOL    HW123741   7.673   6.848   3.270
 4174SOL    HW223742   7.537   6.759   3.278
 4175SOL     OW23743   4.455   8.823   4.341
 4175SOL    HW123744   4.513   8.878   4.401
 4175SOL    HW223745   4.509   8.785   4.266
 4176SOL     OW23746   3.490   3.192   0.863
 4176SOL    HW123747   3.471   3.195   0.764
 4176SOL    HW223748   3.500   3.285   0.898
 4177SOL     OW23749   2.456   0.550   3.180
 4177SOL    HW123750   2.371   0.508   3.148
 4177SOL    HW223751   2.510   0.579   3.101
 4178SOL     OW23752   4.537   3.142   0.382
 4178SOL    HW123753   4.557   3.113   0.288
 4178SOL    HW223754   4.443   3.175   0.386
 4179SOL     OW23755   3.904   1.224   2.532
 4179SOL    HW123756   3.825   1.209   2.592
 4179SOL    HW223757   3.949   1.137   2.514
 4180SOL     OW23758   7.457   1.298   6.026
 4180SOL    HW123759   7.388   1.227   6.036
 4180SOL    HW223760   7.416   1.378   5.980
 4181SOL     OW23761   7.043   8.386   5.984
 4181SOL    HW123762   7.126   8.355   6.029
 4181SOL    HW223763   7.066   8.452   5.912
 4182SOL     OW23764   1.692   0.008   2.628
 4182SOL    HW123765   1.632   0.064   2.686
 4182SOL    HW223766   1.784   0.044   2.630
 4183SOL     OW23767   7.934   3.474   6.343
 4183SOL    HW123768   7.940   3.386   6.391
 4183SOL    HW223769   8.025   3.516   6.341
 4184SOL     OW23770   0.278   2.805   4.131
 4184SOL    HW123771   0.239   2.713   4.121
 4184SOL    HW223772   0.208   2.867   4.167
 4185SOL     OW23773   5.800   9.023   2.669
 4185SOL    HW123774   5.823   8.933   2.705
 4185SOL    HW223775   5.874   9.087   2.689
 4186SOL     OW23776   9.566   7.798   5.094
 4186SOL    HW123777   9.549   7.774   5.189
 4186SOL    HW223778   9.570   7.898   5.085
 4187SOL     OW23779   8.706   6.850   5.562
 4187SOL    HW123780   8.760   6.792   5.624
 4187SOL    HW223781   8.630   6.891   5.612
 4188SOL     OW23782   7.517   5.645   6.069
 4188SOL    HW123783   7.600   5.646   6.014
 4188SOL    HW223784   7.468   5.559   6.054
 4189SOL     OW23785   6.153   8.164   4.606
 4189SOL    HW123786   6.169   8.231   4.679
 4189SOL    HW223787   6.225   8.094   4.609
 4190SOL     OW23788   0.640   2.433   5.513
 4190SOL    HW123789   0.675   2.342   5.488
 4190SOL    HW223790   0.686   2.502   5.457
 4191SOL     OW23791   7.057   8.274   3.485
 4191SOL    HW123792   6.960   8.263   3.507
 4191SOL    HW223793   7.086   8.200   3.425
 4192SOL     OW23794   0.609   5.450   3.226
 4192SOL    HW123795   0.690   5.391   3.226
 4192SOL    HW223796   0.612   5.510   3.146
 4193SOL     OW23797   1.280   9.578   2.832
 4193SOL    HW123798   1.327   9.520   2.765
 4193SOL    HW223799   1.241   9.522   2.904
 4194SOL     OW23800   1.883   7.933   0.564
 4194SOL    HW123801   1.934   7.946   0.478
 4194SOL    HW223802   1.947   7.912   0.638
 4195SOL     OW23803   2.641   7.182   4.819
 4195SOL    HW123804   2.689   7.169   4.906
 4195SOL    HW223805   2.707   7.210   4.749
 4196SOL     OW23806   3.752   4.588   2.334
 4196SOL    HW123807   3.851   4.600   2.342
 4196SOL    HW223808   3.730   4.553   2.243
 4197SOL     OW23809   7.013   0.990   4.681
 4197SOL    HW123810   6.944   0.958   4.747
 4197SOL    HW223811   7.091   1.027   4.731
 4198SOL     OW23812   6.583   8.670   5.609
 4198SOL    HW123813   6.552   8.732   5.538
 4198SOL    HW223814   6.564   8.576   5.582
 4199SOL     OW23815   0.616   6.169   2.201
 4199SOL    HW123816   0.601   6.119   2.286
 4199SOL    HW223817   0.713   6.188   2.189
 4200SOL     OW23818   9.272   2.522   3.940
 4200SOL    HW123819   9.238   2.547   4.030
 4200SOL    HW223820   9.197   2.526   3.874
 4201SOL     OW23821   4.407   4.558   0.077
 4201SOL    HW123822   4.365   4.637   0.122
 4201SOL    HW223823   4.438   4.584   8.174
 4202SOL     OW23824   8.232   1.926   1.626
 4202SOL    HW123825   8.221   1.977   1.711
 4202SOL    HW223826   8.328   1.925   1.599
 4203SOL     OW23827   6.181   2.017   3.652
 4203SOL    HW123828   6.206   2.096   3.708
 4203SOL    HW223829   6.098   1.975   3.689
 4204SOL     OW23830   1.183   1.320   5.206
 4204SOL    HW123831   1.116   1.368   5.262
 4204SOL    HW223832   1.136   1.271   5.133
 4205SOL     OW23833   9.312   1.403   0.681
 4205SOL    HW123834   9.379   1.445   0.619
 4205SOL    HW223835   9.360   1.345   0.747
 4206SOL     OW23836   4.010   5.129   3.937
 4206SOL    HW123837   3.992   5.210   3.992
 4206SOL    HW223838   3.947   5.127   3.859
 4207SOL     OW23839   3.344   5.217   4.412
 4207SOL    HW123840   3.339   5.242   4.509
 4207SOL    HW223841   3.377   5.295   4.360
 4208SOL     OW23842   7.592   1.540   5.520
 4208SOL    HW123843   7.499   1.538   5.484
 4208SOL    HW223844   7.612   1.454   5.566
 4209SOL     OW23845   8.136   9.505   6.221
 4209SOL    HW123846   8.087   9.438   6.166
 4209SOL    HW223847   8.222   9.465   6.254
 4210SOL     OW23848   4.683   5.560   3.723
 4210SOL    HW123849   4.714   5.633   3.662
 4210SOL    HW223850   4.588   5.576   3.749
 4211SOL     OW23851   2.995   4.482   0.027
 4211SOL    HW123852   2.924   4.551   0.016
 4211SOL    HW223853   3.019   4.475   0.124
 4212SOL     OW23854   9.428   3.485   2.459
 4212SOL    HW123855   9.439   3.529   2.370
 4212SOL    HW223856   9.357   3.414   2.453
 4213SOL     OW23857   6.356   7.985   6.198
 4213SOL    HW123858   6.323   8.065   6.148
 4213SOL    HW223859   6.435   8.011   6.254
 4214SOL     OW23860   6.527   1.397   3.913
 4214SOL    HW123861   6.433   1.396   3.878
 4214SOL    HW223862   6.584   1.450   3.851
 4215SOL     OW23863   5.536   5.504   1.981
 4215SOL    HW123864   5.520   5.579   1.917
 4215SOL    HW223865   5.634   5.484   1.987
 4216SOL     OW23866   4.831   3.584   1.579
 4216SOL    HW123867   4.788   3.545   1.660
 4216SOL    HW223868   4.763   3.596   1.507
 4217SOL     OW23869   1.684   6.001   1.843
 4217SOL    HW123870   1.714   6.096   1.851
 4217SOL    HW223871   1.696   5.970   1.749
 4218SOL     OW23872   1.895   9.429   5.134
 4218SOL    HW123873   1.866   9.475   5.218
 4218SOL    HW223874   1.886   9.330   5.146
 4219SOL     OW23875   1.527   3.332   2.742
 4219SOL    HW123876   1.607   3.294   2.788
 4219SOL    HW223877   1.444   3.297   2.785
 4220SOL     OW23878   9.380   3.061   1.447
 4220SOL    HW123879   9.438   3.010   1.510
 4220SOL    HW223880   9.299   3.007   1.424
 4221SOL     OW23881   3.072   7.141   4.778
 4221SOL    HW123882   3.125   7.180   4.853
 4221SOL    HW223883   3.119   7.060   4.742
 4222SOL     OW23884   5.345   8.021   6.010
 4222SOL    HW123885   5.314   7.978   6.095
 4222SOL    HW223886   5.286   7.993   5.935
 4223SOL     OW23887   0.768   0.445   0.165
 4223SOL    HW123888   0.672   0.416   0.173
 4223SOL    HW223889   0.785   0.519   0.230
 4224SOL     OW23890   0.229   6.823   2.913
 4224SOL    HW123891   0.316   6.826   2.864
 4224SOL    HW223892   0.179   6.740   2.888
 4225SOL     OW23893   1.232   2.286   1.652
 4225SOL    HW123894   1.309   2.280   1.589
 4225SOL    HW223895   1.266   2.291   1.746
 4226SOL     OW23896   4.798   8.694   4.498
 4226SOL    HW123897   4.736   8.771   4.509
 4226SOL    HW223898   4.859   8.689   4.577
 4227SOL     OW23899   3.350   2.514   1.694
 4227SOL    HW123900   3.329   2.418   1.711
 4227SOL    HW223901   3.445   2.523   1.665
 4228SOL     OW23902   5.951   7.969   4.544
 4228SOL    HW123903   6.016   8.045   4.550
 4228SOL    HW223904   5.858   8.005   4.555
 4229SOL     OW23905   2.519   3.398   0.782
 4229SOL    HW123906   2.585   3.383   0.855
 4229SOL    HW223907   2.513   3.315   0.726
 4230SOL     OW23908   9.830   3.857   5.519
 4230SOL    HW123909   9.875   3.780   5.565
 4230SOL    HW223910   9.899   3.919   5.481
 4231SOL     OW23911   4.343   7.936   4.905
 4231SOL    HW123912   4.430   7.975   4.875
 4231SOL    HW223913   4.359   7.853   4.957
 4232SOL     OW23914   1.044   2.708   2.333
 4232SOL    HW123915   1.041   2.608   2.331
 4232SOL    HW223916   0.951   2.744   2.335
 4233SOL     OW23917   3.513   0.679   6.014
 4233SOL    HW123918   3.455   0.759   6.030
 4233SOL    HW223919   3.455   0.600   5.991
 4234SOL     OW23920   9.380   6.506   0.329
 4234SOL    HW123921   9.454   6.572   0.313
 4234SOL    HW223922   9.333   6.489   0.242
 4235SOL     OW23923   0.849   9.142   3.185
 4235SOL    HW123924   0.887   9.049   3.190
 4235SOL    HW223925   0.882   9.195   3.264
 4236SOL     OW23926   7.322   0.226   0.602
 4236SOL    HW123927   7.297   0.226   0.698
 4236SOL    HW223928   7.242   0.205   0.546
 4237SOL     OW23929   7.496   8.124   2.376
 4237SOL    HW123930   7.408   8.171   2.387
 4237SOL    HW223931   7.532   8.098   2.465
 4238SOL     OW23932   2.260   6.466   1.539
 4238SOL    HW123933   2.322   6.389   1.525
 4238SOL    HW223934   2.311   6.543   1.578
 4239SOL     OW23935   9.833   6.110   3.316
 4239SOL    HW123936   9.903   6.179   3.329
 4239SOL    HW223937   9.843   6.067   3.226
 4240SOL     OW23938   2.665   6.764   5.226
 4240SOL    HW123939   2.597   6.691   5.238
 4240SOL    HW223940   2.619   6.848   5.198
 4241SOL     OW23941   7.170   8.416   4.159
 4241SOL    HW123942   7.250   8.384   4.108
 4241SOL    HW223943   7.106   8.339   4.171
 4242SOL     OW23944   6.573   2.786   0.766
 4242SOL    HW123945   6.484   2.804   0.724
 4242SOL    HW223946   6.610   2.871   0.802
 4243SOL     OW23947   7.996   2.238   6.071
 4243SOL    HW123948   8.048   2.258   5.988
 4243SOL    HW223949   7.995   2.139   6.086
 4244SOL     OW23950   9.755   9.476   1.300
 4244SOL    HW123951   9.792   9.402   1.245
 4244SOL    HW223952   9.717   9.440   1.384
 4245SOL     OW23953   9.600   6.087   1.618
 4245SOL    HW123954   9.685   6.116   1.573
 4245SOL    HW223955   9.569   6.001   1.577
 4246SOL     OW23956   4.711   0.302   1.916
 4246SOL    HW123957   4.736   0.386   1.867
 4246SOL    HW223958   4.659   0.243   1.855
 4247SOL     OW23959   4.882   3.375   0.504
 4247SOL    HW123960   4.956   3.437   0.531
 4247SOL    HW223961   4.798   3.400   0.551
 4248SOL     OW23962   4.899   7.595   4.490
 4248SOL    HW123963   4.840   7.515   4.478
 4248SOL    HW223964   4.968   7.575   4.559
 4249SOL     OW23965   2.748   2.752   4.802
 4249SOL    HW123966   2.769   2.806   4.721
 4249SOL    HW223967   2.721   2.813   4.876
 4250SOL     OW23968   7.826   7.975   5.856
 4250SOL    HW123969   7.781   7.912   5.919
 4250SOL    HW223970   7.758   8.020   5.799
 4251SOL     OW23971   4.085   2.490   4.998
 4251SOL    HW123972   4.130   2.539   5.073
 4251SOL    HW223973   4.052   2.402   5.031
 4252SOL     OW23974   8.637   2.268   2.057
 4252SOL    HW123975   8.706   2.339   2.049
 4252SOL    HW223976   8.625   2.243   2.153
 4253SOL     OW23977   1.747   0.356   4.800
 4253SOL    HW123978   1.707   0.264   4.794
 4253SOL    HW223979   1.843   0.352   4.773
 4254SOL     OW23980   0.550   4.856   0.466
 4254SOL    HW123981   0.638   4.893   0.497
 4254SOL    HW223982   0.543   4.760   0.493
 4255SOL     OW23983   9.221   2.557   0.411
 4255SOL    HW123984   9.305   2.514   0.445
 4255SOL    HW223985   9.239   2.596   0.320
 4256SOL     OW23986   2.549   8.026   3.117
 4256SOL    HW123987   2.632   8.056   3.163
 4256SOL    HW223988   2.470   8.042   3.176
 4257SOL     OW23989   9.078   8.933   5.487
 4257SOL    HW123990   9.015   8.880   5.543
 4257SOL    HW223991   9.097   9.021   5.532
 4258SOL     OW23992   7.110   1.989   4.487
 4258SOL    HW123993   7.114   2.088   4.499
 4258SOL    HW223994   7.193   1.948   4.524
 4259SOL     OW23995   5.631   4.625   1.118
 4259SOL    HW123996   5.643   4.647   1.215
 4259SOL    HW223997   5.634   4.709   1.064
 4260SOL     OW23998   5.778   1.112   1.615
 4260SOL    HW123999   5.870   1.091   1.580
 4260SOL    HW224000   5.740   1.189   1.564
 4261SOL     OW24001   6.184   8.487   3.552
 4261SOL    HW124002   6.152   8.424   3.623
 4261SOL    HW224003   6.268   8.450   3.511
 4262SOL     OW24004   1.415   6.020   4.057
 4262SOL    HW124005   1.451   6.101   4.010
 4262SOL    HW224006   1.396   6.043   4.153
 4263SOL     OW24007   4.585   6.189   2.046
 4263SOL    HW124008   4.639   6.243   2.110
 4263SOL    HW224009   4.594   6.092   2.069
 4264SOL     OW24010   6.942   0.611   5.670
 4264SOL    HW124011   6.890   0.691   5.701
 4264SOL    HW224012   6.894   0.527   5.696
 4265SOL     OW24013   7.759   8.987   2.607
 4265SOL    HW124014   7.798   9.061   2.554
 4265SOL    HW224015   7.744   9.017   2.701
 4266SOL     OW24016   6.569   9.337   2.153
 4266SOL    HW124017   6.663   9.352   2.123
 4266SOL    HW224018   6.517   9.422   2.144
 4267SOL     OW24019   5.553   1.671   3.732
 4267SOL    HW124020   5.626   1.724   3.689
 4267SOL    HW224021   5.491   1.733   3.781
 4268SOL     OW24022   9.308   6.774   3.289
 4268SOL    HW124023   9.400   6.777   3.328
 4268SOL    HW224024   9.311   6.809   3.195
 4269SOL     OW24025   5.954   9.808   1.976
 4269SOL    HW124026   5.959   9.737   2.046
 4269SOL    HW224027   5.896   9.777   1.901
 4270SOL     OW24028   3.023   3.897   3.370
 4270SOL    HW124029   3.025   3.806   3.329
 4270SOL    HW224030   3.096   3.904   3.438
 4271SOL     OW24031   7.826   5.224   2.116
 4271SOL    HW124032   7.784   5.244   2.027
 4271SOL    HW224033   7.880   5.140   2.109
 4272SOL     OW24034   1.911   8.817   2.042
 4272SOL    HW124035   1.948   8.745   2.100
 4272SOL    HW224036   1.847   8.872   2.095
 4273SOL     OW24037   7.517   8.719   5.808
 4273SOL    HW124038   7.453   8.688   5.737
 4273SOL    HW224039   7.486   8.806   5.845
 4274SOL     OW24040   3.342   8.273   1.288
 4274SOL    HW124041   3.438   8.296   1.305
 4274SOL    HW224042   3.284   8.344   1.328
 4275SOL     OW24043   5.177   1.111   5.561
 4275SOL    HW124044   5.176   1.116   5.660
 4275SOL    HW224045   5.128   1.029   5.531
 4276SOL     OW24046   1.991   1.352   4.933
 4276SOL    HW124047   2.027   1.316   4.847
 4276SOL    HW224048   1.951   1.442   4.917
 4277SOL     OW24049   8.306   7.189   0.529
 4277SOL    HW124050   8.398   7.200   0.493
 4277SOL    HW224051   8.240   7.187   0.453
 4278SOL     OW24052   8.159   1.652   0.787
 4278SOL    HW124053   8.200   1.657   0.878
 4278SOL    HW224054   8.059   1.650   0.795
 4279SOL     OW24055   2.126   4.994   5.288
 4279SOL    HW124056   2.180   4.933   5.230
 4279SOL    HW224057   2.140   4.970   5.384
 4280SOL     OW24058   1.558   0.284   1.665
 4280SOL    HW124059   1.514   0.374   1.671
 4280SOL    HW224060   1.650   0.295   1.627
 4281SOL     OW24061   3.157   1.690   5.897
 4281SOL    HW124062   3.122   1.600   5.924
 4281SOL    HW224063   3.171   1.691   5.798
 4282SOL     OW24064   5.063   4.950   1.538
 4282SOL    HW124065   5.047   5.046   1.561
 4282SOL    HW224066   4.985   4.914   1.486
 4283SOL     OW24067   2.086   5.966   1.991
 4283SOL    HW124068   2.146   5.928   2.062
 4283SOL    HW224069   2.142   6.008   1.920
 4284SOL     OW24070   1.328   7.758   5.666
 4284SOL    HW124071   1.302   7.664   5.691
 4284SOL    HW224072   1.310   7.819   5.744
 4285SOL     OW24073   9.392   9.031   5.461
 4285SOL    HW124074   9.331   9.070   5.391
 4285SOL    HW224075   9.374   8.933   5.470
 4286SOL     OW24076   1.295   9.241   4.347
 4286SOL    HW124077   1.301   9.265   4.444
 4286SOL    HW224078   1.305   9.142   4.336
 4287SOL     OW24079   5.934   3.044   1.006
 4287SOL    HW124080   5.923   3.132   0.960
 4287SOL    HW224081   6.026   3.038   1.044
 4288SOL     OW24082   8.332   9.809   2.386
 4288SOL    HW124083   8.269   9.883   2.365
 4288SOL    HW224084   8.426   9.837   2.363
 4289SOL     OW24085   7.402   7.376   4.740
 4289SOL    HW124086   7.371   7.289   4.702
 4289SOL    HW224087   7.454   7.426   4.671
 4290SOL     OW24088   4.303   8.577   2.253
 4290SOL    HW124089   4.369   8.554   2.181
 4290SOL    HW224090   4.288   8.497   2.311
 4291SOL     OW24091   1.517   5.328   5.132
 4291SOL    HW124092   1.565   5.363   5.051
 4291SOL    HW224093   1.537   5.388   5.210
 4292SOL     OW24094   0.678   8.814   6.036
 4292SOL    HW124095   0.691   8.872   6.116
 4292SOL    HW224096   0.590   8.766   6.043
 4293SOL     OW24097   3.247   5.497   3.779
 4293SOL    HW124098   3.181   5.528   3.710
 4293SOL    HW224099   3.198   5.478   3.864
 4294SOL     OW24100   9.548   7.142   2.371
 4294SOL    HW124101   9.577   7.203   2.444
 4294SOL    HW224102   9.499   7.063   2.409
 4295SOL     OW24103   7.318   2.482   4.988
 4295SOL    HW124104   7.314   2.443   5.080
 4295SOL    HW224105   7.371   2.567   4.990
 4296SOL     OW24106   3.241   1.988   2.328
 4296SOL    HW124107   3.271   2.012   2.235
 4296SOL    HW224108   3.280   1.900   2.354
 4297SOL     OW24109   0.902   4.670   6.043
 4297SOL    HW124110   0.926   4.602   5.974
 4297SOL    HW224111   0.812   4.650   6.080
 4298SOL     OW24112   4.117   9.009   2.126
 4298SOL    HW124113   4.078   9.016   2.034
 4298SOL    HW224114   4.216   9.021   2.120
 4299SOL     OW24115   0.392   4.162   0.521
 4299SOL    HW124116   0.381   4.063   0.510
 4299SOL    HW224117   0.465   4.181   0.586
 4300SOL     OW24118   0.180   4.962   5.531
 4300SOL    HW124119   0.112   4.950   5.603
 4300SOL    HW224120   0.269   4.928   5.562
 4301SOL     OW24121   0.720   2.368   2.276
 4301SOL    HW124122   0.662   2.317   2.340
 4301SOL    HW224123   0.758   2.305   2.208
 4302SOL     OW24124   4.324   4.163   0.324
 4302SOL    HW124125   4.306   4.071   0.288
 4302SOL    HW224126   4.247   4.192   0.380
 4303SOL     OW24127   8.669   9.493   1.678
 4303SOL    HW124128   8.759   9.524   1.649
 4303SOL    HW224129   8.639   9.418   1.618
 4304SOL     OW24130   9.558   4.844   4.458
 4304SOL    HW124131   9.479   4.789   4.488
 4304SOL    HW224132   9.552   4.935   4.498
 4305SOL     OW24133   9.750   9.227   5.735
 4305SOL    HW124134   9.705   9.222   5.645
 4305SOL    HW224135   9.716   9.152   5.793
 4306SOL     OW24136   3.148   5.916   4.388
 4306SOL    HW124137   3.126   5.892   4.293
 4306SOL    HW224138   3.068   5.898   4.446
 4307SOL     OW24139   4.660   5.953   0.955
 4307SOL    HW124140   4.738   5.900   0.989
 4307SOL    HW224141   4.648   5.936   0.857
 4308SOL     OW24142   1.165   4.409   0.768
 4308SOL    HW124143   1.072   4.444   0.759
 4308SOL    HW224144   1.164   4.330   0.830
 4309SOL     OW24145   9.579   3.454   1.541
 4309SOL    HW124146   9.678   3.464   1.555
 4309SOL    HW224147   9.530   3.517   1.601
 4310SOL     OW24148   0.519   9.846   5.617
 4310SOL    HW124149   0.486   9.937   5.589
 4310SOL    HW224150   0.452   9.803   5.677
 4311SOL     OW24151   7.489   3.664   0.296
 4311SOL    HW124152   7.510   3.701   0.387
 4311SOL    HW224153   7.420   3.720   0.252
 4312SOL     OW24154   0.202   5.943   5.372
 4312SOL    HW124155   0.242   5.881   5.439
 4312SOL    HW224156   0.224   6.037   5.396
 4313SOL     OW24157   5.346   0.688   3.598
 4313SOL    HW124158   5.418   0.627   3.565
 4313SOL    HW224159   5.366   0.716   3.692
 4314SOL     OW24160   6.728   8.107   3.775
 4314SOL    HW124161   6.712   8.186   3.833
 4314SOL    HW224162   6.730   8.024   3.832
 4315SOL     OW24163   2.235   9.929   4.540
 4315SOL    HW124164   2.293   9.855   4.506
 4315SOL    HW224165   2.288   0.014   4.542
 4316SOL     OW24166   8.389   8.068   0.061
 4316SOL    HW124167   8.360   7.991   0.118
 4316SOL    HW224168   8.353   8.153   0.099
 4317SOL     OW24169   8.457   8.456   4.222
 4317SOL    HW124170   8.459   8.403   4.137
 4317SOL    HW224171   8.507   8.406   4.293
 4318SOL     OW24172   6.545   8.549   4.039
 4318SOL    HW124173   6.617   8.591   4.094
 4318SOL    HW224174   6.464   8.533   4.096
 4319SOL     OW24175   9.863   3.255   0.830
 4319SOL    HW124176   9.903   3.275   0.740
 4319SOL    HW224177   9.776   3.302   0.839
 4320SOL     OW24178   8.545   6.681   2.202
 4320SOL    HW124179   8.591   6.657   2.288
 4320SOL    HW224180   8.502   6.599   2.164
 4321SOL     OW24181   9.269   1.714   1.218
 4321SOL    HW124182   9.318   1.673   1.141
 4321SOL    HW224183   9.203   1.648   1.255
 4322SOL     OW24184   0.814   8.411   4.707
 4322SOL    HW124185   0.740   8.457   4.756
 4322SOL    HW224186   0.775   8.350   4.637
 4323SOL     OW24187   7.719   5.568   2.650
 4323SOL    HW124188   7.750   5.647   2.703
 4323SOL    HW224189   7.694   5.597   2.558
 4324SOL     OW24190   0.388   7.550   6.001
 4324SOL    HW124191   0.427   7.598   6.080
 4324SOL    HW224192   0.432   7.584   5.917
 4325SOL     OW24193   8.281   4.731   6.187
 4325SOL    HW124194   8.336   4.653   6.217
 4325SOL    HW224195   8.284   4.739   6.088
 4326SOL     OW24196   0.494   0.420   0.240
 4326SOL    HW124197   0.500   0.486   0.315
 4326SOL    HW224198   0.405   0.428   0.196
 4327SOL     OW24199   0.753   3.036   0.497
 4327SOL    HW124200   0.737   3.005   0.403
 4327SOL    HW224201   0.688   2.990   0.558
 4328SOL     OW24202   4.043   8.033   1.731
 4328SOL    HW124203   4.126   8.036   1.787
 4328SOL    HW224204   3.964   8.056   1.787
 4329SOL     OW24205   3.449   9.006   5.447
 4329SOL    HW124206   3.446   8.913   5.482
 4329SOL    HW224207   3.368   9.023   5.391
 4330SOL     OW24208   2.982   9.478   1.774
 4330SOL    HW124209   2.921   9.462   1.697
 4330SOL    HW224210   2.957   9.563   1.819
 4331SOL     OW24211   9.074   6.658   5.150
 4331SOL    HW124212   9.051   6.600   5.228
 4331SOL    HW224213   9.007   6.642   5.077
 4332SOL     OW24214   9.022   5.868   1.259
 4332SOL    HW124215   9.101   5.852   1.199
 4332SOL    HW224216   8.959   5.931   1.214
 4333SOL     OW24217   1.451   8.539   0.204
 4333SOL    HW124218   1.396   8.456   0.210
 4333SOL    HW224219   1.548   8.514   0.195
 4334SOL     OW24220   7.892   4.337   4.390
 4334SOL    HW124221   7.929   4.407   4.451
 4334SOL    HW224222   7.870   4.255   4.443
 4335SOL     OW24223   2.683   3.171   2.145
 4335SOL    HW124224   2.734   3.246   2.102
 4335SOL    HW224225   2.611   3.209   2.202
 4336SOL     OW24226   0.185   2.058   3.832
 4336SOL    HW124227   0.190   2.014   3.922
 4336SOL    HW224228   0.116   2.130   3.835
 4337SOL     OW24229   6.616   9.101   5.363
 4337SOL    HW124230   6.620   9.090   5.264
 4337SOL    HW224231   6.705   9.135   5.396
 4338SOL     OW24232   0.445   7.215   4.927
 4338SOL    HW124233   0.439   7.263   5.014
 4338SOL    HW224234   0.535   7.173   4.918
 4339SOL     OW24235   6.326   0.647   4.700
 4339SOL    HW124236   6.367   0.617   4.613
 4339SOL    HW224237   6.327   0.747   4.704
 4340SOL     OW24238   7.033   0.748   5.433
 4340SOL    HW124239   6.993   0.694   5.508
 4340SOL    HW224240   7.132   0.736   5.433
 4341SOL     OW24241   8.863   9.130   4.260
 4341SOL    HW124242   8.948   9.128   4.313
 4341SOL    HW224243   8.830   9.224   4.254
 4342SOL     OW24244   6.414   0.676   6.192
 4342SOL    HW124245   6.468   0.678   6.107
 4342SOL    HW224246   6.397   0.581   6.218
 4343SOL     OW24247   2.656   3.548   2.855
 4343SOL    HW124248   2.658   3.453   2.826
 4343SOL    HW224249   2.581   3.563   2.919
 4344SOL     OW24250   7.840   9.334   5.010
 4344SOL    HW124251   7.742   9.349   5.019
 4344SOL    HW224252   7.857   9.242   4.974
 4345SOL     OW24253   8.459   5.140   6.017
 4345SOL    HW124254   8.424   5.092   6.097
 4345SOL    HW224255   8.444   5.084   5.935
 4346SOL     OW24256   1.771   3.825   5.002
 4346SOL    HW124257   1.706   3.902   5.002
 4346SOL    HW224258   1.721   3.740   5.016
 4347SOL     OW24259   9.013   5.199   1.931
 4347SOL    HW124260   9.046   5.113   1.970
 4347SOL    HW224261   9.038   5.275   1.991
 4348SOL     OW24262   9.954   8.848   4.400
 4348SOL    HW124263   9.975   8.869   4.304
 4348SOL    HW224264   9.941   8.749   4.410
 4349SOL     OW24265   5.445   1.556   2.184
 4349SOL    HW124266   5.485   1.552   2.276
 4349SOL    HW224267   5.349   1.583   2.190
 4350SOL     OW24268   5.162   1.793   6.134
 4350SOL    HW124269   5.188   1.841   6.050
 4350SOL    HW224270   5.125   1.858   6.199
 4351SOL     OW24271   7.109   0.490   0.773
 4351SOL    HW124272   7.190   0.547   0.790
 4351SOL    HW224273   7.096   0.479   0.675
 4352SOL     OW24274   5.283   7.614   3.607
 4352SOL    HW124275   5.228   7.561   3.542
 4352SOL    HW224276   5.294   7.562   3.691
 4353SOL     OW24277   7.155   2.338   3.047
 4353SOL    HW124278   7.123   2.374   2.959
 4353SOL    HW224279   7.076   2.308   3.101
 4354SOL     OW24280   3.021   7.224   5.167
 4354SOL    HW124281   3.029   7.152   5.237
 4354SOL    HW224282   3.097   7.216   5.102
 4355SOL     OW24283   4.625   1.764   4.610
 4355SOL    HW124284   4.551   1.729   4.669
 4355SOL    HW224285   4.710   1.716   4.631
 4356SOL     OW24286   1.248   5.596   4.128
 4356SOL    HW124287   1.156   5.561   4.142
 4356SOL    HW224288   1.314   5.537   4.175
 4357SOL     OW24289   8.434   2.240   1.161
 4357SOL    HW124290   8.401   2.165   1.104
 4357SOL    HW224291   8.524   2.218   1.197
 4358SOL     OW24292   4.152   8.760   1.521
 4358SOL    HW124293   4.230   8.807   1.562
 4358SOL    HW224294   4.164   8.661   1.533
 4359SOL     OW24295   3.026   4.659   5.589
 4359SOL    HW124296   3.072   4.737   5.632
 4359SOL    HW224297   3.073   4.635   5.504
 4360SOL     OW24298   2.356   1.359   4.292
 4360SOL    HW124299   2.315   1.435   4.342
 4360SOL    HW224300   2.306   1.275   4.314
 4361SOL     OW24301   0.824   6.686   4.426
 4361SOL    HW124302   0.916   6.666   4.390
 4361SOL    HW224303   0.764   6.712   4.351
 4362SOL     OW24304   1.914   6.139   3.333
 4362SOL    HW124305   1.921   6.237   3.315
 4362SOL    HW224306   1.819   6.115   3.352
 4363SOL     OW24307   4.148   2.643   5.973
 4363SOL    HW124308   4.058   2.685   5.969
 4363SOL    HW224309   4.154   2.585   6.054
 4364SOL     OW24310   7.131   0.435   2.195
 4364SOL    HW124311   7.160   0.366   2.261
 4364SOL    HW224312   7.075   0.504   2.240
 4365SOL     OW24313   4.335   0.145   6.329
 4365SOL    HW124314   4.282   0.161   6.412
 4365SOL    HW224315   4.419   0.200   6.333
 4366SOL     OW24316   3.054   8.270   5.819
 4366SOL    HW124317   3.078   8.183   5.863
 4366SOL    HW224318   2.956   8.272   5.801
 4367SOL     OW24319   9.268   0.425   3.458
 4367SOL    HW124320   9.325   0.417   3.376
 4367SOL    HW224321   9.176   0.392   3.439
 4368SOL     OW24322   7.783   3.993   5.672
 4368SOL    HW124323   7.743   4.056   5.604
 4368SOL    HW224324   7.846   3.931   5.626
 4369SOL     OW24325   0.064   1.295   4.171
 4369SOL    HW124326   0.071   1.306   4.071
 4369SOL    HW224327   9.968   1.306   4.198
 4370SOL     OW24328   4.602   3.825   0.524
 4370SOL    HW124329   4.675   3.787   0.467
 4370SOL    HW224330   4.513   3.798   0.487
 4371SOL     OW24331   3.874   3.094   2.868
 4371SOL    HW124332   3.797   3.098   2.931
 4371SOL    HW224333   3.880   3.002   2.828
 4372SOL     OW24334   4.362   9.526   5.748
 4372SOL    HW124335   4.305   9.603   5.722
 4372SOL    HW224336   4.458   9.550   5.736
 4373SOL     OW24337   1.424   0.919   0.286
 4373SOL    HW124338   1.415   0.825   0.256
 4373SOL    HW224339   1.345   0.972   0.255
 4374SOL     OW24340   5.692   1.664   5.868
 4374SOL    HW124341   5.636   1.632   5.944
 4374SOL    HW224342   5.638   1.724   5.810
 4375SOL     OW24343   9.343   9.363   4.572
 4375SOL    HW124344   9.361   9.276   4.525
 4375SOL    HW224345   9.335   9.436   4.505
 4376SOL     OW24346   8.339   7.499   1.960
 4376SOL    HW124347   8.347   7.478   2.058
 4376SOL    HW224348   8.258   7.555   1.945
 4377SOL     OW24349   3.673   0.712   0.978
 4377SOL    HW124350   3.771   0.704   0.963
 4377SOL    HW224351   3.656   0.782   1.048
 4378SOL     OW24352   0.077   8.627   3.042
 4378SOL    HW124353   0.058   8.606   3.138
 4378SOL    HW224354   0.173   8.607   3.022
 4379SOL     OW24355   9.053   2.456   5.293
 4379SOL    HW124356   9.034   2.409   5.380
 4379SOL    HW224357   8.966   2.479   5.248
 4380SOL     OW24358   5.540   2.285   4.710
 4380SOL    HW124359   5.483   2.236   4.644
 4380SOL    HW224360   5.615   2.330   4.663
 4381SOL     OW24361   4.309   6.167   1.957
 4381SOL    HW124362   4.399   6.199   1.988
 4381SOL    HW224363   4.283   6.215   1.874
 4382SOL     OW24364   2.252   8.044   2.797
 4382SOL    HW124365   2.249   8.019   2.700
 4382SOL    HW224366   2.228   7.965   2.853
 4383SOL     OW24367   7.947   8.278   2.741
 4383SOL    HW124368   7.907   8.358   2.697
 4383SOL    HW224369   8.046   8.279   2.728
 4384SOL     OW24370   0.756   5.884   3.896
 4384SOL    HW124371   0.840   5.831   3.894
 4384SOL    HW224372   0.687   5.837   3.951
 4385SOL     OW24373   4.314   5.744   3.072
 4385SOL    HW124374   4.312   5.785   3.163
 4385SOL    HW224375   4.221   5.742   3.034
 4386SOL     OW24376   4.288   2.090   6.166
 4386SOL    HW124377   4.240   2.139   6.093
 4386SOL    HW224378   4.379   2.128   6.178
 4387SOL     OW24379   2.832   8.683   3.180
 4387SOL    HW124380   2.818   8.613   3.250
 4387SOL    HW224381   2.910   8.657   3.122
 4388SOL     OW24382   0.910   3.485   5.578
 4388SOL    HW124383   0.848   3.436   5.639
 4388SOL    HW224384   1.002   3.484   5.616
 4389SOL     OW24385   1.384   9.810   2.402
 4389SOL    HW124386   1.350   9.829   2.494
 4389SOL    HW224387   1.483   9.800   2.404
 4390SOL     OW24388   0.832   1.171   4.240
 4390SOL    HW124389   0.810   1.074   4.237
 4390SOL    HW224390   0.748   1.224   4.248
 4391SOL     OW24391   6.812   8.875   3.542
 4391SOL    HW124392   6.840   8.785   3.510
 4391SOL    HW224393   6.893   8.930   3.563
 4392SOL     OW24394   3.744   0.907   2.761
 4392SOL    HW124395   3.740   0.832   2.696
 4392SOL    HW224396   3.839   0.920   2.792
 4393SOL     OW24397   4.849   1.514   0.530
 4393SOL    HW124398   4.793   1.549   0.455
 4393SOL    HW224399   4.908   1.587   0.564
 4394SOL     OW24400   2.455   3.077   5.814
 4394SOL    HW124401   2.430   3.102   5.721
 4394SOL    HW224402   2.394   3.005   5.847
 4395SOL     OW24403   0.845   7.996   5.732
 4395SOL    HW124404   0.887   8.035   5.650
 4395SOL    HW224405   0.746   8.003   5.724
 4396SOL     OW24406   3.760   8.734   5.813
 4396SOL    HW124407   3.851   8.770   5.792
 4396SOL    HW224408   3.738   8.754   5.909
 4397SOL     OW24409   2.223   3.044   4.555
 4397SOL    HW124410   2.308   3.095   4.555
 4397SOL    HW224411   2.242   2.947   4.569
 4398SOL     OW24412   5.025   4.678   0.362
 4398SOL    HW124413   5.031   4.714   0.455
 4398SOL    HW224414   5.081   4.596   0.355
 4399SOL     OW24415   0.648   9.383   0.641
 4399SOL    HW124416   0.658   9.286   0.663
 4399SOL    HW224417   0.621   9.433   0.723
 4400SOL     OW24418   6.842   9.665   3.707
 4400SOL    HW124419   6.869   9.718   3.627
 4400SOL    HW224420   6.751   9.627   3.692
 4401SOL     OW24421   9.641   1.696   0.145
 4401SOL    HW124422   9.637   1.600   0.115
 4401SOL    HW224423   9.721   1.708   0.203
 4402SOL     OW24424   4.868   0.591   0.076
 4402SOL    HW124425   4.775   0.623   0.091
 4402SOL    HW224426   4.866   0.494   0.050
 4403SOL     OW24427   8.640   0.941   2.515
 4403SOL    HW124428   8.647   0.901   2.606
 4403SOL    HW224429   8.729   0.976   2.486
 4404SOL     OW24430   0.558   7.113   0.831
 4404SOL    HW124431   0.610   7.189   0.792
 4404SOL    HW224432   0.585   7.099   0.926
 4405SOL     OW24433   1.332   9.072   0.752
 4405SOL    HW124434   1.421   9.056   0.710
 4405SOL    HW224435   1.331   9.160   0.798
 4406SOL     OW24436   0.620   6.412   0.445
 4406SOL    HW124437   0.706   6.434   0.490
 4406SOL    HW224438   0.580   6.331   0.487
 4407SOL     OW24439   9.584   8.872   3.526
 4407SOL    HW124440   9.664   8.929   3.505
 4407SOL    HW224441   9.582   8.852   3.624
 4408SOL     OW24442   3.311   0.067   4.477
 4408SOL    HW124443   3.340   0.162   4.492
 4408SOL    HW224444   3.212   0.066   4.460
 4409SOL     OW24445   0.411   8.968   0.526
 4409SOL    HW124446   0.502   8.929   0.512
 4409SOL    HW224447   0.406   9.005   0.619
 4410SOL     OW24448   1.093   6.242   1.345
 4410SOL    HW124449   1.052   6.177   1.409
 4410SOL    HW224450   1.138   6.315   1.397
 4411SOL     OW24451   9.032   3.744   2.723
 4411SOL    HW124452   9.064   3.807   2.652
 4411SOL    HW224453   9.067   3.773   2.812
 4412SOL     OW24454   0.722   3.818   5.857
 4412SOL    HW124455   0.701   3.789   5.763
 4412SOL    HW224456   0.811   3.864   5.859
 4413SOL     OW24457   3.079   9.119   4.357
 4413SOL    HW124458   3.122   9.116   4.266
 4413SOL    HW224459   3.127   9.056   4.418
 4414SOL     OW24460   9.022   4.628   2.290
 4414SOL    HW124461   8.987   4.672   2.372
 4414SOL    HW224462   8.957   4.558   2.258
 4415SOL     OW24463   7.820   5.267   2.387
 4415SOL    HW124464   7.748   5.330   2.416
 4415SOL    HW224465   7.816   5.255   2.288
 4416SOL     OW24466   2.995   1.854   2.277
 4416SOL    HW124467   2.978   1.876   2.181
 4416SOL    HW224468   3.069   1.912   2.313
 4417SOL     OW24469   6.888   9.427   3.862
 4417SOL    HW124470   6.855   9.352   3.806
 4417SOL    HW224471   6.887   9.512   3.808
 4418SOL     OW24472   8.877   6.688   5.701
 4418SOL    HW124473   8.895   6.632   5.782
 4418SOL    HW224474   8.957   6.688   5.641
 4419SOL     OW24475   3.069   4.517   3.420
 4419SOL    HW124476   3.020   4.482   3.500
 4419SOL    HW224477   3.065   4.617   3.419
 4420SOL     OW24478   2.969   2.858   3.012
 4420SOL    HW124479   3.055   2.808   3.006
 4420SOL    HW224480   2.953   2.887   3.107
 4421SOL     OW24481   5.489   6.511   0.974
 4421SOL    HW124482   5.484   6.596   1.026
 4421SOL    HW224483   5.585   6.485   0.962
 4422SOL     OW24484   8.315   0.256   2.032
 4422SOL    HW124485   8.293   0.315   1.955
 4422SOL    HW224486   8.285   0.162   2.013
 4423SOL     OW24487   2.106   8.072   5.666
 4423SOL    HW124488   2.043   8.056   5.742
 4423SOL    HW224489   2.169   8.146   5.690
 4424SOL     OW24490   0.514   1.597   0.582
 4424SOL    HW124491   0.594   1.581   0.524
 4424SOL    HW224492   0.507   1.694   0.604
 4425SOL     OW24493   2.585   9.695   4.755
 4425SOL    HW124494   2.500   9.644   4.740
 4425SOL    HW224495   2.655   9.632   4.789
 4426SOL     OW24496   7.458   3.242   6.366
 4426SOL    HW124497   7.378   3.204   6.322
 4426SOL    HW224498   7.448   3.342   6.375
 4427SOL     OW24499   2.319   0.412   3.615
 4427SOL    HW124500   2.342   0.478   3.544
 4427SOL    HW224501   2.221   0.394   3.613
 4428SOL     OW24502   7.245   6.680   4.330
 4428SOL    HW124503   7.291   6.655   4.416
 4428SOL    HW224504   7.295   6.754   4.286
 4429SOL     OW24505   9.266   1.569   2.976
 4429SOL    HW124506   9.210   1.631   3.031
 4429SOL    HW224507   9.266   1.600   2.881
 4430SOL     OW24508   9.351   8.009   5.577
 4430SOL    HW124509   9.419   8.070   5.537
 4430SOL    HW224510   9.381   7.914   5.570
 4431SOL     OW24511   1.136   2.725   6.263
 4431SOL    HW124512   1.134   2.760   6.169
 4431SOL    HW224513   1.043   2.700   6.291
 4432SOL     OW24514   1.063   2.459   3.684
 4432SOL    HW124515   1.034   2.373   3.726
 4432SOL    HW224516   0.986   2.522   3.681
 4433SOL     OW24517   0.492   5.285   0.416
 4433SOL    HW124518   0.567   5.286   0.349
 4433SOL    HW224519   0.522   5.331   0.500
 4434SOL     OW24520   3.962   9.489   1.846
 4434SOL    HW124521   3.983   9.539   1.762
 4434SOL    HW224522   3.912   9.549   1.909
 4435SOL     OW24523   7.736   7.682   6.271
 4435SOL    HW124524   7.806   7.696   6.341
 4435SOL    HW224525   7.743   7.589   6.235
 4436SOL     OW24526   2.952   9.581   1.380
 4436SOL    HW124527   2.915   9.673   1.390
 4436SOL    HW224528   2.911   9.521   1.449
 4437SOL     OW24529   8.213   1.907   5.117
 4437SOL    HW124530   8.292   1.846   5.124
 4437SOL    HW224531   8.131   1.860   5.148
 4438SOL     OW24532   7.683   2.628   5.054
 4438SOL    HW124533   7.607   2.679   5.013
 4438SOL    HW224534   7.768   2.649   5.004
 4439SOL     OW24535   1.895   6.438   6.187
 4439SOL    HW124536   1.976   6.448   6.129
 4439SOL    HW224537   1.813   6.454   6.132
 4440SOL     OW24538   5.402   3.997   1.822
 4440SOL    HW124539   5.398   4.096   1.811
 4440SOL    HW224540   5.328   3.967   1.883
 4441SOL     OW24541   1.458   5.748   4.038
 4441SOL    HW124542   1.374   5.702   4.064
 4441SOL    HW224543   1.446   5.847   4.047
 4442SOL     OW24544   5.346   2.405   3.441
 4442SOL    HW124545   5.317   2.481   3.382
 4442SOL    HW224546   5.291   2.406   3.525
 4443SOL     OW24547   2.221   1.426   2.019
 4443SOL    HW124548   2.147   1.363   2.045
 4443SOL    HW224549   2.188   1.489   1.948
 4444SOL     OW24550   0.891   6.797   5.999
 4444SOL    HW124551   0.857   6.736   6.071
 4444SOL    HW224552   0.818   6.858   5.969
 4445SOL     OW24553   2.596   3.035   3.916
 4445SOL    HW124554   2.551   3.030   3.827
 4445SOL    HW224555   2.600   2.944   3.956
 4446SOL     OW24556   9.971   5.010   3.942
 4446SOL    HW124557   0.067   4.986   3.932
 4446SOL    HW224558   9.920   4.931   3.976
 4447SOL     OW24559   2.177   6.373   5.246
 4447SOL    HW124560   2.240   6.370   5.324
 4447SOL    HW224561   2.084   6.388   5.279
 4448SOL     OW24562   8.582   8.366   1.706
 4448SOL    HW124563   8.670   8.363   1.659
 4448SOL    HW224564   8.520   8.428   1.658
 4449SOL     OW24565   4.108   0.409   2.521
 4449SOL    HW124566   4.026   0.356   2.496
 4449SOL    HW224567   4.081   0.488   2.575
 4450SOL     OW24568   9.829   8.649   4.160
 4450SOL    HW124569   9.858   8.611   4.248
 4450SOL    HW224570   9.889   8.725   4.135
 4451SOL     OW24571   9.041   3.896   3.620
 4451SOL    HW124572   9.073   3.978   3.573
 4451SOL    HW224573   9.113   3.827   3.621
 4452SOL     OW24574   3.293   8.665   6.431
 4452SOL    HW124575   3.215   8.725   6.446
 4452SOL    HW224576   3.326   8.631   6.520
 4453SOL     OW24577   8.814   2.322   3.898
 4453SOL    HW124578   8.776   2.392   3.958
 4453SOL    HW224579   8.896   2.282   3.940
 4454SOL     OW24580   2.378   8.742   4.254
 4454SOL    HW124581   2.460   8.687   4.235
 4454SOL    HW224582   2.300   8.704   4.206
 4455SOL     OW24583   3.459   7.992   5.886
 4455SOL    HW124584   3.407   8.017   5.804
 4455SOL    HW224585   3.408   7.924   5.939
 4456SOL     OW24586   0.036   0.963   3.315
 4456SOL    HW124587   0.059   0.982   3.410
 4456SOL    HW224588   0.116   0.926   3.268
 4457SOL     OW24589   5.233   2.055   0.486
 4457SOL    HW124590   5.228   2.119   0.563
 4457SOL    HW224591   5.165   2.081   0.417
 4458SOL     OW24592   6.540   1.009   5.911
 4458SOL    HW124593   6.577   1.077   5.847
 4458SOL    HW224594   6.549   1.043   6.005
 4459SOL     OW24595   5.064   1.569   2.414
 4459SOL    HW124596   5.106   1.555   2.324
 4459SOL    HW224597   5.077   1.664   2.443
 4460SOL     OW24598   4.653   5.323   0.334
 4460SOL    HW124599   4.671   5.304   0.431
 4460SOL    HW224600   4.647   5.236   0.284
 4461SOL     OW24601   2.388   1.431   6.254
 4461SOL    HW124602   2.456   1.358   6.253
 4461SOL    HW224603   2.319   1.412   6.184
 4462SOL     OW24604   9.345   3.844   3.981
 4462SOL    HW124605   9.390   3.919   4.029
 4462SOL    HW224606   9.254   3.873   3.951
 4463SOL     OW24607   9.185   8.229   3.503
 4463SOL    HW124608   9.125   8.257   3.578
 4463SOL    HW224609   9.168   8.132   3.481
 4464SOL     OW24610   0.929   3.027   5.124
 4464SOL    HW124611   0.973   3.100   5.072
 4464SOL    HW224612   0.879   2.967   5.061
 4465SOL     OW24613   9.707   7.786   2.545
 4465SOL    HW124614   9.692   7.853   2.618
 4465SOL    HW224615   9.626   7.727   2.537
 4466SOL     OW24616   5.489   5.660   2.208
 4466SOL    HW124617   5.445   5.610   2.283
 4466SOL    HW224618   5.496   5.600   2.128
 4467SOL     OW24619   1.327   2.301   0.917
 4467SOL    HW124620   1.382   2.218   0.902
 4467SOL    HW224621   1.258   2.308   0.844
 4468SOL     OW24622   1.206   8.237   4.980
 4468SOL    HW124623   1.123   8.293   4.973
 4468SOL    HW224624   1.279   8.278   4.927
 4469SOL     OW24625   9.443   1.615   5.494
 4469SOL    HW124626   9.369   1.561   5.453
 4469SOL    HW224627   9.476   1.570   5.577
 4470SOL     OW24628   9.556   8.597   1.964
 4470SOL    HW124629   9.529   8.646   1.882
 4470SOL    HW224630   9.656   8.593   1.970
 4471SOL     OW24631   3.209   3.932   3.590
 4471SOL    HW124632   3.245   4.011   3.541
 4471SOL    HW224633   3.178   3.960   3.681
 4472SOL     OW24634   1.364   1.644   0.512
 4472SOL    HW124635   1.322   1.713   0.455
 4472SOL    HW224636   1.389   1.564   0.457
 4473SOL     OW24637   1.493   0.604   6.221
 4473SOL    HW124638   1.563   0.636   6.157
 4473SOL    HW224639   1.532   0.534   6.282
 4474SOL     OW24640   2.440   8.831   4.521
 4474SOL    HW124641   2.428   8.796   4.428
 4474SOL    HW224642   2.351   8.851   4.561
 4475SOL     OW24643   4.585   0.591   6.217
 4475SOL    HW124644   4.537   0.614   6.132
 4475SOL    HW224645   4.578   0.667   6.281
 4476SOL     OW24646   9.905   5.157   2.961
 4476SOL    HW124647   9.883   5.114   2.874
 4476SOL    HW224648   9.952   5.091   3.020
 4477SOL     OW24649   1.072   1.442   6.255
 4477SOL    HW124650   1.148   1.406   6.200
 4477SOL    HW224651   1.070   1.541   6.247
 4478SOL     OW24652   0.804   0.037   0.266
 4478SOL    HW124653   0.742   0.082   0.330
 4478SOL    HW224654   0.776   9.941   0.256
 4479SOL     OW24655   6.695   2.250   5.941
 4479SOL    HW124656   6.677   2.339   5.983
 4479SOL    HW224657   6.716   2.262   5.844
 4480SOL     OW24658   0.357   6.401   4.818
 4480SOL    HW124659   0.278   6.383   4.877
 4480SOL    HW224660   0.341   6.357   4.729
 4481SOL     OW24661   7.733   6.647   1.645
 4481SOL    HW124662   7.806   6.709   1.616
 4481SOL    HW224663   7.662   6.645   1.575
 4482SOL     OW24664   3.864   8.903   0.101
 4482SOL    HW124665   3.882   8.925   0.005
 4482SOL    HW224666   3.881   8.984   0.157
 4483SOL     OW24667   8.240   4.751   2.489
 4483SOL    HW124668   8.204   4.844   2.501
 4483SOL    HW224669   8.221   4.720   2.396
 4484SOL     OW24670   8.933   7.816   0.343
 4484SOL    HW124671   8.886   7.829   0.431
 4484SOL    HW224672   9.007   7.884   0.335
 4485SOL     OW24673   5.725   8.309   3.708
 4485SOL    HW124674   5.697   8.339   3.616
 4485SOL    HW224675   5.644   8.292   3.763
 4486SOL     OW24676   4.872   7.878   4.106
 4486SOL    HW124677   4.908   7.812   4.171
 4486SOL    HW224678   4.943   7.901   4.039
 4487SOL     OW24679   1.094   5.326   1.553
 4487SOL    HW124680   1.156   5.398   1.524
 4487SOL    HW224681   1.018   5.320   1.488
 4488SOL     OW24682   7.588   9.602   5.654
 4488SOL    HW124683   7.570   9.503   5.657
 4488SOL    HW224684   7.569   9.642   5.743
 4489SOL     OW24685   7.278   1.619   0.126
 4489SOL    HW124686   7.346   1.614   0.053
 4489SOL    HW224687   7.308   1.687   0.194
 4490SOL     OW24688   1.923   6.412   5.348
 4490SOL    HW124689   1.964   6.414   5.439
 4490SOL    HW224690   1.824   6.400   5.355
 4491SOL     OW24691   8.968   8.962   2.445
 4491SOL    HW124692   8.915   9.044   2.422
 4491SOL    HW224693   8.908   8.882   2.445
 4492SOL     OW24694   6.581   1.426   0.138
 4492SOL    HW124695   6.585   1.334   0.176
 4492SOL    HW224696   6.669   1.471   0.149
 4493SOL     OW24697   1.834   9.747   1.566
 4493SOL    HW124698   1.786   9.821   1.614
 4493SOL    HW224699   1.771   9.703   1.502
 4494SOL     OW24700   3.189   6.010   4.913
 4494SOL    HW124701   3.136   5.946   4.856
 4494SOL    HW224702   3.213   6.090   4.858
 4495SOL     OW24703   3.857   9.663   2.022
 4495SOL    HW124704   3.921   9.739   2.027
 4495SOL    HW224705   3.766   9.694   2.051
 4496SOL     OW24706   8.348   8.433   1.913
 4496SOL    HW124707   8.388   8.342   1.898
 4496SOL    HW224708   8.419   8.495   1.945
 4497SOL     OW24709   8.281   8.083   4.684
 4497SOL    HW124710   8.276   8.029   4.601
 4497SOL    HW224711   8.337   8.164   4.668
 4498SOL     OW24712   7.642   3.930   1.559
 4498SOL    HW124713   7.696   3.923   1.474
 4498SOL    HW224714   7.569   3.862   1.557
 4499SOL     OW24715   4.138   0.030   5.986
 4499SOL    HW124716   4.174   9.969   6.056
 4499SOL    HW224717   4.065   0.087   6.025
 4500SOL     OW24718   3.494   8.118   3.009
 4500SOL    HW124719   3.460   8.194   2.954
 4500SOL    HW224720   3.467   8.031   2.967
 4501SOL     OW24721   9.699   5.692   0.427
 4501SOL    HW124722   9.640   5.653   0.497
 4501SOL    HW224723   9.759   5.621   0.391
 4502SOL     OW24724   2.000   3.169   1.517
 4502SOL    HW124725   1.974   3.073   1.512
 4502SOL    HW224726   1.957   3.220   1.442
 4503SOL     OW24727   3.070   1.914   6.042
 4503SOL    HW124728   3.108   1.843   5.982
 4503SOL    HW224729   3.049   1.875   6.131
 4504SOL     OW24730   8.888   7.128   1.056
 4504SOL    HW124731   8.972   7.129   1.110
 4504SOL    HW224732   8.811   7.156   1.113
 4505SOL     OW24733   1.626   4.585   5.613
 4505SOL    HW124734   1.643   4.491   5.641
 4505SOL    HW224735   1.662   4.600   5.521
 4506SOL     OW24736   3.800   9.227   2.906
 4506SOL    HW124737   3.823   9.255   2.999
 4506SOL    HW224738   3.708   9.188   2.905
 4507SOL     OW24739   0.471   4.984   4.525
 4507SOL    HW124740   0.538   4.981   4.599
 4507SOL    HW224741   0.502   5.047   4.454
 4508SOL     OW24742   1.370   9.875   2.673
 4508SOL    HW124743   1.456   9.839   2.707
 4508SOL    HW224744   1.303   9.878   2.748
 4509SOL     OW24745   9.109   0.613   4.611
 4509SOL    HW124746   9.125   0.576   4.702
 4509SOL    HW224747   9.176   0.686   4.592
 4510SOL     OW24748   9.204   4.345   5.372
 4510SOL    HW124749   9.231   4.426   5.423
 4510SOL    HW224750   9.275   4.321   5.306
 4511SOL     OW24751   7.595   4.304   6.260
 4511SOL    HW124752   7.617   4.282   6.165
 4511SOL    HW224753   7.502   4.274   6.281
 4512SOL     OW24754   0.337   9.749   0.098
 4512SOL    HW124755   0.272   9.674   0.103
 4512SOL    HW224756   0.425   9.719   0.136
 4513SOL     OW24757   4.243   9.573   0.945
 4513SOL    HW124758   4.194   9.615   1.021
 4513SOL    HW224759   4.318   9.634   0.917
 4514SOL     OW24760   9.828   7.991   5.835
 4514SOL    HW124761   9.891   8.029   5.902
 4514SOL    HW224762   9.880   7.941   5.765
 4515SOL     OW24763   2.890   3.841   2.109
 4515SOL    HW124764   2.865   3.873   2.018
 4515SOL    HW224765   2.839   3.894   2.177
 4516SOL     OW24766   0.706   4.083   2.007
 4516SOL    HW124767   0.686   4.109   1.912
 4516SOL    HW224768   0.624   4.097   2.063
 4517SOL     OW24769   1.650   1.662   2.892
 4517SOL    HW124770   1.733   1.630   2.938
 4517SOL    HW224771   1.656   1.642   2.794
 4518SOL     OW24772   3.688   0.679   0.444
 4518SOL    HW124773   3.737   0.758   0.407
 4518SOL    HW224774   3.686   0.685   0.544
 4519SOL     OW24775   9.779   6.990   5.624
 4519SOL    HW124776   9.842   7.039   5.564
 4519SOL    HW224777   9.690   7.037   5.624
 4520SOL     OW24778   6.839   3.385   1.379
 4520SOL    HW124779   6.842   3.485   1.380
 4520SOL    HW224780   6.925   3.349   1.343
 4521SOL     OW24781   8.961   9.341   5.923
 4521SOL    HW124782   8.873   9.331   5.876
 4521SOL    HW224783   9.024   9.390   5.863
 4522SOL     OW24784   0.886   9.698   1.886
 4522SOL    HW124785   0.798   9.702   1.933
 4522SOL    HW224786   0.952   9.648   1.942
 4523SOL     OW24787   6.184   2.961   1.102
 4523SOL    HW124788   6.147   2.869   1.090
 4523SOL    HW224789   6.245   2.962   1.182
 4524SOL     OW24790   0.891   7.295   2.116
 4524SOL    HW124791   0.991   7.288   2.118
 4524SOL    HW224792   0.862   7.374   2.170
 4525SOL     OW24793   8.246   1.263   2.445
 4525SOL    HW124794   8.218   1.302   2.357
 4525SOL    HW224795   8.318   1.196   2.429
 4526SOL     OW24796   6.007   2.013   0.408
 4526SOL    HW124797   6.057   2.014   0.322
 4526SOL    HW224798   6.058   2.065   0.477
 4527SOL     OW24799   0.881   9.455   3.551
 4527SOL    HW124800   0.923   9.380   3.500
 4527SOL    HW224801   0.892   9.439   3.649
 4528SOL     OW24802   1.616   8.182   5.198
 4528SOL    HW124803   1.634   8.187   5.297
 4528SOL    HW224804   1.702   8.184   5.148
 4529SOL     OW24805   2.844   9.897   2.889
 4529SOL    HW124806   2.844   9.960   2.811
 4529SOL    HW224807   2.859   9.949   2.973
 4530SOL     OW24808   9.847   1.216   5.344
 4530SOL    HW124809   9.800   1.132   5.369
 4530SOL    HW224810   9.783   1.279   5.299
 4531SOL     OW24811   1.009   7.812   2.614
 4531SOL    HW124812   1.076   7.789   2.684
 4531SOL    HW224813   1.043   7.890   2.560
 4532SOL     OW24814   7.713   0.583   1.344
 4532SOL    HW124815   7.762   0.498   1.362
 4532SOL    HW224816   7.656   0.605   1.422
 4533SOL     OW24817   1.397   5.472   2.972
 4533SOL    HW124818   1.490   5.494   3.002
 4533SOL    HW224819   1.400   5.390   2.915
 4534SOL     OW24820   0.697   4.413   3.629
 4534SOL    HW124821   0.637   4.372   3.560
 4534SOL    HW224822   0.692   4.513   3.624
 4535SOL     OW24823   4.235   4.788   5.918
 4535SOL    HW124824   4.176   4.808   5.839
 4535SOL    HW224825   4.185   4.806   6.002
 4536SOL     OW24826   0.206   1.762   5.242
 4536SOL    HW124827   0.209   1.664   5.223
 4536SOL    HW224828   0.152   1.778   5.325
 4537SOL     OW24829   5.665   1.431   4.071
 4537SOL    HW124830   5.648   1.528   4.088
 4537SOL    HW224831   5.749   1.404   4.117
 4538SOL     OW24832   9.060   3.172   5.561
 4538SOL    HW124833   9.068   3.081   5.520
 4538SOL    HW224834   9.124   3.179   5.638
 4539SOL     OW24835   3.938   8.480   0.301
 4539SOL    HW124836   3.936   8.476   0.401
 4539SOL    HW224837   3.879   8.555   0.270
 4540SOL     OW24838   5.576   6.157   1.616
 4540SOL    HW124839   5.669   6.175   1.585
 4540SOL    HW224840   5.579   6.086   1.687
 4541SOL     OW24841   3.424   6.820   2.599
 4541SOL    HW124842   3.467   6.908   2.581
 4541SOL    HW224843   3.360   6.798   2.525
 4542SOL     OW24844   4.143   4.529   3.019
 4542SOL    HW124845   4.091   4.460   2.969
 4542SOL    HW224846   4.241   4.518   3.001
 4543SOL     OW24847   2.771   1.745   3.802
 4543SOL    HW124848   2.819   1.769   3.887
 4543SOL    HW224849   2.739   1.829   3.757
 4544SOL     OW24850   2.787   8.951   1.908
 4544SOL    HW124851   2.838   9.013   1.849
 4544SOL    HW224852   2.695   8.938   1.871
 4545SOL     OW24853   0.148   9.370   5.290
 4545SOL    HW124854   0.188   9.367   5.382
 4545SOL    HW224855   0.065   9.424   5.291
 4546SOL     OW24856   1.304   7.102   1.955
 4546SOL    HW124857   1.394   7.123   1.915
 4546SOL    HW224858   1.250   7.050   1.889
 4547SOL     OW24859   4.999   8.554   5.672
 4547SOL    HW124860   5.045   8.541   5.760
 4547SOL    HW224861   5.045   8.627   5.621
 4548SOL     OW24862   9.775   7.945   1.910
 4548SOL    HW124863   9.705   7.955   1.981
 4548SOL    HW224864   9.734   7.966   1.821
 4549SOL     OW24865   7.713   1.428   0.923
 4549SOL    HW124866   7.797   1.423   0.978
 4549SOL    HW224867   7.645   1.366   0.960
 4550SOL     OW24868   4.039   2.079   4.912
 4550SOL    HW124869   4.052   2.119   4.821
 4550SOL    HW224870   4.022   2.152   4.978
 4551SOL     OW24871   1.446   6.604   5.424
 4551SOL    HW124872   1.418   6.589   5.329
 4551SOL    HW224873   1.434   6.700   5.448
 4552SOL     OW24874   4.652   6.005   0.210
 4552SOL    HW124875   4.553   6.018   0.207
 4552SOL    HW224876   4.674   5.911   0.184
 4553SOL     OW24877   3.771   7.550   1.741
 4553SOL    HW124878   3.812   7.641   1.736
 4553SOL    HW224879   3.671   7.559   1.739
 4554SOL     OW24880   9.788   7.407   3.757
 4554SOL    HW124881   9.797   7.333   3.824
 4554SOL    HW224882   9.868   7.467   3.763
 4555SOL     OW24883   2.848   1.562   4.672
 4555SOL    HW124884   2.796   1.647   4.676
 4555SOL    HW224885   2.942   1.578   4.703
 4556SOL     OW24886   9.179   1.890   5.339
 4556SOL    HW124887   9.214   1.869   5.430
 4556SOL    HW224888   9.255   1.899   5.275
 4557SOL     OW24889   0.692   9.043   0.407
 4557SOL    HW124890   0.700   9.069   0.503
 4557SOL    HW224891   0.638   9.111   0.358
 4558SOL     OW24892   0.290   4.171   2.469
 4558SOL    HW124893   0.298   4.234   2.392
 4558SOL    HW224894   0.244   4.216   2.545
 4559SOL     OW24895   3.353   7.464   3.383
 4559SOL    HW124896   3.347   7.380   3.329
 4559SOL    HW224897   3.448   7.479   3.411
 4560SOL     OW24898   2.970   4.496   4.648
 4560SOL    HW124899   2.956   4.538   4.559
 4560SOL    HW224900   2.892   4.436   4.668
 4561SOL     OW24901   4.837   1.560   1.649
 4561SOL    HW124902   4.891   1.592   1.572
 4561SOL    HW224903   4.864   1.609   1.732
 4562SOL     OW24904   4.738   1.691   5.422
 4562SOL    HW124905   4.776   1.635   5.495
 4562SOL    HW224906   4.685   1.766   5.461
 4563SOL     OW24907   3.703   8.139   1.495
 4563SOL    HW124908   3.661   8.202   1.430
 4563SOL    HW224909   3.699   8.179   1.587
 4564SOL     OW24910   4.873   7.278   1.800
 4564SOL    HW124911   4.899   7.199   1.855
 4564SOL    HW224912   4.805   7.251   1.732
 4565SOL     OW24913   2.195   5.945   4.735
 4565SOL    HW124914   2.211   5.864   4.791
 4565SOL    HW224915   2.212   6.027   4.789
 4566SOL     OW24916   0.983   2.251   1.546
 4566SOL    HW124917   0.935   2.191   1.610
 4566SOL    HW224918   1.072   2.276   1.583
 4567SOL     OW24919   7.214   0.248   0.857
 4567SOL    HW124920   7.241   0.243   0.953
 4567SOL    HW224921   7.172   0.337   0.839
 4568SOL     OW24922   7.571   9.230   5.884
 4568SOL    HW124923   7.501   9.179   5.933
 4568SOL    HW224924   7.600   9.309   5.939
 4569SOL     OW24925   1.706   0.356   2.472
 4569SOL    HW124926   1.611   0.359   2.441
 4569SOL    HW224927   1.758   0.427   2.425
 4570SOL     OW24928   9.014   7.353   2.253
 4570SOL    HW124929   8.962   7.375   2.170
 4570SOL    HW224930   9.073   7.430   2.277
 4571SOL     OW24931   0.846   5.366   6.140
 4571SOL    HW124932   0.765   5.425   6.137
 4571SOL    HW224933   0.925   5.416   6.105
 4572SOL     OW24934   2.364   8.726   0.823
 4572SOL    HW124935   2.316   8.803   0.865
 4572SOL    HW224936   2.302   8.647   0.816
 4573SOL     OW24937   2.946   1.990   1.793
 4573SOL    HW124938   2.880   2.012   1.721
 4573SOL    HW224939   3.037   1.980   1.752
 4574SOL     OW24940   4.629   6.480   1.182
 4574SOL    HW124941   4.552   6.417   1.187
 4574SOL    HW224942   4.664   6.496   1.274
 4575SOL     OW24943   2.135   1.863   0.842
 4575SOL    HW124944   2.169   1.774   0.874
 4575SOL    HW224945   2.111   1.919   0.922
 4576SOL     OW24946   0.731   4.047   1.180
 4576SOL    HW124947   0.819   4.012   1.149
 4576SOL    HW224948   0.728   4.047   1.280
 4577SOL     OW24949   4.489   0.205   3.429
 4577SOL    HW124950   4.537   0.160   3.504
 4577SOL    HW224951   4.425   0.273   3.466
 4578SOL     OW24952   1.798   1.570   0.176
 4578SOL    HW124953   1.845   1.483   0.158
 4578SOL    HW224954   1.833   1.609   0.261
 4579SOL     OW24955   1.794   3.094   3.403
 4579SOL    HW124956   1.743   3.050   3.476
 4579SOL    HW224957   1.779   3.193   3.407
 4580SOL     OW24958   2.030   9.415   0.097
 4580SOL    HW124959   2.087   9.472   0.156
 4580SOL    HW224960   2.085   9.343   0.055
 4581SOL     OW24961   0.729   7.498   5.418
 4581SOL    HW124962   0.822   7.530   5.397
 4581SOL    HW224963   0.705   7.423   5.357
 4582SOL     OW24964   1.218   2.033   3.859
 4582SOL    HW124965   1.281   2.084   3.801
 4582SOL    HW224966   1.185   1.952   3.810
 4583SOL     OW24967   2.541   4.203   2.958
 4583SOL    HW124968   2.472   4.265   2.995
 4583SOL    HW224969   2.551   4.220   2.860
 4584SOL     OW24970   0.498   3.356   0.566
 4584SOL    HW124971   0.440   3.275   0.580
 4584SOL    HW224972   0.541   3.351   0.476
 4585SOL     OW24973   8.374   6.023   3.468
 4585SOL    HW124974   8.381   6.119   3.494
 4585SOL    HW224975   8.409   6.012   3.375
 4586SOL     OW24976   0.484   2.094   2.675
 4586SOL    HW124977   0.388   2.109   2.700
 4586SOL    HW224978   0.540   2.094   2.757
 4587SOL     OW24979   4.239   1.853   6.000
 4587SOL    HW124980   4.164   1.793   6.027
 4587SOL    HW224981   4.244   1.931   6.063
 4588SOL     OW24982   4.487   5.326   4.192
 4588SOL    HW124983   4.468   5.238   4.149
 4588SOL    HW224984   4.416   5.392   4.167
 4589SOL     OW24985   0.870   3.935   0.488
 4589SOL    HW124986   0.802   3.862   0.481
 4589SOL    HW224987   0.961   3.893   0.496
 4590SOL     OW24988   0.487   5.724   6.294
 4590SOL    HW124989   0.504   5.807   6.348
 4590SOL    HW224990   0.441   5.656   6.351
 4591SOL     OW24991   3.440   0.118   1.755
 4591SOL    HW124992   3.441   0.080   1.663
 4591SOL    HW224993   3.525   0.168   1.771
 4592SOL     OW24994   0.557   0.316   5.582
 4592SOL    HW124995   0.491   0.369   5.635
 4592SOL    HW224996   0.520   0.225   5.564
 4593SOL     OW24997   3.648   1.666   3.572
 4593SOL    HW124998   3.593   1.743   3.538
 4593SOL    HW224999   3.736   1.700   3.604
 4594SOL     OW25000   3.462   8.808   6.267
 4594SOL    HW125001   3.487   8.739   6.199
 4594SOL    HW225002   3.398   8.769   6.333
 4595SOL     OW25003   3.749   9.463   0.059
 4595SOL    HW125004   3.803   9.451   8.164
 4595SOL    HW225005   3.672   9.524   0.040
 4596SOL     OW25006   6.507   7.410   5.099
 4596SOL    HW125007   6.599   7.389   5.065
 4596SOL    HW225008   6.512   7.432   5.196
 4597SOL     OW25009   5.621   8.407   5.028
 4597SOL    HW125010   5.717   8.403   5.003
 4597SOL    HW225011   5.596   8.324   5.077
 4598SOL     OW25012   2.098   8.146   0.693
 4598SOL    HW125013   2.076   8.053   0.723
 4598SOL    HW225014   2.196   8.161   0.701
 4599SOL     OW25015   0.257   6.050   6.317
 4599SOL    HW125016   0.250   6.149   6.314
 4599SOL    HW225017   0.166   6.010   6.326
 4600SOL     OW25018   0.763   2.430   1.565
 4600SOL    HW125019   0.774   2.462   1.659
 4600SOL    HW225020   0.841   2.373   1.540
 4601SOL     OW25021   3.018   0.290   3.478
 4601SOL    HW125022   3.016   0.322   3.573
 4601SOL    HW225023   2.938   0.233   3.461
 4602SOL     OW25024   8.606   5.120   2.193
 4602SOL    HW125025   8.528   5.092   2.249
 4602SOL    HW225026   8.684   5.060   2.212
 4603SOL     OW25027   9.509   9.696   0.698
 4603SOL    HW125028   9.601   9.734   0.696
 4603SOL    HW225029   9.483   9.675   0.792
 4604SOL     OW25030   9.612   0.476   1.356
 4604SOL    HW125031   9.565   0.388   1.355
 4604SOL    HW225032   9.606   0.518   1.265
 4605SOL     OW25033   2.166   2.822   2.812
 4605SOL    HW125034   2.131   2.787   2.899
 4605SOL    HW225035   2.251   2.872   2.828
 4606SOL     OW25036   4.924   0.037   6.243
 4606SOL    HW125037   4.959   9.952   6.203
 4606SOL    HW225038   4.913   0.025   6.342
 4607SOL     OW25039   8.847   0.881   4.330
 4607SOL    HW125040   8.891   0.794   4.351
 4607SOL    HW225041   8.831   0.888   4.232
 4608SOL     OW25042   8.180   2.761   2.244
 4608SOL    HW125043   8.144   2.671   2.269
 4608SOL    HW225044   8.104   2.821   2.216
 4609SOL     OW25045   0.460   5.715   0.158
 4609SOL    HW125046   0.397   5.639   0.146
 4609SOL    HW225047   0.428   5.793   0.104
 4610SOL     OW25048   7.017   8.192   4.192
 4610SOL    HW125049   7.041   8.170   4.286
 4610SOL    HW225050   6.920   8.217   4.187
 4611SOL     OW25051   7.669   0.465   5.687
 4611SOL    HW125052   7.744   0.416   5.733
 4611SOL    HW225053   7.700   0.557   5.663
 4612SOL     OW25054   8.197   8.600   1.060
 4612SOL    HW125055   8.286   8.580   1.102
 4612SOL    HW225056   8.205   8.595   0.960
 4613SOL     OW25057   1.529   4.355   3.977
 4613SOL    HW125058   1.621   4.393   3.985
 4613SOL    HW225059   1.468   4.401   4.042
 4614SOL     OW25060   0.726   4.991   5.966
 4614SOL    HW125061   0.655   4.951   6.024
 4614SOL    HW225062   0.815   4.980   6.009
 4615SOL     OW25063   8.033   6.411   1.083
 4615SOL    HW125064   8.007   6.382   0.991
 4615SOL    HW225065   8.033   6.511   1.089
 4616SOL     OW25066   9.402   1.879   2.857
 4616SOL    HW125067   9.445   1.862   2.946
 4616SOL    HW225068   9.473   1.890   2.787
 4617SOL     OW25069   3.813   2.211   2.805
 4617SOL    HW125070   3.772   2.279   2.744
 4617SOL    HW225071   3.871   2.149   2.751
 4618SOL     OW25072   9.412   0.189   5.133
 4618SOL    HW125073   9.496   0.209   5.183
 4618SOL    HW225074   9.333   0.218   5.187
 4619SOL     OW25075   4.648   9.945   2.186
 4619SOL    HW125076   4.713   9.921   2.259
 4619SOL    HW225077   4.682   9.911   2.098
 4620SOL     OW25078   3.411   4.790   3.411
 4620SOL    HW125079   3.369   4.749   3.492
 4620SOL    HW225080   3.480   4.727   3.374
 4621SOL     OW25081   2.883   5.526   2.236
 4621SOL    HW125082   2.801   5.502   2.185
 4621SOL    HW225083   2.859   5.538   2.333
 4622SOL     OW25084   1.135   0.477   5.139
 4622SOL    HW125085   1.227   0.474   5.101
 4622SOL    HW225086   1.078   0.409   5.091
 4623SOL     OW25087   6.795   9.605   2.313
 4623SOL    HW125088   6.887   9.606   2.274
 4623SOL    HW225089   6.792   9.665   2.393
 4624SOL     OW25090   3.016   1.095   5.444
 4624SOL    HW125091   3.066   1.071   5.361
 4624SOL    HW225092   3.080   1.107   5.519
 4625SOL     OW25093   6.377   9.485   5.883
 4625SOL    HW125094   6.419   9.409   5.932
 4625SOL    HW225095   6.386   9.568   5.938
 4626SOL     OW25096   7.984   3.829   3.794
 4626SOL    HW125097   8.058   3.843   3.728
 4626SOL    HW225098   7.950   3.735   3.787
 4627SOL     OW25099   2.560   6.848   4.615
 4627SOL    HW125100   2.510   6.924   4.655
 4627SOL    HW225101   2.501   6.800   4.549
 4628SOL     OW25102   1.349   4.466   5.835
 4628SOL    HW125103   1.436   4.488   5.880
 4628SOL    HW225104   1.282   4.439   5.904
 4629SOL     OW25105   3.668   5.017   3.452
 4629SOL    HW125106   3.737   5.018   3.380
 4629SOL    HW225107   3.658   4.924   3.487
 4630SOL     OW25108   4.367   0.199   2.152
 4630SOL    HW125109   4.356   0.110   2.196
 4630SOL    HW225110   4.463   0.226   2.154
 4631SOL     OW25111   8.267   4.959   0.449
 4631SOL    HW125112   8.281   4.872   0.497
 4631SOL    HW225113   8.301   5.034   0.506
 4632SOL     OW25114   2.729   7.093   6.034
 4632SOL    HW125115   2.825   7.111   6.012
 4632SOL    HW225116   2.714   6.994   6.039
 4633SOL     OW25117   3.192   9.273   3.295
 4633SOL    HW125118   3.108   9.229   3.263
 4633SOL    HW225119   3.202   9.362   3.250
 4634SOL     OW25120   7.698   6.926   3.900
 4634SOL    HW125121   7.786   6.892   3.866
 4634SOL    HW225122   7.624   6.883   3.849
 4635SOL     OW25123   2.268   0.463   5.300
 4635SOL    HW125124   2.300   0.556   5.318
 4635SOL    HW225125   2.279   0.443   5.202
 4636SOL     OW25126   8.743   7.879   1.940
 4636SOL    HW125127   8.778   7.951   2.000
 4636SOL    HW225128   8.672   7.917   1.880
 4637SOL     OW25129   0.954   7.476   4.769
 4637SOL    HW125130   0.956   7.450   4.865
 4637SOL    HW225131   0.868   7.522   4.748
 4638SOL     OW25132   7.859   5.925   2.339
 4638SOL    HW125133   7.830   6.001   2.281
 4638SOL    HW225134   7.944   5.886   2.303
 4639SOL     OW25135   9.113   3.736   0.177
 4639SOL    HW125136   9.204   3.760   0.144
 4639SOL    HW225137   9.046   3.800   0.140
 4640SOL     OW25138   9.330   5.404   1.880
 4640SOL    HW125139   9.338   5.381   1.977
 4640SOL    HW225140   9.238   5.440   1.863
 4641SOL     OW25141   0.417   0.765   2.840
 4641SOL    HW125142   0.334   0.807   2.805
 4641SOL    HW225143   0.398   0.721   2.928
 4642SOL     OW25144   0.292   1.280   0.751
 4642SOL    HW125145   0.311   1.245   0.842
 4642SOL    HW225146   0.193   1.276   0.733
 4643SOL     OW25147   3.444   0.385   1.945
 4643SOL    HW125148   3.525   0.345   1.901
 4643SOL    HW225149   3.472   0.464   2.000
 4644SOL     OW25150   5.961   8.991   2.258
 4644SOL    HW125151   6.042   9.049   2.268
 4644SOL    HW225152   5.905   9.024   2.183
 4645SOL     OW25153   8.582   3.262   5.096
 4645SOL    HW125154   8.660   3.319   5.069
 4645SOL    HW225155   8.498   3.315   5.087
 4646SOL     OW25156   8.002   5.439   4.795
 4646SOL    HW125157   8.090   5.487   4.797
 4646SOL    HW225158   8.011   5.351   4.842
 4647SOL     OW25159   5.612   0.330   4.790
 4647SOL    HW125160   5.628   0.387   4.870
 4647SOL    HW225161   5.629   0.234   4.813
 4648SOL     OW25162   4.934   5.418   1.489
 4648SOL    HW125163   4.843   5.459   1.484
 4648SOL    HW225164   4.987   5.462   1.562
 4649SOL     OW25165   4.764   4.957   3.629
 4649SOL    HW125166   4.824   5.016   3.682
 4649SOL    HW225167   4.672   4.959   3.666
 4650SOL     OW25168   8.920   5.780   2.918
 4650SOL    HW125169   8.882   5.730   2.996
 4650SOL    HW225170   9.020   5.785   2.927
 4651SOL     OW25171   6.368   8.057   4.131
 4651SOL    HW125172   6.387   8.122   4.057
 4651SOL    HW225173   6.281   8.080   4.174
 4652SOL     OW25174   7.192   0.643   0.372
 4652SOL    HW125175   7.291   0.647   0.380
 4652SOL    HW225176   7.153   0.735   0.383
 4653SOL     OW25177   2.890   2.225   4.898
 4653SOL    HW125178   2.818   2.277   4.944
 4653SOL    HW225179   2.888   2.244   4.800
 4654SOL     OW25180   7.708   7.490   2.813
 4654SOL    HW125181   7.644   7.557   2.852
 4654SOL    HW225182   7.799   7.503   2.853
 4655SOL     OW25183   1.145   1.119   5.561
 4655SOL    HW125184   1.207   1.192   5.590
 4655SOL    HW225185   1.133   1.054   5.636
 4656SOL     OW25186   7.669   4.332   5.170
 4656SOL    HW125187   7.573   4.355   5.190
 4656SOL    HW225188   7.727   4.410   5.191
 4657SOL     OW25189   0.795   1.114   5.086
 4657SOL    HW125190   0.798   1.057   5.168
 4657SOL    HW225191   0.735   1.192   5.102
 4658SOL     OW25192   9.171   4.068   1.436
 4658SOL    HW125193   9.193   4.160   1.403
 4658SOL    HW225194   9.145   4.073   1.533
 4659SOL     OW25195   0.373   9.422   0.390
 4659SOL    HW125196   0.363   9.422   0.490
 4659SOL    HW225197   0.300   9.368   0.349
 4660SOL     OW25198   8.295   8.298   0.188
 4660SOL    HW125199   8.305   8.262   0.281
 4660SOL    HW225200   8.361   8.372   0.174
 4661SOL     OW25201   9.324   6.823   5.169
 4661SOL    HW125202   9.392   6.769   5.218
 4661SOL    HW225203   9.253   6.762   5.132
 4662SOL     OW25204   2.664   2.198   4.117
 4662SOL    HW125205   2.621   2.122   4.166
 4662SOL    HW225206   2.732   2.162   4.053
 4663SOL     OW25207   0.717   0.653   1.285
 4663SOL    HW125208   0.627   0.694   1.273
 4663SOL    HW225209   0.762   0.642   1.196
 4664SOL     OW25210   6.122   9.958   2.564
 4664SOL    HW125211   6.040   0.013   2.581
 4664SOL    HW225212   6.203   0.011   2.588
 4665SOL     OW25213   0.180   1.741   0.769
 4665SOL    HW125214   0.114   1.666   0.774
 4665SOL    HW225215   0.174   1.797   0.851
 4666SOL     OW25216   2.245   9.603   5.855
 4666SOL    HW125217   2.329   9.648   5.887
 4666SOL    HW225218   2.265   9.509   5.830
 4667SOL     OW25219   3.641   7.608   4.496
 4667SOL    HW125220   3.724   7.663   4.508
 4667SOL    HW225221   3.655   7.542   4.422
 4668SOL     OW25222   3.596   4.656   0.306
 4668SOL    HW125223   3.652   4.577   0.280
 4668SOL    HW225224   3.511   4.623   0.348
 4669SOL     OW25225   0.578   5.096   2.489
 4669SOL    HW125226   0.528   5.019   2.449
 4669SOL    HW225227   0.613   5.154   2.416
 4670SOL     OW25228   0.031   2.721   4.395
 4670SOL    HW125229   9.967   2.796   4.377
 4670SOL    HW225230   0.012   2.645   4.334
 4671SOL     OW25231   9.119   8.017   0.333
 4671SOL    HW125232   9.108   8.104   0.381
 4671SOL    HW225233   9.216   7.991   0.334
 4672SOL     OW25234   8.076   2.121   0.814
 4672SOL    HW125235   8.137   2.079   0.881
 4672SOL    HW225236   8.114   2.110   0.722
 4673SOL     OW25237   2.953   1.339   0.226
 4673SOL    HW125238   3.043   1.374   0.203
 4673SOL    HW225239   2.905   1.405   0.284
 4674SOL     OW25240   3.873   7.752   3.722
 4674SOL    HW125241   3.955   7.798   3.758
 4674SOL    HW225242   3.887   7.653   3.727
 4675SOL     OW25243   1.213   4.797   1.063
 4675SOL    HW125244   1.290   4.845   1.104
 4675SOL    HW225245   1.242   4.704   1.037
 4676SOL     OW25246   8.907   9.069   3.532
 4676SOL    HW125247   8.889   9.157   3.487
 4676SOL    HW225248   8.943   9.004   3.466
 4677SOL     OW25249   3.262   0.531   4.474
 4677SOL    HW125250   3.190   0.465   4.453
 4677SOL    HW225251   3.295   0.573   4.389
 4678SOL     OW25252   3.817   0.829   5.632
 4678SOL    HW125253   3.752   0.877   5.573
 4678SOL    HW225254   3.877   0.772   5.577
 4679SOL     OW25255   4.096   3.863   4.545
 4679SOL    HW125256   4.170   3.887   4.608
 4679SOL    HW225257   4.016   3.835   4.598
 4680SOL     OW25258   2.418   7.125   0.321
 4680SOL    HW125259   2.383   7.195   0.259
 4680SOL    HW225260   2.350   7.053   0.332
 4681SOL     OW25261   0.964   6.573   0.316
 4681SOL    HW125262   0.944   6.511   0.241
 4681SOL    HW225263   0.923   6.537   0.401
 4682SOL     OW25264   4.849   9.019   0.013
 4682SOL    HW125265   4.850   9.053   8.107
 4682SOL    HW225266   4.886   8.926   0.014
 4683SOL     OW25267   8.395   3.541   4.872
 4683SOL    HW125268   8.486   3.534   4.833
 4683SOL    HW225269   8.389   3.485   4.955
 4684SOL     OW25270   3.588   3.761   0.162
 4684SOL    HW125271   3.613   3.799   0.251
 4684SOL    HW225272   3.492   3.733   0.164
 4685SOL     OW25273   4.727   1.401   3.658
 4685SOL    HW125274   4.803   1.461   3.633
 4685SOL    HW225275   4.731   1.382   3.756
 4686SOL     OW25276   1.204   2.818   3.954
 4686SOL    HW125277   1.229   2.731   3.911
 4686SOL    HW225278   1.111   2.843   3.927
 4687SOL     OW25279   2.325   1.649   5.690
 4687SOL    HW125280   2.263   1.588   5.641
 4687SOL    HW225281   2.412   1.653   5.642
 4688SOL     OW25282   0.195   1.877   0.531
 4688SOL    HW125283   0.164   1.809   0.464
 4688SOL    HW225284   0.183   1.841   0.623
 4689SOL     OW25285   1.774   1.058   1.745
 4689SOL    HW125286   1.736   0.966   1.746
 4689SOL    HW225287   1.744   1.106   1.662
 4690SOL     OW25288   9.673   0.389   2.828
 4690SOL    HW125289   9.771   0.371   2.817
 4690SOL    HW225290   9.657   0.438   2.913
 4691SOL     OW25291   3.657   0.079   5.232
 4691SOL    HW125292   3.698   0.033   5.153
 4691SOL    HW225293   3.633   0.010   5.301
 4692SOL     OW25294   1.548   9.684   1.736
 4692SOL    HW125295   1.534   9.669   1.834
 4692SOL    HW225296   1.606   9.764   1.722
 4693SOL     OW25297   7.746   7.417   4.725
 4693SOL    HW125298   7.783   7.508   4.743
 4693SOL    HW225299   7.676   7.423   4.654
 4694SOL     OW25300   5.806   7.544   3.557
 4694SOL    HW125301   5.761   7.596   3.629
 4694SOL    HW225302   5.848   7.608   3.492
 4695SOL     OW25303   0.773   7.366   1.878
 4695SOL    HW125304   0.838   7.405   1.812
 4695SOL    HW225305   0.821   7.341   1.961
 4696SOL     OW25306   8.810   5.190   1.059
 4696SOL    HW125307   8.752   5.183   1.140
 4696SOL    HW225308   8.809   5.103   1.010
 4697SOL     OW25309   5.290   4.801   1.041
 4697SOL    HW125310   5.361   4.801   0.970
 4697SOL    HW225311   5.333   4.804   1.131
 4698SOL     OW25312   2.979   2.868   0.308
 4698SOL    HW125313   2.971   2.813   0.391
 4698SOL    HW225314   3.019   2.957   0.330
 4699SOL     OW25315   9.743   8.363   0.042
 4699SOL    HW125316   9.720   8.338   8.136
 4699SOL    HW225317   9.836   8.333   0.062
 4700SOL     OW25318   4.769   0.602   5.566
 4700SOL    HW125319   4.868   0.611   5.565
 4700SOL    HW225320   4.736   0.602   5.660
 4701SOL     OW25321   4.142   4.664   1.244
 4701SOL    HW125322   4.098   4.592   1.298
 4701SOL    HW225323   4.208   4.713   1.300
 4702SOL     OW25324   8.199   4.544   0.086
 4702SOL    HW125325   8.265   4.597   0.139
 4702SOL    HW225326   8.107   4.557   0.123
 4703SOL     OW25327   4.243   3.700   4.375
 4703SOL    HW125328   4.209   3.711   4.282
 4703SOL    HW225329   4.189   3.756   4.437
 4704SOL     OW25330   5.604   5.968   1.817
 4704SOL    HW125331   5.701   5.967   1.794
 4704SOL    HW225332   5.592   5.965   1.916
 4705SOL     OW25333   5.828   7.389   6.117
 4705SOL    HW125334   5.749   7.360   6.063
 4705SOL    HW225335   5.911   7.347   6.079
 4706SOL     OW25336   8.634   2.326   0.637
 4706SOL    HW125337   8.703   2.260   0.605
 4706SOL    HW225338   8.666   2.368   0.722
 4707SOL     OW25339   9.255   1.653   6.348
 4707SOL    HW125340   9.271   1.651   6.447
 4707SOL    HW225341   9.191   1.580   6.323
 4708SOL     OW25342   8.866   6.758   3.864
 4708SOL    HW125343   8.938   6.720   3.806
 4708SOL    HW225344   8.777   6.722   3.834
 4709SOL     OW25345   3.865   2.902   5.740
 4709SOL    HW125346   3.938   2.968   5.762
 4709SOL    HW225347   3.891   2.851   5.658
 4710SOL     OW25348   1.375   6.993   2.381
 4710SOL    HW125349   1.382   6.948   2.292
 4710SOL    HW225350   1.438   7.070   2.384
 4711SOL     OW25351   2.566   5.866   1.574
 4711SOL    HW125352   2.511   5.784   1.560
 4711SOL    HW225353   2.662   5.847   1.553
 4712SOL     OW25354   2.398   8.256   3.914
 4712SOL    HW125355   2.481   8.289   3.959
 4712SOL    HW225356   2.317   8.290   3.963
 4713SOL     OW25357   9.811   7.449   1.047
 4713SOL    HW125358   9.715   7.435   1.024
 4713SOL    HW225359   9.818   7.476   1.143
 4714SOL     OW25360   3.267   1.001   2.395
 4714SOL    HW125361   3.287   1.094   2.425
 4714SOL    HW225362   3.207   0.957   2.461
 4715SOL     OW25363   4.484   6.179   2.434
 4715SOL    HW125364   4.555   6.123   2.391
 4715SOL    HW225365   4.396   6.161   2.391
 4716SOL     OW25366   3.274   1.200   1.573
 4716SOL    HW125367   3.181   1.164   1.565
 4716SOL    HW225368   3.334   1.151   1.509
 4717SOL     OW25369   3.927   6.045   1.406
 4717SOL    HW125370   3.846   6.102   1.389
 4717SOL    HW225371   3.952   5.997   1.322
 4718SOL     OW25372   0.482   6.819   2.498
 4718SOL    HW125373   0.577   6.789   2.493
 4718SOL    HW225374   0.445   6.829   2.406
 4719SOL     OW25375   7.327   1.772   4.966
 4719SOL    HW125376   7.241   1.823   4.968
 4719SOL    HW225377   7.404   1.835   4.957
 4720SOL     OW25378   7.567   3.654   0.959
 4720SOL    HW125379   7.587   3.615   1.049
 4720SOL    HW225380   7.596   3.590   0.888
 4721SOL     OW25381   7.744   2.996   0.819
 4721SOL    HW125382   7.779   3.063   0.885
 4721SOL    HW225383   7.688   2.928   0.866
 4722SOL     OW25384   2.080   4.702   4.011
 4722SOL    HW125385   2.015   4.667   4.079
 4722SOL    HW225386   2.042   4.784   3.969
 4723SOL     OW25387   4.256   1.410   3.628
 4723SOL    HW125388   4.238   1.325   3.579
 4723SOL    HW225389   4.234   1.398   3.725
 4724SOL     OW25390   3.053   2.748   3.822
 4724SOL    HW125391   3.147   2.717   3.817
 4724SOL    HW225392   3.009   2.735   3.733
 4725SOL     OW25393   1.627   4.682   4.479
 4725SOL    HW125394   1.556   4.732   4.429
 4725SOL    HW225395   1.715   4.695   4.434
 4726SOL     OW25396   2.365   2.397   2.575
 4726SOL    HW125397   2.378   2.414   2.477
 4726SOL    HW225398   2.446   2.427   2.625
 4727SOL     OW25399   8.855   1.655   0.261
 4727SOL    HW125400   8.886   1.705   0.180
 4727SOL    HW225401   8.818   1.566   0.233
 4728SOL     OW25402   7.619   4.388   1.221
 4728SOL    HW125403   7.571   4.309   1.258
 4728SOL    HW225404   7.568   4.424   1.142
 4729SOL     OW25405   6.270   8.552   6.094
 4729SOL    HW125406   6.272   8.563   5.995
 4729SOL    HW225407   6.224   8.630   6.136
 4730SOL     OW25408   3.145   7.006   2.497
 4730SOL    HW125409   3.179   6.923   2.453
 4730SOL    HW225410   3.117   7.072   2.426
 4731SOL     OW25411   9.567   6.833   6.190
 4731SOL    HW125412   9.571   6.784   6.277
 4731SOL    HW225413   9.651   6.815   6.139
 4732SOL     OW25414   7.917   9.354   5.276
 4732SOL    HW125415   8.006   9.393   5.300
 4732SOL    HW225416   7.912   9.341   5.177
 4733SOL     OW25417   3.478   1.923   1.081
 4733SOL    HW125418   3.399   1.934   1.141
 4733SOL    HW225419   3.487   2.003   1.022
 4734SOL     OW25420   8.288   0.331   3.940
 4734SOL    HW125421   8.263   0.410   3.884
 4734SOL    HW225422   8.276   0.353   4.036
 4735SOL     OW25423   4.070   1.598   3.000
 4735SOL    HW125424   3.980   1.583   3.040
 4735SOL    HW225425   4.107   1.511   2.967
 4736SOL     OW25426   8.949   6.602   6.207
 4736SOL    HW125427   8.953   6.566   6.114
 4736SOL    HW225428   9.038   6.592   6.251
 4737SOL     OW25429   8.568   4.548   3.299
 4737SOL    HW125430   8.483   4.560   3.249
 4737SOL    HW225431   8.589   4.632   3.350
 4738SOL     OW25432   3.305   2.651   3.802
 4738SOL    HW125433   3.341   2.591   3.873
 4738SOL    HW225434   3.375   2.667   3.733
 4739SOL     OW25435   9.965   4.704   0.764
 4739SOL    HW125436   9.886   4.683   0.705
 4739SOL    HW225437   0.047   4.661   0.726
 4740SOL     OW25438   4.393   4.406   0.478
 4740SOL    HW125439   4.395   4.314   0.439
 4740SOL    HW225440   4.442   4.406   0.566
 4741SOL     OW25441   3.170   6.851   0.376
 4741SOL    HW125442   3.120   6.878   0.294
 4741SOL    HW225443   3.161   6.752   0.390
 4742SOL     OW25444   8.849   1.213   1.111
 4742SOL    HW125445   8.893   1.147   1.049
 4742SOL    HW225446   8.875   1.306   1.086
 4743SOL     OW25447   9.962   1.963   1.882
 4743SOL    HW125448   0.026   2.039   1.878
 4743SOL    HW225449   0.009   1.878   1.857
 4744SOL     OW25450   3.584   0.842   1.308
 4744SOL    HW125451   3.680   0.838   1.281
 4744SOL    HW225452   3.546   0.749   1.308
 4745SOL     OW25453   0.202   7.944   2.339
 4745SOL    HW125454   0.227   7.988   2.425
 4745SOL    HW225455   0.110   7.971   2.313
 4746SOL     OW25456   1.300   0.243   3.129
 4746SOL    HW125457   1.295   0.180   3.051
 4746SOL    HW225458   1.286   0.192   3.214
 4747SOL     OW25459   9.928   1.978   4.165
 4747SOL    HW125460   0.022   1.977   4.131
 4747SOL    HW225461   9.895   1.884   4.174
 4748SOL     OW25462   2.378   9.580   2.818
 4748SOL    HW125463   2.305   9.562   2.883
 4748SOL    HW225464   2.342   9.578   2.725
 4749SOL     OW25465   7.388   3.565   0.666
 4749SOL    HW125466   7.439   3.636   0.618
 4749SOL    HW225467   7.451   3.509   0.720
 4750SOL     OW25468   7.206   9.011   2.382
 4750SOL    HW125469   7.117   9.055   2.368
 4750SOL    HW225470   7.215   8.935   2.318
 4751SOL     OW25471   9.436   1.562   6.159
 4751SOL    HW125472   9.369   1.598   6.224
 4751SOL    HW225473   9.528   1.586   6.189
 4752SOL     OW25474   2.257   6.002   2.420
 4752SOL    HW125475   2.187   5.969   2.483
 4752SOL    HW225476   2.243   6.100   2.404
 4753SOL     OW25477   1.532   1.033   0.922
 4753SOL    HW125478   1.623   1.030   0.881
 4753SOL    HW225479   1.529   1.105   0.991
 4754SOL     OW25480   1.319   6.635   5.975
 4754SOL    HW125481   1.326   6.727   5.936
 4754SOL    HW225482   1.379   6.629   6.055
 4755SOL     OW25483   0.814   5.721   5.893
 4755SOL    HW125484   0.774   5.631   5.876
 4755SOL    HW225485   0.911   5.719   5.870
 4756SOL     OW25486   8.519   2.540   1.022
 4756SOL    HW125487   8.557   2.630   1.001
 4756SOL    HW225488   8.502   2.533   1.120
 4757SOL     OW25489   7.959   4.132   5.850
 4757SOL    HW125490   7.898   4.082   5.788
 4757SOL    HW225491   7.944   4.102   5.944
 4758SOL     OW25492   3.594   6.659   6.302
 4758SOL    HW125493   3.501   6.636   6.272
 4758SOL    HW225494   3.652   6.578   6.298
 4759SOL     OW25495   2.658   3.636   1.911
 4759SOL    HW125496   2.592   3.707   1.886
 4759SOL    HW225497   2.741   3.648   1.856
 4760SOL     OW25498   1.085   4.822   0.431
 4760SOL    HW125499   1.034   4.769   0.364
 4760SOL    HW225500   1.052   4.800   0.523
 4761SOL     OW25501   6.281   1.871   4.312
 4761SOL    HW125502   6.335   1.803   4.263
 4761SOL    HW225503   6.330   1.959   4.312
 4762SOL     OW25504   1.593   6.963   0.069
 4762SOL    HW125505   1.691   6.987   0.070
 4762SOL    HW225506   1.573   6.905   8.179
 4763SOL     OW25507   8.527   5.333   1.807
 4763SOL    HW125508   8.472   5.413   1.782
 4763SOL    HW225509   8.481   5.250   1.775
 4764SOL     OW25510   0.714   0.550   4.550
 4764SOL    HW125511   0.805   0.575   4.583
 4764SOL    HW225512   0.688   0.462   4.591
 4765SOL     OW25513   4.004   2.739   4.906
 4765SOL    HW125514   3.954   2.773   4.985
 4765SOL    HW225515   4.027   2.643   4.919
 4766SOL     OW25516   7.193   0.008   1.440
 4766SOL    HW125517   7.173   9.945   1.515
 4766SOL    HW225518   7.183   0.102   1.472
 4767SOL     OW25519   0.979   8.686   5.384
 4767SOL    HW125520   0.976   8.700   5.483
 4767SOL    HW225521   0.929   8.603   5.361
 4768SOL     OW25522   9.959   1.755   5.903
 4768SOL    HW125523   9.866   1.781   5.929
 4768SOL    HW225524   0.000   1.702   5.977
 4769SOL     OW25525   8.270   7.113   4.552
 4769SOL    HW125526   8.233   7.049   4.485
 4769SOL    HW225527   8.216   7.197   4.552
 4770SOL     OW25528   0.272   9.789   3.149
 4770SOL    HW125529   0.293   9.767   3.054
 4770SOL    HW225530   0.347   9.760   3.208
 4771SOL     OW25531   4.944   7.621   3.612
 4771SOL    HW125532   4.983   7.630   3.704
 4771SOL    HW225533   4.855   7.664   3.609
 4772SOL     OW25534   9.949   1.502   5.125
 4772SOL    HW125535   9.913   1.432   5.064
 4772SOL    HW225536   0.048   1.495   5.131
 4773SOL     OW25537   6.205   7.541   5.225
 4773SOL    HW125538   6.125   7.599   5.242
 4773SOL    HW225539   6.288   7.595   5.239
 4774SOL     OW25540   6.935   1.686   0.983
 4774SOL    HW125541   6.921   1.628   0.902
 4774SOL    HW225542   7.011   1.749   0.966
 4775SOL     OW25543   0.327   5.680   0.882
 4775SOL    HW125544   0.281   5.742   0.818
 4775SOL    HW225545   0.271   5.599   0.897
 4776SOL     OW25546   3.854   2.786   0.760
 4776SOL    HW125547   3.867   2.699   0.806
 4776SOL    HW225548   3.944   2.829   0.743
 4777SOL     OW25549   0.126   5.280   4.669
 4777SOL    HW125550   0.052   5.317   4.725
 4777SOL    HW225551   0.180   5.356   4.631
 4778SOL     OW25552   8.443   4.462   1.617
 4778SOL    HW125553   8.509   4.536   1.629
 4778SOL    HW225554   8.468   4.384   1.674
 4779SOL     OW25555   2.705   8.758   2.948
 4779SOL    HW125556   2.744   8.693   2.883
 4779SOL    HW225557   2.742   8.739   3.039
 4780SOL     OW25558   8.144   6.505   1.786
 4780SOL    HW125559   8.172   6.414   1.816
 4780SOL    HW225560   8.162   6.515   1.688
 4781SOL     OW25561   4.694   4.498   1.485
 4781SOL    HW125562   4.723   4.437   1.411
 4781SOL    HW225563   4.774   4.532   1.534
 4782SOL     OW25564   8.230   6.990   3.464
 4782SOL    HW125565   8.265   6.977   3.371
 4782SOL    HW225566   8.241   7.086   3.490
 4783SOL     OW25567   4.691   0.947   5.242
 4783SOL    HW125568   4.609   0.899   5.273
 4783SOL    HW225569   4.665   1.020   5.178
 4784SOL     OW25570   3.831   0.893   0.362
 4784SOL    HW125571   3.817   0.982   0.405
 4784SOL    HW225572   3.812   0.900   0.264
 4785SOL     OW25573   0.496   6.781   6.109
 4785SOL    HW125574   0.512   6.683   6.101
 4785SOL    HW225575   0.562   6.820   6.173
 4786SOL     OW25576   3.066   3.297   5.281
 4786SOL    HW125577   3.016   3.214   5.259
 4786SOL    HW225578   3.155   3.273   5.320
 4787SOL     OW25579   2.072   5.249   5.204
 4787SOL    HW125580   2.035   5.292   5.286
 4787SOL    HW225581   2.099   5.155   5.225
 4788SOL     OW25582   1.052   9.944   0.162
 4788SOL    HW125583   0.959   9.979   0.176
 4788SOL    HW225584   1.047   9.850   0.126
 4789SOL     OW25585   3.834   4.612   6.378
 4789SOL    HW125586   3.750   4.627   6.430
 4789SOL    HW225587   3.829   4.659   6.290
 4790SOL     OW25588   5.074   8.085   5.778
 4790SOL    HW125589   5.076   8.011   5.845
 4790SOL    HW225590   5.009   8.155   5.807
 4791SOL     OW25591   3.681   8.279   2.332
 4791SOL    HW125592   3.642   8.190   2.308
 4791SOL    HW225593   3.742   8.310   2.259
 4792SOL     OW25594   8.693   5.970   3.282
 4792SOL    HW125595   8.613   5.993   3.226
 4792SOL    HW225596   8.694   6.027   3.363
 4793SOL     OW25597   3.299   5.977   0.270
 4793SOL    HW125598   3.296   5.905   0.339
 4793SOL    HW225599   3.367   5.954   0.200
 4794SOL     OW25600   0.081   0.583   4.787
 4794SOL    HW125601   0.172   0.611   4.815
 4794SOL    HW225602   0.029   0.664   4.757
 4795SOL     OW25603   9.006   3.764   1.920
 4795SOL    HW125604   8.997   3.746   1.822
 4795SOL    HW225605   9.098   3.800   1.939
 4796SOL     OW25606   5.063   1.265   3.913
 4796SOL    HW125607   5.110   1.334   3.859
 4796SOL    HW225608   5.122   1.185   3.924
 4797SOL     OW25609   2.947   6.108   2.502
 4797SOL    HW125610   2.923   6.193   2.455
 4797SOL    HW225611   2.956   6.126   2.600
 4798SOL     OW25612   2.472   2.652   4.801
 4798SOL    HW125613   2.437   2.681   4.712
 4798SOL    HW225614   2.565   2.686   4.813
 4799SOL     OW25615   5.565   8.188   5.183
 4799SOL    HW125616   5.563   8.250   5.261
 4799SOL    HW225617   5.483   8.130   5.185
 4800SOL     OW25618   1.421   2.548   3.440
 4800SOL    HW125619   1.334   2.585   3.409
 4800SOL    HW225620   1.484   2.623   3.460
 4801SOL     OW25621   1.852   7.768   1.990
 4801SOL    HW125622   1.763   7.722   1.992
 4801SOL    HW225623   1.919   7.712   2.039
 4802SOL     OW25624   4.018   2.063   1.409
 4802SOL    HW125625   3.936   2.078   1.354
 4802SOL    HW225626   3.998   1.994   1.479
 4803SOL     OW25627   2.583   7.757   0.365
 4803SOL    HW125628   2.524   7.817   0.311
 4803SOL    HW225629   2.528   7.707   0.432
 4804SOL     OW25630   9.413   2.674   5.753
 4804SOL    HW125631   9.429   2.682   5.852
 4804SOL    HW225632   9.470   2.602   5.715
 4805SOL     OW25633   2.316   2.353   3.022
 4805SOL    HW125634   2.313   2.253   3.023
 4805SOL    HW225635   2.279   2.387   2.936
 4806SOL     OW25636   2.181   6.787   0.115
 4806SOL    HW125637   2.229   6.818   0.198
 4806SOL    HW225638   2.241   6.800   0.036
 4807SOL     OW25639   0.632   4.326   4.460
 4807SOL    HW125640   0.590   4.413   4.432
 4807SOL    HW225641   0.723   4.319   4.419
 4808SOL     OW25642   6.862   7.731   5.619
 4808SOL    HW125643   6.926   7.768   5.686
 4808SOL    HW225644   6.782   7.694   5.666
 4809SOL     OW25645   7.652   7.152   4.037
 4809SOL    HW125646   7.678   7.071   3.984
 4809SOL    HW225647   7.572   7.195   3.995
 4810SOL     OW25648   8.476   4.245   6.141
 4810SOL    HW125649   8.438   4.176   6.202
 4810SOL    HW225650   8.471   4.335   6.184
 4811SOL     OW25651   2.832   5.909   3.068
 4811SOL    HW125652   2.845   5.982   3.136
 4811SOL    HW225653   2.907   5.911   3.002
 4812SOL     OW25654   9.350   9.532   0.545
 4812SOL    HW125655   9.311   9.456   0.597
 4812SOL    HW225656   9.394   9.597   0.607
 4813SOL     OW25657   7.902   5.024   6.190
 4813SOL    HW125658   7.944   4.937   6.217
 4813SOL    HW225659   7.834   5.007   6.119
 4814SOL     OW25660   3.063   6.133   3.968
 4814SOL    HW125661   3.002   6.090   4.035
 4814SOL    HW225662   3.137   6.180   4.015
 4815SOL     OW25663   6.129   0.368   6.076
 4815SOL    HW125664   6.105   0.459   6.044
 4815SOL    HW225665   6.203   0.375   6.144
 4816SOL     OW25666   5.468   1.186   2.391
 4816SOL    HW125667   5.451   1.193   2.293
 4816SOL    HW225668   5.524   1.104   2.409
 4817SOL     OW25669   6.865   6.974   5.316
 4817SOL    HW125670   6.775   6.937   5.296
 4817SOL    HW225671   6.908   6.920   5.389
 4818SOL     OW25672   0.733   0.999   0.269
 4818SOL    HW125673   0.743   0.936   0.192
 4818SOL    HW225674   0.680   0.955   0.342
 4819SOL     OW25675   0.280   5.996   2.414
 4819SOL    HW125676   0.223   5.969   2.336
 4819SOL    HW225677   0.242   6.078   2.456
 4820SOL     OW25678   4.479   3.465   0.276
 4820SOL    HW125679   4.431   3.537   0.226
 4820SOL    HW225680   4.462   3.475   0.374
 4821SOL     OW25681   0.351   3.126   0.610
 4821SOL    HW125682   0.426   3.060   0.610
 4821SOL    HW225683   0.295   3.113   0.692
 4822SOL     OW25684   1.811   2.071   4.287
 4822SOL    HW125685   1.889   2.008   4.296
 4822SOL    HW225686   1.830   2.155   4.337
 4823SOL     OW25687   2.163   0.414   0.146
 4823SOL    HW125688   2.106   0.332   0.149
 4823SOL    HW225689   2.113   0.492   0.182
 4824SOL     OW25690   6.949   0.300   2.037
 4824SOL    HW125691   6.870   0.361   2.028
 4824SOL    HW225692   7.019   0.345   2.094
 4825SOL     OW25693   8.026   5.800   5.593
 4825SOL    HW125694   8.088   5.878   5.601
 4825SOL    HW225695   7.977   5.787   5.680
 4826SOL     OW25696   9.908   2.209   5.268
 4826SOL    HW125697   9.892   2.145   5.342
 4826SOL    HW225698   9.895   2.163   5.180
 4827SOL     OW25699   1.728   6.288   1.569
 4827SOL    HW125700   1.788   6.221   1.524
 4827SOL    HW225701   1.633   6.261   1.558
 4828SOL     OW25702   9.649   9.512   5.195
 4828SOL    HW125703   9.554   9.520   5.224
 4828SOL    HW225704   9.703   9.587   5.233
 4829SOL     OW25705   4.813   6.131   2.695
 4829SOL    HW125706   4.714   6.128   2.706
 4829SOL    HW225707   4.857   6.109   2.783
 4830SOL     OW25708   6.533   3.915   0.775
 4830SOL    HW125709   6.484   3.993   0.815
 4830SOL    HW225710   6.576   3.861   0.847
 4831SOL     OW25711   2.417   0.617   1.276
 4831SOL    HW125712   2.497   0.671   1.248
 4831SOL    HW225713   2.430   0.586   1.371
 4832SOL     OW25714   0.499   5.971   6.422
 4832SOL    HW125715   0.510   6.011   6.513
 4832SOL    HW225716   0.412   6.002   6.382
 4833SOL     OW25717   0.669   8.252   4.525
 4833SOL    HW125718   0.656   8.193   4.605
 4833SOL    HW225719   0.633   8.206   4.444
 4834SOL     OW25720   5.986   1.081   5.117
 4834SOL    HW125721   6.000   1.097   5.020
 4834SOL    HW225722   5.926   1.152   5.154
 4835SOL     OW25723   3.857   1.169   4.476
 4835SOL    HW125724   3.956   1.179   4.484
 4835SOL    HW225725   3.828   1.083   4.519
 4836SOL     OW25726   2.137   0.969   2.925
 4836SOL    HW125727   2.068   0.896   2.920
 4836SOL    HW225728   2.152   1.007   2.834
 4837SOL     OW25729   6.866   0.354   6.015
 4837SOL    HW125730   6.956   0.325   5.983
 4837SOL    HW225731   6.839   0.298   6.093
 4838SOL     OW25732   7.519   0.697   2.074
 4838SOL    HW125733   7.531   0.773   2.010
 4838SOL    HW225734   7.430   0.654   2.058
 4839SOL     OW25735   9.565   4.014   6.239
 4839SOL    HW125736   9.516   4.080   6.182
 4839SOL    HW225737   9.640   4.060   6.286
 4840SOL     OW25738   0.859   5.160   4.115
 4840SOL    HW125739   0.951   5.177   4.078
 4840SOL    HW225740   0.859   5.179   4.213
 4841SOL     OW25741   9.930   2.361   2.101
 4841SOL    HW125742   0.022   2.325   2.117
 4841SOL    HW225743   9.898   2.332   2.011
 4842SOL     OW25744   0.853   3.484   0.533
 4842SOL    HW125745   0.807   3.407   0.577
 4842SOL    HW225746   0.948   3.459   0.514
 4843SOL     OW25747   0.797   3.670   1.985
 4843SOL    HW125748   0.706   3.711   1.980
 4843SOL    HW225749   0.853   3.719   2.052
 4844SOL     OW25750   7.550   1.036   1.138
 4844SOL    HW125751   7.556   1.030   1.238
 4844SOL    HW225752   7.624   0.981   1.097
 4845SOL     OW25753   2.532   1.742   0.203
 4845SOL    HW125754   2.552   1.687   0.284
 4845SOL    HW225755   2.563   1.693   0.122
 4846SOL     OW25756   3.436   9.236   4.237
 4846SOL    HW125757   3.527   9.206   4.207
 4846SOL    HW225758   3.433   9.238   4.337
 4847SOL     OW25759   7.918   2.941   0.406
 4847SOL    HW125760   7.842   2.994   0.369
 4847SOL    HW225761   7.889   2.846   0.418
 4848SOL     OW25762   5.021   1.303   2.887
 4848SOL    HW125763   5.036   1.371   2.815
 4848SOL    HW225764   4.960   1.232   2.854
 4849SOL     OW25765   1.284   2.571   4.313
 4849SOL    HW125766   1.263   2.663   4.280
 4849SOL    HW225767   1.349   2.577   4.388
 4850SOL     OW25768   9.159   7.600   4.591
 4850SOL    HW125769   9.241   7.572   4.541
 4850SOL    HW225770   9.141   7.697   4.574
 4851SOL     OW25771   0.824   9.501   4.107
 4851SOL    HW125772   0.897   9.476   4.172
 4851SOL    HW225773   0.735   9.477   4.146
 4852SOL     OW25774   4.497   4.178   3.518
 4852SOL    HW125775   4.490   4.107   3.448
 4852SOL    HW225776   4.410   4.227   3.525
 4853SOL     OW25777   0.041   8.127   4.815
 4853SOL    HW125778   0.079   8.098   4.902
 4853SOL    HW225779   0.115   8.142   4.749
 4854SOL     OW25780   7.670   3.154   3.195
 4854SOL    HW125781   7.621   3.226   3.146
 4854SOL    HW225782   7.606   3.103   3.252
 4855SOL     OW25783   3.330   5.509   5.026
 4855SOL    HW125784   3.252   5.536   4.970
 4855SOL    HW225785   3.404   5.576   5.015
 4856SOL     OW25786   9.265   7.989   5.136
 4856SOL    HW125787   9.273   7.893   5.162
 4856SOL    HW225788   9.283   7.999   5.038
 4857SOL     OW25789   3.409   0.055   3.412
 4857SOL    HW125790   3.349   9.993   3.463
 4857SOL    HW225791   3.354   0.128   3.371
 4858SOL     OW25792   5.051   0.599   5.549
 4858SOL    HW125793   5.057   0.548   5.463
 4858SOL    HW225794   5.116   0.560   5.615
 4859SOL     OW25795   2.536   4.134   6.279
 4859SOL    HW125796   2.481   4.051   6.271
 4859SOL    HW225797   2.624   4.113   6.320
 4860SOL     OW25798   8.852   7.667   3.327
 4860SOL    HW125799   8.834   7.580   3.373
 4860SOL    HW225800   8.950   7.687   3.329
 4861SOL     OW25801   7.741   7.187   6.102
 4861SOL    HW125802   7.659   7.144   6.064
 4861SOL    HW225803   7.731   7.196   6.201
 4862SOL     OW25804   6.272   2.390   0.363
 4862SOL    HW125805   6.183   2.381   0.407
 4862SOL    HW225806   6.266   2.358   0.268
 4863SOL     OW25807   9.711   6.037   1.867
 4863SOL    HW125808   9.674   5.956   1.913
 4863SOL    HW225809   9.666   6.050   1.779
 4864SOL     OW25810   1.578   0.374   5.625
 4864SOL    HW125811   1.622   0.293   5.585
 4864SOL    HW225812   1.523   0.420   5.555
 4865SOL     OW25813   1.701   1.875   5.743
 4865SOL    HW125814   1.642   1.887   5.823
 4865SOL    HW225815   1.753   1.790   5.753
 4866SOL     OW25816   8.211   3.136   5.221
 4866SOL    HW125817   8.167   3.193   5.151
 4866SOL    HW225818   8.164   3.148   5.308
 4867SOL     OW25819   6.179   5.842   0.242
 4867SOL    HW125820   6.163   5.847   0.340
 4867SOL    HW225821   6.134   5.919   0.197
 4868SOL     OW25822   1.286   6.998   5.672
 4868SOL    HW125823   1.310   6.953   5.758
 4868SOL    HW225824   1.338   6.957   5.597
 4869SOL     OW25825   9.697   4.353   1.330
 4869SOL    HW125826   9.628   4.412   1.288
 4869SOL    HW225827   9.698   4.265   1.282
 4870SOL     OW25828   0.214   5.783   2.579
 4870SOL    HW125829   0.244   5.861   2.525
 4870SOL    HW225830   0.254   5.699   2.542
 4871SOL     OW25831   4.060   2.710   1.208
 4871SOL    HW125832   4.100   2.759   1.131
 4871SOL    HW225833   4.127   2.644   1.243
 4872SOL     OW25834   5.206   7.897   6.209
 4872SOL    HW125835   5.145   7.976   6.217
 4872SOL    HW225836   5.152   7.813   6.208
 4873SOL     OW25837   5.196   9.085   1.650
 4873SOL    HW125838   5.292   9.058   1.660
 4873SOL    HW225839   5.188   9.151   1.575
 4874SOL     OW25840   4.215   9.498   1.960
 4874SOL    HW125841   4.118   9.480   1.942
 4874SOL    HW225842   4.232   9.496   2.058
 4875SOL     OW25843   7.646   8.547   5.266
 4875SOL    HW125844   7.650   8.569   5.169
 4875SOL    HW225845   7.694   8.460   5.283
 4876SOL     OW25846   9.511   8.338   4.055
 4876SOL    HW125847   9.535   8.416   4.113
 4876SOL    HW225848   9.430   8.360   4.002
 4877SOL     OW25849   0.767   3.180   5.290
 4877SOL    HW125850   0.831   3.120   5.241
 4877SOL    HW225851   0.684   3.193   5.236
 4878SOL     OW25852   1.204   0.460   2.769
 4878SOL    HW125853   1.277   0.407   2.724
 4878SOL    HW225854   1.116   0.418   2.748
 4879SOL     OW25855   9.918   5.123   4.901
 4879SOL    HW125856   9.912   5.220   4.880
 4879SOL    HW225857   0.011   5.091   4.887
 4880SOL     OW25858   6.739   2.068   5.508
 4880SOL    HW125859   6.671   2.075   5.435
 4880SOL    HW225860   6.700   2.021   5.587
 4881SOL     OW25861   4.332   3.826   1.655
 4881SOL    HW125862   4.417   3.875   1.638
 4881SOL    HW225863   4.320   3.812   1.753
 4882SOL     OW25864   0.199   9.745   0.516
 4882SOL    HW125865   0.151   9.681   0.457
 4882SOL    HW225866   0.194   9.714   0.611
 4883SOL     OW25867   1.427   7.191   1.220
 4883SOL    HW125868   1.404   7.131   1.297
 4883SOL    HW225869   1.478   7.270   1.254
 4884SOL     OW25870   0.981   4.044   1.950
 4884SOL    HW125871   1.026   4.133   1.958
 4884SOL    HW225872   0.883   4.055   1.967
 4885SOL     OW25873   4.635   0.574   5.807
 4885SOL    HW125874   4.577   0.505   5.764
 4885SOL    HW225875   4.580   0.628   5.871
 4886SOL     OW25876   9.780   6.280   2.697
 4886SOL    HW125877   9.752   6.194   2.741
 4886SOL    HW225878   9.760   6.357   2.758
 4887SOL     OW25879   4.965   5.530   2.493
 4887SOL    HW125880   4.914   5.607   2.530
 4887SOL    HW225881   4.943   5.519   2.396
 4888SOL     OW25882   2.564   0.103   2.758
 4888SOL    HW125883   2.566   0.200   2.780
 4888SOL    HW225884   2.655   0.073   2.728
 4889SOL     OW25885   0.775   8.566   5.058
 4889SOL    HW125886   0.713   8.543   4.982
 4889SOL    HW225887   0.738   8.642   5.110
 4890SOL     OW25888   1.765   7.878   1.162
 4890SOL    HW125889   1.824   7.946   1.206
 4890SOL    HW225890   1.715   7.828   1.232
 4891SOL     OW25891   0.383   1.148   2.804
 4891SOL    HW125892   0.415   1.233   2.847
 4891SOL    HW225893   0.298   1.118   2.848
 4892SOL     OW25894   9.906   6.398   3.803
 4892SOL    HW125895   9.946   6.344   3.729
 4892SOL    HW225896   9.816   6.432   3.775
 4893SOL     OW25897   8.710   6.095   0.282
 4893SOL    HW125898   8.783   6.053   0.337
 4893SOL    HW225899   8.621   6.068   0.320
 4894SOL     OW25900   8.580   3.570   3.159
 4894SOL    HW125901   8.617   3.539   3.072
 4894SOL    HW225902   8.654   3.597   3.219
 4895SOL     OW25903   8.010   9.311   3.051
 4895SOL    HW125904   7.918   9.302   3.090
 4895SOL    HW225905   8.055   9.391   3.089
 4896SOL     OW25906   0.728   1.375   1.766
 4896SOL    HW125907   0.805   1.438   1.755
 4896SOL    HW225908   0.688   1.387   1.857
 4897SOL     OW25909   8.944   9.346   2.161
 4897SOL    HW125910   8.879   9.420   2.146
 4897SOL    HW225911   9.011   9.344   2.087
 4898SOL     OW25912   5.703   0.457   1.628
 4898SOL    HW125913   5.638   0.526   1.597
 4898SOL    HW225914   5.691   0.442   1.727
 4899SOL     OW25915   0.560   3.516   0.774
 4899SOL    HW125916   0.544   3.452   0.699
 4899SOL    HW225917   0.549   3.468   0.861
 4900SOL     OW25918   0.091   1.618   2.982
 4900SOL    HW125919   0.140   1.679   2.921
 4900SOL    HW225920   0.086   1.658   3.073
 4901SOL     OW25921   5.372   5.291   1.912
 4901SOL    HW125922   5.427   5.370   1.941
 4901SOL    HW225923   5.339   5.306   1.818
 4902SOL     OW25924   3.112   0.236   1.089
 4902SOL    HW125925   3.148   0.143   1.096
 4902SOL    HW225926   3.012   0.233   1.092
 4903SOL     OW25927   7.276   2.004   3.803
 4903SOL    HW125928   7.245   2.082   3.857
 4903SOL    HW225929   7.313   1.934   3.864
 4904SOL     OW25930   5.965   3.392   0.197
 4904SOL    HW125931   5.905   3.313   0.192
 4904SOL    HW225932   5.911   3.476   0.195
 4905SOL     OW25933   4.495   6.240   3.471
 4905SOL    HW125934   4.475   6.245   3.373
 4905SOL    HW225935   4.528   6.329   3.503
 4906SOL     OW25936   7.384   8.531   5.345
 4906SOL    HW125937   7.312   8.575   5.291
 4906SOL    HW225938   7.473   8.552   5.306
 4907SOL     OW25939   9.448   7.000   4.482
 4907SOL    HW125940   9.365   7.055   4.490
 4907SOL    HW225941   9.459   6.970   4.387
 4908SOL     OW25942   2.331   7.715   1.660
 4908SOL    HW125943   2.325   7.796   1.602
 4908SOL    HW225944   2.297   7.736   1.752
 4909SOL     OW25945   5.297   8.263   2.311
 4909SOL    HW125946   5.324   8.214   2.229
 4909SOL    HW225947   5.238   8.205   2.367
 4910SOL     OW25948   3.891   0.878   3.482
 4910SOL    HW125949   3.888   0.949   3.552
 4910SOL    HW225950   3.986   0.860   3.457
 4911SOL     OW25951   3.706   0.202   3.644
 4911SOL    HW125952   3.687   0.159   3.556
 4911SOL    HW225953   3.632   0.266   3.666
 4912SOL     OW25954   4.336   1.431   5.440
 4912SOL    HW125955   4.286   1.361   5.389
 4912SOL    HW225956   4.343   1.403   5.536
 4913SOL     OW25957   7.201   7.712   4.208
 4913SOL    HW125958   7.199   7.810   4.189
 4913SOL    HW225959   7.110   7.682   4.236
 4914SOL     OW25960   2.813   1.702   1.848
 4914SOL    HW125961   2.856   1.738   1.766
 4914SOL    HW225962   2.804   1.775   1.916
 4915SOL     OW25963   7.259   0.574   2.560
 4915SOL    HW125964   7.172   0.526   2.554
 4915SOL    HW225965   7.253   0.660   2.509
 4916SOL     OW25966   0.326   7.141   1.103
 4916SOL    HW125967   0.361   7.220   1.053
 4916SOL    HW225968   0.236   7.116   1.067
 4917SOL     OW25969   7.495   1.586   4.365
 4917SOL    HW125970   7.547   1.597   4.450
 4917SOL    HW225971   7.420   1.522   4.379
 4918SOL     OW25972   9.151   1.089   2.391
 4918SOL    HW125973   9.226   1.031   2.424
 4918SOL    HW225974   9.184   1.149   2.318
 4919SOL     OW25975   1.072   0.008   1.152
 4919SOL    HW125976   1.140   9.964   1.095
 4919SOL    HW225977   0.991   0.031   1.097
 4920SOL     OW25978   8.356   2.059   5.517
 4920SOL    HW125979   8.452   2.029   5.517
 4920SOL    HW225980   8.327   2.077   5.423
 4921SOL     OW25981   3.381   1.382   3.934
 4921SOL    HW125982   3.383   1.456   3.866
 4921SOL    HW225983   3.329   1.305   3.899
 4922SOL     OW25984   7.321   8.152   2.868
 4922SOL    HW125985   7.396   8.199   2.916
 4922SOL    HW225986   7.353   8.064   2.835
 4923SOL     OW25987   2.756   3.437   4.963
 4923SOL    HW125988   2.680   3.468   4.906
 4923SOL    HW225989   2.783   3.345   4.935
 4924SOL     OW25990   4.195   0.887   5.546
 4924SOL    HW125991   4.239   0.797   5.537
 4924SOL    HW225992   4.163   0.918   5.456
 4925SOL     OW25993   4.590   5.900   2.079
 4925SOL    HW125994   4.494   5.894   2.053
 4925SOL    HW225995   4.646   5.851   2.011
 4926SOL     OW25996   4.731   4.242   3.075
 4926SOL    HW125997   4.685   4.212   2.991
 4926SOL    HW225998   4.764   4.162   3.125
 4927SOL     OW25999   3.147   0.838   4.158
 4927SOL    HW126000   3.154   0.799   4.067
 4927SOL    HW226001   3.069   0.798   4.206
 4928SOL     OW26002   0.809   6.271   1.882
 4928SOL    HW126003   0.711   6.274   1.861
 4928SOL    HW226004   0.857   6.340   1.829
 4929SOL     OW26005   6.110   0.738   1.104
 4929SOL    HW126006   6.171   0.722   1.026
 4929SOL    HW226007   6.097   0.652   1.154
 4930SOL     OW26008   8.755   2.166   0.293
 4930SOL    HW126009   8.775   2.155   0.391
 4930SOL    HW226010   8.657   2.178   0.281
 4931SOL     OW26011   8.157   6.027   3.872
 4931SOL    HW126012   8.157   5.939   3.920
 4931SOL    HW226013   8.106   6.018   3.787
 4932SOL     OW26014   0.220   1.500   5.158
 4932SOL    HW126015   0.257   1.433   5.222
 4932SOL    HW226016   0.276   1.501   5.075
 4933SOL     OW26017   9.716   9.232   4.663
 4933SOL    HW126018   9.731   9.157   4.599
 4933SOL    HW226019   9.753   9.317   4.625
 4934SOL     OW26020   3.501   5.585   3.722
 4934SOL    HW126021   3.408   5.559   3.747
 4934SOL    HW226022   3.550   5.505   3.687
 4935SOL     OW26023   9.111   4.676   6.201
 4935SOL    HW126024   9.087   4.604   6.267
 4935SOL    HW226025   9.159   4.635   6.124
 4936SOL     OW26026   1.153   5.030   3.352
 4936SOL    HW126027   1.120   4.983   3.434
 4936SOL    HW226028   1.157   5.128   3.369
 4937SOL     OW26029   7.177   1.868   5.772
 4937SOL    HW126030   7.150   1.943   5.711
 4937SOL    HW226031   7.224   1.906   5.852
 4938SOL     OW26032   8.492   1.822   0.970
 4938SOL    HW126033   8.554   1.829   0.892
 4938SOL    HW226034   8.542   1.839   1.055
 4939SOL     OW26035   8.027   3.287   0.495
 4939SOL    HW126036   8.086   3.225   0.443
 4939SOL    HW226037   8.048   3.279   0.593
 4940SOL     OW26038   4.148   9.209   5.959
 4940SOL    HW126039   4.090   9.267   5.902
 4940SOL    HW226040   4.189   9.138   5.903
 4941SOL     OW26041   0.192   4.376   6.088
 4941SOL    HW126042   0.275   4.378   6.032
 4941SOL    HW226043   0.146   4.288   6.076
 4942SOL     OW26044   7.903   4.639   6.027
 4942SOL    HW126045   7.938   4.710   6.088
 4942SOL    HW226046   7.961   4.634   5.945
 4943SOL     OW26047   8.849   4.674   2.523
 4943SOL    HW126048   8.783   4.702   2.453
 4943SOL    HW226049   8.823   4.584   2.560
 4944SOL     OW26050   2.052   5.075   4.581
 4944SOL    HW126051   2.004   5.011   4.642
 4944SOL    HW226052   1.985   5.135   4.537
 4945SOL     OW26053   3.567   5.206   3.132
 4945SOL    HW126054   3.561   5.108   3.150
 4945SOL    HW226055   3.537   5.257   3.212
 4946SOL     OW26056   0.922   9.369   6.171
 4946SOL    HW126057   1.004   9.368   6.228
 4946SOL    HW226058   0.841   9.359   6.229
 4947SOL     OW26059   3.226   8.579   0.657
 4947SOL    HW126060   3.195   8.496   0.704
 4947SOL    HW226061   3.211   8.569   0.559
 4948SOL     OW26062   0.775   7.816   4.160
 4948SOL    HW126063   0.787   7.717   4.160
 4948SOL    HW226064   0.804   7.853   4.071
 4949SOL     OW26065   8.814   2.441   1.341
 4949SOL    HW126066   8.717   2.458   1.354
 4949SOL    HW226067   8.844   2.367   1.402
 4950SOL     OW26068   2.545   3.180   4.810
 4950SOL    HW126069   2.493   3.182   4.896
 4950SOL    HW226070   2.643   3.186   4.831
 4951SOL     OW26071   5.486   0.675   2.053
 4951SOL    HW126072   5.390   0.651   2.069
 4951SOL    HW226073   5.541   0.647   2.132
 4952SOL     OW26074   8.612   5.045   3.010
 4952SOL    HW126075   8.544   5.103   3.054
 4952SOL    HW226076   8.693   5.037   3.069
 4953SOL     OW26077   1.182   7.636   6.283
 4953SOL    HW126078   1.197   7.619   6.185
 4953SOL    HW226079   1.167   7.734   6.298
 4954SOL     OW26080   0.846   0.174   0.976
 4954SOL    HW126081   0.800   0.201   1.061
 4954SOL    HW226082   0.779   0.136   0.912
 4955SOL     OW26083   7.028   2.989   0.701
 4955SOL    HW126084   6.982   2.923   0.761
 4955SOL    HW226085   7.123   2.960   0.687
 4956SOL     OW26086   1.969   8.907   4.437
 4956SOL    HW126087   1.923   8.820   4.420
 4956SOL    HW226088   1.904   8.973   4.473
 4957SOL     OW26089   9.188   0.896   2.866
 4957SOL    HW126090   9.212   0.815   2.813
 4957SOL    HW226091   9.203   0.978   2.810
 4958SOL     OW26092   7.022   0.892   0.383
 4958SOL    HW126093   7.008   0.893   0.482
 4958SOL    HW226094   7.032   0.985   0.349
 4959SOL     OW26095   3.632   3.843   1.157
 4959SOL    HW126096   3.532   3.838   1.154
 4959SOL    HW226097   3.663   3.924   1.107
 4960SOL     OW26098   2.847   3.962   1.865
 4960SOL    HW126099   2.939   3.942   1.831
 4960SOL    HW226100   2.835   4.061   1.876
 4961SOL     OW26101   1.725   4.806   3.440
 4961SOL    HW126102   1.800   4.803   3.373
 4961SOL    HW226103   1.687   4.714   3.451
 4962SOL     OW26104   7.870   8.584   5.032
 4962SOL    HW126105   7.777   8.615   5.013
 4962SOL    HW226106   7.874   8.484   5.025
 4963SOL     OW26107   8.413   0.882   0.187
 4963SOL    HW126108   8.429   0.980   0.177
 4963SOL    HW226109   8.500   0.835   0.198
 4964SOL     OW26110   9.658   9.777   5.797
 4964SOL    HW126111   9.750   9.794   5.832
 4964SOL    HW226112   9.640   9.837   5.720
 4965SOL     OW26113   6.579   0.046   2.781
 4965SOL    HW126114   6.571   0.060   2.879
 4965SOL    HW226115   6.558   9.950   2.759
 4966SOL     OW26116   0.329   4.504   4.204
 4966SOL    HW126117   0.343   4.585   4.148
 4966SOL    HW226118   0.376   4.515   4.292
 4967SOL     OW26119   5.685   0.876   1.465
 4967SOL    HW126120   5.708   0.956   1.520
 4967SOL    HW226121   5.754   0.806   1.477
 4968SOL     OW26122   7.554   9.698   1.816
 4968SOL    HW126123   7.457   9.716   1.801
 4968SOL    HW226124   7.577   9.716   1.911
 4969SOL     OW26125   3.622   3.598   1.314
 4969SOL    HW126126   3.717   3.603   1.343
 4969SOL    HW226127   3.600   3.678   1.257
 4970SOL     OW26128   0.680   3.526   5.242
 4970SOL    HW126129   0.702   3.429   5.248
 4970SOL    HW226130   0.739   3.578   5.303
 4971SOL     OW26131   9.671   2.391   1.055
 4971SOL    HW126132   9.763   2.427   1.072
 4971SOL    HW226133   9.678   2.300   1.013
 4972SOL     OW26134   4.996   0.750   0.252
 4972SOL    HW126135   5.094   0.751   0.233
 4972SOL    HW226136   4.950   0.691   0.186
 4973SOL     OW26137   8.579   4.465   3.768
 4973SOL    HW126138   8.501   4.410   3.799
 4973SOL    HW226139   8.547   4.551   3.730
 4974SOL     OW26140   2.721   1.213   4.397
 4974SOL    HW126141   2.782   1.293   4.398
 4974SOL    HW226142   2.702   1.187   4.302
 4975SOL     OW26143   2.326   8.845   0.570
 4975SOL    HW126144   2.353   8.815   0.661
 4975SOL    HW226145   2.280   8.771   0.522
 4976SOL     OW26146   2.187   3.102   0.524
 4976SOL    HW126147   2.128   3.026   0.551
 4976SOL    HW226148   2.278   3.068   0.501
 4977SOL     OW26149   3.507   9.466   1.897
 4977SOL    HW126150   3.446   9.392   1.868
 4977SOL    HW226151   3.572   9.431   1.965
 4978SOL     OW26152   2.885   3.323   1.227
 4978SOL    HW126153   2.925   3.360   1.311
 4978SOL    HW226154   2.787   3.343   1.225
 4979SOL     OW26155   9.841   4.455   5.251
 4979SOL    HW126156   9.810   4.434   5.344
 4979SOL    HW226157   9.839   4.554   5.237
 4980SOL     OW26158   0.976   8.209   3.446
 4980SOL    HW126159   0.971   8.169   3.537
 4980SOL    HW226160   0.884   8.224   3.410
 4981SOL     OW26161   1.198   1.557   2.312
 4981SOL    HW126162   1.281   1.503   2.326
 4981SOL    HW226163   1.136   1.509   2.250
 4982SOL     OW26164   5.133   8.834   2.887
 4982SOL    HW126165   5.209   8.883   2.844
 4982SOL    HW226166   5.083   8.783   2.817
 4983SOL     OW26167   8.653   7.207   5.630
 4983SOL    HW126168   8.586   7.134   5.643
 4983SOL    HW226169   8.716   7.182   5.556
 4984SOL     OW26170   4.314   7.955   5.556
 4984SOL    HW126171   4.359   8.043   5.537
 4984SOL    HW226172   4.217   7.970   5.574
 4985SOL     OW26173   9.332   4.280   2.161
 4985SOL    HW126174   9.245   4.261   2.116
 4985SOL    HW226175   9.317   4.296   2.258
 4986SOL     OW26176   9.112   9.947   1.582
 4986SOL    HW126177   9.044   9.916   1.648
 4986SOL    HW226178   9.138   9.871   1.523
 4987SOL     OW26179   4.442   4.552   3.401
 4987SOL    HW126180   4.352   4.527   3.365
 4987SOL    HW226181   4.439   4.644   3.439
 4988SOL     OW26182   8.467   7.750   3.471
 4988SOL    HW126183   8.381   7.800   3.465
 4988SOL    HW226184   8.463   7.668   3.413
 4989SOL     OW26185   2.391   7.840   3.614
 4989SOL    HW126186   2.436   7.881   3.693
 4989SOL    HW226187   2.316   7.899   3.584
 4990SOL     OW26188   3.934   0.156   0.169
 4990SOL    HW126189   3.927   0.057   0.159
 4990SOL    HW226190   4.016   0.189   0.122
 4991SOL     OW26191   7.355   5.952   5.755
 4991SOL    HW126192   7.262   5.944   5.718
 4991SOL    HW226193   7.358   5.911   5.846
 4992SOL     OW26194   8.725   2.152   1.225
 4992SOL    HW126195   8.782   2.212   1.168
 4992SOL    HW226196   8.751   2.162   1.321
 4993SOL     OW26197   3.041   1.618   2.422
 4993SOL    HW126198   3.083   1.545   2.368
 4993SOL    HW226199   3.018   1.695   2.362
 4994SOL     OW26200   4.724   1.332   1.551
 4994SOL    HW126201   4.685   1.370   1.468
 4994SOL    HW226202   4.776   1.402   1.599
 4995SOL     OW26203   3.205   0.157   5.225
 4995SOL    HW126204   3.182   0.067   5.187
 4995SOL    HW226205   3.229   0.220   5.152
 4996SOL     OW26206   3.180   6.699   1.219
 4996SOL    HW126207   3.088   6.722   1.187
 4996SOL    HW226208   3.236   6.671   1.141
 4997SOL     OW26209   1.214   5.689   3.746
 4997SOL    HW126210   1.286   5.744   3.788
 4997SOL    HW226211   1.177   5.738   3.667
 4998SOL     OW26212   3.228   9.106   4.117
 4998SOL    HW126213   3.305   9.151   4.161
 4998SOL    HW226214   3.223   9.135   4.021
 4999SOL     OW26215   3.836   9.876   4.096
 4999SOL    HW126216   3.904   9.905   4.029
 4999SOL    HW226217   3.796   9.957   4.139
 5000SOL     OW26218   9.640   7.332   4.162
 5000SOL    HW126219   9.552   7.327   4.116
 5000SOL    HW226220   9.676   7.425   4.156
 5001SOL     OW26221   6.461   2.020   0.422
 5001SOL    HW126222   6.395   1.981   0.487
 5001SOL    HW226223   6.439   1.988   0.330
 5002SOL     OW26224   5.584   1.315   4.937
 5002SOL    HW126225   5.534   1.292   5.020
 5002SOL    HW226226   5.527   1.295   4.857
 5003SOL     OW26227   1.694   1.248   3.476
 5003SOL    HW126228   1.636   1.173   3.509
 5003SOL    HW226229   1.660   1.280   3.388
 5004SOL     OW26230   4.494   6.832   2.896
 5004SOL    HW126231   4.495   6.911   2.957
 5004SOL    HW226232   4.570   6.771   2.919
 5005SOL     OW26233   9.422   0.657   2.145
 5005SOL    HW126234   9.412   0.564   2.110
 5005SOL    HW226235   9.376   0.721   2.083
 5006SOL     OW26236   7.314   0.961   1.020
 5006SOL    HW126237   7.393   1.005   1.064
 5006SOL    HW226238   7.231   0.984   1.070
 5007SOL     OW26239   6.931   1.298   3.811
 5007SOL    HW126240   6.911   1.283   3.714
 5007SOL    HW226241   6.856   1.263   3.867
 5008SOL     OW26242   2.059   5.918   2.854
 5008SOL    HW126243   2.023   5.923   2.947
 5008SOL    HW226244   2.145   5.969   2.849
 5009SOL     OW26245   3.718   0.449   2.481
 5009SOL    HW126246   3.622   0.419   2.479
 5009SOL    HW226247   3.776   0.372   2.504
 5010SOL     OW26248   0.037   6.758   2.522
 5010SOL    HW126249   0.052   6.805   2.435
 5010SOL    HW226250   0.118   6.706   2.547
 5011SOL     OW26251   3.133   3.516   3.057
 5011SOL    HW126252   3.086   3.450   2.998
 5011SOL    HW226253   3.174   3.588   3.000
 5012SOL     OW26254   4.580   3.789   0.795
 5012SOL    HW126255   4.592   3.805   0.697
 5012SOL    HW226256   4.626   3.704   0.822
 5013SOL     OW26257   0.341   1.856   1.716
 5013SOL    HW126258   0.376   1.772   1.676
 5013SOL    HW226259   0.374   1.935   1.663
 5014SOL     OW26260   2.799   1.671   5.434
 5014SOL    HW126261   2.859   1.598   5.401
 5014SOL    HW226262   2.713   1.671   5.383
 5015SOL     OW26263   4.565   9.502   2.172
 5015SOL    HW126264   4.607   9.548   2.250
 5015SOL    HW226265   4.574   9.403   2.183
 5016SOL     OW26266   3.518   4.194   4.274
 5016SOL    HW126267   3.589   4.188   4.343
 5016SOL    HW226268   3.528   4.280   4.223
 5017SOL     OW26269   9.150   5.305   5.615
 5017SOL    HW126270   9.237   5.299   5.664
 5017SOL    HW226271   9.165   5.285   5.518
 5018SOL     OW26272   2.082   8.676   5.958
 5018SOL    HW126273   2.027   8.745   5.911
 5018SOL    HW226274   2.033   8.644   6.039
 5019SOL     OW26275   2.690   6.426   0.294
 5019SOL    HW126276   2.664   6.498   0.359
 5019SOL    HW226277   2.757   6.366   0.337
 5020SOL     OW26278   3.332   4.977   0.752
 5020SOL    HW126279   3.244   5.021   0.765
 5020SOL    HW226280   3.357   4.926   0.835
 5021SOL     OW26281   6.969   2.872   2.549
 5021SOL    HW126282   6.930   2.783   2.528
 5021SOL    HW226283   7.058   2.882   2.505
 5022SOL     OW26284   8.303   4.840   4.532
 5022SOL    HW126285   8.287   4.822   4.629
 5022SOL    HW226286   8.370   4.774   4.497
 5023SOL     OW26287   9.588   8.080   4.031
 5023SOL    HW126288   9.599   8.031   4.118
 5023SOL    HW226289   9.562   8.175   4.050
 5024SOL     OW26290   2.616   3.833   1.479
 5024SOL    HW126291   2.570   3.756   1.523
 5024SOL    HW226292   2.633   3.905   1.546
 5025SOL     OW26293   2.628   6.235   5.894
 5025SOL    HW126294   2.591   6.301   5.827
 5025SOL    HW226295   2.716   6.268   5.927
 5026SOL     OW26296   9.128   9.289   0.417
 5026SOL    HW126297   9.180   9.305   0.501
 5026SOL    HW226298   9.113   9.190   0.406
 5027SOL     OW26299   0.915   6.678   4.912
 5027SOL    HW126300   0.842   6.687   4.980
 5027SOL    HW226301   0.880   6.702   4.821
 5028SOL     OW26302   9.419   0.763   3.583
 5028SOL    HW126303   9.389   0.681   3.630
 5028SOL    HW226304   9.510   0.748   3.545
 5029SOL     OW26305   8.478   6.262   2.583
 5029SOL    HW126306   8.445   6.168   2.578
 5029SOL    HW226307   8.400   6.324   2.576
 5030SOL     OW26308   8.114   1.216   5.914
 5030SOL    HW126309   8.135   1.313   5.928
 5030SOL    HW226310   8.105   1.170   6.002
 5031SOL     OW26311   4.814   8.426   1.718
 5031SOL    HW126312   4.785   8.508   1.766
 5031SOL    HW226313   4.801   8.438   1.620
 5032SOL     OW26314   1.304   0.285   6.037
 5032SOL    HW126315   1.237   0.215   6.011
 5032SOL    HW226316   1.378   0.286   5.970
 5033SOL     OW26317   0.406   3.646   0.452
 5033SOL    HW126318   0.371   3.558   0.421
 5033SOL    HW226319   0.502   3.637   0.477
 5034SOL     OW26320   4.773   0.043   0.060
 5034SOL    HW126321   4.788   9.954   0.016
 5034SOL    HW226322   4.717   0.030   0.142
 5035SOL     OW26323   1.510   3.128   4.264
 5035SOL    HW126324   1.584   3.188   4.295
 5035SOL    HW226325   1.534   3.033   4.283
 5036SOL     OW26326   9.909   8.942   6.369
 5036SOL    HW126327   9.883   8.855   6.412
 5036SOL    HW226328   0.009   8.948   6.365
 5037SOL     OW26329   1.359   6.733   1.816
 5037SOL    HW126330   1.299   6.808   1.786
 5037SOL    HW226331   1.324   6.696   1.902
 5038SOL     OW26332   5.612   8.076   5.961
 5038SOL    HW126333   5.643   8.138   6.033
 5038SOL    HW226334   5.517   8.049   5.980
 5039SOL     OW26335   3.662   9.187   2.317
 5039SOL    HW126336   3.757   9.156   2.310
 5039SOL    HW226337   3.600   9.111   2.299
 5040SOL     OW26338   1.335   7.610   2.354
 5040SOL    HW126339   1.395   7.654   2.421
 5040SOL    HW226340   1.246   7.593   2.396
 5041SOL     OW26341   0.732   9.195   5.791
 5041SOL    HW126342   0.751   9.250   5.710
 5041SOL    HW226343   0.661   9.239   5.846
 5042SOL     OW26344   6.839   9.813   3.938
 5042SOL    HW126345   6.844   9.757   3.856
 5042SOL    HW226346   6.916   9.793   3.998
 5043SOL     OW26347   1.418   5.136   1.975
 5043SOL    HW126348   1.338   5.117   2.032
 5043SOL    HW226349   1.396   5.207   1.909
 5044SOL     OW26350   9.564   2.878   4.595
 5044SOL    HW126351   9.548   2.845   4.688
 5044SOL    HW226352   9.653   2.846   4.563
 5045SOL     OW26353   4.374   1.245   2.923
 5045SOL    HW126354   4.278   1.271   2.923
 5045SOL    HW226355   4.426   1.306   2.983
 5046SOL     OW26356   0.463   1.749   5.404
 5046SOL    HW126357   0.401   1.794   5.340
 5046SOL    HW226358   0.449   1.785   5.496
 5047SOL     OW26359   7.190   8.550   2.799
 5047SOL    HW126360   7.199   8.537   2.898
 5047SOL    HW226361   7.169   8.462   2.755
 5048SOL     OW26362   9.926   3.975   6.192
 5048SOL    HW126363   9.959   3.895   6.243
 5048SOL    HW226364   9.872   3.944   6.114
 5049SOL     OW26365   8.910   3.950   2.424
 5049SOL    HW126366   8.852   4.017   2.471
 5049SOL    HW226367   8.997   3.941   2.473
 5050SOL     OW26368   7.111   1.990   3.343
 5050SOL    HW126369   7.138   2.046   3.421
 5050SOL    HW226370   7.193   1.957   3.296
 5051SOL     OW26371   8.218   9.763   6.153
 5051SOL    HW126372   8.151   9.836   6.163
 5051SOL    HW226373   8.172   9.674   6.166
 5052SOL     OW26374   3.176   9.527   0.626
 5052SOL    HW126375   3.087   9.493   0.595
 5052SOL    HW226376   3.242   9.453   0.628
 5053SOL     OW26377   1.224   0.588   5.607
 5053SOL    HW126378   1.227   0.666   5.670
 5053SOL    HW226379   1.177   0.615   5.523
 5054SOL     OW26380   0.718   0.634   4.289
 5054SOL    HW126381   0.757   0.726   4.286
 5054SOL    HW226382   0.720   0.600   4.383
 5055SOL     OW26383   2.524   2.512   1.943
 5055SOL    HW126384   2.608   2.543   1.898
 5055SOL    HW226385   2.478   2.591   1.985
 5056SOL     OW26386   9.619   4.594   4.852
 5056SOL    HW126387   9.705   4.642   4.836
 5056SOL    HW226388   9.632   4.496   4.838
 5057SOL     OW26389   2.591   6.366   1.932
 5057SOL    HW126390   2.553   6.453   1.962
 5057SOL    HW226391   2.599   6.304   2.010
 5058SOL     OW26392   9.394   2.466   2.863
 5058SOL    HW126393   9.432   2.374   2.870
 5058SOL    HW226394   9.429   2.510   2.780
 5059SOL     OW26395   1.607   2.896   1.628
 5059SOL    HW126396   1.618   2.871   1.725
 5059SOL    HW226397   1.578   2.816   1.576
 5060SOL     OW26398   7.336   1.772   3.933
 5060SOL    HW126399   7.411   1.725   3.886
 5060SOL    HW226400   7.329   1.738   4.027
 5061SOL     OW26401   0.862   5.256   2.367
 5061SOL    HW126402   0.935   5.266   2.299
 5061SOL    HW226403   0.900   5.215   2.450
 5062SOL     OW26404   6.100   4.530   1.127
 5062SOL    HW126405   6.009   4.503   1.094
 5062SOL    HW226406   6.090   4.602   1.195
 5063SOL     OW26407   0.346   0.633   4.186
 5063SOL    HW126408   0.404   0.561   4.225
 5063SOL    HW226409   0.259   0.594   4.156
 5064SOL     OW26410   2.122   6.595   2.320
 5064SOL    HW126411   2.206   6.644   2.344
 5064SOL    HW226412   2.146   6.512   2.269
 5065SOL     OW26413   8.872   1.952   6.067
 5065SOL    HW126414   8.794   2.001   6.030
 5065SOL    HW226415   8.926   2.013   6.125
 5066SOL     OW26416   8.694   7.666   0.638
 5066SOL    HW126417   8.709   7.762   0.618
 5066SOL    HW226418   8.779   7.616   0.628
 5067SOL     OW26419   3.095   6.871   3.847
 5067SOL    HW126420   3.093   6.964   3.883
 5067SOL    HW226421   3.189   6.838   3.843
 5068SOL     OW26422   5.988   0.965   2.706
 5068SOL    HW126423   5.895   0.952   2.741
 5068SOL    HW226424   6.053   0.935   2.776
 5069SOL     OW26425   9.344   3.093   2.175
 5069SOL    HW126426   9.433   3.137   2.170
 5069SOL    HW226427   9.333   3.052   2.266
 5070SOL     OW26428   3.934   5.211   1.370
 5070SOL    HW126429   4.005   5.271   1.334
 5070SOL    HW226430   3.933   5.216   1.470
 5071SOL     OW26431   0.922   9.271   0.949
 5071SOL    HW126432   0.908   9.251   0.852
 5071SOL    HW226433   0.993   9.340   0.959
 5072SOL     OW26434   1.227   5.807   2.050
 5072SOL    HW126435   1.325   5.822   2.036
 5072SOL    HW226436   1.194   5.736   1.988
 5073SOL     OW26437   6.796   2.490   2.704
 5073SOL    HW126438   6.792   2.536   2.793
 5073SOL    HW226439   6.723   2.423   2.698
 5074SOL     OW26440   7.146   0.269   1.536
 5074SOL    HW126441   7.061   0.284   1.486
 5074SOL    HW226442   7.143   0.318   1.623
 5075SOL     OW26443   7.725   7.740   0.117
 5075SOL    HW126444   7.741   7.648   0.153
 5075SOL    HW226445   7.738   7.807   0.190
 5076SOL     OW26446   4.642   8.400   4.744
 5076SOL    HW126447   4.728   8.365   4.708
 5076SOL    HW226448   4.566   8.350   4.703
 5077SOL     OW26449   9.479   8.521   4.956
 5077SOL    HW126450   9.395   8.518   4.901
 5077SOL    HW226451   9.494   8.614   4.988
 5078SOL     OW26452   3.116   4.777   3.057
 5078SOL    HW126453   3.140   4.681   3.064
 5078SOL    HW226454   3.027   4.793   3.101
 5079SOL     OW26455   9.588   1.229   3.243
 5079SOL    HW126456   9.557   1.299   3.179
 5079SOL    HW226457   9.688   1.219   3.236
 5080SOL     OW26458   8.741   4.079   4.741
 5080SOL    HW126459   8.782   4.013   4.804
 5080SOL    HW226460   8.642   4.083   4.756
 5081SOL     OW26461   3.475   1.341   0.805
 5081SOL    HW126462   3.429   1.278   0.867
 5081SOL    HW226463   3.416   1.420   0.788
 5082SOL     OW26464   4.485   8.406   4.377
 5082SOL    HW126465   4.572   8.445   4.346
 5082SOL    HW226466   4.465   8.323   4.325
 5083SOL     OW26467   9.046   0.542   1.013
 5083SOL    HW126468   9.133   0.502   0.985
 5083SOL    HW226469   8.974   0.472   1.010
 5084SOL     OW26470   0.356   5.047   0.444
 5084SOL    HW126471   0.407   5.131   0.428
 5084SOL    HW226472   0.420   4.970   0.444
 5085SOL     OW26473   1.933   5.396   2.875
 5085SOL    HW126474   1.977   5.321   2.924
 5085SOL    HW226475   1.992   5.426   2.800
 5086SOL     OW26476   9.475   5.632   5.150
 5086SOL    HW126477   9.507   5.727   5.150
 5086SOL    HW226478   9.544   5.574   5.107
 5087SOL     OW26479   7.848   4.458   2.240
 5087SOL    HW126480   7.863   4.510   2.324
 5087SOL    HW226481   7.820   4.364   2.264
 5088SOL     OW26482   2.904   6.650   5.145
 5088SOL    HW126483   2.817   6.693   5.166
 5088SOL    HW226484   2.901   6.610   5.053
 5089SOL     OW26485   8.609   9.567   2.933
 5089SOL    HW126486   8.553   9.622   2.871
 5089SOL    HW226487   8.693   9.617   2.955
 5090SOL     OW26488   2.698   3.459   4.274
 5090SOL    HW126489   2.694   3.547   4.226
 5090SOL    HW226490   2.787   3.416   4.258
 5091SOL     OW26491   3.994   9.372   5.811
 5091SOL    HW126492   3.900   9.372   5.776
 5091SOL    HW226493   4.021   9.466   5.832
 5092SOL     OW26494   4.408   5.622   3.708
 5092SOL    HW126495   4.401   5.685   3.630
 5092SOL    HW226496   4.389   5.529   3.677
 5093SOL     OW26497   0.922   4.256   3.672
 5093SOL    HW126498   0.893   4.171   3.717
 5093SOL    HW226499   0.843   4.314   3.655
 5094SOL     OW26500   0.626   8.386   6.323
 5094SOL    HW126501   0.670   8.349   6.241
 5094SOL    HW226502   0.692   8.439   6.376
 5095SOL     OW26503   1.406   4.718   2.544
 5095SOL    HW126504   1.498   4.684   2.524
 5095SOL    HW226505   1.373   4.771   2.466
 5096SOL     OW26506   7.404   7.462   5.523
 5096SOL    HW126507   7.347   7.446   5.603
 5096SOL    HW226508   7.480   7.397   5.522
 5097SOL     OW26509   7.097   3.662   0.964
 5097SOL    HW126510   7.187   3.705   0.969
 5097SOL    HW226511   7.042   3.708   0.894
 5098SOL     OW26512   2.889   5.913   1.789
 5098SOL    HW126513   2.890   5.818   1.818
 5098SOL    HW226514   2.952   5.966   1.846
 5099SOL     OW26515   4.669   4.123   3.730
 5099SOL    HW126516   4.726   4.202   3.756
 5099SOL    HW226517   4.616   4.146   3.648
 5100SOL     OW26518   2.300   4.147   0.661
 5100SOL    HW126519   2.261   4.225   0.708
 5100SOL    HW226520   2.227   4.091   0.622
 5101SOL     OW26521   9.659   1.974   5.317
 5101SOL    HW126522   9.659   1.874   5.313
 5101SOL    HW226523   9.724   2.005   5.387
 5102SOL     OW26524   6.837   8.719   4.911
 5102SOL    HW126525   6.925   8.680   4.883
 5102SOL    HW226526   6.851   8.779   4.990
 5103SOL     OW26527   7.393   9.834   4.207
 5103SOL    HW126528   7.483   9.829   4.250
 5103SOL    HW226529   7.395   9.902   4.134
 5104SOL     OW26530   0.968   1.443   5.367
 5104SOL    HW126531   0.881   1.395   5.378
 5104SOL    HW226532   1.011   1.455   5.456
 5105SOL     OW26533   3.678   9.855   5.412
 5105SOL    HW126534   3.640   9.900   5.493
 5105SOL    HW226535   3.777   9.870   5.409
 5106SOL     OW26536   4.293   6.626   3.257
 5106SOL    HW126537   4.202   6.624   3.300
 5106SOL    HW226538   4.327   6.720   3.257
 5107SOL     OW26539   7.972   4.501   5.362
 5107SOL    HW126540   7.930   4.446   5.435
 5107SOL    HW226541   8.054   4.545   5.396
 5108SOL     OW26542   4.869   0.483   5.910
 5108SOL    HW126543   4.781   0.511   5.872
 5108SOL    HW226544   4.859   0.466   6.008
 5109SOL     OW26545   0.322   8.346   3.417
 5109SOL    HW126546   0.352   8.427   3.466
 5109SOL    HW226547   0.373   8.266   3.449
 5110SOL     OW26548   8.405   0.851   5.469
 5110SOL    HW126549   8.479   0.785   5.481
 5110SOL    HW226550   8.400   0.878   5.372
 5111SOL     OW26551   6.719   4.174   0.506
 5111SOL    HW126552   6.627   4.204   0.482
 5111SOL    HW226553   6.770   4.152   0.422
 5112SOL     OW26554   9.661   8.519   4.624
 5112SOL    HW126555   9.663   8.454   4.699
 5112SOL    HW226556   9.609   8.481   4.548
 5113SOL     OW26557   5.674   7.380   3.383
 5113SOL    HW126558   5.620   7.316   3.439
 5113SOL    HW226559   5.722   7.444   3.443
 5114SOL     OW26560   5.037   0.500   1.971
 5114SOL    HW126561   5.015   0.421   2.028
 5114SOL    HW226562   4.964   0.513   1.903
 5115SOL     OW26563   8.643   7.433   4.755
 5115SOL    HW126564   8.656   7.354   4.815
 5115SOL    HW226565   8.729   7.455   4.709
 5116SOL     OW26566   0.342   4.395   4.657
 5116SOL    HW126567   0.274   4.366   4.724
 5116SOL    HW226568   0.347   4.328   4.583
 5117SOL     OW26569   4.132   1.076   0.189
 5117SOL    HW126570   4.214   1.022   0.206
 5117SOL    HW226571   4.158   1.165   0.151
 5118SOL     OW26572   1.291   7.479   3.772
 5118SOL    HW126573   1.275   7.501   3.868
 5118SOL    HW226574   1.238   7.541   3.715
 5119SOL     OW26575   3.502   8.916   1.760
 5119SOL    HW126576   3.561   8.984   1.804
 5119SOL    HW226577   3.417   8.908   1.812
 5120SOL     OW26578   3.620   1.067   4.849
 5120SOL    HW126579   3.667   1.101   4.931
 5120SOL    HW226580   3.526   1.103   4.848
 5121SOL     OW26581   4.289   5.329   6.064
 5121SOL    HW126582   4.383   5.344   6.032
 5121SOL    HW226583   4.291   5.274   6.147
 5122SOL     OW26584   7.852   1.045   1.314
 5122SOL    HW126585   7.875   0.948   1.302
 5122SOL    HW226586   7.757   1.054   1.342
 5123SOL     OW26587   1.885   1.698   0.408
 5123SOL    HW126588   1.911   1.795   0.400
 5123SOL    HW226589   1.796   1.691   0.453
 5124SOL     OW26590   8.136   6.263   1.537
 5124SOL    HW126591   8.039   6.258   1.514
 5124SOL    HW226592   8.159   6.189   1.600
 5125SOL     OW26593   3.795   7.079   0.594
 5125SOL    HW126594   3.732   7.145   0.636
 5125SOL    HW226595   3.887   7.095   0.628
 5126SOL     OW26596   5.258   0.687   3.044
 5126SOL    HW126597   5.269   0.682   3.143
 5126SOL    HW226598   5.171   0.643   3.018
 5127SOL     OW26599   6.358   9.237   3.145
 5127SOL    HW126600   6.299   9.310   3.179
 5127SOL    HW226601   6.429   9.217   3.213
 5128SOL     OW26602   5.694   0.724   3.026
 5128SOL    HW126603   5.641   0.809   3.018
 5128SOL    HW226604   5.631   0.647   3.032
 5129SOL     OW26605   6.514   1.841   5.420
 5129SOL    HW126606   6.415   1.827   5.408
 5129SOL    HW226607   6.541   1.924   5.372
 5130SOL     OW26608   0.148   8.882   5.500
 5130SOL    HW126609   0.139   8.820   5.578
 5130SOL    HW226610   0.068   8.942   5.495
 5131SOL     OW26611   4.061   4.487   5.216
 5131SOL    HW126612   4.043   4.421   5.143
 5131SOL    HW226613   4.115   4.562   5.180
 5132SOL     OW26614   7.848   8.328   1.536
 5132SOL    HW126615   7.779   8.275   1.585
 5132SOL    HW226616   7.868   8.412   1.587
 5133SOL     OW26617   7.474   3.305   3.034
 5133SOL    HW126618   7.489   3.214   2.997
 5133SOL    HW226619   7.401   3.350   2.983
 5134SOL     OW26620   3.406   4.055   1.806
 5134SOL    HW126621   3.376   3.968   1.846
 5134SOL    HW226622   3.505   4.054   1.796
 5135SOL     OW26623   0.516   8.150   6.044
 5135SOL    HW126624   0.554   8.058   6.034
 5135SOL    HW226625   0.590   8.216   6.058
 5136SOL     OW26626   4.613   8.998   0.860
 5136SOL    HW126627   4.612   9.034   0.954
 5136SOL    HW226628   4.636   9.071   0.796
 5137SOL     OW26629   2.029   6.875   6.005
 5137SOL    HW126630   2.025   6.810   5.929
 5137SOL    HW226631   2.117   6.923   6.002
 5138SOL     OW26632   6.904   4.596   1.276
 5138SOL    HW126633   6.998   4.587   1.310
 5138SOL    HW226634   6.898   4.678   1.219
 5139SOL     OW26635   4.071   5.447   5.951
 5139SOL    HW126636   4.148   5.398   5.992
 5139SOL    HW226637   4.087   5.546   5.959
 5140SOL     OW26638   9.960   8.038   2.248
 5140SOL    HW126639   9.866   8.006   2.263
 5140SOL    HW226640   9.971   8.061   2.151
 5141SOL     OW26641   8.651   0.691   3.687
 5141SOL    HW126642   8.646   0.595   3.660
 5141SOL    HW226643   8.731   0.704   3.746
 5142SOL     OW26644   3.029   2.640   3.340
 5142SOL    HW126645   3.021   2.585   3.257
 5142SOL    HW226646   3.106   2.606   3.395
 5143SOL     OW26647   0.715   4.015   1.452
 5143SOL    HW126648   0.751   3.926   1.479
 5143SOL    HW226649   0.761   4.087   1.504
 5144SOL     OW26650   0.679   3.440   3.934
 5144SOL    HW126651   0.631   3.449   4.021
 5144SOL    HW226652   0.644   3.507   3.868
 5145SOL     OW26653   6.003   9.784   4.099
 5145SOL    HW126654   6.037   9.753   4.011
 5145SOL    HW226655   5.921   9.732   4.124
 5146SOL     OW26656   4.828   0.196   4.033
 5146SOL    HW126657   4.839   0.128   4.106
 5146SOL    HW226658   4.735   0.192   3.997
 5147SOL     OW26659   9.510   5.124   3.128
 5147SOL    HW126660   9.519   5.043   3.070
 5147SOL    HW226661   9.498   5.205   3.070
 5148SOL     OW26662   9.261   2.655   2.398
 5148SOL    HW126663   9.286   2.690   2.489
 5148SOL    HW226664   9.333   2.680   2.332
 5149SOL     OW26665   7.509   7.730   3.830
 5149SOL    HW126666   7.587   7.791   3.814
 5149SOL    HW226667   7.477   7.740   3.924
 5150SOL     OW26668   0.547   2.218   2.443
 5150SOL    HW126669   0.535   2.158   2.522
 5150SOL    HW226670   0.460   2.265   2.425
 5151SOL     OW26671   1.676   1.564   2.250
 5151SOL    HW126672   1.721   1.531   2.167
 5151SOL    HW226673   1.745   1.602   2.312
 5152SOL     OW26674   5.007   6.017   2.176
 5152SOL    HW126675   5.013   6.102   2.228
 5152SOL    HW226676   5.098   5.977   2.167
 5153SOL     OW26677   5.665   0.954   2.162
 5153SOL    HW126678   5.692   1.048   2.138
 5153SOL    HW226679   5.734   0.891   2.126
 5154SOL     OW26680   2.319   4.134   5.193
 5154SOL    HW126681   2.355   4.227   5.195
 5154SOL    HW226682   2.316   4.101   5.099
 5155SOL     OW26683   8.837   7.399   0.305
 5155SOL    HW126684   8.802   7.382   0.397
 5155SOL    HW226685   8.937   7.397   0.306
 5156SOL     OW26686   5.053   1.722   2.741
 5156SOL    HW126687   5.152   1.710   2.736
 5156SOL    HW226688   5.032   1.786   2.815
 5157SOL     OW26689   0.663   1.173   6.192
 5157SOL    HW126690   0.752   1.215   6.172
 5157SOL    HW226691   0.592   1.243   6.184
 5158SOL     OW26692   2.818   8.080   5.058
 5158SOL    HW126693   2.851   8.130   5.139
 5158SOL    HW226694   2.742   8.130   5.017
 5159SOL     OW26695   8.233   4.032   0.207
 5159SOL    HW126696   8.220   4.012   0.110
 5159SOL    HW226697   8.312   3.982   0.241
 5160SOL     OW26698   4.518   8.683   3.315
 5160SOL    HW126699   4.568   8.709   3.398
 5160SOL    HW226700   4.500   8.765   3.260
 5161SOL     OW26701   2.307   9.073   0.193
 5161SOL    HW126702   2.284   9.140   0.122
 5161SOL    HW226703   2.263   8.986   0.172
 5162SOL     OW26704   9.899   9.614   2.976
 5162SOL    HW126705   9.953   9.620   3.060
 5162SOL    HW226706   9.869   9.520   2.962
 5163SOL     OW26707   2.869   5.325   0.239
 5163SOL    HW126708   2.887   5.420   0.216
 5163SOL    HW226709   2.798   5.289   0.178
 5164SOL     OW26710   0.049   0.973   1.826
 5164SOL    HW126711   0.056   0.894   1.766
 5164SOL    HW226712   0.141   1.009   1.844
 5165SOL     OW26713   7.966   3.594   2.802
 5165SOL    HW126714   8.048   3.538   2.818
 5165SOL    HW226715   7.898   3.540   2.752
 5166SOL     OW26716   9.474   7.110   1.568
 5166SOL    HW126717   9.442   7.193   1.521
 5166SOL    HW226718   9.572   7.100   1.554
 5167SOL     OW26719   2.022   0.634   0.261
 5167SOL    HW126720   2.000   0.611   0.355
 5167SOL    HW226721   1.951   0.694   0.223
 5168SOL     OW26722   0.656   0.088   1.907
 5168SOL    HW126723   0.569   0.079   1.859
 5168SOL    HW226724   0.651   0.039   1.994
 5169SOL     OW26725   8.088   7.039   2.337
 5169SOL    HW126726   8.153   7.007   2.406
 5169SOL    HW226727   8.032   6.962   2.306
 5170SOL     OW26728   9.244   7.356   3.034
 5170SOL    HW126729   9.193   7.437   3.005
 5170SOL    HW226730   9.193   7.307   3.104
 5171SOL     OW26731   9.552   3.474   0.264
 5171SOL    HW126732   9.603   3.462   0.349
 5171SOL    HW226733   9.481   3.543   0.276
 5172SOL     OW26734   5.727   0.620   1.029
 5172SOL    HW126735   5.761   0.670   0.949
 5172SOL    HW226736   5.630   0.642   1.044
 5173SOL     OW26737   1.931   8.276   4.146
 5173SOL    HW126738   1.899   8.320   4.230
 5173SOL    HW226739   1.852   8.253   4.088
 5174SOL     OW26740   0.846   6.363   6.090
 5174SOL    HW126741   0.910   6.333   6.019
 5174SOL    HW226742   0.863   6.459   6.111
 5175SOL     OW26743   9.143   4.177   2.724
 5175SOL    HW126744   9.071   4.151   2.788
 5175SOL    HW226745   9.111   4.252   2.666
 5176SOL     OW26746   8.132   0.704   4.581
 5176SOL    HW126747   8.035   0.686   4.596
 5176SOL    HW226748   8.182   0.617   4.578
 5177SOL     OW26749   7.847   1.747   2.602
 5177SOL    HW126750   7.750   1.739   2.627
 5177SOL    HW226751   7.886   1.828   2.645
 5178SOL     OW26752   4.243   9.903   6.206
 5178SOL    HW126753   4.265   9.986   6.257
 5178SOL    HW226754   4.325   9.848   6.194
 5179SOL     OW26755   2.467   7.585   0.563
 5179SOL    HW126756   2.507   7.516   0.503
 5179SOL    HW226757   2.516   7.586   0.650
 5180SOL     OW26758   4.719   1.659   2.734
 5180SOL    HW126759   4.635   1.607   2.753
 5180SOL    HW226760   4.773   1.665   2.818
 5181SOL     OW26761   8.130   7.492   3.593
 5181SOL    HW126762   8.184   7.526   3.670
 5181SOL    HW226763   8.037   7.471   3.625
 5182SOL     OW26764   9.763   5.758   5.336
 5182SOL    HW126765   9.807   5.672   5.311
 5182SOL    HW226766   9.706   5.744   5.417
 5183SOL     OW26767   3.762   6.451   1.536
 5183SOL    HW126768   3.757   6.367   1.482
 5183SOL    HW226769   3.681   6.506   1.519
 5184SOL     OW26770   7.135   2.227   3.913
 5184SOL    HW126771   7.139   2.323   3.885
 5184SOL    HW226772   7.062   2.181   3.863
 5185SOL     OW26773   4.729   4.341   0.192
 5185SOL    HW126774   4.723   4.369   0.096
 5185SOL    HW226775   4.673   4.259   0.206
 5186SOL     OW26776   1.519   5.707   3.277
 5186SOL    HW126777   1.593   5.766   3.245
 5186SOL    HW226778   1.456   5.760   3.333
 5187SOL     OW26779   0.518   8.952   5.025
 5187SOL    HW126780   0.441   8.895   4.996
 5187SOL    HW226781   0.505   9.045   4.992
 5188SOL     OW26782   4.408   3.303   2.702
 5188SOL    HW126783   4.484   3.317   2.765
 5188SOL    HW226784   4.337   3.372   2.719
 5189SOL     OW26785   1.813   0.587   3.899
 5189SOL    HW126786   1.865   0.596   3.814
 5189SOL    HW226787   1.746   0.514   3.890
 5190SOL     OW26788   2.653   9.008   1.051
 5190SOL    HW126789   2.685   9.036   1.141
 5190SOL    HW226790   2.697   8.922   1.024
 5191SOL     OW26791   1.425   9.676   0.941
 5191SOL    HW126792   1.479   9.595   0.915
 5191SOL    HW226793   1.400   9.669   1.037
 5192SOL     OW26794   5.863   8.776   2.765
 5192SOL    HW126795   5.958   8.787   2.794
 5192SOL    HW226796   5.848   8.682   2.736
 5193SOL     OW26797   1.704   2.649   4.987
 5193SOL    HW126798   1.673   2.589   5.060
 5193SOL    HW226799   1.759   2.597   4.921
 5194SOL     OW26800   8.931   1.661   1.490
 5194SOL    HW126801   8.968   1.633   1.578
 5194SOL    HW226802   8.988   1.623   1.416
 5195SOL     OW26803   9.243   7.402   4.245
 5195SOL    HW126804   9.164   7.352   4.280
 5195SOL    HW226805   9.287   7.452   4.319
 5196SOL     OW26806   2.171   7.794   2.162
 5196SOL    HW126807   2.235   7.868   2.183
 5196SOL    HW226808   2.190   7.758   2.070
 5197SOL     OW26809   2.884   6.332   5.962
 5197SOL    HW126810   2.913   6.264   6.030
 5197SOL    HW226811   2.943   6.412   5.967
 5198SOL     OW26812   9.028   0.641   5.409
 5198SOL    HW126813   8.957   0.575   5.432
 5198SOL    HW226814   8.994   0.734   5.425
 5199SOL     OW26815   0.612   4.461   0.782
 5199SOL    HW126816   0.590   4.488   0.875
 5199SOL    HW226817   0.595   4.363   0.769
 5200SOL     OW26818   5.463   8.900   4.383
 5200SOL    HW126819   5.392   8.864   4.445
 5200SOL    HW226820   5.456   8.854   4.294
 5201SOL     OW26821   0.963   8.095   6.299
 5201SOL    HW126822   0.905   8.086   6.218
 5201SOL    HW226823   1.022   8.014   6.306
 5202SOL     OW26824   6.171   0.645   4.034
 5202SOL    HW126825   6.075   0.666   4.052
 5202SOL    HW226826   6.228   0.684   4.107
 5203SOL     OW26827   1.122   0.657   5.371
 5203SOL    HW126828   1.108   0.755   5.354
 5203SOL    HW226829   1.120   0.607   5.285
 5204SOL     OW26830   4.373   6.005   0.181
 5204SOL    HW126831   4.330   6.000   0.090
 5204SOL    HW226832   4.331   6.079   0.234
 5205SOL     OW26833   2.901   8.128   1.596
 5205SOL    HW126834   2.961   8.076   1.657
 5205SOL    HW226835   2.955   8.166   1.521
 5206SOL     OW26836   9.336   4.083   0.175
 5206SOL    HW126837   9.332   4.087   0.275
 5206SOL    HW226838   9.258   4.131   0.136
 5207SOL     OW26839   9.137   4.992   2.082
 5207SOL    HW126840   9.105   5.002   2.177
 5207SOL    HW226841   9.229   5.030   2.074
 5208SOL     OW26842   6.267   0.022   2.173
 5208SOL    HW126843   6.260   0.119   2.198
 5208SOL    HW226844   6.243   0.011   2.077
 5209SOL     OW26845   7.569   0.639   1.568
 5209SOL    HW126846   7.632   0.687   1.628
 5209SOL    HW226847   7.494   0.700   1.541
 5210SOL     OW26848   7.864   7.643   5.861
 5210SOL    HW126849   7.931   7.595   5.917
 5210SOL    HW226850   7.808   7.703   5.918
 5211SOL     OW26851   0.491   3.698   0.075
 5211SOL    HW126852   0.567   3.677   0.137
 5211SOL    HW226853   0.523   3.698   8.169
 5212SOL     OW26854   8.383   3.746   0.922
 5212SOL    HW126855   8.309   3.779   0.981
 5212SOL    HW226856   8.378   3.647   0.916
 5213SOL     OW26857   0.379   2.952   1.285
 5213SOL    HW126858   0.350   2.867   1.328
 5213SOL    HW226859   0.452   2.994   1.339
 5214SOL     OW26860   3.244   9.196   3.838
 5214SOL    HW126861   3.178   9.269   3.854
 5214SOL    HW226862   3.336   9.234   3.828
 5215SOL     OW26863   9.956   9.916   4.637
 5215SOL    HW126864   9.958   9.816   4.640
 5215SOL    HW226865   0.045   9.950   4.608
 5216SOL     OW26866   8.231   5.324   0.146
 5216SOL    HW126867   8.280   5.244   0.181
 5216SOL    HW226868   8.212   5.311   0.048
 5217SOL     OW26869   9.282   3.742   1.022
 5217SOL    HW126870   9.317   3.749   1.116
 5217SOL    HW226871   9.190   3.702   1.024
 5218SOL     OW26872   8.812   6.970   6.080
 5218SOL    HW126873   8.901   6.960   6.123
 5218SOL    HW226874   8.815   7.043   6.012
 5219SOL     OW26875   7.246   9.944   3.213
 5219SOL    HW126876   7.314   9.908   3.150
 5219SOL    HW226877   7.219   0.036   3.185
 5220SOL     OW26878   9.753   4.077   1.675
 5220SOL    HW126879   9.679   4.010   1.667
 5220SOL    HW226880   9.841   4.031   1.664
 5221SOL     OW26881   3.905   6.573   0.361
 5221SOL    HW126882   3.915   6.659   0.310
 5221SOL    HW226883   3.814   6.570   0.403
 5222SOL     OW26884   0.969   2.519   2.795
 5222SOL    HW126885   0.886   2.514   2.740
 5222SOL    HW226886   0.945   2.533   2.891
 5223SOL     OW26887   9.103   5.544   4.763
 5223SOL    HW126888   9.095   5.643   4.751
 5223SOL    HW226889   9.072   5.519   4.854
 5224SOL     OW26890   8.470   9.363   4.163
 5224SOL    HW126891   8.426   9.301   4.227
 5224SOL    HW226892   8.413   9.443   4.148
 5225SOL     OW26893   4.278   6.152   3.626
 5225SOL    HW126894   4.364   6.179   3.581
 5225SOL    HW226895   4.204   6.151   3.558
 5226SOL     OW26896   3.994   0.121   5.500
 5226SOL    HW126897   4.055   0.084   5.570
 5226SOL    HW226898   3.951   0.045   5.450
 5227SOL     OW26899   4.974   5.349   1.966
 5227SOL    HW126900   5.048   5.294   2.006
 5227SOL    HW226901   4.907   5.288   1.923
 5228SOL     OW26902   8.382   1.059   6.108
 5228SOL    HW126903   8.405   1.088   6.015
 5228SOL    HW226904   8.387   0.959   6.114
 5229SOL     OW26905   9.750   7.314   2.139
 5229SOL    HW126906   9.759   7.216   2.157
 5229SOL    HW226907   9.766   7.365   2.223
 5230SOL     OW26908   8.139   3.470   4.808
 5230SOL    HW126909   8.229   3.507   4.831
 5230SOL    HW226910   8.071   3.543   4.812
 5231SOL     OW26911   9.761   4.337   1.597
 5231SOL    HW126912   9.729   4.347   1.503
 5231SOL    HW226913   9.745   4.243   1.627
 5232SOL     OW26914   2.580   5.230   1.410
 5232SOL    HW126915   2.592   5.248   1.508
 5232SOL    HW226916   2.507   5.287   1.374
 5233SOL     OW26917   8.165   2.937   4.711
 5233SOL    HW126918   8.136   2.954   4.805
 5233SOL    HW226919   8.085   2.938   4.651
 5234SOL     OW26920   5.224   9.886   3.432
 5234SOL    HW126921   5.250   9.855   3.341
 5234SOL    HW226922   5.305   9.912   3.484
 5235SOL     OW26923   4.132   9.909   0.465
 5235SOL    HW126924   4.110   9.837   0.399
 5235SOL    HW226925   4.160   9.868   0.551
 5236SOL     OW26926   0.981   8.249   1.013
 5236SOL    HW126927   1.017   8.237   1.105
 5236SOL    HW226928   0.927   8.333   1.009
 5237SOL     OW26929   7.447   0.306   4.571
 5237SOL    HW126930   7.542   0.302   4.541
 5237SOL    HW226931   7.395   0.368   4.512
 5238SOL     OW26932   0.107   7.702   3.529
 5238SOL    HW126933   0.153   7.653   3.455
 5238SOL    HW226934   0.036   7.762   3.490
 5239SOL     OW26935   2.995   1.859   0.587
 5239SOL    HW126936   2.950   1.874   0.675
 5239SOL    HW226937   3.011   1.761   0.574
 5240SOL     OW26938   2.424   3.556   3.004
 5240SOL    HW126939   2.425   3.617   3.083
 5240SOL    HW226940   2.418   3.461   3.034
 5241SOL     OW26941   0.070   2.711   2.208
 5241SOL    HW126942   0.075   2.808   2.233
 5241SOL    HW226943   9.990   2.696   2.149
 5242SOL     OW26944   4.932   2.698   0.567
 5242SOL    HW126945   4.934   2.774   0.502
 5242SOL    HW226946   4.856   2.710   0.631
 5243SOL     OW26947   3.569   7.612   5.688
 5243SOL    HW126948   3.538   7.699   5.650
 5243SOL    HW226949   3.577   7.620   5.787
 5244SOL     OW26950   7.651   7.503   3.785
 5244SOL    HW126951   7.628   7.468   3.694
 5244SOL    HW226952   7.605   7.590   3.799
 5245SOL     OW26953   2.101   3.519   0.361
 5245SOL    HW126954   2.198   3.512   0.384
 5245SOL    HW226955   2.086   3.600   0.305
 5246SOL     OW26956   2.218   0.946   1.900
 5246SOL    HW126957   2.208   1.041   1.927
 5246SOL    HW226958   2.308   0.912   1.929
 5247SOL     OW26959   0.334   8.929   5.791
 5247SOL    HW126960   0.245   8.974   5.777
 5247SOL    HW226961   0.359   8.933   5.888
 5248SOL     OW26962   8.180   8.974   6.339
 5248SOL    HW126963   8.105   9.040   6.335
 5248SOL    HW226964   8.186   8.936   6.431
 5249SOL     OW26965   8.967   3.584   5.411
 5249SOL    HW126966   8.980   3.657   5.478
 5249SOL    HW226967   9.041   3.517   5.420
 5250SOL     OW26968   4.105   0.874   0.708
 5250SOL    HW126969   4.203   0.888   0.719
 5250SOL    HW226970   4.088   0.820   0.626
 5251SOL     OW26971   4.053   2.849   3.106
 5251SOL    HW126972   4.090   2.865   3.014
 5251SOL    HW226973   4.046   2.751   3.123
 5252SOL     OW26974   8.753   5.152   4.062
 5252SOL    HW126975   8.805   5.179   3.981
 5252SOL    HW226976   8.779   5.059   4.089
 5253SOL     OW26977   7.324   0.474   4.397
 5253SOL    HW126978   7.387   0.461   4.321
 5253SOL    HW226979   7.280   0.564   4.390
 5254SOL     OW26980   1.950   2.757   2.013
 5254SOL    HW126981   1.903   2.676   1.977
 5254SOL    HW226982   1.988   2.810   1.937
 5255SOL     OW26983   3.839   7.429   3.487
 5255SOL    HW126984   3.868   7.448   3.581
 5255SOL    HW226985   3.752   7.476   3.469
 5256SOL     OW26986   7.129   7.108   3.471
 5256SOL    HW126987   7.176   7.020   3.458
 5256SOL    HW226988   7.116   7.125   3.568
 5257SOL     OW26989   4.320   8.003   5.887
 5257SOL    HW126990   4.389   7.978   5.818
 5257SOL    HW226991   4.287   7.921   5.933
 5258SOL     OW26992   4.538   0.657   3.024
 5258SOL    HW126993   4.440   0.636   3.030
 5258SOL    HW226994   4.583   0.591   2.963
 5259SOL     OW26995   0.220   3.513   5.263
 5259SOL    HW126996   0.307   3.539   5.306
 5259SOL    HW226997   0.148   3.576   5.291
 5260SOL     OW26998   6.177   0.239   3.849
 5260SOL    HW126999   6.246   0.196   3.907
 5260SOL    HW227000   6.091   0.247   3.899
 5261SOL     OW27001   6.954   9.849   2.070
 5261SOL    HW127002   6.953   9.754   2.101
 5261SOL    HW227003   7.048   9.874   2.045
 5262SOL     OW27004   2.970   1.865   4.443
 5262SOL    HW127005   3.056   1.832   4.405
 5262SOL    HW227006   2.906   1.887   4.369
 5263SOL     OW27007   6.251   8.614   2.903
 5263SOL    HW127008   6.200   8.700   2.893
 5263SOL    HW227009   6.330   8.615   2.843
 5264SOL     OW27010   5.298   9.990   2.235
 5264SOL    HW127011   5.273   9.893   2.239
 5264SOL    HW227012   5.277   0.025   2.144
 5265SOL     OW27013   2.461   8.229   6.165
 5265SOL    HW127014   2.456   8.145   6.219
 5265SOL    HW227015   2.369   8.265   6.150
 5266SOL     OW27016   7.861   2.761   3.638
 5266SOL    HW127017   7.907   2.765   3.550
 5266SOL    HW227018   7.923   2.722   3.706
 5267SOL     OW27019   4.790   9.110   4.693
 5267SOL    HW127020   4.837   9.198   4.702
 5267SOL    HW227021   4.771   9.074   4.784
 5268SOL     OW27022   2.780   3.062   1.702
 5268SOL    HW127023   2.775   3.070   1.602
 5268SOL    HW227024   2.693   3.029   1.738
 5269SOL     OW27025   5.225   1.880   1.664
 5269SOL    HW127026   5.126   1.880   1.651
 5269SOL    HW227027   5.265   1.959   1.617
 5270SOL     OW27028   1.669   4.319   4.716
 5270SOL    HW127029   1.703   4.412   4.705
 5270SOL    HW227030   1.644   4.281   4.627
 5271SOL     OW27031   0.378   1.540   1.896
 5271SOL    HW127032   0.283   1.507   1.897
 5271SOL    HW227033   0.402   1.569   1.803
 5272SOL     OW27034   1.954   6.263   3.711
 5272SOL    HW127035   2.052   6.244   3.716
 5272SOL    HW227036   1.903   6.177   3.709
 5273SOL     OW27037   0.216   3.932   2.348
 5273SOL    HW127038   0.290   3.907   2.285
 5273SOL    HW227039   0.240   4.016   2.396
 5274SOL     OW27040   5.028   9.203   3.725
 5274SOL    HW127041   4.998   9.201   3.629
 5274SOL    HW227042   5.069   9.292   3.745
 5275SOL     OW27043   9.938   3.164   2.408
 5275SOL    HW127044   9.871   3.235   2.383
 5275SOL    HW227045   9.955   3.167   2.506
 5276SOL     OW27046   6.243   1.630   1.796
 5276SOL    HW127047   6.182   1.643   1.717
 5276SOL    HW227048   6.306   1.555   1.777
 5277SOL     OW27049   3.957   8.972   6.290
 5277SOL    HW127050   3.877   8.921   6.323
 5277SOL    HW227051   3.928   9.064   6.261
 5278SOL     OW27052   4.180   8.686   2.665
 5278SOL    HW127053   4.265   8.636   2.685
 5278SOL    HW227054   4.140   8.719   2.751
 5279SOL     OW27055   3.905   3.125   4.016
 5279SOL    HW127056   3.914   3.056   3.944
 5279SOL    HW227057   3.850   3.201   3.982
 5280SOL     OW27058   9.708   8.726   1.550
 5280SOL    HW127059   9.733   8.776   1.468
 5280SOL    HW227060   9.782   8.733   1.618
 5281SOL     OW27061   3.662   8.825   1.084
 5281SOL    HW127062   3.581   8.807   1.140
 5281SOL    HW227063   3.692   8.739   1.042
 5282SOL     OW27064   9.502   0.813   4.742
 5282SOL    HW127065   9.572   0.745   4.722
 5282SOL    HW227066   9.485   0.815   4.841
 5283SOL     OW27067   1.486   4.932   1.091
 5283SOL    HW127068   1.583   4.957   1.092
 5283SOL    HW227069   1.454   4.930   0.996
 5284SOL     OW27070   4.134   0.083   4.608
 5284SOL    HW127071   4.147   0.039   4.697
 5284SOL    HW227072   4.185   0.169   4.605
 5285SOL     OW27073   4.322   3.767   0.885
 5285SOL    HW127074   4.415   3.781   0.851
 5285SOL    HW227075   4.288   3.678   0.855
 5286SOL     OW27076   8.084   2.117   6.342
 5286SOL    HW127077   8.025   2.176   6.396
 5286SOL    HW227078   8.029   2.064   6.278
 5287SOL     OW27079   0.422   8.134   1.485
 5287SOL    HW127080   0.404   8.038   1.509
 5287SOL    HW227081   0.413   8.146   1.386
 5288SOL     OW27082   7.700   5.046   0.637
 5288SOL    HW127083   7.721   5.115   0.567
 5288SOL    HW227084   7.761   4.968   0.626
 5289SOL     OW27085   2.709   0.519   4.962
 5289SOL    HW127086   2.662   0.554   5.043
 5289SOL    HW227087   2.778   0.586   4.932
 5290SOL     OW27088   8.454   1.234   1.812
 5290SOL    HW127089   8.420   1.313   1.863
 5290SOL    HW227090   8.445   1.152   1.869
 5291SOL     OW27091   9.347   0.634   3.039
 5291SOL    HW127092   9.307   0.640   2.948
 5291SOL    HW227093   9.341   0.723   3.084
 5292SOL     OW27094   2.864   5.928   0.432
 5292SOL    HW127095   2.943   5.975   0.393
 5292SOL    HW227096   2.825   5.866   0.365
 5293SOL     OW27097   0.629   2.703   4.057
 5293SOL    HW127098   0.580   2.617   4.075
 5293SOL    HW227099   0.570   2.764   4.005
 5294SOL     OW27100   9.837   8.069   4.622
 5294SOL    HW127101   9.898   8.097   4.696
 5294SOL    HW227102   9.816   7.972   4.631
 5295SOL     OW27103   8.659   6.950   5.186
 5295SOL    HW127104   8.748   6.995   5.191
 5295SOL    HW227105   8.588   7.014   5.216
 5296SOL     OW27106   3.576   4.275   1.162
 5296SOL    HW127107   3.568   4.243   1.256
 5296SOL    HW227108   3.489   4.315   1.132
 5297SOL     OW27109   7.274   1.663   2.765
 5297SOL    HW127110   7.325   1.580   2.788
 5297SOL    HW227111   7.231   1.652   2.675
 5298SOL     OW27112   8.911   3.875   1.017
 5298SOL    HW127113   8.956   3.785   1.017
 5298SOL    HW227114   8.813   3.863   1.004
 5299SOL     OW27115   7.629   1.017   4.628
 5299SOL    HW127116   7.586   0.927   4.636
 5299SOL    HW227117   7.595   1.062   4.545
 5300SOL     OW27118   9.815   6.763   6.085
 5300SOL    HW127119   9.845   6.796   5.996
 5300SOL    HW227120   9.824   6.663   6.089
 5301SOL     OW27121   8.228   9.327   0.181
 5301SOL    HW127122   8.182   9.398   0.127
 5301SOL    HW227123   8.169   9.300   0.257
 5302SOL     OW27124   9.347   4.435   4.364
 5302SOL    HW127125   9.357   4.506   4.294
 5302SOL    HW227126   9.434   4.424   4.413
 5303SOL     OW27127   1.961   3.540   5.725
 5303SOL    HW127128   1.881   3.572   5.777
 5303SOL    HW227129   1.950   3.563   5.629
 5304SOL     OW27130   2.451   3.396   0.163
 5304SOL    HW127131   2.546   3.394   0.133
 5304SOL    HW227132   2.412   3.304   0.158
 5305SOL     OW27133   3.271   4.923   2.525
 5305SOL    HW127134   3.175   4.912   2.552
 5305SOL    HW227135   3.281   5.007   2.471
 5306SOL     OW27136   3.171   4.975   3.802
 5306SOL    HW127137   3.260   4.929   3.798
 5306SOL    HW227138   3.183   5.072   3.779
 5307SOL     OW27139   7.343   7.147   4.593
 5307SOL    HW127140   7.328   7.057   4.634
 5307SOL    HW227141   7.289   7.155   4.509
 5308SOL     OW27142   4.298   9.733   3.375
 5308SOL    HW127143   4.306   9.832   3.377
 5308SOL    HW227144   4.307   9.696   3.468
 5309SOL     OW27145   8.860   9.395   0.119
 5309SOL    HW127146   8.808   9.312   0.099
 5309SOL    HW227147   8.958   9.377   0.107
 5310SOL     OW27148   3.546   3.976   5.080
 5310SOL    HW127149   3.449   3.957   5.092
 5310SOL    HW227150   3.558   4.051   5.014
 5311SOL     OW27151   6.224   9.793   3.812
 5311SOL    HW127152   6.289   9.760   3.879
 5311SOL    HW227153   6.235   9.742   3.726
 5312SOL     OW27154   8.551   8.593   1.988
 5312SOL    HW127155   8.623   8.536   2.027
 5312SOL    HW227156   8.591   8.659   1.924
 5313SOL     OW27157   7.444   5.767   1.059
 5313SOL    HW127158   7.466   5.800   1.151
 5313SOL    HW227159   7.525   5.725   1.018
 5314SOL     OW27160   0.334   0.973   0.266
 5314SOL    HW127161   0.393   1.011   0.195
 5314SOL    HW227162   0.298   1.047   0.322
 5315SOL     OW27163   0.260   3.373   6.099
 5315SOL    HW127164   0.255   3.276   6.078
 5315SOL    HW227165   0.355   3.398   6.119
 5316SOL     OW27166   6.817   0.915   6.368
 5316SOL    HW127167   6.824   1.006   6.326
 5316SOL    HW227168   6.721   0.888   6.373
 5317SOL     OW27169   8.400   2.382   3.705
 5317SOL    HW127170   8.407   2.306   3.769
 5317SOL    HW227171   8.338   2.452   3.741
 5318SOL     OW27172   8.177   9.777   5.339
 5318SOL    HW127173   8.116   9.765   5.417
 5318SOL    HW227174   8.128   9.823   5.265
 5319SOL     OW27175   3.391   6.125   5.845
 5319SOL    HW127176   3.315   6.106   5.783
 5319SOL    HW227177   3.386   6.221   5.876
 5320SOL     OW27178   4.772   2.958   1.542
 5320SOL    HW127179   4.836   3.024   1.583
 5320SOL    HW227180   4.750   2.887   1.608
 5321SOL     OW27181   4.767   8.498   5.534
 5321SOL    HW127182   4.851   8.525   5.582
 5321SOL    HW227183   4.787   8.482   5.437
 5322SOL     OW27184   1.488   9.325   6.230
 5322SOL    HW127185   1.463   9.260   6.301
 5322SOL    HW227186   1.518   9.275   6.148
 5323SOL     OW27187   6.495   9.794   2.736
 5323SOL    HW127188   6.479   9.723   2.805
 5323SOL    HW227189   6.489   9.752   2.645
 5324SOL     OW27190   9.608   1.533   4.758
 5324SOL    HW127191   9.652   1.445   4.737
 5324SOL    HW227192   9.675   1.596   4.797
 5325SOL     OW27193   2.881   0.540   2.205
 5325SOL    HW127194   2.822   0.459   2.201
 5325SOL    HW227195   2.937   0.544   2.122
 5326SOL     OW27196   2.903   5.277   6.148
 5326SOL    HW127197   2.990   5.325   6.140
 5326SOL    HW227198   2.828   5.344   6.146
 5327SOL     OW27199   4.078   1.780   5.561
 5327SOL    HW127200   4.156   1.777   5.623
 5327SOL    HW227201   3.994   1.789   5.613
 5328SOL     OW27202   1.156   5.940   2.601
 5328SOL    HW127203   1.135   6.003   2.676
 5328SOL    HW227204   1.071   5.903   2.563
 5329SOL     OW27205   6.381   7.558   3.620
 5329SOL    HW127206   6.404   7.647   3.582
 5329SOL    HW227207   6.348   7.498   3.547
 5330SOL     OW27208   1.933   9.824   2.778
 5330SOL    HW127209   1.928   9.895   2.708
 5330SOL    HW227210   2.027   9.818   2.813
 5331SOL     OW27211   2.840   3.977   0.260
 5331SOL    HW127212   2.883   3.897   0.218
 5331SOL    HW227213   2.904   4.054   0.255
 5332SOL     OW27214   3.752   7.237   2.299
 5332SOL    HW127215   3.778   7.166   2.234
 5332SOL    HW227216   3.831   7.262   2.355
 5333SOL     OW27217   7.784   4.022   4.148
 5333SOL    HW127218   7.724   4.096   4.180
 5333SOL    HW227219   7.776   4.013   4.049
 5334SOL     OW27220   2.716   1.745   2.686
 5334SOL    HW127221   2.775   1.810   2.733
 5334SOL    HW227222   2.714   1.766   2.588
 5335SOL     OW27223   4.205   5.824   2.696
 5335SOL    HW127224   4.203   5.782   2.606
 5335SOL    HW227225   4.115   5.819   2.738
 5336SOL     OW27226   2.411   7.986   1.909
 5336SOL    HW127227   2.495   7.963   1.859
 5336SOL    HW227228   2.357   8.050   1.855
 5337SOL     OW27229   9.234   0.278   2.835
 5337SOL    HW127230   9.148   0.285   2.785
 5337SOL    HW227231   9.305   0.330   2.788
 5338SOL     OW27232   0.327   7.099   4.712
 5338SOL    HW127233   0.344   7.164   4.637
 5338SOL    HW227234   0.368   7.134   4.796
 5339SOL     OW27235   8.498   2.950   3.871
 5339SOL    HW127236   8.471   3.029   3.927
 5339SOL    HW227237   8.429   2.936   3.799
 5340SOL     OW27238   6.199   0.293   4.677
 5340SOL    HW127239   6.150   0.213   4.712
 5340SOL    HW227240   6.211   0.360   4.751
 5341SOL     OW27241   2.225   9.089   0.659
 5341SOL    HW127242   2.305   9.149   0.668
 5341SOL    HW227243   2.251   9.006   0.611
 5342SOL     OW27244   8.515   8.545   5.038
 5342SOL    HW127245   8.418   8.523   5.032
 5342SOL    HW227246   8.559   8.484   5.103
 5343SOL     OW27247   0.988   3.399   4.635
 5343SOL    HW127248   1.015   3.345   4.556
 5343SOL    HW227249   1.067   3.409   4.697
 5344SOL     OW27250   9.957   8.699   2.200
 5344SOL    HW127251   0.046   8.656   2.188
 5344SOL    HW227252   9.904   8.648   2.269
 5345SOL     OW27253   9.142   0.166   1.877
 5345SOL    HW127254   9.055   0.183   1.924
 5345SOL    HW227255   9.196   0.100   1.928
 5346SOL     OW27256   5.134   0.458   2.310
 5346SOL    HW127257   5.094   0.385   2.255
 5346SOL    HW227258   5.174   0.527   2.249
 5347SOL     OW27259   6.496   7.862   3.155
 5347SOL    HW127260   6.573   7.806   3.185
 5347SOL    HW227261   6.522   7.959   3.155
 5348SOL     OW27262   0.532   3.739   1.914
 5348SOL    HW127263   0.490   3.648   1.914
 5348SOL    HW227264   0.567   3.761   1.823
 5349SOL     OW27265   5.705   8.444   5.596
 5349SOL    HW127266   5.700   8.354   5.639
 5349SOL    HW227267   5.740   8.510   5.663
 5350SOL     OW27268   2.273   3.103   2.397
 5350SOL    HW127269   2.319   3.072   2.480
 5350SOL    HW227270   2.174   3.102   2.412
 5351SOL     OW27271   4.030   4.657   2.326
 5351SOL    HW127272   4.115   4.606   2.335
 5351SOL    HW227273   4.029   4.705   2.239
 5352SOL     OW27274   7.297   0.694   5.443
 5352SOL    HW127275   7.369   0.755   5.410
 5352SOL    HW227276   7.337   0.620   5.496
 5353SOL     OW27277   4.694   5.558   3.316
 5353SOL    HW127278   4.680   5.637   3.376
 5353SOL    HW227279   4.630   5.562   3.240
 5354SOL     OW27280   9.757   8.760   4.692
 5354SOL    HW127281   9.851   8.767   4.657
 5354SOL    HW227282   9.719   8.670   4.668
 5355SOL     OW27283   6.480   7.758   6.090
 5355SOL    HW127284   6.420   7.825   6.134
 5355SOL    HW227285   6.457   7.753   5.993
 5356SOL     OW27286   2.837   6.833   4.563
 5356SOL    HW127287   2.869   6.918   4.521
 5356SOL    HW227288   2.738   6.841   4.581
 5357SOL     OW27289   2.602   3.380   1.677
 5357SOL    HW127290   2.555   3.326   1.607
 5357SOL    HW227291   2.582   3.342   1.768
 5358SOL     OW27292   9.690   7.956   6.096
 5358SOL    HW127293   9.626   8.033   6.093
 5358SOL    HW227294   9.738   7.949   6.008
 5359SOL     OW27295   8.749   0.749   0.724
 5359SOL    HW127296   8.714   0.793   0.642
 5359SOL    HW227297   8.775   0.655   0.704
 5360SOL     OW27298   4.154   7.769   3.414
 5360SOL    HW127299   4.094   7.695   3.383
 5360SOL    HW227300   4.197   7.743   3.500
 5361SOL     OW27301   7.800   5.467   0.569
 5361SOL    HW127302   7.717   5.517   0.595
 5361SOL    HW227303   7.775   5.378   0.530
 5362SOL     OW27304   0.302   9.358   5.519
 5362SOL    HW127305   0.301   9.258   5.526
 5362SOL    HW227306   0.394   9.389   5.495
 5363SOL     OW27307   2.261   3.614   1.532
 5363SOL    HW127308   2.355   3.621   1.565
 5363SOL    HW227309   2.239   3.518   1.513
 5364SOL     OW27310   3.526   0.482   1.015
 5364SOL    HW127311   3.564   0.570   0.988
 5364SOL    HW227312   3.432   0.475   0.980
 5365SOL     OW27313   7.621   8.050   2.615
 5365SOL    HW127314   7.669   7.964   2.601
 5365SOL    HW227315   7.684   8.119   2.651
 5366SOL     OW27316   0.107   4.125   0.838
 5366SOL    HW127317   0.085   4.222   0.846
 5366SOL    HW227318   0.185   4.104   0.897
 5367SOL     OW27319   7.599   6.887   1.963
 5367SOL    HW127320   7.672   6.939   1.920
 5367SOL    HW227321   7.527   6.949   1.994
 5368SOL     OW27322   4.169   8.906   4.898
 5368SOL    HW127323   4.250   8.952   4.934
 5368SOL    HW227324   4.115   8.869   4.974
 5369SOL     OW27325   5.991   4.863   0.849
 5369SOL    HW127326   5.998   4.949   0.900
 5369SOL    HW227327   6.083   4.827   0.833
 5370SOL     OW27328   7.270   2.324   1.402
 5370SOL    HW127329   7.249   2.261   1.476
 5370SOL    HW227330   7.365   2.356   1.411
 5371SOL     OW27331   0.672   8.916   1.957
 5371SOL    HW127332   0.651   8.845   2.025
 5371SOL    HW227333   0.736   8.879   1.890
 5372SOL     OW27334   8.183   0.437   3.615
 5372SOL    HW127335   8.196   0.500   3.692
 5372SOL    HW227336   8.171   0.490   3.531
 5373SOL     OW27337   3.698   5.746   0.887
 5373SOL    HW127338   3.721   5.660   0.934
 5373SOL    HW227339   3.606   5.775   0.912
 5374SOL     OW27340   4.892   7.303   3.354
 5374SOL    HW127341   4.863   7.276   3.446
 5374SOL    HW227342   4.903   7.221   3.297
 5375SOL     OW27343   9.999   4.212   5.247
 5375SOL    HW127344   0.089   4.229   5.208
 5375SOL    HW227345   9.948   4.299   5.252
 5376SOL     OW27346   7.772   5.652   1.415
 5376SOL    HW127347   7.802   5.713   1.342
 5376SOL    HW227348   7.819   5.564   1.406
 5377SOL     OW27349   0.737   4.252   5.174
 5377SOL    HW127350   0.651   4.277   5.130
 5377SOL    HW227351   0.784   4.183   5.120
 5378SOL     OW27352   9.341   6.687   1.715
 5378SOL    HW127353   9.292   6.604   1.690
 5378SOL    HW227354   9.288   6.738   1.783
 5379SOL     OW27355   1.407   8.318   4.811
 5379SOL    HW127356   1.436   8.240   4.756
 5379SOL    HW227357   1.349   8.379   4.756
 5380SOL     OW27358   1.698   9.379   5.917
 5380SOL    HW127359   1.635   9.455   5.928
 5380SOL    HW227360   1.658   9.296   5.957
 5381SOL     OW27361   1.739   7.919   6.030
 5381SOL    HW127362   1.763   7.890   6.122
 5381SOL    HW227363   1.700   7.842   5.979
 5382SOL     OW27364   9.141   4.342   3.211
 5382SOL    HW127365   9.056   4.339   3.263
 5382SOL    HW227366   9.218   4.326   3.273
 5383SOL     OW27367   0.655   8.159   0.345
 5383SOL    HW127368   0.564   8.170   0.304
 5383SOL    HW227369   0.675   8.237   0.404
 5384SOL     OW27370   0.536   1.501   5.308
 5384SOL    HW127371   0.614   1.467   5.361
 5384SOL    HW227372   0.514   1.594   5.337
 5385SOL     OW27373   2.194   4.039   2.880
 5385SOL    HW127374   2.183   3.958   2.823
 5385SOL    HW227375   2.234   4.113   2.825
 5386SOL     OW27376   5.557   1.063   1.771
 5386SOL    HW127377   5.642   1.075   1.719
 5386SOL    HW227378   5.548   1.137   1.838
 5387SOL     OW27379   3.973   2.381   0.376
 5387SOL    HW127380   3.896   2.441   0.354
 5387SOL    HW227381   4.056   2.416   0.333
 5388SOL     OW27382   4.019   8.110   6.116
 5388SOL    HW127383   4.032   8.043   6.188
 5388SOL    HW227384   3.943   8.170   6.139
 5389SOL     OW27385   6.286   4.883   1.044
 5389SOL    HW127386   6.295   4.981   1.027
 5389SOL    HW227387   6.282   4.867   1.143
 5390SOL     OW27388   0.044   5.958   5.952
 5390SOL    HW127389   0.132   5.929   5.914
 5390SOL    HW227390   0.007   5.887   6.011
 5391SOL     OW27391   0.325   9.722   5.795
 5391SOL    HW127392   0.389   9.660   5.842
 5391SOL    HW227393   0.231   9.691   5.812
 5392SOL     OW27394   9.562   5.271   5.088
 5392SOL    HW127395   9.614   5.199   5.133
 5392SOL    HW227396   9.622   5.348   5.067
 5393SOL     OW27397   2.878   7.879   2.756
 5393SOL    HW127398   2.906   7.789   2.787
 5393SOL    HW227399   2.790   7.873   2.710
 5394SOL     OW27400   1.578   4.473   0.493
 5394SOL    HW127401   1.601   4.441   0.585
 5394SOL    HW227402   1.618   4.410   0.426
 5395SOL     OW27403   1.797   7.079   2.281
 5395SOL    HW127404   1.843   7.031   2.356
 5395SOL    HW227405   1.708   7.112   2.313
 5396SOL     OW27406   0.882   3.833   0.879
 5396SOL    HW127407   0.917   3.858   0.970
 5396SOL    HW227408   0.946   3.768   0.836
 5397SOL     OW27409   2.969   1.108   0.622
 5397SOL    HW127410   2.913   1.186   0.596
 5397SOL    HW227411   2.912   1.026   0.627
 5398SOL     OW27412   6.134   1.704   3.699
 5398SOL    HW127413   6.068   1.669   3.633
 5398SOL    HW227414   6.226   1.682   3.669
 5399SOL     OW27415   3.205   4.642   5.361
 5399SOL    HW127416   3.268   4.655   5.437
 5399SOL    HW227417   3.244   4.576   5.296
 5400SOL     OW27418   0.576   1.509   1.286
 5400SOL    HW127419   0.506   1.544   1.223
 5400SOL    HW227420   0.557   1.413   1.307
 5401SOL     OW27421   2.593   2.672   3.192
 5401SOL    HW127422   2.516   2.642   3.248
 5401SOL    HW227423   2.612   2.603   3.122
 5402SOL     OW27424   4.928   3.659   1.195
 5402SOL    HW127425   5.021   3.653   1.230
 5402SOL    HW227426   4.903   3.573   1.151
 5403SOL     OW27427   6.451   0.579   4.457
 5403SOL    HW127428   6.492   0.489   4.445
 5403SOL    HW227429   6.523   0.647   4.472
 5404SOL     OW27430   7.882   3.315   1.943
 5404SOL    HW127431   7.809   3.379   1.970
 5404SOL    HW227432   7.920   3.345   1.855
 5405SOL     OW27433   6.135   4.279   1.230
 5405SOL    HW127434   6.180   4.284   1.320
 5405SOL    HW227435   6.125   4.371   1.193
 5406SOL     OW27436   3.213   6.240   4.752
 5406SOL    HW127437   3.215   6.208   4.657
 5406SOL    HW227438   3.253   6.331   4.757
 5407SOL     OW27439   9.324   3.060   3.494
 5407SOL    HW127440   9.224   3.053   3.488
 5407SOL    HW227441   9.362   3.065   3.402
 5408SOL     OW27442   8.885   0.454   4.880
 5408SOL    HW127443   8.845   0.390   4.814
 5408SOL    HW227444   8.982   0.465   4.861
 5409SOL     OW27445   0.264   1.395   5.628
 5409SOL    HW127446   0.245   1.493   5.630
 5409SOL    HW227447   0.205   1.348   5.694
 5410SOL     OW27448   6.802   2.320   4.268
 5410SOL    HW127449   6.898   2.301   4.245
 5410SOL    HW227450   6.760   2.372   4.194
 5411SOL     OW27451   0.705   2.962   3.465
 5411SOL    HW127452   0.704   2.908   3.381
 5411SOL    HW227453   0.663   2.910   3.539
 5412SOL     OW27454   0.371   0.188   6.263
 5412SOL    HW127455   0.363   0.284   6.237
 5412SOL    HW227456   0.436   0.143   6.202
 5413SOL     OW27457   0.415   5.930   4.162
 5413SOL    HW127458   0.339   5.919   4.097
 5413SOL    HW227459   0.450   6.024   4.157
 5414SOL     OW27460   9.630   9.177   5.493
 5414SOL    HW127461   9.682   9.200   5.411
 5414SOL    HW227462   9.558   9.112   5.469
 5415SOL     OW27463   4.601   2.782   4.633
 5415SOL    HW127464   4.548   2.811   4.713
 5415SOL    HW227465   4.682   2.840   4.625
 5416SOL     OW27466   9.848   8.222   3.486
 5416SOL    HW127467   9.927   8.257   3.436
 5416SOL    HW227468   9.878   8.152   3.550
 5417SOL     OW27469   8.705   6.306   2.434
 5417SOL    HW127470   8.621   6.290   2.486
 5417SOL    HW227471   8.698   6.260   2.345
 5418SOL     OW27472   3.116   6.518   4.024
 5418SOL    HW127473   3.119   6.594   4.089
 5418SOL    HW227474   3.021   6.495   4.005
 5419SOL     OW27475   4.529   3.770   3.527
 5419SOL    HW127476   4.580   3.726   3.453
 5419SOL    HW227477   4.480   3.700   3.580
 5420SOL     OW27478   2.629   9.738   1.973
 5420SOL    HW127479   2.543   9.753   1.925
 5420SOL    HW227480   2.647   9.640   1.980
 5421SOL     OW27481   7.811   2.894   6.356
 5421SOL    HW127482   7.832   2.799   6.381
 5421SOL    HW227483   7.832   2.909   6.260
 5422SOL     OW27484   0.836   5.206   4.387
 5422SOL    HW127485   0.867   5.128   4.443
 5422SOL    HW227486   0.809   5.281   4.446
 5423SOL     OW27487   5.659   2.828   0.362
 5423SOL    HW127488   5.683   2.782   0.276
 5423SOL    HW227489   5.617   2.916   0.342
 5424SOL     OW27490   8.923   7.824   2.246
 5424SOL    HW127491   8.988   7.786   2.181
 5424SOL    HW227492   8.882   7.907   2.207
 5425SOL     OW27493   7.469   6.368   3.668
 5425SOL    HW127494   7.408   6.448   3.666
 5425SOL    HW227495   7.451   6.314   3.750
 5426SOL     OW27496   2.291   4.323   4.182
 5426SOL    HW127497   2.325   4.338   4.089
 5426SOL    HW227498   2.329   4.392   4.242
 5427SOL     OW27499   2.366   6.117   5.917
 5427SOL    HW127500   2.359   6.051   5.992
 5427SOL    HW227501   2.456   6.160   5.918
 5428SOL     OW27502   7.272   3.925   6.211
 5428SOL    HW127503   7.369   3.901   6.222
 5428SOL    HW227504   7.231   3.866   6.141
 5429SOL     OW27505   8.714   0.252   2.711
 5429SOL    HW127506   8.650   0.201   2.768
 5429SOL    HW227507   8.681   0.254   2.616
 5430SOL     OW27508   7.196   7.610   3.954
 5430SOL    HW127509   7.205   7.647   4.047
 5430SOL    HW227510   7.101   7.584   3.937
 5431SOL     OW27511   1.913   9.825   0.108
 5431SOL    HW127512   1.833   9.884   0.120
 5431SOL    HW227513   1.954   9.804   0.197
 5432SOL     OW27514   9.535   0.109   4.395
 5432SOL    HW127515   9.522   0.043   4.469
 5432SOL    HW227516   9.582   0.064   4.319
 5433SOL     OW27517   9.053   4.402   2.592
 5433SOL    HW127518   9.076   4.476   2.655
 5433SOL    HW227519   8.955   4.401   2.576
 5434SOL     OW27520   8.202   7.468   5.748
 5434SOL    HW127521   8.260   7.437   5.824
 5434SOL    HW227522   8.215   7.566   5.735
 5435SOL     OW27523   7.899   7.813   2.374
 5435SOL    HW127524   7.985   7.776   2.409
 5435SOL    HW227525   7.912   7.909   2.349
 5436SOL     OW27526   5.026   7.697   6.109
 5436SOL    HW127527   4.937   7.702   6.155
 5436SOL    HW227528   5.029   7.764   6.035
 5437SOL     OW27529   3.932   8.354   2.448
 5437SOL    HW127530   3.836   8.336   2.424
 5437SOL    HW227531   3.943   8.452   2.468
 5438SOL     OW27532   9.654   3.999   2.461
 5438SOL    HW127533   9.659   4.038   2.554
 5438SOL    HW227534   9.672   4.071   2.394
 5439SOL     OW27535   4.158   5.052   0.534
 5439SOL    HW127536   4.059   5.062   0.529
 5439SOL    HW227537   4.202   5.134   0.496
 5440SOL     OW27538   0.146   8.833   1.143
 5440SOL    HW127539   0.054   8.798   1.125
 5440SOL    HW227540   0.141   8.932   1.158
 5441SOL     OW27541   0.075   5.333   5.638
 5441SOL    HW127542   0.014   5.335   5.559
 5441SOL    HW227543   0.165   5.298   5.611
 5442SOL     OW27544   3.106   3.456   4.811
 5442SOL    HW127545   3.059   3.529   4.761
 5442SOL    HW227546   3.091   3.467   4.909
 5443SOL     OW27547   4.390   3.947   4.073
 5443SOL    HW127548   4.390   3.864   4.019
 5443SOL    HW227549   4.423   4.024   4.017
 5444SOL     OW27550   7.569   8.208   5.108
 5444SOL    HW127551   7.643   8.222   5.041
 5444SOL    HW227552   7.482   8.237   5.068
 5445SOL     OW27553   6.037   8.694   4.460
 5445SOL    HW127554   6.022   8.607   4.506
 5445SOL    HW227555   5.997   8.691   4.368
 5446SOL     OW27556   0.591   2.186   3.532
 5446SOL    HW127557   0.499   2.181   3.570
 5446SOL    HW227558   0.602   2.272   3.482
 5447SOL     OW27559   8.051   4.713   2.690
 5447SOL    HW127560   8.079   4.782   2.756
 5447SOL    HW227561   8.124   4.696   2.624
 5448SOL     OW27562   8.424   1.793   3.635
 5448SOL    HW127563   8.422   1.777   3.536
 5448SOL    HW227564   8.346   1.748   3.677
 5449SOL     OW27565   0.611   8.948   4.595
 5449SOL    HW127566   0.566   9.026   4.638
 5449SOL    HW227567   0.707   8.971   4.576
 5450SOL     OW27568   0.554   0.507   3.123
 5450SOL    HW127569   0.532   0.420   3.169
 5450SOL    HW227570   0.471   0.560   3.111
 5451SOL     OW27571   2.744   4.725   5.648
 5451SOL    HW127572   2.748   4.682   5.739
 5451SOL    HW227573   2.831   4.713   5.602
 5452SOL     OW27574   2.450   2.949   1.038
 5452SOL    HW127575   2.379   2.945   0.966
 5452SOL    HW227576   2.500   2.862   1.039
 5453SOL     OW27577   3.593   8.485   4.179
 5453SOL    HW127578   3.659   8.557   4.200
 5453SOL    HW227579   3.592   8.470   4.080
 5454SOL     OW27580   5.120   0.484   4.616
 5454SOL    HW127581   5.084   0.391   4.624
 5454SOL    HW227582   5.213   0.487   4.653
 5455SOL     OW27583   9.066   9.427   4.621
 5455SOL    HW127584   9.034   9.469   4.536
 5455SOL    HW227585   9.162   9.403   4.613
 5456SOL     OW27586   0.504   2.201   4.841
 5456SOL    HW127587   0.589   2.231   4.798
 5456SOL    HW227588   0.466   2.123   4.791
 5457SOL     OW27589   7.455   1.841   5.396
 5457SOL    HW127590   7.387   1.807   5.331
 5457SOL    HW227591   7.484   1.766   5.456
 5458SOL     OW27592   1.934   4.907   4.775
 5458SOL    HW127593   1.958   4.821   4.732
 5458SOL    HW227594   2.004   4.932   4.843
 5459SOL     OW27595   0.183   1.214   4.623
 5459SOL    HW127596   0.171   1.133   4.680
 5459SOL    HW227597   0.100   1.229   4.569
 5460SOL     OW27598   3.513   0.588   2.111
 5460SOL    HW127599   3.426   0.602   2.159
 5460SOL    HW227600   3.587   0.582   2.177
 5461SOL     OW27601   9.689   8.578   1.043
 5461SOL    HW127602   9.643   8.575   0.954
 5461SOL    HW227603   9.623   8.556   1.115
 5462SOL     OW27604   2.372   6.732   4.443
 5462SOL    HW127605   2.297   6.712   4.507
 5462SOL    HW227606   2.334   6.776   4.361
 5463SOL     OW27607   0.481   7.381   3.894
 5463SOL    HW127608   0.502   7.311   3.962
 5463SOL    HW227609   0.558   7.443   3.884
 5464SOL     OW27610   2.295   6.166   1.208
 5464SOL    HW127611   2.325   6.129   1.296
 5464SOL    HW227612   2.309   6.098   1.137
 5465SOL     OW27613   2.871   4.302   2.557
 5465SOL    HW127614   2.952   4.286   2.500
 5465SOL    HW227615   2.856   4.401   2.566
 5466SOL     OW27616   3.218   1.396   0.496
 5466SOL    HW127617   3.313   1.428   0.493
 5466SOL    HW227618   3.197   1.361   0.587
 5467SOL     OW27619   7.632   3.221   2.758
 5467SOL    HW127620   7.585   3.152   2.813
 5467SOL    HW227621   7.568   3.265   2.696
 5468SOL     OW27622   0.931   8.090   0.350
 5468SOL    HW127623   0.937   7.997   0.384
 5468SOL    HW227624   0.835   8.120   0.351
 5469SOL     OW27625   0.879   8.207   0.682
 5469SOL    HW127626   0.782   8.206   0.705
 5469SOL    HW227627   0.913   8.113   0.676
 5470SOL     OW27628   4.710   4.199   4.700
 5470SOL    HW127629   4.643   4.136   4.660
 5470SOL    HW227630   4.710   4.285   4.649
 5471SOL     OW27631   8.549   6.082   4.781
 5471SOL    HW127632   8.581   6.177   4.776
 5471SOL    HW227633   8.458   6.080   4.824
 5472SOL     OW27634   4.890   2.336   0.879
 5472SOL    HW127635   4.817   2.390   0.836
 5472SOL    HW227636   4.952   2.302   0.809
 5473SOL     OW27637   6.977   3.753   1.818
 5473SOL    HW127638   6.898   3.732   1.759
 5473SOL    HW227639   6.951   3.740   1.914
 5474SOL     OW27640   8.605   3.392   0.926
 5474SOL    HW127641   8.616   3.455   1.003
 5474SOL    HW227642   8.621   3.298   0.957
 5475SOL     OW27643   1.348   0.968   1.218
 5475SOL    HW127644   1.445   0.944   1.217
 5475SOL    HW227645   1.337   1.064   1.244
 5476SOL     OW27646   2.051   0.344   3.626
 5476SOL    HW127647   1.995   0.424   3.645
 5476SOL    HW227648   1.996   0.261   3.635
 5477SOL     OW27649   8.430   4.363   4.448
 5477SOL    HW127650   8.367   4.290   4.423
 5477SOL    HW227651   8.522   4.343   4.413
 5478SOL     OW27652   2.581   0.022   3.567
 5478SOL    HW127653   2.567   9.924   3.582
 5478SOL    HW227654   2.507   0.073   3.610
 5479SOL     OW27655   7.295   1.525   3.086
 5479SOL    HW127656   7.345   1.489   3.007
 5479SOL    HW227657   7.257   1.615   3.064
 5480SOL     OW27658   3.493   7.567   1.754
 5480SOL    HW127659   3.469   7.638   1.821
 5480SOL    HW227660   3.439   7.485   1.771
 5481SOL     OW27661   3.833   5.795   4.186
 5481SOL    HW127662   3.842   5.881   4.136
 5481SOL    HW227663   3.874   5.721   4.132
 5482SOL     OW27664   8.338   7.892   0.274
 5482SOL    HW127665   8.270   7.876   0.345
 5482SOL    HW227666   8.418   7.936   0.315
 5483SOL     OW27667   6.662   0.294   1.552
 5483SOL    HW127668   6.633   0.221   1.615
 5483SOL    HW227669   6.582   0.347   1.525
 5484SOL     OW27670   0.550   6.451   1.416
 5484SOL    HW127671   0.634   6.416   1.458
 5484SOL    HW227672   0.503   6.377   1.369
 5485SOL     OW27673   1.375   3.907   1.872
 5485SOL    HW127674   1.333   3.915   1.963
 5485SOL    HW227675   1.447   3.975   1.863
 5486SOL     OW27676   2.764   5.169   2.017
 5486SOL    HW127677   2.707   5.126   1.947
 5486SOL    HW227678   2.768   5.110   2.098
 5487SOL     OW27679   2.716   5.454   4.998
 5487SOL    HW127680   2.729   5.487   4.905
 5487SOL    HW227681   2.744   5.358   5.004
 5488SOL     OW27682   9.550   7.630   1.353
 5488SOL    HW127683   9.565   7.658   1.448
 5488SOL    HW227684   9.453   7.608   1.341
 5489SOL     OW27685   3.584   3.929   3.199
 5489SOL    HW127686   3.613   3.859   3.265
 5489SOL    HW227687   3.579   4.018   3.246
 5490SOL     OW27688   2.124   9.801   3.385
 5490SOL    HW127689   2.103   9.870   3.316
 5490SOL    HW227690   2.143   9.847   3.472
 5491SOL     OW27691   9.977   8.873   3.267
 5491SOL    HW127692   0.022   8.909   3.186
 5491SOL    HW227693   9.981   8.773   3.266
 5492SOL     OW27694   4.689   6.464   0.666
 5492SOL    HW127695   4.750   6.535   0.702
 5492SOL    HW227696   4.704   6.453   0.568
 5493SOL     OW27697   3.110   7.818   0.912
 5493SOL    HW127698   3.115   7.805   1.011
 5493SOL    HW227699   3.202   7.834   0.876
 5494SOL     OW27700   6.471   1.868   3.336
 5494SOL    HW127701   6.462   1.866   3.237
 5494SOL    HW227702   6.551   1.814   3.363
 5495SOL     OW27703   9.918   8.738   5.191
 5495SOL    HW127704   9.852   8.772   5.124
 5495SOL    HW227705   9.872   8.721   5.278
 5496SOL     OW27706   3.264   0.406   0.935
 5496SOL    HW127707   3.297   0.357   0.855
 5496SOL    HW227708   3.211   0.344   0.993
 5497SOL     OW27709   8.578   0.206   5.471
 5497SOL    HW127710   8.663   0.185   5.422
 5497SOL    HW227711   8.598   0.216   5.569
 5498SOL     OW27712   8.579   9.261   1.539
 5498SOL    HW127713   8.489   9.231   1.505
 5498SOL    HW227714   8.602   9.209   1.621
 5499SOL     OW27715   9.451   7.625   2.002
 5499SOL    HW127716   9.481   7.681   1.924
 5499SOL    HW227717   9.474   7.529   1.983
 5500SOL     OW27718   0.707   4.735   5.252
 5500SOL    HW127719   0.633   4.715   5.188
 5500SOL    HW227720   0.793   4.745   5.202
 5501SOL     OW27721   2.507   3.637   1.637
 5501SOL    HW127722   2.548   3.548   1.659
 5501SOL    HW227723   2.484   3.685   1.721
 5502SOL     OW27724   9.287   2.828   4.565
 5502SOL    HW127725   9.221   2.875   4.506
 5502SOL    HW227726   9.380   2.857   4.541
 5503SOL     OW27727   1.900   9.669   0.842
 5503SOL    HW127728   1.870   9.704   0.930
 5503SOL    HW227729   1.878   9.736   0.770
 5504SOL     OW27730   3.436   1.933   5.886
 5504SOL    HW127731   3.416   2.018   5.935
 5504SOL    HW227732   3.423   1.855   5.947
 5505SOL     OW27733   2.561   1.213   6.224
 5505SOL    HW127734   2.659   1.224   6.209
 5505SOL    HW227735   2.544   1.132   6.280
 5506SOL     OW27736   4.328   0.206   0.750
 5506SOL    HW127737   4.361   0.185   0.842
 5506SOL    HW227738   4.241   0.255   0.757
 5507SOL     OW27739   2.915   8.519   2.337
 5507SOL    HW127740   2.983   8.448   2.354
 5507SOL    HW227741   2.827   8.490   2.375
 5508SOL     OW27742   7.640   1.778   1.740
 5508SOL    HW127743   7.543   1.792   1.758
 5508SOL    HW227744   7.653   1.759   1.642
 5509SOL     OW27745   9.960   6.373   0.862
 5509SOL    HW127746   9.984   6.361   0.959
 5509SOL    HW227747   0.043   6.367   0.806
 5510SOL     OW27748   3.733   3.531   0.108
 5510SOL    HW127749   3.683   3.617   0.103
 5510SOL    HW227750   3.816   3.543   0.161
 5511SOL     OW27751   5.681   9.203   5.354
 5511SOL    HW127752   5.625   9.120   5.354
 5511SOL    HW227753   5.634   9.275   5.301
 5512SOL     OW27754   0.143   6.612   3.665
 5512SOL    HW127755   0.233   6.568   3.673
 5512SOL    HW227756   0.122   6.626   3.568
 5513SOL     OW27757   2.558   3.826   0.618
 5513SOL    HW127758   2.652   3.823   0.654
 5513SOL    HW227759   2.557   3.878   0.533
 5514SOL     OW27760   9.697   5.416   0.810
 5514SOL    HW127761   9.737   5.467   0.886
 5514SOL    HW227762   9.648   5.336   0.846
 5515SOL     OW27763   0.078   7.069   0.999
 5515SOL    HW127764   0.096   7.027   0.910
 5515SOL    HW227765   0.001   7.022   1.042
 5516SOL     OW27766   2.965   0.423   4.012
 5516SOL    HW127767   2.904   0.489   4.056
 5516SOL    HW227768   3.060   0.442   4.039
 5517SOL     OW27769   8.053   8.237   0.080
 5517SOL    HW127770   8.145   8.264   0.110
 5517SOL    HW227771   8.061   8.186   8.182
 5518SOL     OW27772   2.483   6.817   4.987
 5518SOL    HW127773   2.498   6.900   5.040
 5518SOL    HW227774   2.564   6.798   4.931
 5519SOL     OW27775   4.140   6.708   0.760
 5519SOL    HW127776   4.095   6.750   0.681
 5519SOL    HW227777   4.232   6.745   0.769
 5520SOL     OW27778   9.761   4.398   6.325
 5520SOL    HW127779   9.677   4.431   6.368
 5520SOL    HW227780   9.766   4.299   6.333
 5521SOL     OW27781   1.447   2.531   5.421
 5521SOL    HW127782   1.430   2.475   5.503
 5521SOL    HW227783   1.368   2.526   5.360
 5522SOL     OW27784   4.118   4.193   1.414
 5522SOL    HW127785   4.204   4.238   1.440
 5522SOL    HW227786   4.134   4.133   1.336
 5523SOL     OW27787   0.596   2.427   2.640
 5523SOL    HW127788   0.568   2.504   2.582
 5523SOL    HW227789   0.595   2.343   2.587
 5524SOL     OW27790   4.546   2.473   1.645
 5524SOL    HW127791   4.496   2.550   1.686
 5524SOL    HW227792   4.523   2.389   1.695
 5525SOL     OW27793   5.808   7.852   3.170
 5525SOL    HW127794   5.747   7.793   3.116
 5525SOL    HW227795   5.832   7.933   3.116
 5526SOL     OW27796   5.779   2.635   4.422
 5526SOL    HW127797   5.847   2.638   4.349
 5526SOL    HW227798   5.793   2.713   4.483
 5527SOL     OW27799   8.257   9.602   3.835
 5527SOL    HW127800   8.285   9.594   3.931
 5527SOL    HW227801   8.161   9.574   3.826
 5528SOL     OW27802   7.212   9.337   2.830
 5528SOL    HW127803   7.282   9.325   2.759
 5528SOL    HW227804   7.229   9.272   2.904
 5529SOL     OW27805   9.148   8.991   3.878
 5529SOL    HW127806   9.060   8.944   3.871
 5529SOL    HW227807   9.171   9.031   3.789
 5530SOL     OW27808   8.085   9.375   4.198
 5530SOL    HW127809   8.119   9.297   4.144
 5530SOL    HW227810   8.149   9.451   4.190
 5531SOL     OW27811   8.819   4.633   1.843
 5531SOL    HW127812   8.829   4.726   1.878
 5531SOL    HW227813   8.904   4.583   1.857
 5532SOL     OW27814   1.522   9.807   0.416
 5532SOL    HW127815   1.486   9.780   0.505
 5532SOL    HW227816   1.592   9.877   0.428
 5533SOL     OW27817   2.350   7.913   1.467
 5533SOL    HW127818   2.253   7.918   1.441
 5533SOL    HW227819   2.384   8.004   1.487
 5534SOL     OW27820   6.558   3.001   0.251
 5534SOL    HW127821   6.511   3.018   0.338
 5534SOL    HW227822   6.648   2.961   0.270
 5535SOL     OW27823   7.480   6.802   3.764
 5535SOL    HW127824   7.429   6.722   3.733
 5535SOL    HW227825   7.527   6.844   3.686
 5536SOL     OW27826   7.333   9.021   5.709
 5536SOL    HW127827   7.400   9.005   5.636
 5536SOL    HW227828   7.376   9.007   5.798
 5537SOL     OW27829   8.062   5.185   1.384
 5537SOL    HW127830   8.136   5.117   1.381
 5537SOL    HW227831   7.975   5.139   1.402
 5538SOL     OW27832   8.316   3.973   5.989
 5538SOL    HW127833   8.280   4.021   5.910
 5538SOL    HW227834   8.406   3.935   5.968
 5539SOL     OW27835   5.782   8.597   5.819
 5539SOL    HW127836   5.853   8.665   5.838
 5539SOL    HW227837   5.790   8.521   5.884
 5540SOL     OW27838   0.060   8.601   4.640
 5540SOL    HW127839   0.049   8.654   4.724
 5540SOL    HW227840   0.155   8.572   4.631
 5541SOL     OW27841   9.192   9.001   1.049
 5541SOL    HW127842   9.139   8.962   0.973
 5541SOL    HW227843   9.169   9.097   1.061
 5542SOL     OW27844   1.531   3.992   4.272
 5542SOL    HW127845   1.465   3.917   4.269
 5542SOL    HW227846   1.622   3.955   4.293
 5543SOL     OW27847   3.160   8.174   2.814
 5543SOL    HW127848   3.166   8.123   2.900
 5543SOL    HW227849   3.244   8.227   2.801
 5544SOL     OW27850   9.050   5.557   6.111
 5544SOL    HW127851   8.952   5.542   6.097
 5544SOL    HW227852   9.095   5.567   6.022
 5545SOL     OW27853   8.369   9.673   6.380
 5545SOL    HW127854   8.319   9.729   6.314
 5545SOL    HW227855   8.467   9.675   6.357
 5546SOL     OW27856   7.749   4.605   5.242
 5546SOL    HW127857   7.829   4.575   5.295
 5546SOL    HW227858   7.780   4.650   5.159
 5547SOL     OW27859   2.331   9.493   1.789
 5547SOL    HW127860   2.249   9.467   1.738
 5547SOL    HW227861   2.326   9.458   1.882
 5548SOL     OW27862   8.219   8.495   4.625
 5548SOL    HW127863   8.170   8.497   4.537
 5548SOL    HW227864   8.158   8.461   4.696
 5549SOL     OW27865   4.520   8.389   5.248
 5549SOL    HW127866   4.509   8.290   5.246
 5549SOL    HW227867   4.617   8.412   5.259
 5550SOL     OW27868   7.084   0.647   4.141
 5550SOL    HW127869   7.142   0.716   4.097
 5550SOL    HW227870   7.099   0.648   4.239
 5551SOL     OW27871   3.765   3.326   3.459
 5551SOL    HW127872   3.680   3.324   3.406
 5551SOL    HW227873   3.838   3.283   3.405
 5552SOL     OW27874   4.746   1.205   3.240
 5552SOL    HW127875   4.788   1.121   3.205
 5552SOL    HW227876   4.738   1.200   3.339
 5553SOL     OW27877   0.987   6.706   2.093
 5553SOL    HW127878   0.905   6.667   2.051
 5553SOL    HW227879   0.971   6.803   2.113
 5554SOL     OW27880   3.495   8.374   5.687
 5554SOL    HW127881   3.564   8.301   5.691
 5554SOL    HW227882   3.538   8.457   5.652
 5555SOL     OW27883   2.293   3.579   4.762
 5555SOL    HW127884   2.239   3.643   4.817
 5555SOL    HW227885   2.240   3.495   4.746
 5556SOL     OW27886   9.712   9.644   1.080
 5556SOL    HW127887   9.727   9.592   1.164
 5556SOL    HW227888   9.795   9.640   1.023
 5557SOL     OW27889   3.798   2.094   5.180
 5557SOL    HW127890   3.846   2.030   5.240
 5557SOL    HW227891   3.699   2.081   5.189
 5558SOL     OW27892   1.426   0.461   1.994
 5558SOL    HW127893   1.331   0.453   2.022
 5558SOL    HW227894   1.481   0.392   2.041
 5559SOL     OW27895   2.367   1.136   3.352
 5559SOL    HW127896   2.380   1.233   3.329
 5559SOL    HW227897   2.271   1.112   3.339
 5560SOL     OW27898   2.190   0.433   0.550
 5560SOL    HW127899   2.100   0.475   0.539
 5560SOL    HW227900   2.256   0.478   0.490
 5561SOL     OW27901   3.976   3.603   0.667
 5561SOL    HW127902   3.881   3.631   0.652
 5561SOL    HW227903   3.999   3.528   0.605
 5562SOL     OW27904   3.682   1.162   2.685
 5562SOL    HW127905   3.701   1.074   2.728
 5562SOL    HW227906   3.641   1.147   2.595
 5563SOL     OW27907   1.603   4.927   0.238
 5563SOL    HW127908   1.589   4.852   0.303
 5563SOL    HW227909   1.658   4.895   0.161
 5564SOL     OW27910   6.603   0.598   2.336
 5564SOL    HW127911   6.555   0.685   2.329
 5564SOL    HW227912   6.538   0.526   2.362
 5565SOL     OW27913   2.477   0.897   3.261
 5565SOL    HW127914   2.495   0.854   3.350
 5565SOL    HW227915   2.440   0.989   3.275
 5566SOL     OW27916   8.369   5.678   6.259
 5566SOL    HW127917   8.309   5.703   6.183
 5566SOL    HW227918   8.327   5.605   6.313
 5567SOL     OW27919   4.302   4.784   2.544
 5567SOL    HW127920   4.318   4.878   2.576
 5567SOL    HW227921   4.257   4.732   2.617
 5568SOL     OW27922   9.542   3.160   0.294
 5568SOL    HW127923   9.457   3.111   0.316
 5568SOL    HW227924   9.520   3.251   0.258
 5569SOL     OW27925   8.953   6.588   1.721
 5569SOL    HW127926   9.034   6.561   1.670
 5569SOL    HW227927   8.926   6.680   1.693
 5570SOL     OW27928   3.582   2.508   5.863
 5570SOL    HW127929   3.555   2.503   5.959
 5570SOL    HW227930   3.569   2.601   5.829
 5571SOL     OW27931   8.709   8.071   1.520
 5571SOL    HW127932   8.775   8.041   1.451
 5571SOL    HW227933   8.758   8.115   1.595
 5572SOL     OW27934   4.687   6.768   0.520
 5572SOL    HW127935   4.671   6.866   0.533
 5572SOL    HW227936   4.599   6.720   0.524
 5573SOL     OW27937   2.286   0.587   1.877
 5573SOL    HW127938   2.355   0.516   1.862
 5573SOL    HW227939   2.250   0.617   1.789
 5574SOL     OW27940   9.629   8.798   2.576
 5574SOL    HW127941   9.600   8.777   2.483
 5574SOL    HW227942   9.551   8.832   2.628
 5575SOL     OW27943   8.012   3.326   3.300
 5575SOL    HW127944   7.944   3.393   3.270
 5575SOL    HW227945   8.067   3.366   3.374
 5576SOL     OW27946   7.104   7.892   4.884
 5576SOL    HW127947   7.192   7.935   4.904
 5576SOL    HW227948   7.117   7.796   4.864
 5577SOL     OW27949   7.759   6.141   2.187
 5577SOL    HW127950   7.744   6.233   2.151
 5577SOL    HW227951   7.743   6.073   2.115
 5578SOL     OW27952   5.392   4.263   1.756
 5578SOL    HW127953   5.444   4.249   1.672
 5578SOL    HW227954   5.428   4.343   1.805
 5579SOL     OW27955   2.831   5.794   3.967
 5579SOL    HW127956   2.795   5.702   3.956
 5579SOL    HW227957   2.756   5.860   3.957
 5580SOL     OW27958   8.304   6.888   3.204
 5580SOL    HW127959   8.350   6.824   3.267
 5580SOL    HW227960   8.211   6.856   3.186
 5581SOL     OW27961   2.020   0.740   2.252
 5581SOL    HW127962   2.042   0.728   2.155
 5581SOL    HW227963   2.105   0.743   2.305
 5582SOL     OW27964   0.227   8.488   6.091
 5582SOL    HW127965   0.255   8.393   6.107
 5582SOL    HW227966   0.136   8.488   6.048
 5583SOL     OW27967   4.778   3.018   3.509
 5583SOL    HW127968   4.753   3.072   3.428
 5583SOL    HW227969   4.771   3.075   3.590
 5584SOL     OW27970   0.136   4.955   2.124
 5584SOL    HW127971   0.072   5.014   2.073
 5584SOL    HW227972   0.174   5.007   2.200
 5585SOL     OW27973   7.109   3.655   2.184
 5585SOL    HW127974   7.177   3.697   2.123
 5585SOL    HW227975   7.017   3.681   2.153
 5586SOL     OW27976   0.094   6.683   0.773
 5586SOL    HW127977   0.043   6.673   0.858
 5586SOL    HW227978   0.190   6.660   0.788
 5587SOL     OW27979   3.053   6.564   5.971
 5587SOL    HW127980   3.149   6.585   5.953
 5587SOL    HW227981   3.026   6.604   6.059
 5588SOL     OW27982   0.564   7.045   2.146
 5588SOL    HW127983   0.631   7.064   2.218
 5588SOL    HW227984   0.503   7.123   2.136
 5589SOL     OW27985   5.247   8.946   2.390
 5589SOL    HW127986   5.210   8.879   2.325
 5589SOL    HW227987   5.173   9.003   2.425
 5590SOL     OW27988   2.244   6.660   0.697
 5590SOL    HW127989   2.193   6.650   0.783
 5590SOL    HW227990   2.179   6.662   0.621
 5591SOL     OW27991   9.757   7.772   4.673
 5591SOL    HW127992   9.679   7.811   4.721
 5591SOL    HW227993   9.747   7.673   4.667
 5592SOL     OW27994   6.189   4.290   0.420
 5592SOL    HW127995   6.149   4.198   0.420
 5592SOL    HW227996   6.120   4.356   0.451
 5593SOL     OW27997   1.213   4.676   4.933
 5593SOL    HW127998   1.203   4.649   5.029
 5593SOL    HW227999   1.309   4.698   4.914
 5594SOL     OW28000   7.104   2.343   0.975
 5594SOL    HW128001   7.138   2.284   1.048
 5594SOL    HW228002   7.168   2.342   0.898
 5595SOL     OW28003   2.711   8.841   2.388
 5595SOL    HW128004   2.642   8.771   2.410
 5595SOL    HW228005   2.767   8.860   2.469
 5596SOL     OW28006   1.497   0.087   1.849
 5596SOL    HW128007   1.530   0.162   1.790
 5596SOL    HW228008   1.415   0.117   1.896
 5597SOL     OW28009   0.719   2.179   5.411
 5597SOL    HW128010   0.743   2.232   5.330
 5597SOL    HW228011   0.778   2.098   5.416
 5598SOL     OW28012   9.071   1.838   3.482
 5598SOL    HW128013   9.042   1.921   3.435
 5598SOL    HW228014   9.136   1.861   3.554
 5599SOL     OW28015   2.845   6.106   3.522
 5599SOL    HW128016   2.777   6.161   3.570
 5599SOL    HW228017   2.927   6.096   3.579
 5600SOL     OW28018   5.475   8.814   2.509
 5600SOL    HW128019   5.395   8.864   2.474
 5600SOL    HW228020   5.558   8.854   2.470
 5601SOL     OW28021   8.926   6.562   2.975
 5601SOL    HW128022   8.880   6.636   2.926
 5601SOL    HW228023   8.878   6.544   3.061
 5602SOL     OW28024   2.003   1.115   3.698
 5602SOL    HW128025   2.101   1.135   3.687
 5602SOL    HW228026   1.980   1.034   3.644
 5603SOL     OW28027   7.750   9.824   3.674
 5603SOL    HW128028   7.704   9.867   3.597
 5603SOL    HW228029   7.810   9.751   3.641
 5604SOL     OW28030   4.767   8.729   5.241
 5604SOL    HW128031   4.802   8.784   5.316
 5604SOL    HW228032   4.789   8.632   5.257
 5605SOL     OW28033   0.609   3.219   1.205
 5605SOL    HW128034   0.704   3.236   1.180
 5605SOL    HW228035   0.605   3.168   1.290
 5606SOL     OW28036   1.820   5.943   4.220
 5606SOL    HW128037   1.830   5.848   4.250
 5606SOL    HW228038   1.794   5.944   4.123
 5607SOL     OW28039   2.691   2.259   3.221
 5607SOL    HW128040   2.677   2.326   3.149
 5607SOL    HW228041   2.603   2.223   3.252
 5608SOL     OW28042   3.614   6.511   3.483
 5608SOL    HW128043   3.580   6.471   3.568
 5608SOL    HW228044   3.563   6.474   3.406
 5609SOL     OW28045   3.081   0.336   4.428
 5609SOL    HW128046   2.997   0.369   4.470
 5609SOL    HW228047   3.074   0.237   4.412
 5610SOL     OW28048   7.827   0.416   4.896
 5610SOL    HW128049   7.895   0.470   4.945
 5610SOL    HW228050   7.738   0.423   4.941
 5611SOL     OW28051   7.243   9.242   6.032
 5611SOL    HW128052   7.203   9.226   5.942
 5611SOL    HW228053   7.218   9.334   6.063
 5612SOL     OW28054   9.238   4.537   5.998
 5612SOL    HW128055   9.191   4.519   5.912
 5612SOL    HW228056   9.317   4.596   5.982
 5613SOL     OW28057   2.579   8.575   5.936
 5613SOL    HW128058   2.494   8.621   5.912
 5613SOL    HW228059   2.654   8.612   5.881
 5614SOL     OW28060   0.895   0.199   4.568
 5614SOL    HW128061   0.966   0.226   4.503
 5614SOL    HW228062   0.864   0.107   4.547
 5615SOL     OW28063   2.386   0.244   0.124
 5615SOL    HW128064   2.314   0.312   0.112
 5615SOL    HW228065   2.421   0.249   0.218
 5616SOL     OW28066   9.497   8.815   3.248
 5616SOL    HW128067   9.559   8.848   3.319
 5616SOL    HW228068   9.550   8.781   3.171
 5617SOL     OW28069   0.701   0.520   5.913
 5617SOL    HW128070   0.716   0.544   5.817
 5617SOL    HW228071   0.741   0.590   5.971
 5618SOL     OW28072   9.265   8.481   1.410
 5618SOL    HW128073   9.235   8.387   1.426
 5618SOL    HW228074   9.192   8.532   1.364
 5619SOL     OW28075   4.388   7.389   2.256
 5619SOL    HW128076   4.355   7.451   2.186
 5619SOL    HW228077   4.412   7.441   2.338
 5620SOL     OW28078   5.488   5.407   0.696
 5620SOL    HW128079   5.495   5.447   0.787
 5620SOL    HW228080   5.398   5.364   0.685
 5621SOL     OW28081   8.978   8.384   1.896
 5621SOL    HW128082   9.077   8.390   1.883
 5621SOL    HW228083   8.934   8.464   1.855
 5622SOL     OW28084   8.856   8.698   0.908
 5622SOL    HW128085   8.858   8.619   0.846
 5622SOL    HW228086   8.761   8.718   0.932
 5623SOL     OW28087   9.844   1.359   2.282
 5623SOL    HW128088   9.759   1.367   2.230
 5623SOL    HW228089   9.828   1.303   2.364
 5624SOL     OW28090   3.712   4.078   1.023
 5624SOL    HW128091   3.793   4.122   0.984
 5624SOL    HW228092   3.657   4.146   1.072
 5625SOL     OW28093   3.167   7.719   5.746
 5625SOL    HW128094   3.200   7.800   5.697
 5625SOL    HW228095   3.072   7.701   5.719
 5626SOL     OW28096   0.425   2.751   2.813
 5626SOL    HW128097   0.373   2.681   2.862
 5626SOL    HW228098   0.385   2.764   2.722
 5627SOL     OW28099   1.984   8.092   1.015
 5627SOL    HW128100   1.997   8.018   0.949
 5627SOL    HW228101   1.954   8.174   0.967
 5628SOL     OW28102   2.533   2.956   4.647
 5628SOL    HW128103   2.532   3.037   4.707
 5628SOL    HW228104   2.627   2.938   4.619
 5629SOL     OW28105   9.681   1.120   1.983
 5629SOL    HW128106   9.628   1.070   1.915
 5629SOL    HW228107   9.749   1.059   2.024
 5630SOL     OW28108   7.069   9.488   5.517
 5630SOL    HW128109   7.029   9.470   5.607
 5630SOL    HW228110   7.157   9.442   5.510
 5631SOL     OW28111   1.600   2.743   0.922
 5631SOL    HW128112   1.574   2.650   0.900
 5631SOL    HW228113   1.531   2.785   0.980
 5632SOL     OW28114   8.721   2.425   0.878
 5632SOL    HW128115   8.641   2.458   0.927
 5632SOL    HW228116   8.785   2.384   0.942
 5633SOL     OW28117   9.933   0.060   6.188
 5633SOL    HW128118   0.011   0.068   6.250
 5633SOL    HW228119   9.893   9.969   6.197
 5634SOL     OW28120   3.214   1.231   4.630
 5634SOL    HW128121   3.223   1.327   4.603
 5634SOL    HW228122   3.244   1.172   4.555
 5635SOL     OW28123   4.985   7.937   2.291
 5635SOL    HW128124   5.055   7.868   2.270
 5635SOL    HW228125   4.926   7.949   2.211
 5636SOL     OW28126   4.567   9.226   2.230
 5636SOL    HW128127   4.588   9.160   2.302
 5636SOL    HW228128   4.527   9.179   2.152
 5637SOL     OW28129   1.235   3.592   3.614
 5637SOL    HW128130   1.329   3.622   3.603
 5637SOL    HW228131   1.234   3.497   3.646
 5638SOL     OW28132   1.755   4.050   5.321
 5638SOL    HW128133   1.695   4.128   5.342
 5638SOL    HW228134   1.701   3.976   5.281
 5639SOL     OW28135   2.475   0.431   4.848
 5639SOL    HW128136   2.559   0.461   4.895
 5639SOL    HW228137   2.460   0.489   4.768
 5640SOL     OW28138   8.095   6.808   2.923
 5640SOL    HW128139   8.128   6.898   2.894
 5640SOL    HW228140   8.026   6.775   2.859
 5641SOL     OW28141   9.974   1.780   5.080
 5641SOL    HW128142   9.951   1.684   5.092
 5641SOL    HW228143   0.061   1.799   5.124
 5642SOL     OW28144   9.722   8.140   0.874
 5642SOL    HW128145   9.664   8.202   0.822
 5642SOL    HW228146   9.667   8.065   0.911
 5643SOL     OW28147   2.950   7.840   3.209
 5643SOL    HW128148   3.029   7.795   3.168
 5643SOL    HW228149   2.903   7.894   3.139
 5644SOL     OW28150   7.564   2.546   4.732
 5644SOL    HW128151   7.578   2.477   4.803
 5644SOL    HW228152   7.636   2.539   4.664
 5645SOL     OW28153   1.053   2.087   5.731
 5645SOL    HW128154   1.023   1.992   5.717
 5645SOL    HW228155   1.152   2.092   5.717
 5646SOL     OW28156   4.854   1.525   5.618
 5646SOL    HW128157   4.927   1.511   5.684
 5646SOL    HW228158   4.772   1.475   5.648
 5647SOL     OW28159   3.105   1.632   1.580
 5647SOL    HW128160   3.025   1.692   1.575
 5647SOL    HW228161   3.075   1.539   1.602
 5648SOL     OW28162   8.690   4.433   1.987
 5648SOL    HW128163   8.739   4.442   2.075
 5648SOL    HW228164   8.725   4.502   1.923
 5649SOL     OW28165   9.347   9.818   5.404
 5649SOL    HW128166   9.424   9.766   5.442
 5649SOL    HW228167   9.368   9.844   5.309
 5650SOL     OW28168   1.528   4.495   2.941
 5650SOL    HW128169   1.461   4.422   2.932
 5650SOL    HW228170   1.620   4.456   2.944
 5651SOL     OW28171   7.186   4.318   2.749
 5651SOL    HW128172   7.095   4.277   2.743
 5651SOL    HW228173   7.251   4.249   2.781
 5652SOL     OW28174   5.940   1.599   5.782
 5652SOL    HW128175   5.851   1.619   5.821
 5652SOL    HW228176   5.968   1.506   5.805
 5653SOL     OW28177   1.032   3.609   1.850
 5653SOL    HW128178   1.066   3.698   1.821
 5653SOL    HW228179   0.940   3.618   1.888
 5654SOL     OW28180   0.162   7.908   5.282
 5654SOL    HW128181   0.226   7.831   5.284
 5654SOL    HW228182   0.078   7.879   5.236
 5655SOL     OW28183   1.915   8.367   5.468
 5655SOL    HW128184   1.986   8.302   5.440
 5655SOL    HW228185   1.958   8.446   5.512
 5656SOL     OW28186   1.235   7.587   6.016
 5656SOL    HW128187   1.324   7.550   6.043
 5656SOL    HW228188   1.228   7.589   5.916
 5657SOL     OW28189   5.031   1.580   6.295
 5657SOL    HW128190   5.103   1.626   6.243
 5657SOL    HW228191   5.052   1.588   6.393
 5658SOL     OW28192   2.253   1.851   0.598
 5658SOL    HW128193   2.221   1.768   0.553
 5658SOL    HW228194   2.210   1.859   0.688
 5659SOL     OW28195   1.541   7.317   6.289
 5659SOL    HW128196   1.477   7.241   6.284
 5659SOL    HW228197   1.500   7.392   6.341
 5660SOL     OW28198   2.520   6.010   2.515
 5660SOL    HW128199   2.425   6.003   2.485
 5660SOL    HW228200   2.534   6.098   2.560
 5661SOL     OW28201   7.108   0.747   1.856
 5661SOL    HW128202   7.124   0.750   1.758
 5661SOL    HW228203   7.018   0.785   1.876
 5662SOL     OW28204   2.596   0.076   5.835
 5662SOL    HW128205   2.501   0.049   5.846
 5662SOL    HW228206   2.627   0.053   5.743
 5663SOL     OW28207   7.115   7.624   5.928
 5663SOL    HW128208   7.027   7.577   5.931
 5663SOL    HW228209   7.159   7.618   6.018
 5664SOL     OW28210   4.916   8.717   2.448
 5664SOL    HW128211   5.006   8.677   2.433
 5664SOL    HW228212   4.851   8.681   2.382
 5665SOL     OW28213   8.444   8.721   4.294
 5665SOL    HW128214   8.463   8.632   4.253
 5665SOL    HW228215   8.471   8.793   4.230
 5666SOL     OW28216   2.576   1.969   3.398
 5666SOL    HW128217   2.533   2.051   3.359
 5666SOL    HW228218   2.620   1.916   3.325
 5667SOL     OW28219   9.509   0.275   5.662
 5667SOL    HW128220   9.446   0.199   5.647
 5667SOL    HW228221   9.581   0.247   5.725
 5668SOL     OW28222   5.602   9.794   5.913
 5668SOL    HW128223   5.529   9.769   5.977
 5668SOL    HW228224   5.562   9.823   5.827
 5669SOL     OW28225   8.560   1.930   2.262
 5669SOL    HW128226   8.599   2.022   2.269
 5669SOL    HW228227   8.460   1.935   2.271
 5670SOL     OW28228   2.641   4.144   5.046
 5670SOL    HW128229   2.657   4.073   4.977
 5670SOL    HW228230   2.659   4.234   5.007
 5671SOL     OW28231   4.220   9.518   0.201
 5671SOL    HW128232   4.264   9.498   0.289
 5671SOL    HW228233   4.187   9.433   0.159
 5672SOL     OW28234   0.312   8.756   5.031
 5672SOL    HW128235   0.276   8.666   5.003
 5672SOL    HW228236   0.271   8.783   5.118
 5673SOL     OW28237   4.551   0.753   4.262
 5673SOL    HW128238   4.454   0.777   4.258
 5673SOL    HW228239   4.565   0.664   4.220
 5674SOL     OW28240   7.801   9.822   0.297
 5674SOL    HW128241   7.807   9.883   0.218
 5674SOL    HW228242   7.876   9.756   0.294
 5675SOL     OW28243   3.613   7.767   3.620
 5675SOL    HW128244   3.551   7.730   3.689
 5675SOL    HW228245   3.706   7.771   3.657
 5676SOL     OW28246   2.311   9.357   5.755
 5676SOL    HW128247   2.318   9.259   5.775
 5676SOL    HW228248   2.261   9.370   5.669
 5677SOL     OW28249   4.552   1.532   5.268
 5677SOL    HW128250   4.620   1.586   5.318
 5677SOL    HW228251   4.485   1.495   5.332
 5678SOL     OW28252   4.531   4.768   3.035
 5678SOL    HW128253   4.541   4.810   3.125
 5678SOL    HW228254   4.616   4.780   2.983
 5679SOL     OW28255   1.890   6.251   1.036
 5679SOL    HW128256   1.870   6.342   1.000
 5679SOL    HW228257   1.938   6.260   1.123
 5680SOL     OW28258   8.947   4.410   1.580
 5680SOL    HW128259   8.909   4.407   1.672
 5680SOL    HW228260   8.908   4.337   1.524
 5681SOL     OW28261   8.383   8.140   3.516
 5681SOL    HW128262   8.335   8.058   3.485
 5681SOL    HW228263   8.402   8.199   3.437
 5682SOL     OW28264   8.922   7.506   4.694
 5682SOL    HW128265   8.877   7.590   4.724
 5682SOL    HW228266   9.006   7.529   4.644
 5683SOL     OW28267   9.422   3.979   5.474
 5683SOL    HW128268   9.323   3.973   5.458
 5683SOL    HW228269   9.471   3.928   5.404
 5684SOL     OW28270   6.863   7.563   5.209
 5684SOL    HW128271   6.829   7.496   5.143
 5684SOL    HW228272   6.952   7.597   5.178
 5685SOL     OW28273   0.845   9.997   5.913
 5685SOL    HW128274   0.812   9.964   6.002
 5685SOL    HW228275   0.830   0.096   5.907
 5686SOL     OW28276   9.466   2.380   1.247
 5686SOL    HW128277   9.395   2.449   1.232
 5686SOL    HW228278   9.536   2.390   1.176
 5687SOL     OW28279   4.443   8.125   3.709
 5687SOL    HW128280   4.429   8.116   3.611
 5687SOL    HW228281   4.532   8.167   3.726
 5688SOL     OW28282   3.248   0.649   2.188
 5688SOL    HW128283   3.273   0.745   2.170
 5688SOL    HW228284   3.186   0.617   2.116
 5689SOL     OW28285   8.693   7.204   1.704
 5689SOL    HW128286   8.659   7.110   1.694
 5689SOL    HW228287   8.645   7.249   1.779
 5690SOL     OW28288   3.071   1.350   3.059
 5690SOL    HW128289   3.103   1.271   3.111
 5690SOL    HW228290   3.123   1.431   3.087
 5691SOL     OW28291   8.107   9.442   2.097
 5691SOL    HW128292   8.178   9.494   2.143
 5691SOL    HW228293   8.132   9.428   2.001
 5692SOL     OW28294   6.529   2.857   5.343
 5692SOL    HW128295   6.575   2.770   5.360
 5692SOL    HW228296   6.440   2.839   5.299
 5693SOL     OW28297   5.923   2.509   0.129
 5693SOL    HW128298   5.993   2.580   0.131
 5693SOL    HW228299   5.960   2.426   0.087
 5694SOL     OW28300   1.233   9.401   4.922
 5694SOL    HW128301   1.184   9.318   4.952
 5694SOL    HW228302   1.213   9.476   4.985
 5695SOL     OW28303   9.277   0.357   3.101
 5695SOL    HW128304   9.295   0.455   3.097
 5695SOL    HW228305   9.256   0.324   3.009
 5696SOL     OW28306   0.387   6.855   2.247
 5696SOL    HW128307   0.384   6.775   2.187
 5696SOL    HW228308   0.445   6.925   2.206
 5697SOL     OW28309   7.722   4.069   5.226
 5697SOL    HW128310   7.822   4.059   5.228
 5697SOL    HW228311   7.699   4.161   5.193
 5698SOL     OW28312   3.454   7.887   0.356
 5698SOL    HW128313   3.551   7.889   0.381
 5698SOL    HW228314   3.437   7.810   0.295
 5699SOL     OW28315   1.159   4.879   5.705
 5699SOL    HW128316   1.231   4.814   5.680
 5699SOL    HW228317   1.077   4.862   5.650
 5700SOL     OW28318   1.303   3.193   2.846
 5700SOL    HW128319   1.252   3.117   2.888
 5700SOL    HW228320   1.274   3.203   2.751
 5701SOL     OW28321   3.894   5.336   2.130
 5701SOL    HW128322   3.795   5.343   2.119
 5701SOL    HW228323   3.937   5.423   2.105
 5702SOL     OW28324   1.954   5.937   0.721
 5702SOL    HW128325   2.016   5.858   0.718
 5702SOL    HW228326   1.999   6.012   0.770
 5703SOL     OW28327   1.433   4.748   0.639
 5703SOL    HW128328   1.359   4.689   0.608
 5703SOL    HW228329   1.497   4.764   0.564
 5704SOL     OW28330   3.767   4.275   5.465
 5704SOL    HW128331   3.753   4.217   5.385
 5704SOL    HW228332   3.765   4.219   5.548
 5705SOL     OW28333   6.536   2.286   0.924
 5705SOL    HW128334   6.520   2.256   1.018
 5705SOL    HW228335   6.594   2.219   0.877
 5706SOL     OW28336   0.481   2.488   4.135
 5706SOL    HW128337   0.385   2.512   4.123
 5706SOL    HW228338   0.499   2.398   4.095
 5707SOL     OW28339   4.186   9.215   5.106
 5707SOL    HW128340   4.188   9.288   5.174
 5707SOL    HW228341   4.101   9.163   5.114
 5708SOL     OW28342   5.911   4.674   0.181
 5708SOL    HW128343   5.857   4.613   0.122
 5708SOL    HW228344   5.947   4.750   0.127
 5709SOL     OW28345   9.365   1.464   0.066
 5709SOL    HW128346   9.333   1.426   0.153
 5709SOL    HW228347   9.464   1.454   0.060
 5710SOL     OW28348   1.073   3.865   3.274
 5710SOL    HW128349   1.064   3.881   3.176
 5710SOL    HW228350   1.169   3.843   3.296
 5711SOL     OW28351   0.661   7.365   5.952
 5711SOL    HW128352   0.582   7.357   5.892
 5711SOL    HW228353   0.710   7.451   5.932
 5712SOL     OW28354   8.273   5.226   2.567
 5712SOL    HW128355   8.196   5.282   2.537
 5712SOL    HW228356   8.269   5.216   2.667
 5713SOL     OW28357   8.037   2.998   5.888
 5713SOL    HW128358   7.996   2.952   5.809
 5713SOL    HW228359   8.091   3.076   5.857
 5714SOL     OW28360   0.821   8.334   2.740
 5714SOL    HW128361   0.791   8.240   2.758
 5714SOL    HW228362   0.792   8.361   2.649
 5715SOL     OW28363   0.305   9.139   2.937
 5715SOL    HW128364   0.339   9.157   2.845
 5715SOL    HW228365   0.375   9.164   3.004
 5716SOL     OW28366   3.047   1.441   4.025
 5716SOL    HW128367   2.968   1.471   4.078
 5716SOL    HW228368   3.070   1.512   3.958
 5717SOL     OW28369   6.845   1.086   6.062
 5717SOL    HW128370   6.909   1.144   6.112
 5717SOL    HW228371   6.753   1.098   6.098
 5718SOL     OW28372   9.101   1.167   3.889
 5718SOL    HW128373   9.072   1.259   3.915
 5718SOL    HW228374   9.107   1.110   3.971
 5719SOL     OW28375   1.563   2.243   3.177
 5719SOL    HW128376   1.632   2.271   3.110
 5719SOL    HW228377   1.586   2.282   3.266
 5720SOL     OW28378   6.978   8.559   4.542
 5720SOL    HW128379   6.937   8.649   4.550
 5720SOL    HW228380   7.061   8.566   4.486
 5721SOL     OW28381   4.938   8.727   2.724
 5721SOL    HW128382   4.934   8.712   2.626
 5721SOL    HW228383   4.855   8.774   2.754
 5722SOL     OW28384   9.389   9.121   5.721
 5722SOL    HW128385   9.465   9.076   5.767
 5722SOL    HW228386   9.391   9.098   5.624
 5723SOL     OW28387   5.521   9.701   4.490
 5723SOL    HW128388   5.502   9.634   4.418
 5723SOL    HW228389   5.616   9.730   4.485
 5724SOL     OW28390   9.042   6.926   3.177
 5724SOL    HW128391   8.992   6.951   3.094
 5724SOL    HW228392   9.130   6.885   3.152
 5725SOL     OW28393   8.574   1.547   0.580
 5725SOL    HW128394   8.616   1.511   0.663
 5725SOL    HW228395   8.627   1.625   0.548
 5726SOL     OW28396   1.341   7.806   3.034
 5726SOL    HW128397   1.402   7.871   3.081
 5726SOL    HW228398   1.255   7.798   3.084
 5727SOL     OW28399   3.711   9.173   3.915
 5727SOL    HW128400   3.709   9.164   4.015
 5727SOL    HW228401   3.738   9.085   3.875
 5728SOL     OW28402   2.658   4.843   0.893
 5728SOL    HW128403   2.713   4.765   0.926
 5728SOL    HW228404   2.618   4.891   0.971
 5729SOL     OW28405   0.335   8.551   1.727
 5729SOL    HW128406   0.382   8.523   1.811
 5729SOL    HW228407   0.305   8.469   1.677
 5730SOL     OW28408   5.195   0.806   4.022
 5730SOL    HW128409   5.195   0.831   4.119
 5730SOL    HW228410   5.191   0.890   3.967
 5731SOL     OW28411   6.293   3.990   1.138
 5731SOL    HW128412   6.202   4.027   1.118
 5731SOL    HW228413   6.320   4.016   1.231
 5732SOL     OW28414   9.853   9.091   0.201
 5732SOL    HW128415   9.847   9.109   0.299
 5732SOL    HW228416   9.889   9.172   0.155
 5733SOL     OW28417   2.328   1.171   3.007
 5733SOL    HW128418   2.261   1.098   2.993
 5733SOL    HW228419   2.282   1.254   3.038
 5734SOL     OW28420   4.859   4.235   5.926
 5734SOL    HW128421   4.824   4.141   5.919
 5734SOL    HW228422   4.897   4.248   6.018
 5735SOL     OW28423   8.549   6.814   4.033
 5735SOL    HW128424   8.564   6.737   4.096
 5735SOL    HW228425   8.567   6.783   3.939
 5736SOL     OW28426   0.999   2.855   1.147
 5736SOL    HW128427   1.057   2.803   1.084
 5736SOL    HW228428   0.978   2.799   1.227
 5737SOL     OW28429   5.148   6.414   1.582
 5737SOL    HW128430   5.159   6.318   1.556
 5737SOL    HW228431   5.231   6.446   1.628
 5738SOL     OW28432   6.785   3.531   2.257
 5738SOL    HW128433   6.852   3.514   2.330
 5738SOL    HW228434   6.789   3.456   2.191
 5739SOL     OW28435   8.495   7.913   1.800
 5739SOL    HW128436   8.478   7.937   1.705
 5739SOL    HW228437   8.502   7.814   1.809
 5740SOL     OW28438   5.261   7.827   4.218
 5740SOL    HW128439   5.245   7.908   4.163
 5740SOL    HW228440   5.304   7.756   4.162
 5741SOL     OW28441   3.300   7.104   2.700
 5741SOL    HW128442   3.236   7.068   2.632
 5741SOL    HW228443   3.394   7.095   2.666
 5742SOL     OW28444   3.086   8.270   1.926
 5742SOL    HW128445   3.181   8.238   1.935
 5742SOL    HW228446   3.072   8.309   1.835
 5743SOL     OW28447   1.583   5.307   0.582
 5743SOL    HW128448   1.541   5.252   0.510
 5743SOL    HW228449   1.678   5.277   0.595
 5744SOL     OW28450   8.686   2.440   6.236
 5744SOL    HW128451   8.655   2.345   6.235
 5744SOL    HW228452   8.614   2.498   6.276
 5745SOL     OW28453   1.540   7.440   2.273
 5745SOL    HW128454   1.617   7.496   2.304
 5745SOL    HW228455   1.454   7.489   2.291
 5746SOL     OW28456   0.054   6.373   4.705
 5746SOL    HW128457   0.083   6.420   4.622
 5746SOL    HW228458   0.035   6.440   4.777
 5747SOL     OW28459   9.579   7.689   3.178
 5747SOL    HW128460   9.558   7.739   3.094
 5747SOL    HW228461   9.545   7.595   3.170
 5748SOL     OW28462   5.022   0.883   5.510
 5748SOL    HW128463   4.994   0.882   5.414
 5748SOL    HW228464   5.045   0.790   5.538
 5749SOL     OW28465   1.790   8.385   3.085
 5749SOL    HW128466   1.800   8.484   3.099
 5749SOL    HW228467   1.696   8.364   3.060
 5750SOL     OW28468   7.191   2.199   2.478
 5750SOL    HW128469   7.158   2.174   2.569
 5750SOL    HW228470   7.131   2.159   2.408
 5751SOL     OW28471   8.822   5.696   3.766
 5751SOL    HW128472   8.849   5.777   3.818
 5751SOL    HW228473   8.901   5.637   3.753
 5752SOL     OW28474   4.435   4.741   0.701
 5752SOL    HW128475   4.373   4.671   0.737
 5752SOL    HW228476   4.398   4.832   0.720
 5753SOL     OW28477   0.365   9.722   4.110
 5753SOL    HW128478   0.374   9.623   4.095
 5753SOL    HW228479   0.276   9.740   4.152
 5754SOL     OW28480   4.875   4.176   2.432
 5754SOL    HW128481   4.933   4.120   2.374
 5754SOL    HW228482   4.804   4.221   2.377
 5755SOL     OW28483   2.869   6.049   4.149
 5755SOL    HW128484   2.788   6.025   4.095
 5755SOL    HW228485   2.917   5.966   4.175
 5756SOL     OW28486   5.519   9.357   5.184
 5756SOL    HW128487   5.547   9.451   5.161
 5756SOL    HW228488   5.419   9.352   5.188
 5757SOL     OW28489   4.393   3.450   2.192
 5757SOL    HW128490   4.330   3.405   2.128
 5757SOL    HW228491   4.397   3.398   2.277
 5758SOL     OW28492   8.915   6.330   4.924
 5758SOL    HW128493   8.916   6.333   5.023
 5758SOL    HW228494   8.957   6.245   4.892
 5759SOL     OW28495   4.379   6.882   3.244
 5759SOL    HW128496   4.448   6.930   3.189
 5759SOL    HW228497   4.386   6.912   3.339
 5760SOL     OW28498   2.302   3.977   1.672
 5760SOL    HW128499   2.207   4.008   1.676
 5760SOL    HW228500   2.322   3.942   1.581
 5761SOL     OW28501   0.165   6.197   2.575
 5761SOL    HW128502   0.123   6.288   2.574
 5761SOL    HW228503   0.095   6.128   2.590
 5762SOL     OW28504   0.253   8.175   4.635
 5762SOL    HW128505   0.258   8.158   4.537
 5762SOL    HW228506   0.281   8.269   4.654
 5763SOL     OW28507   6.275   0.161   6.253
 5763SOL    HW128508   6.177   0.152   6.269
 5763SOL    HW228509   6.294   0.148   6.156
 5764SOL     OW28510   6.273   3.434   0.526
 5764SOL    HW128511   6.364   3.466   0.551
 5764SOL    HW228512   6.205   3.483   0.580
 5765SOL     OW28513   3.715   0.326   5.323
 5765SOL    HW128514   3.706   0.229   5.301
 5765SOL    HW228515   3.735   0.378   5.239
 5766SOL     OW28516   1.994   0.234   5.721
 5766SOL    HW128517   2.063   0.167   5.692
 5766SOL    HW228518   1.964   0.287   5.642
 5767SOL     OW28519   7.109   8.075   5.949
 5767SOL    HW128520   7.129   8.165   5.911
 5767SOL    HW228521   7.194   8.025   5.964
 5768SOL     OW28522   8.309   3.887   1.764
 5768SOL    HW128523   8.317   3.788   1.767
 5768SOL    HW228524   8.363   3.922   1.687
 5769SOL     OW28525   0.263   8.162   4.333
 5769SOL    HW128526   0.269   8.129   4.239
 5769SOL    HW228527   0.168   8.156   4.364
 5770SOL     OW28528   7.303   4.368   0.784
 5770SOL    HW128529   7.346   4.440   0.729
 5770SOL    HW228530   7.235   4.320   0.728
 5771SOL     OW28531   7.139   6.572   5.430
 5771SOL    HW128532   7.155   6.522   5.345
 5771SOL    HW228533   7.197   6.654   5.432
 5772SOL     OW28534   4.449   5.362   1.957
 5772SOL    HW128535   4.354   5.388   1.973
 5772SOL    HW228536   4.485   5.315   2.038
 5773SOL     OW28537   9.350   7.706   2.768
 5773SOL    HW128538   9.396   7.676   2.685
 5773SOL    HW228539   9.280   7.640   2.794
 5774SOL     OW28540   8.422   8.638   5.489
 5774SOL    HW128541   8.398   8.732   5.513
 5774SOL    HW228542   8.339   8.590   5.459
 5775SOL     OW28543   7.261   2.909   5.352
 5775SOL    HW128544   7.353   2.940   5.378
 5775SOL    HW228545   7.261   2.882   5.256
 5776SOL     OW28546   3.681   6.079   4.472
 5776SOL    HW128547   3.671   6.145   4.397
 5776SOL    HW228548   3.661   6.125   4.559
 5777SOL     OW28549   1.421   4.606   4.650
 5777SOL    HW128550   1.334   4.646   4.623
 5777SOL    HW228551   1.492   4.637   4.587
 5778SOL     OW28552   3.343   3.275   0.108
 5778SOL    HW128553   3.264   3.302   0.052
 5778SOL    HW228554   3.346   3.176   0.116
 5779SOL     OW28555   0.199   4.060   4.291
 5779SOL    HW128556   0.151   4.079   4.206
 5779SOL    HW228557   0.160   3.978   4.333
 5780SOL     OW28558   9.811   9.467   4.510
 5780SOL    HW128559   9.834   9.457   4.413
 5780SOL    HW228560   9.731   9.526   4.519
 5781SOL     OW28561   9.228   9.128   5.252
 5781SOL    HW128562   9.186   9.055   5.198
 5781SOL    HW228563   9.296   9.175   5.197
 5782SOL     OW28564   2.792   3.708   2.692
 5782SOL    HW128565   2.793   3.664   2.602
 5782SOL    HW228566   2.742   3.650   2.757
 5783SOL     OW28567   1.821   3.787   2.046
 5783SOL    HW128568   1.900   3.846   2.064
 5783SOL    HW228569   1.800   3.789   1.948
 5784SOL     OW28570   3.316   4.371   1.113
 5784SOL    HW128571   3.219   4.366   1.090
 5784SOL    HW228572   3.340   4.465   1.137
 5785SOL     OW28573   8.245   6.444   2.308
 5785SOL    HW128574   8.265   6.455   2.405
 5785SOL    HW228575   8.186   6.364   2.295
 5786SOL     OW28576   1.079   1.405   2.769
 5786SOL    HW128577   1.116   1.463   2.841
 5786SOL    HW228578   1.045   1.320   2.809
 5787SOL     OW28579   2.098   5.022   0.640
 5787SOL    HW128580   2.120   5.010   0.543
 5787SOL    HW228581   2.178   5.058   0.687
 5788SOL     OW28582   7.209   7.146   4.346
 5788SOL    HW128583   7.172   7.060   4.382
 5788SOL    HW228584   7.233   7.134   4.249
 5789SOL     OW28585   5.466   0.089   5.984
 5789SOL    HW128586   5.472   0.172   6.040
 5789SOL    HW228587   5.517   0.104   5.899
 5790SOL     OW28588   7.125   1.312   3.124
 5790SOL    HW128589   7.168   1.241   3.180
 5790SOL    HW228590   7.182   1.395   3.125
 5791SOL     OW28591   3.785   9.701   5.846
 5791SOL    HW128592   3.722   9.636   5.803
 5791SOL    HW228593   3.789   9.784   5.790
 5792SOL     OW28594   6.823   4.040   0.283
 5792SOL    HW128595   6.762   3.971   0.323
 5792SOL    HW228596   6.780   4.078   0.201
 5793SOL     OW28597   4.747   1.159   3.509
 5793SOL    HW128598   4.734   1.238   3.569
 5793SOL    HW228599   4.691   1.082   3.542
 5794SOL     OW28600   2.659   9.229   3.686
 5794SOL    HW128601   2.755   9.229   3.658
 5794SOL    HW228602   2.654   9.252   3.784
 5795SOL     OW28603   6.435   1.704   4.162
 5795SOL    HW128604   6.446   1.606   4.173
 5795SOL    HW228605   6.402   1.724   4.070
 5796SOL     OW28606   2.650   7.520   5.318
 5796SOL    HW128607   2.680   7.538   5.224
 5796SOL    HW228608   2.554   7.545   5.327
 5797SOL     OW28609   8.006   2.541   0.608
 5797SOL    HW128610   8.007   2.576   0.702
 5797SOL    HW228611   7.955   2.455   0.605
 5798SOL     OW28612   0.284   5.254   6.403
 5798SOL    HW128613   0.199   5.268   6.454
 5798SOL    HW228614   0.271   5.182   6.335
 5799SOL     OW28615   4.539   3.085   3.327
 5799SOL    HW128616   4.461   3.138   3.359
 5799SOL    HW228617   4.540   2.996   3.374
 5800SOL     OW28618   7.577   3.615   2.743
 5800SOL    HW128619   7.479   3.624   2.727
 5800SOL    HW228620   7.598   3.633   2.839
 5801SOL     OW28621   4.291   1.423   1.890
 5801SOL    HW128622   4.362   1.356   1.913
 5801SOL    HW228623   4.201   1.386   1.914
 5802SOL     OW28624   2.485   7.262   3.918
 5802SOL    HW128625   2.467   7.164   3.926
 5802SOL    HW228626   2.508   7.285   3.824
 5803SOL     OW28627   1.675   0.048   2.257
 5803SOL    HW128628   1.654   0.013   2.348
 5803SOL    HW228629   1.628   9.993   2.188
 5804SOL     OW28630   0.085   9.109   5.215
 5804SOL    HW128631   0.101   9.207   5.227
 5804SOL    HW228632   0.171   9.060   5.223
 5805SOL     OW28633   9.041   3.025   3.489
 5805SOL    HW128634   8.985   2.975   3.422
 5805SOL    HW228635   9.001   3.115   3.506
 5806SOL     OW28636   0.632   1.913   0.417
 5806SOL    HW128637   0.576   1.968   0.354
 5806SOL    HW228638   0.669   1.834   0.368
 5807SOL     OW28639   8.821   5.179   5.298
 5807SOL    HW128640   8.772   5.161   5.384
 5807SOL    HW228641   8.757   5.172   5.221
 5808SOL     OW28642   1.249   2.465   1.122
 5808SOL    HW128643   1.267   2.399   1.049
 5808SOL    HW228644   1.169   2.436   1.174
 5809SOL     OW28645   7.438   1.389   0.395
 5809SOL    HW128646   7.481   1.342   0.471
 5809SOL    HW228647   7.358   1.439   0.427
 5810SOL     OW28648   5.199   9.594   2.674
 5810SOL    HW128649   5.240   9.546   2.597
 5810SOL    HW228650   5.224   9.691   2.670
 5811SOL     OW28651   9.509   9.776   6.025
 5811SOL    HW128652   9.558   9.786   5.938
 5811SOL    HW228653   9.537   9.691   6.069
 5812SOL     OW28654   2.687   0.241   6.021
 5812SOL    HW128655   2.646   0.222   6.110
 5812SOL    HW228656   2.646   0.181   5.952
 5813SOL     OW28657   9.314   2.942   2.839
 5813SOL    HW128658   9.312   2.903   2.931
 5813SOL    HW228659   9.347   3.037   2.844
 5814SOL     OW28660   1.018   2.262   4.932
 5814SOL    HW128661   1.095   2.319   4.902
 5814SOL    HW228662   0.936   2.318   4.939
 5815SOL     OW28663   2.052   9.276   3.762
 5815SOL    HW128664   2.105   9.322   3.691
 5815SOL    HW228665   2.114   9.241   3.832
 5816SOL     OW28666   7.883   0.755   5.252
 5816SOL    HW128667   7.955   0.821   5.230
 5816SOL    HW228668   7.794   0.795   5.232
 5817SOL     OW28669   4.880   5.325   0.776
 5817SOL    HW128670   4.823   5.338   0.857
 5817SOL    HW228671   4.881   5.228   0.752
 5818SOL     OW28672   1.130   2.817   0.361
 5818SOL    HW128673   1.185   2.900   0.352
 5818SOL    HW228674   1.060   2.816   0.289
 5819SOL     OW28675   4.884   7.475   2.198
 5819SOL    HW128676   4.815   7.432   2.140
 5819SOL    HW228677   4.952   7.521   2.141
 5820SOL     OW28678   7.274   5.729   1.889
 5820SOL    HW128679   7.371   5.734   1.910
 5820SOL    HW228680   7.256   5.778   1.803
 5821SOL     OW28681   4.017   4.325   4.991
 5821SOL    HW128682   4.053   4.256   4.927
 5821SOL    HW228683   4.018   4.415   4.947
 5822SOL     OW28684   7.629   9.062   2.188
 5822SOL    HW128685   7.644   8.964   2.179
 5822SOL    HW228686   7.663   9.108   2.106
 5823SOL     OW28687   2.060   1.248   4.680
 5823SOL    HW128688   2.056   1.306   4.598
 5823SOL    HW228689   1.980   1.187   4.681
 5824SOL     OW28690   2.715   8.605   5.616
 5824SOL    HW128691   2.663   8.520   5.623
 5824SOL    HW228692   2.776   8.613   5.695
 5825SOL     OW28693   3.158   3.897   2.156
 5825SOL    HW128694   3.156   3.997   2.164
 5825SOL    HW228695   3.064   3.864   2.144
 5826SOL     OW28696   3.309   5.244   1.521
 5826SOL    HW128697   3.378   5.276   1.455
 5826SOL    HW228698   3.342   5.161   1.566
 5827SOL     OW28699   0.824   7.524   2.252
 5827SOL    HW128700   0.871   7.607   2.220
 5827SOL    HW228701   0.759   7.548   2.324
 5828SOL     OW28702   7.969   9.299   2.779
 5828SOL    HW128703   8.020   9.218   2.748
 5828SOL    HW228704   7.979   9.308   2.878
 5829SOL     OW28705   9.650   8.931   6.080
 5829SOL    HW128706   9.676   9.007   6.140
 5829SOL    HW228707   9.710   8.853   6.097
 5830SOL     OW28708   2.925   0.084   2.424
 5830SOL    HW128709   2.984   0.165   2.432
 5830SOL    HW228710   2.940   0.040   2.335
 5831SOL     OW28711   0.086   3.827   4.400
 5831SOL    HW128712   0.039   3.775   4.471
 5831SOL    HW228713   0.182   3.798   4.394
 5832SOL     OW28714   0.560   9.827   4.413
 5832SOL    HW128715   0.527   9.733   4.420
 5832SOL    HW228716   0.554   9.858   4.318
 5833SOL     OW28717   1.918   4.941   4.207
 5833SOL    HW128718   1.931   4.931   4.108
 5833SOL    HW228719   1.954   5.029   4.237
 5834SOL     OW28720   5.509   0.269   2.772
 5834SOL    HW128721   5.433   0.330   2.795
 5834SOL    HW228722   5.474   0.191   2.719
 5835SOL     OW28723   9.524   5.839   1.499
 5835SOL    HW128724   9.509   5.860   1.402
 5835SOL    HW228725   9.442   5.795   1.537
 5836SOL     OW28726   4.056   1.491   1.661
 5836SOL    HW128727   4.087   1.410   1.611
 5836SOL    HW228728   4.133   1.551   1.680
 5837SOL     OW28729   6.196   2.821   4.959
 5837SOL    HW128730   6.237   2.802   5.048
 5837SOL    HW228731   6.110   2.770   4.950
 5838SOL     OW28732   6.753   2.439   2.281
 5838SOL    HW128733   6.693   2.494   2.223
 5838SOL    HW228734   6.786   2.495   2.357
 5839SOL     OW28735   8.010   0.792   3.504
 5839SOL    HW128736   7.970   0.877   3.540
 5839SOL    HW228737   8.075   0.814   3.431
 5840SOL     OW28738   3.241   1.909   1.264
 5840SOL    HW128739   3.283   1.832   1.311
 5840SOL    HW228740   3.168   1.948   1.320
 5841SOL     OW28741   8.753   8.446   5.666
 5841SOL    HW128742   8.807   8.429   5.748
 5841SOL    HW228743   8.716   8.539   5.669
 5842SOL     OW28744   7.851   4.108   3.177
 5842SOL    HW128745   7.880   4.039   3.243
 5842SOL    HW228746   7.783   4.168   3.218
 5843SOL     OW28747   4.203   8.024   3.322
 5843SOL    HW128748   4.158   8.027   3.232
 5843SOL    HW228749   4.186   7.935   3.364
 5844SOL     OW28750   4.124   9.271   0.116
 5844SOL    HW128751   4.034   9.236   0.145
 5844SOL    HW228752   4.191   9.197   0.117
 5845SOL     OW28753   4.020   3.567   3.834
 5845SOL    HW128754   3.999   3.494   3.769
 5845SOL    HW228755   3.938   3.623   3.847
 5846SOL     OW28756   3.998   5.648   1.784
 5846SOL    HW128757   3.910   5.664   1.739
 5846SOL    HW228758   4.032   5.558   1.758
 5847SOL     OW28759   1.919   9.324   0.369
 5847SOL    HW128760   1.876   9.329   0.279
 5847SOL    HW228761   2.015   9.296   0.358
 5848SOL     OW28762   7.728   6.642   6.277
 5848SOL    HW128763   7.698   6.592   6.197
 5848SOL    HW228764   7.812   6.601   6.313
 5849SOL     OW28765   1.670   5.614   2.820
 5849SOL    HW128766   1.670   5.600   2.920
 5849SOL    HW228767   1.665   5.525   2.775
 5850SOL     OW28768   2.569   0.179   6.265
 5850SOL    HW128769   2.524   0.090   6.271
 5850SOL    HW228770   2.501   0.251   6.271
 5851SOL     OW28771   9.932   8.508   0.924
 5851SOL    HW128772   9.954   8.595   0.880
 5851SOL    HW228773   9.847   8.517   0.976
 5852SOL     OW28774   9.567   3.458   3.957
 5852SOL    HW128775   9.493   3.486   4.018
 5852SOL    HW228776   9.541   3.374   3.909
 5853SOL     OW28777   2.468   0.808   2.239
 5853SOL    HW128778   2.561   0.793   2.270
 5853SOL    HW228779   2.469   0.854   2.150
 5854SOL     OW28780   4.571   8.395   3.910
 5854SOL    HW128781   4.638   8.454   3.955
 5854SOL    HW228782   4.619   8.327   3.855
 5855SOL     OW28783   6.702   9.738   6.040
 5855SOL    HW128784   6.692   9.644   6.075
 5855SOL    HW228785   6.765   9.738   5.962
 5856SOL     OW28786   2.590   9.702   5.101
 5856SOL    HW128787   2.557   9.780   5.048
 5856SOL    HW228788   2.519   9.632   5.105
 5857SOL     OW28789   4.564   6.439   2.405
 5857SOL    HW128790   4.567   6.489   2.491
 5857SOL    HW228791   4.529   6.347   2.421
 5858SOL     OW28792   0.306   0.853   2.221
 5858SOL    HW128793   0.223   0.805   2.192
 5858SOL    HW228794   0.330   0.823   2.314
 5859SOL     OW28795   2.362   2.215   3.716
 5859SOL    HW128796   2.345   2.284   3.646
 5859SOL    HW228797   2.371   2.125   3.674
 5860SOL     OW28798   7.107   3.949   1.234
 5860SOL    HW128799   7.187   3.905   1.275
 5860SOL    HW228800   7.111   3.938   1.134
 5861SOL     OW28801   3.647   6.375   2.119
 5861SOL    HW128802   3.690   6.454   2.076
 5861SOL    HW228803   3.548   6.390   2.125
 5862SOL     OW28804   1.781   0.995   4.432
 5862SOL    HW128805   1.684   0.992   4.408
 5862SOL    HW228806   1.794   1.046   4.516
 5863SOL     OW28807   0.039   7.119   2.162
 5863SOL    HW128808   0.094   7.173   2.226
 5863SOL    HW228809   9.946   7.111   2.197
 5864SOL     OW28810   8.074   9.822   1.396
 5864SOL    HW128811   8.006   9.832   1.469
 5864SOL    HW228812   8.131   9.903   1.393
 5865SOL     OW28813   3.233   6.621   4.444
 5865SOL    HW128814   3.171   6.617   4.522
 5865SOL    HW228815   3.307   6.686   4.463
 5866SOL     OW28816   8.543   4.368   1.166
 5866SOL    HW128817   8.638   4.383   1.192
 5866SOL    HW228818   8.487   4.360   1.248
 5867SOL     OW28819   9.428   1.960   0.820
 5867SOL    HW128820   9.409   2.054   0.846
 5867SOL    HW228821   9.458   1.957   0.725
 5868SOL     OW28822   2.733   0.768   2.290
 5868SOL    HW128823   2.779   0.686   2.255
 5868SOL    HW228824   2.798   0.842   2.301
 5869SOL     OW28825   2.230   5.945   0.404
 5869SOL    HW128826   2.133   5.921   0.393
 5869SOL    HW228827   2.260   5.920   0.496
 5870SOL     OW28828   6.379   1.573   1.337
 5870SOL    HW128829   6.478   1.561   1.337
 5870SOL    HW228830   6.335   1.486   1.358
 5871SOL     OW28831   9.205   5.339   0.342
 5871SOL    HW128832   9.133   5.319   0.409
 5871SOL    HW228833   9.194   5.280   0.262
 5872SOL     OW28834   4.518   2.623   6.399
 5872SOL    HW128835   4.575   2.635   6.318
 5872SOL    HW228836   4.484   2.712   6.430
 5873SOL     OW28837   3.974   3.452   5.072
 5873SOL    HW128838   3.897   3.500   5.114
 5873SOL    HW228839   3.942   3.364   5.035
 5874SOL     OW28840   1.016   3.331   5.247
 5874SOL    HW128841   0.939   3.299   5.301
 5874SOL    HW228842   1.089   3.363   5.308
 5875SOL     OW28843   7.919   0.425   5.835
 5875SOL    HW128844   7.919   0.445   5.933
 5875SOL    HW228845   7.991   0.478   5.790
 5876SOL     OW28846   4.018   1.595   2.063
 5876SOL    HW128847   4.092   1.594   2.130
 5876SOL    HW228848   4.010   1.505   2.020
 5877SOL     OW28849   1.456   4.530   5.352
 5877SOL    HW128850   1.474   4.483   5.266
 5877SOL    HW228851   1.465   4.629   5.338
 5878SOL     OW28852   6.745   8.216   5.139
 5878SOL    HW128853   6.811   8.146   5.112
 5878SOL    HW228854   6.729   8.212   5.237
 5879SOL     OW28855   6.870   8.422   5.486
 5879SOL    HW128856   6.846   8.494   5.421
 5879SOL    HW228857   6.967   8.401   5.479
 5880SOL     OW28858   2.128   1.224   5.419
 5880SOL    HW128859   2.202   1.157   5.416
 5880SOL    HW228860   2.110   1.257   5.326
 5881SOL     OW28861   3.103   1.383   2.791
 5881SOL    HW128862   3.068   1.371   2.884
 5881SOL    HW228863   3.196   1.417   2.795
 5882SOL     OW28864   3.961   5.422   0.675
 5882SOL    HW128865   3.964   5.407   0.576
 5882SOL    HW228866   4.030   5.364   0.719
 5883SOL     OW28867   8.289   5.508   0.490
 5883SOL    HW128868   8.195   5.540   0.505
 5883SOL    HW228869   8.315   5.525   0.395
 5884SOL     OW28870   0.684   0.205   0.461
 5884SOL    HW128871   0.603   0.255   0.491
 5884SOL    HW228872   0.766   0.253   0.495
 5885SOL     OW28873   0.944   6.608   3.070
 5885SOL    HW128874   0.893   6.596   2.985
 5885SOL    HW228875   1.042   6.603   3.051
 5886SOL     OW28876   6.551   0.104   3.739
 5886SOL    HW128877   6.485   0.105   3.814
 5886SOL    HW228878   6.643   0.087   3.776
 5887SOL     OW28879   0.952   7.459   6.296
 5887SOL    HW128880   1.020   7.526   6.327
 5887SOL    HW228881   0.943   7.465   6.197
 5888SOL     OW28882   1.490   5.052   4.646
 5888SOL    HW128883   1.399   5.009   4.648
 5888SOL    HW228884   1.550   5.006   4.711
 5889SOL     OW28885   0.578   5.565   0.882
 5889SOL    HW128886   0.654   5.630   0.885
 5889SOL    HW228887   0.492   5.616   0.881
 5890SOL     OW28888   8.587   5.102   3.744
 5890SOL    HW128889   8.672   5.124   3.697
 5890SOL    HW228890   8.542   5.187   3.772
 5891SOL     OW28891   4.388   8.518   0.089
 5891SOL    HW128892   4.473   8.474   0.115
 5891SOL    HW228893   4.313   8.483   0.145
 5892SOL     OW28894   7.885   8.927   3.568
 5892SOL    HW128895   7.864   8.920   3.665
 5892SOL    HW228896   7.874   8.838   3.524
 5893SOL     OW28897   6.742   3.570   1.109
 5893SOL    HW128898   6.774   3.608   1.196
 5893SOL    HW228899   6.813   3.511   1.071
 5894SOL     OW28900   4.199   8.487   1.543
 5894SOL    HW128901   4.128   8.458   1.478
 5894SOL    HW228902   4.203   8.423   1.619
 5895SOL     OW28903   9.591   4.975   6.025
 5895SOL    HW128904   9.548   5.037   6.091
 5895SOL    HW228905   9.661   4.920   6.072
 5896SOL     OW28906   8.337   7.413   2.511
 5896SOL    HW128907   8.366   7.498   2.555
 5896SOL    HW228908   8.281   7.359   2.574
 5897SOL     OW28909   1.030   8.891   2.934
 5897SOL    HW128910   0.966   8.837   2.879
 5897SOL    HW228911   1.006   8.882   3.031
 5898SOL     OW28912   7.734   1.315   1.466
 5898SOL    HW128913   7.729   1.229   1.517
 5898SOL    HW228914   7.822   1.319   1.417
 5899SOL     OW28915   3.636   1.506   1.526
 5899SOL    HW128916   3.541   1.505   1.557
 5899SOL    HW228917   3.697   1.504   1.605
 5900SOL     OW28918   9.769   8.357   3.767
 5900SOL    HW128919   9.799   8.425   3.701
 5900SOL    HW228920   9.736   8.276   3.719
 5901SOL     OW28921   8.880   5.593   5.406
 5901SOL    HW128922   8.931   5.525   5.353
 5901SOL    HW228923   8.792   5.611   5.362
 5902SOL     OW28924   7.824   7.271   1.671
 5902SOL    HW128925   7.828   7.370   1.684
 5902SOL    HW228926   7.916   7.236   1.654
 5903SOL     OW28927   3.161   6.871   4.990
 5903SOL    HW128928   3.068   6.888   4.955
 5903SOL    HW228929   3.155   6.838   5.084
 5904SOL     OW28930   4.799   2.023   5.688
 5904SOL    HW128931   4.747   2.105   5.708
 5904SOL    HW228932   4.748   1.965   5.624
 5905SOL     OW28933   8.801   9.704   4.891
 5905SOL    HW128934   8.788   9.733   4.986
 5905SOL    HW228935   8.876   9.638   4.886
 5906SOL     OW28936   4.390   3.555   6.166
 5906SOL    HW128937   4.330   3.635   6.168
 5906SOL    HW228938   4.368   3.498   6.087
 5907SOL     OW28939   6.726   7.880   3.925
 5907SOL    HW128940   6.732   7.871   4.024
 5907SOL    HW228941   6.708   7.791   3.883
 5908SOL     OW28942   9.475   5.356   4.663
 5908SOL    HW128943   9.447   5.307   4.745
 5908SOL    HW228944   9.562   5.402   4.679
 5909SOL     OW28945   9.725   7.977   3.819
 5909SOL    HW128946   9.669   8.006   3.897
 5909SOL    HW228947   9.683   7.899   3.774
 5910SOL     OW28948   1.892   3.822   4.761
 5910SOL    HW128949   1.833   3.870   4.695
 5910SOL    HW228950   1.852   3.830   4.852
 5911SOL     OW28951   1.500   3.360   5.030
 5911SOL    HW128952   1.574   3.300   5.057
 5911SOL    HW228953   1.471   3.338   4.937
 5912SOL     OW28954   1.487   5.330   4.612
 5912SOL    HW128955   1.556   5.324   4.540
 5912SOL    HW228956   1.476   5.240   4.655
 5913SOL     OW28957   0.940   6.354   1.139
 5913SOL    HW128958   0.988   6.307   1.213
 5913SOL    HW228959   0.926   6.450   1.163
 5914SOL     OW28960   7.378   0.250   5.462
 5914SOL    HW128961   7.300   0.222   5.406
 5914SOL    HW228962   7.357   0.335   5.509
 5915SOL     OW28963   9.705   4.687   2.483
 5915SOL    HW128964   9.663   4.633   2.411
 5915SOL    HW228965   9.770   4.752   2.443
 5916SOL     OW28966   6.378   0.098   3.986
 5916SOL    HW128967   6.430   0.145   4.058
 5916SOL    HW228968   6.335   0.017   4.024
 5917SOL     OW28969   8.088   7.207   1.639
 5917SOL    HW128970   8.124   7.298   1.619
 5917SOL    HW228971   8.119   7.143   1.568
 5918SOL     OW28972   2.112   2.089   3.500
 5918SOL    HW128973   2.074   2.079   3.592
 5918SOL    HW228974   2.206   2.054   3.500
 5919SOL     OW28975   9.953   2.933   3.633
 5919SOL    HW128976   9.912   2.852   3.592
 5919SOL    HW228977   9.989   2.992   3.561
 5920SOL     OW28978   3.348   1.948   5.423
 5920SOL    HW128979   3.347   2.035   5.473
 5920SOL    HW228980   3.306   1.960   5.333
 5921SOL     OW28981   4.076   2.908   2.592
 5921SOL    HW128982   3.996   2.893   2.650
 5921SOL    HW228983   4.068   2.854   2.509
 5922SOL     OW28984   0.032   8.755   4.873
 5922SOL    HW128985   9.941   8.771   4.911
 5922SOL    HW228986   0.090   8.834   4.892
 5923SOL     OW28987   4.054   5.200   6.311
 5923SOL    HW128988   4.154   5.189   6.310
 5923SOL    HW228989   4.013   5.129   6.254
 5924SOL     OW28990   9.221   1.154   3.198
 5924SOL    HW128991   9.266   1.207   3.270
 5924SOL    HW228992   9.184   1.215   3.128
 5925SOL     OW28993   9.201   2.958   0.612
 5925SOL    HW128994   9.103   2.938   0.625
 5925SOL    HW228995   9.228   3.031   0.675
 5926SOL     OW28996   3.685   3.413   4.667
 5926SOL    HW128997   3.655   3.319   4.681
 5926SOL    HW228998   3.670   3.465   4.752
 5927SOL     OW28999   2.358   1.344   4.015
 5927SOL    HW129000   2.341   1.356   4.113
 5927SOL    HW229001   2.456   1.349   3.997
 5928SOL     OW29002   3.935   8.220   3.156
 5928SOL    HW129003   4.011   8.166   3.119
 5928SOL    HW229004   3.967   8.312   3.177
 5929SOL     OW29005   4.935   1.998   6.247
 5929SOL    HW129006   4.978   2.081   6.282
 5929SOL    HW229007   4.894   2.017   6.158
 5930SOL     OW29008   1.982   8.831   3.777
 5930SOL    HW129009   1.965   8.905   3.712
 5930SOL    HW229010   2.014   8.868   3.863
 5931SOL     OW29011   9.495   0.823   2.708
 5931SOL    HW129012   9.547   0.786   2.631
 5931SOL    HW229013   9.420   0.761   2.731
 5932SOL     OW29014   8.535   9.423   2.313
 5932SOL    HW129015   8.589   9.443   2.394
 5932SOL    HW229016   8.458   9.487   2.308
 5933SOL     OW29017   1.730   2.154   2.808
 5933SOL    HW129018   1.744   2.226   2.877
 5933SOL    HW229019   1.762   2.067   2.845
 5934SOL     OW29020   8.104   9.021   5.808
 5934SOL    HW129021   8.063   9.009   5.717
 5934SOL    HW229022   8.035   8.999   5.878
 5935SOL     OW29023   8.291   0.406   0.057
 5935SOL    HW129024   8.359   0.425   0.129
 5935SOL    HW229025   8.212   0.465   0.070
 5936SOL     OW29026   0.297   3.618   0.808
 5936SOL    HW129027   0.319   3.655   0.899
 5936SOL    HW229028   0.382   3.595   0.760
 5937SOL     OW29029   1.426   7.062   4.190
 5937SOL    HW129030   1.504   7.111   4.230
 5937SOL    HW229031   1.450   6.966   4.176
 5938SOL     OW29032   8.704   1.352   1.768
 5938SOL    HW129033   8.752   1.292   1.703
 5938SOL    HW229034   8.614   1.314   1.788
 5939SOL     OW29035   8.632   9.124   1.771
 5939SOL    HW129036   8.675   9.166   1.850
 5939SOL    HW229037   8.548   9.078   1.800
 5940SOL     OW29038   9.289   6.171   4.537
 5940SOL    HW129039   9.318   6.085   4.493
 5940SOL    HW229040   9.193   6.188   4.516
 5941SOL     OW29041   0.080   6.053   1.014
 5941SOL    HW129042   0.070   6.145   1.054
 5941SOL    HW229043   9.994   6.003   1.023
 5942SOL     OW29044   2.667   0.402   1.094
 5942SOL    HW129045   2.567   0.401   1.093
 5942SOL    HW229046   2.701   0.442   1.009
 5943SOL     OW29047   2.252   4.005   4.947
 5943SOL    HW129048   2.317   4.022   4.873
 5943SOL    HW229049   2.216   3.912   4.940
 5944SOL     OW29050   3.998   5.933   1.153
 5944SOL    HW129051   3.951   5.951   1.067
 5944SOL    HW229052   4.067   5.862   1.139
 5945SOL     OW29053   9.879   5.668   2.268
 5945SOL    HW129054   9.911   5.681   2.361
 5945SOL    HW229055   9.896   5.574   2.238
 5946SOL     OW29056   5.619   3.802   0.807
 5946SOL    HW129057   5.692   3.785   0.873
 5946SOL    HW229058   5.627   3.896   0.772
 5947SOL     OW29059   3.778   9.356   5.429
 5947SOL    HW129060   3.768   9.333   5.525
 5947SOL    HW229061   3.687   9.364   5.387
 5948SOL     OW29062   0.950   6.096   5.709
 5948SOL    HW129063   0.958   6.146   5.623
 5948SOL    HW229064   0.976   6.157   5.785
 5949SOL     OW29065   0.532   6.526   5.468
 5949SOL    HW129066   0.562   6.572   5.552
 5949SOL    HW229067   0.440   6.556   5.444
 5950SOL     OW29068   8.573   1.200   3.412
 5950SOL    HW129069   8.497   1.145   3.377
 5950SOL    HW229070   8.565   1.208   3.512
 5951SOL     OW29071   9.080   1.982   1.653
 5951SOL    HW129072   9.104   1.915   1.723
 5951SOL    HW229073   9.042   2.064   1.696
 5952SOL     OW29074   8.189   7.448   1.576
 5952SOL    HW129075   8.279   7.444   1.534
 5952SOL    HW229076   8.167   7.542   1.600
 5953SOL     OW29077   1.340   9.303   0.909
 5953SOL    HW129078   1.259   9.362   0.913
 5953SOL    HW229079   1.420   9.358   0.884
 5954SOL     OW29080   2.090   3.065   4.134
 5954SOL    HW129081   2.057   3.126   4.206
 5954SOL    HW229082   2.134   2.986   4.174
 5955SOL     OW29083   3.755   4.366   4.669
 5955SOL    HW129084   3.850   4.340   4.648
 5955SOL    HW229085   3.748   4.389   4.766
 5956SOL     OW29086   3.323   0.910   2.139
 5956SOL    HW129087   3.297   0.954   2.225
 5956SOL    HW229088   3.291   0.965   2.062
 5957SOL     OW29089   1.290   4.118   5.536
 5957SOL    HW129090   1.215   4.148   5.477
 5957SOL    HW229091   1.351   4.195   5.554
 5958SOL     OW29092   9.885   7.190   1.731
 5958SOL    HW129093   9.868   7.267   1.793
 5958SOL    HW229094   9.925   7.114   1.783
 5959SOL     OW29095   3.467   0.754   1.724
 5959SOL    HW129096   3.381   0.721   1.686
 5959SOL    HW229097   3.459   0.762   1.823
 5960SOL     OW29098   9.695   6.746   5.538
 5960SOL    HW129099   9.720   6.841   5.557
 5960SOL    HW229100   9.679   6.697   5.624
 5961SOL     OW29101   8.659   8.705   5.626
 5961SOL    HW129102   8.629   8.792   5.665
 5961SOL    HW229103   8.588   8.670   5.564
 5962SOL     OW29104   8.642   4.526   0.501
 5962SOL    HW129105   8.710   4.510   0.430
 5962SOL    HW229106   8.635   4.624   0.519
 5963SOL     OW29107   2.788   2.046   1.562
 5963SOL    HW129108   2.689   2.037   1.559
 5963SOL    HW229109   2.813   2.143   1.568
 5964SOL     OW29110   5.300   2.153   0.945
 5964SOL    HW129111   5.262   2.238   0.983
 5964SOL    HW229112   5.362   2.111   1.011
 5965SOL     OW29113   0.154   9.554   0.138
 5965SOL    HW129114   0.125   9.562   0.233
 5965SOL    HW229115   0.101   9.481   0.093
 5966SOL     OW29116   2.794   7.117   5.044
 5966SOL    HW129117   2.834   7.039   4.996
 5966SOL    HW229118   2.867   7.168   5.090
 5967SOL     OW29119   1.241   9.607   4.181
 5967SOL    HW129120   1.189   9.665   4.118
 5967SOL    HW229121   1.209   9.623   4.275
 5968SOL     OW29122   9.572   4.776   3.597
 5968SOL    HW129123   9.601   4.782   3.502
 5968SOL    HW229124   9.591   4.863   3.643
 5969SOL     OW29125   1.157   3.604   0.328
 5969SOL    HW129126   1.136   3.522   0.381
 5969SOL    HW229127   1.244   3.591   0.280
 5970SOL     OW29128   4.528   0.719   3.909
 5970SOL    HW129129   4.439   0.758   3.934
 5970SOL    HW229130   4.593   0.793   3.891
 5971SOL     OW29131   0.452   3.611   5.380
 5971SOL    HW129132   0.526   3.583   5.319
 5971SOL    HW229133   0.468   3.574   5.472
 5972SOL     OW29134   1.108   0.337   5.656
 5972SOL    HW129135   1.151   0.426   5.641
 5972SOL    HW229136   1.008   0.346   5.646
 5973SOL     OW29137   8.579   2.827   5.682
 5973SOL    HW129138   8.648   2.777   5.628
 5973SOL    HW229139   8.488   2.811   5.643
 5974SOL     OW29140   8.003   3.226   3.610
 5974SOL    HW129141   7.915   3.230   3.657
 5974SOL    HW229142   8.070   3.279   3.662
 5975SOL     OW29143   0.303   8.369   0.462
 5975SOL    HW129144   0.336   8.312   0.387
 5975SOL    HW229145   0.207   8.349   0.480
 5976SOL     OW29146   2.148   1.614   0.494
 5976SOL    HW129147   2.054   1.627   0.462
 5976SOL    HW229148   2.204   1.580   0.419
 5977SOL     OW29149   3.674   7.004   0.951
 5977SOL    HW129150   3.710   7.049   1.033
 5977SOL    HW229151   3.717   6.914   0.940
 5978SOL     OW29152   3.521   0.869   6.305
 5978SOL    HW129153   3.555   0.786   6.348
 5978SOL    HW229154   3.592   0.907   6.246
 5979SOL     OW29155   5.302   9.668   6.315
 5979SOL    HW129156   5.367   9.594   6.331
 5979SOL    HW229157   5.209   9.630   6.308
 5980SOL     OW29158   4.548   2.867   3.513
 5980SOL    HW129159   4.559   2.783   3.460
 5980SOL    HW229160   4.637   2.910   3.526
 5981SOL     OW29161   2.297   7.290   0.137
 5981SOL    HW129162   2.205   7.301   0.175
 5981SOL    HW229163   2.291   7.268   0.040
 5982SOL     OW29164   1.390   7.061   3.907
 5982SOL    HW129165   1.394   6.962   3.892
 5982SOL    HW229166   1.398   7.080   4.005
 5983SOL     OW29167   5.847   4.520   0.815
 5983SOL    HW129168   5.942   4.535   0.785
 5983SOL    HW229169   5.847   4.488   0.910
 5984SOL     OW29170   2.372   0.155   3.697
 5984SOL    HW129171   2.399   0.164   3.793
 5984SOL    HW229172   2.356   0.246   3.659
 5985SOL     OW29173   8.837   5.027   3.173
 5985SOL    HW129174   8.928   5.040   3.132
 5985SOL    HW229175   8.848   5.001   3.269
 5986SOL     OW29176   9.244   8.753   3.315
 5986SOL    HW129177   9.209   8.683   3.254
 5986SOL    HW229178   9.339   8.773   3.291
 5987SOL     OW29179   7.864   1.297   2.477
 5987SOL    HW129180   7.777   1.247   2.478
 5987SOL    HW229181   7.860   1.370   2.545
 5988SOL     OW29182   3.716   4.693   4.947
 5988SOL    HW129183   3.649   4.718   5.017
 5988SOL    HW229184   3.697   4.743   4.863
 5989SOL     OW29185   9.813   6.555   1.364
 5989SOL    HW129186   9.886   6.542   1.431
 5989SOL    HW229187   9.724   6.554   1.411
 5990SOL     OW29188   4.436   6.788   1.999
 5990SOL    HW129189   4.474   6.777   1.908
 5990SOL    HW229190   4.374   6.712   2.019
 5991SOL     OW29191   5.218   1.552   5.996
 5991SOL    HW129192   5.308   1.513   6.014
 5991SOL    HW229193   5.207   1.636   6.050
 5992SOL     OW29194   3.088   8.899   3.409
 5992SOL    HW129195   3.136   8.976   3.452
 5992SOL    HW229196   3.136   8.873   3.325
 5993SOL     OW29197   9.354   6.584   1.411
 5993SOL    HW129198   9.363   6.681   1.434
 5993SOL    HW229199   9.289   6.574   1.336
 5994SOL     OW29200   7.376   9.441   2.210
 5994SOL    HW129201   7.385   9.343   2.229
 5994SOL    HW229202   7.349   9.489   2.293
 5995SOL     OW29203   1.865   5.433   6.429
 5995SOL    HW129204   1.849   5.335   6.444
 5995SOL    HW229205   1.937   5.465   6.491
 5996SOL     OW29206   6.121   9.225   4.161
 5996SOL    HW129207   6.159   9.132   4.160
 5996SOL    HW229208   6.025   9.221   4.189
 5997SOL     OW29209   4.596   4.011   0.967
 5997SOL    HW129210   4.681   4.060   0.987
 5997SOL    HW229211   4.617   3.930   0.911
 5998SOL     OW29212   3.094   9.801   4.151
 5998SOL    HW129213   3.130   9.731   4.214
 5998SOL    HW229214   3.004   9.830   4.182
 5999SOL     OW29215   3.468   7.547   4.701
 5999SOL    HW129216   3.532   7.565   4.627
 5999SOL    HW229217   3.497   7.466   4.752
 6000SOL     OW29218   2.849   4.033   2.522
 6000SOL    HW129219   2.778   3.997   2.583
 6000SOL    HW229220   2.860   4.131   2.539
 6001SOL     OW29221   6.130   8.297   3.745
 6001SOL    HW129222   6.049   8.241   3.765
 6001SOL    HW229223   6.208   8.237   3.724
 6002SOL     OW29224   6.740   2.469   4.036
 6002SOL    HW129225   6.648   2.498   4.012
 6002SOL    HW229226   6.782   2.424   3.957
 6003SOL     OW29227   1.501   8.973   1.518
 6003SOL    HW129228   1.553   8.963   1.603
 6003SOL    HW229229   1.403   8.974   1.539
 6004SOL     OW29230   4.468   8.523   1.567
 6004SOL    HW129231   4.369   8.521   1.556
 6004SOL    HW229232   4.493   8.474   1.650
 6005SOL     OW29233   7.791   0.666   2.929
 6005SOL    HW129234   7.882   0.665   2.887
 6005SOL    HW229235   7.722   0.685   2.858
 6006SOL     OW29236   9.226   8.375   0.437
 6006SOL    HW129237   9.230   8.409   0.343
 6006SOL    HW229238   9.262   8.444   0.500
 6007SOL     OW29239   0.963   9.232   0.666
 6007SOL    HW129240   0.933   9.267   0.578
 6007SOL    HW229241   1.063   9.234   0.671
 6008SOL     OW29242   6.982   2.072   2.334
 6008SOL    HW129243   6.971   2.008   2.410
 6008SOL    HW229244   6.892   2.104   2.304
 6009SOL     OW29245   0.536   8.927   5.614
 6009SOL    HW129246   0.620   8.921   5.668
 6009SOL    HW229247   0.457   8.915   5.674
 6010SOL     OW29248   1.607   5.929   5.467
 6010SOL    HW129249   1.648   6.017   5.490
 6010SOL    HW229250   1.641   5.898   5.378
 6011SOL     OW29251   2.765   7.200   3.558
 6011SOL    HW129252   2.858   7.222   3.587
 6011SOL    HW229253   2.763   7.186   3.459
 6012SOL     OW29254   8.778   9.978   3.296
 6012SOL    HW129255   8.872   9.998   3.325
 6012SOL    HW229256   8.714   0.026   3.356
 6013SOL     OW29257   1.067   5.913   6.360
 6013SOL    HW129258   1.121   5.997   6.363
 6013SOL    HW229259   0.969   5.937   6.365
 6014SOL     OW29260   2.788   9.536   4.841
 6014SOL    HW129261   2.845   9.457   4.818
 6014SOL    HW229262   2.820   9.577   4.926
 6015SOL     OW29263   3.790   8.842   2.338
 6015SOL    HW129264   3.848   8.862   2.417
 6015SOL    HW229265   3.703   8.802   2.369
 6016SOL     OW29266   0.224   2.412   2.709
 6016SOL    HW129267   0.227   2.314   2.731
 6016SOL    HW229268   0.253   2.465   2.788
 6017SOL     OW29269   4.201   8.453   3.564
 6017SOL    HW129270   4.152   8.502   3.636
 6017SOL    HW229271   4.157   8.364   3.548
 6018SOL     OW29272   1.761   2.531   3.222
 6018SOL    HW129273   1.698   2.473   3.274
 6018SOL    HW229274   1.815   2.586   3.286
 6019SOL     OW29275   4.800   8.979   5.943
 6019SOL    HW129276   4.779   8.917   6.019
 6019SOL    HW229277   4.881   9.033   5.965
 6020SOL     OW29278   4.145   1.779   6.376
 6020SOL    HW129279   4.243   1.792   6.363
 6020SOL    HW229280   4.100   1.868   6.381
 6021SOL     OW29281   7.299   1.418   1.139
 6021SOL    HW129282   7.246   1.394   1.220
 6021SOL    HW229283   7.316   1.517   1.138
 6022SOL     OW29284   3.622   0.924   5.450
 6022SOL    HW129285   3.579   0.836   5.433
 6022SOL    HW229286   3.551   0.993   5.466
 6023SOL     OW29287   0.473   0.331   0.841
 6023SOL    HW129288   0.527   0.379   0.910
 6023SOL    HW229289   0.376   0.334   0.865
 6024SOL     OW29290   4.061   2.349   3.820
 6024SOL    HW129291   4.087   2.444   3.836
 6024SOL    HW229292   4.132   2.303   3.767
 6025SOL     OW29293   5.088   4.032   4.481
 6025SOL    HW129294   5.095   4.089   4.399
 6025SOL    HW229295   5.095   4.091   4.562
 6026SOL     OW29296   0.350   3.307   3.654
 6026SOL    HW129297   0.285   3.291   3.728
 6026SOL    HW229298   0.433   3.255   3.671
 6027SOL     OW29299   8.696   9.440   2.539
 6027SOL    HW129300   8.688   9.358   2.595
 6027SOL    HW229301   8.757   9.505   2.584
 6028SOL     OW29302   8.545   7.637   6.286
 6028SOL    HW129303   8.566   7.642   6.188
 6028SOL    HW229304   8.532   7.730   6.321
 6029SOL     OW29305   3.665   3.108   3.046
 6029SOL    HW129306   3.677   3.204   3.073
 6029SOL    HW229307   3.585   3.100   2.987
 6030SOL     OW29308   4.298   9.037   4.586
 6030SOL    HW129309   4.352   8.988   4.654
 6030SOL    HW229310   4.204   9.048   4.620
 6031SOL     OW29311   3.086   1.256   2.012
 6031SOL    HW129312   3.022   1.321   1.972
 6031SOL    HW229313   3.172   1.302   2.033
 6032SOL     OW29314   8.652   3.131   0.989
 6032SOL    HW129315   8.693   3.103   1.076
 6032SOL    HW229316   8.571   3.075   0.972
 6033SOL     OW29317   3.709   7.915   0.451
 6033SOL    HW129318   3.730   7.865   0.535
 6033SOL    HW229319   3.714   8.014   0.470
 6034SOL     OW29320   6.059   7.438   3.871
 6034SOL    HW129321   6.022   7.398   3.955
 6034SOL    HW229322   6.020   7.529   3.858
 6035SOL     OW29323   0.168   8.760   6.145
 6035SOL    HW129324   0.198   8.665   6.153
 6035SOL    HW229325   0.171   8.803   6.235
 6036SOL     OW29326   2.099   1.566   1.813
 6036SOL    HW129327   2.025   1.526   1.758
 6036SOL    HW229328   2.096   1.665   1.806
 6037SOL     OW29329   5.185   2.597   5.247
 6037SOL    HW129330   5.274   2.553   5.257
 6037SOL    HW229331   5.113   2.527   5.249
 6038SOL     OW29332   6.133   0.139   3.051
 6038SOL    HW129333   6.049   0.119   3.001
 6038SOL    HW229334   6.113   0.150   3.148
 6039SOL     OW29335   5.839   1.111   3.254
 6039SOL    HW129336   5.927   1.124   3.300
 6039SOL    HW229337   5.854   1.064   3.167
 6040SOL     OW29338   5.266   1.377   5.565
 6040SOL    HW129339   5.244   1.280   5.560
 6040SOL    HW229340   5.364   1.388   5.581
 6041SOL     OW29341   1.768   6.561   0.148
 6041SOL    HW129342   1.860   6.544   0.111
 6041SOL    HW229343   1.721   6.473   0.161
 6042SOL     OW29344   3.722   7.173   2.708
 6042SOL    HW129345   3.676   7.129   2.786
 6042SOL    HW229346   3.720   7.272   2.720
 6043SOL     OW29347   1.243   8.598   3.581
 6043SOL    HW129348   1.223   8.508   3.542
 6043SOL    HW229349   1.286   8.587   3.670
 6044SOL     OW29350   4.560   0.326   6.308
 6044SOL    HW129351   4.554   0.424   6.290
 6044SOL    HW229352   4.655   0.300   6.323
 6045SOL     OW29353   9.059   3.217   6.163
 6045SOL    HW129354   9.002   3.261   6.233
 6045SOL    HW229355   9.154   3.246   6.174
 6046SOL     OW29356   8.232   0.420   1.823
 6046SOL    HW129357   8.140   0.454   1.847
 6046SOL    HW229358   8.263   0.464   1.739
 6047SOL     OW29359   0.674   6.921   5.404
 6047SOL    HW129360   0.750   6.925   5.339
 6047SOL    HW229361   0.706   6.888   5.492
 6048SOL     OW29362   2.899   2.242   4.285
 6048SOL    HW129363   2.826   2.230   4.218
 6048SOL    HW229364   2.969   2.172   4.271
 6049SOL     OW29365   4.515   8.796   2.753
 6049SOL    HW129366   4.459   8.858   2.698
 6049SOL    HW229367   4.600   8.842   2.778
 6050SOL     OW29368   3.393   4.669   4.740
 6050SOL    HW129369   3.470   4.731   4.756
 6050SOL    HW229370   3.427   4.577   4.721
 6051SOL     OW29371   8.343   8.848   2.997
 6051SOL    HW129372   8.273   8.919   3.003
 6051SOL    HW229373   8.392   8.857   2.909
 6052SOL     OW29374   1.137   2.895   5.253
 6052SOL    HW129375   1.103   2.819   5.308
 6052SOL    HW229376   1.059   2.948   5.219
 6053SOL     OW29377   5.130   7.366   2.755
 6053SOL    HW129378   5.101   7.373   2.850
 6053SOL    HW229379   5.075   7.297   2.708
 6054SOL     OW29380   5.069   0.757   1.360
 6054SOL    HW129381   5.020   0.746   1.447
 6054SOL    HW229382   5.044   0.844   1.318
 6055SOL     OW29383   7.200   8.601   4.367
 6055SOL    HW129384   7.198   8.524   4.303
 6055SOL    HW229385   7.179   8.685   4.318
 6056SOL     OW29386   2.121   1.417   1.104
 6056SOL    HW129387   2.083   1.331   1.136
 6056SOL    HW229388   2.192   1.448   1.167
 6057SOL     OW29389   0.975   4.951   2.176
 6057SOL    HW129390   0.905   5.014   2.142
 6057SOL    HW229391   0.948   4.918   2.267
 6058SOL     OW29392   7.118   3.518   0.327
 6058SOL    HW129393   7.093   3.442   0.267
 6058SOL    HW229394   7.070   3.601   0.299
 6059SOL     OW29395   4.378   2.045   3.848
 6059SOL    HW129396   4.322   2.035   3.930
 6059SOL    HW229397   4.386   1.957   3.802
 6060SOL     OW29398   6.229   1.776   6.087
 6060SOL    HW129399   6.325   1.765   6.109
 6060SOL    HW229400   6.214   1.865   6.043
 6061SOL     OW29401   1.971   9.321   4.277
 6061SOL    HW129402   1.995   9.326   4.375
 6061SOL    HW229403   1.872   9.327   4.267
 6062SOL     OW29404   1.253   1.984   5.420
 6062SOL    HW129405   1.217   1.896   5.449
 6062SOL    HW229406   1.204   2.016   5.339
 6063SOL     OW29407   2.480   2.355   5.393
 6063SOL    HW129408   2.471   2.342   5.294
 6063SOL    HW229409   2.389   2.357   5.434
 6064SOL     OW29410   8.765   0.448   2.901
 6064SOL    HW129411   8.758   0.380   2.828
 6064SOL    HW229412   8.815   0.408   2.978
 6065SOL     OW29413   8.177   7.758   6.063
 6065SOL    HW129414   8.141   7.800   5.980
 6065SOL    HW229415   8.270   7.792   6.080
 6066SOL     OW29416   0.351   0.803   2.492
 6066SOL    HW129417   0.394   0.722   2.532
 6066SOL    HW229418   0.255   0.806   2.518
 6067SOL     OW29419   3.312   5.652   1.314
 6067SOL    HW129420   3.401   5.696   1.323
 6067SOL    HW229421   3.291   5.603   1.399
 6068SOL     OW29422   5.402   6.156   1.409
 6068SOL    HW129423   5.469   6.168   1.482
 6068SOL    HW229424   5.310   6.160   1.447
 6069SOL     OW29425   3.627   5.390   2.113
 6069SOL    HW129426   3.616   5.455   2.038
 6069SOL    HW229427   3.555   5.322   2.110
 6070SOL     OW29428   8.681   3.822   5.124
 6070SOL    HW129429   8.587   3.795   5.102
 6070SOL    HW229430   8.736   3.741   5.142
 6071SOL     OW29431   4.565   8.645   4.857
 6071SOL    HW129432   4.500   8.615   4.927
 6071SOL    HW229433   4.588   8.567   4.799
 6072SOL     OW29434   1.671   1.976   1.962
 6072SOL    HW129435   1.576   1.979   1.931
 6072SOL    HW229436   1.730   2.012   1.889
 6073SOL     OW29437   0.764   4.626   2.038
 6073SOL    HW129438   0.667   4.642   2.018
 6073SOL    HW229439   0.779   4.528   2.053
 6074SOL     OW29440   3.306   2.643   2.286
 6074SOL    HW129441   3.404   2.639   2.307
 6074SOL    HW229442   3.292   2.696   2.202
 6075SOL     OW29443   9.069   1.309   5.521
 6075SOL    HW129444   9.130   1.373   5.474
 6075SOL    HW229445   9.013   1.358   5.587
 6076SOL     OW29446   1.208   1.303   0.347
 6076SOL    HW129447   1.188   1.249   0.429
 6076SOL    HW229448   1.295   1.352   0.360
 6077SOL     OW29449   8.883   4.883   2.701
 6077SOL    HW129450   8.932   4.853   2.783
 6077SOL    HW229451   8.878   4.807   2.636
 6078SOL     OW29452   8.206   3.908   5.611
 6078SOL    HW129453   8.261   3.827   5.631
 6078SOL    HW229454   8.110   3.882   5.598
 6079SOL     OW29455   2.445   5.154   5.429
 6079SOL    HW129456   2.492   5.242   5.419
 6079SOL    HW229457   2.505   5.088   5.473
 6080SOL     OW29458   7.262   6.592   5.860
 6080SOL    HW129459   7.235   6.523   5.794
 6080SOL    HW229460   7.270   6.681   5.814
 6081SOL     OW29461   0.415   2.537   5.919
 6081SOL    HW129462   0.435   2.474   5.844
 6081SOL    HW229463   0.445   2.498   6.006
 6082SOL     OW29464   4.910   5.135   3.784
 6082SOL    HW129465   4.873   5.217   3.828
 6082SOL    HW229466   4.939   5.070   3.854
 6083SOL     OW29467   8.484   8.184   1.875
 6083SOL    HW129468   8.526   8.244   1.807
 6083SOL    HW229469   8.486   8.089   1.842
 6084SOL     OW29470   3.927   7.185   5.143
 6084SOL    HW129471   3.956   7.092   5.166
 6084SOL    HW229472   3.869   7.221   5.216
 6085SOL     OW29473   9.847   6.810   4.394
 6085SOL    HW129474   9.817   6.715   4.409
 6085SOL    HW229475   9.871   6.822   4.298
 6086SOL     OW29476   0.123   7.014   4.302
 6086SOL    HW129477   0.065   6.966   4.237
 6086SOL    HW229478   0.068   7.079   4.355
 6087SOL     OW29479   7.922   0.064   4.860
 6087SOL    HW129480   7.837   0.104   4.825
 6087SOL    HW229481   7.905   9.971   4.893
 6088SOL     OW29482   0.250   2.345   4.555
 6088SOL    HW129483   0.203   2.430   4.578
 6088SOL    HW229484   0.201   2.267   4.594
 6089SOL     OW29485   8.862   3.368   0.251
 6089SOL    HW129486   8.928   3.436   0.281
 6089SOL    HW229487   8.769   3.405   0.260
 6090SOL     OW29488   8.959   5.909   3.223
 6090SOL    HW129489   8.863   5.928   3.243
 6090SOL    HW229490   8.982   5.944   3.132
 6091SOL     OW29491   8.142   6.400   4.266
 6091SOL    HW129492   8.176   6.311   4.235
 6091SOL    HW229493   8.149   6.405   4.366
 6092SOL     OW29494   3.761   8.827   3.346
 6092SOL    HW129495   3.787   8.863   3.257
 6092SOL    HW229496   3.817   8.870   3.417
 6093SOL     OW29497   6.362   8.085   3.416
 6093SOL    HW129498   6.320   8.086   3.325
 6093SOL    HW229499   6.387   7.992   3.441
 6094SOL     OW29500   6.132   0.496   1.790
 6094SOL    HW129501   6.117   0.435   1.712
 6094SOL    HW229502   6.062   0.479   1.859
 6095SOL     OW29503   9.845   5.459   6.392
 6095SOL    HW129504   9.788   5.478   6.471
 6095SOL    HW229505   9.796   5.401   6.327
 6096SOL     OW29506   0.154   5.189   1.163
 6096SOL    HW129507   0.115   5.098   1.176
 6096SOL    HW229508   0.209   5.190   1.080
 6097SOL     OW29509   0.743   1.039   4.827
 6097SOL    HW129510   0.769   1.065   4.920
 6097SOL    HW229511   0.660   1.089   4.801
 6098SOL     OW29512   7.558   7.873   6.346
 6098SOL    HW129513   7.611   7.794   6.314
 6098SOL    HW229514   7.586   7.896   6.440
 6099SOL     OW29515   8.731   9.306   5.750
 6099SOL    HW129516   8.710   9.281   5.655
 6099SOL    HW229517   8.646   9.324   5.799
 6100SOL     OW29518   9.087   8.029   5.538
 6100SOL    HW129519   9.064   7.945   5.489
 6100SOL    HW229520   9.184   8.028   5.562
 6101SOL     OW29521   7.385   6.217   5.654
 6101SOL    HW129522   7.480   6.247   5.647
 6101SOL    HW229523   7.382   6.124   5.690
 6102SOL     OW29524   4.159   5.287   0.792
 6102SOL    HW129525   4.250   5.311   0.758
 6102SOL    HW229526   4.166   5.206   0.851
 6103SOL     OW29527   7.631   0.458   3.013
 6103SOL    HW129528   7.696   0.533   3.001
 6103SOL    HW229529   7.671   0.388   3.071
 6104SOL     OW29530   0.019   7.270   4.884
 6104SOL    HW129531   0.031   7.181   4.841
 6104SOL    HW229532   9.924   7.301   4.872
 6105SOL     OW29533   7.377   2.227   2.157
 6105SOL    HW129534   7.412   2.244   2.249
 6105SOL    HW229535   7.320   2.145   2.158
 6106SOL     OW29536   4.633   7.625   1.739
 6106SOL    HW129537   4.663   7.616   1.644
 6106SOL    HW229538   4.540   7.590   1.748
 6107SOL     OW29539   5.170   1.658   3.634
 6107SOL    HW129540   5.239   1.686   3.567
 6107SOL    HW229541   5.200   1.574   3.678
 6108SOL     OW29542   0.735   5.200   1.169
 6108SOL    HW129543   0.780   5.158   1.090
 6108SOL    HW229544   0.656   5.252   1.138
 6109SOL     OW29545   2.511   4.770   6.048
 6109SOL    HW129546   2.608   4.798   6.043
 6109SOL    HW229547   2.503   4.674   6.021
 6110SOL     OW29548   0.175   7.507   2.453
 6110SOL    HW129549   0.232   7.574   2.407
 6110SOL    HW229550   0.086   7.547   2.474
 6111SOL     OW29551   9.513   7.788   4.825
 6111SOL    HW129552   9.535   7.791   4.923
 6111SOL    HW229553   9.486   7.695   4.801
 6112SOL     OW29554   2.761   3.830   6.380
 6112SOL    HW129555   2.783   3.798   6.473
 6112SOL    HW229556   2.776   3.928   6.374
 6113SOL     OW29557   9.198   0.947   6.211
 6113SOL    HW129558   9.180   1.023   6.273
 6113SOL    HW229559   9.275   0.894   6.246
 6114SOL     OW29560   4.021   2.242   5.135
 6114SOL    HW129561   3.928   2.208   5.150
 6114SOL    HW229562   4.086   2.177   5.175
 6115SOL     OW29563   0.214   7.392   4.258
 6115SOL    HW129564   0.148   7.404   4.332
 6115SOL    HW229565   0.261   7.304   4.270
 6116SOL     OW29566   5.776   8.857   4.760
 6116SOL    HW129567   5.860   8.893   4.719
 6116SOL    HW229568   5.775   8.757   4.750
 6117SOL     OW29569   8.137   4.286   4.629
 6117SOL    HW129570   8.102   4.371   4.590
 6117SOL    HW229571   8.167   4.225   4.555
 6118SOL     OW29572   6.310   1.122   2.214
 6118SOL    HW129573   6.212   1.102   2.215
 6118SOL    HW229574   6.361   1.037   2.225
 6119SOL     OW29575   2.184   1.099   2.688
 6119SOL    HW129576   2.148   1.053   2.607
 6119SOL    HW229577   2.168   1.197   2.681
 6120SOL     OW29578   2.336   5.173   1.022
 6120SOL    HW129579   2.367   5.266   1.040
 6120SOL    HW229580   2.240   5.164   1.048
 6121SOL     OW29581   9.916   3.803   1.073
 6121SOL    HW129582   9.918   3.714   1.028
 6121SOL    HW229583   9.835   3.808   1.132
 6122SOL     OW29584   3.633   9.249   0.190
 6122SOL    HW129585   3.577   9.280   0.266
 6122SOL    HW229586   3.667   9.328   0.138
 6123SOL     OW29587   8.003   8.171   3.720
 6123SOL    HW129588   8.050   8.226   3.651
 6123SOL    HW229589   7.904   8.187   3.714
 6124SOL     OW29590   0.946   6.707   0.714
 6124SOL    HW129591   0.987   6.773   0.651
 6124SOL    HW229592   0.905   6.755   0.792
 6125SOL     OW29593   1.413   7.925   6.116
 6125SOL    HW129594   1.469   7.849   6.148
 6125SOL    HW229595   1.407   7.995   6.188
 6126SOL     OW29596   1.128   7.994   5.306
 6126SOL    HW129597   1.209   8.049   5.283
 6126SOL    HW229598   1.062   7.999   5.231
 6127SOL     OW29599   2.086   8.923   1.600
 6127SOL    HW129600   2.121   9.007   1.560
 6127SOL    HW229601   2.067   8.937   1.698
 6128SOL     OW29602   4.481   1.169   0.757
 6128SOL    HW129603   4.557   1.196   0.698
 6128SOL    HW229604   4.405   1.234   0.746
 6129SOL     OW29605   4.566   9.834   3.758
 6129SOL    HW129606   4.467   9.836   3.744
 6129SOL    HW229607   4.587   9.801   3.850
 6130SOL     OW29608   4.396   4.580   4.168
 6130SOL    HW129609   4.461   4.580   4.244
 6130SOL    HW229610   4.319   4.639   4.190
 6131SOL     OW29611   7.840   0.260   0.143
 6131SOL    HW129612   7.847   0.359   0.129
 6131SOL    HW229613   7.757   0.226   0.099
 6132SOL     OW29614   1.300   2.792   1.328
 6132SOL    HW129615   1.274   2.714   1.385
 6132SOL    HW229616   1.285   2.877   1.378
 6133SOL     OW29617   6.453   0.205   4.648
 6133SOL    HW129618   6.451   0.106   4.630
 6133SOL    HW229619   6.360   0.239   4.655
 6134SOL     OW29620   3.470   0.924   2.840
 6134SOL    HW129621   3.567   0.910   2.822
 6134SOL    HW229622   3.453   1.022   2.856
 6135SOL     OW29623   4.696   1.984   2.313
 6135SOL    HW129624   4.740   1.974   2.224
 6135SOL    HW229625   4.657   1.897   2.341
 6136SOL     OW29626   0.371   4.848   6.346
 6136SOL    HW129627   0.324   4.932   6.319
 6136SOL    HW229628   0.303   4.776   6.364
 6137SOL     OW29629   2.239   3.215   0.887
 6137SOL    HW129630   2.292   3.257   0.960
 6137SOL    HW229631   2.238   3.276   0.807
 6138SOL     OW29632   6.706   3.020   0.833
 6138SOL    HW129633   6.674   3.074   0.911
 6138SOL    HW229634   6.787   2.968   0.859
 6139SOL     OW29635   5.651   7.700   3.005
 6139SOL    HW129636   5.620   7.619   3.055
 6139SOL    HW229637   5.650   7.681   2.907
 6140SOL     OW29638   3.765   2.520   3.062
 6140SOL    HW129639   3.857   2.538   3.096
 6140SOL    HW229640   3.701   2.585   3.103
 6141SOL     OW29641   6.618   5.287   1.528
 6141SOL    HW129642   6.627   5.375   1.576
 6141SOL    HW229643   6.574   5.221   1.589
 6142SOL     OW29644   4.769   9.718   4.578
 6142SOL    HW129645   4.798   9.806   4.616
 6142SOL    HW229646   4.696   9.680   4.634
 6143SOL     OW29647   0.024   2.471   0.666
 6143SOL    HW129648   9.963   2.527   0.721
 6143SOL    HW229649   0.118   2.482   0.699
 6144SOL     OW29650   1.737   7.006   5.575
 6144SOL    HW129651   1.702   6.959   5.656
 6144SOL    HW229652   1.726   6.947   5.495
 6145SOL     OW29653   9.395   4.612   4.147
 6145SOL    HW129654   9.367   4.537   4.087
 6145SOL    HW229655   9.495   4.612   4.155
 6146SOL     OW29656   7.849   8.517   2.646
 6146SOL    HW129657   7.885   8.602   2.609
 6146SOL    HW229658   7.789   8.537   2.724
 6147SOL     OW29659   2.699   8.136   0.361
 6147SOL    HW129660   2.757   8.197   0.415
 6147SOL    HW229661   2.745   8.048   0.350
 6148SOL     OW29662   7.518   2.573   2.949
 6148SOL    HW129663   7.592   2.547   2.886
 6148SOL    HW229664   7.493   2.494   3.005
 6149SOL     OW29665   1.159   9.324   5.944
 6149SOL    HW129666   1.227   9.357   5.879
 6149SOL    HW229667   1.071   9.367   5.926
 6150SOL     OW29668   7.031   1.995   1.182
 6150SOL    HW129669   7.059   1.938   1.104
 6150SOL    HW229670   6.932   2.002   1.184
 6151SOL     OW29671   4.171   1.755   3.916
 6151SOL    HW129672   4.135   1.829   3.859
 6151SOL    HW229673   4.271   1.762   3.921
 6152SOL     OW29674   3.597   9.311   3.151
 6152SOL    HW129675   3.695   9.304   3.170
 6152SOL    HW229676   3.546   9.256   3.216
 6153SOL     OW29677   2.049   7.169   4.063
 6153SOL    HW129678   1.967   7.212   4.024
 6153SOL    HW229679   2.023   7.083   4.108
 6154SOL     OW29680   0.754   5.393   1.626
 6154SOL    HW129681   0.670   5.441   1.598
 6154SOL    HW229682   0.732   5.298   1.647
 6155SOL     OW29683   2.860   1.543   4.205
 6155SOL    HW129684   2.761   1.542   4.212
 6155SOL    HW229685   2.900   1.503   4.288
 6156SOL     OW29686   2.725   7.880   2.375
 6156SOL    HW129687   2.661   7.827   2.321
 6156SOL    HW229688   2.701   7.874   2.472
 6157SOL     OW29689   0.462   4.997   1.014
 6157SOL    HW129690   0.410   5.078   0.990
 6157SOL    HW229691   0.474   4.939   0.933
 6158SOL     OW29692   4.674   5.735   0.136
 6158SOL    HW129693   4.695   5.709   0.041
 6158SOL    HW229694   4.724   5.675   0.198
 6159SOL     OW29695   2.660   6.299   1.679
 6159SOL    HW129696   2.579   6.281   1.624
 6159SOL    HW229697   2.633   6.322   1.773
 6160SOL     OW29698   2.953   0.014   2.159
 6160SOL    HW129699   2.887   0.004   2.084
 6160SOL    HW229700   3.010   0.095   2.142
 6161SOL     OW29701   0.141   3.714   1.206
 6161SOL    HW129702   0.129   3.619   1.232
 6161SOL    HW229703   0.060   3.746   1.157
 6162SOL     OW29704   7.881   0.752   0.542
 6162SOL    HW129705   7.801   0.807   0.514
 6162SOL    HW229706   7.877   0.662   0.499
 6163SOL     OW29707   2.471   6.025   0.317
 6163SOL    HW129708   2.501   5.954   0.254
 6163SOL    HW229709   2.380   6.002   0.352
 6164SOL     OW29710   7.711   7.254   2.311
 6164SOL    HW129711   7.729   7.230   2.216
 6164SOL    HW229712   7.649   7.333   2.314
 6165SOL     OW29713   9.365   5.548   1.243
 6165SOL    HW129714   9.364   5.635   1.292
 6165SOL    HW229715   9.359   5.566   1.144
 6166SOL     OW29716   1.179   1.417   1.794
 6166SOL    HW129717   1.088   1.440   1.829
 6166SOL    HW229718   1.182   1.429   1.695
 6167SOL     OW29719   1.233   0.453   0.784
 6167SOL    HW129720   1.184   0.512   0.720
 6167SOL    HW229721   1.175   0.375   0.808
 6168SOL     OW29722   1.875   8.093   6.368
 6168SOL    HW129723   1.791   8.147   6.361
 6168SOL    HW229724   1.930   8.127   6.444
 6169SOL     OW29725   3.295   6.902   1.368
 6169SOL    HW129726   3.283   6.982   1.309
 6169SOL    HW229727   3.254   6.822   1.324
 6170SOL     OW29728   2.411   3.606   0.936
 6170SOL    HW129729   2.488   3.619   1.000
 6170SOL    HW229730   2.431   3.530   0.875
 6171SOL     OW29731   1.401   6.585   5.108
 6171SOL    HW129732   1.401   6.510   5.042
 6171SOL    HW229733   1.319   6.640   5.097
 6172SOL     OW29734   4.857   4.912   1.951
 6172SOL    HW129735   4.834   5.005   1.920
 6172SOL    HW229736   4.940   4.881   1.906
 6173SOL     OW29737   1.116   5.852   3.550
 6173SOL    HW129738   1.097   5.928   3.613
 6173SOL    HW229739   1.034   5.834   3.495
 6174SOL     OW29740   3.489   7.072   4.518
 6174SOL    HW129741   3.522   7.105   4.606
 6174SOL    HW229742   3.547   7.107   4.445
 6175SOL     OW29743   0.010   7.121   3.981
 6175SOL    HW129744   0.101   7.105   3.943
 6175SOL    HW229745   0.006   7.213   4.020
 6176SOL     OW29746   4.708   9.835   3.066
 6176SOL    HW129747   4.751   9.907   3.121
 6176SOL    HW229748   4.627   9.802   3.114
 6177SOL     OW29749   8.947   2.523   2.875
 6177SOL    HW129750   8.951   2.535   2.776
 6177SOL    HW229751   8.950   2.613   2.920
 6178SOL     OW29752   4.681   7.673   2.227
 6178SOL    HW129753   4.700   7.758   2.276
 6178SOL    HW229754   4.758   7.611   2.238
 6179SOL     OW29755   5.490   5.049   1.934
 6179SOL    HW129756   5.565   5.054   2.001
 6179SOL    HW229757   5.445   5.137   1.929
 6180SOL     OW29758   9.328   7.386   6.336
 6180SOL    HW129759   9.400   7.354   6.274
 6180SOL    HW229760   9.368   7.403   6.427
 6181SOL     OW29761   8.874   8.484   0.736
 6181SOL    HW129762   8.823   8.536   0.668
 6181SOL    HW229763   8.930   8.415   0.691
 6182SOL     OW29764   6.999   6.021   6.293
 6182SOL    HW129765   7.033   5.964   6.367
 6182SOL    HW229766   7.019   6.117   6.314
 6183SOL     OW29767   4.033   4.276   4.169
 6183SOL    HW129768   4.078   4.337   4.105
 6183SOL    HW229769   4.074   4.185   4.164
 6184SOL     OW29770   1.482   3.821   1.010
 6184SOL    HW129771   1.558   3.861   0.959
 6184SOL    HW229772   1.518   3.754   1.076
 6185SOL     OW29773   8.734   7.567   1.673
 6185SOL    HW129774   8.645   7.594   1.710
 6185SOL    HW229775   8.720   7.501   1.599
 6186SOL     OW29776   7.875   5.922   0.238
 6186SOL    HW129777   7.803   5.966   0.184
 6186SOL    HW229778   7.925   5.858   0.180
 6187SOL     OW29779   8.173   3.476   3.483
 6187SOL    HW129780   8.179   3.457   3.582
 6187SOL    HW229781   8.264   3.497   3.448
 6188SOL     OW29782   6.088   0.121   5.530
 6188SOL    HW129783   6.084   0.178   5.448
 6188SOL    HW229784   6.180   0.083   5.540
 6189SOL     OW29785   7.869   5.713   3.050
 6189SOL    HW129786   7.906   5.747   3.137
 6189SOL    HW229787   7.853   5.614   3.057
 6190SOL     OW29788   7.571   4.772   2.807
 6190SOL    HW129789   7.665   4.738   2.816
 6190SOL    HW229790   7.524   4.763   2.895
 6191SOL     OW29791   0.118   2.120   0.414
 6191SOL    HW129792   0.150   2.043   0.469
 6191SOL    HW229793   0.198   2.170   0.378
 6192SOL     OW29794   2.449   0.827   4.374
 6192SOL    HW129795   2.359   0.828   4.417
 6192SOL    HW229796   2.449   0.890   4.296
 6193SOL     OW29797   5.892   2.228   4.137
 6193SOL    HW129798   5.965   2.161   4.135
 6193SOL    HW229799   5.855   2.235   4.230
 6194SOL     OW29800   9.565   6.353   3.980
 6194SOL    HW129801   9.607   6.383   3.894
 6194SOL    HW229802   9.468   6.377   3.979
 6195SOL     OW29803   8.848   1.343   6.330
 6195SOL    HW129804   8.836   1.244   6.323
 6195SOL    HW229805   8.812   1.386   6.248
 6196SOL     OW29806   4.680   0.519   4.584
 6196SOL    HW129807   4.656   0.613   4.559
 6196SOL    HW229808   4.716   0.472   4.503
 6197SOL     OW29809   0.586   4.058   2.873
 6197SOL    HW129810   0.559   4.120   2.800
 6197SOL    HW229811   0.613   3.970   2.833
 6198SOL     OW29812   7.217   0.067   3.618
 6198SOL    HW129813   7.118   0.068   3.608
 6198SOL    HW229814   7.243   0.119   3.699
 6199SOL     OW29815   1.385   1.244   2.731
 6199SOL    HW129816   1.299   1.279   2.696
 6199SOL    HW229817   1.430   1.314   2.787
 6200SOL     OW29818   2.106   3.797   4.539
 6200SOL    HW129819   2.201   3.793   4.571
 6200SOL    HW229820   2.048   3.831   4.613
 6201SOL     OW29821   2.537   6.051   2.892
 6201SOL    HW129822   2.585   6.101   2.963
 6201SOL    HW229823   2.602   6.003   2.834
 6202SOL     OW29824   4.275   9.504   2.806
 6202SOL    HW129825   4.230   9.419   2.779
 6202SOL    HW229826   4.234   9.581   2.755
 6203SOL     OW29827   7.824   9.917   2.854
 6203SOL    HW129828   7.906   9.893   2.803
 6203SOL    HW229829   7.850   9.942   2.948
 6204SOL     OW29830   8.952   1.930   0.910
 6204SOL    HW129831   8.860   1.969   0.924
 6204SOL    HW229832   9.016   2.004   0.887
 6205SOL     OW29833   2.885   4.645   3.646
 6205SOL    HW129834   2.821   4.654   3.570
 6205SOL    HW229835   2.855   4.570   3.705
 6206SOL     OW29836   8.513   6.934   1.650
 6206SOL    HW129837   8.439   6.884   1.605
 6206SOL    HW229838   8.482   6.967   1.739
 6207SOL     OW29839   8.506   4.069   3.084
 6207SOL    HW129840   8.560   3.987   3.064
 6207SOL    HW229841   8.521   4.095   3.180
 6208SOL     OW29842   1.604   3.563   4.577
 6208SOL    HW129843   1.565   3.556   4.485
 6208SOL    HW229844   1.683   3.502   4.584
 6209SOL     OW29845   3.624   8.966   4.782
 6209SOL    HW129846   3.587   8.877   4.754
 6209SOL    HW229847   3.691   8.997   4.715
 6210SOL     OW29848   8.870   4.947   3.444
 6210SOL    HW129849   8.778   4.908   3.446
 6210SOL    HW229850   8.929   4.896   3.506
 6211SOL     OW29851   1.110   3.862   1.797
 6211SOL    HW129852   1.060   3.929   1.852
 6211SOL    HW229853   1.208   3.875   1.810
 6212SOL     OW29854   3.786   6.724   4.922
 6212SOL    HW129855   3.787   6.666   4.840
 6212SOL    HW229856   3.846   6.803   4.907
 6213SOL     OW29857   0.095   2.520   6.222
 6213SOL    HW129858   0.010   2.564   6.250
 6213SOL    HW229859   0.123   2.554   6.133
 6214SOL     OW29860   3.072   5.669   3.184
 6214SOL    HW129861   3.075   5.590   3.245
 6214SOL    HW229862   3.081   5.753   3.238
 6215SOL     OW29863   4.091   9.707   5.152
 6215SOL    HW129864   4.052   9.722   5.061
 6215SOL    HW229865   4.142   9.788   5.180
 6216SOL     OW29866   2.424   7.602   5.628
 6216SOL    HW129867   2.523   7.586   5.624
 6216SOL    HW229868   2.396   7.658   5.551
 6217SOL     OW29869   9.077   8.052   4.746
 6217SOL    HW129870   9.019   8.120   4.790
 6217SOL    HW229871   9.153   8.028   4.807
 6218SOL     OW29872   9.771   2.609   1.787
 6218SOL    HW129873   9.675   2.639   1.790
 6218SOL    HW229874   9.784   2.542   1.715
 6219SOL     OW29875   8.930   3.084   1.936
 6219SOL    HW129876   9.026   3.058   1.942
 6219SOL    HW229877   8.897   3.108   2.027
 6220SOL     OW29878   7.984   5.285   0.270
 6220SOL    HW129879   8.079   5.308   0.247
 6220SOL    HW229880   7.962   5.195   0.232
 6221SOL     OW29881   3.559   3.388   4.232
 6221SOL    HW129882   3.632   3.434   4.182
 6221SOL    HW229883   3.599   3.327   4.301
 6222SOL     OW29884   5.261   9.128   5.355
 6222SOL    HW129885   5.348   9.081   5.341
 6222SOL    HW229886   5.254   9.206   5.292
 6223SOL     OW29887   7.093   7.300   5.354
 6223SOL    HW129888   7.116   7.217   5.405
 6223SOL    HW229889   7.043   7.363   5.413
 6224SOL     OW29890   2.190   7.423   5.310
 6224SOL    HW129891   2.141   7.474   5.240
 6224SOL    HW229892   2.125   7.395   5.382
 6225SOL     OW29893   3.761   7.538   4.042
 6225SOL    HW129894   3.849   7.492   4.026
 6225SOL    HW229895   3.723   7.506   4.129
 6226SOL     OW29896   0.951   9.777   5.287
 6226SOL    HW129897   0.983   9.813   5.374
 6226SOL    HW229898   1.020   9.716   5.248
 6227SOL     OW29899   5.031   3.757   0.497
 6227SOL    HW129900   5.089   3.815   0.440
 6227SOL    HW229901   4.943   3.742   0.451
 6228SOL     OW29902   9.101   6.026   2.234
 6228SOL    HW129903   9.191   6.061   2.207
 6228SOL    HW229904   9.087   6.043   2.332
 6229SOL     OW29905   1.690   6.875   2.594
 6229SOL    HW129906   1.763   6.937   2.564
 6229SOL    HW229907   1.607   6.927   2.612
 6230SOL     OW29908   3.946   7.976   0.733
 6230SOL    HW129909   3.890   7.895   0.715
 6230SOL    HW229910   4.010   7.956   0.808
 6231SOL     OW29911   8.686   8.654   3.135
 6231SOL    HW129912   8.598   8.623   3.098
 6231SOL    HW229913   8.683   8.651   3.235
 6232SOL     OW29914   6.217   1.157   3.863
 6232SOL    HW129915   6.250   1.252   3.856
 6232SOL    HW229916   6.124   1.157   3.899
 6233SOL     OW29917   4.387   9.986   2.723
 6233SOL    HW129918   4.447   9.956   2.649
 6233SOL    HW229919   4.409   0.080   2.748
 6234SOL     OW29920   9.241   9.780   6.070
 6234SOL    HW129921   9.339   9.781   6.046
 6234SOL    HW229922   9.188   9.760   5.988
 6235SOL     OW29923   4.526   4.398   0.720
 6235SOL    HW129924   4.621   4.422   0.740
 6235SOL    HW229925   4.511   4.301   0.738
 6236SOL     OW29926   3.988   5.371   3.350
 6236SOL    HW129927   3.987   5.341   3.255
 6236SOL    HW229928   3.896   5.397   3.379
 6237SOL     OW29929   0.512   5.297   5.766
 6237SOL    HW129930   0.586   5.231   5.756
 6237SOL    HW229931   0.438   5.273   5.703
 6238SOL     OW29932   0.193   0.428   0.463
 6238SOL    HW129933   0.278   0.388   0.496
 6238SOL    HW229934   0.204   0.453   0.367
 6239SOL     OW29935   8.237   8.466   1.418
 6239SOL    HW129936   8.296   8.498   1.344
 6239SOL    HW229937   8.271   8.500   1.506
 6240SOL     OW29938   1.950   4.065   3.238
 6240SOL    HW129939   2.012   4.128   3.192
 6240SOL    HW229940   1.964   3.973   3.203
 6241SOL     OW29941   2.689   6.588   2.666
 6241SOL    HW129942   2.729   6.506   2.706
 6241SOL    HW229943   2.676   6.657   2.737
 6242SOL     OW29944   9.134   8.682   1.825
 6242SOL    HW129945   9.169   8.701   1.733
 6242SOL    HW229946   9.182   8.603   1.863
 6243SOL     OW29947   0.238   9.971   0.897
 6243SOL    HW129948   0.309   9.908   0.928
 6243SOL    HW229949   0.273   0.024   0.819
 6244SOL     OW29950   8.451   4.348   0.384
 6244SOL    HW129951   8.505   4.421   0.425
 6244SOL    HW229952   8.505   4.264   0.383
 6245SOL     OW29953   1.254   5.525   1.447
 6245SOL    HW129954   1.331   5.469   1.418
 6245SOL    HW229955   1.275   5.566   1.536
 6246SOL     OW29956   2.003   9.167   5.450
 6246SOL    HW129957   1.960   9.093   5.502
 6246SOL    HW229958   1.932   9.224   5.408
 6247SOL     OW29959   1.241   3.320   3.670
 6247SOL    HW129960   1.317   3.264   3.639
 6247SOL    HW229961   1.212   3.290   3.761
 6248SOL     OW29962   8.124   8.766   1.273
 6248SOL    HW129963   8.153   8.703   1.200
 6248SOL    HW229964   8.203   8.814   1.309
 6249SOL     OW29965   9.695   3.032   5.742
 6249SOL    HW129966   9.604   3.001   5.715
 6249SOL    HW229967   9.685   3.107   5.809
 6250SOL     OW29968   1.485   3.406   3.335
 6250SOL    HW129969   1.447   3.367   3.251
 6250SOL    HW229970   1.452   3.500   3.346
 6251SOL     OW29971   7.713   6.591   4.206
 6251SOL    HW129972   7.635   6.605   4.145
 6251SOL    HW229973   7.749   6.679   4.235
 6252SOL     OW29974   6.860   0.431   0.196
 6252SOL    HW129975   6.804   0.482   0.132
 6252SOL    HW229976   6.817   0.432   0.287
 6253SOL     OW29977   9.984   6.979   1.902
 6253SOL    HW129978   9.998   7.016   1.993
 6253SOL    HW229979   0.068   6.936   1.869
 6254SOL     OW29980   0.380   0.132   3.660
 6254SOL    HW129981   0.393   0.102   3.755
 6254SOL    HW229982   0.327   0.216   3.658
 6255SOL     OW29983   1.801   2.074   4.885
 6255SOL    HW129984   1.774   2.149   4.945
 6255SOL    HW229985   1.789   2.102   4.790
 6256SOL     OW29986   7.388   2.195   4.087
 6256SOL    HW129987   7.357   2.257   4.015
 6256SOL    HW229988   7.441   2.120   4.047
 6257SOL     OW29989   6.039   7.778   4.082
 6257SOL    HW129990   5.999   7.742   3.998
 6257SOL    HW229991   6.138   7.790   4.069
 6258SOL     OW29992   9.961   0.870   4.003
 6258SOL    HW129993   0.006   0.923   4.076
 6258SOL    HW229994   9.926   0.784   4.041
 6259SOL     OW29995   6.584   5.260   1.043
 6259SOL    HW129996   6.672   5.285   1.084
 6259SOL    HW229997   6.599   5.193   0.970
 6260SOL     OW29998   5.252   0.388   5.974
 6260SOL    HW129999   5.196   0.320   6.021
 6260SOL    HW230000   5.240   0.477   6.019
 6261SOL     OW30001   4.823   1.662   2.986
 6261SOL    HW130002   4.824   1.569   3.021
 6261SOL    HW230003   4.855   1.725   3.057
 6262SOL     OW30004   6.724   1.708   5.767
 6262SOL    HW130005   6.823   1.696   5.778
 6262SOL    HW230006   6.697   1.681   5.675
 6263SOL     OW30007   8.861   4.828   4.470
 6263SOL    HW130008   8.820   4.914   4.439
 6263SOL    HW230009   8.901   4.780   4.392
 6264SOL     OW30010   4.136   9.354   1.504
 6264SOL    HW130011   4.180   9.361   1.593
 6264SOL    HW230012   4.037   9.361   1.514
 6265SOL     OW30013   0.059   7.333   3.369
 6265SOL    HW130014   0.125   7.408   3.361
 6265SOL    HW230015   0.097   7.262   3.429
 6266SOL     OW30016   9.101   2.408   4.391
 6266SOL    HW130017   9.040   2.347   4.342
 6266SOL    HW230018   9.157   2.356   4.455
 6267SOL     OW30019   4.836   9.271   5.370
 6267SOL    HW130020   4.765   9.214   5.328
 6267SOL    HW230021   4.903   9.212   5.416
 6268SOL     OW30022   2.861   6.115   3.248
 6268SOL    HW130023   2.841   6.115   3.346
 6268SOL    HW230024   2.956   6.142   3.233
 6269SOL     OW30025   3.221   0.688   5.832
 6269SOL    HW130026   3.277   0.721   5.756
 6269SOL    HW230027   3.259   0.601   5.865
 6270SOL     OW30028   2.779   5.573   2.501
 6270SOL    HW130029   2.741   5.481   2.494
 6270SOL    HW230030   2.713   5.639   2.466
 6271SOL     OW30031   6.027   8.455   2.914
 6271SOL    HW130032   6.115   8.502   2.903
 6271SOL    HW230033   5.966   8.511   2.969
 6272SOL     OW30034   1.141   6.696   5.072
 6272SOL    HW130035   1.068   6.699   5.005
 6272SOL    HW230036   1.104   6.665   5.160
 6273SOL     OW30037   8.290   5.360   6.007
 6273SOL    HW130038   8.341   5.435   5.966
 6273SOL    HW230039   8.349   5.279   6.012
 6274SOL     OW30040   7.168   0.162   1.915
 6274SOL    HW130041   7.243   0.228   1.907
 6274SOL    HW230042   7.085   0.210   1.944
 6275SOL     OW30043   8.182   2.995   6.131
 6275SOL    HW130044   8.136   2.932   6.193
 6275SOL    HW230045   8.145   2.986   6.039
 6276SOL     OW30046   8.474   4.080   5.299
 6276SOL    HW130047   8.495   4.125   5.213
 6276SOL    HW230048   8.553   4.028   5.331
 6277SOL     OW30049   5.031   8.358   2.473
 6277SOL    HW130050   5.078   8.440   2.438
 6277SOL    HW230051   5.027   8.362   2.572
 6278SOL     OW30052   2.542   6.434   5.722
 6278SOL    HW130053   2.445   6.446   5.698
 6278SOL    HW230054   2.598   6.453   5.642
 6279SOL     OW30055   4.525   4.014   2.498
 6279SOL    HW130056   4.614   4.009   2.544
 6279SOL    HW230057   4.538   4.018   2.399
 6280SOL     OW30058   9.795   8.653   5.899
 6280SOL    HW130059   9.765   8.672   5.805
 6280SOL    HW230060   9.716   8.625   5.954
 6281SOL     OW30061   6.888   9.858   6.208
 6281SOL    HW130062   6.847   9.913   6.280
 6281SOL    HW230063   6.816   9.821   6.148
 6282SOL     OW30064   3.258   6.175   2.758
 6282SOL    HW130065   3.318   6.193   2.679
 6282SOL    HW230066   3.309   6.123   2.826
 6283SOL     OW30067   3.266   7.455   0.893
 6283SOL    HW130068   3.252   7.456   0.794
 6283SOL    HW230069   3.336   7.521   0.918
 6284SOL     OW30070   6.691   7.627   3.825
 6284SOL    HW130071   6.653   7.537   3.847
 6284SOL    HW230072   6.698   7.637   3.726
 6285SOL     OW30073   4.154   3.004   3.317
 6285SOL    HW130074   4.190   2.942   3.386
 6285SOL    HW230075   4.123   2.951   3.238
 6286SOL     OW30076   7.870   0.370   1.427
 6286SOL    HW130077   7.930   0.376   1.348
 6286SOL    HW230078   7.903   0.299   1.489
 6287SOL     OW30079   1.790   1.823   1.600
 6287SOL    HW130080   1.708   1.848   1.548
 6287SOL    HW230081   1.853   1.772   1.541
 6288SOL     OW30082   0.087   5.632   3.620
 6288SOL    HW130083   0.097   5.709   3.557
 6288SOL    HW230084   0.128   5.655   3.708
 6289SOL     OW30085   0.801   8.254   2.279
 6289SOL    HW130086   0.859   8.174   2.265
 6289SOL    HW230087   0.708   8.225   2.301
 6290SOL     OW30088   9.694   5.064   5.212
 6290SOL    HW130089   9.767   5.043   5.277
 6290SOL    HW230090   9.702   5.006   5.131
 6291SOL     OW30091   3.972   7.306   2.449
 6291SOL    HW130092   3.988   7.264   2.538
 6291SOL    HW230093   4.045   7.278   2.386
 6292SOL     OW30094   9.331   2.605   3.094
 6292SOL    HW130095   9.245   2.583   3.139
 6292SOL    HW230096   9.341   2.551   3.010
 6293SOL     OW30097   8.711   1.357   3.233
 6293SOL    HW130098   8.809   1.349   3.250
 6293SOL    HW230099   8.661   1.298   3.297
 6294SOL     OW30100   5.122   7.486   4.117
 6294SOL    HW130101   5.093   7.562   4.177
 6294SOL    HW230102   5.041   7.442   4.078
 6295SOL     OW30103   3.846   1.838   2.796
 6295SOL    HW130104   3.890   1.754   2.765
 6295SOL    HW230105   3.898   1.917   2.763
 6296SOL     OW30106   2.073   6.832   6.277
 6296SOL    HW130107   2.048   6.835   6.180
 6296SOL    HW230108   2.019   6.761   6.323
 6297SOL     OW30109   3.022   7.937   0.545
 6297SOL    HW130110   2.989   7.967   0.635
 6297SOL    HW230111   3.112   7.893   0.556
 6298SOL     OW30112   2.747   1.125   3.175
 6298SOL    HW130113   2.809   1.173   3.236
 6298SOL    HW230114   2.758   1.026   3.188
 6299SOL     OW30115   9.161   5.477   3.356
 6299SOL    HW130116   9.126   5.569   3.376
 6299SOL    HW230117   9.224   5.449   3.429
 6300SOL     OW30118   1.647   7.813   0.501
 6300SOL    HW130119   1.736   7.855   0.519
 6300SOL    HW230120   1.575   7.881   0.514
 6301SOL     OW30121   1.419   1.154   4.673
 6301SOL    HW130122   1.409   1.192   4.581
 6301SOL    HW230123   1.361   1.072   4.681
 6302SOL     OW30124   5.130   9.487   4.826
 6302SOL    HW130125   5.137   9.575   4.780
 6302SOL    HW230126   5.115   9.501   4.924
 6303SOL     OW30127   0.994   6.042   1.510
 6303SOL    HW130128   0.962   6.062   1.602
 6303SOL    HW230129   1.034   5.950   1.508
 6304SOL     OW30130   9.054   1.819   5.893
 6304SOL    HW130131   8.983   1.859   5.951
 6304SOL    HW230132   9.055   1.720   5.905
 6305SOL     OW30133   1.964   4.232   5.267
 6305SOL    HW130134   1.997   4.221   5.173
 6305SOL    HW230135   1.896   4.162   5.286
 6306SOL     OW30136   9.800   3.763   2.443
 6306SOL    HW130137   9.748   3.849   2.444
 6306SOL    HW230138   9.894   3.781   2.473
 6307SOL     OW30139   4.243   8.661   4.738
 6307SOL    HW130140   4.307   8.661   4.662
 6307SOL    HW230141   4.237   8.753   4.777
 6308SOL     OW30142   3.680   0.644   5.790
 6308SOL    HW130143   3.617   0.683   5.858
 6308SOL    HW230144   3.719   0.717   5.734
 6309SOL     OW30145   2.004   8.004   3.229
 6309SOL    HW130146   2.013   8.077   3.162
 6309SOL    HW230147   2.081   7.941   3.221
 6310SOL     OW30148   1.303   8.730   4.191
 6310SOL    HW130149   1.257   8.719   4.103
 6310SOL    HW230150   1.266   8.664   4.257
 6311SOL     OW30151   0.640   8.686   2.128
 6311SOL    HW130152   0.617   8.711   2.222
 6311SOL    HW230153   0.714   8.619   2.128
 6312SOL     OW30154   7.623   9.796   3.917
 6312SOL    HW130155   7.661   9.810   3.826
 6312SOL    HW230156   7.543   9.737   3.912
 6313SOL     OW30157   3.137   2.159   3.987
 6313SOL    HW130158   3.107   2.247   3.949
 6313SOL    HW230159   3.237   2.153   3.981
 6314SOL     OW30160   7.844   8.917   3.834
 6314SOL    HW130161   7.858   8.997   3.892
 6314SOL    HW230162   7.902   8.842   3.865
 6315SOL     OW30163   5.263   3.374   1.151
 6315SOL    HW130164   5.359   3.372   1.122
 6315SOL    HW230165   5.204   3.354   1.072
 6316SOL     OW30166   4.597   0.980   5.626
 6316SOL    HW130167   4.594   1.059   5.565
 6316SOL    HW230168   4.572   0.897   5.574
 6317SOL     OW30169   9.566   8.559   0.795
 6317SOL    HW130170   9.475   8.598   0.784
 6317SOL    HW230171   9.565   8.463   0.768
 6318SOL     OW30172   7.718   0.895   4.290
 6318SOL    HW130173   7.767   0.883   4.204
 6318SOL    HW230174   7.783   0.902   4.365
 6319SOL     OW30175   1.723   8.521   2.172
 6319SOL    HW130176   1.820   8.544   2.184
 6319SOL    HW230177   1.703   8.513   2.074
 6320SOL     OW30178   5.425   9.873   1.769
 6320SOL    HW130179   5.445   9.851   1.864
 6320SOL    HW230180   5.327   9.892   1.759
 6321SOL     OW30181   0.204   8.579   2.180
 6321SOL    HW130182   0.208   8.490   2.135
 6321SOL    HW230183   0.280   8.636   2.148
 6322SOL     OW30184   8.847   0.349   0.998
 6322SOL    HW130185   8.822   0.264   1.046
 6322SOL    HW230186   8.764   0.397   0.970
 6323SOL     OW30187   2.188   7.780   0.174
 6323SOL    HW130188   2.232   7.697   0.210
 6323SOL    HW230189   2.127   7.756   0.098
 6324SOL     OW30190   2.572   7.689   5.862
 6324SOL    HW130191   2.495   7.678   5.799
 6324SOL    HW230192   2.537   7.693   5.956
 6325SOL     OW30193   2.365   5.673   4.155
 6325SOL    HW130194   2.428   5.748   4.175
 6325SOL    HW230195   2.272   5.702   4.174
 6326SOL     OW30196   1.801   7.837   6.287
 6326SOL    HW130197   1.833   7.922   6.329
 6326SOL    HW230198   1.874   7.769   6.290
 6327SOL     OW30199   1.015   5.844   0.133
 6327SOL    HW130200   0.918   5.821   0.131
 6327SOL    HW230201   1.044   5.858   0.228
 6328SOL     OW30202   6.450   8.812   6.007
 6328SOL    HW130203   6.531   8.808   6.064
 6328SOL    HW230204   6.448   8.732   5.946
 6329SOL     OW30205   7.328   1.566   5.450
 6329SOL    HW130206   7.263   1.496   5.478
 6329SOL    HW230207   7.310   1.593   5.355
 6330SOL     OW30208   2.054   3.099   1.063
 6330SOL    HW130209   2.119   3.095   1.140
 6330SOL    HW230210   2.099   3.143   0.985
 6331SOL     OW30211   8.388   4.982   5.794
 6331SOL    HW130212   8.431   4.951   5.709
 6331SOL    HW230213   8.296   5.016   5.774
 6332SOL     OW30214   9.195   8.832   2.547
 6332SOL    HW130215   9.223   8.763   2.480
 6332SOL    HW230216   9.120   8.886   2.509
 6333SOL     OW30217   6.583   4.669   0.466
 6333SOL    HW130218   6.629   4.637   0.383
 6333SOL    HW230219   6.562   4.591   0.525
 6334SOL     OW30220   1.140   7.321   0.563
 6334SOL    HW130221   1.157   7.225   0.539
 6334SOL    HW230222   1.134   7.375   0.479
 6335SOL     OW30223   8.939   5.892   2.066
 6335SOL    HW130224   8.900   5.965   2.010
 6335SOL    HW230225   8.994   5.932   2.139
 6336SOL     OW30226   1.298   1.651   0.096
 6336SOL    HW130227   1.269   1.747   0.099
 6336SOL    HW230228   1.223   1.593   0.127
 6337SOL     OW30229   1.252   8.953   2.331
 6337SOL    HW130230   1.287   9.028   2.276
 6337SOL    HW230231   1.287   8.866   2.295
 6338SOL     OW30232   6.081   8.679   6.330
 6338SOL    HW130233   6.140   8.744   6.283
 6338SOL    HW230234   6.062   8.713   6.422
 6339SOL     OW30235   2.354   5.269   3.244
 6339SOL    HW130236   2.362   5.182   3.294
 6339SOL    HW230237   2.267   5.312   3.267
 6340SOL     OW30238   9.412   0.816   6.315
 6340SOL    HW130239   9.496   0.870   6.303
 6340SOL    HW230240   9.432   0.720   6.299
 6341SOL     OW30241   8.741   2.237   5.552
 6341SOL    HW130242   8.838   2.258   5.545
 6341SOL    HW230243   8.726   2.141   5.528
 6342SOL     OW30244   4.716   4.857   0.082
 6342SOL    HW130245   4.743   4.773   0.128
 6342SOL    HW230246   4.761   4.862   8.181
 6343SOL     OW30247   0.532   4.946   3.729
 6343SOL    HW130248   0.448   4.919   3.682
 6343SOL    HW230249   0.514   5.026   3.785
 6344SOL     OW30250   0.481   1.464   3.327
 6344SOL    HW130251   0.413   1.392   3.321
 6344SOL    HW230252   0.437   1.550   3.353
 6345SOL     OW30253   0.725   9.651   5.184
 6345SOL    HW130254   0.811   9.689   5.218
 6345SOL    HW230255   0.653   9.663   5.253
 6346SOL     OW30256   0.471   5.877   4.752
 6346SOL    HW130257   0.484   5.961   4.700
 6346SOL    HW230258   0.380   5.877   4.794
 6347SOL     OW30259   9.939   0.521   2.614
 6347SOL    HW130260   9.926   0.429   2.651
 6347SOL    HW230261   9.962   0.584   2.689
 6348SOL     OW30262   0.825   8.482   2.114
 6348SOL    HW130263   0.818   8.400   2.170
 6348SOL    HW230264   0.877   8.462   2.031
 6349SOL     OW30265   2.051   4.184   5.010
 6349SOL    HW130266   2.117   4.113   4.986
 6349SOL    HW230267   1.969   4.173   4.954
 6350SOL     OW30268   9.247   2.331   1.450
 6350SOL    HW130269   9.215   2.241   1.419
 6350SOL    HW230270   9.324   2.360   1.394
 6351SOL     OW30271   0.859   9.142   6.027
 6351SOL    HW130272   0.879   9.229   6.073
 6351SOL    HW230273   0.817   9.160   5.939
 6352SOL     OW30274   8.249   2.299   5.594
 6352SOL    HW130275   8.209   2.344   5.514
 6352SOL    HW230276   8.291   2.213   5.566
 6353SOL     OW30277   1.102   0.957   5.775
 6353SOL    HW130278   1.181   0.912   5.813
 6353SOL    HW230279   1.025   0.893   5.770
 6354SOL     OW30280   1.773   1.111   2.023
 6354SOL    HW130281   1.704   1.061   2.076
 6354SOL    HW230282   1.763   1.090   1.926
 6355SOL     OW30283   5.565   1.272   1.950
 6355SOL    HW130284   5.560   1.370   1.931
 6355SOL    HW230285   5.646   1.253   2.005
 6356SOL     OW30286   0.176   7.139   3.529
 6356SOL    HW130287   0.254   7.184   3.571
 6356SOL    HW230288   0.118   7.098   3.599
 6357SOL     OW30289   3.522   2.069   5.192
 6357SOL    HW130290   3.488   2.161   5.170
 6357SOL    HW230291   3.452   2.001   5.172
 6358SOL     OW30292   8.209   6.959   5.754
 6358SOL    HW130293   8.168   7.050   5.742
 6358SOL    HW230294   8.170   6.896   5.688
 6359SOL     OW30295   1.831   7.093   5.988
 6359SOL    HW130296   1.825   7.167   6.054
 6359SOL    HW230297   1.905   7.030   6.015
 6360SOL     OW30298   5.520   8.271   3.878
 6360SOL    HW130299   5.510   8.181   3.919
 6360SOL    HW230300   5.435   8.323   3.889
 6361SOL     OW30301   9.281   6.812   6.177
 6361SOL    HW130302   9.378   6.834   6.177
 6361SOL    HW230303   9.269   6.716   6.204
 6362SOL     OW30304   3.977   1.569   6.301
 6362SOL    HW130305   4.030   1.487   6.284
 6362SOL    HW230306   4.036   1.639   6.342
 6363SOL     OW30307   6.230   3.917   0.124
 6363SOL    HW130308   6.144   3.968   0.127
 6363SOL    HW230309   6.304   3.977   0.154
 6364SOL     OW30310   1.383   5.147   5.881
 6364SOL    HW130311   1.287   5.122   5.894
 6364SOL    HW230312   1.388   5.233   5.829
 6365SOL     OW30313   3.836   8.222   0.276
 6365SOL    HW130314   3.879   8.313   0.271
 6365SOL    HW230315   3.762   8.224   0.344
 6366SOL     OW30316   4.972   4.514   1.202
 6366SOL    HW130317   5.054   4.530   1.147
 6366SOL    HW230318   4.913   4.595   1.198
 6367SOL     OW30319   6.939   6.595   6.315
 6367SOL    HW130320   7.002   6.602   6.237
 6367SOL    HW230321   6.940   6.501   6.351
 6368SOL     OW30322   3.286   9.249   2.214
 6368SOL    HW130323   3.272   9.347   2.206
 6368SOL    HW230324   3.294   9.224   2.310
 6369SOL     OW30325   6.219   7.803   3.111
 6369SOL    HW130326   6.316   7.797   3.087
 6369SOL    HW230327   6.164   7.785   3.029
 6370SOL     OW30328   1.446   0.892   5.386
 6370SOL    HW130329   1.438   0.822   5.316
 6370SOL    HW230330   1.396   0.974   5.357
 6371SOL     OW30331   6.194   0.454   4.443
 6371SOL    HW130332   6.187   0.389   4.518
 6371SOL    HW230333   6.282   0.502   4.448
 6372SOL     OW30334   7.134   5.698   0.104
 6372SOL    HW130335   7.165   5.647   0.023
 6372SOL    HW230336   7.039   5.726   0.092
 6373SOL     OW30337   2.033   0.024   5.007
 6373SOL    HW130338   2.028   9.993   4.912
 6373SOL    HW230339   1.959   0.090   5.025
 6374SOL     OW30340   8.715   8.039   4.091
 6374SOL    HW130341   8.723   8.102   4.014
 6374SOL    HW230342   8.801   8.038   4.143
 6375SOL     OW30343   9.833   8.533   2.376
 6375SOL    HW130344   9.801   8.444   2.345
 6375SOL    HW230345   9.849   8.530   2.475
 6376SOL     OW30346   1.265   2.201   2.880
 6376SOL    HW130347   1.290   2.271   2.947
 6376SOL    HW230348   1.228   2.244   2.798
 6377SOL     OW30349   7.949   5.464   1.616
 6377SOL    HW130350   7.979   5.384   1.667
 6377SOL    HW230351   7.941   5.441   1.519
 6378SOL     OW30352   8.936   6.754   2.097
 6378SOL    HW130353   8.952   6.762   2.195
 6378SOL    HW230354   8.981   6.672   2.062
 6379SOL     OW30355   1.550   7.057   6.023
 6379SOL    HW130356   1.650   7.059   6.032
 6379SOL    HW230357   1.508   7.077   6.111
 6380SOL     OW30358   2.883   4.886   0.249
 6380SOL    HW130359   2.809   4.939   0.289
 6380SOL    HW230360   2.913   4.816   0.315
 6381SOL     OW30361   0.702   8.340   3.636
 6381SOL    HW130362   0.711   8.300   3.544
 6381SOL    HW230363   0.645   8.422   3.631
 6382SOL     OW30364   2.272   1.121   0.632
 6382SOL    HW130365   2.233   1.092   0.544
 6382SOL    HW230366   2.261   1.220   0.641
 6383SOL     OW30367   2.760   6.463   3.047
 6383SOL    HW130368   2.848   6.510   3.043
 6383SOL    HW230369   2.710   6.491   3.129
 6384SOL     OW30370   2.123   2.624   5.294
 6384SOL    HW130371   2.027   2.599   5.305
 6384SOL    HW230372   2.162   2.572   5.218
 6385SOL     OW30373   4.352   7.125   0.629
 6385SOL    HW130374   4.276   7.187   0.607
 6385SOL    HW230375   4.350   7.103   0.726
 6386SOL     OW30376   8.480   9.216   0.228
 6386SOL    HW130377   8.392   9.256   0.204
 6386SOL    HW230378   8.511   9.253   0.315
 6387SOL     OW30379   7.715   0.221   3.133
 6387SOL    HW130380   7.624   0.186   3.108
 6387SOL    HW230381   7.736   0.195   3.228
 6388SOL     OW30382   7.020   1.269   6.155
 6388SOL    HW130383   7.082   1.288   6.231
 6388SOL    HW230384   7.002   1.353   6.105
 6389SOL     OW30385   3.345   3.003   0.116
 6389SOL    HW130386   3.303   2.921   0.154
 6389SOL    HW230387   3.444   3.000   0.131
 6390SOL     OW30388   2.469   9.967   1.075
 6390SOL    HW130389   2.402   9.918   1.019
 6390SOL    HW230390   2.427   0.050   1.112
 6391SOL     OW30391   1.420   0.001   5.162
 6391SOL    HW130392   1.378   0.057   5.091
 6391SOL    HW230393   1.375   0.020   5.250
 6392SOL     OW30394   5.806   1.211   5.956
 6392SOL    HW130395   5.725   1.245   5.907
 6392SOL    HW230396   5.887   1.259   5.923
 6393SOL     OW30397   8.563   2.883   1.353
 6393SOL    HW130398   8.480   2.879   1.297
 6393SOL    HW230399   8.636   2.928   1.301
 6394SOL     OW30400   5.785   9.763   6.265
 6394SOL    HW130401   5.749   9.669   6.267
 6394SOL    HW230402   5.714   9.825   6.232
 6395SOL     OW30403   1.929   2.569   0.052
 6395SOL    HW130404   1.925   2.475   0.086
 6395SOL    HW230405   1.840   2.613   0.064
 6396SOL     OW30406   7.698   6.374   1.615
 6396SOL    HW130407   7.723   6.468   1.640
 6396SOL    HW230408   7.658   6.328   1.694
 6397SOL     OW30409   9.695   7.925   3.257
 6397SOL    HW130410   9.626   7.987   3.296
 6397SOL    HW230411   9.652   7.839   3.231
 6398SOL     OW30412   1.605   9.589   5.166
 6398SOL    HW130413   1.677   9.618   5.231
 6398SOL    HW230414   1.586   9.492   5.180
 6399SOL     OW30415   3.012   6.668   2.804
 6399SOL    HW130416   2.998   6.591   2.742
 6399SOL    HW230417   3.011   6.636   2.898
 6400SOL     OW30418   3.380   0.822   3.196
 6400SOL    HW130419   3.417   0.889   3.133
 6400SOL    HW230420   3.455   0.772   3.240
 6401SOL     OW30421   9.367   3.508   5.952
 6401SOL    HW130422   9.463   3.505   5.926
 6401SOL    HW230423   9.359   3.530   6.049
 6402SOL     OW30424   0.519   9.562   3.845
 6402SOL    HW130425   0.604   9.578   3.895
 6402SOL    HW230426   0.514   9.465   3.819
 6403SOL     OW30427   8.801   0.751   1.700
 6403SOL    HW130428   8.764   0.752   1.607
 6403SOL    HW230429   8.794   0.658   1.738
 6404SOL     OW30430   0.736   2.975   0.229
 6404SOL    HW130431   0.750   3.068   0.194
 6404SOL    HW230432   0.812   2.917   0.199
 6405SOL     OW30433   6.525   0.755   1.221
 6405SOL    HW130434   6.609   0.725   1.176
 6405SOL    HW230435   6.545   0.777   1.317
 6406SOL     OW30436   9.295   0.779   0.977
 6406SOL    HW130437   9.351   0.861   0.991
 6406SOL    HW230438   9.254   0.751   1.064
 6407SOL     OW30439   3.146   1.874   4.775
 6407SOL    HW130440   3.147   1.947   4.707
 6407SOL    HW230441   3.066   1.885   4.835
 6408SOL     OW30442   5.675   8.144   2.806
 6408SOL    HW130443   5.578   8.170   2.803
 6408SOL    HW230444   5.722   8.181   2.726
 6409SOL     OW30445   6.394   9.711   4.025
 6409SOL    HW130446   6.488   9.728   4.052
 6409SOL    HW230447   6.333   9.775   4.072
 6410SOL     OW30448   2.589   1.971   5.088
 6410SOL    HW130449   2.490   1.988   5.091
 6410SOL    HW230450   2.609   1.905   5.016
 6411SOL     OW30451   2.225   5.723   4.894
 6411SOL    HW130452   2.137   5.675   4.899
 6411SOL    HW230453   2.287   5.673   4.833
 6412SOL     OW30454   3.716   7.448   2.733
 6412SOL    HW130455   3.643   7.477   2.671
 6412SOL    HW230456   3.693   7.473   2.827
 6413SOL     OW30457   1.841   0.253   6.346
 6413SOL    HW130458   1.879   0.178   6.292
 6413SOL    HW230459   1.879   0.250   6.439
 6414SOL     OW30460   3.713   5.914   3.507
 6414SOL    HW130461   3.733   5.832   3.454
 6414SOL    HW230462   3.642   5.894   3.574
 6415SOL     OW30463   0.919   7.846   1.360
 6415SOL    HW130464   0.882   7.794   1.437
 6415SOL    HW230465   0.883   7.939   1.362
 6416SOL     OW30466   6.683   3.194   0.102
 6416SOL    HW130467   6.634   3.123   0.152
 6416SOL    HW230468   6.660   3.190   0.005
 6417SOL     OW30469   5.315   1.688   2.712
 6417SOL    HW130470   5.363   1.756   2.658
 6417SOL    HW230471   5.380   1.618   2.743
 6418SOL     OW30472   0.643   6.665   3.391
 6418SOL    HW130473   0.691   6.721   3.324
 6418SOL    HW230474   0.707   6.599   3.431
 6419SOL     OW30475   3.799   6.784   4.198
 6419SOL    HW130476   3.841   6.693   4.200
 6419SOL    HW230477   3.700   6.775   4.210
 6420SOL     OW30478   7.126   0.051   2.777
 6420SOL    HW130479   7.090   0.021   2.689
 6420SOL    HW230480   7.213   0.005   2.796
 6421SOL     OW30481   6.990   0.189   2.965
 6421SOL    HW130482   6.958   0.276   2.927
 6421SOL    HW230483   7.039   0.137   2.895
 6422SOL     OW30484   7.357   5.633   0.502
 6422SOL    HW130485   7.379   5.590   0.414
 6422SOL    HW230486   7.297   5.711   0.486
 6423SOL     OW30487   8.421   2.737   5.303
 6423SOL    HW130488   8.404   2.763   5.398
 6423SOL    HW230489   8.416   2.819   5.246
 6424SOL     OW30490   1.605   6.829   4.411
 6424SOL    HW130491   1.544   6.866   4.482
 6424SOL    HW230492   1.694   6.872   4.419
 6425SOL     OW30493   1.773   5.816   0.888
 6425SOL    HW130494   1.841   5.855   0.825
 6425SOL    HW230495   1.796   5.721   0.908
 6426SOL     OW30496   5.130   9.081   6.317
 6426SOL    HW130497   5.225   9.077   6.289
 6426SOL    HW230498   5.091   8.989   6.319
 6427SOL     OW30499   0.231   2.862   4.520
 6427SOL    HW130500   0.311   2.859   4.461
 6427SOL    HW230501   0.157   2.808   4.480
 6428SOL     OW30502   2.318   8.886   2.387
 6428SOL    HW130503   2.369   8.801   2.402
 6428SOL    HW230504   2.342   8.953   2.457
 6429SOL     OW30505   7.695   3.061   0.294
 6429SOL    HW130506   7.658   3.062   0.387
 6429SOL    HW230507   7.624   3.034   0.229
 6430SOL     OW30508   5.658   8.024   4.580
 6430SOL    HW130509   5.570   8.054   4.617
 6430SOL    HW230510   5.653   7.927   4.557
 6431SOL     OW30511   1.796   1.605   6.049
 6431SOL    HW130512   1.754   1.572   6.134
 6431SOL    HW230513   1.805   1.704   6.052
 6432SOL     OW30514   0.145   8.014   1.244
 6432SOL    HW130515   0.070   8.021   1.178
 6432SOL    HW230516   0.175   7.919   1.250
 6433SOL     OW30517   0.252   1.882   0.147
 6433SOL    HW130518   0.172   1.879   0.208
 6433SOL    HW230519   0.225   1.920   0.059
 6434SOL     OW30520   8.049   9.512   0.038
 6434SOL    HW130521   8.002   9.432   0.002
 6434SOL    HW230522   8.038   9.588   8.163
 6435SOL     OW30523   3.586   4.526   2.552
 6435SOL    HW130524   3.497   4.570   2.541
 6435SOL    HW230525   3.640   4.540   2.469
 6436SOL     OW30526   6.219   8.707   5.789
 6436SOL    HW130527   6.230   8.774   5.715
 6436SOL    HW230528   6.304   8.656   5.800
 6437SOL     OW30529   2.462   0.392   1.805
 6437SOL    HW130530   2.410   0.320   1.850
 6437SOL    HW230531   2.554   0.396   1.844
 6438SOL     OW30532   9.685   7.645   3.440
 6438SOL    HW130533   9.647   7.659   3.349
 6438SOL    HW230534   9.720   7.552   3.448
 6439SOL     OW30535   6.427   9.125   6.204
 6439SOL    HW130536   6.452   9.035   6.239
 6439SOL    HW230537   6.332   9.123   6.171
 6440SOL     OW30538   0.603   4.879   6.212
 6440SOL    HW130539   0.647   4.964   6.241
 6440SOL    HW230540   0.519   4.865   6.264
 6441SOL     OW30541   6.430   0.559   3.365
 6441SOL    HW130542   6.398   0.465   3.377
 6441SOL    HW230543   6.380   0.620   3.427
 6442SOL     OW30544   8.703   3.875   3.072
 6442SOL    HW130545   8.778   3.937   3.091
 6442SOL    HW230546   8.715   3.791   3.125
 6443SOL     OW30547   4.328   5.165   6.282
 6443SOL    HW130548   4.358   5.078   6.243
 6443SOL    HW230549   4.383   5.187   6.363
 6444SOL     OW30550   2.428   2.732   5.357
 6444SOL    HW130551   2.494   2.704   5.427
 6444SOL    HW230552   2.353   2.666   5.352
 6445SOL     OW30553   0.526   0.486   1.782
 6445SOL    HW130554   0.612   0.438   1.800
 6445SOL    HW230555   0.450   0.434   1.821
 6446SOL     OW30556   4.158   1.704   1.444
 6446SOL    HW130557   4.220   1.659   1.509
 6446SOL    HW230558   4.110   1.634   1.390
 6447SOL     OW30559   2.507   6.126   5.536
 6447SOL    HW130560   2.474   6.055   5.597
 6447SOL    HW230561   2.607   6.128   5.540
 6448SOL     OW30562   8.173   7.222   1.304
 6448SOL    HW130563   8.096   7.158   1.303
 6448SOL    HW230564   8.215   7.226   1.214
 6449SOL     OW30565   9.607   9.895   1.052
 6449SOL    HW130566   9.652   9.807   1.068
 6449SOL    HW230567   9.513   9.892   1.087
 6450SOL     OW30568   3.839   6.406   1.799
 6450SOL    HW130569   3.812   6.431   1.706
 6450SOL    HW230570   3.803   6.315   1.821
 6451SOL     OW30571   8.593   8.248   5.552
 6451SOL    HW130572   8.507   8.261   5.600
 6451SOL    HW230573   8.661   8.314   5.586
 6452SOL     OW30574   1.632   7.425   4.974
 6452SOL    HW130575   1.622   7.491   4.900
 6452SOL    HW230576   1.729   7.410   4.993
 6453SOL     OW30577   0.101   2.331   1.497
 6453SOL    HW130578   0.082   2.238   1.528
 6453SOL    HW230579   0.176   2.370   1.550
 6454SOL     OW30580   4.266   7.280   5.103
 6454SOL    HW130581   4.266   7.186   5.135
 6454SOL    HW230582   4.201   7.290   5.027
 6455SOL     OW30583   0.917   2.692   1.352
 6455SOL    HW130584   0.862   2.625   1.302
 6455SOL    HW230585   0.971   2.645   1.422
 6456SOL     OW30586   5.403   2.035   0.272
 6456SOL    HW130587   5.486   2.090   0.270
 6456SOL    HW230588   5.358   2.047   0.361
 6457SOL     OW30589   1.998   6.665   3.684
 6457SOL    HW130590   1.936   6.744   3.681
 6457SOL    HW230591   1.965   6.594   3.622
 6458SOL     OW30592   4.227   8.318   1.758
 6458SOL    HW130593   4.231   8.226   1.796
 6458SOL    HW230594   4.165   8.374   1.811
 6459SOL     OW30595   3.558   7.251   3.063
 6459SOL    HW130596   3.569   7.181   2.993
 6459SOL    HW230597   3.603   7.335   3.033
 6460SOL     OW30598   9.500   6.919   4.232
 6460SOL    HW130599   9.581   6.886   4.184
 6460SOL    HW230600   9.435   6.956   4.166
 6461SOL     OW30601   7.648   2.023   3.721
 6461SOL    HW130602   7.604   2.016   3.811
 6461SOL    HW230603   7.742   2.055   3.733
 6462SOL     OW30604   9.524   6.708   3.481
 6462SOL    HW130605   9.595   6.767   3.518
 6462SOL    HW230606   9.563   6.650   3.409
 6463SOL     OW30607   3.763   5.750   1.663
 6463SOL    HW130608   3.670   5.783   1.644
 6463SOL    HW230609   3.825   5.828   1.673
 6464SOL     OW30610   0.765   7.176   3.717
 6464SOL    HW130611   0.755   7.157   3.619
 6464SOL    HW230612   0.689   7.135   3.767
 6465SOL     OW30613   3.650   7.290   5.956
 6465SOL    HW130614   3.643   7.192   5.935
 6465SOL    HW230615   3.696   7.336   5.880
 6466SOL     OW30616   0.501   5.198   3.847
 6466SOL    HW130617   0.534   5.273   3.791
 6466SOL    HW230618   0.410   5.219   3.882
 6467SOL     OW30619   3.644   2.878   3.846
 6467SOL    HW130620   3.581   2.882   3.924
 6467SOL    HW230621   3.622   2.949   3.780
 6468SOL     OW30622   2.995   6.966   2.131
 6468SOL    HW130623   3.090   6.999   2.135
 6468SOL    HW230624   2.957   6.984   2.040
 6469SOL     OW30625   7.482   3.087   3.866
 6469SOL    HW130626   7.412   3.056   3.931
 6469SOL    HW230627   7.497   3.185   3.877
 6470SOL     OW30628   9.183   5.727   2.548
 6470SOL    HW130629   9.086   5.730   2.572
 6470SOL    HW230630   9.193   5.739   2.449
 6471SOL     OW30631   1.773   4.829   0.898
 6471SOL    HW130632   1.799   4.832   0.995
 6471SOL    HW230633   1.710   4.753   0.883
 6472SOL     OW30634   9.391   4.702   4.950
 6472SOL    HW130635   9.369   4.656   5.036
 6472SOL    HW230636   9.476   4.664   4.913
 6473SOL     OW30637   0.407   4.865   5.889
 6473SOL    HW130638   0.467   4.788   5.908
 6473SOL    HW230639   0.419   4.895   5.795
 6474SOL     OW30640   2.983   6.455   0.578
 6474SOL    HW130641   2.925   6.488   0.653
 6474SOL    HW230642   2.931   6.390   0.522
 6475SOL     OW30643   1.739   3.286   3.852
 6475SOL    HW130644   1.833   3.284   3.885
 6475SOL    HW230645   1.701   3.193   3.851
 6476SOL     OW30646   0.297   7.046   5.412
 6476SOL    HW130647   0.235   6.982   5.457
 6476SOL    HW230648   0.352   6.997   5.344
 6477SOL     OW30649   3.246   0.239   1.514
 6477SOL    HW130650   3.161   0.197   1.546
 6477SOL    HW230651   3.226   0.300   1.437
 6478SOL     OW30652   2.938   3.365   4.516
 6478SOL    HW130653   3.024   3.315   4.524
 6478SOL    HW230654   2.953   3.450   4.465
 6479SOL     OW30655   0.988   5.201   6.307
 6479SOL    HW130656   0.930   5.260   6.252
 6479SOL    HW230657   1.084   5.223   6.292
 6480SOL     OW30658   3.160   3.901   4.292
 6480SOL    HW130659   3.234   3.840   4.322
 6480SOL    HW230660   3.189   3.996   4.300
 6481SOL     OW30661   9.532   9.812   4.887
 6481SOL    HW130662   9.631   9.826   4.879
 6481SOL    HW230663   9.508   9.723   4.846
 6482SOL     OW30664   1.012   9.653   4.888
 6482SOL    HW130665   0.939   9.721   4.876
 6482SOL    HW230666   0.978   9.563   4.857
 6483SOL     OW30667   8.605   6.725   5.346
 6483SOL    HW130668   8.634   6.784   5.271
 6483SOL    HW230669   8.641   6.760   5.432
 6484SOL     OW30670   0.237   2.300   3.401
 6484SOL    HW130671   0.277   2.265   3.486
 6484SOL    HW230672   0.285   2.259   3.323
 6485SOL     OW30673   3.961   8.078   2.489
 6485SOL    HW130674   3.947   8.064   2.587
 6485SOL    HW230675   3.958   8.176   2.469
 6486SOL     OW30676   9.195   5.712   0.108
 6486SOL    HW130677   9.283   5.705   0.061
 6486SOL    HW230678   9.201   5.669   0.197
 6487SOL     OW30679   3.020   3.779   5.539
 6487SOL    HW130680   2.976   3.868   5.524
 6487SOL    HW230681   2.971   3.708   5.488
 6488SOL     OW30682   4.313   0.267   3.949
 6488SOL    HW130683   4.398   0.229   3.913
 6488SOL    HW230684   4.243   0.267   3.877
 6489SOL     OW30685   6.570   1.185   4.484
 6489SOL    HW130686   6.500   1.189   4.555
 6489SOL    HW230687   6.528   1.163   4.396
 6490SOL     OW30688   1.964   6.887   0.261
 6490SOL    HW130689   1.904   6.815   0.296
 6490SOL    HW230690   2.030   6.848   0.197
 6491SOL     OW30691   9.515   4.532   1.228
 6491SOL    HW130692   9.541   4.625   1.255
 6491SOL    HW230693   9.424   4.511   1.263
 6492SOL     OW30694   9.772   5.766   4.941
 6492SOL    HW130695   9.748   5.830   4.867
 6492SOL    HW230696   9.730   5.797   5.026
 6493SOL     OW30697   0.826   1.634   6.372
 6493SOL    HW130698   0.875   1.558   6.416
 6493SOL    HW230699   0.889   1.684   6.312
 6494SOL     OW30700   3.277   4.062   6.079
 6494SOL    HW130701   3.330   3.982   6.109
 6494SOL    HW230702   3.218   4.036   6.003
 6495SOL     OW30703   1.066   2.071   1.353
 6495SOL    HW130704   1.034   2.138   1.420
 6495SOL    HW230705   0.987   2.022   1.315
 6496SOL     OW30706   5.874   8.196   4.247
 6496SOL    HW130707   5.856   8.224   4.341
 6496SOL    HW230708   5.804   8.130   4.218
 6497SOL     OW30709   1.510   1.317   3.727
 6497SOL    HW130710   1.512   1.228   3.681
 6497SOL    HW230711   1.586   1.373   3.696
 6498SOL     OW30712   1.649   5.824   5.729
 6498SOL    HW130713   1.636   5.823   5.630
 6498SOL    HW230714   1.654   5.918   5.761
 6499SOL     OW30715   5.232   8.293   5.705
 6499SOL    HW130716   5.183   8.210   5.732
 6499SOL    HW230717   5.218   8.310   5.607
 6500SOL     OW30718   0.098   0.208   3.299
 6500SOL    HW130719   0.153   0.288   3.326
 6500SOL    HW230720   0.146   0.125   3.325
 6501SOL     OW30721   4.375   0.951   0.236
 6501SOL    HW130722   4.446   1.002   0.189
 6501SOL    HW230723   4.407   0.923   0.327
 6502SOL     OW30724   1.249   4.105   6.200
 6502SOL    HW130725   1.151   4.114   6.217
 6502SOL    HW230726   1.298   4.178   6.247
 6503SOL     OW30727   5.140   7.599   2.440
 6503SOL    HW130728   5.089   7.638   2.517
 6503SOL    HW230729   5.113   7.504   2.427
 6504SOL     OW30730   3.693   1.462   5.401
 6504SOL    HW130731   3.665   1.507   5.486
 6504SOL    HW230732   3.761   1.518   5.354
 6505SOL     OW30733   0.592   2.643   1.466
 6505SOL    HW130734   0.645   2.727   1.479
 6505SOL    HW230735   0.647   2.564   1.494
 6506SOL     OW30736   7.091   0.081   4.393
 6506SOL    HW130737   7.092   0.172   4.436
 6506SOL    HW230738   7.092   0.091   4.294
 6507SOL     OW30739   3.650   6.242   4.245
 6507SOL    HW130740   3.712   6.283   4.179
 6507SOL    HW230741   3.580   6.189   4.197
 6508SOL     OW30742   7.998   1.246   3.134
 6508SOL    HW130743   7.961   1.156   3.158
 6508SOL    HW230744   8.045   1.240   3.046
 6509SOL     OW30745   8.225   7.926   4.455
 6509SOL    HW130746   8.249   7.836   4.492
 6509SOL    HW230747   8.225   7.923   4.355
 6510SOL     OW30748   7.229   4.705   0.773
 6510SOL    HW130749   7.226   4.805   0.772
 6510SOL    HW230750   7.213   4.673   0.866
 6511SOL     OW30751   2.316   2.075   3.059
 6511SOL    HW130752   2.362   2.015   2.993
 6511SOL    HW230753   2.238   2.026   3.099
 6512SOL     OW30754   1.821   1.108   4.680
 6512SOL    HW130755   1.759   1.185   4.694
 6512SOL    HW230756   1.810   1.043   4.756
 6513SOL     OW30757   1.865   5.163   2.289
 6513SOL    HW130758   1.781   5.135   2.242
 6513SOL    HW230759   1.842   5.220   2.367
 6514SOL     OW30760   7.967   4.057   4.947
 6514SOL    HW130761   7.976   4.057   5.047
 6514SOL    HW230762   7.972   4.151   4.914
 6515SOL     OW30763   4.922   5.245   3.520
 6515SOL    HW130764   4.834   5.293   3.521
 6515SOL    HW230765   4.938   5.203   3.609
 6516SOL     OW30766   3.838   7.414   5.378
 6516SOL    HW130767   3.890   7.491   5.414
 6516SOL    HW230768   3.741   7.438   5.373
 6517SOL     OW30769   5.069   5.602   0.367
 6517SOL    HW130770   5.121   5.677   0.327
 6517SOL    HW230771   5.039   5.627   0.459
 6518SOL     OW30772   7.678   2.937   3.523
 6518SOL    HW130773   7.712   3.030   3.510
 6518SOL    HW230774   7.748   2.882   3.569
 6519SOL     OW30775   7.305   8.417   6.351
 6519SOL    HW130776   7.227   8.359   6.373
 6519SOL    HW230777   7.390   8.370   6.376
 6520SOL     OW30778   6.596   4.243   1.055
 6520SOL    HW130779   6.530   4.194   0.998
 6520SOL    HW230780   6.550   4.285   1.133
 6521SOL     OW30781   9.127   8.322   1.046
 6521SOL    HW130782   9.113   8.421   1.036
 6521SOL    HW230783   9.221   8.305   1.076
 6522SOL     OW30784   3.713   5.187   4.166
 6522SOL    HW130785   3.793   5.232   4.127
 6522SOL    HW230786   3.742   5.122   4.236
 6523SOL     OW30787   6.464   0.990   5.392
 6523SOL    HW130788   6.541   1.002   5.329
 6523SOL    HW230789   6.379   1.015   5.345
 6524SOL     OW30790   6.697   2.475   5.146
 6524SOL    HW130791   6.621   2.491   5.083
 6524SOL    HW230792   6.758   2.406   5.109
 6525SOL     OW30793   7.551   3.146   2.108
 6525SOL    HW130794   7.487   3.070   2.120
 6525SOL    HW230795   7.504   3.232   2.128
 6526SOL     OW30796   8.294   7.234   2.968
 6526SOL    HW130797   8.256   7.250   3.060
 6526SOL    HW230798   8.352   7.152   2.970
 6527SOL     OW30799   2.594   1.199   0.426
 6527SOL    HW130800   2.505   1.224   0.387
 6527SOL    HW230801   2.656   1.170   0.353
 6528SOL     OW30802   7.921   6.776   4.540
 6528SOL    HW130803   7.863   6.708   4.584
 6528SOL    HW230804   8.012   6.738   4.524
 6529SOL     OW30805   3.344   3.485   6.181
 6529SOL    HW130806   3.269   3.507   6.244
 6529SOL    HW230807   3.342   3.549   6.104
 6530SOL     OW30808   4.059   4.731   0.180
 6530SOL    HW130809   4.033   4.818   0.137
 6530SOL    HW230810   4.154   4.737   0.211
 6531SOL     OW30811   9.089   8.422   2.341
 6531SOL    HW130812   9.104   8.351   2.410
 6531SOL    HW230813   9.155   8.496   2.355
 6532SOL     OW30814   7.615   2.016   2.423
 6532SOL    HW130815   7.567   1.980   2.504
 6532SOL    HW230816   7.711   2.031   2.446
 6533SOL     OW30817   9.379   5.365   2.153
 6533SOL    HW130818   9.412   5.429   2.223
 6533SOL    HW230819   9.443   5.289   2.144
 6534SOL     OW30820   9.804   9.835   2.629
 6534SOL    HW130821   9.867   9.761   2.652
 6534SOL    HW230822   9.755   9.864   2.711
 6535SOL     OW30823   4.491   0.020   5.624
 6535SOL    HW130824   4.469   0.043   5.719
 6535SOL    HW230825   4.485   0.102   5.568
 6536SOL     OW30826   4.086   0.082   1.489
 6536SOL    HW130827   4.039   0.050   1.572
 6536SOL    HW230828   4.022   0.080   1.412
 6537SOL     OW30829   1.856   5.287   1.134
 6537SOL    HW130830   1.931   5.222   1.118
 6537SOL    HW230831   1.796   5.288   1.055
 6538SOL     OW30832   0.904   9.720   0.747
 6538SOL    HW130833   0.952   9.641   0.709
 6538SOL    HW230834   0.902   9.794   0.679
 6539SOL     OW30835   4.902   5.053   0.727
 6539SOL    HW130836   4.873   4.996   0.803
 6539SOL    HW230837   5.000   5.045   0.713
 6540SOL     OW30838   7.355   8.528   3.317
 6540SOL    HW130839   7.318   8.595   3.382
 6540SOL    HW230840   7.297   8.524   3.236
 6541SOL     OW30841   4.537   1.433   3.059
 6541SOL    HW130842   4.509   1.482   3.142
 6541SOL    HW230843   4.636   1.423   3.058
 6542SOL     OW30844   5.562   8.440   3.081
 6542SOL    HW130845   5.465   8.423   3.067
 6542SOL    HW230846   5.608   8.355   3.107
 6543SOL     OW30847   9.605   5.880   5.151
 6543SOL    HW130848   9.620   5.979   5.143
 6543SOL    HW230849   9.663   5.843   5.224
 6544SOL     OW30850   6.140   8.450   5.040
 6544SOL    HW130851   6.160   8.507   5.120
 6544SOL    HW230852   6.042   8.452   5.022
 6545SOL     OW30853   9.872   5.102   0.316
 6545SOL    HW130854   9.952   5.057   0.355
 6545SOL    HW230855   9.838   5.049   0.239
 6546SOL     OW30856   8.106   8.615   5.185
 6546SOL    HW130857   8.116   8.584   5.280
 6546SOL    HW230858   8.012   8.600   5.155
 6547SOL     OW30859   6.283   0.431   3.684
 6547SOL    HW130860   6.248   0.523   3.703
 6547SOL    HW230861   6.232   0.364   3.739
 6548SOL     OW30862   9.810   7.405   2.398
 6548SOL    HW130863   9.854   7.485   2.437
 6548SOL    HW230864   9.728   7.382   2.451
 6549SOL     OW30865   3.534   0.270   5.071
 6549SOL    HW130866   3.565   0.197   5.131
 6549SOL    HW230867   3.606   0.340   5.064
 6550SOL     OW30868   9.299   9.382   1.357
 6550SOL    HW130869   9.319   9.392   1.259
 6550SOL    HW230870   9.201   9.366   1.369
 6551SOL     OW30871   8.724   3.530   6.434
 6551SOL    HW130872   8.628   3.518   6.408
 6551SOL    HW230873   8.756   3.619   6.401
 6552SOL     OW30874   5.409   8.488   3.621
 6552SOL    HW130875   5.493   8.445   3.586
 6552SOL    HW230876   5.393   8.458   3.715
 6553SOL     OW30877   7.637   6.325   5.635
 6553SOL    HW130878   7.699   6.269   5.579
 6553SOL    HW230879   7.689   6.369   5.708
 6554SOL     OW30880   9.758   1.041   4.956
 6554SOL    HW130881   9.786   0.945   4.968
 6554SOL    HW230882   9.696   1.047   4.877
 6555SOL     OW30883   3.668   3.501   6.043
 6555SOL    HW130884   3.639   3.591   6.075
 6555SOL    HW230885   3.757   3.479   6.082
 6556SOL     OW30886   8.327   7.015   0.205
 6556SOL    HW130887   8.243   7.054   0.242
 6556SOL    HW230888   8.329   6.917   0.222
 6557SOL     OW30889   0.401   8.212   5.053
 6557SOL    HW130890   0.310   8.169   5.063
 6557SOL    HW230891   0.399   8.276   4.977
 6558SOL     OW30892   3.306   4.105   3.138
 6558SOL    HW130893   3.326   4.038   3.067
 6558SOL    HW230894   3.207   4.118   3.144
 6559SOL     OW30895   9.140   2.914   1.397
 6559SOL    HW130896   9.092   2.829   1.376
 6559SOL    HW230897   9.120   2.941   1.491
 6560SOL     OW30898   9.694   0.272   1.015
 6560SOL    HW130899   9.680   0.274   0.916
 6560SOL    HW230900   9.751   0.194   1.039
 6561SOL     OW30901   8.700   1.385   1.339
 6561SOL    HW130902   8.792   1.348   1.352
 6561SOL    HW230903   8.638   1.345   1.407
 6562SOL     OW30904   1.838   4.509   1.506
 6562SOL    HW130905   1.820   4.586   1.568
 6562SOL    HW230906   1.794   4.427   1.541
 6563SOL     OW30907   5.681   9.515   3.042
 6563SOL    HW130908   5.753   9.505   2.973
 6563SOL    HW230909   5.722   9.523   3.132
 6564SOL     OW30910   2.693   6.525   5.503
 6564SOL    HW130911   2.714   6.608   5.555
 6564SOL    HW230912   2.777   6.493   5.458
 6565SOL     OW30913   2.368   2.120   1.989
 6565SOL    HW130914   2.402   2.133   2.082
 6565SOL    HW230915   2.437   2.071   1.935
 6566SOL     OW30916   2.894   8.376   1.101
 6566SOL    HW130917   2.813   8.352   1.047
 6566SOL    HW230918   2.917   8.299   1.161
 6567SOL     OW30919   4.873   5.767   1.035
 6567SOL    HW130920   4.932   5.694   1.069
 6567SOL    HW230921   4.912   5.805   0.951
 6568SOL     OW30922   0.559   3.497   2.162
 6568SOL    HW130923   0.579   3.424   2.098
 6568SOL    HW230924   0.644   3.529   2.204
 6569SOL     OW30925   7.408   9.187   2.294
 6569SOL    HW130926   7.488   9.136   2.262
 6569SOL    HW230927   7.340   9.123   2.330
 6570SOL     OW30928   2.801   4.617   0.964
 6570SOL    HW130929   2.839   4.648   1.051
 6570SOL    HW230930   2.867   4.557   0.918
 6571SOL     OW30931   5.781   1.196   2.101
 6571SOL    HW130932   5.833   1.241   2.174
 6571SOL    HW230933   5.840   1.184   2.020
 6572SOL     OW30934   3.925   5.973   1.680
 6572SOL    HW130935   3.927   6.000   1.583
 6572SOL    HW230936   4.019   5.957   1.711
 6573SOL     OW30937   3.030   7.027   5.354
 6573SOL    HW130938   2.946   6.981   5.382
 6573SOL    HW230939   3.092   7.034   5.432
 6574SOL     OW30940   4.112   2.072   6.381
 6574SOL    HW130941   4.166   2.080   6.466
 6574SOL    HW230942   4.174   2.078   6.302
 6575SOL     OW30943   1.113   6.624   6.345
 6575SOL    HW130944   1.021   6.625   6.385
 6575SOL    HW230945   1.113   6.571   6.260
 6576SOL     OW30946   9.104   1.608   0.374
 6576SOL    HW130947   9.008   1.621   0.349
 6576SOL    HW230948   9.124   1.662   0.456
 6577SOL     OW30949   4.956   1.876   1.614
 6577SOL    HW130950   4.960   1.804   1.545
 6577SOL    HW230951   4.898   1.951   1.582
 6578SOL     OW30952   1.806   8.253   1.621
 6578SOL    HW130953   1.786   8.160   1.590
 6578SOL    HW230954   1.905   8.264   1.631
 6579SOL     OW30955   4.014   3.970   2.990
 6579SOL    HW130956   3.986   3.895   3.050
 6579SOL    HW230957   3.945   4.042   2.992
 6580SOL     OW30958   2.712   8.011   1.438
 6580SOL    HW130959   2.778   8.058   1.496
 6580SOL    HW230960   2.620   8.027   1.473
 6581SOL     OW30961   9.898   5.447   1.437
 6581SOL    HW130962   9.969   5.450   1.507
 6581SOL    HW230963   9.833   5.522   1.452
 6582SOL     OW30964   7.905   2.646   6.038
 6582SOL    HW130965   7.947   2.598   6.115
 6582SOL    HW230966   7.888   2.741   6.064
 6583SOL     OW30967   2.179   9.375   5.513
 6583SOL    HW130968   2.128   9.293   5.485
 6583SOL    HW230969   2.254   9.390   5.450
 6584SOL     OW30970   3.890   5.023   1.747
 6584SOL    HW130971   3.901   5.109   1.697
 6584SOL    HW230972   3.906   5.039   1.844
 6585SOL     OW30973   8.817   9.768   5.816
 6585SOL    HW130974   8.798   9.695   5.750
 6585SOL    HW230975   8.797   9.737   5.908
 6586SOL     OW30976   6.180   5.356   0.863
 6586SOL    HW130977   6.177   5.456   0.854
 6586SOL    HW230978   6.126   5.315   0.789
 6587SOL     OW30979   8.945   3.581   3.043
 6587SOL    HW130980   9.026   3.549   2.993
 6587SOL    HW230981   8.863   3.541   3.002
 6588SOL     OW30982   6.769   7.363   5.048
 6588SOL    HW130983   6.820   7.290   5.093
 6588SOL    HW230984   6.774   7.349   4.949
 6589SOL     OW30985   4.193   4.074   3.479
 6589SOL    HW130986   4.205   4.169   3.506
 6589SOL    HW230987   4.175   4.069   3.381
 6590SOL     OW30988   3.894   3.662   2.105
 6590SOL    HW130989   3.963   3.723   2.145
 6590SOL    HW230990   3.874   3.589   2.170
 6591SOL     OW30991   0.992   3.148   0.394
 6591SOL    HW130992   0.960   3.183   0.306
 6591SOL    HW230993   0.916   3.104   0.442
 6592SOL     OW30994   7.864   4.245   6.309
 6592SOL    HW130995   7.906   4.335   6.310
 6592SOL    HW230996   7.764   4.255   6.311
 6593SOL     OW30997   1.514   4.698   6.251
 6593SOL    HW130998   1.603   4.671   6.214
 6593SOL    HW230999   1.472   4.766   6.191
 6594SOL     OW31000   9.429   1.395   1.251
 6594SOL    HW131001   9.368   1.316   1.247
 6594SOL    HW231002   9.420   1.439   1.340
 6595SOL     OW31003   7.437   3.118   3.382
 6595SOL    HW131004   7.393   3.203   3.413
 6595SOL    HW231005   7.442   3.054   3.459
 6596SOL     OW31006   4.347   3.292   2.425
 6596SOL    HW131007   4.390   3.306   2.514
 6596SOL    HW231008   4.257   3.250   2.438
 6597SOL     OW31009   7.986   9.615   0.287
 6597SOL    HW131010   8.009   9.576   0.198
 6597SOL    HW231011   8.068   9.616   0.345
 6598SOL     OW31012   3.219   9.158   1.697
 6598SOL    HW131013   3.308   9.176   1.654
 6598SOL    HW231014   3.231   9.156   1.797
 6599SOL     OW31015   3.746   9.931   4.535
 6599SOL    HW131016   3.790   0.019   4.551
 6599SOL    HW231017   3.664   9.945   4.479
 6600SOL     OW31018   1.692   6.379   4.646
 6600SOL    HW131019   1.777   6.329   4.629
 6600SOL    HW231020   1.671   6.436   4.566
 6601SOL     OW31021   2.928   6.249   4.540
 6601SOL    HW131022   2.926   6.271   4.637
 6601SOL    HW231023   3.020   6.218   4.515
 6602SOL     OW31024   1.516   1.630   5.800
 6602SOL    HW131025   1.481   1.545   5.839
 6602SOL    HW231026   1.612   1.619   5.776
 6603SOL     OW31027   9.458   3.066   3.235
 6603SOL    HW131028   9.445   3.155   3.191
 6603SOL    HW231029   9.403   2.997   3.188
 6604SOL     OW31030   0.576   5.573   2.411
 6604SOL    HW131031   0.622   5.660   2.391
 6604SOL    HW231032   0.626   5.525   2.482
 6605SOL     OW31033   9.167   9.101   3.629
 6605SOL    HW131034   9.227   9.055   3.564
 6605SOL    HW231035   9.073   9.097   3.596
 6606SOL     OW31036   6.291   0.220   5.764
 6606SOL    HW131037   6.302   0.145   5.699
 6606SOL    HW231038   6.302   0.186   5.857
 6607SOL     OW31039   2.405   3.288   4.597
 6607SOL    HW131040   2.466   3.257   4.669
 6607SOL    HW231041   2.315   3.308   4.635
 6608SOL     OW31042   8.373   5.064   2.342
 6608SOL    HW131043   8.338   5.131   2.407
 6608SOL    HW231044   8.310   5.056   2.264
 6609SOL     OW31045   2.062   2.717   3.042
 6609SOL    HW131046   1.968   2.742   3.064
 6609SOL    HW231047   2.096   2.653   3.110
 6610SOL     OW31048   4.642   0.221   2.169
 6610SOL    HW131049   4.673   0.256   2.081
 6610SOL    HW231050   4.652   0.121   2.170
 6611SOL     OW31051   9.100   6.527   0.596
 6611SOL    HW131052   9.199   6.514   0.601
 6611SOL    HW231053   9.063   6.475   0.520
 6612SOL     OW31054   9.222   0.107   3.213
 6612SOL    HW131055   9.230   0.201   3.178
 6612SOL    HW231056   9.313   0.075   3.241
 6613SOL     OW31057   0.868   1.942   5.407
 6613SOL    HW131058   0.899   1.939   5.502
 6613SOL    HW231059   0.887   1.854   5.363
 6614SOL     OW31060   3.467   9.434   1.398
 6614SOL    HW131061   3.445   9.375   1.475
 6614SOL    HW231062   3.384   9.484   1.371
 6615SOL     OW31063   7.809   9.586   3.955
 6615SOL    HW131064   7.756   9.671   3.959
 6615SOL    HW231065   7.747   9.510   3.939
 6616SOL     OW31066   0.805   0.941   5.312
 6616SOL    HW131067   0.790   0.848   5.278
 6616SOL    HW231068   0.751   0.956   5.394
 6617SOL     OW31069   8.857   8.208   1.710
 6617SOL    HW131070   8.934   8.149   1.685
 6617SOL    HW231071   8.886   8.272   1.781
 6618SOL     OW31072   2.139   8.387   2.197
 6618SOL    HW131073   2.088   8.303   2.211
 6618SOL    HW231074   2.187   8.383   2.109
 6619SOL     OW31075   7.872   4.413   3.968
 6619SOL    HW131076   7.942   4.427   4.038
 6619SOL    HW231077   7.806   4.489   3.971
 6620SOL     OW31078   4.948   9.676   3.940
 6620SOL    HW131079   5.031   9.635   3.978
 6620SOL    HW231080   4.879   9.605   3.925
 6621SOL     OW31081   4.506   8.807   5.169
 6621SOL    HW131082   4.601   8.784   5.192
 6621SOL    HW231083   4.463   8.728   5.126
 6622SOL     OW31084   2.475   0.269   0.387
 6622SOL    HW131085   2.467   0.214   0.470
 6622SOL    HW231086   2.457   0.365   0.408
 6623SOL     OW31087   2.384   0.832   2.997
 6623SOL    HW131088   2.295   0.873   2.979
 6623SOL    HW231089   2.411   0.851   3.091
 6624SOL     OW31090   0.816   3.300   3.161
 6624SOL    HW131091   0.831   3.395   3.188
 6624SOL    HW231092   0.742   3.261   3.217
 6625SOL     OW31093   5.711   8.946   2.422
 6625SOL    HW131094   5.790   8.937   2.360
 6625SOL    HW231095   5.743   8.972   2.513
 6626SOL     OW31096   0.503   4.659   1.957
 6626SOL    HW131097   0.540   4.644   1.865
 6626SOL    HW231098   0.421   4.716   1.952
 6627SOL     OW31099   1.785   2.778   3.076
 6627SOL    HW131100   1.733   2.851   3.120
 6627SOL    HW231101   1.759   2.690   3.118
 6628SOL     OW31102   0.336   1.514   0.394
 6628SOL    HW131103   0.396   1.539   0.470
 6628SOL    HW231104   0.318   1.416   0.397
 6629SOL     OW31105   3.040   2.647   1.435
 6629SOL    HW131106   3.081   2.684   1.352
 6629SOL    HW231107   3.102   2.662   1.512
 6630SOL     OW31108   0.631   0.454   5.336
 6630SOL    HW131109   0.536   0.479   5.315
 6630SOL    HW231110   0.633   0.401   5.421
 6631SOL     OW31111   0.057   1.336   3.901
 6631SOL    HW131112   9.973   1.318   3.849
 6631SOL    HW231113   0.136   1.322   3.842
 6632SOL     OW31114   6.685   2.063   4.861
 6632SOL    HW131115   6.718   1.980   4.816
 6632SOL    HW231116   6.586   2.068   4.854
 6633SOL     OW31117   8.983   4.008   2.166
 6633SOL    HW131118   8.955   3.996   2.261
 6633SOL    HW231119   8.916   3.964   2.105
 6634SOL     OW31120   8.647   3.214   3.629
 6634SOL    HW131121   8.569   3.272   3.652
 6634SOL    HW231122   8.680   3.168   3.711
 6635SOL     OW31123   7.760   4.925   3.285
 6635SOL    HW131124   7.807   4.876   3.211
 6635SOL    HW231125   7.827   4.963   3.348
 6636SOL     OW31126   7.583   4.407   2.724
 6636SOL    HW131127   7.575   4.480   2.656
 6636SOL    HW231128   7.631   4.329   2.683
 6637SOL     OW31129   9.633   3.403   0.891
 6637SOL    HW131130   9.624   3.481   0.829
 6637SOL    HW231131   9.549   3.393   0.944
 6638SOL     OW31132   2.309   5.226   0.324
 6638SOL    HW131133   2.237   5.291   0.345
 6638SOL    HW231134   2.280   5.134   0.351
 6639SOL     OW31135   2.239   0.157   6.114
 6639SOL    HW131136   2.184   0.210   6.049
 6639SOL    HW231137   2.291   0.218   6.172
 6640SOL     OW31138   2.665   0.025   5.562
 6640SOL    HW131139   2.599   9.950   5.575
 6640SOL    HW231140   2.616   0.109   5.541
 6641SOL     OW31141   1.251   7.717   2.120
 6641SOL    HW131142   1.317   7.785   2.088
 6641SOL    HW231143   1.283   7.677   2.206
 6642SOL     OW31144   2.950   6.259   4.819
 6642SOL    HW131145   2.911   6.175   4.858
 6642SOL    HW231146   3.049   6.248   4.809
 6643SOL     OW31147   4.284   8.065   1.866
 6643SOL    HW131148   4.284   8.010   1.949
 6643SOL    HW231149   4.376   8.068   1.827
 6644SOL     OW31150   7.509   3.420   6.046
 6644SOL    HW131151   7.478   3.325   6.038
 6644SOL    HW231152   7.598   3.422   6.091
 6645SOL     OW31153   3.568   4.787   2.359
 6645SOL    HW131154   3.633   4.713   2.345
 6645SOL    HW231155   3.617   4.872   2.380
 6646SOL     OW31156   1.923   6.226   4.612
 6646SOL    HW131157   1.913   6.143   4.667
 6646SOL    HW231158   1.942   6.200   4.517
 6647SOL     OW31159   3.893   1.733   3.673
 6647SOL    HW131160   3.939   1.817   3.701
 6647SOL    HW231161   3.955   1.678   3.618
 6648SOL     OW31162   2.123   1.366   5.175
 6648SOL    HW131163   2.076   1.356   5.087
 6648SOL    HW231164   2.220   1.385   5.159
 6649SOL     OW31165   4.965   8.447   3.814
 6649SOL    HW131166   4.885   8.484   3.860
 6649SOL    HW231167   5.040   8.513   3.818
 6650SOL     OW31168   9.003   7.358   6.035
 6650SOL    HW131169   9.037   7.321   6.121
 6650SOL    HW231170   8.949   7.288   5.987
 6651SOL     OW31171   1.876   2.381   6.454
 6651SOL    HW131172   1.904   2.345   6.365
 6651SOL    HW231173   1.956   2.417   6.502
 6652SOL     OW31174   1.164   6.681   1.478
 6652SOL    HW131175   1.191   6.585   1.470
 6652SOL    HW231176   1.095   6.690   1.550
 6653SOL     OW31177   5.609   0.125   3.698
 6653SOL    HW131178   5.675   0.197   3.720
 6653SOL    HW231179   5.567   0.091   3.782
 6654SOL     OW31180   3.232   7.232   4.990
 6654SOL    HW131181   3.253   7.325   5.021
 6654SOL    HW231182   3.317   7.179   4.987
 6655SOL     OW31183   3.738   2.661   0.537
 6655SOL    HW131184   3.670   2.605   0.584
 6655SOL    HW231185   3.789   2.715   0.605
 6656SOL     OW31186   8.053   3.946   1.681
 6656SOL    HW131187   7.980   3.903   1.735
 6656SOL    HW231188   8.142   3.924   1.722
 6657SOL     OW31189   8.405   9.077   6.209
 6657SOL    HW131190   8.486   9.080   6.268
 6657SOL    HW231191   8.328   9.040   6.260
 6658SOL     OW31192   1.505   2.411   3.830
 6658SOL    HW131193   1.533   2.403   3.926
 6658SOL    HW231194   1.431   2.479   3.823
 6659SOL     OW31195   8.132   4.406   3.157
 6659SOL    HW131196   8.176   4.317   3.161
 6659SOL    HW231197   8.061   4.412   3.227
 6660SOL     OW31198   1.301   8.175   2.859
 6660SOL    HW131199   1.239   8.197   2.783
 6660SOL    HW231200   1.250   8.177   2.945
 6661SOL     OW31201   9.742   2.243   4.572
 6661SOL    HW131202   9.804   2.204   4.504
 6661SOL    HW231203   9.748   2.189   4.656
 6662SOL     OW31204   9.452   1.888   0.181
 6662SOL    HW131205   9.370   1.883   0.124
 6662SOL    HW231206   9.517   1.817   0.153
 6663SOL     OW31207   2.219   3.348   1.492
 6663SOL    HW131208   2.148   3.281   1.515
 6663SOL    HW231209   2.309   3.305   1.500
 6664SOL     OW31210   4.141   3.203   4.125
 6664SOL    HW131211   4.163   3.290   4.081
 6664SOL    HW231212   4.054   3.169   4.089
 6665SOL     OW31213   8.379   0.388   2.959
 6665SOL    HW131214   8.283   0.413   2.954
 6665SOL    HW231215   8.434   0.455   2.909
 6666SOL     OW31216   2.354   4.150   2.179
 6666SOL    HW131217   2.439   4.165   2.230
 6666SOL    HW231218   2.348   4.217   2.104
 6667SOL     OW31219   0.605   2.825   3.686
 6667SOL    HW131220   0.684   2.768   3.709
 6667SOL    HW231221   0.543   2.828   3.765
 6668SOL     OW31222   4.050   3.702   1.191
 6668SOL    HW131223   3.971   3.693   1.252
 6668SOL    HW231224   4.018   3.721   1.098
 6669SOL     OW31225   2.539   2.020   4.284
 6669SOL    HW131226   2.444   2.034   4.257
 6669SOL    HW231227   2.546   2.024   4.384
 6670SOL     OW31228   7.503   2.179   5.111
 6670SOL    HW131229   7.419   2.225   5.139
 6670SOL    HW231230   7.546   2.137   5.190
 6671SOL     OW31231   0.498   0.346   5.963
 6671SOL    HW131232   0.441   0.379   6.038
 6671SOL    HW231233   0.575   0.408   5.949
 6672SOL     OW31234   7.056   0.042   0.778
 6672SOL    HW131235   7.119   0.115   0.804
 6672SOL    HW231236   6.963   0.067   0.805
 6673SOL     OW31237   3.673   6.217   5.006
 6673SOL    HW131238   3.627   6.234   5.093
 6673SOL    HW231239   3.747   6.151   5.020
 6674SOL     OW31240   4.558   6.537   3.249
 6674SOL    HW131241   4.558   6.443   3.215
 6674SOL    HW231242   4.464   6.569   3.260
 6675SOL     OW31243   8.298   2.489   6.176
 6675SOL    HW131244   8.312   2.531   6.087
 6675SOL    HW231245   8.364   2.528   6.241
 6676SOL     OW31246   8.598   8.308   4.415
 6676SOL    HW131247   8.600   8.212   4.389
 6676SOL    HW231248   8.680   8.331   4.466
 6677SOL     OW31249   8.232   9.896   0.646
 6677SOL    HW131250   8.203   9.852   0.731
 6677SOL    HW231251   8.314   9.851   0.611
 6678SOL     OW31252   0.235   9.708   4.847
 6678SOL    HW131253   0.271   9.722   4.755
 6678SOL    HW231254   0.306   9.666   4.904
 6679SOL     OW31255   4.584   0.320   2.420
 6679SOL    HW131256   4.614   0.277   2.335
 6679SOL    HW231257   4.493   0.358   2.408
 6680SOL     OW31258   3.765   5.136   5.957
 6680SOL    HW131259   3.832   5.109   5.888
 6680SOL    HW231260   3.676   5.151   5.914
 6681SOL     OW31261   2.369   1.407   3.321
 6681SOL    HW131262   2.271   1.422   3.338
 6681SOL    HW231263   2.406   1.484   3.269
 6682SOL     OW31264   3.200   8.953   5.326
 6682SOL    HW131265   3.255   8.885   5.279
 6682SOL    HW231266   3.137   8.908   5.390
 6683SOL     OW31267   4.051   3.959   1.954
 6683SOL    HW131268   3.985   4.021   1.996
 6683SOL    HW231269   4.091   3.900   2.024
 6684SOL     OW31270   3.453   0.365   2.446
 6684SOL    HW131271   3.403   0.305   2.509
 6684SOL    HW231272   3.449   0.327   2.354
 6685SOL     OW31273   0.352   4.229   4.438
 6685SOL    HW131274   0.450   4.233   4.417
 6685SOL    HW231275   0.308   4.162   4.379
 6686SOL     OW31276   7.677   4.655   3.527
 6686SOL    HW131277   7.742   4.719   3.568
 6686SOL    HW231278   7.616   4.704   3.464
 6687SOL     OW31279   2.204   8.310   6.122
 6687SOL    HW131280   2.169   8.354   6.039
 6687SOL    HW231281   2.151   8.228   6.141
 6688SOL     OW31282   5.574   9.016   1.999
 6688SOL    HW131283   5.663   9.052   2.025
 6688SOL    HW231284   5.507   9.038   2.070
 6689SOL     OW31285   0.545   6.245   1.803
 6689SOL    HW131286   0.567   6.170   1.742
 6689SOL    HW231287   0.487   6.211   1.878
 6690SOL     OW31288   3.596   4.140   3.385
 6690SOL    HW131289   3.653   4.094   3.452
 6690SOL    HW231290   3.635   4.230   3.363
 6691SOL     OW31291   1.104   7.087   1.540
 6691SOL    HW131292   1.093   7.178   1.580
 6691SOL    HW231293   1.017   7.055   1.505
 6692SOL     OW31294   2.559   1.640   1.765
 6692SOL    HW131295   2.497   1.685   1.829
 6692SOL    HW231296   2.653   1.653   1.795
 6693SOL     OW31297   9.745   3.480   1.129
 6693SOL    HW131298   9.674   3.538   1.168
 6693SOL    HW231299   9.711   3.436   1.046
 6694SOL     OW31300   0.496   2.407   6.148
 6694SOL    HW131301   0.451   2.454   6.225
 6694SOL    HW231302   0.594   2.400   6.166
 6695SOL     OW31303   8.848   4.898   1.928
 6695SOL    HW131304   8.930   4.911   1.872
 6695SOL    HW231305   8.787   4.976   1.916
 6696SOL     OW31306   3.987   6.935   3.216
 6696SOL    HW131307   3.902   6.885   3.207
 6696SOL    HW231308   4.057   6.895   3.156
 6697SOL     OW31309   4.638   5.055   0.252
 6697SOL    HW131310   4.686   5.035   0.337
 6697SOL    HW231311   4.664   4.989   0.182
 6698SOL     OW31312   5.057   2.598   3.406
 6698SOL    HW131313   5.019   2.683   3.444
 6698SOL    HW231314   4.985   2.549   3.356
 6699SOL     OW31315   3.269   4.407   5.908
 6699SOL    HW131316   3.246   4.381   6.002
 6699SOL    HW231317   3.190   4.449   5.865
 6700SOL     OW31318   3.011   8.759   0.710
 6700SOL    HW131319   3.099   8.720   0.682
 6700SOL    HW231320   2.964   8.696   0.771
 6701SOL     OW31321   5.242   4.321   0.337
 6701SOL    HW131322   5.280   4.230   0.356
 6701SOL    HW231323   5.142   4.317   0.344
 6702SOL     OW31324   9.236   4.759   4.319
 6702SOL    HW131325   9.140   4.741   4.295
 6702SOL    HW231326   9.296   4.715   4.252
 6703SOL     OW31327   7.908   7.640   4.101
 6703SOL    HW131328   7.875   7.546   4.106
 6703SOL    HW231329   8.006   7.642   4.123
 6704SOL     OW31330   9.422   3.314   1.351
 6704SOL    HW131331   9.489   3.359   1.410
 6704SOL    HW231332   9.413   3.218   1.378
 6705SOL     OW31333   2.954   2.650   6.423
 6705SOL    HW131334   3.018   2.701   6.481
 6705SOL    HW231335   2.862   2.686   6.434
 6706SOL     OW31336   5.038   5.857   1.367
 6706SOL    HW131337   4.948   5.826   1.338
 6706SOL    HW231338   5.037   5.875   1.465
 6707SOL     OW31339   4.920   3.144   1.678
 6707SOL    HW131340   4.865   3.174   1.756
 6707SOL    HW231341   5.003   3.199   1.672
 6708SOL     OW31342   0.878   5.726   3.414
 6708SOL    HW131343   0.867   5.674   3.498
 6708SOL    HW231344   0.953   5.688   3.360
 6709SOL     OW31345   4.952   3.238   5.571
 6709SOL    HW131346   4.943   3.138   5.564
 6709SOL    HW231347   5.005   3.261   5.652
 6710SOL     OW31348   1.726   5.888   1.594
 6710SOL    HW131349   1.717   5.920   1.500
 6710SOL    HW231350   1.655   5.820   1.613
 6711SOL     OW31351   1.463   1.476   2.394
 6711SOL    HW131352   1.542   1.505   2.339
 6711SOL    HW231353   1.452   1.538   2.472
 6712SOL     OW31354   3.424   2.665   4.572
 6712SOL    HW131355   3.329   2.647   4.598
 6712SOL    HW231356   3.481   2.664   4.654
 6713SOL     OW31357   4.818   3.958   0.217
 6713SOL    HW131358   4.902   4.008   0.193
 6713SOL    HW231359   4.741   4.022   0.219
 6714SOL     OW31360   8.910   6.254   0.162
 6714SOL    HW131361   8.858   6.333   0.129
 6714SOL    HW231362   8.847   6.188   0.204
 6715SOL     OW31363   9.902   4.956   5.381
 6715SOL    HW131364   9.998   4.959   5.407
 6715SOL    HW231365   9.846   4.998   5.453
 6716SOL     OW31366   0.212   3.402   0.960
 6716SOL    HW131367   0.230   3.471   0.890
 6716SOL    HW231368   0.298   3.371   1.000
 6717SOL     OW31369   3.460   7.614   1.479
 6717SOL    HW131370   3.485   7.608   1.576
 6717SOL    HW231371   3.427   7.525   1.447
 6718SOL     OW31372   0.541   2.302   1.461
 6718SOL    HW131373   0.535   2.326   1.363
 6718SOL    HW231374   0.623   2.344   1.500
 6719SOL     OW31375   2.409   1.305   1.045
 6719SOL    HW131376   2.468   1.337   1.120
 6719SOL    HW231377   2.423   1.364   0.965
 6720SOL     OW31378   4.373   4.478   2.092
 6720SOL    HW131379   4.320   4.395   2.076
 6720SOL    HW231380   4.354   4.512   2.184
 6721SOL     OW31381   4.323   3.101   5.322
 6721SOL    HW131382   4.335   3.003   5.311
 6721SOL    HW231383   4.345   3.147   5.236
 6722SOL     OW31384   3.230   3.702   2.874
 6722SOL    HW131385   3.144   3.738   2.837
 6722SOL    HW231386   3.288   3.778   2.903
 6723SOL     OW31387   4.529   0.836   6.345
 6723SOL    HW131388   4.510   0.901   6.271
 6723SOL    HW231389   4.443   0.812   6.391
 6724SOL     OW31390   2.520   0.461   3.798
 6724SOL    HW131391   2.605   0.430   3.755
 6724SOL    HW231392   2.444   0.449   3.733
 6725SOL     OW31393   9.124   4.128   3.492
 6725SOL    HW131394   9.197   4.169   3.547
 6725SOL    HW231395   9.056   4.197   3.470
 6726SOL     OW31396   2.400   4.423   5.204
 6726SOL    HW131397   2.419   4.432   5.106
 6726SOL    HW231398   2.417   4.511   5.249
 6727SOL     OW31399   3.046   2.635   0.792
 6727SOL    HW131400   3.033   2.596   0.883
 6727SOL    HW231401   3.095   2.721   0.799
 6728SOL     OW31402   0.089   5.754   1.697
 6728SOL    HW131403   0.069   5.666   1.741
 6728SOL    HW231404   0.091   5.826   1.766
 6729SOL     OW31405   9.487   9.796   2.920
 6729SOL    HW131406   9.428   9.877   2.910
 6729SOL    HW231407   9.484   9.743   2.835
 6730SOL     OW31408   3.925   2.247   2.374
 6730SOL    HW131409   3.894   2.325   2.430
 6730SOL    HW231410   3.847   2.209   2.324
 6731SOL     OW31411   2.699   6.157   5.086
 6731SOL    HW131412   2.622   6.125   5.141
 6731SOL    HW231413   2.778   6.171   5.145
 6732SOL     OW31414   0.317   5.425   5.337
 6732SOL    HW131415   0.381   5.350   5.315
 6732SOL    HW231416   0.354   5.479   5.412
 6733SOL     OW31417   3.712   3.605   2.780
 6733SOL    HW131418   3.649   3.529   2.797
 6733SOL    HW231419   3.679   3.686   2.828
 6734SOL     OW31420   0.339   7.901   5.773
 6734SOL    HW131421   0.275   7.903   5.850
 6734SOL    HW231422   0.292   7.933   5.691
 6735SOL     OW31423   4.011   0.195   4.269
 6735SOL    HW131424   3.919   0.165   4.244
 6735SOL    HW231425   4.068   0.115   4.285
 6736SOL     OW31426   5.751   2.103   0.047
 6736SOL    HW131427   5.819   2.032   0.066
 6736SOL    HW231428   5.701   2.080   8.152
 6737SOL     OW31429   9.692   8.459   5.477
 6737SOL    HW131430   9.593   8.469   5.488
 6737SOL    HW231431   9.734   8.550   5.471
 6738SOL     OW31432   0.774   2.889   4.932
 6738SOL    HW131433   0.780   2.834   4.850
 6738SOL    HW231434   0.753   2.984   4.907
 6739SOL     OW31435   5.307   9.495   2.201
 6739SOL    HW131436   5.396   9.509   2.157
 6739SOL    HW231437   5.238   9.481   2.130
 6740SOL     OW31438   2.569   5.396   5.387
 6740SOL    HW131439   2.568   5.470   5.455
 6740SOL    HW231440   2.536   5.432   5.300
 6741SOL     OW31441   2.645   4.266   1.550
 6741SOL    HW131442   2.713   4.320   1.600
 6741SOL    HW231443   2.646   4.172   1.584
 6742SOL     OW31444   8.155   1.998   1.190
 6742SOL    HW131445   8.184   1.911   1.229
 6742SOL    HW231446   8.216   2.023   1.115
 6743SOL     OW31447   1.067   1.979   2.599
 6743SOL    HW131448   1.044   1.903   2.538
 6743SOL    HW231449   1.160   1.968   2.634
 6744SOL     OW31450   4.196   8.771   4.251
 6744SOL    HW131451   4.134   8.850   4.258
 6744SOL    HW231452   4.286   8.796   4.288
 6745SOL     OW31453   9.027   4.182   5.047
 6745SOL    HW131454   9.118   4.140   5.042
 6745SOL    HW231455   8.977   4.144   5.125
 6746SOL     OW31456   8.788   0.543   2.537
 6746SOL    HW131457   8.862   0.588   2.587
 6746SOL    HW231458   8.736   0.610   2.486
 6747SOL     OW31459   5.833   9.396   6.030
 6747SOL    HW131460   5.826   9.352   5.940
 6747SOL    HW231461   5.922   9.377   6.070
 6748SOL     OW31462   6.432   3.793   0.552
 6748SOL    HW131463   6.461   3.847   0.632
 6748SOL    HW231464   6.454   3.697   0.568
 6749SOL     OW31465   8.644   1.887   4.812
 6749SOL    HW131466   8.680   1.865   4.721
 6749SOL    HW231467   8.575   1.820   4.838
 6750SOL     OW31468   4.724   3.173   3.724
 6750SOL    HW131469   4.687   3.146   3.812
 6750SOL    HW231470   4.684   3.260   3.695
 6751SOL     OW31471   9.839   4.444   2.516
 6751SOL    HW131472   9.897   4.446   2.435
 6751SOL    HW231473   9.791   4.531   2.525
 6752SOL     OW31474   9.343   0.510   3.705
 6752SOL    HW131475   9.322   0.475   3.614
 6752SOL    HW231476   9.397   0.442   3.756
 6753SOL     OW31477   3.665   0.614   4.682
 6753SOL    HW131478   3.613   0.676   4.741
 6753SOL    HW231479   3.758   0.648   4.670
 6754SOL     OW31480   9.016   5.639   0.535
 6754SOL    HW131481   8.929   5.687   0.539
 6754SOL    HW231482   9.032   5.589   0.620
 6755SOL     OW31483   2.869   3.531   0.214
 6755SOL    HW131484   2.889   3.618   0.171
 6755SOL    HW231485   2.813   3.476   0.152
 6756SOL     OW31486   2.795   4.672   0.091
 6756SOL    HW131487   2.703   4.691   0.055
 6756SOL    HW231488   2.833   4.755   0.131
 6757SOL     OW31489   0.363   3.770   6.194
 6757SOL    HW131490   0.287   3.714   6.161
 6757SOL    HW231491   0.329   3.861   6.218
 6758SOL     OW31492   8.738   7.425   5.139
 6758SOL    HW131493   8.687   7.497   5.092
 6758SOL    HW231494   8.828   7.460   5.166
 6759SOL     OW31495   8.678   7.062   4.129
 6759SOL    HW131496   8.647   7.117   4.051
 6759SOL    HW231497   8.653   6.967   4.115
 6760SOL     OW31498   6.166   9.971   1.914
 6760SOL    HW131499   6.094   9.906   1.939
 6760SOL    HW231500   6.124   0.055   1.880
 6761SOL     OW31501   2.898   3.858   4.362
 6761SOL    HW131502   2.996   3.874   4.352
 6761SOL    HW231503   2.848   3.915   4.297
 6762SOL     OW31504   5.888   8.644   3.054
 6762SOL    HW131505   5.953   8.704   3.102
 6762SOL    HW231506   5.827   8.700   2.998
 6763SOL     OW31507   2.485   9.145   2.842
 6763SOL    HW131508   2.506   9.240   2.817
 6763SOL    HW231509   2.416   9.144   2.914
 6764SOL     OW31510   6.653   0.824   0.170
 6764SOL    HW131511   6.566   0.872   0.185
 6764SOL    HW231512   6.689   0.791   0.257
 6765SOL     OW31513   7.667   9.930   5.426
 6765SOL    HW131514   7.728   0.004   5.396
 6765SOL    HW231515   7.722   9.851   5.452
 6766SOL     OW31516   9.439   7.884   0.595
 6766SOL    HW131517   9.527   7.838   0.598
 6766SOL    HW231518   9.420   7.915   0.502
 6767SOL     OW31519   8.236   9.660   3.347
 6767SOL    HW131520   8.253   9.601   3.425
 6767SOL    HW231521   8.158   9.720   3.368
 6768SOL     OW31522   8.094   2.375   0.929
 6768SOL    HW131523   8.172   2.419   0.883
 6768SOL    HW231524   8.077   2.286   0.886
 6769SOL     OW31525   2.563   6.455   1.278
 6769SOL    HW131526   2.496   6.436   1.206
 6769SOL    HW231527   2.655   6.437   1.243
 6770SOL     OW31528   8.851   2.147   5.125
 6770SOL    HW131529   8.925   2.142   5.193
 6770SOL    HW231530   8.783   2.077   5.145
 6771SOL     OW31531   1.283   1.341   3.100
 6771SOL    HW131532   1.243   1.309   3.186
 6771SOL    HW231533   1.231   1.419   3.066
 6772SOL     OW31534   5.227   0.756   6.332
 6772SOL    HW131535   5.219   0.854   6.314
 6772SOL    HW231536   5.317   0.737   6.372
 6773SOL     OW31537   5.281   1.671   4.058
 6773SOL    HW131538   5.314   1.738   3.991
 6773SOL    HW231539   5.332   1.586   4.048
 6774SOL     OW31540   0.296   0.729   1.484
 6774SOL    HW131541   0.376   0.788   1.477
 6774SOL    HW231542   0.263   0.705   1.393
 6775SOL     OW31543   3.807   1.788   5.059
 6775SOL    HW131544   3.905   1.783   5.041
 6775SOL    HW231545   3.769   1.869   5.014
 6776SOL     OW31546   1.229   7.515   5.747
 6776SOL    HW131547   1.134   7.507   5.718
 6776SOL    HW231548   1.268   7.424   5.760
 6777SOL     OW31549   0.160   4.880   4.239
 6777SOL    HW131550   0.135   4.977   4.242
 6777SOL    HW231551   0.087   4.825   4.280
 6778SOL     OW31552   6.904   0.318   1.417
 6778SOL    HW131553   6.911   0.284   1.324
 6778SOL    HW231554   6.812   0.299   1.453
 6779SOL     OW31555   2.201   2.236   4.438
 6779SOL    HW131556   2.230   2.163   4.500
 6779SOL    HW231557   2.238   2.324   4.470
 6780SOL     OW31558   2.390   2.725   2.049
 6780SOL    HW131559   2.313   2.733   2.113
 6780SOL    HW231560   2.452   2.802   2.061
 6781SOL     OW31561   0.330   8.523   4.609
 6781SOL    HW131562   0.383   8.605   4.633
 6781SOL    HW231563   0.340   8.505   4.511
 6782SOL     OW31564   1.204   7.535   1.361
 6782SOL    HW131565   1.123   7.480   1.384
 6782SOL    HW231566   1.211   7.542   1.261
 6783SOL     OW31567   2.797   9.607   0.168
 6783SOL    HW131568   2.716   9.603   0.111
 6783SOL    HW231569   2.812   9.518   0.211
 6784SOL     OW31570   0.001   9.591   4.021
 6784SOL    HW131571   9.956   9.643   3.947
 6784SOL    HW231572   0.061   9.522   3.981
 6785SOL     OW31573   2.633   3.316   5.182
 6785SOL    HW131574   2.678   3.372   5.112
 6785SOL    HW231575   2.593   3.375   5.252
 6786SOL     OW31576   4.333   2.672   3.026
 6786SOL    HW131577   4.321   2.680   3.125
 6786SOL    HW231578   4.301   2.756   2.981
 6787SOL     OW31579   0.236   8.335   2.066
 6787SOL    HW131580   0.279   8.263   2.121
 6787SOL    HW231581   0.205   8.296   1.979
 6788SOL     OW31582   1.522   2.126   2.630
 6788SOL    HW131583   1.591   2.130   2.702
 6788SOL    HW231584   1.480   2.217   2.619
 6789SOL     OW31585   1.643   4.720   4.137
 6789SOL    HW131586   1.721   4.704   4.198
 6789SOL    HW231587   1.560   4.731   4.192
 6790SOL     OW31588   8.905   8.167   0.158
 6790SOL    HW131589   8.819   8.128   0.123
 6790SOL    HW231590   8.971   8.093   0.172
 6791SOL     OW31591   3.567   6.237   6.236
 6791SOL    HW131592   3.554   6.141   6.260
 6791SOL    HW231593   3.478   6.281   6.225
 6792SOL     OW31594   3.361   1.484   2.840
 6792SOL    HW131595   3.421   1.452   2.767
 6792SOL    HW231596   3.348   1.582   2.832
 6793SOL     OW31597   8.814   0.329   2.377
 6793SOL    HW131598   8.736   0.271   2.399
 6793SOL    HW231599   8.815   0.409   2.438
 6794SOL     OW31600   0.422   1.783   5.064
 6794SOL    HW131601   0.340   1.784   5.121
 6794SOL    HW231602   0.455   1.876   5.052
 6795SOL     OW31603   1.168   9.165   3.163
 6795SOL    HW131604   1.174   9.065   3.158
 6795SOL    HW231605   1.106   9.191   3.237
 6796SOL     OW31606   5.375   9.732   6.056
 6796SOL    HW131607   5.356   9.715   6.152
 6796SOL    HW231608   5.315   9.804   6.021
 6797SOL     OW31609   8.010   3.770   0.645
 6797SOL    HW131610   7.923   3.727   0.620
 6797SOL    HW231611   8.018   3.858   0.598
 6798SOL     OW31612   2.677   3.338   2.451
 6798SOL    HW131613   2.597   3.316   2.397
 6798SOL    HW231614   2.694   3.265   2.517
 6799SOL     OW31615   1.975   0.063   6.200
 6799SOL    HW131616   1.917   0.027   6.127
 6799SOL    HW231617   2.062   0.093   6.161
 6800SOL     OW31618   7.767   4.244   2.593
 6800SOL    HW131619   7.860   4.280   2.607
 6800SOL    HW231620   7.751   4.231   2.495
 6801SOL     OW31621   3.734   0.270   1.569
 6801SOL    HW131622   3.659   0.323   1.530
 6801SOL    HW231623   3.730   0.176   1.535
 6802SOL     OW31624   3.891   1.311   0.693
 6802SOL    HW131625   3.827   1.384   0.716
 6802SOL    HW231626   3.854   1.255   0.619
 6803SOL     OW31627   4.013   5.795   3.282
 6803SOL    HW131628   4.079   5.793   3.357
 6803SOL    HW231629   3.924   5.762   3.315
 6804SOL     OW31630   7.350   3.178   0.776
 6804SOL    HW131631   7.325   3.084   0.752
 6804SOL    HW231632   7.402   3.178   0.861
 6805SOL     OW31633   9.428   8.434   2.507
 6805SOL    HW131634   9.433   8.386   2.419
 6805SOL    HW231635   9.512   8.417   2.559
 6806SOL     OW31636   1.802   0.340   1.987
 6806SOL    HW131637   1.810   0.434   1.956
 6806SOL    HW231638   1.724   0.332   2.049
 6807SOL     OW31639   3.672   2.411   0.107
 6807SOL    HW131640   3.718   2.469   0.174
 6807SOL    HW231641   3.645   2.325   0.151
 6808SOL     OW31642   1.504   6.545   3.222
 6808SOL    HW131643   1.518   6.592   3.134
 6808SOL    HW231644   1.554   6.459   3.222
 6809SOL     OW31645   8.140   3.627   0.440
 6809SOL    HW131646   8.063   3.587   0.390
 6809SOL    HW231647   8.106   3.694   0.506
 6810SOL     OW31648   6.086   9.279   5.170
 6810SOL    HW131649   6.033   9.258   5.252
 6810SOL    HW231650   6.116   9.375   5.174
 6811SOL     OW31651   3.680   3.124   5.213
 6811SOL    HW131652   3.666   3.199   5.148
 6811SOL    HW231653   3.662   3.037   5.167
 6812SOL     OW31654   8.378   8.129   4.221
 6812SOL    HW131655   8.414   8.179   4.143
 6812SOL    HW231656   8.453   8.093   4.276
 6813SOL     OW31657   4.338   5.518   1.614
 6813SOL    HW131658   4.412   5.541   1.678
 6813SOL    HW231659   4.315   5.598   1.559
 6814SOL     OW31660   9.731   2.167   4.098
 6814SOL    HW131661   9.642   2.121   4.097
 6814SOL    HW231662   9.803   2.100   4.116
 6815SOL     OW31663   7.095   0.555   0.132
 6815SOL    HW131664   7.011   0.504   0.144
 6815SOL    HW231665   7.133   0.578   0.221
 6816SOL     OW31666   7.889   5.778   1.193
 6816SOL    HW131667   7.909   5.852   1.257
 6816SOL    HW231668   7.919   5.804   1.101
 6817SOL     OW31669   1.319   6.916   4.849
 6817SOL    HW131670   1.264   6.995   4.876
 6817SOL    HW231671   1.260   6.844   4.813
 6818SOL     OW31672   8.532   5.642   2.665
 6818SOL    HW131673   8.505   5.559   2.617
 6818SOL    HW231674   8.591   5.618   2.742
 6819SOL     OW31675   0.949   9.009   1.054
 6819SOL    HW131676   0.927   9.102   1.026
 6819SOL    HW231677   1.042   8.986   1.027
 6820SOL     OW31678   9.215   1.199   3.631
 6820SOL    HW131679   9.134   1.233   3.583
 6820SOL    HW231680   9.194   1.192   3.729
 6821SOL     OW31681   4.468   9.593   4.110
 6821SOL    HW131682   4.535   9.667   4.113
 6821SOL    HW231683   4.469   9.552   4.018
 6822SOL     OW31684   9.959   5.539   2.797
 6822SOL    HW131685   9.882   5.484   2.829
 6822SOL    HW231686   0.045   5.501   2.832
 6823SOL     OW31687   1.888   7.979   5.293
 6823SOL    HW131688   1.916   7.884   5.277
 6823SOL    HW231689   1.806   7.980   5.351
 6824SOL     OW31690   1.085   5.640   3.258
 6824SOL    HW131691   1.103   5.715   3.194
 6824SOL    HW231692   1.167   5.584   3.267
 6825SOL     OW31693   7.416   3.906   2.231
 6825SOL    HW131694   7.453   3.838   2.296
 6825SOL    HW231695   7.491   3.963   2.197
 6826SOL     OW31696   0.005   4.146   1.256
 6826SOL    HW131697   0.078   4.079   1.247
 6826SOL    HW231698   0.003   4.182   1.349
 6827SOL     OW31699   9.385   8.128   3.831
 6827SOL    HW131700   9.455   8.108   3.899
 6827SOL    HW231701   9.353   8.222   3.843
 6828SOL     OW31702   8.237   2.438   3.475
 6828SOL    HW131703   8.298   2.395   3.542
 6828SOL    HW231704   8.282   2.439   3.385
 6829SOL     OW31705   0.328   9.241   1.288
 6829SOL    HW131706   0.380   9.321   1.258
 6829SOL    HW231707   0.313   9.246   1.387
 6830SOL     OW31708   2.867   8.638   5.837
 6830SOL    HW131709   2.962   8.646   5.809
 6830SOL    HW231710   2.853   8.686   5.924
 6831SOL     OW31711   4.437   1.838   3.285
 6831SOL    HW131712   4.481   1.898   3.352
 6831SOL    HW231713   4.412   1.891   3.204
 6832SOL     OW31714   9.230   7.101   2.889
 6832SOL    HW131715   9.249   7.190   2.931
 6832SOL    HW231716   9.243   7.107   2.790
 6833SOL     OW31717   4.030   0.396   6.262
 6833SOL    HW131718   4.048   0.452   6.181
 6833SOL    HW231719   4.090   0.425   6.336
 6834SOL     OW31720   6.938   7.186   5.161
 6834SOL    HW131721   7.002   7.234   5.221
 6834SOL    HW231722   6.907   7.102   5.206
 6835SOL     OW31723   9.735   3.777   4.426
 6835SOL    HW131724   9.670   3.709   4.391
 6835SOL    HW231725   9.779   3.824   4.349
 6836SOL     OW31726   3.326   8.395   0.227
 6836SOL    HW131727   3.348   8.306   0.268
 6836SOL    HW231728   3.410   8.441   0.199
 6837SOL     OW31729   9.054   6.392   0.356
 6837SOL    HW131730   8.986   6.342   0.301
 6837SOL    HW231731   9.134   6.334   0.370
 6838SOL     OW31732   8.210   6.716   3.858
 6838SOL    HW131733   8.121   6.762   3.858
 6838SOL    HW231734   8.234   6.689   3.951
 6839SOL     OW31735   4.722   3.472   1.812
 6839SOL    HW131736   4.742   3.377   1.836
 6839SOL    HW231737   4.684   3.519   1.892
 6840SOL     OW31738   3.375   2.359   3.024
 6840SOL    HW131739   3.335   2.405   2.944
 6840SOL    HW231740   3.469   2.332   3.002
 6841SOL     OW31741   8.147   9.081   2.738
 6841SOL    HW131742   8.148   8.993   2.689
 6841SOL    HW231743   8.217   9.141   2.700
 6842SOL     OW31744   9.832   4.481   1.815
 6842SOL    HW131745   9.805   4.431   1.734
 6842SOL    HW231746   9.832   4.579   1.796
 6843SOL     OW31747   8.560   1.566   5.277
 6843SOL    HW131748   8.467   1.545   5.306
 6843SOL    HW231749   8.622   1.558   5.355
 6844SOL     OW31750   3.830   9.546   0.309
 6844SOL    HW131751   3.813   9.511   0.217
 6844SOL    HW231752   3.750   9.597   0.340
 6845SOL     OW31753   0.255   8.329   1.584
 6845SOL    HW131754   0.207   8.374   1.509
 6845SOL    HW231755   0.318   8.261   1.548
 6846SOL     OW31756   7.761   5.288   1.856
 6846SOL    HW131757   7.858   5.278   1.835
 6846SOL    HW231758   7.730   5.379   1.829
 6847SOL     OW31759   8.061   5.640   2.477
 6847SOL    HW131760   8.070   5.689   2.391
 6847SOL    HW231761   8.045   5.706   2.551
 6848SOL     OW31762   3.018   2.773   5.468
 6848SOL    HW131763   3.095   2.836   5.459
 6848SOL    HW231764   2.975   2.760   5.379
 6849SOL     OW31765   7.745   4.238   0.275
 6849SOL    HW131766   7.711   4.188   0.354
 6849SOL    HW231767   7.842   4.219   0.262
 6850SOL     OW31768   4.010   5.099   3.410
 6850SOL    HW131769   4.010   5.198   3.398
 6850SOL    HW231770   3.948   5.057   3.344
 6851SOL     OW31771   1.094   0.261   4.382
 6851SOL    HW131772   1.184   0.224   4.406
 6851SOL    HW231773   1.106   0.347   4.332
 6852SOL     OW31774   2.803   3.140   4.436
 6852SOL    HW131775   2.709   3.164   4.409
 6852SOL    HW231776   2.847   3.221   4.475
 6853SOL     OW31777   3.378   0.096   5.423
 6853SOL    HW131778   3.316   0.104   5.345
 6853SOL    HW231779   3.414   0.187   5.446
 6854SOL     OW31780   6.322   0.600   5.841
 6854SOL    HW131781   6.240   0.593   5.898
 6854SOL    HW231782   6.300   0.569   5.748
 6855SOL     OW31783   9.672   1.010   5.405
 6855SOL    HW131784   9.673   0.911   5.419
 6855SOL    HW231785   9.589   1.048   5.446
 6856SOL     OW31786   1.898   9.582   1.780
 6856SOL    HW131787   1.881   9.648   1.706
 6856SOL    HW231788   1.881   9.626   1.868
 6857SOL     OW31789   9.178   8.888   5.943
 6857SOL    HW131790   9.121   8.959   5.984
 6857SOL    HW231791   9.185   8.903   5.844
 6858SOL     OW31792   8.744   0.625   3.285
 6858SOL    HW131793   8.679   0.684   3.333
 6858SOL    HW231794   8.751   0.654   3.190
 6859SOL     OW31795   1.129   9.608   5.133
 6859SOL    HW131796   1.216   9.655   5.141
 6859SOL    HW231797   1.084   9.633   5.047
 6860SOL     OW31798   9.332   3.992   4.773
 6860SOL    HW131799   9.348   3.903   4.731
 6860SOL    HW231800   9.316   4.060   4.701
 6861SOL     OW31801   7.569   1.240   3.719
 6861SOL    HW131802   7.610   1.193   3.797
 6861SOL    HW231803   7.490   1.188   3.687
 6862SOL     OW31804   8.770   7.772   1.330
 6862SOL    HW131805   8.701   7.745   1.262
 6862SOL    HW231806   8.799   7.866   1.312
 6863SOL     OW31807   4.614   4.691   5.708
 6863SOL    HW131808   4.642   4.608   5.757
 6863SOL    HW231809   4.654   4.691   5.617
 6864SOL     OW31810   0.316   9.398   2.244
 6864SOL    HW131811   0.338   9.345   2.162
 6864SOL    HW231812   0.243   9.463   2.223
 6865SOL     OW31813   5.349   8.792   3.157
 6865SOL    HW131814   5.282   8.717   3.160
 6865SOL    HW231815   5.426   8.765   3.098
 6866SOL     OW31816   9.584   2.257   2.849
 6866SOL    HW131817   9.649   2.333   2.856
 6866SOL    HW231818   9.586   2.203   2.933
 6867SOL     OW31819   2.916   6.464   5.351
 6867SOL    HW131820   2.916   6.529   5.275
 6867SOL    HW231821   2.994   6.484   5.411
 6868SOL     OW31822   3.481   1.661   0.999
 6868SOL    HW131823   3.474   1.759   1.020
 6868SOL    HW231824   3.577   1.633   1.005
 6869SOL     OW31825   4.543   3.845   0.131
 6869SOL    HW131826   4.633   3.801   0.129
 6869SOL    HW231827   4.472   3.776   0.119
 6870SOL     OW31828   0.775   2.924   4.366
 6870SOL    HW131829   0.720   2.968   4.438
 6870SOL    HW231830   0.748   2.829   4.357
 6871SOL     OW31831   3.076   5.107   0.809
 6871SOL    HW131832   3.115   5.158   0.732
 6871SOL    HW231833   2.976   5.116   0.808
 6872SOL     OW31834   6.328   7.203   5.129
 6872SOL    HW131835   6.395   7.273   5.104
 6872SOL    HW231836   6.290   7.225   5.219
 6873SOL     OW31837   4.185   3.263   0.854
 6873SOL    HW131838   4.095   3.236   0.818
 6873SOL    HW231839   4.180   3.269   0.954
 6874SOL     OW31840   0.044   1.231   0.419
 6874SOL    HW131841   0.143   1.232   0.402
 6874SOL    HW231842   0.028   1.232   0.518
 6875SOL     OW31843   0.721   5.120   6.266
 6875SOL    HW131844   0.810   5.119   6.312
 6875SOL    HW231845   0.727   5.177   6.184
 6876SOL     OW31846   1.594   4.528   5.944
 6876SOL    HW131847   1.616   4.606   5.886
 6876SOL    HW231848   1.642   4.537   6.032
 6877SOL     OW31849   2.779   8.223   5.779
 6877SOL    HW131850   2.720   8.281   5.723
 6877SOL    HW231851   2.728   8.190   5.858
 6878SOL     OW31852   1.226   3.410   5.410
 6878SOL    HW131853   1.204   3.449   5.500
 6878SOL    HW231854   1.301   3.345   5.420
 6879SOL     OW31855   4.188   9.124   3.850
 6879SOL    HW131856   4.244   9.143   3.770
 6879SOL    HW231857   4.164   9.210   3.895
 6880SOL     OW31858   3.019   4.230   5.763
 6880SOL    HW131859   2.963   4.230   5.681
 6880SOL    HW231860   3.014   4.320   5.807
 6881SOL     OW31861   3.352   9.674   1.008
 6881SOL    HW131862   3.383   9.761   0.970
 6881SOL    HW231863   3.430   9.614   1.023
 6882SOL     OW31864   6.908   1.007   3.404
 6882SOL    HW131865   6.855   1.058   3.471
 6882SOL    HW231866   7.004   1.032   3.411
 6883SOL     OW31867   1.681   8.229   5.461
 6883SOL    HW131868   1.767   8.281   5.463
 6883SOL    HW231869   1.622   8.261   5.535
 6884SOL     OW31870   0.784   4.717   4.682
 6884SOL    HW131871   0.867   4.752   4.724
 6884SOL    HW231872   0.757   4.631   4.726
 6885SOL     OW31873   2.272   5.215   4.264
 6885SOL    HW131874   2.285   5.311   4.289
 6885SOL    HW231875   2.293   5.157   4.342
 6886SOL     OW31876   1.259   2.344   3.529
 6886SOL    HW131877   1.187   2.390   3.579
 6886SOL    HW231878   1.325   2.412   3.495
 6887SOL     OW31879   4.616   3.563   2.052
 6887SOL    HW131880   4.654   3.616   2.128
 6887SOL    HW231881   4.538   3.509   2.086
 6888SOL     OW31882   2.038   4.911   6.275
 6888SOL    HW131883   2.060   4.837   6.211
 6888SOL    HW231884   2.101   4.987   6.261
 6889SOL     OW31885   8.223   3.994   5.351
 6889SOL    HW131886   8.312   4.037   5.334
 6889SOL    HW231887   8.215   3.973   5.448
 6890SOL     OW31888   8.579   4.795   4.242
 6890SOL    HW131889   8.501   4.847   4.206
 6890SOL    HW231890   8.548   4.732   4.313
 6891SOL     OW31891   6.356   8.037   5.234
 6891SOL    HW131892   6.396   8.006   5.149
 6891SOL    HW231893   6.309   7.961   5.279
 6892SOL     OW31894   5.052   7.492   4.728
 6892SOL    HW131895   4.953   7.479   4.738
 6892SOL    HW231896   5.099   7.446   4.804
 6893SOL     OW31897   7.678   1.099   3.934
 6893SOL    HW131898   7.642   1.012   3.966
 6893SOL    HW231899   7.775   1.089   3.911
 6894SOL     OW31900   3.385   4.945   4.394
 6894SOL    HW131901   3.372   5.044   4.401
 6894SOL    HW231902   3.364   4.915   4.301
 6895SOL     OW31903   2.211   5.116   6.191
 6895SOL    HW131904   2.267   5.061   6.129
 6895SOL    HW231905   2.264   5.195   6.223
 6896SOL     OW31906   3.662   0.641   6.380
 6896SOL    HW131907   3.703   0.626   6.290
 6896SOL    HW231908   3.717   0.595   6.450
 6897SOL     OW31909   7.927   0.490   6.103
 6897SOL    HW131910   7.843   0.537   6.128
 6897SOL    HW231911   8.005   0.549   6.121
 6898SOL     OW31912   9.199   5.987   0.891
 6898SOL    HW131913   9.264   5.985   0.816
 6898SOL    HW231914   9.179   6.081   0.916
 6899SOL     OW31915   4.239   0.883   4.146
 6899SOL    HW131916   4.178   0.959   4.128
 6899SOL    HW231917   4.249   0.871   4.245
 6900SOL     OW31918   3.612   7.960   0.879
 6900SOL    HW131919   3.652   8.052   0.872
 6900SOL    HW231920   3.582   7.944   0.973
 6901SOL     OW31921   9.866   1.169   3.232
 6901SOL    HW131922   9.874   1.240   3.302
 6901SOL    HW231923   9.925   1.092   3.255
 6902SOL     OW31924   3.038   1.587   0.589
 6902SOL    HW131925   3.104   1.521   0.552
 6902SOL    HW231926   3.053   1.598   0.687
 6903SOL     OW31927   5.142   9.734   4.712
 6903SOL    HW131928   5.141   9.795   4.791
 6903SOL    HW231929   5.198   9.775   4.640
 6904SOL     OW31930   3.142   9.928   0.428
 6904SOL    HW131931   3.169   9.984   0.350
 6904SOL    HW231932   3.074   9.861   0.399
 6905SOL     OW31933   2.432   2.297   5.121
 6905SOL    HW131934   2.349   2.344   5.089
 6905SOL    HW231935   2.414   2.199   5.129
 6906SOL     OW31936   0.412   9.921   2.574
 6906SOL    HW131937   0.358   9.841   2.599
 6906SOL    HW231938   0.495   9.924   2.629
 6907SOL     OW31939   1.559   2.614   1.589
 6907SOL    HW131940   1.605   2.575   1.509
 6907SOL    HW231941   1.570   2.551   1.667
 6908SOL     OW31942   5.753   0.577   5.375
 6908SOL    HW131943   5.846   0.543   5.363
 6908SOL    HW231944   5.756   0.675   5.397
 6909SOL     OW31945   4.251   0.569   4.698
 6909SOL    HW131946   4.317   0.643   4.690
 6909SOL    HW231947   4.159   0.606   4.686
 6910SOL     OW31948   4.614   1.338   0.332
 6910SOL    HW131949   4.642   1.302   0.421
 6910SOL    HW231950   4.663   1.424   0.315
 6911SOL     OW31951   1.616   0.781   3.151
 6911SOL    HW131952   1.686   0.714   3.125
 6911SOL    HW231953   1.564   0.747   3.229
 6912SOL     OW31954   1.466   9.497   4.574
 6912SOL    HW131955   1.468   9.571   4.640
 6912SOL    HW231956   1.507   9.528   4.488
 6913SOL     OW31957   2.781   0.090   4.578
 6913SOL    HW131958   2.749   0.130   4.492
 6913SOL    HW231959   2.763   0.153   4.654
 6914SOL     OW31960   0.652   8.970   5.369
 6914SOL    HW131961   0.649   8.890   5.308
 6914SOL    HW231962   0.605   8.948   5.455
 6915SOL     OW31963   0.444   7.373   5.150
 6915SOL    HW131964   0.530   7.356   5.199
 6915SOL    HW231965   0.443   7.467   5.116
 6916SOL     OW31966   1.993   7.647   6.272
 6916SOL    HW131967   2.090   7.631   6.289
 6916SOL    HW231968   1.963   7.594   6.193
 6917SOL     OW31969   9.342   0.056   5.644
 6917SOL    HW131970   9.290   0.022   5.566
 6917SOL    HW231971   9.284   0.054   5.726
 6918SOL     OW31972   4.624   8.747   1.588
 6918SOL    HW131973   4.570   8.663   1.583
 6918SOL    HW231974   4.715   8.732   1.550
 6919SOL     OW31975   9.342   7.032   4.041
 6919SOL    HW131976   9.354   6.984   3.954
 6919SOL    HW231977   9.371   7.127   4.032
 6920SOL     OW31978   4.578   2.827   4.231
 6920SOL    HW131979   4.536   2.773   4.303
 6920SOL    HW231980   4.601   2.918   4.266
 6921SOL     OW31981   6.028   0.312   1.097
 6921SOL    HW131982   6.090   0.300   1.019
 6921SOL    HW231983   6.067   0.380   1.160
 6922SOL     OW31984   3.552   7.020   1.770
 6922SOL    HW131985   3.609   6.939   1.780
 6922SOL    HW231986   3.578   7.088   1.839
 6923SOL     OW31987   4.311   3.442   4.453
 6923SOL    HW131988   4.248   3.414   4.525
 6923SOL    HW231989   4.290   3.536   4.426
 6924SOL     OW31990   0.098   9.015   0.462
 6924SOL    HW131991   0.148   8.944   0.412
 6924SOL    HW231992   0.111   9.001   0.560
 6925SOL     OW31993   9.947   4.483   0.458
 6925SOL    HW131994   9.866   4.521   0.503
 6925SOL    HW231995   9.927   4.391   0.426
 6926SOL     OW31996   4.528   5.589   0.757
 6926SOL    HW131997   4.579   5.603   0.842
 6926SOL    HW231998   4.587   5.611   0.679
 6927SOL     OW31999   1.873   7.526   0.245
 6927SOL    HW132000   1.852   7.604   0.186
 6927SOL    HW232001   1.835   7.543   0.336
 6928SOL     OW32002   1.455   8.346   6.018
 6928SOL    HW132003   1.488   8.406   5.944
 6928SOL    HW232004   1.520   8.271   6.029
 6929SOL     OW32005   9.388   6.894   3.810
 6929SOL    HW132006   9.335   6.861   3.732
 6929SOL    HW232007   9.461   6.955   3.777
 6930SOL     OW32008   0.321   8.359   3.147
 6930SOL    HW132009   0.244   8.305   3.110
 6930SOL    HW232010   0.319   8.355   3.246
 6931SOL     OW32011   4.379   3.065   4.123
 6931SOL    HW132012   4.361   2.972   4.154
 6931SOL    HW232013   4.292   3.112   4.105
 6932SOL     OW32014   3.522   4.044   5.643
 6932SOL    HW132015   3.483   4.136   5.644
 6932SOL    HW232016   3.620   4.050   5.660
 6933SOL     OW32017   6.390   8.369   3.411
 6933SOL    HW132018   6.388   8.269   3.409
 6933SOL    HW232019   6.377   8.404   3.319
 6934SOL     OW32020   1.059   1.863   2.189
 6934SOL    HW132021   1.058   1.830   2.284
 6934SOL    HW232022   0.978   1.830   2.141
 6935SOL     OW32023   0.213   4.285   2.710
 6935SOL    HW132024   0.221   4.198   2.760
 6935SOL    HW232025   0.163   4.351   2.766
 6936SOL     OW32026   1.381   3.072   3.264
 6936SOL    HW132027   1.293   3.026   3.274
 6936SOL    HW232028   1.369   3.154   3.207
 6937SOL     OW32029   9.681   8.313   0.308
 6937SOL    HW132030   9.688   8.337   0.211
 6937SOL    HW232031   9.753   8.247   0.331
 6938SOL     OW32032   8.766   6.980   3.514
 6938SOL    HW132033   8.678   6.937   3.535
 6938SOL    HW232034   8.752   7.056   3.451
 6939SOL     OW32035   2.283   6.140   5.150
 6939SOL    HW132036   2.255   6.228   5.189
 6939SOL    HW232037   2.367   6.110   5.194
 6940SOL     OW32038   9.823   9.350   2.089
 6940SOL    HW132039   9.858   9.441   2.070
 6940SOL    HW232040   9.865   9.316   2.174
 6941SOL     OW32041   8.772   3.435   5.009
 6941SOL    HW132042   8.803   3.510   5.067
 6941SOL    HW232043   8.728   3.473   4.927
 6942SOL     OW32044   5.308   1.943   5.627
 6942SOL    HW132045   5.237   1.881   5.594
 6942SOL    HW232046   5.318   2.020   5.564
 6943SOL     OW32047   5.776   2.411   0.737
 6943SOL    HW132048   5.679   2.432   0.729
 6943SOL    HW232049   5.795   2.323   0.694
 6944SOL     OW32050   2.958   7.621   2.545
 6944SOL    HW132051   2.969   7.640   2.642
 6944SOL    HW232052   2.875   7.567   2.531
 6945SOL     OW32053   3.957   9.016   5.423
 6945SOL    HW132054   3.962   9.061   5.334
 6945SOL    HW232055   3.872   8.964   5.430
 6946SOL     OW32056   3.401   6.388   5.935
 6946SOL    HW132057   3.380   6.485   5.919
 6946SOL    HW232058   3.377   6.364   6.029
 6947SOL     OW32059   7.928   0.393   4.638
 6947SOL    HW132060   7.979   0.308   4.623
 6947SOL    HW232061   7.903   0.400   4.735
 6948SOL     OW32062   1.509   8.058   5.785
 6948SOL    HW132063   1.424   8.023   5.827
 6948SOL    HW232064   1.564   7.980   5.753
 6949SOL     OW32065   5.517   0.861   5.520
 6949SOL    HW132066   5.611   0.858   5.485
 6949SOL    HW232067   5.453   0.863   5.443
 6950SOL     OW32068   0.989   9.670   3.066
 6950SOL    HW132069   1.038   9.718   3.138
 6950SOL    HW232070   1.036   9.583   3.046
 6951SOL     OW32071   3.578   1.735   4.572
 6951SOL    HW132072   3.521   1.759   4.651
 6951SOL    HW232073   3.546   1.648   4.533
 6952SOL     OW32074   8.074   1.572   2.230
 6952SOL    HW132075   8.157   1.600   2.277
 6952SOL    HW232076   8.059   1.630   2.150
 6953SOL     OW32077   7.644   9.267   4.550
 6953SOL    HW132078   7.558   9.309   4.578
 6953SOL    HW232079   7.648   9.261   4.451
 6954SOL     OW32080   1.442   5.027   5.467
 6954SOL    HW132081   1.380   5.104   5.485
 6954SOL    HW232082   1.493   5.045   5.383
 6955SOL     OW32083   2.519   1.341   4.939
 6955SOL    HW132084   2.466   1.257   4.933
 6955SOL    HW232085   2.602   1.332   4.882
 6956SOL     OW32086   6.485   1.229   2.814
 6956SOL    HW132087   6.467   1.288   2.892
 6956SOL    HW232088   6.470   1.134   2.839
 6957SOL     OW32089   0.275   6.581   5.387
 6957SOL    HW132090   0.251   6.507   5.324
 6957SOL    HW232091   0.249   6.668   5.346
 6958SOL     OW32092   4.141   7.535   2.897
 6958SOL    HW132093   4.083   7.550   2.817
 6958SOL    HW232094   4.215   7.472   2.874
 6959SOL     OW32095   1.013   0.939   0.279
 6959SOL    HW132096   1.078   1.006   0.242
 6959SOL    HW232097   0.922   0.980   0.284
 6960SOL     OW32098   4.753   3.209   1.888
 6960SOL    HW132099   4.758   3.217   1.988
 6960SOL    HW232100   4.698   3.129   1.864
 6961SOL     OW32101   9.502   7.841   2.958
 6961SOL    HW132102   9.446   7.790   2.892
 6961SOL    HW232103   9.444   7.906   3.007
 6962SOL     OW32104   9.032   9.666   3.165
 6962SOL    HW132105   9.083   9.594   3.117
 6962SOL    HW232106   9.062   9.671   3.260
 6963SOL     OW32107   2.749   5.768   0.247
 6963SOL    HW132108   2.810   5.701   0.205
 6963SOL    HW232109   2.715   5.830   0.177
 6964SOL     OW32110   5.345   2.812   4.150
 6964SOL    HW132111   5.423   2.762   4.114
 6964SOL    HW232112   5.361   2.835   4.246
 6965SOL     OW32113   8.086   0.606   2.103
 6965SOL    HW132114   8.045   0.574   2.017
 6965SOL    HW232115   8.021   0.594   2.178
 6966SOL     OW32116   4.606   9.961   6.020
 6966SOL    HW132117   4.659   0.043   6.044
 6966SOL    HW232118   4.535   9.986   5.955
 6967SOL     OW32119   0.519   1.131   5.338
 6967SOL    HW132120   0.504   1.059   5.270
 6967SOL    HW232121   0.438   1.190   5.342
 6968SOL     OW32122   3.698   5.007   2.429
 6968SOL    HW132123   3.625   5.070   2.455
 6968SOL    HW232124   3.780   5.027   2.483
 6969SOL     OW32125   3.466   6.138   4.065
 6969SOL    HW132126   3.378   6.185   4.074
 6969SOL    HW232127   3.454   6.040   4.086
 6970SOL     OW32128   9.855   0.016   5.645
 6970SOL    HW132129   9.918   9.946   5.611
 6970SOL    HW232130   9.762   9.995   5.616
 6971SOL     OW32131   1.804   8.619   3.751
 6971SOL    HW132132   1.848   8.550   3.693
 6971SOL    HW232133   1.868   8.695   3.766
 6972SOL     OW32134   8.070   9.031   1.004
 6972SOL    HW132135   8.118   8.966   0.945
 6972SOL    HW232136   7.999   8.982   1.055
 6973SOL     OW32137   8.521   2.761   0.162
 6973SOL    HW132138   8.588   2.834   0.151
 6973SOL    HW232139   8.569   2.673   0.169
 6974SOL     OW32140   9.640   1.427   0.080
 6974SOL    HW132141   9.679   1.374   0.005
 6974SOL    HW232142   9.652   1.378   0.166
 6975SOL     OW32143   4.352   5.366   3.633
 6975SOL    HW132144   4.394   5.297   3.575
 6975SOL    HW232145   4.369   5.345   3.729
 6976SOL     OW32146   5.860   8.400   6.013
 6976SOL    HW132147   5.919   8.423   6.090
 6976SOL    HW232148   5.777   8.354   6.047
 6977SOL     OW32149   1.795   8.398   5.967
 6977SOL    HW132150   1.726   8.441   5.909
 6977SOL    HW232151   1.758   8.314   6.006
 6978SOL     OW32152   2.486   9.050   4.006
 6978SOL    HW132153   2.564   9.007   4.051
 6978SOL    HW232154   2.455   8.993   3.930
 6979SOL     OW32155   1.336   5.408   2.489
 6979SOL    HW132156   1.248   5.440   2.453
 6979SOL    HW232157   1.400   5.485   2.492
 6980SOL     OW32158   8.989   5.639   2.196
 6980SOL    HW132159   8.973   5.725   2.147
 6980SOL    HW232160   8.902   5.602   2.227
 6981SOL     OW32161   5.070   9.498   2.041
 6981SOL    HW132162   5.015   9.421   2.009
 6981SOL    HW232163   5.029   9.537   2.123
 6982SOL     OW32164   1.620   8.238   6.373
 6982SOL    HW132165   1.575   8.319   6.336
 6982SOL    HW232166   1.622   8.244   6.473
 6983SOL     OW32167   7.972   4.890   2.178
 6983SOL    HW132168   7.893   4.858   2.127
 6983SOL    HW232169   7.942   4.925   2.267
 6984SOL     OW32170   7.437   3.398   2.162
 6984SOL    HW132171   7.494   3.420   2.242
 6984SOL    HW232172   7.342   3.388   2.191
 6985SOL     OW32173   1.506   1.249   1.093
 6985SOL    HW132174   1.457   1.312   1.033
 6985SOL    HW232175   1.451   1.231   1.174
 6986SOL     OW32176   5.212   7.448   3.833
 6986SOL    HW132177   5.144   7.522   3.841
 6986SOL    HW232178   5.231   7.411   3.924
 6987SOL     OW32179   8.253   9.859   4.954
 6987SOL    HW132180   8.213   9.791   4.892
 6987SOL    HW232181   8.188   9.879   5.027
 6988SOL     OW32182   7.275   5.163   2.032
 6988SOL    HW132183   7.267   5.237   1.965
 6988SOL    HW232184   7.184   5.142   2.070
 6989SOL     OW32185   9.254   5.138   1.148
 6989SOL    HW132186   9.337   5.157   1.096
 6989SOL    HW232187   9.217   5.223   1.184
 6990SOL     OW32188   1.085   4.650   1.414
 6990SOL    HW132189   1.069   4.597   1.498
 6990SOL    HW232190   1.089   4.587   1.336
 6991SOL     OW32191   7.080   7.290   4.942
 6991SOL    HW132192   7.171   7.256   4.964
 6991SOL    HW232193   7.014   7.260   5.011
 6992SOL     OW32194   3.704   1.501   0.778
 6992SOL    HW132195   3.730   1.537   0.868
 6992SOL    HW232196   3.623   1.442   0.788
 6993SOL     OW32197   1.984   7.481   3.026
 6993SOL    HW132198   2.050   7.503   2.955
 6993SOL    HW232199   1.999   7.387   3.058
 6994SOL     OW32200   2.629   4.371   5.438
 6994SOL    HW132201   2.601   4.372   5.342
 6994SOL    HW232202   2.587   4.292   5.484
 6995SOL     OW32203   7.773   3.456   2.662
 6995SOL    HW132204   7.695   3.512   2.691
 6995SOL    HW232205   7.754   3.360   2.684
 6996SOL     OW32206   4.329   9.212   1.157
 6996SOL    HW132207   4.288   9.140   1.214
 6996SOL    HW232208   4.260   9.246   1.092
 6997SOL     OW32209   9.097   1.541   5.895
 6997SOL    HW132210   9.192   1.571   5.883
 6997SOL    HW232211   9.095   1.463   5.957
 6998SOL     OW32212   3.587   5.778   5.790
 6998SOL    HW132213   3.623   5.870   5.773
 6998SOL    HW232214   3.660   5.718   5.824
 6999SOL     OW32215   3.108   7.390   2.542
 6999SOL    HW132216   3.163   7.390   2.626
 6999SOL    HW232217   3.063   7.479   2.532
 7000SOL     OW32218   1.665   2.795   1.877
 7000SOL    HW132219   1.734   2.727   1.851
 7000SOL    HW232220   1.607   2.758   1.949
 7001SOL     OW32221   6.729   1.661   3.953
 7001SOL    HW132222   6.810   1.674   4.011
 7001SOL    HW232223   6.658   1.725   3.981
 7002SOL     OW32224   2.323   0.030   2.622
 7002SOL    HW132225   2.252   0.037   2.692
 7002SOL    HW232226   2.413   0.041   2.664
 7003SOL     OW32227   8.988   8.098   2.739
 7003SOL    HW132228   8.998   8.182   2.794
 7003SOL    HW232229   8.900   8.100   2.692
 7004SOL     OW32230   4.701   4.501   3.842
 7004SOL    HW132231   4.737   4.419   3.887
 7004SOL    HW232232   4.664   4.476   3.753
 7005SOL     OW32233   1.088   6.052   3.739
 7005SOL    HW132234   1.083   6.121   3.667
 7005SOL    HW232235   1.023   6.076   3.812
 7006SOL     OW32236   0.972   4.772   4.426
 7006SOL    HW132237   0.952   4.861   4.468
 7006SOL    HW232238   0.886   4.728   4.400
 7007SOL     OW32239   9.068   5.995   4.073
 7007SOL    HW132240   9.127   5.924   4.111
 7007SOL    HW232241   9.113   6.084   4.081
 7008SOL     OW32242   2.114   4.457   1.490
 7008SOL    HW132243   2.150   4.418   1.405
 7008SOL    HW232244   2.018   4.485   1.476
 7009SOL     OW32245   4.664   8.773   3.535
 7009SOL    HW132246   4.744   8.832   3.529
 7009SOL    HW232247   4.621   8.784   3.624
 7010SOL     OW32248   8.003   1.801   1.565
 7010SOL    HW132249   8.090   1.848   1.575
 7010SOL    HW232250   7.933   1.847   1.619
 7011SOL     OW32251   2.583   2.434   3.033
 7011SOL    HW132252   2.487   2.409   3.039
 7011SOL    HW232253   2.610   2.441   2.937
 7012SOL     OW32254   5.177   2.727   3.728
 7012SOL    HW132255   5.177   2.635   3.689
 7012SOL    HW232256   5.143   2.792   3.660
 7013SOL     OW32257   1.471   1.623   1.530
 7013SOL    HW132258   1.471   1.628   1.630
 7013SOL    HW232259   1.502   1.711   1.492
 7014SOL     OW32260   8.829   7.177   5.908
 7014SOL    HW132261   8.752   7.239   5.891
 7014SOL    HW232262   8.875   7.156   5.821
 7015SOL     OW32263   8.761   8.460   1.312
 7015SOL    HW132264   8.800   8.504   1.393
 7015SOL    HW232265   8.712   8.527   1.257
 7016SOL     OW32266   0.357   0.891   3.243
 7016SOL    HW132267   0.390   0.865   3.334
 7016SOL    HW232268   0.420   0.956   3.202
 7017SOL     OW32269   3.218   2.206   2.733
 7017SOL    HW132270   3.239   2.203   2.635
 7017SOL    HW232271   3.226   2.301   2.765
 7018SOL     OW32272   0.903   5.107   0.958
 7018SOL    HW132273   0.970   5.046   0.916
 7018SOL    HW232274   0.907   5.196   0.914
 7019SOL     OW32275   0.731   7.133   2.341
 7019SOL    HW132276   0.805   7.198   2.328
 7019SOL    HW232277   0.687   7.150   2.430
 7020SOL     OW32278   7.978   3.395   1.178
 7020SOL    HW132279   8.077   3.400   1.191
 7020SOL    HW232280   7.932   3.442   1.254
 7021SOL     OW32281   8.271   0.076   5.528
 7021SOL    HW132282   8.311   0.084   5.437
 7021SOL    HW232283   8.172   0.090   5.522
 7022SOL     OW32284   4.505   9.997   4.063
 7022SOL    HW132285   4.576   9.926   4.068
 7022SOL    HW232286   4.530   0.065   3.994
 7023SOL     OW32287   3.178   7.911   4.030
 7023SOL    HW132288   3.167   8.010   4.027
 7023SOL    HW232289   3.110   7.868   3.970
 7024SOL     OW32290   9.488   4.680   6.272
 7024SOL    HW132291   9.440   4.762   6.305
 7024SOL    HW232292   9.481   4.608   6.341
 7025SOL     OW32293   7.454   0.355   0.177
 7025SOL    HW132294   7.429   0.440   0.131
 7025SOL    HW232295   7.523   0.373   0.247
 7026SOL     OW32296   4.731   6.556   2.056
 7026SOL    HW132297   4.740   6.476   2.116
 7026SOL    HW232298   4.702   6.635   2.111
 7027SOL     OW32299   2.381   3.783   4.600
 7027SOL    HW132300   2.467   3.770   4.551
 7027SOL    HW232301   2.360   3.701   4.653
 7028SOL     OW32302   1.818   2.551   1.877
 7028SOL    HW132303   1.897   2.534   1.818
 7028SOL    HW232304   1.738   2.502   1.841
 7029SOL     OW32305   9.336   5.369   1.602
 7029SOL    HW132306   9.340   5.360   1.701
 7029SOL    HW232307   9.346   5.466   1.577
 7030SOL     OW32308   6.319   5.049   2.003
 7030SOL    HW132309   6.417   5.064   1.990
 7030SOL    HW232310   6.268   5.109   1.941
 7031SOL     OW32311   2.081   2.347   5.866
 7031SOL    HW132312   2.137   2.381   5.941
 7031SOL    HW232313   2.037   2.261   5.893
 7032SOL     OW32314   3.965   9.848   2.664
 7032SOL    HW132315   4.050   9.796   2.655
 7032SOL    HW232316   3.986   9.942   2.692
 7033SOL     OW32317   8.443   0.643   4.428
 7033SOL    HW132318   8.534   0.617   4.395
 7033SOL    HW232319   8.386   0.671   4.351
 7034SOL     OW32320   9.652   6.230   0.126
 7034SOL    HW132321   9.587   6.177   0.181
 7034SOL    HW232322   9.705   6.168   0.068
 7035SOL     OW32323   0.399   8.446   3.803
 7035SOL    HW132324   0.388   8.347   3.791
 7035SOL    HW232325   0.454   8.464   3.885
 7036SOL     OW32326   6.157   0.104   3.401
 7036SOL    HW132327   6.152   0.086   3.499
 7036SOL    HW232328   6.134   0.021   3.350
 7037SOL     OW32329   6.641   1.216   5.754
 7037SOL    HW132330   6.586   1.296   5.730
 7037SOL    HW232331   6.731   1.246   5.785
 7038SOL     OW32332   4.303   2.308   0.378
 7038SOL    HW132333   4.293   2.315   0.477
 7038SOL    HW232334   4.244   2.234   0.345
 7039SOL     OW32335   6.103   5.282   0.225
 7039SOL    HW132336   6.202   5.297   0.227
 7039SOL    HW232337   6.056   5.370   0.220
 7040SOL     OW32338   2.198   4.326   1.258
 7040SOL    HW132339   2.295   4.300   1.264
 7040SOL    HW232340   2.172   4.335   1.162
 7041SOL     OW32341   0.765   2.616   0.237
 7041SOL    HW132342   0.796   2.540   0.294
 7041SOL    HW232343   0.667   2.630   0.250
 7042SOL     OW32344   2.843   6.525   0.807
 7042SOL    HW132345   2.755   6.493   0.841
 7042SOL    HW232346   2.914   6.506   0.875
 7043SOL     OW32347   1.129   9.060   2.549
 7043SOL    HW132348   1.195   9.113   2.601
 7043SOL    HW232349   1.175   9.018   2.470
 7044SOL     OW32350   2.172   9.821   2.002
 7044SOL    HW132351   2.160   9.735   2.051
 7044SOL    HW232352   2.085   9.869   1.996
 7045SOL     OW32353   7.415   9.217   5.112
 7045SOL    HW132354   7.331   9.270   5.123
 7045SOL    HW232355   7.486   9.274   5.071
 7046SOL     OW32356   7.671   8.107   6.245
 7046SOL    HW132357   7.638   8.020   6.281
 7046SOL    HW232358   7.763   8.095   6.206
 7047SOL     OW32359   3.572   8.327   0.720
 7047SOL    HW132360   3.643   8.268   0.758
 7047SOL    HW232361   3.611   8.418   0.701
 7048SOL     OW32362   3.596   6.169   4.741
 7048SOL    HW132363   3.618   6.207   4.831
 7048SOL    HW232364   3.591   6.069   4.747
 7049SOL     OW32365   7.805   3.682   2.189
 7049SOL    HW132366   7.802   3.680   2.289
 7049SOL    HW232367   7.796   3.776   2.157
 7050SOL     OW32368   1.456   4.268   4.880
 7050SOL    HW132369   1.377   4.309   4.834
 7050SOL    HW232370   1.539   4.287   4.828
 7051SOL     OW32371   4.844   4.903   4.235
 7051SOL    HW132372   4.899   4.913   4.152
 7051SOL    HW232373   4.826   4.993   4.275
 7052SOL     OW32374   0.400   1.841   1.263
 7052SOL    HW132375   0.412   1.770   1.194
 7052SOL    HW232376   0.357   1.802   1.344
 7053SOL     OW32377   7.464   0.466   0.616
 7053SOL    HW132378   7.420   0.378   0.597
 7053SOL    HW232379   7.469   0.520   0.532
 7054SOL     OW32380   3.186   1.130   5.657
 7054SOL    HW132381   3.230   1.209   5.698
 7054SOL    HW232382   3.127   1.085   5.724
 7055SOL     OW32383   6.433   1.093   4.973
 7055SOL    HW132384   6.510   1.084   4.910
 7055SOL    HW232385   6.373   1.014   4.965
 7056SOL     OW32386   5.618   0.958   2.429
 7056SOL    HW132387   5.641   0.951   2.332
 7056SOL    HW232388   5.551   0.888   2.453
 7057SOL     OW32389   3.048   7.090   1.022
 7057SOL    HW132390   3.047   7.182   0.984
 7057SOL    HW232391   2.955   7.063   1.045
 7058SOL     OW32392   2.766   4.600   5.896
 7058SOL    HW132393   2.676   4.560   5.914
 7058SOL    HW232394   2.779   4.680   5.955
 7059SOL     OW32395   4.062   2.869   1.431
 7059SOL    HW132396   4.058   2.825   1.341
 7059SOL    HW232397   4.057   2.968   1.419
 7060SOL     OW32398   3.307   0.463   4.797
 7060SOL    HW132399   3.274   0.490   4.707
 7060SOL    HW232400   3.400   0.426   4.788
 7061SOL     OW32401   0.846   1.938   1.245
 7061SOL    HW132402   0.784   1.929   1.167
 7061SOL    HW232403   0.793   1.938   1.330
 7062SOL     OW32404   8.593   8.122   6.090
 7062SOL    HW132405   8.681   8.083   6.116
 7062SOL    HW232406   8.524   8.050   6.087
 7063SOL     OW32407   0.816   8.474   1.013
 7063SOL    HW132408   0.719   8.452   0.998
 7063SOL    HW232409   0.845   8.543   0.947
 7064SOL     OW32410   1.309   0.658   3.566
 7064SOL    HW132411   1.332   0.706   3.481
 7064SOL    HW232412   1.297   0.561   3.547
 7065SOL     OW32413   9.034   1.763   4.677
 7065SOL    HW132414   9.022   1.841   4.615
 7065SOL    HW232415   9.039   1.679   4.623
 7066SOL     OW32416   0.597   4.175   1.770
 7066SOL    HW132417   0.607   4.258   1.714
 7066SOL    HW232418   0.500   4.153   1.779
 7067SOL     OW32419   0.608   3.605   1.417
 7067SOL    HW132420   0.551   3.525   1.434
 7067SOL    HW232421   0.656   3.593   1.330
 7068SOL     OW32422   0.840   5.460   5.169
 7068SOL    HW132423   0.847   5.361   5.177
 7068SOL    HW232424   0.748   5.484   5.137
 7069SOL     OW32425   2.021   6.680   2.079
 7069SOL    HW132426   2.083   6.634   2.014
 7069SOL    HW232427   2.044   6.653   2.172
 7070SOL     OW32428   7.564   9.121   5.325
 7070SOL    HW132429   7.627   9.188   5.366
 7070SOL    HW232430   7.505   9.167   5.259
 7071SOL     OW32431   2.932   3.776   0.091
 7071SOL    HW132432   2.881   3.818   0.017
 7071SOL    HW232433   3.029   3.796   0.080
 7072SOL     OW32434   7.173   2.585   1.091
 7072SOL    HW132435   7.142   2.498   1.053
 7072SOL    HW232436   7.107   2.615   1.160
 7073SOL     OW32437   1.439   3.451   1.951
 7073SOL    HW132438   1.406   3.429   2.042
 7073SOL    HW232439   1.484   3.371   1.911
 7074SOL     OW32440   9.693   3.233   3.585
 7074SOL    HW132441   9.790   3.260   3.589
 7074SOL    HW232442   9.685   3.149   3.532
 7075SOL     OW32443   7.661   9.680   3.053
 7075SOL    HW132444   7.649   9.651   2.959
 7075SOL    HW232445   7.665   9.600   3.113
 7076SOL     OW32446   1.955   8.032   5.902
 7076SOL    HW132447   2.008   8.062   5.981
 7076SOL    HW232448   1.864   8.002   5.931
 7077SOL     OW32449   8.950   1.231   1.361
 7077SOL    HW132450   9.048   1.211   1.358
 7077SOL    HW232451   8.909   1.214   1.272
 7078SOL     OW32452   1.003   3.447   6.328
 7078SOL    HW132453   0.940   3.430   6.404
 7078SOL    HW232454   1.079   3.383   6.332
 7079SOL     OW32455   2.195   8.353   4.093
 7079SOL    HW132456   2.098   8.330   4.089
 7079SOL    HW232457   2.234   8.316   4.177
 7080SOL     OW32458   6.858   3.017   1.137
 7080SOL    HW132459   6.851   2.981   1.231
 7080SOL    HW232460   6.775   3.069   1.116
 7081SOL     OW32461   3.239   6.084   0.616
 7081SOL    HW132462   3.217   5.993   0.651
 7081SOL    HW232463   3.335   6.104   0.633
 7082SOL     OW32464   8.387   1.525   1.646
 7082SOL    HW132465   8.419   1.489   1.733
 7082SOL    HW232466   8.287   1.526   1.645
 7083SOL     OW32467   0.094   6.450   0.327
 7083SOL    HW132468   0.097   6.542   0.287
 7083SOL    HW232469   0.004   6.410   0.310
 7084SOL     OW32470   8.980   7.756   5.811
 7084SOL    HW132471   8.928   7.839   5.829
 7084SOL    HW232472   9.073   7.765   5.846
 7085SOL     OW32473   7.279   0.962   1.936
 7085SOL    HW132474   7.370   0.929   1.913
 7085SOL    HW232475   7.212   0.891   1.913
 7086SOL     OW32476   7.889   6.084   5.180
 7086SOL    HW132477   7.949   6.159   5.154
 7086SOL    HW232478   7.848   6.103   5.269
 7087SOL     OW32479   1.490   0.677   5.220
 7087SOL    HW132480   1.579   0.700   5.182
 7087SOL    HW232481   1.439   0.620   5.155
 7088SOL     OW32482   3.322   7.463   5.103
 7088SOL    HW132483   3.415   7.467   5.066
 7088SOL    HW232484   3.293   7.555   5.129
 7089SOL     OW32485   8.714   2.052   0.952
 7089SOL    HW132486   8.704   2.074   1.049
 7089SOL    HW232487   8.636   2.088   0.901
 7090SOL     OW32488   5.017   3.236   0.294
 7090SOL    HW132489   4.957   3.277   0.363
 7090SOL    HW232490   4.968   3.161   0.249
 7091SOL     OW32491   5.207   8.820   4.766
 7091SOL    HW132492   5.271   8.821   4.843
 7091SOL    HW232493   5.194   8.914   4.733
 7092SOL     OW32494   9.505   1.889   1.078
 7092SOL    HW132495   9.486   1.910   0.983
 7092SOL    HW232496   9.481   1.967   1.136
 7093SOL     OW32497   9.649   6.494   3.757
 7093SOL    HW132498   9.585   6.467   3.685
 7093SOL    HW232499   9.612   6.572   3.808
 7094SOL     OW32500   9.130   8.312   3.248
 7094SOL    HW132501   9.160   8.285   3.339
 7094SOL    HW232502   9.110   8.231   3.193
 7095SOL     OW32503   7.097   2.582   0.684
 7095SOL    HW132504   7.119   2.647   0.757
 7095SOL    HW232505   7.180   2.535   0.655
 7096SOL     OW32506   1.150   7.232   1.161
 7096SOL    HW132507   1.243   7.200   1.175
 7096SOL    HW232508   1.106   7.177   1.091
 7097SOL     OW32509   3.431   8.744   5.509
 7097SOL    HW132510   3.402   8.730   5.414
 7097SOL    HW232511   3.502   8.678   5.532
 7098SOL     OW32512   8.323   9.173   1.446
 7098SOL    HW132513   8.314   9.243   1.375
 7098SOL    HW232514   8.241   9.173   1.503
 7099SOL     OW32515   0.476   2.410   1.858
 7099SOL    HW132516   0.522   2.493   1.889
 7099SOL    HW232517   0.406   2.384   1.924
 7100SOL     OW32518   6.127   1.528   4.289
 7100SOL    HW132519   6.217   1.505   4.326
 7100SOL    HW232520   6.091   1.609   4.336
 7101SOL     OW32521   3.991   1.342   4.185
 7101SOL    HW132522   4.015   1.372   4.278
 7101SOL    HW232523   4.014   1.414   4.120
 7102SOL     OW32524   6.694   2.087   0.818
 7102SOL    HW132525   6.775   2.147   0.815
 7102SOL    HW232526   6.688   2.036   0.732
 7103SOL     OW32527   7.036   5.565   1.880
 7103SOL    HW132528   7.116   5.619   1.856
 7103SOL    HW232529   7.015   5.577   1.977
 7104SOL     OW32530   7.776   9.717   6.254
 7104SOL    HW132531   7.862   9.731   6.303
 7104SOL    HW232532   7.749   9.621   6.261
 7105SOL     OW32533   4.786   4.988   0.480
 7105SOL    HW132534   4.735   4.904   0.495
 7105SOL    HW232535   4.822   5.022   0.566
 7106SOL     OW32536   3.505   7.145   4.993
 7106SOL    HW132537   3.526   7.231   5.038
 7106SOL    HW232538   3.548   7.143   4.903
 7107SOL     OW32539   4.096   1.390   2.628
 7107SOL    HW132540   4.180   1.373   2.578
 7107SOL    HW232541   4.023   1.332   2.592
 7108SOL     OW32542   3.777   8.273   1.138
 7108SOL    HW132543   3.841   8.348   1.121
 7108SOL    HW232544   3.819   8.186   1.113
 7109SOL     OW32545   6.247   7.859   4.378
 7109SOL    HW132546   6.202   7.930   4.325
 7109SOL    HW232547   6.285   7.899   4.462
 7110SOL     OW32548   9.833   0.207   3.215
 7110SOL    HW132549   9.802   0.112   3.221
 7110SOL    HW232550   9.931   0.211   3.233
 7111SOL     OW32551   9.442   4.274   2.675
 7111SOL    HW132552   9.524   4.218   2.683
 7111SOL    HW232553   9.363   4.224   2.711
 7112SOL     OW32554   0.127   3.115   4.518
 7112SOL    HW132555   0.161   3.023   4.536
 7112SOL    HW232556   0.047   3.133   4.575
 7113SOL     OW32557   2.252   6.282   0.448
 7113SOL    HW132558   2.258   6.376   0.414
 7113SOL    HW232559   2.197   6.227   0.385
 7114SOL     OW32560   9.415   2.908   3.704
 7114SOL    HW132561   9.394   2.971   3.629
 7114SOL    HW232562   9.502   2.935   3.747
 7115SOL     OW32563   6.631   0.127   2.294
 7115SOL    HW132564   6.572   0.050   2.315
 7115SOL    HW232565   6.689   0.105   2.215
 7116SOL     OW32566   3.244   1.484   4.509
 7116SOL    HW132567   3.344   1.487   4.512
 7116SOL    HW232568   3.213   1.504   4.416
 7117SOL     OW32569   0.528   5.360   1.059
 7117SOL    HW132570   0.557   5.430   0.995
 7117SOL    HW232571   0.456   5.304   1.017
 7118SOL     OW32572   1.197   8.371   3.422
 7118SOL    HW132573   1.109   8.324   3.433
 7118SOL    HW232574   1.200   8.418   3.334
 7119SOL     OW32575   1.846   1.031   5.795
 7119SOL    HW132576   1.924   1.079   5.756
 7119SOL    HW232577   1.765   1.049   5.740
 7120SOL     OW32578   5.925   5.013   0.482
 7120SOL    HW132579   6.018   5.015   0.520
 7120SOL    HW232580   5.867   4.958   0.541
 7121SOL     OW32581   8.272   5.025   1.326
 7121SOL    HW132582   8.277   4.930   1.356
 7121SOL    HW232583   8.315   5.034   1.236
 7122SOL     OW32584   6.735   0.965   1.042
 7122SOL    HW132585   6.740   0.935   1.137
 7122SOL    HW232586   6.799   1.040   1.027
 7123SOL     OW32587   8.350   6.213   0.190
 7123SOL    HW132588   8.424   6.212   0.122
 7123SOL    HW232589   8.381   6.259   0.273
 7124SOL     OW32590   3.943   4.676   3.408
 7124SOL    HW132591   3.962   4.697   3.312
 7124SOL    HW232592   4.026   4.642   3.452
 7125SOL     OW32593   0.747   1.144   2.751
 7125SOL    HW132594   0.695   1.221   2.714
 7125SOL    HW232595   0.823   1.179   2.805
 7126SOL     OW32596   0.324   6.899   1.425
 7126SOL    HW132597   0.372   6.917   1.511
 7126SOL    HW232598   0.246   6.962   1.416
 7127SOL     OW32599   7.573   2.192   0.456
 7127SOL    HW132600   7.577   2.286   0.490
 7127SOL    HW232601   7.579   2.128   0.533
 7128SOL     OW32602   9.351   0.327   6.263
 7128SOL    HW132603   9.372   0.239   6.306
 7128SOL    HW232604   9.254   0.348   6.277
 7129SOL     OW32605   4.480   9.772   6.182
 7129SOL    HW132606   4.531   9.844   6.135
 7129SOL    HW232607   4.514   9.682   6.153
 7130SOL     OW32608   9.014   7.146   2.449
 7130SOL    HW132609   8.940   7.087   2.417
 7130SOL    HW232610   9.019   7.228   2.392
 7131SOL     OW32611   3.590   8.746   5.069
 7131SOL    HW132612   3.615   8.842   5.082
 7131SOL    HW232613   3.637   8.711   4.988
 7132SOL     OW32614   2.129   2.384   1.206
 7132SOL    HW132615   2.200   2.411   1.140
 7132SOL    HW232616   2.063   2.324   1.161
 7133SOL     OW32617   1.662   7.954   5.454
 7133SOL    HW132618   1.652   7.904   5.540
 7133SOL    HW232619   1.663   8.052   5.473
 7134SOL     OW32620   4.166   1.274   1.540
 7134SOL    HW132621   4.130   1.271   1.447
 7134SOL    HW232622   4.252   1.223   1.544
 7135SOL     OW32623   3.126   7.287   3.034
 7135SOL    HW132624   3.196   7.286   3.104
 7135SOL    HW232625   3.112   7.194   2.999
 7136SOL     OW32626   8.431   6.305   3.239
 7136SOL    HW132627   8.418   6.297   3.338
 7136SOL    HW232628   8.383   6.386   3.206
 7137SOL     OW32629   8.014   5.386   5.966
 7137SOL    HW132630   7.988   5.456   6.033
 7137SOL    HW232631   8.109   5.361   5.980
 7138SOL     OW32632   8.076   4.913   0.748
 7138SOL    HW132633   8.002   4.889   0.685
 7138SOL    HW232634   8.073   4.853   0.828
 7139SOL     OW32635   2.128   4.862   1.150
 7139SOL    HW132636   2.177   4.867   1.237
 7139SOL    HW232637   2.189   4.828   1.078
 7140SOL     OW32638   0.681   4.292   2.292
 7140SOL    HW132639   0.658   4.211   2.345
 7140SOL    HW232640   0.636   4.372   2.332
 7141SOL     OW32641   2.488   4.951   1.088
 7141SOL    HW132642   2.429   4.876   1.060
 7141SOL    HW232643   2.443   5.038   1.068
 7142SOL     OW32644   2.087   5.230   2.113
 7142SOL    HW132645   2.000   5.217   2.160
 7142SOL    HW232646   2.069   5.254   2.017
 7143SOL     OW32647   4.182   5.028   4.134
 7143SOL    HW132648   4.109   5.049   4.069
 7143SOL    HW232649   4.166   4.939   4.175
 7144SOL     OW32650   0.455   3.738   3.460
 7144SOL    HW132651   0.473   3.828   3.501
 7144SOL    HW232652   0.447   3.748   3.360
 7145SOL     OW32653   8.574   5.642   1.323
 7145SOL    HW132654   8.577   5.641   1.423
 7145SOL    HW232655   8.667   5.653   1.287
 7146SOL     OW32656   2.228   4.711   0.389
 7146SOL    HW132657   2.198   4.630   0.439
 7146SOL    HW232658   2.321   4.735   0.419
 7147SOL     OW32659   3.254   2.787   2.057
 7147SOL    HW132660   3.333   2.801   1.998
 7147SOL    HW232661   3.194   2.867   2.050
 7148SOL     OW32662   6.727   9.392   3.475
 7148SOL    HW132663   6.693   9.457   3.543
 7148SOL    HW232664   6.764   9.443   3.397
 7149SOL     OW32665   1.250   6.437   3.029
 7149SOL    HW132666   1.343   6.401   3.035
 7149SOL    HW232667   1.229   6.487   3.113
 7150SOL     OW32668   2.147   3.598   3.159
 7150SOL    HW132669   2.177   3.537   3.086
 7150SOL    HW232670   2.084   3.550   3.220
 7151SOL     OW32671   0.322   3.211   3.393
 7151SOL    HW132672   0.331   3.252   3.484
 7151SOL    HW232673   0.288   3.280   3.329
 7152SOL     OW32674   2.094   0.775   5.403
 7152SOL    HW132675   2.044   0.848   5.450
 7152SOL    HW232676   2.064   0.771   5.307
 7153SOL     OW32677   0.709   7.528   3.895
 7153SOL    HW132678   0.758   7.584   3.828
 7153SOL    HW232679   0.756   7.534   3.984
 7154SOL     OW32680   3.068   3.179   2.426
 7154SOL    HW132681   3.056   3.254   2.491
 7154SOL    HW232682   2.980   3.136   2.407
 7155SOL     OW32683   2.522   8.942   1.834
 7155SOL    HW132684   2.442   8.988   1.794
 7155SOL    HW232685   2.497   8.848   1.859
 7156SOL     OW32686   6.904   7.246   3.910
 7156SOL    HW132687   6.914   7.285   4.001
 7156SOL    HW232688   6.810   7.260   3.878
 7157SOL     OW32689   4.313   3.217   3.400
 7157SOL    HW132690   4.267   3.265   3.475
 7157SOL    HW232691   4.252   3.148   3.362
 7158SOL     OW32692   9.166   1.156   0.227
 7158SOL    HW132693   9.201   1.243   0.261
 7158SOL    HW232694   9.244   1.095   0.208
 7159SOL     OW32695   9.576   5.744   3.387
 7159SOL    HW132696   9.488   5.698   3.384
 7159SOL    HW232697   9.630   5.717   3.307
 7160SOL     OW32698   0.464   8.130   3.510
 7160SOL    HW132699   0.425   8.139   3.601
 7160SOL    HW232700   0.448   8.038   3.475
 7161SOL     OW32701   2.226   9.029   5.368
 7161SOL    HW132702   2.275   8.996   5.449
 7161SOL    HW232703   2.146   9.081   5.396
 7162SOL     OW32704   0.347   1.163   0.990
 7162SOL    HW132705   0.315   1.198   1.078
 7162SOL    HW232706   0.400   1.079   1.005
 7163SOL     OW32707   7.971   8.074   2.333
 7163SOL    HW132708   7.891   8.128   2.308
 7163SOL    HW232709   8.037   8.075   2.258
 7164SOL     OW32710   8.782   8.953   6.092
 7164SOL    HW132711   8.704   8.968   6.031
 7164SOL    HW232712   8.863   9.000   6.056
 7165SOL     OW32713   8.576   3.098   5.719
 7165SOL    HW132714   8.582   3.134   5.812
 7165SOL    HW232715   8.580   2.998   5.722
 7166SOL     OW32716   6.687   7.934   6.058
 7166SOL    HW132717   6.615   7.864   6.065
 7166SOL    HW232718   6.741   7.935   6.142
 7167SOL     OW32719   8.657   9.676   1.895
 7167SOL    HW132720   8.657   9.763   1.845
 7167SOL    HW232721   8.661   9.600   1.830
 7168SOL     OW32722   8.895   7.508   6.305
 7168SOL    HW132723   8.893   7.549   6.213
 7168SOL    HW232724   8.811   7.531   6.353
 7169SOL     OW32725   4.675   3.936   1.992
 7169SOL    HW132726   4.678   4.028   1.952
 7169SOL    HW232727   4.620   3.876   1.933
 7170SOL     OW32728   8.967   0.890   5.517
 7170SOL    HW132729   8.871   0.914   5.527
 7170SOL    HW232730   8.999   0.842   5.600
 7171SOL     OW32731   9.242   5.823   4.189
 7171SOL    HW132732   9.253   5.727   4.164
 7171SOL    HW232733   9.320   5.853   4.243
 7172SOL     OW32734   2.949   6.797   3.620
 7172SOL    HW132735   2.869   6.855   3.634
 7172SOL    HW232736   3.011   6.805   3.698
 7173SOL     OW32737   0.313   5.226   0.936
 7173SOL    HW132738   0.318   5.174   0.851
 7173SOL    HW232739   0.262   5.310   0.921
 7174SOL     OW32740   5.257   2.389   0.188
 7174SOL    HW132741   5.330   2.363   0.125
 7174SOL    HW232742   5.292   2.453   0.256
 7175SOL     OW32743   4.574   3.897   1.348
 7175SOL    HW132744   4.510   3.900   1.271
 7175SOL    HW232745   4.642   3.969   1.337
 7176SOL     OW32746   3.326   3.834   1.948
 7176SOL    HW132747   3.274   3.854   2.031
 7176SOL    HW232748   3.400   3.770   1.970
 7177SOL     OW32749   6.934   4.996   1.679
 7177SOL    HW132750   6.882   4.913   1.661
 7177SOL    HW232751   7.022   4.972   1.720
 7178SOL     OW32752   3.892   4.266   0.638
 7178SOL    HW132753   3.896   4.257   0.737
 7178SOL    HW232754   3.845   4.351   0.614
 7179SOL     OW32755   3.627   7.163   4.749
 7179SOL    HW132756   3.690   7.090   4.721
 7179SOL    HW232757   3.678   7.249   4.757
 7180SOL     OW32758   2.447   8.778   3.053
 7180SOL    HW132759   2.530   8.767   2.999
 7180SOL    HW232760   2.468   8.824   3.139
 7181SOL     OW32761   4.898   1.044   1.387
 7181SOL    HW132762   4.865   1.133   1.358
 7181SOL    HW232763   4.860   1.022   1.477
 7182SOL     OW32764   7.435   3.349   2.602
 7182SOL    HW132765   7.353   3.292   2.601
 7182SOL    HW232766   7.412   3.441   2.635
 7183SOL     OW32767   3.457   2.016   0.054
 7183SOL    HW132768   3.363   2.051   0.065
 7183SOL    HW232769   3.521   2.080   0.097
 7184SOL     OW32770   4.865   6.403   2.720
 7184SOL    HW132771   4.929   6.445   2.656
 7184SOL    HW232772   4.855   6.306   2.698
 7185SOL     OW32773   7.998   8.079   4.446
 7185SOL    HW132774   7.919   8.022   4.425
 7185SOL    HW232775   8.078   8.021   4.462
 7186SOL     OW32776   6.813   0.007   1.527
 7186SOL    HW132777   6.891   0.065   1.501
 7186SOL    HW232778   6.823   9.979   1.623
 7187SOL     OW32779   8.182   6.041   1.692
 7187SOL    HW132780   8.227   5.982   1.625
 7187SOL    HW232781   8.116   5.987   1.745
 7188SOL     OW32782   0.161   6.340   6.029
 7188SOL    HW132783   0.244   6.292   6.001
 7188SOL    HW232784   0.093   6.274   6.061
 7189SOL     OW32785   5.484   0.036   3.925
 7189SOL    HW132786   5.514   9.965   3.989
 7189SOL    HW232787   5.385   0.036   3.919
 7190SOL     OW32788   0.426   9.600   5.012
 7190SOL    HW132789   0.413   9.519   5.070
 7190SOL    HW232790   0.518   9.596   4.971
 7191SOL     OW32791   1.618   1.183   5.153
 7191SOL    HW132792   1.583   1.159   5.063
 7191SOL    HW232793   1.631   1.282   5.158
 7192SOL     OW32794   9.417   4.398   0.527
 7192SOL    HW132795   9.488   4.380   0.459
 7192SOL    HW232796   9.427   4.335   0.604
 7193SOL     OW32797   7.719   9.544   5.272
 7193SOL    HW132798   7.734   9.613   5.343
 7193SOL    HW232799   7.792   9.475   5.276
 7194SOL     OW32800   6.384   4.110   0.910
 7194SOL    HW132801   6.370   4.068   1.000
 7194SOL    HW232802   6.307   4.090   0.851
 7195SOL     OW32803   7.624   4.025   3.493
 7195SOL    HW132804   7.552   3.956   3.483
 7195SOL    HW232805   7.624   4.059   3.587
 7196SOL     OW32806   9.381   0.984   2.510
 7196SOL    HW132807   9.433   1.064   2.479
 7196SOL    HW232808   9.434   0.933   2.577
 7197SOL     OW32809   4.873   2.437   3.280
 7197SOL    HW132810   4.799   2.469   3.221
 7197SOL    HW232811   4.836   2.376   3.350
 7198SOL     OW32812   4.757   1.305   2.482
 7198SOL    HW132813   4.783   1.402   2.478
 7198SOL    HW232814   4.665   1.298   2.523
 7199SOL     OW32815   2.071   5.741   3.754
 7199SOL    HW132816   2.068   5.781   3.845
 7199SOL    HW232817   2.152   5.773   3.705
 7200SOL     OW32818   1.022   7.886   4.650
 7200SOL    HW132819   0.966   7.895   4.568
 7200SOL    HW232820   1.066   7.796   4.650
 7201SOL     OW32821   3.324   2.525   0.349
 7201SOL    HW132822   3.362   2.512   0.257
 7201SOL    HW232823   3.372   2.467   0.414
 7202SOL     OW32824   1.668   8.303   0.760
 7202SOL    HW132825   1.574   8.330   0.784
 7202SOL    HW232826   1.671   8.204   0.747
 7203SOL     OW32827   6.249   9.894   4.161
 7203SOL    HW132828   6.253   9.965   4.232
 7203SOL    HW232829   6.155   9.865   4.148
 7204SOL     OW32830   0.649   7.698   3.447
 7204SOL    HW132831   0.705   7.770   3.488
 7204SOL    HW232832   0.709   7.628   3.408
 7205SOL     OW32833   7.430   4.873   0.333
 7205SOL    HW132834   7.381   4.850   0.249
 7205SOL    HW232835   7.364   4.894   0.405
 7206SOL     OW32836   9.080   7.806   5.374
 7206SOL    HW132837   9.062   7.720   5.421
 7206SOL    HW232838   9.155   7.794   5.309
 7207SOL     OW32839   3.017   3.095   4.260
 7207SOL    HW132840   2.995   3.084   4.163
 7207SOL    HW232841   2.932   3.099   4.313
 7208SOL     OW32842   1.732   5.969   4.915
 7208SOL    HW132843   1.801   5.969   4.843
 7208SOL    HW232844   1.760   6.030   4.989
 7209SOL     OW32845   3.273   5.929   1.965
 7209SOL    HW132846   3.270   5.845   2.019
 7209SOL    HW232847   3.289   5.906   1.869
 7210SOL     OW32848   0.131   6.862   5.530
 7210SOL    HW132849   0.148   6.845   5.627
 7210SOL    HW232850   0.064   6.795   5.496
 7211SOL     OW32851   1.912   0.395   5.514
 7211SOL    HW132852   1.955   0.477   5.553
 7211SOL    HW232853   1.832   0.422   5.461
 7212SOL     OW32854   4.803   2.886   1.280
 7212SOL    HW132855   4.796   2.906   1.378
 7212SOL    HW232856   4.797   2.787   1.265
 7213SOL     OW32857   9.736   6.789   1.635
 7213SOL    HW132858   9.749   6.777   1.734
 7213SOL    HW232859   9.678   6.715   1.600
 7214SOL     OW32860   8.441   9.600   6.064
 7214SOL    HW132861   8.359   9.653   6.084
 7214SOL    HW232862   8.510   9.616   6.135
 7215SOL     OW32863   3.535   9.700   0.628
 7215SOL    HW132864   3.439   9.725   0.644
 7215SOL    HW232865   3.560   9.626   0.690
 7216SOL     OW32866   8.555   9.353   0.465
 7216SOL    HW132867   8.636   9.388   0.511
 7216SOL    HW232868   8.501   9.429   0.430
 7217SOL     OW32869   7.613   1.680   0.676
 7217SOL    HW132870   7.604   1.685   0.775
 7217SOL    HW232871   7.667   1.600   0.651
 7218SOL     OW32872   3.340   0.664   4.248
 7218SOL    HW132873   3.269   0.731   4.230
 7218SOL    HW232874   3.415   0.677   4.183
 7219SOL     OW32875   9.742   5.756   4.590
 7219SOL    HW132876   9.716   5.827   4.655
 7219SOL    HW232877   9.833   5.776   4.554
 7220SOL     OW32878   2.140   8.342   3.468
 7220SOL    HW132879   2.218   8.325   3.528
 7220SOL    HW232880   2.174   8.354   3.374
 7221SOL     OW32881   9.755   1.895   0.662
 7221SOL    HW132882   9.806   1.866   0.581
 7221SOL    HW232883   9.664   1.928   0.634
 7222SOL     OW32884   1.725   8.942   2.196
 7222SOL    HW132885   1.685   8.871   2.254
 7222SOL    HW232886   1.663   9.021   2.193
 7223SOL     OW32887   9.402   5.152   4.334
 7223SOL    HW132888   9.440   5.123   4.422
 7223SOL    HW232889   9.457   5.112   4.260
 7224SOL     OW32890   2.699   2.025   6.123
 7224SOL    HW132891   2.684   2.120   6.094
 7224SOL    HW232892   2.701   2.020   6.223
 7225SOL     OW32893   1.422   6.763   1.417
 7225SOL    HW132894   1.326   6.737   1.429
 7225SOL    HW232895   1.480   6.711   1.479
 7226SOL     OW32896   7.554   5.759   0.111
 7226SOL    HW132897   7.576   5.661   0.116
 7226SOL    HW232898   7.472   5.777   0.164
 7227SOL     OW32899   9.054   3.179   5.171
 7227SOL    HW132900   8.982   3.204   5.236
 7227SOL    HW232901   9.055   3.243   5.095
 7228SOL     OW32902   0.702   3.636   0.242
 7228SOL    HW132903   0.694   3.671   0.335
 7228SOL    HW232904   0.792   3.660   0.205
 7229SOL     OW32905   9.295   0.005   2.860
 7229SOL    HW132906   9.278   0.104   2.860
 7229SOL    HW232907   9.229   9.961   2.921
 7230SOL     OW32908   8.875   7.095   2.687
 7230SOL    HW132909   8.798   7.158   2.680
 7230SOL    HW232910   8.936   7.108   2.609
 7231SOL     OW32911   3.481   0.488   0.132
 7231SOL    HW132912   3.559   0.426   0.119
 7231SOL    HW232913   3.509   0.582   0.113
 7232SOL     OW32914   7.709   7.207   6.370
 7232SOL    HW132915   7.707   7.109   6.390
 7232SOL    HW232916   7.620   7.247   6.390
 7233SOL     OW32917   2.413   3.376   3.842
 7233SOL    HW132918   2.410   3.325   3.927
 7233SOL    HW232919   2.323   3.376   3.798
 7234SOL     OW32920   5.887   0.086   2.620
 7234SOL    HW132921   5.839   0.172   2.602
 7234SOL    HW232922   5.836   0.011   2.577
 7235SOL     OW32923   5.105   2.122   3.322
 7235SOL    HW132924   5.129   2.200   3.263
 7235SOL    HW232925   5.150   2.040   3.287
 7236SOL     OW32926   1.244   4.568   0.554
 7236SOL    HW132927   1.161   4.571   0.498
 7236SOL    HW232928   1.224   4.518   0.639
 7237SOL     OW32929   4.253   5.044   3.815
 7237SOL    HW132930   4.316   5.064   3.889
 7237SOL    HW232931   4.160   5.068   3.842
 7238SOL     OW32932   3.032   0.124   6.301
 7238SOL    HW132933   2.953   0.170   6.342
 7238SOL    HW232934   3.044   0.155   6.207
 7239SOL     OW32935   1.886   5.830   5.892
 7239SOL    HW132936   1.934   5.745   5.914
 7239SOL    HW232937   1.815   5.812   5.824
 7240SOL     OW32938   2.636   6.627   0.475
 7240SOL    HW132939   2.582   6.586   0.549
 7240SOL    HW232940   2.672   6.715   0.505
 7241SOL     OW32941   2.698   8.682   1.364
 7241SOL    HW132942   2.646   8.767   1.364
 7241SOL    HW232943   2.660   8.619   1.432
 7242SOL     OW32944   6.830   9.399   2.067
 7242SOL    HW132945   6.869   9.388   1.976
 7242SOL    HW232946   6.889   9.460   2.121
 7243SOL     OW32947   7.902   8.872   1.156
 7243SOL    HW132948   7.984   8.840   1.203
 7243SOL    HW232949   7.852   8.794   1.119
 7244SOL     OW32950   0.132   3.267   2.738
 7244SOL    HW132951   0.116   3.353   2.690
 7244SOL    HW232952   0.230   3.259   2.760
 7245SOL     OW32953   2.363   0.719   5.362
 7245SOL    HW132954   2.427   0.764   5.424
 7245SOL    HW232955   2.270   0.751   5.381
 7246SOL     OW32956   0.211   4.639   0.142
 7246SOL    HW132957   0.309   4.644   0.123
 7246SOL    HW232958   0.167   4.578   0.076
 7247SOL     OW32959   4.191   5.850   2.246
 7247SOL    HW132960   4.102   5.838   2.200
 7247SOL    HW232961   4.195   5.790   2.326
 7248SOL     OW32962   7.039   0.938   5.038
 7248SOL    HW132963   6.955   0.937   4.984
 7248SOL    HW232964   7.052   0.848   5.081
 7249SOL     OW32965   2.598   2.314   1.657
 7249SOL    HW132966   2.523   2.313   1.723
 7249SOL    HW232967   2.565   2.348   1.569
 7250SOL     OW32968   9.148   0.106   3.641
 7250SOL    HW132969   9.241   0.128   3.611
 7250SOL    HW232970   9.116   0.177   3.704
 7251SOL     OW32971   6.981   2.564   4.137
 7251SOL    HW132972   7.018   2.472   4.148
 7251SOL    HW232973   6.887   2.558   4.102
 7252SOL     OW32974   7.754   8.000   4.666
 7252SOL    HW132975   7.762   7.969   4.571
 7252SOL    HW232976   7.845   8.025   4.700
 7253SOL     OW32977   8.830   0.027   4.058
 7253SOL    HW132978   8.756   9.960   4.063
 7253SOL    HW232979   8.910   9.985   4.016
 7254SOL     OW32980   3.935   2.416   1.375
 7254SOL    HW132981   3.985   2.365   1.446
 7254SOL    HW232982   3.979   2.402   1.287
 7255SOL     OW32983   1.003   8.542   4.551
 7255SOL    HW132984   0.946   8.601   4.494
 7255SOL    HW232985   0.945   8.488   4.612
 7256SOL     OW32986   4.093   3.806   5.113
 7256SOL    HW132987   4.047   3.791   5.025
 7256SOL    HW232988   4.175   3.862   5.099
 7257SOL     OW32989   9.931   5.397   4.826
 7257SOL    HW132990   9.975   5.481   4.858
 7257SOL    HW232991   9.841   5.419   4.788
 7258SOL     OW32992   5.029   0.536   1.198
 7258SOL    HW132993   5.105   0.471   1.205
 7258SOL    HW232994   5.050   0.617   1.252
 7259SOL     OW32995   0.300   2.569   2.287
 7259SOL    HW132996   0.381   2.608   2.245
 7259SOL    HW232997   0.221   2.628   2.270
 7260SOL     OW32998   0.026   4.506   4.912
 7260SOL    HW132999   0.069   4.420   4.884
 7260SOL    HW233000   0.072   4.540   4.995
 7261SOL     OW33001   4.837   1.746   6.209
 7261SOL    HW133002   4.895   1.672   6.243
 7261SOL    HW233003   4.876   1.834   6.236
 7262SOL     OW33004   1.168   5.685   6.259
 7262SOL    HW133005   1.205   5.625   6.330
 7262SOL    HW233006   1.134   5.769   6.300
 7263SOL     OW33007   8.124   8.774   5.606
 7263SOL    HW133008   8.214   8.817   5.601
 7263SOL    HW233009   8.053   8.842   5.589
 7264SOL     OW33010   6.825   8.705   5.945
 7264SOL    HW133011   6.819   8.620   5.893
 7264SOL    HW233012   6.762   8.702   6.022
 7265SOL     OW33013   2.770   3.387   6.207
 7265SOL    HW133014   2.761   3.487   6.210
 7265SOL    HW233015   2.796   3.358   6.115
 7266SOL     OW33016   4.358   1.885   2.639
 7266SOL    HW133017   4.352   1.835   2.552
 7266SOL    HW233018   4.455   1.899   2.662
 7267SOL     OW33019   0.830   8.104   1.376
 7267SOL    HW133020   0.908   8.158   1.345
 7267SOL    HW233021   0.787   8.150   1.455
 7268SOL     OW33022   8.585   6.442   3.641
 7268SOL    HW133023   8.606   6.356   3.688
 7268SOL    HW233024   8.662   6.469   3.584
 7269SOL     OW33025   7.789   2.137   0.747
 7269SOL    HW133026   7.878   2.122   0.792
 7269SOL    HW233027   7.762   2.054   0.699
 7270SOL     OW33028   9.372   4.391   5.648
 7270SOL    HW133029   9.420   4.329   5.586
 7270SOL    HW233030   9.376   4.485   5.612
 7271SOL     OW33031   8.657   0.503   5.275
 7271SOL    HW133032   8.576   0.552   5.241
 7271SOL    HW233033   8.658   0.411   5.236
 7272SOL     OW33034   1.863   8.942   4.885
 7272SOL    HW133035   1.783   9.001   4.898
 7272SOL    HW233036   1.836   8.847   4.896
 7273SOL     OW33037   4.374   8.510   5.453
 7273SOL    HW133038   4.364   8.431   5.513
 7273SOL    HW233039   4.424   8.484   5.370
 7274SOL     OW33040   8.390   5.425   3.441
 7274SOL    HW133041   8.437   5.492   3.497
 7274SOL    HW233042   8.303   5.463   3.408
 7275SOL     OW33043   7.399   0.246   5.109
 7275SOL    HW133044   7.325   0.195   5.065
 7275SOL    HW233045   7.457   0.183   5.160
 7276SOL     OW33046   3.892   6.733   3.740
 7276SOL    HW133047   3.874   6.793   3.817
 7276SOL    HW233048   3.980   6.758   3.698
 7277SOL     OW33049   2.428   3.681   4.209
 7277SOL    HW133050   2.426   3.606   4.276
 7277SOL    HW233051   2.364   3.752   4.236
 7278SOL     OW33052   2.019   4.411   2.541
 7278SOL    HW133053   1.967   4.488   2.504
 7278SOL    HW233054   1.981   4.325   2.505
 7279SOL     OW33055   6.772   9.649   1.432
 7279SOL    HW133056   6.799   9.624   1.525
 7279SOL    HW233057   6.705   9.723   1.435
 7280SOL     OW33058   7.525   7.331   0.063
 7280SOL    HW133059   7.439   7.350   0.110
 7280SOL    HW233060   7.509   7.266   8.177
 7281SOL     OW33061   1.875   9.698   4.753
 7281SOL    HW133062   1.801   9.709   4.820
 7281SOL    HW233063   1.924   9.613   4.771
 7282SOL     OW33064   9.203   4.360   2.941
 7282SOL    HW133065   9.158   4.346   3.029
 7282SOL    HW233066   9.172   4.290   2.876
 7283SOL     OW33067   1.325   2.012   1.438
 7283SOL    HW133068   1.371   2.097   1.464
 7283SOL    HW233069   1.231   2.032   1.411
 7284SOL     OW33070   0.123   0.574   3.837
 7284SOL    HW133071   0.044   0.602   3.782
 7284SOL    HW233072   0.197   0.640   3.826
 7285SOL     OW33073   7.871   6.212   1.481
 7285SOL    HW133074   7.805   6.270   1.529
 7285SOL    HW233075   7.860   6.224   1.382
 7286SOL     OW33076   2.312   2.719   2.545
 7286SOL    HW133077   2.229   2.681   2.504
 7286SOL    HW233078   2.291   2.754   2.636
 7287SOL     OW33079   1.266   8.636   6.212
 7287SOL    HW133080   1.183   8.584   6.234
 7287SOL    HW233081   1.244   8.734   6.209
 7288SOL     OW33082   4.351   3.740   0.454
 7288SOL    HW133083   4.375   3.647   0.483
 7288SOL    HW233084   4.259   3.762   0.488
 7289SOL     OW33085   9.953   8.766   0.815
 7289SOL    HW133086   0.021   8.830   0.779
 7289SOL    HW233087   9.872   8.768   0.756
 7290SOL     OW33088   8.452   6.937   2.152
 7290SOL    HW133089   8.377   6.962   2.214
 7290SOL    HW233090   8.481   6.844   2.172
 7291SOL     OW33091   3.155   1.406   2.285
 7291SOL    HW133092   3.217   1.416   2.207
 7291SOL    HW233093   3.083   1.340   2.263
 7292SOL     OW33094   1.443   3.811   4.981
 7292SOL    HW133095   1.354   3.767   4.995
 7292SOL    HW233096   1.478   3.787   4.890
 7293SOL     OW33097   8.725   2.152   3.707
 7293SOL    HW133098   8.754   2.216   3.779
 7293SOL    HW233099   8.654   2.092   3.744
 7294SOL     OW33100   6.854   4.241   0.736
 7294SOL    HW133101   6.807   4.314   0.785
 7294SOL    HW233102   6.803   4.217   0.654
 7295SOL     OW33103   7.888   1.006   3.219
 7295SOL    HW133104   7.844   0.919   3.196
 7295SOL    HW233105   7.833   1.054   3.287
 7296SOL     OW33106   1.568   9.158   6.023
 7296SOL    HW133107   1.488   9.110   5.985
 7296SOL    HW233108   1.641   9.092   6.040
 7297SOL     OW33109   8.468   5.397   1.254
 7297SOL    HW133110   8.537   5.325   1.262
 7297SOL    HW233111   8.508   5.485   1.279
 7298SOL     OW33112   5.773   0.612   6.291
 7298SOL    HW133113   5.695   0.656   6.334
 7298SOL    HW233114   5.776   0.516   6.318
 7299SOL     OW33115   5.394   2.112   4.545
 7299SOL    HW133116   5.410   2.036   4.608
 7299SOL    HW233117   5.296   2.124   4.530
 7300SOL     OW33118   9.475   2.191   3.328
 7300SOL    HW133119   9.551   2.256   3.324
 7300SOL    HW233120   9.395   2.235   3.369
 7301SOL     OW33121   2.055   1.310   4.176
 7301SOL    HW133122   2.002   1.275   4.099
 7301SOL    HW233123   2.109   1.236   4.216
 7302SOL     OW33124   0.891   0.781   1.459
 7302SOL    HW133125   0.961   0.831   1.407
 7302SOL    HW233126   0.829   0.735   1.396
 7303SOL     OW33127   5.575   1.291   5.822
 7303SOL    HW133128   5.557   1.196   5.799
 7303SOL    HW233129   5.568   1.348   5.740
 7304SOL     OW33130   8.473   1.438   6.363
 7304SOL    HW133131   8.381   1.471   6.383
 7304SOL    HW233132   8.533   1.457   6.441
 7305SOL     OW33133   7.945   2.896   2.176
 7305SOL    HW133134   7.903   2.956   2.108
 7305SOL    HW233135   7.884   2.888   2.255
 7306SOL     OW33136   0.993   0.499   0.000
 7306SOL    HW133137   0.907   0.472   0.043
 7306SOL    HW233138   1.021   0.588   0.037
 7307SOL     OW33139   3.770   9.783   1.629
 7307SOL    HW133140   3.712   9.785   1.710
 7307SOL    HW233141   3.737   9.712   1.567
 7308SOL     OW33142   2.674   7.827   5.388
 7308SOL    HW133143   2.670   7.732   5.417
 7308SOL    HW233144   2.666   7.832   5.288
 7309SOL     OW33145   5.601   5.974   0.853
 7309SOL    HW133146   5.625   5.887   0.809
 7309SOL    HW233147   5.519   6.011   0.811
 7310SOL     OW33148   7.190   3.758   6.004
 7310SOL    HW133149   7.237   3.807   5.931
 7310SOL    HW233150   7.099   3.730   5.972
 7311SOL     OW33151   8.385   2.288   0.522
 7311SOL    HW133152   8.332   2.372   0.512
 7311SOL    HW233153   8.472   2.307   0.566
 7312SOL     OW33154   9.199   8.361   5.149
 7312SOL    HW133155   9.162   8.287   5.206
 7312SOL    HW233156   9.137   8.378   5.072
 7313SOL     OW33157   8.654   7.639   2.520
 7313SOL    HW133158   8.562   7.635   2.558
 7313SOL    HW233159   8.654   7.605   2.426
 7314SOL     OW33160   9.040   2.498   3.787
 7314SOL    HW133161   9.004   2.415   3.831
 7314SOL    HW233162   8.965   2.547   3.742
 7315SOL     OW33163   9.549   3.224   3.816
 7315SOL    HW133164   9.600   3.233   3.730
 7315SOL    HW233165   9.559   3.132   3.852
 7316SOL     OW33166   5.783   0.399   1.188
 7316SOL    HW133167   5.862   0.350   1.151
 7316SOL    HW233168   5.769   0.484   1.136
 7317SOL     OW33169   9.871   3.384   1.352
 7317SOL    HW133170   9.853   3.452   1.423
 7317SOL    HW233171   9.821   3.410   1.269
 7318SOL     OW33172   1.596   6.441   1.870
 7318SOL    HW133173   1.644   6.507   1.928
 7318SOL    HW233174   1.510   6.414   1.914
 7319SOL     OW33175   8.564   2.727   4.028
 7319SOL    HW133176   8.543   2.786   3.950
 7319SOL    HW233177   8.588   2.782   4.107
 7320SOL     OW33178   8.332   0.680   3.453
 7320SOL    HW133179   8.421   0.716   3.424
 7320SOL    HW233180   8.308   0.720   3.541
 7321SOL     OW33181   0.154   1.084   2.944
 7321SOL    HW133182   0.055   1.101   2.943
 7321SOL    HW233183   0.188   1.091   3.038
 7322SOL     OW33184   1.476   2.797   5.503
 7322SOL    HW133185   1.547   2.817   5.570
 7322SOL    HW233186   1.481   2.700   5.478
 7323SOL     OW33187   1.939   7.906   4.048
 7323SOL    HW133188   2.020   7.895   3.990
 7323SOL    HW233189   1.864   7.942   3.992
 7324SOL     OW33190   3.556   6.175   1.595
 7324SOL    HW133191   3.482   6.241   1.605
 7324SOL    HW233192   3.613   6.176   1.677
 7325SOL     OW33193   1.982   1.282   2.011
 7325SOL    HW133194   1.908   1.220   2.037
 7325SOL    HW233195   2.010   1.263   1.917
 7326SOL     OW33196   3.498   4.572   5.911
 7326SOL    HW133197   3.432   4.503   5.882
 7326SOL    HW233198   3.449   4.652   5.946
 7327SOL     OW33199   1.179   5.420   3.663
 7327SOL    HW133200   1.264   5.368   3.671
 7327SOL    HW233201   1.194   5.514   3.696
 7328SOL     OW33202   2.921   4.072   4.755
 7328SOL    HW133203   2.999   4.105   4.806
 7328SOL    HW233204   2.952   4.029   4.670
 7329SOL     OW33205   3.646   6.042   5.774
 7329SOL    HW133206   3.705   6.124   5.774
 7329SOL    HW233207   3.553   6.069   5.799
 7330SOL     OW33208   4.684   7.679   5.425
 7330SOL    HW133209   4.603   7.701   5.479
 7330SOL    HW233210   4.708   7.583   5.440
 7331SOL     OW33211   3.869   5.756   2.409
 7331SOL    HW133212   3.807   5.682   2.381
 7331SOL    HW233213   3.827   5.808   2.483
 7332SOL     OW33214   5.447   9.927   3.585
 7332SOL    HW133215   5.497   0.005   3.622
 7332SOL    HW233216   5.426   9.862   3.658
 7333SOL     OW33217   9.542   9.540   5.701
 7333SOL    HW133218   9.584   9.616   5.752
 7333SOL    HW233219   9.486   9.485   5.762
 7334SOL     OW33220   2.527   7.305   3.648
 7334SOL    HW133221   2.514   7.401   3.623
 7334SOL    HW233222   2.617   7.274   3.615
 7335SOL     OW33223   5.257   1.385   4.957
 7335SOL    HW133224   5.281   1.468   4.908
 7335SOL    HW233225   5.224   1.316   4.893
 7336SOL     OW33226   2.937   3.267   1.785
 7336SOL    HW133227   2.892   3.307   1.865
 7336SOL    HW233228   2.888   3.184   1.757
 7337SOL     OW33229   4.152   2.112   0.260
 7337SOL    HW133230   4.084   2.151   0.198
 7337SOL    HW233231   4.127   2.017   0.282
 7338SOL     OW33232   3.695   9.968   3.782
 7338SOL    HW133233   3.743   9.900   3.727
 7338SOL    HW233234   3.700   0.057   3.737
 7339SOL     OW33235   4.783   2.765   4.989
 7339SOL    HW133236   4.880   2.738   4.992
 7339SOL    HW233237   4.773   2.848   4.936
 7340SOL     OW33238   9.871   2.622   2.040
 7340SOL    HW133239   9.838   2.620   1.946
 7340SOL    HW233240   9.887   2.529   2.072
 7341SOL     OW33241   9.425   5.248   5.694
 7341SOL    HW133242   9.412   5.163   5.745
 7341SOL    HW233243   9.449   5.226   5.599
 7342SOL     OW33244   8.275   4.590   3.829
 7342SOL    HW133245   8.197   4.547   3.783
 7342SOL    HW233246   8.291   4.545   3.916
 7343SOL     OW33247   3.645   7.811   3.998
 7343SOL    HW133248   3.699   7.727   4.002
 7343SOL    HW233249   3.703   7.889   4.019
 7344SOL     OW33250   3.511   0.408   1.480
 7344SOL    HW133251   3.496   0.470   1.403
 7344SOL    HW233252   3.427   0.357   1.499
 7345SOL     OW33253   2.963   8.705   5.076
 7345SOL    HW133254   3.035   8.656   5.123
 7345SOL    HW233255   2.906   8.754   5.142
 7346SOL     OW33256   9.433   2.150   3.691
 7346SOL    HW133257   9.447   2.240   3.649
 7346SOL    HW233258   9.517   2.097   3.686
 7347SOL     OW33259   3.955   3.031   6.267
 7347SOL    HW133260   4.046   3.071   6.258
 7347SOL    HW233261   3.897   3.064   6.192
 7348SOL     OW33262   6.200   1.253   1.651
 7348SOL    HW133263   6.132   1.310   1.696
 7348SOL    HW233264   6.228   1.179   1.713
 7349SOL     OW33265   0.860   4.459   1.086
 7349SOL    HW133266   0.765   4.483   1.103
 7349SOL    HW233267   0.864   4.384   1.020
 7350SOL     OW33268   1.229   0.514   6.184
 7350SOL    HW133269   1.239   0.434   6.125
 7350SOL    HW233270   1.318   0.556   6.199
 7351SOL     OW33271   8.772   9.156   3.158
 7351SOL    HW133272   8.761   9.214   3.077
 7351SOL    HW233273   8.817   9.209   3.230
 7352SOL     OW33274   9.103   5.397   2.100
 7352SOL    HW133275   9.197   5.387   2.135
 7352SOL    HW233276   9.065   5.483   2.134
 7353SOL     OW33277   0.770   8.601   6.425
 7353SOL    HW133278   0.687   8.646   6.393
 7353SOL    HW233279   0.850   8.645   6.383
 7354SOL     OW33280   3.373   6.548   3.909
 7354SOL    HW133281   3.429   6.532   3.990
 7354SOL    HW233282   3.276   6.535   3.933
 7355SOL     OW33283   0.412   3.868   2.145
 7355SOL    HW133284   0.423   3.967   2.132
 7355SOL    HW233285   0.453   3.820   2.068
 7356SOL     OW33286   2.285   7.341   5.889
 7356SOL    HW133287   2.280   7.344   5.789
 7356SOL    HW233288   2.363   7.286   5.917
 7357SOL     OW33289   1.698   5.927   2.205
 7357SOL    HW133290   1.761   5.885   2.140
 7357SOL    HW233291   1.748   5.951   2.289
 7358SOL     OW33292   3.805   8.278   6.149
 7358SOL    HW133293   3.718   8.231   6.130
 7358SOL    HW233294   3.820   8.349   6.079
 7359SOL     OW33295   3.790   8.531   1.455
 7359SOL    HW133296   3.791   8.618   1.407
 7359SOL    HW233297   3.871   8.478   1.430
 7360SOL     OW33298   8.442   9.464   5.629
 7360SOL    HW133299   8.378   9.398   5.589
 7360SOL    HW233300   8.515   9.484   5.563
 7361SOL     OW33301   1.371   9.726   5.167
 7361SOL    HW133302   1.389   9.824   5.159
 7361SOL    HW233303   1.457   9.676   5.158
 7362SOL     OW33304   8.019   4.867   0.367
 7362SOL    HW133305   8.109   4.903   0.390
 7362SOL    HW233306   7.966   4.854   0.451
 7363SOL     OW33307   0.800   7.980   3.265
 7363SOL    HW133308   0.756   8.057   3.311
 7363SOL    HW233309   0.846   8.013   3.182
 7364SOL     OW33310   1.507   8.294   5.663
 7364SOL    HW133311   1.509   8.208   5.715
 7364SOL    HW233312   1.429   8.294   5.601
 7365SOL     OW33313   2.147   3.162   1.823
 7365SOL    HW133314   2.201   3.230   1.872
 7365SOL    HW233315   2.057   3.201   1.802
 7366SOL     OW33316   2.883   9.465   2.150
 7366SOL    HW133317   2.918   9.558   2.163
 7366SOL    HW233318   2.950   9.411   2.100
 7367SOL     OW33319   8.470   2.108   4.867
 7367SOL    HW133320   8.488   2.161   4.950
 7367SOL    HW233321   8.541   2.039   4.855
 7368SOL     OW33322   2.904   6.918   4.892
 7368SOL    HW133323   2.924   6.972   4.810
 7368SOL    HW233324   2.830   6.854   4.872
 7369SOL     OW33325   7.294   2.638   1.853
 7369SOL    HW133326   7.308   2.547   1.891
 7369SOL    HW233327   7.327   2.640   1.758
 7370SOL     OW33328   7.577   2.016   3.993
 7370SOL    HW133329   7.645   2.083   4.021
 7370SOL    HW233330   7.584   1.935   4.051
 7371SOL     OW33331   1.665   1.899   4.554
 7371SOL    HW133332   1.699   1.988   4.582
 7371SOL    HW233333   1.622   1.906   4.464
 7372SOL     OW33334   4.552   0.292   2.698
 7372SOL    HW133335   4.587   0.376   2.737
 7372SOL    HW233336   4.570   0.291   2.599
 7373SOL     OW33337   7.968   2.591   1.467
 7373SOL    HW133338   7.941   2.661   1.534
 7373SOL    HW233339   7.947   2.625   1.375
 7374SOL     OW33340   4.161   1.255   5.293
 7374SOL    HW133341   4.165   1.322   5.218
 7374SOL    HW233342   4.072   1.262   5.339
 7375SOL     OW33343   0.705   5.647   2.041
 7375SOL    HW133344   0.634   5.615   1.977
 7375SOL    HW233345   0.727   5.574   2.106
 7376SOL     OW33346   2.403   5.294   2.974
 7376SOL    HW133347   2.394   5.277   3.072
 7376SOL    HW233348   2.356   5.379   2.951
 7377SOL     OW33349   8.297   9.163   1.074
 7377SOL    HW133350   8.286   9.234   1.143
 7377SOL    HW233351   8.207   9.124   1.050
 7378SOL     OW33352   0.122   0.905   5.387
 7378SOL    HW133353   0.123   0.999   5.352
 7378SOL    HW233354   0.076   0.845   5.322
 7379SOL     OW33355   1.203   1.759   1.438
 7379SOL    HW133356   1.242   1.690   1.500
 7379SOL    HW233357   1.255   1.844   1.447
 7380SOL     OW33358   2.171   9.367   1.994
 7380SOL    HW133359   2.173   9.275   2.032
 7380SOL    HW233360   2.130   9.365   1.903
 7381SOL     OW33361   3.613   2.402   4.171
 7381SOL    HW133362   3.551   2.436   4.242
 7381SOL    HW233363   3.697   2.369   4.213
 7382SOL     OW33364   5.208   8.672   5.160
 7382SOL    HW133365   5.142   8.621   5.105
 7382SOL    HW233366   5.166   8.757   5.192
 7383SOL     OW33367   1.469   9.098   2.888
 7383SOL    HW133368   1.558   9.100   2.842
 7383SOL    HW233369   1.480   9.126   2.983
 7384SOL     OW33370   8.967   7.244   1.767
 7384SOL    HW133371   8.874   7.228   1.735
 7384SOL    HW233372   9.022   7.161   1.751
 7385SOL     OW33373   1.875   1.475   0.660
 7385SOL    HW133374   1.939   1.439   0.728
 7385SOL    HW233375   1.854   1.571   0.682
 7386SOL     OW33376   2.529   5.464   3.323
 7386SOL    HW133377   2.487   5.554   3.312
 7386SOL    HW233378   2.465   5.394   3.291
 7387SOL     OW33379   9.960   2.385   0.084
 7387SOL    HW133380   0.049   2.339   0.084
 7387SOL    HW233381   9.974   2.483   0.099
 7388SOL     OW33382   1.813   5.878   3.942
 7388SOL    HW133383   1.911   5.877   3.962
 7388SOL    HW233384   1.779   5.785   3.936
 7389SOL     OW33385   3.999   1.178   1.731
 7389SOL    HW133386   4.063   1.218   1.666
 7389SOL    HW233387   3.925   1.133   1.681
 7390SOL     OW33388   0.850   2.841   3.018
 7390SOL    HW133389   0.840   2.862   2.920
 7390SOL    HW233390   0.874   2.745   3.029
 7391SOL     OW33391   9.905   2.637   2.447
 7391SOL    HW133392   9.961   2.652   2.365
 7391SOL    HW233393   9.813   2.609   2.420
 7392SOL     OW33394   9.026   4.454   6.358
 7392SOL    HW133395   9.033   4.463   6.457
 7392SOL    HW233396   8.936   4.419   6.333
 7393SOL     OW33397   9.738   2.674   5.366
 7393SOL    HW133398   9.738   2.754   5.427
 7393SOL    HW233399   9.655   2.676   5.310
 7394SOL     OW33400   2.073   6.663   0.482
 7394SOL    HW133401   1.983   6.675   0.439
 7394SOL    HW233402   2.132   6.611   0.421
 7395SOL     OW33403   5.078   9.965   4.391
 7395SOL    HW133404   5.067   0.044   4.452
 7395SOL    HW233405   5.149   9.905   4.427
 7396SOL     OW33406   5.604   9.711   1.642
 7396SOL    HW133407   5.573   9.692   1.549
 7396SOL    HW233408   5.538   9.769   1.688
 7397SOL     OW33409   2.611   7.547   3.875
 7397SOL    HW133410   2.567   7.551   3.786
 7397SOL    HW233411   2.557   7.598   3.942
 7398SOL     OW33412   7.319   4.500   0.352
 7398SOL    HW133413   7.277   4.536   0.268
 7398SOL    HW233414   7.387   4.431   0.327
 7399SOL     OW33415   6.272   1.908   0.592
 7399SOL    HW133416   6.240   1.849   0.518
 7399SOL    HW233417   6.217   1.992   0.594
 7400SOL     OW33418   0.621   3.303   1.979
 7400SOL    HW133419   0.646   3.353   1.896
 7400SOL    HW233420   0.602   3.208   1.956
 7401SOL     OW33421   9.571   1.054   5.152
 7401SOL    HW133422   9.611   1.033   5.241
 7401SOL    HW233423   9.643   1.064   5.084
 7402SOL     OW33424   0.004   5.069   1.661
 7402SOL    HW133425   9.962   5.060   1.751
 7402SOL    HW233426   9.935   5.099   1.595
 7403SOL     OW33427   0.469   7.332   5.753
 7403SOL    HW133428   0.464   7.240   5.713
 7403SOL    HW233429   0.384   7.381   5.734
 7404SOL     OW33430   2.561   3.537   4.799
 7404SOL    HW133431   2.605   3.527   4.709
 7404SOL    HW233432   2.462   3.540   4.786
 7405SOL     OW33433   1.171   6.210   5.054
 7405SOL    HW133434   1.080   6.179   5.023
 7405SOL    HW233435   1.224   6.131   5.085
 7406SOL     OW33436   2.718   5.262   3.334
 7406SOL    HW133437   2.787   5.287   3.266
 7406SOL    HW233438   2.647   5.332   3.337
 7407SOL     OW33439   6.641   9.764   4.121
 7407SOL    HW133440   6.651   9.825   4.200
 7407SOL    HW233441   6.711   9.786   4.053
 7408SOL     OW33442   0.511   9.231   4.972
 7408SOL    HW133443   0.461   9.282   5.043
 7408SOL    HW233444   0.609   9.253   4.979
 7409SOL     OW33445   8.416   6.220   5.529
 7409SOL    HW133446   8.444   6.299   5.475
 7409SOL    HW233447   8.404   6.141   5.469
 7410SOL     OW33448   5.544   0.790   1.815
 7410SOL    HW133449   5.521   0.759   1.907
 7410SOL    HW233450   5.548   0.890   1.813
 7411SOL     OW33451   2.013   2.835   0.764
 7411SOL    HW133452   2.040   2.830   0.667
 7411SOL    HW233453   1.922   2.875   0.771
 7412SOL     OW33454   5.266   7.767   5.296
 7412SOL    HW133455   5.172   7.733   5.286
 7412SOL    HW233456   5.285   7.787   5.392
 7413SOL     OW33457   8.325   5.799   2.752
 7413SOL    HW133458   8.399   5.750   2.707
 7413SOL    HW233459   8.290   5.745   2.828
 7414SOL     OW33460   5.184   6.140   1.577
 7414SOL    HW133461   5.231   6.157   1.663
 7414SOL    HW233462   5.113   6.070   1.591
 7415SOL     OW33463   0.062   9.620   5.847
 7415SOL    HW133464   0.013   9.537   5.874
 7415SOL    HW233465   0.010   9.700   5.877
 7416SOL     OW33466   3.098   5.891   2.435
 7416SOL    HW133467   3.070   5.855   2.346
 7416SOL    HW233468   3.051   5.978   2.452
 7417SOL     OW33469   0.171   2.069   6.264
 7417SOL    HW133470   0.107   2.143   6.244
 7417SOL    HW233471   0.121   1.982   6.270
 7418SOL     OW33472   1.549   1.969   3.686
 7418SOL    HW133473   1.544   1.928   3.595
 7418SOL    HW233474   1.487   2.048   3.691
 7419SOL     OW33475   0.878   7.822   4.414
 7419SOL    HW133476   0.848   7.835   4.320
 7419SOL    HW233477   0.930   7.737   4.422
 7420SOL     OW33478   1.524   7.638   2.906
 7420SOL    HW133479   1.573   7.705   2.850
 7420SOL    HW233480   1.459   7.685   2.966
 7421SOL     OW33481   4.353   1.354   4.939
 7421SOL    HW133482   4.449   1.363   4.965
 7421SOL    HW233483   4.295   1.394   5.010
 7422SOL     OW33484   1.790   1.879   6.062
 7422SOL    HW133485   1.811   1.925   6.148
 7422SOL    HW233486   1.693   1.889   6.042
 7423SOL     OW33487   1.409   2.087   5.078
 7423SOL    HW133488   1.465   2.034   5.142
 7423SOL    HW233489   1.399   2.036   4.992
 7424SOL     OW33490   9.070   2.112   6.175
 7424SOL    HW133491   9.069   2.134   6.078
 7424SOL    HW233492   9.132   2.035   6.191
 7425SOL     OW33493   7.982   3.527   1.622
 7425SOL    HW133494   7.917   3.561   1.690
 7425SOL    HW233495   8.023   3.442   1.654
 7426SOL     OW33496   0.936   6.938   3.335
 7426SOL    HW133497   0.880   6.999   3.390
 7426SOL    HW233498   0.879   6.894   3.265
 7427SOL     OW33499   2.399   1.861   2.885
 7427SOL    HW133500   2.378   1.767   2.913
 7427SOL    HW233501   2.382   1.871   2.787
 7428SOL     OW33502   7.844   0.855   4.054
 7428SOL    HW133503   7.856   0.759   4.028
 7428SOL    HW233504   7.887   0.914   3.986
 7429SOL     OW33505   9.068   7.625   3.690
 7429SOL    HW133506   9.028   7.693   3.752
 7429SOL    HW233507   9.127   7.671   3.623
 7430SOL     OW33508   9.407   1.953   5.200
 7430SOL    HW133509   9.426   1.935   5.103
 7430SOL    HW233510   9.493   1.962   5.250
 7431SOL     OW33511   8.592   2.419   4.787
 7431SOL    HW133512   8.518   2.450   4.847
 7431SOL    HW233513   8.669   2.388   4.842
 7432SOL     OW33514   7.811   8.449   2.385
 7432SOL    HW133515   7.824   8.452   2.484
 7432SOL    HW233516   7.791   8.355   2.356
 7433SOL     OW33517   9.645   7.972   2.744
 7433SOL    HW133518   9.567   8.031   2.720
 7433SOL    HW233519   9.624   7.922   2.828
 7434SOL     OW33520   8.324   3.648   2.626
 7434SOL    HW133521   8.331   3.548   2.637
 7434SOL    HW233522   8.335   3.692   2.716
 7435SOL     OW33523   2.094   9.784   5.725
 7435SOL    HW133524   2.151   9.717   5.774
 7435SOL    HW233525   2.094   9.761   5.628
 7436SOL     OW33526   4.083   9.692   3.204
 7436SOL    HW133527   4.153   9.688   3.275
 7436SOL    HW233528   4.099   9.771   3.145
 7437SOL     OW33529   6.596   7.455   5.366
 7437SOL    HW133530   6.693   7.463   5.341
 7437SOL    HW233531   6.589   7.416   5.458
 7438SOL     OW33532   0.749   6.402   3.931
 7438SOL    HW133533   0.832   6.421   3.982
 7438SOL    HW233534   0.683   6.475   3.947
 7439SOL     OW33535   7.363   1.753   0.573
 7439SOL    HW133536   7.331   1.825   0.636
 7439SOL    HW233537   7.453   1.721   0.603
 7440SOL     OW33538   4.338   7.214   3.625
 7440SOL    HW133539   4.263   7.215   3.559
 7440SOL    HW233540   4.401   7.288   3.606
 7441SOL     OW33541   9.666   4.579   4.191
 7441SOL    HW133542   9.670   4.479   4.199
 7441SOL    HW233543   9.691   4.620   4.279
 7442SOL     OW33544   0.735   7.703   0.499
 7442SOL    HW133545   0.832   7.725   0.501
 7442SOL    HW233546   0.688   7.766   0.438
 7443SOL     OW33547   5.819   3.623   0.204
 7443SOL    HW133548   5.848   3.688   0.275
 7443SOL    HW233549   5.719   3.619   0.201
 7444SOL     OW33550   4.041   0.184   2.307
 7444SOL    HW133551   4.106   0.136   2.367
 7444SOL    HW233552   4.047   0.146   2.215
 7445SOL     OW33553   2.795   4.919   0.588
 7445SOL    HW133554   2.778   4.826   0.621
 7445SOL    HW233555   2.892   4.929   0.566
 7446SOL     OW33556   7.526   0.433   6.303
 7446SOL    HW133557   7.445   0.406   6.356
 7446SOL    HW233558   7.521   0.391   6.212
 7447SOL     OW33559   0.925   8.960   5.418
 7447SOL    HW133560   0.954   8.868   5.389
 7447SOL    HW233561   0.826   8.969   5.405
 7448SOL     OW33562   0.962   0.624   4.641
 7448SOL    HW133563   0.928   0.687   4.711
 7448SOL    HW233564   1.040   0.665   4.594
 7449SOL     OW33565   0.802   6.575   2.845
 7449SOL    HW133566   0.715   6.527   2.837
 7449SOL    HW233567   0.856   6.559   2.762
 7450SOL     OW33568   6.712   2.459   3.572
 7450SOL    HW133569   6.788   2.459   3.506
 7450SOL    HW233570   6.659   2.543   3.561
 7451SOL     OW33571   4.651   9.102   5.257
 7451SOL    HW133572   4.668   9.008   5.286
 7451SOL    HW233573   4.560   9.131   5.288
 7452SOL     OW33574   8.822   7.974   6.157
 7452SOL    HW133575   8.882   7.894   6.153
 7452SOL    HW233576   8.834   8.021   6.245
 7453SOL     OW33577   1.072   0.016   3.090
 7453SOL    HW133578   1.033   0.089   3.146
 7453SOL    HW233579   1.096   9.939   3.149
 7454SOL     OW33580   2.550   8.606   0.657
 7454SOL    HW133581   2.498   8.661   0.721
 7454SOL    HW233582   2.586   8.664   0.584
 7455SOL     OW33583   6.276   0.250   2.843
 7455SOL    HW133584   6.226   0.207   2.919
 7455SOL    HW233585   6.363   0.285   2.877
 7456SOL     OW33586   2.318   9.591   4.635
 7456SOL    HW133587   2.229   9.568   4.594
 7456SOL    HW233588   2.374   9.641   4.569
 7457SOL     OW33589   3.673   3.915   0.803
 7457SOL    HW133590   3.706   3.964   0.722
 7457SOL    HW233591   3.690   3.970   0.885
 7458SOL     OW33592   1.096   4.307   1.945
 7458SOL    HW133593   1.151   4.390   1.947
 7458SOL    HW233594   1.024   4.315   1.877
 7459SOL     OW33595   7.142   0.724   6.018
 7459SOL    HW133596   7.085   0.706   6.098
 7459SOL    HW233597   7.101   0.797   5.963
 7460SOL     OW33598   9.561   5.514   6.077
 7460SOL    HW133599   9.489   5.475   6.020
 7460SOL    HW233600   9.600   5.594   6.031
 7461SOL     OW33601   5.795   5.638   1.712
 7461SOL    HW133602   5.848   5.698   1.652
 7461SOL    HW233603   5.716   5.601   1.662
 7462SOL     OW33604   6.087   1.549   6.137
 7462SOL    HW133605   6.140   1.470   6.107
 7462SOL    HW233606   6.136   1.633   6.114
 7463SOL     OW33607   9.444   8.298   2.266
 7463SOL    HW133608   9.426   8.288   2.168
 7463SOL    HW233609   9.431   8.210   2.311
 7464SOL     OW33610   9.823   1.307   3.766
 7464SOL    HW133611   9.768   1.387   3.740
 7464SOL    HW233612   9.791   1.227   3.715
 7465SOL     OW33613   1.807   9.958   6.010
 7465SOL    HW133614   1.708   9.966   6.007
 7465SOL    HW233615   1.836   9.875   5.962
 7466SOL     OW33616   4.273   6.882   0.518
 7466SOL    HW133617   4.174   6.874   0.529
 7466SOL    HW233618   4.302   6.973   0.550
 7467SOL     OW33619   6.891   8.444   6.207
 7467SOL    HW133620   6.939   8.425   6.121
 7467SOL    HW233621   6.920   8.532   6.243
 7468SOL     OW33622   9.903   7.901   6.271
 7468SOL    HW133623   9.905   7.801   6.281
 7468SOL    HW233624   9.826   7.927   6.213
 7469SOL     OW33625   7.799   9.727   5.974
 7469SOL    HW133626   7.706   9.724   5.935
 7469SOL    HW233627   7.792   9.731   6.074
 7470SOL     OW33628   3.231   0.963   0.646
 7470SOL    HW133629   3.273   1.021   0.576
 7470SOL    HW233630   3.154   1.011   0.688
 7471SOL     OW33631   2.458   9.807   2.957
 7471SOL    HW133632   2.528   9.865   2.917
 7471SOL    HW233633   2.442   9.728   2.897
 7472SOL     OW33634   1.924   1.439   1.633
 7472SOL    HW133635   1.833   1.463   1.601
 7472SOL    HW233636   1.985   1.428   1.554
 7473SOL     OW33637   2.522   3.015   1.794
 7473SOL    HW133638   2.515   3.107   1.831
 7473SOL    HW233639   2.446   2.999   1.730
 7474SOL     OW33640   9.551   2.440   5.038
 7474SOL    HW133641   9.565   2.343   5.059
 7474SOL    HW233642   9.484   2.449   4.964
 7475SOL     OW33643   7.151   9.934   4.703
 7475SOL    HW133644   7.195   9.891   4.624
 7475SOL    HW233645   7.192   0.024   4.718
 7476SOL     OW33646   0.601   6.416   4.952
 7476SOL    HW133647   0.606   6.450   5.046
 7476SOL    HW233648   0.506   6.416   4.921
 7477SOL     OW33649   0.433   8.619   5.317
 7477SOL    HW133650   0.432   8.520   5.306
 7477SOL    HW233651   0.341   8.655   5.300
 7478SOL     OW33652   1.554   5.010   2.768
 7478SOL    HW133653   1.652   5.024   2.782
 7478SOL    HW233654   1.529   4.917   2.793
 7479SOL     OW33655   7.974   7.552   2.932
 7479SOL    HW133656   7.947   7.631   2.877
 7479SOL    HW233657   8.066   7.567   2.968
 7480SOL     OW33658   9.941   7.903   4.283
 7480SOL    HW133659   0.014   7.869   4.224
 7480SOL    HW233660   9.971   7.988   4.327
 7481SOL     OW33661   6.038   1.423   1.844
 7481SOL    HW133662   5.956   1.455   1.891
 7481SOL    HW233663   6.109   1.493   1.848
 7482SOL     OW33664   7.189   3.932   2.539
 7482SOL    HW133665   7.249   4.003   2.502
 7482SOL    HW233666   7.188   3.938   2.639
 7483SOL     OW33667   1.253   3.328   1.253
 7483SOL    HW133668   1.271   3.344   1.350
 7483SOL    HW233669   1.196   3.247   1.242
 7484SOL     OW33670   3.913   2.956   3.797
 7484SOL    HW133671   3.902   2.988   3.703
 7484SOL    HW233672   3.828   2.913   3.828
 7485SOL     OW33673   0.573   8.684   1.672
 7485SOL    HW133674   0.480   8.651   1.684
 7485SOL    HW233675   0.571   8.774   1.628
 7486SOL     OW33676   5.550   0.493   3.050
 7486SOL    HW133677   5.560   0.413   3.108
 7486SOL    HW233678   5.477   0.478   2.984
 7487SOL     OW33679   2.399   8.918   3.781
 7487SOL    HW133680   2.339   8.839   3.788
 7487SOL    HW233681   2.482   8.892   3.730
 7488SOL     OW33682   2.113   8.511   2.860
 7488SOL    HW133683   2.039   8.546   2.917
 7488SOL    HW233684   2.199   8.515   2.911
 7489SOL     OW33685   3.422   4.853   3.791
 7489SOL    HW133686   3.507   4.814   3.828
 7489SOL    HW233687   3.380   4.787   3.729
 7490SOL     OW33688   8.017   9.292   6.091
 7490SOL    HW133689   7.970   9.347   6.022
 7490SOL    HW233690   8.109   9.270   6.059
 7491SOL     OW33691   5.162   2.572   4.805
 7491SOL    HW133692   5.200   2.662   4.787
 7491SOL    HW233693   5.163   2.517   4.722
 7492SOL     OW33694   8.658   0.756   0.227
 7492SOL    HW133695   8.731   0.809   0.183
 7492SOL    HW233696   8.679   0.659   0.219
 7493SOL     OW33697   8.928   4.925   3.863
 7493SOL    HW133698   8.908   5.020   3.839
 7493SOL    HW233699   8.871   4.897   3.940
 7494SOL     OW33700   7.485   7.000   6.162
 7494SOL    HW133701   7.571   6.968   6.201
 7494SOL    HW233702   7.409   6.974   6.221
 7495SOL     OW33703   0.438   6.606   0.516
 7495SOL    HW133704   0.476   6.639   0.603
 7495SOL    HW233705   0.495   6.531   0.482
 7496SOL     OW33706   7.366   8.850   3.003
 7496SOL    HW133707   7.331   8.886   3.089
 7496SOL    HW233708   7.464   8.830   3.012
 7497SOL     OW33709   9.482   6.047   0.244
 7497SOL    HW133710   9.435   5.996   0.316
 7497SOL    HW233711   9.425   6.049   0.162
 7498SOL     OW33712   4.445   2.752   1.291
 7498SOL    HW133713   4.498   2.672   1.318
 7498SOL    HW233714   4.407   2.738   1.199
 7499SOL     OW33715   1.913   6.630   6.381
 7499SOL    HW133716   1.908   6.555   6.314
 7499SOL    HW233717   1.921   6.591   6.473
 7500SOL     OW33718   5.993   0.392   4.941
 7500SOL    HW133719   6.090   0.410   4.923
 7500SOL    HW233720   5.953   0.467   4.992
 7501SOL     OW33721   8.108   3.078   2.946
 7501SOL    HW133722   8.148   3.149   3.003
 7501SOL    HW233723   8.009   3.093   2.937
 7502SOL     OW33724   2.230   3.516   5.717
 7502SOL    HW133725   2.130   3.524   5.724
 7502SOL    HW233726   2.271   3.545   5.803
 7503SOL     OW33727   1.105   5.495   2.381
 7503SOL    HW133728   1.072   5.443   2.303
 7503SOL    HW233729   1.118   5.590   2.355
 7504SOL     OW33730   4.030   6.642   3.368
 7504SOL    HW133731   4.002   6.563   3.314
 7504SOL    HW233732   3.949   6.685   3.409
 7505SOL     OW33733   8.065   4.414   3.772
 7505SOL    HW133734   8.123   4.335   3.790
 7505SOL    HW233735   7.988   4.415   3.836
 7506SOL     OW33736   4.197   8.422   0.708
 7506SOL    HW133737   4.242   8.467   0.784
 7506SOL    HW233738   4.242   8.447   0.622
 7507SOL     OW33739   9.059   2.308   3.561
 7507SOL    HW133740   9.076   2.319   3.463
 7507SOL    HW233741   9.083   2.392   3.609
 7508SOL     OW33742   9.775   1.736   3.590
 7508SOL    HW133743   9.765   1.686   3.504
 7508SOL    HW233744   9.867   1.721   3.627
 7509SOL     OW33745   5.278   0.700   3.329
 7509SOL    HW133746   5.201   0.637   3.328
 7509SOL    HW233747   5.310   0.714   3.423
 7510SOL     OW33748   6.138   1.662   4.938
 7510SOL    HW133749   6.179   1.695   4.853
 7510SOL    HW233750   6.108   1.567   4.926
 7511SOL     OW33751   1.676   1.671   4.090
 7511SOL    HW133752   1.656   1.706   3.998
 7511SOL    HW233753   1.737   1.734   4.137
 7512SOL     OW33754   7.989   2.001   1.972
 7512SOL    HW133755   7.956   2.069   2.038
 7512SOL    HW233756   8.076   2.033   1.933
 7513SOL     OW33757   0.377   7.281   3.662
 7513SOL    HW133758   0.420   7.310   3.748
 7513SOL    HW233759   0.394   7.350   3.591
 7514SOL     OW33760   9.749   9.274   2.659
 7514SOL    HW133761   9.783   9.181   2.649
 7514SOL    HW233762   9.789   9.332   2.588
 7515SOL     OW33763   3.977   0.442   4.936
 7515SOL    HW133764   3.932   0.371   4.881
 7515SOL    HW233765   4.075   0.423   4.943
 7516SOL     OW33766   7.076   9.010   5.186
 7516SOL    HW133767   7.098   9.074   5.260
 7516SOL    HW233768   7.157   8.954   5.167
 7517SOL     OW33769   1.671   6.620   0.613
 7517SOL    HW133770   1.591   6.578   0.656
 7517SOL    HW233771   1.753   6.570   0.641
 7518SOL     OW33772   9.194   2.065   2.901
 7518SOL    HW133773   9.271   2.008   2.873
 7518SOL    HW233774   9.110   2.034   2.857
 7519SOL     OW33775   8.879   5.872   5.477
 7519SOL    HW133776   8.906   5.780   5.448
 7519SOL    HW233777   8.790   5.868   5.523
 7520SOL     OW33778   9.136   8.159   0.822
 7520SOL    HW133779   9.127   8.213   0.905
 7520SOL    HW233780   9.229   8.124   0.815
 7521SOL     OW33781   5.785   2.202   4.400
 7521SOL    HW133782   5.860   2.150   4.441
 7521SOL    HW233783   5.708   2.141   4.381
 7522SOL     OW33784   6.764   0.464   4.604
 7522SOL    HW133785   6.721   0.444   4.692
 7522SOL    HW233786   6.721   0.409   4.533
 7523SOL     OW33787   1.261   0.991   3.852
 7523SOL    HW133788   1.221   1.046   3.925
 7523SOL    HW233789   1.361   0.993   3.860
 7524SOL     OW33790   7.829   1.523   1.621
 7524SOL    HW133791   7.796   1.605   1.574
 7524SOL    HW233792   7.794   1.441   1.574
 7525SOL     OW33793   2.276   0.393   5.035
 7525SOL    HW133794   2.348   0.415   4.970
 7525SOL    HW233795   2.273   0.295   5.051
 7526SOL     OW33796   1.133   5.827   3.070
 7526SOL    HW133797   1.174   5.783   2.990
 7526SOL    HW233798   1.051   5.877   3.042
 7527SOL     OW33799   4.128   3.450   1.101
 7527SOL    HW133800   4.217   3.410   1.124
 7527SOL    HW233801   4.121   3.541   1.141
 7528SOL     OW33802   0.661   0.251   3.874
 7528SOL    HW133803   0.572   0.267   3.916
 7528SOL    HW233804   0.665   0.297   3.785
 7529SOL     OW33805   0.977   3.938   5.865
 7529SOL    HW133806   1.038   3.877   5.916
 7529SOL    HW233807   1.032   4.009   5.819
 7530SOL     OW33808   3.563   7.211   3.714
 7530SOL    HW133809   3.587   7.299   3.756
 7530SOL    HW233810   3.465   7.211   3.693
 7531SOL     OW33811   3.996   8.851   0.570
 7531SOL    HW133812   4.069   8.806   0.620
 7531SOL    HW233813   4.028   8.877   0.479
 7532SOL     OW33814   0.908   1.698   5.278
 7532SOL    HW133815   0.934   1.606   5.308
 7532SOL    HW233816   0.823   1.693   5.225
 7533SOL     OW33817   2.715   9.251   6.161
 7533SOL    HW133818   2.699   9.349   6.145
 7533SOL    HW233819   2.788   9.240   6.228
 7534SOL     OW33820   4.275   9.007   5.799
 7534SOL    HW133821   4.265   9.041   5.706
 7534SOL    HW233822   4.267   8.907   5.799
 7535SOL     OW33823   5.821   3.040   0.619
 7535SOL    HW133824   5.830   2.946   0.586
 7535SOL    HW233825   5.906   3.067   0.665
 7536SOL     OW33826   0.866   4.780   3.446
 7536SOL    HW133827   0.843   4.865   3.400
 7536SOL    HW233828   0.953   4.790   3.494
 7537SOL     OW33829   8.354   1.056   1.089
 7537SOL    HW133830   8.447   1.069   1.124
 7537SOL    HW233831   8.328   1.135   1.033
 7538SOL     OW33832   9.051   8.753   6.462
 7538SOL    HW133833   9.082   8.759   6.557
 7538SOL    HW233834   9.131   8.748   6.401
 7539SOL     OW33835   9.375   4.917   6.340
 7539SOL    HW133836   9.280   4.945   6.347
 7539SOL    HW233837   9.431   4.994   6.308
 7540SOL     OW33838   2.410   2.405   2.299
 7540SOL    HW133839   2.444   2.313   2.281
 7540SOL    HW233840   2.350   2.433   2.224
 7541SOL     OW33841   8.722   6.720   0.356
 7541SOL    HW133842   8.650   6.665   0.312
 7541SOL    HW233843   8.811   6.690   0.324
 7542SOL     OW33844   9.316   7.499   3.505
 7542SOL    HW133845   9.403   7.467   3.468
 7542SOL    HW233846   9.245   7.432   3.486
 7543SOL     OW33847   9.384   6.363   5.990
 7543SOL    HW133848   9.446   6.430   6.029
 7543SOL    HW233849   9.380   6.375   5.891
 7544SOL     OW33850   9.521   8.753   3.794
 7544SOL    HW133851   9.450   8.689   3.766
 7544SOL    HW233852   9.595   8.703   3.839
 7545SOL     OW33853   1.018   8.505   3.984
 7545SOL    HW133854   1.088   8.435   3.996
 7545SOL    HW233855   1.062   8.594   3.969
 7546SOL     OW33856   0.525   9.643   0.310
 7546SOL    HW133857   0.486   9.726   0.349
 7546SOL    HW233858   0.465   9.565   0.330
 7547SOL     OW33859   1.698   8.219   4.007
 7547SOL    HW133860   1.707   8.135   3.954
 7547SOL    HW233861   1.613   8.216   4.060
 7548SOL     OW33862   5.270   7.597   2.787
 7548SOL    HW133863   5.299   7.596   2.883
 7548SOL    HW233864   5.233   7.508   2.763
 7549SOL     OW33865   9.411   8.951   3.951
 7549SOL    HW133866   9.447   8.873   3.900
 7549SOL    HW233867   9.313   8.961   3.932
 7550SOL     OW33868   2.530   5.229   6.313
 7550SOL    HW133869   2.549   5.144   6.362
 7550SOL    HW233870   2.540   5.215   6.215
 7551SOL     OW33871   1.667   6.627   5.217
 7551SOL    HW133872   1.664   6.544   5.273
 7551SOL    HW233873   1.587   6.629   5.157
 7552SOL     OW33874   3.915   4.063   1.545
 7552SOL    HW133875   3.987   4.103   1.488
 7552SOL    HW233876   3.843   4.026   1.487
 7553SOL     OW33877   3.606   9.294   2.572
 7553SOL    HW133878   3.624   9.279   2.475
 7553SOL    HW233879   3.540   9.227   2.605
 7554SOL     OW33880   8.740   9.330   1.326
 7554SOL    HW133881   8.712   9.277   1.247
 7554SOL    HW233882   8.688   9.300   1.407
 7555SOL     OW33883   0.216   3.971   1.253
 7555SOL    HW133884   0.186   3.876   1.241
 7555SOL    HW233885   0.298   3.973   1.311
 7556SOL     OW33886   4.503   1.464   6.257
 7556SOL    HW133887   4.528   1.561   6.248
 7556SOL    HW233888   4.518   1.435   6.352
 7557SOL     OW33889   7.485   1.895   1.243
 7557SOL    HW133890   7.480   1.987   1.204
 7557SOL    HW233891   7.576   1.856   1.227
 7558SOL     OW33892   8.618   5.828   5.561
 7558SOL    HW133893   8.555   5.846   5.636
 7558SOL    HW233894   8.592   5.742   5.516
 7559SOL     OW33895   5.313   2.714   0.278
 7559SOL    HW133896   5.237   2.747   0.222
 7559SOL    HW233897   5.329   2.776   0.355
 7560SOL     OW33898   3.911   6.612   2.257
 7560SOL    HW133899   3.845   6.572   2.321
 7560SOL    HW233900   3.936   6.704   2.288
 7561SOL     OW33901   9.377   7.504   5.691
 7561SOL    HW133902   9.301   7.495   5.756
 7561SOL    HW233903   9.357   7.451   5.609
 7562SOL     OW33904   6.876   2.139   1.618
 7562SOL    HW133905   6.805   2.083   1.576
 7562SOL    HW233906   6.918   2.089   1.693
 7563SOL     OW33907   4.261   8.123   2.854
 7563SOL    HW133908   4.293   8.040   2.807
 7563SOL    HW233909   4.256   8.198   2.789
 7564SOL     OW33910   2.670   1.064   0.905
 7564SOL    HW133911   2.626   1.062   0.815
 7564SOL    HW233912   2.602   1.047   0.976
 7565SOL     OW33913   4.751   0.848   1.073
 7565SOL    HW133914   4.712   0.865   1.164
 7565SOL    HW233915   4.778   0.752   1.067
 7566SOL     OW33916   2.095   8.595   2.586
 7566SOL    HW133917   2.100   8.572   2.683
 7566SOL    HW233918   2.044   8.680   2.574
 7567SOL     OW33919   2.037   5.254   1.835
 7567SOL    HW133920   2.050   5.180   1.768
 7567SOL    HW233921   1.941   5.256   1.864
 7568SOL     OW33922   8.452   8.637   4.553
 7568SOL    HW133923   8.444   8.672   4.460
 7568SOL    HW233924   8.363   8.601   4.583
 7569SOL     OW33925   3.018   4.816   2.803
 7569SOL    HW133926   2.920   4.830   2.815
 7569SOL    HW233927   3.062   4.812   2.893
 7570SOL     OW33928   8.598   7.629   3.678
 7570SOL    HW133929   8.593   7.529   3.669
 7570SOL    HW233930   8.557   7.671   3.597
 7571SOL     OW33931   5.942   0.649   2.440
 7571SOL    HW133932   5.986   0.738   2.449
 7571SOL    HW233933   5.880   0.635   2.518
 7572SOL     OW33934   3.936   5.249   2.391
 7572SOL    HW133935   3.917   5.274   2.296
 7572SOL    HW233936   3.878   5.304   2.452
 7573SOL     OW33937   0.233   5.363   0.366
 7573SOL    HW133938   0.325   5.333   0.389
 7573SOL    HW233939   0.167   5.292   0.391
 7574SOL     OW33940   8.579   4.179   5.061
 7574SOL    HW133941   8.545   4.115   4.992
 7574SOL    HW233942   8.587   4.270   5.021
 7575SOL     OW33943   1.028   8.449   5.718
 7575SOL    HW133944   0.939   8.459   5.675
 7575SOL    HW233945   1.065   8.359   5.698
 7576SOL     OW33946   0.619   3.078   4.173
 7576SOL    HW133947   0.681   3.008   4.209
 7576SOL    HW233948   0.562   3.114   4.248
 7577SOL     OW33949   5.891   2.392   5.220
 7577SOL    HW133950   5.802   2.411   5.178
 7577SOL    HW233951   5.877   2.344   5.307
 7578SOL     OW33952   1.933   4.117   4.351
 7578SOL    HW133953   1.953   4.127   4.449
 7578SOL    HW233954   1.893   4.201   4.316
 7579SOL     OW33955   8.413   8.558   1.225
 7579SOL    HW133956   8.485   8.623   1.249
 7579SOL    HW233957   8.453   8.481   1.174
 7580SOL     OW33958   4.861   1.135   4.360
 7580SOL    HW133959   4.876   1.179   4.271
 7580SOL    HW233960   4.891   1.040   4.356
 7581SOL     OW33961   8.948   7.408   1.985
 7581SOL    HW133962   8.949   7.346   1.906
 7581SOL    HW233963   8.919   7.499   1.955
 7582SOL     OW33964   0.827   9.944   6.191
 7582SOL    HW133965   0.908   9.886   6.182
 7582SOL    HW233966   0.856   0.039   6.200
 7583SOL     OW33967   4.354   0.675   2.432
 7583SOL    HW133968   4.358   0.578   2.411
 7583SOL    HW233969   4.295   0.721   2.365
 7584SOL     OW33970   5.004   6.243   1.189
 7584SOL    HW133971   4.944   6.294   1.127
 7584SOL    HW233972   4.950   6.211   1.267
 7585SOL     OW33973   1.744   5.663   5.203
 7585SOL    HW133974   1.719   5.666   5.107
 7585SOL    HW233975   1.682   5.603   5.253
 7586SOL     OW33976   4.354   7.791   6.288
 7586SOL    HW133977   4.440   7.824   6.327
 7586SOL    HW233978   4.339   7.696   6.316
 7587SOL     OW33979   9.756   2.398   3.551
 7587SOL    HW133980   9.790   2.310   3.582
 7587SOL    HW233981   9.732   2.393   3.454
 7588SOL     OW33982   7.629   4.750   6.141
 7588SOL    HW133983   7.635   4.697   6.226
 7588SOL    HW233984   7.631   4.688   6.063
 7589SOL     OW33985   6.632   8.880   4.079
 7589SOL    HW133986   6.647   8.942   4.002
 7589SOL    HW233987   6.547   8.904   4.126
 7590SOL     OW33988   3.180   6.506   1.422
 7590SOL    HW133989   3.183   6.583   1.357
 7590SOL    HW233990   3.184   6.420   1.372
 7591SOL     OW33991   2.329   9.306   2.513
 7591SOL    HW133992   2.389   9.318   2.434
 7591SOL    HW233993   2.293   9.395   2.541
 7592SOL     OW33994   2.563   4.793   1.529
 7592SOL    HW133995   2.468   4.768   1.550
 7592SOL    HW233996   2.563   4.871   1.467
 7593SOL     OW33997   3.355   1.511   1.190
 7593SOL    HW133998   3.401   1.559   1.115
 7593SOL    HW233999   3.387   1.416   1.193
 7594SOL     OW34000   3.648   8.199   5.397
 7594SOL    HW134001   3.672   8.212   5.493
 7594SOL    HW234002   3.653   8.102   5.374
 7595SOL     OW34003   8.992   9.509   4.874
 7595SOL    HW134004   9.008   9.480   4.780
 7595SOL    HW234005   9.078   9.510   4.925
 7596SOL     OW34006   3.788   6.717   3.483
 7596SOL    HW134007   3.813   6.736   3.578
 7596SOL    HW234008   3.722   6.643   3.480
 7597SOL     OW34009   1.628   2.280   6.387
 7597SOL    HW134010   1.575   2.354   6.347
 7597SOL    HW234011   1.712   2.316   6.428
 7598SOL     OW34012   7.701   7.867   4.902
 7598SOL    HW134013   7.701   7.917   4.815
 7598SOL    HW234014   7.609   7.834   4.921
 7599SOL     OW34015   3.830   1.750   4.144
 7599SOL    HW134016   3.791   1.746   4.053
 7599SOL    HW234017   3.759   1.774   4.210
 7600SOL     OW34018   9.509   9.178   2.743
 7600SOL    HW134019   9.592   9.213   2.700
 7600SOL    HW234020   9.528   9.154   2.838
 7601SOL     OW34021   4.799   7.308   2.572
 7601SOL    HW134022   4.874   7.308   2.505
 7601SOL    HW234023   4.795   7.397   2.618
 7602SOL     OW34024   0.453   5.566   5.528
 7602SOL    HW134025   0.548   5.539   5.546
 7602SOL    HW234026   0.409   5.595   5.613
 7603SOL     OW34027   3.307   3.466   3.263
 7603SOL    HW134028   3.247   3.463   3.183
 7603SOL    HW234029   3.336   3.560   3.280
 7604SOL     OW34030   5.370   7.617   4.069
 7604SOL    HW134031   5.290   7.558   4.086
 7604SOL    HW234032   5.453   7.563   4.077
 7605SOL     OW34033   8.667   6.164   2.199
 7605SOL    HW134034   8.648   6.080   2.251
 7605SOL    HW234035   8.591   6.181   2.136
 7606SOL     OW34036   9.568   9.658   1.672
 7606SOL    HW134037   9.534   9.658   1.578
 7606SOL    HW234038   9.553   9.568   1.713
 7607SOL     OW34039   1.225   5.198   2.627
 7607SOL    HW134040   1.126   5.191   2.611
 7607SOL    HW234041   1.263   5.272   2.572
 7608SOL     OW34042   5.276   2.485   4.332
 7608SOL    HW134043   5.373   2.507   4.322
 7608SOL    HW234044   5.249   2.420   4.261
 7609SOL     OW34045   2.680   2.268   5.995
 7609SOL    HW134046   2.581   2.278   5.988
 7609SOL    HW234047   2.720   2.259   5.904
 7610SOL     OW34048   1.506   0.008   3.256
 7610SOL    HW134049   1.516   9.997   3.157
 7610SOL    HW234050   1.580   0.066   3.291
 7611SOL     OW34051   7.171   1.383   5.088
 7611SOL    HW134052   7.257   1.358   5.045
 7611SOL    HW234053   7.139   1.305   5.144
 7612SOL     OW34054   1.073   4.661   6.257
 7612SOL    HW134055   1.016   4.669   6.175
 7612SOL    HW234056   1.118   4.748   6.275
 7613SOL     OW34057   6.857   0.546   0.871
 7613SOL    HW134058   6.794   0.495   0.813
 7613SOL    HW234059   6.951   0.522   0.847
 7614SOL     OW34060   2.286   5.863   3.630
 7614SOL    HW134061   2.289   5.800   3.553
 7614SOL    HW234062   2.233   5.944   3.606
 7615SOL     OW34063   7.826   4.669   2.839
 7615SOL    HW134064   7.905   4.681   2.779
 7615SOL    HW234065   7.818   4.573   2.865
 7616SOL     OW34066   2.794   9.917   5.334
 7616SOL    HW134067   2.749   9.958   5.414
 7616SOL    HW234068   2.754   9.953   5.251
 7617SOL     OW34069   9.033   7.760   0.999
 7617SOL    HW134070   8.976   7.679   1.012
 7617SOL    HW234071   9.043   7.807   1.087
 7618SOL     OW34072   3.283   9.465   4.530
 7618SOL    HW134073   3.348   9.389   4.524
 7618SOL    HW234074   3.191   9.428   4.543
 7619SOL     OW34075   1.891   7.697   5.306
 7619SOL    HW134076   1.916   7.682   5.401
 7619SOL    HW234077   1.802   7.655   5.287
 7620SOL     OW34078   4.077   7.451   4.570
 7620SOL    HW134079   4.025   7.423   4.490
 7620SOL    HW234080   4.122   7.370   4.610
 7621SOL     OW34081   3.375   8.850   2.734
 7621SOL    HW134082   3.416   8.764   2.702
 7621SOL    HW234083   3.409   8.870   2.826
 7622SOL     OW34084   4.554   5.743   1.396
 7622SOL    HW134085   4.631   5.795   1.359
 7622SOL    HW234086   4.523   5.786   1.481
 7623SOL     OW34087   6.741   3.906   1.364
 7623SOL    HW134088   6.741   3.985   1.426
 7623SOL    HW234089   6.748   3.938   1.269
 7624SOL     OW34090   9.576   2.649   0.998
 7624SOL    HW134091   9.627   2.692   0.924
 7624SOL    HW234092   9.594   2.551   0.998
 7625SOL     OW34093   2.822   3.038   2.353
 7625SOL    HW134094   2.782   3.091   2.279
 7625SOL    HW234095   2.808   2.941   2.336
 7626SOL     OW34096   0.456   3.944   1.393
 7626SOL    HW134097   0.477   3.883   1.316
 7626SOL    HW234098   0.541   3.978   1.433
 7627SOL     OW34099   5.168   8.601   2.432
 7627SOL    HW134100   5.199   8.649   2.350
 7627SOL    HW234101   5.239   8.607   2.503
 7628SOL     OW34102   8.770   3.865   2.019
 7628SOL    HW134103   8.852   3.837   1.969
 7628SOL    HW234104   8.713   3.784   2.037
 7629SOL     OW34105   0.882   0.577   3.618
 7629SOL    HW134106   0.928   0.587   3.529
 7629SOL    HW234107   0.942   0.530   3.682
 7630SOL     OW34108   1.330   6.383   4.913
 7630SOL    HW134109   1.279   6.315   4.966
 7630SOL    HW234110   1.379   6.337   4.838
 7631SOL     OW34111   9.705   2.712   4.194
 7631SOL    HW134112   9.663   2.700   4.104
 7631SOL    HW234113   9.653   2.661   4.262
 7632SOL     OW34114   9.878   9.776   3.389
 7632SOL    HW134115   9.834   9.700   3.438
 7632SOL    HW234116   9.942   9.739   3.321
 7633SOL     OW34117   4.044   4.549   6.097
 7633SOL    HW134118   4.013   4.523   6.006
 7633SOL    HW234119   3.991   4.627   6.130
 7634SOL     OW34120   3.318   4.635   1.207
 7634SOL    HW134121   3.371   4.704   1.256
 7634SOL    HW234122   3.238   4.610   1.262
 7635SOL     OW34123   8.558   6.037   1.141
 7635SOL    HW134124   8.657   6.022   1.136
 7635SOL    HW234125   8.540   6.115   1.202
 7636SOL     OW34126   5.896   1.643   2.925
 7636SOL    HW134127   5.856   1.698   2.998
 7636SOL    HW234128   5.947   1.568   2.965
 7637SOL     OW34129   2.325   4.017   3.385
 7637SOL    HW134130   2.346   3.934   3.436
 7637SOL    HW234131   2.315   3.995   3.288
 7638SOL     OW34132   9.839   4.774   4.058
 7638SOL    HW134133   9.823   4.822   4.145
 7638SOL    HW234134   9.795   4.685   4.060
 7639SOL     OW34135   0.579   6.447   2.169
 7639SOL    HW134136   0.569   6.348   2.161
 7639SOL    HW234137   0.634   6.468   2.250
 7640SOL     OW34138   1.146   7.344   1.723
 7640SOL    HW134139   1.160   7.398   1.807
 7640SOL    HW234140   1.234   7.305   1.695
 7641SOL     OW34141   4.227   1.668   1.072
 7641SOL    HW134142   4.192   1.620   0.992
 7641SOL    HW234143   4.151   1.709   1.123
 7642SOL     OW34144   1.254   3.065   0.372
 7642SOL    HW134145   1.160   3.096   0.387
 7642SOL    HW234146   1.302   3.132   0.315
 7643SOL     OW34147   8.611   6.690   3.781
 7643SOL    HW134148   8.587   6.755   3.709
 7643SOL    HW234149   8.594   6.597   3.748
 7644SOL     OW34150   7.285   7.786   4.612
 7644SOL    HW134151   7.357   7.850   4.641
 7644SOL    HW234152   7.249   7.739   4.692
 7645SOL     OW34153   7.894   8.034   5.001
 7645SOL    HW134154   7.820   7.969   4.986
 7645SOL    HW234155   7.956   8.033   4.923
 7646SOL     OW34156   7.167   9.070   4.813
 7646SOL    HW134157   7.238   9.033   4.873
 7646SOL    HW234158   7.156   9.011   4.734
 7647SOL     OW34159   4.105   4.192   0.485
 7647SOL    HW134160   4.031   4.232   0.539
 7647SOL    HW234161   4.161   4.134   0.544
 7648SOL     OW34162   2.657   5.513   0.478
 7648SOL    HW134163   2.630   5.430   0.430
 7648SOL    HW234164   2.673   5.586   0.412
 7649SOL     OW34165   3.727   8.211   5.669
 7649SOL    HW134166   3.733   8.123   5.716
 7649SOL    HW234167   3.809   8.265   5.687
 7650SOL     OW34168   2.786   4.081   0.728
 7650SOL    HW134169   2.694   4.098   0.762
 7650SOL    HW234170   2.797   3.983   0.710
 7651SOL     OW34171   4.592   7.387   3.095
 7651SOL    HW134172   4.616   7.455   3.026
 7651SOL    HW234173   4.601   7.427   3.186
 7652SOL     OW34174   1.219   6.717   4.679
 7652SOL    HW134175   1.164   6.637   4.707
 7652SOL    HW234176   1.316   6.693   4.684
 7653SOL     OW34177   7.177   0.538   5.806
 7653SOL    HW134178   7.103   0.571   5.747
 7653SOL    HW234179   7.184   0.596   5.887
 7654SOL     OW34180   4.877   2.111   4.416
 7654SOL    HW134181   4.818   2.191   4.425
 7654SOL    HW234182   4.821   2.028   4.412
 7655SOL     OW34183   2.195   1.470   5.522
 7655SOL    HW134184   2.163   1.384   5.482
 7655SOL    HW234185   2.279   1.499   5.478
 7656SOL     OW34186   4.090   8.223   4.530
 7656SOL    HW134187   4.010   8.248   4.475
 7656SOL    HW234188   4.127   8.304   4.576
 7657SOL     OW34189   7.764   1.438   3.773
 7657SOL    HW134190   7.699   1.365   3.751
 7657SOL    HW234191   7.820   1.458   3.693
 7658SOL     OW34192   0.726   6.461   0.871
 7658SOL    HW134193   0.696   6.413   0.954
 7658SOL    HW234194   0.823   6.445   0.856
 7659SOL     OW34195   8.861   1.507   4.210
 7659SOL    HW134196   8.818   1.418   4.223
 7659SOL    HW234197   8.793   1.572   4.177
 7660SOL     OW34198   6.883   1.397   1.387
 7660SOL    HW134199   6.833   1.322   1.343
 7660SOL    HW234200   6.981   1.388   1.367
 7661SOL     OW34201   6.598   9.527   5.425
 7661SOL    HW134202   6.693   9.534   5.395
 7661SOL    HW234203   6.540   9.496   5.349
 7662SOL     OW34204   4.161   2.829   2.853
 7662SOL    HW134205   4.154   2.882   2.768
 7662SOL    HW234206   4.142   2.733   2.833
 7663SOL     OW34207   1.112   2.454   3.180
 7663SOL    HW134208   1.197   2.433   3.132
 7663SOL    HW234209   1.132   2.513   3.258
 7664SOL     OW34210   1.787   6.029   0.524
 7664SOL    HW134211   1.697   5.993   0.547
 7664SOL    HW234212   1.850   6.010   0.599
 7665SOL     OW34213   3.398   1.694   6.022
 7665SOL    HW134214   3.462   1.637   5.970
 7665SOL    HW234215   3.308   1.691   5.979
 7666SOL     OW34216   2.490   6.597   2.047
 7666SOL    HW134217   2.495   6.555   2.137
 7666SOL    HW234218   2.501   6.696   2.056
 7667SOL     OW34219   0.557   1.370   5.649
 7667SOL    HW134220   0.598   1.366   5.741
 7667SOL    HW234221   0.459   1.385   5.658
 7668SOL     OW34222   3.150   6.828   3.430
 7668SOL    HW134223   3.220   6.880   3.480
 7668SOL    HW234224   3.070   6.814   3.489
 7669SOL     OW34225   0.048   8.035   0.548
 7669SOL    HW134226   9.994   7.962   0.591
 7669SOL    HW234227   0.097   8.086   0.619
 7670SOL     OW34228   9.195   8.407   2.664
 7670SOL    HW134229   9.286   8.427   2.628
 7670SOL    HW234230   9.156   8.329   2.614
 7671SOL     OW34231   7.137   2.555   0.130
 7671SOL    HW134232   7.138   2.655   0.122
 7671SOL    HW234233   7.227   2.519   0.107
 7672SOL     OW34234   8.435   0.645   5.189
 7672SOL    HW134235   8.375   0.628   5.111
 7672SOL    HW234236   8.447   0.744   5.201
 7673SOL     OW34237   0.888   2.757   3.985
 7673SOL    HW134238   0.792   2.744   4.010
 7673SOL    HW234239   0.900   2.848   3.946
 7674SOL     OW34240   0.984   7.589   5.364
 7674SOL    HW134241   1.024   7.669   5.411
 7674SOL    HW234242   1.047   7.512   5.372
 7675SOL     OW34243   9.576   6.976   5.323
 7675SOL    HW134244   9.622   6.999   5.238
 7675SOL    HW234245   9.549   6.879   5.322
 7676SOL     OW34246   1.568   7.189   2.384
 7676SOL    HW134247   1.613   7.204   2.472
 7676SOL    HW234248   1.551   7.276   2.339
 7677SOL     OW34249   0.558   4.627   5.907
 7677SOL    HW134250   0.582   4.629   6.004
 7677SOL    HW234251   0.615   4.560   5.860
 7678SOL     OW34252   1.221   5.564   1.169
 7678SOL    HW134253   1.157   5.637   1.144
 7678SOL    HW234254   1.221   5.551   1.268
 7679SOL     OW34255   1.344   5.041   4.304
 7679SOL    HW134256   1.300   5.116   4.354
 7679SOL    HW234257   1.297   5.028   4.216
 7680SOL     OW34258   4.248   0.421   4.934
 7680SOL    HW134259   4.336   0.387   4.967
 7680SOL    HW234260   4.261   0.473   4.850
 7681SOL     OW34261   9.162   0.492   4.853
 7681SOL    HW134262   9.166   0.538   4.942
 7681SOL    HW234263   9.242   0.433   4.842
 7682SOL     OW34264   2.795   6.362   2.785
 7682SOL    HW134265   2.780   6.388   2.880
 7682SOL    HW234266   2.864   6.290   2.780
 7683SOL     OW34267   7.423   7.204   5.778
 7683SOL    HW134268   7.363   7.284   5.784
 7683SOL    HW234269   7.384   7.129   5.832
 7684SOL     OW34270   7.196   6.420   5.656
 7684SOL    HW134271   7.177   6.467   5.570
 7684SOL    HW234272   7.262   6.347   5.640
 7685SOL     OW34273   8.124   5.602   4.514
 7685SOL    HW134274   8.027   5.619   4.502
 7685SOL    HW234275   8.143   5.582   4.611
 7686SOL     OW34276   2.344   6.850   6.231
 7686SOL    HW134277   2.255   6.840   6.277
 7686SOL    HW234278   2.338   6.921   6.161
 7687SOL     OW34279   2.674   0.685   1.938
 7687SOL    HW134280   2.765   0.725   1.927
 7687SOL    HW234281   2.681   0.585   1.933
 7688SOL     OW34282   0.001   6.422   2.606
 7688SOL    HW134283   9.923   6.370   2.640
 7688SOL    HW234284   9.978   6.460   2.516
 7689SOL     OW34285   8.763   5.074   1.525
 7689SOL    HW134286   8.810   5.142   1.582
 7689SOL    HW234287   8.696   5.025   1.581
 7690SOL     OW34288   8.943   8.461   3.389
 7690SOL    HW134289   9.007   8.414   3.328
 7690SOL    HW234290   8.854   8.414   3.387
 7691SOL     OW34291   0.245   1.826   3.696
 7691SOL    HW134292   0.331   1.785   3.724
 7691SOL    HW234293   0.229   1.910   3.748
 7692SOL     OW34294   4.045   8.012   5.597
 7692SOL    HW134295   3.970   7.956   5.564
 7692SOL    HW234296   4.029   8.037   5.692
 7693SOL     OW34297   0.721   4.743   2.755
 7693SOL    HW134298   0.737   4.841   2.749
 7693SOL    HW234299   0.670   4.722   2.839
 7694SOL     OW34300   3.924   2.654   1.534
 7694SOL    HW134301   3.935   2.582   1.466
 7694SOL    HW234302   3.976   2.735   1.505
 7695SOL     OW34303   5.781   7.613   5.884
 7695SOL    HW134304   5.685   7.584   5.887
 7695SOL    HW234305   5.785   7.713   5.880
 7696SOL     OW34306   7.156   1.851   0.964
 7696SOL    HW134307   7.200   1.891   0.883
 7696SOL    HW234308   7.223   1.795   1.013
 7697SOL     OW34309   0.536   8.205   4.056
 7697SOL    HW134310   0.609   8.173   3.996
 7697SOL    HW234311   0.531   8.304   4.052
 7698SOL     OW34312   6.445   2.143   5.864
 7698SOL    HW134313   6.525   2.168   5.918
 7698SOL    HW234314   6.434   2.207   5.788
 7699SOL     OW34315   7.852   9.810   1.903
 7699SOL    HW134316   7.946   9.841   1.890
 7699SOL    HW234317   7.839   9.723   1.855
 7700SOL     OW34318   3.969   3.097   4.718
 7700SOL    HW134319   4.056   3.057   4.688
 7700SOL    HW234320   3.896   3.030   4.708
 7701SOL     OW34321   2.286   2.680   1.541
 7701SOL    HW134322   2.292   2.684   1.640
 7701SOL    HW234323   2.378   2.674   1.502
 7702SOL     OW34324   8.476   5.414   2.524
 7702SOL    HW134325   8.403   5.348   2.543
 7702SOL    HW234326   8.494   5.416   2.425
 7703SOL     OW34327   5.409   1.270   5.152
 7703SOL    HW134328   5.351   1.320   5.087
 7703SOL    HW234329   5.355   1.199   5.197
 7704SOL     OW34330   5.504   7.563   5.848
 7704SOL    HW134331   5.419   7.575   5.899
 7704SOL    HW234332   5.517   7.641   5.787
 7705SOL     OW34333   1.136   9.811   3.261
 7705SOL    HW134334   1.098   9.856   3.342
 7705SOL    HW234335   1.230   9.782   3.280
 7706SOL     OW34336   7.036   8.869   5.990
 7706SOL    HW134337   6.955   8.811   5.981
 7706SOL    HW234338   7.012   8.952   6.042
 7707SOL     OW34339   7.905   2.129   5.283
 7707SOL    HW134340   7.806   2.120   5.268
 7707SOL    HW234341   7.933   2.070   5.358
 7708SOL     OW34342   3.965   4.136   0.250
 7708SOL    HW134343   4.011   4.165   0.334
 7708SOL    HW234344   4.017   4.167   0.171
 7709SOL     OW34345   3.238   7.124   1.220
 7709SOL    HW134346   3.306   7.174   1.167
 7709SOL    HW234347   3.160   7.102   1.162
 7710SOL     OW34348   1.842   5.006   3.582
 7710SOL    HW134349   1.790   4.933   3.539
 7710SOL    HW234350   1.798   5.033   3.667
 7711SOL     OW34351   2.081   7.663   1.286
 7711SOL    HW134352   2.116   7.684   1.195
 7711SOL    HW234353   2.086   7.744   1.344
 7712SOL     OW34354   1.656   9.112   5.613
 7712SOL    HW134355   1.693   9.204   5.624
 7712SOL    HW234356   1.683   9.075   5.524
 7713SOL     OW34357   4.595   7.508   6.238
 7713SOL    HW134358   4.517   7.504   6.301
 7713SOL    HW234359   4.649   7.425   6.248
 7714SOL     OW34360   2.836   3.302   5.946
 7714SOL    HW134361   2.933   3.285   5.963
 7714SOL    HW234362   2.827   3.378   5.882
 7715SOL     OW34363   1.854   5.107   5.923
 7715SOL    HW134364   1.861   5.012   5.954
 7715SOL    HW234365   1.772   5.148   5.963
 7716SOL     OW34366   9.142   9.588   3.767
 7716SOL    HW134367   9.165   9.684   3.753
 7716SOL    HW234368   9.225   9.533   3.765
 7717SOL     OW34369   2.573   5.287   0.344
 7717SOL    HW134370   2.474   5.269   0.346
 7717SOL    HW234371   2.607   5.270   0.251
 7718SOL     OW34372   2.004   7.100   6.298
 7718SOL    HW134373   2.045   7.010   6.302
 7718SOL    HW234374   2.053   7.157   6.231
 7719SOL     OW34375   9.025   0.959   3.713
 7719SOL    HW134376   9.061   1.027   3.777
 7719SOL    HW234377   8.939   0.993   3.674
 7720SOL     OW34378   5.680   7.998   4.207
 7720SOL    HW134379   5.601   7.989   4.267
 7720SOL    HW234380   5.749   7.930   4.232
 7721SOL     OW34381   8.519   6.328   6.139
 7721SOL    HW134382   8.571   6.411   6.117
 7721SOL    HW234383   8.563   6.248   6.098
 7722SOL     OW34384   9.549   0.983   4.163
 7722SOL    HW134385   9.461   0.935   4.164
 7722SOL    HW234386   9.568   1.016   4.071
 7723SOL     OW34387   2.682   8.593   2.590
 7723SOL    HW134388   2.596   8.631   2.554
 7723SOL    HW234389   2.699   8.504   2.547
 7724SOL     OW34390   9.814   6.482   6.133
 7724SOL    HW134391   9.852   6.397   6.096
 7724SOL    HW234392   9.714   6.474   6.139
 7725SOL     OW34393   2.460   3.793   2.555
 7725SOL    HW134394   2.376   3.827   2.513
 7725SOL    HW234395   2.438   3.718   2.618
 7726SOL     OW34396   9.603   3.685   3.566
 7726SOL    HW134397   9.570   3.690   3.660
 7726SOL    HW234398   9.577   3.596   3.526
 7727SOL     OW34399   1.765   5.344   3.231
 7727SOL    HW134400   1.813   5.260   3.256
 7727SOL    HW234401   1.725   5.385   3.313
 7728SOL     OW34402   8.975   6.570   4.547
 7728SOL    HW134403   9.032   6.524   4.480
 7728SOL    HW234404   8.965   6.666   4.523
 7729SOL     OW34405   6.166   7.971   2.780
 7729SOL    HW134406   6.137   7.982   2.685
 7729SOL    HW234407   6.105   7.906   2.826
 7730SOL     OW34408   6.647   9.499   4.192
 7730SOL    HW134409   6.651   9.596   4.169
 7730SOL    HW234410   6.584   9.485   4.268
 7731SOL     OW34411   7.908   0.629   0.792
 7731SOL    HW134412   7.915   0.680   0.706
 7731SOL    HW234413   7.820   0.581   0.795
 7732SOL     OW34414   6.974   3.491   2.457
 7732SOL    HW134415   7.050   3.556   2.459
 7732SOL    HW234416   7.001   3.407   2.504
 7733SOL     OW34417   4.982   0.402   4.131
 7733SOL    HW134418   4.931   0.327   4.088
 7733SOL    HW234419   5.013   0.466   4.061
 7734SOL     OW34420   6.585   1.854   2.072
 7734SOL    HW134421   6.568   1.951   2.051
 7734SOL    HW234422   6.501   1.802   2.061
 7735SOL     OW34423   2.622   8.865   5.608
 7735SOL    HW134424   2.657   8.772   5.602
 7735SOL    HW234425   2.684   8.927   5.560
 7736SOL     OW34426   5.567   7.963   2.990
 7736SOL    HW134427   5.609   8.012   2.915
 7736SOL    HW234428   5.598   7.868   2.990
 7737SOL     OW34429   5.144   8.234   6.419
 7737SOL    HW134430   5.162   8.201   6.511
 7737SOL    HW234431   5.221   8.289   6.387
 7738SOL     OW34432   8.187   8.724   0.519
 7738SOL    HW134433   8.168   8.822   0.508
 7738SOL    HW234434   8.213   8.685   0.431
 7739SOL     OW34435   3.657   8.170   3.606
 7739SOL    HW134436   3.605   8.122   3.677
 7739SOL    HW234437   3.749   8.131   3.601
 7740SOL     OW34438   0.647   9.055   4.089
 7740SOL    HW134439   0.585   9.114   4.140
 7740SOL    HW234440   0.682   9.104   4.009
 7741SOL     OW34441   3.196   3.490   2.124
 7741SOL    HW134442   3.108   3.524   2.092
 7741SOL    HW234443   3.233   3.552   2.192
 7742SOL     OW34444   3.915   2.223   1.011
 7742SOL    HW134445   3.963   2.142   0.978
 7742SOL    HW234446   3.980   2.286   1.054
 7743SOL     OW34447   7.737   8.407   2.048
 7743SOL    HW134448   7.795   8.488   2.054
 7743SOL    HW234449   7.741   8.370   1.955
 7744SOL     OW34450   9.378   5.942   4.417
 7744SOL    HW134451   9.471   5.918   4.388
 7744SOL    HW234452   9.351   5.881   4.492
 7745SOL     OW34453   0.745   8.081   2.825
 7745SOL    HW134454   0.809   8.080   2.902
 7745SOL    HW234455   0.750   7.994   2.776
 7746SOL     OW34456   1.028   2.438   6.097
 7746SOL    HW134457   1.021   2.498   6.176
 7746SOL    HW234458   1.090   2.478   6.030
 7747SOL     OW34459   8.439   3.509   3.390
 7747SOL    HW134460   8.493   3.552   3.462
 7747SOL    HW234461   8.481   3.528   3.301
 7748SOL     OW34462   6.781   0.806   0.820
 7748SOL    HW134463   6.813   0.714   0.845
 7748SOL    HW234464   6.761   0.858   0.903
 7749SOL     OW34465   8.229   3.273   1.489
 7749SOL    HW134466   8.166   3.274   1.567
 7749SOL    HW234467   8.209   3.193   1.431
 7750SOL     OW34468   8.687   0.256   5.168
 7750SOL    HW134469   8.681   0.214   5.078
 7750SOL    HW234470   8.748   0.202   5.226
 7751SOL     OW34471   1.237   1.242   2.163
 7751SOL    HW134472   1.164   1.309   2.150
 7751SOL    HW234473   1.222   1.164   2.102
 7752SOL     OW34474   6.950   1.873   3.021
 7752SOL    HW134475   6.927   1.942   3.089
 7752SOL    HW234476   6.866   1.834   2.983
 7753SOL     OW34477   1.313   0.156   3.973
 7753SOL    HW134478   1.289   0.103   4.055
 7753SOL    HW234479   1.274   0.247   3.981
 7754SOL     OW34480   3.417   4.665   2.809
 7754SOL    HW134481   3.350   4.628   2.744
 7754SOL    HW234482   3.466   4.741   2.767
 7755SOL     OW34483   2.283   2.093   4.217
 7755SOL    HW134484   2.247   2.156   4.286
 7755SOL    HW234485   2.254   2.123   4.126
 7756SOL     OW34486   9.298   4.738   3.675
 7756SOL    HW134487   9.388   4.750   3.634
 7756SOL    HW234488   9.303   4.755   3.773
 7757SOL     OW34489   7.577   0.920   3.484
 7757SOL    HW134490   7.548   0.863   3.407
 7757SOL    HW234491   7.586   0.864   3.566
 7758SOL     OW34492   2.106   4.078   2.304
 7758SOL    HW134493   2.066   4.025   2.229
 7758SOL    HW234494   2.190   4.122   2.273
 7759SOL     OW34495   8.129   5.493   1.951
 7759SOL    HW134496   8.189   5.532   2.020
 7759SOL    HW234497   8.131   5.550   1.869
 7760SOL     OW34498   9.400   8.110   1.538
 7760SOL    HW134499   9.319   8.158   1.504
 7760SOL    HW234500   9.458   8.084   1.460
 7761SOL     OW34501   1.953   8.141   3.463
 7761SOL    HW134502   2.014   8.220   3.462
 7761SOL    HW234503   1.961   8.092   3.376
 7762SOL     OW34504   1.560   7.722   6.219
 7762SOL    HW134505   1.524   7.651   6.280
 7762SOL    HW234506   1.648   7.754   6.255
 7763SOL     OW34507   2.994   3.729   0.880
 7763SOL    HW134508   2.915   3.768   0.927
 7763SOL    HW234509   3.064   3.703   0.947
 7764SOL     OW34510   4.605   4.960   1.029
 7764SOL    HW134511   4.692   4.933   0.986
 7764SOL    HW234512   4.564   4.880   1.072
 7765SOL     OW34513   3.934   4.509   5.852
 7765SOL    HW134514   3.869   4.585   5.848
 7765SOL    HW234515   4.003   4.521   5.781
 7766SOL     OW34516   0.941   2.801   0.157
 7766SOL    HW134517   0.877   2.730   0.187
 7766SOL    HW234518   0.978   2.776   0.067
 7767SOL     OW34519   4.277   0.313   4.583
 7767SOL    HW134520   4.273   0.403   4.626
 7767SOL    HW234521   4.276   0.324   4.483
 7768SOL     OW34522   0.877   3.591   3.607
 7768SOL    HW134523   0.954   3.600   3.543
 7768SOL    HW234524   0.907   3.539   3.687
 7769SOL     OW34525   5.027   4.337   0.930
 7769SOL    HW134526   5.083   4.289   0.863
 7769SOL    HW234527   5.080   4.412   0.970
 7770SOL     OW34528   8.239   7.736   5.688
 7770SOL    HW134529   8.248   7.776   5.597
 7770SOL    HW234530   8.179   7.794   5.744
 7771SOL     OW34531   6.893   0.987   2.159
 7771SOL    HW134532   6.942   0.944   2.236
 7771SOL    HW234533   6.801   1.011   2.188
 7772SOL     OW34534   7.436   7.946   5.549
 7772SOL    HW134535   7.451   7.975   5.454
 7772SOL    HW234536   7.344   7.974   5.578
 7773SOL     OW34537   2.671   0.365   3.329
 7773SOL    HW134538   2.579   0.327   3.329
 7773SOL    HW234539   2.667   0.465   3.319
 7774SOL     OW34540   2.016   1.212   1.748
 7774SOL    HW134541   1.949   1.138   1.748
 7774SOL    HW234542   1.976   1.294   1.707
 7775SOL     OW34543   0.892   6.614   1.202
 7775SOL    HW134544   0.796   6.638   1.218
 7775SOL    HW234545   0.948   6.696   1.212
 7776SOL     OW34546   0.982   9.403   1.635
 7776SOL    HW134547   0.912   9.471   1.616
 7776SOL    HW234548   1.072   9.445   1.627
 7777SOL     OW34549   2.214   8.611   0.478
 7777SOL    HW134550   2.261   8.523   0.491
 7777SOL    HW234551   2.117   8.600   0.497
 7778SOL     OW34552  10.000   8.144   4.402
 7778SOL    HW134553   9.939   8.137   4.481
 7778SOL    HW234554   9.974   8.223   4.347
 7779SOL     OW34555   7.760   6.241   0.684
 7779SOL    HW134556   7.731   6.147   0.699
 7779SOL    HW234557   7.831   6.266   0.750
 7780SOL     OW34558   8.180   9.141   1.936
 7780SOL    HW134559   8.094   9.100   1.907
 7780SOL    HW234560   8.186   9.235   1.904
 7781SOL     OW34561   5.670   4.066   0.732
 7781SOL    HW134562   5.728   4.111   0.664
 7781SOL    HW234563   5.575   4.098   0.721
 7782SOL     OW34564   0.147   9.939   2.816
 7782SOL    HW134565   0.168   9.999   2.893
 7782SOL    HW234566   0.206   9.858   2.821
 7783SOL     OW34567   7.928   7.230   2.470
 7783SOL    HW134568   7.845   7.238   2.414
 7783SOL    HW234569   7.992   7.168   2.426
 7784SOL     OW34570   4.806   8.437   5.261
 7784SOL    HW134571   4.866   8.362   5.290
 7784SOL    HW234572   4.795   8.434   5.162
 7785SOL     OW34573   8.490   5.619   5.436
 7785SOL    HW134574   8.399   5.656   5.418
 7785SOL    HW234575   8.542   5.614   5.351
 7786SOL     OW34576   4.070   4.657   4.469
 7786SOL    HW134577   4.014   4.708   4.534
 7786SOL    HW234578   4.121   4.586   4.518
 7787SOL     OW34579   8.448   0.045   4.147
 7787SOL    HW134580   8.485   0.012   4.234
 7787SOL    HW234581   8.490   0.132   4.123
 7788SOL     OW34582   0.046   7.739   4.701
 7788SOL    HW134583   9.948   7.760   4.701
 7788SOL    HW234584   0.089   7.778   4.782
 7789SOL     OW34585   3.548   3.817   4.701
 7789SOL    HW134586   3.485   3.812   4.779
 7789SOL    HW234587   3.531   3.740   4.640
 7790SOL     OW34588   1.854   5.063   1.472
 7790SOL    HW134589   1.864   5.045   1.374
 7790SOL    HW234590   1.772   5.019   1.507
 7791SOL     OW34591   9.349   8.957   2.977
 7791SOL    HW134592   9.365   8.935   2.880
 7791SOL    HW234593   9.350   8.872   3.030
 7792SOL     OW34594   9.042   7.032   0.154
 7792SOL    HW134595   8.948   7.033   0.122
 7792SOL    HW234596   9.054   6.958   0.221
 7793SOL     OW34597   3.123   3.491   5.887
 7793SOL    HW134598   3.106   3.442   5.801
 7793SOL    HW234599   3.119   3.427   5.963
 7794SOL     OW34600   0.173   9.419   3.873
 7794SOL    HW134601   0.147   9.468   3.790
 7794SOL    HW234602   0.184   9.322   3.852
 7795SOL     OW34603   7.748   2.155   3.332
 7795SOL    HW134604   7.805   2.105   3.398
 7795SOL    HW234605   7.803   2.180   3.253
 7796SOL     OW34606   3.839   4.275   1.700
 7796SOL    HW134607   3.876   4.361   1.665
 7796SOL    HW234608   3.868   4.200   1.640
 7797SOL     OW34609   5.622   9.768   5.348
 7797SOL    HW134610   5.675   9.852   5.352
 7797SOL    HW234611   5.648   9.707   5.422
 7798SOL     OW34612   1.891   2.683   1.442
 7798SOL    HW134613   1.977   2.632   1.443
 7798SOL    HW234614   1.814   2.620   1.430
 7799SOL     OW34615   8.542   5.762   4.088
 7799SOL    HW134616   8.609   5.689   4.101
 7799SOL    HW234617   8.450   5.725   4.098
 7800SOL     OW34618   3.347   3.500   2.712
 7800SOL    HW134619   3.421   3.458   2.764
 7800SOL    HW234620   3.307   3.574   2.766
 7801SOL     OW34621   1.409   0.580   4.794
 7801SOL    HW134622   1.502   0.597   4.760
 7801SOL    HW234623   1.365   0.511   4.737
 7802SOL     OW34624   9.047   3.575   6.288
 7802SOL    HW134625   8.985   3.652   6.307
 7802SOL    HW234626   9.010   3.492   6.329
 7803SOL     OW34627   1.138   0.059   5.953
 7803SOL    HW134628   1.162   0.063   5.856
 7803SOL    HW234629   1.041   0.035   5.963
 7804SOL     OW34630   8.496   3.875   3.397
 7804SOL    HW134631   8.563   3.825   3.453
 7804SOL    HW234632   8.531   3.966   3.377
 7805SOL     OW34633   7.230   4.734   2.491
 7805SOL    HW134634   7.226   4.634   2.497
 7805SOL    HW234635   7.324   4.765   2.509
 7806SOL     OW34636   9.493   9.197   0.732
 7806SOL    HW134637   9.474   9.152   0.819
 7806SOL    HW234638   9.541   9.133   0.671
 7807SOL     OW34639   9.193   8.062   2.259
 7807SOL    HW134640   9.131   8.128   2.216
 7807SOL    HW234641   9.234   8.004   2.189
 7808SOL     OW34642   2.463   0.232   3.948
 7808SOL    HW134643   2.538   0.185   3.994
 7808SOL    HW234644   2.495   0.319   3.910
 7809SOL     OW34645   4.169   2.058   4.438
 7809SOL    HW134646   4.229   2.122   4.390
 7809SOL    HW234647   4.121   2.001   4.371
 7810SOL     OW34648   1.108   6.958   6.052
 7810SOL    HW134649   1.031   6.896   6.037
 7810SOL    HW234650   1.080   7.052   6.035
 7811SOL     OW34651   0.201   2.986   5.415
 7811SOL    HW134652   0.149   2.924   5.356
 7811SOL    HW234653   0.193   3.079   5.380
 7812SOL     OW34654   8.009   5.176   5.184
 7812SOL    HW134655   8.049   5.086   5.202
 7812SOL    HW234656   8.045   5.242   5.250
 7813SOL     OW34657   1.103   0.954   2.995
 7813SOL    HW134658   1.123   0.872   3.047
 7813SOL    HW234659   1.188   1.005   2.979
 7814SOL     OW34660   8.598   2.985   2.163
 7814SOL    HW134661   8.694   2.979   2.192
 7814SOL    HW234662   8.547   2.908   2.202
 7815SOL     OW34663   7.311   6.487   4.146
 7815SOL    HW134664   7.383   6.537   4.098
 7815SOL    HW234665   7.263   6.548   4.208
 7816SOL     OW34666   2.942   6.187   5.724
 7816SOL    HW134667   2.923   6.267   5.781
 7816SOL    HW234668   2.945   6.105   5.783
 7817SOL     OW34669   8.281   9.370   1.256
 7817SOL    HW134670   8.199   9.416   1.288
 7817SOL    HW234671   8.344   9.437   1.215
 7818SOL     OW34672   9.417   0.833   5.923
 7818SOL    HW134673   9.397   0.744   5.965
 7818SOL    HW234674   9.436   0.820   5.825
 7819SOL     OW34675   7.313   6.894   4.964
 7819SOL    HW134676   7.238   6.858   5.020
 7819SOL    HW234677   7.401   6.873   5.008
 7820SOL     OW34678   7.910   8.554   1.677
 7820SOL    HW134679   7.922   8.619   1.602
 7820SOL    HW234680   7.904   8.603   1.763
 7821SOL     OW34681   8.597   6.746   1.014
 7821SOL    HW134682   8.566   6.760   1.108
 7821SOL    HW234683   8.677   6.686   1.014
 7822SOL     OW34684   0.587   7.823   3.146
 7822SOL    HW134685   0.665   7.857   3.198
 7822SOL    HW234686   0.552   7.897   3.088
 7823SOL     OW34687   7.332   0.895   6.161
 7823SOL    HW134688   7.430   0.881   6.167
 7823SOL    HW234689   7.290   0.816   6.115
 7824SOL     OW34690   2.508   5.826   0.838
 7824SOL    HW134691   2.542   5.743   0.883
 7824SOL    HW234692   2.585   5.884   0.813
 7825SOL     OW34693   2.447   8.119   0.478
 7825SOL    HW134694   2.392   8.037   0.461
 7825SOL    HW234695   2.532   8.113   0.425
 7826SOL     OW34696   7.605   5.683   0.621
 7826SOL    HW134697   7.511   5.666   0.589
 7826SOL    HW234698   7.664   5.702   0.542
 7827SOL     OW34699   7.028   7.974   2.879
 7827SOL    HW134700   6.973   7.905   2.927
 7827SOL    HW234701   6.972   8.053   2.857
 7828SOL     OW34702   9.336   5.583   0.975
 7828SOL    HW134703   9.386   5.641   0.911
 7828SOL    HW234704   9.313   5.496   0.931
 7829SOL     OW34705   9.026   8.417   4.942
 7829SOL    HW134706   8.960   8.353   4.904
 7829SOL    HW234707   8.980   8.503   4.963
 7830SOL     OW34708   4.782   3.182   4.542
 7830SOL    HW134709   4.724   3.210   4.618
 7830SOL    HW234710   4.850   3.253   4.523
 7831SOL     OW34711   6.819   5.250   0.187
 7831SOL    HW134712   6.893   5.205   0.238
 7831SOL    HW234713   6.837   5.240   0.089
 7832SOL     OW34714   4.456   3.691   5.502
 7832SOL    HW134715   4.360   3.694   5.476
 7832SOL    HW234716   4.503   3.621   5.449
 7833SOL     OW34717   7.978   0.519   1.863
 7833SOL    HW134718   7.972   0.551   1.768
 7833SOL    HW234719   7.897   0.464   1.885
 7834SOL     OW34720   2.830   2.655   2.872
 7834SOL    HW134721   2.859   2.724   2.938
 7834SOL    HW234722   2.844   2.690   2.779
 7835SOL     OW34723   8.982   1.052   0.935
 7835SOL    HW134724   8.937   1.096   0.857
 7835SOL    HW234725   8.961   0.954   0.933
 7836SOL     OW34726   6.892   0.197   5.403
 7836SOL    HW134727   6.829   0.125   5.374
 7836SOL    HW234728   6.983   0.180   5.364
 7837SOL     OW34729   1.879   4.893   5.525
 7837SOL    HW134730   1.978   4.897   5.531
 7837SOL    HW234731   1.839   4.972   5.572
 7838SOL     OW34732   2.325   5.116   0.753
 7838SOL    HW134733   2.379   5.034   0.733
 7838SOL    HW234734   2.334   5.139   0.850
 7839SOL     OW34735   1.491   2.119   1.158
 7839SOL    HW134736   1.401   2.086   1.188
 7839SOL    HW234737   1.498   2.111   1.059
 7840SOL     OW34738   9.076   7.129   2.099
 7840SOL    HW134739   9.004   7.128   2.031
 7840SOL    HW234740   9.059   7.203   2.164
 7841SOL     OW34741   9.675   0.860   0.829
 7841SOL    HW134742   9.624   0.775   0.837
 7841SOL    HW234743   9.687   0.884   0.733
 7842SOL     OW34744   4.517   5.592   1.822
 7842SOL    HW134745   4.592   5.636   1.870
 7842SOL    HW234746   4.493   5.507   1.869
 7843SOL     OW34747   7.615   6.585   5.533
 7843SOL    HW134748   7.552   6.634   5.593
 7843SOL    HW234749   7.610   6.487   5.552
 7844SOL     OW34750   3.153   9.285   1.236
 7844SOL    HW134751   3.066   9.316   1.199
 7844SOL    HW234752   3.207   9.363   1.267
 7845SOL     OW34753   6.598   8.464   3.567
 7845SOL    HW134754   6.561   8.514   3.646
 7845SOL    HW234755   6.523   8.430   3.511
 7846SOL     OW34756   1.855   9.638   6.139
 7846SOL    HW134757   1.913   9.694   6.197
 7846SOL    HW234758   1.869   9.662   6.043
 7847SOL     OW34759   1.529   2.484   0.860
 7847SOL    HW134760   1.469   2.419   0.906
 7847SOL    HW234761   1.500   2.495   0.765
 7848SOL     OW34762   1.083   0.938   5.350
 7848SOL    HW134763   0.984   0.948   5.336
 7848SOL    HW234764   1.114   1.005   5.417
 7849SOL     OW34765   3.575   2.905   4.562
 7849SOL    HW134766   3.512   2.827   4.559
 7849SOL    HW234767   3.662   2.876   4.602
 7850SOL     OW34768   3.718   8.627   4.859
 7850SOL    HW134769   3.813   8.597   4.857
 7850SOL    HW234770   3.669   8.587   4.782
 7851SOL     OW34771   2.902   8.143   4.609
 7851SOL    HW134772   2.917   8.047   4.586
 7851SOL    HW234773   2.933   8.161   4.702
 7852SOL     OW34774   9.184   2.251   5.724
 7852SOL    HW134775   9.230   2.299   5.799
 7852SOL    HW234776   9.252   2.203   5.669
 7853SOL     OW34777   0.840   8.699   4.392
 7853SOL    HW134778   0.761   8.639   4.382
 7853SOL    HW234779   0.822   8.786   4.346
 7854SOL     OW34780   8.514   1.684   5.876
 7854SOL    HW134781   8.459   1.622   5.819
 7854SOL    HW234782   8.528   1.643   5.966
 7855SOL     OW34783   9.589   3.218   2.149
 7855SOL    HW134784   9.644   3.258   2.222
 7855SOL    HW234785   9.645   3.153   2.097
 7856SOL     OW34786   8.127   7.313   6.179
 7856SOL    HW134787   8.141   7.225   6.132
 7856SOL    HW234788   8.215   7.353   6.201
 7857SOL     OW34789   7.491   4.835   2.556
 7857SOL    HW134790   7.519   4.808   2.648
 7857SOL    HW234791   7.455   4.928   2.558
 7858SOL     OW34792   0.380   4.301   5.882
 7858SOL    HW134793   0.307   4.315   5.815
 7858SOL    HW234794   0.460   4.260   5.837
 7859SOL     OW34795   8.676   7.781   5.165
 7859SOL    HW134796   8.614   7.799   5.241
 7859SOL    HW234797   8.631   7.720   5.099
 7860SOL     OW34798   0.226   4.685   2.720
 7860SOL    HW134799   0.162   4.620   2.760
 7860SOL    HW234800   0.296   4.635   2.669
 7861SOL     OW34801   1.567   4.007   1.224
 7861SOL    HW134802   1.633   3.932   1.233
 7861SOL    HW234803   1.490   3.977   1.168
 7862SOL     OW34804   6.982   6.285   5.757
 7862SOL    HW134805   7.015   6.231   5.834
 7862SOL    HW234806   7.058   6.333   5.714
 7863SOL     OW34807   2.118   4.221   3.066
 7863SOL    HW134808   2.205   4.264   3.089
 7863SOL    HW234809   2.134   4.146   3.002
 7864SOL     OW34810   6.066   1.205   2.935
 7864SOL    HW134811   6.000   1.136   2.965
 7864SOL    HW234812   6.077   1.199   2.835
 7865SOL     OW34813   6.556   1.503   2.174
 7865SOL    HW134814   6.498   1.445   2.231
 7865SOL    HW234815   6.499   1.562   2.118
 7866SOL     OW34816   7.699   2.642   0.728
 7866SOL    HW134817   7.795   2.668   0.739
 7866SOL    HW234818   7.652   2.710   0.673
 7867SOL     OW34819   2.362   4.559   6.358
 7867SOL    HW134820   2.263   4.568   6.364
 7867SOL    HW234821   2.385   4.468   6.324
 7868SOL     OW34822   7.241   2.115   2.895
 7868SOL    HW134823   7.217   2.187   2.960
 7868SOL    HW234824   7.332   2.079   2.917
 7869SOL     OW34825   5.050   8.826   6.245
 7869SOL    HW134826   4.954   8.816   6.218
 7869SOL    HW234827   5.087   8.736   6.267
 7870SOL     OW34828   9.258   8.493   4.441
 7870SOL    HW134829   9.236   8.429   4.515
 7870SOL    HW234830   9.212   8.580   4.458
 7871SOL     OW34831   3.739   4.701   5.877
 7871SOL    HW134832   3.654   4.649   5.878
 7871SOL    HW234833   3.729   4.780   5.816
 7872SOL     OW34834   9.935   4.543   3.358
 7872SOL    HW134835   9.964   4.469   3.297
 7872SOL    HW234836   0.015   4.579   3.407
 7873SOL     OW34837   1.214   4.564   2.910
 7873SOL    HW134838   1.154   4.570   2.991
 7873SOL    HW234839   1.265   4.478   2.914
 7874SOL     OW34840   1.971   2.331   5.447
 7874SOL    HW134841   1.982   2.284   5.359
 7874SOL    HW234842   1.942   2.265   5.516
 7875SOL     OW34843   4.757   9.479   3.938
 7875SOL    HW134844   4.662   9.492   3.911
 7875SOL    HW234845   4.761   9.440   4.030
 7876SOL     OW34846   1.165   7.086   4.288
 7876SOL    HW134847   1.261   7.083   4.259
 7876SOL    HW234848   1.156   7.042   4.377
 7877SOL     OW34849   2.118   2.712   5.577
 7877SOL    HW134850   2.117   2.673   5.486
 7877SOL    HW234851   2.209   2.702   5.618
 7878SOL     OW34852   6.351   0.033   5.562
 7878SOL    HW134853   6.414   0.097   5.517
 7878SOL    HW234854   6.402   9.973   5.624
 7879SOL     OW34855   6.797   0.484   0.476
 7879SOL    HW134856   6.775   0.578   0.447
 7879SOL    HW234857   6.895   0.477   0.493
 7880SOL     OW34858   0.446   9.145   1.058
 7880SOL    HW134859   0.417   9.164   1.152
 7880SOL    HW234860   0.509   9.066   1.059
 7881SOL     OW34861   2.492   9.025   4.989
 7881SOL    HW134862   2.587   9.052   5.006
 7881SOL    HW234863   2.465   9.056   4.898
 7882SOL     OW34864   1.453   5.862   0.053
 7882SOL    HW134865   1.509   5.802   8.184
 7882SOL    HW234866   1.488   5.860   0.147
 7883SOL     OW34867   8.127   5.644   1.724
 7883SOL    HW134868   8.089   5.735   1.742
 7883SOL    HW234869   8.063   5.592   1.668
 7884SOL     OW34870   9.837   8.596   1.976
 7884SOL    HW134871   9.842   8.497   1.991
 7884SOL    HW234872   9.874   8.644   2.055
 7885SOL     OW34873   8.798   7.443   4.044
 7885SOL    HW134874   8.799   7.525   3.987
 7885SOL    HW234875   8.852   7.371   4.000
 7886SOL     OW34876   3.672   3.779   4.143
 7886SOL    HW134877   3.582   3.742   4.122
 7886SOL    HW234878   3.677   3.875   4.114
 7887SOL     OW34879   4.780   9.113   1.725
 7887SOL    HW134880   4.736   9.074   1.645
 7887SOL    HW234881   4.858   9.057   1.751
 7888SOL     OW34882   1.159   6.291   0.454
 7888SOL    HW134883   1.186   6.387   0.456
 7888SOL    HW234884   1.106   6.270   0.536
 7889SOL     OW34885   1.253   3.551   3.145
 7889SOL    HW134886   1.176   3.584   3.090
 7889SOL    HW234887   1.331   3.611   3.133
 7890SOL     OW34888   7.098   2.285   1.829
 7890SOL    HW134889   7.041   2.358   1.791
 7890SOL    HW234890   7.045   2.233   1.896
 7891SOL     OW34891   9.250   3.700   5.800
 7891SOL    HW134892   9.300   3.633   5.855
 7891SOL    HW234893   9.278   3.691   5.704
 7892SOL     OW34894   0.666   9.250   2.563
 7892SOL    HW134895   0.740   9.318   2.563
 7892SOL    HW234896   0.690   9.175   2.502
 7893SOL     OW34897   7.325   5.831   6.006
 7893SOL    HW134898   7.328   5.917   6.058
 7893SOL    HW234899   7.396   5.769   6.039
 7894SOL     OW34900   9.557   3.316   4.413
 7894SOL    HW134901   9.577   3.270   4.499
 7894SOL    HW234902   9.463   3.298   4.386
 7895SOL     OW34903   8.071   0.143   0.227
 7895SOL    HW134904   8.136   0.140   0.150
 7895SOL    HW234905   7.983   0.176   0.194
 7896SOL     OW34906   7.580   0.995   1.409
 7896SOL    HW134907   7.512   0.926   1.433
 7896SOL    HW234908   7.623   1.029   1.492
 7897SOL     OW34909   9.772   7.887   0.237
 7897SOL    HW134910   9.685   7.897   0.189
 7897SOL    HW234911   9.775   7.799   0.285
 7898SOL     OW34912   8.427   1.002   1.962
 7898SOL    HW134913   8.389   0.974   2.050
 7898SOL    HW234914   8.512   0.952   1.944
 7899SOL     OW34915   3.085   8.132   0.356
 7899SOL    HW134916   3.185   8.135   0.349
 7899SOL    HW234917   3.058   8.053   0.413
 7900SOL     OW34918   4.857   0.706   0.492
 7900SOL    HW134919   4.813   0.795   0.503
 7900SOL    HW234920   4.917   0.709   0.413
 7901SOL     OW34921   7.984   6.773   3.184
 7901SOL    HW134922   8.012   6.782   3.088
 7901SOL    HW234923   7.958   6.678   3.202
 7902SOL     OW34924   8.591   4.848   0.269
 7902SOL    HW134925   8.648   4.794   0.207
 7902SOL    HW234926   8.610   4.945   0.256
 7903SOL     OW34927   2.792   2.267   0.649
 7903SOL    HW134928   2.759   2.217   0.730
 7903SOL    HW234929   2.715   2.290   0.590
 7904SOL     OW34930   6.899   2.450   1.174
 7904SOL    HW134931   6.949   2.392   1.110
 7904SOL    HW234932   6.872   2.394   1.253
 7905SOL     OW34933   9.049   3.238   0.692
 7905SOL    HW134934   9.104   3.280   0.764
 7905SOL    HW234935   9.085   3.265   0.603
 7906SOL     OW34936   0.091   3.397   2.985
 7906SOL    HW134937   9.993   3.403   3.000
 7906SOL    HW234938   0.109   3.342   2.904
 7907SOL     OW34939   5.620   5.176   0.637
 7907SOL    HW134940   5.698   5.166   0.699
 7907SOL    HW234941   5.571   5.260   0.659
 7908SOL     OW34942   9.888   1.286   4.946
 7908SOL    HW134943   9.842   1.200   4.966
 7908SOL    HW234944   9.858   1.320   4.857
 7909SOL     OW34945   8.821   1.165   1.598
 7909SOL    HW134946   8.881   1.189   1.521
 7909SOL    HW234947   8.744   1.110   1.564
 7910SOL     OW34948   0.895   8.146   3.051
 7910SOL    HW134949   0.993   8.161   3.058
 7910SOL    HW234950   0.848   8.234   3.047
 7911SOL     OW34951   8.900   6.237   3.421
 7911SOL    HW134952   8.817   6.196   3.458
 7911SOL    HW234953   8.948   6.288   3.492
 7912SOL     OW34954   8.811   9.175   2.400
 7912SOL    HW134955   8.712   9.162   2.406
 7912SOL    HW234956   8.831   9.271   2.382
 7913SOL     OW34957   6.225   1.351   0.936
 7913SOL    HW134958   6.147   1.362   0.875
 7913SOL    HW234959   6.240   1.435   0.987
 7914SOL     OW34960   8.669   7.361   1.479
 7914SOL    HW134961   8.685   7.302   1.558
 7914SOL    HW234962   8.572   7.364   1.457
 7915SOL     OW34963   7.029   1.883   2.549
 7915SOL    HW134964   7.033   1.960   2.614
 7915SOL    HW234965   7.121   1.867   2.512
 7916SOL     OW34966   0.712   7.302   0.684
 7916SOL    HW134967   0.713   7.348   0.595
 7916SOL    HW234968   0.802   7.310   0.727
 7917SOL     OW34969   2.925   7.068   4.454
 7917SOL    HW134970   3.021   7.080   4.430
 7917SOL    HW234971   2.898   7.138   4.520
 7918SOL     OW34972   0.858   5.776   1.845
 7918SOL    HW134973   0.808   5.773   1.759
 7918SOL    HW234974   0.803   5.735   1.918
 7919SOL     OW34975   9.601   4.587   0.234
 7919SOL    HW134976   9.621   4.496   0.271
 7919SOL    HW234977   9.669   4.653   0.268
 7920SOL     OW34978   3.468   7.626   0.951
 7920SOL    HW134979   3.504   7.644   1.043
 7920SOL    HW234980   3.433   7.712   0.912
 7921SOL     OW34981   9.446   0.289   0.097
 7921SOL    HW134982   9.376   0.288   0.025
 7921SOL    HW234983   9.457   0.198   0.135
 7922SOL     OW34984   3.744   1.450   1.284
 7922SOL    HW134985   3.773   1.356   1.296
 7922SOL    HW234986   3.704   1.484   1.369
 7923SOL     OW34987   7.183   4.572   1.332
 7923SOL    HW134988   7.201   4.474   1.316
 7923SOL    HW234989   7.270   4.622   1.332
 7924SOL     OW34990   2.485   2.579   6.316
 7924SOL    HW134991   2.562   2.636   6.345
 7924SOL    HW234992   2.431   2.628   6.247
 7925SOL     OW34993   9.995   5.010   6.120
 7925SOL    HW134994   9.915   4.960   6.153
 7925SOL    HW234995   0.043   4.955   6.051
 7926SOL     OW34996   3.948   8.425   0.572
 7926SOL    HW134997   4.028   8.455   0.623
 7926SOL    HW234998   3.954   8.326   0.556
 7927SOL     OW34999   5.989   9.951   5.201
 7927SOL    HW135000   6.069   9.943   5.261
 7927SOL    HW235001   5.981   9.868   5.146
 7928SOL     OW35002   8.397   1.933   2.538
 7928SOL    HW135003   8.385   1.846   2.585
 7928SOL    HW235004   8.333   1.939   2.461
 7929SOL     OW35005   1.934   5.636   3.345
 7929SOL    HW135006   1.957   5.610   3.251
 7929SOL    HW235007   1.923   5.554   3.400
 7930SOL     OW35008   0.394   6.032   1.488
 7930SOL    HW135009   0.331   6.079   1.550
 7930SOL    HW235010   0.359   5.940   1.470
 7931SOL     OW35011   0.848   6.012   5.318
 7931SOL    HW135012   0.791   5.957   5.380
 7931SOL    HW235013   0.867   5.960   5.235
 7932SOL     OW35014   2.496   7.792   4.921
 7932SOL    HW135015   2.445   7.708   4.907
 7932SOL    HW235016   2.528   7.827   4.833
 7933SOL     OW35017   7.919   2.866   5.665
 7933SOL    HW135018   7.898   2.768   5.672
 7933SOL    HW235019   7.983   2.880   5.589
 7934SOL     OW35020   7.247   4.987   0.805
 7934SOL    HW135021   7.203   5.077   0.809
 7934SOL    HW235022   7.280   4.962   0.896
 7935SOL     OW35023   7.195   2.470   4.380
 7935SOL    HW135024   7.127   2.542   4.396
 7935SOL    HW235025   7.287   2.511   4.378
 7936SOL     OW35026   9.948   0.274   5.627
 7936SOL    HW135027   0.035   0.278   5.578
 7936SOL    HW235028   9.917   0.180   5.635
 7937SOL     OW35029   8.383   6.833   1.214
 7937SOL    HW135030   8.355   6.818   1.309
 7937SOL    HW235031   8.405   6.930   1.200
 7938SOL     OW35032   9.102   5.047   3.082
 7938SOL    HW135033   9.129   5.139   3.110
 7938SOL    HW235034   9.174   4.982   3.107
 7939SOL     OW35035   1.143   6.352   5.289
 7939SOL    HW135036   1.147   6.316   5.196
 7939SOL    HW235037   1.218   6.315   5.343
 7940SOL     OW35038   7.130   1.396   5.512
 7940SOL    HW135039   7.142   1.353   5.601
 7940SOL    HW235040   7.044   1.448   5.512
 7941SOL     OW35041   5.017   9.107   5.490
 7941SOL    HW135042   5.105   9.101   5.444
 7941SOL    HW235043   5.025   9.170   5.567
 7942SOL     OW35044   2.454   6.693   0.274
 7942SOL    HW135045   2.471   6.774   0.218
 7942SOL    HW235046   2.530   6.680   0.338
 7943SOL     OW35047   3.834   0.917   4.103
 7943SOL    HW135048   3.913   0.978   4.107
 7943SOL    HW235049   3.756   0.961   4.148
 7944SOL     OW35050   1.929   1.415   2.804
 7944SOL    HW135051   1.914   1.486   2.872
 7944SOL    HW235052   1.942   1.327   2.850
 7945SOL     OW35053   9.036   0.024   3.398
 7945SOL    HW135054   9.096   0.058   3.327
 7945SOL    HW235055   9.065   0.059   3.487
 7946SOL     OW35056   1.765   7.176   3.084
 7946SOL    HW135057   1.861   7.201   3.092
 7946SOL    HW235058   1.736   7.129   3.168
 7947SOL     OW35059   1.617   4.733   0.431
 7947SOL    HW135060   1.584   4.639   0.438
 7947SOL    HW235061   1.714   4.737   0.452
 7948SOL     OW35062   2.132   3.923   5.242
 7948SOL    HW135063   2.198   3.852   5.217
 7948SOL    HW235064   2.169   4.013   5.219
 7949SOL     OW35065   1.166   2.987   2.942
 7949SOL    HW135066   1.093   3.009   3.006
 7949SOL    HW235067   1.143   2.901   2.895
 7950SOL     OW35068   5.785   9.767   4.546
 7950SOL    HW135069   5.883   9.761   4.525
 7950SOL    HW235070   5.765   9.712   4.626
 7951SOL     OW35071   1.101   4.878   3.590
 7951SOL    HW135072   1.057   4.924   3.667
 7951SOL    HW235073   1.135   4.789   3.619
 7952SOL     OW35074   8.867   3.892   4.045
 7952SOL    HW135075   8.921   3.812   4.071
 7952SOL    HW235076   8.873   3.961   4.117
 7953SOL     OW35077   3.975   0.643   5.494
 7953SOL    HW135078   4.022   0.600   5.571
 7953SOL    HW235079   4.023   0.623   5.409
 7954SOL     OW35080   5.260   1.431   3.277
 7954SOL    HW135081   5.185   1.495   3.295
 7954SOL    HW235082   5.347   1.473   3.303
 7955SOL     OW35083   7.449   7.301   6.381
 7955SOL    HW135084   7.429   7.290   6.284
 7955SOL    HW235085   7.372   7.344   6.427
 7956SOL     OW35086   1.717   3.836   6.032
 7956SOL    HW135087   1.735   3.762   5.967
 7956SOL    HW235088   1.626   3.825   6.071
 7957SOL     OW35089   2.702   2.766   6.341
 7957SOL    HW135090   2.740   2.734   6.254
 7957SOL    HW235091   2.674   2.861   6.332
 7958SOL     OW35092   2.812   5.158   0.722
 7958SOL    HW135093   2.842   5.216   0.646
 7958SOL    HW235094   2.789   5.067   0.687
 7959SOL     OW35095   2.983   0.139   1.560
 7959SOL    HW135096   2.922   0.085   1.619
 7959SOL    HW235097   2.984   0.101   1.468
 7960SOL     OW35098   8.269   5.355   4.114
 7960SOL    HW135099   8.233   5.370   4.022
 7960SOL    HW235100   8.345   5.290   4.110
 7961SOL     OW35101   4.358   9.390   5.987
 7961SOL    HW135102   4.360   9.441   5.901
 7961SOL    HW235103   4.278   9.330   5.988
 7962SOL     OW35104   6.640   1.619   5.508
 7962SOL    HW135105   6.599   1.707   5.483
 7962SOL    HW235106   6.631   1.555   5.431
 7963SOL     OW35107   3.017   8.857   2.020
 7963SOL    HW135108   3.027   8.932   2.085
 7963SOL    HW235109   2.936   8.872   1.963
 7964SOL     OW35110   3.826   7.768   5.996
 7964SOL    HW135111   3.839   7.785   6.094
 7964SOL    HW235112   3.906   7.721   5.960
 7965SOL     OW35113   1.842   4.360   4.256
 7965SOL    HW135114   1.839   4.375   4.157
 7965SOL    HW235115   1.753   4.385   4.295
 7966SOL     OW35116   7.907   7.282   2.995
 7966SOL    HW135117   7.890   7.246   2.903
 7966SOL    HW235118   7.945   7.374   2.988
 7967SOL     OW35119   6.457   8.649   2.717
 7967SOL    HW135120   6.540   8.677   2.765
 7967SOL    HW235121   6.453   8.695   2.629
 7968SOL     OW35122   6.048   8.242   3.092
 7968SOL    HW135123   6.050   8.284   3.183
 7968SOL    HW235124   6.040   8.313   3.022
 7969SOL     OW35125   9.796   2.167   0.131
 7969SOL    HW135126   9.839   2.254   0.107
 7969SOL    HW235127   9.697   2.177   0.128
 7970SOL     OW35128   9.601   7.838   5.800
 7970SOL    HW135129   9.687   7.888   5.814
 7970SOL    HW235130   9.605   7.752   5.850
 7971SOL     OW35131   8.169   6.673   4.491
 7971SOL    HW135132   8.162   6.574   4.501
 7971SOL    HW235133   8.260   6.703   4.518
 7972SOL     OW35134   4.576   4.107   0.210
 7972SOL    HW135135   4.493   4.138   0.257
 7972SOL    HW235136   4.560   4.016   0.172
 7973SOL     OW35137   6.627   0.875   0.608
 7973SOL    HW135138   6.611   0.973   0.622
 7973SOL    HW235139   6.675   0.837   0.687
 7974SOL     OW35140   2.380   4.848   2.897
 7974SOL    HW135141   2.459   4.890   2.942
 7974SOL    HW235142   2.393   4.749   2.893
 7975SOL     OW35143   4.835   0.205   5.551
 7975SOL    HW135144   4.783   0.268   5.494
 7975SOL    HW235145   4.893   0.257   5.613
 7976SOL     OW35146   2.610   0.737   6.277
 7976SOL    HW135147   2.614   0.717   6.179
 7976SOL    HW235148   2.622   0.652   6.329
 7977SOL     OW35149   2.677   5.431   2.077
 7977SOL    HW135150   2.708   5.347   2.031
 7977SOL    HW235151   2.652   5.499   2.008
 7978SOL     OW35152   1.082   5.873   5.611
 7978SOL    HW135153   1.034   5.955   5.644
 7978SOL    HW235154   1.172   5.899   5.578
 7979SOL     OW35155   3.364   6.967   3.216
 7979SOL    HW135156   3.374   6.884   3.162
 7979SOL    HW235157   3.431   6.967   3.290
 7980SOL     OW35158   9.413   7.949   3.617
 7980SOL    HW135159   9.489   7.889   3.644
 7980SOL    HW235160   9.399   8.018   3.688
 7981SOL     OW35161   4.805   1.294   5.331
 7981SOL    HW135162   4.811   1.301   5.231
 7981SOL    HW235163   4.887   1.333   5.373
 7982SOL     OW35164   1.937   5.100   0.847
 7982SOL    HW135165   1.841   5.114   0.822
 7982SOL    HW235166   1.989   5.075   0.766
 7983SOL     OW35167   0.536   9.526   6.364
 7983SOL    HW135168   0.578   9.614   6.340
 7983SOL    HW235169   0.593   9.451   6.328
 7984SOL     OW35170   5.980   4.438   0.523
 7984SOL    HW135171   6.027   4.474   0.603
 7984SOL    HW235172   5.917   4.508   0.487
 7985SOL     OW35173   3.931   8.502   1.128
 7985SOL    HW135174   3.997   8.571   1.157
 7985SOL    HW235175   3.865   8.543   1.066
 7986SOL     OW35176   8.545   2.418   1.428
 7986SOL    HW135177   8.547   2.336   1.486
 7986SOL    HW235178   8.450   2.449   1.418
 7987SOL     OW35179   8.569   9.735   0.185
 7987SOL    HW135180   8.606   9.770   0.271
 7987SOL    HW235181   8.469   9.732   0.190
 7988SOL     OW35182   3.849   1.272   6.117
 7988SOL    HW135183   3.808   1.260   6.207
 7988SOL    HW235184   3.938   1.315   6.126
 7989SOL     OW35185   3.403   6.907   6.025
 7989SOL    HW135186   3.451   6.905   6.113
 7989SOL    HW235187   3.336   6.982   6.026
 7990SOL     OW35188   7.848   9.815   4.965
 7990SOL    HW135189   7.860   9.725   4.925
 7990SOL    HW235190   7.751   9.830   4.986
 7991SOL     OW35191   2.281   0.267   4.151
 7991SOL    HW135192   2.340   0.278   4.231
 7991SOL    HW235193   2.337   0.248   4.071
 7992SOL     OW35194   4.772   2.053   3.630
 7992SOL    HW135195   4.727   2.098   3.707
 7992SOL    HW235196   4.771   1.954   3.645
 7993SOL     OW35197   8.911   2.288   2.305
 7993SOL    HW135198   8.943   2.382   2.320
 7993SOL    HW235199   8.964   2.225   2.361
 7994SOL     OW35200   8.153   0.020   3.227
 7994SOL    HW135201   8.253   0.019   3.222
 7994SOL    HW235202   8.121   9.944   3.283
 7995SOL     OW35203   8.488   6.813   0.779
 7995SOL    HW135204   8.527   6.792   0.869
 7995SOL    HW235205   8.512   6.906   0.753
 7996SOL     OW35206   0.609   1.327   4.262
 7996SOL    HW135207   0.565   1.323   4.172
 7996SOL    HW235208   0.540   1.314   4.333
 7997SOL     OW35209   6.928   1.007   5.397
 7997SOL    HW135210   6.969   0.916   5.403
 7997SOL    HW235211   6.894   1.034   5.487
 7998SOL     OW35212   7.633   1.144   4.878
 7998SOL    HW135213   7.687   1.078   4.931
 7998SOL    HW235214   7.625   1.113   4.784
 7999SOL     OW35215   7.664   2.335   3.950
 7999SOL    HW135216   7.569   2.339   3.919
 7999SOL    HW235217   7.725   2.351   3.872
 8000SOL     OW35218   1.602   9.705   6.224
 8000SOL    HW135219   1.696   9.683   6.198
 8000SOL    HW235220   1.599   9.799   6.260
 8001SOL     OW35221   0.272   4.556   1.081
 8001SOL    HW135222   0.219   4.634   1.046
 8001SOL    HW235223   0.212   4.477   1.091
 8002SOL     OW35224   4.296   2.941   5.666
 8002SOL    HW135225   4.283   2.861   5.607
 8002SOL    HW235226   4.373   2.995   5.634
 8003SOL     OW35227   8.265   2.265   4.431
 8003SOL    HW135228   8.168   2.241   4.426
 8003SOL    HW235229   8.310   2.202   4.494
 8004SOL     OW35230   1.774   4.371   2.965
 8004SOL    HW135231   1.775   4.275   2.995
 8004SOL    HW235232   1.855   4.389   2.910
 8005SOL     OW35233   8.711   8.605   4.622
 8005SOL    HW135234   8.616   8.616   4.593
 8005SOL    HW235235   8.765   8.683   4.589
 8006SOL     OW35236   2.821   0.841   0.325
 8006SOL    HW135237   2.914   0.873   0.343
 8006SOL    HW235238   2.823   0.743   0.303
 8007SOL     OW35239   8.245   6.250   5.740
 8007SOL    HW135240   8.305   6.245   5.660
 8007SOL    HW235241   8.265   6.333   5.792
 8008SOL     OW35242   1.454   9.799   3.629
 8008SOL    HW135243   1.441   9.709   3.671
 8008SOL    HW235244   1.394   9.865   3.675
 8009SOL     OW35245   9.670   8.304   3.291
 8009SOL    HW135246   9.736   8.266   3.356
 8009SOL    HW235247   9.583   8.320   3.337
 8010SOL     OW35248   3.715   8.894   5.412
 8010SOL    HW135249   3.704   8.800   5.381
 8010SOL    HW235250   3.626   8.941   5.406
 8011SOL     OW35251   4.372   0.311   1.893
 8011SOL    HW135252   4.404   0.405   1.901
 8011SOL    HW235253   4.363   0.272   1.985
 8012SOL     OW35254   8.116   7.512   3.311
 8012SOL    HW135255   8.118   7.519   3.411
 8012SOL    HW235256   8.141   7.419   3.283
 8013SOL     OW35257   9.810   8.616   2.680
 8013SOL    HW135258   9.742   8.679   2.642
 8013SOL    HW235259   9.886   8.669   2.718
 8014SOL     OW35260   3.684   9.351   4.869
 8014SOL    HW135261   3.777   9.317   4.883
 8014SOL    HW235262   3.657   9.410   4.945
 8015SOL     OW35263   5.921   5.756   0.911
 8015SOL    HW135264   5.831   5.751   0.867
 8015SOL    HW235265   5.945   5.851   0.927
 8016SOL     OW35266   0.067   5.565   4.071
 8016SOL    HW135267   0.060   5.642   4.135
 8016SOL    HW235268   9.976   5.542   4.038
 8017SOL     OW35269   2.076   8.147   5.404
 8017SOL    HW135270   2.089   8.119   5.499
 8017SOL    HW235271   2.012   8.085   5.359
 8018SOL     OW35272   7.510   0.775   3.262
 8018SOL    HW135273   7.605   0.775   3.230
 8018SOL    HW235274   7.466   0.690   3.234
 8019SOL     OW35275   1.731   4.414   1.095
 8019SOL    HW135276   1.751   4.429   0.998
 8019SOL    HW235277   1.767   4.325   1.123
 8020SOL     OW35278   4.874   2.656   5.683
 8020SOL    HW135279   4.799   2.715   5.656
 8020SOL    HW235280   4.861   2.565   5.644
 8021SOL     OW35281   8.417   7.626   2.663
 8021SOL    HW135282   8.362   7.708   2.677
 8021SOL    HW235283   8.450   7.593   2.752
 8022SOL     OW35284   9.991   5.977   4.050
 8022SOL    HW135285   0.084   5.971   4.014
 8022SOL    HW235286   9.927   5.944   3.981
 8023SOL     OW35287   4.098   7.738   3.085
 8023SOL    HW135288   4.116   7.672   3.013
 8023SOL    HW235289   4.070   7.690   3.169
 8024SOL     OW35290   3.368   8.149   0.361
 8024SOL    HW135291   3.353   8.166   0.459
 8024SOL    HW235292   3.397   8.054   0.349
 8025SOL     OW35293   6.232   1.320   6.065
 8025SOL    HW135294   6.327   1.348   6.080
 8025SOL    HW235295   6.212   1.237   6.116
 8026SOL     OW35296   0.344   9.332   3.312
 8026SOL    HW135297   0.390   9.390   3.244
 8026SOL    HW235298   0.259   9.377   3.341
 8027SOL     OW35299   8.794   6.995   2.373
 8027SOL    HW135300   8.763   7.021   2.281
 8027SOL    HW235301   8.714   6.983   2.433
 8028SOL     OW35302   2.574   9.218   1.878
 8028SOL    HW135303   2.567   9.270   1.794
 8028SOL    HW235304   2.568   9.120   1.858
 8029SOL     OW35305   7.798   1.514   4.800
 8029SOL    HW135306   7.867   1.586   4.805
 8029SOL    HW235307   7.814   1.447   4.872
 8030SOL     OW35308   8.250   6.934   2.535
 8030SOL    HW135309   8.213   6.842   2.525
 8030SOL    HW235310   8.208   6.978   2.614
 8031SOL     OW35311   3.360   0.469   5.930
 8031SOL    HW135312   3.347   0.388   5.988
 8031SOL    HW235313   3.415   0.443   5.850
 8032SOL     OW35314   1.354   0.172   4.455
 8032SOL    HW135315   1.444   0.178   4.412
 8032SOL    HW235316   1.335   0.077   4.480
 8033SOL     OW35317   3.442   9.977   2.536
 8033SOL    HW135318   3.384   0.055   2.559
 8033SOL    HW235319   3.441   9.911   2.611
 8034SOL     OW35320   8.417   8.411   0.559
 8034SOL    HW135321   8.480   8.450   0.492
 8034SOL    HW235322   8.364   8.338   0.517
 8035SOL     OW35323   7.422   2.585   3.296
 8035SOL    HW135324   7.439   2.513   3.229
 8035SOL    HW235325   7.445   2.551   3.388
 8036SOL     OW35326   7.379   8.273   4.035
 8036SOL    HW135327   7.345   8.249   3.944
 8036SOL    HW235328   7.457   8.335   4.027
 8037SOL     OW35329   3.560   3.381   2.847
 8037SOL    HW135330   3.622   3.383   2.925
 8037SOL    HW235331   3.519   3.290   2.840
 8038SOL     OW35332   7.521   1.379   2.168
 8038SOL    HW135333   7.509   1.475   2.190
 8038SOL    HW235334   7.604   1.367   2.114
 8039SOL     OW35335   9.882   0.575   5.420
 8039SOL    HW135336   9.818   0.499   5.436
 8039SOL    HW235337   9.964   0.561   5.475
 8040SOL     OW35338   0.243   4.956   3.906
 8040SOL    HW135339   0.242   4.930   3.810
 8040SOL    HW235340   0.289   4.884   3.959
 8041SOL     OW35341   6.539   8.143   3.163
 8041SOL    HW135342   6.557   8.237   3.134
 8041SOL    HW235343   6.442   8.123   3.156
 8042SOL     OW35344   8.311   9.116   3.827
 8042SOL    HW135345   8.312   9.022   3.791
 8042SOL    HW235346   8.385   9.168   3.785
 8043SOL     OW35347   0.802   0.802   0.086
 8043SOL    HW135348   0.748   0.750   0.019
 8043SOL    HW235349   0.899   0.785   0.070
 8044SOL     OW35350   8.564   6.924   5.939
 8044SOL    HW135351   8.657   6.913   5.975
 8044SOL    HW235352   8.522   7.005   5.979
 8045SOL     OW35353   1.241   1.801   4.620
 8045SOL    HW135354   1.265   1.807   4.523
 8045SOL    HW235355   1.273   1.713   4.656
 8046SOL     OW35356   3.651   2.284   5.005
 8046SOL    HW135357   3.699   2.199   5.026
 8046SOL    HW235358   3.552   2.268   5.004
 8047SOL     OW35359   8.847   1.880   3.050
 8047SOL    HW135360   8.931   1.827   3.065
 8047SOL    HW235361   8.768   1.818   3.049
 8048SOL     OW35362   0.065   2.319   4.122
 8048SOL    HW135363   0.113   2.265   4.190
 8048SOL    HW235364   9.998   2.379   4.168
 8049SOL     OW35365   2.650   6.536   1.532
 8049SOL    HW135366   2.626   6.509   1.439
 8049SOL    HW235367   2.675   6.455   1.585
 8050SOL     OW35368   2.789   5.529   4.234
 8050SOL    HW135369   2.797   5.536   4.135
 8050SOL    HW235370   2.880   5.519   4.275
 8051SOL     OW35371   1.348   3.840   5.834
 8051SOL    HW135372   1.346   3.932   5.873
 8051SOL    HW235373   1.309   3.842   5.742
 8052SOL     OW35374   9.669   0.588   2.262
 8052SOL    HW135375   9.719   0.529   2.199
 8052SOL    HW235376   9.587   0.623   2.218
 8053SOL     OW35377   1.804   7.037   0.895
 8053SOL    HW135378   1.721   7.046   0.949
 8053SOL    HW235379   1.788   6.970   0.821
 8054SOL     OW35380   3.734   7.173   3.502
 8054SOL    HW135381   3.676   7.180   3.583
 8054SOL    HW235382   3.781   7.260   3.487
 8055SOL     OW35383   6.704   4.322   2.303
 8055SOL    HW135384   6.783   4.264   2.282
 8055SOL    HW235385   6.662   4.352   2.217
 8056SOL     OW35386   7.605   9.823   4.394
 8056SOL    HW135387   7.591   9.763   4.473
 8056SOL    HW235388   7.569   9.914   4.414
 8057SOL     OW35389   0.226   2.554   5.271
 8057SOL    HW135390   0.144   2.606   5.295
 8057SOL    HW235391   0.283   2.544   5.353
 8058SOL     OW35392   1.758   2.121   0.843
 8058SOL    HW135393   1.818   2.168   0.908
 8058SOL    HW235394   1.813   2.062   0.784
 8059SOL     OW35395   1.788   5.022   6.221
 8059SOL    HW135396   1.879   4.990   6.248
 8059SOL    HW235397   1.758   4.972   6.140
 8060SOL     OW35398   7.922   9.635   3.567
 8060SOL    HW135399   7.966   9.593   3.647
 8060SOL    HW235400   7.883   9.563   3.509
 8061SOL     OW35401   5.099   7.448   3.475
 8061SOL    HW135402   5.040   7.514   3.521
 8061SOL    HW235403   5.046   7.396   3.408
 8062SOL     OW35404   1.390   7.955   2.458
 8062SOL    HW135405   1.443   7.871   2.470
 8062SOL    HW235406   1.407   7.993   2.367
 8063SOL     OW35407   8.244   4.301   5.569
 8063SOL    HW135408   8.302   4.233   5.614
 8063SOL    HW235409   8.177   4.336   5.634
 8064SOL     OW35410   3.685   4.511   2.084
 8064SOL    HW135411   3.590   4.480   2.081
 8064SOL    HW235412   3.718   4.526   1.991
 8065SOL     OW35413   0.658   0.557   2.439
 8065SOL    HW135414   0.585   0.560   2.507
 8065SOL    HW235415   0.746   0.552   2.485
 8066SOL     OW35416   1.777   9.597   2.817
 8066SOL    HW135417   1.835   9.677   2.801
 8066SOL    HW235418   1.736   9.569   2.731
 8067SOL     OW35419   0.315   4.597   1.347
 8067SOL    HW135420   0.299   4.573   1.252
 8067SOL    HW235421   0.308   4.696   1.358
 8068SOL     OW35422   1.791   4.005   1.653
 8068SOL    HW135423   1.796   3.990   1.554
 8068SOL    HW235424   1.780   3.917   1.699
 8069SOL     OW35425   0.638   2.109   2.904
 8069SOL    HW135426   0.729   2.078   2.876
 8069SOL    HW235427   0.613   2.067   2.991
 8070SOL     OW35428   8.923   9.668   2.313
 8070SOL    HW135429   9.003   9.610   2.326
 8070SOL    HW235430   8.862   9.627   2.245
 8071SOL     OW35431   7.497   3.050   2.935
 8071SOL    HW135432   7.552   2.971   2.963
 8071SOL    HW235433   7.418   3.019   2.882
 8072SOL     OW35434   1.263   3.952   2.116
 8072SOL    HW135435   1.262   3.900   2.202
 8072SOL    HW235436   1.265   4.050   2.137
 8073SOL     OW35437   0.160   9.625   0.762
 8073SOL    HW135438   0.163   9.538   0.712
 8073SOL    HW235439   0.215   9.616   0.845
 8074SOL     OW35440   1.591   7.091   0.513
 8074SOL    HW135441   1.556   7.069   0.604
 8074SOL    HW235442   1.689   7.069   0.509
 8075SOL     OW35443   1.108   5.069   0.206
 8075SOL    HW135444   1.012   5.085   0.233
 8075SOL    HW235445   1.165   5.064   0.288
 8076SOL     OW35446   0.076   9.035   5.785
 8076SOL    HW135447   0.043   8.958   5.839
 8076SOL    HW235448   0.015   9.051   5.708
 8077SOL     OW35449   5.113   0.927   3.035
 8077SOL    HW135450   5.177   0.850   3.034
 8077SOL    HW235451   5.078   0.943   2.943
 8078SOL     OW35452   7.588   8.445   4.029
 8078SOL    HW135453   7.538   8.514   3.977
 8078SOL    HW235454   7.636   8.489   4.105
 8079SOL     OW35455   3.156   8.470   1.385
 8079SOL    HW135456   3.075   8.511   1.345
 8079SOL    HW235457   3.219   8.543   1.414
 8080SOL     OW35458   8.810   4.413   0.687
 8080SOL    HW135459   8.834   4.322   0.653
 8080SOL    HW235460   8.746   4.456   0.623
 8081SOL     OW35461   9.688   5.956   4.760
 8081SOL    HW135462   9.746   6.033   4.735
 8081SOL    HW235463   9.592   5.985   4.760
 8082SOL     OW35464   5.083   7.909   3.937
 8082SOL    HW135465   5.128   7.900   3.848
 8082SOL    HW235466   5.129   7.981   3.990
 8083SOL     OW35467   6.650   8.965   3.344
 8083SOL    HW135468   6.557   8.939   3.372
 8083SOL    HW235469   6.714   8.938   3.416
 8084SOL     OW35470   1.717   1.116   1.466
 8084SOL    HW135471   1.807   1.072   1.467
 8084SOL    HW235472   1.718   1.192   1.401
 8085SOL     OW35473   1.344   7.810   4.113
 8085SOL    HW135474   1.368   7.827   4.018
 8085SOL    HW235475   1.307   7.894   4.154
 8086SOL     OW35476   9.979   3.999   2.731
 8086SOL    HW135477   0.067   4.024   2.771
 8086SOL    HW235478   9.931   3.936   2.792
 8087SOL     OW35479   0.878   4.302   2.910
 8087SOL    HW135480   0.867   4.220   2.854
 8087SOL    HW235481   0.870   4.383   2.852
 8088SOL     OW35482   9.004   0.028   2.563
 8088SOL    HW135483   9.088   9.976   2.546
 8088SOL    HW235484   8.930   9.993   2.506
 8089SOL     OW35485   8.710   5.735   2.479
 8089SOL    HW135486   8.637   5.712   2.543
 8089SOL    HW235487   8.798   5.736   2.526
 8090SOL     OW35488   4.069   2.560   2.528
 8090SOL    HW135489   4.032   2.636   2.475
 8090SOL    HW235490   4.115   2.496   2.466
 8091SOL     OW35491   1.956   0.975   1.460
 8091SOL    HW135492   2.034   0.963   1.522
 8091SOL    HW235493   1.902   0.891   1.458
 8092SOL     OW35494   4.521   4.735   1.166
 8092SOL    HW135495   4.471   4.662   1.120
 8092SOL    HW235496   4.472   4.763   1.248
 8093SOL     OW35497   1.647   6.083   3.355
 8093SOL    HW135498   1.657   6.003   3.295
 8093SOL    HW235499   1.602   6.056   3.439
 8094SOL     OW35500   5.637   2.943   4.420
 8094SOL    HW135501   5.712   2.910   4.478
 8094SOL    HW235502   5.675   2.988   4.339
 8095SOL     OW35503   9.013   8.903   3.349
 8095SOL    HW135504   8.957   8.900   3.266
 8095SOL    HW235505   9.097   8.851   3.335
 8096SOL     OW35506   7.927   8.740   1.465
 8096SOL    HW135507   7.844   8.767   1.415
 8096SOL    HW235508   8.003   8.731   1.401
 8097SOL     OW35509   4.178   1.012   1.862
 8097SOL    HW135510   4.106   1.073   1.829
 8097SOL    HW235511   4.215   0.960   1.785
 8098SOL     OW35512   9.879   8.774   1.082
 8098SOL    HW135513   9.908   8.790   0.988
 8098SOL    HW235514   9.809   8.702   1.084
 8099SOL     OW35515   1.099   0.275   1.701
 8099SOL    HW135516   1.176   0.227   1.659
 8099SOL    HW235517   1.018   0.263   1.643
 8100SOL     OW35518   9.587   1.896   2.651
 8100SOL    HW135519   9.600   1.994   2.636
 8100SOL    HW235520   9.555   1.854   2.566
 8101SOL     OW35521   2.013   1.260   2.404
 8101SOL    HW135522   1.960   1.268   2.320
 8101SOL    HW235523   2.041   1.164   2.417
 8102SOL     OW35524   6.128   0.931   1.298
 8102SOL    HW135525   6.162   1.015   1.254
 8102SOL    HW235526   6.119   0.859   1.230
 8103SOL     OW35527   2.083   2.614   2.424
 8103SOL    HW135528   2.033   2.532   2.396
 8103SOL    HW235529   2.107   2.668   2.343
 8104SOL     OW35530   9.953   0.500   0.172
 8104SOL    HW135531   9.935   0.591   0.209
 8104SOL    HW235532   9.866   0.452   0.160
 8105SOL     OW35533   2.911   6.774   5.855
 8105SOL    HW135534   2.965   6.696   5.888
 8105SOL    HW235535   2.838   6.794   5.921
 8106SOL     OW35536   1.081   5.710   5.829
 8106SOL    HW135537   1.081   5.772   5.751
 8106SOL    HW235538   1.148   5.742   5.897
 8107SOL     OW35539   5.210   0.108   1.992
 8107SOL    HW135540   5.203   0.045   1.915
 8107SOL    HW235541   5.249   0.195   1.960
 8108SOL     OW35542   8.239   0.455   6.211
 8108SOL    HW135543   8.166   0.394   6.241
 8108SOL    HW235544   8.327   0.415   6.237
 8109SOL     OW35545   3.020   9.706   3.200
 8109SOL    HW135546   3.006   9.785   3.259
 8109SOL    HW235547   2.937   9.689   3.146
 8110SOL     OW35548   6.887   1.520   0.760
 8110SOL    HW135549   6.968   1.463   0.751
 8110SOL    HW235550   6.808   1.462   0.781
 8111SOL     OW35551   2.358   4.885   2.206
 8111SOL    HW135552   2.409   4.815   2.154
 8111SOL    HW235553   2.275   4.845   2.244
 8112SOL     OW35554   7.144   2.100   5.632
 8112SOL    HW135555   7.234   2.099   5.587
 8112SOL    HW235556   7.131   2.188   5.677
 8113SOL     OW35557   8.762   7.859   2.784
 8113SOL    HW135558   8.788   7.863   2.688
 8113SOL    HW235559   8.844   7.859   2.842
 8114SOL     OW35560   8.426   2.220   4.186
 8114SOL    HW135561   8.362   2.259   4.252
 8114SOL    HW235562   8.519   2.250   4.208
 8115SOL     OW35563   9.030   2.922   3.128
 8115SOL    HW135564   8.992   2.878   3.046
 8115SOL    HW235565   8.975   2.896   3.208
 8116SOL     OW35566   7.505   7.691   5.638
 8116SOL    HW135567   7.457   7.623   5.583
 8116SOL    HW235568   7.485   7.783   5.602
 8117SOL     OW35569   5.029   8.455   4.585
 8117SOL    HW135570   5.008   8.537   4.638
 8117SOL    HW235571   4.963   8.383   4.607
 8118SOL     OW35572   0.502   9.184   1.605
 8118SOL    HW135573   0.566   9.220   1.538
 8118SOL    HW235574   0.411   9.221   1.588
 8119SOL     OW35575   3.102   4.688   6.029
 8119SOL    HW135576   3.068   4.659   6.118
 8119SOL    HW235577   3.072   4.624   5.958
 8120SOL     OW35578   7.908   0.282   2.945
 8120SOL    HW135579   7.854   0.296   2.862
 8120SOL    HW235580   7.846   0.257   3.020
 8121SOL     OW35581   7.238   0.216   6.104
 8121SOL    HW135582   7.260   0.119   6.110
 8121SOL    HW235583   7.181   0.233   6.024
 8122SOL     OW35584   1.125   7.930   1.854
 8122SOL    HW135585   1.143   7.991   1.931
 8122SOL    HW235586   1.151   7.975   1.769
 8123SOL     OW35587   0.694   4.646   1.297
 8123SOL    HW135588   0.761   4.683   1.361
 8123SOL    HW235589   0.632   4.719   1.268
 8124SOL     OW35590   9.197   0.288   5.283
 8124SOL    HW135591   9.243   0.377   5.290
 8124SOL    HW235592   9.148   0.269   5.369
 8125SOL     OW35593   9.705   1.914   4.577
 8125SOL    HW135594   9.794   1.897   4.536
 8125SOL    HW235595   9.716   1.968   4.661
 8126SOL     OW35596   9.029   1.601   1.733
 8126SOL    HW135597   9.084   1.671   1.780
 8126SOL    HW235598   9.002   1.530   1.798
 8127SOL     OW35599   2.322   8.608   0.228
 8127SOL    HW135600   2.280   8.618   0.318
 8127SOL    HW235601   2.418   8.580   0.239
 8128SOL     OW35602   2.633   5.638   0.994
 8128SOL    HW135603   2.643   5.680   1.084
 8128SOL    HW235604   2.723   5.621   0.954
 8129SOL     OW35605   3.100   3.277   6.376
 8129SOL    HW135606   3.094   3.372   6.345
 8129SOL    HW235607   3.029   3.222   6.331
 8130SOL     OW35608   3.392   7.727   4.065
 8130SOL    HW135609   3.483   7.768   4.054
 8130SOL    HW235610   3.322   7.798   4.057
 8131SOL     OW35611   9.041   5.766   0.845
 8131SOL    HW135612   8.946   5.786   0.868
 8131SOL    HW235613   9.096   5.848   0.853
 8132SOL     OW35614   2.322   8.517   1.562
 8132SOL    HW135615   2.266   8.523   1.645
 8132SOL    HW235616   2.280   8.451   1.499
 8133SOL     OW35617   7.306   6.297   0.085
 8133SOL    HW135618   7.371   6.362   0.046
 8133SOL    HW235619   7.356   6.229   0.139
 8134SOL     OW35620   3.827   8.741   1.886
 8134SOL    HW135621   3.897   8.703   1.947
 8134SOL    HW235622   3.770   8.805   1.936
 8135SOL     OW35623   8.039   7.465   1.302
 8135SOL    HW135624   8.086   7.377   1.310
 8135SOL    HW235625   8.017   7.500   1.394
 8136SOL     OW35626   7.624   3.574   1.222
 8136SOL    HW135627   7.700   3.555   1.284
 8136SOL    HW235628   7.552   3.505   1.234
 8137SOL     OW35629   5.355   6.606   1.396
 8137SOL    HW135630   5.297   6.546   1.343
 8137SOL    HW235631   5.306   6.638   1.477
 8138SOL     OW35632   0.581   9.258   0.286
 8138SOL    HW135633   0.514   9.322   0.324
 8138SOL    HW235634   0.635   9.303   0.216
 8139SOL     OW35635   1.527   7.714   2.525
 8139SOL    HW135636   1.568   7.757   2.606
 8139SOL    HW235637   1.600   7.678   2.467
 8140SOL     OW35638   7.174   3.378   0.715
 8140SOL    HW135639   7.239   3.304   0.735
 8140SOL    HW235640   7.225   3.462   0.695
 8141SOL     OW35641   8.136   7.722   2.467
 8141SOL    HW135642   8.105   7.636   2.508
 8141SOL    HW235643   8.175   7.705   2.377
 8142SOL     OW35644   9.958   0.224   4.368
 8142SOL    HW135645   0.023   0.267   4.431
 8142SOL    HW235646   9.871   0.274   4.372
 8143SOL     OW35647   4.592   7.837   5.202
 8143SOL    HW135648   4.625   7.774   5.273
 8143SOL    HW235649   4.547   7.785   5.130
 8144SOL     OW35650   3.692   1.409   3.651
 8144SOL    HW135651   3.672   1.502   3.621
 8144SOL    HW235652   3.725   1.410   3.746
 8145SOL     OW35653   4.208   6.446   0.700
 8145SOL    HW135654   4.181   6.539   0.723
 8145SOL    HW235655   4.304   6.432   0.726
 8146SOL     OW35656   1.118   6.843   3.894
 8146SOL    HW135657   1.213   6.838   3.864
 8146SOL    HW235658   1.070   6.913   3.842
 8147SOL     OW35659   5.547   1.814   5.691
 8147SOL    HW135660   5.563   1.760   5.609
 8147SOL    HW235661   5.465   1.870   5.679
 8148SOL     OW35662   0.668   9.986   1.324
 8148SOL    HW135663   0.585   9.938   1.298
 8148SOL    HW235664   0.738   9.921   1.353
 8149SOL     OW35665   1.134   8.759   5.165
 8149SOL    HW135666   1.089   8.721   5.246
 8149SOL    HW235667   1.066   8.775   5.093
 8150SOL     OW35668   2.249   0.573   4.449
 8150SOL    HW135669   2.247   0.560   4.350
 8150SOL    HW235670   2.225   0.668   4.471
 8151SOL     OW35671   0.328   2.710   1.410
 8151SOL    HW135672   0.421   2.676   1.421
 8151SOL    HW235673   0.282   2.710   1.499
 8152SOL     OW35674   1.118   7.791   5.492
 8152SOL    HW135675   1.202   7.785   5.547
 8152SOL    HW235676   1.127   7.866   5.425
 8153SOL     OW35677   7.709   7.887   3.365
 8153SOL    HW135678   7.682   7.791   3.363
 8153SOL    HW235679   7.638   7.940   3.410
 8154SOL     OW35680   4.720   7.907   2.376
 8154SOL    HW135681   4.818   7.922   2.360
 8154SOL    HW235682   4.670   7.992   2.362
 8155SOL     OW35683   4.920   7.662   2.992
 8155SOL    HW135684   4.827   7.628   2.978
 8155SOL    HW235685   4.948   7.716   2.912
 8156SOL     OW35686   0.435   4.872   2.385
 8156SOL    HW135687   0.414   4.793   2.327
 8156SOL    HW235688   0.360   4.938   2.378
 8157SOL     OW35689   3.939   0.286   5.728
 8157SOL    HW135690   3.889   0.226   5.792
 8157SOL    HW235691   3.947   0.241   5.639
 8158SOL     OW35692   1.797   8.604   5.228
 8158SOL    HW135693   1.788   8.672   5.155
 8158SOL    HW235694   1.790   8.649   5.317
 8159SOL     OW35695   4.821   7.927   2.078
 8159SOL    HW135696   4.825   7.848   2.016
 8159SOL    HW235697   4.733   7.973   2.067
 8160SOL     OW35698   9.682   2.143   0.936
 8160SOL    HW135699   9.711   2.115   0.844
 8160SOL    HW235700   9.719   2.078   1.003
 8161SOL     OW35701   2.932   0.344   0.606
 8161SOL    HW135702   2.853   0.396   0.574
 8161SOL    HW235703   3.007   0.406   0.626
 8162SOL     OW35704   3.176   8.449   2.129
 8162SOL    HW135705   3.117   8.529   2.120
 8162SOL    HW235706   3.140   8.375   2.071
 8163SOL     OW35707   7.377   2.738   4.318
 8163SOL    HW135708   7.458   2.744   4.260
 8163SOL    HW235709   7.295   2.741   4.261
 8164SOL     OW35710   6.368   1.136   0.854
 8164SOL    HW135711   6.397   1.082   0.934
 8164SOL    HW235712   6.319   1.217   0.886
 8165SOL     OW35713   3.290   7.092   1.738
 8165SOL    HW135714   3.226   7.019   1.763
 8165SOL    HW235715   3.383   7.062   1.757
 8166SOL     OW35716   7.496   0.839   5.820
 8166SOL    HW135717   7.407   0.885   5.828
 8166SOL    HW235718   7.533   0.854   5.728
 8167SOL     OW35719   8.340   3.372   2.649
 8167SOL    HW135720   8.318   3.277   2.668
 8167SOL    HW235721   8.392   3.377   2.563
 8168SOL     OW35722   3.549   6.412   3.738
 8168SOL    HW135723   3.479   6.462   3.789
 8168SOL    HW235724   3.546   6.315   3.763
 8169SOL     OW35725   9.080   4.830   5.436
 8169SOL    HW135726   9.144   4.844   5.512
 8169SOL    HW235727   9.069   4.916   5.387
 8170SOL     OW35728   5.491   0.558   2.640
 8170SOL    HW135729   5.469   0.485   2.575
 8170SOL    HW235730   5.439   0.545   2.724
 8171SOL     OW35731   9.573   9.534   6.141
 8171SOL    HW135732   9.492   9.481   6.117
 8171SOL    HW235733   9.653   9.474   6.140
 8172SOL     OW35734   8.981   6.796   2.365
 8172SOL    HW135735   8.956   6.738   2.443
 8172SOL    HW235736   8.920   6.875   2.362
 8173SOL     OW35737   3.101   0.300   2.404
 8173SOL    HW135738   3.115   0.281   2.307
 8173SOL    HW235739   3.093   0.398   2.418
 8174SOL     OW35740   6.161   3.023   0.432
 8174SOL    HW135741   6.256   3.054   0.434
 8174SOL    HW235742   6.117   3.046   0.519
 8175SOL     OW35743   3.584   5.391   6.207
 8175SOL    HW135744   3.558   5.488   6.203
 8175SOL    HW235745   3.666   5.377   6.153
 8176SOL     OW35746   5.671   0.018   4.511
 8176SOL    HW135747   5.611   0.004   4.433
 8176SOL    HW235748   5.719   9.932   4.531
 8177SOL     OW35749   3.653   3.288   1.562
 8177SOL    HW135750   3.578   3.343   1.527
 8177SOL    HW235751   3.634   3.261   1.656
 8178SOL     OW35752   9.121   8.194   2.504
 8178SOL    HW135753   9.151   8.136   2.428
 8178SOL    HW235754   9.086   8.136   2.578
 8179SOL     OW35755   8.773   3.746   4.687
 8179SOL    HW135756   8.856   3.749   4.631
 8179SOL    HW235757   8.788   3.796   4.772
 8180SOL     OW35758   8.926   7.802   1.597
 8180SOL    HW135759   8.852   7.781   1.534
 8180SOL    HW235760   8.914   7.751   1.682
 8181SOL     OW35761   3.152   3.004   2.630
 8181SOL    HW135762   3.129   3.054   2.547
 8181SOL    HW235763   3.251   2.999   2.640
 8182SOL     OW35764   2.064   0.601   5.618
 8182SOL    HW135765   2.077   0.663   5.541
 8182SOL    HW235766   2.019   0.650   5.693
 8183SOL     OW35767   9.647   0.701   0.280
 8183SOL    HW135768   9.667   0.660   0.369
 8183SOL    HW235769   9.573   0.650   0.236
 8184SOL     OW35770   4.579   0.767   0.866
 8184SOL    HW135771   4.542   0.687   0.913
 8184SOL    HW235772   4.633   0.822   0.930
 8185SOL     OW35773   9.004   2.104   3.725
 8185SOL    HW135774   8.905   2.088   3.721
 8185SOL    HW235775   9.028   2.176   3.660
 8186SOL     OW35776   5.870   2.957   0.048
 8186SOL    HW135777   5.960   2.972   0.088
 8186SOL    HW235778   5.873   2.979   8.139
 8187SOL     OW35779   2.384   2.752   4.557
 8187SOL    HW135780   2.433   2.829   4.597
 8187SOL    HW235781   2.399   2.750   4.458
 8188SOL     OW35782   7.357   7.825   3.402
 8188SOL    HW135783   7.354   7.761   3.479
 8188SOL    HW235784   7.413   7.904   3.427
 8189SOL     OW35785   6.731   2.732   3.784
 8189SOL    HW135786   6.663   2.801   3.762
 8189SOL    HW235787   6.686   2.646   3.806
 8190SOL     OW35788   3.115   0.630   0.989
 8190SOL    HW135789   3.058   0.660   0.912
 8190SOL    HW235790   3.168   0.550   0.962
 8191SOL     OW35791   4.966   9.144   6.106
 8191SOL    HW135792   4.876   9.171   6.142
 8191SOL    HW235793   5.027   9.123   6.181
 8192SOL     OW35794   3.347   1.324   6.107
 8192SOL    HW135795   3.359   1.363   6.199
 8192SOL    HW235796   3.437   1.308   6.066
 8193SOL     OW35797   8.947   0.630   4.381
 8193SOL    HW135798   8.974   0.560   4.314
 8193SOL    HW235799   9.002   0.620   4.464
 8194SOL     OW35800   2.910   2.599   2.236
 8194SOL    HW135801   2.831   2.660   2.242
 8194SOL    HW235802   2.884   2.507   2.266
 8195SOL     OW35803   4.655   0.763   2.704
 8195SOL    HW135804   4.715   0.760   2.624
 8195SOL    HW235805   4.566   0.799   2.677
 8196SOL     OW35806   6.277   0.102   5.085
 8196SOL    HW135807   6.285   0.170   5.012
 8196SOL    HW235808   6.241   0.017   5.048
 8197SOL     OW35809   2.756   1.659   6.291
 8197SOL    HW135810   2.697   1.700   6.221
 8197SOL    HW235811   2.701   1.602   6.352
 8198SOL     OW35812   0.746   5.147   5.744
 8198SOL    HW135813   0.832   5.196   5.760
 8198SOL    HW235814   0.728   5.086   5.821
 8199SOL     OW35815   7.481   2.654   0.356
 8199SOL    HW135816   7.388   2.689   0.370
 8199SOL    HW235817   7.519   2.693   0.272
 8200SOL     OW35818   9.787   6.704   2.620
 8200SOL    HW135819   9.796   6.713   2.719
 8200SOL    HW235820   9.876   6.717   2.577
 8201SOL     OW35821   7.436   0.219   2.773
 8201SOL    HW135822   7.374   0.296   2.787
 8201SOL    HW235823   7.529   0.254   2.760
 8202SOL     OW35824   6.119   0.692   1.452
 8202SOL    HW135825   6.131   0.784   1.414
 8202SOL    HW235826   6.190   0.675   1.521
 8203SOL     OW35827   3.574   1.598   5.617
 8203SOL    HW135828   3.588   1.567   5.711
 8203SOL    HW235829   3.555   1.696   5.616
 8204SOL     OW35830   8.079   6.976   4.005
 8204SOL    HW135831   8.018   6.922   3.947
 8204SOL    HW235832   8.029   7.010   4.084
 8205SOL     OW35833   6.570   8.192   6.025
 8205SOL    HW135834   6.641   8.233   5.967
 8205SOL    HW235835   6.591   8.096   6.042
 8206SOL     OW35836   1.976   0.858   5.156
 8206SOL    HW135837   1.939   0.947   5.180
 8206SOL    HW235838   2.046   0.868   5.086
 8207SOL     OW35839   6.573   7.356   5.624
 8207SOL    HW135840   6.602   7.261   5.639
 8207SOL    HW235841   6.474   7.362   5.627
 8208SOL     OW35842   4.205   5.316   2.298
 8208SOL    HW135843   4.237   5.366   2.379
 8208SOL    HW235844   4.121   5.267   2.320
 8209SOL     OW35845   2.358   4.356   3.107
 8209SOL    HW135846   2.410   4.298   3.169
 8209SOL    HW235847   2.323   4.436   3.157
 8210SOL     OW35848   7.425   1.555   2.472
 8210SOL    HW135849   7.328   1.557   2.494
 8210SOL    HW235850   7.439   1.590   2.379
 8211SOL     OW35851   1.463   6.207   1.528
 8211SOL    HW135852   1.427   6.178   1.439
 8211SOL    HW235853   1.445   6.135   1.596
 8212SOL     OW35854   8.122   4.916   5.164
 8212SOL    HW135855   8.063   4.925   5.084
 8212SOL    HW235856   8.157   4.822   5.168
 8213SOL     OW35857   0.478   5.024   3.171
 8213SOL    HW135858   0.468   5.052   3.266
 8213SOL    HW235859   0.562   4.970   3.161
 8214SOL     OW35860   9.598   9.954   5.587
 8214SOL    HW135861   9.507   9.986   5.612
 8214SOL    HW235862   9.602   9.938   5.488
 8215SOL     OW35863   8.818   8.357   4.576
 8215SOL    HW135864   8.787   8.450   4.596
 8215SOL    HW235865   8.834   8.308   4.661
 8216SOL     OW35866   9.819   0.446   2.077
 8216SOL    HW135867   9.841   0.350   2.059
 8216SOL    HW235868   9.873   0.504   2.016
 8217SOL     OW35869   9.596   6.552   1.544
 8217SOL    HW135870   9.585   6.485   1.617
 8217SOL    HW235871   9.508   6.569   1.500
 8218SOL     OW35872   3.002   6.596   3.069
 8218SOL    HW135873   3.028   6.687   3.101
 8218SOL    HW235874   3.029   6.528   3.138
 8219SOL     OW35875   1.000   6.088   3.284
 8219SOL    HW135876   0.954   6.068   3.197
 8219SOL    HW235877   1.099   6.076   3.273
 8220SOL     OW35878   3.212   1.375   5.319
 8220SOL    HW135879   3.265   1.354   5.236
 8220SOL    HW235880   3.274   1.398   5.393
 8221SOL     OW35881   2.845   3.938   3.801
 8221SOL    HW135882   2.835   3.930   3.702
 8221SOL    HW235883   2.939   3.965   3.823
 8222SOL     OW35884   1.558   6.498   3.895
 8222SOL    HW135885   1.637   6.481   3.954
 8222SOL    HW235886   1.481   6.528   3.951
 8223SOL     OW35887   3.582   4.179   4.908
 8223SOL    HW135888   3.628   4.266   4.918
 8223SOL    HW235889   3.567   4.160   4.811
 8224SOL     OW35890   1.506   3.666   1.268
 8224SOL    HW135891   1.476   3.591   1.209
 8224SOL    HW235892   1.511   3.634   1.363
 8225SOL     OW35893   7.518   7.293   2.872
 8225SOL    HW135894   7.499   7.233   2.794
 8225SOL    HW235895   7.585   7.362   2.845
 8226SOL     OW35896   8.444   1.013   0.779
 8226SOL    HW135897   8.484   0.952   0.847
 8226SOL    HW235898   8.395   1.087   0.825
 8227SOL     OW35899   0.878   0.394   3.098
 8227SOL    HW135900   0.844   0.480   3.137
 8227SOL    HW235901   0.827   0.373   3.015
 8228SOL     OW35902   1.653   6.619   3.660
 8228SOL    HW135903   1.724   6.563   3.618
 8228SOL    HW235904   1.618   6.572   3.741
 8229SOL     OW35905   4.476   2.851   4.871
 8229SOL    HW135906   4.392   2.861   4.924
 8229SOL    HW235907   4.548   2.908   4.911
 8230SOL     OW35908   4.408   4.141   3.127
 8230SOL    HW135909   4.438   4.072   3.193
 8230SOL    HW235910   4.443   4.231   3.153
 8231SOL     OW35911   9.668   1.721   2.238
 8231SOL    HW135912   9.605   1.658   2.192
 8231SOL    HW235913   9.762   1.687   2.228
 8232SOL     OW35914   9.954   5.280   6.077
 8232SOL    HW135915   9.980   5.187   6.102
 8232SOL    HW235916   0.035   5.339   6.077
 8233SOL     OW35917   1.508   7.242   3.016
 8233SOL    HW135918   1.604   7.225   3.036
 8233SOL    HW235919   1.493   7.235   2.917
 8234SOL     OW35920   2.042   9.366   1.442
 8234SOL    HW135921   2.110   9.433   1.410
 8234SOL    HW235922   1.959   9.376   1.387
 8235SOL     OW35923   3.431   5.285   2.909
 8235SOL    HW135924   3.336   5.254   2.910
 8235SOL    HW235925   3.478   5.253   2.991
 8236SOL     OW35926   2.350   4.984   6.000
 8236SOL    HW135927   2.403   4.900   6.013
 8236SOL    HW235928   2.320   4.990   5.905
 8237SOL     OW35929   7.637   9.946   0.945
 8237SOL    HW135930   7.623   9.920   1.041
 8237SOL    HW235931   7.553   9.927   0.893
 8238SOL     OW35932   7.541   2.807   0.584
 8238SOL    HW135933   7.581   2.896   0.565
 8238SOL    HW235934   7.521   2.760   0.497
 8239SOL     OW35935   2.034   1.636   3.905
 8239SOL    HW135936   1.954   1.577   3.914
 8239SOL    HW235937   2.008   1.722   3.863
 8240SOL     OW35938   9.951   6.392   4.304
 8240SOL    HW135939   9.910   6.416   4.216
 8240SOL    HW235940   9.977   6.295   4.303
 8241SOL     OW35941   4.095   8.139   1.477
 8241SOL    HW135942   4.031   8.085   1.423
 8241SOL    HW235943   4.087   8.114   1.574
 8242SOL     OW35944   4.733   1.219   5.897
 8242SOL    HW135945   4.787   1.254   5.974
 8242SOL    HW235946   4.789   1.157   5.843
 8243SOL     OW35947   7.335   7.503   4.972
 8243SOL    HW135948   7.367   7.441   4.900
 8243SOL    HW235949   7.338   7.457   5.060
 8244SOL     OW35950   3.559   7.187   6.335
 8244SOL    HW135951   3.558   7.089   6.316
 8244SOL    HW235952   3.638   7.228   6.291
 8245SOL     OW35953   2.819   3.708   4.895
 8245SOL    HW135954   2.881   3.706   4.817
 8245SOL    HW235955   2.799   3.614   4.924
 8246SOL     OW35956   8.784   4.226   5.253
 8246SOL    HW135957   8.793   4.323   5.272
 8246SOL    HW235958   8.713   4.212   5.183
 8247SOL     OW35959   8.439   1.714   1.460
 8247SOL    HW135960   8.526   1.695   1.414
 8247SOL    HW235961   8.421   1.642   1.527
 8248SOL     OW35962   6.350   1.202   4.655
 8248SOL    HW135963   6.364   1.252   4.741
 8248SOL    HW235964   6.264   1.232   4.613
 8249SOL     OW35965   5.527   0.667   1.580
 8249SOL    HW135966   5.580   0.722   1.516
 8249SOL    HW235967   5.530   0.709   1.671
 8250SOL     OW35968   1.807   4.401   3.977
 8250SOL    HW135969   1.818   4.308   3.940
 8250SOL    HW235970   1.829   4.467   3.906
 8251SOL     OW35971   0.302   2.352   2.445
 8251SOL    HW135972   0.277   2.376   2.538
 8251SOL    HW235973   0.304   2.435   2.388
 8252SOL     OW35974   8.163   7.219   5.437
 8252SOL    HW135975   8.089   7.244   5.375
 8252SOL    HW235976   8.226   7.296   5.446
 8253SOL     OW35977   2.022   4.513   4.425
 8253SOL    HW135978   2.114   4.480   4.449
 8253SOL    HW235979   1.975   4.442   4.372
 8254SOL     OW35980   4.095   0.315   1.841
 8254SOL    HW135981   4.059   0.332   1.749
 8254SOL    HW235982   4.194   0.324   1.840
 8255SOL     OW35983   4.307   9.470   0.460
 8255SOL    HW135984   4.397   9.465   0.504
 8255SOL    HW235985   4.239   9.503   0.525
 8256SOL     OW35986   1.049   7.229   5.968
 8256SOL    HW135987   1.026   7.323   5.992
 8256SOL    HW235988   0.986   7.195   5.899
 8257SOL     OW35989   2.035   6.355   2.856
 8257SOL    HW135990   1.945   6.314   2.841
 8257SOL    HW235991   2.090   6.345   2.773
 8258SOL     OW35992   8.245   5.764   5.409
 8258SOL    HW135993   8.179   5.748   5.482
 8258SOL    HW235994   8.198   5.798   5.328
 8259SOL     OW35995   2.626   0.767   1.162
 8259SOL    HW135996   2.570   0.849   1.148
 8259SOL    HW235997   2.679   0.749   1.078
 8260SOL     OW35998   1.651   4.927   4.826
 8260SOL    HW135999   1.600   4.849   4.864
 8260SOL    HW236000   1.747   4.901   4.816
 8261SOL     OW36001   3.768   1.994   5.984
 8261SOL    HW136002   3.832   2.070   6.004
 8261SOL    HW236003   3.725   2.010   5.896
 8262SOL     OW36004   2.505   2.003   1.570
 8262SOL    HW136005   2.437   2.076   1.563
 8262SOL    HW236006   2.524   1.984   1.666
 8263SOL     OW36007   2.906   4.618   4.406
 8263SOL    HW136008   2.939   4.706   4.440
 8263SOL    HW236009   2.968   4.586   4.333
 8264SOL     OW36010   6.053   4.053   0.417
 8264SOL    HW136011   6.092   3.964   0.436
 8264SOL    HW236012   6.029   4.059   0.320
 8265SOL     OW36013   1.867   0.763   5.870
 8265SOL    HW136014   1.858   0.858   5.840
 8265SOL    HW236015   1.815   0.704   5.808
 8266SOL     OW36016   7.147   8.825   2.840
 8266SOL    HW136017   7.226   8.839   2.899
 8266SOL    HW236018   7.139   8.728   2.817
 8267SOL     OW36019   1.537   8.881   5.250
 8267SOL    HW136020   1.531   8.856   5.153
 8267SOL    HW236021   1.445   8.899   5.285
 8268SOL     OW36022   9.662   3.461   0.511
 8268SOL    HW136023   9.631   3.512   0.591
 8268SOL    HW236024   9.759   3.482   0.493
 8269SOL     OW36025   7.672   6.078   6.262
 8269SOL    HW136026   7.726   6.161   6.246
 8269SOL    HW236027   7.580   6.103   6.290
 8270SOL     OW36028   1.872   9.728   5.875
 8270SOL    HW136029   1.807   9.684   5.813
 8270SOL    HW236030   1.955   9.751   5.824
 8271SOL     OW36031   9.289   4.604   2.346
 8271SOL    HW136032   9.195   4.617   2.315
 8271SOL    HW236033   9.304   4.507   2.365
 8272SOL     OW36034   2.405   1.083   4.905
 8272SOL    HW136035   2.442   1.003   4.952
 8272SOL    HW236036   2.412   1.070   4.806
 8273SOL     OW36037   9.164   9.799   5.142
 8273SOL    HW136038   9.087   9.862   5.132
 8273SOL    HW236039   9.139   9.726   5.206
 8274SOL     OW36040   4.349   4.999   1.796
 8274SOL    HW136041   4.307   5.015   1.885
 8274SOL    HW236042   4.329   4.906   1.766
 8275SOL     OW36043   2.356   5.361   1.307
 8275SOL    HW136044   2.403   5.383   1.222
 8275SOL    HW236045   2.264   5.400   1.305
 8276SOL     OW36046   8.433   4.578   2.258
 8276SOL    HW136047   8.434   4.514   2.181
 8276SOL    HW236048   8.347   4.629   2.257
 8277SOL     OW36049   9.520   9.934   3.846
 8277SOL    HW136050   9.455   0.004   3.873
 8277SOL    HW236051   9.490   9.845   3.880
 8278SOL     OW36052   5.546   8.358   5.392
 8278SOL    HW136053   5.471   8.423   5.378
 8278SOL    HW236054   5.608   8.395   5.461
 8279SOL     OW36055   2.011   3.096   5.066
 8279SOL    HW136056   1.914   3.117   5.062
 8279SOL    HW236057   2.026   3.017   5.125
 8280SOL     OW36058   7.510   2.818   5.824
 8280SOL    HW136059   7.413   2.807   5.843
 8280SOL    HW236060   7.549   2.731   5.794
 8281SOL     OW36061   2.276   0.422   5.572
 8281SOL    HW136062   2.196   0.473   5.604
 8281SOL    HW236063   2.278   0.421   5.472
 8282SOL     OW36064   8.039   3.999   0.510
 8282SOL    HW136065   8.138   4.005   0.515
 8282SOL    HW236066   8.005   4.064   0.442
 8283SOL     OW36067   7.334   2.516   5.687
 8283SOL    HW136068   7.432   2.526   5.702
 8283SOL    HW236069   7.308   2.564   5.604
 8284SOL     OW36070   9.871   4.191   3.581
 8284SOL    HW136071   9.819   4.253   3.521
 8284SOL    HW236072   9.886   4.236   3.669
 8285SOL     OW36073   4.174   0.683   3.974
 8285SOL    HW136074   4.082   0.660   4.004
 8285SOL    HW236075   4.206   0.764   4.023
 8286SOL     OW36076   8.456   9.782   2.051
 8286SOL    HW136077   8.530   9.741   1.998
 8286SOL    HW236078   8.494   9.833   2.128
 8287SOL     OW36079   0.778   7.032   0.640
 8287SOL    HW136080   0.732   6.989   0.562
 8287SOL    HW236081   0.753   7.128   0.644
 8288SOL     OW36082   4.712   5.662   0.559
 8288SOL    HW136083   4.710   5.638   0.462
 8288SOL    HW236084   4.806   5.658   0.592
 8289SOL     OW36085   9.386   0.976   0.234
 8289SOL    HW136086   9.475   0.978   0.189
 8289SOL    HW236087   9.391   0.918   0.315
 8290SOL     OW36088   9.923   9.591   2.005
 8290SOL    HW136089   9.942   9.585   1.907
 8290SOL    HW236090   0.009   9.605   2.055
 8291SOL     OW36091   1.605   9.554   0.328
 8291SOL    HW136092   1.571   9.646   0.346
 8291SOL    HW236093   1.680   9.558   0.263
 8292SOL     OW36094   0.725   7.352   1.221
 8292SOL    HW136095   0.705   7.413   1.145
 8292SOL    HW236096   0.667   7.376   1.299
 8293SOL     OW36097   2.854   6.279   3.868
 8293SOL    HW136098   2.837   6.353   3.933
 8293SOL    HW236099   2.928   6.220   3.903
 8294SOL     OW36100   9.055   5.002   2.345
 8294SOL    HW136101   9.000   5.056   2.409
 8294SOL    HW236102   9.141   4.977   2.389
 8295SOL     OW36103   2.532   9.869   0.534
 8295SOL    HW136104   2.498   9.959   0.562
 8295SOL    HW236105   2.618   9.881   0.484
 8296SOL     OW36106   0.089   4.976   0.433
 8296SOL    HW136107   0.186   5.000   0.435
 8296SOL    HW236108   0.079   4.879   0.410
 8297SOL     OW36109   2.989   3.666   4.671
 8297SOL    HW136110   2.981   3.637   4.575
 8297SOL    HW236111   3.057   3.739   4.678
 8298SOL     OW36112   3.057   6.671   2.234
 8298SOL    HW136113   2.977   6.721   2.270
 8298SOL    HW236114   3.069   6.694   2.138
 8299SOL     OW36115   6.462   7.123   6.263
 8299SOL    HW136116   6.393   7.131   6.336
 8299SOL    HW236117   6.473   7.212   6.219
 8300SOL     OW36118   6.800   0.065   3.840
 8300SOL    HW136119   6.854   0.131   3.892
 8300SOL    HW236120   6.811   9.974   3.880
 8301SOL     OW36121   2.287   0.219   1.948
 8301SOL    HW136122   2.333   0.144   1.994
 8301SOL    HW236123   2.203   0.242   1.996
 8302SOL     OW36124   3.156   0.059   4.076
 8302SOL    HW136125   3.070   0.107   4.093
 8302SOL    HW236126   3.147   9.964   4.108
 8303SOL     OW36127   3.534   6.975   3.427
 8303SOL    HW136128   3.462   6.963   3.495
 8303SOL    HW236129   3.607   7.032   3.466
 8304SOL     OW36130   4.646   4.258   4.341
 8304SOL    HW136131   4.585   4.278   4.264
 8304SOL    HW236132   4.670   4.161   4.340
 8305SOL     OW36133   2.150   1.956   0.262
 8305SOL    HW136134   2.074   1.949   0.327
 8305SOL    HW236135   2.132   2.031   0.198
 8306SOL     OW36136   2.778   1.176   1.777
 8306SOL    HW136137   2.707   1.240   1.747
 8306SOL    HW236138   2.799   1.194   1.874
 8307SOL     OW36139   4.631   1.677   2.068
 8307SOL    HW136140   4.536   1.679   2.037
 8307SOL    HW236141   4.667   1.584   2.062
 8308SOL     OW36142   3.215   6.281   1.273
 8308SOL    HW136143   3.198   6.186   1.298
 8308SOL    HW236144   3.251   6.285   1.180
 8309SOL     OW36145   4.096   0.972   5.291
 8309SOL    HW136146   4.129   1.066   5.282
 8309SOL    HW236147   3.996   0.973   5.295
 8310SOL     OW36148   1.024   7.021   5.597
 8310SOL    HW136149   1.120   7.015   5.622
 8310SOL    HW236150   0.976   7.079   5.663
 8311SOL     OW36151   2.850   7.910   1.927
 8311SOL    HW136152   2.842   7.813   1.947
 8311SOL    HW236153   2.926   7.926   1.865
 8312SOL     OW36154   8.096   4.909   4.081
 8312SOL    HW136155   8.076   4.931   4.176
 8312SOL    HW236156   8.012   4.878   4.036
 8313SOL     OW36157   7.119   9.185   5.779
 8313SOL    HW136158   7.205   9.146   5.745
 8313SOL    HW236159   7.043   9.126   5.751
 8314SOL     OW36160   6.610   7.429   3.407
 8314SOL    HW136161   6.511   7.412   3.407
 8314SOL    HW236162   6.652   7.381   3.485
 8315SOL     OW36163   0.621   7.896   4.490
 8315SOL    HW136164   0.594   7.962   4.420
 8315SOL    HW236165   0.712   7.860   4.469
 8316SOL     OW36166   4.882   1.018   2.094
 8316SOL    HW136167   4.877   1.111   2.130
 8316SOL    HW236168   4.837   0.955   2.157
 8317SOL     OW36169   4.526   2.002   3.491
 8317SOL    HW136170   4.482   1.949   3.563
 8317SOL    HW236171   4.619   2.026   3.519
 8318SOL     OW36172   8.741   9.380   4.248
 8318SOL    HW136173   8.644   9.368   4.226
 8318SOL    HW236174   8.764   9.477   4.242
 8319SOL     OW36175   3.809   0.480   0.306
 8319SOL    HW136176   3.767   0.553   0.360
 8319SOL    HW236177   3.878   0.434   0.361
 8320SOL     OW36178   3.840   1.042   1.548
 8320SOL    HW136179   3.899   0.965   1.523
 8320SOL    HW236180   3.752   1.008   1.581
 8321SOL     OW36181   9.161   0.365   1.701
 8321SOL    HW136182   9.157   0.286   1.763
 8321SOL    HW236183   9.131   0.447   1.750
 8322SOL     OW36184   3.251   7.106   2.161
 8322SOL    HW136185   3.184   7.147   2.223
 8322SOL    HW236186   3.307   7.177   2.120
 8323SOL     OW36187   4.355   6.896   2.323
 8323SOL    HW136188   4.366   6.796   2.327
 8323SOL    HW236189   4.417   6.938   2.389
 8324SOL     OW36190   4.785   1.550   4.859
 8324SOL    HW136191   4.811   1.577   4.766
 8324SOL    HW236192   4.786   1.631   4.918
 8325SOL     OW36193   4.364   3.267   3.819
 8325SOL    HW136194   4.441   3.305   3.871
 8325SOL    HW236195   4.384   3.173   3.793
 8326SOL     OW36196   3.054   2.997   2.015
 8326SOL    HW136197   2.954   3.005   2.019
 8326SOL    HW236198   3.095   3.078   2.057
 8327SOL     OW36199   6.934   7.671   4.271
 8327SOL    HW136200   6.863   7.738   4.248
 8327SOL    HW236201   6.909   7.582   4.235
 8328SOL     OW36202   9.709   0.358   0.167
 8328SOL    HW136203   9.623   0.345   0.118
 8328SOL    HW236204   9.691   0.358   0.266
 8329SOL     OW36205   9.625   9.642   3.788
 8329SOL    HW136206   9.578   9.640   3.700
 8329SOL    HW236207   9.559   9.654   3.862
 8330SOL     OW36208   3.703   2.120   2.273
 8330SOL    HW136209   3.693   2.021   2.282
 8330SOL    HW236210   3.654   2.151   2.191
 8331SOL     OW36211   4.106   8.569   5.062
 8331SOL    HW136212   4.085   8.664   5.082
 8331SOL    HW236213   4.096   8.513   5.144
 8332SOL     OW36214   0.598   7.180   2.580
 8332SOL    HW136215   0.509   7.141   2.553
 8332SOL    HW236216   0.583   7.258   2.640
 8333SOL     OW36217   4.922   1.257   5.067
 8333SOL    HW136218   4.886   1.165   5.084
 8333SOL    HW236219   4.925   1.274   4.969
 8334SOL     OW36220   3.519   5.656   6.193
 8334SOL    HW136221   3.596   5.716   6.171
 8334SOL    HW236222   3.454   5.704   6.251
 8335SOL     OW36223   4.416   0.791   4.665
 8335SOL    HW136224   4.436   0.840   4.750
 8335SOL    HW236225   4.500   0.781   4.611
 8336SOL     OW36226   7.304   1.655   4.175
 8336SOL    HW136227   7.378   1.640   4.240
 8336SOL    HW236228   7.224   1.691   4.223
 8337SOL     OW36229   0.103   8.129   3.855
 8337SOL    HW136230   0.033   8.173   3.911
 8337SOL    HW236231   0.059   8.082   3.778
 8338SOL     OW36232   4.615   5.654   2.664
 8338SOL    HW136233   4.706   5.695   2.651
 8338SOL    HW236234   4.580   5.623   2.575
 8339SOL     OW36235   1.499   0.527   4.054
 8339SOL    HW136236   1.539   0.507   4.143
 8339SOL    HW236237   1.550   0.479   3.983
 8340SOL     OW36238   9.470   2.072   4.092
 8340SOL    HW136239   9.438   2.074   4.186
 8340SOL    HW236240   9.420   2.139   4.038
 8341SOL     OW36241   2.980   2.687   0.527
 8341SOL    HW136242   3.010   2.605   0.480
 8341SOL    HW236243   2.989   2.674   0.626
 8342SOL     OW36244   7.397   1.132   0.300
 8342SOL    HW136245   7.346   1.104   0.219
 8342SOL    HW236246   7.400   1.231   0.305
 8343SOL     OW36247   7.606   2.468   0.530
 8343SOL    HW136248   7.638   2.519   0.610
 8343SOL    HW236249   7.587   2.531   0.455
 8344SOL     OW36250   3.988   1.977   2.417
 8344SOL    HW136251   3.975   2.073   2.392
 8344SOL    HW236252   3.969   1.919   2.337
 8345SOL     OW36253   2.274   5.965   3.135
 8345SOL    HW136254   2.329   5.972   3.219
 8345SOL    HW236255   2.312   5.894   3.076
 8346SOL     OW36256   2.123   6.973   3.011
 8346SOL    HW136257   2.117   6.924   3.097
 8346SOL    HW236258   2.075   6.922   2.940
 8347SOL     OW36259   5.784   9.268   4.898
 8347SOL    HW136260   5.726   9.211   4.957
 8347SOL    HW236261   5.877   9.231   4.898
 8348SOL     OW36262   4.295   4.057   2.161
 8348SOL    HW136263   4.266   4.136   2.106
 8348SOL    HW236264   4.215   4.011   2.198
 8349SOL     OW36265   6.470   8.165   5.445
 8349SOL    HW136266   6.569   8.172   5.430
 8349SOL    HW236267   6.429   8.113   5.370
 8350SOL     OW36268   8.910   3.256   3.549
 8350SOL    HW136269   8.815   3.252   3.579
 8350SOL    HW236270   8.957   3.331   3.596
 8351SOL     OW36271   9.539   1.491   5.719
 8351SOL    HW136272   9.531   1.392   5.729
 8351SOL    HW236273   9.634   1.518   5.737
 8352SOL     OW36274   8.884   6.482   4.150
 8352SOL    HW136275   8.811   6.549   4.157
 8352SOL    HW236276   8.845   6.393   4.125
 8353SOL     OW36277   5.040   0.029   5.129
 8353SOL    HW136278   4.985   0.088   5.070
 8353SOL    HW236279   5.054   0.074   5.217
 8354SOL     OW36280   2.908   7.454   3.030
 8354SOL    HW136281   2.894   7.487   3.124
 8354SOL    HW236282   2.987   7.393   3.028
 8355SOL     OW36283   1.024   0.553   0.601
 8355SOL    HW136284   0.994   0.466   0.561
 8355SOL    HW236285   1.106   0.585   0.554
 8356SOL     OW36286   2.853   4.837   3.130
 8356SOL    HW136287   2.822   4.742   3.124
 8356SOL    HW236288   2.794   4.887   3.193
 8357SOL     OW36289   9.225   2.976   5.216
 8357SOL    HW136290   9.216   2.910   5.141
 8357SOL    HW236291   9.167   3.055   5.197
 8358SOL     OW36292   0.897   6.636   5.775
 8358SOL    HW136293   0.905   6.689   5.860
 8358SOL    HW236294   0.979   6.580   5.763
 8359SOL     OW36295   3.921   0.412   4.413
 8359SOL    HW136296   3.973   0.497   4.411
 8359SOL    HW236297   3.960   0.347   4.348
 8360SOL     OW36298   7.661   4.757   0.424
 8360SOL    HW136299   7.578   4.797   0.385
 8360SOL    HW236300   7.678   4.668   0.381
 8361SOL     OW36301   1.389   2.843   1.075
 8361SOL    HW136302   1.307   2.835   1.019
 8361SOL    HW236303   1.366   2.822   1.170
 8362SOL     OW36304   2.167   0.692   3.958
 8362SOL    HW136305   2.129   0.659   3.872
 8362SOL    HW236306   2.230   0.768   3.940
 8363SOL     OW36307   6.534   9.491   3.923
 8363SOL    HW136308   6.470   9.563   3.951
 8363SOL    HW236309   6.587   9.461   4.002
 8364SOL     OW36310   3.678   9.095   1.877
 8364SOL    HW136311   3.712   9.034   1.948
 8364SOL    HW236312   3.755   9.143   1.835
 8365SOL     OW36313   4.236   5.809   0.458
 8365SOL    HW136314   4.296   5.755   0.399
 8365SOL    HW236315   4.187   5.748   0.520
 8366SOL     OW36316   9.720   3.060   3.113
 8366SOL    HW136317   9.776   3.116   3.175
 8366SOL    HW236318   9.629   3.048   3.154
 8367SOL     OW36319   0.530   2.255   3.995
 8367SOL    HW136320   0.479   2.295   3.919
 8367SOL    HW236321   0.628   2.267   3.979
 8368SOL     OW36322   3.568   6.714   5.086
 8368SOL    HW136323   3.505   6.775   5.037
 8368SOL    HW236324   3.654   6.709   5.036
 8369SOL     OW36325   0.357   4.324   5.463
 8369SOL    HW136326   0.287   4.330   5.534
 8369SOL    HW236327   0.443   4.360   5.498
 8370SOL     OW36328   1.492   6.669   4.720
 8370SOL    HW136329   1.516   6.765   4.705
 8370SOL    HW236330   1.552   6.630   4.790
 8371SOL     OW36331   1.592   2.417   1.784
 8371SOL    HW136332   1.635   2.347   1.726
 8371SOL    HW236333   1.513   2.379   1.830
 8372SOL     OW36334   3.015   1.205   3.874
 8372SOL    HW136335   3.107   1.166   3.867
 8372SOL    HW236336   3.017   1.285   3.934
 8373SOL     OW36337   0.184   7.817   4.929
 8373SOL    HW136338   0.108   7.826   4.993
 8373SOL    HW236339   0.246   7.745   4.961
 8374SOL     OW36340   9.198   5.752   3.861
 8374SOL    HW136341   9.199   5.852   3.851
 8374SOL    HW236342   9.191   5.729   3.958
 8375SOL     OW36343   3.668   2.139   1.799
 8375SOL    HW136344   3.768   2.135   1.799
 8375SOL    HW236345   3.632   2.046   1.804
 8376SOL     OW36346   2.670   5.020   0.368
 8376SOL    HW136347   2.639   5.114   0.382
 8376SOL    HW236348   2.702   4.983   0.455
 8377SOL     OW36349   2.834   3.628   5.406
 8377SOL    HW136350   2.823   3.676   5.318
 8377SOL    HW236351   2.760   3.655   5.467
 8378SOL     OW36352   5.045   9.675   1.818
 8378SOL    HW136353   4.980   9.622   1.763
 8378SOL    HW236354   5.070   9.623   1.900
 8379SOL     OW36355   2.923   9.232   3.599
 8379SOL    HW136356   2.981   9.311   3.617
 8379SOL    HW236357   2.980   9.152   3.583
 8380SOL     OW36358   4.807   4.627   0.199
 8380SOL    HW136359   4.766   4.541   0.227
 8380SOL    HW236360   4.885   4.649   0.257
 8381SOL     OW36361   0.721   7.877   2.012
 8381SOL    HW136362   0.808   7.853   2.056
 8381SOL    HW236363   0.738   7.903   1.917
 8382SOL     OW36364   1.061   4.792   1.762
 8382SOL    HW136365   1.041   4.776   1.858
 8382SOL    HW236366   1.159   4.801   1.749
 8383SOL     OW36367   0.526   6.119   4.618
 8383SOL    HW136368   0.452   6.184   4.603
 8383SOL    HW236369   0.581   6.111   4.534
 8384SOL     OW36370   1.691   9.926   1.728
 8384SOL    HW136371   1.769   9.984   1.753
 8384SOL    HW236372   1.606   9.969   1.761
 8385SOL     OW36373   2.939   0.789   1.909
 8385SOL    HW136374   2.931   0.865   1.974
 8385SOL    HW236375   2.995   0.817   1.832
 8386SOL     OW36376   4.447   2.444   5.849
 8386SOL    HW136377   4.431   2.423   5.753
 8386SOL    HW236378   4.544   2.464   5.863
 8387SOL     OW36379   2.471   9.762   5.906
 8387SOL    HW136380   2.570   9.774   5.899
 8387SOL    HW236381   2.426   9.851   5.902
 8388SOL     OW36382   2.668   5.152   5.792
 8388SOL    HW136383   2.659   5.097   5.709
 8388SOL    HW236384   2.647   5.247   5.771
 8389SOL     OW36385   3.988   1.090   2.116
 8389SOL    HW136386   4.085   1.076   2.134
 8389SOL    HW236387   3.950   1.008   2.072
 8390SOL     OW36388   1.326   4.305   2.931
 8390SOL    HW136389   1.250   4.304   2.996
 8390SOL    HW236390   1.372   4.216   2.933
 8391SOL     OW36391   4.697   5.689   2.244
 8391SOL    HW136392   4.782   5.655   2.205
 8391SOL    HW236393   4.659   5.760   2.184
 8392SOL     OW36394   3.997   9.751   4.893
 8392SOL    HW136395   4.044   9.681   4.840
 8392SOL    HW236396   3.903   9.761   4.860
 8393SOL     OW36397   2.849   1.564   2.853
 8393SOL    HW136398   2.792   1.623   2.796
 8393SOL    HW236399   2.833   1.469   2.829
 8394SOL     OW36400   1.639   1.097   5.627
 8394SOL    HW136401   1.669   1.066   5.537
 8394SOL    HW236402   1.580   1.177   5.617
 8395SOL     OW36403   4.767   9.104   0.257
 8395SOL    HW136404   4.707   9.033   0.295
 8395SOL    HW236405   4.800   9.075   0.167
 8396SOL     OW36406   3.696   2.404   2.646
 8396SOL    HW136407   3.750   2.475   2.690
 8396SOL    HW236408   3.604   2.439   2.627
 8397SOL     OW36409   1.574   3.960   0.600
 8397SOL    HW136410   1.483   3.997   0.618
 8397SOL    HW236411   1.566   3.880   0.540
 8398SOL     OW36412   5.976   0.865   4.338
 8398SOL    HW136413   5.974   0.780   4.391
 8398SOL    HW236414   6.016   0.937   4.394
 8399SOL     OW36415   8.496   4.711   3.694
 8399SOL    HW136416   8.521   4.778   3.764
 8399SOL    HW236417   8.401   4.683   3.708
 8400SOL     OW36418   6.787   8.612   3.426
 8400SOL    HW136419   6.715   8.559   3.472
 8400SOL    HW236420   6.877   8.579   3.456
 8401SOL     OW36421   0.281   4.810   1.942
 8401SOL    HW136422   0.227   4.862   2.008
 8401SOL    HW236423   0.246   4.826   1.850
 8402SOL     OW36424   5.298   8.420   3.908
 8402SOL    HW136425   5.266   8.393   3.999
 8402SOL    HW236426   5.248   8.501   3.878
 8403SOL     OW36427   9.937   7.626   0.381
 8403SOL    HW136428   0.002   7.602   0.454
 8403SOL    HW236429   9.845   7.596   0.407
 8404SOL     OW36430   0.945   8.091   5.490
 8404SOL    HW136431   0.870   8.132   5.437
 8404SOL    HW236432   1.011   8.049   5.428
 8405SOL     OW36433   1.943   2.283   6.209
 8405SOL    HW136434   1.940   2.365   6.153
 8405SOL    HW236435   2.021   2.226   6.181
 8406SOL     OW36436   3.942   4.029   5.990
 8406SOL    HW136437   3.861   4.074   6.027
 8406SOL    HW236438   4.022   4.053   6.046
 8407SOL     OW36439   8.251   1.700   1.883
 8407SOL    HW136440   8.223   1.668   1.793
 8407SOL    HW236441   8.170   1.714   1.940
 8408SOL     OW36442   7.336   1.226   1.906
 8408SOL    HW136443   7.298   1.279   1.982
 8408SOL    HW236444   7.313   1.130   1.917
 8409SOL     OW36445   9.316   0.535   5.286
 8409SOL    HW136446   9.304   0.573   5.378
 8409SOL    HW236447   9.248   0.575   5.224
 8410SOL     OW36448   7.232   2.563   2.634
 8410SOL    HW136449   7.195   2.540   2.544
 8410SOL    HW236450   7.328   2.588   2.625
 8411SOL     OW36451   3.037   4.932   1.198
 8411SOL    HW136452   3.123   4.934   1.249
 8411SOL    HW236453   3.055   4.910   1.103
 8412SOL     OW36454   3.163   5.351   5.184
 8412SOL    HW136455   3.229   5.404   5.131
 8412SOL    HW236456   3.116   5.412   5.248
 8413SOL     OW36457   2.267   3.369   1.957
 8413SOL    HW136458   2.230   3.439   1.897
 8413SOL    HW236459   2.274   3.406   2.050
 8414SOL     OW36460   3.653   0.124   2.653
 8414SOL    HW136461   3.591   0.070   2.596
 8414SOL    HW236462   3.728   0.160   2.597
 8415SOL     OW36463   8.435   3.742   5.055
 8415SOL    HW136464   8.417   3.680   4.979
 8415SOL    HW236465   8.350   3.764   5.102
 8416SOL     OW36466   1.437   0.727   0.707
 8416SOL    HW136467   1.530   0.701   0.731
 8416SOL    HW236468   1.387   0.755   0.789
 8417SOL     OW36469   1.493   3.393   3.944
 8417SOL    HW136470   1.476   3.489   3.923
 8417SOL    HW236471   1.585   3.368   3.913
 8418SOL     OW36472   2.523   5.895   4.208
 8418SOL    HW136473   2.559   5.928   4.121
 8418SOL    HW236474   2.478   5.970   4.256
 8419SOL     OW36475   2.329   9.949   2.183
 8419SOL    HW136476   2.277   9.906   2.110
 8419SOL    HW236477   2.272   9.957   2.265
 8420SOL     OW36478   0.188   8.936   6.360
 8420SOL    HW136479   0.263   8.916   6.423
 8420SOL    HW236480   0.208   9.020   6.310
 8421SOL     OW36481   4.165   4.821   5.311
 8421SOL    HW136482   4.206   4.819   5.402
 8421SOL    HW236483   4.067   4.840   5.319
 8422SOL     OW36484   6.331   2.582   5.562
 8422SOL    HW136485   6.359   2.590   5.467
 8422SOL    HW236486   6.245   2.530   5.567
 8423SOL     OW36487   6.564   9.125   4.358
 8423SOL    HW136488   6.525   9.128   4.266
 8423SOL    HW236489   6.660   9.154   4.354
 8424SOL     OW36490   2.539   4.841   4.244
 8424SOL    HW136491   2.616   4.876   4.191
 8424SOL    HW236492   2.469   4.805   4.182
 8425SOL     OW36493   8.782   9.341   4.948
 8425SOL    HW136494   8.812   9.255   4.991
 8425SOL    HW236495   8.861   9.400   4.933
 8426SOL     OW36496   5.950   9.137   4.475
 8426SOL    HW136497   5.920   9.141   4.380
 8426SOL    HW236498   5.972   9.229   4.506
 8427SOL     OW36499   8.522   7.519   3.326
 8427SOL    HW136500   8.620   7.506   3.342
 8427SOL    HW236501   8.503   7.516   3.228
 8428SOL     OW36502   4.862   6.120   1.396
 8428SOL    HW136503   4.925   6.043   1.412
 8428SOL    HW236504   4.868   6.184   1.472
 8429SOL     OW36505   8.466   1.042   2.842
 8429SOL    HW136506   8.376   1.005   2.863
 8429SOL    HW236507   8.459   1.110   2.769
 8430SOL     OW36508   5.413   0.970   4.453
 8430SOL    HW136509   5.429   1.061   4.492
 8430SOL    HW236510   5.487   0.947   4.390
 8431SOL     OW36511   0.794   3.257   2.184
 8431SOL    HW136512   0.737   3.243   2.265
 8431SOL    HW236513   0.736   3.276   2.105
 8432SOL     OW36514   2.008   2.241   5.184
 8432SOL    HW136515   2.072   2.303   5.140
 8432SOL    HW236516   2.020   2.149   5.147
 8433SOL     OW36517   0.372   0.866   6.205
 8433SOL    HW136518   0.386   0.934   6.277
 8433SOL    HW236519   0.411   0.898   6.119
 8434SOL     OW36520   0.514   3.496   4.148
 8434SOL    HW136521   0.433   3.437   4.143
 8434SOL    HW236522   0.486   3.592   4.136
 8435SOL     OW36523   9.577   8.578   6.039
 8435SOL    HW136524   9.546   8.499   5.987
 8435SOL    HW236525   9.501   8.641   6.053
 8436SOL     OW36526   2.278   1.616   4.387
 8436SOL    HW136527   2.238   1.609   4.296
 8436SOL    HW236528   2.214   1.663   4.448
 8437SOL     OW36529   4.172   1.633   5.350
 8437SOL    HW136530   4.137   1.692   5.422
 8437SOL    HW236531   4.235   1.566   5.388
 8438SOL     OW36532   1.312   9.655   1.605
 8438SOL    HW136533   1.398   9.663   1.655
 8438SOL    HW236534   1.238   9.696   1.659
 8439SOL     OW36535   8.282   7.245   4.077
 8439SOL    HW136536   8.301   7.151   4.105
 8439SOL    HW236537   8.368   7.294   4.063
 8440SOL     OW36538   1.053   3.640   0.754
 8440SOL    HW136539   1.112   3.646   0.835
 8440SOL    HW236540   1.018   3.547   0.746
 8441SOL     OW36541   6.523   9.387   2.636
 8441SOL    HW136542   6.503   9.479   2.604
 8441SOL    HW236543   6.510   9.382   2.735
 8442SOL     OW36544   6.521   9.901   5.726
 8442SOL    HW136545   6.550   9.807   5.707
 8442SOL    HW236546   6.598   9.952   5.765
 8443SOL     OW36547   9.838   8.154   6.381
 8443SOL    HW136548   9.855   8.056   6.372
 8443SOL    HW236549   9.919   8.197   6.423
 8444SOL     OW36550   1.137   4.690   2.342
 8444SOL    HW136551   1.051   4.737   2.366
 8444SOL    HW236552   1.210   4.758   2.333
 8445SOL     OW36553   7.576   2.208   4.747
 8445SOL    HW136554   7.640   2.132   4.741
 8445SOL    HW236555   7.606   2.271   4.819
 8446SOL     OW36556   3.319   1.390   2.061
 8446SOL    HW136557   3.335   1.389   1.963
 8446SOL    HW236558   3.406   1.397   2.110
 8447SOL     OW36559   7.157   7.636   4.812
 8447SOL    HW136560   7.096   7.587   4.750
 8447SOL    HW236561   7.219   7.572   4.857
 8448SOL     OW36562   4.193   7.344   1.356
 8448SOL    HW136563   4.249   7.332   1.437
 8448SOL    HW236564   4.232   7.418   1.300
 8449SOL     OW36565   1.738   7.973   3.866
 8449SOL    HW136566   1.749   8.000   3.771
 8449SOL    HW236567   1.699   7.881   3.871
 8450SOL     OW36568   2.715   3.932   5.708
 8450SOL    HW136569   2.772   3.963   5.631
 8450SOL    HW236570   2.660   4.009   5.741
 8451SOL     OW36571   7.849   8.821   4.335
 8451SOL    HW136572   7.784   8.783   4.399
 8451SOL    HW236573   7.802   8.850   4.251
 8452SOL     OW36574   2.464   8.160   1.515
 8452SOL    HW136575   2.538   8.208   1.563
 8452SOL    HW236576   2.451   8.200   1.425
 8453SOL     OW36577   7.691   5.108   1.146
 8453SOL    HW136578   7.643   5.194   1.162
 8453SOL    HW236579   7.731   5.109   1.054
 8454SOL     OW36580   1.650   5.067   0.850
 8454SOL    HW136581   1.702   4.982   0.863
 8454SOL    HW236582   1.556   5.045   0.825
 8455SOL     OW36583   8.548   4.378   2.767
 8455SOL    HW136584   8.515   4.453   2.825
 8455SOL    HW236585   8.470   4.320   2.741
 8456SOL     OW36586   3.293   1.822   3.089
 8456SOL    HW136587   3.285   1.817   2.989
 8456SOL    HW236588   3.207   1.856   3.127
 8457SOL     OW36589   1.040   2.278   5.328
 8457SOL    HW136590   1.083   2.200   5.281
 8457SOL    HW236591   0.955   2.302   5.282
 8458SOL     OW36592   9.655   8.351   4.840
 8458SOL    HW136593   9.746   8.348   4.881
 8458SOL    HW236594   9.598   8.417   4.889
 8459SOL     OW36595   0.464   7.178   2.939
 8459SOL    HW136596   0.528   7.102   2.933
 8459SOL    HW236597   0.486   7.246   2.869
 8460SOL     OW36598   1.328   2.094   5.657
 8460SOL    HW136599   1.304   2.073   5.562
 8460SOL    HW236600   1.345   2.008   5.705
 8461SOL     OW36601   3.631   6.529   0.947
 8461SOL    HW136602   3.550   6.500   0.896
 8461SOL    HW236603   3.705   6.463   0.934
 8462SOL     OW36604   9.307   2.208   5.204
 8462SOL    HW136605   9.342   2.116   5.192
 8462SOL    HW236606   9.370   2.261   5.262
 8463SOL     OW36607   0.886   1.731   3.876
 8463SOL    HW136608   0.825   1.654   3.855
 8463SOL    HW236609   0.965   1.728   3.815
 8464SOL     OW36610   8.620   4.781   3.456
 8464SOL    HW136611   8.565   4.855   3.416
 8464SOL    HW236612   8.578   4.753   3.543
 8465SOL     OW36613   1.489   8.032   0.541
 8465SOL    HW136614   1.397   8.046   0.578
 8465SOL    HW236615   1.527   8.120   0.512
 8466SOL     OW36616   1.500   3.965   3.472
 8466SOL    HW136617   1.492   4.048   3.417
 8466SOL    HW236618   1.569   3.977   3.543
 8467SOL     OW36619   8.104   4.360   5.805
 8467SOL    HW136620   8.191   4.343   5.851
 8467SOL    HW236621   8.043   4.283   5.820
 8468SOL     OW36622   0.306   4.331   2.243
 8468SOL    HW136623   0.328   4.428   2.233
 8468SOL    HW236624   0.216   4.313   2.203
 8469SOL     OW36625   0.940   1.849   0.204
 8469SOL    HW136626   0.955   1.788   0.281
 8469SOL    HW236627   1.029   1.879   0.168
 8470SOL     OW36628   7.763   3.201   3.460
 8470SOL    HW136629   7.861   3.210   3.481
 8470SOL    HW236630   7.751   3.194   3.361
 8471SOL     OW36631   9.742   5.522   1.756
 8471SOL    HW136632   9.758   5.570   1.670
 8471SOL    HW236633   9.651   5.545   1.791
 8472SOL     OW36634   1.973   0.894   3.502
 8472SOL    HW136635   1.880   0.857   3.508
 8472SOL    HW236636   2.038   0.819   3.485
 8473SOL     OW36637   0.352   1.223   3.290
 8473SOL    HW136638   0.358   1.179   3.380
 8473SOL    HW236639   0.406   1.171   3.224
 8474SOL     OW36640   9.983   6.801   1.514
 8474SOL    HW136641   0.015   6.895   1.501
 8474SOL    HW236642   9.890   6.802   1.550
 8475SOL     OW36643   0.963   5.781   4.195
 8475SOL    HW136644   0.981   5.782   4.097
 8475SOL    HW236645   1.012   5.857   4.239
 8476SOL     OW36646   2.149   4.438   5.328
 8476SOL    HW136647   2.237   4.425   5.282
 8476SOL    HW236648   2.094   4.355   5.319
 8477SOL     OW36649   9.415   9.127   0.223
 8477SOL    HW136650   9.453   9.219   0.219
 8477SOL    HW236651   9.330   9.123   0.170
 8478SOL     OW36652   0.052   4.715   0.350
 8478SOL    HW136653   0.024   4.629   0.393
 8478SOL    HW236654   0.116   4.695   0.275
 8479SOL     OW36655   4.547   3.119   1.489
 8479SOL    HW136656   4.566   3.210   1.527
 8479SOL    HW236657   4.629   3.062   1.495
 8480SOL     OW36658   1.075   0.107   0.685
 8480SOL    HW136659   1.093   0.144   0.777
 8480SOL    HW236660   1.139   0.033   0.666
 8481SOL     OW36661   1.532   2.835   4.302
 8481SOL    HW136662   1.438   2.842   4.268
 8481SOL    HW236663   1.578   2.759   4.257
 8482SOL     OW36664   4.105   8.762   2.267
 8482SOL    HW136665   4.191   8.711   2.265
 8482SOL    HW236666   4.121   8.855   2.232
 8483SOL     OW36667   8.003   5.741   0.069
 8483SOL    HW136668   7.940   5.733   8.181
 8483SOL    HW236669   8.093   5.770   0.036
 8484SOL     OW36670   6.613   7.362   3.850
 8484SOL    HW136671   6.513   7.367   3.855
 8484SOL    HW236672   6.641   7.332   3.759
 8485SOL     OW36673   7.449   1.415   3.530
 8485SOL    HW136674   7.369   1.450   3.579
 8485SOL    HW236675   7.507   1.364   3.594
 8486SOL     OW36676   9.804   5.172   4.562
 8486SOL    HW136677   9.719   5.121   4.572
 8486SOL    HW236678   9.882   5.109   4.563
 8487SOL     OW36679   2.218   3.879   2.464
 8487SOL    HW136680   2.174   3.955   2.416
 8487SOL    HW236681   2.184   3.874   2.558
 8488SOL     OW36682   8.982   1.378   3.265
 8488SOL    HW136683   8.983   1.476   3.287
 8488SOL    HW236684   9.033   1.363   3.180
 8489SOL     OW36685   1.713   2.167   2.160
 8489SOL    HW136686   1.699   2.127   2.251
 8489SOL    HW236687   1.702   2.096   2.090
 8490SOL     OW36688   3.554   4.416   4.114
 8490SOL    HW136689   3.484   4.388   4.048
 8490SOL    HW236690   3.644   4.386   4.083
 8491SOL     OW36691   0.634   6.056   1.622
 8491SOL    HW136692   0.688   5.972   1.618
 8491SOL    HW236693   0.551   6.045   1.567
 8492SOL     OW36694   9.503   0.345   3.892
 8492SOL    HW136695   9.450   0.262   3.910
 8492SOL    HW236696   9.562   0.364   3.970
 8493SOL     OW36697   1.651   5.038   3.138
 8493SOL    HW136698   1.721   5.046   3.210
 8493SOL    HW236699   1.674   5.100   3.063
 8494SOL     OW36700   3.324   6.958   3.599
 8494SOL    HW136701   3.304   7.050   3.633
 8494SOL    HW236702   3.338   6.896   3.677
 8495SOL     OW36703   3.744   3.980   2.387
 8495SOL    HW136704   3.756   4.072   2.424
 8495SOL    HW236705   3.825   3.925   2.409
 8496SOL     OW36706   6.737   1.543   3.113
 8496SOL    HW136707   6.799   1.471   3.082
 8496SOL    HW236708   6.665   1.502   3.169
 8497SOL     OW36709   7.170   8.294   2.694
 8497SOL    HW136710   7.230   8.240   2.754
 8497SOL    HW236711   7.195   8.277   2.599
 8498SOL     OW36712   3.494   0.366   3.703
 8498SOL    HW136713   3.407   0.321   3.719
 8498SOL    HW236714   3.515   0.427   3.780
 8499SOL     OW36715   0.334   2.207   3.642
 8499SOL    HW136716   0.284   2.143   3.700
 8499SOL    HW236717   0.364   2.285   3.696
 8500SOL     OW36718   9.682   9.492   4.920
 8500SOL    HW136719   9.595   9.496   4.872
 8500SOL    HW236720   9.665   9.496   5.019
 8501SOL     OW36721   3.834   5.997   2.651
 8501SOL    HW136722   3.891   6.079   2.651
 8501SOL    HW236723   3.880   5.924   2.700
 8502SOL     OW36724   5.249   8.288   4.596
 8502SOL    HW136725   5.299   8.277   4.510
 8502SOL    HW236726   5.170   8.348   4.582
 8503SOL     OW36727   8.560   7.933   1.024
 8503SOL    HW136728   8.648   7.980   1.022
 8503SOL    HW236729   8.503   7.968   0.949
 8504SOL     OW36730   4.609   7.904   6.378
 8504SOL    HW136731   4.650   7.942   6.460
 8504SOL    HW236732   4.568   7.978   6.323
 8505SOL     OW36733   3.654   6.610   0.474
 8505SOL    HW136734   3.574   6.641   0.424
 8505SOL    HW236735   3.684   6.681   0.537
 8506SOL     OW36736   0.153   3.900   4.962
 8506SOL    HW136737   0.081   3.888   4.894
 8506SOL    HW236738   0.185   3.810   4.993
 8507SOL     OW36739   2.819   5.444   2.783
 8507SOL    HW136740   2.827   5.501   2.864
 8507SOL    HW236741   2.807   5.502   2.702
 8508SOL     OW36742   2.314   5.099   4.515
 8508SOL    HW136743   2.218   5.084   4.539
 8508SOL    HW236744   2.353   5.167   4.577
 8509SOL     OW36745   8.838   8.236   4.832
 8509SOL    HW136746   8.748   8.278   4.846
 8509SOL    HW236747   8.834   8.139   4.858
 8510SOL     OW36748   4.734   7.191   2.967
 8510SOL    HW136749   4.687   7.266   3.013
 8510SOL    HW236750   4.729   7.204   2.868
 8511SOL     OW36751   2.514   4.600   5.545
 8511SOL    HW136752   2.585   4.657   5.586
 8511SOL    HW236753   2.554   4.513   5.516
 8512SOL     OW36754   4.313   4.287   1.185
 8512SOL    HW136755   4.348   4.306   1.277
 8512SOL    HW236756   4.268   4.198   1.184
 8513SOL     OW36757   4.216   4.270   2.002
 8513SOL    HW136758   4.139   4.331   2.020
 8513SOL    HW236759   4.204   4.226   1.913
 8514SOL     OW36760   2.704   0.524   0.830
 8514SOL    HW136761   2.708   0.617   0.865
 8514SOL    HW236762   2.736   0.523   0.735
 8515SOL     OW36763   9.775   9.451   0.105
 8515SOL    HW136764   9.859   9.400   0.085
 8515SOL    HW236765   9.791   9.511   0.184
 8516SOL     OW36766   2.648   6.211   3.093
 8516SOL    HW136767   2.715   6.166   3.152
 8516SOL    HW236768   2.682   6.302   3.068
 8517SOL     OW36769   1.164   7.292   2.110
 8517SOL    HW136770   1.217   7.220   2.065
 8517SOL    HW236771   1.169   7.376   2.056
 8518SOL     OW36772   3.795   8.774   1.332
 8518SOL    HW136773   3.752   8.830   1.403
 8518SOL    HW236774   3.762   8.803   1.242
 8519SOL     OW36775   5.366   8.007   2.555
 8519SOL    HW136776   5.276   8.035   2.521
 8519SOL    HW236777   5.369   7.907   2.559
 8520SOL     OW36778   9.103   4.216   2.009
 8520SOL    HW136779   9.111   4.180   1.916
 8520SOL    HW236780   9.054   4.150   2.067
 8521SOL     OW36781   9.893   3.095   3.859
 8521SOL    HW136782   9.905   3.047   3.772
 8521SOL    HW236783   9.981   3.099   3.907
 8522SOL     OW36784   9.259   0.466   4.161
 8522SOL    HW136785   9.159   0.463   4.158
 8522SOL    HW236786   9.294   0.383   4.203
 8523SOL     OW36787   8.819   2.677   1.945
 8523SOL    HW136788   8.807   2.755   1.884
 8523SOL    HW236789   8.905   2.631   1.924
 8524SOL     OW36790   0.883   1.590   1.053
 8524SOL    HW136791   0.939   1.637   1.121
 8524SOL    HW236792   0.870   1.495   1.081
 8525SOL     OW36793   4.325   7.043   0.891
 8525SOL    HW136794   4.343   6.952   0.852
 8525SOL    HW236795   4.365   7.048   0.982
 8526SOL     OW36796   0.580   7.936   2.471
 8526SOL    HW136797   0.572   7.867   2.398
 8526SOL    HW236798   0.580   8.027   2.431
 8527SOL     OW36799   3.553   3.765   2.403
 8527SOL    HW136800   3.458   3.771   2.373
 8527SOL    HW236801   3.593   3.856   2.406
 8528SOL     OW36802   5.567   2.041   4.345
 8528SOL    HW136803   5.498   2.076   4.409
 8528SOL    HW236804   5.591   1.947   4.371
 8529SOL     OW36805   1.173   4.976   1.347
 8529SOL    HW136806   1.127   5.039   1.284
 8529SOL    HW236807   1.139   4.884   1.332
 8530SOL     OW36808   4.443   2.008   4.775
 8530SOL    HW136809   4.397   2.077   4.830
 8530SOL    HW236810   4.518   2.050   4.725
 8531SOL     OW36811   4.631   8.434   2.922
 8531SOL    HW136812   4.542   8.455   2.883
 8531SOL    HW236813   4.629   8.452   3.021
 8532SOL     OW36814   1.881   2.919   1.584
 8532SOL    HW136815   1.783   2.925   1.598
 8532SOL    HW236816   1.902   2.837   1.531
 8533SOL     OW36817   3.647   5.148   5.560
 8533SOL    HW136818   3.693   5.236   5.563
 8533SOL    HW236819   3.549   5.162   5.547
 8534SOL     OW36820   3.878   7.760   4.921
 8534SOL    HW136821   3.949   7.829   4.914
 8534SOL    HW236822   3.871   7.710   4.834
 8535SOL     OW36823   4.450   1.560   3.296
 8535SOL    HW136824   4.444   1.657   3.275
 8535SOL    HW236825   4.470   1.548   3.393
 8536SOL     OW36826   0.592   5.209   5.059
 8536SOL    HW136827   0.615   5.116   5.030
 8536SOL    HW236828   0.623   5.274   4.990
 8537SOL     OW36829   3.056   7.960   1.759
 8537SOL    HW136830   3.134   7.978   1.819
 8537SOL    HW236831   3.069   7.873   1.711
 8538SOL     OW36832   3.545   2.129   3.223
 8538SOL    HW136833   3.552   2.032   3.201
 8538SOL    HW236834   3.571   2.184   3.143
 8539SOL     OW36835   2.610   5.414   5.765
 8539SOL    HW136836   2.556   5.448   5.842
 8539SOL    HW236837   2.599   5.476   5.686
 8540SOL     OW36838   1.344   0.427   0.334
 8540SOL    HW136839   1.398   0.347   0.363
 8540SOL    HW236840   1.279   0.399   0.263
 8541SOL     OW36841   6.081   9.863   3.289
 8541SOL    HW136842   6.022   9.856   3.209
 8541SOL    HW236843   6.048   9.800   3.360
 8542SOL     OW36844   8.329   0.705   1.650
 8542SOL    HW136845   8.393   0.675   1.721
 8542SOL    HW236846   8.273   0.780   1.685
 8543SOL     OW36847   8.671   4.660   6.324
 8543SOL    HW136848   8.741   4.702   6.267
 8543SOL    HW236849   8.650   4.719   6.402
 8544SOL     OW36850   0.515   4.220   1.145
 8544SOL    HW136851   0.530   4.307   1.191
 8544SOL    HW236852   0.599   4.165   1.149
 8545SOL     OW36853   9.163   7.504   4.001
 8545SOL    HW136854   9.174   7.463   4.091
 8545SOL    HW236855   9.176   7.603   4.006
 8546SOL     OW36856   5.798   4.945   1.421
 8546SOL    HW136857   5.880   4.978   1.468
 8546SOL    HW236858   5.721   5.005   1.442
 8547SOL     OW36859   9.776   1.388   0.701
 8547SOL    HW136860   9.776   1.447   0.620
 8547SOL    HW236861   9.715   1.310   0.686
 8548SOL     OW36862   3.007   1.118   5.039
 8548SOL    HW136863   2.930   1.081   5.091
 8548SOL    HW236864   3.092   1.093   5.085
 8549SOL     OW36865   2.935   5.397   1.816
 8549SOL    HW136866   2.962   5.362   1.905
 8549SOL    HW236867   2.979   5.342   1.744
 8550SOL     OW36868   1.937   8.040   1.982
 8550SOL    HW136869   1.909   7.944   1.994
 8550SOL    HW236870   1.972   8.075   2.069
 8551SOL     OW36871   8.249   7.917   3.415
 8551SOL    HW136872   8.261   7.895   3.319
 8551SOL    HW236873   8.151   7.922   3.436
 8552SOL     OW36874   4.203   1.036   3.211
 8552SOL    HW136875   4.301   1.049   3.198
 8552SOL    HW236876   4.161   1.123   3.239
 8553SOL     OW36877   4.380   2.277   3.420
 8553SOL    HW136878   4.354   2.264   3.516
 8553SOL    HW236879   4.441   2.203   3.391
 8554SOL     OW36880   4.292   0.617   5.509
 8554SOL    HW136881   4.244   0.571   5.584
 8554SOL    HW236882   4.253   0.588   5.422
 8555SOL     OW36883   9.712   5.319   6.196
 8555SOL    HW136884   9.659   5.390   6.151
 8555SOL    HW236885   9.798   5.305   6.147
 8556SOL     OW36886   4.543   4.552   6.034
 8556SOL    HW136887   4.591   4.505   5.960
 8556SOL    HW236888   4.539   4.650   6.013
 8557SOL     OW36889   0.119   4.131   0.563
 8557SOL    HW136890   0.216   4.142   0.542
 8557SOL    HW236891   0.107   4.124   0.662
 8558SOL     OW36892   2.320   3.474   2.204
 8558SOL    HW136893   2.395   3.537   2.180
 8558SOL    HW236894   2.258   3.520   2.267
 8559SOL     OW36895   6.385   5.648   0.243
 8559SOL    HW136896   6.319   5.714   0.207
 8559SOL    HW236897   6.377   5.644   0.342
 8560SOL     OW36898   7.301   8.329   3.599
 8560SOL    HW136899   7.371   8.306   3.532
 8560SOL    HW236900   7.211   8.304   3.563
 8561SOL     OW36901   8.105   6.701   2.505
 8561SOL    HW136902   8.067   6.680   2.414
 8561SOL    HW236903   8.153   6.621   2.540
 8562SOL     OW36904   3.605   5.094   1.378
 8562SOL    HW136905   3.636   5.039   1.455
 8562SOL    HW236906   3.672   5.089   1.304
 8563SOL     OW36907   7.196   7.972   2.429
 8563SOL    HW136908   7.240   7.909   2.364
 8563SOL    HW236909   7.177   7.923   2.514
 8564SOL     OW36910   4.702   7.738   3.692
 8564SOL    HW136911   4.630   7.777   3.634
 8564SOL    HW236912   4.686   7.765   3.787
 8565SOL     OW36913   3.613   4.807   4.461
 8565SOL    HW136914   3.623   4.723   4.407
 8565SOL    HW236915   3.525   4.850   4.438
 8566SOL     OW36916   0.751   9.522   0.433
 8566SOL    HW136917   0.715   9.475   0.513
 8566SOL    HW236918   0.676   9.566   0.384
 8567SOL     OW36919   3.447   5.793   0.962
 8567SOL    HW136920   3.379   5.726   0.933
 8567SOL    HW236921   3.411   5.844   1.041
 8568SOL     OW36922   7.209   2.902   2.429
 8568SOL    HW136923   7.253   2.831   2.375
 8568SOL    HW236924   7.250   2.991   2.408
 8569SOL     OW36925   9.238   5.569   4.099
 8569SOL    HW136926   9.303   5.519   4.042
 8569SOL    HW236927   9.197   5.505   4.165
 8570SOL     OW36928   9.924   0.221   1.578
 8570SOL    HW136929   9.875   0.201   1.493
 8570SOL    HW236930   9.963   0.136   1.615
 8571SOL     OW36931   1.744   2.898   2.823
 8571SOL    HW136932   1.777   2.844   2.901
 8571SOL    HW236933   1.672   2.960   2.854
 8572SOL     OW36934   0.080   5.139   4.288
 8572SOL    HW136935   0.129   5.225   4.276
 8572SOL    HW236936   0.074   5.118   4.386
 8573SOL     OW36937   7.710   3.153   6.315
 8573SOL    HW136938   7.734   3.063   6.350
 8573SOL    HW236939   7.617   3.176   6.344
 8574SOL     OW36940   1.393   2.981   5.323
 8574SOL    HW136941   1.423   2.914   5.390
 8574SOL    HW236942   1.298   2.962   5.297
 8575SOL     OW36943   0.494   9.490   3.139
 8575SOL    HW136944   0.501   9.431   3.058
 8575SOL    HW236945   0.574   9.550   3.143
 8576SOL     OW36946   9.632   6.002   5.953
 8576SOL    HW136947   9.707   6.059   5.919
 8576SOL    HW236948   9.573   6.057   6.012
 8577SOL     OW36949   7.233   5.430   1.405
 8577SOL    HW136950   7.230   5.490   1.325
 8577SOL    HW236951   7.322   5.386   1.411
 8578SOL     OW36952   3.217   0.762   4.614
 8578SOL    HW136953   3.173   0.829   4.554
 8578SOL    HW236954   3.244   0.682   4.561
 8579SOL     OW36955   6.126   8.918   4.955
 8579SOL    HW136956   6.085   8.857   4.888
 8579SOL    HW236957   6.112   8.881   5.047
 8580SOL     OW36958   2.885   7.034   1.884
 8580SOL    HW136959   2.806   7.072   1.934
 8580SOL    HW236960   2.897   7.083   1.798
 8581SOL     OW36961   8.152   7.665   0.855
 8581SOL    HW136962   8.169   7.763   0.841
 8581SOL    HW236963   8.166   7.617   0.769
 8582SOL     OW36964   9.585   9.453   4.303
 8582SOL    HW136965   9.674   9.470   4.262
 8582SOL    HW236966   9.514   9.461   4.233
 8583SOL     OW36967   6.230   8.841   6.170
 8583SOL    HW136968   6.311   8.828   6.113
 8583SOL    HW236969   6.190   8.931   6.150
 8584SOL     OW36970   9.519   4.302   5.873
 8584SOL    HW136971   9.471   4.262   5.950
 8584SOL    HW236972   9.452   4.330   5.803
 8585SOL     OW36973   8.531   6.594   3.159
 8585SOL    HW136974   8.513   6.576   3.062
 8585SOL    HW236975   8.619   6.555   3.184
 8586SOL     OW36976   3.420   6.677   0.346
 8586SOL    HW136977   3.338   6.631   0.381
 8586SOL    HW236978   3.400   6.774   0.333
 8587SOL     OW36979   1.927   0.780   2.892
 8587SOL    HW136980   1.919   0.746   2.798
 8587SOL    HW236981   1.889   0.712   2.955
 8588SOL     OW36982   2.511   8.953   6.453
 8588SOL    HW136983   2.500   8.933   6.550
 8588SOL    HW236984   2.434   9.009   6.421
 8589SOL     OW36985   2.900   5.600   0.911
 8589SOL    HW136986   2.919   5.517   0.964
 8589SOL    HW236987   2.922   5.584   0.815
 8590SOL     OW36988   8.679   7.886   3.351
 8590SOL    HW136989   8.754   7.819   3.352
 8590SOL    HW236990   8.607   7.856   3.415
 8591SOL     OW36991   4.716   3.711   4.838
 8591SOL    HW136992   4.753   3.692   4.747
 8591SOL    HW236993   4.687   3.626   4.881
 8592SOL     OW36994   7.387   1.598   1.922
 8592SOL    HW136995   7.380   1.510   1.874
 8592SOL    HW236996   7.379   1.673   1.856
 8593SOL     OW36997   6.894   9.065   3.214
 8593SOL    HW136998   6.808   9.033   3.254
 8593SOL    HW236999   6.910   9.017   3.128
 8594SOL     OW37000   1.615   9.620   4.367
 8594SOL    HW137001   1.703   9.593   4.407
 8594SOL    HW237002   1.628   9.644   4.271
 8595SOL     OW37003   9.970   0.837   0.529
 8595SOL    HW137004   9.974   0.742   0.561
 8595SOL    HW237005   9.982   0.899   0.606
 8596SOL     OW37006   3.610   7.566   3.430
 8596SOL    HW137007   3.609   7.640   3.497
 8596SOL    HW237008   3.618   7.603   3.338
 8597SOL     OW37009   0.969   8.451   5.984
 8597SOL    HW137010   0.985   8.454   5.885
 8597SOL    HW237011   1.045   8.403   6.029
 8598SOL     OW37012   9.398   4.175   6.087
 8598SOL    HW137013   9.321   4.231   6.118
 8598SOL    HW237014   9.364   4.088   6.051
 8599SOL     OW37015   1.365   1.496   1.315
 8599SOL    HW137016   1.399   1.553   1.241
 8599SOL    HW237017   1.395   1.533   1.403
 8600SOL     OW37018   9.771   8.878   1.318
 8600SOL    HW137019   9.820   8.841   1.239
 8600SOL    HW237020   9.680   8.908   1.290
 8601SOL     OW37021   6.115   7.918   6.318
 8601SOL    HW137022   6.204   7.921   6.272
 8601SOL    HW237023   6.091   8.009   6.351
 8602SOL     OW37024   7.627   0.381   1.041
 8602SOL    HW137025   7.605   0.477   1.057
 8602SOL    HW237026   7.625   0.331   1.128
 8603SOL     OW37027   8.370   3.648   3.713
 8603SOL    HW137028   8.344   3.639   3.809
 8603SOL    HW237029   8.314   3.718   3.669
 8604SOL     OW37030   4.411   9.181   5.353
 8604SOL    HW137031   4.411   9.281   5.347
 8604SOL    HW237032   4.348   9.152   5.425
 8605SOL     OW37033   9.705   3.828   1.247
 8605SOL    HW137034   9.628   3.766   1.231
 8605SOL    HW237035   9.734   3.819   1.343
 8606SOL     OW37036   4.169   9.797   0.712
 8606SOL    HW137037   4.154   9.699   0.700
 8606SOL    HW237038   4.100   9.835   0.773
 8607SOL     OW37039   4.059   9.974   3.657
 8607SOL    HW137040   3.981   9.923   3.621
 8607SOL    HW237041   4.056   0.068   3.623
 8608SOL     OW37042   8.373   1.656   5.600
 8608SOL    HW137043   8.462   1.701   5.597
 8608SOL    HW237044   8.353   1.615   5.511
 8609SOL     OW37045   4.968   9.186   3.452
 8609SOL    HW137046   4.932   9.269   3.408
 8609SOL    HW237047   5.058   9.165   3.415
 8610SOL     OW37048   5.445   0.056   3.054
 8610SOL    HW137049   5.508   9.979   3.059
 8610SOL    HW237050   5.475   0.128   3.117
 8611SOL     OW37051   3.183   8.312   5.334
 8611SOL    HW137052   3.268   8.286   5.289
 8611SOL    HW237053   3.193   8.302   5.433
 8612SOL     OW37054   0.286   8.966   4.775
 8612SOL    HW137055   0.247   8.939   4.687
 8612SOL    HW237056   0.213   8.995   4.837
 8613SOL     OW37057   3.655   0.462   4.446
 8613SOL    HW137058   3.750   0.441   4.428
 8613SOL    HW237059   3.649   0.526   4.523
 8614SOL     OW37060   6.838   2.888   4.400
 8614SOL    HW137061   6.768   2.897   4.471
 8614SOL    HW237062   6.796   2.848   4.318
 8615SOL     OW37063   2.040   4.824   3.654
 8615SOL    HW137064   1.980   4.897   3.621
 8615SOL    HW237065   1.985   4.744   3.677
 8616SOL     OW37066   7.378   4.103   2.428
 8616SOL    HW137067   7.404   4.197   2.409
 8616SOL    HW237068   7.379   4.050   2.344
 8617SOL     OW37069   2.229   7.816   3.226
 8617SOL    HW137070   2.324   7.841   3.244
 8617SOL    HW237071   2.200   7.746   3.291
 8618SOL     OW37072   8.904   0.223   2.010
 8618SOL    HW137073   8.909   0.149   2.078
 8618SOL    HW237074   8.886   0.310   2.056
 8619SOL     OW37075   7.238   0.512   1.074
 8619SOL    HW137076   7.247   0.591   1.135
 8619SOL    HW237077   7.284   0.531   0.987
 8620SOL     OW37078   7.901   3.142   1.245
 8620SOL    HW137079   7.930   3.227   1.200
 8620SOL    HW237080   7.982   3.089   1.271
 8621SOL     OW37081   4.316   3.429   5.929
 8621SOL    HW137082   4.406   3.405   5.893
 8621SOL    HW237083   4.286   3.514   5.888
 8622SOL     OW37084   7.797   0.134   3.394
 8622SOL    HW137085   7.891   0.162   3.374
 8622SOL    HW237086   7.765   0.180   3.477
 8623SOL     OW37087   5.010   6.562   0.907
 8623SOL    HW137088   4.963   6.609   0.832
 8623SOL    HW237089   5.069   6.491   0.870
 8624SOL     OW37090   9.174   2.598   4.191
 8624SOL    HW137091   9.162   2.534   4.267
 8624SOL    HW237092   9.085   2.635   4.164
 8625SOL     OW37093   2.356   1.725   1.460
 8625SOL    HW137094   2.426   1.792   1.484
 8625SOL    HW237095   2.352   1.655   1.531
 8626SOL     OW37096   1.758   1.722   1.864
 8626SOL    HW137097   1.779   1.752   1.770
 8626SOL    HW237098   1.738   1.802   1.920
 8627SOL     OW37099   9.419   8.437   5.474
 8627SOL    HW137100   9.425   8.338   5.457
 8627SOL    HW237101   9.366   8.480   5.402
 8628SOL     OW37102   4.985   0.723   1.627
 8628SOL    HW137103   5.042   0.798   1.661
 8628SOL    HW237104   5.037   0.638   1.629
 8629SOL     OW37105   7.997   4.042   2.382
 8629SOL    HW137106   7.983   3.978   2.457
 8629SOL    HW237107   8.069   4.107   2.406
 8630SOL     OW37108   8.441   5.968   5.399
 8630SOL    HW137109   8.365   5.904   5.404
 8630SOL    HW237110   8.520   5.930   5.447
 8631SOL     OW37111   9.506   1.976   0.560
 8631SOL    HW137112   9.566   2.035   0.507
 8631SOL    HW237113   9.483   1.895   0.506
 8632SOL     OW37114   3.606   8.344   1.335
 8632SOL    HW137115   3.650   8.420   1.383
 8632SOL    HW237116   3.661   8.318   1.255
 8633SOL     OW37117   7.508   4.828   3.316
 8633SOL    HW137118   7.485   4.781   3.230
 8633SOL    HW237119   7.597   4.872   3.307
 8634SOL     OW37120   0.893   1.517   5.813
 8634SOL    HW137121   0.846   1.595   5.854
 8634SOL    HW237122   0.834   1.436   5.818
 8635SOL     OW37123   8.851   9.701   2.948
 8635SOL    HW137124   8.847   9.798   2.923
 8635SOL    HW237125   8.916   9.689   3.023
 8636SOL     OW37126   0.009   8.818   5.932
 8636SOL    HW137127   9.929   8.759   5.930
 8636SOL    HW237128   0.062   8.800   6.015
 8637SOL     OW37129   7.745   3.540   3.993
 8637SOL    HW137130   7.795   3.557   3.908
 8637SOL    HW237131   7.761   3.614   4.057
 8638SOL     OW37132   0.009   2.695   5.374
 8638SOL    HW137133   0.034   2.720   5.468
 8638SOL    HW237134   9.911   2.681   5.369
 8639SOL     OW37135   1.230   3.439   1.760
 8639SOL    HW137136   1.149   3.493   1.783
 8639SOL    HW237137   1.295   3.442   1.837
 8640SOL     OW37138   7.570   0.448   5.012
 8640SOL    HW137139   7.507   0.374   5.035
 8640SOL    HW237140   7.619   0.478   5.094
 8641SOL     OW37141   6.984   2.694   1.283
 8641SOL    HW137142   6.923   2.766   1.316
 8641SOL    HW237143   6.929   2.619   1.245
 8642SOL     OW37144   4.563   8.103   1.762
 8642SOL    HW137145   4.546   8.063   1.673
 8642SOL    HW237146   4.661   8.121   1.772
 8643SOL     OW37147   8.226   9.095   2.207
 8643SOL    HW137148   8.200   9.173   2.264
 8643SOL    HW237149   8.207   9.116   2.111
 8644SOL     OW37150   4.320   8.641   6.275
 8644SOL    HW137151   4.228   8.619   6.242
 8644SOL    HW237152   4.316   8.721   6.334
 8645SOL     OW37153   9.653   0.125   2.748
 8645SOL    HW137154   9.647   0.221   2.775
 8645SOL    HW237155   9.742   0.088   2.776
 8646SOL     OW37156   0.215   2.600   3.795
 8646SOL    HW137157   0.179   2.691   3.815
 8646SOL    HW237158   0.200   2.580   3.698
 8647SOL     OW37159   2.831   3.813   0.664
 8647SOL    HW137160   2.881   3.771   0.739
 8647SOL    HW237161   2.884   3.807   0.580
 8648SOL     OW37162   2.190   2.829   4.251
 8648SOL    HW137163   2.288   2.824   4.268
 8648SOL    HW237164   2.162   2.750   4.196
 8649SOL     OW37165   4.004   6.827   0.548
 8649SOL    HW137166   3.918   6.808   0.595
 8649SOL    HW237167   3.987   6.847   0.452
 8650SOL     OW37168   3.802   8.338   5.216
 8650SOL    HW137169   3.744   8.289   5.281
 8650SOL    HW237170   3.761   8.334   5.125
 8651SOL     OW37171   5.220   1.078   3.237
 8651SOL    HW137172   5.148   1.094   3.305
 8651SOL    HW237173   5.180   1.036   3.155
 8652SOL     OW37174   0.952   1.652   0.395
 8652SOL    HW137175   1.007   1.636   0.477
 8652SOL    HW237176   0.861   1.611   0.408
 8653SOL     OW37177   4.854   8.236   2.292
 8653SOL    HW137178   4.912   8.291   2.352
 8653SOL    HW237179   4.901   8.218   2.206
 8654SOL     OW37180   1.092   6.891   0.561
 8654SOL    HW137181   1.142   6.918   0.478
 8654SOL    HW237182   1.151   6.904   0.641
 8655SOL     OW37183   1.002   3.208   1.863
 8655SOL    HW137184   1.029   3.260   1.944
 8655SOL    HW237185   0.972   3.271   1.791
 8656SOL     OW37186   7.927   9.487   5.921
 8656SOL    HW137187   7.870   9.567   5.940
 8656SOL    HW237188   8.016   9.518   5.887
 8657SOL     OW37189   8.021   4.188   0.295
 8657SOL    HW137190   8.090   4.124   0.259
 8657SOL    HW237191   8.066   4.272   0.324
 8658SOL     OW37192   2.946   4.267   6.214
 8658SOL    HW137193   2.892   4.317   6.145
 8658SOL    HW237194   3.043   4.288   6.202
 8659SOL     OW37195   2.532   7.363   2.902
 8659SOL    HW137196   2.555   7.456   2.931
 8659SOL    HW237197   2.613   7.318   2.865
 8660SOL     OW37198   0.087   2.148   4.650
 8660SOL    HW137199   0.061   2.057   4.618
 8660SOL    HW237200   0.010   2.189   4.700
 8661SOL     OW37201   6.091   0.066   4.798
 8661SOL    HW137202   6.142   9.989   4.837
 8661SOL    HW237203   6.014   0.088   4.857
 8662SOL     OW37204   2.390   7.234   5.234
 8662SOL    HW137205   2.442   7.289   5.169
 8662SOL    HW237206   2.321   7.291   5.279
 8663SOL     OW37207   4.666   0.513   2.811
 8663SOL    HW137208   4.761   0.483   2.805
 8663SOL    HW237209   4.656   0.604   2.771
 8664SOL     OW37210   9.024   0.300   3.813
 8664SOL    HW137211   9.041   0.394   3.783
 8664SOL    HW237212   8.956   0.300   3.886
 8665SOL     OW37213   2.742   0.359   3.681
 8665SOL    HW137214   2.729   0.296   3.604
 8665SOL    HW237215   2.838   0.356   3.710
 8666SOL     OW37216   7.176   3.388   2.245
 8666SOL    HW137217   7.144   3.480   2.223
 8666SOL    HW237218   7.098   3.326   2.249
 8667SOL     OW37219   0.430   5.443   2.856
 8667SOL    HW137220   0.432   5.387   2.774
 8667SOL    HW237221   0.336   5.446   2.892
 8668SOL     OW37222   1.323   5.498   3.243
 8668SOL    HW137223   1.394   5.563   3.268
 8668SOL    HW237224   1.332   5.473   3.146
 8669SOL     OW37225   8.567   3.196   5.980
 8669SOL    HW137226   8.665   3.210   5.992
 8669SOL    HW237227   8.531   3.144   6.058
 8670SOL     OW37228   8.921   8.032   4.263
 8670SOL    HW137229   8.970   7.945   4.256
 8670SOL    HW237230   8.964   8.090   4.332
 8671SOL     OW37231   0.412   6.496   3.642
 8671SOL    HW137232   0.499   6.447   3.655
 8671SOL    HW237233   0.431   6.589   3.611
 8672SOL     OW37234   0.975   6.241   0.659
 8672SOL    HW137235   0.936   6.150   0.674
 8672SOL    HW237236   1.009   6.277   0.746
 8673SOL     OW37237   4.050   1.461   4.430
 8673SOL    HW137238   4.076   1.376   4.476
 8673SOL    HW237239   3.968   1.498   4.472
 8674SOL     OW37240   4.335   2.876   0.514
 8674SOL    HW137241   4.356   2.957   0.569
 8674SOL    HW237242   4.410   2.810   0.523
 8675SOL     OW37243   7.997   7.201   3.385
 8675SOL    HW137244   7.965   7.188   3.479
 8675SOL    HW237245   7.918   7.198   3.323
 8676SOL     OW37246   2.601   8.992   3.384
 8676SOL    HW137247   2.601   8.959   3.478
 8676SOL    HW237248   2.690   8.973   3.341
 8677SOL     OW37249   3.412   5.970   5.537
 8677SOL    HW137250   3.425   5.878   5.574
 8677SOL    HW237251   3.328   6.009   5.575
 8678SOL     OW37252   4.452   3.514   1.341
 8678SOL    HW137253   4.406   3.524   1.429
 8678SOL    HW237254   4.542   3.558   1.345
 8679SOL     OW37255   7.255   0.196   4.765
 8679SOL    HW137256   7.189   0.263   4.799
 8679SOL    HW237257   7.305   0.234   4.688
 8680SOL     OW37258   4.307   8.982   1.882
 8680SOL    HW137259   4.214   9.015   1.870
 8680SOL    HW237260   4.340   8.941   1.797
 8681SOL     OW37261   3.307   0.337   3.072
 8681SOL    HW137262   3.278   0.315   3.165
 8681SOL    HW237263   3.280   0.431   3.051
 8682SOL     OW37264   3.772   7.422   5.752
 8682SOL    HW137265   3.866   7.454   5.735
 8682SOL    HW237266   3.707   7.491   5.719
 8683SOL     OW37267   4.236   2.877   5.005
 8683SOL    HW137268   4.172   2.821   4.953
 8683SOL    HW237269   4.190   2.959   5.038
 8684SOL     OW37270   0.813   8.996   5.006
 8684SOL    HW137271   0.869   8.916   4.988
 8684SOL    HW237272   0.717   8.969   5.017
 8685SOL     OW37273   1.770   7.561   0.502
 8685SOL    HW137274   1.722   7.649   0.506
 8685SOL    HW237275   1.704   7.487   0.517
 8686SOL     OW37276   9.541   2.911   0.750
 8686SOL    HW137277   9.635   2.878   0.735
 8686SOL    HW237278   9.477   2.839   0.725
 8687SOL     OW37279   3.237   9.513   2.189
 8687SOL    HW137280   3.179   9.552   2.261
 8687SOL    HW237281   3.300   9.583   2.156
 8688SOL     OW37282   6.815   1.063   0.166
 8688SOL    HW137283   6.784   0.972   0.140
 8688SOL    HW237284   6.736   1.118   0.195
 8689SOL     OW37285   4.851   0.033   4.249
 8689SOL    HW137286   4.792   0.073   4.319
 8689SOL    HW237287   4.931   9.991   4.292
 8690SOL     OW37288   4.366   1.656   2.015
 8690SOL    HW137289   4.311   1.653   2.098
 8690SOL    HW237290   4.345   1.576   1.958
 8691SOL     OW37291   0.741   5.801   0.173
 8691SOL    HW137292   0.729   5.892   0.212
 8691SOL    HW237293   0.651   5.757   0.165
 8692SOL     OW37294   6.314   9.735   4.410
 8692SOL    HW137295   6.372   9.654   4.414
 8692SOL    HW237296   6.314   9.772   4.317
 8693SOL     OW37297   2.526   0.271   5.556
 8693SOL    HW137298   2.579   0.305   5.634
 8693SOL    HW237299   2.432   0.303   5.563
 8694SOL     OW37300   2.135   4.789   2.355
 8694SOL    HW137301   2.116   4.885   2.373
 8694SOL    HW237302   2.052   4.735   2.371
 8695SOL     OW37303   6.460   4.280   0.432
 8695SOL    HW137304   6.360   4.283   0.432
 8695SOL    HW237305   6.494   4.348   0.498
 8696SOL     OW37306   9.161   9.336   4.236
 8696SOL    HW137307   9.147   9.302   4.143
 8696SOL    HW237308   9.145   9.261   4.301
 8697SOL     OW37309   4.315   0.444   5.914
 8697SOL    HW137310   4.345   0.375   5.980
 8697SOL    HW237311   4.355   0.424   5.825
 8698SOL     OW37312   4.414   3.006   6.123
 8698SOL    HW137313   4.385   2.944   6.050
 8698SOL    HW237314   4.489   3.064   6.091
 8699SOL     OW37315   2.173   2.493   3.209
 8699SOL    HW137316   2.114   2.424   3.251
 8699SOL    HW237317   2.224   2.452   3.134
 8700SOL     OW37318   0.811   5.807   0.948
 8700SOL    HW137319   0.897   5.775   0.985
 8700SOL    HW237320   0.756   5.848   1.021
 8701SOL     OW37321   8.442   9.822   5.300
 8701SOL    HW137322   8.481   9.742   5.254
 8701SOL    HW237323   8.345   9.805   5.319
 8702SOL     OW37324   0.561   1.997   3.140
 8702SOL    HW137325   0.639   1.972   3.198
 8702SOL    HW237326   0.500   1.918   3.132
 8703SOL     OW37327   0.350   1.521   3.898
 8703SOL    HW137328   0.316   1.454   3.833
 8703SOL    HW237329   0.402   1.591   3.849
 8704SOL     OW37330   5.078   9.562   5.087
 8704SOL    HW137331   5.018   9.483   5.102
 8704SOL    HW237332   5.026   9.646   5.098
 8705SOL     OW37333   1.964   5.912   0.350
 8705SOL    HW137334   1.905   5.953   0.420
 8705SOL    HW237335   1.913   5.904   0.264
 8706SOL     OW37336   1.977   1.618   6.302
 8706SOL    HW137337   1.881   1.589   6.301
 8706SOL    HW237338   2.021   1.583   6.384
 8707SOL     OW37339   0.842   0.883   3.075
 8707SOL    HW137340   0.765   0.901   3.013
 8707SOL    HW237341   0.928   0.896   3.026
 8708SOL     OW37342   1.180   9.399   3.717
 8708SOL    HW137343   1.096   9.418   3.767
 8708SOL    HW237344   1.183   9.303   3.691
 8709SOL     OW37345   0.703   7.840   5.008
 8709SOL    HW137346   0.764   7.896   4.951
 8709SOL    HW237347   0.756   7.774   5.059
 8710SOL     OW37348   1.193   1.721   5.495
 8710SOL    HW137349   1.152   1.639   5.535
 8710SOL    HW237350   1.234   1.698   5.407
 8711SOL     OW37351   1.274   8.585   5.664
 8711SOL    HW137352   1.288   8.565   5.567
 8711SOL    HW237353   1.186   8.547   5.693
 8712SOL     OW37354   7.686   8.700   4.535
 8712SOL    HW137355   7.587   8.708   4.523
 8712SOL    HW237356   7.714   8.605   4.523
 8713SOL     OW37357   4.621   1.915   2.716
 8713SOL    HW137358   4.663   1.824   2.719
 8713SOL    HW237359   4.612   1.950   2.809
 8714SOL     OW37360   1.865   9.750   1.102
 8714SOL    HW137361   1.950   9.797   1.125
 8714SOL    HW237362   1.787   9.800   1.142
 8715SOL     OW37363   0.042   3.770   5.876
 8715SOL    HW137364   9.958   3.813   5.910
 8715SOL    HW237365   0.114   3.839   5.870
 8716SOL     OW37366   0.236   1.812   2.838
 8716SOL    HW137367   0.334   1.794   2.832
 8716SOL    HW237368   0.190   1.773   2.759
 8717SOL     OW37369   5.787   0.327   3.762
 8717SOL    HW137370   5.845   0.294   3.837
 8717SOL    HW237371   5.767   0.424   3.777
 8718SOL     OW37372   3.277   7.748   2.588
 8718SOL    HW137373   3.220   7.829   2.602
 8718SOL    HW237374   3.311   7.747   2.495
 8719SOL     OW37375   2.772   6.624   0.118
 8719SOL    HW137376   2.716   6.615   0.035
 8719SOL    HW237377   2.750   6.550   0.181
 8720SOL     OW37378   2.456   9.143   2.116
 8720SOL    HW137379   2.515   9.066   2.139
 8720SOL    HW237380   2.484   9.181   2.028
 8721SOL     OW37381   9.560   8.577   3.517
 8721SOL    HW137382   9.654   8.555   3.543
 8721SOL    HW237383   9.554   8.673   3.490
 8722SOL     OW37384   7.423   2.369   3.115
 8722SOL    HW137385   7.459   2.282   3.147
 8722SOL    HW237386   7.328   2.356   3.084
 8723SOL     OW37387   9.039   8.890   0.848
 8723SOL    HW137388   9.113   8.834   0.810
 8723SOL    HW237389   8.961   8.831   0.871
 8724SOL     OW37390   2.803   0.995   3.518
 8724SOL    HW137391   2.845   0.996   3.609
 8724SOL    HW237392   2.730   1.064   3.514
 8725SOL     OW37393   3.942   1.254   0.272
 8725SOL    HW137394   3.993   1.167   0.272
 8725SOL    HW237395   3.994   1.323   0.223
 8726SOL     OW37396   8.816   2.645   0.737
 8726SOL    HW137397   8.794   2.567   0.796
 8726SOL    HW237398   8.792   2.623   0.643
 8727SOL     OW37399   4.313   9.573   3.622
 8727SOL    HW137400   4.374   9.510   3.574
 8727SOL    HW237401   4.232   9.524   3.653
 8728SOL     OW37402   0.750   7.954   1.749
 8728SOL    HW137403   0.731   8.038   1.698
 8728SOL    HW237404   0.781   7.883   1.687
 8729SOL     OW37405   1.271   6.294   4.480
 8729SOL    HW137406   1.177   6.299   4.514
 8729SOL    HW237407   1.334   6.283   4.557
 8730SOL     OW37408   4.683   1.725   0.785
 8730SOL    HW137409   4.779   1.752   0.797
 8730SOL    HW237410   4.626   1.807   0.777
 8731SOL     OW37411   2.823   8.814   6.047
 8731SOL    HW137412   2.765   8.861   5.980
 8731SOL    HW237413   2.780   8.819   6.137
 8732SOL     OW37414   8.272   2.925   0.722
 8732SOL    HW137415   8.174   2.944   0.717
 8732SOL    HW237416   8.322   2.986   0.660
 8733SOL     OW37417   0.781   1.979   5.136
 8733SOL    HW137418   0.689   2.014   5.117
 8733SOL    HW237419   0.799   1.985   5.234
 8734SOL     OW37420   6.269   8.315   4.399
 8734SOL    HW137421   6.358   8.348   4.430
 8734SOL    HW237422   6.220   8.272   4.475
 8735SOL     OW37423   1.222   6.559   0.426
 8735SOL    HW137424   1.139   6.580   0.374
 8735SOL    HW237425   1.302   6.587   0.373
 8736SOL     OW37426   5.494   9.001   5.299
 8736SOL    HW137427   5.531   9.001   5.206
 8736SOL    HW237428   5.496   8.908   5.336
 8737SOL     OW37429   0.524   4.304   3.420
 8737SOL    HW137430   0.450   4.269   3.363
 8737SOL    HW237431   0.603   4.242   3.413
 8738SOL     OW37432   4.040   3.149   1.395
 8738SOL    HW137433   4.140   3.155   1.392
 8738SOL    HW237434   4.002   3.239   1.414
 8739SOL     OW37435   6.588   1.184   0.258
 8739SOL    HW137436   6.528   1.104   0.255
 8739SOL    HW237437   6.578   1.231   0.346
 8740SOL     OW37438   6.792   2.289   4.945
 8740SOL    HW137439   6.858   2.325   4.879
 8740SOL    HW237440   6.757   2.202   4.912
 8741SOL     OW37441   8.864   0.672   3.873
 8741SOL    HW137442   8.822   0.592   3.915
 8741SOL    HW237443   8.942   0.643   3.818
 8742SOL     OW37444   8.873   8.608   1.780
 8742SOL    HW137445   8.959   8.652   1.804
 8742SOL    HW237446   8.797   8.669   1.801
 8743SOL     OW37447   1.241   0.506   3.968
 8743SOL    HW137448   1.218   0.588   3.916
 8743SOL    HW237449   1.337   0.509   3.995
 8744SOL     OW37450   0.960   8.776   4.952
 8744SOL    HW137451   0.915   8.686   4.949
 8744SOL    HW237452   1.013   8.789   4.869
 8745SOL     OW37453   6.423   2.512   5.299
 8745SOL    HW137454   6.518   2.536   5.317
 8745SOL    HW237455   6.404   2.421   5.337
 8746SOL     OW37456   1.252   9.345   4.653
 8746SOL    HW137457   1.328   9.396   4.614
 8746SOL    HW237458   1.238   9.373   4.748
 8747SOL     OW37459   8.624   6.370   0.617
 8747SOL    HW137460   8.681   6.302   0.663
 8747SOL    HW237461   8.651   6.462   0.647
 8748SOL     OW37462   9.951   5.419   2.186
 8748SOL    HW137463   9.947   5.371   2.274
 8748SOL    HW237464   9.891   5.374   2.120
 8749SOL     OW37465   0.526   7.748   4.821
 8749SOL    HW137466   0.471   7.827   4.792
 8749SOL    HW237467   0.595   7.779   4.887
 8750SOL     OW37468   8.439   8.808   3.251
 8750SOL    HW137469   8.483   8.892   3.281
 8750SOL    HW237470   8.402   8.821   3.159
 8751SOL     OW37471   9.177   1.065   5.552
 8751SOL    HW137472   9.108   0.994   5.535
 8751SOL    HW237473   9.135   1.155   5.542
 8752SOL     OW37474   7.246   5.605   1.195
 8752SOL    HW137475   7.311   5.665   1.149
 8752SOL    HW237476   7.165   5.658   1.222
 8753SOL     OW37477   2.343   0.247   2.902
 8753SOL    HW137478   2.425   0.197   2.932
 8753SOL    HW237479   2.362   0.293   2.815
 8754SOL     OW37480   3.930   0.793   2.307
 8754SOL    HW137481   3.894   0.829   2.221
 8754SOL    HW237482   4.028   0.775   2.297
 8755SOL     OW37483   5.177   5.004   0.694
 8755SOL    HW137484   5.275   4.997   0.676
 8755SOL    HW237485   5.132   4.918   0.668
 8756SOL     OW37486   4.316   6.419   3.066
 8756SOL    HW137487   4.346   6.436   2.972
 8756SOL    HW237488   4.298   6.506   3.112
 8757SOL     OW37489   8.548   2.628   2.025
 8757SOL    HW137490   8.644   2.636   1.997
 8757SOL    HW237491   8.489   2.660   1.951
 8758SOL     OW37492   7.179   4.564   0.119
 8758SOL    HW137493   7.153   4.476   0.080
 8758SOL    HW237494   7.101   4.605   0.166
 8759SOL     OW37495   1.510   3.538   4.316
 8759SOL    HW137496   1.429   3.486   4.342
 8759SOL    HW237497   1.483   3.630   4.286
 8760SOL     OW37498   7.143   0.691   4.404
 8760SOL    HW137499   7.156   0.789   4.419
 8760SOL    HW237500   7.096   0.651   4.483
 8761SOL     OW37501   3.017   1.727   3.609
 8761SOL    HW137502   2.951   1.798   3.632
 8761SOL    HW237503   2.968   1.645   3.576
 8762SOL     OW37504   4.795   3.732   0.358
 8762SOL    HW137505   4.809   3.813   0.302
 8762SOL    HW237506   4.781   3.652   0.299
 8763SOL     OW37507   8.873   7.571   4.283
 8763SOL    HW137508   8.868   7.505   4.358
 8763SOL    HW237509   8.843   7.528   4.198
 8764SOL     OW37510   3.443   0.610   2.576
 8764SOL    HW137511   3.440   0.526   2.522
 8764SOL    HW237512   3.465   0.687   2.516
 8765SOL     OW37513   4.302   2.179   4.947
 8765SOL    HW137514   4.303   2.235   5.030
 8765SOL    HW237515   4.214   2.132   4.940
 8766SOL     OW37516   1.053   8.078   0.107
 8766SOL    HW137517   1.023   7.994   0.061
 8766SOL    HW237518   1.007   8.085   0.196
 8767SOL     OW37519   2.683   2.920   3.256
 8767SOL    HW137520   2.650   2.828   3.233
 8767SOL    HW237521   2.782   2.917   3.269
 8768SOL     OW37522   0.664   6.048   3.689
 8768SOL    HW137523   0.697   5.984   3.759
 8768SOL    HW237524   0.714   6.031   3.604
 8769SOL     OW37525   3.335   3.503   1.888
 8769SOL    HW137526   3.279   3.500   1.971
 8769SOL    HW237527   3.425   3.464   1.909
 8770SOL     OW37528   4.332   9.422   1.337
 8770SOL    HW137529   4.340   9.360   1.259
 8770SOL    HW237530   4.256   9.393   1.395
 8771SOL     OW37531   2.338   8.522   3.025
 8771SOL    HW137532   2.363   8.618   3.035
 8771SOL    HW237533   2.422   8.467   3.017
 8772SOL     OW37534   7.282   3.187   1.648
 8772SOL    HW137535   7.294   3.285   1.658
 8772SOL    HW237536   7.265   3.165   1.552
 8773SOL     OW37537   1.051   1.542   4.923
 8773SOL    HW137538   1.077   1.624   4.974
 8773SOL    HW237539   0.954   1.522   4.939
 8774SOL     OW37540   2.180   4.035   0.947
 8774SOL    HW137541   2.220   3.981   0.873
 8774SOL    HW237542   2.208   3.997   1.035
 8775SOL     OW37543   5.011   9.917   3.809
 8775SOL    HW137544   4.963   9.916   3.721
 8775SOL    HW237545   4.992   9.832   3.858
 8776SOL     OW37546   7.304   3.511   1.949
 8776SOL    HW137547   7.361   3.465   2.018
 8776SOL    HW237548   7.301   3.609   1.968
 8777SOL     OW37549   8.432   9.442   3.103
 8777SOL    HW137550   8.492   9.487   3.037
 8777SOL    HW237551   8.341   9.482   3.098
 8778SOL     OW37552   3.748   0.581   2.246
 8778SOL    HW137553   3.738   0.524   2.327
 8778SOL    HW237554   3.818   0.650   2.261
 8779SOL     OW37555   2.712   3.658   6.172
 8779SOL    HW137556   2.714   3.719   6.092
 8779SOL    HW237557   2.726   3.711   6.255
 8780SOL     OW37558   8.373   9.289   0.658
 8780SOL    HW137559   8.442   9.302   0.586
 8780SOL    HW237560   8.292   9.344   0.637
 8781SOL     OW37561   3.254   5.229   3.716
 8781SOL    HW137562   3.252   5.328   3.731
 8781SOL    HW237563   3.342   5.193   3.749
 8782SOL     OW37564   6.619   0.067   6.056
 8782SOL    HW137565   6.674   0.129   6.110
 8782SOL    HW237566   6.669   0.041   5.973
 8783SOL     OW37567   0.557   4.512   2.407
 8783SOL    HW137568   0.616   4.590   2.430
 8783SOL    HW237569   0.492   4.496   2.481
 8784SOL     OW37570   2.078   5.051   1.635
 8784SOL    HW137571   1.991   5.051   1.585
 8784SOL    HW237572   2.149   5.090   1.577
 8785SOL     OW37573   5.655   0.774   3.585
 8785SOL    HW137574   5.618   0.701   3.527
 8785SOL    HW237575   5.654   0.860   3.534
 8786SOL     OW37576   3.238   0.096   1.937
 8786SOL    HW137577   3.313   0.115   1.875
 8786SOL    HW237578   3.200   0.005   1.917
 8787SOL     OW37579   8.684   1.319   0.446
 8787SOL    HW137580   8.642   1.236   0.484
 8787SOL    HW237581   8.648   1.399   0.493
 8788SOL     OW37582   1.937   1.361   6.084
 8788SOL    HW137583   2.036   1.369   6.070
 8788SOL    HW237584   1.894   1.449   6.063
 8789SOL     OW37585   4.889   0.171   4.948
 8789SOL    HW137586   4.807   0.155   5.004
 8789SOL    HW237587   4.867   0.155   4.852
 8790SOL     OW37588   3.284   8.505   4.941
 8790SOL    HW137589   3.267   8.419   4.892
 8790SOL    HW237590   3.268   8.582   4.878
 8791SOL     OW37591   8.833   6.005   1.105
 8791SOL    HW137592   8.840   6.096   1.065
 8791SOL    HW237593   8.819   5.937   1.033
 8792SOL     OW37594   1.058   2.661   4.868
 8792SOL    HW137595   1.117   2.710   4.932
 8792SOL    HW237596   0.968   2.647   4.910
 8793SOL     OW37597   6.814   2.461   4.510
 8793SOL    HW137598   6.798   2.399   4.433
 8793SOL    HW237599   6.874   2.535   4.481
 8794SOL     OW37600   2.846   2.001   5.895
 8794SOL    HW137601   2.939   1.974   5.920
 8794SOL    HW237602   2.790   2.008   5.978
 8795SOL     OW37603   6.493   2.309   3.651
 8795SOL    HW137604   6.495   2.212   3.625
 8795SOL    HW237605   6.571   2.356   3.610
 8796SOL     OW37606   1.653   7.675   5.919
 8796SOL    HW137607   1.698   7.593   5.885
 8796SOL    HW237608   1.594   7.651   5.996
 8797SOL     OW37609   1.069   8.351   0.069
 8797SOL    HW137610   1.045   8.381   8.165
 8797SOL    HW237611   1.058   8.251   0.075
 8798SOL     OW37612   7.639   0.963   5.584
 8798SOL    HW137613   7.721   1.017   5.565
 8798SOL    HW237614   7.563   1.025   5.606
 8799SOL     OW37615   5.765   8.258   2.566
 8799SOL    HW137616   5.852   8.227   2.527
 8799SOL    HW237617   5.690   8.235   2.504
 8800SOL     OW37618   3.963   0.654   1.872
 8800SOL    HW137619   3.920   0.572   1.908
 8800SOL    HW237620   3.960   0.652   1.772
 8801SOL     OW37621   4.456   6.208   0.463
 8801SOL    HW137622   4.510   6.292   0.466
 8801SOL    HW237623   4.378   6.221   0.402
 8802SOL     OW37624   7.542   4.081   0.873
 8802SOL    HW137625   7.475   4.089   0.947
 8802SOL    HW237626   7.613   4.016   0.899
 8803SOL     OW37627   9.138   3.269   2.209
 8803SOL    HW137628   9.155   3.303   2.301
 8803SOL    HW237629   9.207   3.201   2.185
 8804SOL     OW37630   0.924   0.207   6.189
 8804SOL    HW137631   0.889   0.282   6.246
 8804SOL    HW237632   1.014   0.179   6.224
 8805SOL     OW37633   7.419   3.165   6.018
 8805SOL    HW137634   7.370   3.181   5.933
 8805SOL    HW237635   7.354   3.143   6.091
 8806SOL     OW37636   1.696   2.493   1.381
 8806SOL    HW137637   1.766   2.423   1.394
 8806SOL    HW237638   1.621   2.456   1.327
 8807SOL     OW37639   7.284   3.998   5.559
 8807SOL    HW137640   7.302   3.923   5.495
 8807SOL    HW237641   7.322   4.083   5.523
 8808SOL     OW37642   8.809   3.743   3.733
 8808SOL    HW137643   8.864   3.686   3.794
 8808SOL    HW237644   8.868   3.808   3.685
 8809SOL     OW37645   9.661   3.861   5.306
 8809SOL    HW137646   9.719   3.856   5.387
 8809SOL    HW237647   9.693   3.935   5.246
 8810SOL     OW37648   9.577   8.554   4.210
 8810SOL    HW137649   9.668   8.593   4.194
 8810SOL    HW237650   9.511   8.627   4.226
 8811SOL     OW37651   7.795   7.640   4.485
 8811SOL    HW137652   7.715   7.581   4.474
 8811SOL    HW237653   7.811   7.657   4.582
 8812SOL     OW37654   7.097   1.756   4.337
 8812SOL    HW137655   7.087   1.692   4.413
 8812SOL    HW237656   7.106   1.849   4.373
 8813SOL     OW37657   2.389   7.088   3.542
 8813SOL    HW137658   2.290   7.098   3.559
 8813SOL    HW237659   2.437   7.166   3.584
 8814SOL     OW37660   2.841   0.877   2.654
 8814SOL    HW137661   2.941   0.878   2.643
 8814SOL    HW237662   2.819   0.889   2.751
 8815SOL     OW37663   9.157   3.386   1.956
 8815SOL    HW137664   9.227   3.456   1.956
 8815SOL    HW237665   9.156   3.339   2.044
 8816SOL     OW37666   3.922   5.852   2.157
 8816SOL    HW137667   3.946   5.948   2.143
 8816SOL    HW237668   3.901   5.837   2.254
 8817SOL     OW37669   2.533   8.806   5.157
 8817SOL    HW137670   2.617   8.834   5.204
 8817SOL    HW237671   2.512   8.872   5.085
 8818SOL     OW37672   7.278   8.684   6.338
 8818SOL    HW137673   7.292   8.585   6.341
 8818SOL    HW237674   7.349   8.730   6.392
 8819SOL     OW37675   4.830   2.926   4.629
 8819SOL    HW137676   4.818   3.019   4.594
 8819SOL    HW237677   4.927   2.910   4.648
 8820SOL     OW37678   6.468   9.392   5.640
 8820SOL    HW137679   6.428   9.435   5.720
 8820SOL    HW237680   6.477   9.459   5.566
 8821SOL     OW37681   8.898   1.178   0.139
 8821SOL    HW137682   8.995   1.186   0.161
 8821SOL    HW237683   8.854   1.267   0.148
 8822SOL     OW37684   1.502   9.309   4.948
 8822SOL    HW137685   1.579   9.365   4.919
 8822SOL    HW237686   1.416   9.354   4.925
 8823SOL     OW37687   8.338   3.391   5.093
 8823SOL    HW137688   8.310   3.428   5.182
 8823SOL    HW237689   8.261   3.343   5.050
 8824SOL     OW37690   2.365   0.361   6.253
 8824SOL    HW137691   2.299   0.408   6.312
 8824SOL    HW237692   2.390   0.421   6.177
 8825SOL     OW37693   2.940   1.893   2.773
 8825SOL    HW137694   2.996   1.944   2.837
 8825SOL    HW237695   2.988   1.809   2.746
 8826SOL     OW37696   9.973   8.351   4.221
 8826SOL    HW137697   9.931   8.307   4.142
 8826SOL    HW237698   0.043   8.416   4.191
 8827SOL     OW37699   7.156   1.651   2.155
 8827SOL    HW137700   7.250   1.659   2.189
 8827SOL    HW237701   7.092   1.672   2.229
 8828SOL     OW37702   0.995   9.864   2.646
 8828SOL    HW137703   0.923   9.842   2.712
 8828SOL    HW237704   1.040   9.780   2.616
 8829SOL     OW37705   4.824   4.684   0.723
 8829SOL    HW137706   4.814   4.586   0.741
 8829SOL    HW237707   4.758   4.711   0.653
 8830SOL     OW37708   0.082   4.627   6.087
 8830SOL    HW137709   0.128   4.538   6.084
 8830SOL    HW237710   9.984   4.614   6.100
 8831SOL     OW37711   1.236   6.619   3.240
 8831SOL    HW137712   1.241   6.690   3.169
 8831SOL    HW237713   1.328   6.589   3.264
 8832SOL     OW37714   0.468   4.853   1.648
 8832SOL    HW137715   0.486   4.921   1.577
 8832SOL    HW237716   0.370   4.854   1.670
 8833SOL     OW37717   4.411   0.256   6.082
 8833SOL    HW137718   4.491   0.287   6.133
 8833SOL    HW237719   4.350   0.206   6.143
 8834SOL     OW37720   5.046   7.594   2.012
 8834SOL    HW137721   4.969   7.647   1.975
 8834SOL    HW237722   5.083   7.536   1.940
 8835SOL     OW37723   4.723   7.381   4.489
 8835SOL    HW137724   4.625   7.378   4.510
 8835SOL    HW237725   4.743   7.317   4.415
 8836SOL     OW37726   8.214   3.547   4.548
 8836SOL    HW137727   8.224   3.642   4.578
 8836SOL    HW237728   8.186   3.490   4.626
 8837SOL     OW37729   3.674   5.438   2.918
 8837SOL    HW137730   3.730   5.356   2.925
 8837SOL    HW237731   3.577   5.412   2.917
 8838SOL     OW37732   9.199   9.478   3.064
 8838SOL    HW137733   9.289   9.518   3.082
 8838SOL    HW237734   9.207   9.379   3.056
 8839SOL     OW37735   0.420   3.757   4.106
 8839SOL    HW137736   0.322   3.765   4.091
 8839SOL    HW237737   0.463   3.846   4.098
 8840SOL     OW37738   8.461   2.162   0.290
 8840SOL    HW137739   8.463   2.062   0.293
 8840SOL    HW237740   8.436   2.198   0.380
 8841SOL     OW37741   2.564   7.018   5.157
 8841SOL    HW137742   2.507   7.087   5.202
 8841SOL    HW237743   2.646   7.061   5.121
 8842SOL     OW37744   4.134   2.898   1.008
 8842SOL    HW137745   4.120   2.901   0.909
 8842SOL    HW237746   4.101   2.982   1.049
 8843SOL     OW37747   0.161   7.816   4.134
 8843SOL    HW137748   0.231   7.748   4.155
 8843SOL    HW237749   0.205   7.902   4.107
 8844SOL     OW37750   3.092   7.116   3.979
 8844SOL    HW137751   3.101   7.059   4.060
 8844SOL    HW237752   3.175   7.171   3.968
 8845SOL     OW37753   1.715   3.422   1.144
 8845SOL    HW137754   1.617   3.441   1.131
 8845SOL    HW237755   1.741   3.343   1.088
 8846SOL     OW37756   8.297   9.714   1.833
 8846SOL    HW137757   8.333   9.625   1.803
 8846SOL    HW237758   8.351   9.747   1.911
 8847SOL     OW37759   9.590   9.729   6.330
 8847SOL    HW137760   9.497   9.755   6.353
 8847SOL    HW237761   9.588   9.653   6.265
 8848SOL     OW37762   4.790   9.767   5.365
 8848SOL    HW137763   4.783   9.826   5.446
 8848SOL    HW237764   4.831   9.679   5.391
 8849SOL     OW37765   0.874   4.519   3.312
 8849SOL    HW137766   0.844   4.600   3.363
 8849SOL    HW237767   0.944   4.546   3.246
 8850SOL     OW37768   9.715   0.372   4.083
 8850SOL    HW137769   9.779   0.312   4.034
 8850SOL    HW237770   9.713   0.346   4.180
 8851SOL     OW37771   3.527   6.756   4.233
 8851SOL    HW137772   3.516   6.665   4.195
 8851SOL    HW237773   3.495   6.757   4.328
 8852SOL     OW37774   1.421   9.550   3.742
 8852SOL    HW137775   1.469   9.530   3.828
 8852SOL    HW237776   1.336   9.497   3.739
 8853SOL     OW37777   3.835   7.898   2.320
 8853SOL    HW137778   3.881   7.960   2.384
 8853SOL    HW237779   3.791   7.824   2.371
 8854SOL     OW37780   9.122   4.441   5.763
 8854SOL    HW137781   9.204   4.425   5.708
 8854SOL    HW237782   9.046   4.464   5.703
 8855SOL     OW37783   6.040   2.630   5.193
 8855SOL    HW137784   5.994   2.547   5.224
 8855SOL    HW237785   6.003   2.657   5.104
 8856SOL     OW37786   0.311   2.529   2.965
 8856SOL    HW137787   0.384   2.461   2.956
 8856SOL    HW237788   0.240   2.493   3.026
 8857SOL     OW37789   7.870   0.923   4.529
 8857SOL    HW137790   7.869   0.827   4.557
 8857SOL    HW237791   7.792   0.971   4.569
 8858SOL     OW37792   0.724   9.105   0.672
 8858SOL    HW137793   0.723   9.015   0.715
 8858SOL    HW237794   0.816   9.144   0.677
 8859SOL     OW37795   7.011   8.621   4.057
 8859SOL    HW137796   6.985   8.600   3.963
 8859SOL    HW237797   7.068   8.548   4.093
 8860SOL     OW37798   9.183   3.399   3.213
 8860SOL    HW137799   9.123   3.443   3.280
 8860SOL    HW237800   9.136   3.322   3.170
 8861SOL     OW37801   9.854   2.922   4.279
 8861SOL    HW137802   9.800   2.845   4.245
 8861SOL    HW237803   9.801   3.006   4.271
 8862SOL     OW37804   1.513   3.715   5.458
 8862SOL    HW137805   1.551   3.750   5.543
 8862SOL    HW237806   1.552   3.625   5.438
 8863SOL     OW37807   1.054   8.270   1.649
 8863SOL    HW137808   1.003   8.312   1.574
 8863SOL    HW237809   1.083   8.178   1.623
 8864SOL     OW37810   2.152   2.755   2.196
 8864SOL    HW137811   2.181   2.851   2.190
 8864SOL    HW237812   2.076   2.739   2.133
 8865SOL     OW37813   0.382   9.281   2.002
 8865SOL    HW137814   0.320   9.203   2.010
 8865SOL    HW237815   0.476   9.248   1.991
 8866SOL     OW37816   8.477   8.315   6.246
 8866SOL    HW137817   8.539   8.393   6.255
 8866SOL    HW237818   8.521   8.244   6.191
 8867SOL     OW37819   9.911   8.332   4.947
 8867SOL    HW137820   9.950   8.258   4.893
 8867SOL    HW237821   9.923   8.312   5.044
 8868SOL     OW37822   0.337   3.594   3.660
 8868SOL    HW137823   0.345   3.495   3.647
 8868SOL    HW237824   0.377   3.640   3.581
 8869SOL     OW37825   9.249   6.205   0.580
 8869SOL    HW137826   9.296   6.292   0.593
 8869SOL    HW237827   9.243   6.185   0.483
 8870SOL     OW37828   9.863   6.108   5.812
 8870SOL    HW137829   9.919   6.189   5.796
 8870SOL    HW237830   9.919   6.036   5.852
 8871SOL     OW37831   0.610   5.281   4.090
 8871SOL    HW137832   0.566   5.252   4.005
 8871SOL    HW237833   0.704   5.246   4.093
 8872SOL     OW37834   3.630   0.578   2.780
 8872SOL    HW137835   3.565   0.586   2.704
 8872SOL    HW237836   3.584   0.598   2.866
 8873SOL     OW37837   3.108   0.253   2.120
 8873SOL    HW137838   3.090   0.344   2.081
 8873SOL    HW237839   3.162   0.199   2.055
 8874SOL     OW37840   9.159   8.228   1.457
 8874SOL    HW137841   9.091   8.246   1.386
 8874SOL    HW237842   9.121   8.166   1.526
 8875SOL     OW37843   0.581   0.698   4.050
 8875SOL    HW137844   0.646   0.677   4.123
 8875SOL    HW237845   0.488   0.680   4.083
 8876SOL     OW37846   4.684   3.589   5.827
 8876SOL    HW137847   4.772   3.636   5.840
 8876SOL    HW237848   4.612   3.657   5.815
 8877SOL     OW37849   5.876   0.952   6.024
 8877SOL    HW137850   5.842   1.041   5.992
 8877SOL    HW237851   5.965   0.933   5.981
 8878SOL     OW37852   0.987   7.946   0.660
 8878SOL    HW137853   0.978   7.894   0.576
 8878SOL    HW237854   0.975   7.884   0.739
 8879SOL     OW37855   9.058   4.946   1.200
 8879SOL    HW137856   9.098   4.871   1.148
 8879SOL    HW237857   9.120   5.025   1.200
 8880SOL     OW37858   7.839   2.507   1.024
 8880SOL    HW137859   7.872   2.566   0.950
 8880SOL    HW237860   7.895   2.424   1.027
 8881SOL     OW37861   4.021   7.228   1.810
 8881SOL    HW137862   4.018   7.272   1.720
 8881SOL    HW237863   3.949   7.265   1.869
 8882SOL     OW37864   4.912   9.785   5.120
 8882SOL    HW137865   4.960   9.872   5.120
 8882SOL    HW237866   4.867   9.771   5.208
 8883SOL     OW37867   1.329   1.793   4.344
 8883SOL    HW137868   1.356   1.707   4.301
 8883SOL    HW237869   1.401   1.861   4.332
 8884SOL     OW37870   2.564   0.561   2.552
 8884SOL    HW137871   2.661   0.584   2.559
 8884SOL    HW237872   2.545   0.525   2.461
 8885SOL     OW37873   4.669   9.003   1.496
 8885SOL    HW137874   4.649   8.909   1.525
 8885SOL    HW237875   4.583   9.053   1.485
 8886SOL     OW37876   0.182   8.983   1.792
 8886SOL    HW137877   0.166   8.899   1.740
 8886SOL    HW237878   0.281   8.999   1.799
 8887SOL     OW37879   4.067   8.881   3.272
 8887SOL    HW137880   4.046   8.896   3.369
 8887SOL    HW237881   3.994   8.919   3.216
 8888SOL     OW37882   9.114   7.871   4.546
 8888SOL    HW137883   9.091   7.936   4.619
 8888SOL    HW237884   9.181   7.913   4.485
 8889SOL     OW37885   7.683   0.375   2.755
 8889SOL    HW137886   7.658   0.407   2.846
 8889SOL    HW237887   7.625   0.418   2.687
 8890SOL     OW37888   7.681   4.204   6.013
 8890SOL    HW137889   7.627   4.137   5.963
 8890SOL    HW237890   7.762   4.160   6.052
 8891SOL     OW37891   2.053   0.789   6.071
 8891SOL    HW137892   1.990   0.772   5.995
 8891SOL    HW237893   2.014   0.858   6.132
 8892SOL     OW37894   1.178   6.172   6.355
 8892SOL    HW137895   1.238   6.246   6.385
 8892SOL    HW237896   1.083   6.203   6.357
 8893SOL     OW37897   7.708   9.913   0.535
 8893SOL    HW137898   7.749   9.886   0.447
 8893SOL    HW237899   7.639   9.984   0.520
 8894SOL     OW37900   3.263   4.699   3.626
 8894SOL    HW137901   3.236   4.611   3.664
 8894SOL    HW237902   3.191   4.732   3.565
 8895SOL     OW37903   2.597   3.226   1.247
 8895SOL    HW137904   2.516   3.274   1.213
 8895SOL    HW237905   2.634   3.169   1.174
 8896SOL     OW37906   2.032   6.055   5.224
 8896SOL    HW137907   2.009   5.964   5.190
 8896SOL    HW237908   2.124   6.079   5.194
 8897SOL     OW37909   0.392   3.261   2.817
 8897SOL    HW137910   0.432   3.175   2.787
 8897SOL    HW237911   0.418   3.278   2.912
 8898SOL     OW37912   2.966   3.592   2.028
 8898SOL    HW137913   2.935   3.674   2.075
 8898SOL    HW237914   2.950   3.602   1.930
 8899SOL     OW37915   8.633   4.428   4.960
 8899SOL    HW137916   8.717   4.385   4.927
 8899SOL    HW237917   8.622   4.516   4.915
 8900SOL     OW37918   9.876   6.715   2.896
 8900SOL    HW137919   9.964   6.671   2.878
 8900SOL    HW237920   9.892   6.802   2.942
 8901SOL     OW37921   3.495   9.312   3.817
 8901SOL    HW137922   3.570   9.257   3.853
 8901SOL    HW237923   3.503   9.406   3.851
 8902SOL     OW37924   6.140   5.623   0.803
 8902SOL    HW137925   6.123   5.595   0.708
 8902SOL    HW237926   6.062   5.673   0.838
 8903SOL     OW37927   4.288   2.662   3.297
 8903SOL    HW137928   4.240   2.575   3.310
 8903SOL    HW237929   4.266   2.724   3.373
 8904SOL     OW37930   7.048   3.056   0.205
 8904SOL    HW137931   7.045   3.072   0.304
 8904SOL    HW237932   7.059   3.143   0.158
 8905SOL     OW37933   1.262   1.435   3.747
 8905SOL    HW137934   1.246   1.467   3.840
 8905SOL    HW237935   1.354   1.395   3.741
 8906SOL     OW37936   7.183   5.550   0.855
 8906SOL    HW137937   7.210   5.644   0.876
 8906SOL    HW237938   7.128   5.549   0.772
 8907SOL     OW37939   4.473   3.755   5.768
 8907SOL    HW137940   4.383   3.726   5.802
 8907SOL    HW237941   4.477   3.739   5.670
 8908SOL     OW37942   0.032   4.385   0.845
 8908SOL    HW137943   0.084   4.439   0.778
 8908SOL    HW237944   9.938   4.375   0.814
 8909SOL     OW37945   8.057   4.053   2.105
 8909SOL    HW137946   8.048   4.040   2.204
 8909SOL    HW237947   8.150   4.031   2.077
 8910SOL     OW37948   2.890   2.332   2.602
 8910SOL    HW137949   2.941   2.350   2.685
 8910SOL    HW237950   2.834   2.412   2.580
 8911SOL     OW37951   0.154   3.236   5.290
 8911SOL    HW137952   0.182   3.331   5.275
 8911SOL    HW237953   0.147   3.188   5.203
 8912SOL     OW37954   6.118   2.795   0.794
 8912SOL    HW137955   6.166   2.738   0.861
 8912SOL    HW237956   6.024   2.763   0.784
 8913SOL     OW37957   3.386   7.515   4.254
 8913SOL    HW137958   3.338   7.561   4.329
 8913SOL    HW237959   3.384   7.573   4.173
 8914SOL     OW37960   7.859   3.537   1.380
 8914SOL    HW137961   7.885   3.618   1.327
 8914SOL    HW237962   7.903   3.541   1.470
 8915SOL     OW37963   2.289   7.362   5.618
 8915SOL    HW137964   2.332   7.453   5.615
 8915SOL    HW237965   2.197   7.366   5.580
 8916SOL     OW37966   8.428   8.491   5.745
 8916SOL    HW137967   8.432   8.537   5.657
 8916SOL    HW237968   8.478   8.544   5.813
 8917SOL     OW37969   6.338   7.446   3.863
 8917SOL    HW137970   6.360   7.493   3.777
 8917SOL    HW237971   6.239   7.433   3.869
 8918SOL     OW37972   8.963   7.020   2.926
 8918SOL    HW137973   9.060   7.043   2.928
 8918SOL    HW237974   8.924   7.048   2.838
 8919SOL     OW37975   7.199   7.006   5.280
 8919SOL    HW137976   7.147   6.939   5.227
 8919SOL    HW237977   7.234   7.077   5.218
 8920SOL     OW37978   8.709   1.273   4.188
 8920SOL    HW137979   8.723   1.259   4.090
 8920SOL    HW237980   8.667   1.192   4.228
 8921SOL     OW37981   1.629   3.000   3.604
 8921SOL    HW137982   1.557   3.066   3.585
 8921SOL    HW237983   1.650   3.002   3.702
 8922SOL     OW37984   0.395   1.241   4.437
 8922SOL    HW137985   0.444   1.154   4.434
 8922SOL    HW237986   0.329   1.240   4.512
 8923SOL     OW37987   0.082   1.440   3.568
 8923SOL    HW137988   0.052   1.526   3.609
 8923SOL    HW237989   0.005   1.398   3.519
 8924SOL     OW37990   9.395   2.541   4.583
 8924SOL    HW137991   9.348   2.627   4.567
 8924SOL    HW237992   9.388   2.516   4.680
 8925SOL     OW37993   4.441   0.566   1.964
 8925SOL    HW137994   4.347   0.589   1.988
 8925SOL    HW237995   4.504   0.630   2.008
 8926SOL     OW37996   9.924   3.107   4.876
 8926SOL    HW137997   9.908   3.158   4.791
 8926SOL    HW237998   9.854   3.132   4.943
 8927SOL     OW37999   1.933   0.721   4.106
 8927SOL    HW138000   2.027   0.715   4.073
 8927SOL    HW238001   1.871   0.682   4.038
 8928SOL     OW38002   9.533   4.722   5.319
 8928SOL    HW138003   9.488   4.808   5.294
 8928SOL    HW238004   9.629   4.726   5.294
 8929SOL     OW38005   8.652   3.518   4.779
 8929SOL    HW138006   8.695   3.598   4.736
 8929SOL    HW238007   8.664   3.438   4.719
 8930SOL     OW38008   9.574   5.126   2.598
 8930SOL    HW138009   9.488   5.124   2.648
 8930SOL    HW238010   9.562   5.083   2.508
 8931SOL     OW38011   8.611   8.101   5.322
 8931SOL    HW138012   8.584   8.006   5.339
 8931SOL    HW238013   8.602   8.154   5.406
 8932SOL     OW38014   0.418   5.935   0.589
 8932SOL    HW138015   0.423   5.855   0.528
 8932SOL    HW238016   0.346   5.922   0.656
 8933SOL     OW38017   1.818   1.727   3.517
 8933SOL    HW138018   1.781   1.652   3.572
 8933SOL    HW238019   1.913   1.744   3.543
 8934SOL     OW38020   1.056   1.810   4.277
 8934SOL    HW138021   1.154   1.811   4.298
 8934SOL    HW238022   1.033   1.889   4.220
 8935SOL     OW38023   0.617   0.851   0.480
 8935SOL    HW138024   0.706   0.821   0.515
 8935SOL    HW238025   0.561   0.883   0.557
 8936SOL     OW38026   5.775   0.354   6.371
 8936SOL    HW138027   5.802   0.279   6.311
 8936SOL    HW238028   5.744   0.317   6.459
 8937SOL     OW38029   3.155   0.627   6.294
 8937SOL    HW138030   3.074   0.578   6.325
 8937SOL    HW238031   3.194   0.579   6.215
 8938SOL     OW38032   6.860   7.507   5.892
 8938SOL    HW138033   6.822   7.431   5.946
 8938SOL    HW238034   6.786   7.556   5.846
 8939SOL     OW38035   2.804   6.182   1.349
 8939SOL    HW138036   2.831   6.155   1.441
 8939SOL    HW238037   2.797   6.101   1.291
 8940SOL     OW38038   3.885   6.633   1.235
 8940SOL    HW138039   3.947   6.675   1.169
 8940SOL    HW238040   3.912   6.660   1.328
 8941SOL     OW38041   0.789   0.663   2.813
 8941SOL    HW138042   0.885   0.672   2.839
 8941SOL    HW238043   0.750   0.754   2.799
 8942SOL     OW38044   9.443   6.921   0.230
 8942SOL    HW138045   9.488   6.832   0.238
 8942SOL    HW238046   9.389   6.938   0.312
 8943SOL     OW38047   0.423   9.217   2.685
 8943SOL    HW138048   0.355   9.272   2.636
 8943SOL    HW238049   0.512   9.227   2.641
 8944SOL     OW38050   5.813   8.504   2.711
 8944SOL    HW138051   5.788   8.428   2.651
 8944SOL    HW238052   5.878   8.472   2.780
 8945SOL     OW38053   1.163   0.491   4.236
 8945SOL    HW138054   1.187   0.488   4.139
 8945SOL    HW238055   1.246   0.506   4.290
 8946SOL     OW38056   1.922   3.749   5.218
 8946SOL    HW138057   1.855   3.782   5.152
 8946SOL    HW238058   1.994   3.818   5.230
 8947SOL     OW38059   8.495   6.982   5.684
 8947SOL    HW138060   8.525   6.961   5.777
 8947SOL    HW238061   8.395   6.981   5.680
 8948SOL     OW38062   8.395   7.935   6.051
 8948SOL    HW138063   8.431   7.881   5.975
 8948SOL    HW238064   8.332   8.004   6.016
 8949SOL     OW38065   7.673   8.689   2.366
 8949SOL    HW138066   7.606   8.715   2.435
 8949SOL    HW238067   7.694   8.591   2.375
 8950SOL     OW38068   3.123   3.778   4.046
 8950SOL    HW138069   3.097   3.685   4.071
 8950SOL    HW238070   3.135   3.833   4.129
 8951SOL     OW38071   9.343   8.760   5.495
 8951SOL    HW138072   9.260   8.733   5.543
 8951SOL    HW238073   9.352   8.704   5.412
 8952SOL     OW38074   5.569   9.384   2.555
 8952SOL    HW138075   5.573   9.358   2.651
 8952SOL    HW238076   5.583   9.303   2.498
 8953SOL     OW38077   8.661   2.118   5.972
 8953SOL    HW138078   8.646   2.165   6.059
 8953SOL    HW238079   8.596   2.043   5.963
 8954SOL     OW38080   3.502   5.486   1.663
 8954SOL    HW138081   3.417   5.526   1.630
 8954SOL    HW238082   3.551   5.444   1.586
 8955SOL     OW38083   2.235   9.539   1.351
 8955SOL    HW138084   2.319   9.577   1.389
 8955SOL    HW238085   2.255   9.494   1.264
 8956SOL     OW38086   9.514   4.871   2.966
 8956SOL    HW138087   9.566   4.800   3.013
 8956SOL    HW238088   9.519   4.856   2.867
 8957SOL     OW38089   3.245   8.464   3.402
 8957SOL    HW138090   3.293   8.434   3.485
 8957SOL    HW238091   3.287   8.548   3.368
 8958SOL     OW38092   2.897   7.651   6.369
 8958SOL    HW138093   2.867   7.703   6.449
 8958SOL    HW238094   2.910   7.714   6.292
 8959SOL     OW38095   6.647   2.160   3.938
 8959SOL    HW138096   6.710   2.224   3.893
 8959SOL    HW238097   6.697   2.078   3.966
 8960SOL     OW38098   3.558   1.251   0.558
 8960SOL    HW138099   3.538   1.258   0.656
 8960SOL    HW238100   3.535   1.337   0.513
 8961SOL     OW38101   3.050   4.488   4.204
 8961SOL    HW138102   3.055   4.524   4.111
 8961SOL    HW238103   3.134   4.439   4.227
 8962SOL     OW38104   5.351   1.664   1.774
 8962SOL    HW138105   5.276   1.620   1.824
 8962SOL    HW238106   5.319   1.751   1.737
 8963SOL     OW38107   3.748   3.794   5.023
 8963SOL    HW138108   3.752   3.721   5.092
 8963SOL    HW238109   3.671   3.855   5.044
 8964SOL     OW38110   7.563   6.577   1.434
 8964SOL    HW138111   7.598   6.488   1.463
 8964SOL    HW238112   7.472   6.565   1.393
 8965SOL     OW38113   4.403   1.679   4.757
 8965SOL    HW138114   4.340   1.743   4.712
 8965SOL    HW238115   4.383   1.676   4.855
 8966SOL     OW38116   9.834   7.412   1.897
 8966SOL    HW138117   9.753   7.457   1.860
 8966SOL    HW238118   9.814   7.378   1.988
 8967SOL     OW38119   3.953   4.478   5.462
 8967SOL    HW138120   3.994   4.485   5.371
 8967SOL    HW238121   3.885   4.404   5.463
 8968SOL     OW38122   3.756   3.616   2.504
 8968SOL    HW138123   3.676   3.663   2.466
 8968SOL    HW238124   3.746   3.611   2.604
 8969SOL     OW38125   8.950   4.845   0.189
 8969SOL    HW138126   8.873   4.788   0.162
 8969SOL    HW238127   8.942   4.868   0.286
 8970SOL     OW38128   1.183   4.404   6.059
 8970SOL    HW138129   1.266   4.415   6.114
 8970SOL    HW238130   1.105   4.394   6.120
 8971SOL     OW38131   5.017   1.100   3.439
 8971SOL    HW138132   5.082   1.167   3.474
 8971SOL    HW238133   4.924   1.124   3.469
 8972SOL     OW38134   5.744   1.525   4.859
 8972SOL    HW138135   5.685   1.448   4.884
 8972SOL    HW238136   5.795   1.555   4.939
 8973SOL     OW38137   9.673   5.402   5.695
 8973SOL    HW138138   9.738   5.348   5.748
 8973SOL    HW238139   9.582   5.361   5.702
 8974SOL     OW38140   9.296   8.977   1.479
 8974SOL    HW138141   9.233   8.951   1.406
 8974SOL    HW238142   9.247   9.028   1.549
 8975SOL     OW38143   3.188   7.195   1.507
 8975SOL    HW138144   3.192   7.135   1.427
 8975SOL    HW238145   3.229   7.149   1.586
 8976SOL     OW38146   3.805   8.550   4.462
 8976SOL    HW138147   3.893   8.563   4.507
 8976SOL    HW238148   3.803   8.601   4.376
 8977SOL     OW38149   1.867   9.886   0.661
 8977SOL    HW138150   1.899   9.975   0.691
 8977SOL    HW238151   1.807   9.897   0.582
 8978SOL     OW38152   9.041   4.483   1.905
 8978SOL    HW138153   9.084   4.559   1.953
 8978SOL    HW238154   9.062   4.397   1.951
 8979SOL     OW38155   8.550   2.598   3.419
 8979SOL    HW138156   8.593   2.522   3.467
 8979SOL    HW238157   8.489   2.563   3.348
 8980SOL     OW38158   4.504   3.878   2.800
 8980SOL    HW138159   4.547   3.852   2.713
 8980SOL    HW238160   4.538   3.967   2.828
 8981SOL     OW38161   8.094   1.362   3.380
 8981SOL    HW138162   8.118   1.290   3.445
 8981SOL    HW238163   8.066   1.320   3.293
 8982SOL     OW38164   7.302   0.253   3.828
 8982SOL    HW138165   7.316   0.300   3.741
 8982SOL    HW238166   7.246   0.309   3.888
 8983SOL     OW38167   9.484   8.363   2.858
 8983SOL    HW138168   9.521   8.302   2.928
 8983SOL    HW238169   9.549   8.369   2.782
 8984SOL     OW38170   9.434   3.709   5.307
 8984SOL    HW138171   9.440   3.625   5.254
 8984SOL    HW238172   9.522   3.756   5.303
 8985SOL     OW38173   4.613   1.886   1.469
 8985SOL    HW138174   4.517   1.912   1.479
 8985SOL    HW238175   4.671   1.964   1.494
 8986SOL     OW38176   4.254   4.055   3.756
 8986SOL    HW138177   4.249   4.059   3.656
 8986SOL    HW238178   4.214   3.969   3.788
 8987SOL     OW38179   8.349   1.537   4.518
 8987SOL    HW138180   8.421   1.500   4.459
 8987SOL    HW238181   8.292   1.463   4.554
 8988SOL     OW38182   7.504   2.965   4.789
 8988SOL    HW138183   7.418   3.005   4.757
 8988SOL    HW238184   7.558   3.035   4.835
 8989SOL     OW38185   0.215   5.668   3.859
 8989SOL    HW138186   0.166   5.626   3.935
 8989SOL    HW238187   0.307   5.629   3.852
 8990SOL     OW38188   8.062   1.260   5.651
 8990SOL    HW138189   8.081   1.224   5.743
 8990SOL    HW238190   8.033   1.356   5.659
 8991SOL     OW38191   0.499   8.560   0.365
 8991SOL    HW138192   0.429   8.506   0.412
 8991SOL    HW238193   0.519   8.643   0.417
 8992SOL     OW38194   0.732   6.722   2.458
 8992SOL    HW138195   0.729   6.626   2.432
 8992SOL    HW238196   0.827   6.755   2.455
 8993SOL     OW38197   2.548   0.614   5.183
 8993SOL    HW138198   2.477   0.659   5.236
 8993SOL    HW238199   2.582   0.534   5.233
 8994SOL     OW38200   1.246   5.037   0.439
 8994SOL    HW138201   1.228   5.087   0.524
 8994SOL    HW238202   1.197   4.950   0.440
 8995SOL     OW38203   2.306   9.077   1.745
 8995SOL    HW138204   2.279   9.115   1.657
 8995SOL    HW238205   2.224   9.050   1.796
 8996SOL     OW38206   9.830   4.406   2.788
 8996SOL    HW138207   9.843   4.406   2.689
 8996SOL    HW238208   9.738   4.439   2.809
 8997SOL     OW38209   1.456   2.993   2.656
 8997SOL    HW138210   1.391   3.060   2.620
 8997SOL    HW238211   1.487   3.022   2.747
 8998SOL     OW38212   9.113   6.596   3.356
 8998SOL    HW138213   9.190   6.653   3.327
 8998SOL    HW238214   9.030   6.652   3.362
 8999SOL     OW38215   0.113   1.018   4.173
 8999SOL    HW138216   0.101   1.117   4.182
 8999SOL    HW238217   0.207   0.993   4.196
 9000SOL     OW38218   1.156   2.686   0.977
 9000SOL    HW138219   1.207   2.701   0.892
 9000SOL    HW238220   1.200   2.615   1.031
 9001SOL     OW38221   9.673   1.206   1.654
 9001SOL    HW138222   9.772   1.203   1.662
 9001SOL    HW238223   9.633   1.127   1.702
 9002SOL     OW38224   6.115   1.478   0.042
 9002SOL    HW138225   6.202   1.432   0.026
 9002SOL    HW238226   6.040   1.418   0.015
 9003SOL     OW38227   1.479   7.058   5.188
 9003SOL    HW138228   1.535   7.018   5.116
 9003SOL    HW238229   1.387   7.020   5.184
 9004SOL     OW38230   4.074   1.589   3.519
 9004SOL    HW138231   4.143   1.535   3.568
 9004SOL    HW238232   4.042   1.539   3.439
 9005SOL     OW38233   9.264   0.634   5.541
 9005SOL    HW138234   9.284   0.718   5.591
 9005SOL    HW238235   9.172   0.640   5.502
 9006SOL     OW38236   5.995   0.259   2.252
 9006SOL    HW138237   5.962   0.176   2.206
 9006SOL    HW238238   6.081   0.239   2.299
 9007SOL     OW38239   7.165   8.224   3.096
 9007SOL    HW138240   7.067   8.238   3.086
 9007SOL    HW238241   7.202   8.188   3.010
 9008SOL     OW38242   6.853   4.330   1.199
 9008SOL    HW138243   6.774   4.321   1.139
 9008SOL    HW238244   6.869   4.427   1.218
 9009SOL     OW38245   4.579   9.102   1.110
 9009SOL    HW138246   4.630   9.102   1.196
 9009SOL    HW238247   4.490   9.145   1.125
 9010SOL     OW38248   7.664   4.474   0.610
 9010SOL    HW138249   7.696   4.481   0.515
 9010SOL    HW238250   7.571   4.510   0.617
 9011SOL     OW38251   0.164   6.696   1.332
 9011SOL    HW138252   0.084   6.717   1.388
 9011SOL    HW238253   0.240   6.755   1.358
 9012SOL     OW38254   1.444   2.717   4.539
 9012SOL    HW138255   1.477   2.765   4.458
 9012SOL    HW238256   1.450   2.777   4.618
 9013SOL     OW38257   0.297   9.426   2.524
 9013SOL    HW138258   0.381   9.466   2.561
 9013SOL    HW238259   0.310   9.406   2.427
 9014SOL     OW38260   9.805   6.476   1.815
 9014SOL    HW138261   9.712   6.447   1.793
 9014SOL    HW238262   9.803   6.569   1.854
 9015SOL     OW38263   1.367   3.182   0.740
 9015SOL    HW138264   1.393   3.098   0.692
 9015SOL    HW238265   1.368   3.258   0.676
 9016SOL     OW38266   0.529   0.716   5.542
 9016SOL    HW138267   0.429   0.720   5.547
 9016SOL    HW238268   0.566   0.808   5.532
 9017SOL     OW38269   3.023   2.799   1.824
 9017SOL    HW138270   3.024   2.721   1.886
 9017SOL    HW238271   3.036   2.883   1.877
 9018SOL     OW38272   5.684   7.728   3.736
 9018SOL    HW138273   5.685   7.786   3.654
 9018SOL    HW238274   5.601   7.746   3.788
 9019SOL     OW38275   1.399   4.898   6.086
 9019SOL    HW138276   1.358   4.857   6.005
 9019SOL    HW238277   1.429   4.991   6.065
 9020SOL     OW38278   9.727   5.262   3.581
 9020SOL    HW138279   9.792   5.334   3.556
 9020SOL    HW238280   9.702   5.211   3.498
 9021SOL     OW38281   3.359   2.181   5.568
 9021SOL    HW138282   3.423   2.203   5.641
 9021SOL    HW238283   3.338   2.263   5.516
 9022SOL     OW38284   3.712   2.660   6.256
 9022SOL    HW138285   3.805   2.690   6.277
 9022SOL    HW238286   3.654   2.740   6.241
 9023SOL     OW38287   5.987   0.635   4.516
 9023SOL    HW138288   6.056   0.575   4.476
 9023SOL    HW238289   5.926   0.581   4.574
 9024SOL     OW38290   9.013   6.056   4.905
 9024SOL    HW138291   9.054   6.044   4.995
 9024SOL    HW238292   8.920   6.018   4.906
 9025SOL     OW38293   2.371   6.405   1.080
 9025SOL    HW138294   2.297   6.471   1.067
 9025SOL    HW238295   2.336   6.326   1.129
 9026SOL     OW38296   4.672   8.341   5.923
 9026SOL    HW138297   4.675   8.279   6.002
 9026SOL    HW238298   4.620   8.422   5.947
 9027SOL     OW38299   7.268   6.935   6.321
 9027SOL    HW138300   7.214   7.015   6.346
 9027SOL    HW238301   7.291   6.883   6.403
 9028SOL     OW38302   5.285   8.928   6.122
 9028SOL    HW138303   5.350   8.854   6.144
 9028SOL    HW238304   5.193   8.900   6.150
 9029SOL     OW38305   1.065   6.226   3.537
 9029SOL    HW138306   1.037   6.209   3.442
 9029SOL    HW238307   1.063   6.325   3.554
 9030SOL     OW38308   1.321   8.366   1.313
 9030SOL    HW138309   1.407   8.340   1.271
 9030SOL    HW238310   1.329   8.361   1.413
 9031SOL     OW38311   2.795   5.702   5.098
 9031SOL    HW138312   2.763   5.614   5.063
 9031SOL    HW238313   2.890   5.694   5.126
 9032SOL     OW38314   3.849   8.981   3.132
 9032SOL    HW138315   3.854   9.081   3.141
 9032SOL    HW238316   3.814   8.957   3.042
 9033SOL     OW38317   6.195   7.731   3.376
 9033SOL    HW138318   6.198   7.751   3.278
 9033SOL    HW238319   6.281   7.759   3.418
 9034SOL     OW38320   4.800   7.561   2.672
 9034SOL    HW138321   4.891   7.603   2.674
 9034SOL    HW238322   4.737   7.620   2.623
 9035SOL     OW38323   6.975   1.587   1.957
 9035SOL    HW138324   6.909   1.659   1.939
 9035SOL    HW238325   7.039   1.616   2.028
 9036SOL     OW38326   8.210   8.190   6.294
 9036SOL    HW138327   8.203   8.094   6.322
 9036SOL    HW238328   8.306   8.219   6.301
 9037SOL     OW38329   6.826   5.659   0.810
 9037SOL    HW138330   6.774   5.737   0.776
 9037SOL    HW238331   6.889   5.628   0.739
 9038SOL     OW38332   7.092   8.248   5.165
 9038SOL    HW138333   7.039   8.333   5.157
 9038SOL    HW238334   7.091   8.218   5.261
 9039SOL     OW38335   5.855   0.436   2.885
 9039SOL    HW138336   5.796   0.359   2.908
 9039SOL    HW238337   5.871   0.491   2.967
 9040SOL     OW38338   0.047   9.836   5.542
 9040SOL    HW138339   0.065   9.742   5.571
 9040SOL    HW238340   0.047   9.841   5.442
 9041SOL     OW38341   5.978   0.489   5.610
 9041SOL    HW138342   5.977   0.583   5.645
 9041SOL    HW238343   5.896   0.441   5.641
 9042SOL     OW38344   1.216   4.838   2.955
 9042SOL    HW138345   1.222   4.891   2.871
 9042SOL    HW238346   1.225   4.741   2.935
 9043SOL     OW38347   4.323   3.271   0.146
 9043SOL    HW138348   4.397   3.323   0.188
 9043SOL    HW238349   4.235   3.314   0.166
 9044SOL     OW38350   2.894   3.646   1.768
 9044SOL    HW138351   2.960   3.720   1.757
 9044SOL    HW238352   2.891   3.591   1.684
 9045SOL     OW38353   7.685   6.403   2.091
 9045SOL    HW138354   7.709   6.437   2.182
 9045SOL    HW238355   7.681   6.480   2.027
 9046SOL     OW38356   9.103   1.847   5.625
 9046SOL    HW138357   9.021   1.834   5.569
 9046SOL    HW238358   9.080   1.838   5.722
 9047SOL     OW38359   9.083   7.535   5.438
 9047SOL    HW138360   9.165   7.479   5.450
 9047SOL    HW238361   9.049   7.523   5.345
 9048SOL     OW38362   6.232   0.630   2.778
 9048SOL    HW138363   6.312   0.612   2.721
 9048SOL    HW238364   6.161   0.562   2.758
 9049SOL     OW38365   0.164   8.546   4.160
 9049SOL    HW138366   0.136   8.639   4.183
 9049SOL    HW238367   0.240   8.518   4.219
 9050SOL     OW38368   0.726   4.896   3.094
 9050SOL    HW138369   0.683   4.812   3.063
 9050SOL    HW238370   0.822   4.878   3.118
 9051SOL     OW38371   1.839   0.297   1.577
 9051SOL    HW138372   1.873   0.388   1.601
 9051SOL    HW238373   1.877   0.269   1.489
 9052SOL     OW38374   0.582   7.974   5.662
 9052SOL    HW138375   0.496   7.965   5.712
 9052SOL    HW238376   0.605   7.886   5.619
 9053SOL     OW38377   0.957   6.453   4.105
 9053SOL    HW138378   0.985   6.516   4.178
 9053SOL    HW238379   0.980   6.360   4.132
 9054SOL     OW38380   1.198   2.074   1.116
 9054SOL    HW138381   1.164   2.151   1.062
 9054SOL    HW238382   1.153   2.075   1.206
 9055SOL     OW38383   7.211   9.510   1.986
 9055SOL    HW138384   7.261   9.565   1.920
 9055SOL    HW238385   7.273   9.474   2.054
 9056SOL     OW38386   0.395   6.409   1.058
 9056SOL    HW138387   0.360   6.334   1.002
 9056SOL    HW238388   0.493   6.395   1.075
 9057SOL     OW38389   2.727   2.841   1.399
 9057SOL    HW138390   2.757   2.796   1.483
 9057SOL    HW238391   2.737   2.940   1.408
 9058SOL     OW38392   1.565   9.456   0.851
 9058SOL    HW138393   1.639   9.418   0.906
 9058SOL    HW238394   1.598   9.476   0.759
 9059SOL     OW38395   8.676   1.420   2.529
 9059SOL    HW138396   8.773   1.437   2.514
 9059SOL    HW238397   8.639   1.367   2.453
 9060SOL     OW38398   8.996   2.063   3.338
 9060SOL    HW138399   9.054   2.024   3.267
 9060SOL    HW238400   9.009   2.162   3.341
 9061SOL     OW38401   8.894   0.162   4.287
 9061SOL    HW138402   8.853   0.113   4.210
 9061SOL    HW238403   8.822   0.212   4.336
 9062SOL     OW38404   1.924   2.229   1.078
 9062SOL    HW138405   1.863   2.161   1.118
 9062SOL    HW238406   1.872   2.310   1.052
 9063SOL     OW38407   3.288   0.195   2.594
 9063SOL    HW138408   3.209   0.228   2.542
 9063SOL    HW238409   3.269   0.199   2.692
 9064SOL     OW38410   6.094   2.719   0.147
 9064SOL    HW138411   6.105   2.814   0.116
 9064SOL    HW238412   6.098   2.717   0.247
 9065SOL     OW38413   9.292   8.392   3.891
 9065SOL    HW138414   9.218   8.432   3.944
 9065SOL    HW238415   9.316   8.452   3.815
 9066SOL     OW38416   5.726   0.943   2.786
 9066SOL    HW138417   5.680   0.917   2.701
 9066SOL    HW238418   5.658   0.951   2.859
 9067SOL     OW38419   3.215   5.364   0.292
 9067SOL    HW138420   3.169   5.278   0.270
 9067SOL    HW238421   3.290   5.346   0.356
 9068SOL     OW38422   4.691   3.651   1.350
 9068SOL    HW138423   4.773   3.654   1.293
 9068SOL    HW238424   4.647   3.740   1.350
 9069SOL     OW38425   7.731   7.376   4.999
 9069SOL    HW138426   7.810   7.315   5.013
 9069SOL    HW238427   7.716   7.389   4.901
 9070SOL     OW38428   8.482   9.265   0.908
 9070SOL    HW138429   8.444   9.281   0.817
 9070SOL    HW238430   8.412   9.228   0.968
 9071SOL     OW38431   7.271   3.104   4.718
 9071SOL    HW138432   7.321   3.190   4.711
 9071SOL    HW238433   7.212   3.105   4.799
 9072SOL     OW38434   3.873   9.030   0.736
 9072SOL    HW138435   3.788   8.990   0.769
 9072SOL    HW238436   3.918   8.966   0.674
 9073SOL     OW38437   7.489   4.991   1.986
 9073SOL    HW138438   7.415   5.048   2.021
 9073SOL    HW238439   7.529   5.035   1.905
 9074SOL     OW38440   9.158   4.130   1.722
 9074SOL    HW138441   9.177   4.218   1.680
 9074SOL    HW238442   9.243   4.088   1.753
 9075SOL     OW38443   0.485   7.672   0.614
 9075SOL    HW138444   0.432   7.747   0.572
 9075SOL    HW238445   0.580   7.678   0.582
 9076SOL     OW38446   9.889   7.011   3.422
 9076SOL    HW138447   9.946   7.034   3.502
 9076SOL    HW238448   9.939   7.032   3.338
 9077SOL     OW38449   9.227   5.613   0.365
 9077SOL    HW138450   9.228   5.514   0.352
 9077SOL    HW238451   9.151   5.638   0.426
 9078SOL     OW38452   6.820   7.924   5.426
 9078SOL    HW138453   6.834   7.858   5.499
 9078SOL    HW238454   6.768   7.882   5.352
 9079SOL     OW38455   0.412   7.268   2.130
 9079SOL    HW138456   0.459   7.354   2.113
 9079SOL    HW238457   0.351   7.278   2.209
 9080SOL     OW38458   3.250   7.132   6.056
 9080SOL    HW138459   3.253   7.143   6.155
 9080SOL    HW238460   3.298   7.210   6.013
 9081SOL     OW38461   2.779   4.821   6.055
 9081SOL    HW138462   2.802   4.812   6.151
 9081SOL    HW238463   2.805   4.912   6.022
 9082SOL     OW38464   3.910   1.264   5.399
 9082SOL    HW138465   3.834   1.327   5.412
 9082SOL    HW238466   3.875   1.174   5.373
 9083SOL     OW38467   2.710   3.362   0.055
 9083SOL    HW138468   2.742   3.271   0.082
 9083SOL    HW238469   2.712   3.370   8.144
 9084SOL     OW38470   7.880   1.821   4.101
 9084SOL    HW138471   7.923   1.910   4.088
 9084SOL    HW238472   7.922   1.754   4.039
 9085SOL     OW38473   6.686   1.527   3.723
 9085SOL    HW138474   6.752   1.548   3.651
 9085SOL    HW238475   6.707   1.582   3.804
 9086SOL     OW38476   0.091   3.722   3.703
 9086SOL    HW138477   0.077   3.793   3.635
 9086SOL    HW238478   0.180   3.679   3.689
 9087SOL     OW38479   6.546   8.664   5.236
 9087SOL    HW138480   6.532   8.743   5.295
 9087SOL    HW238481   6.467   8.602   5.243
 9088SOL     OW38482   4.234   3.511   2.773
 9088SOL    HW138483   4.140   3.527   2.801
 9088SOL    HW238484   4.250   3.554   2.684
 9089SOL     OW38485   1.810   3.551   6.132
 9089SOL    HW138486   1.882   3.509   6.077
 9089SOL    HW238487   1.721   3.527   6.095
 9090SOL     OW38488   5.924   1.287   2.330
 9090SOL    HW138489   5.881   1.223   2.394
 9090SOL    HW238490   5.991   1.343   2.379
 9091SOL     OW38491   4.012   8.303   0.888
 9091SOL    HW138492   4.058   8.287   0.975
 9091SOL    HW238493   4.072   8.356   0.827
 9092SOL     OW38494   1.418   4.549   0.103
 9092SOL    HW138495   1.408   4.588   0.012
 9092SOL    HW238496   1.515   4.537   0.124
 9093SOL     OW38497   4.444   7.719   5.560
 9093SOL    HW138498   4.401   7.651   5.500
 9093SOL    HW238499   4.395   7.806   5.552
 9094SOL     OW38500   6.840   3.324   2.079
 9094SOL    HW138501   6.914   3.354   2.020
 9094SOL    HW238502   6.875   3.261   2.148
 9095SOL     OW38503   1.645   7.571   0.945
 9095SOL    HW138504   1.705   7.507   0.994
 9095SOL    HW238505   1.556   7.529   0.932
 9096SOL     OW38506   4.021   1.520   1.296
 9096SOL    HW138507   4.058   1.428   1.286
 9096SOL    HW238508   3.921   1.517   1.292
 9097SOL     OW38509   8.865   6.129   1.947
 9097SOL    HW138510   8.808   6.166   2.020
 9097SOL    HW238511   8.822   6.145   1.858
 9098SOL     OW38512   7.175   0.265   2.407
 9098SOL    HW138513   7.247   0.214   2.454
 9098SOL    HW238514   7.120   0.316   2.473
 9099SOL     OW38515   1.386   8.735   2.206
 9099SOL    HW138516   1.358   8.639   2.213
 9099SOL    HW238517   1.474   8.747   2.251
 9100SOL     OW38518   4.095   8.970   2.580
 9100SOL    HW138519   4.057   8.997   2.669
 9100SOL    HW238520   4.102   8.870   2.576
 9101SOL     OW38521   0.409   8.565   3.558
 9101SOL    HW138522   0.493   8.616   3.540
 9101SOL    HW238523   0.411   8.530   3.652
 9102SOL     OW38524   3.388   8.532   5.890
 9102SOL    HW138525   3.423   8.466   5.824
 9102SOL    HW238526   3.392   8.624   5.851
 9103SOL     OW38527   1.322   9.592   0.085
 9103SOL    HW138528   1.377   9.676   0.092
 9103SOL    HW238529   1.382   9.512   0.090
 9104SOL     OW38530   6.700   5.871   0.463
 9104SOL    HW138531   6.672   5.875   0.559
 9104SOL    HW238532   6.799   5.884   0.457
 9105SOL     OW38533   6.056   9.310   2.496
 9105SOL    HW138534   6.024   9.278   2.585
 9105SOL    HW238535   6.119   9.386   2.508
 9106SOL     OW38536   1.533   1.859   5.961
 9106SOL    HW138537   1.448   1.908   5.981
 9106SOL    HW238538   1.512   1.770   5.921
 9107SOL     OW38539   4.639   0.852   1.329
 9107SOL    HW138540   4.685   0.902   1.403
 9107SOL    HW238541   4.642   0.754   1.348
 9108SOL     OW38542   1.813   5.167   6.454
 9108SOL    HW138543   1.791   5.135   6.362
 9108SOL    HW238544   1.845   5.089   6.509
 9109SOL     OW38545   4.953   6.595   1.540
 9109SOL    HW138546   5.025   6.525   1.539
 9109SOL    HW238547   4.964   6.654   1.620
 9110SOL     OW38548   2.076   3.037   5.978
 9110SOL    HW138549   2.145   2.982   5.932
 9110SOL    HW238550   1.990   3.032   5.926
 9111SOL     OW38551   2.128   2.592   0.861
 9111SOL    HW138552   2.047   2.557   0.907
 9111SOL    HW238553   2.106   2.678   0.815
 9112SOL     OW38554   5.343   0.360   3.324
 9112SOL    HW138555   5.281   0.359   3.246
 9112SOL    HW238556   5.294   0.333   3.406
 9113SOL     OW38557   9.535   4.006   2.168
 9113SOL    HW138558   9.436   4.000   2.175
 9113SOL    HW238559   9.566   4.093   2.207
 9114SOL     OW38560   3.070   2.404   4.418
 9114SOL    HW138561   3.149   2.344   4.432
 9114SOL    HW238562   2.995   2.352   4.376
 9115SOL     OW38563   8.657   8.780   1.810
 9115SOL    HW138564   8.668   8.851   1.879
 9115SOL    HW238565   8.593   8.811   1.740
 9116SOL     OW38566   0.909   8.899   2.519
 9116SOL    HW138567   0.839   8.950   2.470
 9116SOL    HW238568   0.991   8.956   2.528
 9117SOL     OW38569   0.847   7.879   3.526
 9117SOL    HW138570   0.893   7.950   3.579
 9117SOL    HW238571   0.848   7.904   3.429
 9118SOL     OW38572   2.426   6.665   1.623
 9118SOL    HW138573   2.511   6.618   1.601
 9118SOL    HW238574   2.407   6.734   1.553
 9119SOL     OW38575   2.507   8.530   5.142
 9119SOL    HW138576   2.582   8.485   5.190
 9119SOL    HW238577   2.517   8.629   5.150
 9120SOL     OW38578   8.656   3.290   4.625
 9120SOL    HW138579   8.637   3.197   4.659
 9120SOL    HW238580   8.577   3.324   4.575
 9121SOL     OW38581   6.755   2.833   3.365
 9121SOL    HW138582   6.774   2.925   3.330
 9121SOL    HW238583   6.822   2.809   3.435
 9122SOL     OW38584   4.298   4.516   0.820
 9122SOL    HW138585   4.314   4.534   0.917
 9122SOL    HW238586   4.380   4.477   0.779
 9123SOL     OW38587   2.967   1.164   4.759
 9123SOL    HW138588   3.055   1.186   4.718
 9123SOL    HW238589   2.981   1.134   4.854
 9124SOL     OW38590   2.059   8.973   2.328
 9124SOL    HW138591   2.151   8.943   2.353
 9124SOL    HW238592   1.992   8.913   2.370
 9125SOL     OW38593   6.336   0.561   3.020
 9125SOL    HW138594   6.270   0.565   3.096
 9125SOL    HW238595   6.289   0.582   2.934
 9126SOL     OW38596   3.722   0.546   5.478
 9126SOL    HW138597   3.814   0.584   5.489
 9126SOL    HW238598   3.729   0.458   5.431
 9127SOL     OW38599   7.577   7.198   4.458
 9127SOL    HW138600   7.582   7.127   4.388
 9127SOL    HW238601   7.500   7.178   4.519
 9128SOL     OW38602   6.186   2.457   4.387
 9128SOL    HW138603   6.216   2.520   4.459
 9128SOL    HW238604   6.111   2.499   4.335
 9129SOL     OW38605   9.804   7.554   1.300
 9129SOL    HW138606   9.843   7.527   1.388
 9129SOL    HW238607   9.707   7.578   1.312
 9130SOL     OW38608   5.162   4.951   2.207
 9130SOL    HW138609   5.257   4.921   2.208
 9130SOL    HW238610   5.154   5.037   2.158
 9131SOL     OW38611   4.601   2.512   5.390
 9131SOL    HW138612   4.693   2.549   5.403
 9131SOL    HW238613   4.592   2.477   5.297
 9132SOL     OW38614   5.119   2.127   4.538
 9132SOL    HW138615   5.031   2.129   4.491
 9132SOL    HW238616   5.104   2.106   4.635
 9133SOL     OW38617   8.585   4.938   1.683
 9133SOL    HW138618   8.591   4.839   1.674
 9133SOL    HW238619   8.604   4.964   1.778
 9134SOL     OW38620   6.147   1.140   5.670
 9134SOL    HW138621   6.068   1.099   5.625
 9134SOL    HW238622   6.211   1.068   5.698
 9135SOL     OW38623   3.695   8.283   2.721
 9135SOL    HW138624   3.795   8.283   2.713
 9135SOL    HW238625   3.667   8.352   2.788
 9136SOL     OW38626   3.787   6.386   4.060
 9136SOL    HW138627   3.825   6.346   3.976
 9136SOL    HW238628   3.861   6.423   4.116
 9137SOL     OW38629   9.138   9.374   0.158
 9137SOL    HW138630   9.136   9.343   0.253
 9137SOL    HW238631   9.196   9.456   0.151
 9138SOL     OW38632   4.118   5.393   1.284
 9138SOL    HW138633   4.086   5.474   1.332
 9138SOL    HW238634   4.110   5.408   1.185
 9139SOL     OW38635   6.578   5.521   0.938
 9139SOL    HW138636   6.572   5.430   0.979
 9139SOL    HW238637   6.674   5.545   0.924
 9140SOL     OW38638   4.208   0.009   4.350
 9140SOL    HW138639   4.173   0.016   4.444
 9140SOL    HW238640   4.302   0.043   4.347
 9141SOL     OW38641   1.104   3.110   0.773
 9141SOL    HW138642   1.091   3.029   0.716
 9141SOL    HW238643   1.201   3.134   0.777
 9142SOL     OW38644   0.067   4.282   2.124
 9142SOL    HW138645   0.082   4.327   2.036
 9142SOL    HW238646   0.013   4.199   2.110
 9143SOL     OW38647   8.261   2.103   5.937
 9143SOL    HW138648   8.223   2.183   5.891
 9143SOL    HW238649   8.282   2.127   6.032
 9144SOL     OW38650   3.063   7.704   4.651
 9144SOL    HW138651   2.988   7.671   4.708
 9144SOL    HW238652   3.031   7.779   4.593
 9145SOL     OW38653   8.717   0.153   1.823
 9145SOL    HW138654   8.793   0.179   1.883
 9145SOL    HW238655   8.658   0.232   1.807
 9146SOL     OW38656   9.174   4.246   0.780
 9146SOL    HW138657   9.129   4.294   0.705
 9146SOL    HW238658   9.105   4.204   0.839
 9147SOL     OW38659   2.908   1.945   4.905
 9147SOL    HW138660   2.921   1.930   5.003
 9147SOL    HW238661   2.896   2.043   4.887
 9148SOL     OW38662   7.541   9.332   5.632
 9148SOL    HW138663   7.548   9.292   5.724
 9148SOL    HW238664   7.618   9.302   5.577
 9149SOL     OW38665   7.329   1.100   3.677
 9149SOL    HW138666   7.345   1.007   3.711
 9149SOL    HW238667   7.285   1.154   3.749
 9150SOL     OW38668   1.818   6.689   0.380
 9150SOL    HW138669   1.751   6.671   0.452
 9150SOL    HW238670   1.791   6.641   0.296
 9151SOL     OW38671   9.169   5.581   5.859
 9151SOL    HW138672   9.099   5.570   5.788
 9151SOL    HW238673   9.241   5.641   5.826
 9152SOL     OW38674   7.229   0.646   2.991
 9152SOL    HW138675   7.286   0.603   3.061
 9152SOL    HW238676   7.232   0.745   3.002
 9153SOL     OW38677   8.807   8.459   3.781
 9153SOL    HW138678   8.881   8.527   3.783
 9153SOL    HW238679   8.719   8.506   3.787
 9154SOL     OW38680   0.141   8.468   1.373
 9154SOL    HW138681   0.176   8.561   1.384
 9154SOL    HW238682   0.132   8.447   1.276
 9155SOL     OW38683   6.268   2.301   0.101
 9155SOL    HW138684   6.272   2.396   0.071
 9155SOL    HW238685   6.357   2.257   0.086
 9156SOL     OW38686   1.150   5.339   0.128
 9156SOL    HW138687   1.141   5.241   0.145
 9156SOL    HW238688   1.247   5.363   0.125
 9157SOL     OW38689   0.721   3.478   2.749
 9157SOL    HW138690   0.795   3.439   2.804
 9157SOL    HW238691   0.737   3.457   2.652
 9158SOL     OW38692   2.180   3.643   1.083
 9158SOL    HW138693   2.160   3.567   1.145
 9158SOL    HW238694   2.259   3.620   1.026
 9159SOL     OW38695   0.219   2.341   5.666
 9159SOL    HW138696   0.307   2.327   5.710
 9159SOL    HW238697   0.179   2.253   5.640
 9160SOL     OW38698   5.338   0.886   1.183
 9160SOL    HW138699   5.255   0.937   1.163
 9160SOL    HW238700   5.338   0.858   1.279
 9161SOL     OW38701   3.882   6.450   3.235
 9161SOL    HW138702   3.806   6.487   3.182
 9161SOL    HW238703   3.942   6.397   3.176
 9162SOL     OW38704   8.181   2.420   1.425
 9162SOL    HW138705   8.206   2.432   1.328
 9162SOL    HW238706   8.111   2.487   1.449
 9163SOL     OW38707   5.958   8.245   5.359
 9163SOL    HW138708   6.056   8.256   5.370
 9163SOL    HW238709   5.917   8.332   5.332
 9164SOL     OW38710   5.156   2.357   5.481
 9164SOL    HW138711   5.139   2.361   5.579
 9164SOL    HW238712   5.082   2.403   5.432
 9165SOL     OW38713   9.855   6.708   0.302
 9165SOL    HW138714   9.871   6.690   0.399
 9165SOL    HW238715   9.941   6.693   0.251
 9166SOL     OW38716   1.664   3.683   4.046
 9166SOL    HW138717   1.579   3.676   3.993
 9166SOL    HW238718   1.662   3.618   4.121
 9167SOL     OW38719   9.593   8.136   4.489
 9167SOL    HW138720   9.681   8.135   4.537
 9167SOL    HW238721   9.573   8.230   4.461
 9168SOL     OW38722   1.432   6.318   2.691
 9168SOL    HW138723   1.459   6.245   2.630
 9168SOL    HW238724   1.482   6.311   2.777
 9169SOL     OW38725   0.976   8.534   0.261
 9169SOL    HW138726   1.010   8.471   0.192
 9169SOL    HW238727   1.035   8.531   0.342
 9170SOL     OW38728   8.886   1.530   2.170
 9170SOL    HW138729   8.799   1.579   2.159
 9170SOL    HW238730   8.961   1.589   2.141
 9171SOL     OW38731   9.448   6.448   3.573
 9171SOL    HW138732   9.441   6.389   3.492
 9171SOL    HW238733   9.454   6.543   3.545
 9172SOL     OW38734   1.741   7.549   3.612
 9172SOL    HW138735   1.812   7.500   3.562
 9172SOL    HW238736   1.658   7.493   3.616
 9173SOL     OW38737   9.527   6.689   3.929
 9173SOL    HW138738   9.485   6.764   3.878
 9173SOL    HW238739   9.462   6.655   3.997
 9174SOL     OW38740   2.189   0.157   3.376
 9174SOL    HW138741   2.185   0.106   3.462
 9174SOL    HW238742   2.149   0.102   3.302
 9175SOL     OW38743   7.446   9.953   2.153
 9175SOL    HW138744   7.460   0.052   2.144
 9175SOL    HW238745   7.364   9.927   2.103
 9176SOL     OW38746   9.025   5.283   0.541
 9176SOL    HW138747   9.032   5.348   0.616
 9176SOL    HW238748   9.050   5.191   0.574
 9177SOL     OW38749   9.073   2.193   0.642
 9177SOL    HW138750   9.094   2.178   0.738
 9177SOL    HW238751   9.158   2.189   0.588
 9178SOL     OW38752   4.137   6.843   5.001
 9178SOL    HW138753   4.116   6.913   4.933
 9178SOL    HW238754   4.073   6.851   5.078
 9179SOL     OW38755   2.759   4.026   2.269
 9179SOL    HW138756   2.799   4.031   2.361
 9179SOL    HW238757   2.781   4.110   2.219
 9180SOL     OW38758   8.588   3.018   4.970
 9180SOL    HW138759   8.595   3.106   5.016
 9180SOL    HW238760   8.680   2.980   4.957
 9181SOL     OW38761   1.625   0.390   3.855
 9181SOL    HW138762   1.595   0.407   3.761
 9181SOL    HW238763   1.622   0.291   3.874
 9182SOL     OW38764   9.294   4.861   3.137
 9182SOL    HW138765   9.371   4.862   3.073
 9182SOL    HW238766   9.258   4.768   3.144
 9183SOL     OW38767   8.186   3.212   5.788
 9183SOL    HW138768   8.259   3.204   5.719
 9183SOL    HW238769   8.107   3.257   5.748
 9184SOL     OW38770   9.358   2.729   0.653
 9184SOL    HW138771   9.284   2.795   0.651
 9184SOL    HW238772   9.404   2.727   0.564
 9185SOL     OW38773   6.043   9.750   5.781
 9185SOL    HW138774   5.964   9.709   5.827
 9185SOL    HW238775   6.010   9.821   5.719
 9186SOL     OW38776   2.707   3.055   5.932
 9186SOL    HW138777   2.625   3.064   5.875
 9186SOL    HW238778   2.753   3.143   5.940
 9187SOL     OW38779   3.492   8.973   2.268
 9187SOL    HW138780   3.392   8.978   2.261
 9187SOL    HW238781   3.518   8.896   2.326
 9188SOL     OW38782   9.650   1.145   4.371
 9188SOL    HW138783   9.566   1.197   4.387
 9188SOL    HW238784   9.634   1.077   4.299
 9189SOL     OW38785   3.932   8.868   1.665
 9189SOL    HW138786   3.900   8.808   1.737
 9189SOL    HW238787   4.001   8.821   1.610
 9190SOL     OW38788   5.536   8.633   2.713
 9190SOL    HW138789   5.515   8.700   2.642
 9190SOL    HW238790   5.629   8.599   2.700
 9191SOL     OW38791   8.916   4.666   3.165
 9191SOL    HW138792   8.908   4.658   3.265
 9191SOL    HW238793   8.830   4.637   3.123
 9192SOL     OW38794   2.481   7.415   4.557
 9192SOL    HW138795   2.479   7.459   4.647
 9192SOL    HW238796   2.571   7.428   4.515
 9193SOL     OW38797   1.313   9.001   3.439
 9193SOL    HW138798   1.409   8.989   3.464
 9193SOL    HW238799   1.301   8.982   3.342
 9194SOL     OW38800   5.089   1.494   5.765
 9194SOL    HW138801   5.154   1.451   5.702
 9194SOL    HW238802   5.132   1.504   5.855
 9195SOL     OW38803   7.249   1.636   5.195
 9195SOL    HW138804   7.284   1.684   5.115
 9195SOL    HW238805   7.213   1.547   5.167
 9196SOL     OW38806   4.200   8.148   2.188
 9196SOL    HW138807   4.251   8.065   2.167
 9196SOL    HW238808   4.103   8.134   2.166
 9197SOL     OW38809   7.791   5.538   1.102
 9197SOL    HW138810   7.746   5.561   1.016
 9197SOL    HW238811   7.830   5.621   1.143
 9198SOL     OW38812   9.427   6.311   3.338
 9198SOL    HW138813   9.449   6.217   3.314
 9198SOL    HW238814   9.334   6.332   3.308
 9199SOL     OW38815   5.880   1.731   4.205
 9199SOL    HW138816   5.926   1.759   4.120
 9199SOL    HW238817   5.938   1.754   4.283
 9200SOL     OW38818   8.947   6.849   4.109
 9200SOL    HW138819   8.873   6.839   4.175
 9200SOL    HW238820   8.918   6.812   4.021
 9201SOL     OW38821   9.076   5.947   3.573
 9201SOL    HW138822   9.105   5.998   3.492
 9201SOL    HW238823   9.137   5.968   3.650
 9202SOL     OW38824   8.405   6.755   6.200
 9202SOL    HW138825   8.503   6.741   6.203
 9202SOL    HW238826   8.385   6.835   6.142
 9203SOL     OW38827   7.425   1.309   4.987
 9203SOL    HW138828   7.459   1.318   5.081
 9203SOL    HW238829   7.487   1.250   4.935
 9204SOL     OW38830   8.531   6.465   5.431
 9204SOL    HW138831   8.564   6.554   5.398
 9204SOL    HW238832   8.609   6.410   5.460
 9205SOL     OW38833   9.726   3.669   2.694
 9205SOL    HW138834   9.753   3.700   2.603
 9205SOL    HW238835   9.764   3.578   2.711
 9206SOL     OW38836   3.880   7.788   6.274
 9206SOL    HW138837   3.961   7.842   6.292
 9206SOL    HW238838   3.836   7.763   6.360
 9207SOL     OW38839   9.643   2.964   3.869
 9207SOL    HW138840   9.729   3.015   3.872
 9207SOL    HW238841   9.660   2.868   3.888
 9208SOL     OW38842   1.761   5.591   1.912
 9208SOL    HW138843   1.804   5.526   1.975
 9208SOL    HW238844   1.793   5.684   1.932
 9209SOL     OW38845   2.635   3.788   2.342
 9209SOL    HW138846   2.670   3.878   2.317
 9209SOL    HW238847   2.575   3.795   2.421
 9210SOL     OW38848   2.269   5.254   2.321
 9210SOL    HW138849   2.360   5.289   2.298
 9210SOL    HW238850   2.208   5.266   2.243
 9211SOL     OW38851   6.468   1.820   3.055
 9211SOL    HW138852   6.437   1.909   3.021
 9211SOL    HW238853   6.556   1.798   3.013
 9212SOL     OW38854   0.932   4.278   4.433
 9212SOL    HW138855   1.030   4.293   4.432
 9212SOL    HW238856   0.904   4.244   4.523
 9213SOL     OW38857   3.577   9.284   3.549
 9213SOL    HW138858   3.673   9.315   3.547
 9213SOL    HW238859   3.541   9.298   3.641
 9214SOL     OW38860   9.879   6.948   3.036
 9214SOL    HW138861   9.790   6.992   3.043
 9214SOL    HW238862   9.945   6.996   3.095
 9215SOL     OW38863   9.542   7.435   0.980
 9215SOL    HW138864   9.457   7.450   0.928
 9215SOL    HW238865   9.522   7.378   1.060
 9216SOL     OW38866   2.391   3.780   3.530
 9216SOL    HW138867   2.408   3.683   3.547
 9216SOL    HW238868   2.389   3.829   3.617
 9217SOL     OW38869   1.552   6.266   2.939
 9217SOL    HW138870   1.592   6.286   3.028
 9217SOL    HW238871   1.482   6.196   2.948
 9218SOL     OW38872   3.498   8.475   3.163
 9218SOL    HW138873   3.536   8.415   3.232
 9218SOL    HW238874   3.464   8.559   3.206
 9219SOL     OW38875   6.482   2.771   5.694
 9219SOL    HW138876   6.416   2.712   5.648
 9219SOL    HW238877   6.508   2.846   5.632
 9220SOL     OW38878   4.500   0.329   5.024
 9220SOL    HW138879   4.543   0.401   5.080
 9220SOL    HW238880   4.545   0.325   4.935
 9221SOL     OW38881   0.846   7.884   3.906
 9221SOL    HW138882   0.857   7.806   3.845
 9221SOL    HW238883   0.785   7.951   3.864
 9222SOL     OW38884   0.340   7.844   6.389
 9222SOL    HW138885   0.291   7.784   6.452
 9222SOL    HW238886   0.399   7.906   6.441
 9223SOL     OW38887   8.324   4.761   0.960
 9223SOL    HW138888   8.368   4.715   0.883
 9223SOL    HW238889   8.225   4.745   0.955
 9224SOL     OW38890   0.145   1.056   2.326
 9224SOL    HW138891   0.105   1.119   2.259
 9224SOL    HW238892   0.213   0.998   2.280
 9225SOL     OW38893   8.628   0.829   2.776
 9225SOL    HW138894   8.683   0.798   2.854
 9225SOL    HW238895   8.569   0.904   2.805
 9226SOL     OW38896   3.161   2.124   1.104
 9226SOL    HW138897   3.159   2.211   1.154
 9226SOL    HW238898   3.191   2.051   1.166
 9227SOL     OW38899   7.801   5.229   6.342
 9227SOL    HW138900   7.875   5.256   6.403
 9227SOL    HW238901   7.830   5.150   6.288
 9228SOL     OW38902   5.105   1.052   5.825
 9228SOL    HW138903   5.014   1.035   5.787
 9228SOL    HW238904   5.160   0.968   5.818
 9229SOL     OW38905   3.792   7.022   2.124
 9229SOL    HW138906   3.765   6.951   2.189
 9229SOL    HW238907   3.866   6.988   2.066
 9230SOL     OW38908   8.974   4.685   4.257
 9230SOL    HW138909   8.960   4.603   4.312
 9230SOL    HW238910   8.977   4.661   4.160
 9231SOL     OW38911   6.273   4.859   1.323
 9231SOL    HW138912   6.282   4.950   1.365
 9231SOL    HW238913   6.335   4.795   1.369
 9232SOL     OW38914   1.606   5.556   0.267
 9232SOL    HW138915   1.544   5.489   0.226
 9232SOL    HW238916   1.632   5.527   0.359
 9233SOL     OW38917   4.135   7.729   2.260
 9233SOL    HW138918   4.187   7.667   2.201
 9233SOL    HW238919   4.071   7.675   2.316
 9234SOL     OW38920   7.794   1.282   0.232
 9234SOL    HW138921   7.739   1.361   0.257
 9234SOL    HW238922   7.885   1.313   0.202
 9235SOL     OW38923   5.206   1.876   3.246
 9235SOL    HW138924   5.250   1.823   3.319
 9235SOL    HW238925   5.252   1.859   3.159
 9236SOL     OW38926   5.047   5.562   1.098
 9236SOL    HW138927   5.131   5.588   1.051
 9236SOL    HW238928   5.051   5.465   1.123
 9237SOL     OW38929   4.383   6.406   1.413
 9237SOL    HW138930   4.403   6.358   1.328
 9237SOL    HW238931   4.286   6.432   1.414
 9238SOL     OW38932   4.041   9.062   4.708
 9238SOL    HW138933   4.013   9.148   4.752
 9238SOL    HW238934   4.077   9.000   4.777
 9239SOL     OW38935   3.602   8.245   4.319
 9239SOL    HW138936   3.555   8.258   4.407
 9239SOL    HW238937   3.595   8.329   4.265
 9240SOL     OW38938   6.178   8.753   3.445
 9240SOL    HW138939   6.140   8.763   3.353
 9240SOL    HW238940   6.172   8.657   3.474
 9241SOL     OW38941   8.152   3.048   1.333
 9241SOL    HW138942   8.143   2.996   1.419
 9241SOL    HW238943   8.219   3.003   1.274
 9242SOL     OW38944   9.932   0.217   3.528
 9242SOL    HW138945   9.919   0.122   3.557
 9242SOL    HW238946   9.989   0.219   3.445
 9243SOL     OW38947   4.731   0.341   0.709
 9243SOL    HW138948   4.758   0.431   0.743
 9243SOL    HW238949   4.724   0.277   0.785
 9244SOL     OW38950   5.549   1.182   1.421
 9244SOL    HW138951   5.562   1.125   1.341
 9244SOL    HW238952   5.472   1.148   1.475
 9245SOL     OW38953   4.579   1.665   1.629
 9245SOL    HW138954   4.594   1.736   1.560
 9245SOL    HW238955   4.662   1.610   1.639
 9246SOL     OW38956   1.036   1.738   1.226
 9246SOL    HW138957   0.967   1.809   1.234
 9246SOL    HW238958   1.093   1.737   1.308
 9247SOL     OW38959   0.690   1.735   0.189
 9247SOL    HW138960   0.635   1.763   0.110
 9247SOL    HW238961   0.783   1.769   0.178
 9248SOL     OW38962   1.598   5.325   3.835
 9248SOL    HW138963   1.616   5.423   3.839
 9248SOL    HW238964   1.528   5.306   3.766
 9249SOL     OW38965   7.609   5.809   4.805
 9249SOL    HW138966   7.627   5.864   4.887
 9249SOL    HW238967   7.673   5.732   4.803
 9250SOL     OW38968   8.359   7.212   0.805
 9250SOL    HW138969   8.441   7.157   0.788
 9250SOL    HW238970   8.318   7.238   0.717
 9251SOL     OW38971   0.615   3.103   0.864
 9251SOL    HW138972   0.557   3.105   0.946
 9251SOL    HW238973   0.710   3.091   0.891
 9252SOL     OW38974   3.184   1.695   5.195
 9252SOL    HW138975   3.166   1.628   5.123
 9252SOL    HW238976   3.274   1.679   5.235
 9253SOL     OW38977   5.404   4.802   1.291
 9253SOL    HW138978   5.499   4.776   1.307
 9253SOL    HW238979   5.358   4.815   1.379
 9254SOL     OW38980   2.082   9.396   1.720
 9254SOL    HW138981   2.065   9.368   1.626
 9254SOL    HW238982   2.014   9.464   1.748
 9255SOL     OW38983   2.514   8.258   5.398
 9255SOL    HW138984   2.450   8.212   5.336
 9255SOL    HW238985   2.584   8.305   5.345
 9256SOL     OW38986   8.731   5.970   2.837
 9256SOL    HW138987   8.801   5.905   2.867
 9256SOL    HW238988   8.769   6.029   2.765
 9257SOL     OW38989   9.001   8.656   3.775
 9257SOL    HW138990   9.048   8.647   3.688
 9257SOL    HW238991   8.958   8.747   3.780
 9258SOL     OW38992   8.896   1.313   4.541
 9258SOL    HW138993   8.990   1.340   4.559
 9258SOL    HW238994   8.837   1.394   4.544
 9259SOL     OW38995   3.124   9.570   0.901
 9259SOL    HW138996   3.210   9.606   0.936
 9259SOL    HW238997   3.133   9.552   0.803
 9260SOL     OW38998   4.798   8.956   2.520
 9260SOL    HW138999   4.713   8.971   2.469
 9260SOL    HW239000   4.840   8.870   2.489
 9261SOL     OW39001   6.220   0.927   8.115
 9261SOL    HW139002   6.260   0.844   8.155
 9261SOL    HW239003   6.202   0.912   8.018
 9262SOL     OW39004   7.903   3.130   3.953
 9262SOL    HW139005   7.920   3.158   4.048
 9262SOL    HW239006   7.986   3.091   3.914
 9263SOL     OW39007   6.744   7.305   3.615
 9263SOL    HW139008   6.773   7.226   3.561
 9263SOL    HW239009   6.823   7.364   3.633
 9264SOL     OW39010   0.283   6.633   2.560
 9264SOL    HW139011   0.357   6.699   2.544
 9264SOL    HW239012   0.294   6.592   2.650
 9265SOL     OW39013   0.182   6.330   0.701
 9265SOL    HW139014   0.154   6.257   0.638
 9265SOL    HW239015   0.233   6.400   0.651
 9266SOL     OW39016   2.098   2.053   1.914
 9266SOL    HW139017   2.187   2.098   1.924
 9266SOL    HW239018   2.068   2.021   2.004
 9267SOL     OW39019   1.338   2.929   6.231
 9267SOL    HW139020   1.436   2.916   6.250
 9267SOL    HW239021   1.285   2.870   6.293
 9268SOL     OW39022   0.428   1.697   2.118
 9268SOL    HW139023   0.411   1.629   2.047
 9268SOL    HW239024   0.438   1.788   2.076
 9269SOL     OW39025   3.174   9.803   0.046
 9269SOL    HW139026   3.155   9.804   8.136
 9269SOL    HW239027   3.258   9.853   0.065
 9270SOL     OW39028   0.213   5.135   2.806
 9270SOL    HW139029   0.294   5.177   2.765
 9270SOL    HW239030   0.231   5.118   2.903
 9271SOL     OW39031   7.140   9.752   6.181
 9271SOL    HW139032   7.207   9.824   6.162
 9271SOL    HW239033   7.050   9.793   6.195
 9272SOL     OW39034   4.337   1.922   1.511
 9272SOL    HW139035   4.310   1.909   1.607
 9272SOL    HW239036   4.281   1.863   1.453
 9273SOL     OW39037   4.799   2.862   4.058
 9273SOL    HW139038   4.887   2.866   4.106
 9273SOL    HW239039   4.728   2.836   4.123
 9274SOL     OW39040   5.052   2.709   5.025
 9274SOL    HW139041   5.086   2.668   4.941
 9274SOL    HW239042   5.104   2.673   5.103
 9275SOL     OW39043   9.283   9.968   2.015
 9275SOL    HW139044   9.200   9.914   2.008
 9275SOL    HW239045   9.354   9.929   1.956
 9276SOL     OW39046   4.100   4.991   0.073
 9276SOL    HW139047   4.195   4.996   0.104
 9276SOL    HW239048   4.094   5.018   8.165
 9277SOL     OW39049   1.842   7.468   2.604
 9277SOL    HW139050   1.933   7.506   2.593
 9277SOL    HW239051   1.812   7.481   2.699
 9278SOL     OW39052   4.687   5.527   1.497
 9278SOL    HW139053   4.625   5.589   1.448
 9278SOL    HW239054   4.649   5.435   1.496
 9279SOL     OW39055   3.329   1.133   0.454
 9279SOL    HW139056   3.419   1.159   0.488
 9279SOL    HW239057   3.271   1.214   0.446
 9280SOL     OW39058   1.748   6.950   4.058
 9280SOL    HW139059   1.742   6.992   3.967
 9280SOL    HW239060   1.668   6.891   4.072
 9281SOL     OW39061   7.202   2.154   1.596
 9281SOL    HW139062   7.159   2.185   1.681
 9281SOL    HW239063   7.151   2.076   1.560
 9282SOL     OW39064   8.035   4.527   4.537
 9282SOL    HW139065   8.072   4.578   4.460
 9282SOL    HW239066   8.035   4.584   4.619
 9283SOL     OW39067   1.578   5.835   0.301
 9283SOL    HW139068   1.584   5.735   0.300
 9283SOL    HW239069   1.660   5.874   0.261
 9284SOL     OW39070   2.679   5.317   0.899
 9284SOL    HW139071   2.751   5.342   0.964
 9284SOL    HW239072   2.715   5.251   0.833
 9285SOL     OW39073   2.773   5.915   2.196
 9285SOL    HW139074   2.867   5.881   2.194
 9285SOL    HW239075   2.722   5.869   2.268
 9286SOL     OW39076   4.855   1.709   0.089
 9286SOL    HW139077   4.819   1.705   8.184
 9286SOL    HW239078   4.882   1.803   0.111
 9287SOL     OW39079   0.131   9.012   3.467
 9287SOL    HW139080   0.195   8.970   3.531
 9287SOL    HW239081   0.097   8.943   3.403
 9288SOL     OW39082   9.960   9.219   3.770
 9288SOL    HW139083   9.891   9.290   3.784
 9288SOL    HW239084   9.939   9.140   3.828
 9289SOL     OW39085   8.617   1.425   1.069
 9289SOL    HW139086   8.657   1.410   1.160
 9289SOL    HW239087   8.518   1.413   1.074
 9290SOL     OW39088   9.236   3.634   1.546
 9290SOL    HW139089   9.309   3.622   1.613
 9290SOL    HW239090   9.206   3.545   1.513
 9291SOL     OW39091   5.527   2.272   3.920
 9291SOL    HW139092   5.524   2.270   4.020
 9291SOL    HW239093   5.433   2.274   3.884
 9292SOL     OW39094   4.431   5.666   1.167
 9292SOL    HW139095   4.351   5.722   1.149
 9292SOL    HW239096   4.471   5.690   1.255
 9293SOL     OW39097   3.754   2.026   3.543
 9293SOL    HW139098   3.777   2.069   3.630
 9293SOL    HW239099   3.663   1.985   3.549
 9294SOL     OW39100   8.126   6.209   3.211
 9294SOL    HW139101   8.166   6.300   3.221
 9294SOL    HW239102   8.093   6.197   3.117
 9295SOL     OW39103   7.715   5.533   1.749
 9295SOL    HW139104   7.669   5.621   1.732
 9295SOL    HW239105   7.798   5.528   1.694
 9296SOL     OW39106   8.119   5.385   2.945
 9296SOL    HW139107   8.153   5.479   2.941
 9296SOL    HW239108   8.025   5.382   2.910
 9297SOL     OW39109   0.999   6.473   2.242
 9297SOL    HW139110   1.084   6.484   2.294
 9297SOL    HW239111   0.988   6.551   2.180
 9298SOL     OW39112   5.179   3.925   0.331
 9298SOL    HW139113   5.263   3.974   0.355
 9298SOL    HW239114   5.124   3.981   0.270
 9299SOL     OW39115   8.769   4.131   2.565
 9299SOL    HW139116   8.777   4.230   2.577
 9299SOL    HW239117   8.685   4.098   2.607
 9300SOL     OW39118   5.206   0.127   2.946
 9300SOL    HW139119   5.299   0.105   2.974
 9300SOL    HW239120   5.144   0.055   2.976
 9301SOL     OW39121   2.670   3.987   5.271
 9301SOL    HW139122   2.581   3.974   5.314
 9301SOL    HW239123   2.661   4.053   5.196
 9302SOL     OW39124   5.040   2.508   4.036
 9302SOL    HW139125   4.971   2.521   4.106
 9302SOL    HW239126   5.001   2.457   3.959
 9303SOL     OW39127   7.875   7.595   3.190
 9303SOL    HW139128   7.952   7.570   3.249
 9303SOL    HW239129   7.899   7.577   3.095
 9304SOL     OW39130   0.279   7.306   6.057
 9304SOL    HW139131   0.288   7.243   5.980
 9304SOL    HW239132   0.323   7.393   6.034
 9305SOL     OW39133   9.183   9.523   6.384
 9305SOL    HW139134   9.129   9.506   6.301
 9305SOL    HW239135   9.256   9.456   6.391
 9306SOL     OW39136   8.296   2.845   0.297
 9306SOL    HW139137   8.242   2.760   0.299
 9306SOL    HW239138   8.383   2.828   0.252
 9307SOL     OW39139   3.460   1.072   1.396
 9307SOL    HW139140   3.476   1.146   1.330
 9307SOL    HW239141   3.495   0.986   1.358
 9308SOL     OW39142   2.073   4.493   3.129
 9308SOL    HW139143   2.037   4.551   3.056
 9308SOL    HW239144   2.065   4.397   3.101
 9309SOL     OW39145   9.379   3.594   4.114
 9309SOL    HW139146   9.300   3.567   4.170
 9309SOL    HW239147   9.358   3.680   4.066
 9310SOL     OW39148   2.827   0.251   5.227
 9310SOL    HW139149   2.778   0.171   5.192
 9310SOL    HW239150   2.891   0.284   5.157
 9311SOL     OW39151   4.981   8.340   3.561
 9311SOL    HW139152   4.983   8.372   3.656
 9311SOL    HW239153   4.895   8.366   3.519
 9312SOL     OW39154   1.572   6.967   4.940
 9312SOL    HW139155   1.479   6.941   4.915
 9312SOL    HW239156   1.599   7.049   4.889
 9313SOL     OW39157   9.623   3.695   4.795
 9313SOL    HW139158   9.681   3.614   4.792
 9313SOL    HW239159   9.669   3.766   4.849
 9314SOL     OW39160   1.927   3.742   1.032
 9314SOL    HW139161   1.903   3.718   0.938
 9314SOL    HW239162   2.020   3.709   1.052
 9315SOL     OW39163   7.450   3.730   1.569
 9315SOL    HW139164   7.502   3.645   1.573
 9315SOL    HW239165   7.361   3.717   1.613
 9316SOL     OW39166   7.779   7.909   4.410
 9316SOL    HW139167   7.719   7.925   4.331
 9316SOL    HW239168   7.790   7.810   4.424
 9317SOL     OW39169   0.388   2.440   0.510
 9317SOL    HW139170   0.348   2.458   0.600
 9317SOL    HW239171   0.389   2.525   0.457
 9318SOL     OW39172   0.786   8.515   5.598
 9318SOL    HW139173   0.828   8.605   5.612
 9318SOL    HW239174   0.782   8.495   5.500
 9319SOL     OW39175   3.741   7.791   0.701
 9319SOL    HW139176   3.718   7.694   0.712
 9319SOL    HW239177   3.688   7.845   0.766
 9320SOL     OW39178   8.683   0.573   4.315
 9320SOL    HW139179   8.775   0.594   4.348
 9320SOL    HW239180   8.662   0.631   4.237
 9321SOL     OW39181   9.283   4.737   1.321
 9321SOL    HW139182   9.269   4.640   1.343
 9321SOL    HW239183   9.259   4.754   1.226
 9322SOL     OW39184   3.180   3.830   6.314
 9322SOL    HW139185   3.267   3.830   6.264
 9322SOL    HW239186   3.132   3.916   6.297
 9323SOL     OW39187   7.491   2.902   2.638
 9323SOL    HW139188   7.490   2.803   2.624
 9323SOL    HW239189   7.409   2.930   2.688
 9324SOL     OW39190   4.199   6.341   3.820
 9324SOL    HW139191   4.237   6.277   3.754
 9324SOL    HW239192   4.104   6.315   3.840
 9325SOL     OW39193   9.989   8.243   2.430
 9325SOL    HW139194   9.927   8.220   2.506
 9325SOL    HW239195   9.983   8.172   2.360
 9326SOL     OW39196   2.871   9.869   0.775
 9326SOL    HW139197   2.967   9.881   0.801
 9326SOL    HW239198   2.840   9.949   0.724
 9327SOL     OW39199   0.429   7.367   0.983
 9327SOL    HW139200   0.419   7.376   0.884
 9327SOL    HW239201   0.503   7.426   1.014
 9328SOL     OW39202   1.330   3.283   0.204
 9328SOL    HW139203   1.356   3.380   0.203
 9328SOL    HW239204   1.237   3.273   0.169
 9329SOL     OW39205   3.746   0.457   5.086
 9329SOL    HW139206   3.832   0.442   5.039
 9329SOL    HW239207   3.723   0.555   5.083
 9330SOL     OW39208   9.025   3.542   3.407
 9330SOL    HW139209   9.030   3.505   3.500
 9330SOL    HW239210   9.096   3.612   3.395
 9331SOL     OW39211   4.208   0.720   0.266
 9331SOL    HW139212   4.264   0.798   0.240
 9331SOL    HW239213   4.223   0.645   0.201
 9332SOL     OW39214   9.497   2.797   0.421
 9332SOL    HW139215   9.438   2.873   0.395
 9332SOL    HW239216   9.538   2.757   0.339
 9333SOL     OW39217   9.652   7.692   0.898
 9333SOL    HW139218   9.607   7.611   0.935
 9333SOL    HW239219   9.752   7.680   0.905
 9334SOL     OW39220   7.802   9.558   1.786
 9334SOL    HW139221   7.815   9.492   1.861
 9334SOL    HW239222   7.706   9.584   1.781
 9335SOL     OW39223   0.447   8.896   4.373
 9335SOL    HW139224   0.508   8.895   4.452
 9335SOL    HW239225   0.442   8.989   4.336
 9336SOL     OW39226   7.750   2.868   2.373
 9336SOL    HW139227   7.783   2.870   2.467
 9336SOL    HW239228   7.679   2.937   2.361
 9337SOL     OW39229   9.170   2.081   1.361
 9337SOL    HW139230   9.144   2.036   1.275
 9337SOL    HW239231   9.123   2.036   1.437
 9338SOL     OW39232   2.225   8.697   3.803
 9338SOL    HW139233   2.137   8.736   3.775
 9338SOL    HW239234   2.218   8.663   3.897
 9339SOL     OW39235   1.955   4.950   3.938
 9339SOL    HW139236   1.869   4.981   3.898
 9339SOL    HW239237   2.027   5.016   3.916
 9340SOL     OW39238   0.870   3.564   3.226
 9340SOL    HW139239   0.814   3.646   3.237
 9340SOL    HW239240   0.944   3.565   3.292
 9341SOL     OW39241   8.722   7.585   2.254
 9341SOL    HW139242   8.658   7.646   2.206
 9341SOL    HW239243   8.811   7.630   2.262
 9342SOL     OW39244   2.137   9.814   0.671
 9342SOL    HW139245   2.040   9.838   0.662
 9342SOL    HW239246   2.171   9.845   0.760
 9343SOL     OW39247   3.922   6.036   3.647
 9343SOL    HW139248   3.841   5.992   3.607
 9343SOL    HW239249   3.976   6.078   3.574
 9344SOL     OW39250   1.932   0.205   3.067
 9344SOL    HW139251   1.959   0.268   2.994
 9344SOL    HW239252   1.880   0.129   3.027
 9345SOL     OW39253   0.973   5.289   5.806
 9345SOL    HW139254   1.035   5.354   5.763
 9345SOL    HW239255   1.027   5.214   5.845
 9346SOL     OW39256   7.458   2.152   6.295
 9346SOL    HW139257   7.463   2.062   6.252
 9346SOL    HW239258   7.414   2.217   6.233
 9347SOL     OW39259   5.475   4.804   0.828
 9347SOL    HW139260   5.506   4.714   0.798
 9347SOL    HW239261   5.454   4.860   0.749
 9348SOL     OW39262   4.456   7.477   5.145
 9348SOL    HW139263   4.398   7.399   5.120
 9348SOL    HW239264   4.548   7.445   5.167
 9349SOL     OW39265   7.437   8.659   4.791
 9349SOL    HW139266   7.427   8.683   4.695
 9349SOL    HW239267   7.364   8.595   4.817
 9350SOL     OW39268   4.201   8.181   3.833
 9350SOL    HW139269   4.279   8.154   3.777
 9350SOL    HW239270   4.224   8.263   3.885
 9351SOL     OW39271   0.163   4.672   6.351
 9351SOL    HW139272   0.127   4.587   6.390
 9351SOL    HW239273   0.138   4.677   6.254
 9352SOL     OW39274   0.547   8.501   4.030
 9352SOL    HW139275   0.524   8.595   4.056
 9352SOL    HW239276   0.641   8.481   4.058
 9353SOL     OW39277   8.665   0.864   1.911
 9353SOL    HW139278   8.728   0.909   1.974
 9353SOL    HW239279   8.714   0.835   1.829
 9354SOL     OW39280   0.580   5.737   4.054
 9354SOL    HW139281   0.590   5.660   4.117
 9354SOL    HW239282   0.522   5.807   4.095
 9355SOL     OW39283   4.194   5.419   2.037
 9355SOL    HW139284   4.201   5.373   2.126
 9355SOL    HW239285   4.128   5.494   2.044
 9356SOL     OW39286   3.798   1.378   2.330
 9356SOL    HW139287   3.836   1.315   2.398
 9356SOL    HW239288   3.827   1.350   2.239
 9357SOL     OW39289   9.717   1.110   3.610
 9357SOL    HW139290   9.760   1.032   3.655
 9357SOL    HW239291   9.618   1.096   3.606
 9358SOL     OW39292   6.066   1.255   0.320
 9358SOL    HW139293   6.119   1.198   0.258
 9358SOL    HW239294   6.111   1.259   0.409
 9359SOL     OW39295   6.904   8.927   2.547
 9359SOL    HW139296   6.919   8.963   2.455
 9359SOL    HW239297   6.886   9.003   2.610
 9360SOL     OW39298   6.813   9.664   2.789
 9360SOL    HW139299   6.801   9.716   2.874
 9360SOL    HW239300   6.866   9.582   2.807
 9361SOL     OW39301   7.906   5.417   1.343
 9361SOL    HW139302   7.877   5.436   1.249
 9361SOL    HW239303   7.963   5.335   1.345
 9362SOL     OW39304   4.671   8.917   5.690
 9362SOL    HW139305   4.611   8.837   5.700
 9362SOL    HW239306   4.720   8.933   5.776
 9363SOL     OW39307   4.271   8.541   3.311
 9363SOL    HW139308   4.356   8.595   3.316
 9363SOL    HW239309   4.246   8.509   3.402
 9364SOL     OW39310   5.364   1.741   3.440
 9364SOL    HW139311   5.418   1.820   3.471
 9364SOL    HW239312   5.426   1.672   3.403
 9365SOL     OW39313   7.050   1.363   3.506
 9365SOL    HW139314   7.090   1.274   3.482
 9365SOL    HW239315   7.116   1.415   3.560
 9366SOL     OW39316   3.925   7.354   1.323
 9366SOL    HW139317   3.880   7.276   1.280
 9366SOL    HW239318   4.023   7.338   1.327
 9367SOL     OW39319   8.758   5.943   4.890
 9367SOL    HW139320   8.682   5.994   4.850
 9367SOL    HW239321   8.772   5.858   4.840
 9368SOL     OW39322   4.439   9.883   1.844
 9368SOL    HW139323   4.345   9.851   1.828
 9368SOL    HW239324   4.493   9.809   1.884
 9369SOL     OW39325   3.197   8.899   1.020
 9369SOL    HW139326   3.252   8.819   0.997
 9369SOL    HW239327   3.117   8.871   1.072
 9370SOL     OW39328   3.349   3.203   2.444
 9370SOL    HW139329   3.371   3.300   2.445
 9370SOL    HW239330   3.252   3.190   2.424
 9371SOL     OW39331   3.735   6.391   2.948
 9371SOL    HW139332   3.699   6.469   2.999
 9371SOL    HW239333   3.680   6.376   2.866
 9372SOL     OW39334   0.702   2.301   5.885
 9372SOL    HW139335   0.775   2.240   5.916
 9372SOL    HW239336   0.740   2.391   5.866
 9373SOL     OW39337   0.468   6.823   2.784
 9373SOL    HW139338   0.483   6.828   2.685
 9373SOL    HW239339   0.539   6.876   2.831
 9374SOL     OW39340   6.608   9.100   5.823
 9374SOL    HW139341   6.510   9.082   5.824
 9374SOL    HW239342   6.657   9.015   5.800
 9375SOL     OW39343   0.561   9.576   1.776
 9375SOL    HW139344   0.588   9.622   1.861
 9375SOL    HW239345   0.560   9.477   1.790
 9376SOL     OW39346   4.741   1.667   3.945
 9376SOL    HW139347   4.828   1.693   3.986
 9376SOL    HW239348   4.731   1.567   3.948
 9377SOL     OW39349   0.881   2.623   0.951
 9377SOL    HW139350   0.850   2.706   0.905
 9377SOL    HW239351   0.980   2.627   0.963
 9378SOL     OW39352   7.681   0.485   0.788
 9378SOL    HW139353   7.652   0.438   0.872
 9378SOL    HW239354   7.611   0.473   0.718
 9379SOL     OW39355   1.793   0.584   3.062
 9379SOL    HW139356   1.851   0.532   3.125
 9379SOL    HW239357   1.732   0.522   3.014
 9380SOL     OW39358   4.227   0.766   2.796
 9380SOL    HW139359   4.258   0.709   2.871
 9380SOL    HW239360   4.306   0.797   2.742
 9381SOL     OW39361   4.416   7.151   4.045
 9381SOL    HW139362   4.490   7.083   4.053
 9381SOL    HW239363   4.348   7.119   3.980
 9382SOL     OW39364   0.753   6.600   2.012
 9382SOL    HW139365   0.692   6.535   2.057
 9382SOL    HW239366   0.701   6.682   1.988
 9383SOL     OW39367   3.572   6.128   2.316
 9383SOL    HW139368   3.530   6.107   2.227
 9383SOL    HW239369   3.664   6.163   2.302
 9384SOL     OW39370   2.171   9.550   3.010
 9384SOL    HW139371   2.131   9.466   2.974
 9384SOL    HW239372   2.168   9.549   3.110
 9385SOL     OW39373   2.325   5.936   6.119
 9385SOL    HW139374   2.326   5.994   6.201
 9385SOL    HW239375   2.243   5.879   6.119
 9386SOL     OW39376   7.950   6.821   3.816
 9386SOL    HW139377   7.902   6.733   3.827
 9386SOL    HW239378   7.963   6.839   3.719
 9387SOL     OW39379   9.274   1.401   0.319
 9387SOL    HW139380   9.204   1.468   0.343
 9387SOL    HW239381   9.355   1.416   0.375
 9388SOL     OW39382   1.459   8.583   2.480
 9388SOL    HW139383   1.456   8.534   2.567
 9388SOL    HW239384   1.407   8.532   2.411
 9389SOL     OW39385   4.846   1.288   1.257
 9389SOL    HW139386   4.833   1.279   1.158
 9389SOL    HW239387   4.780   1.354   1.293
 9390SOL     OW39388   9.769   9.982   3.954
 9390SOL    HW139389   9.681   9.965   3.911
 9390SOL    HW239390   9.802   0.073   3.929
 9391SOL     OW39391   0.272   5.508   0.138
 9391SOL    HW139392   0.260   5.448   0.059
 9391SOL    HW239393   0.261   5.454   0.222
 9392SOL     OW39394   5.015   1.816   2.215
 9392SOL    HW139395   4.936   1.857   2.169
 9392SOL    HW239396   5.015   1.842   2.312
 9393SOL     OW39397   8.026   2.621   4.505
 9393SOL    HW139398   8.010   2.692   4.437
 9393SOL    HW239399   8.117   2.581   4.490
 9394SOL     OW39400   8.286   1.546   0.181
 9394SOL    HW139401   8.314   1.587   0.268
 9394SOL    HW239402   8.364   1.497   0.141
 9395SOL     OW39403   4.804   3.863   6.211
 9395SOL    HW139404   4.744   3.783   6.211
 9395SOL    HW239405   4.756   3.941   6.249
 9396SOL     OW39406   3.515   7.918   4.745
 9396SOL    HW139407   3.440   7.866   4.785
 9396SOL    HW239408   3.524   7.894   4.648
 9397SOL     OW39409   7.786   3.641   0.568
 9397SOL    HW139410   7.821   3.595   0.486
 9397SOL    HW239411   7.746   3.574   0.630
 9398SOL     OW39412   9.668   2.137   0.426
 9398SOL    HW139413   9.637   2.155   0.332
 9398SOL    HW239414   9.756   2.181   0.441
 9399SOL     OW39415   3.368   7.677   0.187
 9399SOL    HW139416   3.375   7.729   0.101
 9399SOL    HW239417   3.337   7.584   0.167
 9400SOL     OW39418   7.776   5.561   5.096
 9400SOL    HW139419   7.769   5.578   4.998
 9400SOL    HW239420   7.717   5.625   5.145
 9401SOL     OW39421   1.349   6.593   4.050
 9401SOL    HW139422   1.266   6.575   3.998
 9401SOL    HW239423   1.338   6.557   4.143
 9402SOL     OW39424   9.875   8.228   3.989
 9402SOL    HW139425   9.813   8.150   4.002
 9402SOL    HW239426   9.841   8.285   3.913
 9403SOL     OW39427   3.874   3.654   1.431
 9403SOL    HW139428   3.804   3.683   1.497
 9403SOL    HW239429   3.961   3.696   1.455
 9404SOL     OW39430   1.357   4.985   3.643
 9404SOL    HW139431   1.266   4.948   3.625
 9404SOL    HW239432   1.415   4.972   3.562
 9405SOL     OW39433   2.821   4.813   6.325
 9405SOL    HW139434   2.724   4.808   6.348
 9405SOL    HW239435   2.855   4.906   6.341
 9406SOL     OW39436   3.593   9.107   1.100
 9406SOL    HW139437   3.635   9.016   1.094
 9406SOL    HW239438   3.496   9.098   1.120
 9407SOL     OW39439   7.692   1.936   0.596
 9407SOL    HW139440   7.725   1.938   0.502
 9407SOL    HW239441   7.664   1.842   0.619
 9408SOL     OW39442   2.819   7.641   5.969
 9408SOL    HW139443   2.738   7.661   5.913
 9408SOL    HW239444   2.861   7.556   5.939
 9409SOL     OW39445   8.809   4.607   1.430
 9409SOL    HW139446   8.838   4.700   1.410
 9409SOL    HW239447   8.880   4.561   1.485
 9410SOL     OW39448   1.804   0.317   0.926
 9410SOL    HW139449   1.756   0.244   0.878
 9410SOL    HW239450   1.738   0.381   0.965
 9411SOL     OW39451   8.237   8.873   4.049
 9411SOL    HW139452   8.331   8.886   4.080
 9411SOL    HW239453   8.185   8.957   4.064
 9412SOL     OW39454   7.052   1.003   3.918
 9412SOL    HW139455   7.062   0.993   4.017
 9412SOL    HW239456   7.107   1.079   3.886
 9413SOL     OW39457   3.115   5.592   0.403
 9413SOL    HW139458   3.154   5.508   0.365
 9413SOL    HW239459   3.189   5.658   0.421
 9414SOL     OW39460   7.628   4.219   3.296
 9414SOL    HW139461   7.550   4.223   3.234
 9414SOL    HW239462   7.614   4.146   3.363
 9415SOL     OW39463   7.686   1.522   3.372
 9415SOL    HW139464   7.672   1.619   3.350
 9415SOL    HW239465   7.604   1.487   3.417
 9416SOL     OW39466   2.450   4.474   3.681
 9416SOL    HW139467   2.515   4.399   3.664
 9416SOL    HW239468   2.375   4.468   3.615
 9417SOL     OW39469   8.610   9.050   4.353
 9417SOL    HW139470   8.584   9.106   4.432
 9417SOL    HW239471   8.705   9.071   4.327
 9418SOL     OW39472   2.351   0.896   3.907
 9418SOL    HW139473   2.424   0.919   3.844
 9418SOL    HW239474   2.288   0.973   3.916
 9419SOL     OW39475   0.185   0.212   0.167
 9419SOL    HW139476   0.087   0.204   0.185
 9419SOL    HW239477   0.208   0.307   0.149
 9420SOL     OW39478   4.785   4.073   1.390
 9420SOL    HW139479   4.791   4.170   1.367
 9420SOL    HW239480   4.814   4.059   1.484
 9421SOL     OW39481   9.829   4.289   4.576
 9421SOL    HW139482   9.921   4.306   4.541
 9421SOL    HW239483   9.807   4.192   4.565
 9422SOL     OW39484   9.994   2.258   3.864
 9422SOL    HW139485   9.943   2.339   3.836
 9422SOL    HW239486   0.019   2.265   3.960
 9423SOL     OW39487   7.940   7.224   4.718
 9423SOL    HW139488   8.021   7.269   4.680
 9423SOL    HW239489   7.865   7.290   4.724
 9424SOL     OW39490   3.385   5.191   5.528
 9424SOL    HW139491   3.346   5.154   5.443
 9424SOL    HW239492   3.319   5.252   5.571
 9425SOL     OW39493   3.191   7.611   0.398
 9425SOL    HW139494   3.261   7.628   0.328
 9425SOL    HW239495   3.100   7.620   0.357
 9426SOL     OW39496   3.605   1.137   3.113
 9426SOL    HW139497   3.671   1.070   3.147
 9426SOL    HW239498   3.545   1.164   3.188
 9427SOL     OW39499   0.896   1.046   1.181
 9427SOL    HW139500   0.905   1.145   1.174
 9427SOL    HW239501   0.977   1.008   1.226
 9428SOL     OW39502   2.531   7.603   1.992
 9428SOL    HW139503   2.623   7.617   1.957
 9428SOL    HW239504   2.515   7.505   2.007
 9429SOL     OW39505   2.930   9.136   2.422
 9429SOL    HW139506   2.894   9.057   2.471
 9429SOL    HW239507   3.019   9.161   2.459
 9430SOL     OW39508   2.695   1.765   4.921
 9430SOL    HW139509   2.738   1.703   4.987
 9430SOL    HW239510   2.762   1.832   4.890
 9431SOL     OW39511   4.579   6.138   1.450
 9431SOL    HW139512   4.565   6.215   1.512
 9431SOL    HW239513   4.677   6.129   1.430
 9432SOL     OW39514   5.908   0.131   4.995
 9432SOL    HW139515   5.939   0.226   4.997
 9432SOL    HW239516   5.939   0.084   5.077
 9433SOL     OW39517   0.118   5.851   3.456
 9433SOL    HW139518   0.080   5.840   3.364
 9433SOL    HW239519   0.058   5.910   3.510
 9434SOL     OW39520   3.255   2.765   0.468
 9434SOL    HW139521   3.159   2.752   0.495
 9434SOL    HW239522   3.288   2.683   0.421
 9435SOL     OW39523   2.592   0.817   5.502
 9435SOL    HW139524   2.661   0.885   5.530
 9435SOL    HW239525   2.637   0.743   5.453
 9436SOL     OW39526   5.546   9.357   2.837
 9436SOL    HW139527   5.450   9.382   2.851
 9436SOL    HW239528   5.603   9.405   2.903
 9437SOL     OW39529   9.705   7.309   3.056
 9437SOL    HW139530   9.685   7.211   3.057
 9437SOL    HW239531   9.626   7.360   3.090
 9438SOL     OW39532   8.195   0.915   1.777
 9438SOL    HW139533   8.272   0.977   1.792
 9438SOL    HW239534   8.147   0.900   1.863
 9439SOL     OW39535   5.822   3.772   0.986
 9439SOL    HW139536   5.797   3.695   1.045
 9439SOL    HW239537   5.917   3.764   0.958
 9440SOL     OW39538   7.176   3.689   1.630
 9440SOL    HW139539   7.114   3.705   1.707
 9440SOL    HW239540   7.136   3.726   1.547
 9441SOL     OW39541   1.509   0.969   4.354
 9441SOL    HW139542   1.446   0.948   4.280
 9441SOL    HW239543   1.517   0.891   4.415
 9442SOL     OW39544   2.281   7.835   5.898
 9442SOL    HW139545   2.333   7.906   5.851
 9442SOL    HW239546   2.267   7.861   5.994
 9443SOL     OW39547   4.673   3.737   3.287
 9443SOL    HW139548   4.631   3.821   3.254
 9443SOL    HW239549   4.653   3.663   3.223
 9444SOL     OW39550   3.539   7.068   2.531
 9444SOL    HW139551   3.510   7.141   2.470
 9444SOL    HW239552   3.615   7.099   2.588
 9445SOL     OW39553   2.690   3.508   4.552
 9445SOL    HW139554   2.667   3.492   4.456
 9445SOL    HW239555   2.776   3.461   4.574
 9446SOL     OW39556   6.467   7.144   4.713
 9446SOL    HW139557   6.557   7.126   4.752
 9446SOL    HW239558   6.396   7.117   4.778
 9447SOL     OW39559   2.723   7.398   4.405
 9447SOL    HW139560   2.690   7.389   4.311
 9447SOL    HW239561   2.760   7.310   4.435
 9448SOL     OW39562   7.014   1.100   2.730
 9448SOL    HW139563   7.065   1.173   2.776
 9448SOL    HW239564   7.001   1.124   2.634
 9449SOL     OW39565   0.463   2.677   3.487
 9449SOL    HW139566   0.429   2.751   3.429
 9449SOL    HW239567   0.511   2.715   3.566
 9450SOL     OW39568   9.723   2.797   6.088
 9450SOL    HW139569   9.780   2.840   6.018
 9450SOL    HW239570   9.719   2.856   6.168
 9451SOL     OW39571   2.503   0.344   0.771
 9451SOL    HW139572   2.416   0.388   0.796
 9451SOL    HW239573   2.579   0.404   0.797
 9452SOL     OW39574   0.522   4.842   1.226
 9452SOL    HW139575   0.516   4.900   1.144
 9452SOL    HW239576   0.434   4.840   1.272
 9453SOL     OW39577   5.043   9.572   6.239
 9453SOL    HW139578   4.951   9.536   6.254
 9453SOL    HW239579   5.037   9.666   6.205
 9454SOL     OW39580   0.971   7.301   0.786
 9454SOL    HW139581   1.001   7.223   0.841
 9454SOL    HW239582   1.032   7.312   0.708
 9455SOL     OW39583   6.001   8.592   5.492
 9455SOL    HW139584   5.959   8.678   5.522
 9455SOL    HW239585   5.942   8.547   5.426
 9456SOL     OW39586   9.466   7.633   2.516
 9456SOL    HW139587   9.481   7.659   2.421
 9456SOL    HW239588   9.427   7.540   2.519
 9457SOL     OW39589   3.584   2.262   1.315
 9457SOL    HW139590   3.503   2.254   1.256
 9457SOL    HW239591   3.612   2.358   1.320
 9458SOL     OW39592   5.391   9.088   2.199
 9458SOL    HW139593   5.341   9.035   2.268
 9458SOL    HW239594   5.458   9.147   2.245
 9459SOL     OW39595   2.175   1.702   0.152
 9459SOL    HW139596   2.184   1.791   0.198
 9459SOL    HW239597   2.238   1.637   0.195
 9460SOL     OW39598   7.997   1.379   1.389
 9460SOL    HW139599   7.986   1.478   1.380
 9460SOL    HW239600   8.085   1.351   1.351
 9461SOL     OW39601   8.648   7.301   2.936
 9461SOL    HW139602   8.647   7.286   2.837
 9461SOL    HW239603   8.666   7.215   2.983
 9462SOL     OW39604   8.464   4.043   4.830
 9462SOL    HW139605   8.382   3.998   4.864
 9462SOL    HW239606   8.440   4.132   4.790
 9463SOL     OW39607   1.479   7.477   4.182
 9463SOL    HW139608   1.399   7.470   4.122
 9463SOL    HW239609   1.468   7.555   4.244
 9464SOL     OW39610   3.237   7.358   2.790
 9464SOL    HW139611   3.194   7.344   2.879
 9464SOL    HW239612   3.270   7.271   2.755
 9465SOL     OW39613   0.896   5.514   3.105
 9465SOL    HW139614   0.961   5.562   3.164
 9465SOL    HW239615   0.911   5.541   3.010
 9466SOL     OW39616   9.436   5.369   0.490
 9466SOL    HW139617   9.352   5.356   0.438
 9466SOL    HW239618   9.501   5.296   0.468
 9467SOL     OW39619   1.703   5.665   0.032
 9467SOL    HW139620   1.735   5.594   8.158
 9467SOL    HW239621   1.670   5.623   0.117
 9468SOL     OW39622   6.730   9.196   4.906
 9468SOL    HW139623   6.682   9.142   4.975
 9468SOL    HW239624   6.825   9.211   4.935
 9469SOL     OW39625   5.500   9.724   2.777
 9469SOL    HW139626   5.484   9.690   2.869
 9469SOL    HW239627   5.417   9.768   2.742
 9470SOL     OW39628   2.562   4.211   2.683
 9470SOL    HW139629   2.623   4.264   2.625
 9470SOL    HW239630   2.591   4.115   2.683
 9471SOL     OW39631   2.551   0.881   0.325
 9471SOL    HW139632   2.651   0.889   0.324
 9471SOL    HW239633   2.521   0.840   0.410
 9472SOL     OW39634   4.973   6.553   1.922
 9472SOL    HW139635   4.885   6.550   1.971
 9472SOL    HW239636   5.001   6.460   1.899
 9473SOL     OW39637   8.430   4.399   2.059
 9473SOL    HW139638   8.366   4.373   1.987
 9473SOL    HW239639   8.522   4.406   2.021
 9474SOL     OW39640   9.295   8.758   4.674
 9474SOL    HW139641   9.284   8.673   4.725
 9474SOL    HW239642   9.228   8.761   4.599
 9475SOL     OW39643   2.023   4.068   0.527
 9475SOL    HW139644   2.040   3.985   0.581
 9475SOL    HW239645   1.936   4.059   0.478
 9476SOL     OW39646   9.285   0.821   1.974
 9476SOL    HW139647   9.289   0.921   1.968
 9476SOL    HW239648   9.215   0.787   1.911
 9477SOL     OW39649   2.230   0.936   6.298
 9477SOL    HW139650   2.241   0.837   6.302
 9477SOL    HW239651   2.132   0.958   6.296
 9478SOL     OW39652   8.592   5.043   2.519
 9478SOL    HW139653   8.512   5.023   2.462
 9478SOL    HW239654   8.587   4.990   2.604
 9479SOL     OW39655   1.560   2.639   2.086
 9479SOL    HW139656   1.622   2.562   2.097
 9479SOL    HW239657   1.577   2.707   2.157
 9480SOL     OW39658   7.896   0.488   2.593
 9480SOL    HW139659   7.822   0.444   2.645
 9480SOL    HW239660   7.957   0.418   2.557
 9481SOL     OW39661   3.867   1.686   0.179
 9481SOL    HW139662   3.863   1.620   0.255
 9481SOL    HW239663   3.781   1.683   0.128
 9482SOL     OW39664   1.269   0.628   0.512
 9482SOL    HW139665   1.339   0.656   0.578
 9482SOL    HW239666   1.306   0.557   0.452
 9483SOL     OW39667   1.242   4.931   2.698
 9483SOL    HW139668   1.299   4.878   2.635
 9483SOL    HW239669   1.241   5.027   2.670
 9484SOL     OW39670   9.612   6.661   6.410
 9484SOL    HW139671   9.580   6.689   6.500
 9484SOL    HW239672   9.707   6.632   6.415
 9485SOL     OW39673   3.656   5.812   2.054
 9485SOL    HW139674   3.751   5.817   2.085
 9485SOL    HW239675   3.600   5.772   2.126
 9486SOL     OW39676   6.426   9.707   6.042
 9486SOL    HW139677   6.410   9.698   6.140
 9486SOL    HW239678   6.521   9.734   6.026
 9487SOL     OW39679   3.138   8.844   4.153
 9487SOL    HW139680   3.177   8.785   4.082
 9487SOL    HW239681   3.174   8.937   4.142
 9488SOL     OW39682   4.986   2.107   3.902
 9488SOL    HW139683   4.981   2.116   4.002
 9488SOL    HW239684   5.007   2.013   3.878
 9489SOL     OW39685   2.187   9.700   4.857
 9489SOL    HW139686   2.146   9.787   4.831
 9489SOL    HW239687   2.238   9.662   4.780
 9490SOL     OW39688   8.338   1.223   5.009
 9490SOL    HW139689   8.384   1.218   5.098
 9490SOL    HW239690   8.254   1.276   5.018
 9491SOL     OW39691   1.456   7.203   2.749
 9491SOL    HW139692   1.448   7.108   2.721
 9491SOL    HW239693   1.373   7.253   2.724
 9492SOL     OW39694   1.117   0.952   6.223
 9492SOL    HW139695   1.205   0.910   6.244
 9492SOL    HW239696   1.101   1.031   6.282
 9493SOL     OW39697   9.509   5.002   0.571
 9493SOL    HW139698   9.457   4.933   0.520
 9493SOL    HW239699   9.550   5.067   0.506
 9494SOL     OW39700   9.030   3.644   0.604
 9494SOL    HW139701   9.102   3.589   0.645
 9494SOL    HW239702   9.042   3.740   0.628
 9495SOL     OW39703   0.334   0.152   4.357
 9495SOL    HW139704   0.433   0.151   4.341
 9495SOL    HW239705   0.286   0.179   4.273
 9496SOL     OW39706   3.909   1.822   2.201
 9496SOL    HW139707   3.815   1.828   2.235
 9496SOL    HW239708   3.924   1.732   2.160
 9497SOL     OW39709   3.847   5.186   3.718
 9497SOL    HW139710   3.757   5.197   3.676
 9497SOL    HW239711   3.895   5.273   3.717
 9498SOL     OW39712   7.889   1.487   2.676
 9498SOL    HW139713   7.840   1.478   2.762
 9498SOL    HW239714   7.884   1.581   2.643
 9499SOL     OW39715   7.602   2.881   1.911
 9499SOL    HW139716   7.677   2.936   1.948
 9499SOL    HW239717   7.566   2.924   1.829
 9500SOL     OW39718   7.623   0.699   2.720
 9500SOL    HW139719   7.592   0.620   2.668
 9500SOL    HW239720   7.591   0.783   2.676
 9501SOL     OW39721   6.391   0.413   6.268
 9501SOL    HW139722   6.354   0.320   6.277
 9501SOL    HW239723   6.485   0.415   6.301
 9502SOL     OW39724   4.514   8.766   6.135
 9502SOL    HW139725   4.466   8.847   6.101
 9502SOL    HW239726   4.452   8.712   6.192
 9503SOL     OW39727   9.840   0.195   4.733
 9503SOL    HW139728   9.866   0.103   4.701
 9503SOL    HW239729   9.920   0.240   4.771
 9504SOL     OW39730   0.452   5.114   3.424
 9504SOL    HW139731   0.399   5.196   3.446
 9504SOL    HW239732   0.539   5.117   3.472
 9505SOL     OW39733   9.785   4.128   6.366
 9505SOL    HW139734   9.816   4.110   6.459
 9505SOL    HW239735   9.841   4.076   6.302
 9506SOL     OW39736   2.570   9.409   5.831
 9506SOL    HW139737   2.474   9.391   5.809
 9506SOL    HW239738   2.577   9.449   5.922
 9507SOL     OW39739   9.469   5.416   4.259
 9507SOL    HW139740   9.451   5.432   4.162
 9507SOL    HW239741   9.431   5.328   4.286
 9508SOL     OW39742   8.699   7.675   3.094
 9508SOL    HW139743   8.650   7.762   3.088
 9508SOL    HW239744   8.758   7.676   3.175
 9509SOL     OW39745   1.167   7.911   6.274
 9509SOL    HW139746   1.178   7.908   6.174
 9509SOL    HW239747   1.238   7.970   6.313
 9510SOL     OW39748   1.400   7.281   5.042
 9510SOL    HW139749   1.478   7.339   5.018
 9510SOL    HW239750   1.431   7.207   5.103
 9511SOL     OW39751   7.566   1.107   4.375
 9511SOL    HW139752   7.577   1.183   4.310
 9511SOL    HW239753   7.610   1.025   4.338
 9512SOL     OW39754   1.647   4.106   4.032
 9512SOL    HW139755   1.592   4.184   4.002
 9512SOL    HW239756   1.606   4.066   4.114
 9513SOL     OW39757   9.233   1.751   2.455
 9513SOL    HW139758   9.316   1.800   2.429
 9513SOL    HW239759   9.153   1.802   2.423
 9514SOL     OW39760   0.513   3.512   5.632
 9514SOL    HW139761   0.584   3.451   5.667
 9514SOL    HW239762   0.424   3.482   5.668
 9515SOL     OW39763   7.572   3.474   1.598
 9515SOL    HW139764   7.611   3.396   1.547
 9515SOL    HW239765   7.479   3.451   1.627
 9516SOL     OW39766   2.837   1.223   6.192
 9516SOL    HW139767   2.898   1.153   6.229
 9516SOL    HW239768   2.881   1.312   6.199
 9517SOL     OW39769   3.883   9.316   0.451
 9517SOL    HW139770   3.870   9.403   0.403
 9517SOL    HW239771   3.809   9.303   0.517
 9518SOL     OW39772   1.298   0.380   4.637
 9518SOL    HW139773   1.208   0.370   4.680
 9518SOL    HW239774   1.324   0.293   4.594
 9519SOL     OW39775   0.690   4.695   4.424
 9519SOL    HW139776   0.603   4.645   4.432
 9519SOL    HW239777   0.726   4.711   4.516
 9520SOL     OW39778   3.440   9.193   5.131
 9520SOL    HW139779   3.424   9.225   5.037
 9520SOL    HW239780   3.353   9.192   5.181
 9521SOL     OW39781   7.401   4.571   0.612
 9521SOL    HW139782   7.335   4.626   0.663
 9521SOL    HW239783   7.370   4.560   0.518
 9522SOL     OW39784   4.545   0.177   0.583
 9522SOL    HW139785   4.618   0.236   0.618
 9522SOL    HW239786   4.463   0.190   0.639
 9523SOL     OW39787   7.575   2.715   0.106
 9523SOL    HW139788   7.525   2.637   0.067
 9523SOL    HW239789   7.672   2.693   0.112
 9524SOL     OW39790   1.611   0.410   6.380
 9524SOL    HW139791   1.594   0.409   6.478
 9524SOL    HW239792   1.693   0.357   6.360
 9525SOL     OW39793   9.184   3.000   1.973
 9525SOL    HW139794   9.223   2.922   1.923
 9525SOL    HW239795   9.249   3.032   2.042
 9526SOL     OW39796   7.829   0.924   2.402
 9526SOL    HW139797   7.867   0.832   2.413
 9526SOL    HW239798   7.881   0.974   2.332
 9527SOL     OW39799   1.675   9.427   1.736
 9527SOL    HW139800   1.612   9.502   1.715
 9527SOL    HW239801   1.766   9.464   1.753
 9528SOL     OW39802   2.895   8.009   3.002
 9528SOL    HW139803   2.880   7.972   2.910
 9528SOL    HW239804   2.990   8.036   3.012
 9529SOL     OW39805   8.192   9.700   4.538
 9529SOL    HW139806   8.138   9.777   4.503
 9529SOL    HW239807   8.179   9.692   4.636
 9530SOL     OW39808   1.301   3.510   5.156
 9530SOL    HW139809   1.373   3.449   5.121
 9530SOL    HW239810   1.274   3.480   5.247
 9531SOL     OW39811   4.311   4.520   6.190
 9531SOL    HW139812   4.224   4.546   6.148
 9531SOL    HW239813   4.386   4.541   6.127
 9532SOL     OW39814   3.495   8.554   6.142
 9532SOL    HW139815   3.471   8.547   6.045
 9532SOL    HW239816   3.427   8.505   6.197
 9533SOL     OW39817   3.677   0.273   1.839
 9533SOL    HW139818   3.714   0.188   1.876
 9533SOL    HW239819   3.709   0.284   1.745
 9534SOL     OW39820   7.002   1.363   4.689
 9534SOL    HW139821   7.095   1.328   4.678
 9534SOL    HW239822   6.937   1.296   4.654
 9535SOL     OW39823   9.993   3.665   5.627
 9535SOL    HW139824   0.015   3.702   5.718
 9535SOL    HW239825   0.014   3.567   5.625
 9536SOL     OW39826   8.577   7.592   4.989
 9536SOL    HW139827   8.611   7.576   4.896
 9536SOL    HW239828   8.486   7.551   4.999
 9537SOL     OW39829   8.292   6.490   5.858
 9537SOL    HW139830   8.317   6.586   5.871
 9537SOL    HW239831   8.272   6.449   5.947
 9538SOL     OW39832   8.946   4.164   2.913
 9538SOL    HW139833   8.955   4.104   2.992
 9538SOL    HW239834   8.855   4.203   2.911
 9539SOL     OW39835   4.822   6.846   2.357
 9539SOL    HW139836   4.812   6.912   2.432
 9539SOL    HW239837   4.749   6.859   2.290
 9540SOL     OW39838   3.751   5.644   3.082
 9540SOL    HW139839   3.721   5.563   3.031
 9540SOL    HW239840   3.845   5.666   3.057
 9541SOL     OW39841   2.813   2.068   2.603
 9541SOL    HW139842   2.865   2.013   2.668
 9541SOL    HW239843   2.851   2.161   2.600
 9542SOL     OW39844   0.028   1.790   5.461
 9542SOL    HW139845   9.973   1.871   5.481
 9542SOL    HW239846   9.969   1.715   5.432
 9543SOL     OW39847   0.114   6.684   1.060
 9543SOL    HW139848   0.198   6.678   1.007
 9543SOL    HW239849   0.137   6.697   1.157
 9544SOL     OW39850   5.349   0.143   5.232
 9544SOL    HW139851   5.322   0.047   5.234
 9544SOL    HW239852   5.430   0.156   5.290
 9545SOL     OW39853   0.815   0.655   0.325
 9545SOL    HW139854   0.836   0.700   0.411
 9545SOL    HW239855   0.809   0.723   0.252
 9546SOL     OW39856   2.455   4.515   4.942
 9546SOL    HW139857   2.376   4.462   4.911
 9546SOL    HW239858   2.539   4.463   4.923
 9547SOL     OW39859   6.705   9.352   6.371
 9547SOL    HW139860   6.639   9.278   6.362
 9547SOL    HW239861   6.720   9.371   6.468
 9548SOL     OW39862   9.405   9.878   0.500
 9548SOL    HW139863   9.385   9.839   0.410
 9548SOL    HW239864   9.449   9.808   0.558
 9549SOL     OW39865   6.694   1.024   5.244
 9549SOL    HW139866   6.674   1.115   5.207
 9549SOL    HW239867   6.783   1.026   5.290
 9550SOL     OW39868   3.284   0.368   5.050
 9550SOL    HW139869   3.375   0.328   5.062
 9550SOL    HW239870   3.279   0.411   4.960
 9551SOL     OW39871   9.862   6.307   0.287
 9551SOL    HW139872   9.780   6.296   0.230
 9551SOL    HW239873   9.845   6.268   0.378
 9552SOL     OW39874   1.371   0.531   4.419
 9552SOL    HW139875   1.350   0.472   4.497
 9552SOL    HW239876   1.455   0.499   4.375
 9553SOL     OW39877   4.210   3.368   3.618
 9553SOL    HW139878   4.113   3.354   3.637
 9553SOL    HW239879   4.265   3.323   3.688
 9554SOL     OW39880   3.222   1.848   3.442
 9554SOL    HW139881   3.167   1.804   3.514
 9554SOL    HW239882   3.168   1.854   3.358
 9555SOL     OW39883   4.639   5.900   0.686
 9555SOL    HW139884   4.663   5.817   0.636
 9555SOL    HW239885   4.550   5.933   0.655
 9556SOL     OW39886   7.826   6.053   5.687
 9556SOL    HW139887   7.879   6.133   5.711
 9556SOL    HW239888   7.857   5.975   5.741
 9557SOL     OW39889   4.426   4.803   3.501
 9557SOL    HW139890   4.337   4.848   3.502
 9557SOL    HW239891   4.481   4.837   3.578
 9558SOL     OW39892   8.125   3.381   4.250
 9558SOL    HW139893   8.067   3.301   4.234
 9558SOL    HW239894   8.176   3.368   4.335
 9559SOL     OW39895   0.068   0.863   2.505
 9559SOL    HW139896   0.091   0.936   2.441
 9559SOL    HW239897   0.023   0.788   2.456
 9560SOL     OW39898   6.343   3.479   0.845
 9560SOL    HW139899   6.257   3.515   0.808
 9560SOL    HW239900   6.417   3.501   0.782
 9561SOL     OW39901   9.932   6.894   4.133
 9561SOL    HW139902   9.956   6.972   4.075
 9561SOL    HW239903   9.889   6.823   4.077
 9562SOL     OW39904   0.209   3.050   0.833
 9562SOL    HW139905   0.127   3.095   0.868
 9562SOL    HW239906   0.258   3.007   0.909
 9563SOL     OW39907   8.526   9.241   3.708
 9563SOL    HW139908   8.535   9.326   3.656
 9563SOL    HW239909   8.562   9.165   3.654
 9564SOL     OW39910   9.412   6.664   5.801
 9564SOL    HW139911   9.388   6.631   5.710
 9564SOL    HW239912   9.511   6.659   5.814
 9565SOL     OW39913   6.227   8.309   5.409
 9565SOL    HW139914   6.198   8.340   5.500
 9565SOL    HW239915   6.309   8.253   5.417
 9566SOL     OW39916   0.699   5.345   2.851
 9566SOL    HW139917   0.679   5.253   2.886
 9566SOL    HW239918   0.617   5.401   2.855
 9567SOL     OW39919   2.979   8.839   1.167
 9567SOL    HW139920   2.967   8.752   1.214
 9567SOL    HW239921   2.981   8.913   1.234
 9568SOL     OW39922   1.397   8.767   1.337
 9568SOL    HW139923   1.436   8.766   1.244
 9568SOL    HW239924   1.442   8.838   1.391
 9569SOL     OW39925   9.385   8.288   1.125
 9569SOL    HW139926   9.425   8.377   1.148
 9569SOL    HW239927   9.447   8.215   1.155
 9570SOL     OW39928   9.436   9.692   3.979
 9570SOL    HW139929   9.414   9.604   4.022
 9570SOL    HW239930   9.410   9.766   4.041
 9571SOL     OW39931   8.686   6.826   3.196
 9571SOL    HW139932   8.757   6.791   3.257
 9571SOL    HW239933   8.617   6.754   3.182
 9572SOL     OW39934   3.469   5.519   4.586
 9572SOL    HW139935   3.554   5.495   4.539
 9572SOL    HW239936   3.434   5.605   4.550
 9573SOL     OW39937   0.144   0.988   4.790
 9573SOL    HW139938   0.237   0.952   4.782
 9573SOL    HW239939   0.136   1.041   4.875
 9574SOL     OW39940   0.152   8.438   5.345
 9574SOL    HW139941   0.156   8.534   5.316
 9574SOL    HW239942   0.243   8.398   5.339
 9575SOL     OW39943   9.949   5.034   2.476
 9575SOL    HW139944   9.917   4.964   2.413
 9575SOL    HW239945   0.027   4.999   2.527
 9576SOL     OW39946   1.886   8.792   2.467
 9576SOL    HW139947   1.803   8.767   2.416
 9576SOL    HW239948   1.862   8.818   2.560
 9577SOL     OW39949   1.721   7.327   0.121
 9577SOL    HW139950   1.768   7.406   0.160
 9577SOL    HW239951   1.782   7.248   0.122
 9578SOL     OW39952   6.854   1.863   3.724
 9578SOL    HW139953   6.899   1.842   3.637
 9578SOL    HW239954   6.907   1.825   3.800
 9579SOL     OW39955   0.675   1.483   2.933
 9579SOL    HW139956   0.580   1.463   2.912
 9579SOL    HW239957   0.700   1.572   2.895
 9580SOL     OW39958   2.898   2.757   2.623
 9580SOL    HW139959   2.971   2.744   2.556
 9580SOL    HW239960   2.909   2.846   2.667
 9581SOL     OW39961   3.285   7.203   6.315
 9581SOL    HW139962   3.258   7.297   6.294
 9581SOL    HW239963   3.383   7.200   6.334
 9582SOL     OW39964   2.213   2.479   6.080
 9582SOL    HW139965   2.250   2.421   6.153
 9582SOL    HW239966   2.264   2.566   6.078
 9583SOL     OW39967   6.424   0.966   0.240
 9583SOL    HW139968   6.345   1.014   0.202
 9583SOL    HW239969   6.399   0.927   0.329
 9584SOL     OW39970   8.111   0.887   4.373
 9584SOL    HW139971   8.022   0.926   4.396
 9584SOL    HW239972   8.139   0.824   4.445
 9585SOL     OW39973   6.346   3.140   0.116
 9585SOL    HW139974   6.421   3.096   0.166
 9585SOL    HW239975   6.310   3.216   0.169
 9586SOL     OW39976   9.327   0.460   5.743
 9586SOL    HW139977   9.306   0.525   5.669
 9586SOL    HW239978   9.398   0.397   5.712
 9587SOL     OW39979   1.487   5.036   2.501
 9587SOL    HW139980   1.509   5.033   2.598
 9587SOL    HW239981   1.513   5.125   2.463
 9588SOL     OW39982   8.195   7.312   2.729
 9588SOL    HW139983   8.130   7.388   2.739
 9588SOL    HW239984   8.237   7.294   2.818
 9589SOL     OW39985   9.422   3.715   2.936
 9589SOL    HW139986   9.412   3.807   2.972
 9589SOL    HW239987   9.422   3.719   2.836
 9590SOL     OW39988   1.384   6.434   1.194
 9590SOL    HW139989   1.426   6.351   1.157
 9590SOL    HW239990   1.319   6.471   1.127
 9591SOL     OW39991   0.405   1.055   3.975
 9591SOL    HW139992   0.474   1.005   3.924
 9591SOL    HW239993   0.393   1.012   4.065
 9592SOL     OW39994   3.576   5.690   0.642
 9592SOL    HW139995   3.632   5.721   0.718
 9592SOL    HW239996   3.584   5.754   0.566
 9593SOL     OW39997   1.719   5.367   5.552
 9593SOL    HW139998   1.730   5.273   5.585
 9593SOL    HW239999   1.691   5.426   5.628
 9594SOL     OW40000   4.997   8.614   4.114
 9594SOL    HW140001   5.051   8.693   4.084
 9594SOL    HW240002   5.031   8.582   4.202
 9595SOL     OW40003   7.278   1.326   4.664
 9595SOL    HW140004   7.317   1.400   4.719
 9595SOL    HW240005   7.289   1.348   4.567
 9596SOL     OW40006   2.234   8.213   4.334
 9596SOL    HW140007   2.157   8.150   4.323
 9596SOL    HW240008   2.209   8.285   4.399
 9597SOL     OW40009   0.626   8.670   3.020
 9597SOL    HW140010   0.530   8.643   3.025
 9597SOL    HW240011   0.633   8.757   2.971
 9598SOL     OW40012   2.572   0.773   0.072
 9598SOL    HW140013   2.565   0.808   0.165
 9598SOL    HW240014   2.664   0.790   0.037
 9599SOL     OW40015   0.825   4.061   0.731
 9599SOL    HW140016   0.842   4.033   0.637
 9599SOL    HW240017   0.841   3.983   0.792
 9600SOL     OW40018   7.259   7.616   6.172
 9600SOL    HW140019   7.348   7.582   6.141
 9600SOL    HW240020   7.270   7.708   6.211
 9601SOL     OW40021   9.989   2.688   3.143
 9601SOL    HW140022   9.903   2.687   3.093
 9601SOL    HW240023   0.030   2.597   3.143
 9602SOL     OW40024   6.625   6.854   5.227
 9602SOL    HW140025   6.534   6.862   5.186
 9602SOL    HW240026   6.617   6.829   5.323
 9603SOL     OW40027   8.999   8.341   2.863
 9603SOL    HW140028   8.969   8.417   2.921
 9603SOL    HW240029   9.069   8.374   2.800
 9604SOL     OW40030   1.662   3.107   0.567
 9604SOL    HW140031   1.669   3.205   0.580
 9604SOL    HW240032   1.731   3.077   0.501
 9605SOL     OW40033   2.851   2.730   1.618
 9605SOL    HW140034   2.915   2.694   1.550
 9605SOL    HW240035   2.901   2.776   1.690
 9606SOL     OW40036   7.081   1.667   1.236
 9606SOL    HW140037   7.014   1.654   1.162
 9606SOL    HW240038   7.033   1.671   1.323
 9607SOL     OW40039   3.123   1.648   3.855
 9607SOL    HW140040   3.077   1.676   3.771
 9607SOL    HW240041   3.220   1.635   3.838
 9608SOL     OW40042   3.374   7.382   1.362
 9608SOL    HW140043   3.333   7.299   1.400
 9608SOL    HW240044   3.455   7.357   1.309
 9609SOL     OW40045   6.267   0.064   4.371
 9609SOL    HW140046   6.343   0.042   4.433
 9609SOL    HW240047   6.181   0.064   4.423
 9610SOL     OW40048   1.737   6.191   6.188
 9610SOL    HW140049   1.790   6.270   6.220
 9610SOL    HW240050   1.784   6.149   6.111
 9611SOL     OW40051   8.510   6.553   1.838
 9611SOL    HW140052   8.464   6.508   1.915
 9611SOL    HW240053   8.555   6.636   1.870
 9612SOL     OW40054   5.273   1.822   0.625
 9612SOL    HW140055   5.328   1.757   0.573
 9612SOL    HW240056   5.262   1.906   0.573
 9613SOL     OW40057   8.360   1.793   4.618
 9613SOL    HW140058   8.389   1.776   4.712
 9613SOL    HW240059   8.362   1.707   4.567
 9614SOL     OW40060   0.616   4.005   5.544
 9614SOL    HW140061   0.642   3.916   5.581
 9614SOL    HW240062   0.536   3.995   5.484
 9615SOL     OW40063   5.193   1.912   5.883
 9615SOL    HW140064   5.260   1.930   5.811
 9615SOL    HW240065   5.125   1.847   5.850
 9616SOL     OW40066   2.740   9.311   3.061
 9616SOL    HW140067   2.679   9.295   3.139
 9616SOL    HW240068   2.699   9.379   3.000
 9617SOL     OW40069   8.891   9.363   3.956
 9617SOL    HW140070   8.891   9.463   3.966
 9617SOL    HW240071   8.797   9.329   3.961
 9618SOL     OW40072   8.149   3.075   0.349
 9618SOL    HW140073   8.220   3.006   0.334
 9618SOL    HW240074   8.066   3.031   0.381
 9619SOL     OW40075   0.695   1.935   5.732
 9619SOL    HW140076   0.631   1.990   5.678
 9619SOL    HW240077   0.675   1.947   5.829
 9620SOL     OW40078   7.846   6.249   1.210
 9620SOL    HW140079   7.905   6.326   1.185
 9620SOL    HW240080   7.854   6.177   1.142
 9621SOL     OW40081   9.035   3.795   4.596
 9621SOL    HW140082   9.085   3.712   4.570
 9621SOL    HW240083   9.094   3.853   4.652
 9622SOL     OW40084   3.710   8.909   2.082
 9622SOL    HW140085   3.764   8.887   2.163
 9622SOL    HW240086   3.614   8.923   2.108
 9623SOL     OW40087   3.746   6.808   0.646
 9623SOL    HW140088   3.746   6.907   0.631
 9623SOL    HW240089   3.753   6.789   0.744
 9624SOL     OW40090   2.439   3.804   1.847
 9624SOL    HW140091   2.399   3.817   1.938
 9624SOL    HW240092   2.394   3.866   1.782
 9625SOL     OW40093   9.835   8.330   2.031
 9625SOL    HW140094   9.796   8.322   2.122
 9625SOL    HW240095   9.901   8.256   2.016
 9626SOL     OW40096   2.185   3.329   2.899
 9626SOL    HW140097   2.110   3.270   2.869
 9626SOL    HW240098   2.257   3.328   2.830
 9627SOL     OW40099   5.130   1.554   1.892
 9627SOL    HW140100   5.112   1.459   1.865
 9627SOL    HW240101   5.050   1.610   1.871
 9628SOL     OW40102   3.513   2.051   4.799
 9628SOL    HW140103   3.604   2.045   4.840
 9628SOL    HW240104   3.471   1.960   4.797
 9629SOL     OW40105   5.845   2.852   4.587
 9629SOL    HW140106   5.810   2.864   4.679
 9629SOL    HW240107   5.944   2.869   4.586
 9630SOL     OW40108   3.534   9.560   3.940
 9630SOL    HW140109   3.627   9.566   3.977
 9630SOL    HW240110   3.503   9.651   3.915
 9631SOL     OW40111   8.592   6.145   5.726
 9631SOL    HW140112   8.520   6.175   5.663
 9631SOL    HW240113   8.567   6.057   5.766
 9632SOL     OW40114   4.404   8.960   0.505
 9632SOL    HW140115   4.362   9.050   0.491
 9632SOL    HW240116   4.336   8.897   0.542
 9633SOL     OW40117   3.227   0.707   3.931
 9633SOL    HW140118   3.322   0.736   3.942
 9633SOL    HW240119   3.217   0.612   3.959
 9634SOL     OW40120   3.073   9.728   5.566
 9634SOL    HW140121   3.001   9.776   5.618
 9634SOL    HW240122   3.090   9.639   5.608
 9635SOL     OW40123   1.391   6.057   0.687
 9635SOL    HW140124   1.464   5.991   0.701
 9635SOL    HW240125   1.357   6.051   0.593
 9636SOL     OW40126   1.716   6.853   3.082
 9636SOL    HW140127   1.778   6.787   3.124
 9636SOL    HW240128   1.763   6.900   3.007
 9637SOL     OW40129   0.605   5.510   6.155
 9637SOL    HW140130   0.580   5.441   6.223
 9637SOL    HW240131   0.585   5.601   6.190
 9638SOL     OW40132   2.839   7.319   5.369
 9638SOL    HW140133   2.906   7.304   5.297
 9638SOL    HW240134   2.778   7.394   5.342
 9639SOL     OW40135   2.481   0.339   4.342
 9639SOL    HW140136   2.490   0.435   4.314
 9639SOL    HW240137   2.572   0.296   4.340
 9640SOL     OW40138   2.832   3.465   1.551
 9640SOL    HW140139   2.901   3.393   1.545
 9640SOL    HW240140   2.754   3.431   1.603
 9641SOL     OW40141   2.078   7.616   2.575
 9641SOL    HW140142   2.052   7.712   2.574
 9641SOL    HW240143   2.138   7.597   2.497
 9642SOL     OW40144   0.253   3.045   2.039
 9642SOL    HW140145   0.250   3.119   1.972
 9642SOL    HW240146   0.170   3.048   2.095
 9643SOL     OW40147   2.562   4.495   3.295
 9643SOL    HW140148   2.470   4.534   3.290
 9643SOL    HW240149   2.556   4.396   3.307
 9644SOL     OW40150   4.656   9.349   1.788
 9644SOL    HW140151   4.559   9.328   1.804
 9644SOL    HW240152   4.706   9.264   1.772
 9645SOL     OW40153   3.667   7.890   1.607
 9645SOL    HW140154   3.677   7.975   1.555
 9645SOL    HW240155   3.580   7.892   1.657
 9646SOL     OW40156   0.440   8.935   2.679
 9646SOL    HW140157   0.354   8.884   2.682
 9646SOL    HW240158   0.420   9.033   2.676
 9647SOL     OW40159   8.310   8.862   5.901
 9647SOL    HW140160   8.272   8.820   5.984
 9647SOL    HW240161   8.239   8.918   5.857
 9648SOL     OW40162   2.159   3.386   3.753
 9648SOL    HW140163   2.147   3.367   3.655
 9648SOL    HW240164   2.120   3.475   3.775
 9649SOL     OW40165   1.680   9.527   3.639
 9649SOL    HW140166   1.702   9.430   3.637
 9649SOL    HW240167   1.586   9.541   3.670
 9650SOL     OW40168   3.551   4.891   0.176
 9650SOL    HW140169   3.463   4.886   0.130
 9650SOL    HW240170   3.571   4.802   0.219
 9651SOL     OW40171   0.175   9.377   0.651
 9651SOL    HW140172   0.084   9.337   0.661
 9651SOL    HW240173   0.236   9.339   0.720
 9652SOL     OW40174   8.158   6.537   0.258
 9652SOL    HW140175   8.136   6.451   0.214
 9652SOL    HW240176   8.183   6.521   0.354
 9653SOL     OW40177   5.316   9.448   2.476
 9653SOL    HW140178   5.412   9.431   2.498
 9653SOL    HW240179   5.305   9.452   2.377
 9654SOL     OW40180   6.001   8.023   5.781
 9654SOL    HW140181   6.031   8.109   5.823
 9654SOL    HW240182   5.954   8.043   5.695
 9655SOL     OW40183   0.110   0.071   3.834
 9655SOL    HW140184   0.207   0.055   3.852
 9655SOL    HW240185   0.090   0.051   3.738
 9656SOL     OW40186   2.079   4.315   1.716
 9656SOL    HW140187   2.104   4.375   1.640
 9656SOL    HW240188   2.073   4.220   1.684
 9657SOL     OW40189   0.406   6.838   4.772
 9657SOL    HW140190   0.489   6.812   4.722
 9657SOL    HW240191   0.375   6.928   4.739
 9658SOL     OW40192   1.237   8.052   0.662
 9658SOL    HW140193   1.250   8.102   0.747
 9658SOL    HW240194   1.144   8.014   0.659
 9659SOL     OW40195   2.319   9.181   4.479
 9659SOL    HW140196   2.316   9.113   4.406
 9659SOL    HW240197   2.392   9.247   4.461
 9660SOL     OW40198   5.858   8.491   5.273
 9660SOL    HW140199   5.886   8.521   5.181
 9660SOL    HW240200   5.765   8.521   5.291
 9661SOL     OW40201   4.216   3.664   5.812
 9661SOL    HW140202   4.167   3.751   5.807
 9661SOL    HW240203   4.183   3.602   5.740
 9662SOL     OW40204   1.380   0.860   2.087
 9662SOL    HW140205   1.323   0.929   2.042
 9662SOL    HW240206   1.321   0.794   2.135
 9663SOL     OW40207   3.984   0.118   5.002
 9663SOL    HW140208   4.061   0.075   4.955
 9663SOL    HW240209   3.929   0.169   4.935
 9664SOL     OW40210   4.787   3.045   5.184
 9664SOL    HW140211   4.786   3.124   5.246
 9664SOL    HW240212   4.732   2.971   5.224
 9665SOL     OW40213   7.082   7.388   4.343
 9665SOL    HW140214   7.099   7.438   4.428
 9665SOL    HW240215   7.132   7.301   4.345
 9666SOL     OW40216   4.803   5.366   3.899
 9666SOL    HW140217   4.777   5.389   3.993
 9666SOL    HW240218   4.766   5.434   3.836
 9667SOL     OW40219   1.749   2.435   2.129
 9667SOL    HW140220   1.792   2.459   2.042
 9667SOL    HW240221   1.735   2.336   2.133
 9668SOL     OW40222   1.060   3.241   4.995
 9668SOL    HW140223   1.048   3.280   5.086
 9668SOL    HW240224   1.094   3.312   4.932
 9669SOL     OW40225   0.529   4.164   2.616
 9669SOL    HW140226   0.440   4.164   2.571
 9669SOL    HW240227   0.592   4.106   2.564
 9670SOL     OW40228   9.813   6.028   6.295
 9670SOL    HW140229   9.833   5.951   6.234
 9670SOL    HW240230   9.801   5.995   6.388
 9671SOL     OW40231   2.662   3.141   6.246
 9671SOL    HW140232   2.695   3.235   6.252
 9671SOL    HW240233   2.584   3.136   6.184
 9672SOL     OW40234   1.893   8.052   4.845
 9672SOL    HW140235   1.986   8.056   4.809
 9672SOL    HW240236   1.891   8.091   4.937
 9673SOL     OW40237   8.926   7.233   3.908
 9673SOL    HW140238   8.877   7.159   3.862
 9673SOL    HW240239   8.988   7.194   3.977
 9674SOL     OW40240   9.358   5.872   0.418
 9674SOL    HW140241   9.314   5.783   0.406
 9674SOL    HW240242   9.365   5.893   0.516
 9675SOL     OW40243   8.205   3.586   6.312
 9675SOL    HW140244   8.188   3.564   6.216
 9675SOL    HW240245   8.189   3.683   6.327
 9676SOL     OW40246   2.354   4.359   1.983
 9676SOL    HW140247   2.396   4.433   1.931
 9676SOL    HW240248   2.266   4.390   2.020
 9677SOL     OW40249   1.604   7.344   4.387
 9677SOL    HW140250   1.648   7.263   4.349
 9677SOL    HW240251   1.556   7.393   4.315
 9678SOL     OW40252   7.207   0.920   0.768
 9678SOL    HW140253   7.241   0.942   0.860
 9678SOL    HW240254   7.256   0.975   0.700
 9679SOL     OW40255   4.067   2.343   1.750
 9679SOL    HW140256   4.102   2.324   1.658
 9679SOL    HW240257   4.139   2.388   1.803
 9680SOL     OW40258   2.716   2.630   0.430
 9680SOL    HW140259   2.704   2.567   0.354
 9680SOL    HW240260   2.812   2.632   0.458
 9681SOL     OW40261   0.248   0.787   0.457
 9681SOL    HW140262   0.149   0.799   0.457
 9681SOL    HW240263   0.289   0.846   0.388
 9682SOL     OW40264   6.673   2.083   4.329
 9682SOL    HW140265   6.718   2.171   4.310
 9682SOL    HW240266   6.730   2.030   4.392
 9683SOL     OW40267   9.447   7.752   5.595
 9683SOL    HW140268   9.510   7.788   5.664
 9683SOL    HW240269   9.412   7.664   5.625
 9684SOL     OW40270   0.347   9.751   2.881
 9684SOL    HW140271   0.388   9.674   2.833
 9684SOL    HW240272   0.416   9.823   2.894
 9685SOL     OW40273   6.660   0.453   6.336
 9685SOL    HW140274   6.682   0.505   6.253
 9685SOL    HW240275   6.686   0.506   6.416
 9686SOL     OW40276   3.575   2.189   2.508
 9686SOL    HW140277   3.627   2.258   2.558
 9686SOL    HW240278   3.624   2.165   2.424
 9687SOL     OW40279   0.744   9.188   3.856
 9687SOL    HW140280   0.772   9.125   3.783
 9687SOL    HW240281   0.660   9.234   3.830
 9688SOL     OW40282   8.207   2.568   0.221
 9688SOL    HW140283   8.239   2.617   0.140
 9688SOL    HW240284   8.212   2.469   0.204
 9689SOL     OW40285   0.221   5.823   1.099
 9689SOL    HW140286   0.277   5.788   1.024
 9689SOL    HW240287   0.182   5.911   1.072
 9690SOL     OW40288   3.179   9.470   4.909
 9690SOL    HW140289   3.140   9.473   5.001
 9690SOL    HW240290   3.186   9.563   4.873
 9691SOL     OW40291   2.257   8.006   2.521
 9691SOL    HW140292   2.319   7.929   2.502
 9691SOL    HW240293   2.308   8.092   2.511
 9692SOL     OW40294   4.525   3.918   4.880
 9692SOL    HW140295   4.575   3.996   4.919
 9692SOL    HW240296   4.590   3.844   4.860
 9693SOL     OW40297   1.719   3.489   3.669
 9693SOL    HW140298   1.780   3.562   3.700
 9693SOL    HW240299   1.722   3.413   3.734
 9694SOL     OW40300   1.757   8.741   5.467
 9694SOL    HW140301   1.674   8.722   5.519
 9694SOL    HW240302   1.756   8.836   5.437
 9695SOL     OW40303   5.905   0.617   5.070
 9695SOL    HW140304   5.949   0.579   5.151
 9695SOL    HW240305   5.871   0.709   5.091
 9696SOL     OW40306   3.764   2.271   5.529
 9696SOL    HW140307   3.767   2.184   5.579
 9696SOL    HW240308   3.855   2.289   5.490
 9697SOL     OW40309   8.148   7.111   1.894
 9697SOL    HW140310   8.101   7.024   1.880
 9697SOL    HW240311   8.131   7.172   1.817
 9698SOL     OW40312   6.266   1.434   3.811
 9698SOL    HW140313   6.202   1.471   3.878
 9698SOL    HW240314   6.307   1.509   3.759
 9699SOL     OW40315   5.909   2.443   4.811
 9699SOL    HW140316   5.892   2.364   4.869
 9699SOL    HW240317   5.859   2.434   4.725
 9700SOL     OW40318   8.778   1.384   3.859
 9700SOL    HW140319   8.866   1.402   3.903
 9700SOL    HW240320   8.758   1.286   3.861
 9701SOL     OW40321   1.863   1.671   2.418
 9701SOL    HW140322   1.865   1.770   2.431
 9701SOL    HW240323   1.956   1.635   2.423
 9702SOL     OW40324   8.124   8.346   3.536
 9702SOL    HW140325   8.107   8.436   3.575
 9702SOL    HW240326   8.222   8.330   3.530
 9703SOL     OW40327   7.464   9.724   5.444
 9703SOL    HW140328   7.520   9.801   5.413
 9703SOL    HW240329   7.515   9.673   5.514
 9704SOL     OW40330   1.780   0.465   2.711
 9704SOL    HW140331   1.757   0.411   2.630
 9704SOL    HW240332   1.810   0.556   2.683
 9705SOL     OW40333   5.668   8.816   5.017
 9705SOL    HW140334   5.710   8.852   4.934
 9705SOL    HW240335   5.569   8.817   5.007
 9706SOL     OW40336   9.416   1.184   0.839
 9706SOL    HW140337   9.441   1.119   0.911
 9706SOL    HW240338   9.489   1.186   0.770
 9707SOL     OW40339   2.119   0.423   3.320
 9707SOL    HW140340   2.145   0.336   3.361
 9707SOL    HW240341   2.161   0.432   3.229
 9708SOL     OW40342   8.888   4.022   4.505
 9708SOL    HW140343   8.936   3.938   4.532
 9708SOL    HW240344   8.831   4.053   4.581
 9709SOL     OW40345   6.642   1.378   0.783
 9709SOL    HW140346   6.563   1.420   0.738
 9709SOL    HW240347   6.649   1.282   0.756
 9710SOL     OW40348   3.285   0.743   2.755
 9710SOL    HW140349   3.337   0.686   2.691
 9710SOL    HW240350   3.344   0.816   2.789
 9711SOL     OW40351   1.492   5.887   2.029
 9711SOL    HW140352   1.555   5.900   2.106
 9711SOL    HW240353   1.536   5.920   1.945
 9712SOL     OW40354   9.061   6.993   6.185
 9712SOL    HW140355   9.142   6.935   6.190
 9712SOL    HW240356   9.082   7.082   6.225
 9713SOL     OW40357   2.594   1.173   2.960
 9713SOL    HW140358   2.498   1.167   2.987
 9713SOL    HW240359   2.653   1.158   3.039
 9714SOL     OW40360   8.349   8.902   1.370
 9714SOL    HW140361   8.344   9.000   1.387
 9714SOL    HW240362   8.380   8.855   1.453
 9715SOL     OW40363   3.635   3.833   2.949
 9715SOL    HW140364   3.664   3.899   2.879
 9715SOL    HW240365   3.624   3.881   3.036
 9716SOL     OW40366   8.815   7.913   0.580
 9716SOL    HW140367   8.868   7.917   0.665
 9716SOL    HW240368   8.797   8.006   0.547
 9717SOL     OW40369   8.811   4.888   4.126
 9717SOL    HW140370   8.884   4.832   4.164
 9717SOL    HW240371   8.722   4.855   4.160
 9718SOL     OW40372   0.210   2.822   4.977
 9718SOL    HW140373   0.290   2.771   5.007
 9718SOL    HW240374   0.128   2.785   5.020
 9719SOL     OW40375   8.700   5.554   4.957
 9719SOL    HW140376   8.748   5.466   4.954
 9719SOL    HW240377   8.741   5.617   4.892
 9720SOL     OW40378   1.687   2.623   4.193
 9720SOL    HW140379   1.716   2.657   4.104
 9720SOL    HW240380   1.767   2.590   4.244
 9721SOL     OW40381   1.582   0.115   3.902
 9721SOL    HW140382   1.595   0.067   3.815
 9721SOL    HW240383   1.484   0.132   3.917
 9722SOL     OW40384   8.119   4.952   4.359
 9722SOL    HW140385   8.185   4.920   4.427
 9722SOL    HW240386   8.122   5.051   4.353
 9723SOL     OW40387   9.896   5.990   3.075
 9723SOL    HW140388   9.948   5.912   3.111
 9723SOL    HW240389   9.952   6.039   3.008
 9724SOL     OW40390   7.446   0.335   3.362
 9724SOL    HW140391   7.541   0.365   3.373
 9724SOL    HW240392   7.443   0.235   3.369
 9725SOL     OW40393   3.064   2.173   3.501
 9725SOL    HW140394   2.999   2.164   3.426
 9725SOL    HW240395   3.156   2.155   3.468
 9726SOL     OW40396   5.908   1.370   4.185
 9726SOL    HW140397   5.983   1.414   4.234
 9726SOL    HW240398   5.910   1.271   4.202
 9727SOL     OW40399   4.381   8.971   3.467
 9727SOL    HW140400   4.347   8.894   3.520
 9727SOL    HW240401   4.464   8.944   3.417
 9728SOL     OW40402   4.761   8.385   4.997
 9728SOL    HW140403   4.713   8.407   4.912
 9728SOL    HW240404   4.749   8.287   5.017
 9729SOL     OW40405   8.233   2.996   4.154
 9729SOL    HW140406   8.313   3.054   4.141
 9729SOL    HW240407   8.257   2.917   4.209
 9730SOL     OW40408   2.019   8.449   1.228
 9730SOL    HW140409   2.040   8.434   1.132
 9730SOL    HW240410   2.049   8.541   1.255
 9731SOL     OW40411   8.453   4.515   5.149
 9731SOL    HW140412   8.408   4.448   5.208
 9731SOL    HW240413   8.512   4.468   5.083
 9732SOL     OW40414   8.301   8.956   4.454
 9732SOL    HW140415   8.225   8.892   4.447
 9732SOL    HW240416   8.386   8.909   4.427
 9733SOL     OW40417   4.449   0.672   5.988
 9733SOL    HW140418   4.394   0.754   5.976
 9733SOL    HW240419   4.394   0.591   5.964
 9734SOL     OW40420   4.267   9.170   3.299
 9734SOL    HW140421   4.338   9.238   3.282
 9734SOL    HW240422   4.301   9.102   3.364
 9735SOL     OW40423   1.631   4.086   5.623
 9735SOL    HW140424   1.598   4.105   5.531
 9735SOL    HW240425   1.668   4.170   5.663
 9736SOL     OW40426   0.373   3.664   1.072
 9736SOL    HW140427   0.442   3.730   1.100
 9736SOL    HW240428   0.287   3.683   1.120
 9737SOL     OW40429   4.096   1.637   0.489
 9737SOL    HW140430   4.103   1.714   0.425
 9737SOL    HW240431   4.187   1.599   0.506
 9738SOL     OW40432   8.969   8.838   2.872
 9738SOL    HW140433   8.961   8.851   2.971
 9738SOL    HW240434   9.040   8.771   2.852
 9739SOL     OW40435   8.606   9.807   3.810
 9739SOL    HW140436   8.655   9.734   3.763
 9739SOL    HW240437   8.514   9.814   3.773
 9740SOL     OW40438   9.252   2.696   0.170
 9740SOL    HW140439   9.342   2.700   0.127
 9740SOL    HW240440   9.212   2.787   0.171
 9741SOL     OW40441   3.723   8.324   4.954
 9741SOL    HW140442   3.643   8.382   4.972
 9741SOL    HW240443   3.701   8.258   4.883
 9742SOL     OW40444   8.287   4.414   4.042
 9742SOL    HW140445   8.206   4.424   4.100
 9742SOL    HW240446   8.276   4.334   3.983
 9743SOL     OW40447   8.283   4.696   0.549
 9743SOL    HW140448   8.352   4.680   0.619
 9743SOL    HW240449   8.201   4.642   0.568
 9744SOL     OW40450   3.502   1.870   3.468
 9744SOL    HW140451   3.526   1.879   3.371
 9744SOL    HW240452   3.403   1.856   3.476
 9745SOL     OW40453   1.859   0.063   3.908
 9745SOL    HW140454   1.869   9.969   3.939
 9745SOL    HW240455   1.764   0.092   3.919
 9746SOL     OW40456   3.607   7.880   6.211
 9746SOL    HW140457   3.704   7.865   6.231
 9746SOL    HW240458   3.595   7.974   6.178
 9747SOL     OW40459   6.288   1.338   5.538
 9747SOL    HW140460   6.235   1.267   5.583
 9747SOL    HW240461   6.293   1.320   5.440
 9748SOL     OW40462   2.967   8.566   1.797
 9748SOL    HW140463   2.959   8.570   1.897
 9748SOL    HW240464   2.894   8.621   1.756
 9749SOL     OW40465   1.029   3.764   1.366
 9749SOL    HW140466   0.990   3.801   1.450
 9749SOL    HW240467   1.126   3.786   1.361
 9750SOL     OW40468   9.354   9.089   2.328
 9750SOL    HW140469   9.336   9.033   2.248
 9750SOL    HW240470   9.275   9.147   2.347
 9751SOL     OW40471   7.051   6.294   6.322
 9751SOL    HW140472   7.143   6.332   6.321
 9751SOL    HW240473   7.005   6.318   6.236
 9752SOL     OW40474   3.774   6.572   4.690
 9752SOL    HW140475   3.846   6.506   4.709
 9752SOL    HW240476   3.745   6.564   4.595
 9753SOL     OW40477   0.002   3.959   1.578
 9753SOL    HW140478   0.001   4.055   1.547
 9753SOL    HW240479   0.097   3.930   1.590
 9754SOL     OW40480   9.760   9.404   3.769
 9754SOL    HW140481   9.683   9.344   3.745
 9754SOL    HW240482   9.725   9.496   3.790
 9755SOL     OW40483   6.570   1.133   0.665
 9755SOL    HW140484   6.559   1.199   0.591
 9755SOL    HW240485   6.491   1.137   0.726
 9756SOL     OW40486   1.985   0.963   4.247
 9756SOL    HW140487   1.911   0.979   4.312
 9756SOL    HW240488   1.967   0.880   4.195
 9757SOL     OW40489   2.522   2.240   1.213
 9757SOL    HW140490   2.488   2.146   1.218
 9757SOL    HW240491   2.509   2.275   1.120
 9758SOL     OW40492   3.721   0.726   3.654
 9758SOL    HW140493   3.779   0.757   3.578
 9758SOL    HW240494   3.719   0.797   3.725
 9759SOL     OW40495   1.035   6.275   5.904
 9759SOL    HW140496   1.068   6.358   5.860
 9759SOL    HW240497   1.104   6.241   5.968
 9760SOL     OW40498   0.615   8.771   0.530
 9760SOL    HW140499   0.662   8.795   0.615
 9760SOL    HW240500   0.669   8.802   0.452
 9761SOL     OW40501   4.925   7.815   5.429
 9761SOL    HW140502   4.840   7.763   5.433
 9761SOL    HW240503   4.930   7.864   5.342
 9762SOL     OW40504   3.166   6.578   0.407
 9762SOL    HW140505   3.102   6.544   0.477
 9762SOL    HW240506   3.175   6.510   0.334
 9763SOL     OW40507   8.315   0.050   3.895
 9763SOL    HW140508   8.290   0.147   3.890
 9763SOL    HW240509   8.360   0.032   3.982
 9764SOL     OW40510   6.951   2.422   5.564
 9764SOL    HW140511   6.923   2.518   5.561
 9764SOL    HW240512   6.958   2.386   5.471
 9765SOL     OW40513   4.691   9.233   5.887
 9765SOL    HW140514   4.724   9.142   5.914
 9765SOL    HW240515   4.635   9.225   5.805
 9766SOL     OW40516   0.729   2.829   6.415
 9766SOL    HW140517   0.742   2.868   6.507
 9766SOL    HW240518   0.654   2.877   6.370
 9767SOL     OW40519   9.422   6.048   3.247
 9767SOL    HW140520   9.327   6.046   3.278
 9767SOL    HW240521   9.469   5.965   3.279
 9768SOL     OW40522   8.031   5.665   5.070
 9768SOL    HW140523   8.023   5.720   4.987
 9768SOL    HW240524   7.944   5.618   5.087
 9769SOL     OW40525   2.345   2.728   6.118
 9769SOL    HW140526   2.286   2.794   6.164
 9769SOL    HW240527   2.433   2.771   6.097
 9770SOL     OW40528   8.078   2.288   5.140
 9770SOL    HW140529   8.107   2.239   5.058
 9770SOL    HW240530   8.003   2.238   5.184
 9771SOL     OW40531   5.220   8.366   4.862
 9771SOL    HW140532   5.227   8.337   4.767
 9771SOL    HW240533   5.216   8.285   4.921
 9772SOL     OW40534   2.389   0.549   6.056
 9772SOL    HW140535   2.383   0.649   6.055
 9772SOL    HW240536   2.396   0.515   5.962
 9773SOL     OW40537   0.171   0.872   2.768
 9773SOL    HW140538   0.162   0.955   2.823
 9773SOL    HW240539   0.133   0.889   2.677
 9774SOL     OW40540   3.917   1.064   3.688
 9774SOL    HW140541   4.001   1.071   3.742
 9774SOL    HW240542   3.910   1.143   3.627
 9775SOL     OW40543   9.608   7.769   3.677
 9775SOL    HW140544   9.638   7.734   3.588
 9775SOL    HW240545   9.588   7.693   3.738
 9776SOL     OW40546   2.945   4.277   0.639
 9776SOL    HW140547   3.016   4.244   0.577
 9776SOL    HW240548   2.891   4.200   0.673
 9777SOL     OW40549   3.334   9.295   0.656
 9777SOL    HW140550   3.246   9.283   0.702
 9777SOL    HW240551   3.407   9.251   0.710
 9778SOL     OW40552   7.159   1.344   1.365
 9778SOL    HW140553   7.203   1.405   1.431
 9778SOL    HW240554   7.182   1.249   1.387
 9779SOL     OW40555   1.375   8.358   1.867
 9779SOL    HW140556   1.390   8.455   1.848
 9779SOL    HW240557   1.308   8.349   1.941
 9780SOL     OW40558   5.648   0.465   1.903
 9780SOL    HW140559   5.609   0.555   1.921
 9780SOL    HW240560   5.608   0.398   1.966
 9781SOL     OW40561   9.493   0.977   0.996
 9781SOL    HW140562   9.563   0.945   0.934
 9781SOL    HW240563   9.512   0.943   1.089
 9782SOL     OW40564   0.358   1.557   5.890
 9782SOL    HW140565   0.335   1.618   5.965
 9782SOL    HW240566   0.310   1.586   5.807
 9783SOL     OW40567   4.834   1.154   2.728
 9783SOL    HW140568   4.832   1.207   2.643
 9783SOL    HW240569   4.741   1.134   2.757
 9784SOL     OW40570   7.289   4.144   0.148
 9784SOL    HW140571   7.356   4.212   0.175
 9784SOL    HW240572   7.335   4.058   0.125
 9785SOL     OW40573   1.062   8.864   4.479
 9785SOL    HW140574   1.002   8.937   4.510
 9785SOL    HW240575   1.008   8.791   4.438
 9786SOL     OW40576   3.732   4.981   2.778
 9786SOL    HW140577   3.649   4.945   2.735
 9786SOL    HW240578   3.799   5.002   2.707
 9787SOL     OW40579   9.278   7.723   5.201
 9787SOL    HW140580   9.359   7.698   5.254
 9787SOL    HW240581   9.269   7.663   5.122
 9788SOL     OW40582   9.415   6.147   1.307
 9788SOL    HW140583   9.463   6.220   1.260
 9788SOL    HW240584   9.443   6.059   1.269
 9789SOL     OW40585   8.442   9.760   0.543
 9789SOL    HW140586   8.412   9.680   0.490
 9789SOL    HW240587   8.521   9.802   0.497
 9790SOL     OW40588   9.564   9.672   5.464
 9790SOL    HW140589   9.568   9.621   5.550
 9790SOL    HW240590   9.656   9.679   5.425
 9791SOL     OW40591   3.332   9.089   1.160
 9791SOL    HW140592   3.285   9.020   1.105
 9791SOL    HW240593   3.269   9.163   1.183
 9792SOL     OW40594   7.702   2.579   5.322
 9792SOL    HW140595   7.776   2.632   5.363
 9792SOL    HW240596   7.696   2.601   5.224
 9793SOL     OW40597   1.064   2.659   5.382
 9793SOL    HW140598   1.123   2.598   5.329
 9793SOL    HW240599   1.085   2.648   5.479
 9794SOL     OW40600   7.632   3.649   5.059
 9794SOL    HW140601   7.714   3.699   5.031
 9794SOL    HW240602   7.608   3.583   4.989
 9795SOL     OW40603   3.336   6.633   6.204
 9795SOL    HW140604   3.327   6.648   6.106
 9795SOL    HW240605   3.292   6.707   6.254
 9796SOL     OW40606   1.487   8.013   4.777
 9796SOL    HW140607   1.502   7.984   4.872
 9796SOL    HW240608   1.389   8.019   4.759
 9797SOL     OW40609   0.810   1.013   4.554
 9797SOL    HW140610   0.903   1.048   4.557
 9797SOL    HW240611   0.772   1.010   4.647
 9798SOL     OW40612   1.436   0.224   6.271
 9798SOL    HW140613   1.491   0.300   6.305
 9798SOL    HW240614   1.391   0.251   6.186
 9799SOL     OW40615   1.353   2.387   3.063
 9799SOL    HW140616   1.413   2.331   3.120
 9799SOL    HW240617   1.407   2.432   2.992
 9800SOL     OW40618   7.410   5.496   0.273
 9800SOL    HW140619   7.364   5.407   0.273
 9800SOL    HW240620   7.496   5.489   0.223
 9801SOL     OW40621   1.916   5.417   3.512
 9801SOL    HW140622   1.817   5.408   3.508
 9801SOL    HW240623   1.945   5.425   3.607
 9802SOL     OW40624   2.189   8.329   1.405
 9802SOL    HW140625   2.264   8.287   1.355
 9802SOL    HW240626   2.121   8.364   1.340
 9803SOL     OW40627   9.835   2.741   3.851
 9803SOL    HW140628   9.826   2.752   3.752
 9803SOL    HW240629   9.925   2.773   3.880
 9804SOL     OW40630   9.524   9.127   6.446
 9804SOL    HW140631   9.443   9.078   6.415
 9804SOL    HW240632   9.551   9.093   6.536
 9805SOL     OW40633   8.834   5.843   6.319
 9805SOL    HW140634   8.763   5.787   6.275
 9805SOL    HW240635   8.796   5.933   6.343
 9806SOL     OW40636   2.635   6.170   2.144
 9806SOL    HW140637   2.688   6.097   2.186
 9806SOL    HW240638   2.550   6.132   2.106
 9807SOL     OW40639   8.354   4.297   5.901
 9807SOL    HW140640   8.370   4.226   5.833
 9807SOL    HW240641   8.392   4.269   5.989
 9808SOL     OW40642   7.677   6.467   6.064
 9808SOL    HW140643   7.726   6.397   6.116
 9808SOL    HW240644   7.716   6.473   5.972
 9809SOL     OW40645   5.066   4.835   1.785
 9809SOL    HW140646   5.059   4.885   1.699
 9809SOL    HW240647   5.161   4.835   1.816
 9810SOL     OW40648   1.513   7.966   3.207
 9810SOL    HW140649   1.478   7.909   3.282
 9810SOL    HW240650   1.497   8.062   3.228
 9811SOL     OW40651   4.051   9.710   0.289
 9811SOL    HW140652   3.971   9.653   0.312
 9811SOL    HW240653   4.122   9.652   0.250
 9812SOL     OW40654   9.958   5.666   2.532
 9812SOL    HW140655   9.949   5.601   2.607
 9812SOL    HW240656   0.043   5.717   2.542
 9813SOL     OW40657   4.799   2.387   6.104
 9813SOL    HW140658   4.873   2.322   6.125
 9813SOL    HW240659   4.727   2.378   6.173
 9814SOL     OW40660   3.658   6.890   2.340
 9814SOL    HW140661   3.607   6.804   2.334
 9814SOL    HW240662   3.617   6.948   2.410
 9815SOL     OW40663   8.301   2.212   6.191
 9815SOL    HW140664   8.296   2.311   6.187
 9815SOL    HW240665   8.229   2.177   6.252
 9816SOL     OW40666   7.944   1.970   6.145
 9816SOL    HW140667   7.852   1.946   6.114
 9816SOL    HW240668   7.993   1.887   6.170
 9817SOL     OW40669   4.839   0.871   6.068
 9817SOL    HW140670   4.747   0.883   6.029
 9817SOL    HW240671   4.832   0.854   6.166
 9818SOL     OW40672   3.502   8.903   3.382
 9818SOL    HW140673   3.479   8.999   3.366
 9818SOL    HW240674   3.597   8.887   3.357
 9819SOL     OW40675   2.165   3.914   5.850
 9819SOL    HW140676   2.097   3.844   5.871
 9819SOL    HW240677   2.126   4.005   5.868
 9820SOL     OW40678   8.777   7.666   3.887
 9820SOL    HW140679   8.721   7.653   3.805
 9820SOL    HW240680   8.849   7.732   3.868
 9821SOL     OW40681   2.228   1.393   0.656
 9821SOL    HW140682   2.305   1.423   0.713
 9821SOL    HW240683   2.198   1.468   0.597
 9822SOL     OW40684   8.135   4.931   2.845
 9822SOL    HW140685   8.147   4.886   2.933
 9822SOL    HW240686   8.183   5.019   2.845
 9823SOL     OW40687   0.923   5.580   1.523
 9823SOL    HW140688   0.950   5.541   1.435
 9823SOL    HW240689   0.871   5.513   1.575
 9824SOL     OW40690   9.598   7.530   5.029
 9824SOL    HW140691   9.588   7.624   5.061
 9824SOL    HW240692   9.534   7.514   4.953
 9825SOL     OW40693   0.609   9.878   3.834
 9825SOL    HW140694   0.629   9.852   3.739
 9825SOL    HW240695   0.679   9.839   3.894
 9826SOL     OW40696   0.323   8.063   2.561
 9826SOL    HW140697   0.404   8.004   2.557
 9826SOL    HW240698   0.351   8.159   2.563
 9827SOL     OW40699   9.751   9.837   0.735
 9827SOL    HW140700   9.682   9.907   0.752
 9827SOL    HW240701   9.841   9.880   0.729
 9828SOL     OW40702   9.233   7.394   1.699
 9828SOL    HW140703   9.143   7.354   1.682
 9828SOL    HW240704   9.251   7.394   1.797
 9829SOL     OW40705   0.879   0.155   4.243
 9829SOL    HW140706   0.959   0.184   4.295
 9829SOL    HW240707   0.883   0.193   4.151
 9830SOL     OW40708   4.344   1.996   3.072
 9830SOL    HW140709   4.306   2.085   3.046
 9830SOL    HW240710   4.269   1.932   3.091
 9831SOL     OW40711   0.700   1.522   3.848
 9831SOL    HW140712   0.740   1.440   3.808
 9831SOL    HW240713   0.671   1.503   3.942
 9832SOL     OW40714   2.956   7.419   6.239
 9832SOL    HW140715   2.932   7.501   6.291
 9832SOL    HW240716   3.054   7.422   6.216
 9833SOL     OW40717   0.509   3.164   4.413
 9833SOL    HW140718   0.411   3.185   4.423
 9833SOL    HW240719   0.537   3.100   4.484
 9834SOL     OW40720   2.087   1.720   3.328
 9834SOL    HW140721   2.092   1.755   3.422
 9834SOL    HW240722   2.101   1.794   3.264
 9835SOL     OW40723   1.048   4.385   5.630
 9835SOL    HW140724   1.064   4.324   5.552
 9835SOL    HW240725   1.014   4.473   5.597
 9836SOL     OW40726   9.879   5.517   5.261
 9836SOL    HW140727   9.871   5.449   5.334
 9836SOL    HW240728   9.970   5.514   5.222
 9837SOL     OW40729   8.992   2.302   0.189
 9837SOL    HW140730   8.990   2.402   0.183
 9837SOL    HW240731   8.909   2.269   0.233
 9838SOL     OW40732   3.976   3.835   2.733
 9838SOL    HW140733   3.983   3.741   2.766
 9838SOL    HW240734   3.992   3.898   2.809
 9839SOL     OW40735   8.587   5.402   0.487
 9839SOL    HW140736   8.508   5.347   0.514
 9839SOL    HW240737   8.565   5.499   0.496
 9840SOL     OW40738   0.450   6.812   5.042
 9840SOL    HW140739   0.366   6.781   5.086
 9840SOL    HW240740   0.436   6.819   4.944
 9841SOL     OW40741   8.551   2.923   3.197
 9841SOL    HW140742   8.458   2.907   3.231
 9841SOL    HW240743   8.597   2.988   3.257
 9842SOL     OW40744   5.755   9.646   4.114
 9842SOL    HW140745   5.705   9.730   4.134
 9842SOL    HW240746   5.695   9.581   4.068
 9843SOL     OW40747   3.814   4.336   6.314
 9843SOL    HW140748   3.810   4.433   6.337
 9843SOL    HW240749   3.910   4.307   6.310
 9844SOL     OW40750   1.339   9.203   5.336
 9844SOL    HW140751   1.320   9.105   5.331
 9844SOL    HW240752   1.262   9.253   5.297
 9845SOL     OW40753   7.974   1.815   5.224
 9845SOL    HW140754   7.973   1.857   5.314
 9845SOL    HW240755   7.883   1.819   5.183
 9846SOL     OW40756   4.549   5.188   1.761
 9846SOL    HW140757   4.524   5.262   1.823
 9846SOL    HW240758   4.483   5.113   1.770
 9847SOL     OW40759   6.088   3.777   0.901
 9847SOL    HW140760   6.144   3.754   0.980
 9847SOL    HW240761   6.116   3.865   0.864
 9848SOL     OW40762   3.561   7.587   2.181
 9848SOL    HW140763   3.546   7.488   2.172
 9848SOL    HW240764   3.658   7.607   2.170
 9849SOL     OW40765   1.530   1.351   2.031
 9849SOL    HW140766   1.623   1.387   2.020
 9849SOL    HW240767   1.526   1.297   2.115
 9850SOL     OW40768   2.546   6.738   1.220
 9850SOL    HW140769   2.547   6.639   1.237
 9850SOL    HW240770   2.637   6.775   1.234
 9851SOL     OW40771   1.131   4.077   2.817
 9851SOL    HW140772   1.041   4.089   2.774
 9851SOL    HW240773   1.174   4.166   2.830
 9852SOL     OW40774   0.563   4.397   3.877
 9852SOL    HW140775   0.629   4.389   3.802
 9852SOL    HW240776   0.472   4.414   3.840
 9853SOL     OW40777   9.001   6.926   1.468
 9853SOL    HW140778   8.997   6.858   1.395
 9853SOL    HW240779   8.932   6.905   1.537
 9854SOL     OW40780   7.753   8.627   5.696
 9854SOL    HW140781   7.680   8.673   5.746
 9854SOL    HW240782   7.720   8.541   5.658
 9855SOL     OW40783   3.164   5.189   2.929
 9855SOL    HW140784   3.076   5.147   2.950
 9855SOL    HW240785   3.149   5.281   2.892
 9856SOL     OW40786   7.249   1.128   6.056
 9856SOL    HW140787   7.165   1.166   6.095
 9856SOL    HW240788   7.274   1.045   6.106
 9857SOL     OW40789   7.431   3.760   3.162
 9857SOL    HW140790   7.456   3.664   3.180
 9857SOL    HW240791   7.514   3.813   3.143
 9858SOL     OW40792   8.933   3.550   6.040
 9858SOL    HW140793   8.981   3.559   6.127
 9858SOL    HW240794   8.835   3.537   6.056
 9859SOL     OW40795   3.617   4.840   4.732
 9859SOL    HW140796   3.604   4.938   4.746
 9859SOL    HW240797   3.626   4.821   4.635
 9860SOL     OW40798   1.831   0.237   0.527
 9860SOL    HW140799   1.750   0.284   0.560
 9860SOL    HW240800   1.889   0.212   0.604
 9861SOL     OW40801   4.242   2.817   4.199
 9861SOL    HW140802   4.306   2.760   4.148
 9861SOL    HW240803   4.161   2.763   4.223
 9862SOL     OW40804   8.009   2.187   0.375
 9862SOL    HW140805   8.070   2.241   0.317
 9862SOL    HW240806   7.955   2.248   0.433
 9863SOL     OW40807   9.910   0.626   3.668
 9863SOL    HW140808   9.863   0.544   3.700
 9863SOL    HW240809   9.846   0.685   3.620
 9864SOL     OW40810   9.739   2.487   2.804
 9864SOL    HW140811   9.822   2.471   2.750
 9864SOL    HW240812   9.665   2.517   2.744
 9865SOL     OW40813   0.371   0.921   4.218
 9865SOL    HW140814   0.436   0.947   4.290
 9865SOL    HW240815   0.365   0.821   4.213
 9866SOL     OW40816   7.112   2.210   5.989
 9866SOL    HW140817   7.021   2.171   6.006
 9866SOL    HW240818   7.110   2.263   5.904
 9867SOL     OW40819   1.499   3.497   2.524
 9867SOL    HW140820   1.512   3.444   2.607
 9867SOL    HW240821   1.556   3.461   2.450
 9868SOL     OW40822   4.885   8.288   4.232
 9868SOL    HW140823   4.942   8.230   4.291
 9868SOL    HW240824   4.912   8.275   4.137
 9869SOL     OW40825   6.372   2.635   0.434
 9869SOL    HW140826   6.460   2.641   0.386
 9869SOL    HW240827   6.332   2.545   0.420
 9870SOL     OW40828   8.917   1.166   0.492
 9870SOL    HW140829   8.843   1.219   0.452
 9870SOL    HW240830   8.933   1.084   0.437
 9871SOL     OW40831   3.377   2.273   5.033
 9871SOL    HW140832   3.296   2.216   5.050
 9871SOL    HW240833   3.354   2.347   4.970
 9872SOL     OW40834   1.340   4.730   1.776
 9872SOL    HW140835   1.345   4.709   1.678
 9872SOL    HW240836   1.406   4.801   1.798
 9873SOL     OW40837   2.707   0.036   5.100
 9873SOL    HW140838   2.776   0.057   5.030
 9873SOL    HW240839   2.629   9.991   5.057
 9874SOL     OW40840   0.380   7.306   4.536
 9874SOL    HW140841   0.371   7.263   4.446
 9874SOL    HW240842   0.332   7.393   4.537
 9875SOL     OW40843   6.556   0.890   3.803
 9875SOL    HW140844   6.563   0.800   3.846
 9875SOL    HW240845   6.648   0.926   3.785
 9876SOL     OW40846   8.130   5.193   1.111
 9876SOL    HW140847   8.099   5.173   1.204
 9876SOL    HW240848   8.201   5.129   1.084
 9877SOL     OW40849   0.517   9.557   2.627
 9877SOL    HW140850   0.581   9.534   2.701
 9877SOL    HW240851   0.567   9.598   2.551
 9878SOL     OW40852   1.707   2.232   1.622
 9878SOL    HW140853   1.773   2.268   1.557
 9878SOL    HW240854   1.750   2.163   1.679
 9879SOL     OW40855   2.836   4.258   2.133
 9879SOL    HW140856   2.822   4.353   2.161
 9879SOL    HW240857   2.798   4.245   2.042
 9880SOL     OW40858   5.814   8.919   3.278
 9880SOL    HW140859   5.775   8.850   3.339
 9880SOL    HW240860   5.757   8.929   3.197
 9881SOL     OW40861   2.570   1.156   3.546
 9881SOL    HW140862   2.543   1.241   3.590
 9881SOL    HW240863   2.511   1.139   3.467
 9882SOL     OW40864   4.124   7.705   5.261
 9882SOL    HW140865   4.212   7.675   5.299
 9882SOL    HW240866   4.120   7.805   5.260
 9883SOL     OW40867   6.966   8.970   4.363
 9883SOL    HW140868   6.910   8.906   4.415
 9883SOL    HW240869   6.916   9.055   4.349
 9884SOL     OW40870   0.225   0.801   5.831
 9884SOL    HW140871   0.319   0.791   5.864
 9884SOL    HW240872   0.188   0.889   5.863
 9885SOL     OW40873   5.501   0.324   2.099
 9885SOL    HW140874   5.489   0.343   2.196
 9885SOL    HW240875   5.415   0.342   2.051
 9886SOL     OW40876   3.213   2.918   4.334
 9886SOL    HW140877   3.142   2.978   4.299
 9886SOL    HW240878   3.292   2.973   4.362
 9887SOL     OW40879   0.067   9.161   0.925
 9887SOL    HW140880   0.056   9.133   1.020
 9887SOL    HW240881   0.147   9.221   0.916
 9888SOL     OW40882   3.867   2.492   3.413
 9888SOL    HW140883   3.966   2.482   3.403
 9888SOL    HW240884   3.823   2.403   3.399
 9889SOL     OW40885   2.428   7.650   4.051
 9889SOL    HW140886   2.366   7.718   4.090
 9889SOL    HW240887   2.375   7.575   4.013
 9890SOL     OW40888   9.287   1.725   0.833
 9890SOL    HW140889   9.331   1.659   0.894
 9890SOL    HW240890   9.339   1.811   0.834
 9891SOL     OW40891   8.394   0.787   6.123
 9891SOL    HW140892   8.344   0.754   6.203
 9891SOL    HW240893   8.489   0.755   6.127
 9892SOL     OW40894   8.773   7.175   4.367
 9892SOL    HW140895   8.749   7.138   4.277
 9892SOL    HW240896   8.689   7.187   4.421
 9893SOL     OW40897   1.086   4.012   4.587
 9893SOL    HW140898   1.141   3.957   4.650
 9893SOL    HW240899   1.030   4.076   4.640
 9894SOL     OW40900   0.629   8.907   2.878
 9894SOL    HW140901   0.558   8.918   2.809
 9894SOL    HW240902   0.714   8.877   2.834
 9895SOL     OW40903   3.001   7.245   3.725
 9895SOL    HW140904   2.952   7.330   3.744
 9895SOL    HW240905   3.009   7.191   3.809
 9896SOL     OW40906   3.755   7.872   2.655
 9896SOL    HW140907   3.833   7.918   2.697
 9896SOL    HW240908   3.673   7.930   2.665
 9897SOL     OW40909   0.655   1.983   6.001
 9897SOL    HW140910   0.638   1.965   6.098
 9897SOL    HW240911   0.736   2.040   5.992
 9898SOL     OW40912   5.007   1.734   4.031
 9898SOL    HW140913   5.011   1.787   3.947
 9898SOL    HW240914   5.099   1.698   4.052
 9899SOL     OW40915   7.505   0.840   0.855
 9899SOL    HW140916   7.475   0.831   0.760
 9899SOL    HW240917   7.432   0.882   0.909
 9900SOL     OW40918   9.073   5.348   1.503
 9900SOL    HW140919   9.165   5.352   1.542
 9900SOL    HW240920   9.010   5.311   1.571
 9901SOL     OW40921   3.432   2.484   4.366
 9901SOL    HW140922   3.385   2.403   4.400
 9901SOL    HW240923   3.442   2.550   4.441
 9902SOL     OW40924   9.335   6.324   1.926
 9902SOL    HW140925   9.258   6.273   1.888
 9902SOL    HW240926   9.304   6.413   1.958
 9903SOL     OW40927   3.020   9.052   5.619
 9903SOL    HW140928   3.043   8.960   5.586
 9903SOL    HW240929   3.077   9.073   5.699
 9904SOL     OW40930   3.441   7.071   0.835
 9904SOL    HW140931   3.369   7.003   0.852
 9904SOL    HW240932   3.527   7.038   0.873
 9905SOL     OW40933   1.024   1.712   3.383
 9905SOL    HW140934   1.104   1.670   3.425
 9905SOL    HW240935   1.024   1.693   3.285
 9906SOL     OW40936   7.500   2.630   2.619
 9906SOL    HW140937   7.505   2.592   2.527
 9906SOL    HW240938   7.580   2.602   2.672
 9907SOL     OW40939   1.649   7.563   5.234
 9907SOL    HW140940   1.633   7.522   5.144
 9907SOL    HW240941   1.597   7.648   5.241
 9908SOL     OW40942   9.150   9.279   2.349
 9908SOL    HW140943   9.068   9.289   2.292
 9908SOL    HW240944   9.129   9.304   2.443
 9909SOL     OW40945   3.689   2.515   1.334
 9909SOL    HW140946   3.706   2.590   1.269
 9909SOL    HW240947   3.775   2.470   1.356
 9910SOL     OW40948   8.520   9.478   4.522
 9910SOL    HW140949   8.513   9.559   4.465
 9910SOL    HW240950   8.585   9.494   4.596
 9911SOL     OW40951   1.532   4.982   5.721
 9911SOL    HW140952   1.473   5.035   5.782
 9911SOL    HW240953   1.495   4.983   5.628
 9912SOL     OW40954   3.491   0.837   2.431
 9912SOL    HW140955   3.565   0.902   2.445
 9912SOL    HW240956   3.407   0.886   2.409
 9913SOL     OW40957   4.001   2.203   3.286
 9913SOL    HW140958   4.000   2.172   3.191
 9913SOL    HW240959   3.907   2.216   3.318
 9914SOL     OW40960   4.006   1.565   4.015
 9914SOL    HW140961   4.071   1.629   3.975
 9914SOL    HW240962   3.944   1.614   4.076
 9915SOL     OW40963   2.343   3.301   1.140
 9915SOL    HW140964   2.323   3.209   1.175
 9915SOL    HW240965   2.271   3.364   1.170
 9916SOL     OW40966   7.852   9.614   2.519
 9916SOL    HW140967   7.770   9.660   2.553
 9916SOL    HW240968   7.825   9.533   2.466
 9917SOL     OW40969   5.059   3.247   1.286
 9917SOL    HW140970   5.033   3.306   1.363
 9917SOL    HW240971   5.141   3.282   1.243
 9918SOL     OW40972   8.383   2.459   3.238
 9918SOL    HW140973   8.438   2.384   3.202
 9918SOL    HW240974   8.341   2.509   3.162
 9919SOL     OW40975   2.188   2.382   5.025
 9919SOL    HW140976   2.188   2.315   4.951
 9919SOL    HW240977   2.191   2.474   4.986
 9920SOL     OW40978   8.879   9.668   0.871
 9920SOL    HW140979   8.817   9.607   0.921
 9920SOL    HW240980   8.950   9.613   0.826
 9921SOL     OW40981   7.682   2.062   2.110
 9921SOL    HW140982   7.681   2.109   2.198
 9921SOL    HW240983   7.664   1.965   2.123
 9922SOL     OW40984   9.032   1.668   0.902
 9922SOL    HW140985   8.980   1.753   0.905
 9922SOL    HW240986   9.128   1.688   0.880
 9923SOL     OW40987   2.511   9.926   1.664
 9923SOL    HW140988   2.469   9.868   1.735
 9923SOL    HW240989   2.447   9.937   1.588
 9924SOL     OW40990   1.972   3.815   3.105
 9924SOL    HW140991   1.954   3.797   3.008
 9924SOL    HW240992   2.042   3.751   3.138
 9925SOL     OW40993   4.201   8.412   0.264
 9925SOL    HW140994   4.201   8.313   0.278
 9925SOL    HW240995   4.107   8.445   0.261
 9926SOL     OW40996   1.366   8.108   6.323
 9926SOL    HW140997   1.294   8.176   6.337
 9926SOL    HW240998   1.455   8.148   6.345
 9927SOL     OW40999   9.438   0.471   2.443
 9927SOL    HW141000   9.390   0.558   2.433
 9927SOL    HW241001   9.525   0.476   2.394
 9928SOL     OW41002   2.090   5.054   2.398
 9928SOL    HW141003   2.006   5.085   2.355
 9928SOL    HW241004   2.165   5.116   2.374
 9929SOL     OW41005   3.903   5.884   0.149
 9929SOL    HW141006   3.823   5.834   0.181
 9929SOL    HW241007   3.912   5.873   0.050
 9930SOL     OW41008   3.093   4.953   5.952
 9930SOL    HW141009   3.004   4.998   5.962
 9930SOL    HW241010   3.089   4.862   5.991
 9931SOL     OW41011   0.118   6.887   2.298
 9931SOL    HW141012   0.086   6.963   2.242
 9931SOL    HW241013   0.217   6.875   2.284
 9932SOL     OW41014   4.601   6.225   0.973
 9932SOL    HW141015   4.687   6.276   0.977
 9932SOL    HW241016   4.620   6.128   0.966
 9933SOL     OW41017   8.683   9.499   4.737
 9933SOL    HW141018   8.711   9.421   4.793
 9933SOL    HW241019   8.704   9.584   4.785
 9934SOL     OW41020   0.198   9.862   6.146
 9934SOL    HW141021   0.243   9.904   6.067
 9934SOL    HW241022   0.186   9.931   6.217
 9935SOL     OW41023   0.308   8.816   3.198
 9935SOL    HW141024   0.354   8.887   3.251
 9935SOL    HW241025   0.239   8.858   3.138
 9936SOL     OW41026   3.066   2.079   4.596
 9936SOL    HW141027   2.996   2.148   4.612
 9936SOL    HW241028   3.028   2.005   4.541
 9937SOL     OW41029   3.418   6.885   4.918
 9937SOL    HW141030   3.453   6.976   4.940
 9937SOL    HW241031   3.323   6.878   4.949
 9938SOL     OW41032   2.573   9.309   1.167
 9938SOL    HW141033   2.619   9.367   1.099
 9938SOL    HW241034   2.640   9.249   1.211
 9939SOL     OW41035   2.940   6.097   6.127
 9939SOL    HW141036   2.951   6.052   6.038
 9939SOL    HW241037   2.929   6.027   6.198
 9940SOL     OW41038   8.575   2.191   6.222
 9940SOL    HW141039   8.476   2.203   6.210
 9940SOL    HW241040   8.593   2.107   6.273
 9941SOL     OW41041   9.868   4.477   5.738
 9941SOL    HW141042   9.943   4.542   5.726
 9941SOL    HW241043   9.799   4.516   5.798
 9942SOL     OW41044   0.508   8.863   2.416
 9942SOL    HW141045   0.508   8.877   2.515
 9942SOL    HW241046   0.415   8.845   2.385
 9943SOL     OW41047   2.143   6.952   5.558
 9943SOL    HW141048   2.091   7.025   5.602
 9943SOL    HW241049   2.169   6.982   5.466
 9944SOL     OW41050   1.505   0.948   0.547
 9944SOL    HW141051   1.464   0.882   0.610
 9944SOL    HW241052   1.466   0.936   0.456
 9945SOL     OW41053   9.474   5.881   1.228
 9945SOL    HW141054   9.383   5.866   1.190
 9945SOL    HW241055   9.543   5.845   1.165
 9946SOL     OW41056   9.585   5.943   3.970
 9946SOL    HW141057   9.537   5.945   3.882
 9946SOL    HW241058   9.544   6.010   4.032
 9947SOL     OW41059   4.961   3.383   6.148
 9947SOL    HW141060   4.888   3.398   6.215
 9947SOL    HW241061   5.002   3.470   6.123
 9948SOL     OW41062   2.328   1.897   2.621
 9948SOL    HW141063   2.240   1.850   2.627
 9948SOL    HW241064   2.313   1.992   2.593
 9949SOL     OW41065   9.127   7.765   2.433
 9949SOL    HW141066   9.050   7.809   2.386
 9949SOL    HW241067   9.168   7.698   2.372
 9950SOL     OW41068   1.768   7.894   3.123
 9950SOL    HW141069   1.679   7.919   3.162
 9950SOL    HW241070   1.841   7.941   3.172
 9951SOL     OW41071   3.285   0.182   0.335
 9951SOL    HW141072   3.255   0.190   0.430
 9951SOL    HW241073   3.384   0.167   0.332
 9952SOL     OW41074   2.944   4.030   2.952
 9952SOL    HW141075   2.925   4.114   2.902
 9952SOL    HW241076   2.974   3.959   2.889
 9953SOL     OW41077   8.490   9.951   5.655
 9953SOL    HW141078   8.539   0.021   5.708
 9953SOL    HW241079   8.414   9.994   5.606
 9954SOL     OW41080   9.743   5.406   4.250
 9954SOL    HW141081   9.644   5.418   4.264
 9954SOL    HW241082   9.770   5.450   4.164
 9955SOL     OW41083   5.614   9.056   5.808
 9955SOL    HW141084   5.671   9.132   5.778
 9955SOL    HW241085   5.634   8.975   5.753
 9956SOL     OW41086   6.389   5.271   1.258
 9956SOL    HW141087   6.473   5.254   1.207
 9956SOL    HW241088   6.372   5.369   1.262
 9957SOL     OW41089   7.736   8.249   3.726
 9957SOL    HW141090   7.654   8.192   3.714
 9957SOL    HW241091   7.755   8.259   3.824
 9958SOL     OW41092   2.603   7.701   1.641
 9958SOL    HW141093   2.635   7.790   1.673
 9958SOL    HW241094   2.503   7.699   1.643
 9959SOL     OW41095   2.446   4.681   5.293
 9959SOL    HW141096   2.523   4.731   5.254
 9959SOL    HW241097   2.463   4.663   5.390
 9960SOL     OW41098   7.781   4.404   2.915
 9960SOL    HW141099   7.702   4.402   2.854
 9960SOL    HW241100   7.827   4.316   2.913
 9961SOL     OW41101   8.316   4.204   2.755
 9961SOL    HW141102   8.264   4.274   2.804
 9961SOL    HW241103   8.259   4.123   2.742
 9962SOL     OW41104   6.620   3.141   1.067
 9962SOL    HW141105   6.605   3.215   1.133
 9962SOL    HW241106   6.532   3.114   1.028
 9963SOL     OW41107   8.169   7.665   4.184
 9963SOL    HW141108   8.177   7.765   4.182
 9963SOL    HW241109   8.251   7.625   4.144
 9964SOL     OW41110   3.496   6.972   5.235
 9964SOL    HW141111   3.576   6.911   5.236
 9964SOL    HW241112   3.499   7.029   5.153
 9965SOL     OW41113   2.675   5.535   1.551
 9965SOL    HW141114   2.583   5.567   1.527
 9965SOL    HW241115   2.737   5.614   1.555
 9966SOL     OW41116   3.785   1.925   4.618
 9966SOL    HW141117   3.805   1.981   4.537
 9966SOL    HW241118   3.706   1.868   4.600
 9967SOL     OW41119   0.034   2.080   1.578
 9967SOL    HW141120   0.064   2.011   1.512
 9967SOL    HW241121   9.939   2.062   1.604
 9968SOL     OW41122   8.407   5.211   5.392
 9968SOL    HW141123   8.381   5.118   5.366
 9968SOL    HW241124   8.345   5.244   5.463
 9969SOL     OW41125   7.733   2.263   6.132
 9969SOL    HW141126   7.829   2.255   6.103
 9969SOL    HW241127   7.726   2.238   6.228
 9970SOL     OW41128   4.233   4.348   0.136
 9970SOL    HW141129   4.280   4.280   0.193
 9970SOL    HW241130   4.298   4.418   0.107
 9971SOL     OW41131   9.476   1.864   2.385
 9971SOL    HW141132   9.541   1.811   2.329
 9971SOL    HW241133   9.482   1.961   2.361
 9972SOL     OW41134   5.619   8.451   4.456
 9972SOL    HW141135   5.570   8.513   4.517
 9972SOL    HW241136   5.596   8.472   4.361
 9973SOL     OW41137   4.531   6.496   1.869
 9973SOL    HW141138   4.443   6.501   1.916
 9973SOL    HW241139   4.605   6.502   1.936
 9974SOL     OW41140   3.957   9.106   5.684
 9974SOL    HW141141   3.961   9.075   5.590
 9974SOL    HW241142   4.017   9.185   5.696
 9975SOL     OW41143   4.553   9.627   4.733
 9975SOL    HW141144   4.516   9.714   4.765
 9975SOL    HW241145   4.485   9.579   4.678
 9976SOL     OW41146   2.346   2.993   5.312
 9976SOL    HW141147   2.357   3.046   5.397
 9976SOL    HW241148   2.379   2.900   5.327
 9977SOL     OW41149   9.230   4.493   3.556
 9977SOL    HW141150   9.174   4.442   3.621
 9977SOL    HW241151   9.254   4.582   3.594
 9978SOL     OW41152   3.176   6.330   0.729
 9978SOL    HW141153   3.190   6.239   0.691
 9978SOL    HW241154   3.106   6.377   0.677
 9979SOL     OW41155   2.616   8.486   4.890
 9979SOL    HW141156   2.596   8.551   4.817
 9979SOL    HW241157   2.562   8.509   4.971
 9980SOL     OW41158   9.089   6.841   0.356
 9980SOL    HW141159   9.037   6.814   0.437
 9980SOL    HW241160   9.175   6.884   0.385
 9981SOL     OW41161   0.066   7.201   6.201
 9981SOL    HW141162   0.021   7.158   6.123
 9981SOL    HW241163   0.149   7.247   6.170
 9982SOL     OW41164   7.996   5.844   4.858
 9982SOL    HW141165   8.081   5.835   4.807
 9982SOL    HW241166   7.977   5.941   4.874
 9983SOL     OW41167   9.971   3.470   3.359
 9983SOL    HW141168   0.060   3.472   3.315
 9983SOL    HW241169   9.940   3.564   3.376
 9984SOL     OW41170   0.396   3.534   4.544
 9984SOL    HW141171   0.480   3.488   4.574
 9984SOL    HW241172   0.354   3.580   4.622
 9985SOL     OW41173   6.168   8.176   5.081
 9985SOL    HW141174   6.173   8.275   5.077
 9985SOL    HW241175   6.238   8.140   5.143
 9986SOL     OW41176   4.042   4.640   0.813
 9986SOL    HW141177   4.130   4.593   0.809
 9986SOL    HW241178   4.030   4.695   0.731
 9987SOL     OW41179   4.997   7.173   3.045
 9987SOL    HW141180   4.900   7.170   3.019
 9987SOL    HW241181   5.027   7.268   3.050
 9988SOL     OW41182   0.047   3.836   2.150
 9988SOL    HW141183   0.100   3.872   2.227
 9988SOL    HW241184   9.952   3.867   2.158
 9989SOL     OW41185   8.980   5.391   1.021
 9989SOL    HW141186   8.918   5.313   1.033
 9989SOL    HW241187   9.043   5.395   1.099
 9990SOL     OW41188   9.853   5.480   0.337
 9990SOL    HW141189   9.787   5.431   0.280
 9990SOL    HW241190   9.864   5.434   0.425
 9991SOL     OW41191   5.880   8.044   2.985
 9991SOL    HW141192   5.938   8.113   3.027
 9991SOL    HW241193   5.813   8.089   2.925
 9992SOL     OW41194   1.195   3.679   4.976
 9992SOL    HW141195   1.115   3.728   5.012
 9992SOL    HW241196   1.230   3.616   5.046
 9993SOL     OW41197   4.911   9.354   4.717
 9993SOL    HW141198   4.991   9.387   4.767
 9993SOL    HW241199   4.906   9.401   4.629
 9994SOL     OW41200   1.093   5.173   1.155
 9994SOL    HW141201   1.016   5.132   1.106
 9994SOL    HW241202   1.137   5.241   1.097
 9995SOL     OW41203   7.969   8.464   1.114
 9995SOL    HW141204   7.980   8.396   1.187
 9995SOL    HW241205   8.057   8.506   1.094
 9996SOL     OW41206   9.650   5.712   2.487
 9996SOL    HW141207   9.636   5.762   2.573
 9996SOL    HW241208   9.742   5.672   2.487
 9997SOL     OW41209   9.532   2.307   5.752
 9997SOL    HW141210   9.468   2.337   5.823
 9997SOL    HW241211   9.483   2.252   5.684
 9998SOL     OW41212   4.397   1.594   4.230
 9998SOL    HW141213   4.432   1.659   4.162
 9998SOL    HW241214   4.327   1.639   4.286
 9999SOL     OW41215   3.553   2.548   0.708
 9999SOL    HW141216   3.540   2.645   0.729
 9999SOL    HW241217   3.558   2.496   0.793
10000SOL     OW41218   7.588   0.590   4.011
10000SOL    HW141219   7.552   0.564   3.921
10000SOL    HW241220   7.688   0.594   4.007
10001SOL     OW41221   7.183   4.595   1.842
10001SOL    HW141222   7.270   4.643   1.852
10001SOL    HW241223   7.141   4.584   1.932
10002SOL     OW41224   0.121   6.958   0.315
10002SOL    HW141225   0.163   6.915   0.395
10002SOL    HW241226   0.033   6.998   0.341
10003SOL     OW41227   0.572   3.822   1.164
10003SOL    HW141228   0.622   3.908   1.153
10003SOL    HW241229   0.636   3.746   1.162
10004SOL     OW41230   3.806   7.143   5.415
10004SOL    HW141231   3.819   7.242   5.415
10004SOL    HW241232   3.760   7.116   5.500
10005SOL     OW41233   8.194   2.115   4.940
10005SOL    HW141234   8.192   2.035   4.999
10005SOL    HW241235   8.287   2.128   4.904
10006SOL     OW41236   9.346   5.852   2.726
10006SOL    HW141237   9.294   5.804   2.655
10006SOL    HW241238   9.301   5.839   2.815
10007SOL     OW41239   5.284   3.464   0.813
10007SOL    HW141240   5.339   3.534   0.859
10007SOL    HW241241   5.214   3.508   0.757
10008SOL     OW41242   8.108   0.881   2.649
10008SOL    HW141243   8.078   0.975   2.631
10008SOL    HW241244   8.138   0.839   2.563
10009SOL     OW41245   4.717   6.217   3.088
10009SOL    HW141246   4.629   6.218   3.135
10009SOL    HW241247   4.723   6.295   3.026
10010SOL     OW41248   6.453   2.772   4.439
10010SOL    HW141249   6.384   2.722   4.491
10010SOL    HW241250   6.519   2.813   4.502
10011SOL     OW41251   0.771   3.122   5.565
10011SOL    HW141252   0.766   3.138   5.466
10011SOL    HW241253   0.866   3.135   5.595
10012SOL     OW41254   3.631   3.314   5.021
10012SOL    HW141255   3.535   3.307   5.049
10012SOL    HW241256   3.644   3.399   4.969
10013SOL     OW41257   9.795   7.895   1.400
10013SOL    HW141258   9.828   7.857   1.313
10013SOL    HW241259   9.864   7.957   1.437
10014SOL     OW41260   1.189   7.489   1.083
10014SOL    HW141261   1.169   7.395   1.112
10014SOL    HW241262   1.268   7.489   1.022
10015SOL     OW41263   9.353   2.808   4.114
10015SOL    HW141264   9.426   2.755   4.071
10015SOL    HW241265   9.290   2.746   4.161
10016SOL     OW41266   5.545   7.736   5.293
10016SOL    HW141267   5.584   7.781   5.213
10016SOL    HW241268   5.446   7.748   5.293
10017SOL     OW41269   5.470   1.442   6.036
10017SOL    HW141270   5.507   1.388   5.960
10017SOL    HW241271   5.544   1.464   6.099
10018SOL     OW41272   9.060   0.554   3.716
10018SOL    HW141273   9.021   0.575   3.626
10018SOL    HW241274   9.160   0.552   3.709
10019SOL     OW41275   8.243   4.862   3.853
10019SOL    HW141276   8.187   4.887   3.932
10019SOL    HW241277   8.249   4.762   3.848
10020SOL     OW41278   3.348   4.863   4.136
10020SOL    HW141279   3.252   4.860   4.107
10020SOL    HW241280   3.398   4.788   4.092
10021SOL     OW41281   9.056   0.539   1.886
10021SOL    HW141282   8.958   0.523   1.874
10021SOL    HW241283   9.084   0.507   1.977
10022SOL     OW41284   1.796   5.900   0.141
10022SOL    HW141285   1.804   5.983   0.086
10022SOL    HW241286   1.771   5.823   0.082
10023SOL     OW41287   2.096   1.448   3.343
10023SOL    HW141288   2.040   1.416   3.419
10023SOL    HW241289   2.088   1.548   3.336
10024SOL     OW41290   9.078   0.782   1.773
10024SOL    HW141291   9.077   0.690   1.813
10024SOL    HW241292   8.986   0.805   1.741
10025SOL     OW41293   8.453   7.142   6.052
10025SOL    HW141294   8.518   7.159   6.126
10025SOL    HW241295   8.429   7.229   6.008
10026SOL     OW41296   1.524   1.063   4.917
10026SOL    HW141297   1.491   1.117   4.839
10026SOL    HW241298   1.469   0.980   4.926
10027SOL     OW41299   4.337   2.363   5.154
10027SOL    HW141300   4.433   2.389   5.141
10027SOL    HW241301   4.284   2.443   5.181
10028SOL     OW41302   2.299   2.041   4.620
10028SOL    HW141303   2.270   1.949   4.647
10028SOL    HW241304   2.397   2.040   4.599
10029SOL     OW41305   9.065   2.118   2.456
10029SOL    HW141306   9.071   2.127   2.556
10029SOL    HW241307   9.038   2.025   2.432
10030SOL     OW41308   2.212   8.031   3.531
10030SOL    HW141309   2.253   8.110   3.576
10030SOL    HW241310   2.112   8.042   3.528
10031SOL     OW41311   5.514   1.512   3.346
10031SOL    HW141312   5.547   1.486   3.438
10031SOL    HW241313   5.561   1.457   3.278
10032SOL     OW41314   2.802   0.234   6.410
10032SOL    HW141315   2.784   0.202   6.503
10032SOL    HW241316   2.721   0.216   6.353
10033SOL     OW41317   1.233   6.590   2.350
10033SOL    HW141318   1.291   6.580   2.432
10033SOL    HW241319   1.291   6.593   2.269
10034SOL     OW41320   1.199   7.727   2.799
10034SOL    HW141321   1.252   7.655   2.756
10034SOL    HW241322   1.253   7.768   2.873
10035SOL     OW41323   4.222   1.818   3.467
10035SOL    HW141324   4.280   1.812   3.386
10035SOL    HW241325   4.161   1.739   3.471
10036SOL     OW41326   8.030   8.304   1.338
10036SOL    HW141327   7.956   8.313   1.405
10036SOL    HW241328   8.104   8.367   1.361
10037SOL     OW41329   8.213   5.481   5.159
10037SOL    HW141330   8.156   5.553   5.120
10037SOL    HW241331   8.169   5.444   5.241
10038SOL     OW41332   0.593   8.043   5.163
10038SOL    HW141333   0.527   8.099   5.112
10038SOL    HW241334   0.628   7.971   5.104
10039SOL     OW41335   5.247   2.482   0.608
10039SOL    HW141336   5.173   2.463   0.544
10039SOL    HW241337   5.241   2.576   0.639
10040SOL     OW41338   8.121   8.095   3.111
10040SOL    HW141339   8.090   8.138   3.195
10040SOL    HW241340   8.048   8.098   3.043
10041SOL     OW41341   4.146   7.603   1.636
10041SOL    HW141342   4.087   7.525   1.620
10041SOL    HW241343   4.123   7.677   1.572
10042SOL     OW41344   8.453   7.120   5.253
10042SOL    HW141345   8.372   7.073   5.289
10042SOL    HW241346   8.433   7.155   5.162
10043SOL     OW41347   5.306   2.620   0.996
10043SOL    HW141348   5.371   2.683   0.954
10043SOL    HW241349   5.229   2.672   1.032
10044SOL     OW41350   4.139   0.543   5.290
10044SOL    HW141351   4.115   0.450   5.260
10044SOL    HW241352   4.158   0.600   5.209
10045SOL     OW41353   9.860   2.834   0.123
10045SOL    HW141354   9.819   2.904   0.180
10045SOL    HW241355   9.937   2.873   0.072
10046SOL     OW41356   7.373   0.811   1.458
10046SOL    HW141357   7.362   0.782   1.363
10046SOL    HW241358   7.289   0.790   1.509
10047SOL     OW41359   7.378   6.250   5.941
10047SOL    HW141360   7.389   6.339   5.985
10047SOL    HW241361   7.373   6.262   5.842
10048SOL     OW41362   7.907   8.085   6.104
10048SOL    HW141363   7.885   8.052   6.013
10048SOL    HW241364   7.966   8.165   6.098
10049SOL     OW41365   3.906   4.470   4.333
10049SOL    HW141366   3.972   4.531   4.376
10049SOL    HW241367   3.954   4.395   4.287
10050SOL     OW41368   0.451   7.409   0.704
10050SOL    HW141369   0.448   7.501   0.666
10050SOL    HW241370   0.545   7.373   0.699
10051SOL     OW41371   1.979   3.949   5.467
10051SOL    HW141372   2.033   3.945   5.383
10051SOL    HW241373   1.889   3.989   5.448
10052SOL     OW41374   6.226   9.867   5.948
10052SOL    HW141375   6.297   9.803   5.977
10052SOL    HW241376   6.165   9.822   5.883
10053SOL     OW41377   8.745   5.687   1.995
10053SOL    HW141378   8.809   5.763   2.004
10053SOL    HW241379   8.733   5.643   2.085
10054SOL     OW41380   2.552   6.425   2.273
10054SOL    HW141381   2.590   6.337   2.241
10054SOL    HW241382   2.625   6.479   2.315
10055SOL     OW41383   2.494   1.377   1.974
10055SOL    HW141384   2.396   1.388   1.989
10055SOL    HW241385   2.511   1.360   1.877
10056SOL     OW41386   1.209   8.481   3.148
10056SOL    HW141387   1.274   8.546   3.188
10056SOL    HW241388   1.215   8.486   3.048
10057SOL     OW41389   3.130   7.253   0.329
10057SOL    HW141390   3.071   7.273   0.408
10057SOL    HW241391   3.205   7.193   0.358
10058SOL     OW41392   1.602   0.726   2.322
10058SOL    HW141393   1.591   0.818   2.285
10058SOL    HW241394   1.518   0.699   2.370
10059SOL     OW41395   4.247   4.123   5.844
10059SOL    HW141396   4.343   4.103   5.827
10059SOL    HW241397   4.191   4.046   5.814
10060SOL     OW41398   1.665   5.329   0.931
10060SOL    HW141399   1.579   5.373   0.904
10060SOL    HW241400   1.664   5.234   0.898
10061SOL     OW41401   3.669   4.596   4.290
10061SOL    HW141402   3.612   4.538   4.231
10061SOL    HW241403   3.752   4.546   4.316
10062SOL     OW41404   1.065   6.341   0.890
10062SOL    HW141405   1.027   6.340   0.983
10062SOL    HW241406   1.163   6.320   0.894
10063SOL     OW41407   6.906   3.059   5.220
10063SOL    HW141408   6.820   3.082   5.265
10063SOL    HW241409   6.925   2.962   5.232
10064SOL     OW41410   4.480   4.310   4.136
10064SOL    HW141411   4.468   4.261   4.050
10064SOL    HW241412   4.435   4.399   4.130
10065SOL     OW41413   0.650   4.693   3.593
10065SOL    HW141414   0.617   4.768   3.651
10065SOL    HW241415   0.727   4.725   3.538
10066SOL     OW41416   9.707   3.723   3.223
10066SOL    HW141417   9.774   3.710   3.296
10066SOL    HW241418   9.686   3.820   3.213
10067SOL     OW41419   2.056   4.370   5.732
10067SOL    HW141420   2.025   4.464   5.722
10067SOL    HW241421   2.083   4.334   5.643
10068SOL     OW41422   2.006   0.323   4.716
10068SOL    HW141423   2.012   0.352   4.620
10068SOL    HW241424   2.050   0.234   4.726
10069SOL     OW41425   6.486   1.036   3.241
10069SOL    HW141426   6.419   1.084   3.185
10069SOL    HW241427   6.440   0.994   3.319
10070SOL     OW41428   2.632   1.383   4.024
10070SOL    HW141429   2.654   1.291   4.055
10070SOL    HW241430   2.622   1.443   4.103
10071SOL     OW41431   8.444   4.111   2.413
10071SOL    HW141432   8.433   4.030   2.356
10071SOL    HW241433   8.482   4.085   2.502
10072SOL     OW41434   3.519   8.478   5.071
10072SOL    HW141435   3.557   8.569   5.085
10072SOL    HW241436   3.433   8.485   5.020
10073SOL     OW41437   8.662   7.140   6.242
10073SOL    HW141438   8.713   7.068   6.195
10073SOL    HW241439   8.725   7.211   6.272
10074SOL     OW41440   5.134   0.929   1.706
10074SOL    HW141441   5.207   0.979   1.658
10074SOL    HW241442   5.129   0.961   1.801
10075SOL     OW41443   4.451   2.123   5.904
10075SOL    HW141444   4.494   2.115   5.994
10075SOL    HW241445   4.357   2.156   5.914
10076SOL     OW41446   0.631   6.684   1.272
10076SOL    HW141447   0.579   6.605   1.308
10076SOL    HW241448   0.567   6.749   1.230
10077SOL     OW41449   9.704   8.226   5.710
10077SOL    HW141450   9.748   8.146   5.752
10077SOL    HW241451   9.773   8.286   5.671
10078SOL     OW41452   1.770   2.097   3.789
10078SOL    HW141453   1.757   2.124   3.884
10078SOL    HW241454   1.690   2.045   3.758
10079SOL     OW41455   2.669   8.268   1.918
10079SOL    HW141456   2.743   8.230   1.973
10079SOL    HW241457   2.609   8.322   1.976
10080SOL     OW41458   2.500   2.147   2.238
10080SOL    HW141459   2.597   2.150   2.215
10080SOL    HW241460   2.481   2.068   2.296
10081SOL     OW41461   7.124   1.068   4.197
10081SOL    HW141462   7.160   1.161   4.192
10081SOL    HW241463   7.135   1.033   4.290
10082SOL     OW41464   4.021   9.462   3.055
10082SOL    HW141465   3.989   9.501   2.968
10082SOL    HW241466   4.056   9.536   3.112
10083SOL     OW41467   0.949   0.767   1.829
10083SOL    HW141468   0.863   0.769   1.780
10083SOL    HW241469   0.998   0.682   1.809
10084SOL     OW41470   4.779   9.485   5.925
10084SOL    HW141471   4.749   9.391   5.912
10084SOL    HW241472   4.877   9.487   5.943
10085SOL     OW41473   0.825   9.775   2.841
10085SOL    HW141474   0.885   9.766   2.921
10085SOL    HW241475   0.782   9.687   2.822
10086SOL     OW41476   7.025   0.872   2.369
10086SOL    HW141477   6.989   0.866   2.462
10086SOL    HW241478   7.125   0.878   2.373
10087SOL     OW41479   7.839   2.244   1.186
10087SOL    HW141480   7.763   2.296   1.223
10087SOL    HW241481   7.908   2.229   1.257
10088SOL     OW41482   5.625   1.433   1.488
10088SOL    HW141483   5.542   1.487   1.506
10088SOL    HW241484   5.599   1.342   1.455
10089SOL     OW41485   4.306   9.398   1.721
10089SOL    HW141486   4.371   9.468   1.692
10089SOL    HW241487   4.272   9.421   1.813
10090SOL     OW41488   7.479   0.219   2.135
10090SOL    HW141489   7.439   0.272   2.060
10090SOL    HW241490   7.475   0.273   2.219
10091SOL     OW41491   9.676   4.536   2.241
10091SOL    HW141492   9.638   4.466   2.180
10091SOL    HW241493   9.776   4.528   2.244
10092SOL     OW41494   8.428   8.069   0.827
10092SOL    HW141495   8.489   8.123   0.770
10092SOL    HW241496   8.384   8.128   0.895
10093SOL     OW41497   3.510   2.254   5.788
10093SOL    HW141498   3.462   2.222   5.870
10093SOL    HW241499   3.537   2.349   5.800
10094SOL     OW41500   1.872   2.701   0.977
10094SOL    HW141501   1.776   2.730   0.975
10094SOL    HW241502   1.923   2.750   0.907
10095SOL     OW41503   8.190   8.409   3.866
10095SOL    HW141504   8.122   8.377   3.932
10095SOL    HW241505   8.242   8.331   3.830
10096SOL     OW41506   3.436   4.850   5.752
10096SOL    HW141507   3.532   4.874   5.736
10096SOL    HW241508   3.420   4.842   5.850
10097SOL     OW41509   7.878   2.321   1.850
10097SOL    HW141510   7.787   2.288   1.875
10097SOL    HW241511   7.908   2.276   1.766
10098SOL     OW41512   0.829   4.363   2.072
10098SOL    HW141513   0.770   4.330   2.146
10098SOL    HW241514   0.924   4.340   2.093
10099SOL     OW41515   1.641   7.753   1.374
10099SOL    HW141516   1.556   7.803   1.354
10099SOL    HW241517   1.648   7.737   1.472
10100SOL     OW41518   0.913   8.746   5.655
10100SOL    HW141519   0.850   8.815   5.692
10100SOL    HW241520   0.996   8.744   5.710
10101SOL     OW41521   4.611   7.764   3.284
10101SOL    HW141522   4.665   7.680   3.288
10101SOL    HW241523   4.528   7.748   3.230
10102SOL     OW41524   1.662   3.966   0.866
10102SOL    HW141525   1.644   3.962   0.768
10102SOL    HW241526   1.755   3.999   0.881
10103SOL     OW41527   1.855   3.029   5.796
10103SOL    HW141528   1.926   3.016   5.726
10103SOL    HW241529   1.774   2.975   5.772
10104SOL     OW41530   2.248   5.094   2.855
10104SOL    HW141531   2.311   5.164   2.889
10104SOL    HW241532   2.285   5.004   2.876
10105SOL     OW41533   8.652   2.764   0.938
10105SOL    HW141534   8.721   2.769   1.010
10105SOL    HW241535   8.696   2.740   0.851
10106SOL     OW41536   3.208   7.814   2.152
10106SOL    HW141537   3.116   7.806   2.191
10106SOL    HW241538   3.276   7.792   2.221
10107SOL     OW41539   3.136   6.968   4.201
10107SOL    HW141540   3.172   6.992   4.291
10107SOL    HW241541   3.119   6.870   4.197
10108SOL     OW41542   1.985   3.409   5.977
10108SOL    HW141543   2.000   3.442   5.884
10108SOL    HW241544   2.068   3.366   6.011
10109SOL     OW41545   8.451   9.135   5.141
10109SOL    HW141546   8.429   9.082   5.059
10109SOL    HW241547   8.473   9.229   5.114
10110SOL     OW41548   9.975   7.817   5.103
10110SOL    HW141549   9.911   7.894   5.108
10110SOL    HW241550   9.926   7.732   5.119
10111SOL     OW41551   2.483   1.911   2.384
10111SOL    HW141552   2.579   1.884   2.394
10111SOL    HW241553   2.435   1.893   2.469
10112SOL     OW41554   2.263   4.892   1.384
10112SOL    HW141555   2.277   4.823   1.455
10112SOL    HW241556   2.276   4.983   1.423
10113SOL     OW41557   4.078   6.543   1.796
10113SOL    HW141558   4.037   6.635   1.789
10113SOL    HW241559   4.005   6.475   1.802
10114SOL     OW41560   2.569   7.825   2.915
10114SOL    HW141561   2.607   7.740   2.951
10114SOL    HW241562   2.562   7.892   2.988
10115SOL     OW41563   0.166   4.620   3.488
10115SOL    HW141564   0.132   4.590   3.577
10115SOL    HW241565   0.263   4.597   3.479
10116SOL     OW41566   7.593   6.395   3.414
10116SOL    HW141567   7.691   6.390   3.434
10116SOL    HW241568   7.541   6.370   3.496
10117SOL     OW41569   2.666   0.383   5.766
10117SOL    HW141570   2.698   0.336   5.848
10117SOL    HW241571   2.728   0.460   5.746
10118SOL     OW41572   2.042   2.270   3.303
10118SOL    HW141573   2.074   2.212   3.378
10118SOL    HW241574   1.982   2.216   3.243
10119SOL     OW41575   5.323   8.454   2.749
10119SOL    HW141576   5.394   8.522   2.734
10119SOL    HW241577   5.361   8.362   2.738
10120SOL     OW41578   8.121   3.160   5.481
10120SOL    HW141579   8.050   3.211   5.528
10120SOL    HW241580   8.211   3.187   5.517
10121SOL     OW41581   7.953   7.833   3.663
10121SOL    HW141582   8.044   7.814   3.698
10121SOL    HW241583   7.961   7.877   3.573
10122SOL     OW41584   3.739   3.376   3.052
10122SOL    HW141585   3.728   3.467   3.093
10122SOL    HW241586   3.834   3.347   3.059
10123SOL     OW41587   8.137   9.492   5.373
10123SOL    HW141588   8.095   9.537   5.451
10123SOL    HW241589   8.183   9.561   5.316
10124SOL     OW41590   2.101   6.368   4.977
10124SOL    HW141591   2.142   6.388   5.066
10124SOL    HW241592   2.139   6.282   4.942
10125SOL     OW41593   5.378   1.194   2.132
10125SOL    HW141594   5.294   1.247   2.123
10125SOL    HW241595   5.444   1.224   2.062
10126SOL     OW41596   7.224   8.732   5.049
10126SOL    HW141597   7.277   8.810   5.016
10126SOL    HW241598   7.236   8.655   4.986
10127SOL     OW41599   9.024   3.345   4.954
10127SOL    HW141600   9.078   3.422   4.921
10127SOL    HW241601   8.931   3.375   4.974
10128SOL     OW41602   0.658   4.952   4.724
10128SOL    HW141603   0.695   4.861   4.709
10128SOL    HW241604   0.626   4.959   4.819
10129SOL     OW41605   3.569   2.604   2.362
10129SOL    HW141606   3.534   2.557   2.444
10129SOL    HW241607   3.592   2.536   2.292
10130SOL     OW41608   8.227   2.079   1.858
10130SOL    HW141609   8.235   2.167   1.810
10130SOL    HW241610   8.317   2.046   1.884
10131SOL     OW41611   6.632   2.627   0.317
10131SOL    HW141612   6.669   2.665   0.402
10131SOL    HW241613   6.706   2.584   0.265
10132SOL     OW41614   0.987   2.815   5.948
10132SOL    HW141615   0.993   2.800   5.849
10132SOL    HW241616   0.907   2.768   5.984
10133SOL     OW41617   7.439   6.624   3.355
10133SOL    HW141618   7.392   6.614   3.268
10133SOL    HW241619   7.494   6.543   3.374
10134SOL     OW41620   4.022   4.703   3.791
10134SOL    HW141621   4.035   4.715   3.889
10134SOL    HW241622   3.971   4.781   3.754
10135SOL     OW41623   4.508   2.433   4.293
10135SOL    HW141624   4.541   2.455   4.201
10135SOL    HW241625   4.484   2.517   4.341
10136SOL     OW41626   2.012   6.459   5.607
10136SOL    HW141627   1.939   6.444   5.674
10136SOL    HW241628   2.008   6.554   5.576
10137SOL     OW41629   0.112   9.761   4.209
10137SOL    HW141630   0.085   9.854   4.182
10137SOL    HW241631   0.067   9.695   4.149
10138SOL     OW41632   3.714   4.751   3.527
10138SOL    HW141633   3.800   4.727   3.483
10138SOL    HW241634   3.648   4.677   3.516
10139SOL     OW41635   3.262   1.961   5.162
10139SOL    HW141636   3.220   1.871   5.157
10139SOL    HW241637   3.200   2.029   5.124
10140SOL     OW41638   0.064   6.309   1.469
10140SOL    HW141639   0.032   6.388   1.522
10140SOL    HW241640   0.121   6.340   1.393
10141SOL     OW41641   1.809   6.859   3.672
10141SOL    HW141642   1.784   6.937   3.730
10141SOL    HW241643   1.735   6.792   3.673
10142SOL     OW41644   8.886   3.151   2.203
10142SOL    HW141645   8.971   3.204   2.201
10142SOL    HW241646   8.817   3.200   2.256
10143SOL     OW41647   1.077   6.852   4.164
10143SOL    HW141648   1.084   6.853   4.064
10143SOL    HW241649   1.095   6.944   4.199
10144SOL     OW41650   9.733   9.123   6.264
10144SOL    HW141651   9.657   9.128   6.329
10144SOL    HW241652   9.805   9.064   6.302
10145SOL     OW41653   0.840   7.525   2.628
10145SOL    HW141654   0.853   7.598   2.695
10145SOL    HW241655   0.766   7.549   2.565
10146SOL     OW41656   4.158   1.358   0.129
10146SOL    HW141657   4.176   1.406   0.043
10146SOL    HW241658   4.228   1.382   0.196
10147SOL     OW41659   3.101   6.935   0.635
10147SOL    HW141660   3.123   6.905   0.542
10147SOL    HW241661   3.020   6.885   0.667
10148SOL     OW41662   2.901   0.404   1.560
10148SOL    HW141663   2.816   0.410   1.508
10148SOL    HW241664   2.930   0.308   1.565
10149SOL     OW41665   1.210   2.550   5.929
10149SOL    HW141666   1.275   2.620   5.958
10149SOL    HW241667   1.189   2.562   5.832
10150SOL     OW41668   4.447   8.958   2.117
10150SOL    HW141669   4.506   8.878   2.112
10150SOL    HW241670   4.400   8.971   2.030
10151SOL     OW41671   2.804   4.089   6.021
10151SOL    HW141672   2.774   3.994   6.011
10151SOL    HW241673   2.890   4.091   6.072
10152SOL     OW41674   9.023   9.531   4.367
10152SOL    HW141675   8.946   9.575   4.321
10152SOL    HW241676   9.060   9.459   4.308
10153SOL     OW41677   1.277   8.021   1.130
10153SOL    HW141678   1.204   7.953   1.119
10153SOL    HW241679   1.343   7.988   1.197
10154SOL     OW41680   8.883   5.943   3.873
10154SOL    HW141681   8.916   5.992   3.793
10154SOL    HW241682   8.945   5.960   3.950
10155SOL     OW41683   0.157   0.055   6.347
10155SOL    HW141684   0.161   0.039   6.445
10155SOL    HW241685   0.236   0.108   6.318
10156SOL     OW41686   4.353   4.776   1.388
10156SOL    HW141687   4.352   4.867   1.428
10156SOL    HW241688   4.390   4.710   1.454
10157SOL     OW41689   6.579   8.207   4.921
10157SOL    HW141690   6.520   8.126   4.929
10157SOL    HW241691   6.628   8.221   5.008
10158SOL     OW41692   1.625   5.383   2.668
10158SOL    HW141693   1.551   5.335   2.715
10158SOL    HW241694   1.586   5.438   2.593
10159SOL     OW41695   6.886   1.228   4.185
10159SOL    HW141696   6.947   1.149   4.188
10159SOL    HW241697   6.829   1.223   4.103
10160SOL     OW41698   3.109   5.894   3.354
10160SOL    HW141699   3.040   5.877   3.424
10160SOL    HW241700   3.104   5.989   3.323
10161SOL     OW41701   4.901   0.584   5.181
10161SOL    HW141702   4.939   0.584   5.089
10161SOL    HW241703   4.954   0.523   5.239
10162SOL     OW41704   3.800   5.812   3.883
10162SOL    HW141705   3.823   5.900   3.925
10162SOL    HW241706   3.714   5.822   3.832
10163SOL     OW41707   1.724   6.169   5.541
10163SOL    HW141708   1.821   6.151   5.525
10163SOL    HW241709   1.700   6.257   5.501
10164SOL     OW41710   9.894   5.469   3.501
10164SOL    HW141711   9.972   5.520   3.536
10164SOL    HW241712   9.922   5.414   3.422
10165SOL     OW41713   8.899   6.150   6.157
10165SOL    HW141714   8.843   6.181   6.081
10165SOL    HW241715   8.841   6.128   6.235
10166SOL     OW41716   0.034   3.775   3.106
10166SOL    HW141717   0.058   3.832   3.185
10166SOL    HW241718   0.116   3.724   3.077
10167SOL     OW41719   3.399   2.467   3.279
10167SOL    HW141720   3.486   2.514   3.293
10167SOL    HW241721   3.394   2.433   3.186
10168SOL     OW41722   1.204   1.925   0.098
10168SOL    HW141723   1.219   2.020   0.126
10168SOL    HW241724   1.202   1.919   8.187
10169SOL     OW41725   2.587   2.825   6.037
10169SOL    HW141726   2.625   2.914   6.010
10169SOL    HW241727   2.637   2.752   5.993
10170SOL     OW41728   9.088   1.458   6.277
10170SOL    HW141729   9.003   1.423   6.317
10170SOL    HW241730   9.108   1.408   6.193
10171SOL     OW41731   2.069   7.714   3.686
10171SOL    HW141732   1.992   7.740   3.627
10171SOL    HW241733   2.056   7.620   3.718
10172SOL     OW41734   2.552   6.266   2.655
10172SOL    HW141735   2.493   6.290   2.731
10172SOL    HW241736   2.647   6.284   2.680
10173SOL     OW41737   6.010   8.919   4.624
10173SOL    HW141738   6.026   8.839   4.566
10173SOL    HW241739   5.984   8.997   4.567
10174SOL     OW41740   8.066   2.100   2.296
10174SOL    HW141741   7.996   2.092   2.366
10174SOL    HW241742   8.039   2.168   2.227
10175SOL     OW41743   4.105   8.880   6.084
10175SOL    HW141744   4.197   8.920   6.087
10175SOL    HW241745   4.051   8.914   6.161
10176SOL     OW41746   0.881   0.315   4.013
10176SOL    HW141747   0.866   0.405   4.052
10176SOL    HW241748   0.800   0.285   3.963
10177SOL     OW41749   8.458   1.921   6.002
10177SOL    HW141750   8.476   1.839   5.947
10177SOL    HW241751   8.385   1.974   5.958
10178SOL     OW41752   2.297   1.508   1.295
10178SOL    HW141753   2.317   1.596   1.338
10178SOL    HW241754   2.381   1.454   1.290
10179SOL     OW41755   4.122   2.445   5.782
10179SOL    HW141756   4.023   2.436   5.796
10179SOL    HW241757   4.158   2.516   5.843
10180SOL     OW41758   5.005   9.843   5.649
10180SOL    HW141759   5.048   9.922   5.691
10180SOL    HW241760   4.911   9.864   5.626
10181SOL     OW41761   8.454   5.447   4.879
10181SOL    HW141762   8.425   5.388   4.955
10181SOL    HW241763   8.535   5.499   4.907
10182SOL     OW41764   9.483   1.506   0.487
10182SOL    HW141765   9.456   1.599   0.465
10182SOL    HW241766   9.582   1.496   0.477
10183SOL     OW41767   5.237   0.153   1.440
10183SOL    HW141768   5.246   0.060   1.404
10183SOL    HW241769   5.327   0.190   1.462
10184SOL     OW41770   8.486   4.235   1.788
10184SOL    HW141771   8.392   4.261   1.810
10184SOL    HW241772   8.524   4.180   1.863
10185SOL     OW41773   1.892   3.673   5.486
10185SOL    HW141774   1.895   3.683   5.387
10185SOL    HW241775   1.908   3.762   5.529
10186SOL     OW41776   5.840   4.451   1.080
10186SOL    HW141777   5.773   4.523   1.095
10186SOL    HW241778   5.808   4.366   1.121
10187SOL     OW41779   6.902   3.382   0.613
10187SOL    HW141780   6.996   3.380   0.645
10187SOL    HW241781   6.901   3.394   0.513
10188SOL     OW41782   1.488   2.542   0.244
10188SOL    HW141783   1.547   2.476   0.291
10188SOL    HW241784   1.408   2.561   0.301
10189SOL     OW41785   0.389   8.140   1.209
10189SOL    HW141786   0.304   8.087   1.217
10189SOL    HW241787   0.466   8.077   1.198
10190SOL     OW41788   8.676   1.138   5.402
10190SOL    HW141789   8.678   1.062   5.466
10190SOL    HW241790   8.760   1.140   5.348
10191SOL     OW41791   4.494   1.245   1.949
10191SOL    HW141792   4.501   1.163   2.004
10191SOL    HW241793   4.520   1.225   1.855
10192SOL     OW41794   5.043   2.968   5.120
10192SOL    HW141795   4.950   3.000   5.138
10192SOL    HW241796   5.040   2.878   5.078
10193SOL     OW41797   1.680   4.512   0.156
10193SOL    HW141798   1.761   4.572   0.159
10193SOL    HW241799   1.698   4.430   0.210
10194SOL     OW41800   0.789   4.123   5.943
10194SOL    HW141801   0.771   4.113   6.041
10194SOL    HW241802   0.863   4.061   5.917
10195SOL     OW41803   4.995   1.752   5.791
10195SOL    HW141804   4.909   1.759   5.841
10195SOL    HW241805   5.026   1.657   5.791
10196SOL     OW41806   9.929   5.982   3.617
10196SOL    HW141807   9.914   5.947   3.710
10196SOL    HW241808   9.842   5.984   3.568
10197SOL     OW41809   3.513   4.114   0.445
10197SOL    HW141810   3.558   4.138   0.359
10197SOL    HW241811   3.499   4.197   0.499
10198SOL     OW41812   2.362   7.122   1.418
10198SOL    HW141813   2.423   7.201   1.409
10198SOL    HW241814   2.276   7.141   1.372
10199SOL     OW41815   7.768   2.426   5.606
10199SOL    HW141816   7.842   2.486   5.575
10199SOL    HW241817   7.803   2.366   5.678
10200SOL     OW41818   6.192   9.537   5.201
10200SOL    HW141819   6.286   9.528   5.167
10200SOL    HW241820   6.190   9.512   5.298
10201SOL     OW41821   2.427   9.472   3.354
10201SOL    HW141822   2.473   9.387   3.329
10201SOL    HW241823   2.466   9.548   3.301
10202SOL     OW41824   2.544   3.075   3.071
10202SOL    HW141825   2.613   3.146   3.059
10202SOL    HW241826   2.578   3.006   3.135
10203SOL     OW41827   3.518   4.866   2.643
10203SOL    HW141828   3.555   4.821   2.562
10203SOL    HW241829   3.431   4.909   2.620
10204SOL     OW41830   4.846   2.373   5.606
10204SOL    HW141831   4.932   2.367   5.657
10204SOL    HW241832   4.773   2.329   5.658
10205SOL     OW41833   6.671   0.743   5.224
10205SOL    HW141834   6.653   0.718   5.320
10205SOL    HW241835   6.683   0.842   5.217
10206SOL     OW41836   3.790   0.966   3.222
10206SOL    HW141837   3.865   0.943   3.159
10206SOL    HW241838   3.812   0.933   3.313
10207SOL     OW41839   5.318   7.559   3.059
10207SOL    HW141840   5.406   7.522   3.087
10207SOL    HW241841   5.286   7.625   3.127
10208SOL     OW41842   3.065   0.563   5.402
10208SOL    HW141843   2.972   0.599   5.400
10208SOL    HW241844   3.062   0.463   5.413
10209SOL     OW41845   2.538   4.959   0.132
10209SOL    HW141846   2.533   4.863   0.102
10209SOL    HW241847   2.576   4.964   0.224
10210SOL     OW41848   8.026   8.741   3.928
10210SOL    HW141849   7.996   8.678   4.000
10210SOL    HW241850   8.103   8.795   3.962
10211SOL     OW41851   5.961   8.013   3.565
10211SOL    HW141852   5.949   8.061   3.652
10211SOL    HW241853   5.897   8.050   3.497
10212SOL     OW41854   5.455   1.171   3.846
10212SOL    HW141855   5.475   1.157   3.749
10212SOL    HW241856   5.465   1.267   3.869
10213SOL     OW41857   1.709   9.157   0.163
10213SOL    HW141858   1.650   9.079   0.146
10213SOL    HW241859   1.802   9.125   0.181
10214SOL     OW41860   8.996   0.856   4.770
10214SOL    HW141861   9.064   0.842   4.841
10214SOL    HW241862   9.000   0.781   4.704
10215SOL     OW41863   2.848   0.374   2.716
10215SOL    HW141864   2.836   0.453   2.656
10215SOL    HW241865   2.936   0.381   2.764
10216SOL     OW41866   2.789   0.483   6.109
10216SOL    HW141867   2.750   0.562   6.063
10216SOL    HW241868   2.753   0.399   6.069
10217SOL     OW41869   7.097   9.495   2.594
10217SOL    HW141870   7.095   9.590   2.626
10217SOL    HW241871   7.103   9.434   2.673
10218SOL     OW41872   7.993   2.576   5.571
10218SOL    HW141873   8.056   2.539   5.503
10218SOL    HW241874   8.038   2.578   5.661
10219SOL     OW41875   9.327   2.495   4.856
10219SOL    HW141876   9.276   2.439   4.922
10219SOL    HW241877   9.269   2.571   4.826
10220SOL     OW41878   1.631   2.990   5.185
10220SOL    HW141879   1.542   2.989   5.232
10220SOL    HW241880   1.693   2.927   5.231
10221SOL     OW41881   2.500   8.411   2.082
10221SOL    HW141882   2.495   8.346   2.157
10221SOL    HW241883   2.413   8.410   2.031
10222SOL     OW41884   9.658   9.691   2.354
10222SOL    HW141885   9.601   9.765   2.388
10222SOL    HW241886   9.622   9.603   2.387
10223SOL     OW41887   1.771   4.680   5.382
10223SOL    HW141888   1.685   4.715   5.345
10223SOL    HW241889   1.817   4.753   5.433
10224SOL     OW41890   5.554   9.564   2.101
10224SOL    HW141891   5.626   9.557   2.170
10224SOL    HW241892   5.592   9.546   2.011
10225SOL     OW41893   1.265   5.743   5.147
10225SOL    HW141894   1.288   5.722   5.052
10225SOL    HW241895   1.171   5.715   5.165
10226SOL     OW41896   1.910   1.624   4.889
10226SOL    HW141897   1.830   1.674   4.921
10226SOL    HW241898   1.993   1.664   4.929
10227SOL     OW41899   8.077   4.603   4.945
10227SOL    HW141900   7.985   4.639   4.961
10227SOL    HW241901   8.132   4.616   5.028
10228SOL     OW41902   1.836   6.969   4.459
10228SOL    HW141903   1.903   6.897   4.444
10228SOL    HW241904   1.863   7.024   4.538
10229SOL     OW41905   1.217   6.891   1.055
10229SOL    HW141906   1.153   6.869   1.129
10229SOL    HW241907   1.308   6.858   1.080
10230SOL     OW41908   9.472   2.823   5.013
10230SOL    HW141909   9.540   2.793   4.946
10230SOL    HW241910   9.487   2.775   5.099
10231SOL     OW41911   4.909   5.246   2.473
10231SOL    HW141912   4.949   5.331   2.508
10231SOL    HW241913   4.824   5.267   2.425
10232SOL     OW41914   8.358   0.624   2.105
10232SOL    HW141915   8.259   0.607   2.099
10232SOL    HW241916   8.393   0.583   2.189
10233SOL     OW41917   2.389   3.321   2.716
10233SOL    HW141918   2.482   3.326   2.753
10233SOL    HW241919   2.379   3.238   2.662
10234SOL     OW41920   2.397   9.119   1.298
10234SOL    HW141921   2.457   9.183   1.250
10234SOL    HW241922   2.450   9.043   1.334
10235SOL     OW41923   7.695   8.801   2.125
10235SOL    HW141924   7.635   8.760   2.056
10235SOL    HW241925   7.680   8.756   2.213
10236SOL     OW41926   9.507   4.242   5.460
10236SOL    HW141927   9.487   4.267   5.365
10236SOL    HW241928   9.485   4.145   5.474
10237SOL     OW41929   4.143   8.206   5.432
10237SOL    HW141930   4.091   8.145   5.492
10237SOL    HW241931   4.223   8.239   5.481
10238SOL     OW41932   0.838   5.577   4.323
10238SOL    HW141933   0.745   5.558   4.291
10238SOL    HW241934   0.875   5.656   4.274
10239SOL     OW41935   3.117   8.228   0.780
10239SOL    HW141936   3.153   8.247   0.872
10239SOL    HW241937   3.052   8.152   0.784
10240SOL     OW41938   9.869   0.471   1.084
10240SOL    HW141939   9.922   0.431   1.159
10240SOL    HW241940   9.808   0.402   1.045
10241SOL     OW41941   7.883   7.859   5.588
10241SOL    HW141942   7.866   7.874   5.685
10241SOL    HW241943   7.917   7.766   5.574
10242SOL     OW41944   6.063   9.733   4.525
10242SOL    HW141945   6.062   9.672   4.605
10242SOL    HW241946   6.153   9.731   4.483
10243SOL     OW41947   3.796   2.574   0.290
10243SOL    HW141948   3.764   2.606   0.379
10243SOL    HW241949   3.860   2.639   0.251
10244SOL     OW41950   6.302   7.804   4.829
10244SOL    HW141951   6.327   7.710   4.849
10244SOL    HW241952   6.203   7.811   4.821
10245SOL     OW41953   8.854   3.298   4.340
10245SOL    HW141954   8.933   3.318   4.283
10245SOL    HW241955   8.884   3.258   4.427
10246SOL     OW41956   7.089   4.002   1.775
10246SOL    HW141957   7.185   3.993   1.799
10246SOL    HW241958   7.042   3.915   1.788
10247SOL     OW41959   4.793   1.271   0.987
10247SOL    HW141960   4.844   1.186   0.971
10247SOL    HW241961   4.847   1.349   0.955
10248SOL     OW41962   4.260   2.490   1.880
10248SOL    HW141963   4.266   2.499   1.979
10248SOL    HW241964   4.327   2.552   1.837
10249SOL     OW41965   6.548   0.734   2.983
10249SOL    HW141966   6.469   0.674   2.993
10249SOL    HW241967   6.606   0.727   3.064
10250SOL     OW41968   3.882   1.603   5.263
10250SOL    HW141969   3.973   1.625   5.297
10250SOL    HW241970   3.850   1.678   5.205
10251SOL     OW41971   9.517   8.394   4.423
10251SOL    HW141972   9.553   8.441   4.342
10251SOL    HW241973   9.422   8.421   4.438
10252SOL     OW41974   3.876   2.573   5.316
10252SOL    HW141975   3.790   2.544   5.274
10252SOL    HW241976   3.924   2.493   5.353
10253SOL     OW41977   2.754   8.954   1.598
10253SOL    HW141978   2.758   8.864   1.643
10253SOL    HW241979   2.823   9.014   1.639
10254SOL     OW41980   2.090   0.317   5.965
10254SOL    HW141981   2.061   0.298   5.871
10254SOL    HW241982   2.020   0.373   6.010
10255SOL     OW41983   8.736   9.200   2.018
10255SOL    HW141984   8.718   9.103   2.034
10255SOL    HW241985   8.818   9.227   2.069
10256SOL     OW41986   5.367   4.548   1.534
10256SOL    HW141987   5.342   4.645   1.534
10256SOL    HW241988   5.464   4.539   1.557
10257SOL     OW41989   6.579   8.641   4.939
10257SOL    HW141990   6.560   8.651   5.036
10257SOL    HW241991   6.675   8.665   4.921
10258SOL     OW41992   3.066   2.908   5.806
10258SOL    HW141993   3.093   2.987   5.752
10258SOL    HW241994   3.138   2.839   5.804
10259SOL     OW41995   3.188   6.171   4.485
10259SOL    HW141996   3.242   6.229   4.424
10259SOL    HW241997   3.184   6.078   4.448
10260SOL     OW41998   4.077   6.594   2.994
10260SOL    HW141999   4.026   6.624   2.914
10260SOL    HW242000   4.061   6.496   3.009
10261SOL     OW42001   0.855   2.008   1.727
10261SOL    HW142002   0.866   2.095   1.776
10261SOL    HW242003   0.790   1.950   1.777
10262SOL     OW42004   4.228   2.976   2.287
10262SOL    HW142005   4.173   2.936   2.213
10262SOL    HW242006   4.180   3.054   2.326
10263SOL     OW42007   0.155   8.572   3.878
10263SOL    HW142008   0.154   8.560   3.977
10263SOL    HW242009   0.234   8.525   3.839
10264SOL     OW42010   4.349   8.893   6.386
10264SOL    HW142011   4.273   8.957   6.399
10264SOL    HW242012   4.424   8.940   6.339
10265SOL     OW42013   0.783   1.516   4.965
10265SOL    HW142014   0.748   1.594   5.017
10265SOL    HW242015   0.733   1.433   4.992
10266SOL     OW42016   0.404   4.019   3.070
10266SOL    HW142017   0.472   4.038   3.000
10266SOL    HW242018   0.422   3.930   3.111
10267SOL     OW42019   3.264   7.679   4.445
10267SOL    HW142020   3.199   7.666   4.520
10267SOL    HW242021   3.342   7.732   4.478
10268SOL     OW42022   0.860   6.998   1.452
10268SOL    HW142023   0.823   6.908   1.471
10268SOL    HW242024   0.790   7.068   1.469
10269SOL     OW42025   8.325   6.752   4.815
10269SOL    HW142026   8.360   6.763   4.721
10269SOL    HW242027   8.401   6.763   4.879
10270SOL     OW42028   6.864   2.025   3.240
10270SOL    HW142029   6.955   2.012   3.279
10270SOL    HW242030   6.800   1.962   3.283
10271SOL     OW42031   1.313   5.565   1.719
10271SOL    HW142032   1.338   5.470   1.734
10271SOL    HW242033   1.233   5.588   1.775
10272SOL     OW42034   3.273   9.881   2.144
10272SOL    HW142035   3.300   9.977   2.129
10272SOL    HW242036   3.231   9.846   2.060
10273SOL     OW42037   3.517   6.651   2.315
10273SOL    HW142038   3.588   6.599   2.361
10273SOL    HW242039   3.474   6.595   2.245
10274SOL     OW42040   1.996   0.401   2.878
10274SOL    HW142041   2.068   0.427   2.814
10274SOL    HW242042   1.907   0.414   2.835
10275SOL     OW42043   4.626   7.742   2.570
10275SOL    HW142044   4.640   7.798   2.653
10275SOL    HW242045   4.651   7.796   2.490
10276SOL     OW42046   3.911   8.539   2.951
10276SOL    HW142047   3.946   8.512   3.041
10276SOL    HW242048   3.951   8.627   2.925
10277SOL     OW42049   7.926   6.505   3.254
10277SOL    HW142050   7.870   6.446   3.194
10277SOL    HW242051   7.911   6.478   3.349
10278SOL     OW42052   7.389   7.255   6.116
10278SOL    HW142053   7.292   7.253   6.089
10278SOL    HW242054   7.423   7.161   6.125
10279SOL     OW42055   1.795   1.228   0.894
10279SOL    HW142056   1.724   1.274   0.841
10279SOL    HW242057   1.883   1.271   0.875
10280SOL     OW42058   9.818   9.123   4.897
10280SOL    HW142059   9.825   9.197   4.964
10280SOL    HW242060   9.778   9.159   4.812
10281SOL     OW42061   8.073   3.637   4.153
10281SOL    HW142062   7.981   3.677   4.159
10281SOL    HW242063   8.070   3.543   4.186
10282SOL     OW42064   0.804   5.990   3.461
10282SOL    HW142065   0.869   6.042   3.405
10282SOL    HW242066   0.816   5.892   3.443
10283SOL     OW42067   7.271   2.687   2.879
10283SOL    HW142068   7.359   2.650   2.910
10283SOL    HW242069   7.244   2.641   2.794
10284SOL     OW42070   7.304   2.013   5.967
10284SOL    HW142071   7.390   2.062   5.955
10284SOL    HW242072   7.229   2.079   5.979
10285SOL     OW42073   2.048   9.921   4.751
10285SOL    HW142074   2.111   9.926   4.674
10285SOL    HW242075   1.979   9.852   4.733
10286SOL     OW42076   8.878   7.598   5.605
10286SOL    HW142077   8.910   7.665   5.672
10286SOL    HW242078   8.951   7.578   5.540
10287SOL     OW42079   8.002   6.655   0.067
10287SOL    HW142080   8.009   6.599   8.173
10287SOL    HW242081   8.061   6.616   0.139
10288SOL     OW42082   8.285   1.284   5.482
10288SOL    HW142083   8.217   1.267   5.553
10288SOL    HW242084   8.375   1.299   5.524
10289SOL     OW42085   2.656   6.214   3.693
10289SOL    HW142086   2.720   6.231   3.768
10289SOL    HW242087   2.600   6.134   3.713
10290SOL     OW42088   3.491   9.736   4.237
10290SOL    HW142089   3.449   9.660   4.187
10290SOL    HW242090   3.484   9.719   4.336
10291SOL     OW42091   8.636   4.660   1.642
10291SOL    HW142092   8.684   4.646   1.555
10291SOL    HW242093   8.700   4.648   1.718
10292SOL     OW42094   7.189   7.973   4.158
10292SOL    HW142095   7.115   8.040   4.145
10292SOL    HW242096   7.271   8.020   4.189
10293SOL     OW42097   9.093   7.893   1.233
10293SOL    HW142098   9.119   7.843   1.316
10293SOL    HW242099   9.013   7.950   1.252
10294SOL     OW42100   4.700   0.934   3.872
10294SOL    HW142101   4.719   0.920   3.970
10294SOL    HW242102   4.772   0.990   3.833
10295SOL     OW42103   2.711   1.859   1.151
10295SOL    HW142104   2.790   1.918   1.132
10295SOL    HW242105   2.649   1.861   1.073
10296SOL     OW42106   2.458   0.123   0.623
10296SOL    HW142107   2.478   0.198   0.686
10296SOL    HW242108   2.359   0.115   0.611
10297SOL     OW42109   2.498   9.342   2.300
10297SOL    HW142110   2.595   9.339   2.326
10297SOL    HW242111   2.479   9.271   2.234
10298SOL     OW42112   0.681   4.008   2.457
10298SOL    HW142113   0.658   3.912   2.475
10298SOL    HW242114   0.748   4.013   2.383
10299SOL     OW42115   8.165   6.613   6.192
10299SOL    HW142116   8.105   6.660   6.127
10299SOL    HW242117   8.249   6.665   6.203
10300SOL     OW42118   9.285   4.080   5.036
10300SOL    HW142119   9.277   3.998   5.092
10300SOL    HW242120   9.303   4.054   4.941
10301SOL     OW42121   8.866   2.717   2.216
10301SOL    HW142122   8.848   2.704   2.119
10301SOL    HW242123   8.787   2.685   2.269
10302SOL     OW42124   2.739   6.065   4.633
10302SOL    HW142125   2.791   6.135   4.584
10302SOL    HW242126   2.678   6.108   4.700
10303SOL     OW42127   7.430   9.336   2.648
10303SOL    HW142128   7.397   9.374   2.562
10303SOL    HW242129   7.530   9.341   2.650
10304SOL     OW42130   8.660   1.667   4.108
10304SOL    HW142131   8.689   1.715   4.025
10304SOL    HW242132   8.569   1.628   4.094
10305SOL     OW42133   9.182   7.509   5.885
10305SOL    HW142134   9.132   7.457   5.954
10305SOL    HW242135   9.199   7.601   5.920
10306SOL     OW42136   3.223   3.801   1.554
10306SOL    HW142137   3.196   3.715   1.510
10306SOL    HW242138   3.238   3.870   1.483
10307SOL     OW42139   9.354   0.033   6.381
10307SOL    HW142140   9.278   0.064   6.437
10307SOL    HW242141   9.351   9.933   6.373
10308SOL     OW42142   9.199   0.864   4.962
10308SOL    HW142143   9.176   0.960   4.951
10308SOL    HW242144   9.298   0.855   4.979
10309SOL     OW42145   9.133   0.025   5.834
10309SOL    HW142146   9.178   0.065   5.913
10309SOL    HW242147   9.130   9.926   5.843
10310SOL     OW42148   8.192   7.061   6.039
10310SOL    HW142149   8.181   7.018   5.950
10310SOL    HW242150   8.287   7.087   6.052
10311SOL     OW42151   3.778   8.689   4.226
10311SOL    HW142152   3.857   8.699   4.165
10311SOL    HW242153   3.753   8.779   4.263
10312SOL     OW42154   4.855   7.468   4.006
10312SOL    HW142155   4.816   7.446   3.917
10312SOL    HW242156   4.784   7.505   4.066
10313SOL     OW42157   4.377   2.825   5.239
10313SOL    HW142158   4.475   2.819   5.224
10313SOL    HW242159   4.331   2.845   5.152
10314SOL     OW42160   1.806   7.374   5.371
10314SOL    HW142161   1.763   7.445   5.315
10314SOL    HW242162   1.742   7.298   5.383
10315SOL     OW42163   1.288   1.339   5.704
10315SOL    HW142164   1.328   1.364   5.793
10315SOL    HW242165   1.362   1.327   5.638
10316SOL     OW42166   3.133   2.404   5.240
10316SOL    HW142167   3.048   2.375   5.284
10316SOL    HW242168   3.205   2.413   5.309
10317SOL     OW42169   9.610   8.941   2.106
10317SOL    HW142170   9.590   9.037   2.126
10317SOL    HW242171   9.661   8.934   2.021
10318SOL     OW42172   0.945   6.432   1.702
10318SOL    HW142173   0.931   6.531   1.691
10318SOL    HW242174   1.040   6.414   1.725
10319SOL     OW42175   2.344   9.017   4.256
10319SOL    HW142176   2.353   8.917   4.264
10319SOL    HW242177   2.387   9.047   4.171
10320SOL     OW42178   8.549   4.354   5.445
10320SOL    HW142179   8.592   4.265   5.459
10320SOL    HW242180   8.462   4.342   5.396
10321SOL     OW42181   5.218   7.869   3.707
10321SOL    HW142182   5.179   7.941   3.649
10321SOL    HW242183   5.226   7.784   3.654
10322SOL     OW42184   3.082   8.882   6.003
10322SOL    HW142185   2.987   8.863   6.024
10322SOL    HW242186   3.139   8.865   6.084
10323SOL     OW42187   5.133   7.355   4.962
10323SOL    HW142188   5.181   7.389   5.043
10323SOL    HW242189   5.170   7.265   4.938
10324SOL     OW42190   3.477   8.108   3.284
10324SOL    HW142191   3.519   8.191   3.323
10324SOL    HW242192   3.489   8.109   3.184
10325SOL     OW42193   0.523   2.971   6.298
10325SOL    HW142194   0.555   3.053   6.250
10325SOL    HW242195   0.429   2.985   6.329
10326SOL     OW42196   0.890   7.150   5.376
10326SOL    HW142197   0.950   7.127   5.453
10326SOL    HW242198   0.897   7.078   5.306
10327SOL     OW42199   6.205   0.688   3.761
10327SOL    HW142200   6.246   0.778   3.746
10327SOL    HW242201   6.194   0.673   3.859
10328SOL     OW42202   6.506   0.253   4.188
10328SOL    HW142203   6.585   0.295   4.144
10328SOL    HW242204   6.425   0.310   4.175
10329SOL     OW42205   4.185   1.376   3.890
10329SOL    HW142206   4.118   1.446   3.913
10329SOL    HW242207   4.247   1.362   3.967
10330SOL     OW42208   7.914   9.152   2.418
10330SOL    HW142209   8.005   9.193   2.422
10330SOL    HW242210   7.912   9.083   2.345
10331SOL     OW42211   1.595   4.434   4.355
10331SOL    HW142212   1.606   4.519   4.407
10331SOL    HW242213   1.518   4.444   4.292
10332SOL     OW42214   4.318   8.748   3.613
10332SOL    HW142215   4.233   8.718   3.657
10332SOL    HW242216   4.386   8.675   3.619
10333SOL     OW42217   1.379   6.075   5.790
10333SOL    HW142218   1.478   6.085   5.799
10333SOL    HW242219   1.338   6.063   5.880
10334SOL     OW42220   7.936   1.037   3.860
10334SOL    HW142221   8.018   1.092   3.873
10334SOL    HW242222   7.921   1.021   3.762
10335SOL     OW42223   4.715   1.891   4.391
10335SOL    HW142224   4.782   1.827   4.353
10335SOL    HW242225   4.672   1.851   4.471
10336SOL     OW42226   0.448   6.985   0.620
10336SOL    HW142227   0.486   7.020   0.705
10336SOL    HW242228   0.521   6.953   0.561
10337SOL     OW42229   7.642   0.341   5.429
10337SOL    HW142230   7.550   0.300   5.426
10337SOL    HW242231   7.660   0.376   5.522
10338SOL     OW42232   7.303   6.411   6.315
10338SOL    HW142233   7.310   6.490   6.376
10338SOL    HW242234   7.336   6.437   6.224
10339SOL     OW42235   1.468   6.664   6.212
10339SOL    HW142236   1.556   6.701   6.242
10339SOL    HW242237   1.396   6.730   6.231
10340SOL     OW42238   4.183   4.125   6.109
10340SOL    HW142239   4.204   4.146   6.013
10340SOL    HW242240   4.152   4.209   6.155
10341SOL     OW42241   1.565   8.458   5.211
10341SOL    HW142242   1.652   8.505   5.226
10341SOL    HW242243   1.580   8.359   5.213
10342SOL     OW42244   6.996   4.864   2.012
10342SOL    HW142245   6.979   4.949   2.060
10342SOL    HW242246   7.061   4.879   1.938
10343SOL     OW42247   7.093   0.046   4.118
10343SOL    HW142248   7.057   9.952   4.116
10343SOL    HW242249   7.185   0.047   4.079
10344SOL     OW42250   7.800   5.835   6.226
10344SOL    HW142251   7.753   5.921   6.241
10344SOL    HW242252   7.748   5.760   6.267
10345SOL     OW42253   3.656   5.061   0.359
10345SOL    HW142254   3.587   5.058   0.431
10345SOL    HW242255   3.629   5.001   0.284
10346SOL     OW42256   7.616   2.822   3.025
10346SOL    HW142257   7.577   2.734   2.996
10346SOL    HW242258   7.605   2.832   3.124
10347SOL     OW42259   6.301   8.488   3.161
10347SOL    HW142260   6.287   8.540   3.077
10347SOL    HW242261   6.213   8.471   3.205
10348SOL     OW42262   0.806   1.658   4.724
10348SOL    HW142263   0.801   1.609   4.811
10348SOL    HW242264   0.875   1.731   4.731
10349SOL     OW42265   9.078   7.086   4.094
10349SOL    HW142266   9.174   7.064   4.077
10349SOL    HW242267   9.026   7.001   4.101
10350SOL     OW42268   4.331   2.846   5.923
10350SOL    HW142269   4.271   2.768   5.943
10350SOL    HW242270   4.316   2.877   5.829
10351SOL     OW42271   8.493   9.394   5.893
10351SOL    HW142272   8.467   9.416   5.799
10351SOL    HW242273   8.476   9.473   5.952
10352SOL     OW42274   8.803   9.689   6.075
10352SOL    HW142275   8.733   9.665   6.142
10352SOL    HW242276   8.869   9.751   6.118
10353SOL     OW42277   9.134   4.588   2.787
10353SOL    HW142278   9.094   4.663   2.840
10353SOL    HW242279   9.166   4.517   2.850
10354SOL     OW42280   8.675   0.784   1.444
10354SOL    HW142281   8.593   0.732   1.424
10354SOL    HW242282   8.652   0.881   1.457
10355SOL     OW42283   1.702   5.403   2.164
10355SOL    HW142284   1.789   5.448   2.184
10355SOL    HW242285   1.716   5.333   2.095
10356SOL     OW42286   6.551   9.365   4.776
10356SOL    HW142287   6.503   9.325   4.699
10356SOL    HW242288   6.609   9.296   4.820
10357SOL     OW42289   4.194   2.542   0.270
10357SOL    HW142290   4.252   2.623   0.265
10357SOL    HW242291   4.249   2.465   0.302
10358SOL     OW42292   8.277   4.760   4.793
10358SOL    HW142293   8.217   4.701   4.848
10358SOL    HW242294   8.367   4.765   4.837
10359SOL     OW42295   5.668   9.541   1.856
10359SOL    HW142296   5.636   9.595   1.778
10359SOL    HW242297   5.760   9.506   1.836
10360SOL     OW42298   0.516   5.547   1.868
10360SOL    HW142299   0.501   5.614   1.796
10360SOL    HW242300   0.498   5.455   1.833
10361SOL     OW42301   9.368   5.862   2.077
10361SOL    HW142302   9.460   5.841   2.046
10361SOL    HW242303   9.361   5.959   2.099
10362SOL     OW42304   2.035   1.359   0.848
10362SOL    HW142305   2.071   1.387   0.937
10362SOL    HW242306   2.110   1.358   0.781
10363SOL     OW42307   6.381   0.895   1.627
10363SOL    HW142308   6.349   0.802   1.642
10363SOL    HW242309   6.343   0.955   1.698
10364SOL     OW42310   8.190   2.089   0.564
10364SOL    HW142311   8.122   2.107   0.493
10364SOL    HW242312   8.265   2.156   0.556
10365SOL     OW42313   0.730   5.506   5.557
10365SOL    HW142314   0.741   5.498   5.656
10365SOL    HW242315   0.800   5.568   5.520
10366SOL     OW42316   2.187   8.835   0.139
10366SOL    HW142317   2.099   8.795   0.112
10366SOL    HW242318   2.251   8.762   0.161
10367SOL     OW42319   9.090   6.312   5.812
10367SOL    HW142320   9.082   6.223   5.856
10367SOL    HW242321   9.186   6.330   5.789
10368SOL     OW42322   1.325   3.355   1.521
10368SOL    HW142323   1.380   3.274   1.541
10368SOL    HW242324   1.274   3.381   1.602
10369SOL     OW42325   1.857   6.959   5.136
10369SOL    HW142326   1.912   7.040   5.117
10369SOL    HW242327   1.837   6.912   5.050
10370SOL     OW42328   1.483   4.626   3.673
10370SOL    HW142329   1.499   4.527   3.668
10370SOL    HW242330   1.545   4.666   3.740
10371SOL     OW42331   8.618   1.881   1.201
10371SOL    HW142332   8.663   1.965   1.231
10371SOL    HW242333   8.649   1.804   1.257
10372SOL     OW42334   5.011   2.113   2.719
10372SOL    HW142335   4.935   2.110   2.654
10372SOL    HW242336   5.012   2.028   2.772
10373SOL     OW42337   4.462   5.245   2.209
10373SOL    HW142338   4.489   5.158   2.251
10373SOL    HW242339   4.368   5.268   2.236
10374SOL     OW42340   4.437   6.670   0.514
10374SOL    HW142341   4.374   6.748   0.506
10374SOL    HW242342   4.420   6.607   0.439
10375SOL     OW42343   2.500   0.980   6.347
10375SOL    HW142344   2.400   0.971   6.347
10375SOL    HW242345   2.541   0.891   6.328
10376SOL     OW42346   8.632   9.256   3.960
10376SOL    HW142347   8.589   9.259   3.870
10376SOL    HW242348   8.570   9.295   4.028
10377SOL     OW42349   6.503   8.413   5.573
10377SOL    HW142350   6.461   8.388   5.661
10377SOL    HW242351   6.498   8.335   5.511
10378SOL     OW42352   9.059   0.203   1.505
10378SOL    HW142353   9.079   0.109   1.535
10378SOL    HW242354   9.102   0.267   1.569
10379SOL     OW42355   1.815   3.056   2.608
10379SOL    HW142356   1.802   2.986   2.678
10379SOL    HW242357   1.729   3.068   2.558
10380SOL     OW42358   2.273   5.346   5.043
10380SOL    HW142359   2.241   5.367   4.951
10380SOL    HW242360   2.196   5.320   5.100
10381SOL     OW42361   5.503   8.749   5.419
10381SOL    HW142362   5.554   8.753   5.504
10381SOL    HW242363   5.555   8.697   5.351
10382SOL     OW42364   8.236   8.124   5.928
10382SOL    HW142365   8.314   8.171   5.886
10382SOL    HW242366   8.178   8.190   5.974
10383SOL     OW42367   0.119   6.767   4.858
10383SOL    HW142368   0.213   6.766   4.822
10383SOL    HW242369   0.094   6.674   4.886
10384SOL     OW42370   5.802   4.837   0.651
10384SOL    HW142371   5.713   4.814   0.689
10384SOL    HW242372   5.869   4.842   0.725
10385SOL     OW42373   2.317   7.122   0.601
10385SOL    HW142374   2.221   7.152   0.599
10385SOL    HW242375   2.363   7.152   0.518
10386SOL     OW42376   2.339   3.244   4.066
10386SOL    HW142377   2.288   3.302   4.131
10386SOL    HW242378   2.304   3.151   4.071
10387SOL     OW42379   3.143   2.411   5.924
10387SOL    HW142380   3.138   2.332   5.986
10387SOL    HW242381   3.187   2.488   5.971
10388SOL     OW42382   8.551   6.177   3.756
10388SOL    HW142383   8.461   6.210   3.785
10388SOL    HW242384   8.570   6.090   3.802
10389SOL     OW42385   9.060   9.492   6.134
10389SOL    HW142386   9.017   9.431   6.067
10389SOL    HW242387   9.017   9.582   6.130
10390SOL     OW42388   1.937   4.568   5.184
10390SOL    HW142389   2.011   4.527   5.236
10390SOL    HW242390   1.879   4.622   5.244
10391SOL     OW42391   9.328   9.400   6.109
10391SOL    HW142392   9.235   9.438   6.109
10391SOL    HW242393   9.352   9.370   6.201
10392SOL     OW42394   4.868   3.812   2.144
10392SOL    HW142395   4.806   3.857   2.080
10392SOL    HW242396   4.815   3.760   2.212
10393SOL     OW42397   1.259   8.597   0.715
10393SOL    HW142398   1.267   8.682   0.663
10393SOL    HW242399   1.221   8.617   0.805
10394SOL     OW42400   2.380   3.144   5.548
10394SOL    HW142401   2.312   3.215   5.530
10394SOL    HW242402   2.472   3.182   5.538
10395SOL     OW42403   0.494   1.317   4.020
10395SOL    HW142404   0.456   1.229   3.994
10395SOL    HW242405   0.440   1.390   3.978
10396SOL     OW42406   3.997   0.641   3.073
10396SOL    HW142407   3.946   0.596   2.999
10396SOL    HW242408   3.990   0.740   3.062
10397SOL     OW42409   1.236   8.186   0.906
10397SOL    HW142410   1.141   8.212   0.922
10397SOL    HW242411   1.269   8.130   0.982
10398SOL     OW42412   1.871   5.237   4.450
10398SOL    HW142413   1.918   5.234   4.361
10398SOL    HW242414   1.776   5.208   4.438
10399SOL     OW42415   4.102   0.547   6.044
10399SOL    HW142416   4.018   0.539   5.991
10399SOL    HW242417   4.178   0.507   5.992
10400SOL     OW42418   9.437   1.172   0.425
10400SOL    HW142419   9.347   1.193   0.463
10400SOL    HW242420   9.428   1.103   0.353
10401SOL     OW42421   0.151   6.313   1.880
10401SOL    HW142422   0.190   6.312   1.972
10401SOL    HW242423   0.055   6.286   1.884
10402SOL     OW42424   3.686   6.143   0.892
10402SOL    HW142425   3.747   6.064   0.898
10402SOL    HW242426   3.740   6.227   0.896
10403SOL     OW42427   8.394   2.576   4.932
10403SOL    HW142428   8.437   2.636   4.999
10403SOL    HW242429   8.368   2.630   4.851
10404SOL     OW42430   4.215   4.976   3.532
10404SOL    HW142431   4.132   5.015   3.493
10404SOL    HW242432   4.222   5.000   3.629
10405SOL     OW42433   1.772   0.948   4.909
10405SOL    HW142434   1.830   1.002   4.971
10405SOL    HW242435   1.679   0.985   4.909
10406SOL     OW42436   6.660   5.708   0.245
10406SOL    HW142437   6.670   5.770   0.323
10406SOL    HW242438   6.563   5.687   0.232
10407SOL     OW42439   8.715   7.176   1.266
10407SOL    HW142440   8.720   7.090   1.317
10407SOL    HW242441   8.715   7.252   1.330
10408SOL     OW42442   9.759   5.373   2.890
10408SOL    HW142443   9.669   5.372   2.933
10408SOL    HW242444   9.813   5.296   2.925
10409SOL     OW42445   7.595   5.907   5.627
10409SOL    HW142446   7.665   5.966   5.666
10409SOL    HW242447   7.510   5.917   5.679
10410SOL     OW42448   8.167   9.276   2.413
10410SOL    HW142449   8.224   9.270   2.495
10410SOL    HW242450   8.163   9.371   2.382
10411SOL     OW42451   9.427   2.407   1.711
10411SOL    HW142452   9.483   2.325   1.694
10411SOL    HW242453   9.332   2.388   1.687
10412SOL     OW42454   0.636   5.385   3.691
10412SOL    HW142455   0.734   5.400   3.703
10412SOL    HW242456   0.604   5.442   3.615
10413SOL     OW42457   1.369   5.866   3.441
10413SOL    HW142458   1.424   5.924   3.500
10413SOL    HW242459   1.277   5.857   3.479
10414SOL     OW42460   7.335   9.565   2.930
10414SOL    HW142461   7.284   9.488   2.891
10414SOL    HW242462   7.426   9.570   2.889
10415SOL     OW42463   9.389   6.941   5.833
10415SOL    HW142464   9.416   6.845   5.827
10415SOL    HW242465   9.301   6.953   5.789
10416SOL     OW42466   8.770   3.472   4.035
10416SOL    HW142467   8.784   3.374   4.046
10416SOL    HW242468   8.684   3.498   4.079
10417SOL     OW42469   0.256   7.530   3.353
10417SOL    HW142470   0.320   7.527   3.430
10417SOL    HW242471   0.306   7.549   3.268
10418SOL     OW42472   7.106   2.837   1.825
10418SOL    HW142473   7.182   2.774   1.840
10418SOL    HW242474   7.035   2.791   1.771
10419SOL     OW42475   6.081   0.408   2.732
10419SOL    HW142476   6.145   0.343   2.772
10419SOL    HW242477   5.995   0.406   2.782
10420SOL     OW42478   9.125   9.905   3.046
10420SOL    HW142479   9.093   9.824   3.095
10420SOL    HW242480   9.148   9.977   3.112
10421SOL     OW42481   1.568   4.492   2.034
10421SOL    HW142482   1.602   4.403   2.066
10421SOL    HW242483   1.491   4.521   2.091
10422SOL     OW42484   0.493   7.094   5.601
10422SOL    HW142485   0.417   7.088   5.537
10422SOL    HW242486   0.579   7.091   5.551
10423SOL     OW42487   4.399   7.065   1.970
10423SOL    HW142488   4.460   7.108   2.036
10423SOL    HW242489   4.393   6.967   1.990
10424SOL     OW42490   2.890   7.990   5.436
10424SOL    HW142491   2.810   7.934   5.415
10424SOL    HW242492   2.901   7.995   5.536
10425SOL     OW42493   6.150   8.206   6.356
10425SOL    HW142494   6.200   8.220   6.271
10425SOL    HW242495   6.215   8.206   6.433
10426SOL     OW42496   8.418   5.227   3.092
10426SOL    HW142497   8.444   5.305   3.036
10426SOL    HW242498   8.342   5.252   3.152
10427SOL     OW42499   8.049   1.355   0.546
10427SOL    HW142500   8.133   1.400   0.575
10427SOL    HW242501   8.063   1.313   0.456
10428SOL     OW42502   0.276   3.663   5.026
10428SOL    HW142503   0.361   3.707   5.053
10428SOL    HW242504   0.251   3.595   5.095
10429SOL     OW42505   4.613   7.565   4.106
10429SOL    HW142506   4.555   7.501   4.056
10429SOL    HW242507   4.565   7.598   4.187
10430SOL     OW42508   6.828   2.355   3.801
10430SOL    HW142509   6.875   2.272   3.771
10430SOL    HW242510   6.780   2.396   3.723
10431SOL     OW42511   1.198   8.028   1.601
10431SOL    HW142512   1.296   8.048   1.599
10431SOL    HW242513   1.180   7.946   1.546
10432SOL     OW42514   9.078   2.567   1.898
10432SOL    HW142515   9.118   2.515   1.974
10432SOL    HW242516   9.089   2.516   1.813
10433SOL     OW42517   1.444   0.466   3.201
10433SOL    HW142518   1.417   0.373   3.176
10433SOL    HW242519   1.430   0.527   3.122
10434SOL     OW42520   6.725   8.734   3.188
10434SOL    HW142521   6.691   8.823   3.219
10434SOL    HW242522   6.743   8.675   3.267
10435SOL     OW42523   9.360   8.023   3.117
10435SOL    HW142524   9.260   8.029   3.116
10435SOL    HW242525   9.393   8.026   3.212
10436SOL     OW42526   1.686   6.878   5.338
10436SOL    HW142527   1.740   6.926   5.269
10436SOL    HW242528   1.670   6.784   5.308
10437SOL     OW42529   9.149   3.084   1.180
10437SOL    HW142530   9.153   3.021   1.258
10437SOL    HW242531   9.239   3.089   1.136
10438SOL     OW42532   9.072   9.396   5.499
10438SOL    HW142533   9.111   9.474   5.450
10438SOL    HW242534   9.021   9.339   5.435
10439SOL     OW42535   6.902   6.671   5.537
10439SOL    HW142536   6.937   6.729   5.610
10439SOL    HW242537   6.978   6.626   5.489
10440SOL     OW42538   6.551   0.851   6.362
10440SOL    HW142539   6.510   0.777   6.308
10440SOL    HW242540   6.490   0.931   6.361
10441SOL     OW42541   1.219   7.306   0.110
10441SOL    HW142542   1.316   7.296   0.089
10441SOL    HW242543   1.174   7.217   0.104
10442SOL     OW42544   3.454   1.182   0.060
10442SOL    HW142545   3.425   1.277   0.048
10442SOL    HW242546   3.553   1.178   0.073
10443SOL     OW42547   2.057   8.241   2.792
10443SOL    HW142548   2.137   8.182   2.792
10443SOL    HW242549   2.085   8.337   2.798
10444SOL     OW42550   9.320   7.989   4.864
10444SOL    HW142551   9.372   7.906   4.844
10444SOL    HW242552   9.364   8.067   4.820
10445SOL     OW42553   9.719   7.043   4.475
10445SOL    HW142554   9.768   6.964   4.439
10445SOL    HW242555   9.621   7.025   4.475
10446SOL     OW42556   3.132   3.219   2.154
10446SOL    HW142557   3.162   3.313   2.139
10446SOL    HW242558   3.112   3.205   2.251
10447SOL     OW42559   0.229   4.335   1.649
10447SOL    HW142560   0.216   4.432   1.627
10447SOL    HW242561   0.296   4.295   1.587
10448SOL     OW42562   5.053   9.485   5.967
10448SOL    HW142563   5.099   9.398   5.951
10448SOL    HW242564   5.068   9.514   6.061
10449SOL     OW42565   1.782   7.727   0.071
10449SOL    HW142566   1.703   7.724   0.132
10449SOL    HW242567   1.753   7.707   8.166
10450SOL     OW42568   5.604   0.889   4.965
10450SOL    HW142569   5.528   0.954   4.967
10450SOL    HW242570   5.575   0.806   4.918
10451SOL     OW42571   1.993   5.517   1.195
10451SOL    HW142572   1.954   5.426   1.177
10451SOL    HW242573   1.975   5.577   1.118
10452SOL     OW42574   8.633   6.291   2.815
10452SOL    HW142575   8.568   6.277   2.740
10452SOL    HW242576   8.721   6.251   2.791
10453SOL     OW42577   4.092   2.472   4.695
10453SOL    HW142578   4.138   2.548   4.648
10453SOL    HW242579   4.102   2.482   4.794
10454SOL     OW42580   3.715   8.931   4.353
10454SOL    HW142581   3.747   8.974   4.437
10454SOL    HW242582   3.622   8.898   4.366
10455SOL     OW42583   0.150   1.447   1.398
10455SOL    HW142584   0.064   1.454   1.348
10455SOL    HW242585   0.143   1.375   1.467
10456SOL     OW42586   4.594   5.141   1.244
10456SOL    HW142587   4.617   5.069   1.178
10456SOL    HW242588   4.504   5.179   1.221
10457SOL     OW42589   9.117   3.419   5.888
10457SOL    HW142590   9.208   3.451   5.912
10457SOL    HW242591   9.049   3.463   5.947
10458SOL     OW42592   2.516   3.988   4.365
10458SOL    HW142593   2.566   3.916   4.414
10458SOL    HW242594   2.421   3.958   4.351
10459SOL     OW42595   7.072   2.140   4.865
10459SOL    HW142596   7.014   2.200   4.810
10459SOL    HW242597   7.167   2.172   4.859
10460SOL     OW42598   1.679   9.996   5.053
10460SOL    HW142599   1.594   9.997   5.104
10460SOL    HW242600   1.741   0.066   5.088
10461SOL     OW42601   7.355   7.648   3.617
10461SOL    HW142602   7.260   7.633   3.642
10461SOL    HW242603   7.407   7.680   3.696
10462SOL     OW42604   0.625   8.052   4.714
10462SOL    HW142605   0.628   7.988   4.637
10462SOL    HW242606   0.538   8.042   4.762
10463SOL     OW42607   3.088   6.700   4.227
10463SOL    HW142608   3.146   6.667   4.302
10463SOL    HW242609   2.992   6.690   4.253
10464SOL     OW42610   8.112   5.524   0.839
10464SOL    HW142611   8.064   5.439   0.860
10464SOL    HW242612   8.125   5.577   0.923
10465SOL     OW42613   9.574   1.719   5.046
10465SOL    HW142614   9.652   1.693   4.988
10465SOL    HW242615   9.599   1.711   5.142
10466SOL     OW42616   8.041   6.655   1.380
10466SOL    HW142617   8.111   6.592   1.415
10466SOL    HW242618   8.042   6.654   1.280
10467SOL     OW42619   6.647   7.609   5.746
10467SOL    HW142620   6.616   7.524   5.704
10467SOL    HW242621   6.568   7.666   5.769
10468SOL     OW42622   3.762   6.141   3.075
10468SOL    HW142623   3.770   6.239   3.052
10468SOL    HW242624   3.718   6.093   2.998
10469SOL     OW42625   2.556   3.235   4.369
10469SOL    HW142626   2.496   3.252   4.447
10469SOL    HW242627   2.581   3.322   4.325
10470SOL     OW42628   9.751   6.551   4.961
10470SOL    HW142629   9.757   6.650   4.958
10470SOL    HW242630   9.709   6.522   5.046
10471SOL     OW42631   7.987   8.331   1.848
10471SOL    HW142632   8.043   8.360   1.926
10471SOL    HW242633   7.968   8.410   1.790
10472SOL     OW42634   4.723   3.858   3.699
10472SOL    HW142635   4.709   3.955   3.719
10472SOL    HW242636   4.649   3.825   3.641
10473SOL     OW42637   5.984   2.018   4.793
10473SOL    HW142638   6.082   2.024   4.773
10473SOL    HW242639   5.971   1.965   4.877
10474SOL     OW42640   9.524   7.917   0.111
10474SOL    HW142641   9.520   7.971   0.027
10474SOL    HW242642   9.476   7.830   0.098
10475SOL     OW42643   3.035   5.531   5.381
10475SOL    HW142644   2.999   5.586   5.456
10475SOL    HW242645   3.045   5.588   5.300
10476SOL     OW42646   5.860   1.584   5.102
10476SOL    HW142647   5.819   1.641   5.172
10476SOL    HW242648   5.945   1.544   5.136
10477SOL     OW42649   9.067   8.040   3.171
10477SOL    HW142650   9.088   8.005   3.263
10477SOL    HW242651   8.973   8.073   3.168
10478SOL     OW42652   6.587   4.668   0.950
10478SOL    HW142653   6.602   4.754   0.998
10478SOL    HW242654   6.501   4.627   0.982
10479SOL     OW42655   5.744   5.324   1.556
10479SOL    HW142656   5.688   5.254   1.513
10479SOL    HW242657   5.709   5.415   1.532
10480SOL     OW42658   4.308   8.539   0.482
10480SOL    HW142659   4.268   8.494   0.402
10480SOL    HW242660   4.394   8.584   0.457
10481SOL     OW42661   7.236   8.495   4.890
10481SOL    HW142662   7.143   8.479   4.856
10481SOL    HW242663   7.272   8.410   4.929
10482SOL     OW42664   3.908   9.423   1.118
10482SOL    HW142665   3.824   9.387   1.158
10482SOL    HW242666   3.903   9.523   1.114
10483SOL     OW42667   1.051   5.780   1.111
10483SOL    HW142668   1.006   5.832   1.184
10483SOL    HW242669   1.111   5.842   1.059
10484SOL     OW42670   7.735   6.363   3.737
10484SOL    HW142671   7.638   6.368   3.712
10484SOL    HW242672   7.790   6.355   3.655
10485SOL     OW42673   8.002   2.613   3.853
10485SOL    HW142674   7.977   2.672   3.929
10485SOL    HW242675   8.081   2.557   3.878
10486SOL     OW42676   1.929   8.311   0.840
10486SOL    HW142677   1.833   8.309   0.811
10486SOL    HW242678   1.985   8.262   0.773
10487SOL     OW42679   5.442   3.649   0.957
10487SOL    HW142680   5.406   3.707   1.030
10487SOL    HW242681   5.499   3.704   0.896
10488SOL     OW42682   4.344   8.281   5.597
10488SOL    HW142683   4.289   8.270   5.680
10488SOL    HW242684   4.440   8.292   5.622
10489SOL     OW42685   9.230   1.959   3.679
10489SOL    HW142686   9.144   2.007   3.700
10489SOL    HW242687   9.305   2.025   3.676
10490SOL     OW42688   4.293   7.756   6.017
10490SOL    HW142689   4.303   7.774   6.115
10490SOL    HW242690   4.358   7.686   5.989
10491SOL     OW42691   3.773   6.591   2.013
10491SOL    HW142692   3.816   6.540   1.938
10491SOL    HW242693   3.839   6.602   2.088
10492SOL     OW42694   8.855   4.298   4.864
10492SOL    HW142695   8.819   4.227   4.803
10492SOL    HW242696   8.922   4.258   4.927
10493SOL     OW42697   3.407   4.451   6.307
10493SOL    HW142698   3.451   4.380   6.362
10493SOL    HW242699   3.476   4.500   6.254
10494SOL     OW42700   2.789   0.622   5.431
10494SOL    HW142701   2.738   0.542   5.399
10494SOL    HW242702   2.795   0.619   5.531
10495SOL     OW42703   8.878   2.835   3.349
10495SOL    HW142704   8.860   2.752   3.297
10495SOL    HW242705   8.807   2.846   3.419
10496SOL     OW42706   9.100   3.411   1.187
10496SOL    HW142707   9.119   3.324   1.141
10496SOL    HW242708   9.104   3.398   1.286
10497SOL     OW42709   8.939   4.063   4.241
10497SOL    HW142710   8.909   4.056   4.336
10497SOL    HW242711   8.935   4.158   4.212
10498SOL     OW42712   3.135   9.482   5.686
10498SOL    HW142713   3.168   9.534   5.764
10498SOL    HW242714   3.067   9.416   5.717
10499SOL     OW42715   2.447   2.100   6.317
10499SOL    HW142716   2.523   2.046   6.354
10499SOL    HW242717   2.422   2.064   6.227
10500SOL     OW42718   7.219   0.217   0.192
10500SOL    HW142719   7.304   0.270   0.188
10500SOL    HW242720   7.154   0.253   0.125
10501SOL     OW42721   5.728   8.727   3.453
10501SOL    HW142722   5.632   8.738   3.479
10501SOL    HW242723   5.780   8.698   3.534
10502SOL     OW42724   8.927   8.470   5.455
10502SOL    HW142725   8.917   8.390   5.396
10502SOL    HW242726   8.867   8.459   5.535
10503SOL     OW42727   2.047   6.297   0.631
10503SOL    HW142728   2.123   6.283   0.568
10503SOL    HW242729   2.050   6.230   0.704
10504SOL     OW42730   9.462   9.034   4.208
10504SOL    HW142731   9.444   9.009   4.113
10504SOL    HW242732   9.548   9.086   4.213
10505SOL     OW42733   1.026   0.524   1.446
10505SOL    HW142734   1.042   0.552   1.351
10505SOL    HW242735   1.000   0.604   1.500
10506SOL     OW42736   3.141   9.046   3.007
10506SOL    HW142737   3.073   9.099   3.057
10506SOL    HW242738   3.217   9.105   2.980
10507SOL     OW42739   0.051   9.846   1.385
10507SOL    HW142740   0.058   9.902   1.303
10507SOL    HW242741   0.034   9.904   1.464
10508SOL     OW42742   8.246   2.524   0.486
10508SOL    HW142743   8.233   2.544   0.389
10508SOL    HW242744   8.158   2.530   0.533
10509SOL     OW42745   1.485   0.363   0.836
10509SOL    HW142746   1.398   0.405   0.811
10509SOL    HW242747   1.534   0.422   0.900
10510SOL     OW42748   3.555   6.173   1.133
10510SOL    HW142749   3.607   6.152   1.050
10510SOL    HW242750   3.473   6.223   1.109
10511SOL     OW42751   2.321   3.630   0.084
10511SOL    HW142752   2.364   3.548   0.122
10511SOL    HW242753   2.327   3.627   8.172
10512SOL     OW42754   1.117   7.045   0.089
10512SOL    HW142755   1.121   7.000   8.188
10512SOL    HW242756   1.022   7.048   0.120
10513SOL     OW42757   2.906   3.448   3.905
10513SOL    HW142758   2.838   3.378   3.885
10513SOL    HW242759   2.864   3.539   3.896
10514SOL     OW42760   7.858   2.623   6.380
10514SOL    HW142761   7.769   2.579   6.392
10514SOL    HW242762   7.920   2.561   6.333
10515SOL     OW42763   3.437   1.703   5.308
10515SOL    HW142764   3.505   1.653   5.362
10515SOL    HW242765   3.412   1.788   5.356
10516SOL     OW42766   1.658   3.998   2.468
10516SOL    HW142767   1.624   3.906   2.448
10516SOL    HW242768   1.599   4.066   2.425
10517SOL     OW42769   2.080   9.994   3.185
10517SOL    HW142770   2.019   0.063   3.147
10517SOL    HW242771   2.110   9.932   3.113
10518SOL     OW42772   3.835   1.950   0.784
10518SOL    HW142773   3.757   2.002   0.818
10518SOL    HW242774   3.913   1.962   0.846
10519SOL     OW42775   6.317   1.786   5.120
10519SOL    HW142776   6.253   1.734   5.063
10519SOL    HW242777   6.286   1.784   5.215
10520SOL     OW42778   8.237   0.414   1.407
10520SOL    HW142779   8.295   0.493   1.387
10520SOL    HW242780   8.169   0.403   1.335
10521SOL     OW42781   6.778   3.145   1.521
10521SOL    HW142782   6.799   3.231   1.476
10521SOL    HW242783   6.792   3.154   1.620
10522SOL     OW42784   6.391   9.419   3.528
10522SOL    HW142785   6.368   9.375   3.614
10522SOL    HW242786   6.430   9.351   3.465
10523SOL     OW42787   1.466   8.439   6.273
10523SOL    HW142788   1.409   8.521   6.281
10523SOL    HW242789   1.465   8.407   6.178
10524SOL     OW42790   1.583   1.205   0.483
10524SOL    HW142791   1.544   1.121   0.519
10524SOL    HW242792   1.646   1.184   0.408
10525SOL     OW42793   6.809   2.129   5.176
10525SOL    HW142794   6.815   2.177   5.088
10525SOL    HW242795   6.828   2.032   5.161
10526SOL     OW42796   1.257   5.686   2.870
10526SOL    HW142797   1.311   5.609   2.905
10526SOL    HW242798   1.313   5.741   2.808
10527SOL     OW42799   2.687   8.769   0.466
10527SOL    HW142800   2.688   8.839   0.394
10527SOL    HW242801   2.702   8.813   0.555
10528SOL     OW42802   0.399   4.610   5.680
10528SOL    HW142803   0.437   4.615   5.772
10528SOL    HW242804   0.457   4.551   5.623
10529SOL     OW42805   1.137   1.519   5.956
10529SOL    HW142806   1.054   1.493   5.907
10529SOL    HW242807   1.185   1.437   5.987
10530SOL     OW42808   2.171   0.258   1.694
10530SOL    HW142809   2.223   0.243   1.778
10530SOL    HW242810   2.073   0.249   1.713
10531SOL     OW42811   4.584   5.138   2.612
10531SOL    HW142812   4.660   5.074   2.621
10531SOL    HW242813   4.607   5.224   2.659
10532SOL     OW42814   3.366   8.686   0.969
10532SOL    HW142815   3.391   8.723   0.880
10532SOL    HW242816   3.376   8.586   0.968
10533SOL     OW42817   5.237   2.273   4.149
10533SOL    HW142818   5.227   2.286   4.050
10533SOL    HW242819   5.333   2.256   4.171
10534SOL     OW42820   3.590   5.290   3.633
10534SOL    HW142821   3.543   5.255   3.552
10534SOL    HW242822   3.559   5.240   3.714
10535SOL     OW42823   8.224   7.751   4.974
10535SOL    HW142824   8.267   7.841   4.980
10535SOL    HW242825   8.285   7.682   5.015
10536SOL     OW42826   1.383   1.155   5.303
10536SOL    HW142827   1.305   1.208   5.269
10536SOL    HW242828   1.459   1.162   5.239
10537SOL     OW42829   2.304   1.550   2.256
10537SOL    HW142830   2.393   1.523   2.293
10537SOL    HW242831   2.283   1.496   2.175
10538SOL     OW42832   4.026   7.318   4.931
10538SOL    HW142833   3.985   7.263   5.004
10538SOL    HW242834   4.038   7.412   4.963
10539SOL     OW42835   1.950   2.088   5.918
10539SOL    HW142836   2.015   2.084   5.994
10539SOL    HW242837   1.880   2.017   5.931
10540SOL     OW42838   2.674   8.266   1.652
10540SOL    HW142839   2.764   8.233   1.628
10540SOL    HW242840   2.668   8.279   1.751
10541SOL     OW42841   8.409   0.095   5.282
10541SOL    HW142842   8.428   9.996   5.285
10541SOL    HW242843   8.477   0.143   5.338
10542SOL     OW42844   9.622   1.681   1.209
10542SOL    HW142845   9.559   1.603   1.212
10542SOL    HW242846   9.581   1.755   1.156
10543SOL     OW42847   4.283   0.883   5.925
10543SOL    HW142848   4.196   0.894   5.876
10543SOL    HW242849   4.348   0.953   5.895
10544SOL     OW42850   7.998   2.820   4.311
10544SOL    HW142851   8.097   2.810   4.299
10544SOL    HW242852   7.952   2.803   4.224
10545SOL     OW42853   2.504   6.232   4.012
10545SOL    HW142854   2.473   6.305   3.951
10545SOL    HW242855   2.528   6.271   4.101
10546SOL     OW42856   0.516   7.481   0.241
10546SOL    HW142857   0.444   7.550   0.227
10546SOL    HW242858   0.474   7.393   0.264
10547SOL     OW42859   0.589   0.197   3.495
10547SOL    HW142860   0.626   0.278   3.541
10547SOL    HW242861   0.512   0.162   3.549
10548SOL     OW42862   1.006   2.111   0.686
10548SOL    HW142863   0.910   2.101   0.659
10548SOL    HW242864   1.025   2.052   0.765
10549SOL     OW42865   6.019   1.637   2.675
10549SOL    HW142866   5.978   1.683   2.596
10549SOL    HW242867   5.959   1.645   2.754
10550SOL     OW42868   7.523   7.244   3.138
10550SOL    HW142869   7.516   7.268   3.041
10550SOL    HW242870   7.454   7.295   3.190
10551SOL     OW42871   4.813   4.273   3.947
10551SOL    HW142872   4.780   4.188   3.988
10551SOL    HW242873   4.906   4.291   3.980
10552SOL     OW42874   9.694   7.992   2.341
10552SOL    HW142875   9.604   8.024   2.371
10552SOL    HW242876   9.720   7.911   2.394
10553SOL     OW42877   9.611   9.459   0.488
10553SOL    HW142878   9.652   9.436   0.576
10553SOL    HW242879   9.516   9.488   0.503
10554SOL     OW42880   5.149   9.930   1.790
10554SOL    HW142881   5.111   9.837   1.797
10554SOL    HW242882   5.098   9.982   1.722
10555SOL     OW42883   7.322   7.514   2.227
10555SOL    HW142884   7.416   7.500   2.259
10555SOL    HW242885   7.298   7.611   2.236
10556SOL     OW42886   8.113   6.444   3.868
10556SOL    HW142887   8.150   6.537   3.862
10556SOL    HW242888   8.046   6.439   3.942
10557SOL     OW42889   3.661   1.928   5.407
10557SOL    HW142890   3.612   1.905   5.490
10557SOL    HW242891   3.601   1.979   5.345
10558SOL     OW42892   8.745   2.679   5.516
10558SOL    HW142893   8.706   2.599   5.470
10558SOL    HW242894   8.782   2.742   5.447
10559SOL     OW42895   8.503   5.144   4.426
10559SOL    HW142896   8.500   5.191   4.514
10559SOL    HW242897   8.440   5.067   4.428
10560SOL     OW42898   0.525   8.050   2.992
10560SOL    HW142899   0.539   8.126   3.055
10560SOL    HW242900   0.589   8.057   2.916
10561SOL     OW42901   3.372   3.933   2.927
10561SOL    HW142902   3.365   4.011   2.864
10561SOL    HW242903   3.465   3.896   2.924
10562SOL     OW42904   2.334   3.739   5.196
10562SOL    HW142905   2.387   3.740   5.111
10562SOL    HW242906   2.386   3.786   5.268
10563SOL     OW42907   5.763   1.761   5.289
10563SOL    HW142908   5.819   1.760   5.372
10563SOL    HW242909   5.735   1.854   5.269
10564SOL     OW42910   5.281   2.574   3.931
10564SOL    HW142911   5.261   2.644   3.863
10564SOL    HW242912   5.201   2.558   3.988
10565SOL     OW42913   0.433   7.876   3.414
10565SOL    HW142914   0.509   7.812   3.400
10565SOL    HW242915   0.363   7.860   3.344
10566SOL     OW42916   2.711   0.407   1.923
10566SOL    HW142917   2.713   0.367   2.014
10566SOL    HW242918   2.785   0.369   1.868
10567SOL     OW42919   2.028   2.823   0.119
10567SOL    HW142920   1.958   2.889   0.092
10567SOL    HW242921   2.013   2.736   0.072
10568SOL     OW42922   5.616   8.782   5.676
10568SOL    HW142923   5.519   8.788   5.698
10568SOL    HW242924   5.660   8.715   5.736
10569SOL     OW42925   8.131   0.753   1.439
10569SOL    HW142926   8.165   0.793   1.353
10569SOL    HW242927   8.207   0.735   1.500
10570SOL     OW42928   8.402   1.563   4.066
10570SOL    HW142929   8.439   1.545   3.975
10570SOL    HW242930   8.381   1.476   4.112
10571SOL     OW42931   2.253   4.236   4.666
10571SOL    HW142932   2.278   4.311   4.604
10571SOL    HW242933   2.328   4.171   4.671
10572SOL     OW42934   4.109   0.132   2.044
10572SOL    HW142935   4.202   0.154   2.074
10572SOL    HW242936   4.083   0.192   1.968
10573SOL     OW42937   3.661   7.866   1.989
10573SOL    HW142938   3.719   7.791   2.022
10573SOL    HW242939   3.574   7.829   1.956
10574SOL     OW42940   6.971   0.138   5.671
10574SOL    HW142941   6.930   0.192   5.598
10574SOL    HW242942   7.019   0.059   5.632
10575SOL     OW42943   2.960   2.420   2.870
10575SOL    HW142944   2.900   2.500   2.872
10575SOL    HW242945   2.907   2.339   2.895
10576SOL     OW42946   8.199   7.523   1.084
10576SOL    HW142947   8.120   7.517   1.145
10576SOL    HW242948   8.174   7.575   1.002
10577SOL     OW42949   8.039   4.263   1.090
10577SOL    HW142950   8.027   4.182   1.148
10577SOL    HW242951   8.018   4.240   0.995
10578SOL     OW42952   7.203   0.203   3.143
10578SOL    HW142953   7.176   0.259   3.222
10578SOL    HW242954   7.131   0.205   3.075
10579SOL     OW42955   1.233   5.320   6.245
10579SOL    HW142956   1.188   5.363   6.167
10579SOL    HW242957   1.243   5.386   6.319
10580SOL     OW42958   9.616   6.776   2.989
10580SOL    HW142959   9.571   6.693   3.022
10580SOL    HW242960   9.712   6.756   2.968
10581SOL     OW42961   6.140   8.109   4.268
10581SOL    HW142962   6.044   8.132   4.252
10581SOL    HW242963   6.186   8.186   4.311
10582SOL     OW42964   9.924   9.190   4.151
10582SOL    HW142965   9.929   9.136   4.067
10582SOL    HW242966   9.835   9.176   4.195
10583SOL     OW42967   7.711   3.889   0.967
10583SOL    HW142968   7.667   3.801   0.950
10583SOL    HW242969   7.808   3.884   0.943
10584SOL     OW42970   9.528   7.063   6.032
10584SOL    HW142971   9.547   6.992   6.101
10584SOL    HW242972   9.468   7.025   5.961
10585SOL     OW42973   6.911   2.858   0.928
10585SOL    HW142974   6.861   2.774   0.948
10585SOL    HW242975   6.906   2.920   1.006
10586SOL     OW42976   0.942   5.012   5.023
10586SOL    HW142977   0.937   4.921   5.066
10586SOL    HW242978   0.913   5.081   5.088
10587SOL     OW42979   5.358   1.011   4.934
10587SOL    HW142980   5.347   0.970   4.843
10587SOL    HW242981   5.277   0.990   4.989
10588SOL     OW42982   3.459   5.118   4.086
10588SOL    HW142983   3.438   5.023   4.112
10588SOL    HW242984   3.549   5.143   4.123
10589SOL     OW42985   8.763   3.673   2.714
10589SOL    HW142986   8.855   3.703   2.736
10589SOL    HW242987   8.750   3.674   2.615
10590SOL     OW42988   7.615   4.565   6.345
10590SOL    HW142989   7.605   4.469   6.317
10590SOL    HW242990   7.528   4.599   6.381
10591SOL     OW42991   7.749   0.546   2.144
10591SOL    HW142992   7.658   0.587   2.141
10591SOL    HW242993   7.756   0.475   2.073
10592SOL     OW42994   0.722   5.943   5.744
10592SOL    HW142995   0.743   5.867   5.806
10592SOL    HW242996   0.802   6.002   5.737
10593SOL     OW42997   3.914   9.090   5.147
10593SOL    HW142998   3.908   9.189   5.154
10593SOL    HW242999   3.826   9.053   5.116
10594SOL     OW43000   6.318   1.355   2.627
10594SOL    HW143001   6.309   1.442   2.674
10594SOL    HW243002   6.381   1.296   2.677
10595SOL     OW43003   1.709   5.882   3.176
10595SOL    HW143004   1.657   5.889   3.091
10595SOL    HW243005   1.807   5.883   3.156
10596SOL     OW43006   4.238   9.902   4.096
10596SOL    HW143007   4.330   9.931   4.072
10596SOL    HW243008   4.217   9.932   4.189
10597SOL     OW43009   9.032   0.159   1.232
10597SOL    HW143010   9.057   0.175   1.328
10597SOL    HW243011   9.112   0.126   1.182
10598SOL     OW43012   7.978   2.794   3.390
10598SOL    HW143013   7.969   2.729   3.315
10598SOL    HW243014   7.967   2.887   3.355
10599SOL     OW43015   6.555   0.117   1.752
10599SOL    HW143016   6.498   0.080   1.679
10599SOL    HW243017   6.569   0.047   1.822
10600SOL     OW43018   0.550   6.526   4.647
10600SOL    HW143019   0.489   6.496   4.720
10600SOL    HW243020   0.589   6.615   4.670
10601SOL     OW43021   0.528   4.002   4.064
10601SOL    HW143022   0.503   4.092   4.101
10601SOL    HW243023   0.543   4.010   3.965
10602SOL     OW43024   4.354   2.449   2.878
10602SOL    HW143025   4.322   2.366   2.925
10602SOL    HW243026   4.358   2.525   2.942
10603SOL     OW43027   7.592   2.950   6.052
10603SOL    HW143028   7.566   2.898   5.971
10603SOL    HW243029   7.543   3.038   6.052
10604SOL     OW43030   0.391   4.482   2.626
10604SOL    HW143031   0.468   4.464   2.687
10604SOL    HW243032   0.319   4.415   2.641
10605SOL     OW43033   3.930   8.043   4.675
10605SOL    HW143034   3.981   8.010   4.754
10605SOL    HW243035   3.986   8.107   4.622
10606SOL     OW43036   6.964   2.755   4.990
10606SOL    HW143037   7.004   2.677   4.942
10606SOL    HW243038   6.916   2.813   4.924
10607SOL     OW43039   3.262   7.987   1.939
10607SOL    HW143040   3.239   7.936   2.022
10607SOL    HW243041   3.305   8.073   1.964
10608SOL     OW43042   0.275   7.774   1.291
10608SOL    HW143043   0.365   7.759   1.251
10608SOL    HW243044   0.242   7.689   1.332
10609SOL     OW43045   2.448   5.860   6.449
10609SOL    HW143046   2.543   5.838   6.424
10609SOL    HW243047   2.392   5.777   6.441
10610SOL     OW43048   1.207   9.869   2.889
10610SOL    HW143049   1.160   9.919   2.961
10610SOL    HW243050   1.202   9.771   2.906
10611SOL     OW43051   5.381   5.524   2.422
10611SOL    HW143052   5.455   5.471   2.464
10611SOL    HW243053   5.326   5.566   2.493
10612SOL     OW43054   9.133   9.250   3.981
10612SOL    HW143055   9.042   9.288   3.968
10612SOL    HW243056   9.132   9.153   3.957
10613SOL     OW43057   1.175   2.158   4.100
10613SOL    HW143058   1.197   2.114   4.013
10613SOL    HW243059   1.087   2.124   4.134
10614SOL     OW43060   7.233   2.739   0.438
10614SOL    HW143061   7.231   2.677   0.516
10614SOL    HW243062   7.143   2.740   0.393
10615SOL     OW43063   8.666   8.050   0.092
10615SOL    HW143064   8.670   7.962   0.141
10615SOL    HW243065   8.573   8.065   0.059
10616SOL     OW43066   6.449   2.043   3.563
10616SOL    HW143067   6.356   2.027   3.595
10616SOL    HW243068   6.465   1.993   3.478
10617SOL     OW43069   4.653   1.472   1.324
10617SOL    HW143070   4.692   1.563   1.315
10617SOL    HW243071   4.563   1.469   1.280
10618SOL     OW43072   0.479   7.998   1.966
10618SOL    HW143073   0.566   7.953   1.986
10618SOL    HW243074   0.496   8.086   1.921
10619SOL     OW43075   4.529   9.556   2.879
10619SOL    HW143076   4.524   9.641   2.931
10619SOL    HW243077   4.438   9.531   2.846
10620SOL     OW43078   8.794   4.478   2.239
10620SOL    HW143079   8.756   4.569   2.259
10620SOL    HW243080   8.737   4.408   2.283
10621SOL     OW43081   1.932   0.778   4.518
10621SOL    HW143082   1.873   0.854   4.491
10621SOL    HW243083   1.920   0.760   4.616
10622SOL     OW43084   6.160   9.515   5.712
10622SOL    HW143085   6.229   9.490   5.779
10622SOL    HW243086   6.123   9.606   5.733
10623SOL     OW43087   5.281   9.862   2.680
10623SOL    HW143088   5.205   9.906   2.728
10623SOL    HW243089   5.343   9.931   2.644
10624SOL     OW43090   2.635   8.939   2.146
10624SOL    HW143091   2.705   8.940   2.074
10624SOL    HW243092   2.676   8.909   2.232
10625SOL     OW43093   0.834   3.672   5.405
10625SOL    HW143094   0.873   3.603   5.465
10625SOL    HW243095   0.901   3.745   5.391
10626SOL     OW43096   9.956   8.608   0.446
10626SOL    HW143097   9.877   8.669   0.443
10626SOL    HW243098   9.984   8.585   0.353
10627SOL     OW43099   4.371   8.997   2.608
10627SOL    HW143100   4.277   8.987   2.576
10627SOL    HW243101   4.372   9.045   2.696
10628SOL     OW43102   1.864   5.302   2.547
10628SOL    HW143103   1.917   5.236   2.601
10628SOL    HW243104   1.779   5.324   2.595
10629SOL     OW43105   6.151   0.703   5.452
10629SOL    HW143106   6.085   0.725   5.524
10629SOL    HW243107   6.243   0.716   5.487
10630SOL     OW43108   4.568   2.988   1.188
10630SOL    HW143109   4.500   2.928   1.229
10630SOL    HW243110   4.659   2.958   1.213
10631SOL     OW43111   0.728   0.849   2.423
10631SOL    HW143112   0.773   0.869   2.510
10631SOL    HW243113   0.693   0.756   2.424
10632SOL     OW43114   9.700   5.510   5.054
10632SOL    HW143115   9.729   5.578   4.986
10632SOL    HW243116   9.768   5.506   5.127
10633SOL     OW43117   1.746   7.086   3.819
10633SOL    HW143118   1.668   7.110   3.761
10633SOL    HW243119   1.791   7.170   3.850
10634SOL     OW43120   0.559   1.325   2.612
10634SOL    HW143121   0.529   1.235   2.580
10634SOL    HW243122   0.481   1.375   2.651
10635SOL     OW43123   1.060   4.379   3.467
10635SOL    HW143124   1.011   4.327   3.536
10635SOL    HW243125   0.995   4.429   3.410
10636SOL     OW43126   9.392   7.530   4.443
10636SOL    HW143127   9.469   7.467   4.451
10636SOL    HW243128   9.424   7.618   4.408
10637SOL     OW43129   2.000   5.583   5.956
10637SOL    HW143130   2.058   5.538   5.888
10637SOL    HW243131   1.915   5.532   5.968
10638SOL     OW43132   1.258   6.670   2.061
10638SOL    HW143133   1.299   6.752   2.101
10638SOL    HW243134   1.159   6.675   2.071
10639SOL     OW43135   3.444   6.792   4.496
10639SOL    HW143136   3.460   6.891   4.501
10639SOL    HW243137   3.474   6.750   4.582
10640SOL     OW43138   7.521   6.156   4.969
10640SOL    HW143139   7.553   6.182   4.878
10640SOL    HW243140   7.572   6.076   5.001
10641SOL     OW43141   0.915   3.869   1.603
10641SOL    HW143142   0.986   3.843   1.668
10641SOL    HW243143   0.905   3.968   1.604
10642SOL     OW43144   3.497   8.872   0.471
10642SOL    HW143145   3.590   8.834   0.476
10642SOL    HW243146   3.491   8.935   0.394
10643SOL     OW43147   2.973   8.925   0.487
10643SOL    HW143148   2.960   8.867   0.568
10643SOL    HW243149   3.065   8.910   0.450
10644SOL     OW43150   7.369   1.684   5.710
10644SOL    HW143151   7.354   1.638   5.623
10644SOL    HW243152   7.298   1.754   5.724
10645SOL     OW43153   8.057   0.307   2.471
10645SOL    HW143154   8.072   0.222   2.521
10645SOL    HW243155   8.134   0.324   2.409
10646SOL     OW43156   1.490   5.608   1.114
10646SOL    HW143157   1.396   5.581   1.137
10646SOL    HW243158   1.554   5.541   1.152
10647SOL     OW43159   0.728   7.150   6.095
10647SOL    HW143160   0.712   7.074   6.032
10647SOL    HW243161   0.714   7.237   6.047
10648SOL     OW43162   9.528   8.891   4.602
10648SOL    HW143163   9.444   8.838   4.615
10648SOL    HW243164   9.605   8.843   4.644
10649SOL     OW43165   9.130   9.482   5.756
10649SOL    HW143166   9.223   9.450   5.777
10649SOL    HW243167   9.108   9.459   5.662
10650SOL     OW43168   4.446   4.179   1.709
10650SOL    HW143169   4.353   4.152   1.736
10650SOL    HW243170   4.493   4.099   1.672
10651SOL     OW43171   4.158   3.810   3.545
10651SOL    HW143172   4.142   3.812   3.644
10651SOL    HW243173   4.182   3.901   3.514
10652SOL     OW43174   4.353   3.637   0.102
10652SOL    HW143175   4.258   3.667   0.116
10652SOL    HW243176   4.356   3.570   0.028
10653SOL     OW43177   0.749   3.067   2.632
10653SOL    HW143178   0.817   3.138   2.645
10653SOL    HW243179   0.786   2.979   2.663
10654SOL     OW43180   1.969   5.619   4.929
10654SOL    HW143181   1.971   5.521   4.949
10654SOL    HW243182   1.874   5.648   4.913
10655SOL     OW43183   3.939   3.911   4.867
10655SOL    HW143184   3.875   3.881   4.937
10655SOL    HW243185   3.904   3.887   4.776
10656SOL     OW43186   9.295   9.820   0.246
10656SOL    HW143187   9.316   9.722   0.237
10656SOL    HW243188   9.199   9.835   0.225
10657SOL     OW43189   2.594   6.477   3.647
10657SOL    HW143190   2.676   6.524   3.615
10657SOL    HW243191   2.614   6.380   3.661
10658SOL     OW43192   7.831   1.175   5.513
10658SOL    HW143193   7.917   1.186   5.563
10658SOL    HW243194   7.758   1.224   5.561
10659SOL     OW43195   9.562   7.941   0.974
10659SOL    HW143196   9.500   7.930   1.052
10659SOL    HW243197   9.594   7.851   0.943
10660SOL     OW43198   0.527   6.898   0.188
10660SOL    HW143199   0.609   6.931   0.141
10660SOL    HW243200   0.451   6.959   0.169
10661SOL     OW43201   8.134   3.993   2.780
10661SOL    HW143202   8.193   3.931   2.833
10661SOL    HW243203   8.067   4.035   2.842
10662SOL     OW43204   5.093   5.277   1.131
10662SOL    HW143205   5.116   5.197   1.076
10662SOL    HW243206   5.002   5.266   1.170
10663SOL     OW43207   3.065   2.472   3.123
10663SOL    HW143208   3.110   2.387   3.151
10663SOL    HW243209   3.018   2.458   3.036
10664SOL     OW43210   7.219   8.465   3.825
10664SOL    HW143211   7.244   8.411   3.745
10664SOL    HW243212   7.120   8.480   3.826
10665SOL     OW43213   4.771   5.866   1.275
10665SOL    HW143214   4.806   5.836   1.186
10665SOL    HW243215   4.773   5.966   1.280
10666SOL     OW43216   9.984   9.454   1.039
10666SOL    HW143217   0.054   9.484   1.103
10666SOL    HW243218   9.964   9.527   0.974
10667SOL     OW43219   1.705   7.964   4.616
10667SOL    HW143220   1.622   7.974   4.671
10667SOL    HW243221   1.784   7.988   4.672
10668SOL     OW43222   3.828   9.873   3.545
10668SOL    HW143223   3.820   9.785   3.499
10668SOL    HW243224   3.779   9.943   3.492
10669SOL     OW43225   7.337   7.941   5.986
10669SOL    HW143226   7.403   8.014   6.001
10669SOL    HW243227   7.384   7.860   5.949
10670SOL     OW43228   6.518   3.530   0.619
10670SOL    HW143229   6.562   3.524   0.530
10670SOL    HW243230   6.584   3.505   0.690
10671SOL     OW43231   3.013   7.356   0.942
10671SOL    HW143232   3.104   7.390   0.919
10671SOL    HW243233   2.965   7.425   0.995
10672SOL     OW43234   0.964   0.314   4.991
10672SOL    HW143235   0.946   0.216   4.991
10672SOL    HW243236   0.994   0.343   4.900
10673SOL     OW43237   2.325   5.642   6.299
10673SOL    HW143238   2.398   5.675   6.239
10673SOL    HW243239   2.238   5.681   6.268
10674SOL     OW43240   6.759   0.946   1.322
10674SOL    HW143241   6.750   1.045   1.324
10674SOL    HW243242   6.698   0.906   1.391
10675SOL     OW43243   2.078   8.452   0.204
10675SOL    HW143244   2.088   8.375   0.267
10675SOL    HW243245   2.167   8.497   0.193
10676SOL     OW43246   9.287   0.918   1.649
10676SOL    HW143247   9.210   0.873   1.694
10676SOL    HW243248   9.261   1.011   1.623
10677SOL     OW43249   7.100   1.450   0.255
10677SOL    HW143250   7.129   1.471   0.348
10677SOL    HW243251   7.156   1.501   0.190
10678SOL     OW43252   2.119   0.002   0.344
10678SOL    HW143253   2.080   9.912   0.362
10678SOL    HW243254   2.200   9.992   0.286
10679SOL     OW43255   8.524   5.489   4.438
10679SOL    HW143256   8.561   5.436   4.362
10679SOL    HW243257   8.506   5.429   4.515
10680SOL     OW43258   1.956   0.088   2.646
10680SOL    HW143259   1.976   0.168   2.590
10680SOL    HW243260   2.019   0.084   2.723
10681SOL     OW43261   8.739   1.814   4.562
10681SOL    HW143262   8.821   1.870   4.546
10681SOL    HW243263   8.681   1.815   4.481
10682SOL     OW43264   6.476   7.718   4.269
10682SOL    HW143265   6.393   7.765   4.298
10682SOL    HW243266   6.452   7.633   4.221
10683SOL     OW43267   3.735   4.413   4.935
10683SOL    HW143268   3.818   4.384   4.984
10683SOL    HW243269   3.722   4.511   4.947
10684SOL     OW43270   4.663   7.791   3.956
10684SOL    HW143271   4.737   7.836   4.005
10684SOL    HW243272   4.635   7.709   4.006
10685SOL     OW43273   0.449   1.071   2.548
10685SOL    HW143274   0.420   1.089   2.642
10685SOL    HW243275   0.428   0.976   2.525
10686SOL     OW43276   9.373   9.392   1.089
10686SOL    HW143277   9.451   9.332   1.105
10686SOL    HW243278   9.402   9.473   1.038
10687SOL     OW43279   4.710   3.995   4.308
10687SOL    HW143280   4.745   3.992   4.214
10687SOL    HW243281   4.628   3.939   4.315
10688SOL     OW43282   7.374   3.410   0.346
10688SOL    HW143283   7.279   3.442   0.348
10688SOL    HW243284   7.434   3.488   0.330
10689SOL     OW43285   3.164   7.898   4.306
10689SOL    HW143286   3.171   7.900   4.206
10689SOL    HW243287   3.203   7.812   4.340
10690SOL     OW43288   8.316   4.096   1.331
10690SOL    HW143289   8.330   4.194   1.348
10690SOL    HW243290   8.218   4.078   1.321
10691SOL     OW43291   8.828   4.154   0.148
10691SOL    HW143292   8.749   4.110   0.106
10691SOL    HW243293   8.808   4.176   0.243
10692SOL     OW43294   7.149   8.940   4.573
10692SOL    HW143295   7.084   8.952   4.498
10692SOL    HW243296   7.241   8.960   4.541
10693SOL     OW43297   8.530   6.862   3.581
10693SOL    HW143298   8.486   6.813   3.506
10693SOL    HW243299   8.460   6.906   3.637
10694SOL     OW43300   2.432   7.105   0.857
10694SOL    HW143301   2.372   7.110   0.778
10694SOL    HW243302   2.391   7.044   0.926
10695SOL     OW43303   4.020   8.675   5.361
10695SOL    HW143304   4.041   8.581   5.336
10695SOL    HW243305   4.053   8.693   5.454
10696SOL     OW43306   8.897   5.196   3.813
10696SOL    HW143307   8.841   5.232   3.737
10696SOL    HW243308   8.991   5.228   3.803
10697SOL     OW43309   5.513   1.412   4.450
10697SOL    HW143310   5.465   1.395   4.363
10697SOL    HW243311   5.594   1.468   4.433
10698SOL     OW43312   8.810   5.881   3.567
10698SOL    HW143313   8.798   5.801   3.626
10698SOL    HW243314   8.907   5.902   3.558
10699SOL     OW43315   2.544   5.173   6.045
10699SOL    HW143316   2.469   5.108   6.035
10699SOL    HW243317   2.597   5.175   5.960
10700SOL     OW43318   9.919   2.512   4.251
10700SOL    HW143319   9.881   2.493   4.342
10700SOL    HW243320   9.848   2.553   4.194
10701SOL     OW43321   0.228   7.289   5.295
10701SOL    HW143322   0.248   7.206   5.346
10701SOL    HW243323   0.309   7.315   5.242
10702SOL     OW43324   4.491   1.523   2.803
10702SOL    HW143325   4.406   1.576   2.801
10702SOL    HW243326   4.508   1.491   2.896
10703SOL     OW43327   5.024   7.645   3.871
10703SOL    HW143328   4.964   7.596   3.935
10703SOL    HW243329   5.041   7.737   3.905
10704SOL     OW43330   8.799   8.059   1.004
10704SOL    HW143331   8.853   8.014   0.933
10704SOL    HW243332   8.781   8.154   0.978
10705SOL     OW43333   2.280   3.054   1.229
10705SOL    HW143334   2.248   2.997   1.304
10705SOL    HW243335   2.345   3.003   1.173
10706SOL     OW43336   9.526   1.913   5.791
10706SOL    HW143337   9.474   1.894   5.707
10706SOL    HW243338   9.599   1.978   5.770
10707SOL     OW43339   8.916   2.867   2.604
10707SOL    HW143340   8.938   2.894   2.511
10707SOL    HW243341   8.911   2.767   2.609
10708SOL     OW43342   1.566   2.058   6.243
10708SOL    HW143343   1.479   2.019   6.272
10708SOL    HW243344   1.591   2.133   6.305
10709SOL     OW43345   2.227   3.896   5.578
10709SOL    HW143346   2.136   3.914   5.539
10709SOL    HW243347   2.223   3.905   5.677
10710SOL     OW43348   3.279   5.605   0.846
10710SOL    HW143349   3.351   5.553   0.800
10710SOL    HW243350   3.220   5.542   0.896
10711SOL     OW43351   1.632   4.242   2.118
10711SOL    HW143352   1.635   4.161   2.060
10711SOL    HW243353   1.590   4.219   2.206
10712SOL     OW43354   7.676   3.477   0.777
10712SOL    HW143355   7.703   3.406   0.711
10712SOL    HW243356   7.748   3.487   0.846
10713SOL     OW43357   5.063   9.265   2.857
10713SOL    HW143358   5.031   9.177   2.891
10713SOL    HW243359   5.119   9.251   2.775
10714SOL     OW43360   7.597   0.650   1.103
10714SOL    HW143361   7.644   0.724   1.055
10714SOL    HW243362   7.646   0.629   1.188
10715SOL     OW43363   7.363   1.820   1.756
10715SOL    HW143364   7.391   1.913   1.779
10715SOL    HW243365   7.347   1.814   1.657
10716SOL     OW43366   4.479   7.673   4.700
10716SOL    HW143367   4.409   7.735   4.664
10716SOL    HW243368   4.569   7.704   4.669
10717SOL     OW43369   2.388   6.360   2.857
10717SOL    HW143370   2.383   6.300   2.937
10717SOL    HW243371   2.384   6.455   2.887
10718SOL     OW43372   8.989   2.431   0.508
10718SOL    HW143373   9.017   2.351   0.561
10718SOL    HW243374   9.070   2.473   0.466
10719SOL     OW43375   5.259   5.624   0.929
10719SOL    HW143376   5.204   5.574   0.862
10719SOL    HW243377   5.245   5.722   0.917
10720SOL     OW43378   0.054   7.871   2.830
10720SOL    HW143379   0.040   7.785   2.782
10720SOL    HW243380   9.991   7.877   2.908
10721SOL     OW43381   9.314   1.616   4.994
10721SOL    HW143382   9.316   1.616   4.894
10721SOL    HW243383   9.402   1.647   5.029
10722SOL     OW43384   1.801   8.756   6.305
10722SOL    HW143385   1.896   8.778   6.324
10722SOL    HW243386   1.743   8.832   6.333
10723SOL     OW43387   8.923   7.070   5.197
10723SOL    HW143388   8.978   7.153   5.198
10723SOL    HW243389   8.908   7.041   5.102
10724SOL     OW43390   7.395   1.421   2.840
10724SOL    HW143391   7.308   1.372   2.842
10724SOL    HW243392   7.450   1.387   2.763
10725SOL     OW43393   8.184   9.276   5.742
10725SOL    HW143394   8.223   9.267   5.650
10725SOL    HW243395   8.174   9.185   5.783
10726SOL     OW43396   3.961   0.549   0.678
10726SOL    HW143397   3.988   0.611   0.604
10726SOL    HW243398   3.875   0.505   0.654
10727SOL     OW43399   7.296   1.963   0.747
10727SOL    HW143400   7.376   2.017   0.773
10727SOL    HW243401   7.228   2.022   0.706
10728SOL     OW43402   9.568   9.454   2.451
10728SOL    HW143403   9.497   9.438   2.519
10728SOL    HW243404   9.597   9.366   2.412
10729SOL     OW43405   9.069   0.554   2.606
10729SOL    HW143406   9.068   0.570   2.507
10729SOL    HW243407   9.047   0.458   2.624
10730SOL     OW43408   3.631   8.208   0.461
10730SOL    HW143409   3.614   8.255   0.547
10730SOL    HW243410   3.545   8.196   0.411
10731SOL     OW43411   0.531   6.503   6.169
10731SOL    HW143412   0.549   6.406   6.153
10731SOL    HW243413   0.468   6.513   6.246
10732SOL     OW43414   8.301   1.665   2.358
10732SOL    HW143415   8.320   1.659   2.456
10732SOL    HW243416   8.292   1.761   2.331
10733SOL     OW43417   9.151   4.186   5.856
10733SOL    HW143418   9.133   4.281   5.834
10733SOL    HW243419   9.066   4.141   5.884
10734SOL     OW43420   6.996   9.198   4.992
10734SOL    HW143421   7.010   9.142   5.074
10734SOL    HW243422   7.054   9.164   4.918
10735SOL     OW43423   0.189   6.503   3.211
10735SOL    HW143424   0.287   6.506   3.230
10735SOL    HW243425   0.175   6.468   3.118
10736SOL     OW43426   2.237   7.289   2.190
10736SOL    HW143427   2.150   7.291   2.240
10736SOL    HW243428   2.263   7.194   2.174
10737SOL     OW43429   5.819   9.543   4.929
10737SOL    HW143430   5.809   9.444   4.931
10737SOL    HW243431   5.762   9.580   4.856
10738SOL     OW43432   0.680   6.210   5.245
10738SOL    HW143433   0.748   6.146   5.282
10738SOL    HW243434   0.626   6.164   5.174
10739SOL     OW43435   6.581   1.135   6.155
10739SOL    HW143436   6.564   1.233   6.143
10739SOL    HW243437   6.514   1.096   6.218
10740SOL     OW43438   7.400   0.053   3.414
10740SOL    HW143439   7.346   0.014   3.339
10740SOL    HW243440   7.341   0.067   3.494
10741SOL     OW43441   9.265   8.468   6.327
10741SOL    HW143442   9.182   8.416   6.345
10741SOL    HW243443   9.342   8.404   6.314
10742SOL     OW43444   7.756   9.496   0.387
10742SOL    HW143445   7.840   9.539   0.355
10742SOL    HW243446   7.723   9.543   0.469
10743SOL     OW43447   0.712   2.854   1.112
10743SOL    HW143448   0.679   2.906   1.191
10743SOL    HW243449   0.811   2.861   1.107
10744SOL     OW43450   3.425   9.790   2.732
10744SOL    HW143451   3.454   9.695   2.735
10744SOL    HW243452   3.432   9.830   2.823
10745SOL     OW43453   3.864   0.555   3.296
10745SOL    HW143454   3.926   0.568   3.373
10745SOL    HW243455   3.909   0.585   3.212
10746SOL     OW43456   9.257   1.532   4.007
10746SOL    HW143457   9.281   1.614   3.955
10746SOL    HW243458   9.313   1.526   4.089
10747SOL     OW43459   1.618   0.419   2.920
10747SOL    HW143460   1.670   0.439   2.836
10747SOL    HW243461   1.536   0.475   2.923
10748SOL     OW43462   2.930   8.605   2.075
10748SOL    HW143463   2.965   8.699   2.068
10748SOL    HW243464   2.918   8.581   2.171
10749SOL     OW43465   8.946   0.104   0.636
10749SOL    HW143466   8.984   0.013   0.617
10749SOL    HW243467   8.846   0.098   0.637
10750SOL     OW43468   4.795   5.562   0.303
10750SOL    HW143469   4.760   5.468   0.305
10750SOL    HW243470   4.894   5.560   0.318
10751SOL     OW43471   2.482   1.986   5.604
10751SOL    HW143472   2.542   2.054   5.560
10751SOL    HW243473   2.537   1.925   5.661
10752SOL     OW43474   6.018   9.663   3.489
10752SOL    HW143475   5.967   9.632   3.570
10752SOL    HW243476   6.115   9.672   3.511
10753SOL     OW43477   1.022   9.429   4.311
10753SOL    HW143478   1.104   9.381   4.280
10753SOL    HW243479   1.047   9.519   4.347
10754SOL     OW43480   2.653   6.080   0.511
10754SOL    HW143481   2.579   6.063   0.446
10754SOL    HW243482   2.728   6.016   0.492
10755SOL     OW43483   7.882   7.178   3.639
10755SOL    HW143484   7.897   7.268   3.679
10755SOL    HW243485   7.783   7.162   3.629
10756SOL     OW43486   7.078   0.340   3.348
10756SOL    HW143487   6.983   0.308   3.340
10756SOL    HW243488   7.085   0.405   3.423
10757SOL     OW43489   8.923   5.583   4.300
10757SOL    HW143490   8.993   5.512   4.291
10757SOL    HW243491   8.965   5.669   4.328
10758SOL     OW43492   8.081   6.825   4.929
10758SOL    HW143493   8.019   6.866   4.862
10758SOL    HW243494   8.162   6.790   4.882
10759SOL     OW43495   0.394   6.660   0.244
10759SOL    HW143496   0.447   6.741   0.221
10759SOL    HW243497   0.406   6.638   0.341
10760SOL     OW43498   4.400   3.556   5.000
10760SOL    HW143499   4.315   3.541   4.949
10760SOL    HW243500   4.400   3.648   5.039
10761SOL     OW43501   1.648   9.788   2.473
10761SOL    HW143502   1.666   9.864   2.535
10761SOL    HW243503   1.647   9.702   2.524
10762SOL     OW43504   2.178   7.738   1.044
10762SOL    HW143505   2.115   7.776   0.976
10762SOL    HW243506   2.268   7.781   1.034
10763SOL     OW43507   4.602   3.485   4.473
10763SOL    HW143508   4.503   3.481   4.485
10763SOL    HW243509   4.628   3.427   4.395
10764SOL     OW43510   2.681   0.714   6.009
10764SOL    HW143511   2.630   0.741   5.927
10764SOL    HW243512   2.742   0.788   6.036
10765SOL     OW43513   8.476   4.895   5.548
10765SOL    HW143514   8.425   4.919   5.465
10765SOL    HW243515   8.489   4.795   5.552
10766SOL     OW43516   4.900   4.361   4.289
10766SOL    HW143517   4.893   4.458   4.266
10766SOL    HW243518   4.809   4.323   4.303
10767SOL     OW43519   6.557   1.314   3.606
10767SOL    HW143520   6.601   1.394   3.647
10767SOL    HW243521   6.482   1.344   3.548
10768SOL     OW43522   6.852   4.742   0.859
10768SOL    HW143523   6.878   4.726   0.764
10768SOL    HW243524   6.758   4.713   0.873
10769SOL     OW43525   8.225   3.100   3.487
10769SOL    HW143526   8.275   3.167   3.432
10769SOL    HW243527   8.139   3.139   3.518
10770SOL     OW43528   3.095   2.062   2.927
10770SOL    HW143529   3.142   2.106   2.851
10770SOL    HW243530   3.128   2.099   3.013
10771SOL     OW43531   1.155   7.521   1.946
10771SOL    HW143532   1.084   7.574   1.898
10771SOL    HW243533   1.205   7.581   2.008
10772SOL     OW43534   9.412   2.230   0.876
10772SOL    HW143535   9.507   2.219   0.905
10772SOL    HW243536   9.397   2.323   0.843
10773SOL     OW43537   3.407   5.014   1.633
10773SOL    HW143538   3.352   4.934   1.659
10773SOL    HW243539   3.503   4.986   1.622
10774SOL     OW43540   1.627   5.610   3.874
10774SOL    HW143541   1.618   5.635   3.777
10774SOL    HW243542   1.562   5.662   3.928
10775SOL     OW43543   0.308   7.058   0.148
10775SOL    HW143544   0.237   7.020   0.206
10775SOL    HW243545   0.267   7.093   0.064
10776SOL     OW43546   0.907   8.658   0.834
10776SOL    HW143547   0.909   8.596   0.756
10776SOL    HW243548   1.001   8.675   0.865
10777SOL     OW43549   3.808   0.721   2.554
10777SOL    HW143550   3.837   0.750   2.463
10777SOL    HW243551   3.759   0.634   2.547
10778SOL     OW43552   0.974   7.706   1.844
10778SOL    HW143553   1.033   7.787   1.845
10778SOL    HW243554   0.917   7.707   1.762
10779SOL     OW43555   4.351   2.728   1.037
10779SOL    HW143556   4.333   2.659   0.966
10779SOL    HW243557   4.286   2.804   1.027
10780SOL     OW43558   8.628   0.489   0.911
10780SOL    HW143559   8.565   0.517   0.838
10780SOL    HW243560   8.587   0.506   1.000
10781SOL     OW43561   3.780   8.178   0.812
10781SOL    HW143562   3.845   8.241   0.854
10781SOL    HW243563   3.829   8.102   0.769
10782SOL     OW43564   5.193   4.539   1.045
10782SOL    HW143565   5.280   4.491   1.061
10782SOL    HW243566   5.210   4.637   1.035
10783SOL     OW43567   6.980   6.835   5.740
10783SOL    HW143568   6.963   6.933   5.732
10783SOL    HW243569   6.923   6.796   5.812
10784SOL     OW43570   1.013   2.385   1.257
10784SOL    HW143571   0.925   2.430   1.239
10784SOL    HW243572   1.020   2.364   1.354
10785SOL     OW43573   3.383   4.654   5.563
10785SOL    HW143574   3.464   4.599   5.544
10785SOL    HW243575   3.404   4.722   5.632
10786SOL     OW43576   8.121   0.585   5.717
10786SOL    HW143577   8.079   0.625   5.636
10786SOL    HW243578   8.212   0.549   5.694
10787SOL     OW43579   4.351   8.197   1.398
10787SOL    HW143580   4.352   8.291   1.364
10787SOL    HW243581   4.259   8.174   1.428
10788SOL     OW43582   2.563   5.607   5.574
10788SOL    HW143583   2.612   5.690   5.546
10788SOL    HW243584   2.479   5.632   5.622
10789SOL     OW43585   0.750   6.305   1.537
10789SOL    HW143586   0.718   6.221   1.582
10789SOL    HW243587   0.823   6.346   1.592
10790SOL     OW43588   2.687   8.321   0.937
10790SOL    HW143589   2.628   8.393   0.973
10790SOL    HW243590   2.712   8.342   0.842
10791SOL     OW43591   0.501   1.700   3.758
10791SOL    HW143592   0.530   1.758   3.681
10791SOL    HW243593   0.578   1.643   3.787
10792SOL     OW43594   3.798   4.544   3.857
10792SOL    HW143595   3.737   4.619   3.883
10792SOL    HW243596   3.885   4.582   3.825
10793SOL     OW43597   3.047   5.183   4.990
10793SOL    HW143598   2.948   5.178   5.005
10793SOL    HW243599   3.088   5.241   5.059
10794SOL     OW43600   0.635   0.417   1.410
10794SOL    HW143601   0.547   0.442   1.452
10794SOL    HW243602   0.677   0.498   1.370
10795SOL     OW43603   1.886   3.239   1.757
10795SOL    HW143604   1.840   3.167   1.808
10795SOL    HW243605   1.915   3.205   1.668
10796SOL     OW43606   9.858   2.647   0.798
10796SOL    HW143607   9.854   2.725   0.860
10796SOL    HW243608   9.803   2.666   0.717
10797SOL     OW43609   4.638   2.237   5.732
10797SOL    HW143610   4.576   2.280   5.667
10797SOL    HW243611   4.585   2.199   5.808
10798SOL     OW43612   3.589   2.184   0.232
10798SOL    HW143613   3.671   2.162   0.285
10798SOL    HW243614   3.508   2.171   0.288
10799SOL     OW43615   5.631   1.696   4.108
10799SOL    HW143616   5.589   1.785   4.087
10799SOL    HW243617   5.723   1.710   4.145
10800SOL     OW43618   2.135   4.984   4.939
10800SOL    HW143619   2.166   4.929   5.017
10800SOL    HW243620   2.213   5.036   4.903
10801SOL     OW43621   7.159   2.753   3.800
10801SOL    HW143622   7.162   2.806   3.716
10801SOL    HW243623   7.252   2.737   3.833
10802SOL     OW43624   0.145   5.476   6.029
10802SOL    HW143625   0.103   5.515   5.947
10802SOL    HW243626   0.244   5.471   6.017
10803SOL     OW43627   0.762   4.484   5.354
10803SOL    HW143628   0.765   4.411   5.286
10803SOL    HW243629   0.738   4.571   5.310
10804SOL     OW43630   9.848   2.155   3.646
10804SOL    HW143631   9.899   2.177   3.730
10804SOL    HW243632   9.779   2.085   3.666
10805SOL     OW43633   2.927   8.650   0.309
10805SOL    HW143634   2.867   8.692   0.377
10805SOL    HW243635   2.876   8.580   0.258
10806SOL     OW43636   8.057   3.270   1.711
10806SOL    HW143637   8.111   3.243   1.790
10806SOL    HW243638   7.988   3.199   1.692
10807SOL     OW43639   8.717   4.748   1.152
10807SOL    HW143640   8.761   4.794   1.229
10807SOL    HW243641   8.623   4.725   1.176
10808SOL     OW43642   0.760   6.461   2.377
10808SOL    HW143643   0.769   6.392   2.449
10808SOL    HW243644   0.846   6.467   2.326
10809SOL     OW43645   8.721   0.831   1.152
10809SOL    HW143646   8.801   0.811   1.096
10809SOL    HW243647   8.738   0.798   1.246
10810SOL     OW43648   1.848   4.841   6.001
10810SOL    HW143649   1.796   4.806   5.922
10810SOL    HW243650   1.937   4.796   6.005
10811SOL     OW43651   3.320   9.342   5.526
10811SOL    HW143652   3.374   9.287   5.589
10811SOL    HW243653   3.255   9.398   5.577
10812SOL     OW43654   9.613   2.163   2.594
10812SOL    HW143655   9.708   2.184   2.572
10812SOL    HW243656   9.589   2.202   2.683
10813SOL     OW43657   0.329   7.700   2.329
10813SOL    HW143658   0.279   7.786   2.332
10813SOL    HW243659   0.404   7.707   2.264
10814SOL     OW43660   9.714   0.196   5.817
10814SOL    HW143661   9.766   0.119   5.778
10814SOL    HW243662   9.706   0.184   5.916
10815SOL     OW43663   2.497   1.001   1.108
10815SOL    HW143664   2.518   1.045   1.195
10815SOL    HW243665   2.401   1.018   1.085
10816SOL     OW43666   9.935   4.696   1.490
10816SOL    HW143667   9.921   4.631   1.415
10816SOL    HW243668   9.900   4.786   1.463
10817SOL     OW43669   6.010   1.398   0.770
10817SOL    HW143670   6.009   1.498   0.780
10817SOL    HW243671   5.945   1.357   0.834
10818SOL     OW43672   0.009   8.580   3.310
10818SOL    HW143673   0.020   8.480   3.313
10818SOL    HW243674   0.060   8.621   3.385
10819SOL     OW43675   3.143   4.073   0.217
10819SOL    HW143676   3.164   3.992   0.163
10819SOL    HW243677   3.167   4.057   0.313
10820SOL     OW43678   1.377   8.977   5.948
10820SOL    HW143679   1.385   8.877   5.947
10820SOL    HW243680   1.280   9.002   5.949
10821SOL     OW43681   8.259   7.673   4.554
10821SOL    HW143682   8.314   7.607   4.605
10821SOL    HW243683   8.194   7.623   4.496
10822SOL     OW43684   4.811   0.583   1.034
10822SOL    HW143685   4.831   0.582   0.936
10822SOL    HW243686   4.893   0.559   1.085
10823SOL     OW43687   0.095   9.992   0.501
10823SOL    HW143688   0.139   9.902   0.497
10823SOL    HW243689   0.031   0.000   0.424
10824SOL     OW43690   2.545   9.657   3.185
10824SOL    HW143691   2.498   9.716   3.120
10824SOL    HW243692   2.642   9.652   3.162
10825SOL     OW43693   0.092   1.606   1.094
10825SOL    HW143694   0.059   1.581   1.003
10825SOL    HW243695   0.029   1.572   1.163
10826SOL     OW43696   6.865   9.812   3.467
10826SOL    HW143697   6.780   9.817   3.414
10826SOL    HW243698   6.941   9.786   3.407
10827SOL     OW43699   4.663   1.192   6.242
10827SOL    HW143700   4.744   1.239   6.208
10827SOL    HW243701   4.632   1.236   6.327
10828SOL     OW43702   7.297   2.988   4.040
10828SOL    HW143703   7.258   2.899   4.061
10828SOL    HW243704   7.268   3.054   4.109
10829SOL     OW43705   9.750   4.305   2.021
10829SOL    HW143706   9.808   4.225   2.008
10829SOL    HW243707   9.779   4.377   1.958
10830SOL     OW43708   5.348   5.248   1.401
10830SOL    HW143709   5.282   5.207   1.338
10830SOL    HW243710   5.382   5.334   1.363
10831SOL     OW43711   7.312   3.454   1.685
10831SOL    HW143712   7.316   3.466   1.784
10831SOL    HW243713   7.254   3.526   1.645
10832SOL     OW43714   9.782   6.442   0.665
10832SOL    HW143715   9.838   6.429   0.747
10832SOL    HW243716   9.782   6.358   0.610
10833SOL     OW43717   2.346   8.248   3.632
10833SOL    HW143718   2.367   8.261   3.729
10833SOL    HW243719   2.431   8.250   3.579
10834SOL     OW43720   4.999   0.938   2.787
10834SOL    HW143721   4.945   1.016   2.756
10834SOL    HW243722   5.067   0.915   2.717
10835SOL     OW43723   3.561   4.259   6.419
10835SOL    HW143724   3.536   4.163   6.407
10835SOL    HW243725   3.657   4.271   6.394
10836SOL     OW43726   7.490   0.074   4.405
10836SOL    HW143727   7.473   0.118   4.317
10836SOL    HW243728   7.461   0.134   4.479
10837SOL     OW43729   8.497   0.791   3.092
10837SOL    HW143730   8.583   0.749   3.060
10837SOL    HW243731   8.516   0.884   3.123
10838SOL     OW43732   2.033   2.210   0.469
10838SOL    HW143733   2.126   2.182   0.493
10838SOL    HW243734   2.032   2.309   0.453
10839SOL     OW43735   1.121   5.070   5.891
10839SOL    HW143736   1.065   5.029   5.963
10839SOL    HW243737   1.135   5.004   5.817
10840SOL     OW43738   2.593   1.685   5.250
10840SOL    HW143739   2.567   1.776   5.219
10840SOL    HW243740   2.663   1.647   5.189
10841SOL     OW43741   1.242   8.843   0.601
10841SOL    HW143742   1.265   8.930   0.645
10841SOL    HW243743   1.203   8.861   0.511
10842SOL     OW43744   3.713   3.634   3.130
10842SOL    HW143745   3.670   3.695   3.064
10842SOL    HW243746   3.679   3.655   3.222
10843SOL     OW43747   2.917   2.674   3.588
10843SOL    HW143748   2.951   2.667   3.495
10843SOL    HW243749   2.898   2.582   3.624
10844SOL     OW43750   2.346   3.621   5.942
10844SOL    HW143751   2.375   3.717   5.940
10844SOL    HW243752   2.426   3.563   5.959
10845SOL     OW43753   1.237   1.619   3.535
10845SOL    HW143754   1.241   1.552   3.609
10845SOL    HW243755   1.315   1.604   3.473
10846SOL     OW43756   9.822   2.695   3.569
10846SOL    HW143757   9.843   2.598   3.555
10846SOL    HW243758   9.739   2.718   3.518
10847SOL     OW43759   9.216   4.367   1.586
10847SOL    HW143760   9.122   4.401   1.591
10847SOL    HW243761   9.274   4.418   1.650
10848SOL     OW43762   8.875   3.634   5.159
10848SOL    HW143763   8.910   3.613   5.250
10848SOL    HW243764   8.944   3.684   5.107
10849SOL     OW43765   4.968   5.716   2.065
10849SOL    HW143766   5.030   5.755   1.997
10849SOL    HW243767   5.016   5.707   2.153
10850SOL     OW43768   8.055   0.855   6.179
10850SOL    HW143769   8.107   0.805   6.248
10850SOL    HW243770   8.075   0.819   6.088
10851SOL     OW43771   3.197   1.805   4.290
10851SOL    HW143772   3.279   1.851   4.255
10851SOL    HW243773   3.201   1.708   4.267
10852SOL     OW43774   0.266   2.329   2.013
10852SOL    HW143775   0.243   2.292   2.103
10852SOL    HW243776   0.224   2.272   1.942
10853SOL     OW43777   0.944   9.521   5.951
10853SOL    HW143778   0.928   9.468   6.035
10853SOL    HW243779   1.030   9.571   5.960
10854SOL     OW43780   0.825   8.779   1.767
10854SOL    HW143781   0.900   8.721   1.734
10854SOL    HW243782   0.738   8.745   1.730
10855SOL     OW43783   8.748   4.093   3.877
10855SOL    HW143784   8.787   4.010   3.916
10855SOL    HW243785   8.719   4.076   3.783
10856SOL     OW43786   9.319   7.495   0.835
10856SOL    HW143787   9.326   7.550   0.752
10856SOL    HW243788   9.227   7.458   0.843
10857SOL     OW43789   9.356   0.118   3.967
10857SOL    HW143790   9.373   0.048   4.037
10857SOL    HW243791   9.264   0.155   3.978
10858SOL     OW43792   7.776   0.758   3.183
10858SOL    HW143793   7.780   0.729   3.087
10858SOL    HW243794   7.824   0.692   3.240
10859SOL     OW43795   8.033   6.612   2.250
10859SOL    HW143796   8.004   6.610   2.155
10859SOL    HW243797   8.116   6.556   2.261
10860SOL     OW43798   0.772   8.991   6.234
10860SOL    HW143799   0.847   8.982   6.300
10860SOL    HW243800   0.803   9.044   6.155
10861SOL     OW43801   9.671   0.325   0.435
10861SOL    HW143802   9.758   0.291   0.471
10861SOL    HW243803   9.599   0.260   0.457
10862SOL     OW43804   7.105   0.638   4.877
10862SOL    HW143805   7.084   0.670   4.970
10862SOL    HW243806   7.107   0.539   4.876
10863SOL     OW43807   6.916   2.734   3.568
10863SOL    HW143808   6.999   2.787   3.585
10863SOL    HW243809   6.859   2.736   3.650
10864SOL     OW43810   3.032   0.609   1.437
10864SOL    HW143811   2.957   0.665   1.404
10864SOL    HW243812   2.996   0.532   1.490
10865SOL     OW43813   4.228   8.197   5.005
10865SOL    HW143814   4.242   8.268   4.936
10865SOL    HW243815   4.292   8.122   4.990
10866SOL     OW43816   2.440   3.062   2.619
10866SOL    HW143817   2.538   3.063   2.600
10866SOL    HW243818   2.423   3.009   2.702
10867SOL     OW43819   7.491   0.774   4.188
10867SOL    HW143820   7.568   0.814   4.238
10867SOL    HW243821   7.526   0.704   4.125
10868SOL     OW43822   6.474   2.342   5.664
10868SOL    HW143823   6.444   2.437   5.662
10868SOL    HW243824   6.574   2.338   5.671
10869SOL     OW43825   2.129   4.502   3.808
10869SOL    HW143826   2.142   4.562   3.887
10869SOL    HW243827   2.151   4.408   3.834
10870SOL     OW43828   6.008   0.752   5.690
10870SOL    HW143829   5.918   0.797   5.695
10870SOL    HW243830   6.066   0.787   5.764
10871SOL     OW43831   9.149   4.405   4.557
10871SOL    HW143832   9.216   4.431   4.487
10871SOL    HW243833   9.167   4.457   4.641
10872SOL     OW43834   2.781   1.600   0.910
10872SOL    HW143835   2.826   1.600   0.999
10872SOL    HW243836   2.773   1.506   0.877
10873SOL     OW43837   8.103   2.698   1.859
10873SOL    HW143838   8.013   2.653   1.855
10873SOL    HW243839   8.091   2.797   1.857
10874SOL     OW43840   6.304   0.968   4.379
10874SOL    HW143841   6.220   1.006   4.416
10874SOL    HW243842   6.352   1.037   4.325
10875SOL     OW43843   8.893   5.263   1.695
10875SOL    HW143844   8.841   5.345   1.717
10875SOL    HW243845   8.938   5.228   1.777
10876SOL     OW43846   2.664   3.975   0.044
10876SOL    HW143847   2.586   3.924   0.080
10876SOL    HW243848   2.730   3.991   0.116
10877SOL     OW43849   0.390   5.782   3.447
10877SOL    HW143850   0.451   5.852   3.485
10877SOL    HW243851   0.295   5.808   3.463
10878SOL     OW43852   9.645   5.777   1.036
10878SOL    HW143853   9.589   5.775   0.953
10878SOL    HW243854   9.699   5.693   1.042
10879SOL     OW43855   4.324   2.222   4.284
10879SOL    HW143856   4.392   2.296   4.283
10879SOL    HW243857   4.309   2.190   4.191
10880SOL     OW43858   4.961   8.210   5.325
10880SOL    HW143859   4.941   8.171   5.415
10880SOL    HW243860   4.964   8.137   5.257
10881SOL     OW43861   9.798   4.745   5.231
10881SOL    HW143862   9.793   4.786   5.140
10881SOL    HW243863   9.845   4.807   5.294
10882SOL     OW43864   7.535   3.373   3.865
10882SOL    HW143865   7.590   3.437   3.919
10882SOL    HW243866   7.453   3.420   3.832
10883SOL     OW43867   6.683   7.085   5.647
10883SOL    HW143868   6.671   7.009   5.583
10883SOL    HW243869   6.780   7.096   5.668
10884SOL     OW43870   9.840   2.408   1.611
10884SOL    HW143871   9.778   2.379   1.539
10884SOL    HW243872   9.935   2.400   1.579
10885SOL     OW43873   2.483   2.529   5.863
10885SOL    HW143874   2.514   2.480   5.782
10885SOL    HW243875   2.563   2.564   5.913
10886SOL     OW43876   3.700   4.903   5.691
10886SOL    HW143877   3.693   4.994   5.651
10886SOL    HW243878   3.764   4.847   5.637
10887SOL     OW43879   2.791   4.527   2.196
10887SOL    HW143880   2.712   4.532   2.258
10887SOL    HW243881   2.796   4.611   2.142
10888SOL     OW43882   1.299   9.973   3.765
10888SOL    HW143883   1.221   9.912   3.779
10888SOL    HW243884   1.297   0.045   3.834
10889SOL     OW43885   8.827   9.670   0.113
10889SOL    HW143886   8.835   9.571   0.104
10889SOL    HW243887   8.731   9.695   0.126
10890SOL     OW43888   1.888   4.711   0.480
10890SOL    HW143889   1.924   4.742   0.568
10890SOL    HW243890   1.891   4.611   0.476
10891SOL     OW43891   9.591   2.602   3.186
10891SOL    HW143892   9.651   2.639   3.115
10891SOL    HW243893   9.497   2.602   3.153
10892SOL     OW43894   5.987   9.216   2.768
10892SOL    HW143895   6.087   9.222   2.768
10892SOL    HW243896   5.955   9.179   2.856
10893SOL     OW43897   5.863   7.311   3.189
10893SOL    HW143898   5.955   7.313   3.229
10893SOL    HW243899   5.795   7.332   3.260
10894SOL     OW43900   7.981   4.461   1.599
10894SOL    HW143901   7.905   4.463   1.534
10894SOL    HW243902   7.998   4.367   1.628
10895SOL     OW43903   9.493   1.234   2.457
10895SOL    HW143904   9.590   1.215   2.444
10895SOL    HW243905   9.481   1.297   2.534
10896SOL     OW43906   5.016   7.699   4.263
10896SOL    HW143907   5.101   7.749   4.279
10896SOL    HW243908   4.978   7.668   4.350
10897SOL     OW43909   3.087   4.484   1.665
10897SOL    HW143910   3.072   4.576   1.629
10897SOL    HW243911   3.165   4.485   1.728
10898SOL     OW43912   5.212   1.283   1.583
10898SOL    HW143913   5.164   1.292   1.495
10898SOL    HW243914   5.266   1.200   1.583
10899SOL     OW43915   6.342   1.339   4.892
10899SOL    HW143916   6.246   1.363   4.906
10899SOL    HW243917   6.363   1.255   4.942
10900SOL     OW43918   2.776   4.783   2.074
10900SOL    HW143919   2.817   4.806   1.986
10900SOL    HW243920   2.784   4.862   2.136
10901SOL     OW43921   7.283   0.444   2.803
10901SOL    HW143922   7.264   0.507   2.879
10901SOL    HW243923   7.278   0.494   2.717
10902SOL     OW43924   9.319   3.984   3.339
10902SOL    HW143925   9.400   3.976   3.396
10902SOL    HW243926   9.252   4.042   3.385
10903SOL     OW43927   4.386   2.012   5.661
10903SOL    HW143928   4.339   1.926   5.680
10903SOL    HW243929   4.416   2.053   5.747
10904SOL     OW43930   2.960   6.699   6.186
10904SOL    HW143931   2.866   6.690   6.219
10904SOL    HW243932   2.991   6.793   6.199
10905SOL     OW43933   3.027   2.038   2.048
10905SOL    HW143934   2.961   2.097   2.095
10905SOL    HW243935   2.995   2.018   1.956
10906SOL     OW43936   8.448   6.056   5.137
10906SOL    HW143937   8.547   6.058   5.117
10906SOL    HW243938   8.434   6.028   5.231
10907SOL     OW43939   5.395   8.117   5.477
10907SOL    HW143940   5.321   8.184   5.470
10907SOL    HW243941   5.481   8.165   5.495
10908SOL     OW43942   0.582   7.014   3.870
10908SOL    HW143943   0.644   6.939   3.850
10908SOL    HW243944   0.488   6.985   3.853
10909SOL     OW43945   0.220   7.449   5.681
10909SOL    HW143946   0.161   7.368   5.683
10909SOL    HW243947   0.220   7.487   5.588
10910SOL     OW43948   4.210   2.104   1.206
10910SOL    HW143949   4.257   2.029   1.159
10910SOL    HW243950   4.149   2.066   1.275
10911SOL     OW43951   3.287   8.408   3.967
10911SOL    HW143952   3.250   8.394   4.059
10911SOL    HW243953   3.219   8.378   3.900
10912SOL     OW43954   3.261   1.548   3.095
10912SOL    HW143955   3.266   1.647   3.099
10912SOL    HW243956   3.300   1.516   3.009
10913SOL     OW43957   9.115   8.627   5.614
10913SOL    HW143958   9.072   8.561   5.551
10913SOL    HW243959   9.045   8.690   5.648
10914SOL     OW43960   5.076   0.430   5.327
10914SOL    HW143961   5.155   0.434   5.267
10914SOL    HW243962   5.054   0.334   5.348
10915SOL     OW43963   9.111   5.549   1.787
10915SOL    HW143964   9.015   5.521   1.783
10915SOL    HW243965   9.119   5.630   1.846
10916SOL     OW43966   1.867   3.351   1.353
10916SOL    HW143967   1.817   3.379   1.271
10916SOL    HW243968   1.808   3.358   1.433
10917SOL     OW43969   0.504   8.241   1.842
10917SOL    HW143970   0.520   8.332   1.881
10917SOL    HW243971   0.566   8.227   1.765
10918SOL     OW43972   6.542   9.226   3.360
10918SOL    HW143973   6.577   9.133   3.352
10918SOL    HW243974   6.614   9.287   3.395
10919SOL     OW43975   7.699   2.944   3.976
10919SOL    HW143976   7.618   2.982   3.932
10919SOL    HW243977   7.775   3.009   3.969
10920SOL     OW43978   6.842   1.857   5.132
10920SOL    HW143979   6.890   1.804   5.202
10920SOL    HW243980   6.755   1.814   5.111
10921SOL     OW43981   7.684   0.984   2.131
10921SOL    HW143982   7.606   1.033   2.170
10921SOL    HW243983   7.769   1.029   2.157
10922SOL     OW43984   8.610   8.058   3.666
10922SOL    HW143985   8.567   7.983   3.716
10922SOL    HW243986   8.544   8.096   3.601
10923SOL     OW43987   2.776   8.899   5.261
10923SOL    HW143988   2.783   8.956   5.343
10923SOL    HW243989   2.778   8.957   5.179
10924SOL     OW43990   7.461   8.446   2.084
10924SOL    HW143991   7.424   8.458   2.177
10924SOL    HW243992   7.560   8.433   2.089
10925SOL     OW43993   0.405   0.487   1.539
10925SOL    HW143994   0.364   0.576   1.520
10925SOL    HW243995   0.448   0.488   1.629
10926SOL     OW43996   9.521   2.154   0.186
10926SOL    HW143997   9.509   2.055   0.180
10926SOL    HW243998   9.431   2.198   0.191
10927SOL     OW43999   4.539   6.739   1.738
10927SOL    HW144000   4.569   6.650   1.773
10927SOL    HW244001   4.443   6.733   1.710
10928SOL     OW44002   2.934   8.587   1.271
10928SOL    HW144003   2.847   8.620   1.309
10928SOL    HW244004   2.915   8.516   1.203
10929SOL     OW44005   8.589   8.722   5.273
10929SOL    HW144006   8.531   8.684   5.345
10929SOL    HW244007   8.560   8.686   5.185
10930SOL     OW44008   5.998   9.638   2.189
10930SOL    HW144009   6.057   9.557   2.191
10930SOL    HW244010   6.042   9.712   2.239
10931SOL     OW44011   8.690   1.662   1.358
10931SOL    HW144012   8.776   1.676   1.407
10931SOL    HW244013   8.682   1.566   1.332
10932SOL     OW44014   1.708   4.377   2.542
10932SOL    HW144015   1.767   4.311   2.494
10932SOL    HW244016   1.658   4.330   2.615
10933SOL     OW44017   3.762   4.751   0.531
10933SOL    HW144018   3.860   4.771   0.531
10933SOL    HW244019   3.730   4.748   0.436
10934SOL     OW44020   6.020   0.187   1.820
10934SOL    HW144021   6.055   0.239   1.742
10934SOL    HW244022   5.983   0.251   1.888
10935SOL     OW44023   3.032   9.347   4.505
10935SOL    HW144024   2.972   9.405   4.450
10935SOL    HW244025   3.052   9.262   4.456
10936SOL     OW44026   3.204   5.121   6.409
10936SOL    HW144027   3.195   5.102   6.507
10936SOL    HW244028   3.275   5.190   6.395
10937SOL     OW44029   0.818   6.134   2.810
10937SOL    HW144030   0.739   6.096   2.763
10937SOL    HW244031   0.788   6.190   2.887
10938SOL     OW44032   5.400   8.185   2.765
10938SOL    HW144033   5.391   8.119   2.690
10938SOL    HW244034   5.332   8.165   2.835
10939SOL     OW44035   2.256   4.507   2.649
10939SOL    HW144036   2.171   4.477   2.606
10939SOL    HW244037   2.298   4.579   2.594
10940SOL     OW44038   0.187   7.836   6.004
10940SOL    HW144039   0.153   7.756   5.954
10940SOL    HW244040   0.244   7.805   6.080
10941SOL     OW44041   7.632   8.680   3.458
10941SOL    HW144042   7.730   8.668   3.472
10941SOL    HW244043   7.582   8.626   3.525
10942SOL     OW44044   5.123   8.100   2.461
10942SOL    HW144045   5.079   8.190   2.471
10942SOL    HW244046   5.066   8.042   2.403
10943SOL     OW44047   9.111   7.369   0.344
10943SOL    HW144048   9.115   7.304   0.421
10943SOL    HW244049   9.147   7.325   0.262
10944SOL     OW44050   3.380   4.524   0.422
10944SOL    HW144051   3.324   4.464   0.365
10944SOL    HW244052   3.423   4.471   0.495
10945SOL     OW44053   3.962   0.248   2.967
10945SOL    HW144054   3.912   0.331   2.942
10945SOL    HW244055   3.901   0.187   3.018
10946SOL     OW44056   0.400   0.088   5.536
10946SOL    HW144057   0.378   0.121   5.444
10946SOL    HW244058   0.316   0.083   5.591
10947SOL     OW44059   2.054   4.765   1.685
10947SOL    HW144060   2.074   4.863   1.677
10947SOL    HW244061   1.957   4.749   1.667
10948SOL     OW44062   8.314   7.044   4.814
10948SOL    HW144063   8.302   6.945   4.824
10948SOL    HW244064   8.298   7.070   4.719
10949SOL     OW44065   1.297   2.648   1.662
10949SOL    HW144066   1.299   2.642   1.762
10949SOL    HW244067   1.389   2.641   1.626
10950SOL     OW44068   8.866   3.078   0.816
10950SOL    HW144069   8.913   3.153   0.770
10950SOL    HW244070   8.786   3.113   0.864
10951SOL     OW44071   6.024   1.490   5.488
10951SOL    HW144072   5.984   1.581   5.499
10951SOL    HW244073   6.112   1.486   5.536
10952SOL     OW44074   7.111   0.336   4.495
10952SOL    HW144075   7.190   0.378   4.450
10952SOL    HW244076   7.061   0.405   4.547
10953SOL     OW44077   7.167   2.422   0.371
10953SOL    HW144078   7.125   2.332   0.366
10953SOL    HW244079   7.152   2.470   0.285
10954SOL     OW44080   4.129   3.964   0.919
10954SOL    HW144081   4.205   3.902   0.902
10954SOL    HW244082   4.154   4.057   0.894
10955SOL     OW44083   5.662   0.605   5.811
10955SOL    HW144084   5.713   0.629   5.894
10955SOL    HW244085   5.693   0.515   5.778
10956SOL     OW44086   9.660   9.958   4.204
10956SOL    HW144087   9.701   9.961   4.112
10956SOL    HW244088   9.733   9.948   4.272
10957SOL     OW44089   5.331   7.958   3.120
10957SOL    HW144090   5.301   7.867   3.148
10957SOL    HW244091   5.418   7.952   3.072
10958SOL     OW44092   8.140   3.921   3.121
10958SOL    HW144093   8.071   3.850   3.117
10958SOL    HW244094   8.210   3.904   3.052
10959SOL     OW44095   8.691   1.316   2.956
10959SOL    HW144096   8.665   1.219   2.959
10959SOL    HW244097   8.697   1.352   3.048
10960SOL     OW44098   2.231   4.623   5.536
10960SOL    HW144099   2.203   4.563   5.462
10960SOL    HW244100   2.329   4.612   5.553
10961SOL     OW44101   2.899   7.981   5.711
10961SOL    HW144102   2.967   7.974   5.784
10961SOL    HW244103   2.842   8.062   5.726
10962SOL     OW44104   8.316   8.181   3.785
10962SOL    HW144105   8.347   8.165   3.692
10962SOL    HW244106   8.249   8.111   3.810
10963SOL     OW44107   9.107   2.427   1.661
10963SOL    HW144108   9.155   2.399   1.578
10963SOL    HW244109   9.022   2.474   1.637
10964SOL     OW44110   1.758   2.018   1.146
10964SOL    HW144111   1.741   1.940   1.085
10964SOL    HW244112   1.670   2.055   1.176
10965SOL     OW44113   8.308   3.614   1.785
10965SOL    HW144114   8.313   3.587   1.881
10965SOL    HW244115   8.348   3.543   1.727
10966SOL     OW44116   2.352   5.655   5.753
10966SOL    HW144117   2.268   5.603   5.737
10966SOL    HW244118   2.398   5.618   5.834
10967SOL     OW44119   6.622   5.037   1.318
10967SOL    HW144120   6.609   4.980   1.399
10967SOL    HW244121   6.664   5.124   1.345
10968SOL     OW44122   2.190   7.820   2.948
10968SOL    HW144123   2.164   7.728   2.917
10968SOL    HW244124   2.202   7.819   3.047
10969SOL     OW44125   4.919   9.562   3.572
10969SOL    HW144126   5.006   9.607   3.593
10969SOL    HW244127   4.928   9.510   3.488
10970SOL     OW44128   4.175   2.373   2.352
10970SOL    HW144129   4.095   2.312   2.353
10970SOL    HW244130   4.246   2.335   2.411
10971SOL     OW44131   6.640   0.708   1.943
10971SOL    HW144132   6.544   0.713   1.970
10971SOL    HW244133   6.687   0.639   1.998
10972SOL     OW44134   4.873   7.449   5.748
10972SOL    HW144135   4.844   7.376   5.809
10972SOL    HW244136   4.817   7.530   5.764
10973SOL     OW44137   6.323   5.669   0.505
10973SOL    HW144138   6.265   5.750   0.519
10973SOL    HW244139   6.388   5.660   0.580
10974SOL     OW44140   3.157   9.112   5.868
10974SOL    HW144141   3.231   9.154   5.921
10974SOL    HW244142   3.127   9.028   5.914
10975SOL     OW44143   4.400   1.825   3.674
10975SOL    HW144144   4.327   1.822   3.607
10975SOL    HW244145   4.457   1.743   3.665
10976SOL     OW44146   1.244   2.892   1.937
10976SOL    HW144147   1.291   2.804   1.939
10976SOL    HW244148   1.300   2.961   1.984
10977SOL     OW44149   2.847   8.074   3.620
10977SOL    HW144150   2.818   8.013   3.546
10977SOL    HW244151   2.848   8.168   3.588
10978SOL     OW44152   9.592   2.734   3.430
10978SOL    HW144153   9.593   2.690   3.340
10978SOL    HW244154   9.506   2.711   3.476
10979SOL     OW44155   3.399   3.438   5.625
10979SOL    HW144156   3.479   3.462   5.680
10979SOL    HW244157   3.346   3.520   5.604
10980SOL     OW44158   3.117   0.901   1.728
10980SOL    HW144159   3.081   0.966   1.660
10980SOL    HW244160   3.157   0.822   1.680
10981SOL     OW44161   9.632   3.531   5.862
10981SOL    HW144162   9.613   3.629   5.869
10981SOL    HW244163   9.667   3.511   5.770
10982SOL     OW44164   2.656   5.983   0.083
10982SOL    HW144165   2.654   5.971   8.172
10982SOL    HW244166   2.623   6.074   0.107
10983SOL     OW44167   9.171   8.668   2.768
10983SOL    HW144168   9.161   8.575   2.731
10983SOL    HW244169   9.179   8.733   2.692
10984SOL     OW44170   1.005   4.864   3.140
10984SOL    HW144171   1.068   4.878   3.064
10984SOL    HW244172   1.023   4.932   3.211
10985SOL     OW44173   1.052   0.632   1.192
10985SOL    HW144174   0.968   0.633   1.136
10985SOL    HW244175   1.121   0.574   1.147
10986SOL     OW44176   4.093   8.212   3.503
10986SOL    HW144177   4.135   8.153   3.435
10986SOL    HW244178   4.020   8.163   3.550
10987SOL     OW44179   6.891   5.137   0.726
10987SOL    HW144180   6.808   5.119   0.778
10987SOL    HW244181   6.964   5.164   0.788
10988SOL     OW44182   9.333   3.919   6.004
10988SOL    HW144183   9.251   3.865   6.025
10988SOL    HW244184   9.332   3.946   5.908
10989SOL     OW44185   4.151   0.985   1.253
10989SOL    HW144186   4.246   0.959   1.237
10989SOL    HW244187   4.114   0.933   1.330
10990SOL     OW44188   1.846   8.371   4.383
10990SOL    HW144189   1.829   8.468   4.402
10990SOL    HW244190   1.778   8.316   4.432
10991SOL     OW44191   4.931   1.037   0.692
10991SOL    HW144192   4.874   1.003   0.617
10991SOL    HW244193   4.961   1.130   0.671
10992SOL     OW44194   7.482   9.654   6.147
10992SOL    HW144195   7.436   9.593   6.211
10992SOL    HW244196   7.506   9.739   6.193
10993SOL     OW44197   3.038   2.404   1.803
10993SOL    HW144198   3.054   2.465   1.880
10993SOL    HW244199   3.120   2.351   1.785
10994SOL     OW44200   8.870   4.568   4.805
10994SOL    HW144201   8.902   4.612   4.889
10994SOL    HW244202   8.880   4.469   4.814
10995SOL     OW44203   3.959   7.579   2.410
10995SOL    HW144204   3.960   7.479   2.410
10995SOL    HW244205   3.865   7.612   2.419
10996SOL     OW44206   2.618   8.585   6.377
10996SOL    HW144207   2.520   8.595   6.392
10996SOL    HW244208   2.634   8.524   6.299
10997SOL     OW44209   7.491   4.326   0.198
10997SOL    HW144210   7.576   4.283   0.230
10997SOL    HW244211   7.514   4.398   0.132
10998SOL     OW44212   8.622   2.266   4.554
10998SOL    HW144213   8.560   2.188   4.556
10998SOL    HW244214   8.608   2.322   4.636
10999SOL     OW44215   2.179   8.871   4.609
10999SOL    HW144216   2.114   8.890   4.536
10999SOL    HW244217   2.159   8.929   4.688
11000SOL     OW44218   5.112   1.292   1.321
11000SOL    HW144219   5.148   1.213   1.270
11000SOL    HW244220   5.014   1.301   1.305
11001SOL     OW44221   0.241   5.928   3.949
11001SOL    HW144222   0.232   5.838   3.905
11001SOL    HW244223   0.308   5.983   3.899
11002SOL     OW44224   1.504   9.375   0.144
11002SOL    HW144225   1.535   9.434   0.218
11002SOL    HW244226   1.571   9.301   0.131
11003SOL     OW44227   6.973   9.420   5.767
11003SOL    HW144228   7.031   9.340   5.781
11003SOL    HW244229   6.879   9.391   5.751
11004SOL     OW44230   3.645   2.481   5.203
11004SOL    HW144231   3.650   2.408   5.136
11004SOL    HW244232   3.608   2.445   5.289
11005SOL     OW44233   1.025   6.601   5.307
11005SOL    HW144234   1.075   6.514   5.309
11005SOL    HW244235   0.928   6.584   5.320
11006SOL     OW44236   7.105   0.169   0.437
11006SOL    HW144237   7.139   0.184   0.344
11006SOL    HW244238   7.105   0.071   0.457
11007SOL     OW44239   8.543   1.175   6.297
11007SOL    HW144240   8.479   1.135   6.232
11007SOL    HW244241   8.514   1.268   6.319
11008SOL     OW44242   7.740   8.438   4.478
11008SOL    HW144243   7.667   8.370   4.491
11008SOL    HW244244   7.826   8.401   4.513
11009SOL     OW44245   9.940   9.662   6.427
11009SOL    HW144246   9.873   9.720   6.472
11009SOL    HW244247   9.967   9.587   6.488
11010SOL     OW44248   8.305   1.530   5.364
11010SOL    HW144249   8.295   1.440   5.406
11010SOL    HW244250   8.224   1.552   5.310
11011SOL     OW44251   6.018   2.371   0.472
11011SOL    HW144252   6.045   2.435   0.544
11011SOL    HW244253   5.922   2.388   0.447
11012SOL     OW44254   9.949   4.485   2.264
11012SOL    HW144255   0.009   4.565   2.253
11012SOL    HW244256   9.987   4.407   2.215
11013SOL     OW44257   8.379   3.879   2.270
11013SOL    HW144258   8.351   3.907   2.178
11013SOL    HW244259   8.302   3.835   2.316
11014SOL     OW44260   1.654   6.312   3.196
11014SOL    HW144261   1.638   6.232   3.253
11014SOL    HW244262   1.747   6.346   3.211
11015SOL     OW44263   9.684   6.818   2.392
11015SOL    HW144264   9.589   6.845   2.408
11015SOL    HW244265   9.717   6.766   2.471
11016SOL     OW44266   4.793   1.898   2.063
11016SOL    HW144267   4.759   1.971   2.004
11016SOL    HW244268   4.730   1.820   2.059
11017SOL     OW44269   8.757   6.173   0.759
11017SOL    HW144270   8.840   6.160   0.705
11017SOL    HW244271   8.782   6.203   0.851
11018SOL     OW44272   9.831   6.959   1.075
11018SOL    HW144273   9.832   6.860   1.091
11018SOL    HW244274   9.780   6.979   0.991
11019SOL     OW44275   3.870   9.269   3.174
11019SOL    HW144276   3.924   9.344   3.136
11019SOL    HW244277   3.908   9.243   3.263
11020SOL     OW44278   6.366   0.519   5.125
11020SOL    HW144279   6.453   0.553   5.089
11020SOL    HW244280   6.381   0.476   5.214
11021SOL     OW44281   9.447   8.227   1.986
11021SOL    HW144282   9.516   8.271   1.928
11021SOL    HW244283   9.484   8.142   2.024
11022SOL     OW44284   4.925   8.590   3.113
11022SOL    HW144285   5.016   8.589   3.154
11022SOL    HW244286   4.921   8.661   3.042
11023SOL     OW44287   2.739   2.514   4.612
11023SOL    HW144288   2.753   2.579   4.686
11023SOL    HW244289   2.729   2.564   4.525
11024SOL     OW44290   0.253   6.832   0.515
11024SOL    HW144291   0.324   6.888   0.557
11024SOL    HW244292   0.284   6.737   0.511
11025SOL     OW44293   3.000   5.328   2.074
11025SOL    HW144294   2.971   5.396   2.141
11025SOL    HW244295   2.931   5.256   2.066
11026SOL     OW44296   2.531   1.368   1.296
11026SOL    HW144297   2.543   1.270   1.313
11026SOL    HW244298   2.572   1.420   1.371
11027SOL     OW44299   9.009   6.384   3.633
11027SOL    HW144300   8.953   6.380   3.716
11027SOL    HW244301   9.100   6.347   3.653
11028SOL     OW44302   1.237   0.939   1.546
11028SOL    HW144303   1.308   1.009   1.540
11028SOL    HW244304   1.190   0.931   1.458
11029SOL     OW44305   4.953   8.973   5.020
11029SOL    HW144306   4.883   9.044   5.014
11029SOL    HW244307   4.916   8.886   4.988
11030SOL     OW44308   1.731   9.379   5.647
11030SOL    HW144309   1.669   9.455   5.625
11030SOL    HW244310   1.733   9.366   5.746
11031SOL     OW44311   2.318   9.949   5.290
11031SOL    HW144312   2.371   9.874   5.329
11031SOL    HW244313   2.228   9.915   5.262
11032SOL     OW44314   3.253   4.157   4.323
11032SOL    HW144315   3.241   4.155   4.422
11032SOL    HW244316   3.350   4.167   4.301
11033SOL     OW44317   4.129   4.103   4.839
11033SOL    HW144318   4.196   4.057   4.780
11033SOL    HW244319   4.054   4.041   4.860
11034SOL     OW44320   6.971   5.882   0.451
11034SOL    HW144321   6.996   5.794   0.412
11034SOL    HW244322   7.053   5.930   0.481
11035SOL     OW44323   3.986   8.973   3.967
11035SOL    HW144324   3.915   8.955   3.900
11035SOL    HW244325   4.062   9.023   3.924
11036SOL     OW44326   7.059   2.712   3.052
11036SOL    HW144327   7.076   2.643   3.123
11036SOL    HW244328   7.131   2.708   2.983
11037SOL     OW44329   9.060   8.636   1.313
11037SOL    HW144330   9.084   8.733   1.307
11037SOL    HW244331   8.989   8.622   1.382
11038SOL     OW44332   2.891   4.262   4.108
11038SOL    HW144333   2.796   4.275   4.078
11038SOL    HW244334   2.923   4.346   4.152
11039SOL     OW44335   4.503   4.808   5.936
11039SOL    HW144336   4.404   4.801   5.922
11039SOL    HW244337   4.551   4.786   5.851
11040SOL     OW44338   6.685   8.332   3.943
11040SOL    HW144339   6.633   8.416   3.960
11040SOL    HW244340   6.725   8.300   4.029
11041SOL     OW44341   2.688   4.505   4.288
11041SOL    HW144342   2.769   4.540   4.335
11041SOL    HW244343   2.673   4.409   4.314
11042SOL     OW44344   0.195   7.563   1.443
11042SOL    HW144345   0.154   7.604   1.525
11042SOL    HW244346   0.187   7.463   1.448
11043SOL     OW44347   4.281   4.014   0.608
11043SOL    HW144348   4.351   3.993   0.540
11043SOL    HW244349   4.213   3.941   0.610
11044SOL     OW44350   2.807   2.531   5.343
11044SOL    HW144351   2.846   2.441   5.362
11044SOL    HW244352   2.732   2.548   5.407
11045SOL     OW44353   4.172   5.450   2.999
11045SOL    HW144354   4.267   5.419   2.999
11045SOL    HW244355   4.114   5.381   3.041
11046SOL     OW44356   3.062   1.788   5.435
11046SOL    HW144357   3.100   1.766   5.346
11046SOL    HW244358   2.971   1.749   5.443
11047SOL     OW44359   1.615   5.154   4.423
11047SOL    HW144360   1.601   5.106   4.336
11047SOL    HW244361   1.566   5.108   4.496
11048SOL     OW44362   0.479   0.772   5.921
11048SOL    HW144363   0.526   0.684   5.914
11048SOL    HW244364   0.544   0.842   5.952
11049SOL     OW44365   3.775   5.005   4.366
11049SOL    HW144366   3.720   4.932   4.405
11049SOL    HW244367   3.789   5.077   4.434
11050SOL     OW44368   3.631   9.759   5.159
11050SOL    HW144369   3.684   9.816   5.097
11050SOL    HW244370   3.647   9.788   5.253
11051SOL     OW44371   6.488   7.365   6.128
11051SOL    HW144372   6.391   7.385   6.140
11051SOL    HW244373   6.543   7.438   6.168
11052SOL     OW44374   8.972   1.620   2.706
11052SOL    HW144375   8.957   1.536   2.758
11052SOL    HW244376   9.065   1.653   2.723
11053SOL     OW44377   9.071   4.338   1.141
11053SOL    HW144378   8.980   4.369   1.168
11053SOL    HW244379   9.063   4.256   1.085
11054SOL     OW44380   0.249   6.754   6.216
11054SOL    HW144381   0.209   6.835   6.261
11054SOL    HW244382   0.338   6.778   6.178
11055SOL     OW44383   8.037   6.687   1.100
11055SOL    HW144384   8.114   6.724   1.048
11055SOL    HW244385   7.957   6.744   1.087
11056SOL     OW44386   9.525   6.690   5.333
11056SOL    HW144387   9.582   6.715   5.411
11056SOL    HW244388   9.572   6.620   5.279
11057SOL     OW44389   7.780   1.438   0.660
11057SOL    HW144390   7.762   1.433   0.758
11057SOL    HW244391   7.872   1.404   0.641
11058SOL     OW44392   3.361   6.400   1.611
11058SOL    HW144393   3.287   6.424   1.547
11058SOL    HW244394   3.438   6.462   1.596
11059SOL     OW44395   9.545   0.996   1.775
11059SOL    HW144396   9.445   0.994   1.772
11059SOL    HW244397   9.581   0.908   1.744
11060SOL     OW44398   7.412   8.110   4.249
11060SOL    HW144399   7.491   8.052   4.229
11060SOL    HW244400   7.398   8.174   4.173
11061SOL     OW44401   3.279   3.261   1.356
11061SOL    HW144402   3.281   3.300   1.264
11061SOL    HW244403   3.343   3.310   1.415
11062SOL     OW44404   9.255   8.427   1.868
11062SOL    HW144405   9.308   8.441   1.784
11062SOL    HW244406   9.313   8.383   1.937
11063SOL     OW44407   3.803   4.800   2.975
11063SOL    HW144408   3.774   4.864   2.904
11063SOL    HW244409   3.722   4.760   3.019
11064SOL     OW44410   4.748   8.384   2.680
11064SOL    HW144411   4.847   8.394   2.684
11064SOL    HW244412   4.707   8.413   2.766
11065SOL     OW44413   2.116   7.192   1.317
11065SOL    HW144414   2.066   7.188   1.404
11065SOL    HW244415   2.067   7.138   1.248
11066SOL     OW44416   4.030   9.986   3.935
11066SOL    HW144417   4.112   9.959   3.985
11066SOL    HW244418   4.047   9.977   3.837
11067SOL     OW44419   1.187   9.640   5.959
11067SOL    HW144420   1.252   9.630   6.034
11067SOL    HW244421   1.230   9.614   5.873
11068SOL     OW44422   1.648   7.705   3.838
11068SOL    HW144423   1.678   7.663   3.752
11068SOL    HW244424   1.664   7.642   3.914
11069SOL     OW44425   4.021   9.726   6.157
11069SOL    HW144426   4.095   9.788   6.183
11069SOL    HW244427   3.935   9.776   6.150
11070SOL     OW44428   6.867   7.805   4.757
11070SOL    HW144429   6.952   7.848   4.789
11070SOL    HW244430   6.884   7.759   4.670
11071SOL     OW44431   8.760   9.022   4.015
11071SOL    HW144432   8.807   9.039   4.102
11071SOL    HW244433   8.715   9.106   3.985
11072SOL     OW44434   3.279   3.452   4.592
11072SOL    HW144435   3.247   3.378   4.534
11072SOL    HW244436   3.226   3.452   4.677
11073SOL     OW44437   8.505   2.129   0.790
11073SOL    HW144438   8.518   2.048   0.733
11073SOL    HW244439   8.532   2.211   0.739
11074SOL     OW44440   8.855   4.868   1.363
11074SOL    HW144441   8.930   4.899   1.305
11074SOL    HW244442   8.824   4.943   1.421
11075SOL     OW44443   5.359   9.860   5.292
11075SOL    HW144444   5.452   9.835   5.318
11075SOL    HW244445   5.334   9.810   5.209
11076SOL     OW44446   4.934   1.771   5.243
11076SOL    HW144447   4.976   1.687   5.209
11076SOL    HW244448   4.855   1.748   5.301
11077SOL     OW44449   9.050   5.802   4.390
11077SOL    HW144450   9.077   5.834   4.481
11077SOL    HW244451   9.124   5.822   4.325
11078SOL     OW44452   6.693   0.709   4.513
11078SOL    HW144453   6.727   0.621   4.545
11078SOL    HW244454   6.750   0.741   4.437
11079SOL     OW44455   7.579   2.631   6.475
11079SOL    HW144456   7.544   2.683   6.397
11079SOL    HW244457   7.635   2.690   6.532
11080SOL     OW44458   8.405   6.709   3.387
11080SOL    HW144459   8.437   6.643   3.319
11080SOL    HW244460   8.333   6.668   3.442
11081SOL     OW44461   9.384   1.492   1.502
11081SOL    HW144462   9.401   1.435   1.582
11081SOL    HW244463   9.360   1.585   1.531
11082SOL     OW44464   3.839   0.817   1.208
11082SOL    HW144465   3.881   0.886   1.149
11082SOL    HW244466   3.900   0.738   1.214
11083SOL     OW44467   8.484   6.647   2.645
11083SOL    HW144468   8.543   6.627   2.567
11083SOL    HW244469   8.508   6.736   2.684
11084SOL     OW44470   7.974   6.291   5.708
11084SOL    HW144471   7.985   6.339   5.621
11084SOL    HW244472   8.064   6.267   5.744
11085SOL     OW44473   8.724   2.351   3.261
11085SOL    HW144474   8.723   2.267   3.207
11085SOL    HW244475   8.713   2.329   3.358
11086SOL     OW44476   3.686   5.724   0.214
11086SOL    HW144477   3.732   5.656   0.272
11086SOL    HW244478   3.632   5.677   0.144
11087SOL     OW44479   4.338   6.863   2.674
11087SOL    HW144480   4.383   6.850   2.762
11087SOL    HW244481   4.395   6.922   2.616
11088SOL     OW44482   8.417   7.044   1.893
11088SOL    HW144483   8.437   6.993   1.977
11088SOL    HW244484   8.319   7.064   1.889
11089SOL     OW44485   0.519   7.071   3.306
11089SOL    HW144486   0.465   7.006   3.252
11089SOL    HW244487   0.514   7.162   3.265
11090SOL     OW44488   1.788   8.850   2.722
11090SOL    HW144489   1.700   8.812   2.749
11090SOL    HW244490   1.850   8.850   2.800
11091SOL     OW44491   7.994   6.746   6.025
11091SOL    HW144492   7.954   6.744   5.933
11091SOL    HW244493   7.967   6.830   6.072
11092SOL     OW44494   9.630   7.270   0.401
11092SOL    HW144495   9.607   7.228   0.313
11092SOL    HW244496   9.550   7.269   0.461
11093SOL     OW44497   7.318   3.891   5.807
11093SOL    HW144498   7.288   3.929   5.720
11093SOL    HW244499   7.410   3.925   5.829
11094SOL     OW44500   3.420   5.290   0.976
11094SOL    HW144501   3.443   5.350   1.052
11094SOL    HW244502   3.438   5.337   0.890
11095SOL     OW44503   2.436   2.174   3.288
11095SOL    HW144504   2.394   2.143   3.202
11095SOL    HW244505   2.372   2.234   3.336
11096SOL     OW44506   6.853   2.493   0.612
11096SOL    HW144507   6.945   2.523   0.641
11096SOL    HW244508   6.795   2.573   0.601
11097SOL     OW44509   4.033   2.654   4.267
11097SOL    HW144510   3.992   2.648   4.175
11097SOL    HW244511   4.064   2.563   4.295
11098SOL     OW44512   9.962   7.648   4.019
11098SOL    HW144513   9.969   7.643   3.920
11098SOL    HW244514   0.030   7.713   4.054
11099SOL     OW44515   0.453   7.697   0.882
11099SOL    HW144516   0.357   7.689   0.908
11099SOL    HW244517   0.462   7.687   0.782
11100SOL     OW44518   1.641   3.424   2.302
11100SOL    HW144519   1.638   3.507   2.245
11100SOL    HW244520   1.734   3.389   2.305
11101SOL     OW44521   1.026   2.262   1.011
11101SOL    HW144522   0.950   2.285   0.950
11101SOL    HW244523   1.011   2.304   1.100
11102SOL     OW44524   9.864   9.970   4.377
11102SOL    HW144525   9.905   0.061   4.366
11102SOL    HW244526   9.879   9.938   4.470
11103SOL     OW44527   0.699   0.237   1.205
11103SOL    HW144528   0.683   0.300   1.281
11103SOL    HW244529   0.694   0.143   1.239
11104SOL     OW44530   1.526   4.797   5.321
11104SOL    HW144531   1.477   4.847   5.393
11104SOL    HW244532   1.543   4.858   5.244
11105SOL     OW44533   0.390   8.204   0.262
11105SOL    HW144534   0.321   8.131   0.262
11105SOL    HW244535   0.369   8.270   0.190
11106SOL     OW44536   1.611   7.636   1.960
11106SOL    HW144537   1.614   7.603   1.865
11106SOL    HW244538   1.600   7.558   2.021
11107SOL     OW44539   2.232   0.803   0.293
11107SOL    HW144540   2.274   0.839   0.210
11107SOL    HW244541   2.157   0.741   0.268
11108SOL     OW44542   9.654   0.737   5.425
11108SOL    HW144543   9.607   0.708   5.342
11108SOL    HW244544   9.740   0.687   5.434
11109SOL     OW44545   9.696   0.624   4.693
11109SOL    HW144546   9.790   0.656   4.705
11109SOL    HW244547   9.685   0.536   4.740
11110SOL     OW44548   2.971   4.385   3.203
11110SOL    HW144549   2.988   4.286   3.204
11110SOL    HW244550   3.005   4.425   3.289
11111SOL     OW44551   3.216   9.718   4.777
11111SOL    HW144552   3.152   9.701   4.701
11111SOL    HW244553   3.281   9.789   4.750
11112SOL     OW44554   6.421   9.268   4.554
11112SOL    HW144555   6.339   9.225   4.591
11112SOL    HW244556   6.462   9.208   4.486
11113SOL     OW44557   9.857   1.710   4.176
11113SOL    HW144558   9.904   1.669   4.098
11113SOL    HW244559   9.759   1.693   4.169
11114SOL     OW44560   3.884   0.007   0.552
11114SOL    HW144561   3.968   9.961   0.525
11114SOL    HW244562   3.888   0.104   0.524
11115SOL     OW44563   4.094   3.159   2.473
11115SOL    HW144564   4.014   3.197   2.519
11115SOL    HW244565   4.118   3.071   2.515
11116SOL     OW44566   7.295   7.158   5.053
11116SOL    HW144567   7.385   7.189   5.085
11116SOL    HW244568   7.305   7.070   5.007
11117SOL     OW44569   2.496   6.655   5.882
11117SOL    HW144570   2.428   6.700   5.823
11117SOL    HW244571   2.529   6.572   5.837
11118SOL     OW44572   4.118   9.937   3.087
11118SOL    HW144573   4.026   9.968   3.063
11118SOL    HW244574   4.156   9.997   3.157
11119SOL     OW44575   7.309   4.805   0.091
11119SOL    HW144576   7.363   4.820   0.009
11119SOL    HW244577   7.271   4.712   0.090
11120SOL     OW44578   8.781   5.499   6.085
11120SOL    HW144579   8.729   5.566   6.137
11120SOL    HW244580   8.770   5.516   5.987
11121SOL     OW44581   4.499   7.999   1.512
11121SOL    HW144582   4.452   8.080   1.478
11121SOL    HW244583   4.445   7.918   1.490
11122SOL     OW44584   1.686   5.468   1.252
11122SOL    HW144585   1.742   5.396   1.214
11122SOL    HW244586   1.743   5.530   1.306
11123SOL     OW44587   9.603   7.334   2.563
11123SOL    HW144588   9.646   7.355   2.650
11123SOL    HW244589   9.505   7.354   2.569
11124SOL     OW44590   0.725   5.802   3.179
11124SOL    HW144591   0.771   5.764   3.259
11124SOL    HW244592   0.684   5.727   3.126
11125SOL     OW44593   1.862   7.321   3.915
11125SOL    HW144594   1.931   7.370   3.860
11125SOL    HW244595   1.801   7.387   3.958
11126SOL     OW44596   5.600   7.333   5.978
11126SOL    HW144597   5.524   7.322   6.042
11126SOL    HW244598   5.576   7.401   5.909
11127SOL     OW44599   5.148   5.835   1.874
11127SOL    HW144600   5.201   5.772   1.817
11127SOL    HW244601   5.200   5.856   1.957
11128SOL     OW44602   9.110   9.369   2.612
11128SOL    HW144603   9.073   9.324   2.694
11128SOL    HW244604   9.107   9.468   2.625
11129SOL     OW44605   2.169   4.184   3.547
11129SOL    HW144606   2.188   4.279   3.522
11129SOL    HW244607   2.221   4.122   3.488
11130SOL     OW44608   8.328   0.667   0.958
11130SOL    HW144609   8.398   0.737   0.947
11130SOL    HW244610   8.237   0.710   0.954
11131SOL     OW44611   2.692   4.381   4.904
11131SOL    HW144612   2.766   4.441   4.936
11131SOL    HW244613   2.695   4.375   4.804
11132SOL     OW44614   9.909   0.754   0.273
11132SOL    HW144615   9.812   0.733   0.272
11132SOL    HW244616   9.935   0.789   0.363
11133SOL     OW44617   0.271   6.575   1.850
11133SOL    HW144618   0.202   6.503   1.857
11133SOL    HW244619   0.340   6.548   1.784
11134SOL     OW44620   2.106   7.255   6.081
11134SOL    HW144621   2.029   7.318   6.095
11134SOL    HW244622   2.168   7.293   6.011
11135SOL     OW44623   2.805   3.897   3.537
11135SOL    HW144624   2.761   3.809   3.550
11135SOL    HW244625   2.879   3.888   3.470
11136SOL     OW44626   5.539   1.029   5.746
11136SOL    HW144627   5.508   0.972   5.821
11136SOL    HW244628   5.515   0.985   5.659
11137SOL     OW44629   4.347   0.363   0.343
11137SOL    HW144630   4.439   0.328   0.327
11137SOL    HW244631   4.295   0.297   0.398
11138SOL     OW44632   2.086   6.845   3.258
11138SOL    HW144633   2.148   6.773   3.289
11138SOL    HW244634   2.051   6.894   3.338
11139SOL     OW44635   8.818   6.343   4.549
11139SOL    HW144636   8.862   6.433   4.555
11139SOL    HW244637   8.887   6.275   4.524
11140SOL     OW44638   9.488   4.268   1.937
11140SOL    HW144639   9.584   4.275   1.962
11140SOL    HW244640   9.431   4.272   2.019
11141SOL     OW44641   3.912   0.751   4.659
11141SOL    HW144642   3.941   0.749   4.755
11141SOL    HW244643   3.860   0.834   4.642
11142SOL     OW44644   1.986   5.358   5.442
11142SOL    HW144645   1.894   5.351   5.482
11142SOL    HW244646   1.997   5.449   5.402
11143SOL     OW44647   0.675   5.926   1.161
11143SOL    HW144648   0.717   5.991   1.224
11143SOL    HW244649   0.614   5.975   1.098
11144SOL     OW44650   6.088   5.756   1.329
11144SOL    HW144651   6.098   5.840   1.276
11144SOL    HW244652   6.042   5.687   1.273
11145SOL     OW44653   7.066   2.308   4.181
11145SOL    HW144654   7.108   2.257   4.105
11145SOL    HW244655   7.136   2.331   4.248
11146SOL     OW44656   2.499   9.876   3.965
11146SOL    HW144657   2.412   9.868   3.916
11146SOL    HW244658   2.510   9.799   4.028
11147SOL     OW44659   8.998   7.505   5.180
11147SOL    HW144660   9.006   7.571   5.105
11147SOL    HW244661   9.043   7.420   5.155
11148SOL     OW44662   9.396   0.061   4.894
11148SOL    HW144663   9.394   0.107   4.983
11148SOL    HW244664   9.462   9.986   4.897
11149SOL     OW44665   8.322   8.562   3.276
11149SOL    HW144666   8.373   8.647   3.288
11149SOL    HW244667   8.224   8.582   3.276
11150SOL     OW44668   9.764   4.655   0.582
11150SOL    HW144669   9.674   4.642   0.624
11150SOL    HW244670   9.754   4.710   0.499
11151SOL     OW44671   7.207   8.499   3.081
11151SOL    HW144672   7.116   8.537   3.093
11151SOL    HW244673   7.204   8.400   3.092
11152SOL     OW44674   4.362   6.796   1.263
11152SOL    HW144675   4.326   6.711   1.225
11152SOL    HW244676   4.433   6.775   1.330
11153SOL     OW44677   7.063   8.045   5.376
11153SOL    HW144678   6.974   8.000   5.390
11153SOL    HW244679   7.112   8.049   5.463
11154SOL     OW44680   2.650   7.030   2.732
11154SOL    HW144681   2.688   7.115   2.770
11154SOL    HW244682   2.558   7.016   2.768
11155SOL     OW44683   3.834   2.586   2.803
11155SOL    HW144684   3.799   2.562   2.893
11155SOL    HW244685   3.933   2.571   2.801
11156SOL     OW44686   8.664   0.047   1.351
11156SOL    HW144687   8.709   0.113   1.412
11156SOL    HW244688   8.668   9.956   1.392
11157SOL     OW44689   3.258   4.094   1.109
11157SOL    HW144690   3.289   4.189   1.107
11157SOL    HW244691   3.312   4.039   1.046
11158SOL     OW44692   9.768   6.409   5.754
11158SOL    HW144693   9.866   6.389   5.764
11158SOL    HW244694   9.724   6.334   5.705
11159SOL     OW44695   2.433   4.019   4.736
11159SOL    HW144696   2.410   3.940   4.680
11159SOL    HW244697   2.529   4.012   4.765
11160SOL     OW44698   3.219   0.657   1.640
11160SOL    HW144699   3.164   0.641   1.558
11160SOL    HW244700   3.219   0.575   1.697
11161SOL     OW44701   4.967   1.673   1.432
11161SOL    HW144702   5.047   1.637   1.385
11161SOL    HW244703   4.893   1.689   1.367
11162SOL     OW44704   8.632   5.535   3.860
11162SOL    HW144705   8.701   5.595   3.819
11162SOL    HW244706   8.650   5.526   3.958
11163SOL     OW44707   8.520   6.530   1.558
11163SOL    HW144708   8.548   6.436   1.538
11163SOL    HW244709   8.517   6.544   1.657
11164SOL     OW44710   1.353   9.145   2.170
11164SOL    HW144711   1.447   9.179   2.164
11164SOL    HW244712   1.316   9.136   2.077
11165SOL     OW44713   2.149   9.629   1.039
11165SOL    HW144714   2.195   9.545   1.067
11165SOL    HW244715   2.062   9.607   0.994
11166SOL     OW44716   7.129   2.347   5.752
11166SOL    HW144717   7.211   2.402   5.737
11166SOL    HW244718   7.057   2.376   5.690
11167SOL     OW44719   0.335   0.397   5.749
11167SOL    HW144720   0.396   0.361   5.820
11167SOL    HW244721   0.260   0.448   5.792
11168SOL     OW44722   7.631   4.922   1.549
11168SOL    HW144723   7.535   4.929   1.522
11168SOL    HW244724   7.641   4.851   1.619
11169SOL     OW44725   1.143   5.479   4.882
11169SOL    HW144726   1.170   5.420   4.959
11169SOL    HW244727   1.203   5.559   4.879
11170SOL     OW44728   0.157   1.879   3.441
11170SOL    HW144729   0.184   1.860   3.535
11170SOL    HW244730   0.105   1.965   3.438
11171SOL     OW44731   5.039   8.375   2.742
11171SOL    HW144732   5.131   8.414   2.751
11171SOL    HW244733   4.999   8.365   2.832
11172SOL     OW44734   9.727   4.950   0.130
11172SOL    HW144735   9.633   4.963   0.161
11172SOL    HW244736   9.726   4.923   0.033
11173SOL     OW44737   6.470   2.832   3.720
11173SOL    HW144738   6.419   2.780   3.789
11173SOL    HW244739   6.494   2.773   3.644
11174SOL     OW44740   2.859   6.258   0.430
11174SOL    HW144741   2.785   6.201   0.466
11174SOL    HW244742   2.938   6.201   0.408
11175SOL     OW44743   8.192   8.998   0.431
11175SOL    HW144744   8.259   8.972   0.361
11175SOL    HW244745   8.238   9.012   0.518
11176SOL     OW44746   3.187   6.015   1.360
11176SOL    HW144747   3.133   5.931   1.347
11176SOL    HW244748   3.177   6.046   1.455
11177SOL     OW44749   4.954   9.096   4.466
11177SOL    HW144750   4.888   9.100   4.541
11177SOL    HW244751   4.967   9.187   4.428
11178SOL     OW44752   8.856   2.842   4.328
11178SOL    HW144753   8.773   2.883   4.291
11178SOL    HW244754   8.896   2.781   4.259
11179SOL     OW44755   3.733   6.822   3.235
11179SOL    HW144756   3.706   6.918   3.232
11179SOL    HW244757   3.743   6.793   3.331
11180SOL     OW44758   0.016   8.852   4.126
11180SOL    HW144759   9.961   8.909   4.065
11180SOL    HW244760   0.111   8.853   4.097
11181SOL     OW44761   3.790   5.107   1.171
11181SOL    HW144762   3.844   5.148   1.244
11181SOL    HW244763   3.850   5.078   1.097
11182SOL     OW44764   5.525   2.207   3.374
11182SOL    HW144765   5.510   2.190   3.276
11182SOL    HW244766   5.463   2.279   3.405
11183SOL     OW44767   5.489   5.707   1.812
11183SOL    HW144768   5.411   5.692   1.752
11183SOL    HW244769   5.527   5.798   1.795
11184SOL     OW44770   7.148   0.137   5.310
11184SOL    HW144771   7.170   0.111   5.216
11184SOL    HW244772   7.141   0.055   5.367
11185SOL     OW44773   6.969   0.613   2.315
11185SOL    HW144774   6.993   0.710   2.322
11185SOL    HW244775   6.915   0.587   2.395
11186SOL     OW44776   0.221   2.145   2.762
11186SOL    HW144777   0.149   2.095   2.714
11186SOL    HW244778   0.220   2.119   2.859
11187SOL     OW44779   6.976   3.735   0.256
11187SOL    HW144780   6.878   3.738   0.235
11187SOL    HW244781   7.010   3.828   0.271
11188SOL     OW44782   9.453   3.623   1.716
11188SOL    HW144783   9.425   3.600   1.809
11188SOL    HW244784   9.493   3.715   1.715
11189SOL     OW44785   4.570   9.531   6.097
11189SOL    HW144786   4.644   9.516   6.032
11189SOL    HW244787   4.488   9.483   6.066
11190SOL     OW44788   8.529   8.346   2.879
11190SOL    HW144789   8.508   8.435   2.920
11190SOL    HW244790   8.458   8.280   2.904
11191SOL     OW44791   0.019   4.713   1.040
11191SOL    HW144792   9.996   4.703   0.943
11191SOL    HW244793   9.961   4.652   1.094
11192SOL     OW44794   5.453   7.959   4.360
11192SOL    HW144795   5.493   7.899   4.429
11192SOL    HW244796   5.377   7.913   4.316
11193SOL     OW44797   3.407   1.420   6.359
11193SOL    HW144798   3.493   1.468   6.344
11193SOL    HW244799   3.421   1.346   6.424
11194SOL     OW44800   9.828   9.809   6.207
11194SOL    HW144801   9.889   9.748   6.258
11194SOL    HW244802   9.734   9.798   6.242
11195SOL     OW44803   1.547   8.752   2.808
11195SOL    HW144804   1.526   8.657   2.784
11195SOL    HW244805   1.467   8.794   2.850
11196SOL     OW44806   6.954   1.952   1.824
11196SOL    HW144807   7.039   1.916   1.863
11196SOL    HW244808   6.881   1.884   1.833
11197SOL     OW44809   1.130   4.141   5.756
11197SOL    HW144810   1.084   4.229   5.739
11197SOL    HW244811   1.190   4.120   5.679
11198SOL     OW44812   1.933   8.633   0.547
11198SOL    HW144813   1.906   8.715   0.497
11198SOL    HW244814   1.973   8.659   0.635
11199SOL     OW44815   2.925   5.780   2.621
11199SOL    HW144816   2.994   5.819   2.560
11199SOL    HW244817   2.883   5.700   2.577
11200SOL     OW44818   4.388   3.700   3.944
11200SOL    HW144819   4.433   3.628   3.997
11200SOL    HW244820   4.394   3.680   3.847
11201SOL     OW44821   0.686   9.563   4.926
11201SOL    HW144822   0.762   9.506   4.895
11201SOL    HW244823   0.706   9.596   5.019
11202SOL     OW44824   1.831   4.149   4.851
11202SOL    HW144825   1.782   4.221   4.802
11202SOL    HW244826   1.765   4.090   4.898
11203SOL     OW44827   2.744   5.532   3.949
11203SOL    HW144828   2.649   5.507   3.969
11203SOL    HW244829   2.794   5.451   3.918
11204SOL     OW44830   1.663   9.745   4.934
11204SOL    HW144831   1.653   9.674   5.003
11204SOL    HW244832   1.678   9.833   4.979
11205SOL     OW44833   4.776   9.263   0.486
11205SOL    HW144834   4.783   9.190   0.419
11205SOL    HW244835   4.785   9.351   0.440
11206SOL     OW44836   7.026   3.039   2.757
11206SOL    HW144837   6.977   3.015   2.841
11206SOL    HW244838   6.994   2.982   2.682
11207SOL     OW44839   8.815   0.117   5.370
11207SOL    HW144840   8.786   0.025   5.394
11207SOL    HW244841   8.904   0.136   5.411
11208SOL     OW44842   2.092   9.737   5.458
11208SOL    HW144843   2.074   9.776   5.367
11208SOL    HW244844   2.033   9.658   5.473
11209SOL     OW44845   5.279   8.881   3.408
11209SOL    HW144846   5.306   8.845   3.319
11209SOL    HW244847   5.258   8.979   3.399
11210SOL     OW44848   9.611   4.816   1.272
11210SOL    HW144849   9.611   4.810   1.173
11210SOL    HW244850   9.537   4.877   1.302
11211SOL     OW44851   2.736   9.714   1.135
11211SOL    HW144852   2.676   9.727   1.213
11211SOL    HW244853   2.746   9.801   1.085
11212SOL     OW44854   6.515   1.602   2.645
11212SOL    HW144855   6.544   1.692   2.611
11212SOL    HW244856   6.431   1.612   2.697
11213SOL     OW44857   7.065   8.031   6.225
11213SOL    HW144858   7.071   8.055   6.128
11213SOL    HW244859   7.145   7.977   6.251
11214SOL     OW44860   2.905   1.105   1.053
11214SOL    HW144861   2.816   1.096   1.007
11214SOL    HW244862   2.971   1.045   1.009
11215SOL     OW44863   8.351   1.253   0.491
11215SOL    HW144864   8.352   1.327   0.559
11215SOL    HW244865   8.430   1.193   0.506
11216SOL     OW44866   0.536   8.203   5.515
11216SOL    HW144867   0.458   8.247   5.558
11216SOL    HW244868   0.562   8.122   5.567
11217SOL     OW44869   4.562   1.430   0.951
11217SOL    HW144870   4.558   1.456   0.855
11217SOL    HW244871   4.645   1.376   0.967
11218SOL     OW44872   4.785   2.077   2.564
11218SOL    HW144873   4.767   2.059   2.467
11218SOL    HW244874   4.723   2.022   2.620
11219SOL     OW44875   1.240   4.080   4.866
11219SOL    HW144876   1.255   3.988   4.828
11219SOL    HW244877   1.327   4.128   4.871
11220SOL     OW44878   1.279   5.123   1.570
11220SOL    HW144879   1.207   5.193   1.570
11220SOL    HW244880   1.262   5.058   1.496
11221SOL     OW44881   1.035   0.375   4.732
11221SOL    HW144882   1.007   0.466   4.701
11221SOL    HW244883   0.983   0.305   4.683
11222SOL     OW44884   9.877   0.914   1.004
11222SOL    HW144885   9.803   0.889   0.942
11222SOL    HW244886   9.847   0.987   1.065
11223SOL     OW44887   4.198   1.692   4.397
11223SOL    HW144888   4.223   1.730   4.486
11223SOL    HW244889   4.148   1.607   4.410
11224SOL     OW44890   4.487   8.377   1.797
11224SOL    HW144891   4.537   8.291   1.794
11224SOL    HW244892   4.389   8.360   1.786
11225SOL     OW44893   3.763   3.667   5.452
11225SOL    HW144894   3.799   3.660   5.545
11225SOL    HW244895   3.698   3.742   5.447
11226SOL     OW44896   7.476   3.709   2.413
11226SOL    HW144897   7.530   3.625   2.403
11226SOL    HW244898   7.381   3.686   2.431
11227SOL     OW44899   8.383   7.391   5.950
11227SOL    HW144900   8.475   7.401   5.913
11227SOL    HW244901   8.380   7.428   6.043
11228SOL     OW44902   7.956   1.029   0.913
11228SOL    HW144903   7.981   1.085   0.992
11228SOL    HW244904   8.004   1.062   0.832
11229SOL     OW44905   8.604   8.963   5.708
11229SOL    HW144906   8.694   9.003   5.692
11229SOL    HW244907   8.577   8.980   5.803
11230SOL     OW44908   0.057   9.118   2.613
11230SOL    HW144909   0.093   9.106   2.520
11230SOL    HW244910   9.973   9.065   2.623
11231SOL     OW44911   1.411   2.997   3.934
11231SOL    HW144912   1.338   2.929   3.935
11231SOL    HW244913   1.382   3.079   3.984
11232SOL     OW44914   0.111   0.502   4.101
11232SOL    HW144915   0.114   0.523   4.003
11232SOL    HW244916   0.024   0.535   4.139
11233SOL     OW44917   3.590   8.977   5.833
11233SOL    HW144918   3.653   8.904   5.806
11233SOL    HW244919   3.626   9.024   5.913
11234SOL     OW44920   8.138   8.629   0.779
11234SOL    HW144921   8.043   8.598   0.786
11234SOL    HW244922   8.159   8.650   0.683
11235SOL     OW44923   7.435   1.640   2.187
11235SOL    HW144924   7.421   1.629   2.089
11235SOL    HW244925   7.504   1.711   2.202
11236SOL     OW44926   7.666   1.792   3.310
11236SOL    HW144927   7.626   1.795   3.219
11236SOL    HW244928   7.756   1.836   3.309
11237SOL     OW44929   2.406   7.325   1.781
11237SOL    HW144930   2.382   7.231   1.760
11237SOL    HW244931   2.346   7.387   1.730
11238SOL     OW44932   3.316   4.510   1.820
11238SOL    HW144933   3.388   4.535   1.756
11238SOL    HW244934   3.356   4.467   1.901
11239SOL     OW44935   6.565   2.686   3.502
11239SOL    HW144936   6.504   2.646   3.433
11239SOL    HW244937   6.625   2.754   3.458
11240SOL     OW44938   2.135   8.693   1.294
11240SOL    HW144939   2.050   8.729   1.333
11240SOL    HW244940   2.213   8.732   1.343
11241SOL     OW44941   5.825   4.649   0.440
11241SOL    HW144942   5.862   4.675   0.351
11241SOL    HW244943   5.831   4.728   0.502
11242SOL     OW44944   8.645   9.480   0.946
11242SOL    HW144945   8.591   9.396   0.939
11242SOL    HW244946   8.622   9.541   0.870
11243SOL     OW44947   8.255   6.749   1.842
11243SOL    HW144948   8.353   6.745   1.861
11243SOL    HW244949   8.219   6.656   1.831
11244SOL     OW44950   0.242   4.028   5.597
11244SOL    HW144951   0.251   4.128   5.601
11244SOL    HW244952   0.237   3.991   5.690
11245SOL     OW44953   1.056   3.305   2.123
11245SOL    HW144954   1.105   3.229   2.165
11245SOL    HW244955   0.959   3.300   2.149
11246SOL     OW44956   8.030   6.889   1.778
11246SOL    HW144957   8.108   6.833   1.807
11246SOL    HW244958   8.028   6.893   1.678
11247SOL     OW44959   7.960   6.567   1.989
11247SOL    HW144960   7.868   6.597   1.962
11247SOL    HW244961   8.018   6.561   1.908
11248SOL     OW44962   4.393   5.986   0.604
11248SOL    HW144963   4.419   6.068   0.552
11248SOL    HW244964   4.333   5.929   0.547
11249SOL     OW44965   8.940   5.122   2.567
11249SOL    HW144966   8.920   5.038   2.617
11249SOL    HW244967   8.857   5.178   2.561
11250SOL     OW44968   7.003   8.665   6.341
11250SOL    HW144969   6.982   8.626   6.431
11250SOL    HW244970   7.102   8.676   6.332
11251SOL     OW44971   6.985   0.914   5.884
11251SOL    HW144972   6.912   0.873   5.829
11251SOL    HW244973   6.945   0.973   5.954
11252SOL     OW44974   4.504   4.024   5.831
11252SOL    HW144975   4.500   3.924   5.821
11252SOL    HW244976   4.519   4.048   5.926
11253SOL     OW44977   1.524   9.962   6.292
11253SOL    HW144978   1.519   0.060   6.310
11253SOL    HW244979   1.451   9.937   6.229
11254SOL     OW44980   1.380   3.651   0.622
11254SOL    HW144981   1.297   3.702   0.642
11254SOL    HW244982   1.431   3.696   0.549
11255SOL     OW44983   2.804   5.594   3.677
11255SOL    HW144984   2.777   5.576   3.772
11255SOL    HW244985   2.894   5.555   3.661
11256SOL     OW44986   8.182   3.444   2.872
11256SOL    HW144987   8.198   3.387   2.953
11256SOL    HW244988   8.243   3.415   2.798
11257SOL     OW44989   8.020   9.823   3.394
11257SOL    HW144990   7.988   9.759   3.464
11257SOL    HW244991   7.950   9.833   3.323
11258SOL     OW44992   3.930   6.676   1.501
11258SOL    HW144993   3.882   6.590   1.518
11258SOL    HW244994   3.944   6.724   1.588
11259SOL     OW44995   7.520   0.491   2.571
11259SOL    HW144996   7.532   0.422   2.499
11259SOL    HW244997   7.427   0.527   2.567
11260SOL     OW44998   0.892   1.208   5.613
11260SOL    HW144999   0.984   1.183   5.582
11260SOL    HW245000   0.841   1.249   5.538
11261SOL     OW45001   0.934   2.038   4.162
11261SOL    HW145002   0.882   2.017   4.079
11261SOL    HW245003   0.872   2.051   4.238
11262SOL     OW45004   2.650   2.859   5.246
11262SOL    HW145005   2.671   2.918   5.324
11262SOL    HW245006   2.569   2.804   5.268
11263SOL     OW45007   2.588   3.114   3.428
11263SOL    HW145008   2.622   3.046   3.364
11263SOL    HW245009   2.665   3.165   3.468
11264SOL     OW45010   7.432   3.254   0.106
11264SOL    HW145011   7.447   3.155   0.105
11264SOL    HW245012   7.411   3.284   0.200
11265SOL     OW45013   1.424   6.951   2.647
11265SOL    HW145014   1.369   6.879   2.690
11265SOL    HW245015   1.398   6.959   2.551
11266SOL     OW45016   1.073   1.324   4.751
11266SOL    HW145017   1.057   1.404   4.809
11266SOL    HW245018   1.123   1.352   4.669
11267SOL     OW45019   9.289   4.346   2.440
11267SOL    HW145020   9.355   4.321   2.511
11267SOL    HW245021   9.199   4.358   2.481
11268SOL     OW45022   9.797   9.371   6.160
11268SOL    HW145023   9.883   9.399   6.203
11268SOL    HW245024   9.774   9.278   6.191
11269SOL     OW45025   6.957   9.439   2.885
11269SOL    HW145026   6.881   9.376   2.897
11269SOL    HW245027   7.042   9.388   2.871
11270SOL     OW45028   1.895   7.385   5.031
11270SOL    HW145029   1.955   7.461   5.058
11270SOL    HW245030   1.941   7.299   5.050
11271SOL     OW45031   3.316   3.698   0.501
11271SOL    HW145032   3.314   3.603   0.534
11271SOL    HW245033   3.259   3.755   0.559
11272SOL     OW45034   9.361   7.357   2.264
11272SOL    HW145035   9.434   7.290   2.246
11272SOL    HW245036   9.343   7.362   2.362
11273SOL     OW45037   9.462   8.541   1.207
11273SOL    HW145038   9.417   8.617   1.161
11273SOL    HW245039   9.415   8.521   1.293
11274SOL     OW45040   9.514   1.921   3.361
11274SOL    HW145041   9.501   2.020   3.357
11274SOL    HW245042   9.551   1.895   3.450
11275SOL     OW45043   8.207   5.151   0.755
11275SOL    HW145044   8.138   5.212   0.794
11275SOL    HW245045   8.170   5.059   0.749
11276SOL     OW45046   9.807   2.293   1.870
11276SOL    HW145047   9.810   2.324   1.774
11276SOL    HW245048   9.773   2.199   1.873
11277SOL     OW45049   5.157   8.643   3.826
11277SOL    HW145050   5.145   8.696   3.742
11277SOL    HW245051   5.164   8.705   3.904
11278SOL     OW45052   8.915   2.038   0.101
11278SOL    HW145053   8.954   2.124   0.069
11278SOL    HW245054   8.846   2.057   0.172
11279SOL     OW45055   0.642   1.997   4.496
11279SOL    HW145056   0.739   1.976   4.501
11279SOL    HW245057   0.628   2.083   4.447
11280SOL     OW45058   0.646   3.535   3.459
11280SOL    HW145059   0.577   3.608   3.461
11280SOL    HW245060   0.728   3.565   3.508
11281SOL     OW45061   3.183   7.499   3.959
11281SOL    HW145062   3.178   7.567   3.885
11281SOL    HW245063   3.115   7.521   4.029
11282SOL     OW45064   5.933   0.245   3.983
11282SOL    HW145065   5.906   0.154   4.013
11282SOL    HW245066   5.908   0.312   4.052
11283SOL     OW45067   2.762   2.566   1.824
11283SOL    HW145068   2.849   2.527   1.855
11283SOL    HW245069   2.778   2.625   1.746
11284SOL     OW45070   4.587   3.052   0.129
11284SOL    HW145071   4.494   3.031   0.097
11284SOL    HW245072   4.648   2.978   0.103
11285SOL     OW45073   1.261   2.561   3.851
11285SOL    HW145074   1.194   2.532   3.783
11285SOL    HW245075   1.241   2.516   3.938
11286SOL     OW45076   3.459   5.179   3.412
11286SOL    HW145077   3.539   5.120   3.424
11286SOL    HW245078   3.380   5.124   3.386
11287SOL     OW45079   7.539   1.619   3.801
11287SOL    HW145080   7.623   1.565   3.807
11287SOL    HW245081   7.542   1.678   3.721
11288SOL     OW45082   0.936   3.042   2.277
11288SOL    HW145083   0.878   2.961   2.272
11288SOL    HW245084   0.886   3.121   2.241
11289SOL     OW45085   0.274   8.073   4.074
11289SOL    HW145086   0.216   8.091   3.994
11289SOL    HW245087   0.368   8.099   4.053
11290SOL     OW45088   4.149   7.245   2.254
11290SOL    HW145089   4.150   7.149   2.226
11290SOL    HW245090   4.242   7.280   2.256
11291SOL     OW45091   8.333   8.002   4.949
11291SOL    HW145092   8.317   8.028   4.854
11291SOL    HW245093   8.427   8.024   4.974
11292SOL     OW45094   7.861   0.690   3.722
11292SOL    HW145095   7.919   0.716   3.645
11292SOL    HW245096   7.769   0.726   3.708
11293SOL     OW45097   6.589   8.865   3.700
11293SOL    HW145098   6.673   8.865   3.646
11293SOL    HW245099   6.593   8.938   3.768
11294SOL     OW45100   4.219   6.290   1.732
11294SOL    HW145101   4.180   6.382   1.730
11294SOL    HW245102   4.203   6.246   1.643
11295SOL     OW45103   4.050   9.862   2.031
11295SOL    HW145104   4.096   9.827   2.113
11295SOL    HW245105   4.057   9.962   2.028
11296SOL     OW45106   2.769   3.030   0.703
11296SOL    HW145107   2.808   2.980   0.781
11296SOL    HW245108   2.818   3.116   0.690
11297SOL     OW45109   1.139   6.481   6.118
11297SOL    HW145110   1.173   6.388   6.115
11297SOL    HW245111   1.195   6.540   6.060
11298SOL     OW45112   8.209   2.711   3.513
11298SOL    HW145113   8.217   2.611   3.504
11298SOL    HW245114   8.121   2.740   3.475
11299SOL     OW45115   8.974   0.844   3.036
11299SOL    HW145116   8.996   0.884   3.125
11299SOL    HW245117   9.047   0.865   2.971
11300SOL     OW45118   5.185   1.163   2.642
11300SOL    HW145119   5.146   1.232   2.704
11300SOL    HW245120   5.181   1.197   2.548
11301SOL     OW45121   6.921   2.829   3.958
11301SOL    HW145122   7.013   2.813   3.921
11301SOL    HW245123   6.853   2.799   3.891
11302SOL     OW45124   3.751   9.819   6.090
11302SOL    HW145125   3.691   9.896   6.065
11302SOL    HW245126   3.768   9.764   6.009
11303SOL     OW45127   2.767   7.693   3.628
11303SOL    HW145128   2.749   7.753   3.706
11303SOL    HW245129   2.812   7.609   3.659
11304SOL     OW45130   4.300   9.937   1.395
11304SOL    HW145131   4.225   9.993   1.432
11304SOL    HW245132   4.277   9.840   1.407
11305SOL     OW45133   4.217   2.214   2.953
11305SOL    HW145134   4.125   2.189   2.984
11305SOL    HW245135   4.230   2.185   2.859
11306SOL     OW45136   2.785   0.625   5.706
11306SOL    HW145137   2.865   0.677   5.735
11306SOL    HW245138   2.702   0.672   5.735
11307SOL     OW45139   5.037   9.738   1.337
11307SOL    HW145140   5.041   9.639   1.353
11307SOL    HW245141   4.944   9.763   1.311
11308SOL     OW45142   7.752   0.718   5.652
11308SOL    HW145143   7.822   0.747   5.718
11308SOL    HW245144   7.710   0.799   5.610
11309SOL     OW45145   3.638   3.560   4.896
11309SOL    HW145146   3.696   3.641   4.905
11309SOL    HW245147   3.553   3.574   4.947
11310SOL     OW45148   2.142   8.543   1.767
11310SOL    HW145149   2.182   8.618   1.819
11310SOL    HW245150   2.059   8.575   1.721
11311SOL     OW45151   0.603   3.181   3.315
11311SOL    HW145152   0.510   3.195   3.350
11311SOL    HW245153   0.652   3.117   3.373
11312SOL     OW45154   8.964   8.620   0.383
11312SOL    HW145155   8.904   8.634   0.462
11312SOL    HW245156   9.055   8.654   0.404
11313SOL     OW45157   9.255   1.456   5.367
11313SOL    HW145158   9.310   1.380   5.333
11313SOL    HW245159   9.199   1.493   5.293
11314SOL     OW45160   3.846   9.365   1.495
11314SOL    HW145161   3.805   9.456   1.493
11314SOL    HW245162   3.828   9.318   1.408
11315SOL     OW45163   0.336   4.157   3.725
11315SOL    HW145164   0.335   4.257   3.724
11315SOL    HW245165   0.418   4.126   3.773
11316SOL     OW45166   1.951   5.336   3.985
11316SOL    HW145167   1.883   5.399   4.024
11316SOL    HW245168   1.987   5.375   3.900
11317SOL     OW45169   6.062   8.952   3.607
11317SOL    HW145170   6.094   8.873   3.553
11317SOL    HW245171   6.139   9.014   3.622
11318SOL     OW45172   7.552   4.864   1.144
11318SOL    HW145173   7.609   4.946   1.151
11318SOL    HW245174   7.462   4.888   1.109
11319SOL     OW45175   4.847   3.989   1.652
11319SOL    HW145176   4.882   4.046   1.727
11319SOL    HW245177   4.902   3.906   1.645
11320SOL     OW45178   9.387   9.446   4.106
11320SOL    HW145179   9.402   9.368   4.046
11320SOL    HW245180   9.307   9.429   4.164
11321SOL     OW45181   7.629   8.887   5.194
11321SOL    HW145182   7.667   8.829   5.266
11321SOL    HW245183   7.599   8.974   5.234
11322SOL     OW45184   0.320   5.836   4.402
11322SOL    HW145185   0.315   5.736   4.404
11322SOL    HW245186   0.360   5.866   4.315
11323SOL     OW45187   4.235   2.544   2.146
11323SOL    HW145188   4.174   2.623   2.150
11323SOL    HW245189   4.215   2.483   2.223
11324SOL     OW45190   3.221   7.048   4.454
11324SOL    HW145191   3.318   7.069   4.466
11324SOL    HW245192   3.191   6.990   4.530
11325SOL     OW45193   5.212   9.232   2.630
11325SOL    HW145194   5.151   9.179   2.571
11325SOL    HW245195   5.252   9.307   2.578
11326SOL     OW45196   8.371   2.933   5.121
11326SOL    HW145197   8.320   3.015   5.149
11326SOL    HW245198   8.446   2.960   5.061
11327SOL     OW45199   2.547   1.508   2.394
11327SOL    HW145200   2.643   1.495   2.416
11327SOL    HW245201   2.490   1.473   2.469
11328SOL     OW45202   9.313   1.911   4.764
11328SOL    HW145203   9.245   1.940   4.831
11328SOL    HW245204   9.314   1.811   4.758
11329SOL     OW45205   7.788   9.177   3.494
11329SOL    HW145206   7.714   9.206   3.556
11329SOL    HW245207   7.825   9.090   3.526
11330SOL     OW45208   8.583   1.291   2.305
11330SOL    HW145209   8.531   1.364   2.261
11330SOL    HW245210   8.522   1.214   2.324
11331SOL     OW45211   1.543   7.134   1.819
11331SOL    HW145212   1.608   7.194   1.866
11331SOL    HW245213   1.592   7.058   1.777
11332SOL     OW45214   3.600   5.566   1.913
11332SOL    HW145215   3.619   5.663   1.927
11332SOL    HW245216   3.571   5.551   1.818
11333SOL     OW45217   8.661   9.171   1.114
11333SOL    HW145218   8.734   9.131   1.059
11333SOL    HW245219   8.587   9.200   1.053
11334SOL     OW45220   5.026   8.067   4.351
11334SOL    HW145221   5.076   8.058   4.265
11334SOL    HW245222   5.075   8.018   4.423
11335SOL     OW45223   8.035   4.578   3.559
11335SOL    HW145224   7.995   4.532   3.480
11335SOL    HW245225   8.039   4.514   3.636
11336SOL     OW45226   1.837   5.216   0.586
11336SOL    HW145227   1.846   5.133   0.532
11336SOL    HW245228   1.924   5.237   0.631
11337SOL     OW45229   4.102   3.945   6.299
11337SOL    HW145230   4.011   3.975   6.328
11337SOL    HW245231   4.145   4.016   6.245
11338SOL     OW45232   2.362   1.979   3.569
11338SOL    HW145233   2.436   1.973   3.502
11338SOL    HW245234   2.348   1.890   3.611
11339SOL     OW45235   8.078   6.162   6.164
11339SOL    HW145236   8.137   6.235   6.128
11339SOL    HW245237   8.115   6.128   6.250
11340SOL     OW45238   8.620   3.857   1.027
11340SOL    HW145239   8.588   3.946   1.060
11340SOL    HW245240   8.547   3.812   0.975
11341SOL     OW45241   7.134   8.378   5.442
11341SOL    HW145242   7.153   8.455   5.381
11341SOL    HW245243   7.220   8.332   5.464
11342SOL     OW45244   1.594   8.943   1.781
11342SOL    HW145245   1.519   8.917   1.842
11342SOL    HW245246   1.666   8.873   1.786
11343SOL     OW45247   4.959   9.977   2.076
11343SOL    HW145248   5.037   9.991   2.015
11343SOL    HW245249   4.888   9.925   2.028
11344SOL     OW45250   6.821   2.898   1.392
11344SOL    HW145251   6.728   2.862   1.385
11344SOL    HW245252   6.820   2.984   1.443
11345SOL     OW45253   0.935   8.487   3.200
11345SOL    HW145254   0.884   8.461   3.117
11345SOL    HW245255   1.033   8.491   3.179
11346SOL     OW45256   4.924   3.730   5.858
11346SOL    HW145257   4.967   3.702   5.944
11346SOL    HW245258   4.993   3.735   5.786
11347SOL     OW45259   6.780   9.649   1.832
11347SOL    HW145260   6.751   9.655   1.927
11347SOL    HW245261   6.700   9.641   1.772
11348SOL     OW45262   5.748   2.413   4.579
11348SOL    HW145263   5.765   2.336   4.518
11348SOL    HW245264   5.756   2.499   4.528
11349SOL     OW45265   1.163   4.589   5.186
11349SOL    HW145266   1.185   4.629   5.275
11349SOL    HW245267   1.176   4.490   5.190
11350SOL     OW45268   9.134   1.941   1.128
11350SOL    HW145269   9.188   1.861   1.156
11350SOL    HW245270   9.059   1.912   1.068
11351SOL     OW45271   8.553   8.784   3.578
11351SOL    HW145272   8.591   8.727   3.505
11351SOL    HW245273   8.585   8.878   3.567
11352SOL     OW45274   2.777   5.012   2.242
11352SOL    HW145275   2.690   5.001   2.290
11352SOL    HW245276   2.843   5.058   2.302
11353SOL     OW45277   0.278   4.025   6.226
11353SOL    HW145278   0.193   4.065   6.190
11353SOL    HW245279   0.355   4.083   6.200
11354SOL     OW45280   7.586   0.758   3.706
11354SOL    HW145281   7.508   0.804   3.749
11354SOL    HW245282   7.575   0.659   3.714
11355SOL     OW45283   6.369   9.315   3.786
11355SOL    HW145284   6.290   9.295   3.845
11355SOL    HW245285   6.436   9.369   3.837
11356SOL     OW45286   8.204   0.041   2.297
11356SOL    HW145287   8.228   0.137   2.307
11356SOL    HW245288   8.202   0.017   2.200
11357SOL     OW45289   4.314   8.567   0.903
11357SOL    HW145290   4.364   8.653   0.902
11357SOL    HW245291   4.315   8.529   0.996
11358SOL     OW45292   9.910   9.659   0.876
11358SOL    HW145293   9.846   9.717   0.825
11358SOL    HW245294   9.999   9.659   0.830
11359SOL     OW45295   8.796   1.499   3.608
11359SOL    HW145296   8.790   1.465   3.702
11359SOL    HW245297   8.779   1.597   3.607
11360SOL     OW45298   7.233   6.927   3.857
11360SOL    HW145299   7.326   6.902   3.831
11360SOL    HW245300   7.170   6.856   3.826
11361SOL     OW45301   1.680   1.014   0.247
11361SOL    HW145302   1.669   1.097   0.193
11361SOL    HW245303   1.590   0.974   0.265
11362SOL     OW45304   7.853   3.540   3.221
11362SOL    HW145305   7.768   3.546   3.169
11362SOL    HW245306   7.925   3.588   3.171
11363SOL     OW45307   9.193   7.576   2.247
11363SOL    HW145308   9.268   7.509   2.246
11363SOL    HW245309   9.186   7.620   2.157
11364SOL     OW45310   7.647   1.132   2.471
11364SOL    HW145311   7.579   1.126   2.398
11364SOL    HW245312   7.705   1.051   2.469
11365SOL     OW45313   1.371   7.539   2.691
11365SOL    HW145314   1.420   7.538   2.778
11365SOL    HW245315   1.426   7.588   2.623
11366SOL     OW45316   8.345   2.617   5.935
11366SOL    HW145317   8.364   2.566   5.851
11366SOL    HW245318   8.422   2.677   5.955
11367SOL     OW45319   3.605   4.653   0.901
11367SOL    HW145320   3.621   4.690   0.993
11367SOL    HW245321   3.604   4.727   0.835
11368SOL     OW45322   8.165   0.799   0.258
11368SOL    HW145323   8.254   0.833   0.226
11368SOL    HW245324   8.174   0.703   0.283
11369SOL     OW45325   8.562   7.368   5.341
11369SOL    HW145326   8.629   7.390   5.271
11369SOL    HW245327   8.529   7.274   5.328
11370SOL     OW45328   8.759   6.250   4.081
11370SOL    HW145329   8.809   6.185   4.139
11370SOL    HW245330   8.661   6.235   4.092
11371SOL     OW45331   1.493   2.085   0.888
11371SOL    HW145332   1.467   1.991   0.864
11371SOL    HW245333   1.587   2.102   0.860
11372SOL     OW45334   4.611   1.717   2.339
11372SOL    HW145335   4.679   1.665   2.390
11372SOL    HW245336   4.622   1.700   2.241
11373SOL     OW45337   7.628   3.166   1.198
11373SOL    HW145338   7.727   3.148   1.200
11373SOL    HW245339   7.588   3.120   1.119
11374SOL     OW45340   1.592   6.827   1.959
11374SOL    HW145341   1.658   6.752   1.966
11374SOL    HW245342   1.519   6.800   1.896
11375SOL     OW45343   1.348   5.942   5.550
11375SOL    HW145344   1.350   5.985   5.640
11375SOL    HW245345   1.440   5.936   5.513
11376SOL     OW45346   2.847   9.284   5.195
11376SOL    HW145347   2.924   9.344   5.174
11376SOL    HW245348   2.817   9.301   5.289
11377SOL     OW45349   7.525   2.428   1.418
11377SOL    HW145350   7.611   2.416   1.467
11377SOL    HW245351   7.544   2.430   1.319
11378SOL     OW45352   2.167   7.521   2.819
11378SOL    HW145353   2.132   7.553   2.731
11378SOL    HW245354   2.205   7.429   2.809
11379SOL     OW45355   1.050   6.496   3.612
11379SOL    HW145356   1.070   6.577   3.556
11379SOL    HW245357   1.076   6.515   3.707
11380SOL     OW45358   0.264   8.813   0.366
11380SOL    HW145359   0.245   8.737   0.428
11380SOL    HW245360   0.326   8.877   0.411
11381SOL     OW45361   2.494   9.397   0.135
11381SOL    HW145362   2.501   9.428   0.230
11381SOL    HW245363   2.540   9.309   0.125
11382SOL     OW45364   2.885   8.394   4.009
11382SOL    HW145365   2.910   8.461   3.940
11382SOL    HW245366   2.951   8.319   4.008
11383SOL     OW45367   5.193   9.910   4.932
11383SOL    HW145368   5.250   9.839   4.974
11383SOL    HW245369   5.137   9.954   5.003
11384SOL     OW45370   5.615   7.392   4.439
11384SOL    HW145371   5.515   7.396   4.430
11384SOL    HW245372   5.655   7.472   4.395
11385SOL     OW45373   0.823   0.415   6.358
11385SOL    HW145374   0.751   0.369   6.410
11385SOL    HW245375   0.800   0.513   6.351
11386SOL     OW45376   4.650   0.590   1.386
11386SOL    HW145377   4.558   0.551   1.382
11386SOL    HW245378   4.717   0.518   1.366
11387SOL     OW45379   5.246   1.419   0.056
11387SOL    HW145380   5.280   1.374   0.139
11387SOL    HW245381   5.323   1.447   8.187
11388SOL     OW45382   0.514   1.245   1.343
11388SOL    HW145383   0.421   1.240   1.305
11388SOL    HW245384   0.564   1.162   1.318
11389SOL     OW45385   9.840   2.166   2.275
11389SOL    HW145386   9.849   2.187   2.372
11389SOL    HW245387   9.866   2.246   2.221
11390SOL     OW45388   6.934   7.511   5.467
11390SOL    HW145389   6.914   7.594   5.520
11390SOL    HW245390   6.913   7.528   5.370
11391SOL     OW45391   4.312   7.332   2.815
11391SOL    HW145392   4.276   7.245   2.848
11391SOL    HW245393   4.382   7.315   2.745
11392SOL     OW45394   6.162   1.289   3.586
11392SOL    HW145395   6.197   1.336   3.666
11392SOL    HW245396   6.107   1.211   3.614
11393SOL     OW45397   3.140   3.652   3.540
11393SOL    HW145398   3.139   3.585   3.614
11393SOL    HW245399   3.162   3.742   3.578
11394SOL     OW45400   1.758   7.811   4.887
11394SOL    HW145401   1.816   7.890   4.866
11394SOL    HW245402   1.684   7.840   4.947
11395SOL     OW45403   2.418   9.739   4.418
11395SOL    HW145404   2.365   9.697   4.345
11395SOL    HW245405   2.515   9.717   4.406
11396SOL     OW45406   3.989   2.040   2.679
11396SOL    HW145407   3.982   2.012   2.583
11396SOL    HW245408   4.081   2.078   2.696
11397SOL     OW45409   2.647   0.066   4.091
11397SOL    HW145410   2.601   0.063   4.180
11397SOL    HW245411   2.606   9.998   4.030
11398SOL     OW45412   2.126   1.370   2.620
11398SOL    HW145413   2.081   1.330   2.540
11398SOL    HW245414   2.057   1.393   2.688
11399SOL     OW45415   8.281   3.289   1.029
11399SOL    HW145416   8.277   3.336   1.117
11399SOL    HW245417   8.312   3.352   0.959
11400SOL     OW45418   0.846   5.784   2.724
11400SOL    HW145419   0.901   5.712   2.767
11400SOL    HW245420   0.875   5.795   2.628
11401SOL     OW45421   3.658   8.271   1.739
11401SOL    HW145422   3.696   8.364   1.737
11401SOL    HW245423   3.558   8.277   1.740
11402SOL     OW45424   4.257   0.540   3.737
11402SOL    HW145425   4.237   0.610   3.806
11402SOL    HW245426   4.200   0.459   3.755
11403SOL     OW45427   4.617   5.268   1.498
11403SOL    HW145428   4.588   5.227   1.584
11403SOL    HW245429   4.597   5.205   1.423
11404SOL     OW45430   9.108   6.057   3.024
11404SOL    HW145431   9.164   6.106   2.956
11404SOL    HW245432   9.043   6.120   3.066
11405SOL     OW45433   4.536   5.565   2.420
11405SOL    HW145434   4.441   5.568   2.391
11405SOL    HW245435   4.593   5.615   2.355
11406SOL     OW45436   3.788   4.071   5.684
11406SOL    HW145437   3.798   4.149   5.747
11406SOL    HW245438   3.876   4.055   5.638
11407SOL     OW45439   6.897   9.363   2.451
11407SOL    HW145440   6.836   9.425   2.401
11407SOL    HW245441   6.971   9.415   2.493
11408SOL     OW45442   2.298   9.098   6.373
11408SOL    HW145443   2.297   9.198   6.362
11408SOL    HW245444   2.256   9.056   6.293
11409SOL     OW45445   9.455   6.303   0.910
11409SOL    HW145446   9.535   6.293   0.969
11409SOL    HW245447   9.476   6.269   0.819
11410SOL     OW45448   6.239   7.387   4.317
11410SOL    HW145449   6.215   7.469   4.369
11410SOL    HW245450   6.313   7.338   4.363
11411SOL     OW45451   3.473   5.921   6.008
11411SOL    HW145452   3.486   5.847   5.942
11411SOL    HW245453   3.435   6.001   5.962
11412SOL     OW45454   0.217   6.167   1.647
11412SOL    HW145455   0.162   6.214   1.579
11412SOL    HW245456   0.211   6.215   1.734
11413SOL     OW45457   0.120   3.304   2.248
11413SOL    HW145458   0.164   3.367   2.312
11413SOL    HW245459   0.061   3.241   2.299
11414SOL     OW45460   6.342   1.877   1.688
11414SOL    HW145461   6.322   1.867   1.591
11414SOL    HW245462   6.306   1.798   1.738
11415SOL     OW45463   2.472   5.416   1.055
11415SOL    HW145464   2.534   5.356   1.004
11415SOL    HW245465   2.505   5.510   1.048
11416SOL     OW45466   9.495   5.187   5.420
11416SOL    HW145467   9.399   5.198   5.398
11416SOL    HW245468   9.541   5.136   5.347
11417SOL     OW45469   7.585   3.449   2.383
11417SOL    HW145470   7.680   3.421   2.370
11417SOL    HW245471   7.546   3.401   2.462
11418SOL     OW45472   2.810   6.886   5.419
11418SOL    HW145473   2.796   6.837   5.505
11418SOL    HW245474   2.762   6.839   5.345
11419SOL     OW45475   7.749   6.314   3.153
11419SOL    HW145476   7.677   6.307   3.222
11419SOL    HW245477   7.748   6.234   3.094
11420SOL     OW45478   1.671   1.449   5.201
11420SOL    HW145479   1.765   1.479   5.220
11420SOL    HW245480   1.610   1.483   5.272
11421SOL     OW45481   1.972   6.115   4.366
11421SOL    HW145482   2.041   6.154   4.305
11421SOL    HW245483   1.911   6.056   4.314
11422SOL     OW45484   3.500   7.839   4.477
11422SOL    HW145485   3.555   7.894   4.413
11422SOL    HW245486   3.543   7.749   4.488
11423SOL     OW45487   9.691   8.450   1.596
11423SOL    HW145488   9.766   8.402   1.551
11423SOL    HW245489   9.696   8.548   1.575
11424SOL     OW45490   7.623   8.815   4.143
11424SOL    HW145491   7.536   8.851   4.177
11424SOL    HW245492   7.637   8.723   4.180
11425SOL     OW45493   8.021   8.018   4.760
11425SOL    HW145494   8.106   8.067   4.740
11425SOL    HW245495   8.036   7.920   4.754
11426SOL     OW45496   4.051   6.712   1.017
11426SOL    HW145497   4.120   6.663   1.072
11426SOL    HW245498   4.079   6.711   0.921
11427SOL     OW45499   2.412   3.961   5.383
11427SOL    HW145500   2.342   3.939   5.451
11427SOL    HW245501   2.376   4.026   5.317
11428SOL     OW45502   1.570   2.386   4.096
11428SOL    HW145503   1.507   2.334   4.153
11428SOL    HW245504   1.596   2.470   4.143
11429SOL     OW45505   6.805   6.500   5.746
11429SOL    HW145506   6.822   6.548   5.660
11429SOL    HW245507   6.869   6.424   5.756
11430SOL     OW45508   7.755   8.268   3.153
11430SOL    HW145509   7.761   8.169   3.140
11430SOL    HW245510   7.820   8.314   3.093
11431SOL     OW45511   1.876   3.661   0.767
11431SOL    HW145512   1.778   3.642   0.776
11431SOL    HW245513   1.918   3.590   0.710
11432SOL     OW45514   6.700   0.003   5.352
11432SOL    HW145515   6.641   9.971   5.278
11432SOL    HW245516   6.737   9.925   5.402
11433SOL     OW45517   5.181   7.977   2.024
11433SOL    HW145518   5.181   7.899   2.086
11433SOL    HW245519   5.267   8.027   2.033
11434SOL     OW45520   1.225   3.181   2.579
11434SOL    HW145521   1.233   3.262   2.522
11434SOL    HW245522   1.200   3.102   2.523
11435SOL     OW45523   4.315   7.199   4.302
11435SOL    HW145524   4.353   7.184   4.211
11435SOL    HW245525   4.382   7.246   4.359
11436SOL     OW45526   3.636   2.887   5.077
11436SOL    HW145527   3.571   2.817   5.104
11436SOL    HW245528   3.729   2.852   5.087
11437SOL     OW45529   5.476   0.044   2.607
11437SOL    HW145530   5.507   0.043   2.512
11437SOL    HW245531   5.550   0.014   2.667
11438SOL     OW45532   7.837   3.648   2.466
11438SOL    HW145533   7.887   3.721   2.513
11438SOL    HW245534   7.794   3.589   2.534
11439SOL     OW45535   6.765   9.762   2.534
11439SOL    HW145536   6.782   9.727   2.626
11439SOL    HW245537   6.784   9.860   2.532
11440SOL     OW45538   4.953   9.472   2.694
11440SOL    HW145539   4.970   9.396   2.757
11440SOL    HW245540   5.035   9.529   2.687
11441SOL     OW45541   1.195   9.434   2.424
11441SOL    HW145542   1.149   9.353   2.387
11441SOL    HW245543   1.234   9.487   2.348
11442SOL     OW45544   2.174   4.230   0.366
11442SOL    HW145545   2.117   4.173   0.424
11442SOL    HW245546   2.204   4.311   0.418
11443SOL     OW45547   8.172   4.408   0.382
11443SOL    HW145548   8.269   4.387   0.377
11443SOL    HW245549   8.148   4.430   0.477
11444SOL     OW45550   1.009   4.730   2.019
11444SOL    HW145551   0.918   4.689   2.024
11444SOL    HW245552   1.012   4.810   2.080
11445SOL     OW45553   9.133   5.117   4.279
11445SOL    HW145554   9.230   5.122   4.304
11445SOL    HW245555   9.123   5.061   4.196
11446SOL     OW45556   1.167   9.141   3.629
11446SOL    HW145557   1.145   9.085   3.709
11446SOL    HW245558   1.226   9.090   3.567
11447SOL     OW45559   4.604   8.432   2.451
11447SOL    HW145560   4.657   8.422   2.536
11447SOL    HW245561   4.589   8.341   2.411
11448SOL     OW45562   1.187   8.316   6.081
11448SOL    HW145563   1.181   8.305   6.180
11448SOL    HW245564   1.283   8.328   6.055
11449SOL     OW45565   9.276   0.650   2.759
11449SOL    HW145566   9.192   0.631   2.709
11449SOL    HW245567   9.338   0.572   2.752
11450SOL     OW45568   4.607   2.459   4.031
11450SOL    HW145569   4.641   2.367   4.054
11450SOL    HW245570   4.650   2.489   3.945
11451SOL     OW45571   1.782   2.742   3.961
11451SOL    HW145572   1.724   2.777   3.888
11451SOL    HW245573   1.810   2.817   4.021
11452SOL     OW45574   7.840   7.229   2.729
11452SOL    HW145575   7.780   7.309   2.741
11452SOL    HW245576   7.875   7.227   2.636
11453SOL     OW45577   9.765   6.211   1.245
11453SOL    HW145578   9.785   6.188   1.341
11453SOL    HW245579   9.694   6.280   1.242
11454SOL     OW45580   7.718   6.916   6.280
11454SOL    HW145581   7.804   6.941   6.237
11454SOL    HW245582   7.714   6.816   6.290
11455SOL     OW45583   8.007   6.861   3.547
11455SOL    HW145584   7.932   6.882   3.486
11455SOL    HW245585   8.087   6.915   3.522
11456SOL     OW45586   7.071   9.652   4.447
11456SOL    HW145587   7.160   9.697   4.460
11456SOL    HW245588   7.004   9.720   4.417
11457SOL     OW45589   5.574   1.722   4.767
11457SOL    HW145590   5.641   1.653   4.794
11457SOL    HW245591   5.614   1.813   4.777
11458SOL     OW45592   0.669   6.336   4.245
11458SOL    HW145593   0.610   6.285   4.182
11458SOL    HW245594   0.752   6.364   4.196
11459SOL     OW45595   3.262   9.153   1.964
11459SOL    HW145596   3.276   9.054   1.961
11459SOL    HW245597   3.281   9.186   2.057
11460SOL     OW45598   3.093   6.686   1.967
11460SOL    HW145599   3.043   6.618   1.913
11460SOL    HW245600   3.114   6.765   1.910
11461SOL     OW45601   8.827   5.312   4.922
11461SOL    HW145602   8.820   5.304   4.822
11461SOL    HW245603   8.922   5.297   4.950
11462SOL     OW45604   2.958   0.656   4.617
11462SOL    HW145605   2.915   0.671   4.706
11462SOL    HW245606   3.053   0.688   4.619
11463SOL     OW45607   2.822   2.833   5.646
11463SOL    HW145608   2.894   2.806   5.582
11463SOL    HW245609   2.863   2.860   5.733
11464SOL     OW45610   9.818   2.764   4.615
11464SOL    HW145611   9.833   2.674   4.575
11464SOL    HW245612   9.902   2.795   4.659
11465SOL     OW45613   0.131   3.451   1.284
11465SOL    HW145614   0.199   3.384   1.255
11465SOL    HW245615   0.042   3.406   1.295
11466SOL     OW45616   6.788   4.708   1.920
11466SOL    HW145617   6.861   4.769   1.952
11466SOL    HW245618   6.716   4.703   1.990
11467SOL     OW45619   0.868   7.054   0.196
11467SOL    HW145620   0.873   6.985   0.268
11467SOL    HW245621   0.872   7.145   0.237
11468SOL     OW45622   2.646   4.038   1.286
11468SOL    HW145623   2.736   4.078   1.305
11468SOL    HW245624   2.629   3.963   1.350
11469SOL     OW45625   2.497   1.971   1.291
11469SOL    HW145626   2.580   1.928   1.256
11469SOL    HW245627   2.505   1.984   1.390
11470SOL     OW45628   1.985   9.437   4.763
11470SOL    HW145629   2.005   9.393   4.675
11470SOL    HW245630   2.034   9.389   4.836
11471SOL     OW45631   0.869   2.650   6.268
11471SOL    HW145632   0.821   2.712   6.330
11471SOL    HW245633   0.832   2.661   6.176
11472SOL     OW45634   0.251   0.744   5.563
11472SOL    HW145635   0.236   0.772   5.658
11472SOL    HW245636   0.207   0.809   5.502
11473SOL     OW45637   8.002   5.282   0.891
11473SOL    HW145638   7.908   5.250   0.882
11473SOL    HW245639   8.042   5.247   0.976
11474SOL     OW45640   8.234   6.570   2.954
11474SOL    HW145641   8.197   6.662   2.941
11474SOL    HW245642   8.332   6.569   2.932
11475SOL     OW45643   9.245   5.772   5.228
11475SOL    HW145644   9.321   5.714   5.197
11475SOL    HW245645   9.158   5.732   5.197
11476SOL     OW45646   0.333   5.926   1.886
11476SOL    HW145647   0.235   5.941   1.877
11476SOL    HW245648   0.375   6.004   1.933
11477SOL     OW45649   0.442   0.824   3.501
11477SOL    HW145650   0.374   0.758   3.535
11477SOL    HW245651   0.532   0.800   3.536
11478SOL     OW45652   5.109   7.763   5.628
11478SOL    HW145653   5.195   7.802   5.595
11478SOL    HW245654   5.039   7.776   5.558
11479SOL     OW45655   0.671   2.514   3.778
11479SOL    HW145656   0.743   2.566   3.733
11479SOL    HW245657   0.711   2.449   3.842
11480SOL     OW45658   1.534   6.681   2.982
11480SOL    HW145659   1.599   6.748   3.018
11480SOL    HW245660   1.557   6.659   2.887
11481SOL     OW45661   4.169   9.961   4.853
11481SOL    HW145662   4.109   9.883   4.872
11481SOL    HW245663   4.264   9.931   4.855
11482SOL     OW45664   3.433   8.021   2.421
11482SOL    HW145665   3.354   8.082   2.422
11482SOL    HW245666   3.487   8.038   2.338
11483SOL     OW45667   3.299   2.111   3.371
11483SOL    HW145668   3.392   2.129   3.339
11483SOL    HW245669   3.292   2.016   3.401
11484SOL     OW45670   8.023   4.342   2.610
11484SOL    HW145671   8.060   4.354   2.702
11484SOL    HW245672   8.093   4.303   2.551
11485SOL     OW45673   1.959   0.966   6.264
11485SOL    HW145674   1.938   1.062   6.280
11485SOL    HW245675   1.880   0.910   6.291
11486SOL     OW45676   8.663   3.566   6.115
11486SOL    HW145677   8.613   3.579   6.030
11486SOL    HW245678   8.600   3.532   6.185
11487SOL     OW45679   8.587   9.630   0.730
11487SOL    HW145680   8.657   9.579   0.679
11487SOL    HW245681   8.527   9.678   0.666
11488SOL     OW45682   0.769   0.692   6.345
11488SOL    HW145683   0.735   0.784   6.365
11488SOL    HW245684   0.863   0.698   6.312
11489SOL     OW45685   1.536   0.174   2.802
11489SOL    HW145686   1.573   0.252   2.853
11489SOL    HW245687   1.467   0.206   2.738
11490SOL     OW45688   8.763   6.475   0.107
11490SOL    HW145689   8.675   6.506   0.143
11490SOL    HW245690   8.835   6.540   0.133
11491SOL     OW45691   0.534   2.832   6.055
11491SOL    HW145692   0.472   2.886   5.999
11491SOL    HW245693   0.533   2.867   6.149
11492SOL     OW45694   9.298   6.413   3.974
11492SOL    HW145695   9.281   6.505   4.011
11492SOL    HW245696   9.251   6.346   4.031
11493SOL     OW45697   8.157   8.548   5.445
11493SOL    HW145698   8.131   8.619   5.510
11493SOL    HW245699   8.119   8.460   5.476
11494SOL     OW45700   9.611   3.149   4.635
11494SOL    HW145701   9.595   3.055   4.602
11494SOL    HW245702   9.582   3.156   4.730
11495SOL     OW45703   1.402   9.779   3.357
11495SOL    HW145704   1.447   9.857   3.314
11495SOL    HW245705   1.422   9.778   3.455
11496SOL     OW45706   1.538   3.750   2.410
11496SOL    HW145707   1.561   3.724   2.316
11496SOL    HW245708   1.523   3.668   2.464
11497SOL     OW45709   9.009   5.678   5.135
11497SOL    HW145710   8.976   5.586   5.159
11497SOL    HW245711   8.933   5.742   5.138
11498SOL     OW45712   0.441   6.994   6.363
11498SOL    HW145713   0.465   7.087   6.334
11498SOL    HW245714   0.342   6.987   6.374
11499SOL     OW45715   3.116   1.426   5.988
11499SOL    HW145716   3.198   1.390   6.032
11499SOL    HW245717   3.046   1.442   6.058
11500SOL     OW45718   9.799   1.697   4.878
11500SOL    HW145719   9.854   1.674   4.798
11500SOL    HW245720   9.856   1.745   4.944
11501SOL     OW45721   1.396   2.134   0.380
11501SOL    HW145722   1.368   2.164   0.288
11501SOL    HW245723   1.316   2.100   0.429
11502SOL     OW45724   4.967   9.029   2.963
11502SOL    HW145725   4.968   9.042   3.063
11502SOL    HW245726   5.031   8.957   2.938
11503SOL     OW45727   7.203   2.725   4.104
11503SOL    HW145728   7.256   2.680   4.033
11503SOL    HW245729   7.114   2.679   4.114
11504SOL     OW45730   4.445   6.004   3.080
11504SOL    HW145731   4.425   5.952   2.997
11504SOL    HW245732   4.413   5.954   3.160
11505SOL     OW45733   8.151   8.082   2.131
11505SOL    HW145734   8.150   8.179   2.105
11505SOL    HW245735   8.173   8.026   2.051
11506SOL     OW45736   0.015   1.673   3.708
11506SOL    HW145737   0.098   1.728   3.698
11506SOL    HW245738   0.001   1.651   3.804
11507SOL     OW45739   1.951   3.550   2.530
11507SOL    HW145740   1.880   3.620   2.525
11507SOL    HW245741   1.961   3.519   2.625
11508SOL     OW45742   4.106   3.812   0.551
11508SOL    HW145743   4.040   3.852   0.487
11508SOL    HW245744   4.063   3.737   0.601
11509SOL     OW45745   8.106   6.548   0.749
11509SOL    HW145746   8.192   6.547   0.800
11509SOL    HW245747   8.087   6.641   0.718
11510SOL     OW45748   2.897   4.273   2.827
11510SOL    HW145749   2.885   4.277   2.728
11510SOL    HW245750   2.827   4.329   2.872
11511SOL     OW45751   8.530   3.746   1.428
11511SOL    HW145752   8.609   3.777   1.373
11511SOL    HW245753   8.497   3.822   1.483
11512SOL     OW45754   8.606   9.011   5.337
11512SOL    HW145755   8.556   9.055   5.262
11512SOL    HW245756   8.612   8.912   5.320
11513SOL     OW45757   9.833   3.424   2.737
11513SOL    HW145758   9.827   3.396   2.833
11513SOL    HW245759   9.760   3.380   2.685
11514SOL     OW45760   4.477   9.386   3.509
11514SOL    HW145761   4.487   9.383   3.410
11514SOL    HW245762   4.568   9.388   3.551
11515SOL     OW45763   1.569   8.301   1.198
11515SOL    HW145764   1.581   8.223   1.136
11515SOL    HW245765   1.650   8.309   1.257
11516SOL     OW45766   8.457   3.894   0.290
11516SOL    HW145767   8.532   3.886   0.355
11516SOL    HW245768   8.421   3.802   0.269
11517SOL     OW45769   6.390   4.870   0.460
11517SOL    HW145770   6.338   4.859   0.375
11517SOL    HW245771   6.462   4.800   0.464
11518SOL     OW45772   2.051   1.937   5.529
11518SOL    HW145773   1.992   2.012   5.559
11518SOL    HW245774   2.055   1.867   5.600
11519SOL     OW45775   4.017   5.615   1.401
11519SOL    HW145776   3.950   5.660   1.342
11519SOL    HW245777   4.087   5.680   1.429
11520SOL     OW45778   4.241   7.033   5.205
11520SOL    HW145779   4.238   6.943   5.162
11520SOL    HW245780   4.206   7.027   5.299
11521SOL     OW45781   8.704   7.180   3.331
11521SOL    HW145782   8.607   7.198   3.348
11521SOL    HW245783   8.715   7.146   3.237
11522SOL     OW45784   2.779   3.109   1.429
11522SOL    HW145785   2.867   3.156   1.436
11522SOL    HW245786   2.719   3.159   1.366
11523SOL     OW45787   9.054   5.504   0.782
11523SOL    HW145788   9.058   5.602   0.801
11523SOL    HW245789   9.018   5.455   0.861
11524SOL     OW45790   7.490   0.045   5.614
11524SOL    HW145791   7.444   0.118   5.563
11524SOL    HW245792   7.558   0.001   5.555
11525SOL     OW45793   4.630   1.797   1.051
11525SOL    HW145794   4.538   1.836   1.043
11525SOL    HW245795   4.650   1.743   0.969
11526SOL     OW45796   5.504   2.478   0.720
11526SOL    HW145797   5.480   2.508   0.812
11526SOL    HW245798   5.421   2.466   0.666
11527SOL     OW45799   5.911   9.228   6.364
11527SOL    HW145800   5.888   9.134   6.338
11527SOL    HW245801   5.829   9.276   6.394
11528SOL     OW45802   3.843   4.183   3.000
11528SOL    HW145803   3.890   4.256   2.950
11528SOL    HW245804   3.747   4.209   3.015
11529SOL     OW45805   7.634   7.625   3.312
11529SOL    HW145806   7.721   7.607   3.266
11529SOL    HW245807   7.560   7.627   3.245
11530SOL     OW45808   3.377   1.575   3.737
11530SOL    HW145809   3.333   1.520   3.665
11530SOL    HW245810   3.456   1.622   3.699
11531SOL     OW45811   6.578   9.142   2.539
11531SOL    HW145812   6.554   9.235   2.568
11531SOL    HW245813   6.673   9.124   2.564
11532SOL     OW45814   4.611   8.002   1.227
11532SOL    HW145815   4.687   7.975   1.285
11532SOL    HW245816   4.527   8.004   1.281
11533SOL     OW45817   0.284   2.546   0.748
11533SOL    HW145818   0.288   2.644   0.733
11533SOL    HW245819   0.330   2.523   0.834
11534SOL     OW45820   4.335   1.958   2.055
11534SOL    HW145821   4.244   1.924   2.032
11534SOL    HW245822   4.403   1.889   2.033
11535SOL     OW45823   6.915   5.908   5.921
11535SOL    HW145824   6.955   5.850   5.992
11535SOL    HW245825   6.819   5.924   5.943
11536SOL     OW45826   5.133   6.505   2.482
11536SOL    HW145827   5.158   6.491   2.387
11536SOL    HW245828   5.045   6.552   2.487
11537SOL     OW45829   3.538   2.427   0.953
11537SOL    HW145830   3.514   2.508   1.006
11537SOL    HW245831   3.467   2.357   0.963
11538SOL     OW45832   3.912   4.236   0.911
11538SOL    HW145833   3.876   4.329   0.924
11538SOL    HW245834   4.011   4.237   0.924
11539SOL     OW45835   4.455   8.918   3.179
11539SOL    HW145836   4.377   8.975   3.204
11539SOL    HW245837   4.511   8.964   3.110
11540SOL     OW45838   0.957   6.711   1.664
11540SOL    HW145839   0.880   6.726   1.603
11540SOL    HW245840   0.950   6.773   1.742
11541SOL     OW45841   4.028   1.826   1.186
11541SOL    HW145842   3.928   1.827   1.175
11541SOL    HW245843   4.051   1.805   1.281
11542SOL     OW45844   1.092   9.176   5.011
11542SOL    HW145845   1.104   9.224   5.098
11542SOL    HW245846   1.015   9.112   5.019
11543SOL     OW45847   1.574   0.696   1.964
11543SOL    HW145848   1.532   0.606   1.973
11543SOL    HW245849   1.516   0.765   2.008
11544SOL     OW45850   4.131   5.406   1.761
11544SOL    HW145851   4.159   5.393   1.856
11544SOL    HW245852   4.210   5.435   1.707
11545SOL     OW45853   3.138   8.350   3.733
11545SOL    HW145854   3.225   8.349   3.685
11545SOL    HW245855   3.066   8.314   3.673
11546SOL     OW45856   0.528   2.364   2.902
11546SOL    HW145857   0.561   2.270   2.913
11546SOL    HW245858   0.546   2.394   2.808
11547SOL     OW45859   1.627   0.946   1.252
11547SOL    HW145860   1.694   0.964   1.180
11547SOL    HW245861   1.648   1.002   1.332
11548SOL     OW45862   0.378   4.458   5.212
11548SOL    HW145863   0.426   4.394   5.151
11548SOL    HW245864   0.366   4.416   5.301
11549SOL     OW45865   3.085   4.547   1.358
11549SOL    HW145866   3.079   4.622   1.423
11549SOL    HW245867   3.094   4.460   1.407
11550SOL     OW45868   8.804   1.846   1.649
11550SOL    HW145869   8.843   1.779   1.587
11550SOL    HW245870   8.871   1.917   1.669
11551SOL     OW45871   2.661   1.855   3.154
11551SOL    HW145872   2.744   1.802   3.136
11551SOL    HW245873   2.651   1.926   3.083
11552SOL     OW45874   2.776   5.225   5.318
11552SOL    HW145875   2.853   5.253   5.375
11552SOL    HW245876   2.697   5.283   5.337
11553SOL     OW45877   0.489   1.387   6.153
11553SOL    HW145878   0.520   1.461   6.213
11553SOL    HW245879   0.461   1.425   6.065
11554SOL     OW45880   4.843   2.636   5.354
11554SOL    HW145881   4.884   2.560   5.304
11554SOL    HW245882   4.912   2.707   5.371
11555SOL     OW45883   3.230   9.649   3.474
11555SOL    HW145884   3.203   9.570   3.529
11555SOL    HW245885   3.199   9.636   3.379
11556SOL     OW45886   9.045   9.523   0.702
11556SOL    HW145887   9.079   9.576   0.624
11556SOL    HW245888   9.106   9.446   0.719
11557SOL     OW45889   1.149   8.281   6.352
11557SOL    HW145890   1.073   8.218   6.337
11557SOL    HW245891   1.122   8.348   6.422
11558SOL     OW45892   8.701   7.236   4.942
11558SOL    HW145893   8.725   7.295   5.019
11558SOL    HW245894   8.769   7.163   4.934
11559SOL     OW45895   3.224   7.703   5.194
11559SOL    HW145896   3.216   7.776   5.126
11559SOL    HW245897   3.164   7.722   5.271
11560SOL     OW45898   2.709   9.686   4.366
11560SOL    HW145899   2.773   9.611   4.347
11560SOL    HW245900   2.732   9.729   4.453
11561SOL     OW45901   8.352   1.665   2.644
11561SOL    HW145902   8.434   1.625   2.684
11561SOL    HW245903   8.279   1.597   2.642
11562SOL     OW45904   2.310   4.693   1.581
11562SOL    HW145905   2.336   4.604   1.544
11562SOL    HW245906   2.214   4.691   1.609
11563SOL     OW45907   0.713   7.574   4.700
11563SOL    HW145908   0.639   7.634   4.729
11563SOL    HW245909   0.682   7.518   4.623
11564SOL     OW45910   8.790   2.972   0.423
11564SOL    HW145911   8.708   2.918   0.439
11564SOL    HW245912   8.856   2.954   0.495
11565SOL     OW45913   4.746   2.304   0.294
11565SOL    HW145914   4.826   2.337   0.243
11565SOL    HW245915   4.670   2.290   0.230
11566SOL     OW45916   8.174   2.294   1.673
11566SOL    HW145917   8.088   2.244   1.658
11566SOL    HW245918   8.201   2.340   1.589
11567SOL     OW45919   0.957   6.108   2.373
11567SOL    HW145920   0.933   6.012   2.384
11567SOL    HW245921   0.926   6.140   2.284
11568SOL     OW45922   8.949   6.743   1.259
11568SOL    HW145923   8.859   6.709   1.285
11568SOL    HW245924   8.943   6.789   1.171
11569SOL     OW45925   3.025   1.052   5.866
11569SOL    HW145926   2.933   1.090   5.881
11569SOL    HW245927   3.081   1.068   5.947
11570SOL     OW45928   8.181   0.077   1.399
11570SOL    HW145929   8.272   0.096   1.361
11570SOL    HW245930   8.112   0.092   1.329
11571SOL     OW45931   6.371   0.881   0.490
11571SOL    HW145932   6.311   0.935   0.549
11571SOL    HW245933   6.458   0.864   0.538
11572SOL     OW45934   3.388   4.295   3.935
11572SOL    HW145935   3.436   4.236   3.870
11572SOL    HW245936   3.303   4.250   3.964
11573SOL     OW45937   1.505   1.550   5.396
11573SOL    HW145938   1.553   1.624   5.443
11573SOL    HW245939   1.430   1.588   5.342
11574SOL     OW45940   4.104   8.054   4.237
11574SOL    HW145941   4.075   8.055   4.333
11574SOL    HW245942   4.112   8.148   4.204
11575SOL     OW45943   2.259   9.833   3.829
11575SOL    HW145944   2.279   9.739   3.801
11575SOL    HW245945   2.221   9.884   3.752
11576SOL     OW45946   2.270   5.419   6.136
11576SOL    HW145947   2.176   5.417   6.102
11576SOL    HW245948   2.277   5.486   6.210
11577SOL     OW45949   9.177   9.723   1.436
11577SOL    HW145950   9.086   9.722   1.393
11577SOL    HW245951   9.182   9.650   1.504
11578SOL     OW45952   5.543   3.058   0.586
11578SOL    HW145953   5.497   3.114   0.655
11578SOL    HW245954   5.638   3.043   0.613
11579SOL     OW45955   3.361   4.159   2.771
11579SOL    HW145956   3.295   4.230   2.797
11579SOL    HW245957   3.445   4.202   2.738
11580SOL     OW45958   8.473   7.796   5.830
11580SOL    HW145959   8.525   7.867   5.782
11580SOL    HW245960   8.398   7.765   5.771
11581SOL     OW45961   2.676   6.435   5.069
11581SOL    HW145962   2.682   6.335   5.071
11581SOL    HW245963   2.622   6.466   5.147
11582SOL     OW45964   3.981   3.821   5.361
11582SOL    HW145965   3.902   3.761   5.373
11582SOL    HW245966   4.008   3.823   5.265
11583SOL     OW45967   8.914   3.184   4.579
11583SOL    HW145968   8.958   3.157   4.665
11583SOL    HW245969   8.827   3.228   4.598
11584SOL     OW45970   1.525   9.727   2.864
11584SOL    HW145971   1.443   9.670   2.865
11584SOL    HW245972   1.606   9.669   2.865
11585SOL     OW45973   8.250   6.368   6.106
11585SOL    HW145974   8.220   6.455   6.147
11585SOL    HW245975   8.347   6.353   6.127
11586SOL     OW45976   9.965   5.905   0.223
11586SOL    HW145977   9.865   5.906   0.219
11586SOL    HW245978   9.999   5.814   0.201
11587SOL     OW45979   8.267   3.116   2.715
11587SOL    HW145980   8.321   3.035   2.692
11587SOL    HW245981   8.213   3.098   2.797
11588SOL     OW45982   4.157   5.920   3.735
11588SOL    HW145983   4.063   5.950   3.722
11588SOL    HW245984   4.219   5.997   3.716
11589SOL     OW45985   5.588   9.485   3.964
11589SOL    HW145986   5.573   9.387   3.977
11589SOL    HW245987   5.600   9.504   3.866
11590SOL     OW45988   1.520   4.737   2.804
11590SOL    HW145989   1.464   4.720   2.723
11590SOL    HW245990   1.516   4.657   2.865
11591SOL     OW45991   6.389   8.322   5.806
11591SOL    HW145992   6.425   8.230   5.818
11591SOL    HW245993   6.294   8.318   5.776
11592SOL     OW45994   4.921   1.861   0.814
11592SOL    HW145995   5.008   1.875   0.860
11592SOL    HW245996   4.873   1.949   0.806
11593SOL     OW45997   1.233   4.199   3.962
11593SOL    HW145998   1.202   4.282   3.915
11593SOL    HW245999   1.306   4.156   3.909
11594SOL     OW46000   9.903   8.044   1.086
11594SOL    HW146001   9.881   7.948   1.103
11594SOL    HW246002   9.855   8.075   1.004
11595SOL     OW46003   3.151   5.404   0.979
11595SOL    HW146004   3.065   5.368   1.015
11595SOL    HW246005   3.221   5.332   0.983
11596SOL     OW46006   0.844   9.791   1.410
11596SOL    HW146007   0.831   9.730   1.488
11596SOL    HW246008   0.929   9.842   1.421
11597SOL     OW46009   9.927   7.612   2.542
11597SOL    HW146010   9.941   7.591   2.639
11597SOL    HW246011   9.855   7.681   2.533
11598SOL     OW46012   6.292   2.286   0.791
11598SOL    HW146013   6.231   2.251   0.863
11598SOL    HW246014   6.386   2.286   0.825
11599SOL     OW46015   0.462   3.248   3.088
11599SOL    HW146016   0.529   3.217   3.157
11599SOL    HW246017   0.397   3.174   3.070
11600SOL     OW46018   2.283   0.119   5.064
11600SOL    HW146019   2.319   0.073   5.145
11600SOL    HW246020   2.192   0.085   5.043
11601SOL     OW46021   1.334   9.662   1.195
11601SOL    HW146022   1.368   9.600   1.266
11601SOL    HW246023   1.237   9.681   1.211
11602SOL     OW46024   3.711   8.582   0.960
11602SOL    HW146025   3.635   8.523   0.986
11602SOL    HW246026   3.724   8.578   0.861
11603SOL     OW46027   9.612   6.516   3.301
11603SOL    HW146028   9.564   6.432   3.322
11603SOL    HW246029   9.700   6.518   3.349
11604SOL     OW46030   1.016   7.547   4.333
11604SOL    HW146031   1.050   7.462   4.294
11604SOL    HW246032   1.060   7.564   4.422
11605SOL     OW46033   9.329   7.648   1.628
11605SOL    HW146034   9.304   7.557   1.661
11605SOL    HW246035   9.396   7.688   1.691
11606SOL     OW46036   7.722   2.618   2.265
11606SOL    HW146037   7.703   2.617   2.167
11606SOL    HW246038   7.734   2.712   2.296
11607SOL     OW46039   4.135   4.019   4.168
11607SOL    HW146040   4.094   3.929   4.154
11607SOL    HW246041   4.232   4.016   4.146
11608SOL     OW46042   7.512   8.277   3.021
11608SOL    HW146043   7.490   8.373   3.006
11608SOL    HW246044   7.596   8.270   3.074
11609SOL     OW46045   8.683   9.861   4.700
11609SOL    HW146046   8.725   9.846   4.610
11609SOL    HW246047   8.734   9.811   4.770
11610SOL     OW46048   8.258   8.456   5.023
11610SOL    HW146049   8.265   8.366   5.065
11610SOL    HW246050   8.206   8.517   5.083
11611SOL     OW46051   1.588   0.301   2.163
11611SOL    HW146052   1.538   0.343   2.238
11611SOL    HW246053   1.620   0.210   2.191
11612SOL     OW46054   9.445   9.381   5.487
11612SOL    HW146055   9.465   9.449   5.558
11612SOL    HW246056   9.509   9.304   5.496
11613SOL     OW46057   1.185   0.042   2.562
11613SOL    HW146058   1.270   9.998   2.592
11613SOL    HW246059   1.107   9.986   2.587
11614SOL     OW46060   1.773   1.009   2.845
11614SOL    HW146061   1.761   1.000   2.746
11614SOL    HW246062   1.823   0.929   2.879
11615SOL     OW46063   9.314   5.382   5.130
11615SOL    HW146064   9.398   5.331   5.112
11615SOL    HW246065   9.333   5.480   5.125
11616SOL     OW46066   6.709   1.376   4.335
11616SOL    HW146067   6.666   1.314   4.400
11616SOL    HW246068   6.781   1.327   4.284
11617SOL     OW46069   3.034   8.766   2.404
11617SOL    HW146070   2.978   8.816   2.469
11617SOL    HW246071   2.988   8.681   2.378
11618SOL     OW46072   1.572   5.071   5.233
11618SOL    HW146073   1.670   5.057   5.235
11618SOL    HW246074   1.552   5.158   5.187
11619SOL     OW46075   2.467   1.166   5.658
11619SOL    HW146076   2.523   1.112   5.721
11619SOL    HW246077   2.391   1.207   5.709
11620SOL     OW46078   0.578   4.039   3.796
11620SOL    HW146079   0.552   3.997   3.709
11620SOL    HW246080   0.678   4.050   3.799
11621SOL     OW46081   7.529   8.820   2.569
11621SOL    HW146082   7.611   8.876   2.579
11621SOL    HW246083   7.448   8.874   2.592
11622SOL     OW46084   4.636   0.498   3.492
11622SOL    HW146085   4.701   0.468   3.562
11622SOL    HW246086   4.626   0.426   3.423
11623SOL     OW46087   7.387   4.209   5.884
11623SOL    HW146088   7.447   4.133   5.859
11623SOL    HW246089   7.344   4.191   5.972
11624SOL     OW46090   6.728   7.892   4.974
11624SOL    HW146091   6.801   7.953   5.004
11624SOL    HW246092   6.755   7.847   4.889
11625SOL     OW46093   0.015   4.987   3.199
11625SOL    HW146094   9.952   4.918   3.161
11625SOL    HW246095   0.056   4.952   3.283
11626SOL     OW46096   0.856   2.846   2.741
11626SOL    HW146097   0.798   2.765   2.746
11626SOL    HW246098   0.952   2.818   2.743
11627SOL     OW46099   2.564   0.972   3.751
11627SOL    HW146100   2.558   1.043   3.681
11627SOL    HW246101   2.638   0.994   3.814
11628SOL     OW46102   6.138   8.393   5.652
11628SOL    HW146103   6.092   8.360   5.735
11628SOL    HW246104   6.089   8.472   5.616
11629SOL     OW46105   2.655   4.674   4.571
11629SOL    HW146106   2.721   4.682   4.496
11629SOL    HW246107   2.579   4.737   4.555
11630SOL     OW46108   7.098   4.221   1.607
11630SOL    HW146109   7.091   4.142   1.668
11630SOL    HW246110   7.063   4.197   1.517
11631SOL     OW46111   8.643   9.459   3.288
11631SOL    HW146112   8.686   9.549   3.275
11631SOL    HW246113   8.569   9.448   3.222
11632SOL     OW46114   3.769   5.203   4.563
11632SOL    HW146115   3.727   5.282   4.519
11632SOL    HW246116   3.707   5.167   4.633
11633SOL     OW46117   7.916   3.726   1.185
11633SOL    HW146118   8.009   3.752   1.157
11633SOL    HW246119   7.871   3.677   1.110
11634SOL     OW46120   8.007   0.101   5.520
11634SOL    HW146121   7.941   0.112   5.446
11634SOL    HW246122   7.963   0.123   5.607
11635SOL     OW46123   3.550   0.005   5.610
11635SOL    HW146124   3.515   0.051   5.691
11635SOL    HW246125   3.489   0.023   5.532
11636SOL     OW46126   2.328   3.827   0.784
11636SOL    HW146127   2.405   3.839   0.721
11636SOL    HW246128   2.349   3.753   0.848
11637SOL     OW46129   2.985   7.011   5.725
11637SOL    HW146130   3.069   7.004   5.671
11637SOL    HW246131   2.962   6.921   5.763
11638SOL     OW46132   9.000   4.599   0.760
11638SOL    HW146133   8.947   4.524   0.720
11638SOL    HW246134   8.940   4.656   0.816
11639SOL     OW46135   7.530   3.041   1.695
11639SOL    HW146136   7.445   3.088   1.719
11639SOL    HW246137   7.538   3.036   1.596
11640SOL     OW46138   3.686   4.064   4.083
11640SOL    HW146139   3.721   4.152   4.051
11640SOL    HW246140   3.612   4.080   4.148
11641SOL     OW46141   2.506   6.889   1.760
11641SOL    HW146142   2.471   6.803   1.723
11641SOL    HW246143   2.595   6.910   1.719
11642SOL     OW46144   2.969   4.332   3.615
11642SOL    HW146145   2.911   4.362   3.691
11642SOL    HW246146   2.919   4.266   3.559
11643SOL     OW46147   3.986   5.073   5.807
11643SOL    HW146148   4.060   5.138   5.823
11643SOL    HW246149   4.023   4.992   5.761
11644SOL     OW46150   2.159   3.318   3.486
11644SOL    HW146151   2.253   3.326   3.452
11644SOL    HW246152   2.121   3.230   3.458
11645SOL     OW46153   9.743   7.589   4.173
11645SOL    HW146154   9.770   7.613   4.267
11645SOL    HW246155   9.817   7.613   4.110
11646SOL     OW46156   3.723   6.524   2.449
11646SOL    HW146157   3.698   6.567   2.536
11646SOL    HW246158   3.731   6.426   2.462
11647SOL     OW46159   8.056   7.553   4.411
11647SOL    HW146160   8.091   7.586   4.323
11647SOL    HW246161   7.962   7.584   4.424
11648SOL     OW46162   2.921   8.212   5.280
11648SOL    HW146163   2.911   8.134   5.341
11648SOL    HW246164   3.012   8.252   5.291
11649SOL     OW46165   0.517   7.376   2.753
11649SOL    HW146166   0.420   7.390   2.733
11649SOL    HW246167   0.564   7.464   2.756
11650SOL     OW46168   1.442   3.186   3.511
11650SOL    HW146169   1.468   3.276   3.476
11650SOL    HW246170   1.413   3.128   3.434
11651SOL     OW46171   3.754   0.623   6.122
11651SOL    HW146172   3.806   0.567   6.056
11651SOL    HW246173   3.663   0.640   6.086
11652SOL     OW46174   3.277   5.862   1.698
11652SOL    HW146175   3.223   5.779   1.712
11652SOL    HW246176   3.219   5.935   1.662
11653SOL     OW46177   9.487   1.407   3.041
11653SOL    HW146178   9.409   1.468   3.028
11653SOL    HW246179   9.480   1.330   2.978
11654SOL     OW46180   9.466   8.059   3.369
11654SOL    HW146181   9.446   8.010   3.454
11654SOL    HW246182   9.463   8.158   3.386
11655SOL     OW46183   2.812   7.060   6.370
11655SOL    HW146184   2.768   7.043   6.458
11655SOL    HW246185   2.777   7.145   6.331
11656SOL     OW46186   3.516   4.998   1.952
11656SOL    HW146187   3.605   4.966   1.984
11656SOL    HW246188   3.460   4.920   1.923
11657SOL     OW46189   9.685   5.735   5.960
11657SOL    HW146190   9.655   5.830   5.956
11657SOL    HW246191   9.722   5.707   5.871
11658SOL     OW46192   0.863   0.789   4.834
11658SOL    HW146193   0.914   0.770   4.918
11658SOL    HW246194   0.838   0.886   4.831
11659SOL     OW46195   8.088   7.687   1.661
11659SOL    HW146196   8.117   7.682   1.757
11659SOL    HW246197   8.063   7.781   1.639
11660SOL     OW46198   3.341   8.204   0.621
11660SOL    HW146199   3.417   8.250   0.666
11660SOL    HW246200   3.259   8.211   0.677
11661SOL     OW46201   2.880   8.755   4.146
11661SOL    HW146202   2.973   8.789   4.154
11661SOL    HW246203   2.871   8.669   4.197
11662SOL     OW46204   3.562   1.428   2.185
11662SOL    HW146205   3.602   1.406   2.096
11662SOL    HW246206   3.628   1.406   2.257
11663SOL     OW46207   3.757   8.054   4.060
11663SOL    HW146208   3.836   8.100   4.021
11663SOL    HW246209   3.683   8.120   4.074
11664SOL     OW46210   9.685   8.441   6.251
11664SOL    HW146211   9.754   8.381   6.213
11664SOL    HW246212   9.647   8.499   6.179
11665SOL     OW46213   4.782   3.121   0.495
11665SOL    HW146214   4.820   3.214   0.500
11665SOL    HW246215   4.690   3.125   0.457
11666SOL     OW46216   9.520   3.618   1.225
11666SOL    HW146217   9.476   3.553   1.162
11666SOL    HW246218   9.477   3.612   1.315
11667SOL     OW46219   9.495   1.538   2.128
11667SOL    HW146220   9.488   1.459   2.068
11667SOL    HW246221   9.408   1.554   2.174
11668SOL     OW46222   0.015   8.517   5.573
11668SOL    HW146223   0.074   8.480   5.501
11668SOL    HW246224   0.069   8.578   5.632
11669SOL     OW46225   4.350   5.230   1.149
11669SOL    HW146226   4.368   5.310   1.091
11669SOL    HW246227   4.298   5.259   1.229
11670SOL     OW46228   4.775   9.711   2.426
11670SOL    HW146229   4.746   9.667   2.511
11670SOL    HW246230   4.790   9.809   2.443
11671SOL     OW46231   6.348   7.433   5.881
11671SOL    HW146232   6.424   7.401   5.938
11671SOL    HW246233   6.274   7.465   5.940
11672SOL     OW46234   4.794   9.463   6.259
11672SOL    HW146235   4.712   9.505   6.222
11672SOL    HW246236   4.782   9.363   6.261
11673SOL     OW46237   7.516   9.627   4.861
11673SOL    HW146238   7.423   9.593   4.850
11673SOL    HW246239   7.557   9.642   4.772
11674SOL     OW46240   7.408   8.273   5.440
11674SOL    HW146241   7.404   8.354   5.381
11674SOL    HW246242   7.417   8.191   5.383
11675SOL     OW46243   1.844   2.948   2.187
11675SOL    HW146244   1.890   2.881   2.130
11675SOL    HW246245   1.765   2.906   2.231
11676SOL     OW46246   7.479   2.156   1.111
11676SOL    HW146247   7.382   2.171   1.128
11676SOL    HW246248   7.529   2.242   1.127
11677SOL     OW46249   7.690   0.044   4.030
11677SOL    HW146250   7.789   0.039   4.041
11677SOL    HW246251   7.655   9.956   3.999
11678SOL     OW46252   0.753   9.381   1.162
11678SOL    HW146253   0.796   9.332   1.086
11678SOL    HW246254   0.796   9.470   1.173
11679SOL     OW46255   0.029   8.150   5.628
11679SOL    HW146256   0.022   8.220   5.557
11679SOL    HW246257   0.069   8.190   5.710
11680SOL     OW46258   5.057   9.306   5.671
11680SOL    HW146259   5.031   9.402   5.678
11680SOL    HW246260   5.081   9.271   5.761
11681SOL     OW46261   5.489   0.298   4.025
11681SOL    HW146262   5.495   0.201   4.000
11681SOL    HW246263   5.472   0.353   3.943
11682SOL     OW46264   7.327   3.807   1.333
11682SOL    HW146265   7.364   3.783   1.422
11682SOL    HW246266   7.401   3.833   1.271
11683SOL     OW46267   4.096   4.846   5.687
11683SOL    HW146268   4.178   4.820   5.635
11683SOL    HW246269   4.015   4.805   5.646
11684SOL     OW46270   4.001   5.260   3.098
11684SOL    HW146271   3.918   5.235   3.048
11684SOL    HW246272   4.068   5.186   3.091
11685SOL     OW46273   9.248   8.509   4.802
11685SOL    HW146274   9.252   8.437   4.732
11685SOL    HW246275   9.170   8.493   4.862
11686SOL     OW46276   9.537   2.570   2.636
11686SOL    HW146277   9.575   2.549   2.546
11686SOL    HW246278   9.477   2.650   2.628
11687SOL     OW46279   0.646   3.020   5.792
11687SOL    HW146280   0.695   3.071   5.862
11687SOL    HW246281   0.682   3.045   5.702
11688SOL     OW46282   5.868   1.499   3.255
11688SOL    HW146283   5.790   1.438   3.240
11688SOL    HW246284   5.940   1.478   3.189
11689SOL     OW46285   2.062   4.194   1.966
11689SOL    HW146286   2.071   4.268   2.032
11689SOL    HW246287   2.069   4.231   1.873
11690SOL     OW46288   2.302   6.633   4.032
11690SOL    HW146289   2.300   6.692   4.113
11690SOL    HW246290   2.253   6.677   3.957
11691SOL     OW46291   0.999   9.138   1.552
11691SOL    HW146292   1.094   9.121   1.529
11691SOL    HW246293   0.987   9.235   1.574
11692SOL     OW46294   5.944   9.223   5.419
11692SOL    HW146295   5.850   9.207   5.389
11692SOL    HW246296   5.948   9.305   5.476
11693SOL     OW46297   3.855   4.119   2.051
11693SOL    HW146298   3.781   4.057   2.075
11693SOL    HW246299   3.821   4.190   1.990
11694SOL     OW46300   8.761   8.221   2.972
11694SOL    HW146301   8.680   8.264   2.932
11694SOL    HW246302   8.843   8.259   2.929
11695SOL     OW46303   2.292   5.147   1.495
11695SOL    HW146304   2.313   5.219   1.429
11695SOL    HW246305   2.352   5.156   1.575
11696SOL     OW46306   5.017   3.769   1.643
11696SOL    HW146307   5.086   3.718   1.694
11696SOL    HW246308   4.944   3.707   1.615
11697SOL     OW46309   1.552   0.823   5.629
11697SOL    HW146310   1.580   0.913   5.661
11697SOL    HW246311   1.503   0.833   5.542
11698SOL     OW46312   2.333   5.033   1.772
11698SOL    HW146313   2.322   5.055   1.869
11698SOL    HW246314   2.243   5.019   1.730
11699SOL     OW46315   7.379   1.316   0.777
11699SOL    HW146316   7.421   1.303   0.867
11699SOL    HW246317   7.445   1.294   0.706
11700SOL     OW46318   6.160   9.043   5.398
11700SOL    HW146319   6.240   9.102   5.408
11700SOL    HW246320   6.077   9.099   5.402
11701SOL     OW46321   1.628   2.879   5.733
11701SOL    HW146322   1.651   2.788   5.768
11701SOL    HW246323   1.545   2.912   5.779
11702SOL     OW46324   9.134   0.122   4.145
11702SOL    HW146325   9.205   0.158   4.206
11702SOL    HW246326   9.044   0.136   4.187
11703SOL     OW46327   1.434   0.517   5.438
11703SOL    HW146328   1.364   0.545   5.504
11703SOL    HW246329   1.444   0.587   5.368
11704SOL     OW46330   2.579   8.365   5.647
11704SOL    HW146331   2.560   8.320   5.559
11704SOL    HW246332   2.497   8.362   5.704
11705SOL     OW46333   3.285   5.956   3.570
11705SOL    HW146334   3.339   6.037   3.547
11705SOL    HW246335   3.239   5.922   3.489
11706SOL     OW46336   1.199   0.845   5.113
11706SOL    HW146337   1.117   0.796   5.085
11706SOL    HW246338   1.178   0.900   5.195
11707SOL     OW46339   3.158   2.887   0.836
11707SOL    HW146340   3.248   2.892   0.879
11707SOL    HW246341   3.149   2.963   0.771
11708SOL     OW46342   8.758   9.072   4.674
11708SOL    HW146343   8.733   9.034   4.763
11708SOL    HW246344   8.681   9.123   4.637
11709SOL     OW46345   2.355   4.712   2.496
11709SOL    HW146346   2.384   4.794   2.546
11709SOL    HW246347   2.275   4.733   2.441
11710SOL     OW46348   6.406   1.404   1.784
11710SOL    HW146349   6.424   1.349   1.865
11710SOL    HW246350   6.353   1.349   1.718
11711SOL     OW46351   2.917   2.902   6.034
11711SOL    HW146352   2.836   2.954   6.006
11711SOL    HW246353   2.983   2.901   5.959
11712SOL     OW46354   2.806   9.815   6.229
11712SOL    HW146355   2.712   9.784   6.219
11712SOL    HW246356   2.823   9.891   6.166
11713SOL     OW46357   6.827   5.359   1.132
11713SOL    HW146358   6.881   5.433   1.094
11713SOL    HW246359   6.771   5.393   1.207
11714SOL     OW46360   3.183   6.902   4.687
11714SOL    HW146361   3.126   6.820   4.694
11714SOL    HW246362   3.263   6.892   4.747
11715SOL     OW46363   9.076   8.538   4.014
11715SOL    HW146364   8.992   8.535   4.068
11715SOL    HW246365   9.057   8.581   3.925
11716SOL     OW46366   2.166   8.635   4.080
11716SOL    HW146367   2.191   8.539   4.083
11716SOL    HW246368   2.070   8.645   4.109
11717SOL     OW46369   9.198   4.949   6.034
11717SOL    HW146370   9.190   4.905   6.124
11717SOL    HW246371   9.170   5.045   6.041
11718SOL     OW46372   6.872   5.771   0.072
11718SOL    HW146373   6.839   5.845   0.014
11718SOL    HW246374   6.799   5.743   0.135
11719SOL     OW46375   6.734   4.396   1.616
11719SOL    HW146376   6.825   4.420   1.650
11719SOL    HW246377   6.668   4.403   1.691
11720SOL     OW46378   0.647   6.330   3.683
11720SOL    HW146379   0.684   6.361   3.771
11720SOL    HW246380   0.649   6.231   3.679
11721SOL     OW46381   2.424   6.591   2.594
11721SOL    HW146382   2.522   6.584   2.608
11721SOL    HW246383   2.388   6.505   2.557
11722SOL     OW46384   3.755   3.170   0.937
11722SOL    HW146385   3.658   3.180   0.913
11722SOL    HW246386   3.785   3.252   0.987
11723SOL     OW46387   2.388   1.003   0.136
11723SOL    HW146388   2.430   0.967   0.052
11723SOL    HW246389   2.442   0.974   0.215
11724SOL     OW46390   4.285   1.771   5.744
11724SOL    HW146391   4.360   1.704   5.746
11724SOL    HW246392   4.264   1.800   5.837
11725SOL     OW46393   9.301   5.664   1.617
11725SOL    HW146394   9.232   5.620   1.675
11725SOL    HW246395   9.258   5.737   1.564
11726SOL     OW46396   1.608   1.752   3.839
11726SOL    HW146397   1.588   1.832   3.782
11726SOL    HW246398   1.626   1.673   3.781
11727SOL     OW46399   4.032   1.555   4.914
11727SOL    HW146400   4.043   1.654   4.924
11727SOL    HW246401   4.004   1.534   4.821
11728SOL     OW46402   3.225   1.527   4.232
11728SOL    HW146403   3.320   1.502   4.213
11728SOL    HW246404   3.165   1.490   4.161
11729SOL     OW46405   9.001   9.834   6.190
11729SOL    HW146406   8.987   9.930   6.212
11729SOL    HW246407   9.092   9.821   6.150
11730SOL     OW46408   2.828   6.892   3.950
11730SOL    HW146409   2.922   6.865   3.932
11730SOL    HW246410   2.785   6.924   3.865
11731SOL     OW46411   5.349   7.857   5.545
11731SOL    HW146412   5.423   7.821   5.602
11731SOL    HW246413   5.364   7.954   5.527
11732SOL     OW46414   3.373   5.759   4.469
11732SOL    HW146415   3.461   5.787   4.431
11732SOL    HW246416   3.301   5.820   4.435
11733SOL     OW46417   1.218   8.962   0.982
11733SOL    HW146418   1.250   8.993   0.892
11733SOL    HW246419   1.260   9.019   1.053
11734SOL     OW46420   9.929   9.651   2.357
11734SOL    HW146421   9.956   9.580   2.422
11734SOL    HW246422   9.831   9.668   2.364
11735SOL     OW46423   3.056   6.306   6.260
11735SOL    HW146424   2.982   6.367   6.289
11735SOL    HW246425   3.017   6.225   6.215
11736SOL     OW46426   1.388   6.904   2.126
11736SOL    HW146427   1.473   6.876   2.081
11736SOL    HW246428   1.348   6.981   2.077
11737SOL     OW46429   0.197   6.367   5.236
11737SOL    HW146430   0.223   6.296   5.302
11737SOL    HW246431   0.185   6.325   5.146
11738SOL     OW46432   9.978   2.400   4.828
11738SOL    HW146433   0.024   2.454   4.757
11738SOL    HW246434   0.044   2.341   4.873
11739SOL     OW46435   2.987   6.155   2.774
11739SOL    HW146436   2.978   6.065   2.816
11739SOL    HW246437   3.084   6.179   2.767
11740SOL     OW46438   9.062   5.931   0.192
11740SOL    HW146439   9.110   5.849   0.160
11740SOL    HW246440   9.026   5.982   0.114
11741SOL     OW46441   7.268   9.614   4.099
11741SOL    HW146442   7.324   9.592   4.020
11741SOL    HW246443   7.312   9.687   4.151
11742SOL     OW46444   7.353   9.885   2.797
11742SOL    HW146445   7.370   9.858   2.892
11742SOL    HW246446   7.437   9.918   2.756
11743SOL     OW46447   7.736   9.210   3.081
11743SOL    HW146448   7.710   9.149   3.156
11743SOL    HW246449   7.734   9.160   2.995
11744SOL     OW46450   0.773   2.403   4.940
11744SOL    HW146451   0.689   2.453   4.961
11744SOL    HW246452   0.767   2.365   4.847
11745SOL     OW46453   3.983   8.332   2.772
11745SOL    HW146454   4.076   8.343   2.737
11745SOL    HW246455   3.962   8.406   2.836
11746SOL     OW46456   4.053   3.401   0.498
11746SOL    HW146457   4.137   3.347   0.490
11746SOL    HW246458   3.974   3.341   0.499
11747SOL     OW46459   3.039   0.822   3.772
11747SOL    HW146460   3.085   0.883   3.708
11747SOL    HW246461   3.107   0.773   3.827
11748SOL     OW46462   2.788   1.033   3.910
11748SOL    HW146463   2.871   1.087   3.896
11748SOL    HW246464   2.812   0.936   3.916
11749SOL     OW46465   2.844   4.914   4.119
11749SOL    HW146466   2.937   4.883   4.099
11749SOL    HW246467   2.782   4.878   4.050
11750SOL     OW46468   4.527   4.439   2.445
11750SOL    HW146469   4.572   4.524   2.473
11750SOL    HW246470   4.588   4.385   2.387
11751SOL     OW46471   1.344   3.298   3.107
11751SOL    HW146472   1.301   3.387   3.122
11751SOL    HW246473   1.324   3.267   3.014
11752SOL     OW46474   8.440   0.307   6.352
11752SOL    HW146475   8.413   0.318   6.447
11752SOL    HW246476   8.391   0.229   6.312
11753SOL     OW46477   3.651   9.940   0.684
11753SOL    HW146478   3.742   9.957   0.647
11753SOL    HW246479   3.620   9.849   0.656
11754SOL     OW46480   9.691   5.875   0.222
11754SOL    HW146481   9.622   5.944   0.243
11754SOL    HW246482   9.692   5.805   0.293
11755SOL     OW46483   0.911   7.406   3.623
11755SOL    HW146484   0.988   7.355   3.585
11755SOL    HW246485   0.848   7.342   3.668
11756SOL     OW46486   8.655   0.017   3.053
11756SOL    HW146487   8.706   0.007   3.138
11756SOL    HW246488   8.714   9.993   2.976
11757SOL     OW46489   2.768   4.000   4.173
11757SOL    HW146490   2.675   4.032   4.192
11757SOL    HW246491   2.825   4.077   4.144
11758SOL     OW46492   8.151   8.828   2.594
11758SOL    HW146493   8.183   8.757   2.657
11758SOL    HW246494   8.056   8.810   2.571
11759SOL     OW46495   1.528   9.302   3.389
11759SOL    HW146496   1.569   9.388   3.359
11759SOL    HW246497   1.599   9.243   3.427
11760SOL     OW46498   9.093   4.782   5.844
11760SOL    HW146499   9.127   4.837   5.921
11760SOL    HW246500   9.003   4.745   5.868
11761SOL     OW46501   2.862   2.116   3.953
11761SOL    HW146502   2.959   2.111   3.975
11761SOL    HW246503   2.851   2.136   3.856
11762SOL     OW46504   7.539   6.020   5.385
11762SOL    HW146505   7.462   5.989   5.329
11762SOL    HW246506   7.542   5.968   5.470
11763SOL     OW46507   4.134   8.672   1.231
11763SOL    HW146508   4.158   8.748   1.171
11763SOL    HW246509   4.112   8.708   1.322
11764SOL     OW46510   6.578   8.074   6.330
11764SOL    HW146511   6.596   8.172   6.325
11764SOL    HW246512   6.664   8.023   6.330
11765SOL     OW46513   0.973   4.931   6.072
11765SOL    HW146514   1.032   4.937   6.153
11765SOL    HW246515   0.947   4.836   6.056
11766SOL     OW46516   6.372   0.400   5.377
11766SOL    HW146517   6.331   0.435   5.461
11766SOL    HW246518   6.436   0.326   5.399
11767SOL     OW46519   6.566   1.398   3.267
11767SOL    HW146520   6.649   1.359   3.308
11767SOL    HW246521   6.493   1.401   3.335
11768SOL     OW46522   3.589   5.363   1.424
11768SOL    HW146523   3.600   5.265   1.408
11768SOL    HW246524   3.678   5.403   1.446
11769SOL     OW46525   9.898   0.183   1.983
11769SOL    HW146526   9.819   0.128   1.957
11769SOL    HW246527   9.972   0.122   2.012
11770SOL     OW46528   5.712   5.084   2.088
11770SOL    HW146529   5.773   5.006   2.078
11770SOL    HW246530   5.758   5.166   2.054
11771SOL     OW46531   8.169   4.256   0.673
11771SOL    HW146532   8.225   4.183   0.633
11771SOL    HW246533   8.103   4.216   0.737
11772SOL     OW46534   8.605   6.396   4.383
11772SOL    HW146535   8.684   6.362   4.435
11772SOL    HW246536   8.563   6.320   4.333
11773SOL     OW46537   4.787   7.030   2.564
11773SOL    HW146538   4.855   7.002   2.632
11773SOL    HW246539   4.786   7.130   2.558
11774SOL     OW46540   2.016   1.377   4.444
11774SOL    HW146541   2.028   1.362   4.346
11774SOL    HW246542   1.922   1.407   4.461
11775SOL     OW46543   1.468   6.794   1.121
11775SOL    HW146544   1.459   6.760   1.214
11775SOL    HW246545   1.523   6.730   1.067
11776SOL     OW46546   5.913   8.142   3.802
11776SOL    HW146547   5.842   8.205   3.771
11776SOL    HW246548   5.882   8.096   3.885
11777SOL     OW46549   3.431   0.316   4.515
11777SOL    HW146550   3.361   0.387   4.503
11777SOL    HW246551   3.517   0.346   4.473
11778SOL     OW46552   7.531   1.341   2.618
11778SOL    HW146553   7.569   1.262   2.571
11778SOL    HW246554   7.498   1.407   2.551
11779SOL     OW46555   7.664   9.042   3.285
11779SOL    HW146556   7.720   9.090   3.351
11779SOL    HW246557   7.586   8.999   3.332
11780SOL     OW46558   2.128   7.477   2.022
11780SOL    HW146559   2.174   7.402   2.071
11780SOL    HW246560   2.031   7.475   2.043
11781SOL     OW46561   8.614   5.705   3.326
11781SOL    HW146562   8.655   5.796   3.330
11781SOL    HW246563   8.601   5.671   3.419
11782SOL     OW46564   7.531   3.826   6.201
11782SOL    HW146565   7.586   3.778   6.269
11782SOL    HW246566   7.566   3.806   6.110
11783SOL     OW46567   2.709   2.787   2.262
11783SOL    HW146568   2.639   2.738   2.315
11783SOL    HW246569   2.667   2.826   2.180
11784SOL     OW46570   8.463   5.418   2.901
11784SOL    HW146571   8.453   5.356   2.823
11784SOL    HW246572   8.552   5.463   2.897
11785SOL     OW46573   6.178   5.010   0.593
11785SOL    HW146574   6.180   4.972   0.685
11785SOL    HW246575   6.253   4.971   0.539
11786SOL     OW46576   1.896   2.140   5.642
11786SOL    HW146577   1.796   2.146   5.634
11786SOL    HW246578   1.921   2.135   5.738
11787SOL     OW46579   0.594   2.648   1.941
11787SOL    HW146580   0.519   2.714   1.941
11787SOL    HW246581   0.665   2.679   1.877
11788SOL     OW46582   1.013   4.509   0.410
11788SOL    HW146583   0.914   4.522   0.409
11788SOL    HW246584   1.035   4.414   0.387
11789SOL     OW46585   7.839   0.652   4.602
11789SOL    HW146586   7.874   0.559   4.609
11789SOL    HW246587   7.744   0.650   4.573
11790SOL     OW46588   6.019   9.975   6.096
11790SOL    HW146589   6.021   9.920   6.180
11790SOL    HW246590   6.095   9.948   6.037
11791SOL     OW46591   8.038   4.217   1.711
11791SOL    HW146592   7.986   4.222   1.796
11791SOL    HW246593   8.050   4.121   1.684
11792SOL     OW46594   9.312   3.299   6.219
11792SOL    HW146595   9.317   3.399   6.220
11792SOL    HW246596   9.391   3.262   6.268
11793SOL     OW46597   6.130   9.834   2.317
11793SOL    HW146598   6.117   9.873   2.408
11793SOL    HW246599   6.170   9.902   2.256
11794SOL     OW46600   2.593   4.984   2.999
11794SOL    HW146601   2.613   5.075   2.963
11794SOL    HW246602   2.612   4.983   3.098
11795SOL     OW46603   3.127   2.209   5.718
11795SOL    HW146604   3.138   2.279   5.788
11795SOL    HW246605   3.214   2.193   5.672
11796SOL     OW46606   9.458   1.528   3.488
11796SOL    HW146607   9.417   1.444   3.453
11796SOL    HW246608   9.388   1.599   3.494
11797SOL     OW46609   5.879   5.179   1.734
11797SOL    HW146610   5.952   5.136   1.681
11797SOL    HW246611   5.828   5.242   1.676
11798SOL     OW46612   4.550   3.365   1.629
11798SOL    HW146613   4.479   3.432   1.607
11798SOL    HW246614   4.616   3.406   1.692
11799SOL     OW46615   7.776   9.435   6.279
11799SOL    HW146616   7.736   9.351   6.314
11799SOL    HW246617   7.875   9.434   6.293
11800SOL     OW46618   2.041   5.467   3.754
11800SOL    HW146619   2.123   5.433   3.708
11800SOL    HW246620   2.046   5.566   3.763
11801SOL     OW46621   5.394   8.065   4.677
11801SOL    HW146622   5.345   8.150   4.660
11801SOL    HW246623   5.346   8.011   4.747
11802SOL     OW46624   3.028   5.479   4.424
11802SOL    HW146625   3.069   5.539   4.492
11802SOL    HW246626   2.990   5.398   4.470
11803SOL     OW46627   6.509   8.052   5.720
11803SOL    HW146628   6.608   8.041   5.736
11803SOL    HW246629   6.493   8.082   5.626
11804SOL     OW46630   3.118   7.502   3.522
11804SOL    HW146631   3.062   7.421   3.502
11804SOL    HW246632   3.206   7.493   3.477
11805SOL     OW46633   9.348   6.040   0.002
11805SOL    HW146634   9.351   6.028   8.091
11805SOL    HW246635   9.280   6.110   0.025
11806SOL     OW46636   2.350   4.711   4.084
11806SOL    HW146637   2.392   4.701   3.994
11806SOL    HW246638   2.251   4.715   4.074
11807SOL     OW46639   9.830   8.164   2.648
11807SOL    HW146640   9.770   8.092   2.683
11807SOL    HW246641   9.923   8.149   2.682
11808SOL     OW46642   9.624   5.860   2.729
11808SOL    HW146643   9.647   5.945   2.777
11808SOL    HW246644   9.525   5.847   2.730
11809SOL     OW46645   8.927   2.758   5.104
11809SOL    HW146646   8.903   2.804   5.190
11809SOL    HW246647   9.026   2.769   5.088
11810SOL     OW46648   6.016   1.803   3.975
11810SOL    HW146649   6.055   1.713   3.956
11810SOL    HW246650   5.990   1.847   3.888
11811SOL     OW46651   3.155   9.903   5.140
11811SOL    HW146652   3.109   9.848   5.209
11811SOL    HW246653   3.107   9.894   5.052
11812SOL     OW46654   7.208   1.072   1.417
11812SOL    HW146655   7.136   1.054   1.484
11812SOL    HW246656   7.289   1.019   1.440
11813SOL     OW46657   2.873   7.787   1.460
11813SOL    HW146658   2.878   7.755   1.365
11813SOL    HW246659   2.811   7.865   1.465
11814SOL     OW46660   3.437   3.638   4.102
11814SOL    HW146661   3.431   3.542   4.128
11814SOL    HW246662   3.389   3.652   4.016
11815SOL     OW46663   6.165   3.803   0.445
11815SOL    HW146664   6.249   3.804   0.500
11815SOL    HW246665   6.176   3.741   0.368
11816SOL     OW46666   8.405   8.907   1.093
11816SOL    HW146667   8.379   9.002   1.079
11816SOL    HW246668   8.401   8.885   1.191
11817SOL     OW46669   8.663   0.147   0.647
11817SOL    HW146670   8.622   0.237   0.628
11817SOL    HW246671   8.639   0.119   0.741
11818SOL     OW46672   9.789   9.033   3.412
11818SOL    HW146673   9.844   9.109   3.448
11818SOL    HW246674   9.847   8.974   3.355
11819SOL     OW46675   4.218   7.692   2.597
11819SOL    HW146676   4.196   7.770   2.538
11819SOL    HW246677   4.133   7.653   2.633
11820SOL     OW46678   4.555   4.032   2.225
11820SOL    HW146679   4.603   3.990   2.148
11820SOL    HW246680   4.458   4.042   2.202
11821SOL     OW46681   9.342   6.546   0.987
11821SOL    HW146682   9.378   6.459   0.954
11821SOL    HW246683   9.416   6.600   1.026
11822SOL     OW46684   4.395   9.024   5.018
11822SOL    HW146685   4.438   8.960   5.082
11822SOL    HW246686   4.340   9.090   5.069
11823SOL     OW46687   3.020   3.629   3.294
11823SOL    HW146688   3.064   3.591   3.213
11823SOL    HW246689   3.083   3.622   3.372
11824SOL     OW46690   4.837   4.149   1.015
11824SOL    HW146691   4.871   4.079   1.077
11824SOL    HW246692   4.910   4.216   0.999
11825SOL     OW46693   8.203   4.643   5.435
11825SOL    HW146694   8.297   4.623   5.463
11825SOL    HW246695   8.162   4.708   5.499
11826SOL     OW46696   3.256   3.016   1.198
11826SOL    HW146697   3.168   3.050   1.164
11826SOL    HW246698   3.288   3.075   1.273
11827SOL     OW46699   7.868   6.345   3.492
11827SOL    HW146700   7.853   6.247   3.479
11827SOL    HW246701   7.962   6.361   3.521
11828SOL     OW46702   2.865   7.259   4.648
11828SOL    HW146703   2.866   7.359   4.652
11828SOL    HW246704   2.941   7.222   4.701
11829SOL     OW46705   1.265   6.874   0.781
11829SOL    HW146706   1.262   6.779   0.750
11829SOL    HW246707   1.242   6.878   0.878
11830SOL     OW46708   6.321   0.937   5.757
11830SOL    HW146709   6.402   0.968   5.806
11830SOL    HW246710   6.347   0.873   5.685
11831SOL     OW46711   1.408   1.253   1.793
11831SOL    HW146712   1.459   1.277   1.876
11831SOL    HW246713   1.320   1.300   1.792
11832SOL     OW46714   3.633   8.487   2.910
11832SOL    HW146715   3.730   8.509   2.920
11832SOL    HW246716   3.589   8.485   3.000
11833SOL     OW46717   8.688   4.674   4.625
11833SOL    HW146718   8.748   4.624   4.687
11833SOL    HW246719   8.743   4.733   4.566
11834SOL     OW46720   8.585   4.037   0.081
11834SOL    HW146721   8.545   3.986   0.158
11834SOL    HW246722   8.519   4.040   0.006
11835SOL     OW46723   7.717   7.219   5.371
11835SOL    HW146724   7.702   7.200   5.468
11835SOL    HW246725   7.702   7.316   5.353
11836SOL     OW46726   0.960   6.985   2.125
11836SOL    HW146727   0.907   7.070   2.121
11836SOL    HW246728   1.013   6.984   2.210
11837SOL     OW46729   2.624   3.270   5.509
11837SOL    HW146730   2.570   3.341   5.463
11837SOL    HW246731   2.720   3.298   5.511
11838SOL     OW46732   9.670   4.305   4.245
11838SOL    HW146733   9.655   4.208   4.225
11838SOL    HW246734   9.641   4.324   4.339
11839SOL     OW46735   3.348   1.135   4.859
11839SOL    HW146736   3.302   1.176   4.781
11839SOL    HW246737   3.319   1.040   4.868
11840SOL     OW46738   4.320   5.902   2.006
11840SOL    HW146739   4.314   6.001   1.990
11840SOL    HW246740   4.280   5.880   2.095
11841SOL     OW46741   8.669   2.445   5.382
11841SOL    HW146742   8.700   2.367   5.437
11841SOL    HW246743   8.729   2.455   5.302
11842SOL     OW46744   0.104   7.462   1.859
11842SOL    HW146745   0.144   7.376   1.892
11842SOL    HW246746   0.005   7.460   1.873
11843SOL     OW46747   1.849   8.391   0.422
11843SOL    HW146748   1.881   8.478   0.460
11843SOL    HW246749   1.926   8.328   0.414
11844SOL     OW46750   3.483   9.510   2.724
11844SOL    HW146751   3.533   9.437   2.678
11844SOL    HW246752   3.465   9.484   2.819
11845SOL     OW46753   7.745   8.215   2.247
11845SOL    HW146754   7.656   8.179   2.275
11845SOL    HW246755   7.732   8.285   2.177
11846SOL     OW46756   3.253   5.523   1.548
11846SOL    HW146757   3.252   5.423   1.548
11846SOL    HW246758   3.196   5.557   1.623
11847SOL     OW46759   9.680   5.110   3.346
11847SOL    HW146760   9.619   5.127   3.268
11847SOL    HW246761   9.681   5.012   3.366
11848SOL     OW46762   5.479   0.290   1.470
11848SOL    HW146763   5.571   0.265   1.503
11848SOL    HW246764   5.487   0.342   1.385
11849SOL     OW46765   8.053   9.555   2.682
11849SOL    HW146766   8.032   9.466   2.723
11849SOL    HW246767   7.980   9.581   2.619
11850SOL     OW46768   7.313   1.498   5.913
11850SOL    HW146769   7.335   1.571   5.849
11850SOL    HW246770   7.278   1.537   5.998
11851SOL     OW46771   9.253   1.123   2.716
11851SOL    HW146772   9.290   1.077   2.636
11851SOL    HW246773   9.177   1.182   2.688
11852SOL     OW46774   1.133   8.835   4.747
11852SOL    HW146775   1.165   8.929   4.761
11852SOL    HW246776   1.121   8.818   4.649
11853SOL     OW46777   0.021   2.518   5.754
11853SOL    HW146778   0.090   2.453   5.722
11853SOL    HW246779   9.930   2.483   5.733
11854SOL     OW46780   3.306   5.785   0.468
11854SOL    HW146781   3.275   5.799   0.562
11854SOL    HW246782   3.405   5.801   0.463
11855SOL     OW46783   8.982   2.239   2.036
11855SOL    HW146784   8.941   2.248   2.127
11855SOL    HW246785   9.068   2.290   2.033
11856SOL     OW46786   9.182   4.520   0.958
11856SOL    HW146787   9.121   4.533   0.881
11856SOL    HW246788   9.146   4.448   1.018
11857SOL     OW46789   9.301   2.878   3.109
11857SOL    HW146790   9.319   2.780   3.110
11857SOL    HW246791   9.204   2.895   3.124
11858SOL     OW46792   2.589   5.359   4.319
11858SOL    HW146793   2.659   5.421   4.284
11858SOL    HW246794   2.586   5.277   4.261
11859SOL     OW46795   3.011   3.646   1.261
11859SOL    HW146796   3.063   3.611   1.339
11859SOL    HW246797   2.914   3.649   1.284
11860SOL     OW46798   4.045   8.780   2.884
11860SOL    HW146799   4.114   8.766   2.955
11860SOL    HW246800   4.027   8.878   2.874
11861SOL     OW46801   8.704   5.543   4.133
11861SOL    HW146802   8.671   5.458   4.173
11861SOL    HW246803   8.788   5.571   4.179
11862SOL     OW46804   8.167   5.404   6.252
11862SOL    HW146805   8.222   5.386   6.171
11862SOL    HW246806   8.094   5.469   6.230
11863SOL     OW46807   3.407   3.851   0.820
11863SOL    HW146808   3.503   3.878   0.816
11863SOL    HW246809   3.400   3.751   0.827
11864SOL     OW46810   3.075   3.515   4.123
11864SOL    HW146811   3.018   3.479   4.050
11864SOL    HW246812   3.159   3.461   4.130
11865SOL     OW46813   1.711   7.521   4.038
11865SOL    HW146814   1.627   7.495   4.086
11865SOL    HW246815   1.767   7.577   4.098
11866SOL     OW46816   4.919   3.702   0.905
11866SOL    HW146817   4.943   3.706   1.002
11866SOL    HW246818   4.911   3.795   0.870
11867SOL     OW46819   2.009   6.717   5.523
11867SOL    HW146820   2.057   6.804   5.535
11867SOL    HW246821   1.976   6.710   5.429
11868SOL     OW46822   4.071   3.067   5.791
11868SOL    HW146823   4.090   3.141   5.856
11868SOL    HW246824   4.157   3.035   5.751
11869SOL     OW46825   4.459   4.152   3.906
11869SOL    HW146826   4.543   4.142   3.852
11869SOL    HW246827   4.380   4.129   3.850
11870SOL     OW46828   3.510   5.191   5.846
11870SOL    HW146829   3.493   5.149   5.757
11870SOL    HW246830   3.444   5.156   5.913
11871SOL     OW46831   3.749   2.243   3.378
11871SOL    HW146832   3.756   2.171   3.448
11871SOL    HW246833   3.669   2.226   3.321
11872SOL     OW46834   0.800   6.465   3.496
11872SOL    HW146835   0.890   6.480   3.537
11872SOL    HW246836   0.743   6.414   3.560
11873SOL     OW46837   4.819   0.451   2.473
11873SOL    HW146838   4.888   0.429   2.404
11873SOL    HW246839   4.734   0.402   2.453
11874SOL     OW46840   0.183   3.407   4.745
11874SOL    HW146841   0.084   3.402   4.761
11874SOL    HW246842   0.213   3.502   4.748
11875SOL     OW46843   9.730   4.388   3.437
11875SOL    HW146844   9.698   4.343   3.354
11875SOL    HW246845   9.801   4.455   3.413
11876SOL     OW46846   9.836   0.767   4.988
11876SOL    HW146847   9.873   0.772   4.895
11876SOL    HW246848   9.798   0.675   5.004
11877SOL     OW46849   8.571   2.671   3.063
11877SOL    HW146850   8.477   2.640   3.052
11877SOL    HW246851   8.572   2.757   3.115
11878SOL     OW46852   1.854   0.397   6.104
11878SOL    HW146853   1.851   0.352   6.194
11878SOL    HW246854   1.823   0.332   6.034
11879SOL     OW46855   7.579   2.789   0.935
11879SOL    HW146856   7.616   2.725   0.868
11879SOL    HW246857   7.529   2.737   1.006
11880SOL     OW46858   2.901   8.262   0.517
11880SOL    HW146859   2.964   8.232   0.446
11880SOL    HW246860   2.948   8.265   0.605
11881SOL     OW46861   0.463   9.760   3.352
11881SOL    HW146862   0.421   9.798   3.434
11881SOL    HW246863   0.522   9.683   3.377
11882SOL     OW46864   2.104   8.400   4.484
11882SOL    HW146865   2.013   8.376   4.450
11882SOL    HW246866   2.098   8.481   4.542
11883SOL     OW46867   3.014   4.511   5.824
11883SOL    HW146868   2.921   4.530   5.854
11883SOL    HW246869   3.031   4.554   5.735
11884SOL     OW46870   8.372   6.300   3.509
11884SOL    HW146871   8.439   6.357   3.558
11884SOL    HW246872   8.280   6.328   3.536
11885SOL     OW46873   8.759   8.575   2.652
11885SOL    HW146874   8.704   8.492   2.642
11885SOL    HW246875   8.739   8.618   2.739
11886SOL     OW46876   0.421   6.843   5.707
11886SOL    HW146877   0.494   6.775   5.702
11886SOL    HW246878   0.456   6.931   5.676
11887SOL     OW46879   5.236   1.266   3.506
11887SOL    HW146880   5.323   1.220   3.524
11887SOL    HW246881   5.241   1.313   3.418
11888SOL     OW46882   7.669   2.504   6.014
11888SOL    HW146883   7.752   2.560   6.020
11888SOL    HW246884   7.687   2.414   6.055
11889SOL     OW46885   4.970   1.378   0.317
11889SOL    HW146886   4.922   1.407   0.399
11889SOL    HW246887   5.014   1.457   0.274
11890SOL     OW46888   2.439   1.532   5.422
11890SOL    HW146889   2.496   1.451   5.438
11890SOL    HW246890   2.484   1.592   5.356
11891SOL     OW46891   2.880   1.692   3.104
11891SOL    HW146892   2.881   1.654   3.012
11891SOL    HW246893   2.857   1.620   3.170
11892SOL     OW46894   0.431   1.606   1.627
11892SOL    HW146895   0.453   1.509   1.615
11892SOL    HW246896   0.365   1.634   1.557
11893SOL     OW46897   7.763   2.553   4.542
11893SOL    HW146898   7.746   2.484   4.472
11893SOL    HW246899   7.859   2.578   4.542
11894SOL     OW46900   4.282   1.332   3.262
11894SOL    HW146901   4.332   1.418   3.270
11894SOL    HW246902   4.345   1.258   3.242
11895SOL     OW46903   9.284   0.970   0.665
11895SOL    HW146904   9.328   1.009   0.746
11895SOL    HW246905   9.239   1.043   0.614
11896SOL     OW46906   9.443   2.552   2.058
11896SOL    HW146907   9.469   2.587   1.968
11896SOL    HW246908   9.446   2.627   2.125
11897SOL     OW46909   0.911   4.194   4.699
11897SOL    HW146910   0.960   4.226   4.780
11897SOL    HW246911   0.812   4.201   4.715
11898SOL     OW46912   8.245   6.517   1.518
11898SOL    HW146913   8.345   6.515   1.523
11898SOL    HW246914   8.209   6.424   1.517
11899SOL     OW46915   1.399   5.375   5.735
11899SOL    HW146916   1.475   5.440   5.741
11899SOL    HW246917   1.312   5.424   5.733
11900SOL     OW46918   0.774   4.023   3.074
11900SOL    HW146919   0.784   4.112   3.119
11900SOL    HW246920   0.708   4.031   3.000
11901SOL     OW46921   0.986   4.502   4.899
11901SOL    HW146922   1.069   4.559   4.902
11901SOL    HW246923   1.010   4.407   4.920
11902SOL     OW46924   9.339   7.986   4.412
11902SOL    HW146925   9.415   8.044   4.441
11902SOL    HW246926   9.374   7.898   4.379
11903SOL     OW46927   4.184   4.175   5.386
11903SOL    HW146928   4.267   4.139   5.342
11903SOL    HW246929   4.205   4.261   5.432
11904SOL     OW46930   3.078   9.456   3.624
11904SOL    HW146931   3.018   9.529   3.590
11904SOL    HW246932   3.078   9.458   3.724
11905SOL     OW46933   8.771   3.706   2.440
11905SOL    HW146934   8.686   3.698   2.387
11905SOL    HW246935   8.811   3.796   2.425
11906SOL     OW46936   1.849   3.072   5.458
11906SOL    HW146937   1.824   2.992   5.404
11906SOL    HW246938   1.932   3.053   5.510
11907SOL     OW46939   0.654   7.547   1.022
11907SOL    HW146940   0.750   7.548   0.994
11907SOL    HW246941   0.600   7.602   0.959
11908SOL     OW46942   3.593   0.649   3.278
11908SOL    HW146943   3.555   0.621   3.367
11908SOL    HW246944   3.691   0.632   3.278
11909SOL     OW46945   1.157   2.968   2.413
11909SOL    HW146946   1.078   3.006   2.365
11909SOL    HW246947   1.148   2.869   2.419
11910SOL     OW46948   1.890   0.176   4.362
11910SOL    HW146949   1.942   0.135   4.287
11910SOL    HW246950   1.940   0.256   4.397
11911SOL     OW46951   5.827   0.883   3.859
11911SOL    HW146952   5.734   0.900   3.827
11911SOL    HW246953   5.883   0.852   3.782
11912SOL     OW46954   3.696   0.309   0.140
11912SOL    HW146955   3.734   0.381   0.198
11912SOL    HW246956   3.768   0.243   0.118
11913SOL     OW46957   5.145   8.474   5.894
11913SOL    HW146958   5.174   8.403   5.830
11913SOL    HW246959   5.223   8.530   5.919
11914SOL     OW46960   5.321   9.706   5.066
11914SOL    HW146961   5.409   9.659   5.073
11914SOL    HW246962   5.247   9.639   5.077
11915SOL     OW46963   1.361   6.079   4.327
11915SOL    HW146964   1.327   6.165   4.365
11915SOL    HW246965   1.415   6.031   4.397
11916SOL     OW46966   6.242   1.811   5.383
11916SOL    HW146967   6.220   1.740   5.451
11916SOL    HW246968   6.215   1.900   5.419
11917SOL     OW46969   1.374   0.833   4.908
11917SOL    HW146970   1.384   0.739   4.877
11917SOL    HW246971   1.313   0.836   4.987
11918SOL     OW46972   3.402   4.505   0.780
11918SOL    HW146973   3.473   4.553   0.832
11918SOL    HW246974   3.316   4.556   0.786
11919SOL     OW46975   1.688   7.021   3.302
11919SOL    HW146976   1.605   7.019   3.357
11919SOL    HW246977   1.683   6.950   3.231
11920SOL     OW46978   2.043   5.520   3.112
11920SOL    HW146979   1.971   5.487   3.050
11920SOL    HW246980   2.128   5.532   3.060
11921SOL     OW46981   9.559   6.353   1.742
11921SOL    HW146982   9.573   6.263   1.702
11921SOL    HW246983   9.485   6.348   1.810
11922SOL     OW46984   7.801   3.268   1.473
11922SOL    HW146985   7.828   3.212   1.395
11922SOL    HW246986   7.818   3.364   1.453
11923SOL     OW46987   0.013   5.427   1.184
11923SOL    HW146988   9.962   5.431   1.270
11923SOL    HW246989   0.058   5.338   1.176
11924SOL     OW46990   7.642   1.810   3.026
11924SOL    HW146991   7.576   1.871   2.984
11924SOL    HW246992   7.641   1.722   2.979
11925SOL     OW46993   0.967   3.497   1.044
11925SOL    HW146994   0.967   3.452   0.955
11925SOL    HW246995   1.045   3.560   1.049
11926SOL     OW46996   0.131   3.083   5.063
11926SOL    HW146997   0.178   2.999   5.036
11926SOL    HW246998   0.058   3.103   4.999
11927SOL     OW46999   0.364   0.487   5.288
11927SOL    HW147000   0.314   0.491   5.374
11927SOL    HW247001   0.338   0.565   5.231
11928SOL     OW47002   4.587   4.423   3.607
11928SOL    HW147003   4.565   4.330   3.577
11928SOL    HW247004   4.544   4.489   3.546
11929SOL     OW47005   4.923   2.515   4.481
11929SOL    HW147006   5.000   2.468   4.524
11929SOL    HW247007   4.957   2.594   4.428
11930SOL     OW47008   5.612   0.584   2.275
11930SOL    HW147009   5.572   0.505   2.322
11930SOL    HW247010   5.707   0.565   2.251
11931SOL     OW47011   7.512   5.647   1.481
11931SOL    HW147012   7.487   5.555   1.453
11931SOL    HW247013   7.611   5.661   1.469
11932SOL     OW47014   6.568   4.714   0.039
11932SOL    HW147015   6.604   4.791   8.176
11932SOL    HW247016   6.475   4.694   0.009
11933SOL     OW47017   4.460   3.454   4.055
11933SOL    HW147018   4.361   3.450   4.042
11933SOL    HW247019   4.485   3.403   4.138
11934SOL     OW47020   6.050   1.454   3.053
11934SOL    HW147021   6.140   1.497   3.053
11934SOL    HW247022   6.057   1.363   3.011
11935SOL     OW47023   1.662   7.814   2.743
11935SOL    HW147024   1.757   7.783   2.734
11935SOL    HW247025   1.659   7.902   2.790
11936SOL     OW47026   2.312   5.871   0.650
11936SOL    HW147027   2.234   5.814   0.678
11936SOL    HW247028   2.388   5.856   0.713
11937SOL     OW47029   3.121   5.199   3.481
11937SOL    HW147030   3.159   5.124   3.428
11937SOL    HW247031   3.172   5.210   3.566
11938SOL     OW47032   8.145   5.077   5.695
11938SOL    HW147033   8.045   5.087   5.694
11938SOL    HW247034   8.187   5.161   5.661
11939SOL     OW47035   7.898   3.516   0.349
11939SOL    HW147036   7.839   3.516   0.268
11939SOL    HW247037   7.933   3.423   0.365
11940SOL     OW47038   4.907   1.311   4.796
11940SOL    HW147039   4.852   1.268   4.725
11940SOL    HW247040   4.865   1.399   4.822
11941SOL     OW47041   5.189   9.126   5.015
11941SOL    HW147042   5.110   9.067   5.002
11941SOL    HW247043   5.262   9.099   4.953
11942SOL     OW47044   0.933   9.234   5.390
11942SOL    HW147045   0.956   9.139   5.409
11942SOL    HW247046   0.848   9.237   5.336
11943SOL     OW47047   0.858   0.456   2.036
11943SOL    HW147048   0.827   0.409   1.953
11943SOL    HW247049   0.779   0.488   2.088
11944SOL     OW47050   0.876   8.192   4.224
11944SOL    HW147051   0.902   8.161   4.315
11944SOL    HW247052   0.928   8.140   4.155
11945SOL     OW47053   7.594   2.566   5.759
11945SOL    HW147054   7.619   2.537   5.852
11945SOL    HW247055   7.653   2.521   5.693
11946SOL     OW47056   0.534   6.247   5.485
11946SOL    HW147057   0.537   6.346   5.495
11946SOL    HW247058   0.589   6.219   5.406
11947SOL     OW47059   9.114   8.150   5.293
11947SOL    HW147060   9.107   8.114   5.386
11947SOL    HW247061   9.168   8.087   5.237
11948SOL     OW47062   5.009   1.722   0.601
11948SOL    HW147063   5.108   1.735   0.594
11948SOL    HW247064   4.975   1.767   0.683
11949SOL     OW47065   7.581   5.111   1.756
11949SOL    HW147066   7.624   5.057   1.684
11949SOL    HW247067   7.646   5.179   1.791
11950SOL     OW47068   8.475   5.962   2.932
11950SOL    HW147069   8.422   5.910   2.865
11950SOL    HW247070   8.570   5.970   2.900
11951SOL     OW47071   8.443   8.574   3.024
11951SOL    HW147072   8.392   8.556   3.108
11951SOL    HW247073   8.407   8.657   2.981
11952SOL     OW47074   6.778   0.548   2.124
11952SOL    HW147075   6.701   0.546   2.189
11952SOL    HW247076   6.862   0.573   2.172
11953SOL     OW47077   6.671   6.969   6.190
11953SOL    HW147078   6.668   6.969   6.090
11953SOL    HW247079   6.590   7.015   6.226
11954SOL     OW47080   4.050   1.876   4.258
11954SOL    HW147081   3.978   1.832   4.205
11954SOL    HW247082   4.107   1.807   4.302
11955SOL     OW47083   1.934   9.970   1.306
11955SOL    HW147084   1.840   9.939   1.298
11955SOL    HW247085   1.989   9.901   1.353
11956SOL     OW47086   2.545   0.759   5.769
11956SOL    HW147087   2.545   0.786   5.673
11956SOL    HW247088   2.483   0.682   5.782
11957SOL     OW47089   4.677   6.189   1.785
11957SOL    HW147090   4.622   6.252   1.730
11957SOL    HW247091   4.647   6.192   1.880
11958SOL     OW47092   1.469   0.790   3.964
11958SOL    HW147093   1.493   0.699   3.995
11958SOL    HW247094   1.420   0.839   4.037
11959SOL     OW47095   1.364   8.697   5.954
11959SOL    HW147096   1.415   8.625   5.907
11959SOL    HW247097   1.337   8.666   6.045
11960SOL     OW47098   8.463   5.328   3.823
11960SOL    HW147099   8.525   5.406   3.831
11960SOL    HW247100   8.368   5.360   3.820
11961SOL     OW47101   5.576   0.413   5.259
11961SOL    HW147102   5.638   0.474   5.307
11961SOL    HW247103   5.483   0.450   5.263
11962SOL     OW47104   3.374   3.322   5.128
11962SOL    HW147105   3.319   3.250   5.088
11962SOL    HW247106   3.362   3.322   5.227
11963SOL     OW47107   1.717   0.614   5.701
11963SOL    HW147108   1.679   0.524   5.677
11963SOL    HW247109   1.655   0.685   5.667
11964SOL     OW47110   2.733   0.844   3.170
11964SOL    HW147111   2.778   0.765   3.212
11964SOL    HW247112   2.639   0.850   3.203
11965SOL     OW47113   4.765   0.192   6.082
11965SOL    HW147114   4.785   0.286   6.109
11965SOL    HW247115   4.821   0.129   6.136
11966SOL     OW47116   0.744   8.674   0.245
11966SOL    HW147117   0.664   8.614   0.255
11966SOL    HW247118   0.827   8.620   0.249
11967SOL     OW47119   9.366   4.628   5.520
11967SOL    HW147120   9.436   4.660   5.456
11967SOL    HW247121   9.327   4.707   5.568
11968SOL     OW47122   6.802   0.558   2.527
11968SOL    HW147123   6.771   0.606   2.610
11968SOL    HW247124   6.730   0.560   2.458
11969SOL     OW47125   5.709   1.228   4.649
11969SOL    HW147126   5.613   1.254   4.664
11969SOL    HW247127   5.761   1.308   4.620
11970SOL     OW47128   2.762   7.038   4.185
11970SOL    HW147129   2.787   6.984   4.104
11970SOL    HW247130   2.823   7.015   4.261
11971SOL     OW47131   9.144   0.437   2.130
11971SOL    HW147132   9.237   0.424   2.096
11971SOL    HW247133   9.115   0.356   2.181
11972SOL     OW47134   3.339   1.326   5.073
11972SOL    HW147135   3.348   1.256   5.003
11972SOL    HW247136   3.279   1.399   5.041
11973SOL     OW47137   4.218   3.758   6.140
11973SOL    HW147138   4.172   3.776   6.053
11973SOL    HW247139   4.186   3.825   6.208
11974SOL     OW47140   8.725   9.224   5.470
11974SOL    HW147141   8.672   9.146   5.436
11974SOL    HW247142   8.816   9.223   5.429
11975SOL     OW47143   2.393   8.248   2.529
11975SOL    HW147144   2.435   8.263   2.619
11975SOL    HW247145   2.350   8.332   2.498
11976SOL     OW47146   8.151   4.836   3.112
11976SOL    HW147147   8.167   4.912   3.175
11976SOL    HW247148   8.054   4.811   3.114
11977SOL     OW47149   6.917   1.765   4.132
11977SOL    HW147150   6.977   1.763   4.212
11977SOL    HW247151   6.831   1.810   4.157
11978SOL     OW47152   9.251   7.115   2.600
11978SOL    HW147153   9.167   7.117   2.546
11978SOL    HW247154   9.312   7.044   2.564
11979SOL     OW47155   4.290   9.507   2.226
11979SOL    HW147156   4.280   9.449   2.307
11979SOL    HW247157   4.388   9.515   2.203
11980SOL     OW47158   6.496   2.751   0.114
11980SOL    HW147159   6.500   2.849   0.134
11980SOL    HW247160   6.549   2.701   0.183
11981SOL     OW47161   9.742   0.583   0.505
11981SOL    HW147162   9.832   0.575   0.549
11981SOL    HW247163   9.705   0.491   0.489
11982SOL     OW47164   5.274   2.970   0.816
11982SOL    HW147165   5.346   2.907   0.845
11982SOL    HW247166   5.314   3.059   0.796
11983SOL     OW47167   8.212   5.974   1.264
11983SOL    HW147168   8.274   5.906   1.224
11983SOL    HW247169   8.210   6.056   1.207
11984SOL     OW47170   3.343   7.719   3.275
11984SOL    HW147171   3.365   7.786   3.347
11984SOL    HW247172   3.340   7.627   3.314
11985SOL     OW47173   3.027   5.819   4.153
11985SOL    HW147174   2.966   5.810   4.075
11985SOL    HW247175   3.072   5.732   4.171
11986SOL     OW47176   7.401   4.764   1.856
11986SOL    HW147177   7.422   4.839   1.919
11986SOL    HW247178   7.484   4.737   1.807
11987SOL     OW47179   1.065   2.829   0.629
11987SOL    HW147180   1.079   2.829   0.531
11987SOL    HW247181   1.150   2.804   0.675
11988SOL     OW47182   0.594   2.608   2.214
11988SOL    HW147183   0.592   2.617   2.114
11988SOL    HW247184   0.637   2.520   2.238
11989SOL     OW47185   8.747   3.100   6.322
11989SOL    HW147186   8.788   3.009   6.316
11989SOL    HW247187   8.654   3.098   6.287
11990SOL     OW47188   9.848   0.058   1.086
11990SOL    HW147189   9.943   0.028   1.096
11990SOL    HW247190   9.791   9.979   1.061
11991SOL     OW47191   4.527   7.040   3.074
11991SOL    HW147192   4.614   7.076   3.040
11991SOL    HW247193   4.468   7.116   3.102
11992SOL     OW47194   0.955   1.320   4.029
11992SOL    HW147195   0.908   1.260   4.094
11992SOL    HW247196   0.969   1.410   4.070
11993SOL     OW47197   3.160   0.192   5.748
11993SOL    HW147198   3.116   0.260   5.689
11993SOL    HW247199   3.170   0.106   5.698
11994SOL     OW47200   9.279   6.787   3.581
11994SOL    HW147201   9.369   6.753   3.553
11994SOL    HW247202   9.227   6.816   3.500
11995SOL     OW47203   4.718   2.328   4.446
11995SOL    HW147204   4.640   2.360   4.392
11995SOL    HW247205   4.785   2.401   4.454
11996SOL     OW47206   8.083   3.676   2.162
11996SOL    HW147207   8.119   3.698   2.252
11996SOL    HW247208   7.984   3.663   2.168
11997SOL     OW47209   6.544   0.087   3.053
11997SOL    HW147210   6.523   0.182   3.030
11997SOL    HW247211   6.521   0.070   3.149
11998SOL     OW47212   7.752   4.236   3.758
11998SOL    HW147213   7.737   4.285   3.672
11998SOL    HW247214   7.791   4.298   3.826
11999SOL     OW47215   0.516   5.035   1.450
11999SOL    HW147216   0.560   4.987   1.374
11999SOL    HW247217   0.462   5.112   1.414
12000SOL     OW47218   5.833   0.373   4.202
12000SOL    HW147219   5.743   0.414   4.216
12000SOL    HW247220   5.850   0.306   4.275
12001SOL     OW47221   7.560   6.846   5.085
12001SOL    HW147222   7.533   6.779   5.154
12001SOL    HW247223   7.628   6.909   5.124
12002SOL     OW47224   9.250   9.471   4.973
12002SOL    HW147225   9.284   9.477   5.067
12002SOL    HW247226   9.222   9.377   4.954
12003SOL     OW47227   3.680   7.981   4.324
12003SOL    HW147228   3.725   7.972   4.235
12003SOL    HW247229   3.644   8.074   4.333
12004SOL     OW47230   2.352   7.009   2.851
12004SOL    HW147231   2.277   7.006   2.917
12004SOL    HW247232   2.385   6.917   2.834
12005SOL     OW47233   3.294   4.984   3.065
12005SOL    HW147234   3.237   4.903   3.054
12005SOL    HW247235   3.258   5.058   3.008
12006SOL     OW47236   6.467   9.442   5.197
12006SOL    HW147237   6.532   9.469   5.125
12006SOL    HW247238   6.432   9.351   5.177
12007SOL     OW47239   8.532   3.580   4.135
12007SOL    HW147240   8.555   3.653   4.071
12007SOL    HW247241   8.459   3.611   4.196
12008SOL     OW47242   2.792   3.585   2.444
12008SOL    HW147243   2.750   3.494   2.442
12008SOL    HW247244   2.734   3.649   2.393
12009SOL     OW47245   3.031   6.499   1.009
12009SOL    HW147246   3.126   6.520   0.988
12009SOL    HW247247   2.986   6.580   1.046
12010SOL     OW47248   6.651   0.443   0.715
12010SOL    HW147249   6.618   0.348   0.711
12010SOL    HW247250   6.687   0.469   0.625
12011SOL     OW47251   7.708   0.204   4.756
12011SOL    HW147252   7.705   0.222   4.658
12011SOL    HW247253   7.745   0.283   4.804
12012SOL     OW47254   9.866   3.993   0.880
12012SOL    HW147255   9.950   4.042   0.857
12012SOL    HW247256   9.885   3.928   0.954
12013SOL     OW47257   5.623   6.574   1.329
12013SOL    HW147258   5.618   6.640   1.254
12013SOL    HW247259   5.532   6.564   1.370
12014SOL     OW47260   2.076   4.700   6.081
12014SOL    HW147261   2.045   4.620   6.133
12014SOL    HW247262   2.150   4.673   6.020
12015SOL     OW47263   1.668   0.602   4.706
12015SOL    HW147264   1.688   0.506   4.726
12015SOL    HW247265   1.747   0.658   4.730
12016SOL     OW47266   3.148   2.858   5.153
12016SOL    HW147267   3.052   2.836   5.169
12016SOL    HW247268   3.195   2.778   5.115
12017SOL     OW47269   8.572   7.767   2.131
12017SOL    HW147270   8.503   7.831   2.164
12017SOL    HW247271   8.624   7.809   2.057
12018SOL     OW47272   0.351   8.461   0.140
12018SOL    HW147273   0.313   8.541   0.093
12018SOL    HW247274   0.418   8.492   0.207
12019SOL     OW47275   3.953   3.806   2.455
12019SOL    HW147276   3.890   3.729   2.462
12019SOL    HW247277   3.984   3.831   2.547
12020SOL     OW47278   8.662   9.198   2.683
12020SOL    HW147279   8.615   9.173   2.598
12020SOL    HW247280   8.740   9.137   2.697
12021SOL     OW47281   1.663   8.546   0.613
12021SOL    HW147282   1.757   8.576   0.595
12021SOL    HW247283   1.666   8.460   0.664
12022SOL     OW47284   4.978   2.420   5.234
12022SOL    HW147285   4.999   2.401   5.138
12022SOL    HW247286   4.936   2.339   5.275
12023SOL     OW47287   6.240   7.825   5.367
12023SOL    HW147288   6.322   7.775   5.341
12023SOL    HW247289   6.197   7.779   5.445
12024SOL     OW47290   9.965   1.982   0.236
12024SOL    HW147291   9.899   2.039   0.188
12024SOL    HW247292   0.017   2.038   0.300
12025SOL     OW47293   4.714   2.750   0.740
12025SOL    HW147294   4.679   2.730   0.832
12025SOL    HW247295   4.745   2.845   0.737
12026SOL     OW47296   6.030   9.829   6.332
12026SOL    HW147297   6.031   9.863   6.426
12026SOL    HW247298   5.937   9.801   6.309
12027SOL     OW47299   9.261   0.264   0.629
12027SOL    HW147300   9.183   0.324   0.645
12027SOL    HW247301   9.252   0.182   0.687
12028SOL     OW47302   2.441   0.231   3.298
12028SOL    HW147303   2.350   0.211   3.333
12028SOL    HW247304   2.466   0.162   3.229
12029SOL     OW47305   4.199   3.148   6.217
12029SOL    HW147306   4.238   3.223   6.271
12029SOL    HW247307   4.272   3.090   6.183
12030SOL     OW47308   9.195   1.671   0.120
12030SOL    HW147309   9.254   1.601   0.080
12030SOL    HW247310   9.167   1.643   0.212
12031SOL     OW47311   4.209   1.094   6.185
12031SOL    HW147312   4.141   1.053   6.124
12031SOL    HW247313   4.299   1.057   6.163
12032SOL     OW47314   1.925   8.621   1.631
12032SOL    HW147315   1.860   8.658   1.697
12032SOL    HW247316   1.917   8.671   1.545
12033SOL     OW47317   0.155   5.275   1.785
12033SOL    HW147318   0.252   5.291   1.771
12033SOL    HW247319   0.122   5.207   1.720
12034SOL     OW47320   1.577   4.769   3.147
12034SOL    HW147321   1.479   4.782   3.160
12034SOL    HW247322   1.621   4.857   3.133
12035SOL     OW47323   8.445   1.190   5.264
12035SOL    HW147324   8.536   1.179   5.304
12035SOL    HW247325   8.382   1.221   5.335
12036SOL     OW47326   1.169   8.084   2.086
12036SOL    HW147327   1.253   8.077   2.138
12036SOL    HW247328   1.091   8.061   2.145
12037SOL     OW47329   8.366   7.919   2.226
12037SOL    HW147330   8.311   7.835   2.228
12037SOL    HW247331   8.306   7.998   2.209
12038SOL     OW47332   8.305   4.350   5.310
12038SOL    HW147333   8.226   4.332   5.250
12038SOL    HW247334   8.278   4.335   5.405
12039SOL     OW47335   2.514   4.696   2.082
12039SOL    HW147336   2.607   4.731   2.072
12039SOL    HW247337   2.485   4.653   1.997
12040SOL     OW47338   4.405   2.185   1.531
12040SOL    HW147339   4.382   2.088   1.522
12040SOL    HW247340   4.438   2.203   1.624
12041SOL     OW47341   4.473   4.111   6.100
12041SOL    HW147342   4.486   4.201   6.140
12041SOL    HW247343   4.377   4.084   6.108
12042SOL     OW47344   0.513   0.632   6.251
12042SOL    HW147345   0.605   0.649   6.286
12042SOL    HW247346   0.465   0.719   6.239
12043SOL     OW47347   6.368   0.704   2.034
12043SOL    HW147348   6.288   0.754   2.000
12043SOL    HW247349   6.353   0.605   2.023
12044SOL     OW47350   2.033   8.630   4.631
12044SOL    HW147351   2.023   8.602   4.726
12044SOL    HW247352   2.096   8.707   4.625
12045SOL     OW47353   2.685   3.841   5.967
12045SOL    HW147354   2.716   3.854   5.873
12045SOL    HW247355   2.586   3.854   5.972
12046SOL     OW47356   4.211   9.938   5.262
12046SOL    HW147357   4.266   9.897   5.335
12046SOL    HW247358   4.254   0.023   5.232
12047SOL     OW47359   8.403   0.129   0.279
12047SOL    HW147360   8.369   0.129   0.185
12047SOL    HW247361   8.346   0.069   0.335
12048SOL     OW47362   2.334   2.349   6.283
12048SOL    HW147363   2.372   2.260   6.307
12048SOL    HW247364   2.396   2.421   6.312
12049SOL     OW47365   1.364   6.133   2.134
12049SOL    HW147366   1.382   6.046   2.087
12049SOL    HW247367   1.315   6.115   2.219
12050SOL     OW47368   3.385   1.789   1.988
12050SOL    HW147369   3.413   1.744   2.073
12050SOL    HW247370   3.343   1.721   1.927
12051SOL     OW47371   0.971   4.780   0.678
12051SOL    HW147372   0.942   4.691   0.712
12051SOL    HW247373   0.891   4.833   0.649
12052SOL     OW47374   2.699   7.631   0.144
12052SOL    HW147375   2.657   7.670   0.226
12052SOL    HW247376   2.663   7.676   0.063
12053SOL     OW47377   4.203   2.990   4.611
12053SOL    HW147378   4.190   3.015   4.516
12053SOL    HW247379   4.275   3.046   4.651
12054SOL     OW47380   4.051   8.417   5.283
12054SOL    HW147381   4.096   8.344   5.334
12054SOL    HW247382   3.956   8.391   5.264
12055SOL     OW47383   2.595   7.673   6.149
12055SOL    HW147384   2.567   7.597   6.208
12055SOL    HW247385   2.686   7.654   6.113
12056SOL     OW47386   1.270   3.449   4.408
12056SOL    HW147387   1.224   3.535   4.429
12056SOL    HW247388   1.204   3.375   4.406
12057SOL     OW47389   1.774   4.041   0.416
12057SOL    HW147390   1.783   3.963   0.354
12057SOL    HW247391   1.704   4.022   0.485
12058SOL     OW47392   7.248   7.866   3.020
12058SOL    HW147393   7.184   7.921   2.967
12058SOL    HW247394   7.323   7.923   3.052
12059SOL     OW47395   0.808   6.415   3.220
12059SOL    HW147396   0.863   6.484   3.174
12059SOL    HW247397   0.812   6.429   3.319
12060SOL     OW47398   6.312   2.429   5.046
12060SOL    HW147399   6.395   2.419   4.990
12060SOL    HW247400   6.336   2.471   5.133
12061SOL     OW47401   0.890   5.671   4.578
12061SOL    HW147402   0.858   5.628   4.494
12061SOL    HW247403   0.853   5.763   4.585
12062SOL     OW47404   9.923   9.280   0.711
12062SOL    HW147405   9.957   9.237   0.795
12062SOL    HW247406   9.839   9.330   0.731
12063SOL     OW47407   3.662   9.312   2.064
12063SOL    HW147408   3.655   9.233   2.003
12063SOL    HW247409   3.649   9.282   2.159
12064SOL     OW47410   0.392   1.804   6.327
12064SOL    HW147411   0.320   1.860   6.369
12064SOL    HW247412   0.471   1.862   6.306
12065SOL     OW47413   7.628   0.262   1.287
12065SOL    HW147414   7.697   0.275   1.359
12065SOL    HW247415   7.537   0.262   1.329
12066SOL     OW47416   9.130   5.037   6.326
12066SOL    HW147417   9.031   5.030   6.313
12066SOL    HW247418   9.155   5.133   6.342
12067SOL     OW47419   3.004   8.884   0.160
12067SOL    HW147420   2.918   8.931   0.179
12067SOL    HW247421   3.003   8.793   0.203
12068SOL     OW47422   1.123   8.018   2.479
12068SOL    HW147423   1.124   8.104   2.530
12068SOL    HW247424   1.217   7.986   2.468
12069SOL     OW47425   0.819   2.608   3.391
12069SOL    HW147426   0.754   2.532   3.393
12069SOL    HW247427   0.784   2.681   3.332
12070SOL     OW47428   1.588   4.212   6.254
12070SOL    HW147429   1.581   4.216   6.155
12070SOL    HW247430   1.676   4.248   6.283
12071SOL     OW47431   7.900   2.142   3.754
12071SOL    HW147432   8.000   2.130   3.755
12071SOL    HW247433   7.878   2.239   3.764
12072SOL     OW47434   3.957   5.083   2.011
12072SOL    HW147435   3.951   5.175   2.050
12072SOL    HW247436   4.050   5.048   2.024
12073SOL     OW47437   0.105   1.398   6.288
12073SOL    HW147438   0.182   1.351   6.329
12073SOL    HW247439   0.024   1.339   6.291
12074SOL     OW47440   0.812   9.280   2.939
12074SOL    HW147441   0.880   9.237   2.879
12074SOL    HW247442   0.823   9.244   3.032
12075SOL     OW47443   3.601   9.810   1.849
12075SOL    HW147444   3.602   9.782   1.945
12075SOL    HW247445   3.513   9.785   1.808
12076SOL     OW47446   9.935   7.658   0.912
12076SOL    HW147447   9.910   7.569   0.951
12076SOL    HW247448   0.018   7.648   0.857
12077SOL     OW47449   9.286   8.629   2.380
12077SOL    HW147450   9.341   8.565   2.433
12077SOL    HW247451   9.340   8.665   2.305
12078SOL     OW47452   8.940   1.950   2.104
12078SOL    HW147453   8.994   2.029   2.072
12078SOL    HW247454   8.848   1.955   2.065
12079SOL     OW47455   5.087   1.020   1.191
12079SOL    HW147456   5.041   1.027   1.102
12079SOL    HW247457   5.020   1.033   1.264
12080SOL     OW47458   8.984   0.420   4.199
12080SOL    HW147459   8.977   0.340   4.259
12080SOL    HW247460   8.926   0.406   4.119
12081SOL     OW47461   1.977   5.634   0.341
12081SOL    HW147462   1.980   5.733   0.354
12081SOL    HW247463   1.983   5.614   0.243
12082SOL     OW47464   9.795   6.677   2.176
12082SOL    HW147465   9.747   6.730   2.247
12082SOL    HW247466   9.848   6.604   2.219
12083SOL     OW47467   0.110   0.793   6.247
12083SOL    HW147468   0.104   0.695   6.229
12083SOL    HW247469   0.203   0.825   6.230
12084SOL     OW47470   3.525   4.327   5.694
12084SOL    HW147471   3.543   4.396   5.624
12084SOL    HW247472   3.603   4.320   5.755
12085SOL     OW47473   9.149   8.364   4.229
12085SOL    HW147474   9.198   8.417   4.297
12085SOL    HW247475   9.123   8.423   4.152
12086SOL     OW47476   0.526   1.080   3.125
12086SOL    HW147477   0.579   1.164   3.134
12086SOL    HW247478   0.561   1.027   3.047
12087SOL     OW47479   9.627   3.335   2.582
12087SOL    HW147480   9.600   3.246   2.618
12087SOL    HW247481   9.545   3.386   2.554
12088SOL     OW47482   3.016   5.767   2.197
12088SOL    HW147483   3.107   5.750   2.159
12088SOL    HW247484   2.967   5.680   2.207
12089SOL     OW47485   9.725   6.867   3.587
12089SOL    HW147486   9.793   6.819   3.642
12089SOL    HW247487   9.772   6.917   3.514
12090SOL     OW47488   1.739   0.957   2.576
12090SOL    HW147489   1.783   0.955   2.486
12090SOL    HW247490   1.648   1.000   2.568
12091SOL     OW47491   4.712   0.468   0.464
12091SOL    HW147492   4.771   0.549   0.466
12091SOL    HW247493   4.722   0.417   0.550
12092SOL     OW47494   9.478   9.182   1.422
12092SOL    HW147495   9.413   9.257   1.412
12092SOL    HW247496   9.429   9.099   1.448
12093SOL     OW47497   4.768   2.092   0.765
12093SOL    HW147498   4.821   2.139   0.695
12093SOL    HW247499   4.781   2.137   0.853
12094SOL     OW47500   3.366   3.803   1.173
12094SOL    HW147501   3.296   3.743   1.133
12094SOL    HW247502   3.325   3.857   1.247
12095SOL     OW47503   4.490   0.610   0.389
12095SOL    HW147504   4.568   0.556   0.421
12095SOL    HW247505   4.410   0.550   0.379
12096SOL     OW47506   6.724   9.318   5.702
12096SOL    HW147507   6.704   9.234   5.754
12096SOL    HW247508   6.639   9.354   5.664
12097SOL     OW47509   7.112   7.142   6.393
12097SOL    HW147510   7.013   7.138   6.393
12097SOL    HW247511   7.142   7.237   6.392
12098SOL     OW47512   3.351   0.281   0.709
12098SOL    HW147513   3.272   0.232   0.672
12098SOL    HW247514   3.435   0.242   0.671
12099SOL     OW47515   8.953   9.973   5.078
12099SOL    HW147516   8.964   0.070   5.099
12099SOL    HW247517   8.984   9.955   4.985
12100SOL     OW47518   3.352   4.769   1.924
12100SOL    HW147519   3.356   4.769   2.024
12100SOL    HW247520   3.346   4.675   1.890
12101SOL     OW47521   4.042   9.634   5.890
12101SOL    HW147522   4.062   9.654   5.986
12101SOL    HW247523   3.947   9.660   5.870
12102SOL     OW47524   2.066   8.808   6.326
12102SOL    HW147525   2.117   8.722   6.330
12102SOL    HW247526   2.116   8.873   6.269
12103SOL     OW47527   0.458   8.632   6.023
12103SOL    HW147528   0.496   8.608   5.934
12103SOL    HW247529   0.375   8.579   6.039
12104SOL     OW47530   8.914   9.826   1.739
12104SOL    HW147531   8.915   9.736   1.697
12104SOL    HW247532   8.821   9.865   1.733
12105SOL     OW47533   2.919   1.417   4.445
12105SOL    HW147534   3.009   1.380   4.468
12105SOL    HW247535   2.885   1.472   4.522
12106SOL     OW47536   0.354   7.072   2.515
12106SOL    HW147537   0.400   6.984   2.506
12106SOL    HW247538   0.267   7.058   2.563
12107SOL     OW47539   4.702   7.467   3.767
12107SOL    HW147540   4.703   7.563   3.741
12107SOL    HW247541   4.619   7.447   3.819
12108SOL     OW47542   0.673   2.723   5.133
12108SOL    HW147543   0.575   2.707   5.120
12108SOL    HW247544   0.706   2.785   5.063
12109SOL     OW47545   9.807   5.922   0.535
12109SOL    HW147546   9.751   5.845   0.504
12109SOL    HW247547   9.904   5.897   0.529
12110SOL     OW47548   0.697   2.005   2.266
12110SOL    HW147549   0.636   2.056   2.327
12110SOL    HW247550   0.678   1.907   2.273
12111SOL     OW47551   1.534   0.744   4.504
12111SOL    HW147552   1.592   0.704   4.575
12111SOL    HW247553   1.475   0.673   4.465
12112SOL     OW47554   9.244   2.172   2.247
12112SOL    HW147555   9.337   2.160   2.281
12112SOL    HW247556   9.180   2.161   2.323
12113SOL     OW47557   6.823   8.607   5.271
12113SOL    HW147558   6.725   8.625   5.268
12113SOL    HW247559   6.849   8.547   5.196
12114SOL     OW47560   9.290   1.775   3.872
12114SOL    HW147561   9.384   1.799   3.898
12114SOL    HW247562   9.262   1.832   3.795
12115SOL     OW47563   7.831   1.467   3.131
12115SOL    HW147564   7.776   1.476   3.214
12115SOL    HW247565   7.877   1.378   3.132
12116SOL     OW47566   0.609   6.236   6.131
12116SOL    HW147567   0.627   6.151   6.182
12116SOL    HW247568   0.696   6.279   6.107
12117SOL     OW47569   9.238   2.780   1.806
12117SOL    HW147570   9.191   2.842   1.742
12117SOL    HW247571   9.174   2.712   1.839
12118SOL     OW47572   2.129   2.595   4.117
12118SOL    HW147573   2.084   2.585   4.029
12118SOL    HW247574   2.221   2.557   4.113
12119SOL     OW47575   3.368   8.685   3.286
12119SOL    HW147576   3.419   8.757   3.333
12119SOL    HW247577   3.294   8.726   3.233
12120SOL     OW47578   1.777   2.924   4.411
12120SOL    HW147579   1.779   2.953   4.506
12120SOL    HW247580   1.684   2.893   4.387
12121SOL     OW47581   9.360   1.607   5.895
12121SOL    HW147582   9.425   1.570   5.829
12121SOL    HW247583   9.394   1.593   5.988
12122SOL     OW47584   0.226   9.701   2.565
12122SOL    HW147585   0.139   9.717   2.610
12122SOL    HW247586   0.246   9.603   2.564
12123SOL     OW47587   6.749   8.484   4.387
12123SOL    HW147588   6.747   8.555   4.317
12123SOL    HW247589   6.828   8.499   4.447
12124SOL     OW47590   8.993   4.130   0.952
12124SOL    HW147591   8.913   4.189   0.949
12124SOL    HW247592   8.965   4.036   0.973
12125SOL     OW47593   4.306   8.405   3.975
12125SOL    HW147594   4.285   8.503   3.981
12125SOL    HW247595   4.404   8.394   3.960
12126SOL     OW47596   3.212   6.376   0.226
12126SOL    HW147597   3.278   6.321   0.277
12126SOL    HW247598   3.134   6.319   0.200
12127SOL     OW47599   3.826   1.779   1.809
12127SOL    HW147600   3.885   1.821   1.879
12127SOL    HW247601   3.735   1.819   1.813
12128SOL     OW47602   5.900   9.272   3.232
12128SOL    HW147603   5.887   9.369   3.254
12128SOL    HW247604   5.905   9.219   3.316
12129SOL     OW47605   2.679   7.115   0.421
12129SOL    HW147606   2.590   7.116   0.377
12129SOL    HW247607   2.751   7.117   0.351
12130SOL     OW47608   3.747   8.755   0.490
12130SOL    HW147609   3.834   8.792   0.522
12130SOL    HW247610   3.755   8.726   0.395
12131SOL     OW47611   0.761   9.772   0.238
12131SOL    HW147612   0.674   9.725   0.253
12131SOL    HW247613   0.836   9.705   0.239
12132SOL     OW47614   1.893   1.943   2.459
12132SOL    HW147615   1.956   2.017   2.436
12132SOL    HW247616   1.799   1.973   2.442
12133SOL     OW47617   8.772   5.768   0.543
12133SOL    HW147618   8.730   5.825   0.614
12133SOL    HW247619   8.701   5.722   0.491
12134SOL     OW47620   2.482   7.039   4.205
12134SOL    HW147621   2.452   7.121   4.253
12134SOL    HW247622   2.582   7.036   4.204
12135SOL     OW47623   3.982   1.030   6.028
12135SOL    HW147624   3.999   1.004   5.933
12135SOL    HW247625   3.934   1.117   6.031
12136SOL     OW47626   4.524   6.622   0.973
12136SOL    HW147627   4.564   6.581   1.056
12136SOL    HW247628   4.499   6.549   0.909
12137SOL     OW47629   3.207   8.948   1.509
12137SOL    HW147630   3.194   9.001   1.593
12137SOL    HW247631   3.295   8.973   1.467
12138SOL     OW47632   6.306   9.934   2.994
12138SOL    HW147633   6.400   9.966   3.005
12138SOL    HW247634   6.242   0.006   3.020
12139SOL     OW47635   1.262   3.027   1.467
12139SOL    HW147636   1.215   3.023   1.556
12139SOL    HW247637   1.352   3.069   1.480
12140SOL     OW47638   9.689   4.325   4.817
12140SOL    HW147639   9.759   4.332   4.746
12140SOL    HW247640   9.646   4.234   4.812
12141SOL     OW47641   1.639   2.036   2.398
12141SOL    HW147642   1.567   2.001   2.338
12141SOL    HW247643   1.600   2.068   2.484
12142SOL     OW47644   6.226   1.023   5.245
12142SOL    HW147645   6.136   1.049   5.209
12142SOL    HW247646   6.242   0.926   5.228
12143SOL     OW47647   1.757   1.450   4.502
12143SOL    HW147648   1.787   1.540   4.535
12143SOL    HW247649   1.714   1.400   4.577
12144SOL     OW47650   9.211   9.195   3.038
12144SOL    HW147651   9.256   9.109   3.015
12144SOL    HW247652   9.137   9.212   2.974
12145SOL     OW47653   9.742   7.052   1.538
12145SOL    HW147654   9.736   6.958   1.572
12145SOL    HW247655   9.798   7.107   1.601
12146SOL     OW47656   7.485   3.043   1.000
12146SOL    HW147657   7.388   3.047   1.021
12146SOL    HW247658   7.510   2.950   0.974
12147SOL     OW47659   2.198   9.274   0.369
12147SOL    HW147660   2.227   9.200   0.309
12147SOL    HW247661   2.222   9.253   0.463
12148SOL     OW47662   4.710   9.736   3.538
12148SOL    HW147663   4.655   9.762   3.617
12148SOL    HW247664   4.780   9.670   3.565
12149SOL     OW47665   4.304   9.919   1.114
12149SOL    HW147666   4.324   9.942   1.209
12149SOL    HW247667   4.231   9.851   1.111
12150SOL     OW47668   4.708   7.412   5.213
12150SOL    HW147669   4.784   7.433   5.152
12150SOL    HW247670   4.741   7.406   5.307
12151SOL     OW47671   4.354   9.856   2.968
12151SOL    HW147672   4.261   9.880   2.996
12151SOL    HW247673   4.371   9.891   2.876
12152SOL     OW47674   0.852   2.421   0.412
12152SOL    HW147675   0.772   2.378   0.454
12152SOL    HW247676   0.905   2.468   0.482
12153SOL     OW47677   8.068   8.375   4.837
12153SOL    HW147678   7.992   8.347   4.897
12153SOL    HW247679   8.147   8.400   4.894
12154SOL     OW47680   7.769   7.458   0.112
12154SOL    HW147681   7.786   7.506   0.026
12154SOL    HW247682   7.682   7.408   0.105
12155SOL     OW47683   0.006   1.891   4.571
12155SOL    HW147684   0.030   1.856   4.481
12155SOL    HW247685   9.995   1.814   4.635
12156SOL     OW47686   7.830   2.526   2.507
12156SOL    HW147687   7.800   2.563   2.419
12156SOL    HW247688   7.929   2.512   2.507
12157SOL     OW47689   1.702   3.330   4.336
12157SOL    HW147690   1.633   3.397   4.308
12157SOL    HW247691   1.741   3.357   4.424
12158SOL     OW47692   3.363   1.355   1.784
12158SOL    HW147693   3.314   1.315   1.706
12158SOL    HW247694   3.437   1.294   1.812
12159SOL     OW47695   2.382   2.494   4.106
12159SOL    HW147696   2.434   2.467   4.187
12159SOL    HW247697   2.419   2.446   4.026
12160SOL     OW47698   2.456   3.127   5.087
12160SOL    HW147699   2.522   3.192   5.124
12160SOL    HW247700   2.416   3.073   5.161
12161SOL     OW47701   7.795   3.861   1.781
12161SOL    HW147702   7.741   3.893   1.702
12161SOL    HW247703   7.796   3.761   1.783
12162SOL     OW47704   6.505   3.749   1.921
12162SOL    HW147705   6.486   3.716   2.013
12162SOL    HW247706   6.585   3.809   1.922
12163SOL     OW47707   5.058   1.860   3.786
12163SOL    HW147708   5.106   1.782   3.747
12163SOL    HW247709   5.047   1.930   3.715
12164SOL     OW47710   3.229   2.924   4.781
12164SOL    HW147711   3.178   3.009   4.764
12164SOL    HW247712   3.164   2.851   4.803
12165SOL     OW47713   6.055   7.306   5.980
12165SOL    HW147714   6.093   7.221   5.943
12165SOL    HW247715   6.017   7.360   5.906
12166SOL     OW47716   2.004   4.380   2.813
12166SOL    HW147717   2.002   4.388   2.713
12166SOL    HW247718   2.074   4.315   2.840
12167SOL     OW47719   0.677   6.862   6.305
12167SOL    HW147720   0.598   6.908   6.345
12167SOL    HW247721   0.757   6.923   6.311
12168SOL     OW47722   1.036   9.724   0.987
12168SOL    HW147723   1.113   9.786   0.981
12168SOL    HW247724   0.984   9.727   0.902
12169SOL     OW47725   2.146   9.844   4.082
12169SOL    HW147726   2.190   9.849   3.993
12169SOL    HW247727   2.124   9.936   4.114
12170SOL     OW47728   2.259   1.769   4.775
12170SOL    HW147729   2.342   1.713   4.779
12170SOL    HW247730   2.212   1.765   4.862
12171SOL     OW47731   9.501   2.062   1.920
12171SOL    HW147732   9.588   2.054   1.968
12171SOL    HW247733   9.516   2.111   1.833
12172SOL     OW47734   2.332   9.086   3.356
12172SOL    HW147735   2.336   9.119   3.451
12172SOL    HW247736   2.418   9.040   3.334
12173SOL     OW47737   6.656   0.996   5.597
12173SOL    HW147738   6.587   0.996   5.525
12173SOL    HW247739   6.652   1.082   5.647
12174SOL     OW47740   2.012   0.179   0.161
12174SOL    HW147741   2.001   0.127   0.077
12174SOL    HW247742   2.049   0.121   0.232
12175SOL     OW47743   8.532   8.994   5.976
12175SOL    HW147744   8.497   9.038   6.058
12175SOL    HW247745   8.460   8.935   5.938
12176SOL     OW47746   7.920   3.457   5.324
12176SOL    HW147747   7.895   3.408   5.241
12176SOL    HW247748   7.849   3.446   5.393
12177SOL     OW47749   2.419   6.127   4.330
12177SOL    HW147750   2.415   6.110   4.429
12177SOL    HW247751   2.479   6.205   4.312
12178SOL     OW47752   8.114   0.893   0.515
12178SOL    HW147753   8.031   0.843   0.538
12178SOL    HW247754   8.137   0.877   0.419
12179SOL     OW47755   4.862   3.582   5.438
12179SOL    HW147756   4.858   3.570   5.338
12179SOL    HW247757   4.871   3.492   5.481
12180SOL     OW47758   9.509   0.650   0.865
12180SOL    HW147759   9.423   0.687   0.899
12180SOL    HW247760   9.490   0.576   0.800
12181SOL     OW47761   3.242   3.098   5.042
12181SOL    HW147762   3.324   3.072   4.989
12181SOL    HW247763   3.202   3.016   5.082
12182SOL     OW47764   4.872   8.956   3.572
12182SOL    HW147765   4.842   8.989   3.662
12182SOL    HW247766   4.899   9.034   3.516
12183SOL     OW47767   2.986   0.265   0.083
12183SOL    HW147768   2.993   0.168   0.109
12183SOL    HW247769   3.075   0.309   0.094
12184SOL     OW47770   5.224   8.338   4.170
12184SOL    HW147771   5.292   8.304   4.236
12184SOL    HW247772   5.171   8.412   4.213
12185SOL     OW47773   9.594   1.641   4.115
12185SOL    HW147774   9.522   1.611   4.176
12185SOL    HW247775   9.628   1.564   4.062
12186SOL     OW47776   9.784   9.603   0.333
12186SOL    HW147777   9.745   9.690   0.303
12186SOL    HW247778   9.721   9.558   0.396
12187SOL     OW47779   7.673   2.199   2.824
12187SOL    HW147780   7.695   2.235   2.734
12187SOL    HW247781   7.750   2.146   2.859
12188SOL     OW47782   8.342   5.021   1.055
12188SOL    HW147783   8.404   5.070   0.993
12188SOL    HW247784   8.334   4.926   1.026
12189SOL     OW47785   9.758   3.852   0.670
12189SOL    HW147786   9.782   3.901   0.754
12189SOL    HW247787   9.835   3.857   0.606
12190SOL     OW47788   8.732   3.281   2.398
12190SOL    HW147789   8.741   3.223   2.479
12190SOL    HW247790   8.800   3.354   2.401
12191SOL     OW47791   4.243   1.466   5.952
12191SOL    HW147792   4.336   1.438   5.977
12191SOL    HW247793   4.232   1.463   5.853
12192SOL     OW47794   2.559   4.602   2.338
12192SOL    HW147795   2.485   4.625   2.401
12192SOL    HW247796   2.534   4.627   2.245
12193SOL     OW47797   5.193   5.056   0.974
12193SOL    HW147798   5.176   5.046   0.876
12193SOL    HW247799   5.215   4.967   1.014
12194SOL     OW47800   8.048   7.712   5.322
12194SOL    HW147801   8.009   7.668   5.402
12194SOL    HW247802   8.088   7.643   5.261
12195SOL     OW47803   1.883   9.149   6.254
12195SOL    HW147804   1.969   9.150   6.307
12195SOL    HW247805   1.847   9.242   6.248
12196SOL     OW47806   9.514   6.265   4.395
12196SOL    HW147807   9.437   6.228   4.448
12196SOL    HW247808   9.518   6.364   4.407
12197SOL     OW47809   0.459   0.581   2.630
12197SOL    HW147810   0.459   0.637   2.712
12197SOL    HW247811   0.421   0.491   2.651
12198SOL     OW47812   2.823   7.895   0.362
12198SOL    HW147813   2.742   7.840   0.384
12198SOL    HW247814   2.882   7.901   0.442
12199SOL     OW47815   9.325   0.724   2.389
12199SOL    HW147816   9.351   0.814   2.426
12199SOL    HW247817   9.365   0.713   2.298
12200SOL     OW47818   9.463   9.874   1.822
12200SOL    HW147819   9.426   9.924   1.744
12200SOL    HW247820   9.495   9.784   1.792
12201SOL     OW47821   8.908   2.592   2.607
12201SOL    HW147822   8.952   2.562   2.522
12201SOL    HW247823   8.811   2.568   2.605
12202SOL     OW47824   8.055   0.230   3.370
12202SOL    HW147825   8.097   0.167   3.305
12202SOL    HW247826   8.095   0.321   3.358
12203SOL     OW47827   9.961   9.085   5.465
12203SOL    HW147828   9.991   9.082   5.369
12203SOL    HW247829   9.952   9.180   5.494
12204SOL     OW47830   7.602   8.950   4.657
12204SOL    HW147831   7.639   8.860   4.633
12204SOL    HW247832   7.611   8.966   4.755
12205SOL     OW47833   8.697   5.546   2.871
12205SOL    HW147834   8.774   5.505   2.821
12205SOL    HW247835   8.728   5.577   2.960
12206SOL     OW47836   6.991   1.973   5.446
12206SOL    HW147837   7.052   2.022   5.508
12206SOL    HW247838   6.898   2.007   5.456
12207SOL     OW47839   8.445   9.559   1.133
12207SOL    HW147840   8.520   9.537   1.071
12207SOL    HW247841   8.399   9.642   1.103
12208SOL     OW47842   7.491   0.062   4.844
12208SOL    HW147843   7.570   0.113   4.810
12208SOL    HW247844   7.407   0.109   4.816
12209SOL     OW47845   4.967   2.359   3.807
12209SOL    HW147846   4.877   2.402   3.799
12209SOL    HW247847   4.955   2.263   3.832
12210SOL     OW47848   9.741   3.614   6.276
12210SOL    HW147849   9.724   3.541   6.209
12210SOL    HW247850   9.656   3.660   6.298
12211SOL     OW47851   8.516   6.785   5.012
12211SOL    HW147852   8.447   6.756   5.077
12211SOL    HW247853   8.573   6.857   5.054
12212SOL     OW47854   9.260   1.176   1.563
12212SOL    HW147855   9.260   1.206   1.468
12212SOL    HW247856   9.312   1.240   1.619
12213SOL     OW47857   1.755   3.054   1.922
12213SOL    HW147858   1.725   2.960   1.901
12213SOL    HW247859   1.791   3.057   2.016
12214SOL     OW47860   0.456   1.871   0.622
12214SOL    HW147861   0.524   1.897   0.553
12214SOL    HW247862   0.365   1.881   0.583
12215SOL     OW47863   0.138   9.606   2.187
12215SOL    HW147864   0.060   9.622   2.248
12215SOL    HW247865   0.215   9.662   2.217
12216SOL     OW47866   3.488   5.079   5.148
12216SOL    HW147867   3.488   5.148   5.076
12216SOL    HW247868   3.407   5.091   5.206
12217SOL     OW47869   3.318   2.696   4.205
12217SOL    HW147870   3.272   2.772   4.252
12217SOL    HW247871   3.353   2.631   4.272
12218SOL     OW47872   9.977   7.394   0.229
12218SOL    HW147873   0.010   7.335   0.302
12218SOL    HW247874   9.956   7.485   0.266
12219SOL     OW47875   7.259   0.992   5.817
12219SOL    HW147876   7.265   1.053   5.896
12219SOL    HW247877   7.165   0.958   5.809
12220SOL     OW47878   3.427   3.650   1.672
12220SOL    HW147879   3.393   3.605   1.755
12220SOL    HW247880   3.360   3.717   1.640
12221SOL     OW47881   7.860   9.746   4.327
12221SOL    HW147882   7.768   9.782   4.342
12221SOL    HW247883   7.859   9.647   4.331
12222SOL     OW47884   7.306   5.872   0.230
12222SOL    HW147885   7.242   5.942   0.261
12222SOL    HW247886   7.256   5.801   0.180
12223SOL     OW47887   0.714   1.321   5.434
12223SOL    HW147888   0.665   1.252   5.382
12223SOL    HW247889   0.663   1.343   5.517
12224SOL     OW47890   7.989   5.590   6.153
12224SOL    HW147891   7.916   5.648   6.190
12224SOL    HW247892   8.063   5.648   6.120
12225SOL     OW47893   3.787   8.911   3.787
12225SOL    HW147894   3.707   8.911   3.726
12225SOL    HW247895   3.815   8.817   3.805
12226SOL     OW47896   7.323   3.346   3.489
12226SOL    HW147897   7.419   3.370   3.497
12226SOL    HW247898   7.276   3.413   3.430
12227SOL     OW47899   4.237   3.524   0.762
12227SOL    HW147900   4.232   3.434   0.806
12227SOL    HW247901   4.145   3.552   0.733
12228SOL     OW47902   3.663   2.400   4.755
12228SOL    HW147903   3.581   2.361   4.713
12228SOL    HW247904   3.675   2.363   4.847
12229SOL     OW47905   3.629   9.750   1.214
12229SOL    HW147906   3.612   9.681   1.144
12229SOL    HW247907   3.545   9.801   1.233
12230SOL     OW47908   0.506   8.809   4.112
12230SOL    HW147909   0.570   8.882   4.087
12230SOL    HW247910   0.484   8.816   4.210
12231SOL     OW47911   6.463   0.433   3.911
12231SOL    HW147912   6.396   0.418   3.984
12231SOL    HW247913   6.417   0.425   3.822
12232SOL     OW47914   5.110   4.448   1.581
12232SOL    HW147915   5.201   4.486   1.566
12232SOL    HW247916   5.118   4.356   1.620
12233SOL     OW47917   0.893   4.499   0.758
12233SOL    HW147918   0.796   4.520   0.744
12233SOL    HW247919   0.901   4.414   0.810
12234SOL     OW47920   8.592   1.500   4.823
12234SOL    HW147921   8.533   1.579   4.840
12234SOL    HW247922   8.536   1.421   4.796
12235SOL     OW47923   0.904   3.340   4.211
12235SOL    HW147924   0.822   3.355   4.267
12235SOL    HW247925   0.881   3.280   4.134
12236SOL     OW47926   4.020   4.444   2.069
12236SOL    HW147927   3.988   4.396   2.150
12236SOL    HW247928   3.961   4.523   2.052
12237SOL     OW47929   9.252   6.795   2.302
12237SOL    HW147930   9.154   6.797   2.322
12237SOL    HW247931   9.270   6.847   2.218
12238SOL     OW47932   1.981   8.686   5.620
12238SOL    HW147933   1.904   8.697   5.557
12238SOL    HW247934   1.966   8.744   5.700
12239SOL     OW47935   7.034   3.206   0.873
12239SOL    HW147936   7.084   3.274   0.820
12239SOL    HW247937   7.013   3.126   0.816
12240SOL     OW47938   1.886   4.179   2.448
12240SOL    HW147939   1.963   4.144   2.395
12240SOL    HW247940   1.815   4.108   2.453
12241SOL     OW47941   7.028   8.545   3.539
12241SOL    HW147942   7.047   8.452   3.509
12241SOL    HW247943   7.113   8.599   3.538
12242SOL     OW47944   4.430   3.006   3.751
12242SOL    HW147945   4.498   3.008   3.825
12242SOL    HW247946   4.470   2.963   3.671
12243SOL     OW47947   2.537   7.743   2.225
12243SOL    HW147948   2.478   7.824   2.222
12243SOL    HW247949   2.537   7.698   2.135
12244SOL     OW47950   3.014   3.834   2.770
12244SOL    HW147951   2.930   3.782   2.752
12244SOL    HW247952   3.055   3.862   2.683
12245SOL     OW47953   7.427   7.918   2.763
12245SOL    HW147954   7.469   7.842   2.813
12245SOL    HW247955   7.496   7.963   2.707
12246SOL     OW47956   1.913   4.045   6.248
12246SOL    HW147957   1.880   4.063   6.156
12246SOL    HW247958   1.885   3.953   6.277
12247SOL     OW47959   0.476   3.062   2.201
12247SOL    HW147960   0.388   3.061   2.153
12247SOL    HW247961   0.549   3.049   2.134
12248SOL     OW47962   5.636   1.002   3.416
12248SOL    HW147963   5.567   0.969   3.352
12248SOL    HW247964   5.714   1.038   3.365
12249SOL     OW47965   7.310   9.975   1.189
12249SOL    HW147966   7.291   0.064   1.149
12249SOL    HW247967   7.266   9.968   1.279
12250SOL     OW47968   3.122   8.741   5.769
12250SOL    HW147969   3.097   8.794   5.850
12250SOL    HW247970   3.222   8.739   5.760
12251SOL     OW47971   7.840   3.348   5.077
12251SOL    HW147972   7.825   3.325   4.981
12251SOL    HW247973   7.753   3.377   5.118
12252SOL     OW47974   0.050   7.671   3.059
12252SOL    HW147975   0.005   7.593   3.102
12252SOL    HW247976   9.993   7.753   3.071
12253SOL     OW47977   9.883   7.626   6.242
12253SOL    HW147978   9.861   7.530   6.258
12253SOL    HW247979   9.865   7.648   6.146
12254SOL     OW47980   7.877   1.466   5.935
12254SOL    HW147981   7.858   1.518   6.019
12254SOL    HW247982   7.818   1.385   5.932
12255SOL     OW47983   9.474   5.433   2.737
12255SOL    HW147984   9.559   5.431   2.683
12255SOL    HW247985   9.396   5.448   2.676
12256SOL     OW47986   0.742   2.077   0.619
12256SOL    HW147987   0.698   2.165   0.600
12256SOL    HW247988   0.713   2.010   0.550
12257SOL     OW47989   2.326   0.810   6.032
12257SOL    HW147990   2.349   0.906   6.049
12257SOL    HW247991   2.226   0.798   6.037
12258SOL     OW47992   1.979   9.076   6.000
12258SOL    HW147993   1.931   9.088   6.087
12258SOL    HW247994   1.990   9.165   5.956
12259SOL     OW47995   0.721   3.586   1.146
12259SOL    HW147996   0.815   3.568   1.116
12259SOL    HW247997   0.657   3.531   1.092
12260SOL     OW47998   1.775   3.890   4.347
12260SOL    HW147999   1.841   3.963   4.337
12260SOL    HW248000   1.822   3.802   4.345
12261SOL     OW48001   7.581   7.501   2.313
12261SOL    HW148002   7.583   7.529   2.409
12261SOL    HW248003   7.651   7.551   2.262
12262SOL     OW48004   5.907   1.738   5.531
12262SOL    HW148005   5.915   1.838   5.534
12262SOL    HW248006   5.903   1.702   5.625
12263SOL     OW48007   6.287   8.910   5.611
12263SOL    HW148008   6.225   8.957   5.548
12263SOL    HW248009   6.303   8.967   5.691
12264SOL     OW48010   8.964   9.215   5.316
12264SOL    HW148011   9.059   9.184   5.309
12264SOL    HW248012   8.913   9.185   5.236
12265SOL     OW48013   3.438   9.285   0.398
12265SOL    HW148014   3.402   9.294   0.491
12265SOL    HW248015   3.428   9.190   0.368
12266SOL     OW48016   3.951   8.225   3.959
12266SOL    HW148017   3.998   8.261   4.040
12266SOL    HW248018   4.019   8.199   3.891
12267SOL     OW48019   4.090   7.834   4.066
12267SOL    HW148020   4.188   7.817   4.081
12267SOL    HW248021   4.062   7.915   4.118
12268SOL     OW48022   2.916   7.275   4.129
12268SOL    HW148023   2.839   7.215   4.150
12268SOL    HW248024   2.981   7.227   4.070
12269SOL     OW48025   1.211   4.561   1.951
12269SOL    HW148026   1.269   4.611   1.887
12269SOL    HW248027   1.135   4.619   1.981
12270SOL     OW48028   1.756   2.192   4.044
12270SOL    HW148029   1.774   2.142   4.129
12270SOL    HW248030   1.687   2.262   4.061
12271SOL     OW48031   1.329   8.164   5.220
12271SOL    HW148032   1.282   8.190   5.136
12271SOL    HW248033   1.428   8.167   5.205
12272SOL     OW48034   8.823   2.506   5.155
12272SOL    HW148035   8.848   2.600   5.130
12272SOL    HW248036   8.812   2.451   5.073
12273SOL     OW48037   6.664   8.760   6.163
12273SOL    HW148038   6.613   8.695   6.220
12273SOL    HW248039   6.728   8.810   6.220
12274SOL     OW48040   0.447   4.559   4.455
12274SOL    HW148041   0.396   4.646   4.456
12274SOL    HW248042   0.413   4.500   4.528
12275SOL     OW48043   8.426   2.862   1.592
12275SOL    HW148044   8.468   2.925   1.657
12275SOL    HW248045   8.473   2.867   1.504
12276SOL     OW48046   3.579   6.987   3.882
12276SOL    HW148047   3.578   7.067   3.822
12276SOL    HW248048   3.549   7.013   3.974
12277SOL     OW48049   9.116   6.198   1.821
12277SOL    HW148050   9.123   6.141   1.739
12277SOL    HW248051   9.030   6.179   1.868
12278SOL     OW48052   5.796   8.254   4.506
12278SOL    HW148053   5.743   8.175   4.535
12278SOL    HW248054   5.735   8.332   4.490
12279SOL     OW48055   0.964   8.636   2.460
12279SOL    HW148056   0.944   8.731   2.482
12279SOL    HW248057   1.012   8.631   2.373
12280SOL     OW48058   2.230   3.196   4.944
12280SOL    HW148059   2.309   3.165   4.997
12280SOL    HW248060   2.147   3.156   4.982
12281SOL     OW48061   0.258   8.724   1.371
12281SOL    HW148062   0.357   8.739   1.361
12281SOL    HW248063   0.211   8.763   1.291
12282SOL     OW48064   4.048   1.987   0.952
12282SOL    HW148065   4.130   1.967   0.898
12282SOL    HW248066   4.049   1.932   1.036
12283SOL     OW48067   8.841   4.209   1.413
12283SOL    HW148068   8.773   4.175   1.477
12283SOL    HW248069   8.879   4.132   1.362
12284SOL     OW48070   3.075   3.180   4.839
12284SOL    HW148071   3.091   3.275   4.814
12284SOL    HW248072   3.132   3.155   4.917
12285SOL     OW48073   4.472   1.119   3.214
12285SOL    HW148074   4.507   1.026   3.200
12285SOL    HW248075   4.548   1.183   3.213
12286SOL     OW48076   6.408   9.719   6.319
12286SOL    HW148077   6.425   9.688   6.412
12286SOL    HW248078   6.434   9.815   6.310
12287SOL     OW48079   3.712   7.645   5.117
12287SOL    HW148080   3.734   7.685   5.206
12287SOL    HW248081   3.769   7.689   5.047
12288SOL     OW48082   3.039   8.617   3.013
12288SOL    HW148083   2.986   8.606   2.929
12288SOL    HW248084   3.110   8.546   3.016
12289SOL     OW48085   8.722   2.946   0.154
12289SOL    HW148086   8.759   3.022   0.101
12289SOL    HW248087   8.754   2.952   0.249
12290SOL     OW48088   0.272   0.702   5.142
12290SOL    HW148089   0.175   0.713   5.165
12290SOL    HW248090   0.282   0.688   5.044
12291SOL     OW48091   3.485   1.761   6.269
12291SOL    HW148092   3.408   1.798   6.322
12291SOL    HW248093   3.452   1.735   6.178
12292SOL     OW48094   4.612   8.138   2.704
12292SOL    HW148095   4.538   8.125   2.639
12292SOL    HW248096   4.656   8.226   2.687
12293SOL     OW48097   0.945   7.774   0.872
12293SOL    HW148098   0.849   7.802   0.880
12293SOL    HW248099   0.953   7.677   0.892
12294SOL     OW48100   7.555   8.312   6.388
12294SOL    HW148101   7.593   8.233   6.340
12294SOL    HW248102   7.629   8.368   6.424
12295SOL     OW48103   0.436   2.149   6.250
12295SOL    HW148104   0.339   2.126   6.256
12295SOL    HW248105   0.446   2.238   6.206
12296SOL     OW48106   5.238   7.915   4.857
12296SOL    HW148107   5.272   7.839   4.912
12296SOL    HW248108   5.152   7.889   4.813
12297SOL     OW48109   7.949   3.817   5.531
12297SOL    HW148110   7.946   3.802   5.433
12297SOL    HW248111   7.963   3.730   5.578
12298SOL     OW48112   6.670   8.795   2.919
12298SOL    HW148113   6.683   8.755   3.010
12298SOL    HW248114   6.587   8.851   2.919
12299SOL     OW48115   3.181   9.124   3.536
12299SOL    HW148116   3.222   9.157   3.621
12299SOL    HW248117   3.191   9.195   3.465
12300SOL     OW48118   8.769   3.580   0.528
12300SOL    HW148119   8.737   3.500   0.578
12300SOL    HW248120   8.862   3.602   0.559
12301SOL     OW48121   0.306   6.191   0.089
12301SOL    HW148122   0.207   6.181   0.082
12301SOL    HW248123   0.333   6.284   0.065
12302SOL     OW48124   4.569   9.384   1.474
12302SOL    HW148125   4.563   9.440   1.557
12302SOL    HW248126   4.497   9.410   1.411
12303SOL     OW48127   5.139   9.226   5.914
12303SOL    HW148128   5.216   9.163   5.901
12303SOL    HW248129   5.078   9.190   5.985
12304SOL     OW48130   7.076   0.520   3.581
12304SOL    HW148131   7.092   0.606   3.628
12304SOL    HW248132   6.977   0.505   3.571
12305SOL     OW48133   1.881   7.653   3.219
12305SOL    HW148134   1.833   7.730   3.178
12305SOL    HW248135   1.920   7.595   3.148
12306SOL     OW48136   8.653   2.187   2.321
12306SOL    HW148137   8.618   2.183   2.415
12306SOL    HW248138   8.745   2.225   2.322
12307SOL     OW48139   5.251   8.761   4.503
12307SOL    HW148140   5.179   8.805   4.448
12307SOL    HW248141   5.232   8.776   4.600
12308SOL     OW48142   0.711   1.422   3.469
12308SOL    HW148143   0.628   1.444   3.417
12308SOL    HW248144   0.703   1.330   3.508
12309SOL     OW48145   6.632   8.941   4.562
12309SOL    HW148146   6.586   8.989   4.487
12309SOL    HW248147   6.563   8.897   4.620
12310SOL     OW48148   8.862   8.251   5.295
12310SOL    HW148149   8.953   8.211   5.285
12310SOL    HW248150   8.794   8.179   5.306
12311SOL     OW48151   1.043   4.739   4.035
12311SOL    HW148152   1.023   4.641   4.025
12311SOL    HW248153   0.958   4.791   4.025
12312SOL     OW48154   2.741   1.326   4.771
12312SOL    HW148155   2.768   1.412   4.729
12312SOL    HW248156   2.814   1.258   4.758
12313SOL     OW48157   8.408   9.999   1.628
12313SOL    HW148158   8.410   0.097   1.612
12313SOL    HW248159   8.324   9.960   1.590
12314SOL     OW48160   6.363   7.538   4.889
12314SOL    HW148161   6.430   7.504   4.955
12314SOL    HW248162   6.273   7.502   4.912
12315SOL     OW48163   0.631   1.015   1.246
12315SOL    HW148164   0.583   0.988   1.162
12315SOL    HW248165   0.729   1.022   1.227
12316SOL     OW48166   2.901   2.750   5.217
12316SOL    HW148167   2.878   2.658   5.249
12316SOL    HW248168   2.819   2.806   5.213
12317SOL     OW48169   2.398   9.151   3.624
12317SOL    HW148170   2.493   9.179   3.638
12317SOL    HW248171   2.378   9.071   3.681
12318SOL     OW48172   6.318   9.799   1.757
12318SOL    HW148173   6.246   9.734   1.734
12318SOL    HW248174   6.280   9.871   1.815
12319SOL     OW48175   7.757   7.461   6.099
12319SOL    HW148176   7.754   7.361   6.093
12319SOL    HW248177   7.851   7.492   6.084
12320SOL     OW48178   1.124   7.253   2.398
12320SOL    HW148179   1.102   7.156   2.395
12320SOL    HW248180   1.148   7.285   2.306
12321SOL     OW48181   1.156   5.138   5.292
12321SOL    HW148182   1.182   5.043   5.276
12321SOL    HW248183   1.202   5.172   5.374
12322SOL     OW48184   5.633   1.656   0.042
12322SOL    HW148185   5.661   1.712   0.120
12322SOL    HW248186   5.604   1.566   0.074
12323SOL     OW48187   8.921   1.832   4.913
12323SOL    HW148188   8.826   1.859   4.899
12323SOL    HW248189   8.960   1.800   4.827
12324SOL     OW48190   3.941   6.865   2.365
12324SOL    HW148191   3.988   6.880   2.452
12324SOL    HW248192   3.843   6.880   2.376
12325SOL     OW48193   0.537   6.088   0.991
12325SOL    HW148194   0.452   6.116   0.947
12325SOL    HW248195   0.596   6.168   1.005
12326SOL     OW48196   6.049   9.548   4.729
12326SOL    HW148197   5.985   9.547   4.807
12326SOL    HW248198   6.142   9.538   4.763
12327SOL     OW48199   2.179   7.366   4.203
12327SOL    HW148200   2.126   7.290   4.164
12327SOL    HW248201   2.256   7.330   4.255
12328SOL     OW48202   1.303   2.758   0.740
12328SOL    HW148203   1.359   2.830   0.699
12328SOL    HW248204   1.335   2.669   0.709
12329SOL     OW48205   7.963   9.942   3.813
12329SOL    HW148206   8.020   9.972   3.736
12329SOL    HW248207   7.879   9.901   3.777
12330SOL     OW48208   9.348   8.513   5.724
12330SOL    HW148209   9.379   8.482   5.634
12330SOL    HW248210   9.255   8.550   5.716
12331SOL     OW48211   1.602   1.362   4.289
12331SOL    HW148212   1.650   1.298   4.229
12331SOL    HW248213   1.666   1.397   4.358
12332SOL     OW48214   0.662   6.314   1.106
12332SOL    HW148215   0.617   6.272   1.185
12332SOL    HW248216   0.760   6.318   1.122
12333SOL     OW48217   9.480   0.844   1.479
12333SOL    HW148218   9.405   0.868   1.541
12333SOL    HW248219   9.544   0.784   1.527
12334SOL     OW48220   5.420   9.921   6.364
12334SOL    HW148221   5.362   0.002   6.361
12334SOL    HW248222   5.363   9.839   6.362
12335SOL     OW48223   1.022   2.800   2.066
12335SOL    HW148224   1.051   2.768   2.156
12335SOL    HW248225   1.102   2.830   2.014
12336SOL     OW48226   1.066   1.099   4.589
12336SOL    HW148227   1.059   1.177   4.650
12336SOL    HW248228   1.135   1.035   4.623
12337SOL     OW48229   0.324   2.805   2.564
12337SOL    HW148230   0.336   2.893   2.518
12337SOL    HW248231   0.227   2.790   2.583
12338SOL     OW48232   8.805   7.019   3.784
12338SOL    HW148233   8.803   7.012   3.684
12338SOL    HW248234   8.833   6.931   3.823
12339SOL     OW48235   7.576   3.995   5.857
12339SOL    HW148236   7.645   4.007   5.785
12339SOL    HW248237   7.597   3.912   5.908
12340SOL     OW48238   2.353   3.927   6.231
12340SOL    HW148239   2.318   3.833   6.236
12340SOL    HW248240   2.284   3.990   6.268
12341SOL     OW48241   3.611   6.632   2.682
12341SOL    HW148242   3.536   6.688   2.646
12341SOL    HW248243   3.655   6.680   2.758
12342SOL     OW48244   1.312   8.291   5.469
12342SOL    HW148245   1.311   8.239   5.384
12342SOL    HW248246   1.335   8.386   5.449
12343SOL     OW48247   1.667   4.381   0.738
12343SOL    HW148248   1.604   4.318   0.784
12343SOL    HW248249   1.753   4.333   0.720
12344SOL     OW48250   7.932   5.036   0.163
12344SOL    HW148251   7.964   4.993   0.078
12344SOL    HW248252   7.952   4.975   0.240
12345SOL     OW48253   9.639   0.960   6.243
12345SOL    HW148254   9.718   0.909   6.208
12345SOL    HW248255   9.591   1.002   6.166
12346SOL     OW48256   9.214   2.390   2.073
12346SOL    HW148257   9.229   2.318   2.140
12346SOL    HW248258   9.297   2.445   2.064
12347SOL     OW48259   7.157   1.310   5.765
12347SOL    HW148260   7.209   1.368   5.827
12347SOL    HW248261   7.068   1.289   5.806
12348SOL     OW48262   2.099   1.928   3.140
12348SOL    HW148263   2.024   1.993   3.148
12348SOL    HW248264   2.091   1.877   3.055
12349SOL     OW48265   6.439   8.942   2.911
12349SOL    HW148266   6.417   8.964   2.816
12349SOL    HW248267   6.362   8.967   2.969
12350SOL     OW48268   4.073   6.925   2.602
12350SOL    HW148269   4.052   7.019   2.628
12350SOL    HW248270   4.170   6.907   2.618
12351SOL     OW48271   8.093   1.852   4.605
12351SOL    HW148272   8.189   1.826   4.603
12351SOL    HW248273   8.055   1.847   4.512
12352SOL     OW48274   0.652   4.419   1.630
12352SOL    HW148275   0.659   4.516   1.653
12352SOL    HW248276   0.615   4.409   1.538
12353SOL     OW48277   5.910   7.718   3.377
12353SOL    HW148278   5.876   7.766   3.296
12353SOL    HW248279   6.010   7.719   3.376
12354SOL     OW48280   6.817   1.180   4.609
12354SOL    HW148281   6.872   1.096   4.606
12354SOL    HW248282   6.734   1.166   4.554
12355SOL     OW48283   2.086   6.101   6.242
12355SOL    HW148284   2.093   6.151   6.156
12355SOL    HW248285   2.172   6.109   6.293
12356SOL     OW48286   7.585   0.232   3.846
12356SOL    HW148287   7.486   0.228   3.852
12356SOL    HW248288   7.625   0.169   3.913
12357SOL     OW48289   2.296   8.416   5.475
12357SOL    HW148290   2.256   8.451   5.391
12357SOL    HW248291   2.374   8.358   5.453
12358SOL     OW48292   0.527   0.156   1.491
12358SOL    HW148293   0.590   0.090   1.450
12358SOL    HW248294   0.565   0.248   1.482
12359SOL     OW48295   8.806   9.893   2.402
12359SOL    HW148296   8.755   9.875   2.486
12359SOL    HW248297   8.852   9.809   2.372
12360SOL     OW48298   0.787   3.193   3.994
12360SOL    HW148299   0.724   3.148   4.057
12360SOL    HW248300   0.744   3.275   3.957
12361SOL     OW48301   1.590   3.787   0.073
12361SOL    HW148302   1.530   3.844   0.128
12361SOL    HW248303   1.613   3.834   8.176
12362SOL     OW48304   3.138   3.436   1.704
12362SOL    HW148305   3.069   3.377   1.745
12362SOL    HW248306   3.209   3.456   1.772
12363SOL     OW48307   2.691   0.471   1.381
12363SOL    HW148308   2.731   0.563   1.381
12363SOL    HW248309   2.685   0.437   1.288
12364SOL     OW48310   4.335   6.577   3.879
12364SOL    HW148311   4.281   6.496   3.856
12364SOL    HW248312   4.406   6.552   3.945
12365SOL     OW48313   8.506   6.931   4.356
12365SOL    HW148314   8.452   6.952   4.274
12365SOL    HW248315   8.522   7.015   4.408
12366SOL     OW48316   6.347   7.969   4.611
12366SOL    HW148317   6.340   7.909   4.691
12366SOL    HW248318   6.443   7.983   4.587
12367SOL     OW48319   5.233   0.361   1.245
12367SOL    HW148320   5.219   0.286   1.309
12367SOL    HW248321   5.331   0.378   1.233
12368SOL     OW48322   2.489   1.639   3.189
12368SOL    HW148323   2.539   1.725   3.181
12368SOL    HW248324   2.532   1.569   3.134
12369SOL     OW48325   8.239   3.429   1.260
12369SOL    HW148326   8.246   3.379   1.346
12369SOL    HW248327   8.264   3.524   1.275
12370SOL     OW48328   1.510   6.722   3.442
12370SOL    HW148329   1.514   6.659   3.364
12370SOL    HW248330   1.561   6.682   3.518
12371SOL     OW48331   2.072   1.791   3.599
12371SOL    HW148332   2.056   1.872   3.655
12371SOL    HW248333   2.164   1.755   3.617
12372SOL     OW48334   7.447   9.111   2.803
12372SOL    HW148335   7.394   9.041   2.755
12372SOL    HW248336   7.450   9.194   2.748
12373SOL     OW48337   2.190   6.790   5.142
12373SOL    HW148338   2.104   6.757   5.180
12373SOL    HW248339   2.243   6.712   5.109
12374SOL     OW48340   3.088   5.708   6.165
12374SOL    HW148341   3.159   5.662   6.112
12374SOL    HW248342   3.001   5.700   6.116
12375SOL     OW48343   8.013   2.079   4.731
12375SOL    HW148344   8.050   1.997   4.688
12375SOL    HW248345   8.072   2.107   4.807
12376SOL     OW48346   3.511   6.919   6.279
12376SOL    HW148347   3.416   6.908   6.311
12376SOL    HW248348   3.561   6.834   6.296
12377SOL     OW48349   3.921   2.224   6.016
12377SOL    HW148350   3.930   2.247   6.113
12377SOL    HW248351   3.891   2.305   5.965
12378SOL     OW48352   0.703   6.253   3.029
12378SOL    HW148353   0.744   6.311   3.099
12378SOL    HW248354   0.660   6.173   3.072
12379SOL     OW48355   0.238   1.266   1.681
12379SOL    HW148356   0.256   1.190   1.744
12379SOL    HW248357   0.325   1.297   1.641
12380SOL     OW48358   2.256   6.096   3.986
12380SOL    HW148359   2.353   6.121   3.989
12380SOL    HW248360   2.209   6.134   4.066
12381SOL     OW48361   3.686   7.487   3.003
12381SOL    HW148362   3.648   7.557   3.064
12381SOL    HW248363   3.782   7.473   3.025
12382SOL     OW48364   9.014   9.697   0.441
12382SOL    HW148365   9.019   9.753   0.358
12382SOL    HW248366   8.975   9.607   0.418
12383SOL     OW48367   8.597   1.054   1.457
12383SOL    HW148368   8.600   1.069   1.358
12383SOL    HW248369   8.511   1.090   1.493
12384SOL     OW48370   5.112   1.652   1.037
12384SOL    HW148371   5.151   1.735   0.998
12384SOL    HW248372   5.153   1.635   1.126
12385SOL     OW48373   9.346   3.592   1.974
12385SOL    HW148374   9.308   3.685   1.969
12385SOL    HW248375   9.401   3.583   2.057
12386SOL     OW48376   0.234   9.121   0.062
12386SOL    HW148377   0.327   9.100   0.032
12386SOL    HW248378   0.176   9.041   0.049
12387SOL     OW48379   1.403   4.428   6.219
12387SOL    HW148380   1.431   4.521   6.246
12387SOL    HW248381   1.471   4.362   6.250
12388SOL     OW48382   4.198   9.740   5.688
12388SOL    HW148383   4.140   9.697   5.757
12388SOL    HW248384   4.175   9.837   5.680
12389SOL     OW48385   4.824   0.673   4.773
12389SOL    HW148386   4.778   0.611   4.709
12389SOL    HW248387   4.807   0.768   4.745
12390SOL     OW48388   2.072   0.725   1.983
12390SOL    HW148389   2.104   0.815   1.956
12390SOL    HW248390   2.139   0.656   1.957
12391SOL     OW48391   6.080   1.078   4.491
12391SOL    HW148392   6.083   1.178   4.501
12391SOL    HW248393   6.038   1.038   4.573
12392SOL     OW48394   1.126   6.850   5.396
12392SOL    HW148395   1.073   6.898   5.465
12392SOL    HW248396   1.084   6.762   5.376
12393SOL     OW48397   7.142   6.912   4.462
12393SOL    HW148398   7.144   6.824   4.415
12393SOL    HW248399   7.185   6.902   4.552
12394SOL     OW48400   5.089   2.760   1.093
12394SOL    HW148401   5.010   2.707   1.123
12394SOL    HW248402   5.072   2.857   1.112
12395SOL     OW48403   2.057   2.039   4.986
12395SOL    HW148404   1.960   2.038   4.959
12395SOL    HW248405   2.108   2.097   4.923
12396SOL     OW48406   1.319   2.626   1.944
12396SOL    HW148407   1.251   2.562   1.980
12396SOL    HW248408   1.404   2.618   1.997
12397SOL     OW48409   2.523   1.631   4.514
12397SOL    HW148410   2.511   1.614   4.611
12397SOL    HW248411   2.434   1.629   4.468
12398SOL     OW48412   5.177   6.468   1.246
12398SOL    HW148413   5.122   6.546   1.216
12398SOL    HW248414   5.126   6.383   1.228
12399SOL     OW48415   6.330   4.382   0.815
12399SOL    HW148416   6.344   4.286   0.837
12399SOL    HW248417   6.344   4.438   0.897
12400SOL     OW48418   8.342   1.395   1.067
12400SOL    HW148419   8.316   1.342   0.986
12400SOL    HW248420   8.318   1.491   1.053
12401SOL     OW48421   8.169   2.838   3.076
12401SOL    HW148422   8.209   2.865   3.164
12401SOL    HW248423   8.149   2.920   3.023
12402SOL     OW48424   2.269   9.843   0.922
12402SOL    HW148425   2.224   9.769   0.972
12402SOL    HW248426   2.340   9.805   0.862
12403SOL     OW48427   4.442   5.344   2.981
12403SOL    HW148428   4.492   5.282   3.041
12403SOL    HW248429   4.488   5.350   2.892
12404SOL     OW48430   0.473   0.682   1.131
12404SOL    HW148431   0.382   0.672   1.171
12404SOL    HW248432   0.505   0.594   1.096
12405SOL     OW48433   8.636   7.336   2.170
12405SOL    HW148434   8.604   7.341   2.075
12405SOL    HW248435   8.674   7.425   2.197
12406SOL     OW48436   7.003   1.717   4.801
12406SOL    HW148437   7.041   1.787   4.862
12406SOL    HW248438   6.985   1.634   4.852
12407SOL     OW48439   3.028   0.062   4.434
12407SOL    HW148440   2.962   0.068   4.509
12407SOL    HW248441   2.988   0.008   4.360
12408SOL     OW48442   5.415   0.711   3.886
12408SOL    HW148443   5.337   0.745   3.938
12408SOL    HW248444   5.497   0.713   3.943
12409SOL     OW48445   0.455   7.020   5.965
12409SOL    HW148446   0.366   7.044   5.927
12409SOL    HW248447   0.448   6.935   6.017
12410SOL     OW48448   8.682   2.306   4.278
12410SOL    HW148449   8.774   2.273   4.258
12410SOL    HW248450   8.664   2.299   4.376
12411SOL     OW48451   9.653   3.996   3.246
12411SOL    HW148452   9.664   4.095   3.244
12411SOL    HW248453   9.611   3.968   3.332
12412SOL     OW48454   3.947   5.448   3.720
12412SOL    HW148455   3.950   5.498   3.807
12412SOL    HW248456   4.027   5.473   3.665
12413SOL     OW48457   8.569   8.277   1.412
12413SOL    HW148458   8.625   8.201   1.445
12413SOL    HW248459   8.626   8.340   1.359
12414SOL     OW48460   9.587   8.518   0.464
12414SOL    HW148461   9.628   8.441   0.414
12414SOL    HW248462   9.628   8.604   0.433
12415SOL     OW48463   7.219   3.060   1.046
12415SOL    HW148464   7.188   3.001   1.120
12415SOL    HW248465   7.141   3.106   1.004
12416SOL     OW48466   0.994   1.555   4.180
12416SOL    HW148467   0.984   1.500   4.263
12416SOL    HW248468   1.013   1.650   4.205
12417SOL     OW48469   3.733   4.182   6.100
12417SOL    HW148470   3.638   4.192   6.072
12417SOL    HW248471   3.753   4.246   6.174
12418SOL     OW48472   7.822   3.278   0.179
12418SOL    HW148473   7.757   3.352   0.161
12418SOL    HW248474   7.773   3.199   0.217
12419SOL     OW48475   6.750   7.303   6.033
12419SOL    HW148476   6.654   7.305   6.060
12419SOL    HW248477   6.781   7.208   6.028
12420SOL     OW48478   3.222   8.697   4.750
12420SOL    HW148479   3.197   8.622   4.689
12420SOL    HW248480   3.139   8.746   4.778
12421SOL     OW48481   2.049   7.155   5.093
12421SOL    HW148482   2.106   7.113   5.023
12421SOL    HW248483   2.088   7.136   5.183
12422SOL     OW48484   3.469   5.684   3.050
12422SOL    HW148485   3.450   5.612   3.116
12422SOL    HW248486   3.567   5.701   3.046
12423SOL     OW48487   2.255   8.747   1.903
12423SOL    HW148488   2.198   8.829   1.894
12423SOL    HW248489   2.309   8.752   1.987
12424SOL     OW48490   3.502   7.021   4.142
12424SOL    HW148491   3.495   6.925   4.171
12424SOL    HW248492   3.423   7.072   4.176
12425SOL     OW48493   3.259   8.007   5.686
12425SOL    HW148494   3.251   8.094   5.637
12425SOL    HW248495   3.195   8.007   5.763
12426SOL     OW48496   1.603   4.631   0.827
12426SOL    HW148497   1.627   4.540   0.794
12426SOL    HW248498   1.535   4.672   0.766
12427SOL     OW48499   8.094   3.554   0.814
12427SOL    HW148500   8.081   3.626   0.745
12427SOL    HW248501   8.192   3.535   0.824
12428SOL     OW48502   7.910   6.014   0.490
12428SOL    HW148503   7.902   5.978   0.397
12428SOL    HW248504   7.915   6.114   0.487
12429SOL     OW48505   2.595   1.311   5.461
12429SOL    HW148506   2.692   1.313   5.484
12429SOL    HW248507   2.545   1.259   5.531
12430SOL     OW48508   0.998   0.827   3.992
12430SOL    HW148509   1.048   0.784   3.916
12430SOL    HW248510   0.938   0.898   3.956
12431SOL     OW48511   4.414   0.155   1.016
12431SOL    HW148512   4.436   0.204   1.100
12431SOL    HW248513   4.365   0.071   1.037
12432SOL     OW48514   2.122   5.764   4.237
12432SOL    HW148515   2.141   5.817   4.319
12432SOL    HW248516   2.033   5.720   4.244
12433SOL     OW48517   4.223   3.082   1.911
12433SOL    HW148518   4.133   3.084   1.867
12433SOL    HW248519   4.294   3.106   1.845
12434SOL     OW48520   0.689   5.933   0.529
12434SOL    HW148521   0.595   5.946   0.559
12434SOL    HW248522   0.702   5.980   0.441
12435SOL     OW48523   8.870   8.086   6.403
12435SOL    HW148524   8.919   8.173   6.392
12435SOL    HW248525   8.898   8.042   6.488
12436SOL     OW48526   1.801   9.406   3.021
12436SOL    HW148527   1.706   9.411   3.053
12436SOL    HW248528   1.814   9.472   2.947
12437SOL     OW48529   3.822   7.838   4.523
12437SOL    HW148530   3.863   7.909   4.581
12437SOL    HW248531   3.778   7.881   4.444
12438SOL     OW48532   0.743   8.918   5.790
12438SOL    HW148533   0.724   8.888   5.884
12438SOL    HW248534   0.749   9.018   5.787
12439SOL     OW48535   5.280   9.299   4.694
12439SOL    HW148536   5.342   9.350   4.634
12439SOL    HW248537   5.225   9.364   4.747
12440SOL     OW48538   8.693   2.001   1.988
12440SOL    HW148539   8.608   1.959   1.956
12440SOL    HW248540   8.679   2.098   2.003
12441SOL     OW48541   5.178   8.580   6.287
12441SOL    HW148542   5.242   8.525   6.340
12441SOL    HW248543   5.123   8.519   6.229
12442SOL     OW48544   0.187   7.541   0.489
12442SOL    HW148545   0.232   7.570   0.405
12442SOL    HW248546   0.167   7.443   0.484
12443SOL     OW48547   3.295   5.583   6.043
12443SOL    HW148548   3.382   5.601   6.087
12443SOL    HW248549   3.310   5.526   5.962
12444SOL     OW48550   7.747   0.268   3.628
12444SOL    HW148551   7.840   0.275   3.664
12444SOL    HW248552   7.684   0.247   3.702
12445SOL     OW48553   1.485   3.708   3.114
12445SOL    HW148554   1.573   3.728   3.158
12445SOL    HW248555   1.489   3.732   3.017
12446SOL     OW48556   8.313   2.541   4.474
12446SOL    HW148557   8.292   2.446   4.454
12446SOL    HW248558   8.411   2.552   4.489
12447SOL     OW48559   9.560   8.027   1.328
12447SOL    HW148560   9.497   7.971   1.274
12447SOL    HW248561   9.636   7.970   1.360
12448SOL     OW48562   6.968   0.909   0.648
12448SOL    HW148563   7.055   0.904   0.697
12448SOL    HW248564   6.894   0.875   0.705
12449SOL     OW48565   1.358   0.820   0.953
12449SOL    HW148566   1.310   0.835   1.040
12449SOL    HW248567   1.424   0.894   0.939
12450SOL     OW48568   2.222   3.345   0.640
12450SOL    HW148569   2.281   3.397   0.579
12450SOL    HW248570   2.209   3.252   0.604
12451SOL     OW48571   7.388   9.549   3.196
12451SOL    HW148572   7.392   9.639   3.241
12451SOL    HW248573   7.367   9.561   3.099
12452SOL     OW48574   5.494   7.583   4.708
12452SOL    HW148575   5.515   7.486   4.696
12452SOL    HW248576   5.521   7.612   4.801
12453SOL     OW48577   3.793   2.847   1.705
12453SOL    HW148578   3.800   2.928   1.648
12453SOL    HW248579   3.828   2.768   1.655
12454SOL     OW48580   1.555   9.321   5.217
12454SOL    HW148581   1.482   9.277   5.269
12454SOL    HW248582   1.542   9.303   5.120
12455SOL     OW48583   1.434   1.813   0.873
12455SOL    HW148584   1.361   1.809   0.942
12455SOL    HW248585   1.440   1.726   0.825
12456SOL     OW48586   8.883   7.527   1.030
12456SOL    HW148587   8.797   7.528   0.978
12456SOL    HW248588   8.863   7.508   1.126
12457SOL     OW48589   3.363   8.743   5.241
12457SOL    HW148590   3.437   8.743   5.174
12457SOL    HW248591   3.295   8.674   5.216
12458SOL     OW48592   2.074   7.444   3.772
12458SOL    HW148593   2.149   7.449   3.838
12458SOL    HW248594   2.097   7.378   3.701
12459SOL     OW48595   5.173   9.678   3.612
12459SOL    HW148596   5.169   9.749   3.542
12459SOL    HW248597   5.248   9.698   3.675
12460SOL     OW48598   6.946   8.520   3.805
12460SOL    HW148599   6.960   8.539   3.708
12460SOL    HW248600   6.862   8.467   3.816
12461SOL     OW48601   0.606   7.713   5.544
12461SOL    HW148602   0.565   7.769   5.471
12461SOL    HW248603   0.653   7.635   5.503
12462SOL     OW48604   8.437   4.589   0.760
12462SOL    HW148605   8.403   4.528   0.832
12462SOL    HW248606   8.492   4.536   0.695
12463SOL     OW48607   8.200   3.451   5.327
12463SOL    HW148608   8.100   3.457   5.321
12463SOL    HW248609   8.230   3.471   5.420
12464SOL     OW48610   4.966   6.043   1.910
12464SOL    HW148611   5.031   5.972   1.883
12464SOL    HW248612   4.951   6.039   2.009
12465SOL     OW48613   9.524   8.366   5.873
12465SOL    HW148614   9.451   8.409   5.820
12465SOL    HW248615   9.586   8.317   5.811
12466SOL     OW48616   1.195   7.155   4.892
12466SOL    HW148617   1.262   7.208   4.944
12466SOL    HW248618   1.191   7.189   4.798
12467SOL     OW48619   2.065   8.077   6.157
12467SOL    HW148620   2.128   8.000   6.169
12467SOL    HW248621   1.995   8.075   6.227
12468SOL     OW48622   0.832   1.018   3.883
12468SOL    HW148623   0.739   0.983   3.875
12468SOL    HW248624   0.837   1.110   3.843
12469SOL     OW48625   1.132   2.070   0.449
12469SOL    HW148626   1.091   2.079   0.540
12469SOL    HW248627   1.077   2.122   0.383
12470SOL     OW48628   2.434   5.998   3.357
12470SOL    HW148629   2.397   6.081   3.400
12470SOL    HW248630   2.522   5.976   3.400
12471SOL     OW48631   1.118   9.469   0.907
12471SOL    HW148632   1.119   9.492   0.810
12471SOL    HW248633   1.096   9.550   0.961
12472SOL     OW48634   4.865   5.761   2.616
12472SOL    HW148635   4.912   5.777   2.703
12472SOL    HW248636   4.875   5.842   2.558
12473SOL     OW48637   0.057   5.529   0.697
12473SOL    HW148638   9.984   5.474   0.656
12473SOL    HW248639   0.113   5.569   0.625
12474SOL     OW48640   4.660   9.091   4.292
12474SOL    HW148641   4.714   9.036   4.356
12474SOL    HW248642   4.577   9.124   4.339
12475SOL     OW48643   3.885   6.042   4.043
12475SOL    HW148644   3.916   6.086   4.127
12475SOL    HW248645   3.895   6.106   3.967
12476SOL     OW48646   5.452   7.292   5.001
12476SOL    HW148647   5.538   7.318   5.046
12476SOL    HW248648   5.466   7.288   4.902
12477SOL     OW48649   1.117   8.807   3.462
12477SOL    HW148650   1.183   8.883   3.460
12477SOL    HW248651   1.162   8.726   3.499
12478SOL     OW48652   6.740   7.649   3.556
12478SOL    HW148653   6.694   7.600   3.482
12478SOL    HW248654   6.725   7.747   3.544
12479SOL     OW48655   4.590   3.164   0.800
12479SOL    HW148656   4.582   3.179   0.899
12479SOL    HW248657   4.663   3.098   0.783
12480SOL     OW48658   9.539   9.264   3.697
12480SOL    HW148659   9.552   9.253   3.599
12480SOL    HW248660   9.444   9.287   3.716
12481SOL     OW48661   5.172   0.298   4.310
12481SOL    HW148662   5.104   0.344   4.253
12481SOL    HW248663   5.210   0.219   4.261
12482SOL     OW48664   4.360   6.616   2.334
12482SOL    HW148665   4.439   6.556   2.346
12482SOL    HW248666   4.286   6.565   2.289
12483SOL     OW48667   0.685   9.594   3.425
12483SOL    HW148668   0.707   9.606   3.329
12483SOL    HW248669   0.758   9.544   3.471
12484SOL     OW48670   0.113   1.163   5.285
12484SOL    HW148671   0.020   1.189   5.309
12484SOL    HW248672   0.177   1.230   5.323
12485SOL     OW48673   1.751   8.221   1.884
12485SOL    HW148674   1.821   8.163   1.924
12485SOL    HW248675   1.772   8.239   1.788
12486SOL     OW48676   2.294   2.473   4.561
12486SOL    HW148677   2.383   2.430   4.577
12486SOL    HW248678   2.306   2.572   4.558
12487SOL     OW48679   2.597   5.814   5.250
12487SOL    HW148680   2.670   5.772   5.195
12487SOL    HW248681   2.508   5.783   5.216
12488SOL     OW48682   4.482   2.251   1.798
12488SOL    HW148683   4.558   2.198   1.836
12488SOL    HW248684   4.418   2.273   1.872
12489SOL     OW48685   8.518   2.977   1.828
12489SOL    HW148686   8.467   2.896   1.858
12489SOL    HW248687   8.498   3.054   1.889
12490SOL     OW48688   8.614   0.138   3.448
12490SOL    HW148689   8.526   0.168   3.487
12490SOL    HW248690   8.654   0.213   3.396
12491SOL     OW48691   7.857   4.817   0.595
12491SOL    HW148692   7.786   4.798   0.528
12491SOL    HW248693   7.857   4.746   0.666
12492SOL     OW48694   6.224   8.654   3.792
12492SOL    HW148695   6.323   8.647   3.790
12492SOL    HW248696   6.187   8.620   3.705
12493SOL     OW48697   9.403   8.793   6.074
12493SOL    HW148698   9.328   8.833   6.022
12493SOL    HW248699   9.481   8.855   6.074
12494SOL     OW48700   5.568   0.472   4.215
12494SOL    HW148701   5.499   0.481   4.287
12494SOL    HW248702   5.539   0.402   4.149
12495SOL     OW48703   1.313   0.389   3.443
12495SOL    HW148704   1.306   0.290   3.427
12495SOL    HW248705   1.346   0.434   3.360
12496SOL     OW48706   7.659   0.896   5.169
12496SOL    HW148707   7.625   0.848   5.089
12496SOL    HW248708   7.589   0.894   5.241
12497SOL     OW48709   3.430   7.674   6.188
12497SOL    HW148710   3.466   7.603   6.248
12497SOL    HW248711   3.481   7.759   6.203
12498SOL     OW48712   1.131   7.277   3.512
12498SOL    HW148713   1.170   7.248   3.599
12498SOL    HW248714   1.150   7.209   3.442
12499SOL     OW48715   9.464   7.033   0.700
12499SOL    HW148716   9.420   6.949   0.732
12499SOL    HW248717   9.550   7.046   0.750
12500SOL     OW48718   0.108   3.008   4.240
12500SOL    HW148719   0.014   2.975   4.248
12500SOL    HW248720   0.133   3.060   4.321
12501SOL     OW48721   4.371   9.173   3.650
12501SOL    HW148722   4.401   9.255   3.601
12501SOL    HW248723   4.376   9.094   3.589
12502SOL     OW48724   3.518   1.786   0.181
12502SOL    HW148725   3.498   1.869   0.130
12502SOL    HW248726   3.552   1.715   0.119
12503SOL     OW48727   8.489   7.640   1.772
12503SOL    HW148728   8.436   7.585   1.836
12503SOL    HW248729   8.441   7.647   1.685
12504SOL     OW48730   1.215   5.077   2.156
12504SOL    HW148731   1.134   5.019   2.151
12504SOL    HW248732   1.187   5.171   2.177
12505SOL     OW48733   8.204   2.116   3.180
12505SOL    HW148734   8.243   2.036   3.134
12505SOL    HW248735   8.227   2.113   3.277
12506SOL     OW48736   9.089   7.974   3.436
12506SOL    HW148737   9.140   7.892   3.465
12506SOL    HW248738   9.008   7.984   3.494
12507SOL     OW48739   2.105   1.761   4.547
12507SOL    HW148740   2.013   1.726   4.563
12507SOL    HW248741   2.157   1.760   4.632
12508SOL     OW48742   5.550   1.414   5.575
12508SOL    HW148743   5.566   1.359   5.493
12508SOL    HW248744   5.561   1.511   5.552
12509SOL     OW48745   9.615   7.340   4.441
12509SOL    HW148746   9.619   7.246   4.474
12509SOL    HW248747   9.629   7.341   4.342
12510SOL     OW48748   8.350   5.701   4.417
12510SOL    HW148749   8.265   5.665   4.455
12510SOL    HW248750   8.422   5.632   4.425
12511SOL     OW48751   5.145   2.164   2.964
12511SOL    HW148752   5.124   2.239   3.026
12511SOL    HW248753   5.107   2.182   2.874
12512SOL     OW48754   0.512   9.299   3.772
12512SOL    HW148755   0.424   9.255   3.790
12512SOL    HW248756   0.518   9.322   3.674
12513SOL     OW48757   9.742   7.178   3.946
12513SOL    HW148758   9.706   7.220   4.029
12513SOL    HW248759   9.835   7.144   3.964
12514SOL     OW48760   2.262   8.367   1.947
12514SOL    HW148761   2.283   8.286   1.892
12514SOL    HW248762   2.215   8.435   1.890
12515SOL     OW48763   1.500   4.962   3.411
12515SOL    HW148764   1.586   4.910   3.420
12515SOL    HW248765   1.450   4.930   3.330
12516SOL     OW48766   6.954   2.359   4.728
12516SOL    HW148767   7.004   2.436   4.769
12516SOL    HW248768   6.896   2.393   4.654
12517SOL     OW48769   9.936   3.675   4.577
12517SOL    HW148770   9.853   3.706   4.531
12517SOL    HW248771   9.913   3.608   4.647
12518SOL     OW48772   5.424   3.933   1.547
12518SOL    HW148773   5.328   3.934   1.517
12518SOL    HW248774   5.426   3.932   1.647
12519SOL     OW48775   6.471   4.381   1.259
12519SOL    HW148776   6.403   4.351   1.327
12519SOL    HW248777   6.541   4.436   1.305
12520SOL     OW48778   1.401   5.258   3.649
12520SOL    HW148779   1.424   5.265   3.551
12520SOL    HW248780   1.381   5.163   3.671
12521SOL     OW48781   3.464   3.023   4.898
12521SOL    HW148782   3.401   2.967   4.845
12521SOL    HW248783   3.528   2.964   4.948
12522SOL     OW48784   4.250   7.068   3.841
12522SOL    HW148785   4.279   7.128   3.766
12522SOL    HW248786   4.269   6.973   3.816
12523SOL     OW48787   2.415   4.542   4.295
12523SOL    HW148788   2.515   4.538   4.298
12523SOL    HW248789   2.386   4.608   4.226
12524SOL     OW48790   4.497   2.300   0.813
12524SOL    HW148791   4.569   2.368   0.816
12524SOL    HW248792   4.513   2.237   0.736
12525SOL     OW48793   3.051   8.797   5.506
12525SOL    HW148794   3.076   8.761   5.595
12525SOL    HW248795   2.993   8.731   5.458
12526SOL     OW48796   1.479   4.175   2.344
12526SOL    HW148797   1.404   4.176   2.278
12526SOL    HW248798   1.449   4.219   2.429
12527SOL     OW48799   4.958   6.770   1.760
12527SOL    HW148800   4.871   6.820   1.770
12527SOL    HW248801   4.957   6.690   1.820
12528SOL     OW48802   3.953   5.009   0.976
12528SOL    HW148803   3.951   4.914   1.005
12528SOL    HW248804   4.048   5.041   0.970
12529SOL     OW48805   7.949   3.725   5.258
12529SOL    HW148806   7.936   3.629   5.281
12529SOL    HW248807   7.900   3.747   5.174
12530SOL     OW48808   8.050   4.031   4.237
12530SOL    HW148809   7.951   4.036   4.226
12530SOL    HW248810   8.092   4.015   4.148
12531SOL     OW48811   0.959   3.248   2.670
12531SOL    HW148812   0.959   3.291   2.761
12531SOL    HW248813   1.052   3.218   2.648
12532SOL     OW48814   1.442   1.573   4.199
12532SOL    HW148815   1.476   1.489   4.241
12532SOL    HW248816   1.518   1.621   4.155
12533SOL     OW48817   5.149   2.124   0.214
12533SOL    HW148818   5.234   2.073   0.209
12533SOL    HW248819   5.168   2.222   0.206
12534SOL     OW48820   5.053   3.464   1.471
12534SOL    HW148821   4.970   3.510   1.502
12534SOL    HW248822   5.103   3.524   1.408
12535SOL     OW48823   5.859   0.058   1.634
12535SOL    HW148824   5.853   0.122   1.558
12535SOL    HW248825   5.916   0.096   1.706
12536SOL     OW48826   9.192   3.954   4.241
12536SOL    HW148827   9.097   3.986   4.248
12536SOL    HW248828   9.254   4.031   4.257
12537SOL     OW48829   1.795   6.152   5.117
12537SOL    HW148830   1.878   6.119   5.161
12537SOL    HW248831   1.807   6.248   5.090
12538SOL     OW48832   8.836   2.604   3.637
12538SOL    HW148833   8.776   2.526   3.620
12538SOL    HW248834   8.787   2.689   3.616
12539SOL     OW48835   1.680   5.994   6.377
12539SOL    HW148836   1.628   5.927   6.325
12539SOL    HW248837   1.690   6.077   6.323
12540SOL     OW48838   5.934   5.069   0.220
12540SOL    HW148839   5.995   5.148   0.212
12540SOL    HW248840   5.933   5.037   0.315
12541SOL     OW48841   0.944   5.168   2.615
12541SOL    HW148842   0.962   5.230   2.690
12541SOL    HW248843   0.875   5.101   2.642
12542SOL     OW48844   8.094   2.222   2.812
12542SOL    HW148845   8.052   2.142   2.770
12542SOL    HW248846   8.023   2.279   2.854
12543SOL     OW48847   8.070   4.330   5.166
12543SOL    HW148848   8.027   4.400   5.222
12543SOL    HW248849   8.049   4.345   5.069
12544SOL     OW48850   0.948   0.263   0.263
12544SOL    HW148851   0.885   0.331   0.224
12544SOL    HW248852   0.906   0.173   0.258
12545SOL     OW48853   2.694   7.536   5.590
12545SOL    HW148854   2.723   7.455   5.641
12545SOL    HW248855   2.686   7.513   5.493
12546SOL     OW48856   6.700   6.279   5.973
12546SOL    HW148857   6.684   6.181   5.969
12546SOL    HW248858   6.696   6.317   5.880
12547SOL     OW48859   2.430   5.928   5.719
12547SOL    HW148860   2.390   5.837   5.726
12547SOL    HW248861   2.384   5.989   5.784
12548SOL     OW48862   7.799   7.927   1.799
12548SOL    HW148863   7.868   7.928   1.726
12548SOL    HW248864   7.822   7.996   1.867
12549SOL     OW48865   9.977   5.123   1.953
12549SOL    HW148866   9.903   5.185   1.977
12549SOL    HW248867   0.052   5.174   1.912
12550SOL     OW48868   5.947   2.691   4.941
12550SOL    HW148869   5.879   2.759   4.916
12550SOL    HW248870   5.930   2.606   4.891
12551SOL     OW48871   0.486   4.147   6.094
12551SOL    HW148872   0.454   4.220   6.033
12551SOL    HW248873   0.490   4.061   6.044
12552SOL     OW48874   1.633   9.217   2.157
12552SOL    HW148875   1.632   9.214   2.057
12552SOL    HW248876   1.727   9.214   2.190
12553SOL     OW48877   7.458   2.724   4.913
12553SOL    HW148878   7.484   2.657   4.843
12553SOL    HW248879   7.465   2.816   4.874
12554SOL     OW48880   0.275   9.694   1.419
12554SOL    HW148881   0.190   9.746   1.410
12554SOL    HW248882   0.294   9.678   1.515
12555SOL     OW48883   5.916   1.953   3.758
12555SOL    HW148884   5.854   1.909   3.693
12555SOL    HW248885   5.863   2.013   3.818
12556SOL     OW48886   4.025   4.697   4.064
12556SOL    HW148887   4.095   4.721   4.132
12556SOL    HW248888   3.936   4.733   4.094
12557SOL     OW48889   9.408   0.124   3.552
12557SOL    HW148890   9.498   0.132   3.596
12557SOL    HW248891   9.419   0.090   3.459
12558SOL     OW48892   4.427   5.096   4.046
12558SOL    HW148893   4.340   5.069   4.088
12558SOL    HW248894   4.494   5.022   4.057
12559SOL     OW48895   1.772   0.005   4.546
12559SOL    HW148896   1.747   0.043   4.635
12559SOL    HW248897   1.813   0.077   4.489
12560SOL     OW48898   7.708   0.521   5.230
12560SOL    HW148899   7.772   0.591   5.263
12560SOL    HW248900   7.686   0.459   5.305
12561SOL     OW48901   6.499   0.347   2.990
12561SOL    HW148902   6.591   0.370   3.022
12561SOL    HW248903   6.438   0.425   3.005
12562SOL     OW48904   8.444   4.566   2.931
12562SOL    HW148905   8.423   4.635   2.862
12562SOL    HW248906   8.401   4.592   3.018
12563SOL     OW48907   0.186   0.460   3.416
12563SOL    HW148908   0.214   0.410   3.498
12563SOL    HW248909   0.172   0.557   3.441
12564SOL     OW48910   7.312   8.245   5.004
12564SOL    HW148911   7.235   8.247   5.068
12564SOL    HW248912   7.325   8.151   4.971
12565SOL     OW48913   4.053   1.084   4.090
12565SOL    HW148914   4.039   1.175   4.129
12565SOL    HW248915   4.085   1.092   3.996
12566SOL     OW48916   1.579   9.594   5.605
12566SOL    HW148917   1.507   9.595   5.536
12566SOL    HW248918   1.566   9.669   5.669
12567SOL     OW48919   7.839   0.308   2.303
12567SOL    HW148920   7.815   0.400   2.272
12567SOL    HW248921   7.918   0.313   2.364
12568SOL     OW48922   1.336   2.381   5.629
12568SOL    HW148923   1.253   2.436   5.642
12568SOL    HW248924   1.314   2.285   5.643
12569SOL     OW48925   4.454   9.226   4.824
12569SOL    HW148926   4.452   9.153   4.893
12569SOL    HW248927   4.538   9.278   4.832
12570SOL     OW48928   6.449   7.673   5.292
12570SOL    HW148929   6.487   7.591   5.335
12570SOL    HW248930   6.524   7.730   5.258
12571SOL     OW48931   3.836   4.003   6.313
12571SOL    HW148932   3.779   4.056   6.250
12571SOL    HW248933   3.819   3.905   6.298
12572SOL     OW48934   0.672   1.657   1.498
12572SOL    HW148935   0.660   1.611   1.410
12572SOL    HW248936   0.590   1.645   1.554
12573SOL     OW48937   3.012   8.073   1.138
12573SOL    HW148938   3.045   7.979   1.151
12573SOL    HW248939   2.912   8.073   1.140
12574SOL     OW48940   4.783   0.430   4.327
12574SOL    HW148941   4.704   0.459   4.272
12574SOL    HW248942   4.862   0.416   4.268
12575SOL     OW48943   9.950   4.232   5.814
12575SOL    HW148944   9.869   4.174   5.812
12575SOL    HW248945   9.926   4.326   5.791
12576SOL     OW48946   0.121   4.700   2.230
12576SOL    HW148947   0.122   4.788   2.183
12576SOL    HW248948   0.213   4.660   2.228
12577SOL     OW48949   8.933   2.881   0.644
12577SOL    HW148950   8.906   2.956   0.704
12577SOL    HW248951   8.890   2.796   0.675
12578SOL     OW48952   4.521   4.602   0.338
12578SOL    HW148953   4.514   4.575   0.242
12578SOL    HW248954   4.474   4.534   0.395
12579SOL     OW48955   9.141   8.758   4.186
12579SOL    HW148956   9.099   8.839   4.145
12579SOL    HW248957   9.122   8.678   4.129
12580SOL     OW48958   3.357   5.973   1.150
12580SOL    HW148959   3.303   5.982   1.234
12580SOL    HW248960   3.440   6.028   1.158
12581SOL     OW48961   0.579   8.923   1.542
12581SOL    HW148962   0.530   9.004   1.573
12581SOL    HW248963   0.667   8.951   1.502
12582SOL     OW48964   0.946   3.462   3.846
12582SOL    HW148965   0.853   3.441   3.876
12582SOL    HW248966   1.005   3.383   3.864
12583SOL     OW48967   8.494   9.829   0.902
12583SOL    HW148968   8.539   9.918   0.892
12583SOL    HW248969   8.540   9.761   0.845
12584SOL     OW48970   0.301   0.135   1.329
12584SOL    HW148971   0.388   0.135   1.377
12584SOL    HW248972   0.238   0.198   1.374
12585SOL     OW48973   0.016   0.598   1.910
12585SOL    HW148974   0.042   0.665   1.840
12585SOL    HW248975   0.026   0.505   1.873
12586SOL     OW48976   4.682   9.585   3.307
12586SOL    HW148977   4.612   9.619   3.245
12586SOL    HW248978   4.687   9.644   3.388
12587SOL     OW48979   8.292   7.445   0.119
12587SOL    HW148980   8.198   7.416   0.134
12587SOL    HW248981   8.354   7.370   0.141
12588SOL     OW48982   9.611   4.033   4.245
12588SOL    HW148983   9.555   3.966   4.295
12588SOL    HW248984   9.705   3.999   4.239
12589SOL     OW48985   9.534   7.693   2.257
12589SOL    HW148986   9.489   7.667   2.171
12589SOL    HW248987   9.631   7.708   2.240
12590SOL     OW48988   0.942   4.723   1.027
12590SOL    HW148989   0.918   4.629   1.051
12590SOL    HW248990   1.035   4.742   1.057
12591SOL     OW48991   0.602   3.029   1.955
12591SOL    HW148992   0.697   3.003   1.937
12591SOL    HW248993   0.542   2.954   1.927
12592SOL     OW48994   0.155   6.979   6.344
12592SOL    HW148995   0.130   7.069   6.308
12592SOL    HW248996   0.072   6.925   6.358
12593SOL     OW48997   4.000   7.563   3.300
12593SOL    HW148998   3.950   7.519   3.375
12593SOL    HW248999   3.978   7.516   3.214
12594SOL     OW49000   1.231   8.338   4.003
12594SOL    HW149001   1.235   8.250   3.956
12594SOL    HW249002   1.322   8.361   4.040
12595SOL     OW49003   4.424   9.115   1.484
12595SOL    HW149004   4.433   9.214   1.494
12595SOL    HW249005   4.350   9.095   1.419
12596SOL     OW49006   6.201   1.891   3.407
12596SOL    HW149007   6.191   1.932   3.497
12596SOL    HW249008   6.297   1.893   3.380
12597SOL     OW49009   1.462   1.191   3.974
12597SOL    HW149010   1.370   1.205   4.008
12597SOL    HW249011   1.475   1.245   3.890
12598SOL     OW49012   1.927   2.290   4.427
12598SOL    HW149013   1.917   2.377   4.380
12598SOL    HW249014   2.020   2.255   4.414
12599SOL     OW49015   5.579   3.870   1.326
12599SOL    HW149016   5.671   3.909   1.334
12599SOL    HW249017   5.530   3.885   1.412
12600SOL     OW49018   0.777   7.513   0.134
12600SOL    HW149019   0.679   7.506   0.154
12600SOL    HW249020   0.824   7.432   0.171
12601SOL     OW49021   8.236   9.254   3.465
12601SOL    HW149022   8.273   9.246   3.372
12601SOL    HW249023   8.205   9.164   3.496
12602SOL     OW49024   6.077   7.641   6.264
12602SOL    HW149025   6.098   7.733   6.296
12602SOL    HW249026   5.983   7.618   6.288
12603SOL     OW49027   9.034   3.619   1.019
12603SOL    HW149028   9.002   3.576   0.935
12603SOL    HW249029   9.051   3.549   1.088
12604SOL     OW49030   8.441   8.531   0.157
12604SOL    HW149031   8.361   8.591   0.163
12604SOL    HW249032   8.510   8.573   0.099
12605SOL     OW49033   8.828   4.354   3.848
12605SOL    HW149034   8.744   4.399   3.816
12605SOL    HW249035   8.809   4.258   3.865
12606SOL     OW49036   5.650   9.644   2.556
12606SOL    HW149037   5.606   9.678   2.639
12606SOL    HW249038   5.630   9.547   2.545
12607SOL     OW49039   5.405   8.867   1.839
12607SOL    HW149040   5.485   8.911   1.879
12607SOL    HW249041   5.323   8.893   1.890
12608SOL     OW49042   1.258   2.834   4.232
12608SOL    HW149043   1.193   2.889   4.284
12608SOL    HW249044   1.234   2.838   4.134
12609SOL     OW49045   0.935   2.232   4.519
12609SOL    HW149046   0.895   2.280   4.441
12609SOL    HW249047   0.934   2.133   4.502
12610SOL     OW49048   5.388   8.291   6.071
12610SOL    HW149049   5.409   8.332   5.982
12610SOL    HW249050   5.356   8.198   6.058
12611SOL     OW49051   1.670   3.582   5.059
12611SOL    HW149052   1.733   3.531   5.117
12611SOL    HW249053   1.591   3.525   5.037
12612SOL     OW49054   2.447   6.241   0.630
12612SOL    HW149055   2.522   6.184   0.596
12612SOL    HW249056   2.374   6.243   0.562
12613SOL     OW49057   2.185   0.606   6.239
12613SOL    HW149058   2.115   0.658   6.191
12613SOL    HW249059   2.255   0.577   6.174
12614SOL     OW49060   3.598   9.677   0.366
12614SOL    HW149061   3.525   9.621   0.327
12614SOL    HW249062   3.580   9.690   0.464
12615SOL     OW49063   1.261   5.781   6.014
12615SOL    HW149064   1.355   5.814   6.009
12615SOL    HW249065   1.239   5.757   6.109
12616SOL     OW49066   2.664   0.071   2.325
12616SOL    HW149067   2.641   9.978   2.296
12616SOL    HW249068   2.752   0.069   2.372
12617SOL     OW49069   3.549   3.835   0.436
12617SOL    HW149070   3.532   3.933   0.439
12617SOL    HW249071   3.465   3.786   0.459
12618SOL     OW49072   8.034   6.893   1.502
12618SOL    HW149073   7.986   6.958   1.444
12618SOL    HW249074   8.027   6.801   1.462
12619SOL     OW49075   7.979   2.912   0.686
12619SOL    HW149076   7.970   2.929   0.588
12619SOL    HW249077   7.903   2.956   0.735
12620SOL     OW49078   4.246   8.341   2.678
12620SOL    HW149079   4.252   8.338   2.578
12620SOL    HW249080   4.308   8.412   2.712
12621SOL     OW49081   2.350   0.706   2.651
12621SOL    HW149082   2.430   0.658   2.616
12621SOL    HW249083   2.371   0.747   2.739
12622SOL     OW49084   1.978   8.614   2.224
12622SOL    HW149085   2.042   8.537   2.213
12622SOL    HW249086   1.987   8.651   2.316
12623SOL     OW49087   8.909   1.105   5.259
12623SOL    HW149088   8.979   1.093   5.330
12623SOL    HW249089   8.896   1.018   5.210
12624SOL     OW49090   2.365   3.465   0.420
12624SOL    HW149091   2.397   3.435   0.330
12624SOL    HW249092   2.442   3.502   0.471
12625SOL     OW49093   3.230   4.835   4.592
12625SOL    HW149094   3.290   4.776   4.647
12625SOL    HW249095   3.283   4.880   4.521
12626SOL     OW49096   4.209   8.251   5.827
12626SOL    HW149097   4.238   8.319   5.895
12626SOL    HW249098   4.237   8.160   5.857
12627SOL     OW49099   2.420   1.002   4.164
12627SOL    HW149100   2.341   1.051   4.202
12627SOL    HW249101   2.395   0.960   4.077
12628SOL     OW49102   9.602   0.527   3.055
12628SOL    HW149103   9.603   0.460   3.129
12628SOL    HW249104   9.512   0.568   3.048
12629SOL     OW49105   2.495   1.612   4.799
12629SOL    HW149106   2.489   1.525   4.849
12629SOL    HW249107   2.565   1.670   4.840
12630SOL     OW49108   6.560   8.400   3.084
12630SOL    HW149109   6.562   8.403   2.984
12630SOL    HW249110   6.478   8.446   3.117
12631SOL     OW49111   9.066   3.536   0.353
12631SOL    HW149112   9.080   3.605   0.282
12631SOL    HW249113   9.041   3.581   0.438
12632SOL     OW49114   8.329   9.015   0.661
12632SOL    HW149115   8.291   8.972   0.743
12632SOL    HW249116   8.340   9.113   0.677
12633SOL     OW49117   0.739   4.525   0.385
12633SOL    HW149118   0.711   4.439   0.344
12633SOL    HW249119   0.670   4.553   0.453
12634SOL     OW49120   3.731   0.254   2.186
12634SOL    HW149121   3.790   0.311   2.129
12634SOL    HW249122   3.774   0.164   2.198
12635SOL     OW49123   8.303   5.631   4.152
12635SOL    HW149124   8.292   5.532   4.143
12635SOL    HW249125   8.318   5.654   4.248
12636SOL     OW49126   9.153   7.750   1.456
12636SOL    HW149127   9.224   7.722   1.521
12636SOL    HW249128   9.068   7.766   1.505
12637SOL     OW49129   3.675   5.419   4.424
12637SOL    HW149130   3.762   5.440   4.380
12637SOL    HW249131   3.603   5.412   4.355
12638SOL     OW49132   8.589   8.634   3.804
12638SOL    HW149133   8.497   8.626   3.844
12638SOL    HW249134   8.583   8.686   3.718
12639SOL     OW49135   9.187   1.806   1.848
12639SOL    HW149136   9.209   1.882   1.910
12639SOL    HW249137   9.270   1.776   1.801
12640SOL     OW49138   0.354   1.302   6.378
12640SOL    HW149139   0.379   1.371   6.446
12640SOL    HW249140   0.396   1.325   6.290
12641SOL     OW49141   7.699   6.215   3.978
12641SOL    HW149142   7.600   6.226   3.983
12641SOL    HW249143   7.735   6.266   3.900
12642SOL     OW49144   2.806   3.441   0.465
12642SOL    HW149145   2.725   3.484   0.503
12642SOL    HW249146   2.822   3.475   0.372
12643SOL     OW49147   5.815   0.865   5.134
12643SOL    HW149148   5.880   0.941   5.126
12643SOL    HW249149   5.737   0.882   5.074
12644SOL     OW49150   7.966   7.050   4.244
12644SOL    HW149151   8.045   7.014   4.294
12644SOL    HW249152   7.923   7.123   4.298
12645SOL     OW49153   6.639   8.334   6.248
12645SOL    HW149154   6.731   8.374   6.239
12645SOL    HW249155   6.614   8.288   6.164
12646SOL     OW49156   9.803   2.890   5.533
12646SOL    HW149157   9.886   2.851   5.573
12646SOL    HW249158   9.756   2.944   5.602
12647SOL     OW49159   2.926   1.263   3.339
12647SOL    HW149160   3.011   1.240   3.291
12647SOL    HW249161   2.945   1.268   3.437
12648SOL     OW49162   0.106   2.575   4.634
12648SOL    HW149163   0.071   2.607   4.546
12648SOL    HW249164   0.119   2.652   4.695
12649SOL     OW49165   0.809   1.108   1.726
12649SOL    HW149166   0.907   1.097   1.737
12649SOL    HW249167   0.785   1.204   1.738
12650SOL     OW49168   0.657   5.137   1.667
12650SOL    HW149169   0.614   5.100   1.584
12650SOL    HW249170   0.718   5.068   1.706
12651SOL     OW49171   2.409   7.056   4.740
12651SOL    HW149172   2.350   7.028   4.816
12651SOL    HW249173   2.488   7.106   4.775
12652SOL     OW49174   3.854   3.022   3.536
12652SOL    HW149175   3.857   2.928   3.501
12652SOL    HW249176   3.881   3.086   3.464
12653SOL     OW49177   2.071   3.854   0.681
12653SOL    HW149178   2.003   3.791   0.718
12653SOL    HW249179   2.161   3.830   0.718
12654SOL     OW49180   0.329   3.045   2.429
12654SOL    HW149181   0.340   3.127   2.485
12654SOL    HW249182   0.389   3.051   2.349
12655SOL     OW49183   1.789   6.480   5.781
12655SOL    HW149184   1.759   6.465   5.875
12655SOL    HW249185   1.710   6.478   5.720
12656SOL     OW49186   2.130   4.617   4.995
12656SOL    HW149187   2.162   4.533   4.950
12656SOL    HW249188   2.049   4.598   5.050
12657SOL     OW49189   1.794   9.649   5.353
12657SOL    HW149190   1.841   9.596   5.423
12657SOL    HW249191   1.766   9.738   5.391
12658SOL     OW49192   0.258   7.441   2.706
12658SOL    HW149193   0.188   7.380   2.743
12658SOL    HW249194   0.235   7.465   2.612
12659SOL     OW49195   5.052   9.922   3.038
12659SOL    HW149196   5.018   9.832   3.012
12659SOL    HW249197   4.983   9.970   3.092
12660SOL     OW49198   3.901   0.232   3.945
12660SOL    HW149199   3.952   0.146   3.953
12660SOL    HW249200   3.803   0.213   3.942
12661SOL     OW49201   4.714   7.378   2.004
12661SOL    HW149202   4.771   7.345   1.928
12661SOL    HW249203   4.657   7.454   1.973
12662SOL     OW49204   8.289   2.072   3.451
12662SOL    HW149205   8.241   1.985   3.464
12662SOL    HW249206   8.381   2.054   3.416
12663SOL     OW49207   5.657   5.003   1.725
12663SOL    HW149208   5.739   5.058   1.737
12663SOL    HW249209   5.595   5.018   1.801
12664SOL     OW49210   1.884   1.132   5.078
12664SOL    HW149211   1.929   1.207   5.030
12664SOL    HW249212   1.799   1.164   5.119
12665SOL     OW49213   3.100   9.876   5.894
12665SOL    HW149214   3.040   9.896   5.816
12665SOL    HW249215   3.119   9.961   5.943
12666SOL     OW49216   8.440   7.603   0.504
12666SOL    HW149217   8.451   7.607   0.405
12666SOL    HW249218   8.529   7.619   0.548
12667SOL     OW49219   8.730   6.283   5.521
12667SOL    HW149220   8.690   6.237   5.600
12667SOL    HW249221   8.828   6.295   5.536
12668SOL     OW49222   1.157   5.323   3.396
12668SOL    HW149223   1.157   5.358   3.490
12668SOL    HW249224   1.224   5.374   3.341
12669SOL     OW49225   1.063   7.859   1.113
12669SOL    HW149226   0.999   7.842   1.187
12669SOL    HW249227   1.022   7.832   1.026
12670SOL     OW49228   2.007   6.898   4.763
12670SOL    HW149229   1.975   6.985   4.727
12670SOL    HW249230   1.934   6.854   4.815
12671SOL     OW49231   9.075   3.295   4.160
12671SOL    HW149232   8.988   3.268   4.118
12671SOL    HW249233   9.151   3.270   4.100
12672SOL     OW49234   9.508   5.138   6.231
12672SOL    HW149235   9.431   5.192   6.265
12672SOL    HW249236   9.590   5.195   6.227
12673SOL     OW49237   3.922   9.481   6.270
12673SOL    HW149238   3.916   9.507   6.366
12673SOL    HW249239   3.960   9.556   6.217
12674SOL     OW49240   4.492   0.117   1.481
12674SOL    HW149241   4.428   0.044   1.459
12674SOL    HW249242   4.503   0.123   1.581
12675SOL     OW49243   2.300   7.030   2.142
12675SOL    HW149244   2.212   7.000   2.106
12675SOL    HW249245   2.373   6.976   2.100
12676SOL     OW49246   3.962   6.250   2.687
12676SOL    HW149247   4.053   6.291   2.700
12676SOL    HW249248   3.901   6.282   2.760
12677SOL     OW49249   8.756   1.543   5.506
12677SOL    HW149250   8.809   1.552   5.422
12677SOL    HW249251   8.815   1.508   5.579
12678SOL     OW49252   2.855   1.539   0.396
12678SOL    HW149253   2.870   1.607   0.324
12678SOL    HW249254   2.915   1.558   0.473
12679SOL     OW49255   9.284   3.357   3.774
12679SOL    HW149256   9.372   3.338   3.731
12679SOL    HW249257   9.275   3.303   3.857
12680SOL     OW49258   9.926   2.061   5.021
12680SOL    HW149259   0.010   2.108   4.991
12680SOL    HW249260   9.946   1.964   5.035
12681SOL     OW49261   5.282   3.687   0.224
12681SOL    HW149262   5.236   3.605   0.258
12681SOL    HW249263   5.236   3.768   0.259
12682SOL     OW49264   5.435   4.971   0.612
12682SOL    HW149265   5.404   4.957   0.518
12682SOL    HW249266   5.505   5.043   0.614
12683SOL     OW49267   2.681   6.815   6.010
12683SOL    HW149268   2.614   6.759   5.961
12683SOL    HW249269   2.693   6.779   6.102
12684SOL     OW49270   9.666   9.667   2.079
12684SOL    HW149271   9.667   9.681   2.178
12684SOL    HW249272   9.759   9.649   2.047
12685SOL     OW49273   5.656   5.164   1.027
12685SOL    HW149274   5.703   5.193   0.944
12685SOL    HW249275   5.562   5.200   1.027
12686SOL     OW49276   3.348   5.430   5.817
12686SOL    HW149277   3.274   5.390   5.764
12686SOL    HW249278   3.418   5.360   5.835
12687SOL     OW49279   4.041   4.211   3.833
12687SOL    HW149280   4.060   4.295   3.885
12687SOL    HW249281   4.127   4.165   3.812
12688SOL     OW49282   1.759   7.156   1.270
12688SOL    HW149283   1.726   7.066   1.300
12688SOL    HW249284   1.722   7.227   1.329
12689SOL     OW49285   8.658   5.401   0.222
12689SOL    HW149286   8.643   5.400   0.321
12689SOL    HW249287   8.745   5.446   0.202
12690SOL     OW49288   1.937   6.276   2.328
12690SOL    HW149289   1.958   6.252   2.233
12690SOL    HW249290   1.870   6.350   2.330
12691SOL     OW49291   8.336   3.492   0.572
12691SOL    HW149292   8.257   3.528   0.523
12691SOL    HW249293   8.376   3.417   0.520
12692SOL     OW49294   0.730   4.064   6.206
12692SOL    HW149295   0.637   4.097   6.191
12692SOL    HW249296   0.727   3.967   6.233
12693SOL     OW49297   7.972   0.624   5.018
12693SOL    HW149298   7.947   0.649   5.112
12693SOL    HW249299   7.919   0.679   4.954
12694SOL     OW49300   7.648   0.809   0.254
12694SOL    HW149301   7.651   0.899   0.298
12694SOL    HW249302   7.737   0.789   0.214
12695SOL     OW49303   4.468   0.240   5.461
12695SOL    HW149304   4.549   0.292   5.435
12695SOL    HW249305   4.414   0.219   5.379
12696SOL     OW49306   7.860   8.118   1.975
12696SOL    HW149307   7.905   8.195   1.931
12696SOL    HW249308   7.833   8.144   2.068
12697SOL     OW49309   8.362   0.194   2.629
12697SOL    HW149310   8.402   0.168   2.717
12697SOL    HW249311   8.278   0.143   2.615
12698SOL     OW49312   2.939   6.746   1.081
12698SOL    HW149313   2.878   6.777   1.153
12698SOL    HW249314   2.919   6.796   0.996
12699SOL     OW49315   4.925   1.732   1.848
12699SOL    HW149316   4.892   1.782   1.928
12699SOL    HW249317   4.938   1.796   1.772
12700SOL     OW49318   2.462   1.139   2.703
12700SOL    HW149319   2.493   1.146   2.798
12700SOL    HW249320   2.366   1.109   2.702
12701SOL     OW49321   4.515   4.361   5.302
12701SOL    HW149322   4.446   4.418   5.346
12701SOL    HW249323   4.477   4.269   5.287
12702SOL     OW49324   0.599   3.190   6.159
12702SOL    HW149325   0.668   3.185   6.087
12702SOL    HW249326   0.566   3.284   6.168
12703SOL     OW49327   5.676   5.721   0.765
12703SOL    HW149328   5.631   5.667   0.836
12703SOL    HW249329   5.644   5.693   0.675
12704SOL     OW49330   6.122   8.848   2.834
12704SOL    HW149331   6.147   8.919   2.900
12704SOL    HW249332   6.143   8.879   2.741
12705SOL     OW49333   1.688   9.975   0.154
12705SOL    HW149334   1.607   9.918   0.136
12705SOL    HW249335   1.672   0.067   0.119
12706SOL     OW49336   2.779   9.975   1.951
12706SOL    HW149337   2.711   9.904   1.968
12706SOL    HW249338   2.790   9.987   1.852
12707SOL     OW49339   0.186   7.529   5.418
12707SOL    HW149340   0.241   7.593   5.365
12707SOL    HW249341   0.192   7.438   5.378
12708SOL     OW49342   8.415   0.921   5.206
12708SOL    HW149343   8.439   1.015   5.230
12708SOL    HW249344   8.356   0.922   5.125
12709SOL     OW49345   9.815   6.745   1.906
12709SOL    HW149346   9.801   6.721   2.002
12709SOL    HW249347   9.872   6.827   1.900
12710SOL     OW49348   4.433   1.221   1.274
12710SOL    HW149349   4.414   1.317   1.251
12710SOL    HW249350   4.470   1.175   1.194
12711SOL     OW49351   4.204   3.670   5.406
12711SOL    HW149352   4.131   3.736   5.391
12711SOL    HW249353   4.206   3.604   5.330
12712SOL     OW49354   7.789   9.696   5.497
12712SOL    HW149355   7.882   9.678   5.529
12712SOL    HW249356   7.723   9.659   5.562
12713SOL     OW49357   3.593   7.343   1.194
12713SOL    HW149358   3.668   7.277   1.199
12713SOL    HW249359   3.527   7.313   1.126
12714SOL     OW49360   7.999   5.875   1.805
12714SOL    HW149361   7.976   5.833   1.893
12714SOL    HW249362   7.925   5.937   1.778
12715SOL     OW49363   6.269   8.759   4.310
12715SOL    HW149364   6.195   8.743   4.376
12715SOL    HW249365   6.296   8.673   4.268
12716SOL     OW49366   9.749   9.844   2.986
12716SOL    HW149367   9.653   9.826   2.963
12716SOL    HW249368   9.801   9.759   2.980
12717SOL     OW49369   5.989   2.029   5.232
12717SOL    HW149370   5.979   1.966   5.155
12717SOL    HW249371   6.037   2.111   5.203
12718SOL     OW49372   1.121   8.787   5.831
12718SOL    HW149373   1.059   8.776   5.909
12718SOL    HW249374   1.210   8.748   5.853
12719SOL     OW49375   9.820   8.034   5.129
12719SOL    HW149376   9.730   8.047   5.088
12719SOL    HW249377   9.842   8.111   5.189
12720SOL     OW49378   2.712   5.649   3.427
12720SOL    HW149379   2.746   5.617   3.516
12720SOL    HW249380   2.662   5.575   3.382
12721SOL     OW49381   5.632   0.941   4.273
12721SOL    HW149382   5.680   0.953   4.359
12721SOL    HW249383   5.654   0.851   4.234
12722SOL     OW49384   3.017   9.719   1.105
12722SOL    HW149385   2.920   9.706   1.126
12722SOL    HW249386   3.042   9.660   1.028
12723SOL     OW49387   5.691   8.935   3.031
12723SOL    HW149388   5.647   8.845   3.022
12723SOL    HW249389   5.649   8.999   2.967
12724SOL     OW49390   1.098   8.112   5.917
12724SOL    HW149391   1.102   8.145   5.823
12724SOL    HW249392   1.125   8.185   5.979
12725SOL     OW49393   9.131   9.660   3.420
12725SOL    HW149394   9.168   9.574   3.454
12725SOL    HW249395   9.058   9.691   3.482
12726SOL     OW49396   4.557   2.647   3.344
12726SOL    HW149397   4.605   2.605   3.268
12726SOL    HW249398   4.459   2.651   3.324
12727SOL     OW49399   3.935   4.706   1.996
12727SOL    HW149400   3.859   4.762   2.028
12727SOL    HW249401   3.954   4.727   1.900
12728SOL     OW49402   2.518   7.934   6.175
12728SOL    HW149403   2.550   7.839   6.180
12728SOL    HW249404   2.569   7.982   6.104
12729SOL     OW49405   0.591   5.423   0.634
12729SOL    HW149406   0.629   5.503   0.586
12729SOL    HW249407   0.571   5.448   0.729
12730SOL     OW49408   8.213   4.611   1.588
12730SOL    HW149409   8.131   4.554   1.588
12730SOL    HW249410   8.293   4.556   1.612
12731SOL     OW49411   9.035   6.214   4.435
12731SOL    HW149412   9.056   6.299   4.388
12731SOL    HW249413   8.981   6.155   4.375
12732SOL     OW49414   1.052   2.966   4.411
12732SOL    HW149415   0.958   2.951   4.383
12732SOL    HW249416   1.064   2.935   4.506
12733SOL     OW49417   9.204   5.873   1.475
12733SOL    HW149418   9.131   5.872   1.407
12733SOL    HW249419   9.225   5.967   1.501
12734SOL     OW49420   0.721   1.310   5.877
12734SOL    HW149421   0.725   1.218   5.841
12734SOL    HW249422   0.766   1.313   5.966
12735SOL     OW49423   9.627   9.376   3.113
12735SOL    HW149424   9.699   9.371   3.045
12735SOL    HW249425   9.667   9.376   3.205
12736SOL     OW49426   0.395   1.234   0.123
12736SOL    HW149427   0.313   1.253   0.068
12736SOL    HW249428   0.468   1.297   0.095
12737SOL     OW49429   2.652   9.156   0.827
12737SOL    HW149430   2.643   9.101   0.911
12737SOL    HW249431   2.703   9.239   0.848
12738SOL     OW49432   3.529   1.274   1.195
12738SOL    HW149433   3.586   1.348   1.232
12738SOL    HW249434   3.588   1.209   1.146
12739SOL     OW49435   8.262   2.755   4.291
12739SOL    HW149436   8.274   2.711   4.202
12739SOL    HW249437   8.288   2.692   4.363
12740SOL     OW49438   2.301   5.572   0.859
12740SOL    HW149439   2.307   5.516   0.942
12740SOL    HW249440   2.381   5.555   0.801
12741SOL     OW49441   1.108   3.790   0.530
12741SOL    HW149442   1.124   3.730   0.452
12741SOL    HW249443   1.078   3.736   0.609
12742SOL     OW49444   0.062   0.739   2.153
12742SOL    HW149445   0.052   0.684   2.070
12742SOL    HW249446   0.016   0.695   2.229
12743SOL     OW49447   5.601   5.868   1.112
12743SOL    HW149448   5.592   5.916   1.024
12743SOL    HW249449   5.527   5.896   1.173
12744SOL     OW49450   7.975   5.779   3.303
12744SOL    HW149451   8.021   5.866   3.321
12744SOL    HW249452   7.919   5.754   3.383
12745SOL     OW49453   3.773   2.004   4.877
12745SOL    HW149454   3.864   2.034   4.904
12745SOL    HW249455   3.774   1.976   4.781
12746SOL     OW49456   8.613   4.922   2.764
12746SOL    HW149457   8.605   4.965   2.854
12746SOL    HW249458   8.710   4.906   2.744
12747SOL     OW49459   4.108   1.354   6.165
12747SOL    HW149460   4.148   1.266   6.188
12747SOL    HW249461   4.159   1.396   6.090
12748SOL     OW49462   8.132   3.982   3.978
12748SOL    HW149463   8.074   3.924   3.920
12748SOL    HW249464   8.226   3.948   3.975
12749SOL     OW49465   1.044   1.745   2.444
12749SOL    HW149466   1.001   1.707   2.526
12749SOL    HW249467   1.099   1.675   2.400
12750SOL     OW49468   6.098   0.878   2.469
12750SOL    HW149469   6.191   0.844   2.479
12750SOL    HW249470   6.066   0.914   2.557
12751SOL     OW49471   2.503   0.432   2.316
12751SOL    HW149472   2.438   0.477   2.255
12751SOL    HW249473   2.462   0.347   2.351
12752SOL     OW49474   0.995   2.216   3.798
12752SOL    HW149475   1.069   2.155   3.826
12752SOL    HW249476   0.924   2.163   3.750
12753SOL     OW49477   8.811   0.114   6.032
12753SOL    HW149478   8.832   0.079   5.940
12753SOL    HW249479   8.739   0.182   6.025
12754SOL     OW49480   7.373   0.581   0.846
12754SOL    HW149481   7.439   0.651   0.876
12754SOL    HW249482   7.408   0.536   0.764
12755SOL     OW49483   0.332   7.811   1.821
12755SOL    HW149484   0.238   7.845   1.818
12755SOL    HW249485   0.387   7.872   1.878
12756SOL     OW49486   4.454   0.135   4.301
12756SOL    HW149487   4.471   0.093   4.212
12756SOL    HW249488   4.392   0.213   4.290
12757SOL     OW49489   8.715   1.451   5.072
12757SOL    HW149490   8.645   1.482   5.137
12757SOL    HW249491   8.684   1.470   4.979
12758SOL     OW49492   2.513   7.583   3.619
12758SOL    HW149493   2.603   7.621   3.598
12758SOL    HW249494   2.444   7.655   3.612
12759SOL     OW49495   1.637   1.980   0.358
12759SOL    HW149496   1.553   2.033   0.366
12759SOL    HW249497   1.658   1.966   0.261
12760SOL     OW49498   1.446   0.484   1.222
12760SOL    HW149499   1.411   0.409   1.278
12760SOL    HW249500   1.486   0.554   1.280
12761SOL     OW49501   7.480   7.985   4.674
12761SOL    HW149502   7.580   7.992   4.669
12761SOL    HW249503   7.439   8.046   4.607
12762SOL     OW49504   6.975   8.449   4.798
12762SOL    HW149505   6.972   8.490   4.707
12762SOL    HW249506   6.926   8.361   4.797
12763SOL     OW49507   8.235   1.287   1.295
12763SOL    HW149508   8.288   1.326   1.220
12763SOL    HW249509   8.297   1.253   1.365
12764SOL     OW49510   9.389   8.061   0.796
12764SOL    HW149511   9.396   8.001   0.717
12764SOL    HW249512   9.443   8.023   0.871
12765SOL     OW49513   2.895   4.690   1.213
12765SOL    HW149514   2.928   4.785   1.213
12765SOL    HW249515   2.961   4.632   1.261
12766SOL     OW49516   1.181   0.726   4.498
12766SOL    HW149517   1.252   0.658   4.480
12766SOL    HW249518   1.143   0.759   4.412
12767SOL     OW49519   1.801   7.789   1.718
12767SOL    HW149520   1.822   7.793   1.815
12767SOL    HW249521   1.750   7.705   1.698
12768SOL     OW49522   6.902   2.732   1.675
12768SOL    HW149523   6.903   2.752   1.577
12768SOL    HW249524   6.830   2.787   1.719
12769SOL     OW49525   0.019   5.670   4.839
12769SOL    HW149526   9.935   5.707   4.879
12769SOL    HW249527   0.094   5.733   4.856
12770SOL     OW49528   9.566   1.084   4.751
12770SOL    HW149529   9.548   0.987   4.732
12770SOL    HW249530   9.480   1.135   4.750
12771SOL     OW49531   9.156   7.608   6.326
12771SOL    HW149532   9.223   7.534   6.321
12771SOL    HW249533   9.064   7.569   6.338
12772SOL     OW49534   7.428   2.968   3.622
12772SOL    HW149535   7.436   3.013   3.711
12772SOL    HW249536   7.519   2.941   3.590
12773SOL     OW49537   4.582   4.703   2.553
12773SOL    HW149538   4.494   4.746   2.533
12773SOL    HW249539   4.575   4.648   2.636
12774SOL     OW49540   0.554   7.653   2.736
12774SOL    HW149541   0.477   7.672   2.797
12774SOL    HW249542   0.617   7.730   2.735
12775SOL     OW49543   8.912   5.969   0.415
12775SOL    HW149544   8.969   5.940   0.338
12775SOL    HW249545   8.872   5.888   0.459
12776SOL     OW49546   1.469   5.236   3.382
12776SOL    HW149547   1.433   5.249   3.290
12776SOL    HW249548   1.492   5.140   3.396
12777SOL     OW49549   9.935   8.966   2.121
12777SOL    HW149550   9.939   8.875   2.161
12777SOL    HW249551   9.870   8.967   2.046
12778SOL     OW49552   5.804   8.520   3.296
12778SOL    HW149553   5.810   8.546   3.199
12778SOL    HW249554   5.778   8.599   3.351
12779SOL     OW49555   1.984   3.169   4.584
12779SOL    HW149556   1.919   3.108   4.630
12779SOL    HW249557   2.071   3.122   4.572
12780SOL     OW49558   4.063   6.315   3.083
12780SOL    HW149559   4.052   6.220   3.112
12780SOL    HW249560   4.160   6.337   3.076
12781SOL     OW49561   7.405   6.489   6.074
12781SOL    HW149562   7.505   6.492   6.071
12781SOL    HW249563   7.367   6.544   6.000
12782SOL     OW49564   2.890   9.891   5.698
12782SOL    HW149565   2.839   9.952   5.638
12782SOL    HW249566   2.827   9.849   5.765
12783SOL     OW49567   4.804   0.953   4.715
12783SOL    HW149568   4.779   1.041   4.676
12783SOL    HW249569   4.902   0.953   4.736
12784SOL     OW49570   3.663   7.028   5.625
12784SOL    HW149571   3.643   7.039   5.723
12784SOL    HW249572   3.585   7.060   5.572
12785SOL     OW49573   8.834   3.225   5.989
12785SOL    HW149574   8.859   3.261   5.899
12785SOL    HW249575   8.915   3.227   6.049
12786SOL     OW49576   5.762   0.864   5.731
12786SOL    HW149577   5.723   0.773   5.745
12786SOL    HW249578   5.691   0.933   5.747
12787SOL     OW49579   5.121   0.177   6.105
12787SOL    HW149580   5.160   0.101   6.053
12787SOL    HW249581   5.042   0.145   6.157
12788SOL     OW49582   2.693   4.518   2.862
12788SOL    HW149583   2.594   4.534   2.860
12788SOL    HW249584   2.728   4.540   2.952
12789SOL     OW49585   8.556   4.138   3.337
12789SOL    HW149586   8.630   4.202   3.320
12789SOL    HW249587   8.482   4.184   3.385
12790SOL     OW49588   5.814   5.522   0.414
12790SOL    HW149589   5.801   5.423   0.425
12790SOL    HW249590   5.854   5.540   0.324
12791SOL     OW49591   2.679   9.510   6.085
12791SOL    HW149592   2.634   9.586   6.132
12791SOL    HW249593   2.767   9.541   6.048
12792SOL     OW49594   3.625   1.400   0.232
12792SOL    HW149595   3.635   1.468   0.160
12792SOL    HW249596   3.655   1.311   0.198
12793SOL     OW49597   4.736   5.722   1.930
12793SOL    HW149598   4.764   5.712   1.834
12793SOL    HW249599   4.816   5.718   1.989
12794SOL     OW49600   5.341   4.843   1.830
12794SOL    HW149601   5.335   4.777   1.904
12794SOL    HW249602   5.396   4.922   1.860
12795SOL     OW49603   7.083   0.364   4.911
12795SOL    HW149604   6.987   0.342   4.922
12795SOL    HW249605   7.125   0.378   5.001
12796SOL     OW49606   0.404   2.657   5.086
12796SOL    HW149607   0.435   2.585   5.024
12796SOL    HW249608   0.341   2.619   5.153
12797SOL     OW49609   5.238   0.067   4.174
12797SOL    HW149610   5.221   0.071   4.076
12797SOL    HW249611   5.166   0.013   4.218
12798SOL     OW49612   0.315   4.749   2.974
12798SOL    HW149613   0.289   4.740   2.878
12798SOL    HW249614   0.242   4.713   3.032
12799SOL     OW49615   7.126   0.452   3.943
12799SOL    HW149616   7.127   0.513   3.864
12799SOL    HW249617   7.117   0.505   4.027
12800SOL     OW49618   0.224   7.255   2.335
12800SOL    HW149619   0.267   7.193   2.400
12800SOL    HW249620   0.200   7.341   2.381
12801SOL     OW49621   9.287   9.433   3.494
12801SOL    HW149622   9.296   9.365   3.422
12801SOL    HW249623   9.268   9.387   3.581
12802SOL     OW49624   8.516   5.382   2.252
12802SOL    HW149625   8.418   5.363   2.241
12802SOL    HW249626   8.569   5.302   2.223
12803SOL     OW49627   0.827   0.625   1.033
12803SOL    HW149628   0.856   0.567   0.957
12803SOL    HW249629   0.826   0.720   1.004
12804SOL     OW49630   5.565   1.412   0.155
12804SOL    HW149631   5.499   1.373   0.219
12804SOL    HW249632   5.657   1.390   0.185
12805SOL     OW49633   8.686   4.632   3.963
12805SOL    HW149634   8.650   4.725   3.957
12805SOL    HW249635   8.653   4.578   3.886
12806SOL     OW49636   8.657   0.107   0.374
12806SOL    HW149637   8.563   0.115   0.341
12806SOL    HW249638   8.659   0.124   0.473
12807SOL     OW49639   2.178   7.056   3.845
12807SOL    HW149640   2.273   7.043   3.872
12807SOL    HW249641   2.128   7.100   3.919
12808SOL     OW49642   2.675   5.961   5.855
12808SOL    HW149643   2.600   5.929   5.797
12808SOL    HW249644   2.664   6.059   5.873
12809SOL     OW49645   9.829   9.318   1.808
12809SOL    HW149646   9.875   9.402   1.779
12809SOL    HW249647   9.820   9.318   1.908
12810SOL     OW49648   7.594   0.777   2.328
12810SOL    HW149649   7.671   0.840   2.316
12810SOL    HW249650   7.555   0.754   2.239
12811SOL     OW49651   8.633   9.043   3.549
12811SOL    HW149652   8.732   9.054   3.548
12811SOL    HW249653   8.597   9.054   3.456
12812SOL     OW49654   8.601   7.689   1.121
12812SOL    HW149655   8.579   7.781   1.089
12812SOL    HW249656   8.618   7.630   1.042
12813SOL     OW49657   8.675   4.121   1.611
12813SOL    HW149658   8.621   4.167   1.682
12813SOL    HW249659   8.752   4.073   1.653
12814SOL     OW49660   0.640   8.599   2.685
12814SOL    HW149661   0.669   8.540   2.610
12814SOL    HW249662   0.543   8.584   2.703
12815SOL     OW49663   3.961   2.130   3.023
12815SOL    HW149664   3.911   2.176   2.950
12815SOL    HW249665   3.917   2.043   3.045
12816SOL     OW49666   8.913   9.829   1.096
12816SOL    HW149667   8.908   9.779   1.010
12816SOL    HW249668   8.876   9.921   1.084
12817SOL     OW49669   2.659   4.822   5.210
12817SOL    HW149670   2.729   4.858   5.272
12817SOL    HW249671   2.671   4.861   5.119
12818SOL     OW49672   4.493   1.362   6.008
12818SOL    HW149673   4.581   1.319   5.987
12818SOL    HW249674   4.493   1.393   6.103
12819SOL     OW49675   4.539   1.889   1.791
12819SOL    HW149676   4.439   1.895   1.796
12819SOL    HW249677   4.565   1.803   1.748
12820SOL     OW49678   8.471   5.160   0.848
12820SOL    HW149679   8.497   5.253   0.877
12820SOL    HW249680   8.378   5.162   0.812
12821SOL     OW49681   8.778   6.494   3.212
12821SOL    HW149682   8.797   6.489   3.310
12821SOL    HW249683   8.755   6.403   3.178
12822SOL     OW49684   9.722   0.426   3.746
12822SOL    HW149685   9.643   0.383   3.790
12822SOL    HW249686   9.719   0.410   3.648
12823SOL     OW49687   0.852   1.415   0.077
12823SOL    HW149688   0.874   1.379   8.175
12823SOL    HW249689   0.934   1.453   0.120
12824SOL     OW49690   0.657   6.483   5.227
12824SOL    HW149691   0.676   6.385   5.229
12824SOL    HW249692   0.613   6.510   5.313
12825SOL     OW49693   7.961   7.588   5.552
12825SOL    HW149694   8.031   7.553   5.615
12825SOL    HW249695   7.872   7.551   5.577
12826SOL     OW49696   7.846   9.393   2.013
12826SOL    HW149697   7.938   9.411   2.049
12826SOL    HW249698   7.778   9.432   2.074
12827SOL     OW49699   1.512   1.072   3.597
12827SOL    HW149700   1.455   1.065   3.515
12827SOL    HW249701   1.524   0.982   3.637
12828SOL     OW49702   1.397   5.173   3.106
12828SOL    HW149703   1.401   5.203   3.010
12828SOL    HW249704   1.473   5.110   3.124
12829SOL     OW49705   0.509   0.108   4.815
12829SOL    HW149706   0.524   0.108   4.913
12829SOL    HW249707   0.412   0.123   4.796
12830SOL     OW49708   4.367   2.197   5.365
12830SOL    HW149709   4.292   2.131   5.366
12830SOL    HW249710   4.355   2.259   5.288
12831SOL     OW49711   7.881   0.081   0.681
12831SOL    HW149712   7.817   0.019   0.636
12831SOL    HW249713   7.835   0.125   0.759
12832SOL     OW49714   2.105   5.712   0.726
12832SOL    HW149715   2.031   5.656   0.689
12832SOL    HW249716   2.166   5.655   0.781
12833SOL     OW49717   2.132   0.658   3.464
12833SOL    HW149718   2.109   0.579   3.408
12833SOL    HW249719   2.231   0.670   3.468
12834SOL     OW49720   4.095   3.270   5.995
12834SOL    HW149721   4.126   3.220   6.077
12834SOL    HW249722   4.168   3.331   5.965
12835SOL     OW49723   0.015   3.578   2.074
12835SOL    HW149724   0.032   3.673   2.099
12835SOL    HW249725   0.102   3.528   2.070
12836SOL     OW49726   4.880   3.956   0.818
12836SOL    HW149727   4.828   3.982   0.736
12836SOL    HW249728   4.876   4.029   0.885
12837SOL     OW49729   3.808   9.422   3.827
12837SOL    HW149730   3.810   9.490   3.901
12837SOL    HW249731   3.782   9.333   3.865
12838SOL     OW49732   7.300   7.881   6.248
12838SOL    HW149733   7.387   7.883   6.298
12838SOL    HW249734   7.315   7.905   6.152
12839SOL     OW49735   8.050   7.366   3.990
12839SOL    HW149736   8.132   7.318   4.022
12839SOL    HW249737   7.975   7.350   4.053
12840SOL     OW49738   9.561   3.787   5.906
12840SOL    HW149739   9.485   3.827   5.958
12840SOL    HW249740   9.569   3.834   5.818
12841SOL     OW49741   0.549   7.487   2.024
12841SOL    HW149742   0.635   7.453   1.985
12841SOL    HW249743   0.485   7.507   1.950
12842SOL     OW49744   9.572   4.495   2.823
12842SOL    HW149745   9.558   4.585   2.780
12842SOL    HW249746   9.515   4.427   2.776
12843SOL     OW49747   9.471   2.278   4.520
12843SOL    HW149748   9.448   2.373   4.542
12843SOL    HW249749   9.568   2.262   4.536
12844SOL     OW49750   8.898   4.495   5.600
12844SOL    HW149751   8.873   4.464   5.508
12844SOL    HW249752   8.882   4.593   5.608
12845SOL     OW49753   6.232   9.540   2.485
12845SOL    HW149754   6.323   9.580   2.475
12845SOL    HW249755   6.177   9.597   2.545
12846SOL     OW49756   2.240   7.436   1.337
12846SOL    HW149757   2.188   7.517   1.310
12846SOL    HW249758   2.188   7.353   1.314
12847SOL     OW49759   9.641   0.675   3.864
12847SOL    HW149760   9.662   0.591   3.814
12847SOL    HW249761   9.547   0.672   3.898
12848SOL     OW49762   8.835   3.204   4.057
12848SOL    HW149763   8.794   3.158   4.136
12848SOL    HW249764   8.808   3.157   3.973
12849SOL     OW49765   1.915   6.410   3.268
12849SOL    HW149766   1.889   6.505   3.255
12849SOL    HW249767   2.000   6.391   3.217
12850SOL     OW49768   1.403   5.089   0.099
12850SOL    HW149769   1.309   5.059   0.113
12850SOL    HW249770   1.466   5.024   0.142
12851SOL     OW49771   1.126   9.781   1.769
12851SOL    HW149772   1.146   9.878   1.758
12851SOL    HW249773   1.031   9.769   1.798
12852SOL     OW49774   1.543   5.271   2.364
12852SOL    HW149775   1.464   5.319   2.402
12852SOL    HW249776   1.594   5.332   2.305
12853SOL     OW49777   4.725   7.906   2.777
12853SOL    HW149778   4.679   7.993   2.756
12853SOL    HW249779   4.824   7.917   2.767
12854SOL     OW49780   9.627   5.795   1.988
12854SOL    HW149781   9.578   5.730   1.929
12854SOL    HW249782   9.724   5.771   1.991
12855SOL     OW49783   8.140   4.668   4.325
12855SOL    HW149784   8.239   4.663   4.330
12855SOL    HW249785   8.111   4.764   4.326
12856SOL     OW49786   9.893   0.033   2.846
12856SOL    HW149787   9.983   9.995   2.824
12856SOL    HW249788   9.847   9.973   2.911
12857SOL     OW49789   2.490   6.925   0.128
12857SOL    HW149790   2.460   7.007   0.176
12857SOL    HW249791   2.588   6.913   0.140
12858SOL     OW49792   9.553   0.634   5.187
12858SOL    HW149793   9.474   0.581   5.218
12858SOL    HW249794   9.618   0.574   5.141
12859SOL     OW49795   3.786   6.754   0.913
12859SOL    HW149796   3.725   6.676   0.929
12859SOL    HW249797   3.876   6.733   0.951
12860SOL     OW49798   1.961   5.348   4.972
12860SOL    HW149799   1.993   5.311   5.059
12860SOL    HW249800   1.897   5.284   4.930
12861SOL     OW49801   7.334   1.805   1.480
12861SOL    HW149802   7.400   1.830   1.410
12861SOL    HW249803   7.250   1.857   1.467
12862SOL     OW49804   7.915   2.664   4.917
12862SOL    HW149805   7.937   2.677   4.820
12862SOL    HW249806   7.995   2.627   4.964
12863SOL     OW49807   6.864   9.573   5.356
12863SOL    HW149808   6.934   9.528   5.412
12863SOL    HW249809   6.905   9.602   5.270
12864SOL     OW49810   1.634   1.362   0.705
12864SOL    HW149811   1.720   1.407   0.680
12864SOL    HW249812   1.605   1.303   0.630
12865SOL     OW49813   9.414   4.471   1.760
12865SOL    HW149814   9.492   4.483   1.699
12865SOL    HW249815   9.434   4.398   1.826
12866SOL     OW49816   0.703   5.657   0.541
12866SOL    HW149817   0.711   5.757   0.536
12866SOL    HW249818   0.788   5.618   0.577
12867SOL     OW49819   5.029   9.106   2.471
12867SOL    HW149820   5.001   9.198   2.442
12867SOL    HW249821   4.948   9.051   2.490
12868SOL     OW49822   8.575   7.193   0.457
12868SOL    HW149823   8.640   7.261   0.491
12868SOL    HW249824   8.625   7.121   0.408
12869SOL     OW49825   4.442   8.093   3.439
12869SOL    HW149826   4.505   8.140   3.377
12869SOL    HW249827   4.356   8.075   3.392
12870SOL     OW49828   3.750   4.045   0.573
12870SOL    HW149829   3.663   4.074   0.533
12870SOL    HW249830   3.805   4.125   0.595
12871SOL     OW49831   3.169   7.931   3.551
12871SOL    HW149832   3.263   7.926   3.516
12871SOL    HW249833   3.153   7.855   3.614
12872SOL     OW49834   3.894   7.623   4.683
12872SOL    HW149835   3.968   7.566   4.646
12872SOL    HW249836   3.879   7.701   4.622
12873SOL     OW49837   3.597   1.033   4.203
12873SOL    HW149838   3.506   1.043   4.163
12873SOL    HW249839   3.588   0.997   4.296
12874SOL     OW49840   2.570   8.383   3.009
12874SOL    HW149841   2.665   8.375   3.040
12874SOL    HW249842   2.545   8.301   2.958
12875SOL     OW49843   1.996   7.496   0.650
12875SOL    HW149844   1.919   7.526   0.593
12875SOL    HW249845   1.961   7.441   0.726
12876SOL     OW49846   1.849   4.843   1.160
12876SOL    HW149847   1.949   4.845   1.161
12876SOL    HW249848   1.816   4.764   1.211
12877SOL     OW49849   9.891   0.950   2.046
12877SOL    HW149850   9.943   0.965   1.962
12877SOL    HW249851   9.941   0.887   2.106
12878SOL     OW49852   1.790   4.086   2.951
12878SOL    HW149853   1.882   4.061   2.980
12878SOL    HW249854   1.724   4.066   3.024
12879SOL     OW49855   8.360   8.825   1.657
12879SOL    HW149856   8.266   8.844   1.629
12879SOL    HW249857   8.385   8.885   1.733
12880SOL     OW49858   1.437   7.476   1.516
12880SOL    HW149859   1.360   7.513   1.464
12880SOL    HW249860   1.409   7.392   1.562
12881SOL     OW49861   0.618   4.773   4.166
12881SOL    HW149862   0.688   4.828   4.121
12881SOL    HW249863   0.643   4.757   4.261
12882SOL     OW49864   1.842   9.136   5.133
12882SOL    HW149865   1.759   9.123   5.079
12882SOL    HW249866   1.917   9.086   5.091
12883SOL     OW49867   9.370   5.731   5.757
12883SOL    HW149868   9.443   5.726   5.688
12883SOL    HW249869   9.362   5.825   5.790
12884SOL     OW49870   4.974   5.870   0.802
12884SOL    HW149871   5.066   5.888   0.835
12884SOL    HW249872   4.944   5.945   0.742
12885SOL     OW49873   8.388   6.003   2.556
12885SOL    HW149874   8.370   5.938   2.630
12885SOL    HW249875   8.309   6.007   2.495
12886SOL     OW49876   1.054   2.577   1.558
12886SOL    HW149877   1.147   2.603   1.586
12886SOL    HW249878   1.005   2.540   1.637
12887SOL     OW49879   9.682   0.681   3.496
12887SOL    HW149880   9.695   0.583   3.485
12887SOL    HW249881   9.720   0.729   3.417
12888SOL     OW49882   3.992   8.624   2.481
12888SOL    HW149883   4.068   8.632   2.546
12888SOL    HW249884   4.016   8.672   2.396
12889SOL     OW49885   5.006   5.931   1.626
12889SOL    HW149886   5.049   5.887   1.704
12889SOL    HW249887   4.911   5.953   1.647
12890SOL     OW49888   4.056   7.636   5.930
12890SOL    HW149889   4.055   7.593   5.840
12890SOL    HW249890   4.140   7.690   5.941
12891SOL     OW49891   0.609   1.842   4.128
12891SOL    HW149892   0.660   1.894   4.059
12891SOL    HW249893   0.635   1.746   4.124
12892SOL     OW49894   8.741   1.412   0.198
12892SOL    HW149895   8.657   1.412   0.145
12892SOL    HW249896   8.724   1.374   0.289
12893SOL     OW49897   9.378   2.078   4.350
12893SOL    HW149898   9.410   2.158   4.400
12893SOL    HW249899   9.402   1.995   4.401
12894SOL     OW49900   3.023   9.296   1.973
12894SOL    HW149901   3.115   9.258   1.971
12894SOL    HW249902   3.015   9.367   1.903
12895SOL     OW49903   2.800   4.105   6.383
12895SOL    HW149904   2.810   4.146   6.474
12895SOL    HW249905   2.853   4.159   6.316
12896SOL     OW49906   7.158   4.998   1.296
12896SOL    HW149907   7.230   4.979   1.362
12896SOL    HW249908   7.078   5.035   1.344
12897SOL     OW49909   6.528   4.455   0.634
12897SOL    HW149910   6.604   4.446   0.698
12897SOL    HW249911   6.442   4.438   0.683
12898SOL     OW49912   2.931   0.473   6.338
12898SOL    HW149913   2.885   0.487   6.250
12898SOL    HW249914   2.895   0.391   6.382
12899SOL     OW49915   6.034   7.390   3.586
12899SOL    HW149916   5.951   7.446   3.578
12899SOL    HW249917   6.065   7.391   3.682
12900SOL     OW49918   9.042   1.257   2.586
12900SOL    HW149919   9.066   1.189   2.516
12900SOL    HW249920   9.004   1.338   2.542
12901SOL     OW49921   5.032   0.587   2.928
12901SOL    HW149922   4.964   0.659   2.944
12901SOL    HW249923   4.997   0.524   2.858
12902SOL     OW49924   2.756   8.747   3.855
12902SOL    HW149925   2.830   8.685   3.832
12902SOL    HW249926   2.743   8.749   3.954
12903SOL     OW49927   7.076   9.632   3.045
12903SOL    HW149928   7.168   9.639   3.007
12903SOL    HW249929   7.026   9.559   2.997
12904SOL     OW49930   2.261   1.218   5.839
12904SOL    HW149931   2.178   1.191   5.790
12904SOL    HW249932   2.276   1.156   5.915
12905SOL     OW49933   6.671   4.140   0.076
12905SOL    HW149934   6.666   4.102   8.172
12905SOL    HW249935   6.580   4.140   0.117
12906SOL     OW49936   0.333   0.763   3.813
12906SOL    HW149937   0.423   0.805   3.824
12906SOL    HW249938   0.263   0.834   3.816
12907SOL     OW49939   4.082   7.658   1.896
12907SOL    HW149940   4.110   7.638   1.802
12907SOL    HW249941   3.997   7.710   1.895
12908SOL     OW49942   0.036   9.818   4.997
12908SOL    HW149943   0.101   9.765   4.943
12908SOL    HW249944   0.054   9.915   4.985
12909SOL     OW49945   0.783   9.025   3.643
12909SOL    HW149946   0.832   8.938   3.637
12909SOL    HW249947   0.694   9.016   3.599
12910SOL     OW49948   4.587   3.218   6.321
12910SOL    HW149949   4.586   3.207   6.221
12910SOL    HW249950   4.640   3.144   6.362
12911SOL     OW49951   8.075   2.019   4.146
12911SOL    HW149952   8.059   1.994   4.241
12911SOL    HW249953   8.142   1.957   4.105
12912SOL     OW49954   3.396   2.746   3.497
12912SOL    HW149955   3.485   2.699   3.491
12912SOL    HW249956   3.323   2.678   3.500
12913SOL     OW49957   6.995   1.662   5.773
12913SOL    HW149958   6.985   1.626   5.680
12913SOL    HW249959   7.061   1.738   5.773
12914SOL     OW49960   9.203   6.725   4.830
12914SOL    HW149961   9.257   6.649   4.866
12914SOL    HW249962   9.106   6.699   4.827
12915SOL     OW49963   2.668   4.823   3.928
12915SOL    HW149964   2.585   4.773   3.902
12915SOL    HW249965   2.690   4.890   3.856
12916SOL     OW49966   1.340   1.181   0.782
12916SOL    HW149967   1.403   1.114   0.822
12916SOL    HW249968   1.334   1.261   0.841
12917SOL     OW49969   3.932   1.926   5.372
12917SOL    HW149970   3.984   1.877   5.442
12917SOL    HW249971   3.834   1.919   5.392
12918SOL     OW49972   0.885   2.559   4.542
12918SOL    HW149973   0.978   2.530   4.562
12918SOL    HW249974   0.852   2.512   4.460
12919SOL     OW49975   3.087   0.608   0.163
12919SOL    HW149976   3.129   0.683   0.112
12919SOL    HW249977   3.136   0.523   0.145
12920SOL     OW49978   7.770   6.147   5.429
12920SOL    HW149979   7.809   6.103   5.510
12920SOL    HW249980   7.683   6.103   5.406
12921SOL     OW49981   0.662   9.304   6.245
12921SOL    HW149982   0.643   9.211   6.275
12921SOL    HW249983   0.624   9.318   6.153
12922SOL     OW49984   5.614   9.965   6.185
12922SOL    HW149985   5.565   9.996   6.104
12922SOL    HW249986   5.549   9.948   6.259
12923SOL     OW49987   9.375   0.163   2.186
12923SOL    HW149988   9.334   0.169   2.277
12923SOL    HW249989   9.331   0.090   2.134
12924SOL     OW49990   6.762   8.662   4.176
12924SOL    HW149991   6.852   8.651   4.135
12924SOL    HW249992   6.722   8.749   4.147
12925SOL     OW49993   4.299   2.799   0.252
12925SOL    HW149994   4.301   2.834   0.346
12925SOL    HW249995   4.297   2.876   0.188
12926SOL     OW49996   6.616   1.395   2.499
12926SOL    HW149997   6.591   1.465   2.565
12926SOL    HW249998   6.539   1.378   2.437
12927SOL     OW49999   4.996   8.948   1.764
12927SOL    HW150000   5.066   9.003   1.719
12927SOL    HW250001   5.029   8.854   1.774
12928SOL     OW50002   3.860   3.212   2.614
12928SOL    HW150003   3.808   3.298   2.619
12928SOL    HW250004   3.871   3.175   2.706
12929SOL     OW50005   9.868   4.952   0.845
12929SOL    HW150006   9.900   4.965   0.939
12929SOL    HW250007   9.900   4.864   0.811
12930SOL     OW50008   3.532   9.622   0.036
12930SOL    HW150009   3.480   9.579   0.111
12930SOL    HW250010   3.499   9.715   0.022
12931SOL     OW50011   1.171   5.933   1.805
12931SOL    HW150012   1.088   5.987   1.792
12931SOL    HW250013   1.181   5.911   1.902
12932SOL     OW50014   8.501   8.728   6.195
12932SOL    HW150015   8.549   8.645   6.225
12932SOL    HW250016   8.561   8.807   6.209
12933SOL     OW50017   7.604   9.953   2.695
12933SOL    HW150018   7.639   0.006   2.618
12933SOL    HW250019   7.677   9.941   2.763
12934SOL     OW50020   1.729   2.959   0.175
12934SOL    HW150021   1.778   2.985   0.259
12934SOL    HW250022   1.671   3.035   0.146
12935SOL     OW50023   9.701   0.331   4.356
12935SOL    HW150024   9.641   0.258   4.386
12935SOL    HW250025   9.668   0.419   4.389
12936SOL     OW50026   0.757   9.361   0.106
12936SOL    HW150027   0.813   9.281   0.087
12936SOL    HW250028   0.808   9.444   0.081
12937SOL     OW50029   2.445   4.701   3.828
12937SOL    HW150030   2.392   4.768   3.777
12937SOL    HW250031   2.456   4.618   3.773
12938SOL     OW50032   6.970   0.842   2.634
12938SOL    HW150033   6.968   0.772   2.705
12938SOL    HW250034   6.985   0.932   2.677
12939SOL     OW50035   3.263   6.620   3.290
12939SOL    HW150036   3.229   6.692   3.351
12939SOL    HW250037   3.302   6.662   3.208
12940SOL     OW50038   1.879   3.505   1.815
12940SOL    HW150039   1.886   3.409   1.788
12940SOL    HW250040   1.880   3.512   1.915
12941SOL     OW50041   0.469   9.161   4.710
12941SOL    HW150042   0.490   9.200   4.799
12941SOL    HW250043   0.395   9.093   4.720
12942SOL     OW50044   6.408   1.731   0.749
12942SOL    HW150045   6.453   1.776   0.827
12942SOL    HW250046   6.351   1.797   0.701
12943SOL     OW50047   3.173   3.549   1.460
12943SOL    HW150048   3.147   3.507   1.547
12943SOL    HW250049   3.262   3.514   1.432
12944SOL     OW50050   3.001   9.749   5.306
12944SOL    HW150051   2.923   9.810   5.313
12944SOL    HW250052   3.040   9.733   5.397
12945SOL     OW50053   1.596   8.999   1.094
12945SOL    HW150054   1.652   9.028   1.015
12945SOL    HW250055   1.560   8.907   1.077
12946SOL     OW50056   7.805   0.783   1.992
12946SOL    HW150057   7.752   0.856   2.036
12946SOL    HW250058   7.790   0.697   2.041
12947SOL     OW50059   5.037   7.702   2.686
12947SOL    HW150060   5.026   7.800   2.703
12947SOL    HW250061   5.122   7.670   2.727
12948SOL     OW50062   4.200   3.421   3.978
12948SOL    HW150063   4.132   3.480   3.934
12948SOL    HW250064   4.247   3.366   3.909
12949SOL     OW50065   9.398   3.885   2.467
12949SOL    HW150066   9.410   3.813   2.535
12949SOL    HW250067   9.485   3.932   2.453
12950SOL     OW50068   2.935   9.245   6.328
12950SOL    HW150069   3.000   9.277   6.259
12950SOL    HW250070   2.944   9.300   6.411
12951SOL     OW50071   8.335   8.165   2.943
12951SOL    HW150072   8.263   8.134   3.006
12951SOL    HW250073   8.394   8.088   2.920
12952SOL     OW50074   5.762   9.042   4.027
12952SOL    HW150075   5.748   8.974   4.098
12952SOL    HW250076   5.807   8.999   3.948
12953SOL     OW50077   5.742   1.841   3.563
12953SOL    HW150078   5.654   1.889   3.554
12953SOL    HW250079   5.803   1.870   3.490
12954SOL     OW50080   8.110   6.012   3.398
12954SOL    HW150081   8.205   6.002   3.425
12954SOL    HW250082   8.102   6.084   3.329
12955SOL     OW50083   4.581   0.200   3.885
12955SOL    HW150084   4.602   0.163   3.794
12955SOL    HW250085   4.596   0.299   3.885
12956SOL     OW50086   2.554   9.484   3.613
12956SOL    HW150087   2.591   9.393   3.631
12956SOL    HW250088   2.515   9.486   3.521
12957SOL     OW50089   9.295   8.935   2.101
12957SOL    HW150090   9.311   8.949   2.004
12957SOL    HW250091   9.345   8.853   2.132
12958SOL     OW50092   1.735   3.639   5.836
12958SOL    HW150093   1.681   3.701   5.778
12958SOL    HW250094   1.675   3.570   5.875
12959SOL     OW50095   9.488   4.345   3.769
12959SOL    HW150096   9.552   4.415   3.738
12959SOL    HW250097   9.539   4.262   3.792
12960SOL     OW50098   9.264   3.854   1.964
12960SOL    HW150099   9.313   3.918   1.905
12960SOL    HW250100   9.265   3.887   2.058
12961SOL     OW50101   4.764   3.425   6.334
12961SOL    HW150102   4.788   3.453   6.426
12961SOL    HW250103   4.696   3.352   6.337
12962SOL     OW50104   7.113   2.452   2.403
12962SOL    HW150105   7.086   2.438   2.308
12962SOL    HW250106   7.147   2.366   2.441
12963SOL     OW50107   9.482   7.432   3.162
12963SOL    HW150108   9.401   7.406   3.111
12963SOL    HW250109   9.483   7.387   3.251
12964SOL     OW50110   7.650   1.555   5.150
12964SOL    HW150111   7.712   1.511   5.085
12964SOL    HW250112   7.670   1.653   5.154
12965SOL     OW50113   0.173   2.288   5.224
12965SOL    HW150114   0.192   2.385   5.236
12965SOL    HW250115   0.078   2.269   5.247
12966SOL     OW50116   3.033   4.113   3.194
12966SOL    HW150117   2.993   4.082   3.108
12966SOL    HW250118   3.023   4.041   3.263
12967SOL     OW50119   0.614   9.594   4.653
12967SOL    HW150120   0.583   9.688   4.661
12967SOL    HW250121   0.642   9.560   4.743
12968SOL     OW50122   8.586   8.240   0.687
12968SOL    HW150123   8.524   8.309   0.650
12968SOL    HW250124   8.657   8.220   0.620
12969SOL     OW50125   1.170   5.487   5.423
12969SOL    HW150126   1.241   5.556   5.413
12969SOL    HW250127   1.107   5.492   5.346
12970SOL     OW50128   3.623   6.099   3.316
12970SOL    HW150129   3.682   6.116   3.238
12970SOL    HW250130   3.667   6.035   3.379
12971SOL     OW50131   4.965   8.687   4.729
12971SOL    HW150132   5.053   8.731   4.744
12971SOL    HW250133   4.907   8.699   4.810
12972SOL     OW50134   3.391   8.387   1.748
12972SOL    HW150135   3.423   8.480   1.729
12972SOL    HW250136   3.297   8.376   1.716
12973SOL     OW50137   4.464   3.447   3.353
12973SOL    HW150138   4.392   3.512   3.378
12973SOL    HW250139   4.427   3.355   3.352
12974SOL     OW50140   7.341   9.956   6.111
12974SOL    HW150141   7.413   9.938   6.177
12974SOL    HW250142   7.381   9.969   6.020
12975SOL     OW50143   5.123   1.847   4.470
12975SOL    HW150144   5.122   1.947   4.482
12975SOL    HW250145   5.126   1.803   4.559
12976SOL     OW50146   7.581   9.446   5.061
12976SOL    HW150147   7.572   9.513   4.986
12976SOL    HW250148   7.629   9.489   5.138
12977SOL     OW50149   2.022   7.658   4.782
12977SOL    HW150150   2.086   7.698   4.848
12977SOL    HW250151   1.929   7.685   4.806
12978SOL     OW50152   7.662   7.239   5.645
12978SOL    HW150153   7.690   7.333   5.663
12978SOL    HW250154   7.578   7.218   5.696
12979SOL     OW50155   5.191   9.353   6.352
12979SOL    HW150156   5.123   9.419   6.318
12979SOL    HW250157   5.150   9.262   6.354
12980SOL     OW50158   0.544   2.746   5.756
12980SOL    HW150159   0.495   2.706   5.834
12980SOL    HW250160   0.580   2.836   5.782
12981SOL     OW50161   1.501   3.791   2.854
12981SOL    HW150162   1.581   3.823   2.804
12981SOL    HW250163   1.420   3.799   2.795
12982SOL     OW50164   3.640   2.282   3.010
12982SOL    HW150165   3.684   2.368   3.036
12982SOL    HW250166   3.692   2.240   2.936
12983SOL     OW50167   0.419   0.106   1.750
12983SOL    HW150168   0.381   0.191   1.785
12983SOL    HW250169   0.456   0.121   1.658
12984SOL     OW50170   2.692   0.156   0.266
12984SOL    HW150171   2.723   0.222   0.197
12984SOL    HW250172   2.609   0.190   0.309
12985SOL     OW50173   0.081   4.305   4.456
12985SOL    HW150174   0.055   4.364   4.379
12985SOL    HW250175   0.177   4.281   4.448
12986SOL     OW50176   4.450   7.970   3.941
12986SOL    HW150177   4.446   8.024   3.857
12986SOL    HW250178   4.532   7.912   3.940
12987SOL     OW50179   3.200   9.630   5.906
12987SOL    HW150180   3.299   9.629   5.918
12987SOL    HW250181   3.168   9.724   5.902
12988SOL     OW50182   5.090   0.218   2.712
12988SOL    HW150183   5.005   0.167   2.698
12988SOL    HW250184   5.135   0.185   2.796
12989SOL     OW50185   7.952   1.329   2.220
12989SOL    HW150186   8.001   1.416   2.214
12989SOL    HW250187   7.917   1.316   2.313
12990SOL     OW50188   8.374   4.096   5.715
12990SOL    HW150189   8.466   4.058   5.706
12990SOL    HW250190   8.308   4.032   5.676
12991SOL     OW50191   6.251   4.783   0.798
12991SOL    HW150192   6.267   4.812   0.893
12991SOL    HW250193   6.338   4.774   0.751
12992SOL     OW50194   9.669   1.275   0.300
12992SOL    HW150195   9.736   1.202   0.291
12992SOL    HW250196   9.589   1.240   0.349
12993SOL     OW50197   3.275   7.822   0.554
12993SOL    HW150198   3.343   7.859   0.491
12993SOL    HW250199   3.239   7.736   0.516
12994SOL     OW50200   8.265   7.862   3.149
12994SOL    HW150201   8.234   7.776   3.107
12994SOL    HW250202   8.202   7.935   3.125
12995SOL     OW50203   9.949   5.116   0.633
12995SOL    HW150204   9.922   5.058   0.710
12995SOL    HW250205   9.999   5.061   0.566
12996SOL     OW50206   6.820   1.425   2.121
12996SOL    HW150207   6.724   1.452   2.126
12996SOL    HW250208   6.868   1.482   2.055
12997SOL     OW50209   2.815   3.499   3.426
12997SOL    HW150210   2.890   3.542   3.377
12997SOL    HW250211   2.782   3.560   3.498
12998SOL     OW50212   8.744   6.420   1.770
12998SOL    HW150213   8.661   6.467   1.800
12998SOL    HW250214   8.818   6.486   1.756
12999SOL     OW50215   9.684   1.625   6.255
12999SOL    HW150216   9.712   1.718   6.278
12999SOL    HW250217   9.728   1.597   6.170
13000SOL     OW50218   3.997   4.588   4.921
13000SOL    HW150219   3.914   4.642   4.925
13000SOL    HW250220   4.072   4.637   4.966
13001SOL     OW50221   7.685   6.794   4.841
13001SOL    HW150222   7.756   6.862   4.827
13001SOL    HW250223   7.637   6.812   4.927
13002SOL     OW50224   2.873   8.071   6.060
13002SOL    HW150225   2.894   8.162   6.096
13002SOL    HW250226   2.778   8.070   6.027
13003SOL     OW50227   3.166   2.752   1.215
13003SOL    HW150228   3.202   2.845   1.214
13003SOL    HW250229   3.240   2.688   1.236
13004SOL     OW50230   5.901   0.043   2.117
13004SOL    HW150231   5.804   0.063   2.104
13004SOL    HW250232   5.924   9.958   2.069
13005SOL     OW50233   0.546   8.517   1.909
13005SOL    HW150234   0.586   8.572   1.836
13005SOL    HW250235   0.569   8.557   1.998
13006SOL     OW50236   4.142   5.504   3.534
13006SOL    HW150237   4.094   5.457   3.459
13006SOL    HW250238   4.219   5.448   3.565
13007SOL     OW50239   8.007   0.185   1.582
13007SOL    HW150240   8.079   0.151   1.521
13007SOL    HW250241   8.048   0.222   1.665
13008SOL     OW50242   1.697   2.629   5.819
13008SOL    HW150243   1.647   2.545   5.798
13008SOL    HW250244   1.794   2.616   5.799
13009SOL     OW50245   2.187   9.591   2.156
13009SOL    HW150246   2.272   9.588   2.208
13009SOL    HW250247   2.179   9.509   2.100
13010SOL     OW50248   1.336   1.407   0.945
13010SOL    HW150249   1.247   1.441   0.974
13010SOL    HW250250   1.376   1.472   0.880
13011SOL     OW50251   1.232   7.727   0.387
13011SOL    HW150252   1.289   7.731   0.469
13011SOL    HW250253   1.259   7.800   0.324
13012SOL     OW50254   7.012   3.335   0.148
13012SOL    HW150255   6.975   3.345   0.055
13012SOL    HW250256   6.937   3.322   0.212
13013SOL     OW50257   8.460   9.725   4.805
13013SOL    HW150258   8.532   9.779   4.762
13013SOL    HW250259   8.404   9.783   4.863
13014SOL     OW50260   7.351   1.140   5.348
13014SOL    HW150261   7.408   1.214   5.313
13014SOL    HW250262   7.261   1.143   5.304
13015SOL     OW50263   5.620   2.594   4.814
13015SOL    HW150264   5.632   2.540   4.898
13015SOL    HW250265   5.631   2.534   4.735
13016SOL     OW50266   0.242   0.760   0.116
13016SOL    HW150267   0.159   0.798   0.074
13016SOL    HW250268   0.286   0.829   0.172
13017SOL     OW50269   8.170   3.822   1.102
13017SOL    HW150270   8.219   3.770   1.171
13017SOL    HW250271   8.150   3.914   1.138
13018SOL     OW50272   4.369   5.036   0.165
13018SOL    HW150273   4.464   5.045   0.195
13018SOL    HW250274   4.329   5.127   0.154
13019SOL     OW50275   9.972   1.633   4.675
13019SOL    HW150276   0.037   1.569   4.716
13019SOL    HW250277   9.976   1.627   4.576
13020SOL     OW50278   7.081   9.753   3.308
13020SOL    HW150279   7.136   9.830   3.276
13020SOL    HW250280   7.074   9.685   3.235
13021SOL     OW50281   3.191   6.315   1.824
13021SOL    HW150282   3.215   6.348   1.915
13021SOL    HW250283   3.256   6.351   1.757
13022SOL     OW50284   7.419   1.118   5.619
13022SOL    HW150285   7.350   1.090   5.686
13022SOL    HW250286   7.375   1.134   5.531
13023SOL     OW50287   5.704   1.202   6.216
13023SOL    HW150288   5.747   1.126   6.266
13023SOL    HW250289   5.740   1.204   6.123
13024SOL     OW50290   3.100   4.174   2.144
13024SOL    HW150291   3.155   4.234   2.087
13024SOL    HW250292   3.004   4.201   2.137
13025SOL     OW50293   3.468   6.439   3.256
13025SOL    HW150294   3.388   6.495   3.277
13025SOL    HW250295   3.439   6.348   3.228
13026SOL     OW50296   1.993   5.594   5.315
13026SOL    HW150297   1.902   5.613   5.278
13026SOL    HW250298   2.059   5.660   5.279
13027SOL     OW50299   9.014   3.107   4.821
13027SOL    HW150300   8.950   3.041   4.861
13027SOL    HW250301   9.018   3.189   4.878
13028SOL     OW50302   3.471   2.688   5.166
13028SOL    HW150303   3.535   2.612   5.172
13028SOL    HW250304   3.386   2.657   5.124
13029SOL     OW50305   3.153   9.191   2.574
13029SOL    HW150306   3.120   9.279   2.609
13029SOL    HW250307   3.130   9.119   2.638
13030SOL     OW50308   7.486   0.871   0.578
13030SOL    HW150309   7.411   0.934   0.558
13030SOL    HW250310   7.570   0.923   0.595
13031SOL     OW50311   1.515   4.180   1.432
13031SOL    HW150312   1.450   4.250   1.402
13031SOL    HW250313   1.536   4.119   1.355
13032SOL     OW50314   0.978   7.485   6.026
13032SOL    HW150315   1.064   7.535   6.019
13032SOL    HW250316   0.907   7.533   5.976
13033SOL     OW50317   0.184   3.182   0.408
13033SOL    HW150318   0.103   3.122   0.409
13033SOL    HW250319   0.245   3.157   0.483
13034SOL     OW50320   0.988   5.027   3.800
13034SOL    HW150321   1.041   5.087   3.860
13034SOL    HW250322   0.925   4.972   3.855
13035SOL     OW50323   8.977   2.566   4.587
13035SOL    HW150324   8.880   2.576   4.567
13035SOL    HW250325   9.021   2.512   4.514
13036SOL     OW50326   5.632   8.383   6.400
13036SOL    HW150327   5.691   8.372   6.479
13036SOL    HW250328   5.643   8.475   6.362
13037SOL     OW50329   6.310   1.284   5.262
13037SOL    HW150330   6.404   1.292   5.229
13037SOL    HW250331   6.280   1.189   5.254
13038SOL     OW50332   4.666   0.147   0.903
13038SOL    HW150333   4.573   0.155   0.937
13038SOL    HW250334   4.678   0.058   0.859
13039SOL     OW50335   4.444   4.245   2.630
13039SOL    HW150336   4.466   4.162   2.580
13039SOL    HW250337   4.471   4.325   2.577
13040SOL     OW50338   2.626   8.214   4.928
13040SOL    HW150339   2.622   8.313   4.914
13040SOL    HW250340   2.566   8.169   4.863
13041SOL     OW50341   0.357   7.152   4.304
13041SOL    HW150342   0.434   7.092   4.324
13041SOL    HW250343   0.273   7.097   4.296
13042SOL     OW50344   1.437   5.353   0.181
13042SOL    HW150345   1.442   5.263   0.138
13042SOL    HW250346   1.409   5.344   0.276
13043SOL     OW50347   5.347   3.312   0.503
13043SOL    HW150348   5.352   3.276   0.596
13043SOL    HW250349   5.325   3.238   0.440
13044SOL     OW50350   4.271   0.276   2.695
13044SOL    HW150351   4.219   0.323   2.624
13044SOL    HW250352   4.369   0.287   2.678
13045SOL     OW50353   8.218   8.301   2.732
13045SOL    HW150354   8.270   8.277   2.650
13045SOL    HW250355   8.259   8.257   2.812
13046SOL     OW50356   4.675   7.166   1.644
13046SOL    HW150357   4.583   7.138   1.671
13046SOL    HW250358   4.672   7.211   1.555
13047SOL     OW50359   4.752   2.278   3.466
13047SOL    HW150360   4.693   2.348   3.507
13047SOL    HW250361   4.762   2.202   3.531
13048SOL     OW50362   1.721   3.796   3.231
13048SOL    HW150363   1.810   3.796   3.186
13048SOL    HW250364   1.733   3.783   3.329
13049SOL     OW50365   3.557   4.936   3.142
13049SOL    HW150366   3.464   4.945   3.106
13049SOL    HW250367   3.577   4.840   3.162
13050SOL     OW50368   5.753   2.109   3.928
13050SOL    HW150369   5.677   2.169   3.903
13050SOL    HW250370   5.809   2.152   3.998
13051SOL     OW50371   4.665   8.991   6.421
13051SOL    HW150372   4.614   9.055   6.478
13051SOL    HW250373   4.679   8.905   6.470
13052SOL     OW50374   0.627   0.732   4.980
13052SOL    HW150375   0.701   0.764   4.921
13052SOL    HW250376   0.591   0.646   4.945
13053SOL     OW50377   1.767   4.579   4.712
13053SOL    HW150378   1.711   4.626   4.643
13053SOL    HW250379   1.863   4.607   4.701
13054SOL     OW50380   8.853   2.765   1.117
13054SOL    HW150381   8.893   2.732   1.203
13054SOL    HW250382   8.917   2.827   1.072
13055SOL     OW50383   9.881   3.926   4.240
13055SOL    HW150384   9.919   3.985   4.168
13055SOL    HW250385   9.954   3.892   4.298
13056SOL     OW50386   4.436   4.892   4.317
13056SOL    HW150387   4.476   4.962   4.375
13056SOL    HW250388   4.493   4.880   4.236
13057SOL     OW50389   0.060   9.245   2.856
13057SOL    HW150390   0.144   9.219   2.903
13057SOL    HW250391   0.058   9.206   2.765
13058SOL     OW50392   6.311   8.506   4.191
13058SOL    HW150393   6.253   8.482   4.114
13058SOL    HW250394   6.299   8.439   4.264
13059SOL     OW50395   5.840   4.194   0.541
13059SOL    HW150396   5.904   4.130   0.498
13059SOL    HW250397   5.882   4.285   0.546
13060SOL     OW50398   2.420   5.643   1.496
13060SOL    HW150399   2.393   5.684   1.409
13060SOL    HW250400   2.347   5.583   1.528
13061SOL     OW50401   8.880   8.335   6.136
13061SOL    HW150402   8.891   8.353   6.038
13061SOL    HW250403   8.793   8.374   6.167
13062SOL     OW50404   8.670   6.338   4.776
13062SOL    HW150405   8.720   6.327   4.690
13062SOL    HW250406   8.736   6.341   4.852
13063SOL     OW50407   4.154   4.555   0.461
13063SOL    HW150408   4.099   4.514   0.389
13063SOL    HW250409   4.238   4.502   0.472
13064SOL     OW50410   5.214   3.436   4.295
13064SOL    HW150411   5.211   3.470   4.389
13064SOL    HW250412   5.301   3.387   4.281
13065SOL     OW50413   8.084   6.326   5.236
13065SOL    HW150414   8.174   6.371   5.227
13065SOL    HW250415   8.015   6.380   5.187
13066SOL     OW50416   0.466   6.219   1.295
13066SOL    HW150417   0.389   6.218   1.232
13066SOL    HW250418   0.454   6.147   1.363
13067SOL     OW50419   8.815   7.160   0.782
13067SOL    HW150420   8.851   7.153   0.876
13067SOL    HW250421   8.871   7.106   0.721
13068SOL     OW50422   2.500   2.767   3.992
13068SOL    HW150423   2.422   2.814   3.950
13068SOL    HW250424   2.475   2.733   4.082
13069SOL     OW50425   6.653   9.678   2.080
13069SOL    HW150426   6.706   9.657   2.162
13069SOL    HW250427   6.563   9.634   2.085
13070SOL     OW50428   8.640   9.909   1.740
13070SOL    HW150429   8.677   9.995   1.776
13070SOL    HW250430   8.548   9.924   1.703
13071SOL     OW50431   0.123   5.880   2.209
13071SOL    HW150432   0.131   5.905   2.113
13071SOL    HW250433   0.136   5.782   2.220
13072SOL     OW50434   9.989   3.305   0.589
13072SOL    HW150435   0.069   3.273   0.537
13072SOL    HW250436   9.961   3.394   0.553
13073SOL     OW50437   7.254   9.324   3.270
13073SOL    HW150438   7.273   9.262   3.193
13073SOL    HW250439   7.298   9.412   3.253
13074SOL     OW50440   6.917   1.163   1.072
13074SOL    HW150441   6.965   1.243   1.035
13074SOL    HW250442   6.984   1.099   1.110
13075SOL     OW50443   3.512   0.602   3.021
13075SOL    HW150444   3.413   0.616   3.014
13075SOL    HW250445   3.542   0.626   3.113
13076SOL     OW50446   4.779   7.549   3.297
13076SOL    HW150447   4.817   7.458   3.314
13076SOL    HW250448   4.852   7.616   3.294
13077SOL     OW50449   4.224   8.717   5.806
13077SOL    HW150450   4.137   8.767   5.807
13077SOL    HW250451   4.229   8.656   5.886
13078SOL     OW50452   0.326   5.421   3.210
13078SOL    HW150453   0.424   5.408   3.199
13078SOL    HW250454   0.297   5.383   3.299
13079SOL     OW50455   6.897   8.437   5.075
13079SOL    HW150456   6.832   8.362   5.085
13079SOL    HW250457   6.916   8.452   4.978
13080SOL     OW50458   7.135   8.818   4.211
13080SOL    HW150459   7.086   8.762   4.143
13080SOL    HW250460   7.071   8.880   4.255
13081SOL     OW50461   0.436   2.069   4.175
13081SOL    HW150462   0.490   1.986   4.168
13081SOL    HW250463   0.462   2.132   4.101
13082SOL     OW50464   3.703   9.094   6.059
13082SOL    HW150465   3.782   9.147   6.090
13082SOL    HW250466   3.627   9.108   6.122
13083SOL     OW50467   3.242   8.275   5.608
13083SOL    HW150468   3.329   8.316   5.634
13083SOL    HW250469   3.174   8.293   5.679
13084SOL     OW50470   8.640   8.659   0.026
13084SOL    HW150471   8.702   8.702   0.092
13084SOL    HW250472   8.692   8.628   8.135
13085SOL     OW50473   6.722   8.862   5.750
13085SOL    HW150474   6.763   8.812   5.827
13085SOL    HW250475   6.672   8.798   5.692
13086SOL     OW50476   0.927   1.592   1.592
13086SOL    HW150477   0.838   1.613   1.550
13086SOL    HW250478   0.967   1.676   1.629
13087SOL     OW50479   7.515   4.504   3.231
13087SOL    HW150480   7.466   4.576   3.183
13087SOL    HW250481   7.480   4.415   3.202
13088SOL     OW50482   0.802   4.920   3.993
13088SOL    HW150483   0.721   4.929   3.935
13088SOL    HW250484   0.817   5.006   4.043
13089SOL     OW50485   6.807   0.409   1.752
13089SOL    HW150486   6.773   0.361   1.671
13089SOL    HW250487   6.747   0.391   1.830
13090SOL     OW50488   9.250   7.920   2.625
13090SOL    HW150489   9.201   7.873   2.551
13090SOL    HW250490   9.285   7.852   2.690
13091SOL     OW50491   0.081   2.077   1.159
13091SOL    HW150492   0.177   2.104   1.160
13091SOL    HW250493   0.025   2.148   1.200
13092SOL     OW50494   2.694   4.992   3.709
13092SOL    HW150495   2.672   5.090   3.708
13092SOL    HW250496   2.790   4.979   3.682
13093SOL     OW50497   0.803   2.347   5.212
13093SOL    HW150498   0.792   2.356   5.113
13093SOL    HW250499   0.794   2.438   5.254
13094SOL     OW50500   1.110   2.444   2.034
13094SOL    HW150501   1.075   2.454   2.127
13094SOL    HW250502   1.097   2.350   2.004
13095SOL     OW50503   8.889   7.028   4.931
13095SOL    HW150504   8.844   6.943   4.903
13095SOL    HW250505   8.987   7.021   4.912
13096SOL     OW50506   1.220   5.946   0.973
13096SOL    HW150507   1.220   6.031   0.920
13096SOL    HW250508   1.313   5.928   1.007
13097SOL     OW50509   0.404   1.163   5.027
13097SOL    HW150510   0.426   1.072   5.064
13097SOL    HW250511   0.305   1.173   5.019
13098SOL     OW50512   6.215   9.440   5.451
13098SOL    HW150513   6.198   9.465   5.547
13098SOL    HW250514   6.266   9.354   5.448
13099SOL     OW50515   3.702   0.730   0.704
13099SOL    HW150516   3.759   0.811   0.701
13099SOL    HW250517   3.666   0.717   0.797
13100SOL     OW50518   0.885   6.127   3.922
13100SOL    HW150519   0.829   6.045   3.917
13100SOL    HW250520   0.828   6.208   3.910
13101SOL     OW50521   2.520   3.963   1.056
13101SOL    HW150522   2.569   3.998   1.137
13101SOL    HW250523   2.430   3.931   1.084
13102SOL     OW50524   8.007   6.116   2.616
13102SOL    HW150525   8.044   6.190   2.672
13102SOL    HW250526   7.934   6.151   2.558
13103SOL     OW50527   3.181   0.399   1.311
13103SOL    HW150528   3.154   0.359   1.224
13103SOL    HW250529   3.128   0.482   1.327
13104SOL     OW50530   4.879   0.332   1.590
13104SOL    HW150531   4.834   0.399   1.649
13104SOL    HW250532   4.855   0.350   1.495
13105SOL     OW50533   2.922   5.850   0.682
13105SOL    HW150534   2.906   5.875   0.587
13105SOL    HW250535   2.851   5.891   0.740
13106SOL     OW50536   5.635   7.476   4.060
13106SOL    HW150537   5.731   7.449   4.073
13106SOL    HW250538   5.601   7.435   3.975
13107SOL     OW50539   2.251   0.792   2.407
13107SOL    HW150540   2.331   0.802   2.348
13107SOL    HW250541   2.279   0.758   2.496
13108SOL     OW50542   6.495   8.569   6.265
13108SOL    HW150543   6.414   8.559   6.207
13108SOL    HW250544   6.541   8.481   6.272
13109SOL     OW50545   3.150   2.397   0.079
13109SOL    HW150546   3.249   2.414   0.074
13109SOL    HW250547   3.102   2.484   0.091
13110SOL     OW50548   8.400   3.760   0.646
13110SOL    HW150549   8.383   3.666   0.617
13110SOL    HW250550   8.398   3.765   0.746
13111SOL     OW50551   3.109   4.887   5.260
13111SOL    HW150552   3.129   4.873   5.163
13111SOL    HW250553   3.145   4.809   5.312
13112SOL     OW50554   4.615   2.151   5.048
13112SOL    HW150555   4.590   2.202   4.966
13112SOL    HW250556   4.589   2.055   5.037
13113SOL     OW50557   3.261   5.001   3.336
13113SOL    HW150558   3.264   5.006   3.237
13113SOL    HW250559   3.320   4.926   3.368
13114SOL     OW50560   0.346   9.786   5.202
13114SOL    HW150561   0.371   9.721   5.130
13114SOL    HW250562   0.351   9.879   5.167
13115SOL     OW50563   3.944   3.351   3.678
13115SOL    HW150564   3.887   3.345   3.596
13115SOL    HW250565   3.889   3.330   3.758
13116SOL     OW50566   6.300   5.103   1.454
13116SOL    HW150567   6.368   5.106   1.528
13116SOL    HW250568   6.329   5.163   1.380
13117SOL     OW50569   1.652   5.020   4.175
13117SOL    HW150570   1.605   4.941   4.136
13117SOL    HW250571   1.747   4.995   4.194
13118SOL     OW50572   8.801   4.317   0.948
13118SOL    HW150573   8.793   4.368   0.862
13118SOL    HW250574   8.780   4.377   1.025
13119SOL     OW50575   1.634   9.070   4.960
13119SOL    HW150576   1.575   8.989   4.967
13119SOL    HW250577   1.577   9.151   4.945
13120SOL     OW50578   7.652   0.146   1.659
13120SOL    HW150579   7.626   0.057   1.621
13120SOL    HW250580   7.700   0.133   1.746
13121SOL     OW50581   6.800   0.508   3.550
13121SOL    HW150582   6.739   0.430   3.537
13121SOL    HW250583   6.776   0.581   3.485
13122SOL     OW50584   5.524   9.295   3.590
13122SOL    HW150585   5.438   9.328   3.552
13122SOL    HW250586   5.505   9.224   3.658
13123SOL     OW50587   8.054   5.847   2.675
13123SOL    HW150588   8.035   5.943   2.654
13123SOL    HW250589   8.150   5.836   2.698
13124SOL     OW50590   2.898   0.180   4.118
13124SOL    HW150591   2.808   0.146   4.089
13124SOL    HW250592   2.917   0.267   4.073
13125SOL     OW50593   0.895   7.680   5.124
13125SOL    HW150594   0.968   7.738   5.088
13125SOL    HW250595   0.920   7.647   5.215
13126SOL     OW50596   4.711   2.213   4.091
13126SOL    HW150597   4.655   2.146   4.139
13126SOL    HW250598   4.807   2.201   4.115
13127SOL     OW50599   2.697   4.672   3.455
13127SOL    HW150600   2.653   4.602   3.398
13127SOL    HW250601   2.632   4.746   3.473
13128SOL     OW50602   2.000   5.163   0.272
13128SOL    HW150603   1.925   5.118   0.321
13128SOL    HW250604   2.020   5.251   0.316
13129SOL     OW50605   7.191   2.889   1.269
13129SOL    HW150606   7.276   2.845   1.299
13129SOL    HW250607   7.116   2.823   1.274
13130SOL     OW50608   1.485   6.198   1.092
13130SOL    HW150609   1.433   6.154   1.165
13130SOL    HW250610   1.567   6.145   1.073
13131SOL     OW50611   4.554   4.537   2.762
13131SOL    HW150612   4.610   4.455   2.746
13131SOL    HW250613   4.495   4.522   2.841
13132SOL     OW50614   7.165   3.935   2.816
13132SOL    HW150615   7.180   3.856   2.876
13132SOL    HW250616   7.066   3.949   2.804
13133SOL     OW50617   3.929   9.810   2.385
13133SOL    HW150618   3.935   9.830   2.483
13133SOL    HW250619   3.855   9.745   2.369
13134SOL     OW50620   6.242   0.753   5.197
13134SOL    HW150621   6.195   0.738   5.285
13134SOL    HW250622   6.283   0.668   5.166
13135SOL     OW50623   5.732   1.589   4.410
13135SOL    HW150624   5.788   1.608   4.329
13135SOL    HW250625   5.675   1.668   4.431
13136SOL     OW50626   1.689   1.216   2.998
13136SOL    HW150627   1.709   1.142   2.934
13136SOL    HW250628   1.626   1.281   2.955
13137SOL     OW50629   2.975   0.742   0.760
13137SOL    HW150630   3.025   0.671   0.711
13137SOL    HW250631   2.916   0.792   0.696
13138SOL     OW50632   8.696   8.612   3.408
13138SOL    HW150633   8.669   8.516   3.400
13138SOL    HW250634   8.794   8.618   3.426
13139SOL     OW50635   8.859   0.884   5.109
13139SOL    HW150636   8.810   0.911   5.025
13139SOL    HW250637   8.862   0.785   5.116
13140SOL     OW50638   0.313   5.824   5.138
13140SOL    HW150639   0.395   5.788   5.184
13140SOL    HW250640   0.255   5.870   5.205
13141SOL     OW50641   2.251   8.654   5.611
13141SOL    HW150642   2.152   8.665   5.612
13141SOL    HW250643   2.275   8.570   5.562
13142SOL     OW50644   7.263   0.854   4.077
13142SOL    HW150645   7.345   0.823   4.123
13142SOL    HW250646   7.226   0.934   4.124
13143SOL     OW50647   6.120   3.353   0.999
13143SOL    HW150648   6.206   3.387   0.962
13143SOL    HW250649   6.113   3.375   1.096
13144SOL     OW50650   2.844   1.517   3.542
13144SOL    HW150651   2.804   1.519   3.451
13144SOL    HW250652   2.771   1.514   3.611
13145SOL     OW50653   9.546   7.290   6.198
13145SOL    HW150654   9.537   7.213   6.135
13145SOL    HW250655   9.640   7.323   6.198
13146SOL     OW50656   9.337   2.484   0.786
13146SOL    HW150657   9.259   2.475   0.848
13146SOL    HW250658   9.340   2.577   0.750
13147SOL     OW50659   2.536   6.852   3.551
13147SOL    HW150660   2.474   6.931   3.546
13147SOL    HW250661   2.563   6.826   3.458
13148SOL     OW50662   9.340   4.723   1.865
13148SOL    HW150663   9.266   4.714   1.931
13148SOL    HW250664   9.365   4.632   1.830
13149SOL     OW50665   7.630   1.294   5.653
13149SOL    HW150666   7.658   1.291   5.748
13149SOL    HW250667   7.544   1.245   5.641
13150SOL     OW50668   3.026   8.222   1.375
13150SOL    HW150669   3.041   8.168   1.292
13150SOL    HW250670   3.079   8.306   1.370
13151SOL     OW50671   3.980   2.768   2.369
13151SOL    HW150672   3.881   2.781   2.362
13151SOL    HW250673   4.022   2.784   2.279
13152SOL     OW50674   2.868   1.775   1.562
13152SOL    HW150675   2.836   1.870   1.561
13152SOL    HW250676   2.840   1.729   1.477
13153SOL     OW50677   0.515   2.420   4.532
13153SOL    HW150678   0.419   2.390   4.539
13153SOL    HW250679   0.526   2.507   4.580
13154SOL     OW50680   1.501   2.475   6.230
13154SOL    HW150681   1.572   2.534   6.193
13154SOL    HW250682   1.468   2.414   6.158
13155SOL     OW50683   1.763   4.671   1.941
13155SOL    HW150684   1.692   4.610   1.978
13155SOL    HW250685   1.847   4.619   1.926
13156SOL     OW50686   6.864   2.510   0.205
13156SOL    HW150687   6.854   2.425   0.258
13156SOL    HW250688   6.949   2.506   0.152
13157SOL     OW50689   5.139   7.837   5.890
13157SOL    HW150690   5.121   7.811   5.795
13157SOL    HW250691   5.205   7.774   5.930
13158SOL     OW50692   2.933   7.272   5.628
13158SOL    HW150693   2.931   7.175   5.654
13158SOL    HW250694   2.896   7.282   5.536
13159SOL     OW50695   5.278   9.385   3.505
13159SOL    HW150696   5.263   9.475   3.462
13159SOL    HW250697   5.238   9.386   3.597
13160SOL     OW50698   7.476   7.722   5.908
13160SOL    HW150699   7.487   7.706   5.810
13160SOL    HW250700   7.473   7.634   5.956
13161SOL     OW50701   2.561   7.184   1.160
13161SOL    HW150702   2.556   7.235   1.246
13161SOL    HW250703   2.522   7.239   1.086
13162SOL     OW50704   0.248   5.060   6.214
13162SOL    HW150705   0.305   5.044   6.133
13162SOL    HW250706   0.153   5.041   6.192
13163SOL     OW50707   3.421   2.368   0.550
13163SOL    HW150708   3.476   2.434   0.601
13163SOL    HW250709   3.368   2.313   0.614
13164SOL     OW50710   7.997   5.919   6.058
13164SOL    HW150711   7.926   5.888   6.121
13164SOL    HW250712   8.025   6.011   6.083
13165SOL     OW50713   1.581   9.487   3.955
13165SOL    HW150714   1.533   9.444   4.032
13165SOL    HW250715   1.661   9.432   3.932
13166SOL     OW50716   9.862   3.469   1.866
13166SOL    HW150717   9.768   3.448   1.893
13166SOL    HW250718   9.907   3.522   1.938
13167SOL     OW50719   3.015   9.058   1.336
13167SOL    HW150720   3.073   9.012   1.403
13167SOL    HW250721   3.062   9.139   1.302
13168SOL     OW50722   3.496   5.359   2.654
13168SOL    HW150723   3.470   5.456   2.652
13168SOL    HW250724   3.473   5.321   2.744
13169SOL     OW50725   3.715   2.824   2.308
13169SOL    HW150726   3.708   2.840   2.209
13169SOL    HW250727   3.660   2.744   2.333
13170SOL     OW50728   8.120   0.476   2.958
13170SOL    HW150729   8.051   0.405   2.967
13170SOL    HW250730   8.091   0.544   2.890
13171SOL     OW50731   9.289   8.079   1.799
13171SOL    HW150732   9.331   8.145   1.861
13171SOL    HW250733   9.335   8.083   1.710
13172SOL     OW50734   8.854   0.903   4.026
13172SOL    HW150735   8.943   0.943   4.049
13172SOL    HW250736   8.868   0.827   3.962
13173SOL     OW50737   0.313   6.285   4.562
13173SOL    HW150738   0.266   6.204   4.527
13173SOL    HW250739   0.273   6.367   4.521
13174SOL     OW50740   4.483   5.815   1.661
13174SOL    HW150741   4.397   5.859   1.685
13174SOL    HW250742   4.497   5.735   1.719
13175SOL     OW50743   9.722   5.356   2.616
13175SOL    HW150744   9.747   5.362   2.712
13175SOL    HW250745   9.669   5.273   2.600
13176SOL     OW50746   6.295   5.153   0.993
13176SOL    HW150747   6.259   5.230   0.941
13176SOL    HW250748   6.371   5.184   1.050
13177SOL     OW50749   5.979   0.806   3.643
13177SOL    HW150750   6.059   0.760   3.681
13177SOL    HW250751   5.930   0.743   3.581
13178SOL     OW50752   7.856   6.715   5.256
13178SOL    HW150753   7.813   6.802   5.234
13178SOL    HW250754   7.866   6.706   5.355
13179SOL     OW50755   1.834   6.152   0.044
13179SOL    HW150756   1.873   6.229   8.181
13179SOL    HW250757   1.817   6.181   0.139
13180SOL     OW50758   5.142   4.191   1.673
13180SOL    HW150759   5.081   4.167   1.748
13180SOL    HW250760   5.231   4.216   1.709
13181SOL     OW50761   1.560   7.941   5.045
13181SOL    HW150762   1.580   8.031   5.084
13181SOL    HW250763   1.534   7.878   5.119
13182SOL     OW50764   1.577   8.506   1.012
13182SOL    HW150765   1.577   8.440   1.087
13182SOL    HW250766   1.522   8.471   0.936
13183SOL     OW50767   1.676   9.881   1.257
13183SOL    HW150768   1.650   9.797   1.304
13183SOL    HW250769   1.595   9.939   1.245
13184SOL     OW50770   2.268   8.797   5.229
13184SOL    HW150771   2.243   8.877   5.283
13184SOL    HW250772   2.366   8.798   5.212
13185SOL     OW50773   2.404   6.438   3.860
13185SOL    HW150774   2.467   6.480   3.794
13185SOL    HW250775   2.372   6.508   3.924
13186SOL     OW50776   7.965   0.055   4.062
13186SOL    HW150777   7.980   0.007   3.976
13186SOL    HW250778   8.045   0.046   4.121
13187SOL     OW50779   7.847   2.682   0.426
13187SOL    HW150780   7.846   2.647   0.332
13187SOL    HW250781   7.910   2.627   0.481
13188SOL     OW50782   9.078   3.731   4.120
13188SOL    HW150783   9.126   3.813   4.153
13188SOL    HW250784   9.097   3.654   4.181
13189SOL     OW50785   4.168   2.414   3.311
13189SOL    HW150786   4.104   2.338   3.296
13189SOL    HW250787   4.255   2.379   3.344
13190SOL     OW50788   7.116   5.230   0.858
13190SOL    HW150789   7.087   5.205   0.950
13190SOL    HW250790   7.151   5.324   0.859
13191SOL     OW50791   0.792   2.590   5.339
13191SOL    HW150792   0.884   2.624   5.356
13191SOL    HW250793   0.748   2.647   5.270
13192SOL     OW50794   5.641   4.532   1.575
13192SOL    HW150795   5.689   4.448   1.600
13192SOL    HW250796   5.658   4.601   1.645
13193SOL     OW50797   7.364   8.974   4.984
13193SOL    HW150798   7.372   9.056   5.040
13193SOL    HW250799   7.452   8.955   4.940
13194SOL     OW50800   0.258   2.451   0.118
13194SOL    HW150801   0.323   2.482   0.048
13194SOL    HW250802   0.192   2.524   0.136
13195SOL     OW50803   4.028   3.132   1.113
13195SOL    HW150804   4.038   3.131   1.212
13195SOL    HW250805   3.964   3.204   1.087
13196SOL     OW50806   6.064   8.428   3.304
13196SOL    HW150807   6.099   8.438   3.397
13196SOL    HW250808   5.968   8.457   3.301
13197SOL     OW50809   3.141   8.460   6.005
13197SOL    HW150810   3.102   8.396   5.939
13197SOL    HW250811   3.227   8.496   5.969
13198SOL     OW50812   7.525   2.180   5.975
13198SOL    HW150813   7.452   2.239   6.010
13198SOL    HW250814   7.609   2.198   6.027
13199SOL     OW50815   8.469   8.269   4.004
13199SOL    HW150816   8.564   8.257   3.975
13199SOL    HW250817   8.407   8.243   3.930
13200SOL     OW50818   9.097   2.988   1.660
13200SOL    HW150819   9.007   2.990   1.703
13200SOL    HW250820   9.144   3.075   1.676
13201SOL     OW50821   9.467   9.413   1.769
13201SOL    HW150822   9.451   9.460   1.855
13201SOL    HW250823   9.494   9.318   1.787
13202SOL     OW50824   8.462   1.264   4.763
13202SOL    HW150825   8.547   1.216   4.743
13202SOL    HW250826   8.428   1.238   4.854
13203SOL     OW50827   0.066   3.526   2.631
13203SOL    HW150828   0.063   3.625   2.614
13203SOL    HW250829   9.979   3.497   2.671
13204SOL     OW50830   4.519   1.317   2.625
13204SOL    HW150831   4.513   1.395   2.688
13204SOL    HW250832   4.531   1.233   2.678
13205SOL     OW50833   9.237   2.174   0.231
13205SOL    HW150834   9.223   2.086   0.186
13205SOL    HW250835   9.156   2.231   0.218
13206SOL     OW50836   4.824   0.440   3.680
13206SOL    HW150837   4.898   0.505   3.665
13206SOL    HW250838   4.862   0.352   3.708
13207SOL     OW50839   9.212   7.241   0.130
13207SOL    HW150840   9.291   7.215   0.074
13207SOL    HW250841   9.147   7.165   0.132
13208SOL     OW50842   1.518   4.354   3.688
13208SOL    HW150843   1.441   4.317   3.635
13208SOL    HW250844   1.504   4.333   3.785
13209SOL     OW50845   5.563   8.696   2.989
13209SOL    HW150846   5.547   8.687   2.890
13209SOL    HW250847   5.573   8.605   3.029
13210SOL     OW50848   9.669   2.302   1.426
13210SOL    HW150849   9.625   2.251   1.499
13210SOL    HW250850   9.599   2.341   1.366
13211SOL     OW50851   8.108   8.901   1.599
13211SOL    HW150852   8.035   8.848   1.556
13211SOL    HW250853   8.096   8.998   1.578
13212SOL     OW50854   9.978   8.454   5.975
13212SOL    HW150855   9.930   8.390   6.035
13212SOL    HW250856   9.914   8.523   5.942
13213SOL     OW50857   4.910   8.298   5.802
13213SOL    HW150858   4.934   8.378   5.748
13213SOL    HW250859   4.823   8.314   5.848
13214SOL     OW50860   1.351   3.400   6.106
13214SOL    HW150861   1.401   3.390   6.192
13214SOL    HW250862   1.340   3.497   6.085
13215SOL     OW50863   4.109   5.456   1.020
13215SOL    HW150864   4.065   5.404   0.947
13215SOL    HW250865   4.208   5.455   1.006
13216SOL     OW50866   0.507   5.226   5.323
13216SOL    HW150867   0.529   5.219   5.226
13216SOL    HW250868   0.591   5.236   5.376
13217SOL     OW50869   0.603   6.629   5.714
13217SOL    HW150870   0.537   6.575   5.767
13217SOL    HW250871   0.695   6.609   5.746
13218SOL     OW50872   6.649   0.642   3.226
13218SOL    HW150873   6.700   0.697   3.292
13218SOL    HW250874   6.564   0.611   3.268
13219SOL     OW50875   1.776   3.188   1.013
13219SOL    HW150876   1.872   3.160   1.023
13219SOL    HW250877   1.717   3.117   1.051
13220SOL     OW50878   3.794   9.067   4.579
13220SOL    HW150879   3.768   9.164   4.579
13220SOL    HW250880   3.887   9.058   4.615
13221SOL     OW50881   1.522   7.131   3.670
13221SOL    HW150882   1.493   7.080   3.589
13221SOL    HW250883   1.465   7.106   3.748
13222SOL     OW50884   8.767   0.979   3.344
13222SOL    HW150885   8.863   0.973   3.317
13222SOL    HW250886   8.716   1.031   3.274
13223SOL     OW50887   5.914   0.075   2.898
13223SOL    HW150888   5.836   0.129   2.929
13223SOL    HW250889   5.913   0.068   2.799
13224SOL     OW50890   9.990   8.109   1.980
13224SOL    HW150891   0.069   8.121   1.920
13224SOL    HW250892   9.924   8.047   1.937
13225SOL     OW50893   7.790   3.303   3.775
13225SOL    HW150894   7.692   3.316   3.792
13225SOL    HW250895   7.827   3.241   3.845
13226SOL     OW50896   8.857   4.984   0.873
13226SOL    HW150897   8.849   4.887   0.893
13226SOL    HW250898   8.790   5.009   0.803
13227SOL     OW50899   7.920   4.137   2.917
13227SOL    HW150900   7.904   4.125   3.015
13227SOL    HW250901   7.846   4.093   2.865
13228SOL     OW50902   2.755   8.157   3.271
13228SOL    HW150903   2.837   8.114   3.308
13228SOL    HW250904   2.779   8.216   3.194
13229SOL     OW50905   9.296   4.709   2.598
13229SOL    HW150906   9.235   4.663   2.662
13229SOL    HW250907   9.292   4.663   2.510
13230SOL     OW50908   2.431   7.916   0.202
13230SOL    HW150909   2.427   8.010   0.167
13230SOL    HW250910   2.342   7.872   0.191
13231SOL     OW50911   3.543   4.164   3.742
13231SOL    HW150912   3.591   4.248   3.715
13231SOL    HW250913   3.593   4.085   3.707
13232SOL     OW50914   7.153   9.479   6.152
13232SOL    HW150915   7.062   9.439   6.165
13232SOL    HW250916   7.145   9.579   6.151
13233SOL     OW50917   9.298   9.004   6.372
13233SOL    HW150918   9.209   9.044   6.349
13233SOL    HW250919   9.295   8.905   6.356
13234SOL     OW50920   4.931   7.952   5.188
13234SOL    HW150921   4.847   7.982   5.142
13234SOL    HW250922   4.966   7.870   5.142
13235SOL     OW50923   5.851   0.977   6.296
13235SOL    HW150924   5.905   0.905   6.339
13235SOL    HW250925   5.854   0.966   6.196
13236SOL     OW50926   0.128   1.159   5.011
13236SOL    HW150927   0.053   1.216   4.978
13236SOL    HW250928   0.121   1.148   5.110
13237SOL     OW50929   3.715   1.074   2.206
13237SOL    HW150930   3.808   1.090   2.173
13237SOL    HW250931   3.671   1.005   2.148
13238SOL     OW50932   8.076   0.781   0.951
13238SOL    HW150933   8.019   0.715   0.902
13238SOL    HW250934   8.040   0.873   0.936
13239SOL     OW50935   4.836   0.779   2.943
13239SOL    HW150936   4.748   0.770   2.896
13239SOL    HW250937   4.895   0.841   2.891
13240SOL     OW50938   3.998   7.119   3.951
13240SOL    HW150939   3.939   7.038   3.950
13240SOL    HW250940   4.088   7.095   3.914
13241SOL     OW50941   9.153   6.044   6.179
13241SOL    HW150942   9.144   5.951   6.214
13241SOL    HW250943   9.067   6.093   6.191
13242SOL     OW50944   4.390   0.075   5.877
13242SOL    HW150945   4.300   0.044   5.907
13242SOL    HW250946   4.419   0.154   5.931
13243SOL     OW50947   9.254   2.011   2.015
13243SOL    HW150948   9.345   2.029   1.978
13243SOL    HW250949   9.240   2.065   2.098
13244SOL     OW50950   2.162   7.723   4.534
13244SOL    HW150951   2.114   7.684   4.613
13244SOL    HW250952   2.135   7.674   4.451
13245SOL     OW50953   3.328   3.282   5.397
13245SOL    HW150954   3.340   3.346   5.473
13245SOL    HW250955   3.389   3.204   5.409
13246SOL     OW50956   5.328   0.810   1.445
13246SOL    HW150957   5.237   0.775   1.425
13246SOL    HW250958   5.382   0.740   1.492
13247SOL     OW50959   2.346   3.604   2.740
13247SOL    HW150960   2.375   3.602   2.836
13247SOL    HW250961   2.352   3.513   2.701
13248SOL     OW50962   4.698   0.179   4.428
13248SOL    HW150963   4.726   0.269   4.393
13248SOL    HW250964   4.605   0.159   4.397
13249SOL     OW50965   8.112   6.112   0.720
13249SOL    HW150966   8.178   6.132   0.648
13249SOL    HW250967   8.084   6.016   0.715
13250SOL     OW50968   0.217   2.603   1.992
13250SOL    HW150969   0.164   2.636   2.070
13250SOL    HW250970   0.242   2.507   2.008
13251SOL     OW50971   2.111   3.634   3.891
13251SOL    HW150972   2.210   3.644   3.889
13251SOL    HW250973   2.079   3.629   3.985
13252SOL     OW50974   1.765   3.894   3.906
13252SOL    HW150975   1.733   3.978   3.950
13252SOL    HW250976   1.736   3.815   3.959
13253SOL     OW50977   9.082   4.356   3.741
13253SOL    HW150978   8.985   4.361   3.762
13253SOL    HW250979   9.129   4.306   3.814
13254SOL     OW50980   9.237   2.997   2.420
13254SOL    HW150981   9.145   2.970   2.389
13254SOL    HW250982   9.274   2.927   2.480
13255SOL     OW50983   1.239   6.940   5.166
13255SOL    HW150984   1.186   6.928   5.250
13255SOL    HW250985   1.219   6.866   5.103
13256SOL     OW50986   5.016   0.712   5.931
13256SOL    HW150987   4.968   0.626   5.913
13256SOL    HW250988   4.955   0.776   5.976
13257SOL     OW50989   1.576   5.496   5.343
13257SOL    HW150990   1.622   5.448   5.418
13257SOL    HW250991   1.502   5.553   5.381
13258SOL     OW50992   8.884   4.037   5.644
13258SOL    HW150993   8.917   4.106   5.579
13258SOL    HW250994   8.921   3.948   5.620
13259SOL     OW50995   3.587   7.428   5.011
13259SOL    HW150996   3.649   7.408   4.935
13259SOL    HW250997   3.624   7.505   5.064
13260SOL     OW50998   8.596   2.738   5.938
13260SOL    HW150999   8.589   2.783   5.849
13260SOL    HW251000   8.671   2.671   5.936
13261SOL     OW51001   7.711   5.209   0.103
13261SOL    HW151002   7.791   5.149   0.111
13261SOL    HW251003   7.639   5.176   0.164
13262SOL     OW51004   2.458   2.771   0.729
13262SOL    HW151005   2.384   2.823   0.769
13262SOL    HW251006   2.519   2.832   0.679
13263SOL     OW51007   0.418   3.660   2.328
13263SOL    HW151008   0.407   3.742   2.272
13263SOL    HW251009   0.468   3.590   2.277
13264SOL     OW51010   1.637   5.542   3.086
13264SOL    HW151011   1.695   5.475   3.133
13264SOL    HW251012   1.598   5.605   3.154
13265SOL     OW51013   9.157   7.270   3.497
13265SOL    HW151014   9.082   7.294   3.558
13265SOL    HW251015   9.230   7.225   3.549
13266SOL     OW51016   2.656   2.573   3.886
13266SOL    HW151017   2.608   2.487   3.895
13266SOL    HW251018   2.602   2.647   3.927
13267SOL     OW51019   9.650   1.384   5.259
13267SOL    HW151020   9.560   1.340   5.248
13267SOL    HW251021   9.641   1.482   5.242
13268SOL     OW51022   8.224   6.206   1.118
13268SOL    HW151023   8.156   6.277   1.099
13268SOL    HW251024   8.266   6.175   1.033
13269SOL     OW51025   2.071   1.398   1.406
13269SOL    HW151026   2.053   1.311   1.362
13269SOL    HW251027   2.160   1.433   1.377
13270SOL     OW51028   6.459   8.589   5.845
13270SOL    HW151029   6.448   8.490   5.845
13270SOL    HW251030   6.516   8.617   5.767
13271SOL     OW51031   2.886   5.040   4.378
13271SOL    HW151032   2.913   4.972   4.446
13271SOL    HW251033   2.865   4.994   4.291
13272SOL     OW51034   2.551   1.314   1.700
13272SOL    HW151035   2.579   1.378   1.629
13272SOL    HW251036   2.459   1.279   1.679
13273SOL     OW51037   7.298   2.308   0.783
13273SOL    HW151038   7.320   2.376   0.713
13273SOL    HW251039   7.381   2.255   0.805
13274SOL     OW51040   3.611   9.763   2.122
13274SOL    HW151041   3.561   9.842   2.159
13274SOL    HW251042   3.646   9.708   2.198
13275SOL     OW51043   7.760   8.383   3.482
13275SOL    HW151044   7.815   8.467   3.488
13275SOL    HW251045   7.756   8.339   3.572
13276SOL     OW51046   2.110   1.838   1.492
13276SOL    HW151047   2.041   1.778   1.453
13276SOL    HW251048   2.201   1.804   1.468
13277SOL     OW51049   8.457   4.656   1.180
13277SOL    HW151050   8.475   4.559   1.162
13277SOL    HW251051   8.408   4.696   1.103
13278SOL     OW51052   1.483   5.201   6.246
13278SOL    HW151053   1.497   5.150   6.331
13278SOL    HW251054   1.389   5.236   6.244
13279SOL     OW51055   4.023   5.388   0.408
13279SOL    HW151056   4.118   5.376   0.439
13279SOL    HW251057   3.998   5.313   0.348
13280SOL     OW51058   4.539   6.914   3.893
13280SOL    HW151059   4.586   6.991   3.851
13280SOL    HW251060   4.469   6.879   3.830
13281SOL     OW51061   5.276   2.125   5.416
13281SOL    HW151062   5.240   2.213   5.444
13281SOL    HW251063   5.208   2.077   5.361
13282SOL     OW51064   2.738   2.613   5.936
13282SOL    HW151065   2.792   2.568   5.865
13282SOL    HW251066   2.792   2.622   6.020
13283SOL     OW51067   9.106   6.036   5.462
13283SOL    HW151068   9.030   5.973   5.477
13283SOL    HW251069   9.192   5.988   5.472
13284SOL     OW51070   1.715   8.455   0.187
13284SOL    HW151071   1.767   8.413   0.113
13284SOL    HW251072   1.760   8.438   0.274
13285SOL     OW51073   9.246   1.560   2.252
13285SOL    HW151074   9.248   1.613   2.337
13285SOL    HW251075   9.186   1.606   2.185
13286SOL     OW51076   1.682   1.800   0.984
13286SOL    HW151077   1.593   1.818   0.943
13286SOL    HW251078   1.743   1.760   0.915
13287SOL     OW51079   5.159   8.833   4.036
13287SOL    HW151080   5.117   8.879   4.114
13287SOL    HW251081   5.175   8.900   3.963
13288SOL     OW51082   6.485   9.688   2.480
13288SOL    HW151083   6.457   9.774   2.436
13288SOL    HW251084   6.584   9.680   2.477
13289SOL     OW51085   8.812   6.097   5.327
13289SOL    HW151086   8.842   6.020   5.383
13289SOL    HW251087   8.763   6.163   5.384
13290SOL     OW51088   2.519   2.339   3.916
13290SOL    HW151089   2.566   2.277   3.978
13290SOL    HW251090   2.470   2.286   3.846
13291SOL     OW51091   3.924   0.168   0.941
13291SOL    HW151092   3.836   0.210   0.916
13291SOL    HW251093   3.947   0.192   1.035
13292SOL     OW51094   2.465   3.224   1.500
13292SOL    HW151095   2.509   3.205   1.412
13292SOL    HW251096   2.422   3.141   1.534
13293SOL     OW51097   9.030   3.782   5.602
13293SOL    HW151098   9.002   3.775   5.698
13293SOL    HW251099   9.120   3.739   5.590
13294SOL     OW51100   8.840   5.424   1.367
13294SOL    HW151101   8.926   5.407   1.416
13294SOL    HW251102   8.843   5.514   1.325
13295SOL     OW51103   9.186   9.599   5.349
13295SOL    HW151104   9.235   9.677   5.385
13295SOL    HW251105   9.249   9.539   5.300
13296SOL     OW51106   3.793   4.318   4.029
13296SOL    HW151107   3.877   4.305   4.083
13296SOL    HW251108   3.808   4.391   3.962
13297SOL     OW51109   4.409   3.662   2.933
13297SOL    HW151110   4.451   3.736   2.881
13297SOL    HW251111   4.349   3.608   2.873
13298SOL     OW51112   8.662   1.693   2.123
13298SOL    HW151113   8.677   1.691   2.025
13298SOL    HW251114   8.637   1.786   2.151
13299SOL     OW51115   8.591   8.743   0.965
13299SOL    HW151116   8.544   8.686   0.898
13299SOL    HW251117   8.526   8.809   1.003
13300SOL     OW51118   5.021   0.274   2.130
13300SOL    HW151119   5.091   0.214   2.091
13300SOL    HW251120   4.937   0.222   2.144
13301SOL     OW51121   9.338   7.264   4.738
13301SOL    HW151122   9.256   7.287   4.791
13301SOL    HW251123   9.310   7.224   4.650
13302SOL     OW51124   8.815   0.943   6.056
13302SOL    HW151125   8.762   0.859   6.073
13302SOL    HW251126   8.817   0.999   6.139
13303SOL     OW51127   8.473   3.484   6.309
13303SOL    HW151128   8.386   3.530   6.321
13303SOL    HW251129   8.460   3.385   6.314
13304SOL     OW51130   3.174   3.853   0.684
13304SOL    HW151131   3.259   3.866   0.736
13304SOL    HW251132   3.102   3.823   0.746
13305SOL     OW51133   7.460   0.141   3.041
13305SOL    HW151134   7.455   0.162   2.943
13305SOL    HW251135   7.378   0.175   3.087
13306SOL     OW51136   7.653   5.793   2.455
13306SOL    HW151137   7.620   5.845   2.535
13306SOL    HW251138   7.733   5.839   2.416
13307SOL     OW51139   3.733   2.416   6.383
13307SOL    HW151140   3.712   2.430   6.480
13307SOL    HW251141   3.730   2.504   6.335
13308SOL     OW51142   1.496   5.133   0.394
13308SOL    HW151143   1.402   5.102   0.411
13308SOL    HW251144   1.541   5.069   0.332
13309SOL     OW51145   4.402   3.121   4.788
13309SOL    HW151146   4.370   3.161   4.874
13309SOL    HW251147   4.428   3.026   4.804
13310SOL     OW51148   8.294   6.468   4.790
13310SOL    HW151149   8.297   6.567   4.801
13310SOL    HW251150   8.387   6.431   4.791
13311SOL     OW51151   5.920   9.111   3.014
13311SOL    HW151152   5.846   9.044   3.017
13311SOL    HW251153   5.911   9.175   3.090
13312SOL     OW51154   3.661   2.371   3.897
13312SOL    HW151155   3.697   2.459   3.865
13312SOL    HW251156   3.649   2.375   3.996
13313SOL     OW51157   5.569   9.001   4.637
13313SOL    HW151158   5.544   8.961   4.549
13313SOL    HW251159   5.642   8.947   4.679
13314SOL     OW51160   2.951   7.296   0.526
13314SOL    HW151161   2.920   7.392   0.523
13314SOL    HW251162   2.909   7.250   0.604
13315SOL     OW51163   8.482   7.850   3.798
13315SOL    HW151164   8.507   7.847   3.895
13315SOL    HW251165   8.519   7.769   3.752
13316SOL     OW51166   4.499   7.415   3.537
13316SOL    HW151167   4.472   7.453   3.449
13316SOL    HW251168   4.588   7.452   3.563
13317SOL     OW51169   0.877   6.241   2.147
13317SOL    HW151170   0.858   6.247   2.049
13317SOL    HW251171   0.927   6.322   2.177
13318SOL     OW51172   9.615   5.032   3.697
13318SOL    HW151173   9.526   5.064   3.668
13318SOL    HW251174   9.685   5.101   3.676
13319SOL     OW51175   8.368   0.262   5.707
13319SOL    HW151176   8.323   0.202   5.641
13319SOL    HW251177   8.464   0.235   5.717
13320SOL     OW51178   2.188   6.551   1.903
13320SOL    HW151179   2.279   6.582   1.875
13320SOL    HW251180   2.129   6.542   1.823
13321SOL     OW51181   0.352   3.757   4.389
13321SOL    HW151182   0.375   3.670   4.433
13321SOL    HW251183   0.388   3.758   4.296
13322SOL     OW51184   8.871   6.389   3.864
13322SOL    HW151185   8.822   6.324   3.922
13322SOL    HW251186   8.898   6.468   3.920
13323SOL     OW51187   9.288   7.923   2.035
13323SOL    HW151188   9.247   7.832   2.025
13323SOL    HW251189   9.284   7.972   1.948
13324SOL     OW51190   4.417   5.341   0.703
13324SOL    HW151191   4.456   5.433   0.708
13324SOL    HW251192   4.470   5.279   0.761
13325SOL     OW51193   6.339   5.647   1.005
13325SOL    HW151194   6.273   5.647   0.930
13325SOL    HW251195   6.424   5.602   0.976
13326SOL     OW51196   3.205   7.018   5.564
13326SOL    HW151197   3.257   7.103   5.570
13326SOL    HW251198   3.263   6.947   5.524
13327SOL     OW51199   3.061   9.855   6.319
13327SOL    HW151200   3.051   9.953   6.333
13327SOL    HW251201   2.973   9.815   6.294
13328SOL     OW51202   8.528   7.298   1.910
13328SOL    HW151203   8.485   7.208   1.906
13328SOL    HW251204   8.457   7.369   1.914
13329SOL     OW51205   7.544   1.950   4.947
13329SOL    HW151206   7.518   2.036   4.990
13329SOL    HW251207   7.614   1.967   4.878
13330SOL     OW51208   4.450   9.367   3.228
13330SOL    HW151209   4.522   9.343   3.162
13330SOL    HW251210   4.411   9.455   3.204
13331SOL     OW51211   9.713   8.746   0.382
13331SOL    HW151212   9.673   8.835   0.361
13331SOL    HW251213   9.734   8.698   0.297
13332SOL     OW51214   4.643   9.895   0.794
13332SOL    HW151215   4.654   9.873   0.697
13332SOL    HW251216   4.558   9.855   0.828
13333SOL     OW51217   7.173   1.851   1.959
13333SOL    HW151218   7.241   1.838   1.887
13333SOL    HW251219   7.174   1.773   2.021
13334SOL     OW51220   1.508   9.920   2.070
13334SOL    HW151221   1.422   9.942   2.116
13334SOL    HW251222   1.516   9.976   1.987
13335SOL     OW51223   8.047   6.439   5.488
13335SOL    HW151224   8.137   6.473   5.517
13335SOL    HW251225   8.055   6.393   5.400
13336SOL     OW51226   8.009   9.499   3.792
13336SOL    HW151227   7.937   9.528   3.855
13336SOL    HW251228   8.021   9.400   3.798
13337SOL     OW51229   3.188   4.454   3.728
13337SOL    HW151230   3.115   4.402   3.684
13337SOL    HW251231   3.274   4.405   3.719
13338SOL     OW51232   0.142   0.709   3.530
13338SOL    HW151233   0.146   0.809   3.536
13338SOL    HW251234   0.059   0.677   3.575
13339SOL     OW51235   1.379   5.166   1.204
13339SOL    HW151236   1.280   5.156   1.211
13339SOL    HW251237   1.419   5.082   1.169
13340SOL     OW51238   8.461   3.181   5.325
13340SOL    HW151239   8.520   3.210   5.250
13340SOL    HW251240   8.368   3.165   5.291
13341SOL     OW51241   8.407   0.313   3.510
13341SOL    HW151242   8.327   0.345   3.560
13341SOL    HW251243   8.390   0.322   3.411
13342SOL     OW51244   5.521   8.503   4.211
13342SOL    HW151245   5.573   8.493   4.127
13342SOL    HW251246   5.461   8.583   4.205
13343SOL     OW51247   0.364   1.622   0.142
13343SOL    HW151248   0.331   1.716   0.145
13343SOL    HW251249   0.361   1.583   0.234
13344SOL     OW51250   4.548   0.999   2.073
13344SOL    HW151251   4.597   0.969   2.155
13344SOL    HW251252   4.605   0.985   1.993
13345SOL     OW51253   0.838   5.044   3.370
13345SOL    HW151254   0.782   5.076   3.447
13345SOL    HW251255   0.865   5.122   3.314
13346SOL     OW51256   8.403   3.912   4.393
13346SOL    HW151257   8.372   3.828   4.350
13346SOL    HW251258   8.452   3.890   4.478
13347SOL     OW51259   2.239   7.595   2.346
13347SOL    HW151260   2.211   7.660   2.275
13347SOL    HW251261   2.251   7.504   2.306
13348SOL     OW51262   8.278   9.287   5.490
13348SOL    HW151263   8.229   9.355   5.436
13348SOL    HW251264   8.283   9.201   5.439
13349SOL     OW51265   8.669   6.441   1.211
13349SOL    HW151266   8.724   6.372   1.258
13349SOL    HW251267   8.672   6.527   1.264
13350SOL     OW51268   7.749   6.977   2.791
13350SOL    HW151269   7.773   7.071   2.771
13350SOL    HW251270   7.696   6.973   2.876
13351SOL     OW51271   7.451   3.367   1.251
13351SOL    HW151272   7.359   3.329   1.255
13351SOL    HW251273   7.516   3.295   1.230
13352SOL     OW51274   9.768   3.874   2.121
13352SOL    HW151275   9.753   3.776   2.134
13352SOL    HW251276   9.682   3.923   2.135
13353SOL     OW51277   6.185   2.489   4.800
13353SOL    HW151278   6.087   2.470   4.802
13353SOL    HW251279   6.224   2.473   4.891
13354SOL     OW51280   1.996   5.959   3.134
13354SOL    HW151281   2.096   5.954   3.135
13354SOL    HW251282   1.965   6.026   3.201
13355SOL     OW51283   1.084   0.760   4.237
13355SOL    HW151284   1.095   0.660   4.238
13355SOL    HW251285   1.048   0.788   4.148
13356SOL     OW51286   4.748   2.052   1.062
13356SOL    HW151287   4.659   2.097   1.056
13356SOL    HW251288   4.735   1.953   1.059
13357SOL     OW51289   3.303   1.339   5.788
13357SOL    HW151290   3.231   1.379   5.845
13357SOL    HW251291   3.387   1.329   5.841
13358SOL     OW51292   4.086   2.933   0.733
13358SOL    HW151293   4.040   3.022   0.733
13358SOL    HW251294   4.176   2.942   0.691
13359SOL     OW51295   4.486   0.238   2.980
13359SOL    HW151296   4.390   0.265   2.984
13359SOL    HW251297   4.521   0.250   2.887
13360SOL     OW51298   9.814   3.625   5.232
13360SOL    HW151299   9.905   3.647   5.268
13360SOL    HW251300   9.757   3.708   5.232
13361SOL     OW51301   4.122   9.711   1.151
13361SOL    HW151302   4.152   9.693   1.245
13361SOL    HW251303   4.033   9.757   1.153
13362SOL     OW51304   2.257   4.808   5.132
13362SOL    HW151305   2.208   4.736   5.083
13362SOL    HW251306   2.321   4.766   5.197
13363SOL     OW51307   3.471   2.830   1.893
13363SOL    HW151308   3.450   2.854   1.798
13363SOL    HW251309   3.552   2.880   1.923
13364SOL     OW51310   1.746   4.335   5.684
13364SOL    HW151311   1.818   4.348   5.752
13364SOL    HW251312   1.783   4.354   5.593
13365SOL     OW51313   6.601   5.542   1.644
13365SOL    HW151314   6.571   5.611   1.578
13365SOL    HW251315   6.521   5.509   1.695
13366SOL     OW51316   8.453   7.003   2.997
13366SOL    HW151317   8.399   6.959   3.069
13366SOL    HW251318   8.545   7.023   3.031
13367SOL     OW51319   7.638   3.747   5.955
13367SOL    HW151320   7.572   3.687   5.910
13367SOL    HW251321   7.730   3.707   5.949
13368SOL     OW51322   0.324   9.964   5.917
13368SOL    HW151323   0.334   9.873   5.877
13368SOL    HW251324   0.279   0.024   5.851
13369SOL     OW51325   5.127   0.071   5.739
13369SOL    HW151326   5.199   0.094   5.673
13369SOL    HW251327   5.069   0.151   5.755
13370SOL     OW51328   9.389   3.135   0.773
13370SOL    HW151329   9.408   3.201   0.700
13370SOL    HW251330   9.450   3.056   0.763
13371SOL     OW51331   1.778   1.482   2.012
13371SOL    HW151332   1.860   1.426   2.002
13371SOL    HW251333   1.784   1.561   1.951
13372SOL     OW51334   1.140   7.460   0.328
13372SOL    HW151335   1.183   7.415   0.250
13372SOL    HW251336   1.174   7.554   0.336
13373SOL     OW51337   6.245   0.447   5.618
13373SOL    HW151338   6.259   0.363   5.671
13373SOL    HW251339   6.147   0.463   5.605
13374SOL     OW51340   8.650   5.094   1.919
13374SOL    HW151341   8.630   5.100   2.017
13374SOL    HW251342   8.632   5.182   1.876
13375SOL     OW51343   8.361   5.106   0.231
13375SOL    HW151344   8.461   5.106   0.241
13375SOL    HW251345   8.321   5.045   0.299
13376SOL     OW51346   8.828   4.149   6.296
13376SOL    HW151347   8.755   4.087   6.269
13376SOL    HW251348   8.915   4.114   6.264
13377SOL     OW51349   7.247   1.369   2.125
13377SOL    HW151350   7.344   1.382   2.147
13377SOL    HW251351   7.201   1.458   2.123
13378SOL     OW51352   0.375   7.872   1.550
13378SOL    HW151353   0.310   7.833   1.486
13378SOL    HW251354   0.351   7.845   1.644
13379SOL     OW51355   7.020   5.161   1.098
13379SOL    HW151356   7.065   5.128   1.181
13379SOL    HW251357   6.946   5.223   1.124
13380SOL     OW51358   3.230   0.469   4.065
13380SOL    HW151359   3.274   0.514   4.142
13380SOL    HW251360   3.282   0.386   4.042
13381SOL     OW51361   3.889   9.425   2.246
13381SOL    HW151362   3.901   9.326   2.252
13381SOL    HW251363   3.864   9.451   2.153
13382SOL     OW51364   1.052   2.883   4.688
13382SOL    HW151365   1.094   2.951   4.748
13382SOL    HW251366   1.066   2.792   4.726
13383SOL     OW51367   0.136   4.933   2.640
13383SOL    HW151368   0.168   5.006   2.701
13383SOL    HW251369   0.186   4.849   2.660
13384SOL     OW51370   3.499   0.683   5.425
13384SOL    HW151371   3.579   0.627   5.446
13384SOL    HW251372   3.435   0.630   5.370
13385SOL     OW51373   7.755   5.227   0.437
13385SOL    HW151374   7.834   5.250   0.381
13385SOL    HW251375   7.680   5.198   0.378
13386SOL     OW51376   6.104   8.834   5.217
13386SOL    HW151377   6.150   8.748   5.240
13386SOL    HW251378   6.132   8.905   5.282
13387SOL     OW51379   3.718   5.626   2.726
13387SOL    HW151380   3.710   5.559   2.800
13387SOL    HW251381   3.626   5.652   2.694
13388SOL     OW51382   1.383   5.342   0.773
13388SOL    HW151383   1.394   5.441   0.789
13388SOL    HW251384   1.446   5.313   0.701
13389SOL     OW51385   2.834   7.653   4.359
13389SOL    HW151386   2.751   7.690   4.317
13389SOL    HW251387   2.815   7.564   4.399
13390SOL     OW51388   6.674   1.955   0.581
13390SOL    HW151389   6.665   1.855   0.575
13390SOL    HW251390   6.605   1.998   0.523
13391SOL     OW51391   7.536   3.758   0.545
13391SOL    HW151392   7.634   3.742   0.556
13391SOL    HW251393   7.514   3.851   0.575
13392SOL     OW51394   2.591   1.505   4.271
13392SOL    HW151395   2.513   1.441   4.272
13392SOL    HW251396   2.589   1.560   4.354
13393SOL     OW51397   5.890   7.596   5.453
13393SOL    HW151398   5.829   7.526   5.490
13393SOL    HW251399   5.895   7.587   5.353
13394SOL     OW51400   0.977   7.817   0.416
13394SOL    HW151401   1.070   7.782   0.408
13394SOL    HW251402   0.928   7.801   0.330
13395SOL     OW51403   4.033   0.987   2.498
13395SOL    HW151404   4.122   1.015   2.462
13395SOL    HW251405   3.991   0.921   2.437
13396SOL     OW51406   0.790   8.829   1.183
13396SOL    HW151407   0.849   8.891   1.132
13396SOL    HW251408   0.841   8.746   1.205
13397SOL     OW51409   9.561   2.816   1.346
13397SOL    HW151410   9.482   2.806   1.286
13397SOL    HW251411   9.633   2.753   1.317
13398SOL     OW51412   3.813   3.463   2.284
13398SOL    HW151413   3.801   3.516   2.368
13398SOL    HW251414   3.727   3.418   2.260
13399SOL     OW51415   2.295   4.253   2.745
13399SOL    HW151416   2.388   4.227   2.718
13399SOL    HW251417   2.275   4.345   2.710
13400SOL     OW51418   7.757   4.497   1.436
13400SOL    HW151419   7.675   4.507   1.491
13400SOL    HW251420   7.733   4.459   1.346
13401SOL     OW51421   2.854   0.012   6.042
13401SOL    HW151422   2.795   0.092   6.028
13401SOL    HW251423   2.950   0.040   6.034
13402SOL     OW51424   0.637   8.009   1.194
13402SOL    HW151425   0.674   8.042   1.107
13402SOL    HW251426   0.697   8.038   1.268
13403SOL     OW51427   8.660   2.637   2.371
13403SOL    HW151428   8.643   2.596   2.460
13403SOL    HW251429   8.576   2.678   2.336
13404SOL     OW51430   7.618   3.429   5.228
13404SOL    HW151431   7.606   3.518   5.184
13404SOL    HW251432   7.631   3.442   5.326
13405SOL     OW51433   1.543   6.629   1.644
13405SOL    HW151434   1.471   6.668   1.701
13405SOL    HW251435   1.560   6.535   1.672
13406SOL     OW51436   5.465   0.035   4.320
13406SOL    HW151437   5.440   0.074   4.409
13406SOL    HW251438   5.390   0.049   4.255
13407SOL     OW51439   3.971   9.888   0.886
13407SOL    HW151440   3.958   9.987   0.872
13407SOL    HW251441   3.940   9.863   0.978
13408SOL     OW51442   9.256   2.569   1.226
13408SOL    HW151443   9.297   2.654   1.194
13408SOL    HW251444   9.183   2.589   1.292
13409SOL     OW51445   2.865   9.279   4.108
13409SOL    HW151446   2.841   9.239   4.196
13409SOL    HW251447   2.892   9.207   4.044
13410SOL     OW51448   7.260   1.444   4.411
13410SOL    HW151449   7.217   1.415   4.325
13410SOL    HW251450   7.199   1.507   4.459
13411SOL     OW51451   7.098   3.189   3.062
13411SOL    HW151452   7.179   3.150   3.105
13411SOL    HW251453   7.039   3.116   3.029
13412SOL     OW51454   0.987   0.316   2.668
13412SOL    HW151455   0.990   0.275   2.576
13412SOL    HW251456   0.979   0.243   2.736
13413SOL     OW51457   5.121   1.024   1.960
13413SOL    HW151458   5.037   1.017   2.014
13413SOL    HW251459   5.197   0.985   2.012
13414SOL     OW51460   1.728   5.967   1.317
13414SOL    HW151461   1.669   5.886   1.325
13414SOL    HW251462   1.727   6.000   1.223
13415SOL     OW51463   8.199   6.660   3.578
13415SOL    HW151464   8.129   6.726   3.551
13415SOL    HW251465   8.227   6.677   3.673
13416SOL     OW51466   0.400   2.873   4.734
13416SOL    HW151467   0.367   2.909   4.820
13416SOL    HW251468   0.325   2.872   4.667
13417SOL     OW51469   3.154   5.224   0.577
13417SOL    HW151470   3.067   5.264   0.549
13417SOL    HW251471   3.229   5.283   0.545
13418SOL     OW51472   4.444   8.169   4.230
13418SOL    HW151473   4.406   8.181   4.139
13418SOL    HW251474   4.536   8.129   4.224
13419SOL     OW51475   9.527   6.478   3.043
13419SOL    HW151476   9.556   6.498   3.137
13419SOL    HW251477   9.506   6.381   3.034
13420SOL     OW51478   3.844   2.696   4.465
13420SOL    HW151479   3.830   2.601   4.493
13420SOL    HW251480   3.901   2.698   4.383
13421SOL     OW51481   3.253   3.954   5.089
13421SOL    HW151482   3.251   4.009   5.173
13421SOL    HW251483   3.194   3.874   5.101
13422SOL     OW51484   8.276   0.712   4.219
13422SOL    HW151485   8.319   0.761   4.143
13422SOL    HW251486   8.205   0.769   4.259
13423SOL     OW51487   7.637   9.761   2.070
13423SOL    HW151488   7.722   9.793   2.029
13423SOL    HW251489   7.583   9.839   2.102
13424SOL     OW51490   3.006   0.342   5.033
13424SOL    HW151491   3.104   0.357   5.045
13424SOL    HW251492   2.964   0.425   4.995
13425SOL     OW51493   8.954   3.996   1.275
13425SOL    HW151494   8.966   3.960   1.183
13425SOL    HW251495   9.042   4.003   1.321
13426SOL     OW51496   8.875   1.032   2.404
13426SOL    HW151497   8.974   1.024   2.407
13426SOL    HW251498   8.849   1.102   2.337
13427SOL     OW51499   9.565   2.545   4.363
13427SOL    HW151500   9.539   2.471   4.300
13427SOL    HW251501   9.500   2.551   4.438
13428SOL     OW51502   9.867   8.257   6.134
13428SOL    HW151503   9.909   8.183   6.081
13428SOL    HW251504   9.848   8.226   6.227
13429SOL     OW51505   8.465   2.292   1.841
13429SOL    HW151506   8.523   2.282   1.922
13429SOL    HW251507   8.392   2.357   1.860
13430SOL     OW51508   1.034   0.404   3.789
13430SOL    HW151509   0.976   0.358   3.857
13430SOL    HW251510   1.116   0.439   3.834
13431SOL     OW51511   5.358   1.049   1.581
13431SOL    HW151512   5.357   0.963   1.530
13431SOL    HW251513   5.427   1.044   1.653
13432SOL     OW51514   1.173   4.076   1.239
13432SOL    HW151515   1.158   4.131   1.321
13432SOL    HW251516   1.224   3.993   1.263
13433SOL     OW51517   7.554   7.305   1.644
13433SOL    HW151518   7.651   7.279   1.642
13433SOL    HW251519   7.543   7.395   1.603
13434SOL     OW51520   8.063   8.571   6.071
13434SOL    HW151521   8.132   8.635   6.106
13434SOL    HW251522   8.042   8.593   5.976
13435SOL     OW51523   2.361   9.695   5.432
13435SOL    HW151524   2.381   9.601   5.404
13435SOL    HW251525   2.263   9.707   5.442
13436SOL     OW51526   7.313   0.972   3.267
13436SOL    HW151527   7.386   0.905   3.279
13436SOL    HW251528   7.266   0.956   3.180
13437SOL     OW51529   0.794   4.966   0.541
13437SOL    HW151530   0.782   5.050   0.595
13437SOL    HW251531   0.828   4.991   0.450
13438SOL     OW51532   3.021   2.783   4.484
13438SOL    HW151533   2.985   2.724   4.411
13438SOL    HW251534   3.098   2.836   4.449
13439SOL     OW51535   5.360   3.805   1.173
13439SOL    HW151536   5.447   3.820   1.221
13439SOL    HW251537   5.303   3.886   1.182
13440SOL     OW51538   7.312   8.636   2.563
13440SOL    HW151539   7.281   8.606   2.653
13440SOL    HW251540   7.393   8.694   2.573
13441SOL     OW51541   8.438   0.061   4.995
13441SOL    HW151542   8.440   0.079   5.094
13441SOL    HW251543   8.370   9.990   4.975
13442SOL     OW51544   6.360   0.785   2.492
13442SOL    HW151545   6.368   0.692   2.527
13442SOL    HW251546   6.426   0.844   2.538
13443SOL     OW51547   7.276   0.319   6.359
13443SOL    HW151548   7.259   0.282   6.268
13443SOL    HW251549   7.189   0.346   6.401
13444SOL     OW51550   5.094   2.696   4.359
13444SOL    HW151551   5.143   2.780   4.381
13444SOL    HW251552   5.159   2.624   4.337
13445SOL     OW51553   9.270   9.869   4.377
13445SOL    HW151554   9.342   9.889   4.444
13445SOL    HW251555   9.186   9.916   4.404
13446SOL     OW51556   0.878   5.529   4.818
13446SOL    HW151557   0.882   5.590   4.738
13446SOL    HW251558   0.969   5.520   4.858
13447SOL     OW51559   2.100   1.111   0.124
13447SOL    HW151560   2.113   1.093   0.222
13447SOL    HW251561   2.186   1.093   0.076
13448SOL     OW51562   9.891   6.835   5.828
13448SOL    HW151563   9.852   6.900   5.763
13448SOL    HW251564   9.990   6.833   5.817
13449SOL     OW51565   3.037   2.554   1.058
13449SOL    HW151566   3.080   2.634   1.102
13449SOL    HW251567   3.073   2.470   1.099
13450SOL     OW51568   3.474   0.583   1.270
13450SOL    HW151569   3.386   0.629   1.254
13450SOL    HW251570   3.501   0.535   1.186
13451SOL     OW51571   2.820   4.415   1.707
13451SOL    HW151572   2.775   4.504   1.713
13451SOL    HW251573   2.919   4.428   1.693
13452SOL     OW51574   7.896   5.004   2.418
13452SOL    HW151575   7.865   5.099   2.417
13452SOL    HW251576   7.976   4.995   2.478
13453SOL     OW51577   8.897   8.916   3.789
13453SOL    HW151578   8.839   8.956   3.861
13453SOL    HW251579   8.887   8.969   3.705
13454SOL     OW51580   2.363   6.346   5.443
13454SOL    HW151581   2.413   6.267   5.478
13454SOL    HW251582   2.334   6.404   5.519
13455SOL     OW51583   7.563   2.834   3.288
13455SOL    HW151584   7.604   2.860   3.375
13455SOL    HW251585   7.508   2.751   3.300
13456SOL     OW51586   9.005   0.359   3.405
13456SOL    HW151587   8.985   0.456   3.419
13456SOL    HW251588   8.946   0.303   3.463
13457SOL     OW51589   0.116   0.521   3.157
13457SOL    HW151590   0.143   0.493   3.249
13457SOL    HW251591   0.017   0.533   3.153
13458SOL     OW51592   9.679   1.594   3.098
13458SOL    HW151593   9.609   1.525   3.080
13458SOL    HW251594   9.748   1.591   3.025
13459SOL     OW51595   8.793   9.564   5.638
13459SOL    HW151596   8.802   9.478   5.687
13459SOL    HW251597   8.737   9.550   5.556
13460SOL     OW51598   8.628   8.370   5.204
13460SOL    HW151599   8.571   8.300   5.248
13460SOL    HW251600   8.724   8.353   5.224
13461SOL     OW51601   2.768   1.609   5.705
13461SOL    HW151602   2.784   1.621   5.608
13461SOL    HW251603   2.814   1.526   5.737
13462SOL     OW51604   9.545   1.857   3.943
13462SOL    HW151605   9.522   1.937   3.998
13462SOL    HW251606   9.574   1.782   4.003
13463SOL     OW51607   2.383   6.013   1.431
13463SOL    HW151608   2.447   5.983   1.500
13463SOL    HW251609   2.374   5.942   1.361
13464SOL     OW51610   5.384   8.613   5.910
13464SOL    HW151611   5.371   8.682   5.840
13464SOL    HW251612   5.433   8.535   5.871
13465SOL     OW51613   4.804   9.381   0.225
13465SOL    HW151614   4.846   9.401   0.136
13465SOL    HW251615   4.785   9.283   0.231
13466SOL     OW51616   3.135   5.571   4.196
13466SOL    HW151617   3.106   5.533   4.283
13466SOL    HW251618   3.116   5.506   4.123
13467SOL     OW51619   2.156   2.903   6.207
13467SOL    HW151620   2.118   2.957   6.132
13467SOL    HW251621   2.088   2.893   6.280
13468SOL     OW51622   4.036   1.857   0.323
13468SOL    HW151623   3.987   1.807   0.251
13468SOL    HW251624   3.971   1.886   0.393
13469SOL     OW51625   0.374   7.536   1.818
13469SOL    HW151626   0.281   7.501   1.824
13469SOL    HW251627   0.371   7.636   1.813
13470SOL     OW51628   6.798   1.310   3.378
13470SOL    HW151629   6.892   1.343   3.387
13470SOL    HW251630   6.776   1.249   3.454
13471SOL     OW51631   1.413   5.425   4.261
13471SOL    HW151632   1.360   5.373   4.329
13471SOL    HW251633   1.474   5.363   4.212
13472SOL     OW51634   6.309   9.539   4.829
13472SOL    HW151635   6.376   9.467   4.810
13472SOL    HW251636   6.351   9.610   4.885
13473SOL     OW51637   9.835   1.441   1.543
13473SOL    HW151638   9.891   1.365   1.575
13473SOL    HW251639   9.738   1.420   1.558
13474SOL     OW51640   8.558   1.414   4.380
13474SOL    HW151641   8.615   1.373   4.309
13474SOL    HW251642   8.617   1.456   4.449
13475SOL     OW51643   4.421   4.097   5.252
13475SOL    HW151644   4.470   4.031   5.309
13475SOL    HW251645   4.373   4.050   5.179
13476SOL     OW51646   1.461   6.230   4.685
13476SOL    HW151647   1.472   6.143   4.637
13476SOL    HW251648   1.545   6.284   4.675
13477SOL     OW51649   3.840   1.911   0.514
13477SOL    HW151650   3.782   1.830   0.505
13477SOL    HW251651   3.843   1.939   0.610
13478SOL     OW51652   0.202   6.433   1.260
13478SOL    HW151653   0.275   6.431   1.191
13478SOL    HW251654   0.190   6.526   1.293
13479SOL     OW51655   3.599   8.513   4.635
13479SOL    HW151656   3.673   8.527   4.569
13479SOL    HW251657   3.552   8.427   4.616
13480SOL     OW51658   9.202   8.686   0.777
13480SOL    HW151659   9.254   8.644   0.703
13480SOL    HW251660   9.176   8.616   0.844
13481SOL     OW51661   1.522   5.862   5.991
13481SOL    HW151662   1.583   5.830   6.063
13481SOL    HW251663   1.559   5.837   5.901
13482SOL     OW51664   3.293   6.511   4.736
13482SOL    HW151665   3.206   6.559   4.741
13482SOL    HW251666   3.368   6.576   4.748
13483SOL     OW51667   8.893   3.333   6.350
13483SOL    HW151668   8.844   3.246   6.347
13483SOL    HW251669   8.834   3.403   6.391
13484SOL     OW51670   2.659   5.757   2.936
13484SOL    HW151671   2.711   5.817   2.997
13484SOL    HW251672   2.658   5.795   2.844
13485SOL     OW51673   4.408   3.901   1.127
13485SOL    HW151674   4.366   3.829   1.071
13485SOL    HW251675   4.476   3.950   1.072
13486SOL     OW51676   1.340   6.259   0.867
13486SOL    HW151677   1.356   6.192   0.795
13486SOL    HW251678   1.395   6.234   0.947
13487SOL     OW51679   8.640   0.429   3.620
13487SOL    HW151680   8.715   0.365   3.610
13487SOL    HW251681   8.556   0.388   3.583
13488SOL     OW51682   6.688   1.721   1.541
13488SOL    HW151683   6.666   1.669   1.623
13488SOL    HW251684   6.666   1.667   1.460
13489SOL     OW51685   7.323   6.983   5.936
13489SOL    HW151686   7.240   6.952   5.983
13489SOL    HW251687   7.400   6.982   6.000
13490SOL     OW51688   7.728   0.258   4.207
13490SOL    HW151689   7.703   0.172   4.163
13490SOL    HW251690   7.797   0.305   4.152
13491SOL     OW51691   1.021   4.466   2.492
13491SOL    HW151692   1.102   4.469   2.550
13491SOL    HW251693   1.032   4.531   2.416
13492SOL     OW51694   9.027   4.775   4.685
13492SOL    HW151695   8.970   4.800   4.607
13492SOL    HW251696   8.996   4.688   4.723
13493SOL     OW51697   6.659   1.561   1.324
13493SOL    HW151698   6.671   1.608   1.237
13493SOL    HW251699   6.739   1.504   1.343
13494SOL     OW51700   3.206   1.661   5.631
13494SOL    HW151701   3.157   1.715   5.563
13494SOL    HW251702   3.253   1.585   5.586
13495SOL     OW51703   3.517   1.490   4.461
13495SOL    HW151704   3.582   1.427   4.504
13495SOL    HW251705   3.517   1.476   4.362
13496SOL     OW51706   2.319   8.501   1.165
13496SOL    HW151707   2.274   8.575   1.215
13496SOL    HW251708   2.259   8.469   1.092
13497SOL     OW51709   8.272   1.925   2.265
13497SOL    HW151710   8.198   1.989   2.285
13497SOL    HW251711   8.278   1.909   2.167
13498SOL     OW51712   2.677   7.839   5.115
13498SOL    HW151713   2.728   7.923   5.097
13498SOL    HW251714   2.600   7.832   5.051
13499SOL     OW51715   7.094   3.348   1.257
13499SOL    HW151716   7.047   3.338   1.169
13499SOL    HW251717   7.124   3.443   1.268
13500SOL     OW51718   6.639   2.497   6.031
13500SOL    HW151719   6.664   2.559   5.957
13500SOL    HW251720   6.554   2.528   6.073
13501SOL     OW51721   9.685   1.369   1.137
13501SOL    HW151722   9.678   1.425   1.054
13501SOL    HW251723   9.597   1.368   1.183
13502SOL     OW51724   6.430   1.382   3.035
13502SOL    HW151725   6.384   1.471   3.031
13502SOL    HW251726   6.493   1.381   3.112
13503SOL     OW51727   3.277   7.812   5.991
13503SOL    HW151728   3.312   7.756   6.066
13503SOL    HW251729   3.237   7.752   5.922
13504SOL     OW51730   3.887   7.798   1.727
13504SOL    HW151731   3.959   7.867   1.716
13504SOL    HW251732   3.804   7.829   1.682
13505SOL     OW51733   3.393   7.257   1.031
13505SOL    HW151734   3.342   7.331   0.988
13505SOL    HW251735   3.413   7.186   0.963
13506SOL     OW51736   8.810   5.305   4.651
13506SOL    HW151737   8.881   5.248   4.608
13506SOL    HW251738   8.810   5.395   4.607
13507SOL     OW51739   1.552   9.846   4.501
13507SOL    HW151740   1.576   9.768   4.443
13507SOL    HW251741   1.631   9.906   4.510
13508SOL     OW51742   1.639   9.533   2.585
13508SOL    HW151743   1.546   9.500   2.604
13508SOL    HW251744   1.687   9.465   2.529
13509SOL     OW51745   0.624   0.548   2.166
13509SOL    HW151746   0.637   0.549   2.265
13509SOL    HW251747   0.599   0.640   2.135
13510SOL     OW51748   8.321   2.495   0.836
13510SOL    HW151749   8.347   2.561   0.765
13510SOL    HW251750   8.388   2.499   0.910
13511SOL     OW51751   1.417   9.505   1.403
13511SOL    HW151752   1.410   9.406   1.409
13511SOL    HW251753   1.370   9.547   1.481
13512SOL     OW51754   8.213   7.599   3.068
13512SOL    HW151755   8.181   7.571   3.158
13512SOL    HW251756   8.304   7.562   3.051
13513SOL     OW51757   8.271   0.128   6.222
13513SOL    HW151758   8.314   0.156   6.136
13513SOL    HW251759   8.196   0.065   6.203
13514SOL     OW51760   2.690   7.069   0.800
13514SOL    HW151761   2.695   7.002   0.726
13514SOL    HW251762   2.595   7.086   0.823
13515SOL     OW51763   8.907   0.780   0.952
13515SOL    HW151764   8.964   0.699   0.967
13515SOL    HW251765   8.858   0.770   0.865
13516SOL     OW51766   3.059   2.474   0.392
13516SOL    HW151767   3.029   2.379   0.401
13516SOL    HW251768   3.157   2.476   0.376
13517SOL     OW51769   2.951   7.882   4.474
13517SOL    HW151770   3.027   7.902   4.413
13517SOL    HW251771   2.900   7.803   4.438
13518SOL     OW51772   1.182   8.354   2.061
13518SOL    HW151773   1.108   8.392   2.006
13518SOL    HW251774   1.169   8.255   2.071
13519SOL     OW51775   3.543   9.982   4.352
13519SOL    HW151776   3.525   9.898   4.302
13519SOL    HW251777   3.458   0.015   4.393
13520SOL     OW51778   3.178   3.857   4.686
13520SOL    HW151779   3.244   3.828   4.755
13520SOL    HW251780   3.213   3.939   4.639
13521SOL     OW51781   9.624   7.431   0.706
13521SOL    HW151782   9.552   7.387   0.654
13521SOL    HW251783   9.604   7.422   0.804
13522SOL     OW51784   0.731   3.877   4.833
13522SOL    HW151785   0.774   3.865   4.744
13522SOL    HW251786   0.737   3.792   4.885
13523SOL     OW51787   3.322   6.665   5.918
13523SOL    HW151788   3.330   6.661   5.819
13523SOL    HW251789   3.353   6.755   5.951
13524SOL     OW51790   9.231   3.325   0.895
13524SOL    HW151791   9.287   3.251   0.858
13524SOL    HW251792   9.238   3.405   0.835
13525SOL     OW51793   3.952   8.457   4.863
13525SOL    HW151794   4.004   8.499   4.937
13525SOL    HW251795   3.877   8.403   4.901
13526SOL     OW51796   6.922   9.462   4.559
13526SOL    HW151797   6.977   9.382   4.584
13526SOL    HW251798   6.979   9.525   4.506
13527SOL     OW51799   2.899   0.705   4.883
13527SOL    HW151800   2.831   0.778   4.871
13527SOL    HW251801   2.973   0.738   4.942
13528SOL     OW51802   0.480   3.786   3.189
13528SOL    HW151803   0.578   3.794   3.209
13528SOL    HW251804   0.462   3.697   3.148
13529SOL     OW51805   4.590   5.985   3.421
13529SOL    HW151806   4.667   5.997   3.359
13529SOL    HW251807   4.559   6.074   3.454
13530SOL     OW51808   2.906   6.257   2.103
13530SOL    HW151809   2.954   6.186   2.051
13530SOL    HW251810   2.808   6.237   2.103
13531SOL     OW51811   0.745   0.598   5.655
13531SOL    HW151812   0.665   0.634   5.607
13531SOL    HW251813   0.780   0.518   5.605
13532SOL     OW51814   7.716   0.977   5.928
13532SOL    HW151815   7.637   0.926   5.896
13532SOL    HW251816   7.800   0.934   5.893
13533SOL     OW51817   4.072   9.243   0.628
13533SOL    HW151818   4.005   9.271   0.560
13533SOL    HW251819   4.033   9.173   0.687
13534SOL     OW51820   6.824   3.157   1.799
13534SOL    HW151821   6.922   3.140   1.808
13534SOL    HW251822   6.793   3.218   1.872
13535SOL     OW51823   0.914   6.225   6.322
13535SOL    HW151824   0.894   6.284   6.243
13535SOL    HW251825   0.850   6.148   6.323
13536SOL     OW51826   3.767   3.516   4.100
13536SOL    HW151827   3.743   3.613   4.098
13536SOL    HW251828   3.854   3.504   4.148
13537SOL     OW51829   3.901   7.997   1.357
13537SOL    HW151830   3.887   8.004   1.258
13537SOL    HW251831   3.825   8.041   1.405
13538SOL     OW51832   3.794   5.530   0.369
13538SOL    HW151833   3.725   5.458   0.360
13538SOL    HW251834   3.884   5.489   0.379
13539SOL     OW51835   4.217   2.529   1.357
13539SOL    HW151836   4.259   2.596   1.419
13539SOL    HW251837   4.201   2.444   1.407
13540SOL     OW51838   9.270   0.168   6.018
13540SOL    HW151839   9.262   0.255   6.067
13540SOL    HW251840   9.350   0.119   6.052
13541SOL     OW51841   0.207   5.616   1.268
13541SOL    HW151842   0.135   5.553   1.237
13541SOL    HW251843   0.211   5.695   1.207
13542SOL     OW51844   6.127   5.864   0.523
13542SOL    HW151845   6.040   5.817   0.533
13542SOL    HW251846   6.143   5.923   0.602
13543SOL     OW51847   5.225   1.105   5.282
13543SOL    HW151848   5.139   1.137   5.244
13543SOL    HW251849   5.222   1.114   5.382
13544SOL     OW51850   6.258   2.638   4.586
13544SOL    HW151851   6.207   2.724   4.599
13544SOL    HW251852   6.243   2.579   4.665
13545SOL     OW51853   4.010   4.470   0.230
13545SOL    HW151854   4.087   4.422   0.188
13545SOL    HW251855   4.016   4.568   0.207
13546SOL     OW51856   8.328   9.918   1.100
13546SOL    HW151857   8.363   9.980   1.171
13546SOL    HW251858   8.403   9.891   1.039
13547SOL     OW51859   2.816   4.758   4.783
13547SOL    HW151860   2.751   4.722   4.717
13547SOL    HW251861   2.839   4.687   4.850
13548SOL     OW51862   5.827   8.857   5.255
13548SOL    HW151863   5.776   8.873   5.171
13548SOL    HW251864   5.924   8.850   5.234
13549SOL     OW51865   6.950   3.424   1.014
13549SOL    HW151866   6.972   3.341   0.963
13549SOL    HW251867   7.009   3.498   0.984
13550SOL     OW51868   9.874   9.758   3.820
13550SOL    HW151869   9.789   9.710   3.797
13550SOL    HW251870   9.854   9.835   3.880
13551SOL     OW51871   4.052   6.111   2.108
13551SOL    HW151872   4.090   6.133   2.019
13551SOL    HW251873   4.122   6.123   2.179
13552SOL     OW51874   4.756   8.949   2.796
13552SOL    HW151875   4.834   8.981   2.850
13552SOL    HW251876   4.772   8.967   2.699
13553SOL     OW51877   1.532   7.286   5.867
13553SOL    HW151878   1.443   7.279   5.820
13553SOL    HW251879   1.550   7.201   5.917
13554SOL     OW51880   3.216   7.892   4.996
13554SOL    HW151881   3.271   7.976   5.003
13554SOL    HW251882   3.249   7.837   4.919
13555SOL     OW51883   1.802   8.319   1.346
13555SOL    HW151884   1.796   8.331   1.445
13555SOL    HW251885   1.873   8.380   1.309
13556SOL     OW51886   8.374   0.175   5.973
13556SOL    HW151887   8.340   0.216   5.888
13556SOL    HW251888   8.374   0.076   5.965
13557SOL     OW51889   1.478   7.221   0.056
13557SOL    HW151890   1.496   7.123   0.063
13557SOL    HW251891   1.564   7.272   0.062
13558SOL     OW51892   1.156   0.741   3.167
13558SOL    HW151893   1.163   0.648   3.131
13558SOL    HW251894   1.089   0.743   3.241
13559SOL     OW51895   8.362   4.685   0.275
13559SOL    HW151896   8.327   4.682   0.369
13559SOL    HW251897   8.432   4.757   0.268
13560SOL     OW51898   0.338   9.082   5.500
13560SOL    HW151899   0.419   9.045   5.546
13560SOL    HW251900   0.264   9.016   5.504
13561SOL     OW51901   9.413   8.470   1.644
13561SOL    HW151902   9.364   8.467   1.557
13561SOL    HW251903   9.509   8.447   1.629
13562SOL     OW51904   7.690   3.330   4.164
13562SOL    HW151905   7.598   3.353   4.196
13562SOL    HW251906   7.721   3.400   4.099
13563SOL     OW51907   5.862   1.193   4.876
13563SOL    HW151908   5.804   1.209   4.955
13563SOL    HW251909   5.807   1.201   4.792
13564SOL     OW51910   1.661   8.224   4.524
13564SOL    HW151911   1.688   8.261   4.614
13564SOL    HW251912   1.669   8.125   4.526
13565SOL     OW51913   2.804   8.796   0.958
13565SOL    HW151914   2.870   8.823   1.029
13565SOL    HW251915   2.823   8.703   0.929
13566SOL     OW51916   9.602   9.645   0.013
13566SOL    HW151917   9.555   9.630   8.114
13566SOL    HW251918   9.666   9.571   0.030
13567SOL     OW51919   3.691   4.011   2.755
13567SOL    HW151920   3.774   3.995   2.701
13567SOL    HW251921   3.654   4.101   2.732
13568SOL     OW51922   7.894   8.766   2.520
13568SOL    HW151923   7.837   8.735   2.444
13568SOL    HW251924   7.850   8.844   2.565
13569SOL     OW51925   7.573   8.900   3.888
13569SOL    HW151926   7.663   8.904   3.845
13569SOL    HW251927   7.582   8.863   3.980
13570SOL     OW51928   0.162   5.874   2.837
13570SOL    HW151929   0.201   5.843   2.750
13570SOL    HW251930   0.066   5.846   2.841
13571SOL     OW51931   8.716   1.062   5.827
13571SOL    HW151932   8.756   1.015   5.906
13571SOL    HW251933   8.735   1.160   5.834
13572SOL     OW51934   9.631   6.152   5.140
13572SOL    HW151935   9.579   6.202   5.071
13572SOL    HW251936   9.613   6.192   5.230
13573SOL     OW51937   2.962   4.207   0.052
13573SOL    HW151938   2.984   4.299   0.019
13573SOL    HW251939   3.041   4.171   0.102
13574SOL     OW51940   9.090   6.501   0.873
13574SOL    HW151941   9.179   6.535   0.905
13574SOL    HW251942   9.087   6.508   0.773
13575SOL     OW51943   5.593   4.574   0.739
13575SOL    HW151944   5.586   4.556   0.641
13575SOL    HW251945   5.686   4.555   0.770
13576SOL     OW51946   0.285   2.867   5.650
13576SOL    HW151947   0.267   2.913   5.563
13576SOL    HW251948   0.366   2.809   5.641
13577SOL     OW51949   8.260   7.249   3.577
13577SOL    HW151950   8.214   7.338   3.571
13577SOL    HW251951   8.221   7.196   3.653
13578SOL     OW51952   5.941   9.049   5.650
13578SOL    HW151953   5.918   8.960   5.609
13578SOL    HW251954   5.944   9.118   5.578
13579SOL     OW51955   7.623   7.943   4.178
13579SOL    HW151956   7.710   7.933   4.130
13579SOL    HW251957   7.563   7.866   4.156
13580SOL     OW51958   9.889   6.232   1.921
13580SOL    HW151959   9.820   6.162   1.902
13580SOL    HW251960   9.859   6.320   1.886
13581SOL     OW51961   1.984   4.467   3.390
13581SOL    HW151962   1.886   4.460   3.411
13581SOL    HW251963   1.996   4.485   3.293
13582SOL     OW51964   0.098   9.602   3.673
13582SOL    HW151965   0.176   9.652   3.711
13582SOL    HW251966   0.013   9.649   3.698
13583SOL     OW51967   2.886   6.789   0.726
13583SOL    HW151968   2.871   6.695   0.754
13583SOL    HW251969   2.807   6.823   0.676
13584SOL     OW51970   0.267   5.778   1.487
13584SOL    HW151971   0.250   5.716   1.411
13584SOL    HW251972   0.202   5.760   1.560
13585SOL     OW51973   3.944   3.375   1.740
13585SOL    HW151974   3.942   3.468   1.777
13585SOL    HW251975   3.940   3.379   1.640
13586SOL     OW51976   8.911   3.998   1.688
13586SOL    HW151977   8.997   4.045   1.710
13586SOL    HW251978   8.930   3.901   1.668
13587SOL     OW51979   8.403   5.837   3.674
13587SOL    HW151980   8.390   5.905   3.601
13587SOL    HW251981   8.467   5.873   3.741
13588SOL     OW51982   2.753   0.925   2.912
13588SOL    HW151983   2.748   0.888   3.005
13588SOL    HW251984   2.698   1.007   2.905
13589SOL     OW51985   3.309   3.363   4.125
13589SOL    HW151986   3.298   3.276   4.076
13589SOL    HW251987   3.395   3.362   4.176
13590SOL     OW51988   4.537   5.029   2.353
13590SOL    HW151989   4.563   5.063   2.443
13590SOL    HW251990   4.618   4.993   2.306
13591SOL     OW51991   3.387   8.333   2.866
13591SOL    HW151992   3.324   8.372   2.933
13591SOL    HW251993   3.466   8.393   2.855
13592SOL     OW51994   6.406   7.498   4.125
13592SOL    HW151995   6.390   7.480   4.028
13592SOL    HW251996   6.336   7.452   4.179
13593SOL     OW51997   8.919   1.827   5.393
13593SOL    HW151998   9.011   1.850   5.362
13593SOL    HW251999   8.888   1.744   5.348
13594SOL     OW52000   3.675   8.137   4.753
13594SOL    HW152001   3.766   8.111   4.721
13594SOL    HW252002   3.617   8.056   4.760
13595SOL     OW52003   3.406   6.450   0.795
13595SOL    HW152004   3.464   6.437   0.714
13595SOL    HW252005   3.315   6.414   0.776
13596SOL     OW52006   4.872   2.245   1.737
13596SOL    HW152007   4.850   2.342   1.723
13596SOL    HW252008   4.959   2.237   1.785
13597SOL     OW52009   4.154   5.686   2.459
13597SOL    HW152010   4.054   5.684   2.455
13597SOL    HW252011   4.187   5.595   2.484
13598SOL     OW52012   9.063   6.655   3.706
13598SOL    HW152013   9.056   6.562   3.668
13598SOL    HW252014   9.142   6.702   3.665
13599SOL     OW52015   6.622   0.286   3.526
13599SOL    HW152016   6.613   0.223   3.604
13599SOL    HW252017   6.532   0.303   3.487
13600SOL     OW52018   0.829   6.923   0.882
13600SOL    HW152019   0.768   6.961   0.952
13600SOL    HW252020   0.807   6.963   0.793
13601SOL     OW52021   1.767   7.425   5.838
13601SOL    HW152022   1.677   7.383   5.848
13601SOL    HW252023   1.825   7.367   5.781
13602SOL     OW52024   2.004   8.223   3.063
13602SOL    HW152025   2.018   8.216   2.964
13602SOL    HW252026   1.923   8.279   3.081
13603SOL     OW52027   7.465   0.658   0.411
13603SOL    HW152028   7.471   0.730   0.480
13603SOL    HW252029   7.527   0.680   0.336
13604SOL     OW52030   7.695   6.819   1.360
13604SOL    HW152031   7.657   6.882   1.428
13604SOL    HW252032   7.652   6.729   1.370
13605SOL     OW52033   0.582   1.845   3.540
13605SOL    HW152034   0.666   1.791   3.533
13605SOL    HW252035   0.603   1.941   3.524
13606SOL     OW52036   0.963   4.187   2.467
13606SOL    HW152037   0.922   4.151   2.382
13606SOL    HW252038   0.970   4.286   2.460
13607SOL     OW52039   0.670   4.306   0.231
13607SOL    HW152040   0.570   4.312   0.229
13607SOL    HW252041   0.707   4.323   0.140
13608SOL     OW52042   7.814   0.141   5.331
13608SOL    HW152043   7.756   0.220   5.353
13608SOL    HW252044   7.866   0.161   5.248
13609SOL     OW52045   6.947   1.207   2.006
13609SOL    HW152046   6.902   1.285   2.048
13609SOL    HW252047   6.930   1.124   2.060
13610SOL     OW52048   6.047   1.038   2.251
13610SOL    HW152049   6.060   0.979   2.331
13610SOL    HW252050   6.000   1.121   2.278
13611SOL     OW52051   3.992   2.743   0.198
13611SOL    HW152052   3.989   2.754   0.099
13611SOL    HW252053   4.071   2.688   0.224
13612SOL     OW52054   8.599   0.663   5.507
13612SOL    HW152055   8.641   0.616   5.430
13612SOL    HW252056   8.536   0.601   5.554
13613SOL     OW52057   2.181   6.218   4.221
13613SOL    HW152058   2.183   6.318   4.221
13613SOL    HW252059   2.263   6.182   4.265
13614SOL     OW52060   3.897   8.039   3.594
13614SOL    HW152061   3.919   7.955   3.642
13614SOL    HW252062   3.883   8.020   3.496
13615SOL     OW52063   4.517   7.796   2.917
13615SOL    HW152064   4.444   7.827   2.855
13615SOL    HW252065   4.602   7.842   2.893
13616SOL     OW52066   1.396   4.940   0.830
13616SOL    HW152067   1.416   4.872   0.759
13616SOL    HW252068   1.298   4.959   0.832
13617SOL     OW52069   2.069   1.801   2.632
13617SOL    HW152070   2.090   1.723   2.573
13617SOL    HW252071   2.003   1.860   2.586
13618SOL     OW52072   2.919   1.757   4.036
13618SOL    HW152073   3.003   1.737   3.985
13618SOL    HW252074   2.903   1.685   4.103
13619SOL     OW52075   3.986   5.598   2.052
13619SOL    HW152076   3.958   5.680   2.101
13619SOL    HW252077   3.984   5.616   1.954
13620SOL     OW52078   3.820   6.467   3.735
13620SOL    HW152079   3.720   6.460   3.735
13620SOL    HW252080   3.846   6.564   3.741
13621SOL     OW52081   0.141   0.543   5.877
13621SOL    HW152082   0.113   0.535   5.973
13621SOL    HW252083   0.164   0.638   5.857
13622SOL     OW52084   0.999   5.592   2.850
13622SOL    HW152085   1.000   5.495   2.826
13622SOL    HW252086   1.093   5.627   2.851
13623SOL     OW52087   1.179   6.379   2.775
13623SOL    HW152088   1.267   6.355   2.735
13623SOL    HW252089   1.192   6.407   2.871
13624SOL     OW52090   3.189   0.685   0.404
13624SOL    HW152091   3.147   0.658   0.317
13624SOL    HW252092   3.285   0.659   0.405
13625SOL     OW52093   3.654   1.805   2.591
13625SOL    HW152094   3.669   1.709   2.570
13625SOL    HW252095   3.714   1.833   2.666
13626SOL     OW52096   1.176   0.338   0.138
13626SOL    HW152097   1.100   0.300   0.191
13626SOL    HW252098   1.140   0.393   0.063
13627SOL     OW52099   7.557   2.223   4.302
13627SOL    HW152100   7.496   2.223   4.223
13627SOL    HW252101   7.507   2.252   4.384
13628SOL     OW52102   7.688   4.314   1.828
13628SOL    HW152103   7.665   4.399   1.875
13628SOL    HW252104   7.771   4.275   1.869
13629SOL     OW52105   9.350   4.800   3.945
13629SOL    HW152106   9.351   4.728   4.015
13629SOL    HW252107   9.443   4.837   3.934
13630SOL     OW52108   7.935   0.852   5.813
13630SOL    HW152109   7.977   0.891   5.732
13630SOL    HW252110   8.006   0.816   5.874
13631SOL     OW52111   3.901   3.642   0.306
13631SOL    HW152112   3.843   3.583   0.364
13631SOL    HW252113   3.896   3.736   0.340
13632SOL     OW52114   5.059   0.159   5.382
13632SOL    HW152115   4.981   0.150   5.444
13632SOL    HW252116   5.144   0.155   5.433
13633SOL     OW52117   0.028   7.405   5.957
13633SOL    HW152118   0.110   7.370   6.002
13633SOL    HW252119   0.049   7.494   5.915
13634SOL     OW52120   9.170   9.109   0.102
13634SOL    HW152121   9.158   9.208   0.102
13634SOL    HW252122   9.081   9.064   0.095
13635SOL     OW52123   7.555   7.467   3.527
13635SOL    HW152124   7.471   7.515   3.553
13635SOL    HW252125   7.596   7.514   3.449
13636SOL     OW52126   1.261   6.843   6.255
13636SOL    HW152127   1.208   6.774   6.305
13636SOL    HW252128   1.202   6.886   6.187
13637SOL     OW52129   9.261   0.934   1.303
13637SOL    HW152130   9.339   0.905   1.358
13637SOL    HW252131   9.213   0.854   1.267
13638SOL     OW52132   3.355   3.789   4.894
13638SOL    HW152133   3.317   3.859   4.955
13638SOL    HW252134   3.371   3.705   4.946
13639SOL     OW52135   9.497   6.672   2.643
13639SOL    HW152136   9.596   6.661   2.636
13639SOL    HW252137   9.452   6.621   2.569
13640SOL     OW52138   2.533   4.888   3.514
13640SOL    HW152139   2.448   4.862   3.560
13640SOL    HW252140   2.598   4.924   3.581
13641SOL     OW52141   2.840   6.681   4.334
13641SOL    HW152142   2.748   6.647   4.313
13641SOL    HW252143   2.839   6.730   4.420
13642SOL     OW52144   3.853   1.825   5.702
13642SOL    HW152145   3.808   1.914   5.705
13642SOL    HW252146   3.833   1.774   5.786
13643SOL     OW52147   2.668   5.231   2.896
13643SOL    HW152148   2.721   5.303   2.852
13643SOL    HW252149   2.577   5.266   2.918
13644SOL     OW52150   7.441   4.936   6.222
13644SOL    HW152151   7.505   4.866   6.192
13644SOL    HW252152   7.436   5.009   6.154
13645SOL     OW52153   3.806   2.114   1.243
13645SOL    HW152154   3.840   2.159   1.160
13645SOL    HW252155   3.725   2.162   1.276
13646SOL     OW52156   3.397   7.753   2.341
13646SOL    HW152157   3.468   7.699   2.296
13646SOL    HW252158   3.436   7.841   2.369
13647SOL     OW52159   2.812   7.688   4.787
13647SOL    HW152160   2.858   7.762   4.836
13647SOL    HW252161   2.754   7.637   4.850
13648SOL     OW52162   0.360   5.231   1.347
13648SOL    HW152163   0.396   5.323   1.336
13648SOL    HW252164   0.282   5.218   1.286
13649SOL     OW52165   7.208   1.237   3.875
13649SOL    HW152166   7.271   1.301   3.919
13649SOL    HW252167   7.119   1.281   3.862
13650SOL     OW52168   3.979   1.868   1.594
13650SOL    HW152169   3.918   1.825   1.661
13650SOL    HW252170   4.037   1.797   1.552
13651SOL     OW52171   2.783   1.166   5.926
13651SOL    HW152172   2.791   1.179   6.025
13651SOL    HW252173   2.702   1.111   5.906
13652SOL     OW52174   9.822   1.908   2.372
13652SOL    HW152175   9.816   1.999   2.331
13652SOL    HW252176   9.759   1.846   2.324
13653SOL     OW52177   2.098   6.499   6.003
13653SOL    HW152178   2.182   6.537   6.043
13653SOL    HW252179   2.064   6.560   5.932
13654SOL     OW52180   9.366   3.981   3.061
13654SOL    HW152181   9.349   3.969   3.159
13654SOL    HW252182   9.399   4.073   3.044
13655SOL     OW52183   2.968   9.732   2.180
13655SOL    HW152184   3.007   9.699   2.267
13655SOL    HW252185   2.969   9.832   2.179
13656SOL     OW52186   3.110   0.131   6.012
13656SOL    HW152187   3.114   0.164   5.918
13656SOL    HW252188   3.193   0.158   6.061
13657SOL     OW52189   4.582   1.134   5.074
13657SOL    HW152190   4.512   1.137   5.146
13657SOL    HW252191   4.604   1.227   5.046
13658SOL     OW52192   7.817   5.636   4.830
13658SOL    HW152193   7.876   5.717   4.830
13658SOL    HW252194   7.872   5.555   4.805
13659SOL     OW52195   9.785   4.329   0.755
13659SOL    HW152196   9.767   4.282   0.669
13659SOL    HW252197   9.725   4.292   0.826
13660SOL     OW52198   0.411   8.345   5.299
13660SOL    HW152199   0.415   8.296   5.212
13660SOL    HW252200   0.459   8.292   5.369
13661SOL     OW52201   5.228   0.631   6.085
13661SOL    HW152202   5.237   0.677   6.173
13661SOL    HW252203   5.151   0.670   6.035
13662SOL     OW52204   1.228   2.470   5.265
13662SOL    HW152205   1.164   2.399   5.292
13662SOL    HW252206   1.281   2.439   5.187
13663SOL     OW52207   1.904   4.247   0.700
13663SOL    HW152208   1.904   4.202   0.790
13663SOL    HW252209   1.947   4.186   0.633
13664SOL     OW52210   7.378   8.912   3.685
13664SOL    HW152211   7.449   8.906   3.755
13664SOL    HW252212   7.316   8.988   3.706
13665SOL     OW52213   7.871   0.531   0.155
13665SOL    HW152214   7.870   0.527   0.255
13665SOL    HW252215   7.881   0.626   0.126
13666SOL     OW52216   8.917   9.586   1.595
13666SOL    HW152217   8.912   9.618   1.500
13666SOL    HW252218   9.006   9.544   1.611
13667SOL     OW52219   1.084   1.280   3.601
13667SOL    HW152220   1.102   1.182   3.612
13667SOL    HW252221   1.149   1.333   3.654
13668SOL     OW52222   8.408   2.492   5.704
13668SOL    HW152223   8.353   2.422   5.660
13668SOL    HW252224   8.498   2.455   5.726
13669SOL     OW52225   3.378   0.236   4.045
13669SOL    HW152226   3.428   0.273   4.124
13669SOL    HW252227   3.309   0.171   4.076
13670SOL     OW52228   4.553   2.031   4.222
13670SOL    HW152229   4.609   1.976   4.285
13670SOL    HW252230   4.476   2.071   4.271
13671SOL     OW52231   6.914   8.939   2.970
13671SOL    HW152232   6.995   8.905   2.922
13671SOL    HW252233   6.835   8.883   2.944
13672SOL     OW52234   0.787   9.997   5.212
13672SOL    HW152235   0.831   9.909   5.231
13672SOL    HW252236   0.803   0.060   5.287
13673SOL     OW52237   7.132   1.325   2.844
13673SOL    HW152238   7.116   1.321   2.942
13673SOL    HW252239   7.063   1.384   2.801
13674SOL     OW52240   3.728   8.551   0.681
13674SOL    HW152241   3.711   8.631   0.623
13674SOL    HW252242   3.808   8.502   0.646
13675SOL     OW52243   8.539   8.810   2.502
13675SOL    HW152244   8.633   8.806   2.469
13675SOL    HW252245   8.489   8.882   2.453
13676SOL     OW52246   9.794   3.790   1.510
13676SOL    HW152247   9.816   3.697   1.541
13676SOL    HW252248   9.872   3.850   1.526
13677SOL     OW52249   3.751   2.624   3.809
13677SOL    HW152250   3.762   2.616   3.709
13677SOL    HW252251   3.706   2.710   3.831
13678SOL     OW52252   2.183   4.317   0.969
13678SOL    HW152253   2.277   4.344   0.948
13678SOL    HW252254   2.175   4.218   0.964
13679SOL     OW52255   2.692   5.776   6.346
13679SOL    HW152256   2.700   5.680   6.370
13679SOL    HW252257   2.783   5.816   6.337
13680SOL     OW52258   7.970   7.291   5.261
13680SOL    HW152259   7.965   7.263   5.165
13680SOL    HW252260   7.884   7.270   5.306
13681SOL     OW52261   0.584   3.059   1.430
13681SOL    HW152262   0.540   3.101   1.510
13681SOL    HW252263   0.652   2.993   1.460
13682SOL     OW52264   5.746   9.893   2.489
13682SOL    HW152265   5.681   9.935   2.425
13682SOL    HW252266   5.714   9.801   2.513
13683SOL     OW52267   4.727   9.192   6.236
13683SOL    HW152268   4.636   9.207   6.196
13683SOL    HW252269   4.720   9.122   6.307
13684SOL     OW52270   1.974   6.844   2.803
13684SOL    HW152271   1.979   6.808   2.709
13684SOL    HW252272   1.909   6.919   2.806
13685SOL     OW52273   0.256   7.406   4.855
13685SOL    HW152274   0.166   7.363   4.864
13685SOL    HW252275   0.328   7.337   4.866
13686SOL     OW52276   3.340   1.195   1.011
13686SOL    HW152277   3.405   1.222   1.081
13686SOL    HW252278   3.336   1.095   1.006
13687SOL     OW52279   6.544   1.451   1.026
13687SOL    HW152280   6.597   1.532   1.053
13687SOL    HW252281   6.579   1.415   0.940
13688SOL     OW52282   5.399   3.218   0.769
13688SOL    HW152283   5.362   3.308   0.792
13688SOL    HW252284   5.484   3.203   0.820
13689SOL     OW52285   3.291   2.452   4.832
13689SOL    HW152286   3.233   2.505   4.770
13689SOL    HW252287   3.347   2.388   4.778
13690SOL     OW52288   2.472   4.480   1.494
13690SOL    HW152289   2.512   4.392   1.517
13690SOL    HW252290   2.525   4.524   1.421
13691SOL     OW52291   1.272   4.230   2.155
13691SOL    HW152292   1.294   4.322   2.189
13691SOL    HW252293   1.212   4.237   2.076
13692SOL     OW52294   1.164   4.071   3.657
13692SOL    HW152295   1.138   3.975   3.659
13692SOL    HW252296   1.081   4.128   3.663
13693SOL     OW52297   8.769   3.647   3.344
13693SOL    HW152298   8.857   3.601   3.353
13693SOL    HW252299   8.716   3.635   3.429
13694SOL     OW52300   9.699   2.704   0.581
13694SOL    HW152301   9.628   2.756   0.534
13694SOL    HW252302   9.711   2.616   0.535
13695SOL     OW52303   2.947   7.877   4.927
13695SOL    HW152304   2.897   7.950   4.973
13695SOL    HW252305   3.044   7.882   4.952
13696SOL     OW52306   2.215   3.352   5.494
13696SOL    HW152307   2.212   3.411   5.413
13696SOL    HW252308   2.218   3.409   5.576
13697SOL     OW52309   2.179   2.204   4.810
13697SOL    HW152310   2.125   2.271   4.760
13697SOL    HW252311   2.229   2.146   4.746
13698SOL     OW52312   3.941   6.462   4.279
13698SOL    HW152313   4.012   6.532   4.285
13698SOL    HW252314   3.874   6.476   4.352
13699SOL     OW52315   8.590   0.792   3.438
13699SOL    HW152316   8.616   0.764   3.530
13699SOL    HW252317   8.648   0.868   3.408
13700SOL     OW52318   4.631   9.339   3.015
13700SOL    HW152319   4.729   9.359   3.025
13700SOL    HW252320   4.588   9.409   2.958
13701SOL     OW52321   4.964   4.312   0.335
13701SOL    HW152322   4.944   4.291   0.430
13701SOL    HW252323   4.879   4.333   0.287
13702SOL     OW52324   8.622   3.808   0.491
13702SOL    HW152325   8.544   3.794   0.553
13702SOL    HW252326   8.686   3.732   0.500
13703SOL     OW52327   9.745   4.175   0.530
13703SOL    HW152328   9.718   4.081   0.549
13703SOL    HW252329   9.825   4.176   0.470
13704SOL     OW52330   2.322   6.218   3.490
13704SOL    HW152331   2.359   6.304   3.454
13704SOL    HW252332   2.296   6.230   3.586
13705SOL     OW52333   8.935   1.368   2.824
13705SOL    HW152334   8.955   1.312   2.744
13705SOL    HW252335   8.844   1.345   2.858
13706SOL     OW52336   7.363   8.470   2.341
13706SOL    HW152337   7.346   8.538   2.412
13706SOL    HW252338   7.318   8.384   2.367
13707SOL     OW52339   5.298   9.856   4.527
13707SOL    HW152340   5.334   9.947   4.547
13707SOL    HW252341   5.374   9.794   4.508
13708SOL     OW52342   4.218   8.879   1.072
13708SOL    HW152343   4.295   8.859   1.011
13708SOL    HW252344   4.156   8.942   1.025
13709SOL     OW52345   9.443   3.068   4.175
13709SOL    HW152346   9.421   2.972   4.158
13709SOL    HW252347   9.542   3.078   4.185
13710SOL     OW52348   2.156   0.423   2.278
13710SOL    HW152349   2.120   0.370   2.201
13710SOL    HW252350   2.221   0.490   2.244
13711SOL     OW52351   7.882   4.807   3.933
13711SOL    HW152352   7.889   4.813   3.834
13711SOL    HW252353   7.802   4.754   3.958
13712SOL     OW52354   5.086   0.195   4.558
13712SOL    HW152355   5.128   0.238   4.478
13712SOL    HW252356   5.157   0.176   4.626
13713SOL     OW52357   0.818   8.465   5.321
13713SOL    HW152358   0.802   8.496   5.228
13713SOL    HW252359   0.798   8.367   5.327
13714SOL     OW52360   1.656   6.087   5.792
13714SOL    HW152361   1.682   6.130   5.706
13714SOL    HW252362   1.726   6.106   5.861
13715SOL     OW52363   3.962   3.627   1.841
13715SOL    HW152364   3.936   3.634   1.938
13715SOL    HW252365   3.936   3.711   1.794
13716SOL     OW52366   0.313   6.645   3.974
13716SOL    HW152367   0.256   6.571   3.940
13716SOL    HW252368   0.305   6.650   4.074
13717SOL     OW52369   7.387   7.681   3.169
13717SOL    HW152370   7.383   7.725   3.259
13717SOL    HW252371   7.327   7.731   3.105
13718SOL     OW52372   6.365   5.366   0.232
13718SOL    HW152373   6.451   5.327   0.265
13718SOL    HW252374   6.374   5.466   0.225
13719SOL     OW52375   4.299   5.285   1.454
13719SOL    HW152376   4.225   5.323   1.399
13719SOL    HW252377   4.335   5.355   1.515
13720SOL     OW52378   7.864   0.503   0.431
13720SOL    HW152379   7.781   0.448   0.426
13720SOL    HW252380   7.944   0.444   0.444
13721SOL     OW52381   5.895   5.732   0.572
13721SOL    HW152382   5.833   5.742   0.650
13721SOL    HW252383   5.863   5.657   0.514
13722SOL     OW52384   9.056   6.329   2.136
13722SOL    HW152385   9.052   6.231   2.116
13722SOL    HW252386   9.031   6.344   2.232
13723SOL     OW52387   9.668   4.310   5.093
13723SOL    HW152388   9.681   4.326   4.995
13723SOL    HW252389   9.731   4.368   5.145
13724SOL     OW52390   4.627   5.209   3.143
13724SOL    HW152391   4.633   5.126   3.198
13724SOL    HW252392   4.713   5.259   3.148
13725SOL     OW52393   3.974   4.296   3.335
13725SOL    HW152394   3.955   4.269   3.430
13725SOL    HW252395   4.021   4.221   3.288
13726SOL     OW52396   3.841   3.647   5.711
13726SOL    HW152397   3.814   3.721   5.772
13726SOL    HW252398   3.934   3.618   5.733
13727SOL     OW52399   0.305   4.790   4.454
13727SOL    HW152400   0.368   4.861   4.487
13727SOL    HW252401   0.257   4.824   4.373
13728SOL     OW52402   7.490   6.690   5.295
13728SOL    HW152403   7.549   6.636   5.356
13728SOL    HW252404   7.415   6.730   5.348
13729SOL     OW52405   1.581   5.275   4.105
13729SOL    HW152406   1.582   5.283   4.006
13729SOL    HW252407   1.607   5.183   4.132
13730SOL     OW52408   7.883   4.530   6.281
13730SOL    HW152409   7.883   4.546   6.182
13730SOL    HW252410   7.791   4.546   6.317
13731SOL     OW52411   3.874   9.250   1.754
13731SOL    HW152412   3.859   9.270   1.657
13731SOL    HW252413   3.901   9.334   1.802
13732SOL     OW52414   8.977   3.126   0.289
13732SOL    HW152415   8.936   3.214   0.266
13732SOL    HW252416   8.911   3.070   0.340
13733SOL     OW52417   5.587   5.114   1.478
13733SOL    HW152418   5.496   5.144   1.449
13733SOL    HW252419   5.579   5.067   1.566
13734SOL     OW52420   0.054   5.939   1.909
13734SOL    HW152421   9.988   5.872   1.943
13734SOL    HW252422   0.006   6.026   1.893
13735SOL     OW52423   7.413   9.410   4.608
13735SOL    HW152424   7.359   9.437   4.687
13735SOL    HW252425   7.355   9.364   4.541
13736SOL     OW52426   9.609   4.891   3.931
13736SOL    HW152427   9.620   4.943   3.846
13736SOL    HW252428   9.695   4.845   3.952
13737SOL     OW52429   9.273   7.150   1.069
13737SOL    HW152430   9.352   7.198   1.108
13737SOL    HW252431   9.205   7.135   1.140
13738SOL     OW52432   3.754   9.806   6.363
13738SOL    HW152433   3.746   9.799   6.264
13738SOL    HW252434   3.668   9.837   6.402
13739SOL     OW52435   8.487   2.608   6.338
13739SOL    HW152436   8.522   2.688   6.289
13739SOL    HW252437   8.480   2.629   6.436
13740SOL     OW52438   3.226   9.452   1.657
13740SOL    HW152439   3.137   9.473   1.697
13740SOL    HW252440   3.236   9.353   1.647
13741SOL     OW52441   7.435   9.584   3.881
13741SOL    HW152442   7.400   9.585   3.788
13741SOL    HW252443   7.503   9.511   3.890
13742SOL     OW52444   4.945   8.218   3.971
13742SOL    HW152445   4.964   8.298   3.915
13742SOL    HW252446   4.914   8.142   3.913
13743SOL     OW52447   1.484   4.205   3.335
13743SOL    HW152448   1.492   4.288   3.280
13743SOL    HW252449   1.418   4.220   3.409
13744SOL     OW52450   3.164   4.857   5.708
13744SOL    HW152451   3.264   4.858   5.704
13744SOL    HW252452   3.133   4.899   5.793
13745SOL     OW52453   1.812   7.322   1.652
13745SOL    HW152454   1.763   7.316   1.565
13745SOL    HW252455   1.907   7.293   1.640
13746SOL     OW52456   4.114   8.023   3.064
13746SOL    HW152457   4.107   7.923   3.059
13746SOL    HW252458   4.155   8.057   2.980
13747SOL     OW52459   5.775   7.883   5.867
13747SOL    HW152460   5.720   7.950   5.917
13747SOL    HW252461   5.863   7.924   5.842
13748SOL     OW52462   0.911   3.733   4.320
13748SOL    HW152463   0.950   3.681   4.243
13748SOL    HW252464   0.815   3.754   4.301
13749SOL     OW52465   1.457   7.696   4.342
13749SOL    HW152466   1.546   7.735   4.364
13749SOL    HW252467   1.416   7.748   4.267
13750SOL     OW52468   8.022   2.294   4.118
13750SOL    HW152469   8.039   2.195   4.122
13750SOL    HW252470   7.945   2.317   4.177
13751SOL     OW52471   6.580   9.694   3.148
13751SOL    HW152472   6.615   9.618   3.203
13751SOL    HW252473   6.657   9.743   3.107
13752SOL     OW52474   4.272   0.495   0.117
13752SOL    HW152475   4.346   0.469   0.055
13752SOL    HW252476   4.282   0.446   0.203
13753SOL     OW52477   2.859   1.305   5.532
13753SOL    HW152478   2.915   1.226   5.505
13753SOL    HW252479   2.878   1.329   5.627
13754SOL     OW52480   8.396   3.710   5.658
13754SOL    HW152481   8.436   3.685   5.745
13754SOL    HW252482   8.468   3.736   5.594
13755SOL     OW52483   1.199   2.436   4.087
13755SOL    HW152484   1.241   2.474   4.169
13755SOL    HW252485   1.197   2.336   4.094
13756SOL     OW52486   2.722   8.409   5.281
13756SOL    HW152487   2.791   8.337   5.273
13756SOL    HW252488   2.766   8.494   5.310
13757SOL     OW52489   4.047   0.856   1.488
13757SOL    HW152490   4.007   0.768   1.514
13757SOL    HW252491   4.127   0.874   1.545
13758SOL     OW52492   8.518   3.849   4.635
13758SOL    HW152493   8.608   3.807   4.640
13758SOL    HW252494   8.509   3.918   4.708
13759SOL     OW52495   9.004   1.106   4.371
13759SOL    HW152496   8.962   1.183   4.420
13759SOL    HW252497   8.940   1.030   4.367
13760SOL     OW52498   2.526   4.704   0.025
13760SOL    HW152499   2.491   4.621   0.068
13760SOL    HW252500   2.481   4.718   8.125
13761SOL     OW52501   3.458   8.838   4.418
13761SOL    HW152502   3.372   8.889   4.415
13761SOL    HW252503   3.476   8.808   4.512
13762SOL     OW52504   0.536   6.685   3.064
13762SOL    HW152505   0.535   6.665   2.966
13762SOL    HW252506   0.508   6.604   3.116
13763SOL     OW52507   0.860   4.857   5.623
13763SOL    HW152508   0.788   4.885   5.560
13763SOL    HW252509   0.842   4.895   5.713
13764SOL     OW52510   4.407   5.455   0.282
13764SOL    HW152511   4.409   5.554   0.270
13764SOL    HW252512   4.500   5.420   0.289
13765SOL     OW52513   2.395   7.673   2.753
13765SOL    HW152514   2.323   7.617   2.795
13765SOL    HW252515   2.442   7.726   2.825
13766SOL     OW52516   3.750   7.363   6.199
13766SOL    HW152517   3.843   7.399   6.190
13766SOL    HW252518   3.715   7.339   6.109
13767SOL     OW52519   1.451   1.582   3.356
13767SOL    HW152520   1.490   1.491   3.348
13767SOL    HW252521   1.466   1.632   3.270
13768SOL     OW52522   1.057   5.354   4.647
13768SOL    HW152523   1.101   5.404   4.722
13768SOL    HW252524   0.964   5.388   4.635
13769SOL     OW52525   4.447   9.875   4.819
13769SOL    HW152526   4.516   9.867   4.891
13769SOL    HW252527   4.453   9.966   4.778
13770SOL     OW52528   4.348   8.466   3.050
13770SOL    HW152529   4.359   8.368   3.068
13770SOL    HW252530   4.314   8.510   3.134
13771SOL     OW52531   0.603   8.530   4.845
13771SOL    HW152532   0.526   8.469   4.865
13771SOL    HW252533   0.569   8.614   4.802
13772SOL     OW52534   2.622   5.783   4.632
13772SOL    HW152535   2.643   5.767   4.536
13772SOL    HW252536   2.643   5.878   4.656
13773SOL     OW52537   7.121   2.544   1.477
13773SOL    HW152538   7.070   2.595   1.407
13773SOL    HW252539   7.155   2.459   1.438
13774SOL     OW52540   4.841   8.893   5.465
13774SOL    HW152541   4.778   8.898   5.542
13774SOL    HW252542   4.902   8.973   5.466
13775SOL     OW52543   8.299   5.629   2.124
13775SOL    HW152544   8.365   5.673   2.063
13775SOL    HW252545   8.344   5.552   2.171
13776SOL     OW52546   9.914   4.521   1.282
13776SOL    HW152547   9.834   4.464   1.301
13776SOL    HW252548   9.979   4.469   1.227
13777SOL     OW52549   8.190   0.484   3.325
13777SOL    HW152550   8.253   0.428   3.272
13777SOL    HW252551   8.239   0.565   3.359
13778SOL     OW52552   3.279   6.769   2.830
13778SOL    HW152553   3.185   6.738   2.810
13778SOL    HW252554   3.327   6.785   2.745
13779SOL     OW52555   9.880   1.241   6.296
13779SOL    HW152556   9.808   1.287   6.347
13779SOL    HW252557   9.901   1.153   6.339
13780SOL     OW52558   3.309   3.372   1.104
13780SOL    HW152559   3.259   3.318   1.036
13780SOL    HW252560   3.401   3.391   1.069
13781SOL     OW52561   6.851   8.101   4.564
13781SOL    HW152562   6.940   8.111   4.519
13781SOL    HW252563   6.854   8.143   4.655
13782SOL     OW52564   1.807   9.571   0.147
13782SOL    HW152565   1.873   9.502   0.118
13782SOL    HW252566   1.836   9.661   0.114
13783SOL     OW52567   2.775   2.217   5.733
13783SOL    HW152568   2.817   2.140   5.781
13783SOL    HW252569   2.746   2.187   5.642
13784SOL     OW52570   0.095   9.215   5.992
13784SOL    HW152571   0.099   9.146   5.920
13784SOL    HW252572   0.033   9.288   5.965
13785SOL     OW52573   2.382   7.971   2.177
13785SOL    HW152574   2.414   8.059   2.214
13785SOL    HW252575   2.390   7.973   2.077
13786SOL     OW52576   4.466   6.372   2.815
13786SOL    HW152577   4.480   6.281   2.776
13786SOL    HW252578   4.547   6.399   2.867
13787SOL     OW52579   2.544   0.598   4.246
13787SOL    HW152580   2.511   0.673   4.303
13787SOL    HW252581   2.516   0.613   4.151
13788SOL     OW52582   8.963   5.192   5.799
13788SOL    HW152583   9.023   5.225   5.726
13788SOL    HW252584   9.012   5.195   5.886
13789SOL     OW52585   0.369   1.601   4.525
13789SOL    HW152586   0.433   1.661   4.476
13789SOL    HW252587   0.300   1.567   4.461
13790SOL     OW52588   8.177   5.315   3.205
13790SOL    HW152589   8.146   5.328   3.111
13790SOL    HW252590   8.173   5.402   3.254
13791SOL     OW52591   7.088   1.209   1.773
13791SOL    HW152592   7.183   1.230   1.798
13791SOL    HW252593   7.031   1.210   1.855
13792SOL     OW52594   7.683   5.942   5.045
13792SOL    HW152595   7.760   5.996   5.079
13792SOL    HW252596   7.659   5.871   5.111
13793SOL     OW52597   1.895   9.616   3.796
13793SOL    HW152598   1.939   9.530   3.821
13793SOL    HW252599   1.815   9.598   3.738
13794SOL     OW52600   4.599   2.429   5.129
13794SOL    HW152601   4.640   2.342   5.104
13794SOL    HW252602   4.603   2.492   5.051
13795SOL     OW52603   3.840   7.959   0.203
13795SOL    HW152604   3.797   7.919   0.285
13795SOL    HW252605   3.841   8.058   0.212
13796SOL     OW52606   4.299   7.908   2.098
13796SOL    HW152607   4.237   7.847   2.147
13796SOL    HW252608   4.385   7.861   2.080
13797SOL     OW52609   4.228   4.523   3.734
13797SOL    HW152610   4.161   4.597   3.735
13797SOL    HW252611   4.312   4.553   3.781
13798SOL     OW52612   4.627   2.693   0.986
13798SOL    HW152613   4.532   2.712   1.012
13798SOL    HW252614   4.680   2.672   1.067
13799SOL     OW52615   9.540   6.478   6.216
13799SOL    HW152616   9.562   6.541   6.290
13799SOL    HW252617   9.562   6.384   6.244
13800SOL     OW52618   3.850   8.766   2.682
13800SOL    HW152619   3.876   8.707   2.606
13800SOL    HW252620   3.919   8.760   2.754
13801SOL     OW52621   7.852   1.611   6.170
13801SOL    HW152622   7.811   1.560   6.245
13801SOL    HW252623   7.937   1.654   6.202
13802SOL     OW52624   0.148   5.375   3.689
13802SOL    HW152625   0.089   5.341   3.763
13802SOL    HW252626   0.125   5.471   3.671
13803SOL     OW52627   5.309   9.322   5.563
13803SOL    HW152628   5.314   9.251   5.492
13803SOL    HW252629   5.218   9.321   5.604
13804SOL     OW52630   3.092   5.310   4.752
13804SOL    HW152631   3.025   5.290   4.681
13804SOL    HW252632   3.074   5.253   4.832
13805SOL     OW52633   6.940   7.893   3.330
13805SOL    HW152634   7.027   7.943   3.327
13805SOL    HW252635   6.864   7.958   3.333
13806SOL     OW52636   8.804   8.747   2.451
13806SOL    HW152637   8.794   8.694   2.535
13806SOL    HW252638   8.820   8.685   2.374
13807SOL     OW52639   7.900   3.555   3.741
13807SOL    HW152640   7.893   3.590   3.648
13807SOL    HW252641   7.857   3.464   3.745
13808SOL     OW52642   0.861   0.775   0.572
13808SOL    HW152643   0.922   0.699   0.594
13808SOL    HW252644   0.880   0.852   0.633
13809SOL     OW52645   7.410   0.015   0.236
13809SOL    HW152646   7.333   0.075   0.214
13809SOL    HW252647   7.381   9.919   0.230
13810SOL     OW52648   2.159   0.921   4.963
13810SOL    HW152649   2.201   0.846   4.913
13810SOL    HW252650   2.216   1.002   4.957
13811SOL     OW52651   3.403   9.517   0.257
13811SOL    HW152652   3.412   9.431   0.308
13811SOL    HW252653   3.307   9.542   0.250
13812SOL     OW52654   2.023   0.404   4.455
13812SOL    HW152655   2.113   0.447   4.456
13812SOL    HW252656   1.958   0.464   4.408
13813SOL     OW52657   7.964   6.510   6.351
13813SOL    HW152658   8.036   6.547   6.292
13813SOL    HW252659   7.993   6.517   6.446
13814SOL     OW52660   0.078   5.578   4.582
13814SOL    HW152661   0.059   5.601   4.677
13814SOL    HW252662   0.006   5.518   4.547
13815SOL     OW52663   6.678   9.834   4.602
13815SOL    HW152664   6.760   9.872   4.646
13815SOL    HW252665   6.678   9.734   4.613
13816SOL     OW52666   3.825   5.385   6.050
13816SOL    HW152667   3.797   5.294   6.020
13816SOL    HW252668   3.917   5.404   6.017
13817SOL     OW52669   4.019   4.016   5.547
13817SOL    HW152670   4.080   4.083   5.504
13817SOL    HW252671   3.999   3.943   5.481
13818SOL     OW52672   1.280   4.382   1.621
13818SOL    HW152673   1.355   4.384   1.687
13818SOL    HW252674   1.210   4.448   1.648
13819SOL     OW52675   1.161   8.210   3.092
13819SOL    HW152676   1.176   8.153   3.174
13819SOL    HW252677   1.181   8.305   3.114
13820SOL     OW52678   4.397   4.924   6.172
13820SOL    HW152679   4.452   4.892   6.094
13820SOL    HW252680   4.301   4.900   6.156
13821SOL     OW52681   4.005   3.273   2.233
13821SOL    HW152682   3.938   3.345   2.248
13821SOL    HW252683   4.037   3.238   2.320
13822SOL     OW52684   4.933   1.954   0.175
13822SOL    HW152685   4.907   1.926   0.268
13822SOL    HW252686   5.008   2.019   0.179
13823SOL     OW52687   6.862   0.866   1.915
13823SOL    HW152688   6.880   0.913   2.001
13823SOL    HW252689   6.782   0.806   1.926
13824SOL     OW52690   2.332   1.719   3.651
13824SOL    HW152691   2.317   1.651   3.723
13824SOL    HW252692   2.402   1.686   3.588
13825SOL     OW52693   5.650   8.280   6.142
13825SOL    HW152694   5.554   8.293   6.119
13825SOL    HW252695   5.665   8.301   6.238
13826SOL     OW52696   4.351   3.718   2.212
13826SOL    HW152697   4.367   3.620   2.202
13826SOL    HW252698   4.433   3.762   2.249
13827SOL     OW52699   8.715   3.078   2.601
13827SOL    HW152700   8.627   3.038   2.574
13827SOL    HW252701   8.784   3.006   2.608
13828SOL     OW52702   1.954   8.702   0.101
13828SOL    HW152703   1.856   8.718   0.094
13828SOL    HW252704   1.971   8.609   0.135
13829SOL     OW52705   1.071   3.252   4.412
13829SOL    HW152706   1.016   3.283   4.334
13829SOL    HW252707   1.077   3.152   4.411
13830SOL     OW52708   7.584   3.260   5.703
13830SOL    HW152709   7.487   3.260   5.725
13830SOL    HW252710   7.615   3.166   5.689
13831SOL     OW52711   3.706   3.262   0.046
13831SOL    HW152712   3.727   3.358   0.063
13831SOL    HW252713   3.652   3.254   8.151
13832SOL     OW52714   0.193   8.422   2.414
13832SOL    HW152715   0.114   8.361   2.421
13832SOL    HW252716   0.186   8.476   2.330
13833SOL     OW52717   4.787   4.328   1.273
13833SOL    HW152718   4.856   4.397   1.250
13833SOL    HW252719   4.756   4.282   1.190
13834SOL     OW52720   8.860   0.031   5.769
13834SOL    HW152721   8.837   9.934   5.777
13834SOL    HW252722   8.959   0.043   5.772
13835SOL     OW52723   8.965   7.374   3.667
13835SOL    HW152724   8.951   7.329   3.755
13835SOL    HW252725   9.000   7.467   3.682
13836SOL     OW52726   7.588   2.237   3.545
13836SOL    HW152727   7.595   2.161   3.610
13836SOL    HW252728   7.641   2.215   3.463
13837SOL     OW52729   9.494   2.751   2.268
13837SOL    HW152730   9.502   2.822   2.339
13837SOL    HW252731   9.552   2.776   2.190
13838SOL     OW52732   3.569   0.362   4.755
13838SOL    HW152733   3.528   0.322   4.673
13838SOL    HW252734   3.609   0.450   4.732
13839SOL     OW52735   6.929   0.596   1.484
13839SOL    HW152736   6.853   0.617   1.546
13839SOL    HW252737   6.928   0.498   1.462
13840SOL     OW52738   6.140   7.652   5.560
13840SOL    HW152739   6.139   7.701   5.648
13840SOL    HW252740   6.046   7.632   5.533
13841SOL     OW52741   6.154   0.260   5.289
13841SOL    HW152742   6.182   0.191   5.222
13841SOL    HW252743   6.233   0.314   5.317
13842SOL     OW52744   3.480   8.754   4.677
13842SOL    HW152745   3.388   8.743   4.713
13842SOL    HW252746   3.522   8.664   4.665
13843SOL     OW52747   1.688   0.584   0.210
13843SOL    HW152748   1.746   0.658   0.175
13843SOL    HW252749   1.743   0.501   0.219
13844SOL     OW52750   2.210   2.132   3.931
13844SOL    HW152751   2.137   2.197   3.951
13844SOL    HW252752   2.270   2.170   3.860
13845SOL     OW52753   3.467   4.810   5.077
13845SOL    HW152754   3.373   4.799   5.045
13845SOL    HW252755   3.485   4.906   5.098
13846SOL     OW52756   0.827   7.710   1.596
13846SOL    HW152757   0.735   7.710   1.556
13846SOL    HW252758   0.864   7.618   1.595
13847SOL     OW52759   2.081   7.910   1.423
13847SOL    HW152760   2.064   7.925   1.520
13847SOL    HW252761   2.028   7.976   1.369
13848SOL     OW52762   3.728   6.146   1.812
13848SOL    HW152763   3.795   6.078   1.782
13848SOL    HW252764   3.682   6.113   1.894
13849SOL     OW52765   3.233   0.375   0.147
13849SOL    HW152766   3.323   0.415   0.129
13849SOL    HW252767   3.242   0.304   0.216
13850SOL     OW52768   4.320   6.814   3.745
13850SOL    HW152769   4.329   6.727   3.794
13850SOL    HW252770   4.242   6.810   3.684
13851SOL     OW52771   0.083   4.487   2.852
13851SOL    HW152772   0.089   4.534   2.940
13851SOL    HW252773   9.988   4.466   2.831
13852SOL     OW52774   2.393   4.362   3.930
13852SOL    HW152775   2.425   4.423   3.857
13852SOL    HW252776   2.325   4.299   3.893
13853SOL     OW52777   0.840   1.322   1.123
13853SOL    HW152778   0.848   1.290   1.029
13853SOL    HW252779   0.744   1.331   1.147
13854SOL     OW52780   1.910   3.366   2.325
13854SOL    HW152781   1.947   3.274   2.339
13854SOL    HW252782   1.938   3.426   2.400
13855SOL     OW52783   1.190   7.064   3.331
13855SOL    HW152784   1.227   7.066   3.238
13855SOL    HW252785   1.102   7.017   3.331
13856SOL     OW52786   2.512   7.816   3.367
13856SOL    HW152787   2.600   7.862   3.375
13856SOL    HW252788   2.462   7.825   3.453
13857SOL     OW52789   1.830   8.871   0.442
13857SOL    HW152790   1.833   8.965   0.476
13857SOL    HW252791   1.737   8.836   0.448
13858SOL     OW52792   0.477   2.878   0.221
13858SOL    HW152793   0.415   2.953   0.195
13858SOL    HW252794   0.571   2.912   0.221
13859SOL     OW52795   3.945   6.780   1.762
13859SOL    HW152796   3.845   6.776   1.760
13859SOL    HW252797   3.975   6.851   1.826
13860SOL     OW52798   3.057   2.399   3.883
13860SOL    HW152799   3.048   2.468   3.955
13860SOL    HW252800   2.985   2.412   3.815
13861SOL     OW52801   0.415   5.474   5.955
13861SOL    HW152802   0.484   5.488   6.026
13861SOL    HW252803   0.444   5.402   5.893
13862SOL     OW52804   1.996   7.272   2.321
13862SOL    HW152805   1.925   7.205   2.299
13862SOL    HW252806   2.040   7.247   2.407
13863SOL     OW52807   2.153   4.089   4.193
13863SOL    HW152808   2.205   4.174   4.192
13863SOL    HW252809   2.070   4.101   4.247
13864SOL     OW52810   1.194   1.163   4.065
13864SOL    HW152811   1.169   1.148   4.161
13864SOL    HW252812   1.131   1.229   4.024
13865SOL     OW52813   3.227   2.332   3.675
13865SOL    HW152814   3.179   2.364   3.757
13865SOL    HW252815   3.167   2.271   3.623
13866SOL     OW52816   7.391   2.720   4.589
13866SOL    HW152817   7.395   2.716   4.489
13866SOL    HW252818   7.446   2.647   4.627
13867SOL     OW52819   1.334   3.804   3.324
13867SOL    HW152820   1.388   3.861   3.386
13867SOL    HW252821   1.391   3.777   3.247
13868SOL     OW52822   5.345   8.028   5.225
13868SOL    HW152823   5.307   7.935   5.227
13868SOL    HW252824   5.361   8.060   5.318
13869SOL     OW52825   4.088   3.375   4.635
13869SOL    HW152826   4.051   3.286   4.661
13869SOL    HW252827   4.020   3.426   4.584
13870SOL     OW52828   2.856   6.559   3.501
13870SOL    HW152829   2.887   6.647   3.536
13870SOL    HW252830   2.900   6.485   3.553
13871SOL     OW52831   8.066   1.561   5.233
13871SOL    HW152832   8.034   1.655   5.222
13871SOL    HW252833   8.010   1.515   5.302
13872SOL     OW52834   8.448   2.945   0.941
13872SOL    HW152835   8.386   2.943   0.863
13872SOL    HW252836   8.519   2.875   0.929
13873SOL     OW52837   0.193   0.063   3.054
13873SOL    HW152838   0.224   9.978   3.096
13873SOL    HW252839   0.153   0.123   3.124
13874SOL     OW52840   5.292   0.194   5.552
13874SOL    HW152841   5.294   0.284   5.594
13874SOL    HW252842   5.381   0.175   5.509
13875SOL     OW52843   5.205   0.931   4.271
13875SOL    HW152844   5.192   1.024   4.237
13875SOL    HW252845   5.276   0.932   4.342
13876SOL     OW52846   4.242   5.274   0.143
13876SOL    HW152847   4.153   5.265   0.186
13876SOL    HW252848   4.291   5.351   0.184
13877SOL     OW52849   4.989   9.559   4.532
13877SOL    HW152850   5.060   9.609   4.582
13877SOL    HW252851   4.903   9.610   4.536
13878SOL     OW52852   8.276   3.666   3.970
13878SOL    HW152853   8.193   3.659   4.026
13878SOL    HW252854   8.317   3.756   3.982
13879SOL     OW52855   7.858   7.693   1.932
13879SOL    HW152856   7.818   7.678   2.023
13879SOL    HW252857   7.822   7.778   1.893
13880SOL     OW52858   9.611   3.624   0.727
13880SOL    HW152859   9.681   3.695   0.713
13880SOL    HW252860   9.523   3.667   0.747
13881SOL     OW52861   8.330   1.907   3.032
13881SOL    HW152862   8.414   1.930   2.983
13881SOL    HW252863   8.328   1.809   3.050
13882SOL     OW52864   6.447   1.158   4.241
13882SOL    HW152865   6.487   1.105   4.167
13882SOL    HW252866   6.439   1.253   4.214
13883SOL     OW52867   1.340   2.420   0.047
13883SOL    HW152868   1.398   2.467   0.114
13883SOL    HW252869   1.360   2.455   8.144
13884SOL     OW52870   2.179   3.396   4.235
13884SOL    HW152871   2.145   3.483   4.199
13884SOL    HW252872   2.102   3.339   4.264
13885SOL     OW52873   1.922   3.748   2.839
13885SOL    HW152874   1.843   3.795   2.799
13885SOL    HW252875   1.911   3.649   2.828
13886SOL     OW52876   3.682   0.069   3.407
13886SOL    HW152877   3.583   0.058   3.401
13886SOL    HW252878   3.711   0.142   3.346
13887SOL     OW52879   2.489   9.831   5.626
13887SOL    HW152880   2.446   9.781   5.551
13887SOL    HW252881   2.481   9.779   5.711
13888SOL     OW52882   2.690   6.692   6.256
13888SOL    HW152883   2.611   6.735   6.300
13888SOL    HW252884   2.694   6.596   6.281
13889SOL     OW52885   8.196   7.937   4.166
13889SOL    HW152886   8.270   8.004   4.182
13889SOL    HW252887   8.148   7.961   4.082
13890SOL     OW52888   2.282   2.117   0.520
13890SOL    HW152889   2.271   2.020   0.544
13890SOL    HW252890   2.362   2.127   0.462
13891SOL     OW52891   9.933   9.606   1.471
13891SOL    HW152892   9.972   9.693   1.440
13891SOL    HW252893   9.857   9.580   1.413
13892SOL     OW52894   1.919   8.566   6.148
13892SOL    HW152895   1.864   8.505   6.091
13892SOL    HW252896   1.858   8.622   6.204
13893SOL     OW52897   3.014   1.773   6.273
13893SOL    HW152898   2.919   1.743   6.283
13893SOL    HW252899   3.075   1.704   6.311
13894SOL     OW52900   5.613   8.899   3.733
13894SOL    HW152901   5.559   8.981   3.751
13894SOL    HW252902   5.567   8.843   3.663
13895SOL     OW52903   7.813   5.795   2.796
13895SOL    HW152904   7.901   5.805   2.750
13895SOL    HW252905   7.828   5.768   2.891
13896SOL     OW52906   7.206   0.923   3.017
13896SOL    HW152907   7.111   0.940   2.992
13896SOL    HW252908   7.264   0.996   2.981
13897SOL     OW52909   4.185   7.924   2.442
13897SOL    HW152910   4.107   7.986   2.455
13897SOL    HW252911   4.167   7.863   2.365
13898SOL     OW52912   2.943   8.014   3.864
13898SOL    HW152913   2.920   8.040   3.770
13898SOL    HW252914   2.990   8.090   3.909
13899SOL     OW52915   1.741   3.364   3.424
13899SOL    HW152916   1.742   3.409   3.513
13899SOL    HW252917   1.653   3.380   3.379
13900SOL     OW52918   1.277   9.973   4.189
13900SOL    HW152919   1.375   9.961   4.173
13900SOL    HW252920   1.257   9.953   4.285
13901SOL     OW52921   3.275   0.864   4.862
13901SOL    HW152922   3.209   0.834   4.930
13901SOL    HW252923   3.251   0.825   4.773
13902SOL     OW52924   2.915   2.458   5.780
13902SOL    HW152925   2.994   2.443   5.840
13902SOL    HW252926   2.876   2.370   5.754
13903SOL     OW52927   3.182   1.981   1.656
13903SOL    HW152928   3.265   1.924   1.653
13903SOL    HW252929   3.141   1.983   1.565
13904SOL     OW52930   2.673   2.278   1.953
13904SOL    HW152931   2.690   2.265   1.856
13904SOL    HW252932   2.620   2.362   1.967
13905SOL     OW52933   3.878   8.018   1.083
13905SOL    HW152934   3.965   8.005   1.035
13905SOL    HW252935   3.805   7.972   1.032
13906SOL     OW52936   3.703   0.312   0.885
13906SOL    HW152937   3.718   0.348   0.793
13906SOL    HW252938   3.637   0.371   0.932
13907SOL     OW52939   0.488   6.188   4.097
13907SOL    HW152940   0.414   6.250   4.123
13907SOL    HW252941   0.477   6.160   4.002
13908SOL     OW52942   6.920   4.817   1.111
13908SOL    HW152943   6.915   4.790   1.015
13908SOL    HW252944   6.981   4.896   1.120
13909SOL     OW52945   8.065   9.835   2.728
13909SOL    HW152946   8.151   9.859   2.773
13909SOL    HW252947   8.060   9.736   2.717
13910SOL     OW52948   1.487   1.718   2.125
13910SOL    HW152949   1.559   1.668   2.173
13910SOL    HW252950   1.428   1.653   2.077
13911SOL     OW52951   8.222   9.737   0.888
13911SOL    HW152952   8.181   9.747   0.978
13911SOL    HW252953   8.317   9.768   0.890
13912SOL     OW52954   2.342   6.087   6.349
13912SOL    HW152955   2.403   6.163   6.370
13912SOL    HW252956   2.372   6.005   6.398
13913SOL     OW52957   7.578   6.994   3.013
13913SOL    HW152958   7.583   6.922   3.082
13913SOL    HW252959   7.562   7.082   3.058
13914SOL     OW52960   0.313   1.234   0.381
13914SOL    HW152961   0.380   1.210   0.451
13914SOL    HW252962   0.358   1.236   0.292
13915SOL     OW52963   6.501   8.409   4.502
13915SOL    HW152964   6.589   8.434   4.462
13915SOL    HW252965   6.507   8.417   4.601
13916SOL     OW52966   3.055   6.091   1.934
13916SOL    HW152967   3.129   6.030   1.964
13916SOL    HW252968   3.093   6.169   1.886
13917SOL     OW52969   7.406   4.244   5.480
13917SOL    HW152970   7.388   4.300   5.561
13917SOL    HW252971   7.401   4.301   5.398
13918SOL     OW52972   8.181   5.070   2.122
13918SOL    HW152973   8.196   5.068   2.023
13918SOL    HW252974   8.110   5.004   2.146
13919SOL     OW52975   8.707   7.300   0.085
13919SOL    HW152976   8.609   7.299   0.108
13919SOL    HW252977   8.757   7.351   0.155
13920SOL     OW52978   4.032   9.660   1.630
13920SOL    HW152979   4.093   9.706   1.694
13920SOL    HW252980   3.947   9.712   1.622
13921SOL     OW52981   9.938   9.341   5.548
13921SOL    HW152982   9.872   9.330   5.623
13921SOL    HW252983   9.987   9.428   5.560
13922SOL     OW52984   0.182   6.326   2.977
13922SOL    HW152985   0.115   6.264   2.937
13922SOL    HW252986   0.224   6.282   3.057
13923SOL     OW52987   8.453   1.753   3.364
13923SOL    HW152988   8.468   1.848   3.336
13923SOL    HW252989   8.534   1.698   3.344
13924SOL     OW52990   7.554   4.187   1.613
13924SOL    HW152991   7.589   4.095   1.598
13924SOL    HW252992   7.608   4.233   1.683
13925SOL     OW52993   9.922   1.617   2.226
13925SOL    HW152994   9.905   1.522   2.253
13925SOL    HW252995   0.020   1.635   2.231
13926SOL     OW52996   0.635   3.774   0.775
13926SOL    HW152997   0.612   3.677   0.785
13926SOL    HW252998   0.721   3.793   0.822
13927SOL     OW52999   4.606   2.493   3.568
13927SOL    HW153000   4.518   2.483   3.615
13927SOL    HW253001   4.594   2.547   3.485
13928SOL     OW53002   1.328   5.870   1.434
13928SOL    HW153003   1.242   5.824   1.456
13928SOL    HW253004   1.365   5.913   1.517
13929SOL     OW53005   1.440   9.190   3.148
13929SOL    HW153006   1.340   9.181   3.152
13929SOL    HW253007   1.476   9.212   3.239
13930SOL     OW53008   0.399   0.382   2.104
13930SOL    HW153009   0.370   0.335   2.187
13930SOL    HW253010   0.482   0.435   2.122
13931SOL     OW53011   5.859   1.455   4.611
13931SOL    HW153012   5.819   1.509   4.537
13931SOL    HW253013   5.829   1.493   4.699
13932SOL     OW53014   2.477   6.512   0.670
13932SOL    HW153015   2.459   6.416   0.648
13932SOL    HW253016   2.391   6.561   0.676
13933SOL     OW53017   1.931   1.345   3.546
13933SOL    HW153018   1.975   1.279   3.607
13933SOL    HW253019   1.845   1.306   3.512
13934SOL     OW53020   8.811   2.335   4.934
13934SOL    HW153021   8.816   2.262   5.003
13934SOL    HW253022   8.889   2.328   4.872
13935SOL     OW53023   0.976   4.453   4.045
13935SOL    HW153024   0.881   4.484   4.049
13935SOL    HW253025   0.984   4.366   4.094
13936SOL     OW53026   0.235   9.433   1.787
13936SOL    HW153027   0.281   9.396   1.868
13936SOL    HW253028   0.274   9.523   1.766
13937SOL     OW53029   1.361   5.682   5.398
13937SOL    HW153030   1.354   5.763   5.456
13937SOL    HW253031   1.339   5.707   5.303
13938SOL     OW53032   7.922   3.496   4.534
13938SOL    HW153033   8.014   3.512   4.499
13938SOL    HW253034   7.904   3.397   4.537
13939SOL     OW53035   6.773   4.141   1.513
13939SOL    HW153036   6.745   4.232   1.544
13939SOL    HW253037   6.856   4.149   1.458
13940SOL     OW53038   0.525   7.704   5.805
13940SOL    HW153039   0.449   7.769   5.803
13940SOL    HW253040   0.557   7.688   5.712
13941SOL     OW53041   2.412   6.088   4.601
13941SOL    HW153042   2.342   6.028   4.638
13941SOL    HW253043   2.469   6.123   4.676
13942SOL     OW53044   1.126   0.487   2.066
13942SOL    HW153045   1.028   0.471   2.059
13942SOL    HW253046   1.143   0.573   2.114
13943SOL     OW53047   0.469   0.610   0.446
13943SOL    HW153048   0.540   0.680   0.445
13943SOL    HW253049   0.379   0.654   0.448
13944SOL     OW53050   4.127   4.860   6.162
13944SOL    HW153051   4.121   4.806   6.246
13944SOL    HW253052   4.048   4.920   6.156
13945SOL     OW53053   4.755   7.909   1.461
13945SOL    HW153054   4.665   7.940   1.490
13945SOL    HW253055   4.757   7.809   1.462
13946SOL     OW53056   9.797   6.699   3.992
13946SOL    HW153057   9.700   6.705   3.969
13946SOL    HW253058   9.817   6.607   4.026
13947SOL     OW53059   5.772   0.852   5.406
13947SOL    HW153060   5.785   0.859   5.307
13947SOL    HW253061   5.833   0.917   5.452
13948SOL     OW53062   2.781   6.104   5.515
13948SOL    HW153063   2.818   6.135   5.428
13948SOL    HW253064   2.839   6.137   5.589
13949SOL     OW53065   4.726   8.518   4.293
13949SOL    HW153066   4.762   8.573   4.368
13949SOL    HW253067   4.789   8.443   4.273
13950SOL     OW53068   3.180   3.232   4.449
13950SOL    HW153069   3.125   3.197   4.373
13950SOL    HW253070   3.267   3.184   4.453
13951SOL     OW53071   9.852   7.679   4.412
13951SOL    HW153072   9.812   7.710   4.498
13951SOL    HW253073   9.891   7.758   4.364
13952SOL     OW53074   8.220   8.664   2.369
13952SOL    HW153075   8.295   8.612   2.409
13952SOL    HW253076   8.187   8.731   2.435
13953SOL     OW53077   4.531   1.882   5.006
13953SOL    HW153078   4.505   1.907   4.913
13953SOL    HW253079   4.619   1.836   5.004
13954SOL     OW53080   8.403   9.006   4.903
13954SOL    HW153081   8.358   8.917   4.906
13954SOL    HW253082   8.371   9.057   4.824
13955SOL     OW53083   5.817   5.365   2.259
13955SOL    HW153084   5.730   5.326   2.287
13955SOL    HW253085   5.839   5.335   2.166
13956SOL     OW53086   9.074   8.595   1.043
13956SOL    HW153087   8.994   8.632   0.997
13956SOL    HW253088   9.063   8.602   1.142
13957SOL     OW53089   8.397   0.866   4.020
13957SOL    HW153090   8.387   0.965   4.022
13957SOL    HW253091   8.396   0.834   3.925
13958SOL     OW53092   8.448   3.978   1.543
13958SOL    HW153093   8.399   4.020   1.467
13958SOL    HW253094   8.531   4.031   1.562
13959SOL     OW53095   2.932   2.132   3.260
13959SOL    HW153096   3.000   2.178   3.203
13959SOL    HW253097   2.843   2.174   3.246
13960SOL     OW53098   2.918   7.815   6.156
13960SOL    HW153099   2.901   7.910   6.128
13960SOL    HW253100   2.891   7.754   6.081
13961SOL     OW53101   9.932   0.222   0.739
13961SOL    HW153102   9.950   0.125   0.753
13961SOL    HW253103   9.945   0.246   0.643
13962SOL     OW53104   3.604   4.704   5.298
13962SOL    HW153105   3.622   4.795   5.336
13962SOL    HW253106   3.542   4.712   5.220
13963SOL     OW53107   2.592   3.958   0.380
13963SOL    HW153108   2.686   3.970   0.347
13963SOL    HW253109   2.535   3.921   0.306
13964SOL     OW53110   1.852   0.585   4.336
13964SOL    HW153111   1.874   0.650   4.408
13964SOL    HW253112   1.880   0.623   4.247
13965SOL     OW53113   0.596   2.439   3.395
13965SOL    HW153114   0.541   2.514   3.431
13965SOL    HW253115   0.596   2.444   3.295
13966SOL     OW53116   7.622   5.619   0.895
13966SOL    HW153117   7.552   5.548   0.904
13966SOL    HW253118   7.629   5.648   0.800
13967SOL     OW53119   4.152   1.233   4.787
13967SOL    HW153120   4.222   1.269   4.850
13967SOL    HW253121   4.062   1.269   4.814
13968SOL     OW53122   9.356   3.986   0.626
13968SOL    HW153123   9.380   4.075   0.665
13968SOL    HW253124   9.425   3.959   0.559
13969SOL     OW53125   7.241   3.139   1.379
13969SOL    HW153126   7.184   3.210   1.339
13969SOL    HW253127   7.216   3.050   1.341
13970SOL     OW53128   6.567   2.429   1.647
13970SOL    HW153129   6.593   2.399   1.739
13970SOL    HW253130   6.568   2.529   1.643
13971SOL     OW53131   9.383   9.399   2.644
13971SOL    HW153132   9.422   9.318   2.687
13971SOL    HW253133   9.285   9.383   2.627
13972SOL     OW53134   7.906   1.492   3.537
13972SOL    HW153135   7.978   1.446   3.485
13972SOL    HW253136   7.826   1.507   3.479
13973SOL     OW53137   7.398   9.011   4.477
13973SOL    HW153138   7.476   9.009   4.540
13973SOL    HW253139   7.368   9.105   4.464
13974SOL     OW53140   0.578   6.061   5.044
13974SOL    HW153141   0.587   5.962   5.032
13974SOL    HW253142   0.611   6.107   4.961
13975SOL     OW53143   2.796   3.113   0.124
13975SOL    HW153144   2.784   3.119   0.224
13975SOL    HW253145   2.848   3.031   0.102
13976SOL     OW53146   4.343   0.007   3.283
13976SOL    HW153147   4.393   0.075   3.337
13976SOL    HW253148   4.387   9.996   3.194
13977SOL     OW53149   1.417   7.875   3.840
13977SOL    HW153150   1.487   7.805   3.848
13977SOL    HW253151   1.429   7.925   3.754
13978SOL     OW53152   1.334   3.220   4.074
13978SOL    HW153153   1.388   3.291   4.029
13978SOL    HW253154   1.381   3.190   4.157
13979SOL     OW53155   7.093   2.556   4.850
13979SOL    HW153156   7.120   2.636   4.796
13979SOL    HW253157   7.173   2.520   4.897
13980SOL     OW53158   5.475   0.894   6.198
13980SOL    HW153159   5.487   0.881   6.100
13980SOL    HW253160   5.395   0.952   6.215
13981SOL     OW53161   0.386   2.821   1.952
13981SOL    HW153162   0.338   2.904   1.981
13981SOL    HW253163   0.323   2.743   1.954
13982SOL     OW53164   0.419   8.665   0.723
13982SOL    HW153165   0.488   8.710   0.667
13982SOL    HW253166   0.335   8.653   0.669
13983SOL     OW53167   0.190   6.612   5.988
13983SOL    HW153168   0.165   6.518   6.008
13983SOL    HW253169   0.201   6.663   6.074
13984SOL     OW53170   9.187   1.194   0.548
13984SOL    HW153171   9.089   1.194   0.526
13984SOL    HW253172   9.210   1.280   0.594
13985SOL     OW53173   8.121   1.200   2.880
13985SOL    HW153174   8.085   1.200   2.787
13985SOL    HW253175   8.158   1.110   2.902
13986SOL     OW53176   2.457   9.039   0.423
13986SOL    HW153177   2.402   9.050   0.340
13986SOL    HW253178   2.420   8.963   0.477
13987SOL     OW53179   9.011   0.954   0.341
13987SOL    HW153180   9.075   1.022   0.306
13987SOL    HW253181   8.952   0.922   0.266
13988SOL     OW53182   2.214   8.902   2.966
13988SOL    HW153183   2.231   8.997   2.992
13988SOL    HW253184   2.292   8.845   2.992
13989SOL     OW53185   9.191   9.532   1.634
13989SOL    HW153186   9.188   9.569   1.727
13989SOL    HW253187   9.272   9.473   1.624
13990SOL     OW53188   9.413   0.288   1.637
13990SOL    HW153189   9.476   0.304   1.714
13990SOL    HW253190   9.325   0.332   1.657
13991SOL     OW53191   9.474   3.491   5.148
13991SOL    HW153192   9.464   3.427   5.072
13991SOL    HW253193   9.541   3.453   5.213
13992SOL     OW53194   9.438   1.333   1.719
13992SOL    HW153195   9.526   1.292   1.695
13992SOL    HW253196   9.428   1.335   1.819
13993SOL     OW53197   8.426   6.184   0.676
13993SOL    HW153198   8.491   6.260   0.668
13993SOL    HW253199   8.409   6.166   0.773
13994SOL     OW53200   0.660   0.307   4.680
13994SOL    HW153201   0.607   0.234   4.724
13994SOL    HW253202   0.745   0.268   4.643
13995SOL     OW53203   0.440   7.543   3.553
13995SOL    HW153204   0.522   7.584   3.512
13995SOL    HW253205   0.407   7.602   3.626
13996SOL     OW53206   2.817   3.776   5.173
13996SOL    HW153207   2.762   3.855   5.201
13996SOL    HW253208   2.810   3.763   5.074
13997SOL     OW53209   1.897   5.648   4.563
13997SOL    HW153210   1.867   5.564   4.610
13997SOL    HW253211   1.997   5.647   4.556
13998SOL     OW53212   1.759   7.280   1.921
13998SOL    HW153213   1.789   7.294   1.827
13998SOL    HW253214   1.786   7.188   1.951
13999SOL     OW53215   6.624   9.073   3.875
13999SOL    HW153216   6.569   9.121   3.944
13999SOL    HW253217   6.679   9.139   3.824
14000SOL     OW53218   7.371   9.873   0.903
14000SOL    HW153219   7.332   9.891   0.993
14000SOL    HW253220   7.299   9.843   0.841
14001SOL     OW53221   6.389   1.625   3.642
14001SOL    HW153222   6.413   1.572   3.561
14001SOL    HW253223   6.466   1.685   3.666
14002SOL     OW53224   1.606   2.358   4.743
14002SOL    HW153225   1.583   2.333   4.837
14002SOL    HW253226   1.527   2.398   4.698
14003SOL     OW53227   5.839   6.156   1.533
14003SOL    HW153228   5.879   6.115   1.615
14003SOL    HW253229   5.911   6.190   1.474
14004SOL     OW53230   8.141   7.355   4.584
14004SOL    HW153231   8.109   7.421   4.516
14004SOL    HW253232   8.220   7.393   4.633
14005SOL     OW53233   0.741   6.761   1.509
14005SOL    HW153234   0.671   6.749   1.580
14005SOL    HW253235   0.705   6.730   1.421
14006SOL     OW53236   4.148   3.033   4.343
14006SOL    HW153237   4.150   3.109   4.279
14006SOL    HW253238   4.185   2.951   4.298
14007SOL     OW53239   5.268   9.809   5.548
14007SOL    HW153240   5.282   9.835   5.453
14007SOL    HW253241   5.170   9.813   5.570
14008SOL     OW53242   9.611   3.908   5.668
14008SOL    HW153243   9.534   3.930   5.607
14008SOL    HW253244   9.692   3.888   5.613
14009SOL     OW53245   1.718   1.302   1.261
14009SOL    HW153246   1.644   1.286   1.197
14009SOL    HW253247   1.804   1.313   1.211
14010SOL     OW53248   9.664   2.742   4.839
14010SOL    HW153249   9.719   2.756   4.757
14010SOL    HW253250   9.710   2.677   4.899
14011SOL     OW53251   6.989   1.167   2.465
14011SOL    HW153252   7.057   1.134   2.399
14011SOL    HW253253   6.953   1.254   2.434
14012SOL     OW53254   1.873   8.173   5.092
14012SOL    HW153255   1.924   8.258   5.108
14012SOL    HW253256   1.895   8.108   5.164
14013SOL     OW53257   2.594   7.719   4.261
14013SOL    HW153258   2.533   7.744   4.336
14013SOL    HW253259   2.540   7.691   4.182
14014SOL     OW53260   3.045   2.357   0.717
14014SOL    HW153261   2.951   2.329   0.696
14014SOL    HW253262   3.047   2.455   0.736
14015SOL     OW53263   0.490   7.888   5.368
14015SOL    HW153264   0.532   7.949   5.301
14015SOL    HW253265   0.428   7.941   5.426
14016SOL     OW53266   3.175   2.395   2.311
14016SOL    HW153267   3.231   2.334   2.367
14016SOL    HW253268   3.224   2.481   2.297
14017SOL     OW53269   7.929   1.434   5.422
14017SOL    HW153270   7.891   1.342   5.425
14017SOL    HW253271   7.931   1.472   5.515
14018SOL     OW53272   9.051   1.441   0.748
14018SOL    HW153273   9.031   1.528   0.793
14018SOL    HW253274   9.148   1.438   0.723
14019SOL     OW53275   2.258   9.117   5.110
14019SOL    HW153276   2.345   9.084   5.074
14019SOL    HW253277   2.249   9.090   5.206
14020SOL     OW53278   9.424   3.401   1.082
14020SOL    HW153279   9.421   3.354   1.171
14020SOL    HW253280   9.341   3.379   1.031
14021SOL     OW53281   4.861   0.997   0.235
14021SOL    HW153282   4.905   0.907   0.230
14021SOL    HW253283   4.918   1.064   0.188
14022SOL     OW53284   1.648   2.680   2.675
14022SOL    HW153285   1.671   2.772   2.709
14022SOL    HW253286   1.706   2.612   2.721
14023SOL     OW53287   2.280   6.073   2.803
14023SOL    HW153288   2.276   6.170   2.778
14023SOL    HW253289   2.371   6.052   2.838
14024SOL     OW53290   0.837   7.514   3.381
14024SOL    HW153291   0.827   7.436   3.320
14024SOL    HW253292   0.867   7.482   3.471
14025SOL     OW53293   4.223   8.391   4.813
14025SOL    HW153294   4.259   8.481   4.789
14025SOL    HW253295   4.124   8.397   4.828
14026SOL     OW53296   2.327   5.049   3.408
14026SOL    HW153297   2.281   5.064   3.495
14026SOL    HW253298   2.406   4.989   3.421
14027SOL     OW53299   0.531   9.692   5.384
14027SOL    HW153300   0.538   9.747   5.468
14027SOL    HW253301   0.459   9.729   5.326
14028SOL     OW53302   5.391   7.465   5.592
14028SOL    HW153303   5.300   7.465   5.634
14028SOL    HW253304   5.460   7.461   5.664
14029SOL     OW53305   8.769   9.698   3.262
14029SOL    HW153306   8.758   9.795   3.280
14029SOL    HW253307   8.862   9.681   3.227
14030SOL     OW53308   8.369   0.813   0.604
14030SOL    HW153309   8.393   0.885   0.668
14030SOL    HW253310   8.277   0.829   0.568
14031SOL     OW53311   1.101   2.222   2.460
14031SOL    HW153312   1.134   2.283   2.532
14031SOL    HW253313   1.075   2.134   2.500
14032SOL     OW53314   9.436   0.845   0.471
14032SOL    HW153315   9.381   0.887   0.544
14032SOL    HW253316   9.412   0.749   0.463
14033SOL     OW53317   0.202   5.315   2.479
14033SOL    HW153318   0.103   5.316   2.471
14033SOL    HW253319   0.237   5.408   2.467
14034SOL     OW53320   2.264   7.033   6.033
14034SOL    HW153321   2.204   7.109   6.058
14034SOL    HW253322   2.347   7.069   5.991
14035SOL     OW53323   5.009   9.346   4.357
14035SOL    HW153324   5.009   9.424   4.420
14035SOL    HW253325   4.937   9.359   4.288
14036SOL     OW53326   9.095   5.790   6.257
14036SOL    HW153327   9.003   5.810   6.293
14036SOL    HW253328   9.093   5.702   6.209
14037SOL     OW53329   4.964   3.258   4.779
14037SOL    HW153330   4.864   3.255   4.792
14037SOL    HW253331   4.985   3.312   4.698
14038SOL     OW53332   4.131   6.433   0.428
14038SOL    HW153333   4.152   6.439   0.526
14038SOL    HW253334   4.048   6.484   0.409
14039SOL     OW53335   5.032   1.920   2.926
14039SOL    HW153336   4.984   1.887   3.007
14039SOL    HW253337   5.086   2.001   2.950
14040SOL     OW53338   8.058   1.151   2.608
14040SOL    HW153339   7.975   1.187   2.568
14040SOL    HW253340   8.137   1.182   2.555
14041SOL     OW53341   7.076   5.852   1.446
14041SOL    HW153342   7.042   5.770   1.402
14041SOL    HW253343   7.033   5.933   1.406
14042SOL     OW53344   6.730   2.600   3.222
14042SOL    HW153345   6.803   2.552   3.272
14042SOL    HW253346   6.724   2.694   3.254
14043SOL     OW53347   4.147   6.469   2.236
14043SOL    HW153348   4.063   6.523   2.238
14043SOL    HW253349   4.135   6.388   2.293
14044SOL     OW53350   9.372   7.897   1.169
14044SOL    HW153351   9.362   7.806   1.128
14044SOL    HW253352   9.283   7.932   1.196
14045SOL     OW53353   0.251   6.888   3.412
14045SOL    HW153354   0.226   6.981   3.441
14045SOL    HW253355   0.288   6.892   3.319
14046SOL     OW53356   4.282   4.748   1.720
14046SOL    HW153357   4.338   4.687   1.664
14046SOL    HW253358   4.272   4.709   1.811
14047SOL     OW53359   2.645   3.595   1.092
14047SOL    HW153360   2.675   3.602   1.187
14047SOL    HW253361   2.666   3.504   1.056
14048SOL     OW53362   6.946   0.764   1.267
14048SOL    HW153363   6.881   0.835   1.294
14048SOL    HW253364   6.953   0.696   1.340
14049SOL     OW53365   3.361   9.848   1.278
14049SOL    HW153366   3.326   9.758   1.302
14049SOL    HW253367   3.305   9.888   1.206
14050SOL     OW53368   9.818   0.949   2.590
14050SOL    HW153369   9.911   0.918   2.573
14050SOL    HW253370   9.796   0.937   2.686
14051SOL     OW53371   0.456   1.917   1.957
14051SOL    HW153372   0.394   1.894   1.882
14051SOL    HW253373   0.489   2.010   1.945
14052SOL     OW53374   1.178   7.802   1.430
14052SOL    HW153375   1.194   7.704   1.418
14052SOL    HW253376   1.087   7.826   1.397
14053SOL     OW53377   4.420   7.085   1.697
14053SOL    HW153378   4.409   7.074   1.796
14053SOL    HW253379   4.358   7.022   1.650
14054SOL     OW53380   4.799   0.547   1.763
14054SOL    HW153381   4.868   0.603   1.719
14054SOL    HW253382   4.710   0.594   1.759
14055SOL     OW53383   8.233   4.344   1.868
14055SOL    HW153384   8.177   4.409   1.920
14055SOL    HW253385   8.176   4.297   1.801
14056SOL     OW53386   3.389   2.172   6.022
14056SOL    HW153387   3.445   2.203   6.099
14056SOL    HW253388   3.292   2.178   6.047
14057SOL     OW53389   0.465   6.479   1.682
14057SOL    HW153390   0.479   6.471   1.583
14057SOL    HW253391   0.493   6.394   1.727
14058SOL     OW53392   1.253   9.891   0.973
14058SOL    HW153393   1.316   9.815   0.957
14058SOL    HW253394   1.299   9.977   0.955
14059SOL     OW53395   5.631   9.605   3.705
14059SOL    HW153396   5.729   9.606   3.725
14059SOL    HW253397   5.617   9.587   3.608
14060SOL     OW53398   0.216   1.665   5.641
14060SOL    HW153399   0.282   1.740   5.646
14060SOL    HW253400   0.136   1.694   5.589
14061SOL     OW53401   4.360   4.319   1.466
14061SOL    HW153402   4.403   4.266   1.539
14061SOL    HW253403   4.378   4.416   1.481
14062SOL     OW53404   1.498   1.407   2.924
14062SOL    HW153405   1.527   1.502   2.917
14062SOL    HW253406   1.432   1.397   2.999
14063SOL     OW53407   6.838   9.770   3.066
14063SOL    HW153408   6.931   9.738   3.053
14063SOL    HW253409   6.838   9.867   3.088
14064SOL     OW53410   2.071   8.296   1.646
14064SOL    HW153411   2.080   8.384   1.694
14064SOL    HW253412   2.110   8.304   1.554
14065SOL     OW53413   2.905   5.262   4.546
14065SOL    HW153414   2.901   5.182   4.487
14065SOL    HW253415   2.812   5.290   4.571
14066SOL     OW53416   0.993   4.809   4.827
14066SOL    HW153417   0.978   4.898   4.871
14066SOL    HW253418   1.082   4.772   4.856
14067SOL     OW53419   5.874   0.498   2.224
14067SOL    HW153420   5.903   0.560   2.298
14067SOL    HW253421   5.912   0.407   2.240
14068SOL     OW53422   3.368   4.855   0.999
14068SOL    HW153423   3.375   4.774   1.057
14068SOL    HW253424   3.439   4.921   1.025
14069SOL     OW53425   3.278   9.973   3.835
14069SOL    HW153426   3.227   0.003   3.915
14069SOL    HW253427   3.355   9.916   3.864
14070SOL     OW53428   8.726   6.097   6.369
14070SOL    HW153429   8.628   6.109   6.354
14070SOL    HW253430   8.753   6.141   6.455
14071SOL     OW53431   3.124   6.522   5.510
14071SOL    HW153432   3.213   6.478   5.493
14071SOL    HW253433   3.134   6.588   5.585
14072SOL     OW53434   9.988   0.343   1.286
14072SOL    HW153435   9.928   0.266   1.308
14072SOL    HW253436   0.061   0.348   1.354
14073SOL     OW53437   4.565   7.190   2.149
14073SOL    HW153438   4.504   7.247   2.204
14073SOL    HW253439   4.630   7.247   2.099
14074SOL     OW53440   6.830   4.366   0.128
14074SOL    HW153441   6.774   4.286   0.106
14074SOL    HW253442   6.925   4.349   0.102
14075SOL     OW53443   6.335   8.131   3.685
14075SOL    HW153444   6.347   8.127   3.586
14075SOL    HW253445   6.322   8.039   3.721
14076SOL     OW53446   9.433   3.844   4.358
14076SOL    HW153447   9.342   3.861   4.320
14076SOL    HW253448   9.460   3.750   4.337
14077SOL     OW53449   2.104   6.443   4.711
14077SOL    HW153450   2.049   6.374   4.664
14077SOL    HW253451   2.095   6.430   4.810
14078SOL     OW53452   2.067   2.109   1.502
14078SOL    HW153453   2.156   2.150   1.521
14078SOL    HW253454   2.077   2.010   1.491
14079SOL     OW53455   2.843   3.132   5.246
14079SOL    HW153456   2.810   3.080   5.325
14079SOL    HW253457   2.772   3.196   5.216
14080SOL     OW53458   4.453   2.671   4.432
14080SOL    HW153459   4.358   2.673   4.462
14080SOL    HW253460   4.512   2.707   4.504
14081SOL     OW53461   8.550   9.464   3.543
14081SOL    HW153462   8.453   9.488   3.546
14081SOL    HW253463   8.580   9.456   3.448
14082SOL     OW53464   5.129   0.862   5.041
14082SOL    HW153465   5.063   0.870   5.116
14082SOL    HW253466   5.200   0.796   5.066
14083SOL     OW53467   3.178   8.566   0.390
14083SOL    HW153468   3.086   8.586   0.355
14083SOL    HW253469   3.224   8.503   0.328
14084SOL     OW53470   9.720   8.758   0.665
14084SOL    HW153471   9.717   8.741   0.566
14084SOL    HW253472   9.670   8.686   0.712
14085SOL     OW53473   4.981   5.665   0.621
14085SOL    HW153474   5.028   5.590   0.667
14085SOL    HW253475   4.978   5.745   0.682
14086SOL     OW53476   4.251   8.679   3.993
14086SOL    HW153477   4.306   8.756   3.959
14086SOL    HW253478   4.224   8.697   4.088
14087SOL     OW53479   4.272   7.586   2.073
14087SOL    HW153480   4.363   7.625   2.056
14087SOL    HW253481   4.210   7.613   2.000
14088SOL     OW53482   3.824   7.671   2.130
14088SOL    HW153483   3.891   7.596   2.130
14088SOL    HW253484   3.855   7.743   2.192
14089SOL     OW53485   8.769   1.472   6.100
14089SOL    HW153486   8.831   1.550   6.113
14089SOL    HW253487   8.674   1.503   6.110
14090SOL     OW53488   0.047   5.772   3.190
14090SOL    HW153489   0.145   5.756   3.176
14090SOL    HW253490   9.997   5.686   3.181
14091SOL     OW53491   8.419   8.306   3.296
14091SOL    HW153492   8.383   8.400   3.296
14091SOL    HW253493   8.401   8.264   3.207
14092SOL     OW53494   1.680   0.672   0.819
14092SOL    HW153495   1.659   0.612   0.896
14092SOL    HW253496   1.763   0.724   0.838
14093SOL     OW53497   4.196   9.619   4.100
14093SOL    HW153498   4.294   9.600   4.109
14093SOL    HW253499   4.183   9.717   4.086
14094SOL     OW53500   1.545   1.724   3.140
14094SOL    HW153501   1.561   1.709   3.042
14094SOL    HW253502   1.524   1.820   3.156
14095SOL     OW53503   0.034   3.693   0.285
14095SOL    HW153504   9.982   3.775   0.262
14095SOL    HW253505   0.130   3.707   0.263
14096SOL     OW53506   0.425   4.873   5.608
14096SOL    HW153507   0.418   4.775   5.624
14096SOL    HW253508   0.508   4.892   5.554
14097SOL     OW53509   5.238   7.554   5.987
14097SOL    HW153510   5.165   7.589   6.045
14097SOL    HW253511   5.201   7.529   5.898
14098SOL     OW53512   3.142   3.562   6.355
14098SOL    HW153513   3.136   3.546   6.454
14098SOL    HW253514   3.143   3.660   6.338
14099SOL     OW53515   9.015   1.671   4.382
14099SOL    HW153516   8.968   1.604   4.325
14099SOL    HW253517   8.960   1.754   4.388
14100SOL     OW53518   1.360   6.374   1.996
14100SOL    HW153519   1.354   6.286   2.043
14100SOL    HW253520   1.362   6.448   2.064
14101SOL     OW53521   9.632   9.012   0.580
14101SOL    HW153522   9.662   8.930   0.627
14101SOL    HW253523   9.710   9.057   0.537
14102SOL     OW53524   6.205   3.656   0.211
14102SOL    HW153525   6.130   3.599   0.177
14102SOL    HW253526   6.204   3.744   0.164
14103SOL     OW53527   9.807   9.002   2.658
14103SOL    HW153528   9.754   8.938   2.603
14103SOL    HW253529   9.797   8.980   2.755
14104SOL     OW53530   8.282   9.505   3.564
14104SOL    HW153531   8.255   9.411   3.543
14104SOL    HW253532   8.269   9.523   3.661
14105SOL     OW53533   3.649   3.034   5.852
14105SOL    HW153534   3.591   3.089   5.793
14105SOL    HW253535   3.723   2.993   5.799
14106SOL     OW53536   6.824   0.946   3.774
14106SOL    HW153537   6.901   0.978   3.829
14106SOL    HW253538   6.831   0.847   3.761
14107SOL     OW53539   6.812   0.951   4.871
14107SOL    HW153540   6.772   1.041   4.883
14107SOL    HW253541   6.743   0.887   4.840
14108SOL     OW53542   2.150   6.588   1.055
14108SOL    HW153543   2.157   6.687   1.043
14108SOL    HW253544   2.134   6.567   1.151
14109SOL     OW53545   0.421   3.154   1.635
14109SOL    HW153546   0.359   3.076   1.622
14109SOL    HW253547   0.405   3.195   1.724
14110SOL     OW53548   8.906   2.817   2.905
14110SOL    HW153549   8.825   2.871   2.929
14110SOL    HW253550   8.927   2.830   2.808
14111SOL     OW53551   7.969   1.731   4.820
14111SOL    HW153552   7.912   1.801   4.862
14111SOL    HW253553   8.011   1.768   4.737
14112SOL     OW53554   5.822   1.376   0.247
14112SOL    HW153555   5.852   1.469   0.267
14112SOL    HW253556   5.894   1.311   0.271
14113SOL     OW53557   2.601   7.462   2.295
14113SOL    HW153558   2.583   7.561   2.287
14113SOL    HW253559   2.556   7.414   2.220
14114SOL     OW53560   2.718   7.571   5.053
14114SOL    HW153561   2.814   7.544   5.059
14114SOL    HW253562   2.710   7.669   5.070
14115SOL     OW53563   3.257   0.217   3.705
14115SOL    HW153564   3.270   0.133   3.758
14115SOL    HW253565   3.252   0.194   3.608
14116SOL     OW53566   5.343   9.039   5.879
14116SOL    HW153567   5.330   9.001   5.971
14116SOL    HW253568   5.440   9.055   5.863
14117SOL     OW53569   9.430   6.031   4.748
14117SOL    HW153570   9.404   6.032   4.845
14117SOL    HW253571   9.370   6.092   4.697
14118SOL     OW53572   4.164   3.508   4.876
14118SOL    HW153573   4.088   3.496   4.940
14118SOL    HW253574   4.141   3.466   4.788
14119SOL     OW53575   5.128   6.135   0.624
14119SOL    HW153576   5.032   6.108   0.622
14119SOL    HW253577   5.167   6.126   0.532
14120SOL     OW53578   0.751   3.648   5.007
14120SOL    HW153579   0.720   3.601   5.090
14120SOL    HW253580   0.773   3.580   4.937
14121SOL     OW53581   9.594   8.047   1.724
14121SOL    HW153582   9.531   8.062   1.647
14121SOL    HW253583   9.622   8.135   1.761
14122SOL     OW53584   2.407   4.564   2.879
14122SOL    HW153585   2.351   4.544   2.799
14122SOL    HW253586   2.385   4.501   2.953
14123SOL     OW53587   5.492   9.825   2.024
14123SOL    HW153588   5.545   9.893   2.074
14123SOL    HW253589   5.512   9.734   2.061
14124SOL     OW53590   1.595   8.465   4.939
14124SOL    HW153591   1.572   8.469   5.036
14124SOL    HW253592   1.523   8.417   4.889
14125SOL     OW53593   3.540   6.137   3.797
14125SOL    HW153594   3.542   6.042   3.768
14125SOL    HW253595   3.520   6.142   3.895
14126SOL     OW53596   0.744   3.300   3.574
14126SOL    HW153597   0.700   3.376   3.526
14126SOL    HW253598   0.843   3.303   3.558
14127SOL     OW53599   3.106   4.871   0.944
14127SOL    HW153600   3.204   4.866   0.963
14127SOL    HW253601   3.086   4.954   0.892
14128SOL     OW53602   3.902   3.728   6.240
14128SOL    HW153603   3.988   3.768   6.270
14128SOL    HW253604   3.916   3.631   6.218
14129SOL     OW53605   4.465   8.889   4.769
14129SOL    HW153606   4.448   8.940   4.854
14129SOL    HW253607   4.498   8.797   4.792
14130SOL     OW53608   9.985   2.268   6.202
14130SOL    HW153609   9.893   2.284   6.237
14130SOL    HW253610   0.039   2.352   6.210
14131SOL     OW53611   9.133   6.931   5.333
14131SOL    HW153612   9.056   6.969   5.282
14131SOL    HW253613   9.202   6.899   5.268
14132SOL     OW53614   0.483   3.902   5.975
14132SOL    HW153615   0.568   3.871   5.933
14132SOL    HW253616   0.457   3.838   6.048
14133SOL     OW53617   8.858   0.909   0.112
14133SOL    HW153618   8.858   1.009   0.114
14133SOL    HW253619   8.918   0.877   0.040
14134SOL     OW53620   1.157   7.091   2.843
14134SOL    HW153621   1.113   7.021   2.787
14134SOL    HW253622   1.178   7.171   2.786
14135SOL     OW53623   8.734   8.306   0.904
14135SOL    HW153624   8.674   8.278   0.829
14135SOL    HW253625   8.797   8.377   0.870
14136SOL     OW53626   0.990   8.429   1.878
14136SOL    HW153627   0.999   8.515   1.827
14136SOL    HW253628   1.001   8.352   1.816
14137SOL     OW53629   1.744   4.311   0.338
14137SOL    HW153630   1.750   4.212   0.354
14137SOL    HW253631   1.820   4.357   0.383
14138SOL     OW53632   3.106   3.397   2.612
14138SOL    HW153633   3.078   3.476   2.559
14138SOL    HW253634   3.198   3.412   2.650
14139SOL     OW53635   3.845   4.501   2.653
14139SOL    HW153636   3.747   4.509   2.638
14139SOL    HW253637   3.890   4.588   2.633
14140SOL     OW53638   9.487   6.149   4.143
14140SOL    HW153639   9.525   6.216   4.080
14140SOL    HW253640   9.507   6.175   4.237
14141SOL     OW53641   0.666   3.376   4.346
14141SOL    HW153642   0.614   3.431   4.280
14141SOL    HW253643   0.612   3.296   4.372
14142SOL     OW53644   3.162   7.548   1.305
14142SOL    HW153645   3.246   7.493   1.309
14142SOL    HW253646   3.084   7.488   1.285
14143SOL     OW53647   8.717   5.583   2.248
14143SOL    HW153648   8.710   5.638   2.331
14143SOL    HW253649   8.648   5.511   2.249
14144SOL     OW53650   7.311   3.592   2.680
14144SOL    HW153651   7.255   3.607   2.762
14144SOL    HW253652   7.259   3.620   2.599
14145SOL     OW53653   8.302   0.423   4.206
14145SOL    HW153654   8.285   0.522   4.210
14145SOL    HW253655   8.261   0.379   4.286
14146SOL     OW53656   9.098   4.221   0.130
14146SOL    HW153657   9.003   4.194   0.112
14146SOL    HW253658   9.106   4.321   0.124
14147SOL     OW53659   0.304   9.304   0.895
14147SOL    HW153660   0.303   9.400   0.923
14147SOL    HW253661   0.361   9.251   0.957
14148SOL     OW53662   6.664   3.164   0.604
14148SOL    HW153663   6.679   3.112   0.688
14148SOL    HW253664   6.723   3.245   0.604
14149SOL     OW53665   7.816   3.082   1.679
14149SOL    HW153666   7.723   3.068   1.715
14149SOL    HW253667   7.812   3.146   1.602
14150SOL     OW53668   3.755   4.914   2.080
14150SOL    HW153669   3.828   4.979   2.055
14150SOL    HW253670   3.737   4.921   2.178
14151SOL     OW53671   4.839   7.723   1.892
14151SOL    HW153672   4.903   7.780   1.841
14151SOL    HW253673   4.768   7.689   1.830
14152SOL     OW53674   3.890   5.007   6.168
14152SOL    HW153675   3.848   5.052   6.089
14152SOL    HW253676   3.840   5.031   6.251
14153SOL     OW53677   2.068   0.353   0.969
14153SOL    HW153678   1.970   0.349   0.951
14153SOL    HW253679   2.104   0.260   0.975
14154SOL     OW53680   7.711   4.043   2.765
14154SOL    HW153681   7.649   3.978   2.721
14154SOL    HW253682   7.733   4.117   2.701
14155SOL     OW53683   2.600   4.052   3.849
14155SOL    HW153684   2.525   3.988   3.830
14155SOL    HW253685   2.687   4.005   3.840
14156SOL     OW53686   2.745   0.251   4.352
14156SOL    HW153687   2.808   0.231   4.278
14156SOL    HW253688   2.782   0.324   4.410
14157SOL     OW53689   0.767   3.237   0.155
14157SOL    HW153690   0.740   3.265   0.063
14157SOL    HW253691   0.709   3.284   0.222
14158SOL     OW53692   1.713   1.530   6.298
14158SOL    HW153693   1.642   1.597   6.317
14158SOL    HW253694   1.681   1.439   6.324
14159SOL     OW53695   4.171   8.257   1.107
14159SOL    HW153696   4.223   8.339   1.131
14159SOL    HW253697   4.230   8.176   1.118
14160SOL     OW53698   9.662   2.798   2.066
14160SOL    HW153699   9.690   2.886   2.028
14160SOL    HW253700   9.738   2.734   2.060
14161SOL     OW53701   2.114   5.036   3.225
14161SOL    HW153702   2.189   5.038   3.291
14161SOL    HW253703   2.124   4.956   3.166
14162SOL     OW53704   2.383   9.963   6.261
14162SOL    HW153705   2.327   0.016   6.197
14162SOL    HW253706   2.324   9.924   6.332
14163SOL     OW53707   8.387   0.311   3.222
14163SOL    HW153708   8.398   0.211   3.225
14163SOL    HW253709   8.387   0.341   3.127
14164SOL     OW53710   3.517   0.930   4.453
14164SOL    HW153711   3.488   0.834   4.455
14164SOL    HW253712   3.437   0.989   4.451
14165SOL     OW53713   3.511   9.642   4.835
14165SOL    HW153714   3.524   9.591   4.920
14165SOL    HW253715   3.414   9.662   4.822
14166SOL     OW53716   2.631   1.239   5.191
14166SOL    HW153717   2.584   1.290   5.119
14166SOL    HW253718   2.603   1.275   5.280
14167SOL     OW53719   1.390   2.189   3.712
14167SOL    HW153720   1.437   2.261   3.764
14167SOL    HW253721   1.340   2.231   3.635
14168SOL     OW53722   9.314   0.838   4.145
14168SOL    HW153723   9.329   0.784   4.062
14168SOL    HW253724   9.325   0.780   4.225
14169SOL     OW53725   8.832   7.072   5.462
14169SOL    HW153726   8.788   6.986   5.484
14169SOL    HW253727   8.861   7.072   5.366
14170SOL     OW53728   2.067   2.157   0.092
14170SOL    HW153729   2.029   2.099   0.020
14170SOL    HW253730   1.994   2.214   0.131
14171SOL     OW53731   8.755   1.800   3.884
14171SOL    HW153732   8.851   1.787   3.909
14171SOL    HW253733   8.743   1.778   3.787
14172SOL     OW53734   9.263   6.537   6.205
14172SOL    HW153735   9.359   6.517   6.226
14172SOL    HW253736   9.231   6.473   6.135
14173SOL     OW53737   8.558   2.152   2.579
14173SOL    HW153738   8.500   2.071   2.566
14173SOL    HW253739   8.565   2.172   2.677
14174SOL     OW53740   2.272   9.279   0.015
14174SOL    HW153741   2.282   9.280   8.104
14174SOL    HW253742   2.345   9.333   0.056
14175SOL     OW53743   1.909   1.319   0.430
14175SOL    HW153744   1.906   1.224   0.462
14175SOL    HW253745   1.901   1.381   0.509
14176SOL     OW53746   2.598   1.449   3.032
14176SOL    HW153747   2.578   1.499   2.947
14176SOL    HW253748   2.594   1.351   3.015
14177SOL     OW53749   9.693   6.078   2.885
14177SOL    HW153750   9.619   6.127   2.930
14177SOL    HW253751   9.758   6.046   2.954
14178SOL     OW53752   8.630   3.778   3.956
14178SOL    HW153753   8.664   3.750   3.866
14178SOL    HW253754   8.705   3.817   4.009
14179SOL     OW53755   4.536   2.213   2.311
14179SOL    HW153756   4.597   2.134   2.313
14179SOL    HW253757   4.497   2.224   2.219
14180SOL     OW53758   3.636   0.096   2.920
14180SOL    HW153759   3.619   0.185   2.962
14180SOL    HW253760   3.645   0.107   2.821
14181SOL     OW53761   7.670   3.513   0.149
14181SOL    HW153762   7.620   3.574   0.211
14181SOL    HW253763   7.615   3.497   0.067
14182SOL     OW53764   3.328   0.918   1.019
14182SOL    HW153765   3.319   0.854   1.095
14182SOL    HW253766   3.370   0.872   0.941
14183SOL     OW53767   2.905   1.371   4.999
14183SOL    HW153768   2.943   1.283   5.027
14183SOL    HW253769   2.837   1.357   4.927
14184SOL     OW53770   6.064   1.423   5.230
14184SOL    HW153771   6.155   1.382   5.222
14184SOL    HW253772   6.048   1.450   5.325
14185SOL     OW53773   5.532   7.467   5.357
14185SOL    HW153774   5.544   7.564   5.335
14185SOL    HW253775   5.485   7.459   5.445
14186SOL     OW53776   0.551   4.545   1.038
14186SOL    HW153777   0.585   4.628   1.082
14186SOL    HW253778   0.452   4.540   1.048
14187SOL     OW53779   7.154   1.568   2.529
14187SOL    HW153780   7.091   1.513   2.584
14187SOL    HW253781   7.104   1.612   2.454
14188SOL     OW53782   0.286   2.819   0.693
14188SOL    HW153783   0.248   2.892   0.750
14188SOL    HW253784   0.231   2.809   0.611
14189SOL     OW53785   1.797   0.213   5.911
14189SOL    HW153786   1.858   0.226   5.833
14189SOL    HW253787   1.804   0.119   5.944
14190SOL     OW53788   6.209   9.868   4.953
14190SOL    HW153789   6.134   9.811   4.986
14190SOL    HW253790   6.294   9.815   4.956
14191SOL     OW53791   8.218   0.943   2.893
14191SOL    HW153792   8.216   0.868   2.960
14191SOL    HW253793   8.177   0.911   2.807
14192SOL     OW53794   3.132   7.800   1.188
14192SOL    HW153795   3.201   7.867   1.217
14192SOL    HW253796   3.149   7.713   1.234
14193SOL     OW53797   5.016   1.508   5.171
14193SOL    HW153798   5.025   1.480   5.266
14193SOL    HW253799   4.991   1.429   5.115
14194SOL     OW53800   7.618   3.655   3.576
14194SOL    HW153801   7.599   3.673   3.672
14194SOL    HW253802   7.566   3.720   3.519
14195SOL     OW53803   2.516   5.472   0.712
14195SOL    HW153804   2.574   5.421   0.776
14195SOL    HW253805   2.569   5.495   0.631
14196SOL     OW53806   8.392   3.247   3.320
14196SOL    HW153807   8.405   3.342   3.351
14196SOL    HW253808   8.479   3.199   3.325
14197SOL     OW53809   7.431   6.305   5.185
14197SOL    HW153810   7.451   6.248   5.105
14197SOL    HW253811   7.517   6.338   5.224
14198SOL     OW53812   2.299   4.708   4.678
14198SOL    HW153813   2.346   4.762   4.609
14198SOL    HW253814   2.334   4.731   4.769
14199SOL     OW53815   0.122   6.702   0.214
14199SOL    HW153816   0.113   6.799   0.236
14199SOL    HW253817   0.219   6.677   0.213
14200SOL     OW53818   6.799   6.716   5.917
14200SOL    HW153819   6.792   6.633   5.861
14200SOL    HW253820   6.775   6.696   6.011
14201SOL     OW53821   7.804   0.767   4.855
14201SOL    HW153822   7.812   0.725   4.764
14201SOL    HW253823   7.709   0.762   4.886
14202SOL     OW53824   8.857   8.033   1.271
14202SOL    HW153825   8.897   8.122   1.288
14202SOL    HW253826   8.822   8.029   1.177
14203SOL     OW53827   4.270   2.840   3.504
14203SOL    HW153828   4.369   2.850   3.514
14203SOL    HW253829   4.227   2.838   3.594
14204SOL     OW53830   5.967   9.037   5.920
14204SOL    HW153831   5.960   9.052   5.821
14204SOL    HW253832   5.884   9.069   5.965
14205SOL     OW53833   8.439   1.166   3.954
14205SOL    HW153834   8.536   1.143   3.944
14205SOL    HW253835   8.425   1.219   4.037
14206SOL     OW53836   1.013   0.698   6.216
14206SOL    HW153837   1.052   0.790   6.221
14206SOL    HW253838   1.087   0.631   6.203
14207SOL     OW53839   4.630   1.387   5.699
14207SOL    HW153840   4.605   1.331   5.620
14207SOL    HW253841   4.663   1.327   5.772
14208SOL     OW53842   9.024   8.228   4.438
14208SOL    HW153843   8.947   8.277   4.480
14208SOL    HW253844   9.056   8.280   4.359
14209SOL     OW53845   8.404   2.069   4.595
14209SOL    HW153846   8.420   2.100   4.688
14209SOL    HW253847   8.395   1.969   4.594
14210SOL     OW53848   7.994   4.598   0.277
14210SOL    HW153849   8.013   4.692   0.305
14210SOL    HW253850   8.063   4.537   0.317
14211SOL     OW53851   1.527   9.806   5.774
14211SOL    HW153852   1.489   9.845   5.690
14211SOL    HW253853   1.540   9.878   5.842
14212SOL     OW53854   5.876   1.087   4.189
14212SOL    HW153855   5.927   1.017   4.240
14212SOL    HW253856   5.778   1.072   4.202
14213SOL     OW53857   9.815   8.911   5.619
14213SOL    HW153858   9.744   8.947   5.680
14213SOL    HW253859   9.848   8.984   5.560
14214SOL     OW53860   9.440   3.343   4.922
14214SOL    HW153861   9.455   3.244   4.922
14214SOL    HW253862   9.391   3.370   4.839
14215SOL     OW53863   3.863   8.287   4.402
14215SOL    HW153864   3.851   8.385   4.421
14215SOL    HW253865   3.778   8.250   4.364
14216SOL     OW53866   0.556   9.424   5.425
14216SOL    HW153867   0.550   9.523   5.411
14216SOL    HW253868   0.631   9.404   5.488
14217SOL     OW53869   1.932   7.780   2.303
14217SOL    HW153870   1.955   7.819   2.393
14217SOL    HW253871   2.013   7.782   2.245
14218SOL     OW53872   3.613   5.327   0.307
14218SOL    HW153873   3.581   5.329   0.213
14218SOL    HW253874   3.642   5.234   0.331
14219SOL     OW53875   9.336   4.409   3.985
14219SOL    HW153876   9.268   4.336   3.992
14219SOL    HW253877   9.393   4.395   3.904
14220SOL     OW53878   9.463   8.226   0.448
14220SOL    HW153879   9.380   8.281   0.439
14220SOL    HW253880   9.536   8.264   0.392
14221SOL     OW53881   8.177   5.578   3.305
14221SOL    HW153882   8.096   5.636   3.308
14221SOL    HW253883   8.254   5.630   3.267
14222SOL     OW53884   1.160   4.677   4.600
14222SOL    HW153885   1.121   4.612   4.664
14222SOL    HW253886   1.089   4.709   4.537
14223SOL     OW53887   0.376   1.535   4.930
14223SOL    HW153888   0.401   1.627   4.961
14223SOL    HW253889   0.438   1.506   4.858
14224SOL     OW53890   6.813   0.250   3.315
14224SOL    HW153891   6.817   0.159   3.273
14224SOL    HW253892   6.750   0.247   3.393
14225SOL     OW53893   4.038   8.534   4.609
14225SOL    HW153894   3.989   8.497   4.688
14225SOL    HW253895   4.115   8.589   4.640
14226SOL     OW53896   4.901   2.753   3.821
14226SOL    HW153897   5.000   2.746   3.833
14226SOL    HW253898   4.861   2.797   3.901
14227SOL     OW53899   8.062   0.679   5.459
14227SOL    HW153900   7.988   0.693   5.394
14227SOL    HW253901   8.132   0.619   5.418
14228SOL     OW53902   4.549   8.987   2.392
14228SOL    HW153903   4.499   8.971   2.307
14228SOL    HW253904   4.484   8.994   2.468
14229SOL     OW53905   1.702   8.918   6.059
14229SOL    HW153906   1.777   8.853   6.049
14229SOL    HW253907   1.677   8.926   6.156
14230SOL     OW53908   1.955   2.480   3.622
14230SOL    HW153909   1.870   2.428   3.635
14230SOL    HW253910   2.022   2.423   3.574
14231SOL     OW53911   8.718   3.226   2.838
14231SOL    HW153912   8.815   3.247   2.844
14231SOL    HW253913   8.698   3.185   2.749
14232SOL     OW53914   9.027   6.501   5.385
14232SOL    HW153915   9.051   6.583   5.436
14232SOL    HW253916   9.021   6.423   5.447
14233SOL     OW53917   5.466   8.368   5.816
14233SOL    HW153918   5.545   8.319   5.781
14233SOL    HW253919   5.384   8.339   5.767
14234SOL     OW53920   3.332   7.240   3.214
14234SOL    HW153921   3.414   7.261   3.160
14234SOL    HW253922   3.326   7.141   3.227
14235SOL     OW53923   3.242   8.266   4.819
14235SOL    HW153924   3.299   8.201   4.869
14235SOL    HW253925   3.146   8.242   4.831
14236SOL     OW53926   8.362   4.362   1.369
14236SOL    HW153927   8.290   4.414   1.323
14236SOL    HW253928   8.383   4.404   1.457
14237SOL     OW53929   7.896   0.221   6.176
14237SOL    HW153930   7.809   0.185   6.140
14237SOL    HW253931   7.907   0.316   6.147
14238SOL     OW53932   4.105   3.832   3.813
14238SOL    HW153933   4.029   3.884   3.852
14238SOL    HW253934   4.089   3.734   3.828
14239SOL     OW53935   3.209   0.829   0.053
14239SOL    HW153936   3.256   0.881   0.124
14239SOL    HW253937   3.162   0.892   8.179
14240SOL     OW53938   5.339   8.808   5.721
14240SOL    HW153939   5.328   8.894   5.770
14240SOL    HW253940   5.265   8.797   5.656
14241SOL     OW53941   1.601   6.004   2.581
14241SOL    HW153942   1.649   6.051   2.507
14241SOL    HW253943   1.641   5.913   2.594
14242SOL     OW53944   5.686   9.336   4.410
14242SOL    HW153945   5.657   9.307   4.501
14242SOL    HW253946   5.774   9.384   4.417
14243SOL     OW53947   9.576   9.227   3.432
14243SOL    HW153948   9.642   9.157   3.403
14243SOL    HW253949   9.497   9.226   3.371
14244SOL     OW53950   1.835   0.601   1.907
14244SOL    HW153951   1.750   0.645   1.937
14244SOL    HW253952   1.913   0.652   1.942
14245SOL     OW53953   8.831   7.510   2.923
14245SOL    HW153954   8.790   7.583   2.978
14245SOL    HW253955   8.777   7.427   2.932
14246SOL     OW53956   2.168   9.997   3.610
14246SOL    HW153957   2.080   0.037   3.635
14246SOL    HW253958   2.242   0.054   3.646
14247SOL     OW53959   4.325   1.505   0.571
14247SOL    HW153960   4.419   1.512   0.604
14247SOL    HW253961   4.273   1.445   0.631
14248SOL     OW53962   3.654   2.610   1.952
14248SOL    HW153963   3.716   2.585   1.878
14248SOL    HW253964   3.584   2.672   1.918
14249SOL     OW53965   0.698   5.803   2.315
14249SOL    HW153966   0.686   5.789   2.217
14249SOL    HW253967   0.642   5.880   2.345
14250SOL     OW53968   1.381   0.651   2.472
14250SOL    HW153969   1.282   0.650   2.459
14250SOL    HW253970   1.405   0.707   2.551
14251SOL     OW53971   2.535   9.912   4.920
14251SOL    HW153972   2.496   9.992   4.873
14251SOL    HW253973   2.551   9.839   4.854
14252SOL     OW53974   8.540   4.515   0.153
14252SOL    HW153975   8.527   4.420   0.179
14252SOL    HW253976   8.468   4.571   0.194
14253SOL     OW53977   6.239   7.316   5.372
14253SOL    HW153978   6.219   7.393   5.312
14253SOL    HW253979   6.266   7.350   5.462
14254SOL     OW53980   0.337   6.625   0.894
14254SOL    HW153981   0.420   6.652   0.845
14254SOL    HW253982   0.358   6.549   0.955
14255SOL     OW53983   6.892   4.692   0.588
14255SOL    HW153984   6.960   4.623   0.566
14255SOL    HW253985   6.807   4.672   0.540
14256SOL     OW53986   9.473   2.405   3.592
14256SOL    HW153987   9.572   2.418   3.583
14256SOL    HW253988   9.428   2.494   3.590
14257SOL     OW53989   8.610   3.491   0.318
14257SOL    HW153990   8.535   3.553   0.294
14257SOL    HW253991   8.665   3.532   0.390
14258SOL     OW53992   8.065   6.244   2.277
14258SOL    HW153993   8.037   6.252   2.182
14258SOL    HW253994   7.984   6.245   2.336
14259SOL     OW53995   8.071   5.369   2.454
14259SOL    HW153996   7.979   5.334   2.436
14259SOL    HW253997   8.066   5.468   2.467
14260SOL     OW53998   0.279   4.867   1.351
14260SOL    HW153999   0.198   4.892   1.297
14260SOL    HW254000   0.300   4.941   1.415
14261SOL     OW54001   7.461   8.015   3.106
14261SOL    HW154002   7.453   8.114   3.092
14261SOL    HW254003   7.557   7.990   3.115
14262SOL     OW54004   0.919   5.694   5.473
14262SOL    HW154005   0.952   5.683   5.380
14262SOL    HW254006   0.981   5.754   5.524
14263SOL     OW54007   3.271   6.641   0.959
14263SOL    HW154008   3.331   6.593   0.894
14263SOL    HW254009   3.259   6.735   0.928
14264SOL     OW54010   9.719   0.366   5.503
14264SOL    HW154011   9.797   0.332   5.554
14264SOL    HW254012   9.635   0.349   5.556
14265SOL     OW54013   2.217   5.260   5.565
14265SOL    HW154014   2.137   5.288   5.512
14265SOL    HW254015   2.288   5.227   5.503
14266SOL     OW54016   3.921   4.541   1.608
14266SOL    HW154017   3.967   4.514   1.523
14266SOL    HW254018   3.966   4.623   1.645
14267SOL     OW54019   2.480   4.712   0.499
14267SOL    HW154020   2.471   4.637   0.564
14267SOL    HW254021   2.545   4.686   0.427
14268SOL     OW54022   3.207   9.972   5.604
14268SOL    HW154023   3.170   9.882   5.583
14268SOL    HW254024   3.267   0.002   5.529
14269SOL     OW54025   7.915   6.756   2.723
14269SOL    HW154026   7.970   6.763   2.640
14269SOL    HW254027   7.861   6.839   2.734
14270SOL     OW54028   2.617   2.019   2.923
14270SOL    HW154029   2.548   1.947   2.915
14270SOL    HW254030   2.606   2.086   2.849
14271SOL     OW54031   9.073   7.374   1.315
14271SOL    HW154032   8.986   7.424   1.314
14271SOL    HW254033   9.149   7.439   1.309
14272SOL     OW54034   3.317   7.988   1.279
14272SOL    HW154035   3.325   8.087   1.289
14272SOL    HW254036   3.312   7.945   1.370
14273SOL     OW54037   6.416   7.824   3.528
14273SOL    HW154038   6.376   7.843   3.618
14273SOL    HW254039   6.514   7.848   3.530
14274SOL     OW54040   9.455   2.935   5.668
14274SOL    HW154041   9.372   2.972   5.627
14274SOL    HW254042   9.438   2.842   5.700
14275SOL     OW54043   7.728   0.114   2.160
14275SOL    HW154044   7.634   0.147   2.147
14275SOL    HW254045   7.781   0.182   2.209
14276SOL     OW54046   4.090   6.238   0.833
14276SOL    HW154047   4.136   6.312   0.785
14276SOL    HW254048   4.050   6.175   0.767
14277SOL     OW54049   3.561   2.877   6.197
14277SOL    HW154050   3.464   2.874   6.174
14277SOL    HW254051   3.591   2.972   6.205
14278SOL     OW54052   4.562   8.103   5.263
14278SOL    HW154053   4.593   8.112   5.358
14278SOL    HW254054   4.554   8.006   5.241
14279SOL     OW54055   6.505   2.166   1.176
14279SOL    HW154056   6.435   2.095   1.177
14279SOL    HW254057   6.509   2.209   1.266
14280SOL     OW54058   7.972   7.953   3.417
14280SOL    HW154059   7.880   7.919   3.396
14280SOL    HW254060   7.979   8.049   3.388
14281SOL     OW54061   7.793   1.048   0.069
14281SOL    HW154062   7.783   1.131   0.124
14281SOL    HW254063   7.708   1.032   0.017
14282SOL     OW54064   4.932   9.343   5.123
14282SOL    HW154065   4.901   9.328   5.217
14282SOL    HW254066   4.887   9.277   5.062
14283SOL     OW54067   0.338   4.432   3.726
14283SOL    HW154068   0.375   4.476   3.644
14283SOL    HW254069   0.244   4.462   3.741
14284SOL     OW54070   9.018   9.841   0.205
14284SOL    HW154071   8.989   9.935   0.185
14284SOL    HW254072   8.953   9.777   0.163
14285SOL     OW54073   7.727   7.890   3.803
14285SOL    HW154074   7.799   7.866   3.738
14285SOL    HW254075   7.765   7.898   3.895
14286SOL     OW54076   7.156   7.184   3.199
14286SOL    HW154077   7.215   7.265   3.192
14286SOL    HW254078   7.148   7.157   3.295
14287SOL     OW54079   9.477   7.763   4.317
14287SOL    HW154080   9.459   7.725   4.226
14287SOL    HW254081   9.551   7.830   4.311
14288SOL     OW54082   9.414   5.190   4.868
14288SOL    HW154083   9.469   5.207   4.950
14288SOL    HW254084   9.412   5.092   4.848
14289SOL     OW54085   3.725   9.632   2.334
14289SOL    HW154086   3.771   9.546   2.310
14289SOL    HW254087   3.640   9.611   2.384
14290SOL     OW54088   6.972   4.955   0.539
14290SOL    HW154089   6.940   5.013   0.614
14290SOL    HW254090   6.944   4.860   0.557
14291SOL     OW54091   8.848   0.233   0.225
14291SOL    HW154092   8.778   0.176   0.267
14291SOL    HW254093   8.915   0.260   0.294
14292SOL     OW54094   7.361   9.583   3.613
14292SOL    HW154095   7.444   9.603   3.561
14292SOL    HW254096   7.294   9.657   3.598
14293SOL     OW54097   8.095   7.907   5.849
14293SOL    HW154098   7.998   7.929   5.843
14293SOL    HW254099   8.147   7.990   5.868
14294SOL     OW54100   8.844   4.511   0.314
14294SOL    HW154101   8.934   4.474   0.291
14294SOL    HW254102   8.812   4.571   0.241
14295SOL     OW54103   5.829   0.132   6.226
14295SOL    HW154104   5.904   0.094   6.172
14295SOL    HW254105   5.749   0.073   6.218
14296SOL     OW54106   9.714   3.379   5.619
14296SOL    HW154107   9.633   3.333   5.655
14296SOL    HW254108   9.782   3.312   5.592
14297SOL     OW54109   7.440   8.042   5.289
14297SOL    HW154110   7.494   8.083   5.216
14297SOL    HW254111   7.366   7.987   5.249
14298SOL     OW54112   1.761   8.678   4.924
14298SOL    HW154113   1.855   8.647   4.909
14298SOL    HW254114   1.699   8.599   4.921
14299SOL     OW54115   9.471   8.175   4.738
14299SOL    HW154116   9.532   8.244   4.778
14299SOL    HW254117   9.506   8.148   4.648
14300SOL     OW54118   0.255   0.801   0.733
14300SOL    HW154119   0.220   0.720   0.780
14300SOL    HW254120   0.256   0.785   0.635
14301SOL     OW54121   9.820   1.839   2.799
14301SOL    HW154122   9.830   1.741   2.818
14301SOL    HW254123   9.737   1.855   2.746
14302SOL     OW54124   1.578   8.956   3.477
14302SOL    HW154125   1.648   9.026   3.467
14302SOL    HW254126   1.622   8.866   3.483
14303SOL     OW54127   9.873   8.433   2.890
14303SOL    HW154128   9.846   8.468   2.979
14303SOL    HW254129   9.843   8.496   2.819
14304SOL     OW54130   1.573   8.922   0.123
14304SOL    HW154131   1.511   8.878   0.188
14304SOL    HW254132   1.580   8.865   0.041
14305SOL     OW54133   3.441   3.777   3.551
14305SOL    HW154134   3.366   3.839   3.574
14305SOL    HW254135   3.488   3.750   3.635
14306SOL     OW54136   8.458   5.010   3.404
14306SOL    HW154137   8.510   5.095   3.393
14306SOL    HW254138   8.411   5.010   3.492
14307SOL     OW54139   5.288   1.629   5.413
14307SOL    HW154140   5.223   1.690   5.457
14307SOL    HW254141   5.283   1.538   5.456
14308SOL     OW54142   2.075   6.176   0.265
14308SOL    HW154143   1.982   6.210   0.281
14308SOL    HW254144   2.077   6.077   0.278
14309SOL     OW54145   5.573   7.630   4.970
14309SOL    HW154146   5.624   7.552   5.007
14309SOL    HW254147   5.617   7.715   5.001
14310SOL     OW54148   3.472   4.002   6.380
14310SOL    HW154149   3.457   3.943   6.301
14310SOL    HW254150   3.444   3.953   6.463
14311SOL     OW54151   9.261   1.087   1.918
14311SOL    HW154152   9.169   1.107   1.886
14311SOL    HW254153   9.309   1.173   1.937
14312SOL     OW54154   7.759   5.732   0.408
14312SOL    HW154155   7.802   5.651   0.369
14312SOL    HW254156   7.782   5.812   0.351
14313SOL     OW54157   8.922   9.815   3.538
14313SOL    HW154158   8.859   9.870   3.593
14313SOL    HW254159   8.972   9.874   3.475
14314SOL     OW54160   9.868   6.559   6.393
14314SOL    HW154161   9.925   6.494   6.443
14314SOL    HW254162   9.858   6.529   6.298
14315SOL     OW54163   0.049   3.808   2.542
14315SOL    HW154164   0.118   3.840   2.477
14315SOL    HW254165   0.029   3.880   2.608
14316SOL     OW54166   3.018   1.394   1.666
14316SOL    HW154167   2.976   1.404   1.756
14316SOL    HW254168   3.021   1.297   1.642
14317SOL     OW54169   3.651   1.544   6.321
14317SOL    HW154170   3.607   1.632   6.304
14317SOL    HW254171   3.750   1.556   6.319
14318SOL     OW54172   7.061   6.137   5.975
14318SOL    HW154173   7.010   6.053   5.955
14318SOL    HW254174   7.144   6.114   6.026
14319SOL     OW54175   1.598   7.816   5.685
14319SOL    HW154176   1.632   7.764   5.764
14319SOL    HW254177   1.504   7.789   5.665
14320SOL     OW54178   0.238   7.829   3.226
14320SOL    HW154179   0.245   7.897   3.153
14320SOL    HW254180   0.182   7.752   3.194
14321SOL     OW54181   5.222   5.896   0.910
14321SOL    HW154182   5.282   5.960   0.862
14321SOL    HW254183   5.197   5.933   1.000
14322SOL     OW54184   9.231   8.297   4.627
14322SOL    HW154185   9.159   8.243   4.583
14322SOL    HW254186   9.299   8.236   4.667
14323SOL     OW54187   1.210   7.309   2.659
14323SOL    HW154188   1.181   7.294   2.564
14323SOL    HW254189   1.253   7.399   2.666
14324SOL     OW54190   9.478   5.793   0.054
14324SOL    HW154191   9.568   5.816   0.093
14324SOL    HW254192   9.427   5.878   0.038
14325SOL     OW54193   3.223   8.458   4.603
14325SOL    HW154194   3.248   8.379   4.659
14325SOL    HW254195   3.284   8.463   4.523
14326SOL     OW54196   9.253   2.171   4.657
14326SOL    HW154197   9.335   2.206   4.611
14326SOL    HW254198   9.270   2.078   4.689
14327SOL     OW54199   6.542   2.525   3.840
14327SOL    HW154200   6.516   2.446   3.785
14327SOL    HW254201   6.460   2.575   3.868
14328SOL     OW54202   7.063   2.437   2.812
14328SOL    HW154203   7.125   2.476   2.744
14328SOL    HW254204   6.969   2.439   2.777
14329SOL     OW54205   7.297   8.953   2.638
14329SOL    HW154206   7.258   8.977   2.550
14329SOL    HW254207   7.226   8.912   2.696
14330SOL     OW54208   3.524   6.696   1.963
14330SOL    HW154209   3.496   6.777   2.014
14330SOL    HW254210   3.613   6.666   1.995
14331SOL     OW54211   9.719   5.676   3.165
14331SOL    HW154212   9.792   5.609   3.157
14331SOL    HW254213   9.725   5.740   3.088
14332SOL     OW54214   8.304   6.066   4.905
14332SOL    HW154215   8.342   6.065   4.997
14332SOL    HW254216   8.209   6.098   4.909
14333SOL     OW54217   7.221   7.903   5.200
14333SOL    HW154218   7.158   7.953   5.260
14333SOL    HW254219   7.181   7.814   5.179
14334SOL     OW54220   6.617   0.409   4.827
14334SOL    HW154221   6.584   0.487   4.881
14334SOL    HW254222   6.539   0.355   4.794
14335SOL     OW54223   1.544   1.748   6.299
14335SOL    HW154224   1.458   1.798   6.309
14335SOL    HW254225   1.621   1.812   6.295
14336SOL     OW54226   2.644   0.410   5.345
14336SOL    HW154227   2.592   0.357   5.412
14336SOL    HW254228   2.709   0.350   5.298
14337SOL     OW54229   4.927   6.851   1.442
14337SOL    HW154230   4.940   6.752   1.451
14337SOL    HW254231   4.956   6.896   1.527
14338SOL     OW54232   8.584   4.083   4.280
14338SOL    HW154233   8.558   4.099   4.185
14338SOL    HW254234   8.522   4.016   4.320
14339SOL     OW54235   6.935   0.952   2.957
14339SOL    HW154236   6.938   1.015   2.879
14339SOL    HW254237   6.867   0.984   3.023
14340SOL     OW54238   0.635   9.696   2.012
14340SOL    HW154239   0.635   9.791   2.043
14340SOL    HW254240   0.605   9.636   2.087
14341SOL     OW54241   7.125   1.377   0.714
14341SOL    HW154242   7.221   1.359   0.738
14341SOL    HW254243   7.089   1.299   0.663
14342SOL     OW54244   2.329   1.513   0.315
14342SOL    HW154245   2.418   1.539   0.352
14342SOL    HW254246   2.328   1.414   0.298
14343SOL     OW54247   3.370   7.358   5.359
14343SOL    HW154248   3.336   7.389   5.270
14343SOL    HW254249   3.294   7.351   5.424
14344SOL     OW54250   0.778   0.037   3.387
14344SOL    HW154251   0.710   0.095   3.431
14344SOL    HW254252   0.842   0.094   3.335
14345SOL     OW54253   6.545   0.202   5.457
14345SOL    HW154254   6.597   0.128   5.417
14345SOL    HW254255   6.606   0.277   5.483
14346SOL     OW54256   9.557   5.567   0.628
14346SOL    HW154257   9.613   5.517   0.693
14346SOL    HW254258   9.502   5.502   0.575
14347SOL     OW54259   4.884   1.308   6.120
14347SOL    HW154260   4.933   1.387   6.157
14347SOL    HW254261   4.946   1.229   6.116
14348SOL     OW54262   3.179   7.763   3.067
14348SOL    HW154263   3.242   7.744   3.142
14348SOL    HW254264   3.212   7.717   2.984
14349SOL     OW54265   2.668   5.219   0.089
14349SOL    HW154266   2.577   5.238   0.054
14349SOL    HW254267   2.684   5.120   0.089
14350SOL     OW54268   9.204   5.378   4.573
14350SOL    HW154269   9.301   5.364   4.595
14350SOL    HW254270   9.164   5.442   4.638
14351SOL     OW54271   0.615   8.243   0.780
14351SOL    HW154272   0.546   8.207   0.717
14351SOL    HW254273   0.585   8.333   0.813
14352SOL     OW54274   8.516   7.965   2.867
14352SOL    HW154275   8.525   7.941   2.964
14352SOL    HW254276   8.601   7.942   2.819
14353SOL     OW54277   1.134   0.463   3.157
14353SOL    HW154278   1.045   0.436   3.119
14353SOL    HW254279   1.200   0.390   3.140
14354SOL     OW54280   1.005   7.042   3.744
14354SOL    HW154281   1.080   7.108   3.750
14354SOL    HW254282   0.918   7.091   3.740
14355SOL     OW54283   8.358   4.962   5.304
14355SOL    HW154284   8.429   4.937   5.239
14355SOL    HW254285   8.268   4.947   5.264
14356SOL     OW54286   8.402   0.781   3.758
14356SOL    HW154287   8.384   0.861   3.701
14356SOL    HW254288   8.492   0.744   3.736
14357SOL     OW54289   2.880   4.857   1.824
14357SOL    HW154290   2.851   4.943   1.782
14357SOL    HW254291   2.979   4.846   1.814
14358SOL     OW54292   2.968   6.488   1.812
14358SOL    HW154293   2.877   6.451   1.832
14358SOL    HW254294   3.035   6.414   1.813
14359SOL     OW54295   1.832   4.993   0.414
14359SOL    HW154296   1.745   4.988   0.364
14359SOL    HW254297   1.863   4.901   0.437
14360SOL     OW54298   3.615   8.030   2.219
14360SOL    HW154299   3.606   8.000   2.124
14360SOL    HW254300   3.693   7.984   2.261
14361SOL     OW54301   9.934   9.075   1.428
14361SOL    HW154302   9.872   9.003   1.397
14361SOL    HW254303   9.936   9.076   1.528
14362SOL     OW54304   5.919   1.173   1.866
14362SOL    HW154305   5.870   1.152   1.782
14362SOL    HW254306   5.965   1.261   1.856
14363SOL     OW54307   1.152   6.500   5.790
14363SOL    HW154308   1.209   6.441   5.733
14363SOL    HW254309   1.211   6.555   5.850
14364SOL     OW54310   5.749   6.156   0.990
14364SOL    HW154311   5.690   6.171   1.069
14364SOL    HW254312   5.706   6.093   0.926
14365SOL     OW54313   7.584   3.411   3.466
14365SOL    HW154314   7.652   3.340   3.482
14365SOL    HW254315   7.611   3.495   3.512
14366SOL     OW54316   3.610   9.521   5.738
14366SOL    HW154317   3.586   9.555   5.647
14366SOL    HW254318   3.655   9.432   5.729
14367SOL     OW54319   1.073   9.934   1.415
14367SOL    HW154320   1.169   9.930   1.444
14367SOL    HW254321   1.069   9.969   1.321
14368SOL     OW54322   9.004   2.289   5.515
14368SOL    HW154323   9.068   2.284   5.592
14368SOL    HW254324   9.030   2.222   5.446
14369SOL     OW54325   9.888   3.221   3.257
14369SOL    HW154326   9.934   3.162   3.324
14369SOL    HW254327   9.901   3.317   3.282
14370SOL     OW54328   6.944   8.995   5.667
14370SOL    HW154329   6.857   8.953   5.693
14370SOL    HW254330   7.017   8.927   5.671
14371SOL     OW54331   8.135   2.553   5.048
14371SOL    HW154332   8.227   2.550   5.008
14371SOL    HW254333   8.110   2.462   5.081
14372SOL     OW54334   3.799   1.720   5.955
14372SOL    HW154335   3.783   1.815   5.981
14372SOL    HW254336   3.890   1.691   5.986
14373SOL     OW54337   4.809   2.509   1.705
14373SOL    HW154338   4.716   2.491   1.674
14373SOL    HW254339   4.821   2.607   1.722
14374SOL     OW54340   4.100   5.661   0.648
14374SOL    HW154341   4.161   5.686   0.723
14374SOL    HW254342   4.052   5.577   0.672
14375SOL     OW54343   2.814   6.405   1.195
14375SOL    HW154344   2.898   6.415   1.142
14375SOL    HW254345   2.820   6.323   1.252
14376SOL     OW54346   1.914   8.076   1.279
14376SOL    HW154347   1.951   8.086   1.187
14376SOL    HW254348   1.870   8.162   1.306
14377SOL     OW54349   1.240   3.827   4.734
14377SOL    HW154350   1.209   3.769   4.810
14377SOL    HW254351   1.336   3.807   4.714
14378SOL     OW54352   2.561   5.496   6.363
14378SOL    HW154353   2.470   5.539   6.367
14378SOL    HW254354   2.551   5.397   6.362
14379SOL     OW54355   5.025   1.076   6.085
14379SOL    HW154356   4.958   1.001   6.086
14379SOL    HW254357   5.068   1.079   5.995
14380SOL     OW54358   4.711   9.733   1.603
14380SOL    HW154359   4.777   9.664   1.633
14380SOL    HW254360   4.739   9.823   1.636
14381SOL     OW54361   5.691   7.855   3.491
14381SOL    HW154362   5.701   7.953   3.470
14381SOL    HW254363   5.766   7.804   3.450
14382SOL     OW54364   4.532   6.129   2.700
14382SOL    HW154365   4.511   6.147   2.604
14382SOL    HW254366   4.501   6.037   2.724
14383SOL     OW54367   4.756   2.565   4.690
14383SOL    HW154368   4.697   2.643   4.667
14383SOL    HW254369   4.822   2.550   4.617
14384SOL     OW54370   2.426   0.508   5.786
14384SOL    HW154371   2.512   0.457   5.782
14384SOL    HW254372   2.364   0.478   5.714
14385SOL     OW54373   7.430   4.278   3.081
14385SOL    HW154374   7.411   4.360   3.026
14385SOL    HW254375   7.409   4.196   3.027
14386SOL     OW54376   6.744   4.738   2.380
14386SOL    HW154377   6.743   4.648   2.424
14386SOL    HW254378   6.837   4.774   2.379
14387SOL     OW54379   8.930   4.029   5.920
14387SOL    HW154380   8.950   3.931   5.922
14387SOL    HW254381   8.895   4.054   5.830
14388SOL     OW54382   1.698   7.115   4.273
14388SOL    HW154383   1.719   7.070   4.187
14388SOL    HW254384   1.749   7.072   4.348
14389SOL     OW54385   0.275   6.254   0.352
14389SOL    HW154386   0.298   6.218   0.262
14389SOL    HW254387   0.216   6.334   0.343
14390SOL     OW54388   8.661   8.941   2.040
14390SOL    HW154389   8.728   8.872   2.069
14390SOL    HW254390   8.573   8.923   2.086
14391SOL     OW54391   5.202   0.347   3.787
14391SOL    HW154392   5.149   0.415   3.838
14391SOL    HW254393   5.298   0.376   3.784
14392SOL     OW54394   7.037   2.177   0.391
14392SOL    HW154395   6.945   2.214   0.390
14392SOL    HW254396   7.064   2.156   0.485
14393SOL     OW54397   9.159   9.102   1.680
14393SOL    HW154398   9.062   9.078   1.681
14393SOL    HW254399   9.174   9.183   1.737
14394SOL     OW54400   9.953   3.343   3.597
14394SOL    HW154401   9.955   3.395   3.512
14394SOL    HW254402   9.967   3.405   3.674
14395SOL     OW54403   3.957   7.644   5.469
14395SOL    HW154404   4.016   7.669   5.392
14395SOL    HW254405   3.904   7.724   5.498
14396SOL     OW54406   1.933   8.873   2.958
14396SOL    HW154407   2.033   8.881   2.965
14396SOL    HW254408   1.892   8.960   2.984
14397SOL     OW54409   0.294   9.408   6.312
14397SOL    HW154410   0.380   9.449   6.342
14397SOL    HW254411   0.233   9.479   6.277
14398SOL     OW54412   1.637   7.195   4.800
14398SOL    HW154413   1.572   7.207   4.725
14398SOL    HW254414   1.634   7.274   4.860
14399SOL     OW54415   3.222   0.230   3.310
14399SOL    HW154416   3.186   0.165   3.244
14399SOL    HW254417   3.149   0.261   3.371
14400SOL     OW54418   4.863   1.260   2.222
14400SOL    HW154419   4.956   1.294   2.212
14400SOL    HW254420   4.833   1.272   2.317
14401SOL     OW54421   1.835   6.038   2.414
14401SOL    HW154422   1.902   6.003   2.479
14401SOL    HW254423   1.864   6.127   2.380
14402SOL     OW54424   2.047   7.882   0.783
14402SOL    HW154425   2.111   7.816   0.743
14402SOL    HW254426   1.975   7.833   0.831
14403SOL     OW54427   7.775   4.526   3.160
14403SOL    HW154428   7.778   4.478   3.073
14403SOL    HW254429   7.682   4.521   3.197
14404SOL     OW54430   9.590   3.535   3.066
14404SOL    HW154431   9.529   3.590   3.008
14404SOL    HW254432   9.637   3.595   3.131
14405SOL     OW54433   8.280   4.758   1.365
14405SOL    HW154434   8.354   4.717   1.312
14405SOL    HW254435   8.265   4.704   1.449
14406SOL     OW54436   9.885   5.413   4.482
14406SOL    HW154437   9.843   5.426   4.392
14406SOL    HW254438   9.868   5.320   4.513
14407SOL     OW54439   5.031   0.543   6.336
14407SOL    HW154440   5.080   0.477   6.394
14407SOL    HW254441   5.084   0.627   6.330
14408SOL     OW54442   8.858   8.558   4.167
14408SOL    HW154443   8.803   8.626   4.118
14408SOL    HW254444   8.810   8.531   4.250
14409SOL     OW54445   1.457   6.508   0.780
14409SOL    HW154446   1.377   6.557   0.748
14409SOL    HW254447   1.432   6.414   0.804
14410SOL     OW54448   4.904   1.081   3.776
14410SOL    HW154449   4.970   1.020   3.733
14410SOL    HW254450   4.952   1.156   3.821
14411SOL     OW54451   1.846   0.939   2.325
14411SOL    HW154452   1.898   0.863   2.287
14411SOL    HW254453   1.766   0.957   2.268
14412SOL     OW54454   1.121   9.063   6.012
14412SOL    HW154455   1.150   9.155   5.983
14412SOL    HW254456   1.021   9.059   6.011
14413SOL     OW54457   1.863   6.464   3.548
14413SOL    HW154458   1.890   6.387   3.606
14413SOL    HW254459   1.880   6.443   3.452
14414SOL     OW54460   4.777   4.634   1.907
14414SOL    HW154461   4.793   4.727   1.942
14414SOL    HW254462   4.814   4.627   1.814
14415SOL     OW54463   8.799   0.480   0.689
14415SOL    HW154464   8.757   0.471   0.780
14415SOL    HW254465   8.739   0.438   0.621
14416SOL     OW54466   3.735   8.923   2.890
14416SOL    HW154467   3.638   8.915   2.910
14416SOL    HW254468   3.756   8.871   2.807
14417SOL     OW54469   8.159   8.143   1.734
14417SOL    HW154470   8.099   8.216   1.766
14417SOL    HW254471   8.223   8.180   1.666
14418SOL     OW54472   3.716   7.690   2.463
14418SOL    HW154473   3.729   7.751   2.542
14418SOL    HW254474   3.644   7.624   2.482
14419SOL     OW54475   3.016   3.252   1.487
14419SOL    HW154476   3.031   3.239   1.586
14419SOL    HW254477   3.105   3.250   1.441
14420SOL     OW54478   7.224   3.382   2.915
14420SOL    HW154479   7.190   3.468   2.952
14420SOL    HW254480   7.180   3.305   2.961
14421SOL     OW54481   7.499   2.109   3.200
14421SOL    HW154482   7.582   2.116   3.256
14421SOL    HW254483   7.445   2.031   3.230
14422SOL     OW54484   2.029   7.945   1.688
14422SOL    HW154485   2.043   7.996   1.772
14422SOL    HW254486   1.956   7.877   1.701
14423SOL     OW54487   9.884   5.818   6.136
14423SOL    HW154488   9.935   5.743   6.180
14423SOL    HW254489   9.811   5.780   6.081
14424SOL     OW54490   3.633   8.912   0.820
14424SOL    HW154491   3.567   8.851   0.776
14424SOL    HW254492   3.647   8.883   0.915
14425SOL     OW54493   9.872   4.368   3.799
14425SOL    HW154494   9.873   4.357   3.898
14425SOL    HW254495   9.795   4.426   3.773
14426SOL     OW54496   0.724   4.682   0.159
14426SOL    HW154497   0.730   4.633   0.246
14426SOL    HW254498   0.808   4.735   0.144
14427SOL     OW54499   8.585   4.357   2.375
14427SOL    HW154500   8.522   4.429   2.346
14427SOL    HW254501   8.536   4.270   2.380
14428SOL     OW54502   7.885   2.691   1.228
14428SOL    HW154503   7.850   2.629   1.158
14428SOL    HW254504   7.810   2.747   1.263
14429SOL     OW54505   9.138   0.630   5.093
14429SOL    HW154506   9.044   0.626   5.127
14429SOL    HW254507   9.157   0.721   5.055
14430SOL     OW54508   2.469   5.504   3.713
14430SOL    HW154509   2.386   5.470   3.668
14430SOL    HW254510   2.505   5.581   3.661
14431SOL     OW54511   0.444   3.515   2.725
14431SOL    HW154512   0.411   3.424   2.749
14431SOL    HW254513   0.544   3.515   2.724
14432SOL     OW54514   6.162   0.868   2.900
14432SOL    HW154515   6.183   0.862   2.998
14432SOL    HW254516   6.185   0.781   2.856
14433SOL     OW54517   2.206   5.621   2.106
14433SOL    HW154518   2.217   5.717   2.130
14433SOL    HW254519   2.237   5.607   2.012
14434SOL     OW54520   3.547   1.849   3.187
14434SOL    HW154521   3.582   1.758   3.211
14434SOL    HW254522   3.455   1.841   3.148
14435SOL     OW54523   9.936   8.021   3.657
14435SOL    HW154524   9.931   7.952   3.586
14435SOL    HW254525   9.862   8.006   3.723
14436SOL     OW54526   2.753   0.784   0.917
14436SOL    HW154527   2.726   0.880   0.907
14436SOL    HW254528   2.842   0.769   0.874
14437SOL     OW54529   2.941   9.759   0.339
14437SOL    HW154530   2.878   9.822   0.384
14437SOL    HW254531   2.890   9.704   0.273
14438SOL     OW54532   2.412   3.321   3.383
14438SOL    HW154533   2.401   3.332   3.284
14438SOL    HW254534   2.474   3.246   3.401
14439SOL     OW54535   4.523   4.376   3.197
14439SOL    HW154536   4.616   4.346   3.174
14439SOL    HW254537   4.526   4.434   3.279
14440SOL     OW54538   9.959   5.876   1.489
14440SOL    HW154539   0.024   5.881   1.413
14440SOL    HW254540   0.005   5.839   1.569
14441SOL     OW54541   2.833   5.780   1.534
14441SOL    HW154542   2.864   5.823   1.618
14441SOL    HW254543   2.905   5.787   1.464
14442SOL     OW54544   2.828   0.937   5.579
14442SOL    HW154545   2.893   0.990   5.525
14442SOL    HW254546   2.878   0.882   5.646
14443SOL     OW54547   8.048   9.989   6.145
14443SOL    HW154548   7.991   0.066   6.174
14443SOL    HW254549   8.025   9.964   6.051
14444SOL     OW54550   3.113   3.983   3.859
14444SOL    HW154551   3.116   3.903   3.919
14444SOL    HW254552   3.134   4.065   3.911
14445SOL     OW54553   1.474   5.979   4.569
14445SOL    HW154554   1.544   5.908   4.560
14445SOL    HW254555   1.392   5.941   4.612
14446SOL     OW54556   4.908   9.430   3.323
14446SOL    HW154557   4.818   9.472   3.314
14446SOL    HW254558   4.978   9.494   3.295
14447SOL     OW54559   3.673   3.783   6.107
14447SOL    HW154560   3.758   3.763   6.157
14447SOL    HW254561   3.696   3.813   6.014
14448SOL     OW54562   9.123   7.540   2.594
14448SOL    HW154563   9.029   7.515   2.617
14448SOL    HW254564   9.124   7.628   2.548
14449SOL     OW54565   5.550   0.019   2.335
14449SOL    HW154566   5.604   0.051   2.257
14449SOL    HW254567   5.454   0.009   2.308
14450SOL     OW54568   0.250   9.430   4.438
14450SOL    HW154569   0.233   9.528   4.451
14450SOL    HW254570   0.340   9.407   4.473
14451SOL     OW54571   7.147   8.818   5.748
14451SOL    HW154572   7.113   8.839   5.840
14451SOL    HW254573   7.219   8.884   5.724
14452SOL     OW54574   8.222   0.694   6.328
14452SOL    HW154575   8.226   0.606   6.281
14452SOL    HW254576   8.204   0.680   6.425
14453SOL     OW54577   8.399   4.277   4.715
14453SOL    HW154578   8.300   4.283   4.709
14453SOL    HW254579   8.440   4.320   4.634
14454SOL     OW54580   2.902   5.320   0.516
14454SOL    HW154581   2.874   5.410   0.551
14454SOL    HW254582   2.880   5.314   0.419
14455SOL     OW54583   6.351   1.428   3.440
14455SOL    HW154584   6.301   1.499   3.391
14455SOL    HW254585   6.286   1.367   3.486
14456SOL     OW54586   8.266   5.179   2.844
14456SOL    HW154587   8.208   5.252   2.879
14456SOL    HW254588   8.336   5.156   2.912
14457SOL     OW54589   6.449   9.728   4.996
14457SOL    HW154590   6.521   9.658   4.997
14457SOL    HW254591   6.476   9.804   5.054
14458SOL     OW54592   8.672   1.422   0.798
14458SOL    HW154593   8.741   1.350   0.783
14458SOL    HW254594   8.656   1.432   0.896
14459SOL     OW54595   4.678   4.193   1.895
14459SOL    HW154596   4.675   4.278   1.948
14459SOL    HW254597   4.611   4.197   1.822
14460SOL     OW54598   1.362   0.141   0.962
14460SOL    HW154599   1.268   0.176   0.959
14460SOL    HW254600   1.423   0.205   0.915
14461SOL     OW54601   8.427   3.403   1.645
14461SOL    HW154602   8.362   3.352   1.589
14461SOL    HW254603   8.503   3.435   1.588
14462SOL     OW54604   3.473   0.350   5.454
14462SOL    HW154605   3.562   0.343   5.408
14462SOL    HW254606   3.412   0.408   5.400
14463SOL     OW54607   0.351   2.889   3.341
14463SOL    HW154608   0.352   2.989   3.337
14463SOL    HW254609   0.257   2.858   3.358
14464SOL     OW54610   3.218   9.909   3.559
14464SOL    HW154611   3.230   9.813   3.535
14464SOL    HW254612   3.232   9.921   3.657
14465SOL     OW54613   8.081   4.632   5.819
14465SOL    HW154614   8.167   4.665   5.858
14465SOL    HW254615   8.086   4.533   5.808
14466SOL     OW54616   3.865   8.479   5.962
14466SOL    HW154617   3.804   8.554   5.935
14466SOL    HW254618   3.901   8.434   5.880
14467SOL     OW54619   4.338   5.058   3.286
14467SOL    HW154620   4.289   5.032   3.369
14467SOL    HW254621   4.413   4.994   3.271
14468SOL     OW54622   8.200   5.046   3.286
14468SOL    HW154623   8.186   5.143   3.262
14468SOL    HW254624   8.295   5.032   3.312
14469SOL     OW54625   1.321   6.317   5.669
14469SOL    HW154626   1.334   6.234   5.724
14469SOL    HW254627   1.319   6.293   5.572
14470SOL     OW54628   2.693   3.951   4.850
14470SOL    HW154629   2.764   4.009   4.812
14470SOL    HW254630   2.730   3.859   4.865
14471SOL     OW54631   2.849   0.418   4.545
14471SOL    HW154632   2.814   0.373   4.627
14471SOL    HW254633   2.880   0.510   4.568
14472SOL     OW54634   5.091   8.077   3.559
14472SOL    HW154635   5.056   8.171   3.557
14472SOL    HW254636   5.159   8.065   3.487
14473SOL     OW54637   9.893   5.806   2.795
14473SOL    HW154638   9.796   5.818   2.776
14473SOL    HW254639   9.915   5.708   2.795
14474SOL     OW54640   4.102   9.430   3.711
14474SOL    HW154641   4.011   9.420   3.671
14474SOL    HW254642   4.100   9.406   3.808
14475SOL     OW54643   0.095   8.260   6.415
14475SOL    HW154644   0.125   8.178   6.367
14475SOL    HW254645   0.153   8.337   6.389
14476SOL     OW54646   0.879   5.883   5.077
14476SOL    HW154647   0.902   5.972   5.037
14476SOL    HW254648   0.798   5.846   5.032
14477SOL     OW54649   0.562   9.865   4.689
14477SOL    HW154650   0.553   9.874   4.590
14477SOL    HW254651   0.539   9.952   4.733
14478SOL     OW54652   7.807   2.339   4.328
14478SOL    HW154653   7.869   2.282   4.382
14478SOL    HW254654   7.720   2.291   4.316
14479SOL     OW54655   5.614   8.618   5.209
14479SOL    HW154656   5.637   8.697   5.153
14479SOL    HW254657   5.600   8.538   5.150
14480SOL     OW54658   0.510   4.301   5.023
14480SOL    HW154659   0.540   4.334   4.933
14480SOL    HW254660   0.443   4.228   5.011
14481SOL     OW54661   8.090   1.113   0.689
14481SOL    HW154662   8.063   1.193   0.635
14481SOL    HW254663   8.106   1.036   0.628
14482SOL     OW54664   1.087   1.182   6.369
14482SOL    HW154665   1.078   1.276   6.337
14482SOL    HW254666   1.090   1.180   6.469
14483SOL     OW54667   9.460   0.145   0.475
14483SOL    HW154668   9.450   0.049   0.499
14483SOL    HW254669   9.386   0.198   0.517
14484SOL     OW54670   4.802   0.838   6.332
14484SOL    HW154671   4.852   0.848   6.418
14484SOL    HW254672   4.704   0.842   6.349
14485SOL     OW54673   2.331   6.208   0.879
14485SOL    HW154674   2.362   6.286   0.934
14485SOL    HW254675   2.374   6.212   0.789
14486SOL     OW54676   3.281   1.117   3.841
14486SOL    HW154677   3.247   1.069   3.760
14486SOL    HW254678   3.381   1.112   3.843
14487SOL     OW54679   0.855   4.047   5.019
14487SOL    HW154680   0.913   3.975   5.057
14487SOL    HW254681   0.797   4.009   4.947
14488SOL     OW54682   0.135   3.543   1.541
14488SOL    HW154683   0.202   3.613   1.565
14488SOL    HW254684   0.144   3.519   1.445
14489SOL     OW54685   0.553   7.192   4.079
14489SOL    HW154686   0.567   7.122   4.009
14489SOL    HW254687   0.492   7.156   4.150
14490SOL     OW54688   9.177   8.559   3.143
14490SOL    HW154689   9.169   8.465   3.175
14490SOL    HW254690   9.248   8.565   3.073
14491SOL     OW54691   8.825   6.852   1.673
14491SOL    HW154692   8.726   6.847   1.658
14491SOL    HW254693   8.843   6.892   1.763
14492SOL     OW54694   7.032   0.416   2.588
14492SOL    HW154695   6.944   0.458   2.565
14492SOL    HW254696   7.031   0.388   2.684
14493SOL     OW54697   1.788   7.023   2.015
14493SOL    HW154698   1.716   6.957   1.994
14493SOL    HW254699   1.788   7.041   2.114
14494SOL     OW54700   2.861   1.966   0.376
14494SOL    HW154701   2.766   1.987   0.403
14494SOL    HW254702   2.909   1.926   0.454
14495SOL     OW54703   6.282   0.410   4.137
14495SOL    HW154704   6.233   0.387   4.222
14495SOL    HW254705   6.238   0.488   4.093
14496SOL     OW54706   8.096   3.273   5.005
14496SOL    HW154707   8.111   3.322   4.919
14496SOL    HW254708   8.006   3.296   5.042
14497SOL     OW54709   7.866   4.755   1.451
14497SOL    HW154710   7.832   4.661   1.446
14497SOL    HW254711   7.790   4.818   1.460
14498SOL     OW54712   2.649   8.915   3.658
14498SOL    HW154713   2.685   9.006   3.678
14498SOL    HW254714   2.692   8.848   3.718
14499SOL     OW54715   8.701   6.732   6.177
14499SOL    HW154716   8.777   6.681   6.216
14499SOL    HW254717   8.734   6.822   6.146
14500SOL     OW54718   3.192   6.340   2.399
14500SOL    HW154719   3.201   6.365   2.302
14500SOL    HW254720   3.095   6.337   2.424
14501SOL     OW54721   1.098   0.392   6.399
14501SOL    HW154722   1.146   0.447   6.330
14501SOL    HW254723   1.000   0.411   6.396
14502SOL     OW54724   9.906   2.220   3.186
14502SOL    HW154725   9.940   2.180   3.271
14502SOL    HW254726   9.881   2.147   3.123
14503SOL     OW54727   5.204   2.141   5.049
14503SOL    HW154728   5.162   2.104   5.132
14503SOL    HW254729   5.168   2.233   5.032
14504SOL     OW54730   0.571   5.149   4.334
14504SOL    HW154731   0.667   5.165   4.359
14504SOL    HW254732   0.552   5.193   4.246
14505SOL     OW54733   7.175   2.118   3.574
14505SOL    HW154734   7.223   2.067   3.645
14505SOL    HW254735   7.203   2.213   3.576
14506SOL     OW54736   1.953   3.188   2.815
14506SOL    HW154737   1.917   3.151   2.729
14506SOL    HW254738   1.947   3.118   2.887
14507SOL     OW54739   7.682   3.876   3.134
14507SOL    HW154740   7.703   3.964   3.093
14507SOL    HW254741   7.733   3.865   3.220
14508SOL     OW54742   0.777   2.077   0.171
14508SOL    HW154743   0.679   2.065   0.183
14508SOL    HW254744   0.823   1.989   0.186
14509SOL     OW54745   1.375   3.982   1.572
14509SOL    HW154746   1.438   4.053   1.540
14509SOL    HW254747   1.393   3.962   1.668
14510SOL     OW54748   4.412   5.325   3.889
14510SOL    HW154749   4.369   5.386   3.956
14510SOL    HW254750   4.439   5.240   3.934
14511SOL     OW54751   2.886   5.370   1.086
14511SOL    HW154752   2.878   5.283   1.134
14511SOL    HW254753   2.877   5.445   1.151
14512SOL     OW54754   3.776   7.393   4.805
14512SOL    HW154755   3.859   7.358   4.849
14512SOL    HW254756   3.797   7.476   4.754
14513SOL     OW54757   8.491   0.147   2.875
14513SOL    HW154758   8.452   0.231   2.911
14513SOL    HW254759   8.548   0.104   2.944
14514SOL     OW54760   9.988   6.115   4.292
14514SOL    HW154761   9.896   6.103   4.330
14514SOL    HW254762   9.991   6.076   4.200
14515SOL     OW54763   7.778   2.393   1.514
14515SOL    HW154764   7.824   2.314   1.553
14515SOL    HW254765   7.843   2.467   1.500
14516SOL     OW54766   7.233   2.670   5.484
14516SOL    HW154767   7.257   2.757   5.441
14516SOL    HW254768   7.168   2.621   5.427
14517SOL     OW54769   0.862   9.469   2.551
14517SOL    HW154770   0.946   9.516   2.580
14517SOL    HW254771   0.848   9.483   2.453
14518SOL     OW54772   6.312   7.811   4.030
14518SOL    HW154773   6.339   7.900   4.068
14518SOL    HW254774   6.381   7.743   4.053
14519SOL     OW54775   2.029   1.475   5.739
14519SOL    HW154776   2.073   1.526   5.812
14519SOL    HW254777   2.085   1.479   5.656
14520SOL     OW54778   1.735   7.597   2.388
14520SOL    HW154779   1.807   7.651   2.345
14520SOL    HW254780   1.774   7.541   2.461
14521SOL     OW54781   0.891   2.246   1.853
14521SOL    HW154782   0.894   2.344   1.838
14521SOL    HW254783   0.861   2.227   1.947
14522SOL     OW54784   1.065   6.713   3.435
14522SOL    HW154785   1.023   6.795   3.395
14522SOL    HW254786   1.127   6.671   3.369
14523SOL     OW54787   0.644   8.480   4.356
14523SOL    HW154788   0.661   8.408   4.423
14523SOL    HW254789   0.699   8.462   4.274
14524SOL     OW54790   0.068   7.022   4.768
14524SOL    HW154791   0.154   7.055   4.729
14524SOL    HW254792   0.080   6.928   4.799
14525SOL     OW54793   6.418   2.140   4.876
14525SOL    HW154794   6.448   2.235   4.874
14525SOL    HW254795   6.392   2.115   4.969
14526SOL     OW54796   0.943   4.613   5.527
14526SOL    HW154797   0.905   4.697   5.565
14526SOL    HW254798   0.875   4.570   5.468
14527SOL     OW54799   8.600   2.792   0.498
14527SOL    HW154800   8.655   2.712   0.474
14527SOL    HW254801   8.524   2.764   0.557
14528SOL     OW54802   2.654   3.778   4.487
14528SOL    HW154803   2.666   3.684   4.520
14528SOL    HW254804   2.742   3.813   4.455
14529SOL     OW54805   2.228   3.009   2.144
14529SOL    HW154806   2.252   3.047   2.234
14529SOL    HW254807   2.212   3.084   2.080
14530SOL     OW54808   2.960   7.178   2.644
14530SOL    HW154809   3.000   7.095   2.606
14530SOL    HW254810   3.005   7.258   2.603
14531SOL     OW54811   8.049   9.915   4.432
14531SOL    HW154812   8.094   9.961   4.356
14531SOL    HW254813   7.974   9.859   4.396
14532SOL     OW54814   0.381   2.001   0.864
14532SOL    HW154815   0.314   1.948   0.915
14532SOL    HW254816   0.413   1.949   0.785
14533SOL     OW54817   2.337   5.210   2.583
14533SOL    HW154818   2.288   5.275   2.641
14533SOL    HW254819   2.315   5.229   2.487
14534SOL     OW54820   2.057   6.949   2.051
14534SOL    HW154821   2.046   6.851   2.063
14534SOL    HW254822   1.968   6.990   2.031
14535SOL     OW54823   3.413   2.180   4.014
14535SOL    HW154824   3.404   2.273   4.050
14535SOL    HW254825   3.484   2.179   3.943
14536SOL     OW54826   8.726   6.995   0.344
14536SOL    HW154827   8.743   7.017   0.247
14536SOL    HW254828   8.713   6.897   0.353
14537SOL     OW54829   3.013   0.344   3.751
14537SOL    HW154830   2.993   0.375   3.844
14537SOL    HW254831   3.103   0.301   3.748
14538SOL     OW54832   3.700   2.976   2.538
14538SOL    HW154833   3.756   3.058   2.537
14538SOL    HW254834   3.706   2.929   2.450
14539SOL     OW54835   8.562   6.079   1.812
14539SOL    HW154836   8.636   6.116   1.756
14539SOL    HW254837   8.527   5.995   1.771
14540SOL     OW54838   4.924   1.031   0.965
14540SOL    HW154839   4.860   0.961   0.999
14540SOL    HW254840   4.934   1.021   0.866
14541SOL     OW54841   0.497   1.345   1.600
14541SOL    HW154842   0.581   1.338   1.653
14541SOL    HW254843   0.510   1.303   1.510
14542SOL     OW54844   7.247   2.822   5.090
14542SOL    HW154845   7.313   2.790   5.021
14542SOL    HW254846   7.155   2.819   5.051
14543SOL     OW54847   1.016   3.906   3.006
14543SOL    HW154848   1.065   3.967   2.943
14543SOL    HW254849   0.926   3.944   3.026
14544SOL     OW54850   4.167   2.237   5.594
14544SOL    HW154851   4.161   2.303   5.669
14544SOL    HW254852   4.229   2.163   5.619
14545SOL     OW54853   3.333   8.063   4.479
14545SOL    HW154854   3.388   7.980   4.489
14545SOL    HW254855   3.255   8.044   4.419
14546SOL     OW54856   2.447   0.611   4.643
14546SOL    HW154857   2.519   0.674   4.613
14546SOL    HW254858   2.389   0.587   4.565
14547SOL     OW54859   0.168   2.589   1.210
14547SOL    HW154860   0.217   2.645   1.277
14547SOL    HW254861   0.201   2.495   1.215
14548SOL     OW54862   3.276   2.628   6.049
14548SOL    HW154863   3.268   2.719   6.089
14548SOL    HW254864   3.358   2.584   6.084
14549SOL     OW54865   5.633   9.548   3.432
14549SOL    HW154866   5.717   9.543   3.379
14549SOL    HW254867   5.603   9.455   3.456
14550SOL     OW54868   8.484   7.510   3.048
14550SOL    HW154869   8.561   7.573   3.049
14550SOL    HW254870   8.512   7.423   3.006
14551SOL     OW54871   3.226   0.598   2.983
14551SOL    HW154872   3.177   0.653   3.051
14551SOL    HW254873   3.239   0.653   2.900
14552SOL     OW54874   0.704   6.963   5.879
14552SOL    HW154875   0.607   6.981   5.898
14552SOL    HW254876   0.713   6.918   5.791
14553SOL     OW54877   8.764   5.544   5.814
14553SOL    HW154878   8.730   5.455   5.785
14553SOL    HW254879   8.850   5.564   5.766
14554SOL     OW54880   2.422   1.976   0.282
14554SOL    HW154881   2.463   1.893   0.242
14554SOL    HW254882   2.322   1.970   0.275
14555SOL     OW54883   6.987   4.451   1.711
14555SOL    HW154884   7.057   4.507   1.754
14555SOL    HW254885   7.030   4.369   1.671
14556SOL     OW54886   7.083   0.433   1.750
14556SOL    HW154887   7.108   0.518   1.797
14556SOL    HW254888   6.984   0.420   1.757
14557SOL     OW54889   2.322   9.926   1.456
14557SOL    HW154890   2.241   9.868   1.452
14557SOL    HW254891   2.295   0.022   1.445
14558SOL     OW54892   7.700   6.632   1.920
14558SOL    HW154893   7.706   6.633   1.820
14558SOL    HW254894   7.656   6.717   1.951
14559SOL     OW54895   2.630   0.367   2.876
14559SOL    HW154896   2.597   0.460   2.895
14559SOL    HW254897   2.710   0.371   2.817
14560SOL     OW54898   0.616   9.921   3.192
14560SOL    HW154899   0.551   9.869   3.247
14560SOL    HW254900   0.681   9.967   3.252
14561SOL     OW54901   3.072   7.722   1.630
14561SOL    HW154902   3.087   7.623   1.637
14561SOL    HW254903   2.993   7.739   1.571
14562SOL     OW54904   3.957   7.403   1.599
14562SOL    HW154905   3.882   7.451   1.645
14562SOL    HW254906   3.933   7.387   1.504
14563SOL     OW54907   6.811   2.600   2.954
14563SOL    HW154908   6.763   2.594   3.042
14563SOL    HW254909   6.903   2.638   2.969
14564SOL     OW54910   1.413   8.387   0.821
14564SOL    HW154911   1.349   8.317   0.851
14564SOL    HW254912   1.363   8.459   0.772
14565SOL     OW54913   1.326   4.894   2.340
14565SOL    HW154914   1.293   4.951   2.264
14565SOL    HW254915   1.387   4.947   2.398
14566SOL     OW54916   8.225   1.749   1.282
14566SOL    HW154917   8.297   1.739   1.350
14566SOL    HW254918   8.141   1.707   1.316
14567SOL     OW54919   8.495   1.392   0.072
14567SOL    HW154920   8.451   1.310   0.109
14567SOL    HW254921   8.491   1.389   8.160
14568SOL     OW54922   1.770   4.574   3.168
14568SOL    HW154923   1.692   4.635   3.157
14568SOL    HW254924   1.764   4.500   3.101
14569SOL     OW54925   9.433   1.846   1.403
14569SOL    HW154926   9.376   1.789   1.344
14569SOL    HW254927   9.463   1.927   1.351
14570SOL     OW54928   2.590   8.667   4.689
14570SOL    HW154929   2.682   8.699   4.667
14570SOL    HW254930   2.523   8.719   4.635
14571SOL     OW54931   2.965   7.545   4.134
14571SOL    HW154932   2.932   7.587   4.218
14571SOL    HW254933   2.945   7.447   4.135
14572SOL     OW54934   3.820   5.709   1.231
14572SOL    HW154935   3.791   5.642   1.162
14572SOL    HW254936   3.862   5.787   1.186
14573SOL     OW54937   4.276   5.446   2.529
14573SOL    HW154938   4.212   5.425   2.603
14573SOL    HW254939   4.369   5.428   2.561
14574SOL     OW54940   8.208   5.445   1.196
14574SOL    HW154941   8.304   5.430   1.219
14574SOL    HW254942   8.169   5.360   1.159
14575SOL     OW54943   9.140   7.149   0.828
14575SOL    HW154944   9.122   7.053   0.811
14575SOL    HW254945   9.196   7.159   0.910
14576SOL     OW54946   1.609   5.086   2.172
14576SOL    HW154947   1.545   5.100   2.096
14576SOL    HW254948   1.577   5.136   2.252
14577SOL     OW54949   8.293   7.266   1.062
14577SOL    HW154950   8.265   7.362   1.066
14577SOL    HW254951   8.315   7.242   0.967
14578SOL     OW54952   3.185   4.838   4.997
14578SOL    HW154953   3.157   4.759   4.943
14578SOL    HW254954   3.158   4.922   4.949
14579SOL     OW54955   1.949   9.521   5.545
14579SOL    HW154956   2.035   9.469   5.540
14579SOL    HW254957   1.880   9.465   5.591
14580SOL     OW54958   8.856   8.546   2.275
14580SOL    HW154959   8.938   8.499   2.306
14580SOL    HW254960   8.808   8.489   2.208
14581SOL     OW54961   9.563   3.877   0.475
14581SOL    HW154962   9.509   3.798   0.445
14581SOL    HW254963   9.621   3.851   0.552
14582SOL     OW54964   4.378   5.459   0.999
14582SOL    HW154965   4.425   5.477   0.913
14582SOL    HW254966   4.401   5.530   1.066
14583SOL     OW54967   2.866   9.906   4.263
14583SOL    HW154968   2.804   9.833   4.291
14583SOL    HW254969   2.819   9.969   4.201
14584SOL     OW54970   8.428   1.717   4.881
14584SOL    HW154971   8.448   1.750   4.974
14584SOL    HW254972   8.341   1.668   4.881
14585SOL     OW54973   0.841   7.245   4.017
14585SOL    HW154974   0.752   7.224   4.057
14585SOL    HW254975   0.832   7.254   3.918
14586SOL     OW54976   0.737   1.277   0.289
14586SOL    HW154977   0.777   1.318   0.208
14586SOL    HW254978   0.727   1.178   0.275
14587SOL     OW54979   8.355   6.751   5.236
14587SOL    HW154980   8.438   6.742   5.290
14587SOL    HW254981   8.300   6.827   5.271
14588SOL     OW54982   0.275   6.271   3.712
14588SOL    HW154983   0.321   6.350   3.673
14588SOL    HW254984   0.187   6.257   3.667
14589SOL     OW54985   9.508   7.670   4.057
14589SOL    HW154986   9.514   7.632   3.965
14589SOL    HW254987   9.593   7.651   4.107
14590SOL     OW54988   8.272   8.209   5.131
14590SOL    HW154989   8.284   8.129   5.071
14590SOL    HW254990   8.247   8.178   5.223
14591SOL     OW54991   7.235   9.628   5.323
14591SOL    HW154992   7.317   9.677   5.355
14591SOL    HW254993   7.174   9.610   5.400
14592SOL     OW54994   5.783   3.171   0.209
14592SOL    HW154995   5.817   3.098   0.151
14592SOL    HW254996   5.690   3.149   0.240
14593SOL     OW54997   7.360   7.988   4.918
14593SOL    HW154998   7.391   7.909   4.970
14593SOL    HW254999   7.407   7.990   4.830
14594SOL     OW55000   8.089   0.275   6.370
14594SOL    HW155001   8.000   0.255   6.327
14594SOL    HW255002   8.157   0.210   6.336
14595SOL     OW55003   5.253   2.828   4.786
14595SOL    HW155004   5.352   2.838   4.799
14595SOL    HW255005   5.208   2.913   4.813
14596SOL     OW55006   1.098   4.327   3.069
14596SOL    HW155007   1.017   4.314   3.012
14596SOL    HW255008   1.087   4.411   3.123
14597SOL     OW55009   2.420   1.808   5.895
14597SOL    HW155010   2.508   1.827   5.850
14597SOL    HW255011   2.365   1.749   5.836
14598SOL     OW55012   3.531   1.721   5.041
14598SOL    HW155013   3.630   1.730   5.048
14598SOL    HW255014   3.491   1.712   5.132
14599SOL     OW55015   7.795   6.479   5.814
14599SOL    HW155016   7.872   6.419   5.793
14599SOL    HW255017   7.825   6.574   5.812
14600SOL     OW55018   7.568   7.466   4.514
14600SOL    HW155019   7.494   7.518   4.472
14600SOL    HW255020   7.567   7.373   4.478
14601SOL     OW55021   0.700   3.635   6.056
14601SOL    HW155022   0.704   3.690   5.972
14601SOL    HW255023   0.712   3.695   6.135
14602SOL     OW55024   5.895   4.797   1.110
14602SOL    HW155025   5.801   4.832   1.099
14602SOL    HW255026   5.942   4.801   1.022
14603SOL     OW55027   0.489   9.452   1.216
14603SOL    HW155028   0.503   9.523   1.285
14603SOL    HW255029   0.578   9.420   1.183
14604SOL     OW55030   7.836   6.244   2.435
14604SOL    HW155031   7.814   6.340   2.421
14604SOL    HW255032   7.790   6.188   2.366
14605SOL     OW55033   9.179   1.778   0.580
14605SOL    HW155034   9.128   1.863   0.597
14605SOL    HW255035   9.219   1.745   0.665
14606SOL     OW55036   9.835   6.166   4.671
14606SOL    HW155037   9.798   6.258   4.690
14606SOL    HW255038   9.930   6.161   4.701
14607SOL     OW55039   1.377   2.263   1.895
14607SOL    HW155040   1.344   2.280   1.988
14607SOL    HW255041   1.391   2.165   1.882
14608SOL     OW55042   1.696   2.689   0.136
14608SOL    HW155043   1.690   2.789   0.141
14608SOL    HW255044   1.610   2.648   0.166
14609SOL     OW55045   3.949   3.170   0.746
14609SOL    HW155046   3.907   3.206   0.663
14609SOL    HW255047   3.881   3.165   0.819
14610SOL     OW55048   6.815   2.914   0.300
14610SOL    HW155049   6.868   2.832   0.324
14610SOL    HW255050   6.875   2.979   0.254
14611SOL     OW55051   1.388   8.613   3.819
14611SOL    HW155052   1.468   8.663   3.786
14611SOL    HW255053   1.412   8.564   3.903
14612SOL     OW55054   0.983   6.201   5.462
14612SOL    HW155055   0.939   6.131   5.406
14612SOL    HW255056   1.034   6.264   5.403
14613SOL     OW55057   9.004   7.379   5.718
14613SOL    HW155058   9.073   7.426   5.774
14613SOL    HW255059   8.942   7.447   5.678
14614SOL     OW55060   7.646   4.714   1.728
14614SOL    HW155061   7.608   4.641   1.670
14614SOL    HW255062   7.732   4.682   1.769
14615SOL     OW55063   5.630   9.272   4.670
14615SOL    HW155064   5.690   9.276   4.750
14615SOL    HW255065   5.601   9.177   4.655
14616SOL     OW55066   2.722   8.998   2.806
14616SOL    HW155067   2.717   8.915   2.861
14616SOL    HW255068   2.638   9.051   2.818
14617SOL     OW55069   0.808   3.433   4.833
14617SOL    HW155070   0.805   3.342   4.875
14617SOL    HW255071   0.876   3.435   4.760
14618SOL     OW55072   0.976   0.693   5.069
14618SOL    HW155073   0.897   0.693   5.130
14618SOL    HW255074   1.030   0.610   5.083
14619SOL     OW55075   0.268   6.201   5.447
14619SOL    HW155076   0.226   6.262   5.515
14619SOL    HW255077   0.367   6.205   5.456
14620SOL     OW55078   9.735   4.109   1.201
14620SOL    HW155079   9.834   4.120   1.211
14620SOL    HW255080   9.711   4.013   1.214
14621SOL     OW55081   6.200   9.150   4.677
14621SOL    HW155082   6.155   9.186   4.759
14621SOL    HW255083   6.154   9.066   4.647
14622SOL     OW55084   0.718   0.983   2.191
14622SOL    HW155085   0.732   0.943   2.281
14622SOL    HW255086   0.656   0.926   2.137
14623SOL     OW55087   3.183   0.814   5.425
14623SOL    HW155088   3.237   0.814   5.508
14623SOL    HW255089   3.136   0.726   5.415
14624SOL     OW55090   0.221   5.380   4.206
14624SOL    HW155091   0.163   5.450   4.163
14624SOL    HW255092   0.259   5.321   4.136
14625SOL     OW55093   2.366   2.705   5.691
14625SOL    HW155094   2.388   2.638   5.762
14625SOL    HW255095   2.447   2.720   5.633
14626SOL     OW55096   4.485   9.501   3.858
14626SOL    HW155097   4.496   9.401   3.854
14626SOL    HW255098   4.434   9.532   3.778
14627SOL     OW55099   4.477   3.854   4.313
14627SOL    HW155100   4.410   3.792   4.352
14627SOL    HW255101   4.442   3.892   4.227
14628SOL     OW55102   4.610   5.386   2.756
14628SOL    HW155103   4.601   5.480   2.725
14628SOL    HW255104   4.694   5.376   2.810
14629SOL     OW55105   7.765   0.879   1.055
14629SOL    HW155106   7.819   0.840   1.129
14629SOL    HW255107   7.826   0.929   0.992
14630SOL     OW55108   9.553   3.589   4.328
14630SOL    HW155109   9.505   3.580   4.241
14630SOL    HW255110   9.569   3.498   4.366
14631SOL     OW55111   7.604   4.079   2.142
14631SOL    HW155112   7.678   4.036   2.090
14631SOL    HW255113   7.577   4.164   2.097
14632SOL     OW55114   0.048   3.708   5.358
14632SOL    HW155115   0.035   3.686   5.455
14632SOL    HW255116   0.058   3.807   5.348
14633SOL     OW55117   2.369   1.772   1.916
14633SOL    HW155118   2.353   1.786   2.014
14633SOL    HW255119   2.285   1.789   1.866
14634SOL     OW55120   5.274   5.709   1.403
14634SOL    HW155121   5.186   5.747   1.373
14634SOL    HW255122   5.346   5.776   1.389
14635SOL     OW55123   1.024   8.617   1.667
14635SOL    HW155124   0.988   8.555   1.598
14635SOL    HW255125   1.117   8.644   1.643
14636SOL     OW55126   5.362   8.374   6.334
14636SOL    HW155127   5.363   8.349   6.237
14636SOL    HW255128   5.456   8.375   6.369
14637SOL     OW55129   7.814   6.829   4.296
14637SOL    HW155130   7.871   6.901   4.257
14637SOL    HW255131   7.845   6.807   4.388
14638SOL     OW55132   8.672   6.675   1.360
14638SOL    HW155133   8.657   6.773   1.368
14638SOL    HW255134   8.622   6.627   1.433
14639SOL     OW55135   5.872   9.780   1.684
14639SOL    HW155136   5.876   9.877   1.660
14639SOL    HW255137   5.779   9.747   1.668
14640SOL     OW55138   0.718   8.848   0.775
14640SOL    HW155139   0.792   8.785   0.796
14640SOL    HW255140   0.668   8.870   0.859
14641SOL     OW55141   4.717   2.019   6.423
14641SOL    HW155142   4.630   1.991   6.383
14641SOL    HW255143   4.791   2.001   6.359
14642SOL     OW55144   0.384   0.015   3.908
14642SOL    HW155145   0.388   0.036   4.005
14642SOL    HW255146   0.464   9.962   3.881
14643SOL     OW55147   1.667   8.999   6.324
14643SOL    HW155148   1.591   9.060   6.344
14643SOL    HW255149   1.749   9.053   6.306
14644SOL     OW55150   0.665   0.410   3.648
14644SOL    HW155151   0.591   0.463   3.690
14644SOL    HW255152   0.742   0.470   3.630
14645SOL     OW55153   7.686   2.830   1.389
14645SOL    HW155154   7.737   2.805   1.471
14645SOL    HW255155   7.644   2.920   1.401
14646SOL     OW55156   1.066   9.664   0.161
14646SOL    HW155157   1.150   9.630   0.118
14646SOL    HW255158   1.081   9.672   0.260
14647SOL     OW55159   4.541   1.113   1.028
14647SOL    HW155160   4.633   1.151   1.040
14647SOL    HW255161   4.511   1.127   0.934
14648SOL     OW55162   2.891   8.492   4.898
14648SOL    HW155163   2.791   8.487   4.896
14648SOL    HW255164   2.919   8.565   4.960
14649SOL     OW55165   9.263   6.305   3.725
14649SOL    HW155166   9.269   6.345   3.816
14649SOL    HW255167   9.329   6.350   3.664
14650SOL     OW55168   4.178   2.865   3.763
14650SOL    HW155169   4.249   2.934   3.779
14650SOL    HW255170   4.088   2.905   3.782
14651SOL     OW55171   9.280   7.564   1.300
14651SOL    HW155172   9.232   7.633   1.354
14651SOL    HW255173   9.286   7.593   1.205
14652SOL     OW55174   0.061   7.281   0.475
14652SOL    HW155175   0.003   7.326   0.543
14652SOL    HW255176   0.143   7.246   0.520
14653SOL     OW55177   7.456   0.830   0.054
14653SOL    HW155178   7.524   0.826   0.128
14653SOL    HW255179   7.397   0.910   0.067
14654SOL     OW55180   9.061   2.222   3.965
14654SOL    HW155181   9.041   2.164   3.885
14654SOL    HW255182   9.159   2.236   3.972
14655SOL     OW55183   5.979   1.095   3.665
14655SOL    HW155184   5.965   1.102   3.764
14655SOL    HW255185   5.979   0.998   3.639
14656SOL     OW55186   7.061   2.102   2.700
14656SOL    HW155187   7.130   2.102   2.773
14656SOL    HW255188   6.973   2.131   2.738
14657SOL     OW55189   4.124   1.209   4.522
14657SOL    HW155190   4.132   1.214   4.621
14657SOL    HW255191   4.208   1.171   4.483
14658SOL     OW55192   7.184   6.435   5.199
14658SOL    HW155193   7.279   6.408   5.187
14658SOL    HW255194   7.127   6.353   5.204
14659SOL     OW55195   8.569   1.073   3.094
14659SOL    HW155196   8.535   1.054   3.002
14659SOL    HW255197   8.515   1.147   3.135
14660SOL     OW55198   6.034   2.389   3.742
14660SOL    HW155199   5.957   2.385   3.678
14660SOL    HW255200   6.001   2.416   3.832
14661SOL     OW55201   2.519   5.744   6.132
14661SOL    HW155202   2.464   5.825   6.115
14661SOL    HW255203   2.590   5.766   6.199
14662SOL     OW55204   5.485   8.623   4.613
14662SOL    HW155205   5.462   8.594   4.706
14662SOL    HW255206   5.405   8.667   4.572
14663SOL     OW55207   7.536   5.126   0.295
14663SOL    HW155208   7.451   5.178   0.302
14663SOL    HW255209   7.517   5.029   0.310
14664SOL     OW55210   0.677   6.777   4.649
14664SOL    HW155211   0.727   6.739   4.571
14664SOL    HW255212   0.710   6.869   4.668
14665SOL     OW55213   8.093   1.179   1.562
14665SOL    HW155214   8.048   1.249   1.506
14665SOL    HW255215   8.035   1.098   1.569
14666SOL     OW55216   9.369   8.594   2.945
14666SOL    HW155217   9.303   8.630   2.879
14666SOL    HW255218   9.406   8.508   2.912
14667SOL     OW55219   9.014   4.226   0.395
14667SOL    HW155220   9.064   4.299   0.441
14667SOL    HW255221   9.047   4.216   0.301
14668SOL     OW55222   5.647   4.887   1.020
14668SOL    HW155223   5.650   4.986   1.034
14668SOL    HW255224   5.582   4.865   0.947
14669SOL     OW55225   0.783   2.514   1.184
14669SOL    HW155226   0.687   2.485   1.176
14669SOL    HW255227   0.811   2.558   1.098
14670SOL     OW55228   4.648   0.229   3.199
14670SOL    HW155229   4.591   0.233   3.117
14670SOL    HW255230   4.590   0.219   3.279
14671SOL     OW55231   8.722   3.968   5.344
14671SOL    HW155232   8.713   3.918   5.258
14671SOL    HW255233   8.759   4.059   5.326
14672SOL     OW55234   9.402   1.556   1.023
14672SOL    HW155235   9.489   1.548   0.975
14672SOL    HW255236   9.395   1.485   1.093
14673SOL     OW55237   4.413   0.912   1.183
14673SOL    HW155238   4.447   0.977   1.115
14673SOL    HW255239   4.486   0.890   1.247
14674SOL     OW55240   1.836   6.518   2.664
14674SOL    HW155241   1.827   6.423   2.692
14674SOL    HW255242   1.752   6.567   2.685
14675SOL     OW55243   4.320   8.479   1.170
14675SOL    HW155244   4.407   8.492   1.218
14675SOL    HW255245   4.254   8.547   1.202
14676SOL     OW55246   6.080   7.781   3.627
14676SOL    HW155247   6.120   7.738   3.546
14676SOL    HW255248   6.034   7.865   3.602
14677SOL     OW55249   0.109   0.012   2.054
14677SOL    HW155250   0.181   0.048   2.113
14677SOL    HW255251   0.044   9.958   2.108
14678SOL     OW55252   2.123   9.590   5.094
14678SOL    HW155253   2.138   9.623   5.001
14678SOL    HW255254   2.047   9.526   5.094
14679SOL     OW55255   1.436   9.409   4.177
14679SOL    HW155256   1.378   9.490   4.172
14679SOL    HW255257   1.393   9.339   4.234
14680SOL     OW55258   2.510   6.247   0.163
14680SOL    HW155259   2.489   6.178   0.232
14680SOL    HW255260   2.568   6.318   0.204
14681SOL     OW55261   7.186   0.083   5.024
14681SOL    HW155262   7.142   9.993   5.016
14681SOL    HW255263   7.205   0.119   4.932
14682SOL     OW55264   3.170   8.038   3.051
14682SOL    HW155265   3.232   8.075   3.120
14682SOL    HW255266   3.179   7.939   3.047
14683SOL     OW55267   9.832   8.565   3.592
14683SOL    HW155268   9.900   8.548   3.519
14683SOL    HW255269   9.866   8.637   3.653
14684SOL     OW55270   8.025   8.534   2.228
14684SOL    HW155271   7.947   8.513   2.287
14684SOL    HW255272   8.093   8.587   2.280
14685SOL     OW55273   9.852   0.825   6.152
14685SOL    HW155274   9.830   0.733   6.119
14685SOL    HW255275   9.949   0.830   6.175
14686SOL     OW55276   0.076   1.898   1.373
14686SOL    HW155277   9.985   1.859   1.363
14686SOL    HW255278   0.095   1.959   1.296
14687SOL     OW55279   3.757   0.298   3.267
14687SOL    HW155280   3.693   0.301   3.190
14687SOL    HW255281   3.794   0.389   3.284
14688SOL     OW55282   1.733   8.499   3.996
14688SOL    HW155283   1.756   8.539   3.907
14688SOL    HW255284   1.727   8.400   3.987
14689SOL     OW55285   9.438   0.257   1.115
14689SOL    HW155286   9.529   0.265   1.076
14689SOL    HW255287   9.445   0.246   1.214
14690SOL     OW55288   2.796   1.909   4.245
14690SOL    HW155289   2.825   1.877   4.155
14690SOL    HW255290   2.700   1.935   4.241
14691SOL     OW55291   3.266   2.719   5.793
14691SOL    HW155292   3.266   2.678   5.884
14691SOL    HW255293   3.223   2.656   5.728
14692SOL     OW55294   4.609   7.023   0.577
14692SOL    HW155295   4.516   7.058   0.583
14692SOL    HW255296   4.672   7.087   0.621
14693SOL     OW55297   4.693   8.236   3.723
14693SOL    HW155298   4.754   8.159   3.712
14693SOL    HW255299   4.717   8.309   3.659
14694SOL     OW55300   2.739   8.081   1.171
14694SOL    HW155301   2.648   8.090   1.132
14694SOL    HW255302   2.732   8.053   1.267
14695SOL     OW55303   9.856   9.454   4.223
14695SOL    HW155304   9.900   9.518   4.159
14695SOL    HW255305   9.882   9.360   4.200
14696SOL     OW55306   3.221   8.235   1.042
14696SOL    HW155307   3.143   8.177   1.063
14696SOL    HW255308   3.274   8.251   1.126
14697SOL     OW55309   3.844   0.965   0.694
14697SOL    HW155310   3.940   0.942   0.706
14697SOL    HW255311   3.834   1.029   0.618
14698SOL     OW55312   9.079   0.914   5.968
14698SOL    HW155313   8.983   0.929   5.992
14698SOL    HW255314   9.134   0.918   6.051
14699SOL     OW55315   3.839   1.495   3.115
14699SOL    HW155316   3.807   1.424   3.052
14699SOL    HW255317   3.762   1.533   3.165
14700SOL     OW55318   4.941   0.849   5.246
14700SOL    HW155319   4.927   0.751   5.230
14700SOL    HW255320   4.852   0.894   5.248
14701SOL     OW55321   4.686   4.439   5.821
14701SOL    HW155322   4.748   4.376   5.867
14701SOL    HW255323   4.663   4.403   5.730
14702SOL     OW55324   8.992   5.532   5.653
14702SOL    HW155325   9.044   5.448   5.638
14702SOL    HW255326   8.949   5.561   5.568
14703SOL     OW55327   5.741   8.875   4.238
14703SOL    HW155328   5.675   8.851   4.310
14703SOL    HW255329   5.810   8.803   4.230
14704SOL     OW55330   0.538   5.325   6.337
14704SOL    HW155331   0.594   5.242   6.336
14704SOL    HW255332   0.446   5.303   6.370
14705SOL     OW55333   8.544   0.193   2.177
14705SOL    HW155334   8.623   0.238   2.135
14705SOL    HW255335   8.462   0.215   2.126
14706SOL     OW55336   1.026   3.628   3.011
14706SOL    HW155337   1.022   3.726   2.989
14706SOL    HW255338   0.959   3.607   3.082
14707SOL     OW55339   9.299   0.803   4.554
14707SOL    HW155340   9.372   0.809   4.622
14707SOL    HW255341   9.331   0.751   4.475
14708SOL     OW55342   3.497   8.262   4.576
14708SOL    HW155343   3.557   8.221   4.644
14708SOL    HW255344   3.424   8.198   4.552
14709SOL     OW55345   1.085   9.820   0.408
14709SOL    HW155346   1.005   9.847   0.461
14709SOL    HW255347   1.086   9.870   0.321
14710SOL     OW55348   2.766   3.823   0.998
14710SOL    HW155349   2.695   3.893   0.997
14710SOL    HW255350   2.728   3.737   1.032
14711SOL     OW55351   9.946   5.510   3.144
14711SOL    HW155352   9.923   5.428   3.196
14711SOL    HW255353   0.006   5.486   3.068
14712SOL     OW55354   4.254   1.879   4.627
14712SOL    HW155355   4.221   1.942   4.557
14712SOL    HW255356   4.325   1.925   4.682
14713SOL     OW55357   0.647   3.826   2.760
14713SOL    HW155358   0.653   3.783   2.670
14713SOL    HW255359   0.667   3.758   2.831
14714SOL     OW55360   2.907   5.101   2.998
14714SOL    HW155361   2.894   5.009   3.035
14714SOL    HW255362   2.825   5.129   2.948
14715SOL     OW55363   3.390   1.484   3.325
14715SOL    HW155364   3.331   1.507   3.247
14715SOL    HW255365   3.334   1.471   3.406
14716SOL     OW55366   3.600   1.289   5.991
14716SOL    HW155367   3.581   1.193   5.970
14716SOL    HW255368   3.691   1.297   6.030
14717SOL     OW55369   5.699   0.225   2.967
14717SOL    HW155370   5.657   0.225   3.058
14717SOL    HW255371   5.627   0.227   2.897
14718SOL     OW55372   2.902   9.221   2.860
14718SOL    HW155373   2.843   9.252   2.935
14718SOL    HW255374   2.862   9.140   2.818
14719SOL     OW55375   3.308   2.040   2.064
14719SOL    HW155376   3.210   2.053   2.049
14719SOL    HW255377   3.335   1.951   2.028
14720SOL     OW55378   3.772   1.282   2.943
14720SOL    HW155379   3.720   1.228   3.008
14720SOL    HW255380   3.746   1.256   2.850
14721SOL     OW55381   5.492   1.760   5.053
14721SOL    HW155382   5.509   1.740   4.956
14721SOL    HW255383   5.407   1.715   5.082
14722SOL     OW55384   2.739   0.369   0.085
14722SOL    HW155385   2.690   0.341   0.003
14722SOL    HW255386   2.834   0.339   0.080
14723SOL     OW55387   8.687   2.976   2.955
14723SOL    HW155388   8.691   3.072   2.927
14723SOL    HW255389   8.634   2.968   3.039
14724SOL     OW55390   5.856   1.347   3.641
14724SOL    HW155391   5.926   1.411   3.609
14724SOL    HW255392   5.893   1.254   3.640
14725SOL     OW55393   8.248   3.798   4.648
14725SOL    HW155394   8.220   3.838   4.736
14725SOL    HW255395   8.347   3.808   4.638
14726SOL     OW55396   9.300   6.487   0.060
14726SOL    HW155397   9.398   6.485   0.043
14726SOL    HW255398   9.262   6.574   0.028
14727SOL     OW55399   9.147   5.221   6.018
14727SOL    HW155400   9.229   5.275   5.999
14727SOL    HW255401   9.108   5.249   6.106
14728SOL     OW55402   8.077   8.629   2.964
14728SOL    HW155403   8.012   8.699   2.935
14728SOL    HW255404   8.149   8.619   2.896
14729SOL     OW55405   3.939   5.781   2.786
14729SOL    HW155406   3.862   5.723   2.759
14729SOL    HW255407   3.973   5.752   2.875
14730SOL     OW55408   6.401   9.580   2.132
14730SOL    HW155409   6.326   9.517   2.153
14730SOL    HW255410   6.379   9.671   2.166
14731SOL     OW55411   9.199   6.702   4.348
14731SOL    HW155412   9.117   6.758   4.363
14731SOL    HW255413   9.264   6.718   4.423
14732SOL     OW55414   2.683   3.288   3.831
14732SOL    HW155415   2.593   3.334   3.832
14732SOL    HW255416   2.674   3.197   3.871
14733SOL     OW55417   8.040   0.377   1.211
14733SOL    HW155418   8.026   0.414   1.120
14733SOL    HW255419   8.026   0.278   1.210
14734SOL     OW55420   8.500   6.201   4.209
14734SOL    HW155421   8.548   6.116   4.228
14734SOL    HW255422   8.401   6.183   4.205
14735SOL     OW55423   1.474   6.059   4.908
14735SOL    HW155424   1.567   6.021   4.904
14735SOL    HW255425   1.460   6.120   4.830
14736SOL     OW55426   1.575   9.494   2.210
14736SOL    HW155427   1.657   9.539   2.245
14736SOL    HW255428   1.589   9.395   2.208
14737SOL     OW55429   0.976   6.505   2.639
14737SOL    HW155430   0.925   6.427   2.601
14737SOL    HW255431   1.055   6.471   2.689
14738SOL     OW55432   6.775   1.530   0.503
14738SOL    HW155433   6.703   1.599   0.512
14738SOL    HW255434   6.832   1.530   0.585
14739SOL     OW55435   4.570   9.651   1.935
14739SOL    HW155436   4.568   9.596   2.018
14739SOL    HW255437   4.544   9.594   1.857
14740SOL     OW55438   3.255   1.052   1.915
14740SOL    HW155439   3.193   1.126   1.941
14740SOL    HW255440   3.211   0.994   1.846
14741SOL     OW55441   1.129   9.569   1.960
14741SOL    HW155442   1.153   9.640   1.895
14741SOL    HW255443   1.210   9.546   2.015
14742SOL     OW55444   6.152   4.868   2.122
14742SOL    HW155445   6.214   4.935   2.081
14742SOL    HW255446   6.198   4.822   2.198
14743SOL     OW55447   7.812   6.069   1.741
14743SOL    HW155448   7.746   6.136   1.777
14743SOL    HW255449   7.836   6.094   1.647
14744SOL     OW55450   0.007   4.227   1.519
14744SOL    HW155451   0.087   4.268   1.563
14744SOL    HW255452   9.925   4.279   1.545
14745SOL     OW55453   9.278   6.859   3.031
14745SOL    HW155454   9.275   6.943   2.977
14745SOL    HW255455   9.303   6.783   2.971
14746SOL     OW55456   1.502   1.981   3.218
14746SOL    HW155457   1.520   1.952   3.311
14746SOL    HW255458   1.526   2.078   3.207
14747SOL     OW55459   1.856   2.555   5.326
14747SOL    HW155460   1.887   2.480   5.385
14747SOL    HW255461   1.775   2.526   5.276
14748SOL     OW55462   0.140   9.068   2.351
14748SOL    HW155463   0.170   9.099   2.261
14748SOL    HW255464   0.171   8.974   2.366
14749SOL     OW55465   4.797   2.210   1.280
14749SOL    HW155466   4.803   2.146   1.203
14749SOL    HW255467   4.703   2.242   1.290
14750SOL     OW55468   3.573   2.454   5.473
14750SOL    HW155469   3.603   2.541   5.512
14750SOL    HW255470   3.636   2.381   5.500
14751SOL     OW55471   8.282   3.129   4.541
14751SOL    HW155472   8.238   3.069   4.608
14751SOL    HW255473   8.350   3.076   4.490
14752SOL     OW55474   3.356   2.831   3.233
14752SOL    HW155475   3.366   2.805   3.329
14752SOL    HW255476   3.322   2.926   3.228
14753SOL     OW55477   4.375   2.859   1.959
14753SOL    HW155478   4.392   2.839   2.055
14753SOL    HW255479   4.308   2.934   1.951
14754SOL     OW55480   7.630   2.038   5.320
14754SOL    HW155481   7.643   2.099   5.398
14754SOL    HW255482   7.566   1.965   5.345
14755SOL     OW55483   4.369   8.983   6.058
14755SOL    HW155484   4.403   9.067   6.100
14755SOL    HW255485   4.348   9.001   5.961
14756SOL     OW55486   3.211   9.070   0.155
14756SOL    HW155487   3.164   9.158   0.164
14756SOL    HW255488   3.144   8.996   0.155
14757SOL     OW55489   6.614   9.879   1.402
14757SOL    HW155490   6.685   9.933   1.447
14757SOL    HW255491   6.637   9.866   1.306
14758SOL     OW55492   9.651   1.525   0.911
14758SOL    HW155493   9.692   1.616   0.915
14758SOL    HW255494   9.689   1.475   0.834
14759SOL     OW55495   1.645   1.776   5.485
14759SOL    HW155496   1.653   1.813   5.578
14759SOL    HW255497   1.736   1.763   5.446
14760SOL     OW55498   1.082   7.529   8.185
14760SOL    HW155499   1.133   7.450   0.032
14760SOL    HW255500   0.989   7.527   0.034
14761SOL     OW55501   2.592   2.418   5.642
14761SOL    HW155502   2.549   2.388   5.557
14761SOL    HW255503   2.655   2.346   5.674
14762SOL     OW55504   1.531   0.269   5.874
14762SOL    HW155505   1.627   0.260   5.900
14762SOL    HW255506   1.524   0.313   5.785
14763SOL     OW55507   3.655   9.020   5.055
14763SOL    HW155508   3.647   9.010   4.956
14763SOL    HW255509   3.583   9.080   5.089
14764SOL     OW55510   0.644   7.490   6.301
14764SOL    HW155511   0.598   7.402   6.292
14764SOL    HW255512   0.742   7.475   6.315
14765SOL     OW55513   0.597   0.265   2.402
14765SOL    HW155514   0.663   0.190   2.403
14765SOL    HW255515   0.646   0.352   2.410
14766SOL     OW55516   2.052   0.106   4.137
14766SOL    HW155517   2.130   0.168   4.141
14766SOL    HW255518   2.001   0.123   4.053
14767SOL     OW55519   9.097   3.949   3.890
14767SOL    HW155520   9.074   3.935   3.794
14767SOL    HW255521   9.017   3.928   3.947
14768SOL     OW55522   8.276   0.139   0.031
14768SOL    HW155523   8.321   0.101   8.139
14768SOL    HW255524   8.279   0.238   0.028
14769SOL     OW55525   3.522   4.596   1.671
14769SOL    HW155526   3.562   4.635   1.588
14769SOL    HW255527   3.596   4.568   1.733
14770SOL     OW55528   0.728   0.860   1.659
14770SOL    HW155529   0.791   0.831   1.587
14770SOL    HW255530   0.750   0.954   1.685
14771SOL     OW55531   2.599   5.004   1.854
14771SOL    HW155532   2.629   4.914   1.823
14771SOL    HW255533   2.508   5.023   1.819
14772SOL     OW55534   4.468   5.866   2.771
14772SOL    HW155535   4.515   5.785   2.738
14772SOL    HW255536   4.370   5.857   2.755
14773SOL     OW55537   2.847   5.186   4.085
14773SOL    HW155538   2.839   5.086   4.091
14773SOL    HW255539   2.893   5.221   4.167
14774SOL     OW55540   2.479   0.876   1.972
14774SOL    HW155541   2.516   0.942   1.907
14774SOL    HW255542   2.536   0.793   1.972
14775SOL     OW55543   2.653   2.162   5.491
14775SOL    HW155544   2.603   2.228   5.435
14775SOL    HW255545   2.698   2.096   5.432
14776SOL     OW55546   0.530   2.637   2.488
14776SOL    HW155547   0.452   2.696   2.509
14776SOL    HW255548   0.548   2.639   2.390
14777SOL     OW55549   4.625   9.580   5.714
14777SOL    HW155550   4.637   9.527   5.631
14777SOL    HW255551   4.692   9.551   5.782
14778SOL     OW55552   0.095   8.111   2.713
14778SOL    HW155553   0.172   8.100   2.651
14778SOL    HW255554   0.076   8.025   2.760
14779SOL     OW55555   6.113   3.000   0.156
14779SOL    HW155556   6.112   3.014   0.255
14779SOL    HW255557   6.192   3.049   0.117
14780SOL     OW55558   2.615   4.245   4.330
14780SOL    HW155559   2.607   4.249   4.230
14780SOL    HW255560   2.577   4.159   4.363
14781SOL     OW55561   8.258   0.507   5.348
14781SOL    HW155562   8.235   0.426   5.294
14781SOL    HW255563   8.324   0.562   5.298
14782SOL     OW55564   4.474   4.654   5.352
14782SOL    HW155565   4.464   4.637   5.254
14782SOL    HW255566   4.571   4.645   5.377
14783SOL     OW55567   8.431   3.294   0.396
14783SOL    HW155568   8.506   3.353   0.365
14783SOL    HW255569   8.367   3.280   0.321
14784SOL     OW55570   6.498   8.620   3.778
14784SOL    HW155571   6.517   8.598   3.873
14784SOL    HW255572   6.535   8.710   3.756
14785SOL     OW55573   1.453   9.720   0.668
14785SOL    HW155574   1.436   9.716   0.767
14785SOL    HW255575   1.524   9.653   0.645
14786SOL     OW55576   5.857   9.211   4.220
14786SOL    HW155577   5.781   9.253   4.270
14786SOL    HW255578   5.821   9.152   4.148
14787SOL     OW55579   3.770   4.291   5.841
14787SOL    HW155580   3.832   4.369   5.844
14787SOL    HW255581   3.755   4.257   5.934
14788SOL     OW55582   9.821   6.433   4.064
14788SOL    HW155583   9.728   6.397   4.061
14788SOL    HW255584   9.869   6.408   3.979
14789SOL     OW55585   5.149   8.778   2.200
14789SOL    HW155586   5.070   8.723   2.177
14789SOL    HW255587   5.174   8.836   2.122
14790SOL     OW55588   9.707   1.566   3.377
14790SOL    HW155589   9.614   1.555   3.411
14790SOL    HW255590   9.706   1.583   3.279
14791SOL     OW55591   0.564   4.932   4.987
14791SOL    HW155592   0.573   4.836   5.012
14791SOL    HW255593   0.480   4.969   5.024
14792SOL     OW55594   0.663   3.639   2.961
14792SOL    HW155595   0.682   3.572   2.889
14792SOL    HW255596   0.623   3.592   3.040
14793SOL     OW55597   4.034   7.504   5.690
14793SOL    HW155598   4.069   7.416   5.657
14793SOL    HW255599   4.013   7.562   5.612
14794SOL     OW55600   0.027   0.341   1.806
14794SOL    HW155601   9.987   0.286   1.879
14794SOL    HW255602   9.986   0.316   1.719
14795SOL     OW55603   3.842   2.521   1.753
14795SOL    HW155604   3.877   2.571   1.674
14795SOL    HW255605   3.897   2.439   1.768
14796SOL     OW55606   9.740   4.032   4.560
14796SOL    HW155607   9.683   4.037   4.642
14796SOL    HW255608   9.733   3.940   4.520
14797SOL     OW55609   0.942   1.835   5.701
14797SOL    HW155610   0.940   1.746   5.656
14797SOL    HW255611   0.848   1.867   5.715
14798SOL     OW55612   3.729   1.687   3.893
14798SOL    HW155613   3.733   1.588   3.899
14798SOL    HW255614   3.784   1.718   3.816
14799SOL     OW55615   2.173   0.480   2.689
14799SOL    HW155616   2.195   0.577   2.675
14799SOL    HW255617   2.255   0.425   2.674
14800SOL     OW55618   8.141   2.802   2.706
14800SOL    HW155619   8.086   2.864   2.650
14800SOL    HW255620   8.238   2.826   2.697
14801SOL     OW55621   0.113   3.274   1.612
14801SOL    HW155622   0.124   3.372   1.597
14801SOL    HW255623   0.122   3.225   1.525
14802SOL     OW55624   2.652   8.220   0.104
14802SOL    HW155625   2.686   8.149   0.042
14802SOL    HW255626   2.662   8.188   0.199
14803SOL     OW55627   4.689   9.781   4.065
14803SOL    HW155628   4.706   9.754   4.160
14803SOL    HW255629   4.774   9.772   4.012
14804SOL     OW55630   3.972   1.640   2.638
14804SOL    HW155631   4.030   1.708   2.593
14804SOL    HW255632   4.024   1.555   2.651
14805SOL     OW55633   7.740   3.680   4.435
14805SOL    HW155634   7.798   3.604   4.465
14805SOL    HW255635   7.750   3.756   4.499
14806SOL     OW55636   2.822   6.937   3.126
14806SOL    HW155637   2.911   6.902   3.154
14806SOL    HW255638   2.816   6.938   3.027
14807SOL     OW55639   3.289   1.751   2.820
14807SOL    HW155640   3.203   1.723   2.777
14807SOL    HW255641   3.336   1.816   2.762
14808SOL     OW55642   0.931   5.833   2.454
14808SOL    HW155643   0.844   5.813   2.410
14808SOL    HW255644   1.006   5.793   2.400
14809SOL     OW55645   9.796   7.007   4.732
14809SOL    HW155646   9.895   7.020   4.740
14809SOL    HW255647   9.769   7.017   4.637
14810SOL     OW55648   9.456   4.556   0.953
14810SOL    HW155649   9.358   4.537   0.948
14810SOL    HW255650   9.490   4.533   1.044
14811SOL     OW55651   1.174   7.200   4.617
14811SOL    HW155652   1.088   7.248   4.598
14811SOL    HW255653   1.164   7.103   4.592
14812SOL     OW55654   2.270   3.888   1.162
14812SOL    HW155655   2.237   3.800   1.130
14812SOL    HW255656   2.262   3.892   1.262
14813SOL     OW55657   0.444   6.968   1.664
14813SOL    HW155658   0.487   6.880   1.684
14813SOL    HW255659   0.513   7.031   1.628
14814SOL     OW55660   5.569   8.739   3.957
14814SOL    HW155661   5.592   8.792   3.876
14814SOL    HW255662   5.614   8.649   3.953
14815SOL     OW55663   1.606   5.675   3.604
14815SOL    HW155664   1.539   5.736   3.562
14815SOL    HW255665   1.697   5.714   3.592
14816SOL     OW55666   0.170   9.512   1.234
14816SOL    HW155667   0.129   9.439   1.289
14816SOL    HW255668   0.217   9.576   1.295
14817SOL     OW55669   9.363   6.634   2.883
14817SOL    HW155670   9.410   6.654   2.797
14817SOL    HW255671   9.418   6.573   2.939
14818SOL     OW55672   8.612   3.771   5.500
14818SOL    HW155673   8.654   3.840   5.442
14818SOL    HW255674   8.640   3.680   5.469
14819SOL     OW55675   3.433   5.626   2.677
14819SOL    HW155676   3.369   5.637   2.753
14819SOL    HW255677   3.405   5.685   2.601
14820SOL     OW55678   0.007   6.296   1.121
14820SOL    HW155679   0.068   6.352   1.177
14820SOL    HW255680   9.923   6.278   1.171
14821SOL     OW55681   4.768   8.845   6.193
14821SOL    HW155682   4.751   8.911   6.267
14821SOL    HW255683   4.682   8.800   6.168
14822SOL     OW55684   0.011   9.306   0.096
14822SOL    HW155685   0.057   9.300   0.184
14822SOL    HW255686   0.067   9.264   0.025
14823SOL     OW55687   9.518   7.318   3.416
14823SOL    HW155688   9.479   7.273   3.496
14823SOL    HW255689   9.616   7.334   3.431
14824SOL     OW55690   9.316   7.366   5.454
14824SOL    HW155691   9.286   7.274   5.478
14824SOL    HW255692   9.382   7.362   5.379
14825SOL     OW55693   6.473   0.074   3.314
14825SOL    HW155694   6.459   0.007   3.387
14825SOL    HW255695   6.434   0.162   3.341
14826SOL     OW55696   7.297   6.073   6.122
14826SOL    HW155697   7.334   6.135   6.053
14826SOL    HW255698   7.337   6.095   6.211
14827SOL     OW55699   9.440   2.419   0.528
14827SOL    HW155700   9.401   2.329   0.509
14827SOL    HW255701   9.417   2.448   0.621
14828SOL     OW55702   0.501   0.931   1.017
14828SOL    HW155703   0.512   0.923   0.917
14828SOL    HW255704   0.488   0.839   1.055
14829SOL     OW55705   7.578   1.261   0.597
14829SOL    HW155706   7.652   1.327   0.609
14829SOL    HW255707   7.611   1.170   0.622
14830SOL     OW55708   6.952   9.113   2.334
14830SOL    HW155709   6.908   9.109   2.244
14830SOL    HW255710   6.934   9.202   2.376
14831SOL     OW55711   7.050   4.181   1.987
14831SOL    HW155712   7.041   4.111   1.916
14831SOL    HW255713   7.140   4.223   1.979
14832SOL     OW55714   7.273   1.531   1.534
14832SOL    HW155715   7.198   1.530   1.600
14832SOL    HW255716   7.294   1.626   1.510
14833SOL     OW55717   6.998   4.835   2.381
14833SOL    HW155718   7.077   4.795   2.427
14833SOL    HW255719   7.029   4.901   2.313
14834SOL     OW55720   9.870   4.246   3.007
14834SOL    HW155721   9.823   4.160   2.990
14834SOL    HW255722   9.864   4.303   2.925
14835SOL     OW55723   6.194   8.564   5.296
14835SOL    HW155724   6.227   8.472   5.317
14835SOL    HW255725   6.131   8.594   5.368
14836SOL     OW55726   9.771   7.231   5.242
14836SOL    HW155727   9.851   7.279   5.208
14836SOL    HW255728   9.749   7.155   5.181
14837SOL     OW55729   9.397   7.211   3.637
14837SOL    HW155730   9.368   7.278   3.706
14837SOL    HW255731   9.467   7.152   3.677
14838SOL     OW55732   9.932   6.823   6.331
14838SOL    HW155733   9.918   6.734   6.374
14838SOL    HW255734   9.890   6.823   6.241
14839SOL     OW55735   1.341   5.955   3.796
14839SOL    HW155736   1.250   5.992   3.777
14839SOL    HW255737   1.365   5.973   3.891
14840SOL     OW55738   4.628   3.411   3.598
14840SOL    HW155739   4.715   3.460   3.602
14840SOL    HW255740   4.593   3.413   3.504
14841SOL     OW55741   6.684   2.399   1.905
14841SOL    HW155742   6.660   2.474   1.967
14841SOL    HW255743   6.769   2.422   1.857
14842SOL     OW55744   1.960   9.057   3.618
14842SOL    HW155745   1.995   9.135   3.670
14842SOL    HW255746   2.005   9.053   3.529
14843SOL     OW55747   9.528   5.495   5.402
14843SOL    HW155748   9.528   5.395   5.402
14843SOL    HW255749   9.503   5.529   5.311
14844SOL     OW55750   9.231   0.089   1.045
14844SOL    HW155751   9.305   0.152   1.064
14844SOL    HW255752   9.161   0.135   0.989
14845SOL     OW55753   4.316   1.599   1.678
14845SOL    HW155754   4.312   1.526   1.747
14845SOL    HW255755   4.411   1.616   1.652
14846SOL     OW55756   9.794   1.510   6.030
14846SOL    HW155757   9.771   1.413   6.040
14846SOL    HW255758   9.781   1.537   5.934
14847SOL     OW55759   5.396   9.729   3.770
14847SOL    HW155760   5.481   9.683   3.745
14847SOL    HW255761   5.384   9.726   3.869
14848SOL     OW55762   1.208   3.751   4.034
14848SOL    HW155763   1.138   3.685   4.062
14848SOL    HW255764   1.164   3.840   4.017
14849SOL     OW55765   4.923   3.846   4.961
14849SOL    HW155766   4.845   3.800   4.918
14849SOL    HW255767   4.938   3.934   4.917
14850SOL     OW55768   2.631   4.982   1.321
14850SOL    HW155769   2.579   4.961   1.238
14850SOL    HW255770   2.604   5.072   1.355
14851SOL     OW55771   3.161   4.646   0.789
14851SOL    HW155772   3.135   4.727   0.842
14851SOL    HW255773   3.095   4.573   0.804
14852SOL     OW55774   3.754   8.614   5.362
14852SOL    HW155775   3.744   8.536   5.299
14852SOL    HW255776   3.848   8.646   5.360
14853SOL     OW55777   1.529   9.430   3.057
14853SOL    HW155778   1.477   9.494   3.114
14853SOL    HW255779   1.498   9.337   3.074
14854SOL     OW55780   4.005   7.545   6.185
14854SOL    HW155781   3.953   7.623   6.221
14854SOL    HW255782   4.028   7.562   6.089
14855SOL     OW55783   8.870   8.825   4.566
14855SOL    HW155784   8.918   8.824   4.653
14855SOL    HW255785   8.817   8.910   4.559
14856SOL     OW55786   3.957   3.189   3.320
14856SOL    HW155787   3.956   3.227   3.228
14856SOL    HW255788   4.028   3.120   3.327
14857SOL     OW55789   8.330   0.874   2.223
14857SOL    HW155790   8.266   0.845   2.295
14857SOL    HW255791   8.358   0.793   2.170
14858SOL     OW55792   4.751   0.891   4.135
14858SOL    HW155793   4.673   0.845   4.179
14858SOL    HW255794   4.830   0.887   4.196
14859SOL     OW55795   5.237   1.027   6.256
14859SOL    HW155796   5.155   1.047   6.202
14859SOL    HW255797   5.297   1.106   6.256
14860SOL     OW55798   9.098   8.799   5.253
14860SOL    HW155799   9.012   8.748   5.252
14860SOL    HW255800   9.104   8.853   5.337
14861SOL     OW55801   1.163   8.911   5.573
14861SOL    HW155802   1.071   8.939   5.546
14861SOL    HW255803   1.160   8.875   5.667
14862SOL     OW55804   8.425   9.469   1.808
14862SOL    HW155805   8.504   9.479   1.748
14862SOL    HW255806   8.455   9.429   1.895
14863SOL     OW55807   1.686   7.910   2.271
14863SOL    HW155808   1.633   7.891   2.189
14863SOL    HW255809   1.770   7.856   2.269
14864SOL     OW55810   9.463   2.337   5.388
14864SOL    HW155811   9.411   2.422   5.393
14864SOL    HW255812   9.561   2.358   5.388
14865SOL     OW55813   6.773   2.639   1.016
14865SOL    HW155814   6.676   2.622   0.999
14865SOL    HW255815   6.811   2.564   1.070
14866SOL     OW55816   2.777   7.266   2.823
14866SOL    HW155817   2.824   7.315   2.897
14866SOL    HW255818   2.845   7.232   2.758
14867SOL     OW55819   4.099   7.907   3.801
14867SOL    HW155820   4.125   8.004   3.799
14867SOL    HW255821   4.093   7.877   3.896
14868SOL     OW55822   0.793   8.429   4.127
14868SOL    HW155823   0.819   8.339   4.162
14868SOL    HW255824   0.870   8.469   4.077
14869SOL     OW55825   8.569   1.096   0.552
14869SOL    HW155826   8.532   1.077   0.643
14869SOL    HW255827   8.605   1.012   0.513
14870SOL     OW55828   0.567   9.537   0.854
14870SOL    HW155829   0.612   9.626   0.869
14870SOL    HW255830   0.494   9.525   0.920
14871SOL     OW55831   3.365   9.663   1.777
14871SOL    HW155832   3.425   9.604   1.832
14871SOL    HW255833   3.314   9.607   1.712
14872SOL     OW55834   3.069   1.662   2.690
14872SOL    HW155835   3.031   1.586   2.744
14872SOL    HW255836   3.054   1.644   2.593
14873SOL     OW55837   9.629   4.633   3.060
14873SOL    HW155838   9.569   4.607   3.135
14873SOL    HW255839   9.612   4.575   2.981
14874SOL     OW55840   4.360   5.875   3.312
14874SOL    HW155841   4.442   5.910   3.357
14874SOL    HW255842   4.296   5.842   3.381
14875SOL     OW55843   9.693   6.333   2.437
14875SOL    HW155844   9.761   6.393   2.395
14875SOL    HW255845   9.720   6.312   2.531
14876SOL     OW55846   0.948   3.498   1.422
14876SOL    HW155847   0.928   3.451   1.337
14876SOL    HW255848   0.980   3.591   1.403
14877SOL     OW55849   3.450   6.163   3.524
14877SOL    HW155850   3.497   6.181   3.611
14877SOL    HW255851   3.517   6.158   3.450
14878SOL     OW55852   3.352   6.660   5.646
14878SOL    HW155853   3.353   6.732   5.577
14878SOL    HW255854   3.376   6.573   5.603
14879SOL     OW55855   1.145   5.479   5.700
14879SOL    HW155856   1.118   5.566   5.741
14879SOL    HW255857   1.139   5.486   5.600
14880SOL     OW55858   3.851   6.356   0.931
14880SOL    HW155859   3.938   6.329   0.888
14880SOL    HW255860   3.864   6.358   1.030
14881SOL     OW55861   2.457   9.734   0.763
14881SOL    HW155862   2.480   9.638   0.748
14881SOL    HW255863   2.486   9.788   0.685
14882SOL     OW55864   4.702   2.470   0.738
14882SOL    HW155865   4.711   2.569   0.750
14882SOL    HW255866   4.674   2.450   0.644
14883SOL     OW55867   1.889   3.539   4.809
14883SOL    HW155868   1.874   3.634   4.785
14883SOL    HW255869   1.932   3.534   4.899
14884SOL     OW55870   7.538   5.277   6.300
14884SOL    HW155871   7.489   5.239   6.379
14884SOL    HW255872   7.636   5.263   6.311
14885SOL     OW55873   1.678   5.508   6.251
14885SOL    HW155874   1.751   5.489   6.316
14885SOL    HW255875   1.603   5.443   6.264
14886SOL     OW55876   9.219   3.526   2.970
14886SOL    HW155877   9.214   3.491   3.063
14886SOL    HW255878   9.284   3.603   2.967
14887SOL     OW55879   0.019   1.841   6.282
14887SOL    HW155880   9.924   1.860   6.310
14887SOL    HW255881   0.023   1.753   6.235
14888SOL     OW55882   0.351   6.864   3.807
14888SOL    HW155883   0.375   6.827   3.718
14888SOL    HW255884   0.330   6.789   3.870
14889SOL     OW55885   1.749   3.111   6.211
14889SOL    HW155886   1.755   3.152   6.121
14889SOL    HW255887   1.750   3.183   6.281
14890SOL     OW55888   1.081   0.737   0.109
14890SOL    HW155889   1.180   0.718   0.109
14890SOL    HW255890   1.060   0.804   0.180
14891SOL     OW55891   4.324   8.089   4.467
14891SOL    HW155892   4.362   8.116   4.379
14891SOL    HW255893   4.242   8.143   4.486
14892SOL     OW55894   0.379   2.118   5.294
14892SOL    HW155895   0.303   2.179   5.275
14892SOL    HW255896   0.406   2.127   5.390
14893SOL     OW55897   3.102   5.806   5.719
14893SOL    HW155898   3.036   5.749   5.670
14893SOL    HW255899   3.191   5.760   5.720
14894SOL     OW55900   7.891   4.058   6.110
14894SOL    HW155901   7.897   3.962   6.139
14894SOL    HW255902   7.898   4.117   6.189
14895SOL     OW55903   2.698   8.979   4.549
14895SOL    HW155904   2.754   8.898   4.566
14895SOL    HW255905   2.602   8.952   4.542
14896SOL     OW55906   0.860   0.138   5.433
14896SOL    HW155907   0.850   0.209   5.503
14896SOL    HW255908   0.918   0.065   5.468
14897SOL     OW55909   7.916   4.635   1.802
14897SOL    HW155910   7.934   4.566   1.732
14897SOL    HW255911   7.962   4.721   1.778
14898SOL     OW55912   9.369   3.815   0.123
14898SOL    HW155913   9.463   3.789   0.099
14898SOL    HW255914   9.362   3.915   0.124
14899SOL     OW55915   0.714   9.040   2.381
14899SOL    HW155916   0.716   9.079   2.288
14899SOL    HW255917   0.638   8.976   2.388
14900SOL     OW55918   5.885   9.461   2.872
14900SOL    HW155919   5.953   9.479   2.944
14900SOL    HW255920   5.914   9.381   2.819
14901SOL     OW55921   0.519   2.425   1.129
14901SOL    HW155922   0.433   2.418   1.177
14901SOL    HW255923   0.532   2.345   1.071
14902SOL     OW55924   8.711   1.662   1.856
14902SOL    HW155925   8.748   1.730   1.792
14902SOL    HW255926   8.701   1.575   1.809
14903SOL     OW55927   4.669   6.021   2.318
14903SOL    HW155928   4.649   5.970   2.235
14903SOL    HW255929   4.753   5.986   2.360
14904SOL     OW55930   9.999   9.957   0.751
14904SOL    HW155931   0.076   9.945   0.813
14904SOL    HW255932   0.032   9.965   0.657
14905SOL     OW55933   9.154   4.980   4.021
14905SOL    HW155934   9.072   4.961   3.966
14905SOL    HW255935   9.224   4.912   4.000
14906SOL     OW55936   4.692   5.926   2.926
14906SOL    HW155937   4.668   6.000   2.989
14906SOL    HW255938   4.612   5.902   2.871
14907SOL     OW55939   7.520   8.317   5.828
14907SOL    HW155940   7.549   8.351   5.738
14907SOL    HW255941   7.533   8.389   5.896
14908SOL     OW55942   9.899   9.949   3.606
14908SOL    HW155943   9.901   9.884   3.682
14908SOL    HW255944   9.899   9.898   3.520
14909SOL     OW55945   1.757   3.806   1.234
14909SOL    HW155946   1.693   3.731   1.250
14909SOL    HW255947   1.819   3.782   1.159
14910SOL     OW55948   0.714   4.430   5.798
14910SOL    HW155949   0.808   4.436   5.832
14910SOL    HW255950   0.683   4.335   5.802
14911SOL     OW55951   7.768   6.981   5.217
14911SOL    HW155952   7.747   7.058   5.278
14911SOL    HW255953   7.864   6.988   5.187
14912SOL     OW55954   8.013   1.729   2.014
14912SOL    HW155955   7.996   1.828   2.008
14912SOL    HW255956   7.938   1.680   1.971
14913SOL     OW55957   1.235   9.087   1.920
14913SOL    HW155958   1.148   9.047   1.890
14913SOL    HW255959   1.261   9.159   1.857
14914SOL     OW55960   6.723   7.736   3.234
14914SOL    HW155961   6.742   7.643   3.203
14914SOL    HW255962   6.809   7.781   3.258
14915SOL     OW55963   1.984   3.318   0.077
14915SOL    HW155964   2.064   3.310   0.017
14915SOL    HW255965   2.008   3.284   0.169
14916SOL     OW55966   3.119   6.788   5.245
14916SOL    HW155967   3.043   6.729   5.218
14916SOL    HW255968   3.084   6.874   5.282
14917SOL     OW55969   0.491   6.093   5.726
14917SOL    HW155970   0.502   6.148   5.643
14917SOL    HW255971   0.572   6.037   5.740
14918SOL     OW55972   7.910   9.318   5.701
14918SOL    HW155973   7.885   9.375   5.779
14918SOL    HW255974   8.007   9.293   5.707
14919SOL     OW55975   0.913   1.307   3.139
14919SOL    HW155976   0.957   1.390   3.174
14919SOL    HW255977   0.814   1.316   3.148
14920SOL     OW55978   9.840   4.929   1.373
14920SOL    HW155979   9.756   4.887   1.339
14920SOL    HW255980   9.820   5.018   1.413
14921SOL     OW55981   7.651   5.620   6.307
14921SOL    HW155982   7.640   5.528   6.344
14921SOL    HW255983   7.590   5.633   6.229
14922SOL     OW55984   3.885   9.846   1.151
14922SOL    HW155985   3.792   9.812   1.170
14922SOL    HW255986   3.897   9.935   1.194
14923SOL     OW55987   2.791   9.590   0.732
14923SOL    HW155988   2.821   9.685   0.744
14923SOL    HW255989   2.854   9.542   0.671
14924SOL     OW55990   7.792   7.632   2.196
14924SOL    HW155991   7.855   7.556   2.182
14924SOL    HW255992   7.833   7.700   2.257
14925SOL     OW55993   5.235   0.811   5.803
14925SOL    HW155994   5.156   0.765   5.841
14925SOL    HW255995   5.286   0.748   5.745
14926SOL     OW55996   9.245   7.588   4.957
14926SOL    HW155997   9.160   7.641   4.950
14926SOL    HW255998   9.297   7.597   4.872
14927SOL     OW55999   7.230   1.095   4.809
14927SOL    HW156000   7.226   1.118   4.907
14927SOL    HW256001   7.261   1.174   4.757
14928SOL     OW56002   0.875   9.720   4.554
14928SOL    HW156003   0.794   9.662   4.562
14928SOL    HW256004   0.851   9.804   4.505
14929SOL     OW56005   6.043   4.711   1.324
14929SOL    HW156006   6.121   4.773   1.330
14929SOL    HW256007   5.974   4.748   1.263
14930SOL     OW56008   0.322   4.128   1.820
14930SOL    HW156009   0.249   4.073   1.860
14930SOL    HW256010   0.282   4.206   1.771
14931SOL     OW56011   9.059   3.468   3.676
14931SOL    HW156012   9.015   3.509   3.756
14931SOL    HW256013   9.139   3.417   3.705
14932SOL     OW56014   2.348   1.233   0.297
14932SOL    HW156015   2.272   1.191   0.348
14932SOL    HW256016   2.372   1.175   0.219
14933SOL     OW56017   8.556   6.538   4.615
14933SOL    HW156018   8.597   6.480   4.686
14933SOL    HW256019   8.563   6.492   4.526
14934SOL     OW56020   9.933   0.301   2.787
14934SOL    HW156021   9.923   0.203   2.808
14934SOL    HW256022   0.018   0.334   2.827
14935SOL     OW56023   4.897   9.398   3.035
14935SOL    HW156024   4.920   9.386   3.132
14935SOL    HW256025   4.965   9.350   2.979
14936SOL     OW56026   1.568   0.694   1.354
14936SOL    HW156027   1.511   0.713   1.434
14936SOL    HW256028   1.584   0.779   1.304
14937SOL     OW56029   4.978   2.170   4.169
14937SOL    HW156030   5.069   2.210   4.172
14937SOL    HW256031   4.951   2.143   4.261
14938SOL     OW56032   1.328   9.924   6.103
14938SOL    HW156033   1.308   9.827   6.116
14938SOL    HW256034   1.249   9.970   6.062
14939SOL     OW56035   0.895   6.379   0.125
14939SOL    HW156036   0.915   6.367   0.028
14939SOL    HW256037   0.797   6.365   0.140
14940SOL     OW56038   8.074   1.752   6.275
14940SOL    HW156039   8.027   1.783   6.357
14940SOL    HW256040   8.165   1.793   6.270
14941SOL     OW56041   8.966   2.680   1.359
14941SOL    HW156042   8.930   2.587   1.349
14941SOL    HW256043   8.910   2.730   1.425
14942SOL     OW56044   7.288   6.802   5.446
14942SOL    HW156045   7.263   6.885   5.396
14942SOL    HW256046   7.284   6.821   5.544
14943SOL     OW56047   0.137   9.933   0.127
14943SOL    HW156048   0.212   9.869   0.109
14943SOL    HW256049   0.171   0.027   0.122
14944SOL     OW56050   6.814   9.799   5.498
14944SOL    HW156051   6.834   9.720   5.440
14944SOL    HW256052   6.757   9.771   5.574
14945SOL     OW56053   7.126   3.132   5.443
14945SOL    HW156054   7.111   3.192   5.364
14945SOL    HW256055   7.170   3.047   5.413
14946SOL     OW56056   9.049   9.122   0.688
14946SOL    HW156057   9.053   9.039   0.743
14946SOL    HW256058   8.977   9.114   0.619
14947SOL     OW56059   8.829   8.378   0.308
14947SOL    HW156060   8.862   8.309   0.243
14947SOL    HW256061   8.897   8.450   0.319
14948SOL     OW56062   8.962   0.622   3.465
14948SOL    HW156063   9.022   0.702   3.459
14948SOL    HW256064   8.886   0.633   3.401
14949SOL     OW56065   8.761   6.792   4.867
14949SOL    HW156066   8.677   6.764   4.913
14949SOL    HW256067   8.820   6.712   4.853
14950SOL     OW56068   2.704   4.665   1.727
14950SOL    HW156069   2.775   4.727   1.761
14950SOL    HW256070   2.660   4.707   1.647
14951SOL     OW56071   9.436   5.552   6.320
14951SOL    HW156072   9.384   5.638   6.317
14951SOL    HW256073   9.488   5.542   6.235
14952SOL     OW56074   9.021   9.313   1.327
14952SOL    HW156075   9.051   9.294   1.233
14952SOL    HW256076   8.925   9.342   1.326
14953SOL     OW56077   3.478   8.647   1.680
14953SOL    HW156078   3.480   8.742   1.712
14953SOL    HW256079   3.569   8.607   1.688
14954SOL     OW56080   3.200   1.006   5.237
14954SOL    HW156081   3.284   1.059   5.250
14954SOL    HW256082   3.196   0.932   5.304
14955SOL     OW56083   9.900   9.394   5.903
14955SOL    HW156084   9.846   9.341   5.839
14955SOL    HW256085   9.854   9.396   5.992
14956SOL     OW56086   8.298   9.939   2.851
14956SOL    HW156087   8.219   9.984   2.893
14956SOL    HW256088   8.378   9.999   2.857
14957SOL     OW56089   0.851   2.181   2.121
14957SOL    HW156090   0.795   2.109   2.162
14957SOL    HW256091   0.948   2.165   2.143
14958SOL     OW56092   7.283   3.542   6.147
14958SOL    HW156093   7.368   3.509   6.107
14958SOL    HW256094   7.256   3.627   6.102
14959SOL     OW56095   0.040   0.005   4.090
14959SOL    HW156096   0.063   0.021   3.994
14959SOL    HW256097   9.941   0.003   4.101
14960SOL     OW56098   5.640   3.147   0.871
14960SOL    HW156099   5.724   3.202   0.872
14960SOL    HW256100   5.663   3.051   0.887
14961SOL     OW56101   1.355   4.674   5.653
14961SOL    HW156102   1.331   4.606   5.722
14961SOL    HW256103   1.451   4.661   5.625
14962SOL     OW56104   6.976   9.327   3.233
14962SOL    HW156105   7.075   9.329   3.250
14962SOL    HW256106   6.946   9.232   3.224
14963SOL     OW56107   9.118   1.346   3.028
14963SOL    HW156108   9.180   1.423   3.012
14963SOL    HW256109   9.049   1.343   2.955
14964SOL     OW56110   2.158   7.162   2.533
14964SOL    HW156111   2.237   7.119   2.490
14964SOL    HW256112   2.187   7.209   2.616
14965SOL     OW56113   9.350   8.949   1.829
14965SOL    HW156114   9.392   8.866   1.790
14965SOL    HW256115   9.274   8.977   1.771
14966SOL     OW56116   8.490   8.845   2.770
14966SOL    HW156117   8.574   8.809   2.811
14966SOL    HW256118   8.497   8.839   2.670
14967SOL     OW56119   4.991   3.023   1.146
14967SOL    HW156120   4.918   2.975   1.194
14967SOL    HW256121   5.019   3.103   1.198
14968SOL     OW56122   3.031   2.632   0.166
14968SOL    HW156123   3.011   2.726   0.194
14968SOL    HW256124   3.029   2.572   0.245
14969SOL     OW56125   7.754   1.157   5.239
14969SOL    HW156126   7.731   1.065   5.208
14969SOL    HW256127   7.794   1.153   5.330
14970SOL     OW56128   7.905   4.805   3.645
14970SOL    HW156129   7.957   4.885   3.614
14970SOL    HW256130   7.952   4.721   3.617
14971SOL     OW56131   9.364   2.108   6.343
14971SOL    HW156132   9.306   2.157   6.408
14971SOL    HW256133   9.318   2.024   6.314
14972SOL     OW56134   3.376   8.539   4.349
14972SOL    HW156135   3.454   8.515   4.291
14972SOL    HW256136   3.377   8.637   4.368
14973SOL     OW56137   2.625   4.264   3.673
14973SOL    HW156138   2.607   4.188   3.735
14973SOL    HW256139   2.677   4.232   3.594
14974SOL     OW56140   5.592   4.267   0.437
14974SOL    HW156141   5.582   4.365   0.456
14974SOL    HW256142   5.680   4.235   0.472
14975SOL     OW56143   3.514   8.297   3.865
14975SOL    HW156144   3.507   8.197   3.857
14975SOL    HW256145   3.433   8.332   3.911
14976SOL     OW56146   3.604   4.504   5.489
14976SOL    HW156147   3.608   4.571   5.415
14976SOL    HW256148   3.660   4.424   5.465
14977SOL     OW56149   8.585   0.827   4.749
14977SOL    HW156150   8.626   0.888   4.816
14977SOL    HW256151   8.616   0.852   4.657
14978SOL     OW56152   0.367   3.770   2.790
14978SOL    HW156153   0.374   3.677   2.753
14978SOL    HW256154   0.457   3.814   2.787
14979SOL     OW56155   3.969   3.738   0.921
14979SOL    HW156156   4.014   3.827   0.916
14979SOL    HW256157   3.982   3.689   0.835
14980SOL     OW56158   7.932   4.428   3.354
14980SOL    HW156159   7.872   4.385   3.421
14980SOL    HW256160   7.878   4.470   3.281
14981SOL     OW56161   5.105   8.408   2.165
14981SOL    HW156162   5.067   8.330   2.115
14981SOL    HW256163   5.179   8.378   2.224
14982SOL     OW56164   6.731   2.737   0.551
14982SOL    HW156165   6.758   2.825   0.511
14982SOL    HW256166   6.674   2.753   0.631
14983SOL     OW56167   8.833   3.300   1.778
14983SOL    HW156168   8.874   3.229   1.834
14983SOL    HW256169   8.745   3.328   1.817
14984SOL     OW56170   4.038   2.656   1.916
14984SOL    HW156171   3.955   2.624   1.871
14984SOL    HW256172   4.114   2.596   1.893
14985SOL     OW56173   1.805   2.501   2.806
14985SOL    HW156174   1.888   2.549   2.777
14985SOL    HW256175   1.825   2.446   2.887
14986SOL     OW56176   0.345   2.522   6.342
14986SOL    HW156177   0.253   2.519   6.303
14986SOL    HW256178   0.338   2.549   6.439
14987SOL     OW56179   2.785   7.223   2.298
14987SOL    HW156180   2.743   7.155   2.358
14987SOL    HW256181   2.740   7.312   2.312
14988SOL     OW56182   6.872   1.580   3.530
14988SOL    HW156183   6.927   1.497   3.517
14988SOL    HW256184   6.932   1.660   3.525
14989SOL     OW56185   2.662   2.890   0.497
14989SOL    HW156186   2.717   2.918   0.575
14989SOL    HW256187   2.687   2.797   0.469
14990SOL     OW56188   1.773   1.614   3.254
14990SOL    HW156189   1.693   1.665   3.224
14990SOL    HW256190   1.808   1.655   3.339
14991SOL     OW56191   6.642   5.446   1.305
14991SOL    HW156192   6.553   5.487   1.288
14991SOL    HW256193   6.636   5.385   1.385
14992SOL     OW56194   0.257   5.222   3.974
14992SOL    HW156195   0.254   5.123   3.962
14992SOL    HW256196   0.170   5.262   3.947
14993SOL     OW56197   1.740   1.568   2.650
14993SOL    HW156198   1.802   1.499   2.687
14993SOL    HW256199   1.774   1.602   2.563
14994SOL     OW56200   5.252   2.304   3.867
14994SOL    HW156201   5.157   2.292   3.839
14994SOL    HW256202   5.273   2.402   3.873
14995SOL     OW56203   1.998   3.241   3.930
14995SOL    HW156204   2.067   3.285   3.873
14995SOL    HW256205   2.042   3.181   3.996
14996SOL     OW56206   1.392   2.362   5.063
14996SOL    HW156207   1.330   2.389   4.988
14996SOL    HW256208   1.399   2.262   5.066
14997SOL     OW56209   8.240   5.866   4.728
14997SOL    HW156210   8.273   5.933   4.795
14997SOL    HW256211   8.222   5.913   4.641
14998SOL     OW56212   2.959   9.169   3.179
14998SOL    HW156213   2.913   9.088   3.216
14998SOL    HW256214   2.890   9.233   3.146
14999SOL     OW56215   4.148   3.728   4.119
14999SOL    HW156216   4.083   3.652   4.112
14999SOL    HW256217   4.216   3.721   4.046
15000SOL     OW56218   6.074   2.025   4.134
15000SOL    HW156219   6.151   2.001   4.193
15000SOL    HW256220   6.055   1.949   4.072
15001SOL     OW56221   0.338   0.335   2.706
15001SOL    HW156222   0.293   0.265   2.651
15001SOL    HW256223   0.274   0.368   2.776
15002SOL     OW56224   6.313   0.628   1.636
15002SOL    HW156225   6.369   0.559   1.590
15002SOL    HW256226   6.256   0.585   1.705
15003SOL     OW56227   3.386   6.442   5.479
15003SOL    HW156228   3.414   6.471   5.388
15003SOL    HW256229   3.438   6.360   5.505
15004SOL     OW56230   0.558   7.716   2.178
15004SOL    HW156231   0.611   7.782   2.125
15004SOL    HW256232   0.556   7.628   2.131
15005SOL     OW56233   1.848   9.706   2.016
15005SOL    HW156234   1.826   9.680   2.110
15005SOL    HW256235   1.871   9.804   2.014
15006SOL     OW56236   7.723   1.832   4.545
15006SOL    HW156237   7.685   1.745   4.576
15006SOL    HW256238   7.655   1.879   4.488
15007SOL     OW56239   1.587   8.297   2.266
15007SOL    HW156240   1.635   8.377   2.229
15007SOL    HW256241   1.651   8.243   2.321
15008SOL     OW56242   3.459   3.126   2.861
15008SOL    HW156243   3.370   3.140   2.904
15008SOL    HW256244   3.448   3.072   2.777
15009SOL     OW56245   8.152   0.739   5.950
15009SOL    HW156246   8.245   0.748   5.985
15009SOL    HW256247   8.152   0.676   5.872
15010SOL     OW56248   0.330   0.661   4.874
15010SOL    HW156249   0.363   0.749   4.839
15010SOL    HW256250   0.404   0.594   4.869
15011SOL     OW56251   1.050   8.482   2.679
15011SOL    HW156252   0.968   8.436   2.713
15011SOL    HW256253   1.026   8.547   2.608
15012SOL     OW56254   9.096   7.596   2.944
15012SOL    HW156255   9.007   7.554   2.932
15012SOL    HW256256   9.088   7.696   2.935
15013SOL     OW56257   0.161   5.399   2.970
15013SOL    HW156258   0.141   5.309   2.932
15013SOL    HW256259   0.212   5.389   3.055
15014SOL     OW56260   3.120   0.550   0.631
15014SOL    HW156261   3.210   0.541   0.672
15014SOL    HW256262   3.128   0.598   0.543
15015SOL     OW56263   9.315   1.286   2.250
15015SOL    HW156264   9.380   1.271   2.324
15015SOL    HW256265   9.281   1.380   2.255
15016SOL     OW56266   1.110   4.414   3.811
15016SOL    HW156267   1.048   4.360   3.754
15016SOL    HW256268   1.065   4.439   3.896
15017SOL     OW56269   0.287   6.361   4.152
15017SOL    HW156270   0.290   6.449   4.201
15017SOL    HW256271   0.231   6.371   4.070
15018SOL     OW56272   4.007   0.916   3.054
15018SOL    HW156273   4.011   0.943   2.958
15018SOL    HW256274   4.083   0.958   3.104
15019SOL     OW56275   0.592   5.749   1.359
15019SOL    HW156276   0.552   5.667   1.319
15019SOL    HW256277   0.618   5.812   1.286
15020SOL     OW56278   6.068   9.347   6.177
15020SOL    HW156279   6.106   9.435   6.205
15020SOL    HW256280   6.016   9.308   6.253
15021SOL     OW56281   1.848   7.696   4.199
15021SOL    HW156282   1.875   7.776   4.144
15021SOL    HW256283   1.796   7.727   4.279
15022SOL     OW56284   9.439   8.330   3.434
15022SOL    HW156285   9.348   8.308   3.471
15022SOL    HW256286   9.468   8.419   3.467
15023SOL     OW56287   2.413   8.256   1.263
15023SOL    HW156288   2.402   8.349   1.226
15023SOL    HW256289   2.440   8.194   1.189
15024SOL     OW56290   1.552   5.896   2.956
15024SOL    HW156291   1.476   5.961   2.950
15024SOL    HW256292   1.548   5.833   2.879
15025SOL     OW56293   9.860   4.779   3.090
15025SOL    HW156294   9.889   4.806   2.998
15025SOL    HW256295   9.779   4.720   3.084
15026SOL     OW56296   2.486   3.467   5.372
15026SOL    HW156297   2.481   3.543   5.437
15026SOL    HW256298   2.399   3.460   5.322
15027SOL     OW56299   0.555   6.014   2.423
15027SOL    HW156300   0.456   6.004   2.413
15027SOL    HW256301   0.577   6.035   2.518
15028SOL     OW56302   9.126   9.955   5.484
15028SOL    HW156303   9.204   9.904   5.446
15028SOL    HW256304   9.047   9.894   5.491
15029SOL     OW56305   1.393   3.342   2.207
15029SOL    HW156306   1.485   3.358   2.242
15029SOL    HW256307   1.326   3.368   2.277
15030SOL     OW56308   4.640   4.337   5.571
15030SOL    HW156309   4.644   4.238   5.581
15030SOL    HW256310   4.604   4.360   5.480
15031SOL     OW56311   5.393   1.851   3.874
15031SOL    HW156312   5.451   1.896   3.942
15031SOL    HW256313   5.347   1.920   3.819
15032SOL     OW56314   3.405   3.474   2.438
15032SOL    HW156315   3.375   3.556   2.388
15032SOL    HW256316   3.394   3.489   2.536
15033SOL     OW56317   3.032   9.015   0.831
15033SOL    HW156318   3.097   8.989   0.903
15033SOL    HW256319   3.007   8.934   0.778
15034SOL     OW56320   3.285   1.076   4.407
15034SOL    HW156321   3.201   1.023   4.420
15034SOL    HW256322   3.300   1.091   4.309
15035SOL     OW56323   6.577   3.340   1.255
15035SOL    HW156324   6.663   3.374   1.290
15035SOL    HW256325   6.525   3.415   1.214
15036SOL     OW56326   5.870   8.730   6.158
15036SOL    HW156327   5.943   8.697   6.217
15036SOL    HW256328   5.902   8.733   6.064
15037SOL     OW56329   7.792   6.500   2.341
15037SOL    HW156330   7.752   6.555   2.414
15037SOL    HW256331   7.875   6.544   2.307
15038SOL     OW56332   1.925   1.783   0.060
15038SOL    HW156333   1.871   1.703   0.085
15038SOL    HW256334   2.022   1.764   0.075
15039SOL     OW56335   2.843   6.292   4.277
15039SOL    HW156336   2.860   6.204   4.233
15039SOL    HW256337   2.873   6.288   4.372
15040SOL     OW56338   8.200   5.729   6.044
15040SOL    HW156339   8.143   5.810   6.034
15040SOL    HW256340   8.233   5.700   5.954
15041SOL     OW56341   9.410   1.762   0.423
15041SOL    HW156342   9.415   1.802   0.332
15041SOL    HW256343   9.317   1.770   0.458
15042SOL     OW56344   0.129   1.482   0.066
15042SOL    HW156345   0.216   1.527   0.087
15042SOL    HW256346   0.097   1.512   8.165
15043SOL     OW56347   3.103   5.396   3.994
15043SOL    HW156348   3.025   5.366   3.938
15043SOL    HW256349   3.139   5.319   4.046
15044SOL     OW56350   0.308   5.912   5.850
15044SOL    HW156351   0.338   5.910   5.945
15044SOL    HW256352   0.364   5.977   5.799
15045SOL     OW56353   7.011   7.613   3.278
15045SOL    HW156354   7.000   7.700   3.328
15045SOL    HW256355   7.047   7.544   3.340
15046SOL     OW56356   1.016   8.982   1.781
15046SOL    HW156357   0.993   9.042   1.705
15046SOL    HW256358   0.947   8.910   1.788
15047SOL     OW56359   8.948   6.587   4.823
15047SOL    HW156360   8.939   6.496   4.862
15047SOL    HW256361   8.957   6.581   4.723
15048SOL     OW56362   6.659   3.800   0.981
15048SOL    HW156363   6.700   3.876   1.032
15048SOL    HW256364   6.694   3.713   1.017
15049SOL     OW56365   7.297   6.886   4.689
15049SOL    HW156366   7.340   6.801   4.661
15049SOL    HW256367   7.300   6.894   4.789
15050SOL     OW56368   5.823   1.760   3.177
15050SOL    HW156369   5.832   1.666   3.210
15050SOL    HW256370   5.862   1.823   3.243
15051SOL     OW56371   9.835   2.472   3.805
15051SOL    HW156372   9.797   2.458   3.713
15051SOL    HW256373   9.837   2.570   3.826
15052SOL     OW56374   0.631   0.936   2.905
15052SOL    HW156375   0.651   1.007   2.838
15052SOL    HW256376   0.555   0.880   2.873
15053SOL     OW56377   9.745   2.076   4.803
15053SOL    HW156378   9.660   2.042   4.843
15053SOL    HW256379   9.814   2.085   4.874
15054SOL     OW56380   0.722   4.491   4.818
15054SOL    HW156381   0.814   4.493   4.857
15054SOL    HW256382   0.702   4.399   4.784
15055SOL     OW56383   0.908   3.073   1.582
15055SOL    HW156384   0.894   3.171   1.596
15055SOL    HW256385   0.996   3.047   1.622
15056SOL     OW56386   7.665   4.151   5.484
15056SOL    HW156387   7.683   4.114   5.393
15056SOL    HW256388   7.570   4.181   5.490
15057SOL     OW56389   4.909   5.996   2.478
15057SOL    HW156390   4.941   6.061   2.408
15057SOL    HW256391   4.877   6.046   2.558
15058SOL     OW56392   3.174   4.142   4.874
15058SOL    HW156393   3.208   4.232   4.902
15058SOL    HW256394   3.194   4.075   4.945
15059SOL     OW56395   9.344   5.426   3.562
15059SOL    HW156396   9.406   5.348   3.571
15059SOL    HW256397   9.377   5.501   3.619
15060SOL     OW56398   1.525   4.790   1.330
15060SOL    HW156399   1.600   4.726   1.310
15060SOL    HW256400   1.503   4.841   1.246
15061SOL     OW56401   3.053   4.568   3.941
15061SOL    HW156402   2.958   4.547   3.921
15061SOL    HW256403   3.112   4.529   3.870
15062SOL     OW56404   2.976   4.879   2.541
15062SOL    HW156405   2.888   4.837   2.517
15062SOL    HW256406   2.995   4.862   2.638
15063SOL     OW56407   2.414   6.952   1.101
15063SOL    HW156408   2.462   6.870   1.133
15063SOL    HW256409   2.465   7.033   1.131
15064SOL     OW56410   9.413   9.368   6.370
15064SOL    HW156411   9.481   9.438   6.390
15064SOL    HW256412   9.448   9.279   6.399
15065SOL     OW56413   8.266   0.322   2.292
15065SOL    HW156414   8.273   0.306   2.194
15065SOL    HW256415   8.332   0.392   2.319
15066SOL     OW56416   2.420   8.929   5.993
15066SOL    HW156417   2.384   8.842   5.959
15066SOL    HW256418   2.516   8.937   5.969
15067SOL     OW56419   8.928   7.079   4.578
15067SOL    HW156420   8.935   7.149   4.649
15067SOL    HW256421   8.880   7.117   4.499
15068SOL     OW56422   7.913   1.273   4.194
15068SOL    HW156423   7.813   1.270   4.188
15068SOL    HW256424   7.941   1.289   4.288
15069SOL     OW56425   8.831   2.907   4.891
15069SOL    HW156426   8.865   2.845   4.961
15069SOL    HW256427   8.831   2.861   4.802
15070SOL     OW56428   1.105   0.249   0.934
15070SOL    HW156429   1.131   0.323   0.997
15070SOL    HW256430   1.011   0.221   0.952
15071SOL     OW56431   4.650   2.796   5.222
15071SOL    HW156432   4.688   2.782   5.130
15071SOL    HW256433   4.702   2.742   5.288
15072SOL     OW56434   0.799   3.211   5.960
15072SOL    HW156435   0.824   3.298   6.004
15072SOL    HW256436   0.880   3.155   5.949
15073SOL     OW56437   8.999   8.171   5.761
15073SOL    HW156438   8.945   8.104   5.812
15073SOL    HW256439   9.030   8.131   5.675
15074SOL     OW56440   6.799   3.310   0.320
15074SOL    HW156441   6.737   3.381   0.353
15074SOL    HW256442   6.756   3.259   0.246
15075SOL     OW56443   0.133   3.947   1.908
15075SOL    HW156444   0.146   3.879   1.836
15075SOL    HW256445   0.120   3.900   1.995
15076SOL     OW56446   3.447   1.765   0.439
15076SOL    HW156447   3.478   1.780   0.345
15076SOL    HW256448   3.526   1.752   0.498
15077SOL     OW56449   7.271   1.865   2.430
15077SOL    HW156450   7.275   1.918   2.346
15077SOL    HW256451   7.346   1.891   2.491
15078SOL     OW56452   0.902   6.151   5.004
15078SOL    HW156453   0.860   6.199   5.081
15078SOL    HW256454   0.844   6.161   4.923
15079SOL     OW56455   0.067   1.830   2.447
15079SOL    HW156456   9.974   1.851   2.415
15079SOL    HW256457   0.115   1.779   2.376
15080SOL     OW56458   3.806   5.502   1.538
15080SOL    HW156459   3.885   5.530   1.483
15080SOL    HW256460   3.768   5.581   1.586
15081SOL     OW56461   2.687   8.168   2.691
15081SOL    HW156462   2.621   8.172   2.766
15081SOL    HW256463   2.688   8.076   2.652
15082SOL     OW56464   6.662   1.867   4.160
15082SOL    HW156465   6.578   1.814   4.173
15082SOL    HW256466   6.660   1.947   4.219
15083SOL     OW56467   6.401   1.461   0.656
15083SOL    HW156468   6.314   1.418   0.632
15083SOL    HW256469   6.383   1.552   0.695
15084SOL     OW56470   8.362   7.470   4.717
15084SOL    HW156471   8.337   7.476   4.814
15084SOL    HW256472   8.460   7.453   4.710
15085SOL     OW56473   3.004   2.061   5.524
15085SOL    HW156474   3.056   1.977   5.509
15085SOL    HW256475   3.041   2.110   5.602
15086SOL     OW56476   0.920   4.846   2.425
15086SOL    HW156477   0.829   4.808   2.438
15086SOL    HW256478   0.949   4.894   2.508
15087SOL     OW56479   0.674   9.256   1.403
15087SOL    HW156480   0.701   9.306   1.321
15087SOL    HW256481   0.721   9.167   1.404
15088SOL     OW56482   6.419   8.898   3.480
15088SOL    HW156483   6.467   8.869   3.563
15088SOL    HW256484   6.338   8.843   3.467
15089SOL     OW56485   2.775   2.147   2.165
15089SOL    HW156486   2.823   2.209   2.227
15089SOL    HW256487   2.744   2.198   2.084
15090SOL     OW56488   1.781   5.231   1.946
15090SOL    HW156489   1.724   5.271   1.875
15090SOL    HW256490   1.768   5.132   1.947
15091SOL     OW56491   3.721   5.834   6.101
15091SOL    HW156492   3.643   5.885   6.063
15091SOL    HW256493   3.776   5.894   6.158
15092SOL     OW56494   3.790   2.899   3.181
15092SOL    HW156495   3.744   2.978   3.140
15092SOL    HW256496   3.884   2.894   3.148
15093SOL     OW56497   0.726   4.122   3.405
15093SOL    HW156498   0.764   4.169   3.326
15093SOL    HW256499   0.792   4.054   3.438
15094SOL     OW56500   8.647   3.132   3.364
15094SOL    HW156501   8.731   3.170   3.327
15094SOL    HW256502   8.641   3.153   3.462
15095SOL     OW56503   6.831   7.149   6.355
15095SOL    HW156504   6.788   7.072   6.308
15095SOL    HW256505   6.760   7.211   6.389
15096SOL     OW56506   8.292   3.543   2.043
15096SOL    HW156507   8.217   3.593   2.087
15096SOL    HW256508   8.312   3.460   2.094
15097SOL     OW56509   1.200   1.392   4.517
15097SOL    HW156510   1.114   1.401   4.466
15097SOL    HW256511   1.262   1.331   4.468
15098SOL     OW56512   0.889   5.188   5.241
15098SOL    HW156513   0.985   5.174   5.264
15098SOL    HW256514   0.836   5.200   5.325
15099SOL     OW56515   4.252   0.329   4.309
15099SOL    HW156516   4.274   0.398   4.240
15099SOL    HW256517   4.165   0.285   4.286
15100SOL     OW56518   1.722   5.760   2.601
15100SOL    HW156519   1.821   5.775   2.595
15100SOL    HW256520   1.702   5.712   2.687
15101SOL     OW56521   2.898   2.359   6.144
15101SOL    HW156522   2.903   2.459   6.140
15101SOL    HW256523   2.815   2.328   6.098
15102SOL     OW56524   4.379   9.946   2.264
15102SOL    HW156525   4.314   9.872   2.252
15102SOL    HW256526   4.464   9.925   2.216
15103SOL     OW56527   6.542   2.398   4.900
15103SOL    HW156528   6.543   2.441   4.810
15103SOL    HW256529   6.631   2.357   4.919
15104SOL     OW56530   7.661   6.010   0.096
15104SOL    HW156531   7.592   6.066   0.143
15104SOL    HW256532   7.626   5.917   0.084
15105SOL     OW56533   0.025   7.380   4.063
15105SOL    HW156534   0.091   7.382   4.138
15105SOL    HW256535   9.989   7.472   4.049
15106SOL     OW56536   4.840   6.687   0.734
15106SOL    HW156537   4.797   6.725   0.652
15106SOL    HW256538   4.809   6.737   0.815
15107SOL     OW56539   2.036   7.956   0.324
15107SOL    HW156540   2.091   7.894   0.269
15107SOL    HW256541   1.948   7.973   0.279
15108SOL     OW56542   9.644   1.066   1.413
15108SOL    HW156543   9.576   0.993   1.424
15108SOL    HW256544   9.634   1.132   1.487
15109SOL     OW56545   9.406   6.846   1.507
15109SOL    HW156546   9.420   6.942   1.530
15109SOL    HW256547   9.390   6.793   1.590
15110SOL     OW56548   2.385   3.879   3.802
15110SOL    HW156549   2.305   3.925   3.841
15110SOL    HW256550   2.396   3.790   3.846
15111SOL     OW56551   1.828   2.839   5.306
15111SOL    HW156552   1.921   2.864   5.278
15111SOL    HW256553   1.824   2.741   5.322
15112SOL     OW56554   5.665   4.042   0.096
15112SOL    HW156555   5.632   3.985   0.021
15112SOL    HW256556   5.651   3.994   0.183
15113SOL     OW56557   3.419   4.209   2.327
15113SOL    HW156558   3.386   4.303   2.326
15113SOL    HW256559   3.441   4.180   2.234
15114SOL     OW56560   3.325   4.119   3.415
15114SOL    HW156561   3.302   4.111   3.319
15114SOL    HW256562   3.425   4.125   3.425
15115SOL     OW56563   5.797   9.323   3.599
15115SOL    HW156564   5.838   9.246   3.550
15115SOL    HW256565   5.698   9.311   3.603
15116SOL     OW56566   3.353   8.188   6.249
15116SOL    HW156567   3.323   8.283   6.255
15116SOL    HW256568   3.286   8.128   6.293
15117SOL     OW56569   9.480   0.031   6.136
15117SOL    HW156570   9.441   0.029   6.228
15117SOL    HW256571   9.492   9.937   6.104
15118SOL     OW56572   0.782   9.261   5.016
15118SOL    HW156573   0.758   9.276   5.112
15118SOL    HW256574   0.801   9.164   5.001
15119SOL     OW56575   4.316   3.011   0.072
15119SOL    HW156576   4.268   3.005   8.173
15119SOL    HW256577   4.315   3.106   0.105
15120SOL     OW56578   4.647   3.646   6.221
15120SOL    HW156579   4.552   3.623   6.199
15120SOL    HW256580   4.693   3.564   6.257
15121SOL     OW56581   0.124   4.592   5.657
15121SOL    HW156582   0.222   4.607   5.671
15121SOL    HW256583   0.087   4.666   5.602
15122SOL     OW56584   2.315   2.481   1.027
15122SOL    HW156585   2.262   2.516   0.950
15122SOL    HW256586   2.402   2.445   0.993
15123SOL     OW56587   3.463   0.244   2.195
15123SOL    HW156588   3.563   0.254   2.192
15123SOL    HW256589   3.424   0.276   2.109
15124SOL     OW56590   3.702   6.442   4.434
15124SOL    HW156591   3.692   6.376   4.361
15124SOL    HW256592   3.629   6.428   4.502
15125SOL     OW56593   8.313   3.653   3.133
15125SOL    HW156594   8.291   3.686   3.225
15125SOL    HW256595   8.406   3.618   3.132
15126SOL     OW56596   0.197   4.834   5.285
15126SOL    HW156597   0.242   4.895   5.220
15126SOL    HW256598   0.193   4.877   5.375
15127SOL     OW56599   9.688   1.399   6.413
15127SOL    HW156600   9.688   1.480   6.355
15127SOL    HW256601   9.656   1.423   6.505
15128SOL     OW56602   8.408   8.896   2.132
15128SOL    HW156603   8.385   8.808   2.172
15128SOL    HW256604   8.344   8.966   2.165
15129SOL     OW56605   4.636   0.469   3.881
15129SOL    HW156606   4.591   0.559   3.882
15129SOL    HW256607   4.706   0.468   3.810
15130SOL     OW56608   8.191   3.814   5.152
15130SOL    HW156609   8.108   3.766   5.181
15130SOL    HW256610   8.215   3.883   5.219
15131SOL     OW56611   6.609   0.336   1.923
15131SOL    HW156612   6.556   0.338   2.008
15131SOL    HW256613   6.579   0.258   1.867
15132SOL     OW56614   1.572   8.502   5.819
15132SOL    HW156615   1.550   8.424   5.760
15132SOL    HW256616   1.582   8.584   5.764
15133SOL     OW56617   2.108   4.301   0.102
15133SOL    HW156618   2.106   4.401   0.089
15133SOL    HW256619   2.117   4.281   0.200
15134SOL     OW56620   8.544   1.903   0.645
15134SOL    HW156621   8.450   1.873   0.633
15134SOL    HW256622   8.603   1.858   0.577
15135SOL     OW56623   1.510   7.401   3.620
15135SOL    HW156624   1.437   7.434   3.680
15135SOL    HW256625   1.522   7.303   3.632
15136SOL     OW56626   2.278   2.144   2.535
15136SOL    HW156627   2.199   2.143   2.474
15136SOL    HW256628   2.303   2.239   2.555
15137SOL     OW56629   2.309   5.630   1.841
15137SOL    HW156630   2.285   5.717   1.800
15137SOL    HW256631   2.268   5.555   1.788
15138SOL     OW56632   3.745   4.475   0.546
15138SOL    HW156633   3.749   4.574   0.563
15138SOL    HW256634   3.747   4.458   0.448
15139SOL     OW56635   1.091   3.096   1.253
15139SOL    HW156636   1.060   3.013   1.209
15139SOL    HW256637   1.145   3.073   1.334
15140SOL     OW56638   3.575   1.886   1.816
15140SOL    HW156639   3.518   1.858   1.893
15140SOL    HW256640   3.526   1.869   1.731
15141SOL     OW56641   8.313   9.207   4.330
15141SOL    HW156642   8.280   9.277   4.393
15141SOL    HW256643   8.314   9.118   4.376
15142SOL     OW56644   9.400   4.035   1.808
15142SOL    HW156645   9.442   4.114   1.852
15142SOL    HW256646   9.469   3.989   1.751
15143SOL     OW56647   1.698   5.693   4.933
15143SOL    HW156648   1.636   5.653   4.865
15143SOL    HW256649   1.698   5.793   4.923
15144SOL     OW56650   1.187   2.211   6.089
15144SOL    HW156651   1.124   2.288   6.097
15144SOL    HW256652   1.279   2.246   6.069
15145SOL     OW56653   2.256   6.159   4.884
15145SOL    HW156654   2.273   6.135   4.980
15145SOL    HW256655   2.314   6.236   4.858
15146SOL     OW56656   4.675   4.278   2.272
15146SOL    HW156657   4.628   4.192   2.253
15146SOL    HW256658   4.678   4.334   2.189
15147SOL     OW56659   8.981   3.276   2.823
15147SOL    HW156660   9.025   3.195   2.784
15147SOL    HW256661   8.995   3.354   2.761
15148SOL     OW56662   0.572   6.420   2.854
15148SOL    HW156663   0.618   6.362   2.922
15148SOL    HW256664   0.502   6.367   2.807
15149SOL     OW56665   6.632   5.854   0.738
15149SOL    HW156666   6.602   5.894   0.824
15149SOL    HW256667   6.579   5.771   0.719
15150SOL     OW56668   9.131   6.891   5.736
15150SOL    HW156669   9.070   6.970   5.732
15150SOL    HW256670   9.117   6.844   5.824
15151SOL     OW56671   9.523   7.098   5.564
15151SOL    HW156672   9.424   7.103   5.570
15151SOL    HW256673   9.549   7.063   5.474
15152SOL     OW56674   7.932   1.894   4.373
15152SOL    HW156675   7.914   1.851   4.285
15152SOL    HW256676   7.860   1.869   4.438
15153SOL     OW56677   3.879   0.225   2.523
15153SOL    HW156678   3.918   0.198   2.435
15153SOL    HW256679   3.929   0.181   2.597
15154SOL     OW56680   2.736   2.552   2.555
15154SOL    HW156681   2.662   2.582   2.494
15154SOL    HW256682   2.794   2.630   2.577
15155SOL     OW56683   1.288   7.920   5.880
15155SOL    HW156684   1.336   7.912   5.967
15155SOL    HW256685   1.209   7.981   5.891
15156SOL     OW56686   3.290   2.900   6.129
15156SOL    HW156687   3.279   2.953   6.213
15156SOL    HW256688   3.293   2.962   6.050
15157SOL     OW56689   0.172   8.712   5.284
15157SOL    HW156690   0.084   8.718   5.238
15157SOL    HW256691   0.175   8.777   5.360
15158SOL     OW56692   0.880   5.596   3.657
15158SOL    HW156693   0.911   5.503   3.676
15158SOL    HW256694   0.898   5.654   3.736
15159SOL     OW56695   1.503   8.110   1.870
15159SOL    HW156696   1.597   8.141   1.882
15159SOL    HW256697   1.441   8.189   1.874
15160SOL     OW56698   1.840   0.810   0.149
15160SOL    HW156699   1.780   0.880   0.189
15160SOL    HW256700   1.886   0.847   0.069
15161SOL     OW56701   5.604   9.828   3.378
15161SOL    HW156702   5.615   9.730   3.390
15161SOL    HW256703   5.542   9.864   3.447
15162SOL     OW56704   0.554   1.757   4.394
15162SOL    HW156705   0.562   1.773   4.295
15162SOL    HW256706   0.582   1.840   4.443
15163SOL     OW56707   9.396   7.304   4.038
15163SOL    HW156708   9.365   7.347   3.954
15163SOL    HW256709   9.341   7.336   4.115
15164SOL     OW56710   0.160   8.746   1.645
15164SOL    HW156711   0.220   8.676   1.684
15164SOL    HW256712   0.179   8.754   1.547
15165SOL     OW56713   2.680   1.492   3.773
15165SOL    HW156714   2.672   1.449   3.863
15165SOL    HW256715   2.710   1.587   3.784
15166SOL     OW56716   1.627   1.749   0.512
15166SOL    HW156717   1.628   1.835   0.460
15166SOL    HW256718   1.533   1.714   0.515
15167SOL     OW56719   7.167   0.968   4.453
15167SOL    HW156720   7.260   0.992   4.481
15167SOL    HW256721   7.106   0.974   4.531
15168SOL     OW56722   3.349   5.686   5.707
15168SOL    HW156723   3.438   5.722   5.735
15168SOL    HW256724   3.341   5.591   5.738
15169SOL     OW56725   9.082   7.268   6.282
15169SOL    HW156726   9.016   7.331   6.322
15169SOL    HW256727   9.175   7.299   6.303
15170SOL     OW56728   8.326   8.223   1.520
15170SOL    HW156729   8.420   8.241   1.489
15170SOL    HW256730   8.266   8.296   1.488
15171SOL     OW56731   1.649   5.431   3.464
15171SOL    HW156732   1.614   5.513   3.510
15171SOL    HW256733   1.572   5.370   3.442
15172SOL     OW56734   4.511   2.314   4.841
15172SOL    HW156735   4.519   2.413   4.853
15172SOL    HW256736   4.420   2.284   4.871
15173SOL     OW56737   0.896   9.586   5.692
15173SOL    HW156738   0.859   9.679   5.685
15173SOL    HW256739   0.904   9.561   5.788
15174SOL     OW56740   7.451   9.252   6.224
15174SOL    HW156741   7.383   9.231   6.154
15174SOL    HW256742   7.426   9.337   6.270
15175SOL     OW56743   5.236   8.072   4.093
15175SOL    HW156744   5.212   8.168   4.108
15175SOL    HW256745   5.330   8.066   4.059
15176SOL     OW56746   0.236   3.968   5.868
15176SOL    HW156747   0.193   4.033   5.930
15176SOL    HW256748   0.327   3.944   5.900
15177SOL     OW56749   2.409   0.354   2.652
15177SOL    HW156750   2.416   0.290   2.576
15177SOL    HW256751   2.472   0.430   2.637
15178SOL     OW56752   1.249   9.000   1.610
15178SOL    HW156753   1.268   9.089   1.651
15178SOL    HW256754   1.182   8.951   1.667
15179SOL     OW56755   9.780   7.388   3.481
15179SOL    HW156756   9.785   7.388   3.581
15179SOL    HW256757   9.869   7.361   3.443
15180SOL     OW56758   8.708   8.215   3.875
15180SOL    HW156759   8.748   8.301   3.845
15180SOL    HW256760   8.678   8.162   3.796
15181SOL     OW56761   9.575   9.214   1.166
15181SOL    HW156762   9.674   9.226   1.158
15181SOL    HW256763   9.550   9.199   1.262
15182SOL     OW56764   0.390   6.494   5.830
15182SOL    HW156765   0.329   6.550   5.886
15182SOL    HW256766   0.404   6.405   5.874
15183SOL     OW56767   6.254   9.226   2.772
15183SOL    HW156768   6.292   9.148   2.722
15183SOL    HW256769   6.328   9.276   2.817
15184SOL     OW56770   3.394   8.106   4.999
15184SOL    HW156771   3.483   8.069   4.973
15184SOL    HW256772   3.403   8.158   5.084
15185SOL     OW56773   2.864   6.126   1.616
15185SOL    HW156774   2.856   6.048   1.678
15185SOL    HW256775   2.793   6.194   1.639
15186SOL     OW56776   1.837   2.958   4.693
15186SOL    HW156777   1.906   2.889   4.716
15186SOL    HW256778   1.769   2.961   4.766
15187SOL     OW56779   4.678   3.022   4.936
15187SOL    HW156780   4.719   3.042   5.025
15187SOL    HW256781   4.681   3.104   4.879
15188SOL     OW56782   9.663   7.962   4.280
15188SOL    HW156783   9.646   8.027   4.353
15188SOL    HW256784   9.761   7.941   4.276
15189SOL     OW56785   4.001   6.062   3.191
15189SOL    HW156786   4.008   5.965   3.211
15189SOL    HW256787   3.912   6.081   3.148
15190SOL     OW56788   4.204   4.954   2.040
15190SOL    HW156789   4.210   4.859   2.010
15190SOL    HW256790   4.235   4.962   2.135
15191SOL     OW56791   2.181   4.987   0.382
15191SOL    HW156792   2.187   4.889   0.365
15191SOL    HW256793   2.115   5.028   0.318
15192SOL     OW56794   5.210   0.082   3.901
15192SOL    HW156795   5.140   0.020   3.865
15192SOL    HW256796   5.201   0.171   3.858
15193SOL     OW56797   8.679   1.623   3.278
15193SOL    HW156798   8.657   1.665   3.190
15193SOL    HW256799   8.686   1.524   3.267
15194SOL     OW56800   5.027   3.063   0.881
15194SOL    HW156801   5.115   3.022   0.855
15194SOL    HW256802   5.009   3.044   0.977
15195SOL     OW56803   0.542   5.635   3.024
15195SOL    HW156804   0.510   5.572   2.953
15195SOL    HW256805   0.464   5.668   3.077
15196SOL     OW56806   7.872   3.530   0.966
15196SOL    HW156807   7.951   3.546   0.906
15196SOL    HW256808   7.899   3.468   1.040
15197SOL     OW56809   0.595   1.407   2.008
15197SOL    HW156810   0.583   1.420   2.107
15197SOL    HW256811   0.512   1.436   1.960
15198SOL     OW56812   7.018   3.106   3.495
15198SOL    HW156813   7.041   3.178   3.561
15198SOL    HW256814   7.072   3.025   3.515
15199SOL     OW56815   1.157   1.227   3.329
15199SOL    HW156816   1.086   1.161   3.301
15199SOL    HW256817   1.133   1.266   3.418
15200SOL     OW56818   0.223   0.631   1.233
15200SOL    HW156819   0.228   0.538   1.196
15200SOL    HW256820   0.131   0.667   1.216
15201SOL     OW56821   2.200   7.581   5.980
15201SOL    HW156822   2.233   7.663   5.933
15201SOL    HW256823   2.239   7.500   5.937
15202SOL     OW56824   2.986   8.568   3.808
15202SOL    HW156825   3.036   8.488   3.776
15202SOL    HW256826   2.991   8.640   3.739
15203SOL     OW56827   9.371   9.374   5.838
15203SOL    HW156828   9.360   9.370   5.937
15203SOL    HW256829   9.381   9.281   5.802
15204SOL     OW56830   9.799   2.506   4.500
15204SOL    HW156831   9.713   2.528   4.455
15204SOL    HW256832   9.793   2.416   4.543
15205SOL     OW56833   4.040   4.777   0.567
15205SOL    HW156834   4.093   4.861   0.549
15205SOL    HW256835   4.085   4.699   0.524
15206SOL     OW56836   2.096   7.616   4.286
15206SOL    HW156837   2.002   7.632   4.257
15206SOL    HW256838   2.123   7.523   4.261
15207SOL     OW56839   8.620   3.968   5.693
15207SOL    HW156840   8.613   3.894   5.625
15207SOL    HW256841   8.709   4.013   5.683
15208SOL     OW56842   2.262   7.914   0.490
15208SOL    HW156843   2.182   7.932   0.433
15208SOL    HW256844   2.245   7.834   0.547
15209SOL     OW56845   8.011   8.317   4.047
15209SOL    HW156846   8.052   8.278   4.129
15209SOL    HW256847   7.923   8.272   4.029
15210SOL     OW56848   2.849   8.934   3.285
15210SOL    HW156849   2.835   8.848   3.237
15210SOL    HW256850   2.930   8.927   3.344
15211SOL     OW56851   8.368   0.992   3.594
15211SOL    HW156852   8.416   1.072   3.631
15211SOL    HW256853   8.371   0.995   3.494
15212SOL     OW56854   2.792   4.163   3.476
15212SOL    HW156855   2.787   4.167   3.376
15212SOL    HW256856   2.793   4.067   3.505
15213SOL     OW56857   7.840   4.605   0.780
15213SOL    HW156858   7.790   4.547   0.715
15213SOL    HW256859   7.779   4.633   0.854
15214SOL     OW56860   4.800   0.318   0.050
15214SOL    HW156861   4.810   0.220   0.032
15214SOL    HW256862   4.749   0.331   0.135
15215SOL     OW56863   0.156   8.028   6.280
15215SOL    HW156864   0.222   7.959   6.312
15215SOL    HW256865   0.066   7.986   6.271
15216SOL     OW56866   4.759   4.951   2.218
15216SOL    HW156867   4.794   4.929   2.127
15216SOL    HW256868   4.836   4.954   2.283
15217SOL     OW56869   0.042   3.989   5.407
15217SOL    HW156870   0.113   4.005   5.475
15217SOL    HW256871   0.028   4.071   5.352
15218SOL     OW56872   3.915   3.459   6.162
15218SOL    HW156873   3.979   3.403   6.111
15218SOL    HW256874   3.886   3.411   6.244
15219SOL     OW56875   9.099   0.719   0.460
15219SOL    HW156876   9.094   0.729   0.560
15219SOL    HW256877   9.066   0.803   0.417
15220SOL     OW56878   0.247   7.110   3.853
15220SOL    HW156879   0.289   7.174   3.788
15220SOL    HW256880   0.280   7.018   3.835
15221SOL     OW56881   8.041   3.663   3.065
15221SOL    HW156882   8.136   3.639   3.084
15221SOL    HW256883   8.020   3.642   2.969
15222SOL     OW56884   7.295   3.779   2.024
15222SOL    HW156885   7.338   3.818   2.105
15222SOL    HW256886   7.297   3.846   1.950
15223SOL     OW56887   8.785   7.874   2.490
15223SOL    HW156888   8.836   7.864   2.404
15223SOL    HW256889   8.730   7.792   2.506
15224SOL     OW56890   0.217   2.553   3.520
15224SOL    HW156891   0.216   2.462   3.478
15224SOL    HW256892   0.308   2.593   3.510
15225SOL     OW56893   8.416   6.762   4.559
15225SOL    HW156894   8.455   6.824   4.490
15225SOL    HW256895   8.480   6.687   4.575
15226SOL     OW56896   4.756   4.925   2.592
15226SOL    HW156897   4.707   4.840   2.570
15226SOL    HW256898   4.835   4.934   2.531
15227SOL     OW56899   0.444   9.158   4.289
15227SOL    HW156900   0.351   9.183   4.263
15227SOL    HW256901   0.475   9.217   4.363
15228SOL     OW56902   5.584   7.766   4.514
15228SOL    HW156903   5.622   7.711   4.440
15228SOL    HW256904   5.551   7.705   4.586
15229SOL     OW56905   5.276   9.799   3.181
15229SOL    HW156906   5.343   9.747   3.128
15229SOL    HW256907   5.223   9.857   3.120
15230SOL     OW56908   8.150   8.351   2.078
15230SOL    HW156909   8.224   8.391   2.024
15230SOL    HW256910   8.105   8.423   2.131
15231SOL     OW56911   3.750   0.890   0.096
15231SOL    HW156912   3.820   0.840   0.047
15231SOL    HW256913   3.663   0.841   0.089
15232SOL     OW56914   8.448   7.262   3.385
15232SOL    HW156915   8.467   7.359   3.370
15232SOL    HW256916   8.392   7.251   3.467
15233SOL     OW56917   0.028   6.332   5.782
15233SOL    HW156918   0.089   6.362   5.709
15233SOL    HW256919   0.074   6.341   5.870
15234SOL     OW56920   0.001   4.916   5.727
15234SOL    HW156921   9.908   4.945   5.751
15234SOL    HW256922   0.050   4.892   5.810
15235SOL     OW56923   5.905   0.995   3.010
15235SOL    HW156924   5.976   0.925   3.009
15235SOL    HW256925   5.830   0.968   2.950
15236SOL     OW56926   3.791   9.603   4.043
15236SOL    HW156927   3.848   9.560   4.112
15236SOL    HW256928   3.796   9.702   4.052
15237SOL     OW56929   2.530   0.527   0.190
15237SOL    HW156930   2.590   0.455   0.155
15237SOL    HW256931   2.536   0.607   0.131
15238SOL     OW56932   9.270   9.316   3.749
15238SOL    HW156933   9.233   9.238   3.699
15238SOL    HW256934   9.231   9.319   3.841
15239SOL     OW56935   4.751   9.162   5.002
15239SOL    HW156936   4.711   9.244   4.960
15239SOL    HW256937   4.702   9.142   5.087
15240SOL     OW56938   1.658   1.268   6.357
15240SOL    HW156939   1.608   1.181   6.360
15240SOL    HW256940   1.756   1.249   6.353
15241SOL     OW56941   3.126   8.941   3.830
15241SOL    HW156942   3.181   8.868   3.870
15241SOL    HW256943   3.180   9.025   3.826
15242SOL     OW56944   4.697   2.086   1.886
15242SOL    HW156945   4.757   2.133   1.821
15242SOL    HW256946   4.644   2.015   1.839
15243SOL     OW56947   0.500   4.025   4.797
15243SOL    HW156948   0.440   4.031   4.878
15243SOL    HW256949   0.576   3.963   4.816
15244SOL     OW56950   2.125   5.382   3.338
15244SOL    HW156951   2.098   5.429   3.254
15244SOL    HW256952   2.047   5.377   3.400
15245SOL     OW56953   1.735   0.723   5.088
15245SOL    HW156954   1.820   0.745   5.136
15245SOL    HW256955   1.722   0.788   5.012
15246SOL     OW56956   7.490   9.999   5.882
15246SOL    HW156957   7.484   0.019   5.785
15246SOL    HW256958   7.565   0.051   5.923
15247SOL     OW56959   3.933   0.009   6.375
15247SOL    HW156960   3.873   9.929   6.373
15247SOL    HW256961   3.942   0.040   6.470
15248SOL     OW56962   9.506   2.642   5.221
15248SOL    HW156963   9.523   2.567   5.157
15248SOL    HW256964   9.426   2.621   5.276
15249SOL     OW56965   3.743   1.600   1.045
15249SOL    HW156966   3.748   1.538   1.124
15249SOL    HW256967   3.765   1.693   1.073
15250SOL     OW56968   4.645   5.619   1.000
15250SOL    HW156969   4.729   5.672   1.016
15250SOL    HW256970   4.576   5.646   1.067
15251SOL     OW56971   7.834   3.128   2.945
15251SOL    HW156972   7.782   3.165   2.868
15251SOL    HW256973   7.778   3.133   3.028
15252SOL     OW56974   4.631   2.157   3.832
15252SOL    HW156975   4.537   2.123   3.839
15252SOL    HW256976   4.664   2.181   3.923
15253SOL     OW56977   2.004   2.770   4.451
15253SOL    HW156978   2.078   2.800   4.390
15253SOL    HW256979   1.924   2.830   4.437
15254SOL     OW56980   2.754   8.144   2.295
15254SOL    HW156981   2.806   8.152   2.211
15254SOL    HW256982   2.753   8.049   2.325
15255SOL     OW56983   4.760   4.046   2.646
15255SOL    HW156984   4.810   4.087   2.570
15255SOL    HW256985   4.730   4.119   2.709
15256SOL     OW56986   4.731   0.988   1.862
15256SOL    HW156987   4.767   0.943   1.780
15256SOL    HW256988   4.803   0.998   1.930
15257SOL     OW56989   1.378   3.114   2.055
15257SOL    HW156990   1.373   3.195   2.114
15257SOL    HW256991   1.429   3.138   1.972
15258SOL     OW56992   1.115   6.942   4.543
15258SOL    HW156993   1.016   6.933   4.551
15258SOL    HW256994   1.159   6.860   4.580
15259SOL     OW56995   8.263   3.483   5.597
15259SOL    HW156996   8.318   3.565   5.615
15259SOL    HW256997   8.320   3.402   5.606
15260SOL     OW56998   8.755   9.548   2.132
15260SOL    HW156999   8.730   9.594   2.046
15260SOL    HW257000   8.674   9.503   2.170
15261SOL     OW57001   8.307   6.254   3.858
15261SOL    HW157002   8.238   6.326   3.859
15261SOL    HW257003   8.262   6.165   3.861
15262SOL     OW57004   8.376   7.425   6.229
15262SOL    HW157005   8.396   7.350   6.291
15262SOL    HW257006   8.428   7.506   6.255
15263SOL     OW57007   1.853   6.418   5.068
15263SOL    HW157008   1.871   6.440   5.164
15263SOL    HW257009   1.940   6.406   5.020
15264SOL     OW57010   1.180   7.561   3.505
15264SOL    HW157011   1.273   7.561   3.467
15264SOL    HW257012   1.144   7.468   3.504
15265SOL     OW57013   1.588   7.716   0.249
15265SOL    HW157014   1.544   7.627   0.258
15265SOL    HW257015   1.597   7.758   0.339
15266SOL     OW57016   0.822   4.941   1.785
15266SOL    HW157017   0.911   4.907   1.757
15266SOL    HW257018   0.757   4.866   1.789
15267SOL     OW57019   1.566   3.922   6.301
15267SOL    HW157020   1.572   4.021   6.292
15267SOL    HW257021   1.658   3.884   6.315
15268SOL     OW57022   6.027   7.855   4.789
15268SOL    HW157023   6.005   7.881   4.695
15268SOL    HW257024   6.015   7.935   4.849
15269SOL     OW57025   2.315   1.063   1.485
15269SOL    HW157026   2.303   1.145   1.541
15269SOL    HW257027   2.262   0.988   1.525
15270SOL     OW57028   9.649   0.955   0.175
15270SOL    HW157029   9.650   0.861   0.209
15270SOL    HW257030   9.732   1.003   0.204
15271SOL     OW57031   0.435   6.094   3.839
15271SOL    HW157032   0.514   6.073   3.782
15271SOL    HW257033   0.375   6.159   3.792
15272SOL     OW57034   1.395   1.579   6.123
15272SOL    HW157035   1.308   1.628   6.110
15272SOL    HW257036   1.454   1.632   6.183
15273SOL     OW57037   0.845   8.050   6.052
15273SOL    HW157038   0.773   7.983   6.032
15273SOL    HW257039   0.913   8.048   5.980
15274SOL     OW57040   6.473   9.343   2.913
15274SOL    HW157041   6.460   9.442   2.924
15274SOL    HW257042   6.438   9.296   2.994
15275SOL     OW57043   9.874   5.271   5.820
15275SOL    HW157044   9.901   5.281   5.916
15275SOL    HW257045   9.954   5.285   5.761
15276SOL     OW57046   8.127   0.058   2.566
15276SOL    HW157047   8.090   9.982   2.619
15276SOL    HW257048   8.140   0.030   2.471
15277SOL     OW57049   4.552   8.147   4.612
15277SOL    HW157050   4.468   8.136   4.559
15277SOL    HW257051   4.631   8.123   4.555
15278SOL     OW57052   9.681   6.656   5.798
15278SOL    HW157053   9.715   6.562   5.789
15278SOL    HW257054   9.758   6.716   5.819
15279SOL     OW57055   6.982   0.684   2.870
15279SOL    HW157056   7.069   0.658   2.911
15279SOL    HW257057   6.949   0.769   2.911
15280SOL     OW57058   1.835   5.007   5.270
15280SOL    HW157059   1.927   5.018   5.234
15280SOL    HW257060   1.839   4.968   5.363
15281SOL     OW57061   3.608   3.037   0.169
15281SOL    HW157062   3.644   3.118   0.124
15281SOL    HW257063   3.631   3.040   0.267
15282SOL     OW57064   8.558   4.428   4.110
15282SOL    HW157065   8.605   4.509   4.077
15282SOL    HW257066   8.459   4.439   4.099
15283SOL     OW57067   6.963   5.402   1.449
15283SOL    HW157068   6.932   5.418   1.543
15283SOL    HW257069   7.063   5.407   1.445
15284SOL     OW57070   3.481   5.121   3.817
15284SOL    HW157071   3.473   5.024   3.794
15284SOL    HW257072   3.479   5.133   3.916
15285SOL     OW57073   3.701   0.016   1.471
15285SOL    HW157074   3.728   9.934   1.521
15285SOL    HW257075   3.601   0.021   1.468
15286SOL     OW57076   3.673   6.770   1.743
15286SOL    HW157077   3.615   6.730   1.814
15286SOL    HW257078   3.623   6.775   1.657
15287SOL     OW57079   0.362   8.602   3.038
15287SOL    HW157080   0.347   8.676   3.104
15287SOL    HW257081   0.349   8.514   3.084
15288SOL     OW57082   3.562   2.259   6.229
15288SOL    HW157083   3.582   2.161   6.232
15288SOL    HW257084   3.624   2.308   6.291
15289SOL     OW57085   9.665   7.728   0.609
15289SOL    HW157086   9.662   7.654   0.542
15289SOL    HW257087   9.647   7.690   0.700
15290SOL     OW57088   4.536   9.936   2.498
15290SOL    HW157089   4.487   9.950   2.412
15290SOL    HW257090   4.633   9.957   2.485
15291SOL     OW57091   0.403   4.219   1.477
15291SOL    HW157092   0.456   4.288   1.428
15291SOL    HW257093   0.413   4.130   1.433
15292SOL     OW57094   5.085   3.324   0.947
15292SOL    HW157095   5.145   3.370   0.881
15292SOL    HW257096   5.063   3.233   0.913
15293SOL     OW57097   2.525   5.356   2.290
15293SOL    HW157098   2.586   5.324   2.363
15293SOL    HW257099   2.580   5.377   2.209
15294SOL     OW57100   8.911   9.784   5.492
15294SOL    HW157101   8.819   9.823   5.483
15294SOL    HW257102   8.906   9.698   5.542
15295SOL     OW57103   9.059   3.770   5.010
15295SOL    HW157104   9.096   3.699   4.951
15295SOL    HW257105   9.130   3.805   5.070
15296SOL     OW57106   3.995   4.368   2.845
15296SOL    HW157107   3.935   4.418   2.782
15296SOL    HW257108   4.061   4.314   2.792
15297SOL     OW57109   4.602   7.995   4.829
15297SOL    HW157110   4.647   7.910   4.799
15297SOL    HW257111   4.588   8.055   4.751
15298SOL     OW57112   0.101   2.973   2.286
15298SOL    HW157113   0.186   2.984   2.338
15298SOL    HW257114   0.030   3.029   2.328
15299SOL     OW57115   7.755   3.986   3.872
15299SOL    HW157116   7.833   3.932   3.838
15299SOL    HW257117   7.754   4.075   3.826
15300SOL     OW57118   2.944   4.678   0.431
15300SOL    HW157119   2.885   4.673   0.511
15300SOL    HW257120   3.038   4.696   0.459
15301SOL     OW57121   8.112   3.088   0.968
15301SOL    HW157122   8.179   3.157   0.996
15301SOL    HW257123   8.138   2.999   1.005
15302SOL     OW57124   3.449   5.879   4.136
15302SOL    HW157125   3.509   5.867   4.215
15302SOL    HW257126   3.414   5.790   4.107
15303SOL     OW57127   7.360   8.592   5.615
15303SOL    HW157128   7.270   8.573   5.653
15303SOL    HW257129   7.357   8.583   5.516
15304SOL     OW57130   3.228   2.936   5.407
15304SOL    HW157131   3.200   2.929   5.311
15304SOL    HW257132   3.318   2.894   5.420
15305SOL     OW57133   8.936   1.479   2.463
15305SOL    HW157134   8.941   1.513   2.369
15305SOL    HW257135   8.959   1.553   2.526
15306SOL     OW57136   7.947   7.203   5.003
15306SOL    HW157137   7.982   7.118   5.041
15306SOL    HW257138   7.959   7.202   4.903
15307SOL     OW57139   3.469   2.896   4.065
15307SOL    HW157140   3.544   2.899   4.132
15307SOL    HW257141   3.404   2.825   4.092
15308SOL     OW57142   9.429   3.313   3.118
15308SOL    HW157143   9.492   3.389   3.105
15308SOL    HW257144   9.344   3.346   3.157
15309SOL     OW57145   5.481   9.508   4.307
15309SOL    HW157146   5.400   9.459   4.274
15309SOL    HW257147   5.555   9.443   4.325
15310SOL     OW57148   0.907   4.144   1.603
15310SOL    HW157149   0.891   4.212   1.675
15310SOL    HW257150   1.000   4.155   1.567
15311SOL     OW57151   3.926   1.883   3.305
15311SOL    HW157152   3.878   1.927   3.382
15311SOL    HW257153   3.871   1.893   3.222
15312SOL     OW57154   9.564   5.073   4.128
15312SOL    HW157155   9.575   5.000   4.060
15312SOL    HW257156   9.654   5.102   4.160
15313SOL     OW57157   8.327   2.043   0.978
15313SOL    HW157158   8.373   2.098   0.907
15313SOL    HW257159   8.371   1.954   0.984
15314SOL     OW57160   0.862   0.337   1.555
15314SOL    HW157161   0.775   0.354   1.509
15314SOL    HW257162   0.932   0.398   1.518
15315SOL     OW57163   9.433   3.306   5.449
15315SOL    HW157164   9.508   3.359   5.410
15315SOL    HW257165   9.450   3.290   5.546
15316SOL     OW57166   8.575   1.920   2.855
15316SOL    HW157167   8.638   1.881   2.788
15316SOL    HW257168   8.575   2.020   2.847
15317SOL     OW57169   8.950   1.982   2.810
15317SOL    HW157170   8.892   1.935   2.744
15317SOL    HW257171   8.917   1.965   2.903
15318SOL     OW57172   7.077   1.359   0.984
15318SOL    HW157173   7.097   1.370   0.887
15318SOL    HW257174   7.158   1.383   1.038
15319SOL     OW57175   6.001   6.019   0.960
15319SOL    HW157176   5.923   6.080   0.969
15319SOL    HW257177   6.048   6.011   1.048
15320SOL     OW57178   0.850   4.785   1.478
15320SOL    HW157179   0.841   4.879   1.446
15320SOL    HW257180   0.942   4.752   1.459
15321SOL     OW57181   1.098   5.791   1.559
15321SOL    HW157182   1.041   5.709   1.553
15321SOL    HW257183   1.117   5.811   1.655
15322SOL     OW57184   0.582   4.447   5.556
15322SOL    HW157185   0.633   4.438   5.642
15322SOL    HW257186   0.647   4.459   5.481
15323SOL     OW57187   1.106   7.620   4.589
15323SOL    HW157188   1.205   7.612   4.597
15323SOL    HW257189   1.061   7.563   4.658
15324SOL     OW57190   0.698   5.854   5.481
15324SOL    HW157191   0.770   5.784   5.480
15324SOL    HW257192   0.687   5.889   5.574
15325SOL     OW57193   3.161   1.108   2.828
15325SOL    HW157194   3.122   1.194   2.797
15325SOL    HW257195   3.255   1.123   2.859
15326SOL     OW57196   6.719   1.210   3.969
15326SOL    HW157197   6.650   1.278   3.946
15326SOL    HW257198   6.674   1.125   3.997
15327SOL     OW57199   3.273   7.426   0.155
15327SOL    HW157200   3.204   7.377   0.208
15327SOL    HW257201   3.357   7.370   0.150
15328SOL     OW57202   0.782   3.787   3.787
15328SOL    HW157203   0.692   3.754   3.815
15328SOL    HW257204   0.820   3.726   3.717
15329SOL     OW57205   9.150   7.184   3.235
15329SOL    HW157206   9.102   7.097   3.225
15329SOL    HW257207   9.141   7.217   3.330
15330SOL     OW57208   9.545   7.585   5.902
15330SOL    HW157209   9.613   7.516   5.927
15330SOL    HW257210   9.487   7.550   5.829
15331SOL     OW57211   0.302   7.213   0.580
15331SOL    HW157212   0.344   7.286   0.633
15331SOL    HW257213   0.350   7.127   0.598
15332SOL     OW57214   1.242   5.872   4.670
15332SOL    HW157215   1.171   5.942   4.657
15332SOL    HW257216   1.222   5.794   4.610
15333SOL     OW57217   7.689   3.495   2.024
15333SOL    HW157218   7.732   3.560   2.087
15333SOL    HW257219   7.606   3.459   2.065
15334SOL     OW57220   7.872   2.087   2.495
15334SOL    HW157221   7.825   2.170   2.523
15334SOL    HW257222   7.914   2.044   2.575
15335SOL     OW57223   9.122   4.495   0.164
15335SOL    HW157224   9.113   4.570   0.097
15335SOL    HW257225   9.199   4.514   0.224
15336SOL     OW57226   4.482   8.515   2.041
15336SOL    HW157227   4.534   8.600   2.050
15336SOL    HW257228   4.493   8.479   1.948
15337SOL     OW57229   8.796   7.421   3.440
15337SOL    HW157230   8.851   7.407   3.522
15337SOL    HW257231   8.773   7.333   3.399
15338SOL     OW57232   2.117   1.646   6.040
15338SOL    HW157233   2.052   1.641   6.116
15338SOL    HW257234   2.177   1.725   6.052
15339SOL     OW57235   3.158   9.948   1.092
15339SOL    HW157236   3.107   9.863   1.107
15339SOL    HW257237   3.169   9.963   0.994
15340SOL     OW57238   3.516   8.022   3.814
15340SOL    HW157239   3.447   7.975   3.759
15340SOL    HW257240   3.569   7.955   3.866
15341SOL     OW57241   5.074   7.434   3.020
15341SOL    HW157242   5.167   7.465   3.041
15341SOL    HW257243   5.012   7.512   3.018
15342SOL     OW57244   1.187   5.164   0.675
15342SOL    HW157245   1.254   5.227   0.713
15342SOL    HW257246   1.158   5.099   0.746
15343SOL     OW57247   8.347   1.480   3.349
15343SOL    HW157248   8.354   1.578   3.330
15343SOL    HW257249   8.251   1.454   3.360
15344SOL     OW57250   1.802   4.090   5.999
15344SOL    HW157251   1.723   4.149   5.983
15344SOL    HW257252   1.773   3.995   6.000
15345SOL     OW57253   4.250   2.129   2.695
15345SOL    HW157254   4.291   2.194   2.631
15345SOL    HW257255   4.288   2.038   2.678
15346SOL     OW57256   3.093   0.807   5.066
15346SOL    HW157257   3.012   0.782   5.119
15346SOL    HW257258   3.147   0.874   5.117
15347SOL     OW57259   4.419   2.687   1.753
15347SOL    HW157260   4.370   2.716   1.671
15347SOL    HW257261   4.401   2.752   1.828
15348SOL     OW57262   3.051   8.331   3.274
15348SOL    HW157263   3.046   8.235   3.301
15348SOL    HW257264   3.122   8.377   3.327
15349SOL     OW57265   1.492   3.671   1.787
15349SOL    HW157266   1.441   3.752   1.818
15349SOL    HW257267   1.469   3.593   1.844
15350SOL     OW57268   8.280   9.055   5.341
15350SOL    HW157269   8.211   8.996   5.299
15350SOL    HW257270   8.345   9.086   5.271
15351SOL     OW57271   9.254   6.024   3.765
15351SOL    HW157272   9.254   6.124   3.756
15351SOL    HW257273   9.345   5.989   3.743
15352SOL     OW57274   4.344   4.322   4.780
15352SOL    HW157275   4.419   4.345   4.843
15352SOL    HW257276   4.281   4.258   4.825
15353SOL     OW57277   1.205   4.235   4.469
15353SOL    HW157278   1.172   4.147   4.504
15353SOL    HW257279   1.251   4.220   4.381
15354SOL     OW57280   4.741   1.728   1.289
15354SOL    HW157281   4.710   1.748   1.196
15354SOL    HW257282   4.695   1.790   1.354
15355SOL     OW57283   8.209   3.861   3.629
15355SOL    HW157284   8.263   3.944   3.643
15355SOL    HW257285   8.203   3.841   3.531
15356SOL     OW57286   7.914   0.642   2.361
15356SOL    HW157287   7.899   0.593   2.447
15356SOL    HW257288   7.839   0.623   2.298
15357SOL     OW57289   9.114   8.731   4.462
15357SOL    HW157290   9.023   8.761   4.494
15357SOL    HW257291   9.121   8.746   4.364
15358SOL     OW57292   8.229   4.211   3.859
15358SOL    HW157293   8.182   4.137   3.908
15358SOL    HW257294   8.286   4.171   3.786
15359SOL     OW57295   2.581   1.578   0.424
15359SOL    HW157296   2.572   1.594   0.522
15359SOL    HW257297   2.675   1.554   0.402
15360SOL     OW57298   8.399   3.918   3.982
15360SOL    HW157299   8.425   4.014   3.997
15360SOL    HW257300   8.481   3.863   3.967
15361SOL     OW57301   8.919   9.730   1.351
15361SOL    HW157302   8.922   9.757   1.254
15361SOL    HW257303   8.836   9.764   1.393
15362SOL     OW57304   1.147   0.891   2.661
15362SOL    HW157305   1.142   0.987   2.633
15362SOL    HW257306   1.243   0.864   2.670
15363SOL     OW57307   1.214   8.088   3.850
15363SOL    HW157308   1.275   8.011   3.863
15363SOL    HW257309   1.245   8.143   3.773
15364SOL     OW57310   9.354   6.889   1.031
15364SOL    HW157311   9.320   6.983   1.033
15364SOL    HW257312   9.410   6.872   1.112
15365SOL     OW57313   0.303   9.567   0.992
15365SOL    HW157314   0.349   9.655   1.000
15365SOL    HW257315   0.270   9.537   1.081
15366SOL     OW57316   2.074   7.982   4.561
15366SOL    HW157317   2.040   8.018   4.474
15366SOL    HW257318   2.104   7.888   4.549
15367SOL     OW57319   9.367   0.648   4.338
15367SOL    HW157320   9.327   0.580   4.278
15367SOL    HW257321   9.456   0.615   4.372
15368SOL     OW57322   3.413   2.495   0.085
15368SOL    HW157323   3.506   2.458   0.087
15368SOL    HW257324   3.408   2.571   0.020
15369SOL     OW57325   9.726   7.375   0.094
15369SOL    HW157326   9.819   7.370   0.129
15369SOL    HW257327   9.681   7.286   0.104
15370SOL     OW57328   8.803   8.770   0.216
15370SOL    HW157329   8.738   8.815   0.278
15370SOL    HW257330   8.863   8.711   0.269
15371SOL     OW57331   3.766   0.360   0.612
15371SOL    HW157332   3.838   0.326   0.552
15371SOL    HW257333   3.683   0.305   0.600
15372SOL     OW57334   2.179   4.575   0.157
15372SOL    HW157335   2.266   4.530   0.137
15372SOL    HW257336   2.192   4.639   0.233
15373SOL     OW57337   0.126   8.971   0.735
15373SOL    HW157338   0.226   8.971   0.744
15373SOL    HW257339   0.086   9.035   0.800
15374SOL     OW57340   0.349   6.556   6.374
15374SOL    HW157341   0.383   6.593   6.461
15374SOL    HW257342   0.303   6.628   6.323
15375SOL     OW57343   9.784   6.540   4.472
15375SOL    HW157344   9.774   6.497   4.562
15375SOL    HW257345   9.843   6.483   4.415
15376SOL     OW57346   0.682   8.387   0.485
15376SOL    HW157347   0.631   8.460   0.439
15376SOL    HW257348   0.757   8.428   0.537
15377SOL     OW57349   0.036   3.638   0.715
15377SOL    HW157350   9.989   3.615   0.801
15377SOL    HW257351   0.134   3.644   0.732
15378SOL     OW57352   0.773   8.440   2.491
15378SOL    HW157353   0.778   8.374   2.415
15378SOL    HW257354   0.838   8.514   2.475
15379SOL     OW57355   5.948   1.178   3.933
15379SOL    HW157356   5.881   1.249   3.915
15379SOL    HW257357   5.927   1.133   4.019
15380SOL     OW57358   3.537   0.053   4.861
15380SOL    HW157359   3.531   0.150   4.882
15380SOL    HW257360   3.488   0.000   4.931
15381SOL     OW57361   6.158   2.043   0.170
15381SOL    HW157362   6.173   2.139   0.145
15381SOL    HW257363   6.245   1.994   0.169
15382SOL     OW57364   8.053   5.476   5.706
15382SOL    HW157365   7.977   5.485   5.642
15382SOL    HW257366   8.017   5.447   5.795
15383SOL     OW57367   6.290   2.739   5.222
15383SOL    HW157368   6.192   2.717   5.226
15383SOL    HW257369   6.343   2.658   5.245
15384SOL     OW57370   3.417   8.418   0.939
15384SOL    HW157371   3.467   8.378   0.861
15384SOL    HW257372   3.350   8.352   0.973
15385SOL     OW57373   3.964   4.253   2.266
15385SOL    HW157374   3.930   4.195   2.192
15385SOL    HW257375   4.028   4.202   2.322
15386SOL     OW57376   1.963   7.049   1.130
15386SOL    HW157377   1.927   7.040   1.037
15386SOL    HW257378   1.890   7.083   1.190
15387SOL     OW57379   3.564   3.344   2.247
15387SOL    HW157380   3.513   3.402   2.310
15387SOL    HW257381   3.534   3.249   2.258
15388SOL     OW57382   9.931   3.236   5.452
15388SOL    HW157383   9.856   3.184   5.411
15388SOL    HW257384   0.009   3.236   5.390
15389SOL     OW57385   3.555   5.053   1.044
15389SOL    HW157386   3.499   5.129   1.012
15389SOL    HW257387   3.637   5.088   1.090
15390SOL     OW57388   3.961   1.021   1.058
15390SOL    HW157389   3.990   1.081   0.984
15390SOL    HW257390   4.036   1.009   1.123
15391SOL     OW57391   4.803   8.745   4.958
15391SOL    HW157392   4.798   8.734   5.057
15391SOL    HW257393   4.717   8.714   4.917
15392SOL     OW57394   2.460   3.242   6.039
15392SOL    HW157395   2.464   3.187   5.955
15392SOL    HW257396   2.509   3.328   6.024
15393SOL     OW57397   8.488   4.623   5.488
15393SOL    HW157398   8.503   4.526   5.505
15393SOL    HW257399   8.550   4.654   5.416
15394SOL     OW57400   4.548   6.369   1.622
15394SOL    HW157401   4.479   6.390   1.553
15394SOL    HW257402   4.529   6.420   1.706
15395SOL     OW57403   3.937   2.099   1.786
15395SOL    HW157404   3.980   2.030   1.727
15395SOL    HW257405   3.991   2.183   1.784
15396SOL     OW57406   1.919   8.859   5.836
15396SOL    HW157407   1.823   8.867   5.809
15396SOL    HW257408   1.947   8.941   5.885
15397SOL     OW57409   7.711   9.347   2.671
15397SOL    HW157410   7.798   9.325   2.715
15397SOL    HW257411   7.726   9.361   2.574
15398SOL     OW57412   7.181   0.412   5.164
15398SOL    HW157413   7.274   0.376   5.156
15398SOL    HW257414   7.130   0.358   5.231
15399SOL     OW57415   7.624   8.085   5.703
15399SOL    HW157416   7.575   8.159   5.750
15399SOL    HW257417   7.560   8.030   5.650
15400SOL     OW57418   3.517   8.618   2.671
15400SOL    HW157419   3.515   8.543   2.604
15400SOL    HW257420   3.570   8.590   2.751
15401SOL     OW57421   3.644   9.898   0.212
15401SOL    HW157422   3.628   9.819   0.271
15401SOL    HW257423   3.739   9.898   0.182
15402SOL     OW57424   2.089   3.743   0.195
15402SOL    HW157425   2.106   3.841   0.206
15402SOL    HW257426   2.166   3.701   0.148
15403SOL     OW57427   3.180   5.021   2.117
15403SOL    HW157428   3.254   4.954   2.110
15403SOL    HW257429   3.168   5.067   2.030
15404SOL     OW57430   7.128   0.765   1.580
15404SOL    HW157431   7.083   0.854   1.583
15404SOL    HW257432   7.065   0.697   1.544
15405SOL     OW57433   6.719   6.692   6.185
15405SOL    HW157434   6.799   6.666   6.238
15405SOL    HW257435   6.696   6.787   6.202
15406SOL     OW57436   9.640   9.077   3.870
15406SOL    HW157437   9.559   9.030   3.906
15406SOL    HW257438   9.612   9.147   3.804
15407SOL     OW57439   4.417   9.685   2.513
15407SOL    HW157440   4.473   9.603   2.502
15407SOL    HW257441   4.476   9.766   2.517
15408SOL     OW57442   9.378   3.750   0.771
15408SOL    HW157443   9.362   3.838   0.726
15408SOL    HW257444   9.345   3.755   0.865
15409SOL     OW57445   1.554   6.569   4.475
15409SOL    HW157446   1.520   6.585   4.567
15409SOL    HW257447   1.590   6.654   4.437
15410SOL     OW57448   2.398   5.068   4.876
15410SOL    HW157449   2.418   5.091   4.971
15410SOL    HW257450   2.422   4.973   4.858
15411SOL     OW57451   1.523   2.460   2.863
15411SOL    HW157452   1.496   2.441   2.768
15411SOL    HW257453   1.620   2.482   2.866
15412SOL     OW57454   9.043   0.190   0.878
15412SOL    HW157455   9.011   0.161   0.788
15412SOL    HW257456   8.980   0.258   0.916
15413SOL     OW57457   5.940   1.605   3.500
15413SOL    HW157458   5.872   1.670   3.535
15413SOL    HW257459   5.904   1.560   3.419
15414SOL     OW57460   7.252   9.865   4.450
15414SOL    HW157461   7.198   9.948   4.433
15414SOL    HW257462   7.313   9.850   4.373
15415SOL     OW57463   1.580   9.024   0.641
15415SOL    HW157464   1.650   9.076   0.593
15415SOL    HW257465   1.569   8.934   0.599
15416SOL     OW57466   0.680   9.978   2.671
15416SOL    HW157467   0.646   0.060   2.716
15416SOL    HW257468   0.721   9.917   2.739
15417SOL     OW57469   9.966   3.902   0.504
15417SOL    HW157470   0.025   3.821   0.496
15417SOL    HW257471   0.022   3.983   0.517
15418SOL     OW57472   5.065   0.528   3.339
15418SOL    HW157473   4.987   0.577   3.300
15418SOL    HW257474   5.092   0.454   3.278
15419SOL     OW57475   6.827   0.058   2.492
15419SOL    HW157476   6.774   0.081   2.410
15419SOL    HW257477   6.809   0.125   2.563
15420SOL     OW57478   8.944   6.749   0.589
15420SOL    HW157479   9.003   6.668   0.592
15420SOL    HW257480   8.848   6.720   0.599
15421SOL     OW57481   4.725   8.109   5.045
15421SOL    HW157482   4.667   8.111   5.126
15421SOL    HW257483   4.675   8.066   4.970
15422SOL     OW57484   8.451   3.159   4.079
15422SOL    HW157485   8.394   3.229   4.036
15422SOL    HW257486   8.505   3.201   4.152
15423SOL     OW57487   8.533   1.511   3.839
15423SOL    HW157488   8.623   1.471   3.855
15423SOL    HW257489   8.514   1.512   3.740
15424SOL     OW57490   6.945   2.289   3.211
15424SOL    HW157491   6.920   2.342   3.292
15424SOL    HW257492   6.903   2.199   3.217
15425SOL     OW57493   3.922   7.175   3.027
15425SOL    HW157494   3.869   7.127   3.098
15425SOL    HW257495   4.012   7.132   3.018
15426SOL     OW57496   2.715   3.011   5.461
15426SOL    HW157497   2.679   3.099   5.494
15426SOL    HW257498   2.748   2.957   5.538
15427SOL     OW57499   7.184   1.129   2.246
15427SOL    HW157500   7.148   1.066   2.178
15427SOL    HW257501   7.193   1.220   2.206
15428SOL     OW57502   2.391   0.432   1.082
15428SOL    HW157503   2.389   0.503   1.151
15428SOL    HW257504   2.342   0.463   1.000
15429SOL     OW57505   8.801   7.981   4.928
15429SOL    HW157506   8.710   8.006   4.961
15429SOL    HW257507   8.858   7.953   5.006
15430SOL     OW57508   0.157   3.080   3.978
15430SOL    HW157509   0.251   3.111   3.966
15430SOL    HW257510   0.137   3.066   4.075
15431SOL     OW57511   0.419   2.414   3.794
15431SOL    HW157512   0.508   2.458   3.780
15431SOL    HW257513   0.348   2.483   3.803
15432SOL     OW57514   8.708   8.961   1.297
15432SOL    HW157515   8.788   8.997   1.344
15432SOL    HW257516   8.670   9.031   1.237
15433SOL     OW57517   6.468   1.645   0.278
15433SOL    HW157518   6.478   1.556   0.233
15433SOL    HW257519   6.543   1.704   0.249
15434SOL     OW57520   2.848   2.461   1.363
15434SOL    HW157521   2.826   2.419   1.450
15434SOL    HW257522   2.918   2.531   1.377
15435SOL     OW57523   0.113   7.016   2.622
15435SOL    HW157524   0.075   6.925   2.605
15435SOL    HW257525   0.044   7.085   2.604
15436SOL     OW57526   1.833   2.956   4.122
15436SOL    HW157527   1.808   2.952   4.219
15436SOL    HW257528   1.922   3.000   4.112
15437SOL     OW57529   0.044   2.950   3.060
15437SOL    HW157530   9.982   3.009   3.113
15437SOL    HW257531   0.032   2.855   3.089
15438SOL     OW57532   3.146   9.957   0.812
15438SOL    HW157533   3.145   0.039   0.755
15438SOL    HW257534   3.203   9.887   0.769
15439SOL     OW57535   8.463   7.091   1.194
15439SOL    HW157536   8.553   7.135   1.203
15439SOL    HW257537   8.402   7.152   1.144
15440SOL     OW57538   4.445   4.575   1.564
15440SOL    HW157539   4.537   4.561   1.529
15440SOL    HW257540   4.436   4.529   1.652
15441SOL     OW57541   7.502   5.374   1.410
15441SOL    HW157542   7.573   5.335   1.468
15441SOL    HW257543   7.530   5.367   1.314
15442SOL     OW57544   5.469   1.449   3.885
15442SOL    HW157545   5.536   1.432   3.958
15442SOL    HW257546   5.498   1.529   3.832
15443SOL     OW57547   2.660   5.908   3.480
15443SOL    HW157548   2.687   5.816   3.450
15443SOL    HW257549   2.741   5.967   3.483
15444SOL     OW57550   3.476   2.821   5.406
15444SOL    HW157551   3.540   2.772   5.466
15444SOL    HW257552   3.472   2.774   5.318
15445SOL     OW57553   0.001   3.951   3.542
15445SOL    HW157554   0.059   3.969   3.462
15445SOL    HW257555   9.943   4.030   3.560
15446SOL     OW57556   4.064   7.958   4.900
15446SOL    HW157557   4.036   8.029   4.965
15446SOL    HW257558   4.163   7.947   4.902
15447SOL     OW57559   1.761   7.500   2.857
15447SOL    HW157560   1.827   7.491   2.931
15447SOL    HW257561   1.675   7.534   2.893
15448SOL     OW57562   5.290   7.416   5.179
15448SOL    HW157563   5.351   7.367   5.116
15448SOL    HW257564   5.336   7.428   5.267
15449SOL     OW57565   3.014   7.637   0.722
15449SOL    HW157566   3.045   7.702   0.791
15449SOL    HW257567   3.089   7.575   0.698
15450SOL     OW57568   0.323   1.339   5.367
15450SOL    HW157569   0.402   1.398   5.345
15450SOL    HW257570   0.298   1.351   5.462
15451SOL     OW57571   3.518   9.164   0.818
15451SOL    HW157572   3.525   9.188   0.915
15451SOL    HW257573   3.545   9.069   0.805
15452SOL     OW57574   0.581   4.689   2.989
15452SOL    HW157575   0.487   4.724   2.988
15452SOL    HW257576   0.581   4.593   3.014
15453SOL     OW57577   9.312   8.733   1.087
15453SOL    HW157578   9.296   8.831   1.077
15453SOL    HW257579   9.229   8.683   1.062
15454SOL     OW57580   2.577   3.555   0.568
15454SOL    HW157581   2.557   3.504   0.651
15454SOL    HW257582   2.566   3.653   0.585
15455SOL     OW57583   4.643   0.782   4.518
15455SOL    HW157584   4.721   0.842   4.534
15455SOL    HW257585   4.621   0.781   4.420
15456SOL     OW57586   2.177   5.570   4.559
15456SOL    HW157587   2.254   5.609   4.609
15456SOL    HW257588   2.210   5.530   4.474
15457SOL     OW57589   6.975   1.703   2.351
15457SOL    HW157590   6.879   1.697   2.322
15457SOL    HW257591   6.984   1.773   2.422
15458SOL     OW57592   4.770   7.981   3.207
15458SOL    HW157593   4.722   8.067   3.222
15458SOL    HW257594   4.711   7.905   3.232
15459SOL     OW57595   3.109   5.438   2.839
15459SOL    HW157596   3.014   5.445   2.809
15459SOL    HW257597   3.140   5.528   2.871
15460SOL     OW57598   0.315   5.677   1.999
15460SOL    HW157599   0.324   5.769   1.961
15460SOL    HW257600   0.387   5.618   1.961
15461SOL     OW57601   9.960   2.452   2.641
15461SOL    HW157602   0.057   2.447   2.666
15461SOL    HW257603   9.946   2.523   2.572
15462SOL     OW57604   2.014   8.582   4.902
15462SOL    HW157605   2.072   8.658   4.930
15462SOL    HW257606   2.013   8.512   4.973
15463SOL     OW57607   1.284   3.846   5.565
15463SOL    HW157608   1.295   3.944   5.547
15463SOL    HW257609   1.351   3.795   5.511
15464SOL     OW57610   4.015   7.452   2.122
15464SOL    HW157611   4.093   7.497   2.079
15464SOL    HW257612   4.046   7.374   2.175
15465SOL     OW57613   4.344   7.797   1.412
15465SOL    HW157614   4.362   7.713   1.362
15465SOL    HW257615   4.246   7.807   1.428
15466SOL     OW57616   0.307   3.032   3.031
15466SOL    HW157617   0.346   2.984   2.952
15466SOL    HW257618   0.213   3.002   3.046
15467SOL     OW57619   7.983   8.569   4.138
15467SOL    HW157620   7.986   8.479   4.095
15467SOL    HW257621   8.054   8.575   4.208
15468SOL     OW57622   4.639   9.808   5.014
15468SOL    HW157623   4.738   9.795   5.019
15468SOL    HW257624   4.607   9.851   5.098
15469SOL     OW57625   0.535   1.172   2.304
15469SOL    HW157626   0.597   1.106   2.261
15469SOL    HW257627   0.500   1.133   2.389
15470SOL     OW57628   2.559   9.850   1.313
15470SOL    HW157629   2.536   9.892   1.225
15470SOL    HW257630   2.485   9.867   1.378
15471SOL     OW57631   0.503   3.022   2.757
15471SOL    HW157632   0.491   2.924   2.774
15471SOL    HW257633   0.591   3.037   2.713
15472SOL     OW57634   8.638   5.119   0.265
15472SOL    HW157635   8.646   5.206   0.216
15472SOL    HW257636   8.690   5.125   0.350
15473SOL     OW57637   1.981   4.785   0.726
15473SOL    HW157638   1.908   4.807   0.790
15473SOL    HW257639   2.032   4.869   0.704
15474SOL     OW57640   1.415   8.078   2.213
15474SOL    HW157641   1.476   8.157   2.225
15474SOL    HW257642   1.458   8.013   2.151
15475SOL     OW57643   7.946   2.947   4.551
15475SOL    HW157644   7.961   2.912   4.459
15475SOL    HW257645   7.861   2.909   4.588
15476SOL     OW57646   2.849   5.646   1.829
15476SOL    HW157647   2.879   5.551   1.821
15476SOL    HW257648   2.751   5.649   1.847
15477SOL     OW57649   4.688   9.337   4.487
15477SOL    HW157650   4.613   9.392   4.450
15477SOL    HW257651   4.653   9.276   4.558
15478SOL     OW57652   6.587   2.705   1.649
15478SOL    HW157653   6.567   2.737   1.556
15478SOL    HW257654   6.624   2.779   1.703
15479SOL     OW57655   5.494   1.183   3.573
15479SOL    HW157656   5.546   1.117   3.521
15479SOL    HW257657   5.540   1.272   3.571
15480SOL     OW57658   2.299   7.273   2.780
15480SOL    HW157659   2.305   7.174   2.798
15480SOL    HW257660   2.380   7.318   2.816
15481SOL     OW57661   9.360   4.339   3.377
15481SOL    HW157662   9.396   4.264   3.432
15481SOL    HW257663   9.312   4.404   3.436
15482SOL     OW57664   9.320   5.055   3.337
15482SOL    HW157665   9.376   5.114   3.278
15482SOL    HW257666   9.305   4.967   3.292
15483SOL     OW57667   2.107   8.918   4.007
15483SOL    HW157668   2.145   8.831   4.041
15483SOL    HW257669   2.065   8.967   4.083
15484SOL     OW57670   3.243   0.721   1.208
15484SOL    HW157671   3.180   0.733   1.285
15484SOL    HW257672   3.193   0.688   1.128
15485SOL     OW57673   8.607   5.752   5.916
15485SOL    HW157674   8.660   5.683   5.867
15485SOL    HW257675   8.538   5.790   5.854
15486SOL     OW57676   1.058   0.686   2.836
15486SOL    HW157677   1.094   0.767   2.790
15486SOL    HW257678   1.114   0.607   2.815
15487SOL     OW57679   4.245   6.114   2.319
15487SOL    HW157680   4.229   6.015   2.311
15487SOL    HW257681   4.170   6.156   2.371
15488SOL     OW57682   6.763   0.008   5.823
15488SOL    HW157683   6.807   9.918   5.826
15488SOL    HW257684   6.822   0.072   5.775
15489SOL     OW57685   0.793   1.674   3.528
15489SOL    HW157686   0.881   1.685   3.480
15489SOL    HW257687   0.762   1.580   3.519
15490SOL     OW57688   9.698   2.428   4.036
15490SOL    HW157689   9.709   2.334   4.069
15490SOL    HW257690   9.752   2.440   3.953
15491SOL     OW57691   7.539   7.234   5.140
15491SOL    HW157692   7.603   7.285   5.083
15491SOL    HW257693   7.584   7.209   5.226
15492SOL     OW57694   2.205   8.939   0.894
15492SOL    HW157695   2.205   8.996   0.812
15492SOL    HW257696   2.199   8.998   0.975
15493SOL     OW57697   9.003   9.249   2.847
15493SOL    HW157698   8.926   9.294   2.892
15493SOL    HW257699   8.971   9.169   2.797
15494SOL     OW57700   0.929   7.454   1.601
15494SOL    HW157701   0.927   7.418   1.508
15494SOL    HW257702   1.010   7.419   1.649
15495SOL     OW57703   8.982   4.720   5.012
15495SOL    HW157704   9.069   4.740   4.968
15495SOL    HW257705   8.998   4.686   5.104
15496SOL     OW57706   5.403   9.100   4.838
15496SOL    HW157707   5.456   9.047   4.772
15496SOL    HW257708   5.360   9.178   4.792
15497SOL     OW57709   2.237   3.854   4.296
15497SOL    HW157710   2.209   3.942   4.257
15497SOL    HW257711   2.189   3.839   4.383
15498SOL     OW57712   8.885   8.531   6.422
15498SOL    HW157713   8.940   8.613   6.437
15498SOL    HW257714   8.946   8.452   6.413
15499SOL     OW57715   2.859   9.684   5.067
15499SOL    HW157716   2.909   9.692   5.153
15499SOL    HW257717   2.761   9.692   5.084
15500SOL     OW57718   4.855   8.018   3.694
15500SOL    HW157719   4.823   7.924   3.683
15500SOL    HW257720   4.941   8.031   3.644
15501SOL     OW57721   0.862   7.995   4.849
15501SOL    HW157722   0.783   8.033   4.801
15501SOL    HW257723   0.925   7.955   4.782
15502SOL     OW57724   1.474   6.942   4.625
15502SOL    HW157725   1.481   7.039   4.600
15502SOL    HW257726   1.411   6.932   4.702
15503SOL     OW57727   6.229   9.444   3.270
15503SOL    HW157728   6.228   9.417   3.366
15503SOL    HW257729   6.265   9.537   3.262
15504SOL     OW57730   2.649   6.691   4.023
15504SOL    HW157731   2.580   6.697   3.951
15504SOL    HW257732   2.719   6.762   4.008
15505SOL     OW57733   3.497   5.453   0.736
15505SOL    HW157734   3.580   5.406   0.765
15505SOL    HW257735   3.520   5.542   0.697
15506SOL     OW57736   8.742   6.800   4.296
15506SOL    HW157737   8.669   6.861   4.326
15506SOL    HW257738   8.702   6.716   4.259
15507SOL     OW57739   9.238   1.897   6.224
15507SOL    HW157740   9.243   1.807   6.267
15507SOL    HW257741   9.269   1.891   6.129
15508SOL     OW57742   3.759   4.016   3.561
15508SOL    HW157743   3.819   4.092   3.583
15508SOL    HW257744   3.812   3.942   3.520
15509SOL     OW57745   0.742   2.507   0.737
15509SOL    HW157746   0.767   2.542   0.827
15509SOL    HW257747   0.688   2.575   0.688
15510SOL     OW57748   2.835   0.094   2.687
15510SOL    HW157749   2.868   0.072   2.595
15510SOL    HW257750   2.841   0.192   2.702
15511SOL     OW57751   1.937   4.436   0.493
15511SOL    HW157752   2.036   4.443   0.481
15511SOL    HW257753   1.917   4.387   0.578
15512SOL     OW57754   1.517   4.211   0.883
15512SOL    HW157755   1.554   4.120   0.901
15512SOL    HW257756   1.483   4.251   0.968
15513SOL     OW57757   4.561   4.890   3.277
15513SOL    HW157758   4.520   4.845   3.357
15513SOL    HW257759   4.643   4.939   3.306
15514SOL     OW57760   4.420   3.569   3.690
15514SOL    HW157761   4.500   3.511   3.675
15514SOL    HW257762   4.337   3.517   3.670
15515SOL     OW57763   3.308   8.687   1.462
15515SOL    HW157764   3.255   8.769   1.483
15515SOL    HW257765   3.369   8.666   1.539
15516SOL     OW57766   5.030   8.958   4.238
15516SOL    HW157767   5.012   8.994   4.329
15516SOL    HW257768   4.967   9.000   4.172
15517SOL     OW57769   9.164   2.365   5.039
15517SOL    HW157770   9.226   2.303   5.088
15517SOL    HW257771   9.112   2.419   5.105
15518SOL     OW57772   3.813   7.867   5.542
15518SOL    HW157773   3.763   7.885   5.627
15518SOL    HW257774   3.757   7.895   5.464
15519SOL     OW57775   5.735   9.123   6.048
15519SOL    HW157776   5.673   9.096   5.974
15519SOL    HW257777   5.731   9.222   6.060
15520SOL     OW57778   8.017   7.389   0.224
15520SOL    HW157779   7.927   7.410   0.186
15520SOL    HW257780   8.055   7.471   0.267
15521SOL     OW57781   2.172   3.620   2.378
15521SOL    HW157782   2.193   3.715   2.400
15521SOL    HW257783   2.095   3.589   2.434
15522SOL     OW57784   2.071   5.120   1.077
15522SOL    HW157785   2.024   5.115   0.988
15522SOL    HW257786   2.086   5.028   1.111
15523SOL     OW57787   3.059   2.594   2.004
15523SOL    HW157788   3.004   2.586   2.087
15523SOL    HW257789   3.144   2.643   2.024
15524SOL     OW57790   4.157   5.725   1.070
15524SOL    HW157791   4.121   5.632   1.071
15524SOL    HW257792   4.205   5.742   0.984
15525SOL     OW57793   4.153   0.017   5.703
15525SOL    HW157794   4.247   0.050   5.697
15525SOL    HW257795   4.123   0.021   5.799
15526SOL     OW57796   7.757   0.370   1.926
15526SOL    HW157797   7.776   0.272   1.922
15526SOL    HW257798   7.684   0.392   1.861
15527SOL     OW57799   4.325   4.765   5.551
15527SOL    HW157800   4.390   4.768   5.626
15527SOL    HW257801   4.368   4.723   5.471
15528SOL     OW57802   8.328   9.281   2.645
15528SOL    HW157803   8.330   9.380   2.653
15528SOL    HW257804   8.417   9.243   2.668
15529SOL     OW57805   2.371   9.054   2.599
15529SOL    HW157806   2.349   9.145   2.562
15529SOL    HW257807   2.425   9.065   2.682
15530SOL     OW57808   4.922   5.463   2.228
15530SOL    HW157809   4.839   5.414   2.256
15530SOL    HW257810   4.940   5.444   2.131
15531SOL     OW57811   8.725   2.506   4.080
15531SOL    HW157812   8.655   2.576   4.061
15531SOL    HW257813   8.694   2.448   4.155
15532SOL     OW57814   7.987   2.160   4.460
15532SOL    HW157815   7.991   2.156   4.560
15532SOL    HW257816   7.963   2.070   4.424
15533SOL     OW57817   4.555   5.179   0.869
15533SOL    HW157818   4.616   5.245   0.912
15533SOL    HW257819   4.558   5.093   0.920
15534SOL     OW57820   0.596   4.179   5.766
15534SOL    HW157821   0.599   4.120   5.685
15534SOL    HW257822   0.663   4.146   5.832
15535SOL     OW57823   7.340   4.929   1.510
15535SOL    HW157824   7.284   4.854   1.546
15535SOL    HW257825   7.327   5.010   1.568
15536SOL     OW57826   4.795   3.993   4.039
15536SOL    HW157827   4.880   3.999   3.987
15536SOL    HW257828   4.738   3.920   4.001
15537SOL     OW57829   8.588   3.262   4.296
15537SOL    HW157830   8.531   3.325   4.348
15537SOL    HW257831   8.684   3.286   4.308
15538SOL     OW57832   4.686   1.412   2.067
15538SOL    HW157833   4.749   1.354   2.119
15538SOL    HW257834   4.617   1.355   2.022
15539SOL     OW57835   8.835   6.945   1.935
15539SOL    HW157836   8.888   6.879   1.988
15539SOL    HW257837   8.786   7.006   1.998
15540SOL     OW57838   5.146   0.310   3.515
15540SOL    HW157839   5.159   0.315   3.614
15540SOL    HW257840   5.100   0.393   3.483
15541SOL     OW57841   9.436   9.623   1.432
15541SOL    HW157842   9.411   9.529   1.409
15541SOL    HW257843   9.355   9.681   1.427
15542SOL     OW57844   0.128   9.611   6.231
15542SOL    HW157845   0.064   9.634   6.305
15542SOL    HW257846   0.161   9.695   6.188
15543SOL     OW57847   1.453   6.639   0.288
15543SOL    HW157848   1.465   6.733   0.319
15543SOL    HW257849   1.487   6.630   0.195
15544SOL     OW57850   8.103   1.284   6.390
15544SOL    HW157851   8.089   1.222   6.468
15544SOL    HW257852   8.107   1.232   6.305
15545SOL     OW57853   1.283   0.123   3.377
15545SOL    HW157854   1.360   0.065   3.350
15545SOL    HW257855   1.209   0.066   3.414
15546SOL     OW57856   2.384   6.400   4.837
15546SOL    HW157857   2.321   6.430   4.766
15546SOL    HW257858   2.382   6.464   4.914
15547SOL     OW57859   2.162   6.864   1.051
15547SOL    HW157860   2.095   6.917   1.102
15547SOL    HW257861   2.254   6.895   1.076
15548SOL     OW57862   7.253   6.831   5.719
15548SOL    HW157863   7.291   6.895   5.786
15548SOL    HW257864   7.153   6.832   5.724
15549SOL     OW57865   3.463   6.488   0.145
15549SOL    HW157866   3.372   6.446   0.142
15549SOL    HW257867   3.462   6.564   0.210
15550SOL     OW57868   7.974   4.155   0.843
15550SOL    HW157869   7.888   4.186   0.802
15550SOL    HW257870   7.970   4.057   0.858
15551SOL     OW57871   4.051   7.155   4.353
15551SOL    HW157872   4.148   7.164   4.332
15551SOL    HW257873   4.005   7.243   4.341
15552SOL     OW57874   8.560   4.876   3.905
15552SOL    HW157875   8.579   4.961   3.856
15552SOL    HW257876   8.489   4.891   3.973
15553SOL     OW57877   2.646   8.431   6.154
15553SOL    HW157878   2.623   8.486   6.073
15553SOL    HW257879   2.580   8.356   6.163
15554SOL     OW57880   2.442   3.867   0.167
15554SOL    HW157881   2.400   3.779   0.144
15554SOL    HW257882   2.374   3.940   0.159
15555SOL     OW57883   3.822   0.248   4.817
15555SOL    HW157884   3.843   0.214   4.726
15555SOL    HW257885   3.728   0.281   4.820
15556SOL     OW57886   3.877   5.945   0.908
15556SOL    HW157887   3.817   5.866   0.897
15556SOL    HW257888   3.922   5.965   0.820
15557SOL     OW57889   6.691   6.971   5.914
15557SOL    HW157890   6.657   7.012   5.829
15557SOL    HW257891   6.706   6.873   5.900
15558SOL     OW57892   3.394   8.558   2.266
15558SOL    HW157893   3.428   8.500   2.340
15558SOL    HW257894   3.312   8.516   2.226
15559SOL     OW57895   7.624   6.928   3.566
15559SOL    HW157896   7.690   6.914   3.492
15559SOL    HW257897   7.608   7.026   3.578
15560SOL     OW57898   2.777   9.958   0.424
15560SOL    HW157899   2.745   0.023   0.355
15560SOL    HW257900   2.792   0.006   0.511
15561SOL     OW57901   7.309   9.167   3.041
15561SOL    HW157902   7.294   9.091   3.104
15561SOL    HW257903   7.368   9.138   2.966
15562SOL     OW57904   4.039   2.567   3.102
15562SOL    HW157905   4.090   2.513   3.169
15562SOL    HW257906   4.078   2.554   3.011
15563SOL     OW57907   3.335   6.823   5.417
15563SOL    HW157908   3.402   6.868   5.357
15563SOL    HW257909   3.260   6.787   5.361
15564SOL     OW57910   1.496   1.669   1.792
15564SOL    HW157911   1.440   1.622   1.860
15564SOL    HW257912   1.589   1.681   1.826
15565SOL     OW57913   1.903   8.438   3.577
15565SOL    HW157914   1.843   8.367   3.540
15565SOL    HW257915   1.996   8.424   3.543
15566SOL     OW57916   0.071   4.373   1.114
15566SOL    HW157917   0.050   4.373   1.016
15566SOL    HW257918   0.049   4.283   1.153
15567SOL     OW57919   2.152   8.799   4.979
15567SOL    HW157920   2.154   8.889   4.938
15567SOL    HW257921   2.194   8.803   5.070
15568SOL     OW57922   9.138   5.290   3.686
15568SOL    HW157923   9.215   5.343   3.651
15568SOL    HW257924   9.103   5.230   3.614
15569SOL     OW57925   9.705   7.504   4.649
15569SOL    HW157926   9.687   7.451   4.566
15569SOL    HW257927   9.744   7.444   4.719
15570SOL     OW57928   0.129   0.582   0.854
15570SOL    HW157929   0.086   0.605   0.941
15570SOL    HW257930   0.159   0.486   0.856
15571SOL     OW57931   7.884   8.794   2.866
15571SOL    HW157932   7.841   8.885   2.864
15571SOL    HW257933   7.813   8.724   2.865
15572SOL     OW57934   2.081   0.530   4.884
15572SOL    HW157935   2.135   0.488   4.957
15572SOL    HW257936   2.050   0.460   4.820
15573SOL     OW57937   7.171   4.927   1.810
15573SOL    HW157938   7.217   5.011   1.780
15573SOL    HW257939   7.238   4.853   1.816
15574SOL     OW57940   9.417   6.101   5.618
15574SOL    HW157941   9.388   6.063   5.706
15574SOL    HW257942   9.399   6.033   5.546
15575SOL     OW57943   8.045   4.450   4.182
15575SOL    HW157944   8.073   4.536   4.223
15575SOL    HW257945   7.998   4.394   4.251
15576SOL     OW57946   9.790   9.725   5.312
15576SOL    HW157947   9.742   9.813   5.304
15576SOL    HW257948   9.889   9.740   5.302
15577SOL     OW57949   1.037   5.364   1.823
15577SOL    HW157950   1.056   5.347   1.727
15577SOL    HW257951   0.979   5.291   1.860
15578SOL     OW57952   9.612   9.195   2.355
15578SOL    HW157953   9.531   9.144   2.383
15578SOL    HW257954   9.609   9.211   2.256
15579SOL     OW57955   7.183   8.034   5.626
15579SOL    HW157956   7.134   7.972   5.686
15579SOL    HW257957   7.199   8.121   5.674
15580SOL     OW57958   9.065   1.678   5.098
15580SOL    HW157959   9.158   1.665   5.062
15580SOL    HW257960   9.013   1.734   5.034
15581SOL     OW57961   0.616   3.399   4.634
15581SOL    HW157962   0.662   3.393   4.545
15581SOL    HW257963   0.683   3.420   4.705
15582SOL     OW57964   6.141   0.504   1.253
15582SOL    HW157965   6.123   0.558   1.335
15582SOL    HW257966   6.240   0.498   1.239
15583SOL     OW57967   9.801   4.914   2.068
15583SOL    HW157968   9.708   4.910   2.032
15583SOL    HW257969   9.855   4.978   2.014
15584SOL     OW57970   9.985   4.722   4.380
15584SOL    HW157971   0.007   4.728   4.478
15584SOL    HW257972   9.903   4.777   4.362
15585SOL     OW57973   7.597   0.145   0.065
15585SOL    HW157974   7.548   0.232   0.072
15585SOL    HW257975   7.549   0.075   0.117
15586SOL     OW57976   9.177   3.377   1.468
15586SOL    HW157977   9.259   3.352   1.417
15586SOL    HW257978   9.171   3.322   1.552
15587SOL     OW57979   4.183   6.842   3.046
15587SOL    HW157980   4.259   6.850   3.110
15587SOL    HW257981   4.159   6.746   3.033
15588SOL     OW57982   9.654   5.440   3.785
15588SOL    HW157983   9.674   5.362   3.727
15588SOL    HW257984   9.665   5.524   3.733
15589SOL     OW57985   8.798   0.097   1.119
15589SOL    HW157986   8.738   0.074   1.195
15589SOL    HW257987   8.889   0.119   1.153
15590SOL     OW57988   7.275   9.159   4.012
15590SOL    HW157989   7.320   9.090   4.069
15590SOL    HW257990   7.238   9.231   4.071
15591SOL     OW57991   4.429   2.670   4.055
15591SOL    HW157992   4.481   2.587   4.034
15591SOL    HW257993   4.488   2.735   4.103
15592SOL     OW57994   9.919   0.717   1.454
15592SOL    HW157995   9.938   0.715   1.355
15592SOL    HW257996   9.875   0.631   1.480
15593SOL     OW57997   2.522   3.026   4.195
15593SOL    HW157998   2.530   3.103   4.258
15593SOL    HW257999   2.537   3.058   4.101
15594SOL     OW58000   0.254   0.373   3.671
15594SOL    HW158001   0.175   0.409   3.721
15594SOL    HW258002   0.336   0.423   3.698
15595SOL     OW58003   9.252   1.066   4.478
15595SOL    HW158004   9.160   1.080   4.443
15595SOL    HW258005   9.264   0.970   4.504
15596SOL     OW58006   3.326   6.273   1.014
15596SOL    HW158007   3.278   6.198   0.968
15596SOL    HW258008   3.356   6.340   0.946
15597SOL     OW58009   2.104   4.535   0.759
15597SOL    HW158010   2.057   4.623   0.762
15597SOL    HW258011   2.090   4.487   0.846
15598SOL     OW58012   9.658   0.228   5.269
15598SOL    HW158013   9.740   0.250   5.215
15598SOL    HW258014   9.662   0.277   5.356
15599SOL     OW58015   2.498   0.659   3.986
15599SOL    HW158016   2.444   0.736   3.953
15599SOL    HW258017   2.501   0.588   3.916
15600SOL     OW58018   4.700   1.228   0.580
15600SOL    HW158019   4.789   1.254   0.620
15600SOL    HW258020   4.705   1.135   0.544
15601SOL     OW58021   9.721   8.598   3.908
15601SOL    HW158022   9.748   8.603   4.004
15601SOL    HW258023   9.720   8.503   3.878
15602SOL     OW58024   9.056   7.417   0.841
15602SOL    HW158025   8.996   7.447   0.916
15602SOL    HW258026   9.066   7.318   0.844
15603SOL     OW58027   5.204   8.136   5.009
15603SOL    HW158028   5.246   8.119   5.099
15603SOL    HW258029   5.220   8.056   4.950
15604SOL     OW58030   9.087   2.326   3.286
15604SOL    HW158031   9.099   2.425   3.285
15604SOL    HW258032   9.078   2.292   3.192
15605SOL     OW58033   5.395   8.236   4.364
15605SOL    HW158034   5.476   8.294   4.354
15605SOL    HW258035   5.422   8.140   4.364
15606SOL     OW58036   3.051   5.249   1.615
15606SOL    HW158037   2.991   5.290   1.548
15606SOL    HW258038   3.142   5.237   1.576
15607SOL     OW58039   1.341   3.664   6.051
15607SOL    HW158040   1.322   3.725   6.128
15607SOL    HW258041   1.343   3.718   5.967
15608SOL     OW58042   1.590   3.826   5.700
15608SOL    HW158043   1.615   3.919   5.675
15608SOL    HW258044   1.507   3.828   5.755
15609SOL     OW58045   7.931   3.663   4.754
15609SOL    HW158046   7.920   3.591   4.685
15609SOL    HW258047   7.911   3.752   4.712
15610SOL     OW58048   1.295   1.753   2.870
15610SOL    HW158049   1.299   1.826   2.938
15610SOL    HW258050   1.309   1.791   2.778
15611SOL     OW58051   9.316   5.305   6.325
15611SOL    HW158052   9.219   5.321   6.308
15611SOL    HW258053   9.363   5.392   6.338
15612SOL     OW58054   7.606   0.872   6.166
15612SOL    HW158055   7.646   0.781   6.178
15612SOL    HW258056   7.659   0.923   6.098
15613SOL     OW58057   4.092   3.726   0.124
15613SOL    HW158058   4.044   3.728   0.036
15613SOL    HW258059   4.035   3.682   0.193
15614SOL     OW58060   3.898   3.377   1.466
15614SOL    HW158061   3.899   3.474   1.440
15614SOL    HW258062   3.805   3.350   1.490
15615SOL     OW58063   0.769   2.861   1.504
15615SOL    HW158064   0.826   2.805   1.444
15615SOL    HW258065   0.821   2.941   1.534
15616SOL     OW58066   1.595   4.190   4.478
15616SOL    HW158067   1.562   4.119   4.416
15616SOL    HW258068   1.592   4.279   4.432
15617SOL     OW58069   8.137   8.251   4.283
15617SOL    HW158070   8.083   8.193   4.343
15617SOL    HW258071   8.226   8.209   4.267
15618SOL     OW58072   3.212   5.685   2.949
15618SOL    HW158073   3.155   5.678   3.031
15618SOL    HW258074   3.308   5.687   2.975
15619SOL     OW58075   9.613   8.978   5.814
15619SOL    HW158076   9.575   8.894   5.777
15619SOL    HW258077   9.631   8.967   5.912
15620SOL     OW58078   1.334   6.109   1.299
15620SOL    HW158079   1.329   6.014   1.330
15620SOL    HW258080   1.242   6.150   1.301
15621SOL     OW58081   8.160   9.271   6.494
15621SOL    HW158082   8.087   9.237   6.435
15621SOL    HW258083   8.133   9.259   6.590
15622SOL     OW58084   9.695   9.331   1.524
15622SOL    HW158085   9.713   9.325   1.622
15622SOL    HW258086   9.619   9.269   1.501
15623SOL     OW58087   9.084   5.130   3.475
15623SOL    HW158088   9.158   5.103   3.414
15623SOL    HW258089   9.003   5.075   3.456
15624SOL     OW58090   5.078   2.352   5.743
15624SOL    HW158091   5.062   2.265   5.789
15624SOL    HW258092   5.100   2.422   5.812
15625SOL     OW58093   8.854   2.874   5.350
15625SOL    HW158094   8.787   2.942   5.379
15625SOL    HW258095   8.943   2.895   5.391
15626SOL     OW58096   4.292   5.743   0.830
15626SOL    HW158097   4.378   5.704   0.799
15626SOL    HW258098   4.299   5.843   0.834
15627SOL     OW58099   0.502   7.705   6.201
15627SOL    HW158100   0.558   7.633   6.242
15627SOL    HW258101   0.449   7.750   6.273
15628SOL     OW58102   5.734   7.823   5.474
15628SOL    HW158103   5.805   7.752   5.474
15628SOL    HW258104   5.665   7.800   5.405
15629SOL     OW58105   3.449   3.209   0.588
15629SOL    HW158106   3.524   3.236   0.526
15629SOL    HW258107   3.431   3.111   0.576
15630SOL     OW58108   9.764   9.567   3.518
15630SOL    HW158109   9.664   9.574   3.519
15630SOL    HW258110   9.793   9.489   3.573
15631SOL     OW58111   8.609   9.575   1.356
15631SOL    HW158112   8.540   9.574   1.284
15631SOL    HW258113   8.667   9.494   1.347
15632SOL     OW58114   3.256   7.634   2.829
15632SOL    HW158115   3.269   7.535   2.823
15632SOL    HW258116   3.266   7.675   2.738
15633SOL     OW58117   0.628   9.779   6.274
15633SOL    HW158118   0.701   9.845   6.254
15633SOL    HW258119   0.540   9.827   6.278
15634SOL     OW58120   2.327   6.781   5.688
15634SOL    HW158121   2.256   6.836   5.644
15634SOL    HW258122   2.411   6.836   5.696
15635SOL     OW58123   2.946   5.968   5.884
15635SOL    HW158124   3.002   5.897   5.842
15635SOL    HW258125   2.849   5.946   5.872
15636SOL     OW58126   3.834   4.977   3.233
15636SOL    HW158127   3.748   4.968   3.182
15636SOL    HW258128   3.901   4.911   3.199
15637SOL     OW58129   8.597   6.233   0.067
15637SOL    HW158130   8.641   6.179   0.139
15637SOL    HW258131   8.649   6.318   0.054
15638SOL     OW58132   9.649   4.161   0.932
15638SOL    HW158133   9.650   4.164   1.032
15638SOL    HW258134   9.719   4.098   0.899
15639SOL     OW58135   7.497   2.032   2.939
15639SOL    HW158136   7.555   2.096   2.888
15639SOL    HW258137   7.496   2.057   3.036
15640SOL     OW58138   9.075   1.707   2.083
15640SOL    HW158139   9.126   1.718   1.998
15640SOL    HW258140   9.024   1.791   2.102
15641SOL     OW58141   7.135   9.749   2.677
15641SOL    HW158142   7.210   9.787   2.731
15641SOL    HW258143   7.103   9.819   2.612
15642SOL     OW58144   3.200   3.840   0.075
15642SOL    HW158145   3.247   3.771   0.131
15642SOL    HW258146   3.255   3.859   8.182
15643SOL     OW58147   9.854   7.576   5.142
15643SOL    HW158148   9.914   7.495   5.142
15643SOL    HW258149   9.767   7.552   5.098
15644SOL     OW58150   4.854   9.513   1.685
15644SOL    HW158151   4.875   9.458   1.604
15644SOL    HW258152   4.786   9.465   1.741
15645SOL     OW58153   2.371   9.127   4.750
15645SOL    HW158154   2.285   9.087   4.781
15645SOL    HW258155   2.369   9.138   4.651
15646SOL     OW58156   4.365   6.507   0.304
15646SOL    HW158157   4.278   6.483   0.348
15646SOL    HW258158   4.361   6.485   0.207
15647SOL     OW58159   8.315   3.319   2.200
15647SOL    HW158160   8.217   3.310   2.212
15647SOL    HW258161   8.358   3.344   2.286
15648SOL     OW58162   8.616   6.945   1.395
15648SOL    HW158163   8.546   6.983   1.335
15648SOL    HW258164   8.584   6.948   1.490
15649SOL     OW58165   5.739   0.990   4.517
15649SOL    HW158166   5.723   1.079   4.560
15649SOL    HW258167   5.811   0.941   4.566
15650SOL     OW58168   0.736   5.239   5.476
15650SOL    HW158169   0.740   5.190   5.562
15650SOL    HW258170   0.736   5.337   5.493
15651SOL     OW58171   9.034   0.001   4.458
15651SOL    HW158172   8.989   0.055   4.386
15651SOL    HW258173   9.041   0.056   4.541
15652SOL     OW58174   0.285   3.350   4.149
15652SOL    HW158175   0.196   3.365   4.106
15652SOL    HW258176   0.273   3.338   4.248
15653SOL     OW58177   1.613   5.576   0.616
15653SOL    HW158178   1.560   5.596   0.698
15653SOL    HW258179   1.601   5.479   0.592
15654SOL     OW58180   1.111   9.669   4.420
15654SOL    HW158181   1.029   9.681   4.476
15654SOL    HW258182   1.173   9.746   4.435
15655SOL     OW58183   0.501   8.493   1.303
15655SOL    HW158184   0.510   8.593   1.299
15655SOL    HW258185   0.409   8.467   1.275
15656SOL     OW58186   4.368   2.476   3.697
15656SOL    HW158187   4.311   2.531   3.759
15656SOL    HW258188   4.331   2.384   3.691
15657SOL     OW58189   9.503   7.321   5.233
15657SOL    HW158190   9.593   7.286   5.260
15657SOL    HW258191   9.514   7.401   5.174
15658SOL     OW58192   7.345   7.372   3.994
15658SOL    HW158193   7.282   7.448   3.974
15658SOL    HW258194   7.431   7.408   4.029
15659SOL     OW58195   8.591   1.726   3.044
15659SOL    HW158196   8.503   1.680   3.050
15659SOL    HW258197   8.588   1.793   2.969
15660SOL     OW58198   4.497   9.493   4.367
15660SOL    HW158199   4.418   9.494   4.429
15660SOL    HW258200   4.466   9.516   4.274
15661SOL     OW58201   7.512   2.139   0.835
15661SOL    HW158202   7.506   2.133   0.934
15661SOL    HW258203   7.609   2.141   0.807
15662SOL     OW58204   7.992   8.213   3.331
15662SOL    HW158205   7.902   8.253   3.310
15662SOL    HW258206   8.036   8.266   3.403
15663SOL     OW58207   2.571   0.641   2.937
15663SOL    HW158208   2.497   0.707   2.952
15663SOL    HW258209   2.654   0.689   2.911
15664SOL     OW58210   7.606   8.913   6.360
15664SOL    HW158211   7.632   8.816   6.360
15664SOL    HW258212   7.596   8.944   6.266
15665SOL     OW58213   2.657   5.891   1.950
15665SOL    HW158214   2.701   5.899   2.039
15665SOL    HW258215   2.723   5.914   1.878
15666SOL     OW58216   7.583   8.431   5.593
15666SOL    HW158217   7.510   8.500   5.601
15666SOL    HW258218   7.554   8.360   5.529
15667SOL     OW58219   1.448   0.850   2.944
15667SOL    HW158220   1.409   0.941   2.961
15667SOL    HW258221   1.515   0.829   3.014
15668SOL     OW58222   0.867   1.232   0.872
15668SOL    HW158223   0.918   1.281   0.801
15668SOL    HW258224   0.827   1.149   0.833
15669SOL     OW58225   9.167   3.532   4.281
15669SOL    HW158226   9.170   3.534   4.381
15669SOL    HW258227   9.129   3.445   4.250
15670SOL     OW58228   5.561   1.791   4.476
15670SOL    HW158229   5.478   1.769   4.424
15670SOL    HW258230   5.548   1.766   4.572
15671SOL     OW58231   3.536   2.775   5.799
15671SOL    HW158232   3.562   2.861   5.843
15671SOL    HW258233   3.436   2.769   5.795
15672SOL     OW58234   3.573   7.028   2.892
15672SOL    HW158235   3.476   7.004   2.899
15672SOL    HW258236   3.627   6.944   2.897
15673SOL     OW58237   9.652   3.447   5.360
15673SOL    HW158238   9.716   3.507   5.312
15673SOL    HW258239   9.683   3.433   5.454
15674SOL     OW58240   8.281   9.256   6.040
15674SOL    HW158241   8.348   9.291   5.974
15674SOL    HW258242   8.326   9.191   6.101
15675SOL     OW58243   8.049   4.726   0.953
15675SOL    HW158244   7.982   4.666   0.911
15675SOL    HW258245   8.035   4.727   1.052
15676SOL     OW58246   9.413   4.285   5.188
15676SOL    HW158247   9.506   4.295   5.152
15676SOL    HW258248   9.363   4.218   5.132
15677SOL     OW58249   3.198   1.490   0.233
15677SOL    HW158250   3.204   1.451   0.325
15677SOL    HW258251   3.194   1.590   0.238
15678SOL     OW58252   8.970   1.301   3.527
15678SOL    HW158253   8.986   1.312   3.429
15678SOL    HW258254   8.915   1.377   3.561
15679SOL     OW58255   2.058   2.145   2.366
15679SOL    HW158256   2.065   2.097   2.278
15679SOL    HW258257   2.017   2.235   2.351
15680SOL     OW58258   3.149   3.244   0.923
15680SOL    HW158259   3.157   3.195   0.836
15680SOL    HW258260   3.098   3.188   0.988
15681SOL     OW58261   8.923   8.540   3.030
15681SOL    HW158262   9.007   8.561   3.081
15681SOL    HW258263   8.844   8.573   3.082
15682SOL     OW58264   3.391   6.733   3.073
15682SOL    HW158265   3.478   6.685   3.061
15682SOL    HW258266   3.347   6.744   2.984
15683SOL     OW58267   0.456   5.711   0.432
15683SOL    HW158268   0.544   5.682   0.470
15683SOL    HW258269   0.463   5.716   0.332
15684SOL     OW58270   2.975   0.032   1.305
15684SOL    HW158271   2.919   0.094   1.250
15684SOL    HW258272   3.051   9.997   1.250
15685SOL     OW58273   4.574   3.957   1.613
15685SOL    HW158274   4.567   3.930   1.517
15685SOL    HW258275   4.670   3.965   1.639
15686SOL     OW58276   1.339   6.206   5.418
15686SOL    HW158277   1.313   6.113   5.446
15686SOL    HW258278   1.416   6.201   5.355
15687SOL     OW58279   7.827   4.717   4.996
15687SOL    HW158280   7.860   4.811   4.981
15687SOL    HW258281   7.746   4.700   4.940
15688SOL     OW58282   4.275   7.303   1.892
15688SOL    HW158283   4.321   7.222   1.929
15688SOL    HW258284   4.181   7.279   1.866
15689SOL     OW58285   3.029   0.917   2.974
15689SOL    HW158286   2.933   0.927   2.951
15689SOL    HW258287   3.083   0.984   2.922
15690SOL     OW58288   8.130   2.808   5.179
15690SOL    HW158289   8.223   2.839   5.163
15690SOL    HW258290   8.119   2.715   5.145
15691SOL     OW58291   8.932   9.066   1.417
15691SOL    HW158292   8.965   9.158   1.399
15691SOL    HW258293   8.913   9.056   1.515
15692SOL     OW58294   9.483   9.886   4.552
15692SOL    HW158295   9.429   9.883   4.636
15692SOL    HW258296   9.537   9.802   4.544
15693SOL     OW58297   5.496   1.976   3.534
15693SOL    HW158298   5.431   2.002   3.606
15693SOL    HW258299   5.508   2.053   3.472
15694SOL     OW58300   7.528   0.105   0.465
15694SOL    HW158301   7.486   0.070   0.381
15694SOL    HW258302   7.457   0.145   0.523
15695SOL     OW58303   8.214   7.263   3.233
15695SOL    HW158304   8.299   7.247   3.282
15695SOL    HW258305   8.137   7.226   3.285
15696SOL     OW58306   0.689   1.821   1.847
15696SOL    HW158307   0.664   1.742   1.791
15696SOL    HW258308   0.607   1.860   1.889
15697SOL     OW58309   1.236   9.893   0.623
15697SOL    HW158310   1.194   9.866   0.537
15697SOL    HW258311   1.317   9.837   0.640
15698SOL     OW58312   7.040   1.167   0.571
15698SOL    HW158313   7.023   1.176   0.473
15698SOL    HW258314   6.994   1.085   0.605
15699SOL     OW58315   3.737   5.345   0.814
15699SOL    HW158316   3.812   5.387   0.764
15699SOL    HW258317   3.742   5.246   0.805
15700SOL     OW58318   9.486   2.678   6.014
15700SOL    HW158319   9.566   2.733   6.035
15700SOL    HW258320   9.476   2.606   6.081
15701SOL     OW58321   1.019   1.957   0.914
15701SOL    HW158322   0.922   1.980   0.924
15701SOL    HW258323   1.071   1.998   0.989
15702SOL     OW58324   9.429   0.044   2.623
15702SOL    HW158325   9.519   0.075   2.654
15702SOL    HW258326   9.372   0.021   2.702
15703SOL     OW58327   3.884   3.882   1.753
15703SOL    HW158328   3.907   3.934   1.671
15703SOL    HW258329   3.948   3.905   1.826
15704SOL     OW58330   3.857   9.357   2.674
15704SOL    HW158331   3.846   9.315   2.764
15704SOL    HW258332   3.774   9.344   2.621
15705SOL     OW58333   3.089   1.310   1.013
15705SOL    HW158334   3.182   1.274   1.017
15705SOL    HW258335   3.024   1.236   1.025
15706SOL     OW58336   8.699   6.630   0.706
15706SOL    HW158337   8.751   6.614   0.790
15706SOL    HW258338   8.617   6.682   0.727
15707SOL     OW58339   5.767   0.355   5.748
15707SOL    HW158340   5.850   0.321   5.792
15707SOL    HW258341   5.703   0.279   5.734
15708SOL     OW58342   6.982   9.448   1.821
15708SOL    HW158343   7.064   9.471   1.873
15708SOL    HW258344   6.921   9.528   1.819
15709SOL     OW58345   4.110   0.507   5.689
15709SOL    HW158346   4.125   0.544   5.781
15709SOL    HW258347   4.059   0.422   5.696
15710SOL     OW58348   0.362   0.208   5.280
15710SOL    HW158349   0.370   0.308   5.277
15710SOL    HW258350   0.426   0.168   5.215
15711SOL     OW58351   0.704   8.116   3.809
15711SOL    HW158352   0.692   8.197   3.752
15711SOL    HW258353   0.622   8.059   3.805
15712SOL     OW58354   9.392   1.509   4.251
15712SOL    HW158355   9.396   1.411   4.270
15712SOL    HW258356   9.351   1.557   4.329
15713SOL     OW58357   1.690   3.489   5.440
15713SOL    HW158358   1.758   3.551   5.482
15713SOL    HW258359   1.680   3.408   5.497
15714SOL     OW58360   7.486   8.541   3.643
15714SOL    HW158361   7.441   8.452   3.634
15714SOL    HW258362   7.485   8.570   3.739
15715SOL     OW58363   8.469   8.615   0.757
15715SOL    HW158364   8.482   8.696   0.701
15715SOL    HW258365   8.431   8.541   0.701
15716SOL     OW58366   8.518   3.034   4.434
15716SOL    HW158367   8.548   3.120   4.393
15716SOL    HW258368   8.550   3.029   4.528
15717SOL     OW58369   9.870   1.798   0.425
15717SOL    HW158370   9.958   1.750   0.427
15717SOL    HW258371   9.875   1.872   0.357
15718SOL     OW58372   7.324   0.404   3.600
15718SOL    HW158373   7.362   0.381   3.510
15718SOL    HW258374   7.233   0.443   3.588
15719SOL     OW58375   4.866   8.253   4.666
15719SOL    HW158376   4.836   8.181   4.604
15719SOL    HW258377   4.902   8.213   4.750
15720SOL     OW58378   6.486   8.427   4.784
15720SOL    HW158379   6.518   8.505   4.837
15720SOL    HW258380   6.518   8.342   4.826
15721SOL     OW58381   2.056   9.271   4.542
15721SOL    HW158382   1.997   9.191   4.555
15721SOL    HW258383   2.150   9.241   4.524
15722SOL     OW58384   3.805   1.188   1.319
15722SOL    HW158385   3.760   1.133   1.250
15722SOL    HW258386   3.811   1.137   1.405
15723SOL     OW58387   6.904   9.463   5.004
15723SOL    HW158388   6.954   9.524   5.066
15723SOL    HW258389   6.943   9.371   5.010
15724SOL     OW58390   4.284   6.696   1.680
15724SOL    HW158391   4.210   6.634   1.708
15724SOL    HW258392   4.245   6.770   1.625
15725SOL     OW58393   1.642   8.720   2.338
15725SOL    HW158394   1.671   8.647   2.276
15725SOL    HW258395   1.580   8.682   2.407
15726SOL     OW58396   9.352   2.015   1.605
15726SOL    HW158397   9.372   1.947   1.534
15726SOL    HW258398   9.255   2.014   1.626
15727SOL     OW58399   0.049   9.553   0.392
15727SOL    HW158400   9.952   9.574   0.377
15727SOL    HW258401   0.057   9.469   0.447
15728SOL     OW58402   3.428   3.586   5.072
15728SOL    HW158403   3.426   3.634   5.160
15728SOL    HW258404   3.393   3.493   5.084
15729SOL     OW58405   9.358   5.394   5.926
15729SOL    HW158406   9.289   5.463   5.905
15729SOL    HW258407   9.387   5.349   5.841
15730SOL     OW58408   9.690   0.926   0.565
15730SOL    HW158409   9.609   0.891   0.517
15730SOL    HW258410   9.772   0.886   0.524
15731SOL     OW58411   6.986   3.810   0.755
15731SOL    HW158412   7.043   3.763   0.688
15731SOL    HW258413   6.904   3.846   0.709
15732SOL     OW58414   6.402   0.775   5.545
15732SOL    HW158415   6.479   0.713   5.534
15732SOL    HW258416   6.416   0.856   5.487
15733SOL     OW58417   3.505   1.711   4.052
15733SOL    HW158418   3.502   1.622   4.096
15733SOL    HW258419   3.576   1.711   3.981
15734SOL     OW58420   3.159   1.551   6.382
15734SOL    HW158421   3.248   1.512   6.362
15734SOL    HW258422   3.147   1.560   6.481
15735SOL     OW58423   7.504   0.415   4.205
15735SOL    HW158424   7.521   0.482   4.133
15735SOL    HW258425   7.582   0.354   4.213
15736SOL     OW58426   9.003   3.765   5.881
15736SOL    HW158427   9.098   3.745   5.858
15736SOL    HW258428   8.965   3.692   5.937
15737SOL     OW58429   7.982   7.976   5.259
15737SOL    HW158430   7.994   7.878   5.275
15737SOL    HW258431   7.952   7.991   5.165
15738SOL     OW58432   9.909   6.664   0.568
15738SOL    HW158433   9.860   6.580   0.593
15738SOL    HW258434   9.989   6.676   0.627
15739SOL     OW58435   9.750   2.055   2.032
15739SOL    HW158436   9.775   2.082   2.124
15739SOL    HW258437   9.827   2.006   1.989
15740SOL     OW58438   6.883   2.730   2.207
15740SOL    HW158439   6.884   2.704   2.303
15740SOL    HW258440   6.971   2.706   2.165
15741SOL     OW58441   8.157   2.923   1.571
15741SOL    HW158442   8.116   2.931   1.661
15741SOL    HW258443   8.252   2.892   1.580
15742SOL     OW58444   1.721   3.912   2.733
15742SOL    HW158445   1.742   3.986   2.797
15742SOL    HW258446   1.703   3.951   2.643
15743SOL     OW58447   3.476   4.410   4.697
15743SOL    HW158448   3.427   4.341   4.643
15743SOL    HW258449   3.574   4.402   4.679
15744SOL     OW58450   3.083   9.443   5.174
15744SOL    HW158451   3.086   9.522   5.235
15744SOL    HW258452   3.134   9.368   5.215
15745SOL     OW58453   9.486   2.660   1.783
15745SOL    HW158454   9.400   2.709   1.795
15745SOL    HW258455   9.467   2.567   1.751
15746SOL     OW58456   2.515   4.210   0.094
15746SOL    HW158457   2.428   4.168   0.118
15746SOL    HW258458   2.573   4.142   0.048
15747SOL     OW58459   0.046   9.640   3.214
15747SOL    HW158460   0.128   9.689   3.187
15747SOL    HW258461   0.070   9.569   3.281
15748SOL     OW58462   9.886   7.496   1.560
15748SOL    HW158463   9.958   7.554   1.597
15748SOL    HW258464   9.897   7.403   1.595
15749SOL     OW58465   8.246   6.505   0.512
15749SOL    HW158466   8.187   6.498   0.593
15749SOL    HW258467   8.317   6.574   0.529
15750SOL     OW58468   0.807   1.241   2.107
15750SOL    HW158469   0.732   1.282   2.056
15750SOL    HW258470   0.784   1.146   2.129
15751SOL     OW58471   2.651   3.283   2.800
15751SOL    HW158472   2.683   3.263   2.892
15751SOL    HW258473   2.682   3.211   2.738
15752SOL     OW58474   3.831   4.495   0.916
15752SOL    HW158475   3.744   4.541   0.901
15752SOL    HW258476   3.904   4.547   0.872
15753SOL     OW58477   3.011   5.845   4.768
15753SOL    HW158478   2.944   5.876   4.834
15753SOL    HW258479   2.973   5.852   4.676
15754SOL     OW58480   3.573   9.510   5.072
15754SOL    HW158481   3.547   9.455   5.152
15754SOL    HW258482   3.602   9.601   5.102
15755SOL     OW58483   4.975   7.893   4.750
15755SOL    HW158484   5.017   7.907   4.660
15755SOL    HW258485   4.961   7.981   4.795
15756SOL     OW58486   2.215   4.459   0.530
15756SOL    HW158487   2.170   4.486   0.615
15756SOL    HW258488   2.314   4.459   0.544
15757SOL     OW58489   7.987   0.112   1.210
15757SOL    HW158490   7.894   0.075   1.213
15757SOL    HW258491   8.031   0.085   1.124
15758SOL     OW58492   4.089   2.192   4.674
15758SOL    HW158493   4.111   2.152   4.585
15758SOL    HW258494   4.096   2.292   4.668
15759SOL     OW58495   1.427   3.232   5.442
15759SOL    HW158496   1.515   3.236   5.487
15759SOL    HW258497   1.416   3.142   5.398
15760SOL     OW58498   1.444   6.988   3.447
15760SOL    HW158499   1.458   6.889   3.444
15760SOL    HW258500   1.353   7.010   3.410
15761SOL     OW58501   7.862   3.377   2.364
15761SOL    HW158502   7.882   3.462   2.412
15761SOL    HW258503   7.855   3.302   2.430
15762SOL     OW58504   2.204   7.692   0.653
15762SOL    HW158505   2.291   7.650   0.628
15762SOL    HW258506   2.132   7.623   0.655
15763SOL     OW58507   0.629   2.499   3.123
15763SOL    HW158508   0.572   2.580   3.131
15763SOL    HW258509   0.600   2.446   3.043
15764SOL     OW58510   3.421   7.312   2.073
15764SOL    HW158511   3.501   7.263   2.040
15764SOL    HW258512   3.371   7.351   1.995
15765SOL     OW58513   0.218   6.856   1.826
15765SOL    HW158514   0.231   6.758   1.835
15765SOL    HW258515   0.291   6.895   1.771
15766SOL     OW58516   4.687   0.396   5.406
15766SOL    HW158517   4.666   0.430   5.314
15766SOL    HW258518   4.717   0.472   5.463
15767SOL     OW58519   2.005   4.547   1.858
15767SOL    HW158520   2.034   4.626   1.803
15767SOL    HW258521   2.021   4.463   1.806
15768SOL     OW58522   3.746   7.983   5.060
15768SOL    HW158523   3.764   7.908   4.995
15768SOL    HW258524   3.822   8.048   5.058
15769SOL     OW58525   7.903   9.086   4.900
15769SOL    HW158526   7.959   9.133   4.833
15769SOL    HW258527   7.939   8.993   4.914
15770SOL     OW58528   1.985   3.100   2.387
15770SOL    HW158529   1.947   3.047   2.311
15770SOL    HW258530   1.934   3.078   2.470
15771SOL     OW58531   7.265   1.035   0.078
15771SOL    HW158532   7.232   1.096   0.006
15771SOL    HW258533   7.199   0.961   0.092
15772SOL     OW58534   3.964   0.227   3.551
15772SOL    HW158535   3.948   0.244   3.454
15772SOL    HW258536   3.877   0.223   3.599
15773SOL     OW58537   5.362   7.726   2.559
15773SOL    HW158538   5.349   7.689   2.651
15773SOL    HW258539   5.296   7.684   2.497
15774SOL     OW58540   3.349   4.799   2.192
15774SOL    HW158541   3.428   4.791   2.253
15774SOL    HW258542   3.266   4.782   2.244
15775SOL     OW58543   7.348   1.891   4.569
15775SOL    HW158544   7.393   1.875   4.657
15775SOL    HW258545   7.417   1.916   4.501
15776SOL     OW58546   6.365   4.521   1.045
15776SOL    HW158547   6.269   4.541   1.066
15776SOL    HW258548   6.406   4.474   1.123
15777SOL     OW58549   1.860   5.779   3.573
15777SOL    HW158550   1.935   5.760   3.636
15777SOL    HW258551   1.883   5.743   3.483
15778SOL     OW58552   3.235   8.426   3.074
15778SOL    HW158553   3.324   8.442   3.115
15778SOL    HW258554   3.175   8.383   3.141
15779SOL     OW58555   1.588   0.349   0.581
15779SOL    HW158556   1.533   0.290   0.522
15779SOL    HW258557   1.549   0.350   0.673
15780SOL     OW58558   5.395   5.805   0.480
15780SOL    HW158559   5.462   5.732   0.496
15780SOL    HW258560   5.414   5.881   0.543
15781SOL     OW58561   1.959   5.818   5.125
15781SOL    HW158562   1.875   5.780   5.163
15781SOL    HW258563   1.989   5.763   5.048
15782SOL     OW58564   0.698   3.705   0.510
15782SOL    HW158565   0.668   3.740   0.599
15782SOL    HW258566   0.757   3.625   0.523
15783SOL     OW58567   8.058   3.712   1.879
15783SOL    HW158568   8.140   3.675   1.836
15783SOL    HW258569   8.067   3.707   1.979
15784SOL     OW58570   6.509   2.567   0.934
15784SOL    HW158571   6.536   2.625   0.857
15784SOL    HW258572   6.527   2.471   0.912
15785SOL     OW58573   1.994   9.415   0.845
15785SOL    HW158574   1.956   9.506   0.825
15785SOL    HW258575   2.093   9.418   0.837
15786SOL     OW58576   9.561   0.017   0.808
15786SOL    HW158577   9.463   0.019   0.787
15786SOL    HW258578   9.574   9.982   0.901
15787SOL     OW58579   8.204   5.416   3.847
15787SOL    HW158580   8.203   5.513   3.822
15787SOL    HW258581   8.137   5.366   3.791
15788SOL     OW58582   1.305   8.368   1.591
15788SOL    HW158583   1.362   8.352   1.672
15788SOL    HW258584   1.212   8.336   1.609
15789SOL     OW58585   4.029   0.613   2.679
15789SOL    HW158586   3.955   0.668   2.640
15789SOL    HW258587   4.100   0.675   2.715
15790SOL     OW58588   7.804   1.597   1.882
15790SOL    HW158589   7.733   1.667   1.868
15790SOL    HW258590   7.829   1.557   1.794
15791SOL     OW58591   2.439   9.256   0.692
15791SOL    HW158592   2.478   9.342   0.657
15791SOL    HW258593   2.510   9.204   0.740
15792SOL     OW58594   9.015   1.725   3.933
15792SOL    HW158595   9.013   1.626   3.947
15792SOL    HW258596   9.109   1.753   3.913
15793SOL     OW58597   9.581   0.313   1.853
15793SOL    HW158598   9.619   0.222   1.873
15793SOL    HW258599   9.656   0.379   1.846
15794SOL     OW58600   4.479   1.019   6.144
15794SOL    HW158601   4.545   1.085   6.181
15794SOL    HW258602   4.480   1.024   6.044
15795SOL     OW58603   4.090   4.721   6.395
15795SOL    HW158604   4.112   4.761   6.484
15795SOL    HW258605   4.005   4.669   6.401
15796SOL     OW58606   2.535   5.954   3.718
15796SOL    HW158607   2.440   5.925   3.707
15796SOL    HW258608   2.586   5.934   3.635
15797SOL     OW58609   6.601   1.721   5.086
15797SOL    HW158610   6.607   1.629   5.047
15797SOL    HW258611   6.505   1.744   5.101
15798SOL     OW58612   6.122   2.754   0.414
15798SOL    HW158613   6.139   2.852   0.421
15798SOL    HW258614   6.207   2.704   0.426
15799SOL     OW58615   9.365   6.461   0.592
15799SOL    HW158616   9.373   6.473   0.493
15799SOL    HW258617   9.436   6.516   0.638
15800SOL     OW58618   2.656   1.847   5.768
15800SOL    HW158619   2.694   1.756   5.747
15800SOL    HW258620   2.728   1.905   5.807
15801SOL     OW58621   2.891   9.157   0.612
15801SOL    HW158622   2.915   9.137   0.707
15801SOL    HW258623   2.923   9.083   0.554
15802SOL     OW58624   2.903   2.861   1.184
15802SOL    HW158625   2.987   2.812   1.208
15802SOL    HW258626   2.833   2.844   1.252
15803SOL     OW58627   8.062   8.659   3.246
15803SOL    HW158628   8.059   8.635   3.149
15803SOL    HW258629   8.075   8.758   3.256
15804SOL     OW58630   2.331   6.600   3.016
15804SOL    HW158631   2.246   6.548   3.030
15804SOL    HW258632   2.355   6.647   3.101
15805SOL     OW58633   9.522   2.629   3.991
15805SOL    HW158634   9.437   2.594   3.951
15805SOL    HW258635   9.586   2.553   4.005
15806SOL     OW58636   8.285   5.613   5.793
15806SOL    HW158637   8.196   5.579   5.762
15806SOL    HW258638   8.358   5.557   5.753
15807SOL     OW58639   9.736   7.023   2.593
15807SOL    HW158640   9.730   6.955   2.520
15807SOL    HW258641   9.667   7.003   2.663
15808SOL     OW58642   3.036   9.713   4.573
15808SOL    HW158643   3.059   9.727   4.477
15808SOL    HW258644   2.942   9.744   4.590
15809SOL     OW58645   9.490   3.626   2.221
15809SOL    HW158646   9.473   3.722   2.242
15809SOL    HW258647   9.589   3.610   2.213
15810SOL     OW58648   2.780   7.056   1.059
15810SOL    HW158649   2.706   7.103   1.107
15810SOL    HW258650   2.757   7.048   0.962
15811SOL     OW58651   7.377   0.353   1.920
15811SOL    HW158652   7.338   0.441   1.947
15811SOL    HW258653   7.441   0.366   1.845
15812SOL     OW58654   9.678   7.544   0.403
15812SOL    HW158655   9.667   7.445   0.414
15812SOL    HW258656   9.642   7.572   0.314
15813SOL     OW58657   5.639   0.048   1.805
15813SOL    HW158658   5.562   9.992   1.775
15813SOL    HW258659   5.710   0.047   1.735
15814SOL     OW58660   9.021   8.284   0.608
15814SOL    HW158661   9.064   8.235   0.684
15814SOL    HW258662   9.092   8.313   0.543
15815SOL     OW58663   0.028   4.097   4.069
15815SOL    HW158664   0.062   4.079   3.976
15815SOL    HW258665   9.981   4.185   4.070
15816SOL     OW58666   2.555   1.016   5.878
15816SOL    HW158667   2.547   0.922   5.845
15816SOL    HW258668   2.486   1.033   5.948
15817SOL     OW58669   9.784   4.769   0.329
15817SOL    HW158670   9.763   4.839   0.261
15817SOL    HW258671   9.884   4.757   0.334
15818SOL     OW58672   1.328   1.913   6.281
15818SOL    HW158673   1.320   1.924   6.182
15818SOL    HW258674   1.245   1.946   6.325
15819SOL     OW58675   8.158   7.226   2.147
15819SOL    HW158676   8.154   7.187   2.055
15819SOL    HW258677   8.130   7.157   2.214
15820SOL     OW58678   0.547   8.189   2.364
15820SOL    HW158679   0.509   8.250   2.433
15820SOL    HW258680   0.479   8.171   2.293
15821SOL     OW58681   0.709   3.490   1.794
15821SOL    HW158682   0.747   3.537   1.874
15821SOL    HW258683   0.682   3.558   1.726
15822SOL     OW58684   3.266   3.225   3.742
15822SOL    HW158685   3.283   3.195   3.836
15822SOL    HW258686   3.292   3.153   3.678
15823SOL     OW58687   8.167   1.128   4.217
15823SOL    HW158688   8.154   1.041   4.265
15823SOL    HW258689   8.078   1.170   4.200
15824SOL     OW58690   1.744   3.210   5.080
15824SOL    HW158691   1.703   3.134   5.131
15824SOL    HW258692   1.773   3.281   5.144
15825SOL     OW58693   1.823   0.345   0.268
15825SOL    HW158694   1.893   0.293   0.218
15825SOL    HW258695   1.824   0.319   0.364
15826SOL     OW58696   0.109   1.664   0.380
15826SOL    HW158697   0.197   1.618   0.394
15826SOL    HW258698   0.043   1.599   0.341
15827SOL     OW58699   0.204   8.892   4.529
15827SOL    HW158700   0.115   8.880   4.485
15827SOL    HW258701   0.277   8.883   4.462
15828SOL     OW58702   2.441   0.190   2.431
15828SOL    HW158703   2.520   0.146   2.389
15828SOL    HW258704   2.387   0.122   2.480
15829SOL     OW58705   7.248   2.371   3.625
15829SOL    HW158706   7.187   2.429   3.677
15829SOL    HW258707   7.319   2.427   3.582
15830SOL     OW58708   3.322   7.496   5.739
15830SOL    HW158709   3.413   7.530   5.715
15830SOL    HW258710   3.258   7.573   5.745
15831SOL     OW58711   2.195   9.134   1.108
15831SOL    HW158712   2.262   9.110   1.179
15831SOL    HW258713   2.104   9.105   1.138
15832SOL     OW58714   4.882   6.266   1.619
15832SOL    HW158715   4.959   6.317   1.658
15832SOL    HW258716   4.819   6.240   1.692
15833SOL     OW58717   9.939   4.848   2.844
15833SOL    HW158718   9.877   4.913   2.800
15833SOL    HW258719   0.022   4.837   2.788
15834SOL     OW58720   7.804   7.036   1.845
15834SOL    HW158721   7.795   7.104   1.772
15834SOL    HW258722   7.880   6.975   1.825
15835SOL     OW58723   8.054   3.244   6.149
15835SOL    HW158724   8.107   3.159   6.150
15835SOL    HW258725   7.957   3.223   6.147
15836SOL     OW58726   9.125   8.970   5.041
15836SOL    HW158727   9.207   8.953   4.986
15836SOL    HW258728   9.113   8.895   5.107
15837SOL     OW58729   1.767   5.110   5.662
15837SOL    HW158730   1.678   5.066   5.678
15837SOL    HW258731   1.815   5.120   5.749
15838SOL     OW58732   1.919   5.895   6.286
15838SOL    HW158733   1.980   5.973   6.269
15838SOL    HW258734   1.844   5.924   6.345
15839SOL     OW58735   9.436   5.576   4.492
15839SOL    HW158736   9.445   5.542   4.398
15839SOL    HW258737   9.452   5.501   4.556
15840SOL     OW58738   3.363   4.780   6.014
15840SOL    HW158739   3.377   4.840   6.093
15840SOL    HW258740   3.270   4.744   6.016
15841SOL     OW58741   4.471   3.483   5.302
15841SOL    HW158742   4.520   3.556   5.254
15841SOL    HW258743   4.380   3.472   5.261
15842SOL     OW58744   4.283   0.854   4.419
15842SOL    HW158745   4.318   0.812   4.503
15842SOL    HW258746   4.306   0.951   4.417
15843SOL     OW58747   8.723   7.059   3.071
15843SOL    HW158748   8.710   6.972   3.118
15843SOL    HW258749   8.808   7.056   3.019
15844SOL     OW58750   2.981   4.451   0.848
15844SOL    HW158751   3.008   4.402   0.931
15844SOL    HW258752   2.970   4.385   0.773
15845SOL     OW58753   7.564   2.741   4.114
15845SOL    HW158754   7.627   2.665   4.125
15845SOL    HW258755   7.612   2.819   4.074
15846SOL     OW58756   8.387   9.713   5.742
15846SOL    HW158757   8.415   9.629   5.697
15846SOL    HW258758   8.441   9.790   5.706
15847SOL     OW58759   9.258   4.853   5.645
15847SOL    HW158760   9.191   4.816   5.711
15847SOL    HW258761   9.321   4.914   5.693
15848SOL     OW58762   9.705   0.176   6.083
15848SOL    HW158763   9.782   0.140   6.136
15848SOL    HW258764   9.621   0.129   6.111
15849SOL     OW58765   6.953   1.477   4.930
15849SOL    HW158766   6.970   1.432   4.843
15849SOL    HW258767   7.023   1.448   4.996
15850SOL     OW58768   9.226   3.199   5.773
15850SOL    HW158769   9.230   3.123   5.837
15850SOL    HW258770   9.187   3.279   5.818
15851SOL     OW58771   2.841   0.186   1.122
15851SOL    HW158772   2.776   0.262   1.116
15851SOL    HW258773   2.802   0.106   1.077
15852SOL     OW58774   5.208   0.895   2.592
15852SOL    HW158775   5.295   0.865   2.553
15852SOL    HW258776   5.211   0.994   2.608
15853SOL     OW58777   0.230   6.319   6.302
15853SOL    HW158778   0.274   6.400   6.342
15853SOL    HW258779   0.201   6.340   6.209
15854SOL     OW58780   9.379   8.998   0.458
15854SOL    HW158781   9.393   9.052   0.376
15854SOL    HW258782   9.463   9.000   0.514
15855SOL     OW58783   8.638   7.370   5.848
15855SOL    HW158784   8.640   7.331   5.756
15855SOL    HW258785   8.702   7.447   5.853
15856SOL     OW58786   1.841   4.289   6.345
15856SOL    HW158787   1.816   4.284   6.442
15856SOL    HW258788   1.873   4.199   6.315
15857SOL     OW58789   8.648   8.704   1.229
15857SOL    HW158790   8.637   8.709   1.130
15857SOL    HW258791   8.670   8.795   1.265
15858SOL     OW58792   1.279   9.982   2.210
15858SOL    HW158793   1.179   9.979   2.212
15858SOL    HW258794   1.315   9.931   2.288
15859SOL     OW58795   2.852   4.897   1.476
15859SOL    HW158796   2.778   4.911   1.410
15859SOL    HW258797   2.843   4.964   1.550
15860SOL     OW58798   1.722   2.340   3.665
15860SOL    HW158799   1.747   2.250   3.702
15860SOL    HW258800   1.647   2.379   3.720
15861SOL     OW58801   6.962   1.706   1.496
15861SOL    HW158802   6.863   1.718   1.510
15861SOL    HW258803   6.998   1.643   1.564
15862SOL     OW58804   6.075   8.268   5.900
15862SOL    HW158805   6.140   8.256   5.975
15862SOL    HW258806   5.992   8.313   5.934
15863SOL     OW58807   0.489   7.944   3.835
15863SOL    HW158808   0.440   7.883   3.773
15863SOL    HW258809   0.497   7.901   3.925
15864SOL     OW58810   6.725   0.577   6.100
15864SOL    HW158811   6.672   0.626   6.031
15864SOL    HW258812   6.774   0.501   6.056
15865SOL     OW58813   0.658   6.979   2.917
15865SOL    HW158814   0.724   7.013   2.850
15865SOL    HW258815   0.706   6.946   2.998
15866SOL     OW58816   8.628   5.925   0.723
15866SOL    HW158817   8.659   6.020   0.727
15866SOL    HW258818   8.528   5.922   0.719
15867SOL     OW58819   0.751   7.121   3.446
15867SOL    HW158820   0.663   7.087   3.415
15867SOL    HW258821   0.784   7.191   3.381
15868SOL     OW58822   4.586   1.164   1.706
15868SOL    HW158823   4.641   1.225   1.649
15868SOL    HW258824   4.646   1.101   1.755
15869SOL     OW58825   3.940   2.746   5.519
15869SOL    HW158826   3.906   2.688   5.444
15869SOL    HW258827   4.028   2.711   5.550
15870SOL     OW58828   8.655   5.028   0.687
15870SOL    HW158829   8.690   5.092   0.620
15870SOL    HW258830   8.586   5.074   0.744
15871SOL     OW58831   2.756   1.337   0.838
15871SOL    HW158832   2.775   1.335   0.740
15871SOL    HW258833   2.725   1.247   0.868
15872SOL     OW58834   1.260   0.927   4.676
15872SOL    HW158835   1.297   0.892   4.761
15872SOL    HW258836   1.240   0.852   4.613
15873SOL     OW58837   6.767   1.143   3.595
15873SOL    HW158838   6.681   1.192   3.610
15873SOL    HW258839   6.781   1.076   3.668
15874SOL     OW58840   7.610   1.173   1.862
15874SOL    HW158841   7.666   1.234   1.918
15874SOL    HW258842   7.514   1.202   1.868
15875SOL     OW58843   8.054   8.305   5.534
15875SOL    HW158844   7.971   8.250   5.541
15875SOL    HW258845   8.089   8.326   5.626
15876SOL     OW58846   6.824   1.357   1.652
15876SOL    HW158847   6.839   1.368   1.553
15876SOL    HW258848   6.835   1.261   1.677
15877SOL     OW58849   3.702   3.851   5.840
15877SOL    HW158850   3.741   3.933   5.799
15877SOL    HW258851   3.604   3.847   5.818
15878SOL     OW58852   5.352   0.854   5.306
15878SOL    HW158853   5.347   0.792   5.228
15878SOL    HW258854   5.308   0.941   5.282
15879SOL     OW58855   4.814   5.685   1.675
15879SOL    HW158856   4.764   5.627   1.611
15879SOL    HW258857   4.792   5.781   1.657
15880SOL     OW58858   7.734   1.781   1.182
15880SOL    HW158859   7.792   1.856   1.151
15880SOL    HW258860   7.691   1.737   1.103
15881SOL     OW58861   2.984   7.797   2.322
15881SOL    HW158862   2.997   7.731   2.395
15881SOL    HW258863   2.890   7.831   2.324
15882SOL     OW58864   3.394   8.360   3.615
15882SOL    HW158865   3.444   8.345   3.700
15882SOL    HW258866   3.453   8.336   3.537
15883SOL     OW58867   7.928   2.180   1.613
15883SOL    HW158868   7.963   2.164   1.520
15883SOL    HW258869   7.895   2.093   1.651
15884SOL     OW58870   0.118   0.004   1.151
15884SOL    HW158871   0.180   0.058   1.208
15884SOL    HW258872   0.159   9.990   1.061
15885SOL     OW58873   9.467   0.010   3.303
15885SOL    HW158874   9.429   9.919   3.314
15885SOL    HW258875   9.564   0.004   3.279
15886SOL     OW58876   8.661   0.361   3.289
15886SOL    HW158877   8.692   0.455   3.300
15886SOL    HW258878   8.565   0.361   3.262
15887SOL     OW58879   3.465   1.681   2.226
15887SOL    HW158880   3.405   1.688   2.306
15887SOL    HW258881   3.497   1.587   2.216
15888SOL     OW58882   2.613   4.242   4.049
15888SOL    HW158883   2.539   4.304   4.023
15888SOL    HW258884   2.617   4.166   3.984
15889SOL     OW58885   8.936   4.444   4.378
15889SOL    HW158886   8.847   4.401   4.391
15889SOL    HW258887   8.997   4.419   4.453
15890SOL     OW58888   1.898   0.728   4.785
15890SOL    HW158889   1.964   0.671   4.833
15890SOL    HW258890   1.876   0.808   4.842
15891SOL     OW58891   3.881   0.172   4.564
15891SOL    HW158892   3.884   0.255   4.509
15891SOL    HW258893   3.973   0.134   4.572
15892SOL     OW58894   8.682   4.247   2.963
15892SOL    HW158895   8.641   4.299   2.889
15892SOL    HW258896   8.617   4.179   2.997
15893SOL     OW58897   0.942   3.041   3.585
15893SOL    HW158898   0.975   3.131   3.555
15893SOL    HW258899   0.855   3.021   3.539
15894SOL     OW58900   8.605   3.657   3.572
15894SOL    HW158901   8.520   3.658   3.626
15894SOL    HW258902   8.681   3.685   3.630
15895SOL     OW58903   8.631   5.711   6.184
15895SOL    HW158904   8.622   5.738   6.088
15895SOL    HW258905   8.541   5.700   6.225
15896SOL     OW58906   0.418   9.881   1.274
15896SOL    HW158907   0.365   9.965   1.289
15896SOL    HW258908   0.377   9.807   1.327
15897SOL     OW58909   1.935   2.543   4.310
15897SOL    HW158910   2.002   2.548   4.236
15897SOL    HW258911   1.952   2.616   4.375
15898SOL     OW58912   2.961   5.583   0.638
15898SOL    HW158913   2.934   5.678   0.650
15898SOL    HW258914   3.018   5.575   0.556
15899SOL     OW58915   4.184   4.117   1.769
15899SOL    HW158916   4.149   4.048   1.833
15899SOL    HW258917   4.130   4.115   1.685
15900SOL     OW58918   7.688   9.257   4.278
15900SOL    HW158919   7.638   9.234   4.195
15900SOL    HW258920   7.775   9.207   4.280
15901SOL     OW58921   8.457   6.411   4.036
15901SOL    HW158922   8.416   6.368   3.955
15901SOL    HW258923   8.473   6.340   4.106
15902SOL     OW58924   8.202   8.658   0.219
15902SOL    HW158925   8.132   8.700   0.162
15902SOL    HW258926   8.174   8.566   0.244
15903SOL     OW58927   2.268   5.358   0.632
15903SOL    HW158928   2.284   5.264   0.664
15903SOL    HW258929   2.350   5.413   0.648
15904SOL     OW58930   8.787   9.775   5.161
15904SOL    HW158931   8.809   9.753   5.256
15904SOL    HW258932   8.838   9.856   5.132
15905SOL     OW58933   4.105   2.402   4.334
15905SOL    HW158934   4.182   2.340   4.320
15905SOL    HW258935   4.019   2.354   4.320
15906SOL     OW58936   1.719   8.974   1.337
15906SOL    HW158937   1.648   8.980   1.407
15906SOL    HW258938   1.677   8.986   1.246
15907SOL     OW58939   7.056   9.235   4.619
15907SOL    HW158940   6.967   9.189   4.622
15907SOL    HW258941   7.114   9.198   4.692
15908SOL     OW58942   8.456   9.725   2.763
15908SOL    HW158943   8.398   9.798   2.800
15908SOL    HW258944   8.405   9.672   2.696
15909SOL     OW58945   9.968   7.554   2.813
15909SOL    HW158946  10.000   7.459   2.813
15909SOL    HW258947   9.987   7.595   2.902
15910SOL     OW58948   1.546   6.173   5.238
15910SOL    HW158949   1.634   6.160   5.192
15910SOL    HW258950   1.477   6.115   5.196
15911SOL     OW58951   3.631   1.602   3.283
15911SOL    HW158952   3.671   1.616   3.374
15911SOL    HW258953   3.545   1.553   3.292
15912SOL     OW58954   0.461   0.359   0.567
15912SOL    HW158955   0.474   0.360   0.666
15912SOL    HW258956   0.475   0.452   0.531
15913SOL     OW58957   4.067   9.060   0.939
15913SOL    HW158958   3.988   9.052   0.877
15913SOL    HW258959   4.086   9.157   0.955
15914SOL     OW58960   2.084   5.876   3.990
15914SOL    HW158961   2.147   5.953   3.978
15914SOL    HW258962   2.099   5.835   4.080
15915SOL     OW58963   3.714   4.084   5.266
15915SOL    HW158964   3.665   4.045   5.189
15915SOL    HW258965   3.810   4.099   5.240
15916SOL     OW58966   8.736   9.316   2.929
15916SOL    HW158967   8.700   9.270   2.847
15916SOL    HW258968   8.693   9.405   2.938
15917SOL     OW58969   4.952   0.627   4.450
15917SOL    HW158970   4.894   0.557   4.409
15917SOL    HW258971   5.013   0.586   4.517
15918SOL     OW58972   6.225   3.329   0.271
15918SOL    HW158973   6.131   3.349   0.244
15918SOL    HW258974   6.242   3.367   0.362
15919SOL     OW58975   0.067   0.523   6.158
15919SOL    HW158976   9.973   0.547   6.132
15919SOL    HW258977   0.065   0.441   6.215
15920SOL     OW58978   7.138   3.624   1.239
15920SOL    HW158979   7.214   3.681   1.269
15920SOL    HW258980   7.125   3.635   1.140
15921SOL     OW58981   7.231   8.237   2.423
15921SOL    HW158982   7.212   8.139   2.422
15921SOL    HW258983   7.148   8.287   2.399
15922SOL     OW58984   4.735   7.206   4.275
15922SOL    HW158985   4.700   7.113   4.264
15922SOL    HW258986   4.771   7.238   4.187
15923SOL     OW58987   3.604   1.004   0.835
15923SOL    HW158988   3.688   0.993   0.782
15923SOL    HW258989   3.539   0.933   0.809
15924SOL     OW58990   9.359   4.161   4.296
15924SOL    HW158991   9.348   4.261   4.298
15924SOL    HW258992   9.453   4.139   4.269
15925SOL     OW58993   8.020   7.534   6.056
15925SOL    HW158994   8.083   7.610   6.068
15925SOL    HW258995   8.059   7.451   6.097
15926SOL     OW58996   1.237   7.510   4.043
15926SOL    HW158997   1.223   7.601   4.082
15926SOL    HW258998   1.172   7.446   4.083
15927SOL     OW58999   3.912   9.884   0.129
15927SOL    HW159000   3.922   9.846   0.037
15927SOL    HW259001   3.965   9.829   0.194
15928SOL     OW59002   0.376   1.602   1.115
15928SOL    HW159003   0.276   1.592   1.119
15928SOL    HW259004   0.405   1.605   1.019
15929SOL     OW59005   9.490   0.229   1.383
15929SOL    HW159006   9.455   0.261   1.470
15929SOL    HW259007   9.545   0.146   1.397
15930SOL     OW59008   8.627   1.758   5.631
15930SOL    HW159009   8.611   1.740   5.728
15930SOL    HW259010   8.684   1.684   5.593
15931SOL     OW59011   0.234   3.472   2.420
15931SOL    HW159012   0.301   3.545   2.401
15931SOL    HW259013   0.183   3.494   2.503
15932SOL     OW59014   0.032   3.210   1.031
15932SOL    HW159015   0.104   3.277   1.014
15932SOL    HW259016   9.961   3.219   0.961
15933SOL     OW59017   3.067   8.179   4.059
15933SOL    HW159018   3.123   8.237   4.117
15933SOL    HW259019   2.996   8.136   4.115
15934SOL     OW59020   4.578   3.353   2.912
15934SOL    HW159021   4.546   3.276   2.967
15934SOL    HW259022   4.607   3.428   2.972
15935SOL     OW59023   4.314   1.302   5.693
15935SOL    HW159024   4.378   1.278   5.765
15935SOL    HW259025   4.257   1.223   5.671
15936SOL     OW59026   6.834   9.174   2.647
15936SOL    HW159027   6.807   9.212   2.735
15936SOL    HW259028   6.855   9.248   2.584
15937SOL     OW59029   4.573   9.901   5.263
15937SOL    HW159030   4.652   9.851   5.300
15937SOL    HW259031   4.493   9.880   5.319
15938SOL     OW59032   9.875   0.229   3.898
15938SOL    HW159033   9.965   0.197   3.869
15938SOL    HW259034   9.838   0.291   3.829
15939SOL     OW59035   2.471   7.338   2.048
15939SOL    HW159036   2.448   7.327   1.951
15939SOL    HW259037   2.391   7.320   2.104
15940SOL     OW59038   4.297   2.752   1.519
15940SOL    HW159039   4.212   2.804   1.506
15940SOL    HW259040   4.359   2.770   1.443
15941SOL     OW59041   3.393   6.177   3.182
15941SOL    HW159042   3.390   6.131   3.093
15941SOL    HW259043   3.470   6.142   3.236
15942SOL     OW59044   4.603   4.887   4.098
15942SOL    HW159045   4.623   4.838   4.013
15942SOL    HW259046   4.686   4.895   4.153
15943SOL     OW59047   2.778   9.814   4.594
15943SOL    HW159048   2.776   9.914   4.594
15943SOL    HW259049   2.710   9.780   4.660
15944SOL     OW59050   2.358   1.082   6.079
15944SOL    HW159051   2.298   1.053   6.154
15944SOL    HW259052   2.429   1.143   6.116
15945SOL     OW59053   7.968   3.319   5.662
15945SOL    HW159054   7.980   3.414   5.633
15945SOL    HW259055   7.898   3.314   5.733
15946SOL     OW59056   0.973   4.813   0.147
15946SOL    HW159057   1.018   4.901   0.165
15946SOL    HW259058   1.040   4.748   0.113
15947SOL     OW59059   7.810   5.077   1.397
15947SOL    HW159060   7.773   5.084   1.305
15947SOL    HW259061   7.747   5.027   1.456
15948SOL     OW59062   9.538   2.880   1.607
15948SOL    HW159063   9.522   2.800   1.665
15948SOL    HW259064   9.552   2.850   1.513
15949SOL     OW59065   9.010   7.769   6.146
15949SOL    HW159066   9.075   7.793   6.074
15949SOL    HW259067   9.059   7.732   6.224
15950SOL     OW59068   8.286   3.694   1.311
15950SOL    HW159069   8.217   3.715   1.381
15950SOL    HW259070   8.377   3.709   1.349
15951SOL     OW59071   6.601   9.543   3.665
15951SOL    HW159072   6.521   9.515   3.612
15951SOL    HW259073   6.585   9.526   3.762
15952SOL     OW59074   7.315   5.133   1.700
15952SOL    HW159075   7.412   5.134   1.722
15952SOL    HW259076   7.272   5.215   1.736
15953SOL     OW59077   3.870   3.057   4.283
15953SOL    HW159078   3.877   3.082   4.186
15953SOL    HW259079   3.961   3.040   4.320
15954SOL     OW59080   2.934   1.183   1.323
15954SOL    HW159081   2.941   1.282   1.309
15954SOL    HW259082   2.923   1.138   1.235
15955SOL     OW59083   2.369   6.347   2.471
15955SOL    HW159084   2.438   6.310   2.534
15955SOL    HW259085   2.414   6.374   2.385
15956SOL     OW59086   3.284   3.688   5.565
15956SOL    HW159087   3.318   3.747   5.638
15956SOL    HW259088   3.189   3.711   5.545
15957SOL     OW59089   7.767   3.351   6.144
15957SOL    HW159090   7.827   3.412   6.196
15957SOL    HW259091   7.738   3.275   6.202
15958SOL     OW59092   5.585   9.130   5.043
15958SOL    HW159093   5.562   9.212   5.096
15958SOL    HW259094   5.515   9.116   4.973
15959SOL     OW59095   1.130   8.489   0.488
15959SOL    HW159096   1.188   8.526   0.561
15959SOL    HW259097   1.150   8.392   0.475
15960SOL     OW59098   4.112   2.562   2.795
15960SOL    HW159099   4.198   2.514   2.815
15960SOL    HW259100   4.097   2.560   2.696
15961SOL     OW59101   7.978   0.399   0.936
15961SOL    HW159102   7.957   0.482   0.884
15961SOL    HW259103   7.908   0.330   0.920
15962SOL     OW59104   0.052   5.048   4.549
15962SOL    HW159105   0.074   4.961   4.594
15962SOL    HW259106   0.090   5.124   4.601
15963SOL     OW59107   8.454   0.606   1.419
15963SOL    HW159108   8.518   0.533   1.441
15963SOL    HW259109   8.412   0.640   1.503
15964SOL     OW59110   4.233   7.649   4.454
15964SOL    HW159111   4.245   7.728   4.514
15964SOL    HW259112   4.186   7.576   4.503
15965SOL     OW59113   2.146   6.392   3.112
15965SOL    HW159114   2.101   6.379   3.023
15965SOL    HW259115   2.225   6.332   3.118
15966SOL     OW59116   3.582   0.330   3.052
15966SOL    HW159117   3.599   0.423   3.021
15966SOL    HW259118   3.484   0.317   3.066
15967SOL     OW59119   8.795   4.718   0.898
15967SOL    HW159120   8.711   4.702   0.845
15967SOL    HW259121   8.772   4.724   0.995
15968SOL     OW59122   2.780   3.547   5.809
15968SOL    HW159123   2.853   3.611   5.834
15968SOL    HW259124   2.734   3.579   5.726
15969SOL     OW59125   7.107   4.245   0.631
15969SOL    HW159126   7.134   4.152   0.603
15969SOL    HW259127   7.017   4.242   0.673
15970SOL     OW59128   9.467   0.836   5.018
15970SOL    HW159129   9.495   0.758   5.074
15970SOL    HW259130   9.496   0.921   5.062
15971SOL     OW59131   2.164   2.890   1.418
15971SOL    HW159132   2.206   2.810   1.460
15971SOL    HW259133   2.106   2.862   1.342
15972SOL     OW59134   8.473   5.176   4.046
15972SOL    HW159135   8.463   5.226   3.960
15972SOL    HW259136   8.570   5.164   4.067
15973SOL     OW59137   9.482   3.265   1.723
15973SOL    HW159138   9.516   3.320   1.647
15973SOL    HW259139   9.542   3.187   1.738
15974SOL     OW59140   3.405   6.228   0.350
15974SOL    HW159141   3.492   6.230   0.301
15974SOL    HW259142   3.367   6.136   0.347
15975SOL     OW59143   2.516   7.263   3.169
15975SOL    HW159144   2.512   7.288   3.072
15975SOL    HW259145   2.458   7.326   3.221
15976SOL     OW59146   3.891   0.352   1.206
15976SOL    HW159147   3.953   0.429   1.197
15976SOL    HW259148   3.797   0.383   1.196
15977SOL     OW59149   9.879   7.777   1.157
15977SOL    HW159150   9.856   7.697   1.213
15977SOL    HW259151   9.913   7.746   1.068
15978SOL     OW59152   4.625   0.078   3.639
15978SOL    HW159153   4.723   0.070   3.617
15978SOL    HW259154   4.592   9.992   3.676
15979SOL     OW59155   9.373   2.799   2.609
15979SOL    HW159156   9.352   2.841   2.697
15979SOL    HW259157   9.447   2.851   2.564
15980SOL     OW59158   2.793   9.668   3.030
15980SOL    HW159159   2.810   9.749   2.974
15980SOL    HW259160   2.745   9.600   2.975
15981SOL     OW59161   1.501   9.651   1.999
15981SOL    HW159162   1.540   9.595   2.073
15981SOL    HW259163   1.504   9.747   2.025
15982SOL     OW59164   1.177   2.378   2.675
15982SOL    HW159165   1.103   2.428   2.720
15982SOL    HW259166   1.253   2.440   2.658
15983SOL     OW59167   7.866   5.482   5.492
15983SOL    HW159168   7.820   5.423   5.426
15983SOL    HW259169   7.826   5.573   5.489
15984SOL     OW59170   2.147   9.289   4.933
15984SOL    HW159171   2.226   9.342   4.900
15984SOL    HW259172   2.174   9.235   5.012
15985SOL     OW59173   2.853   8.505   4.260
15985SOL    HW159174   2.894   8.448   4.330
15985SOL    HW259175   2.867   8.463   4.170
15986SOL     OW59176   9.253   3.271   2.474
15986SOL    HW159177   9.247   3.291   2.571
15986SOL    HW259178   9.247   3.172   2.460
15987SOL     OW59179   3.171   9.587   4.306
15987SOL    HW159180   3.235   9.555   4.236
15987SOL    HW259181   3.204   9.561   4.397
15988SOL     OW59182   0.581   8.902   1.011
15988SOL    HW159183   0.654   8.880   1.075
15988SOL    HW259184   0.507   8.834   1.020
15989SOL     OW59185   3.242   7.180   0.653
15989SOL    HW159186   3.318   7.150   0.711
15989SOL    HW259187   3.177   7.105   0.641
15990SOL     OW59188   9.310   0.245   4.320
15990SOL    HW159189   9.270   0.282   4.404
15990SOL    HW259190   9.394   0.195   4.342
15991SOL     OW59191   1.807   9.329   3.897
15991SOL    HW159192   1.888   9.303   3.844
15991SOL    HW259193   1.806   9.279   3.983
15992SOL     OW59194   7.271   9.505   4.833
15992SOL    HW159195   7.183   9.546   4.808
15992SOL    HW259196   7.271   9.482   4.930
15993SOL     OW59197   9.308   7.426   3.786
15993SOL    HW159198   9.289   7.471   3.699
15993SOL    HW259199   9.241   7.455   3.854
15994SOL     OW59200   4.529   9.438   2.463
15994SOL    HW159201   4.433   9.410   2.470
15994SOL    HW259202   4.583   9.364   2.425
15995SOL     OW59203   3.746   0.924   3.843
15995SOL    HW159204   3.785   0.911   3.934
15995SOL    HW259205   3.810   0.974   3.786
15996SOL     OW59206   6.947   8.055   5.034
15996SOL    HW159207   7.002   7.987   4.986
15996SOL    HW259208   7.007   8.115   5.088
15997SOL     OW59209   2.157   1.384   3.080
15997SOL    HW159210   2.087   1.326   3.040
15997SOL    HW259211   2.134   1.404   3.175
15998SOL     OW59212   6.225   4.272   0.043
15998SOL    HW159213   6.218   4.370   0.060
15998SOL    HW259214   6.234   4.255   8.134
15999SOL     OW59215   1.544   5.666   4.301
15999SOL    HW159216   1.535   5.710   4.212
15999SOL    HW259217   1.499   5.577   4.299
16000SOL     OW59218   4.330   3.758   1.923
16000SOL    HW159219   4.340   3.763   2.022
16000SOL    HW259220   4.297   3.667   1.897
16001SOL     OW59221   4.302   4.571   2.354
16001SOL    HW159222   4.372   4.508   2.389
16001SOL    HW259223   4.304   4.655   2.409
16002SOL     OW59224   4.919   3.853   5.436
16002SOL    HW159225   4.916   3.900   5.524
16002SOL    HW259226   4.896   3.756   5.449
16003SOL     OW59227   8.189   8.518   4.324
16003SOL    HW159228   8.161   8.423   4.315
16003SOL    HW259229   8.284   8.528   4.294
16004SOL     OW59230   2.124   1.596   2.459
16004SOL    HW159231   2.131   1.515   2.518
16004SOL    HW259232   2.187   1.586   2.382
16005SOL     OW59233   2.949   5.889   6.319
16005SOL    HW159234   2.999   5.823   6.262
16005SOL    HW259235   3.011   5.923   6.390
16006SOL     OW59236   9.407   0.397   2.054
16006SOL    HW159237   9.463   0.379   1.973
16006SOL    HW259238   9.401   0.314   2.109
16007SOL     OW59239   0.474   4.272   4.111
16007SOL    HW159240   0.409   4.337   4.149
16007SOL    HW259241   0.515   4.310   4.028
16008SOL     OW59242   2.088   8.970   1.894
16008SOL    HW159243   2.014   8.914   1.930
16008SOL    HW259244   2.121   9.032   1.965
16009SOL     OW59245   7.830   6.586   3.865
16009SOL    HW159246   7.789   6.511   3.814
16009SOL    HW259247   7.865   6.552   3.952
16010SOL     OW59248   8.335   6.748   0.279
16010SOL    HW159249   8.363   6.744   0.375
16010SOL    HW259250   8.260   6.683   0.264
16011SOL     OW59251   0.607   2.678   0.575
16011SOL    HW159252   0.612   2.770   0.613
16011SOL    HW259253   0.531   2.672   0.511
16012SOL     OW59254   2.211   7.420   0.493
16012SOL    HW159255   2.293   7.424   0.550
16012SOL    HW259256   2.130   7.437   0.549
16013SOL     OW59257   4.954   8.051   1.592
16013SOL    HW159258   4.886   7.996   1.543
16013SOL    HW259259   4.994   8.118   1.530
16014SOL     OW59260   5.886   1.528   1.489
16014SOL    HW159261   5.789   1.505   1.497
16014SOL    HW259262   5.928   1.469   1.420
16015SOL     OW59263   3.474   4.841   1.298
16015SOL    HW159264   3.484   4.933   1.335
16015SOL    HW259265   3.554   4.819   1.242
16016SOL     OW59266   6.632   9.027   5.098
16016SOL    HW159267   6.701   8.956   5.107
16016SOL    HW259268   6.550   8.990   5.054
16017SOL     OW59269   9.753   9.260   5.257
16017SOL    HW159270   9.709   9.348   5.240
16017SOL    HW259271   9.843   9.259   5.213
16018SOL     OW59272   6.250   0.464   4.885
16018SOL    HW159273   6.277   0.537   4.822
16018SOL    HW259274   6.288   0.482   4.975
16019SOL     OW59275   3.862   2.776   3.420
16019SOL    HW159276   3.828   2.813   3.334
16019SOL    HW259277   3.860   2.676   3.418
16020SOL     OW59278   6.759   8.275   4.203
16020SOL    HW159279   6.700   8.199   4.230
16020SOL    HW259280   6.752   8.349   4.270
16021SOL     OW59281   3.242   0.884   6.326
16021SOL    HW159282   3.211   0.789   6.321
16021SOL    HW259283   3.342   0.887   6.321
16022SOL     OW59284   6.453   9.144   4.099
16022SOL    HW159285   6.421   9.238   4.105
16022SOL    HW259286   6.375   9.081   4.104
16023SOL     OW59287   3.431   2.274   4.672
16023SOL    HW159288   3.458   2.190   4.720
16023SOL    HW259289   3.379   2.251   4.590
16024SOL     OW59290   9.955   0.286   0.477
16024SOL    HW159291   0.041   0.338   0.479
16024SOL    HW259292   9.942   0.248   0.385
16025SOL     OW59293   3.849   2.434   4.556
16025SOL    HW159294   3.939   2.441   4.598
16025SOL    HW259295   3.780   2.417   4.626
16026SOL     OW59296   7.845   7.239   4.407
16026SOL    HW159297   7.750   7.224   4.431
16026SOL    HW259298   7.899   7.253   4.490
16027SOL     OW59299   5.035   0.019   2.330
16027SOL    HW159300   5.004   9.999   2.237
16027SOL    HW259301   5.135   0.022   2.331
16028SOL     OW59302   9.633   2.681   0.216
16028SOL    HW159303   9.662   2.593   0.256
16028SOL    HW259304   9.710   2.721   0.166
16029SOL     OW59305   2.485   8.099   4.715
16029SOL    HW159306   2.527   8.009   4.702
16029SOL    HW259307   2.525   8.163   4.650
16030SOL     OW59308   7.947   7.414   2.145
16030SOL    HW159309   8.034   7.366   2.153
16030SOL    HW259310   7.879   7.354   2.103
16031SOL     OW59311   9.846   0.430   5.876
16031SOL    HW159312   9.923   0.445   5.815
16031SOL    HW259313   9.792   0.353   5.843
16032SOL     OW59314   3.563   5.747   1.355
16032SOL    HW159315   3.656   5.736   1.322
16032SOL    HW259316   3.564   5.802   1.439
16033SOL     OW59317   5.438   8.530   4.865
16033SOL    HW159318   5.355   8.474   4.866
16033SOL    HW259319   5.509   8.485   4.920
16034SOL     OW59320   0.987   9.304   4.562
16034SOL    HW159321   0.980   9.348   4.472
16034SOL    HW259322   1.081   9.311   4.595
16035SOL     OW59323   3.635   0.161   3.972
16035SOL    HW159324   3.640   0.085   3.907
16035SOL    HW259325   3.540   0.192   3.981
16036SOL     OW59326   2.581   5.630   1.909
16036SOL    HW159327   2.595   5.726   1.931
16036SOL    HW259328   2.486   5.617   1.879
16037SOL     OW59329   8.808   4.409   1.233
16037SOL    HW159330   8.818   4.333   1.296
16037SOL    HW259331   8.804   4.495   1.284
16038SOL     OW59332   3.418   1.191   2.914
16038SOL    HW159333   3.484   1.174   2.987
16038SOL    HW259334   3.403   1.289   2.905
16039SOL     OW59335   0.151   3.625   6.095
16039SOL    HW159336   0.182   3.530   6.086
16039SOL    HW259337   0.114   3.656   6.008
16040SOL     OW59338   8.632   0.179   5.747
16040SOL    HW159339   8.630   0.231   5.833
16040SOL    HW259340   8.719   0.129   5.740
16041SOL     OW59341   1.646   6.892   5.803
16041SOL    HW159342   1.685   6.823   5.864
16041SOL    HW259343   1.596   6.960   5.858
16042SOL     OW59344   1.048   7.080   0.950
16042SOL    HW159345   1.119   7.016   0.978
16042SOL    HW259346   0.965   7.029   0.926
16043SOL     OW59347   2.468   5.528   5.974
16043SOL    HW159348   2.399   5.473   6.021
16043SOL    HW259349   2.492   5.607   6.029
16044SOL     OW59350   1.127   8.205   5.656
16044SOL    HW159351   1.057   8.159   5.601
16044SOL    HW259352   1.203   8.232   5.597
16045SOL     OW59353   5.187   8.998   3.813
16045SOL    HW159354   5.128   9.077   3.796
16045SOL    HW259355   5.172   8.929   3.743
16046SOL     OW59356   4.585   9.068   2.987
16046SOL    HW159357   4.647   9.027   2.920
16046SOL    HW259358   4.607   9.165   2.998
16047SOL     OW59359   7.757   6.602   4.665
16047SOL    HW159360   7.720   6.673   4.726
16047SOL    HW259361   7.777   6.520   4.718
16048SOL     OW59362   8.776   7.041   0.077
16048SOL    HW159363   8.758   7.139   0.073
16048SOL    HW259364   8.726   6.995   0.004
16049SOL     OW59365   3.037   2.738   4.856
16049SOL    HW159366   2.937   2.737   4.849
16049SOL    HW259367   3.064   2.693   4.941
16050SOL     OW59368   3.512   4.342   0.595
16050SOL    HW159369   3.601   4.386   0.585
16050SOL    HW259370   3.463   4.384   0.672
16051SOL     OW59371   1.501   3.653   3.604
16051SOL    HW159372   1.573   3.588   3.625
16051SOL    HW259373   1.538   3.727   3.547
16052SOL     OW59374   9.973   1.570   0.841
16052SOL    HW159375   9.907   1.642   0.862
16052SOL    HW259376   9.926   1.495   0.795
16053SOL     OW59377   1.285   7.957   0.245
16053SOL    HW159378   1.220   8.009   0.189
16053SOL    HW259379   1.374   8.002   0.241
16054SOL     OW59380   0.989   4.144   6.250
16054SOL    HW159381   0.898   4.105   6.241
16054SOL    HW259382   0.983   4.244   6.255
16055SOL     OW59383   8.702   1.020   4.915
16055SOL    HW159384   8.720   1.073   4.832
16055SOL    HW259385   8.699   1.081   4.994
16056SOL     OW59386   7.959   5.966   1.369
16056SOL    HW159387   7.932   6.047   1.420
16056SOL    HW259388   8.054   5.975   1.339
16057SOL     OW59389   8.999   7.697   4.971
16057SOL    HW159390   8.941   7.710   4.891
16057SOL    HW259391   8.981   7.768   5.038
16058SOL     OW59392   8.080   0.328   0.433
16058SOL    HW159393   8.075   0.265   0.356
16058SOL    HW259394   8.105   0.278   0.516
16059SOL     OW59395   6.601   8.071   4.277
16059SOL    HW159396   6.590   8.047   4.373
16059SOL    HW259397   6.513   8.064   4.230
16060SOL     OW59398   9.019   4.797   3.627
16060SOL    HW159399   8.986   4.835   3.714
16060SOL    HW259400   9.117   4.778   3.634
16061SOL     OW59401   9.061   8.045   1.640
16061SOL    HW159402   9.022   7.954   1.628
16061SOL    HW259403   9.136   8.041   1.707
16062SOL     OW59404   3.467   7.750   5.326
16062SOL    HW159405   3.511   7.663   5.346
16062SOL    HW259406   3.382   7.734   5.276
16063SOL     OW59407   2.966   0.708   4.327
16063SOL    HW159408   2.942   0.677   4.419
16063SOL    HW259409   2.904   0.668   4.260
16064SOL     OW59410   3.298   9.788   2.395
16064SOL    HW159411   3.343   9.858   2.450
16064SOL    HW259412   3.288   9.820   2.301
16065SOL     OW59413   9.848   6.132   1.497
16065SOL    HW159414   9.924   6.197   1.496
16065SOL    HW259415   9.884   6.039   1.499
16066SOL     OW59416   1.838   8.645   4.436
16066SOL    HW159417   1.901   8.638   4.513
16066SOL    HW259418   1.744   8.651   4.470
16067SOL     OW59419   4.646   7.140   3.783
16067SOL    HW159420   4.721   7.162   3.721
16067SOL    HW259421   4.586   7.219   3.794
16068SOL     OW59422   8.161   9.085   3.017
16068SOL    HW159423   8.158   9.069   2.919
16068SOL    HW259424   8.102   9.163   3.040
16069SOL     OW59425   4.010   6.979   1.944
16069SOL    HW159426   4.070   6.977   2.024
16069SOL    HW259427   4.024   7.064   1.894
16070SOL     OW59428   3.626   4.671   3.165
16070SOL    HW159429   3.558   4.612   3.121
16070SOL    HW259430   3.691   4.616   3.216
16071SOL     OW59431   8.941   6.863   1.008
16071SOL    HW159432   9.009   6.865   0.934
16071SOL    HW259433   8.908   6.955   1.026
16072SOL     OW59434   1.048   5.103   4.764
16072SOL    HW159435   1.019   5.104   4.860
16072SOL    HW259436   1.057   5.197   4.731
16073SOL     OW59437   4.575   2.113   6.154
16073SOL    HW159438   4.592   2.193   6.211
16073SOL    HW259439   4.660   2.088   6.107
16074SOL     OW59440   2.718   7.286   6.235
16074SOL    HW159441   2.715   7.225   6.156
16074SOL    HW259442   2.804   7.337   6.234
16075SOL     OW59443   4.882   6.613   2.504
16075SOL    HW159444   4.861   6.694   2.448
16075SOL    HW259445   4.802   6.589   2.558
16076SOL     OW59446   8.045   9.651   5.586
16076SOL    HW159447   8.072   9.742   5.619
16076SOL    HW259448   8.065   9.583   5.657
16077SOL     OW59449   8.715   1.339   5.868
16077SOL    HW159450   8.747   1.378   5.955
16077SOL    HW259451   8.617   1.355   5.858
16078SOL     OW59452   4.845   9.334   1.461
16078SOL    HW159453   4.746   9.349   1.457
16078SOL    HW259454   4.864   9.238   1.482
16079SOL     OW59455   6.862   3.073   3.270
16079SOL    HW159456   6.830   3.164   3.244
16079SOL    HW259457   6.921   3.080   3.350
16080SOL     OW59458   9.062   2.682   0.870
16080SOL    HW159459   9.061   2.775   0.909
16080SOL    HW259460   8.980   2.668   0.815
16081SOL     OW59461   0.994   6.194   4.166
16081SOL    HW159462   1.029   6.121   4.224
16081SOL    HW259463   0.965   6.157   4.078
16082SOL     OW59464   3.796   1.143   0.483
16082SOL    HW159465   3.836   1.194   0.408
16082SOL    HW259466   3.703   1.176   0.500
16083SOL     OW59467   3.040   3.125   0.396
16083SOL    HW159468   2.940   3.130   0.397
16083SOL    HW259469   3.077   3.218   0.389
16084SOL     OW59470   8.871   9.103   5.065
16084SOL    HW159471   8.796   9.052   5.023
16084SOL    HW259472   8.957   9.051   5.055
16085SOL     OW59473   9.659   8.294   1.822
16085SOL    HW159474   9.673   8.356   1.745
16085SOL    HW259475   9.726   8.314   1.894
16086SOL     OW59476   8.482   0.178   4.508
16086SOL    HW159477   8.386   0.204   4.495
16086SOL    HW259478   8.498   0.162   4.605
16087SOL     OW59479   0.121   2.901   0.053
16087SOL    HW159480   0.186   2.967   0.091
16087SOL    HW259481   0.146   2.809   0.083
16088SOL     OW59482   0.886   5.004   4.565
16088SOL    HW159483   0.955   5.034   4.631
16088SOL    HW259484   0.798   4.993   4.611
16089SOL     OW59485   1.081   1.496   5.613
16089SOL    HW159486   1.157   1.439   5.645
16089SOL    HW259487   1.010   1.499   5.683
16090SOL     OW59488   1.374   4.458   4.194
16090SOL    HW159489   1.302   4.525   4.214
16090SOL    HW259490   1.339   4.366   4.210
16091SOL     OW59491   1.943   7.474   3.423
16091SOL    HW159492   1.908   7.525   3.345
16091SOL    HW259493   1.995   7.395   3.391
16092SOL     OW59494   9.613   8.943   0.210
16092SOL    HW159495   9.700   8.988   0.193
16092SOL    HW259496   9.540   9.011   0.212
16093SOL     OW59497   1.665   2.907   4.920
16093SOL    HW159498   1.686   2.811   4.939
16093SOL    HW259499   1.653   2.957   5.006
16094SOL     OW59500   0.878   3.085   0.929
16094SOL    HW159501   0.963   3.098   0.879
16094SOL    HW259502   0.880   3.137   1.014
16095SOL     OW59503   3.219   8.958   4.532
16095SOL    HW159504   3.166   8.885   4.575
16095SOL    HW259505   3.274   9.005   4.602
16096SOL     OW59506   7.224   1.311   6.333
16096SOL    HW159507   7.324   1.310   6.332
16096SOL    HW259508   7.190   1.231   6.383
16097SOL     OW59509   3.755   5.397   2.549
16097SOL    HW159510   3.790   5.468   2.611
16097SOL    HW259511   3.667   5.364   2.584
16098SOL     OW59512   8.442   6.188   2.024
16098SOL    HW159513   8.410   6.109   2.077
16098SOL    HW259514   8.489   6.156   1.942
16099SOL     OW59515   1.302   1.449   4.977
16099SOL    HW159516   1.213   1.484   4.946
16099SOL    HW259517   1.290   1.398   5.062
16100SOL     OW59518   2.638   4.561   0.323
16100SOL    HW159519   2.673   4.494   0.389
16100SOL    HW259520   2.707   4.579   0.253
16101SOL     OW59521   6.508   5.616   0.696
16101SOL    HW159522   6.530   5.545   0.629
16101SOL    HW259523   6.524   5.582   0.788
16102SOL     OW59524   0.472   5.580   3.849
16102SOL    HW159525   0.539   5.520   3.805
16102SOL    HW259526   0.519   5.636   3.918
16103SOL     OW59527   0.374   1.548   2.679
16103SOL    HW159528   0.281   1.584   2.665
16103SOL    HW259529   0.430   1.616   2.727
16104SOL     OW59530   2.457   6.277   1.487
16104SOL    HW159531   2.502   6.321   1.409
16104SOL    HW259532   2.438   6.182   1.465
16105SOL     OW59533   5.681   1.477   6.207
16105SOL    HW159534   5.758   1.528   6.245
16105SOL    HW259535   5.693   1.380   6.225
16106SOL     OW59536   6.863   9.191   5.493
16106SOL    HW159537   6.813   9.252   5.555
16106SOL    HW259538   6.897   9.112   5.545
16107SOL     OW59539   1.276   6.429   1.447
16107SOL    HW159540   1.320   6.431   1.357
16107SOL    HW259541   1.332   6.373   1.510
16108SOL     OW59542   3.973   7.561   2.684
16108SOL    HW159543   3.886   7.523   2.714
16108SOL    HW259544   3.975   7.567   2.584
16109SOL     OW59545   7.935   9.141   4.285
16109SOL    HW159546   8.007   9.210   4.290
16109SOL    HW259547   7.926   9.096   4.374
16110SOL     OW59548   3.758   9.953   5.013
16110SOL    HW159549   3.701   9.980   4.935
16110SOL    HW259550   3.847   9.998   5.007
16111SOL     OW59551   9.421   4.270   3.096
16111SOL    HW159552   9.391   4.293   3.189
16111SOL    HW259553   9.359   4.311   3.030
16112SOL     OW59554   3.039   4.357   1.101
16112SOL    HW159555   3.019   4.414   1.180
16112SOL    HW259556   3.004   4.265   1.116
16113SOL     OW59557   2.220   0.537   4.184
16113SOL    HW159558   2.232   0.440   4.161
16113SOL    HW259559   2.207   0.590   4.100
16114SOL     OW59560   1.976   2.559   3.889
16114SOL    HW159561   1.904   2.624   3.912
16114SOL    HW259562   1.977   2.542   3.791
16115SOL     OW59563   1.895   2.705   0.332
16115SOL    HW159564   1.805   2.685   0.293
16115SOL    HW259565   1.954   2.745   0.262
16116SOL     OW59566   8.001   0.270   3.726
16116SOL    HW159567   8.026   0.176   3.702
16116SOL    HW259568   8.067   0.333   3.686
16117SOL     OW59569   4.860   1.008   5.705
16117SOL    HW159570   4.763   0.995   5.684
16117SOL    HW259571   4.916   0.967   5.633
16118SOL     OW59572   1.785   4.723   1.667
16118SOL    HW159573   1.759   4.713   1.764
16118SOL    HW259574   1.729   4.795   1.625
16119SOL     OW59575   0.471   8.743   4.719
16119SOL    HW159576   0.400   8.796   4.765
16119SOL    HW259577   0.533   8.804   4.671
16120SOL     OW59578   1.360   3.776   4.265
16120SOL    HW159579   1.295   3.754   4.338
16120SOL    HW259580   1.315   3.767   4.176
16121SOL     OW59581   2.840   0.571   0.274
16121SOL    HW159582   2.789   0.504   0.220
16121SOL    HW259583   2.932   0.580   0.237
16122SOL     OW59584   0.097   0.298   5.347
16122SOL    HW159585   0.176   0.244   5.319
16122SOL    HW259586   0.127   0.374   5.405
16123SOL     OW59587   7.419   2.759   1.364
16123SOL    HW159588   7.515   2.787   1.370
16123SOL    HW259589   7.393   2.713   1.449
16124SOL     OW59590   4.459   2.365   5.572
16124SOL    HW159591   4.405   2.300   5.520
16124SOL    HW259592   4.515   2.420   5.510
16125SOL     OW59593   2.419   2.928   2.859
16125SOL    HW159594   2.440   2.830   2.862
16125SOL    HW259595   2.464   2.974   2.935
16126SOL     OW59596   1.284   8.692   4.922
16126SOL    HW159597   1.233   8.751   4.859
16126SOL    HW259598   1.244   8.699   5.014
16127SOL     OW59599   6.276   4.320   1.473
16127SOL    HW159600   6.205   4.388   1.490
16127SOL    HW259601   6.308   4.282   1.560
16128SOL     OW59602   8.875   4.635   3.441
16128SOL    HW159603   8.937   4.677   3.508
16128SOL    HW259604   8.784   4.676   3.450
16129SOL     OW59605   6.345   0.304   3.446
16129SOL    HW159606   6.324   0.347   3.534
16129SOL    HW259607   6.273   0.240   3.421
16130SOL     OW59608   2.036   8.709   0.790
16130SOL    HW159609   2.073   8.792   0.833
16130SOL    HW259610   1.968   8.668   0.851
16131SOL     OW59611   8.560   0.389   0.563
16131SOL    HW159612   8.524   0.397   0.470
16131SOL    HW259613   8.508   0.448   0.623
16132SOL     OW59614   2.754   1.866   2.431
16132SOL    HW159615   2.830   1.850   2.368
16132SOL    HW259616   2.774   1.947   2.487
16133SOL     OW59617   0.682   2.644   2.784
16133SOL    HW159618   0.659   2.562   2.731
16133SOL    HW259619   0.598   2.693   2.807
16134SOL     OW59620   3.452   9.684   4.500
16134SOL    HW159621   3.393   9.607   4.523
16134SOL    HW259622   3.442   9.755   4.570
16135SOL     OW59623   2.507   2.983   3.653
16135SOL    HW159624   2.575   2.910   3.666
16135SOL    HW259625   2.529   3.035   3.571
16136SOL     OW59626   6.496   8.859   5.430
16136SOL    HW159627   6.417   8.875   5.490
16136SOL    HW259628   6.540   8.946   5.409
16137SOL     OW59629   5.032   6.682   1.152
16137SOL    HW159630   4.981   6.768   1.160
16137SOL    HW259631   5.026   6.649   1.058
16138SOL     OW59632   2.695   1.096   2.563
16138SOL    HW159633   2.602   1.098   2.601
16138SOL    HW259634   2.738   1.009   2.585
16139SOL     OW59635   9.098   6.880   0.781
16139SOL    HW159636   9.042   6.833   0.713
16139SOL    HW259637   9.192   6.845   0.777
16140SOL     OW59638   0.638   2.325   0.563
16140SOL    HW159639   0.545   2.355   0.539
16140SOL    HW259640   0.672   2.382   0.638
16141SOL     OW59641   3.051   3.009   3.919
16141SOL    HW159642   3.056   2.911   3.901
16141SOL    HW259643   3.011   3.055   3.839
16142SOL     OW59644   1.603   2.879   6.233
16142SOL    HW159645   1.649   2.801   6.191
16142SOL    HW259646   1.663   2.960   6.227
16143SOL     OW59647   5.317   6.213   1.808
16143SOL    HW159648   5.352   6.305   1.790
16143SOL    HW259649   5.393   6.151   1.824
16144SOL     OW59650   8.476   2.235   5.126
16144SOL    HW159651   8.400   2.193   5.175
16144SOL    HW259652   8.479   2.333   5.147
16145SOL     OW59653   7.031   9.595   2.175
16145SOL    HW159654   7.085   9.657   2.232
16145SOL    HW259655   7.090   9.553   2.106
16146SOL     OW59656   5.857   0.471   4.706
16146SOL    HW159657   5.910   0.433   4.781
16146SOL    HW259658   5.767   0.427   4.702
16147SOL     OW59659   9.261   4.457   1.323
16147SOL    HW159660   9.198   4.415   1.259
16147SOL    HW259661   9.248   4.419   1.414
16148SOL     OW59662   6.567   1.266   5.139
16148SOL    HW159663   6.602   1.342   5.084
16148SOL    HW259664   6.521   1.200   5.080
16149SOL     OW59665   1.308   9.597   2.241
16149SOL    HW159666   1.325   9.681   2.293
16149SOL    HW259667   1.395   9.553   2.219
16150SOL     OW59668   3.147   5.654   4.600
16150SOL    HW159669   3.117   5.718   4.671
16150SOL    HW259670   3.235   5.684   4.564
16151SOL     OW59671   9.846   7.108   0.450
16151SOL    HW159672   9.766   7.167   0.443
16151SOL    HW259673   9.928   7.164   0.466
16152SOL     OW59674   6.434   9.942   4.560
16152SOL    HW159675   6.522   9.905   4.591
16152SOL    HW259676   6.378   9.868   4.524
16153SOL     OW59677   5.478   1.130   4.129
16153SOL    HW159678   5.532   1.056   4.170
16153SOL    HW259679   5.481   1.123   4.030
16154SOL     OW59680   1.395   5.857   2.701
16154SOL    HW159681   1.306   5.881   2.661
16154SOL    HW259682   1.466   5.915   2.661
16155SOL     OW59683   2.015   7.358   5.540
16155SOL    HW159684   1.987   7.296   5.613
16155SOL    HW259685   1.941   7.366   5.473
16156SOL     OW59686   2.081   9.837   5.204
16156SOL    HW159687   2.095   9.747   5.163
16156SOL    HW259688   2.055   9.903   5.133
16157SOL     OW59689   6.165   9.592   6.262
16157SOL    HW159690   6.100   9.667   6.280
16157SOL    HW259691   6.258   9.625   6.276
16158SOL     OW59692   5.168   7.923   4.543
16158SOL    HW159693   5.249   7.978   4.558
16158SOL    HW259694   5.189   7.827   4.563
16159SOL     OW59695   5.772   0.579   2.653
16159SOL    HW159696   5.802   0.546   2.743
16159SOL    HW259697   5.672   0.588   2.653
16160SOL     OW59698   7.599   9.619   4.595
16160SOL    HW159699   7.689   9.575   4.595
16160SOL    HW259700   7.528   9.550   4.585
16161SOL     OW59701   8.731   1.780   2.415
16161SOL    HW159702   8.711   1.687   2.386
16161SOL    HW259703   8.668   1.843   2.369
16162SOL     OW59704   2.432   6.028   2.009
16162SOL    HW159705   2.509   5.975   1.974
16162SOL    HW259706   2.373   6.056   1.933
16163SOL     OW59707   7.878   3.224   4.547
16163SOL    HW159708   7.930   3.142   4.569
16163SOL    HW259709   7.816   3.206   4.471
16164SOL     OW59710   6.071   1.392   4.859
16164SOL    HW159711   5.994   1.334   4.885
16164SOL    HW259712   6.090   1.382   4.761
16165SOL     OW59713   2.615   1.664   2.163
16165SOL    HW159714   2.595   1.628   2.254
16165SOL    HW259715   2.599   1.593   2.095
16166SOL     OW59716   1.975   9.337   5.918
16166SOL    HW159717   2.033   9.418   5.916
16166SOL    HW259718   1.879   9.365   5.927
16167SOL     OW59719   7.684   4.842   2.356
16167SOL    HW159720   7.760   4.898   2.387
16167SOL    HW259721   7.609   4.845   2.423
16168SOL     OW59722   8.578   0.211   2.455
16168SOL    HW159723   8.551   0.206   2.359
16168SOL    HW259724   8.496   0.203   2.513
16169SOL     OW59725   3.749   0.107   4.217
16169SOL    HW159726   3.707   0.147   4.135
16169SOL    HW259727   3.677   0.075   4.279
16170SOL     OW59728   3.223   2.129   0.146
16170SOL    HW159729   3.182   2.215   0.114
16170SOL    HW259730   3.265   2.144   0.235
16171SOL     OW59731   7.117   7.407   3.450
16171SOL    HW159732   7.122   7.307   3.455
16171SOL    HW259733   7.062   7.441   3.527
16172SOL     OW59734   8.156   6.097   5.377
16172SOL    HW159735   8.138   6.019   5.318
16172SOL    HW259736   8.134   6.182   5.327
16173SOL     OW59737   4.511   7.843   3.527
16173SOL    HW159738   4.488   7.939   3.511
16173SOL    HW259739   4.546   7.802   3.443
16174SOL     OW59740   1.888   9.803   3.990
16174SOL    HW159741   1.892   9.738   3.914
16174SOL    HW259742   1.977   9.806   4.037
16175SOL     OW59743   5.958   0.980   4.712
16175SOL    HW159744   5.986   0.895   4.757
16175SOL    HW259745   5.925   1.045   4.780
16176SOL     OW59746   7.768   7.231   2.041
16176SOL    HW159747   7.795   7.152   1.985
16176SOL    HW259748   7.688   7.275   2.000
16177SOL     OW59749   0.655   0.947   6.361
16177SOL    HW159750   0.679   1.027   6.306
16177SOL    HW259751   0.566   0.962   6.405
16178SOL     OW59752   6.044   9.177   4.919
16178SOL    HW159753   6.072   9.082   4.926
16178SOL    HW259754   6.059   9.222   5.007
16179SOL     OW59755   4.763   0.875   1.599
16179SOL    HW159756   4.686   0.816   1.624
16179SOL    HW259757   4.848   0.821   1.600
16180SOL     OW59758   7.024   1.172   0.300
16180SOL    HW159759   6.950   1.139   0.241
16180SOL    HW259760   7.052   1.263   0.271
16181SOL     OW59761   2.632   0.826   4.575
16181SOL    HW159762   2.569   0.833   4.498
16181SOL    HW259763   2.711   0.886   4.561
16182SOL     OW59764   9.050   6.321   1.188
16182SOL    HW159765   9.090   6.410   1.210
16182SOL    HW259766   9.107   6.273   1.122
16183SOL     OW59767   0.723   6.059   0.283
16183SOL    HW159768   0.666   6.132   0.246
16183SOL    HW259769   0.818   6.091   0.291
16184SOL     OW59770   9.966   3.881   4.764
16184SOL    HW159771   9.963   3.806   4.698
16184SOL    HW259772   9.998   3.964   4.719
16185SOL     OW59773   4.217   5.785   1.489
16185SOL    HW159774   4.268   5.855   1.439
16185SOL    HW259775   4.206   5.813   1.584
16186SOL     OW59776   0.275   3.440   2.068
16186SOL    HW159777   0.364   3.468   2.104
16186SOL    HW259778   0.229   3.382   2.135
16187SOL     OW59779   7.688   8.745   5.447
16187SOL    HW159780   7.674   8.667   5.387
16187SOL    HW259781   7.734   8.715   5.531
16188SOL     OW59782   2.178   7.628   3.431
16188SOL    HW159783   2.181   7.677   3.518
16188SOL    HW259784   2.093   7.575   3.427
16189SOL     OW59785   1.330   4.375   1.350
16189SOL    HW159786   1.321   4.396   1.447
16189SOL    HW259787   1.247   4.401   1.302
16190SOL     OW59788   7.964   1.653   1.337
16190SOL    HW159789   7.968   1.705   1.422
16190SOL    HW259790   7.887   1.684   1.281
16191SOL     OW59791   1.490   6.226   3.889
16191SOL    HW159792   1.464   6.198   3.796
16191SOL    HW259793   1.518   6.322   3.888
16192SOL     OW59794   2.279   7.439   3.959
16192SOL    HW159795   2.353   7.373   3.941
16192SOL    HW259796   2.235   7.416   4.046
16193SOL     OW59797   6.985   2.982   4.619
16193SOL    HW159798   7.050   3.058   4.616
16193SOL    HW259799   6.953   2.962   4.527
16194SOL     OW59800   0.642   5.801   4.962
16194SOL    HW159801   0.585   5.812   4.881
16194SOL    HW259802   0.630   5.708   4.998
16195SOL     OW59803   3.469   1.478   0.437
16195SOL    HW159804   3.526   1.454   0.358
16195SOL    HW259805   3.465   1.578   0.446
16196SOL     OW59806   3.423   7.668   3.795
16196SOL    HW159807   3.414   7.676   3.894
16196SOL    HW259808   3.332   7.673   3.753
16197SOL     OW59809   6.167   9.716   2.917
16197SOL    HW159810   6.145   9.712   2.819
16197SOL    HW259811   6.217   9.800   2.936
16198SOL     OW59812   4.682   7.779   4.489
16198SOL    HW159813   4.613   7.750   4.422
16198SOL    HW259814   4.760   7.718   4.485
16199SOL     OW59815   7.890   4.559   2.500
16199SOL    HW159816   7.934   4.477   2.536
16199SOL    HW259817   7.927   4.640   2.546
16200SOL     OW59818   1.378   4.273   2.584
16200SOL    HW159819   1.453   4.262   2.649
16200SOL    HW259820   1.329   4.358   2.603
16201SOL     OW59821   4.129   3.507   5.611
16201SOL    HW159822   4.122   3.414   5.574
16201SOL    HW259823   4.154   3.570   5.537
16202SOL     OW59824   2.974   3.594   4.377
16202SOL    HW159825   3.021   3.567   4.293
16202SOL    HW259826   2.939   3.687   4.368
16203SOL     OW59827   1.454   1.564   0.757
16203SOL    HW159828   1.524   1.493   0.744
16203SOL    HW259829   1.419   1.592   0.668
16204SOL     OW59830   4.333   0.196   5.219
16204SOL    HW159831   4.382   0.238   5.142
16204SOL    HW259832   4.240   0.232   5.222
16205SOL     OW59833   8.914   3.489   2.363
16205SOL    HW159834   8.863   3.570   2.391
16205SOL    HW259835   8.939   3.497   2.267
16206SOL     OW59836   5.005   6.236   2.336
16206SOL    HW159837   5.057   6.228   2.421
16206SOL    HW259838   5.048   6.304   2.276
16207SOL     OW59839   2.697   2.143   0.881
16207SOL    HW159840   2.632   2.068   0.889
16207SOL    HW259841   2.778   2.124   0.935
16208SOL     OW59842   3.715   4.181   4.462
16208SOL    HW159843   3.802   4.139   4.437
16208SOL    HW259844   3.731   4.260   4.521
16209SOL     OW59845   2.846   2.184   2.931
16209SOL    HW159846   2.767   2.125   2.948
16209SOL    HW259847   2.929   2.129   2.932
16210SOL     OW59848   2.903   5.882   4.515
16210SOL    HW159849   2.844   5.951   4.558
16210SOL    HW259850   2.848   5.823   4.457
16211SOL     OW59851   5.018   0.100   1.610
16211SOL    HW159852   5.095   0.109   1.547
16211SOL    HW259853   4.964   0.184   1.609
16212SOL     OW59854   0.392   7.258   0.320
16212SOL    HW159855   0.367   7.182   0.259
16212SOL    HW259856   0.359   7.239   0.413
16213SOL     OW59857   9.507   6.535   4.473
16213SOL    HW159858   9.605   6.553   4.464
16213SOL    HW259859   9.459   6.620   4.497
16214SOL     OW59860   1.560   5.760   1.342
16214SOL    HW159861   1.543   5.695   1.268
16214SOL    HW259862   1.472   5.794   1.377
16215SOL     OW59863   9.705   8.283   5.277
16215SOL    HW159864   9.624   8.294   5.220
16215SOL    HW259865   9.704   8.351   5.350
16216SOL     OW59866   2.889   2.915   0.916
16216SOL    HW159867   2.878   2.875   1.008
16216SOL    HW259868   2.984   2.902   0.886
16217SOL     OW59869   2.870   0.778   5.214
16217SOL    HW159870   2.838   0.872   5.218
16217SOL    HW259871   2.832   0.726   5.290
16218SOL     OW59872   4.911   0.201   3.772
16218SOL    HW159873   4.944   0.111   3.743
16218SOL    HW259874   4.893   0.199   3.870
16219SOL     OW59875   6.730   1.211   1.269
16219SOL    HW159876   6.635   1.233   1.246
16219SOL    HW259877   6.783   1.203   1.185
16220SOL     OW59878   6.802   9.534   3.245
16220SOL    HW159879   6.866   9.458   3.234
16220SOL    HW259880   6.826   9.608   3.182
16221SOL     OW59881   4.232   9.367   4.880
16221SOL    HW159882   4.309   9.321   4.837
16221SOL    HW259883   4.214   9.326   4.969
16222SOL     OW59884   6.002   7.802   2.915
16222SOL    HW159885   5.943   7.721   2.921
16222SOL    HW259886   5.951   7.882   2.947
16223SOL     OW59887   2.316   1.872   1.109
16223SOL    HW159888   2.229   1.922   1.108
16223SOL    HW259889   2.372   1.905   1.185
16224SOL     OW59890   2.315   7.083   1.686
16224SOL    HW159891   2.369   7.009   1.725
16224SOL    HW259892   2.333   7.089   1.587
16225SOL     OW59893   8.106   4.337   2.879
16225SOL    HW159894   8.041   4.262   2.894
16225SOL    HW259895   8.118   4.388   2.964
16226SOL     OW59896   8.538   9.166   2.439
16226SOL    HW159897   8.459   9.104   2.437
16226SOL    HW259898   8.519   9.246   2.383
16227SOL     OW59899   8.976   2.932   2.345
16227SOL    HW159900   8.948   2.849   2.295
16227SOL    HW259901   8.947   3.013   2.294
16228SOL     OW59902   8.364   5.575   0.752
16228SOL    HW159903   8.364   5.554   0.655
16228SOL    HW259904   8.273   5.555   0.790
16229SOL     OW59905   4.553   6.741   1.446
16229SOL    HW159906   4.613   6.663   1.427
16229SOL    HW259907   4.553   6.760   1.544
16230SOL     OW59908   0.922   2.522   1.809
16230SOL    HW159909   0.991   2.525   1.881
16230SOL    HW259910   0.876   2.610   1.802
16231SOL     OW59911   5.012   4.020   2.258
16231SOL    HW159912   4.957   3.944   2.224
16231SOL    HW259913   5.102   4.019   2.213
16232SOL     OW59914   0.331   9.003   5.234
16232SOL    HW159915   0.414   8.990   5.181
16232SOL    HW259916   0.354   9.033   5.327
16233SOL     OW59917   9.328   7.375   2.543
16233SOL    HW159918   9.252   7.436   2.565
16233SOL    HW259919   9.306   7.281   2.570
16234SOL     OW59920   3.519   7.509   2.539
16234SOL    HW159921   3.432   7.557   2.546
16234SOL    HW259922   3.508   7.430   2.478
16235SOL     OW59923   2.182   0.035   5.663
16235SOL    HW159924   2.144   9.945   5.685
16235SOL    HW259925   2.229   0.031   5.575
16236SOL     OW59926   4.958   7.763   3.244
16236SOL    HW159927   4.910   7.850   3.252
16236SOL    HW259928   4.951   7.728   3.150
16237SOL     OW59929   3.849   2.855   2.735
16237SOL    HW159930   3.779   2.884   2.669
16237SOL    HW259931   3.833   2.759   2.759
16238SOL     OW59932   7.084   2.488   3.811
16238SOL    HW159933   7.098   2.587   3.813
16238SOL    HW259934   6.986   2.467   3.815
16239SOL     OW59935   1.779   9.313   5.382
16239SOL    HW159936   1.701   9.311   5.319
16239SOL    HW259937   1.748   9.344   5.472
16240SOL     OW59938   9.064   2.131   5.302
16240SOL    HW159939   9.141   2.181   5.264
16240SOL    HW259940   9.091   2.036   5.318
16241SOL     OW59941   6.922   2.157   1.999
16241SOL    HW159942   6.942   2.077   1.942
16241SOL    HW259943   6.823   2.165   2.011
16242SOL     OW59944   2.618   8.328   4.064
16242SOL    HW159945   2.621   8.270   4.146
16242SOL    HW259946   2.712   8.349   4.035
16243SOL     OW59947   2.066   6.141   0.854
16243SOL    HW159948   2.161   6.163   0.874
16243SOL    HW259949   2.007   6.179   0.925
16244SOL     OW59950   3.449   3.460   1.471
16244SOL    HW159951   3.508   3.503   1.403
16244SOL    HW259952   3.441   3.520   1.550
16245SOL     OW59953   3.139   3.471   3.752
16245SOL    HW159954   3.055   3.454   3.803
16245SOL    HW259955   3.188   3.385   3.739
16246SOL     OW59956   8.886   0.516   5.746
16246SOL    HW159957   8.862   0.504   5.650
16246SOL    HW259958   8.955   0.448   5.772
16247SOL     OW59959   7.710   4.380   3.521
16247SOL    HW159960   7.665   4.341   3.440
16247SOL    HW259961   7.691   4.478   3.526
16248SOL     OW59962   7.182   4.234   1.005
16248SOL    HW159963   7.105   4.180   0.972
16248SOL    HW259964   7.220   4.288   0.930
16249SOL     OW59965   9.573   5.717   5.554
16249SOL    HW159966   9.649   5.704   5.617
16249SOL    HW259967   9.552   5.630   5.509
16250SOL     OW59968   2.713   0.319   2.185
16250SOL    HW159969   2.713   0.223   2.213
16250SOL    HW259970   2.639   0.368   2.232
16251SOL     OW59971   9.888   8.991   3.925
16251SOL    HW159972   9.910   8.912   3.867
16251SOL    HW259973   9.794   9.019   3.908
16252SOL     OW59974   9.246   9.309   0.671
16252SOL    HW159975   9.336   9.270   0.695
16252SOL    HW259976   9.175   9.240   0.687
16253SOL     OW59977   2.168   7.861   3.898
16253SOL    HW159978   2.134   7.809   3.820
16253SOL    HW259979   2.254   7.905   3.875
16254SOL     OW59980   6.901   2.461   1.743
16254SOL    HW159981   6.882   2.409   1.660
16254SOL    HW259982   6.911   2.558   1.719
16255SOL     OW59983   9.705   4.027   2.974
16255SOL    HW159984   9.758   3.948   2.944
16255SOL    HW259985   9.666   4.009   3.065
16256SOL     OW59986   2.826   5.939   4.951
16256SOL    HW159987   2.774   6.012   4.996
16256SOL    HW259988   2.810   5.853   4.999
16257SOL     OW59989   2.857   5.243   3.571
16257SOL    HW159990   2.806   5.248   3.485
16257SOL    HW259991   2.953   5.223   3.551
16258SOL     OW59992   0.375   8.724   1.007
16258SOL    HW159993   0.360   8.710   0.909
16258SOL    HW259994   0.289   8.755   1.049
16259SOL     OW59995   0.902   8.472   0.635
16259SOL    HW159996   0.979   8.489   0.574
16259SOL    HW259997   0.899   8.375   0.659
16260SOL     OW59998   4.389   1.115   1.524
16260SOL    HW159999   4.411   1.148   1.432
16260SOL    HW260000   4.464   1.137   1.586
16261SOL     OW60001   1.939   0.132   2.301
16261SOL    HW160002   1.950   0.199   2.374
16261SOL    HW260003   1.842   0.106   2.293
16262SOL     OW60004   1.522   6.808   4.150
16262SOL    HW160005   1.464   6.729   4.130
16262SOL    HW260006   1.553   6.804   4.245
16263SOL     OW60007   9.722   7.409   2.797
16263SOL    HW160008   9.714   7.366   2.887
16263SOL    HW260009   9.798   7.474   2.797
16264SOL     OW60010   7.361   3.777   5.413
16264SOL    HW160011   7.420   3.809   5.339
16264SOL    HW260012   7.415   3.722   5.477
16265SOL     OW60013   5.415   5.192   0.268
16265SOL    HW160014   5.355   5.258   0.313
16265SOL    HW260015   5.421   5.214   0.170
16266SOL     OW60016   0.795   2.076   3.679
16266SOL    HW160017   0.847   2.020   3.614
16266SOL    HW260018   0.720   2.121   3.631
16267SOL     OW60019   0.865   2.658   3.650
16267SOL    HW160020   0.842   2.640   3.554
16267SOL    HW260021   0.941   2.722   3.654
16268SOL     OW60022   1.098   9.606   2.614
16268SOL    HW160023   1.138   9.549   2.543
16268SOL    HW260024   1.158   9.608   2.694
16269SOL     OW60025   8.556   2.197   1.602
16269SOL    HW160026   8.541   2.098   1.601
16269SOL    HW260027   8.521   2.235   1.688
16270SOL     OW60028   0.568   6.987   4.339
16270SOL    HW160029   0.586   6.900   4.294
16270SOL    HW260030   0.642   7.007   4.403
16271SOL     OW60031   9.447   9.078   0.966
16271SOL    HW160032   9.499   9.119   1.042
16271SOL    HW260033   9.361   9.042   1.001
16272SOL     OW60034   9.739   2.662   1.221
16272SOL    HW160035   9.677   2.668   1.143
16272SOL    HW260036   9.821   2.611   1.195
16273SOL     OW60037   6.354   4.060   1.392
16273SOL    HW160038   6.332   4.152   1.423
16273SOL    HW260039   6.383   4.005   1.470
16274SOL     OW60040   2.955   1.470   6.211
16274SOL    HW160041   2.881   1.536   6.221
16274SOL    HW260042   3.030   1.494   6.273
16275SOL     OW60043   9.013   1.423   3.995
16275SOL    HW160044   8.969   1.449   4.081
16275SOL    HW260045   9.109   1.453   3.995
16276SOL     OW60046   8.781   5.814   0.919
16276SOL    HW160047   8.760   5.718   0.937
16276SOL    HW260048   8.720   5.848   0.847
16277SOL     OW60049   9.041   0.214   5.511
16277SOL    HW160050   9.056   0.254   5.601
16277SOL    HW260051   9.078   0.122   5.508
16278SOL     OW60052   0.934   1.621   2.665
16278SOL    HW160053   0.849   1.583   2.628
16278SOL    HW260054   0.990   1.547   2.702
16279SOL     OW60055   9.752   7.410   5.948
16279SOL    HW160056   9.709   7.331   5.905
16279SOL    HW260057   9.850   7.393   5.958
16280SOL     OW60058   7.626   2.625   2.001
16280SOL    HW160059   7.611   2.717   1.967
16280SOL    HW260060   7.544   2.569   1.983
16281SOL     OW60061   9.153   9.224   4.907
16281SOL    HW160062   9.105   9.201   4.822
16281SOL    HW260063   9.149   9.146   4.969
16282SOL     OW60064   1.884   3.696   3.746
16282SOL    HW160065   1.970   3.671   3.790
16282SOL    HW260066   1.840   3.768   3.799
16283SOL     OW60067   8.416   2.472   5.287
16283SOL    HW160068   8.409   2.572   5.281
16283SOL    HW260069   8.503   2.447   5.330
16284SOL     OW60070   7.951   7.734   6.442
16284SOL    HW160071   8.002   7.792   6.378
16284SOL    HW260072   7.983   7.640   6.436
16285SOL     OW60073   7.580   9.323   3.615
16285SOL    HW160074   7.606   9.406   3.565
16285SOL    HW260075   7.483   9.303   3.597
16286SOL     OW60076   4.168   9.678   2.613
16286SOL    HW160077   4.260   9.685   2.574
16286SOL    HW260078   4.114   9.613   2.559
16287SOL     OW60079   5.115   4.295   1.314
16287SOL    HW160080   5.068   4.369   1.264
16287SOL    HW260081   5.088   4.298   1.410
16288SOL     OW60082   1.858   7.764   3.497
16288SOL    HW160083   1.805   7.689   3.537
16288SOL    HW260084   1.876   7.744   3.400
16289SOL     OW60085   3.949   9.886   5.343
16289SOL    HW160086   4.038   9.925   5.320
16289SOL    HW260087   3.941   9.795   5.301
16290SOL     OW60088   2.468   3.262   2.287
16290SOL    HW160089   2.404   3.197   2.329
16290SOL    HW260090   2.417   3.343   2.256
16291SOL     OW60091   6.973   4.056   0.909
16291SOL    HW160092   6.925   4.118   0.847
16291SOL    HW260093   6.988   3.969   0.863
16292SOL     OW60094   7.584   1.667   0.964
16292SOL    HW160095   7.623   1.576   0.953
16292SOL    HW260096   7.492   1.660   1.002
16293SOL     OW60097   8.534   0.305   4.073
16293SOL    HW160098   8.478   0.304   3.990
16293SOL    HW260099   8.489   0.360   4.143
16294SOL     OW60100   9.738   1.293   4.694
16294SOL    HW160101   9.677   1.217   4.717
16294SOL    HW260102   9.754   1.295   4.595
16295SOL     OW60103   8.644   4.797   0.536
16295SOL    HW160104   8.636   4.877   0.596
16295SOL    HW260105   8.616   4.822   0.443
16296SOL     OW60106   2.851   2.173   3.683
16296SOL    HW160107   2.929   2.168   3.620
16296SOL    HW260108   2.789   2.097   3.664
16297SOL     OW60109   2.406   5.622   4.710
16297SOL    HW160110   2.446   5.531   4.720
16297SOL    HW260111   2.477   5.688   4.685
16298SOL     OW60112   7.455   4.477   1.005
16298SOL    HW160113   7.419   4.426   0.927
16298SOL    HW260114   7.523   4.543   0.973
16299SOL     OW60115   7.737   2.527   4.131
16299SOL    HW160116   7.769   2.478   4.213
16299SOL    HW260117   7.708   2.460   4.063
16300SOL     OW60118   9.030   3.789   3.192
16300SOL    HW160119   9.097   3.761   3.260
16300SOL    HW260120   8.992   3.707   3.147
16301SOL     OW60121   2.203   0.622   1.616
16301SOL    HW160122   2.276   0.569   1.573
16301SOL    HW260123   2.118   0.569   1.614
16302SOL     OW60124   4.011   8.388   1.376
16302SOL    HW160125   4.032   8.292   1.397
16302SOL    HW260126   3.994   8.397   1.278
16303SOL     OW60127   9.769   8.617   0.154
16303SOL    HW160128   9.727   8.540   0.106
16303SOL    HW260129   9.867   8.602   0.163
16304SOL     OW60130   2.982   8.274   4.375
16304SOL    HW160131   2.943   8.201   4.318
16304SOL    HW260132   2.967   8.252   4.472
16305SOL     OW60133   4.567   2.735   0.251
16305SOL    HW160134   4.581   2.723   0.350
16305SOL    HW260135   4.471   2.753   0.233
16306SOL     OW60136   0.334   1.203   2.097
16306SOL    HW160137   0.394   1.195   2.176
16306SOL    HW260138   0.243   1.232   2.127
16307SOL     OW60139   6.821   5.200   1.824
16307SOL    HW160140   6.862   5.125   1.772
16307SOL    HW260141   6.831   5.286   1.773
16308SOL     OW60142   6.859   5.446   1.705
16308SOL    HW160143   6.918   5.499   1.766
16308SOL    HW260144   6.774   5.497   1.690
16309SOL     OW60145   7.430   5.428   0.927
16309SOL    HW160146   7.339   5.468   0.912
16309SOL    HW260147   7.447   5.358   0.857
16310SOL     OW60148   4.779   9.978   1.704
16310SOL    HW160149   4.706   0.047   1.705
16310SOL    HW260150   4.862   0.019   1.667
16311SOL     OW60151   9.740   3.076   5.333
16311SOL    HW160152   9.766   3.000   5.393
16311SOL    HW260153   9.642   3.075   5.317
16312SOL     OW60154   3.062   0.555   1.993
16312SOL    HW160155   3.112   0.511   1.918
16312SOL    HW260156   3.017   0.637   1.959
16313SOL     OW60157   0.957   3.714   0.174
16313SOL    HW160158   1.027   3.669   0.229
16313SOL    HW260159   0.982   3.809   0.159
16314SOL     OW60160   2.402   5.737   3.027
16314SOL    HW160161   2.493   5.748   2.987
16314SOL    HW260162   2.410   5.717   3.125
16315SOL     OW60163   1.339   1.538   1.976
16315SOL    HW160164   1.273   1.499   1.913
16315SOL    HW260165   1.402   1.467   2.008
16316SOL     OW60166   9.936   5.974   5.314
16316SOL    HW160167   9.880   5.892   5.325
16316SOL    HW260168   0.032   5.952   5.335
16317SOL     OW60169   7.819   7.344   4.148
16317SOL    HW160170   7.769   7.269   4.105
16317SOL    HW260171   7.836   7.321   4.244
16318SOL     OW60172   9.558   6.276   5.378
16318SOL    HW160173   9.466   6.247   5.407
16318SOL    HW260174   9.623   6.257   5.451
16319SOL     OW60175   1.037   4.235   4.946
16319SOL    HW160176   1.116   4.183   4.913
16319SOL    HW260177   0.968   4.172   4.980
16320SOL     OW60178   3.964   4.751   2.580
16320SOL    HW160179   3.948   4.850   2.580
16320SOL    HW260180   3.989   4.721   2.488
16321SOL     OW60181   3.340   6.378   4.357
16321SOL    HW160182   3.406   6.360   4.430
16321SOL    HW260183   3.292   6.464   4.375
16322SOL     OW60184   7.151   2.539   3.244
16322SOL    HW160185   7.161   2.460   3.183
16322SOL    HW260186   7.242   2.570   3.272
16323SOL     OW60187   0.506   3.790   5.096
16323SOL    HW160188   0.514   3.830   5.187
16323SOL    HW260189   0.594   3.753   5.067
16324SOL     OW60190   2.731   9.199   5.894
16324SOL    HW160191   2.665   9.265   5.858
16324SOL    HW260192   2.733   9.205   5.994
16325SOL     OW60193   1.026   6.314   4.608
16325SOL    HW160194   1.057   6.375   4.681
16325SOL    HW260195   0.937   6.345   4.574
16326SOL     OW60196   3.362   3.006   3.579
16326SOL    HW160197   3.368   2.909   3.556
16326SOL    HW260198   3.452   3.039   3.607
16327SOL     OW60199   1.211   6.444   1.774
16327SOL    HW160200   1.259   6.406   1.853
16327SOL    HW260201   1.245   6.536   1.755
16328SOL     OW60202   4.478   0.369   5.708
16328SOL    HW160203   4.547   0.310   5.749
16328SOL    HW260204   4.457   0.336   5.616
16329SOL     OW60205   1.035   5.801   0.608
16329SOL    HW160206   0.980   5.867   0.659
16329SOL    HW260207   1.058   5.839   0.518
16330SOL     OW60208   9.198   1.985   3.165
16330SOL    HW160209   9.196   2.025   3.073
16330SOL    HW260210   9.288   1.999   3.206
16331SOL     OW60211   0.086   0.746   1.672
16331SOL    HW160212   0.176   0.743   1.629
16331SOL    HW260213   0.015   0.735   1.602
16332SOL     OW60214   2.422   0.160   4.825
16332SOL    HW160215   2.452   0.255   4.829
16332SOL    HW260216   2.369   0.138   4.908
16333SOL     OW60217   3.649   7.534   0.757
16333SOL    HW160218   3.584   7.559   0.829
16333SOL    HW260219   3.641   7.436   0.738
16334SOL     OW60220   9.373   9.436   5.232
16334SOL    HW160221   9.399   9.358   5.174
16334SOL    HW260222   9.395   9.415   5.327
16335SOL     OW60223   8.367   1.180   1.550
16335SOL    HW160224   8.268   1.175   1.555
16335SOL    HW260225   8.404   1.209   1.638
16336SOL     OW60226   2.717   5.299   2.484
16336SOL    HW160227   2.801   5.249   2.462
16336SOL    HW260228   2.677   5.262   2.568
16337SOL     OW60229   8.476   4.636   4.452
16337SOL    HW160230   8.450   4.540   4.447
16337SOL    HW260231   8.552   4.648   4.516
16338SOL     OW60232   4.747   1.200   4.597
16338SOL    HW160233   4.791   1.181   4.509
16338SOL    HW260234   4.672   1.264   4.583
16339SOL     OW60235   4.237   3.982   2.819
16339SOL    HW160236   4.172   3.971   2.894
16339SOL    HW260237   4.324   3.939   2.844
16340SOL     OW60238   6.466   1.000   1.075
16340SOL    HW160239   6.443   0.918   1.127
16340SOL    HW260240   6.561   0.995   1.045
16341SOL     OW60241   8.247   0.623   4.988
16341SOL    HW160242   8.149   0.617   5.004
16341SOL    HW260243   8.266   0.691   4.918
16342SOL     OW60244   0.567   7.368   1.692
16342SOL    HW160245   0.640   7.371   1.759
16342SOL    HW260246   0.488   7.418   1.726
16343SOL     OW60247   0.431   9.807   1.010
16343SOL    HW160248   0.523   9.805   0.971
16343SOL    HW260249   0.437   9.834   1.106
16344SOL     OW60250   4.073   6.147   3.446
16344SOL    HW160251   4.060   6.116   3.352
16344SOL    HW260252   4.017   6.229   3.462
16345SOL     OW60253   1.429   7.535   3.392
16345SOL    HW160254   1.471   7.481   3.464
16345SOL    HW260255   1.416   7.479   3.310
16346SOL     OW60256   3.417   3.084   4.420
16346SOL    HW160257   3.464   3.014   4.473
16346SOL    HW260258   3.483   3.148   4.381
16347SOL     OW60259   8.043   2.966   1.819
16347SOL    HW160260   7.951   3.001   1.803
16347SOL    HW260261   8.094   3.030   1.876
16348SOL     OW60262   2.521   4.101   5.822
16348SOL    HW160263   2.543   4.174   5.887
16348SOL    HW260264   2.477   4.026   5.870
16349SOL     OW60265   9.945   0.989   6.387
16349SOL    HW160266   0.014   0.927   6.351
16349SOL    HW260267   9.854   0.952   6.368
16350SOL     OW60268   2.237   9.367   3.578
16350SOL    HW160269   2.296   9.288   3.599
16350SOL    HW260270   2.269   9.410   3.494
16351SOL     OW60271   4.676   0.220   5.817
16351SOL    HW160272   4.715   0.211   5.908
16351SOL    HW260273   4.740   0.184   5.749
16352SOL     OW60274   1.256   2.574   0.388
16352SOL    HW160275   1.186   2.504   0.375
16352SOL    HW260276   1.215   2.664   0.379
16353SOL     OW60277   1.637   5.750   4.542
16353SOL    HW160278   1.602   5.725   4.452
16353SOL    HW260279   1.733   5.722   4.549
16354SOL     OW60280   4.750   7.745   4.808
16354SOL    HW160281   4.748   7.738   4.908
16354SOL    HW260282   4.835   7.790   4.780
16355SOL     OW60283   1.460   4.368   1.108
16355SOL    HW160284   1.556   4.396   1.111
16355SOL    HW260285   1.421   4.369   1.200
16356SOL     OW60286   8.033   6.983   5.143
16356SOL    HW160287   8.052   6.916   5.071
16356SOL    HW260288   8.100   6.972   5.216
16357SOL     OW60289   3.947   0.702   0.907
16357SOL    HW160290   3.993   0.787   0.880
16357SOL    HW260291   3.948   0.639   0.830
16358SOL     OW60292   4.097   3.828   2.213
16358SOL    HW160293   4.055   3.830   2.303
16358SOL    HW260294   4.188   3.787   2.218
16359SOL     OW60295   7.985   2.870   0.136
16359SOL    HW160296   8.026   2.940   0.077
16359SOL    HW260297   7.979   2.904   0.229
16360SOL     OW60298   1.937   6.978   2.493
16360SOL    HW160299   1.963   6.882   2.503
16360SOL    HW260300   2.014   7.036   2.519
16361SOL     OW60301   1.179   4.914   6.260
16361SOL    HW160302   1.189   4.976   6.338
16361SOL    HW260303   1.265   4.911   6.209
16362SOL     OW60304   2.016   8.053   4.283
16362SOL    HW160305   1.980   8.137   4.242
16362SOL    HW260306   1.999   7.976   4.222
16363SOL     OW60307   6.434   7.794   5.816
16363SOL    HW160308   6.460   7.885   5.783
16363SOL    HW260309   6.335   7.782   5.804
16364SOL     OW60310   8.860   4.764   5.594
16364SOL    HW160311   8.832   4.842   5.650
16364SOL    HW260312   8.935   4.791   5.534
16365SOL     OW60313   3.881   4.738   5.556
16365SOL    HW160314   3.884   4.638   5.544
16365SOL    HW260315   3.884   4.782   5.466
16366SOL     OW60316   1.289   3.987   0.620
16366SOL    HW160317   1.221   3.927   0.577
16366SOL    HW260318   1.274   4.081   0.590
16367SOL     OW60319   2.342   8.106   3.288
16367SOL    HW160320   2.286   8.064   3.360
16367SOL    HW260321   2.294   8.186   3.251
16368SOL     OW60322   0.529   5.531   3.481
16368SOL    HW160323   0.565   5.508   3.391
16368SOL    HW260324   0.487   5.622   3.478
16369SOL     OW60325   9.539   9.145   1.836
16369SOL    HW160326   9.465   9.077   1.832
16369SOL    HW260327   9.626   9.099   1.819
16370SOL     OW60328   3.487   9.596   2.457
16370SOL    HW160329   3.477   9.570   2.553
16370SOL    HW260330   3.415   9.660   2.432
16371SOL     OW60331   0.863   3.845   4.589
16371SOL    HW160332   0.864   3.783   4.510
16371SOL    HW260333   0.938   3.911   4.581
16372SOL     OW60334   3.926   5.273   1.638
16372SOL    HW160335   3.867   5.350   1.611
16372SOL    HW260336   4.006   5.309   1.686
16373SOL     OW60337   2.606   7.573   3.283
16373SOL    HW160338   2.576   7.663   3.315
16373SOL    HW260339   2.703   7.560   3.304
16374SOL     OW60340   0.726   1.551   4.494
16374SOL    HW160341   0.760   1.593   4.578
16374SOL    HW260342   0.663   1.614   4.449
16375SOL     OW60343   1.103   0.531   1.792
16375SOL    HW160344   1.114   0.521   1.891
16375SOL    HW260345   1.089   0.441   1.750
16376SOL     OW60346   3.967   8.365   5.730
16376SOL    HW160347   4.011   8.433   5.671
16376SOL    HW260348   4.036   8.302   5.766
16377SOL     OW60349   3.170   8.553   5.184
16377SOL    HW160350   3.206   8.525   5.095
16377SOL    HW260351   3.162   8.473   5.243
16378SOL     OW60352   9.090   1.526   1.307
16378SOL    HW160353   9.051   1.495   1.220
16378SOL    HW260354   9.120   1.446   1.360
16379SOL     OW60355   7.908   6.950   4.754
16379SOL    HW160356   7.911   6.900   4.667
16379SOL    HW260357   7.917   7.048   4.736
16380SOL     OW60358   6.388   5.548   1.258
16380SOL    HW160359   6.360   5.589   1.171
16380SOL    HW260360   6.385   5.617   1.330
16381SOL     OW60361   1.288   6.788   3.032
16381SOL    HW160362   1.293   6.886   3.051
16381SOL    HW260363   1.380   6.752   3.015
16382SOL     OW60364   9.776   8.853   4.950
16382SOL    HW160365   9.758   8.816   4.858
16382SOL    HW260366   9.786   8.953   4.944
16383SOL     OW60367   4.268   3.634   2.535
16383SOL    HW160368   4.277   3.604   2.439
16383SOL    HW260369   4.265   3.733   2.538
16384SOL     OW60370   9.788   0.919   4.517
16384SOL    HW160371   9.748   1.010   4.504
16384SOL    HW260372   9.772   0.863   4.436
16385SOL     OW60373   0.756   4.868   0.892
16385SOL    HW160374   0.778   4.963   0.915
16385SOL    HW260375   0.819   4.807   0.939
16386SOL     OW60376   3.477   5.980   5.268
16386SOL    HW160377   3.500   6.075   5.250
16386SOL    HW260378   3.452   5.970   5.365
16387SOL     OW60379   9.883   8.123   0.331
16387SOL    HW160380   9.842   8.036   0.302
16387SOL    HW260381   9.936   8.109   0.415
16388SOL     OW60382   0.615   1.330   5.098
16388SOL    HW160383   0.536   1.276   5.068
16388SOL    HW260384   0.586   1.399   5.163
16389SOL     OW60385   9.924   2.252   1.296
16389SOL    HW160386   9.984   2.298   1.362
16389SOL    HW260387   9.829   2.262   1.326
16390SOL     OW60388   1.112   6.567   3.899
16390SOL    HW160389   1.094   6.665   3.895
16390SOL    HW260390   1.049   6.524   3.963
16391SOL     OW60391   3.341   7.237   4.245
16391SOL    HW160392   3.272   7.206   4.311
16391SOL    HW260393   3.354   7.336   4.254
16392SOL     OW60394   1.453   8.355   4.412
16392SOL    HW160395   1.474   8.451   4.429
16392SOL    HW260396   1.526   8.298   4.449
16393SOL     OW60397   0.703   7.438   0.447
16393SOL    HW160398   0.631   7.437   0.377
16393SOL    HW260399   0.724   7.533   0.472
16394SOL     OW60400   0.509   9.358   4.512
16394SOL    HW160401   0.554   9.436   4.556
16394SOL    HW260402   0.497   9.285   4.579
16395SOL     OW60403   1.759   0.848   0.589
16395SOL    HW160404   1.743   0.752   0.565
16395SOL    HW260405   1.673   0.898   0.583
16396SOL     OW60406   7.832   3.887   3.365
16396SOL    HW160407   7.875   3.812   3.415
16396SOL    HW260408   7.768   3.935   3.425
16397SOL     OW60409   4.703   0.928   2.294
16397SOL    HW160410   4.709   1.009   2.353
16397SOL    HW260411   4.723   0.846   2.348
16398SOL     OW60412   9.631   9.953   5.304
16398SOL    HW160413   9.641   0.052   5.290
16398SOL    HW260414   9.559   9.918   5.244
16399SOL     OW60415   0.227   1.451   4.324
16399SOL    HW160416   0.166   1.396   4.266
16399SOL    HW260417   0.297   1.391   4.363
16400SOL     OW60418   3.623   1.997   6.218
16400SOL    HW160419   3.583   1.909   6.242
16400SOL    HW260420   3.676   1.989   6.134
16401SOL     OW60421   7.892   0.163   5.755
16401SOL    HW160422   7.908   0.092   5.824
16401SOL    HW260423   7.903   0.253   5.796
16402SOL     OW60424   6.537   1.886   0.955
16402SOL    HW160425   6.591   1.958   0.913
16402SOL    HW260426   6.477   1.926   1.024
16403SOL     OW60427   9.612   6.219   6.257
16403SOL    HW160428   9.686   6.154   6.275
16403SOL    HW260429   9.536   6.172   6.215
16404SOL     OW60430   0.085   4.530   3.733
16404SOL    HW160431   0.088   4.593   3.811
16404SOL    HW260432   0.011   4.464   3.747
16405SOL     OW60433   3.960   5.606   3.963
16405SOL    HW160434   3.894   5.674   3.929
16405SOL    HW260435   4.053   5.637   3.943
16406SOL     OW60436   2.738   2.181   5.194
16406SOL    HW160437   2.718   2.256   5.131
16406SOL    HW260438   2.691   2.098   5.163
16407SOL     OW60439   7.708   1.820   6.054
16407SOL    HW160440   7.680   1.801   5.960
16407SOL    HW260441   7.752   1.740   6.092
16408SOL     OW60442   1.710   8.704   3.495
16408SOL    HW160443   1.791   8.728   3.442
16408SOL    HW260444   1.737   8.680   3.588
16409SOL     OW60445   2.047   3.943   2.069
16409SOL    HW160446   2.046   4.031   2.022
16409SOL    HW260447   2.138   3.903   2.064
16410SOL     OW60448   8.581   8.325   4.868
16410SOL    HW160449   8.556   8.408   4.917
16410SOL    HW260450   8.525   8.317   4.786
16411SOL     OW60451   6.862   4.378   1.947
16411SOL    HW160452   6.893   4.416   1.860
16411SOL    HW260453   6.922   4.303   1.974
16412SOL     OW60454   8.044   6.147   2.949
16412SOL    HW160455   7.944   6.139   2.943
16412SOL    HW260456   8.084   6.056   2.945
16413SOL     OW60457   6.460   3.543   1.093
16413SOL    HW160458   6.558   3.565   1.085
16413SOL    HW260459   6.425   3.515   1.004
16414SOL     OW60460   1.892   7.306   0.834
16414SOL    HW160461   1.856   7.212   0.835
16414SOL    HW260462   1.869   7.351   0.920
16415SOL     OW60463   7.556   3.064   2.425
16415SOL    HW160464   7.530   3.010   2.505
16415SOL    HW260465   7.474   3.101   2.382
16416SOL     OW60466   5.508   0.361   2.394
16416SOL    HW160467   5.584   0.317   2.442
16416SOL    HW260468   5.422   0.335   2.437
16417SOL     OW60469   0.879   5.167   1.952
16417SOL    HW160470   0.789   5.209   1.963
16417SOL    HW260471   0.871   5.086   1.895
16418SOL     OW60472   9.888   2.899   5.881
16418SOL    HW160473   9.941   2.850   5.812
16418SOL    HW260474   9.816   2.952   5.836
16419SOL     OW60475   0.329   5.652   5.762
16419SOL    HW160476   0.325   5.748   5.792
16419SOL    HW260477   0.364   5.596   5.837
16420SOL     OW60478   4.419   8.055   2.519
16420SOL    HW160479   4.337   8.017   2.477
16420SOL    HW260480   4.478   8.093   2.447
16421SOL     OW60481   4.724   5.355   0.998
16421SOL    HW160482   4.768   5.329   1.084
16421SOL    HW260483   4.695   5.451   1.004
16422SOL     OW60484   1.465   1.216   2.303
16422SOL    HW160485   1.476   1.304   2.349
16422SOL    HW260486   1.377   1.215   2.255
16423SOL     OW60487   8.197   0.854   1.196
16423SOL    HW160488   8.148   0.818   1.116
16423SOL    HW260489   8.256   0.929   1.167
16424SOL     OW60490   7.516   2.388   5.371
16424SOL    HW160491   7.548   2.328   5.445
16424SOL    HW260492   7.582   2.462   5.358
16425SOL     OW60493   2.529   4.113   0.829
16425SOL    HW160494   2.520   4.055   0.910
16425SOL    HW260495   2.449   4.099   0.769
16426SOL     OW60496   9.469   0.037   0.218
16426SOL    HW160497   9.401   9.964   0.217
16426SOL    HW260498   9.469   0.082   0.307
16427SOL     OW60499   6.253   2.020   4.696
16427SOL    HW160500   6.247   2.076   4.613
16427SOL    HW260501   6.316   2.064   4.761
16428SOL     OW60502   9.139   3.861   2.948
16428SOL    HW160503   9.091   3.834   3.031
16428SOL    HW260504   9.220   3.914   2.972
16429SOL     OW60505   2.999   8.839   4.833
16429SOL    HW160506   2.962   8.931   4.830
16429SOL    HW260507   2.985   8.800   4.924
16430SOL     OW60508   9.086   3.048   2.725
16430SOL    HW160509   9.029   2.981   2.677
16430SOL    HW260510   9.166   3.002   2.765
16431SOL     OW60511   4.087   0.318   0.769
16431SOL    HW160512   4.045   0.404   0.740
16431SOL    HW260513   4.023   0.267   0.826
16432SOL     OW60514   6.847   7.123   3.443
16432SOL    HW160515   6.817   7.146   3.350
16432SOL    HW260516   6.945   7.104   3.443
16433SOL     OW60517   5.682   1.966   4.800
16433SOL    HW160518   5.776   2.001   4.794
16433SOL    HW260519   5.627   2.031   4.853
16434SOL     OW60520   4.493   1.539   3.572
16434SOL    HW160521   4.407   1.494   3.596
16434SOL    HW260522   4.570   1.486   3.606
16435SOL     OW60523   3.602   7.258   0.695
16435SOL    HW160524   3.549   7.198   0.754
16435SOL    HW260525   3.556   7.268   0.607
16436SOL     OW60526   7.217   3.721   2.982
16436SOL    HW160527   7.295   3.745   3.041
16436SOL    HW260528   7.147   3.676   3.037
16437SOL     OW60529   1.973   9.160   0.747
16437SOL    HW160530   2.063   9.130   0.714
16437SOL    HW260531   1.979   9.253   0.783
16438SOL     OW60532   3.504   8.423   2.480
16438SOL    HW160533   3.580   8.375   2.435
16438SOL    HW260534   3.438   8.355   2.513
16439SOL     OW60535   5.382   4.347   1.351
16439SOL    HW160536   5.380   4.425   1.413
16439SOL    HW260537   5.289   4.316   1.332
16440SOL     OW60538   0.162   0.975   3.841
16440SOL    HW160539   0.227   1.029   3.894
16440SOL    HW260540   0.086   0.947   3.900
16441SOL     OW60541   8.722   1.530   4.578
16441SOL    HW160542   8.684   1.514   4.669
16441SOL    HW260543   8.738   1.628   4.566
16442SOL     OW60544   2.180   9.114   2.109
16442SOL    HW160545   2.141   9.064   2.187
16442SOL    HW260546   2.279   9.119   2.120
16443SOL     OW60547   2.595   6.431   0.903
16443SOL    HW160548   2.557   6.465   0.818
16443SOL    HW260549   2.526   6.437   0.975
16444SOL     OW60550   1.233   6.024   0.091
16444SOL    HW160551   1.150   5.967   0.090
16444SOL    HW260552   1.311   5.968   0.064
16445SOL     OW60553   0.341   7.797   3.656
16445SOL    HW160554   0.380   7.829   3.570
16445SOL    HW260555   0.246   7.767   3.641
16446SOL     OW60556   7.331   0.019   3.988
16446SOL    HW160557   7.296   9.942   3.934
16446SOL    HW260558   7.332   0.101   3.931
16447SOL     OW60559   8.009   7.947   1.620
16447SOL    HW160560   8.063   8.014   1.671
16447SOL    HW260561   8.004   7.973   1.524
16448SOL     OW60562   1.872   3.047   0.395
16448SOL    HW160563   1.933   2.979   0.436
16448SOL    HW260564   1.925   3.127   0.366
16449SOL     OW60565   5.460   1.776   0.347
16449SOL    HW160566   5.431   1.863   0.308
16449SOL    HW260567   5.555   1.758   0.320
16450SOL     OW60568   4.174   9.763   2.252
16450SOL    HW160569   4.094   9.771   2.311
16450SOL    HW260570   4.207   9.669   2.254
16451SOL     OW60571   6.896   8.286   3.063
16451SOL    HW160572   6.807   8.260   3.101
16451SOL    HW260573   6.897   8.268   2.965
16452SOL     OW60574   7.450   6.114   0.241
16452SOL    HW160575   7.405   6.025   0.232
16452SOL    HW260576   7.442   6.146   0.335
16453SOL     OW60577   1.343   6.089   2.966
16453SOL    HW160578   1.261   6.089   2.908
16453SOL    HW260579   1.316   6.073   3.061
16454SOL     OW60580   8.747   4.676   0.103
16454SOL    HW160581   8.782   4.669   0.010
16454SOL    HW260582   8.670   4.613   0.114
16455SOL     OW60583   1.131   7.795   3.342
16455SOL    HW160584   1.074   7.778   3.263
16455SOL    HW260585   1.119   7.723   3.410
16456SOL     OW60586   1.081   1.784   5.942
16456SOL    HW160587   1.034   1.807   5.857
16456SOL    HW260588   1.113   1.689   5.938
16457SOL     OW60589   1.628   3.517   0.334
16457SOL    HW160590   1.665   3.474   0.416
16457SOL    HW260591   1.677   3.483   0.254
16458SOL     OW60592   8.525   7.002   2.517
16458SOL    HW160593   8.430   6.973   2.517
16458SOL    HW260594   8.532   7.095   2.482
16459SOL     OW60595   8.123   5.140   6.321
16459SOL    HW160596   8.137   5.238   6.305
16459SOL    HW260597   8.045   5.108   6.268
16460SOL     OW60598   2.944   7.662   0.285
16460SOL    HW160599   2.922   7.758   0.297
16460SOL    HW260600   2.884   7.622   0.216
16461SOL     OW60601   6.446   0.553   2.620
16461SOL    HW160602   6.527   0.594   2.661
16461SOL    HW260603   6.471   0.467   2.577
16462SOL     OW60604   5.560   4.865   0.008
16462SOL    HW160605   5.515   4.786   0.049
16462SOL    HW260606   5.592   4.926   0.080
16463SOL     OW60607   5.260   9.349   4.236
16463SOL    HW160608   5.317   9.268   4.251
16463SOL    HW260609   5.173   9.337   4.283
16464SOL     OW60610   0.295   6.199   0.913
16464SOL    HW160611   0.264   6.246   0.831
16464SOL    HW260612   0.224   6.135   0.944
16465SOL     OW60613   2.250   7.275   4.629
16465SOL    HW160614   2.325   7.332   4.596
16465SOL    HW260615   2.285   7.186   4.657
16466SOL     OW60616   2.508   1.610   3.476
16466SOL    HW160617   2.518   1.638   3.380
16466SOL    HW260618   2.484   1.513   3.479
16467SOL     OW60619   2.961   5.821   3.581
16467SOL    HW160620   2.985   5.899   3.639
16467SOL    HW260621   2.883   5.773   3.620
16468SOL     OW60622   0.352   2.182   3.183
16468SOL    HW160623   0.440   2.133   3.182
16468SOL    HW260624   0.293   2.145   3.111
16469SOL     OW60625   2.962   4.842   4.557
16469SOL    HW160626   2.915   4.827   4.643
16469SOL    HW260627   3.061   4.846   4.572
16470SOL     OW60628   2.205   1.114   4.308
16470SOL    HW160629   2.226   1.103   4.405
16470SOL    HW260630   2.130   1.052   4.283
16471SOL     OW60631   7.167   9.795   2.296
16471SOL    HW160632   7.137   9.850   2.374
16471SOL    HW260633   7.189   9.855   2.219
16472SOL     OW60634   3.292   7.830   1.503
16472SOL    HW160635   3.208   7.794   1.543
16472SOL    HW260636   3.356   7.755   1.488
16473SOL     OW60637   0.631   5.099   2.942
16473SOL    HW160638   0.540   5.107   2.984
16473SOL    HW260639   0.685   5.033   2.993
16474SOL     OW60640   1.508   3.148   1.571
16474SOL    HW160641   1.582   3.211   1.546
16474SOL    HW260642   1.546   3.056   1.582
16475SOL     OW60643   0.407   0.910   4.758
16475SOL    HW160644   0.447   1.002   4.761
16475SOL    HW260645   0.455   0.856   4.688
16476SOL     OW60646   9.875   1.581   5.380
16476SOL    HW160647   9.873   1.508   5.447
16476SOL    HW260648   9.898   1.544   5.290
16477SOL     OW60649   9.624   9.999   1.490
16477SOL    HW160650   9.530   9.992   1.524
16477SOL    HW260651   9.685   9.948   1.551
16478SOL     OW60652   8.962   5.405   5.215
16478SOL    HW160653   8.906   5.333   5.255
16478SOL    HW260654   9.015   5.367   5.139
16479SOL     OW60655   6.530   0.550   0.944
16479SOL    HW160656   6.602   0.591   0.999
16479SOL    HW260657   6.569   0.515   0.858
16480SOL     OW60658   2.797   0.890   0.604
16480SOL    HW160659   2.703   0.912   0.630
16480SOL    HW260660   2.800   0.866   0.507
16481SOL     OW60661   8.518   9.383   5.028
16481SOL    HW160662   8.610   9.364   4.993
16481SOL    HW260663   8.458   9.406   4.952
16482SOL     OW60664   2.141   6.696   4.603
16482SOL    HW160665   2.128   6.606   4.644
16482SOL    HW260666   2.103   6.766   4.665
16483SOL     OW60667   3.057   3.628   2.467
16483SOL    HW160668   2.961   3.607   2.449
16483SOL    HW260669   3.067   3.724   2.492
16484SOL     OW60670   3.572   8.132   6.099
16484SOL    HW160671   3.496   8.160   6.158
16484SOL    HW260672   3.536   8.094   6.014
16485SOL     OW60673   1.458   2.244   1.499
16485SOL    HW160674   1.467   2.300   1.417
16485SOL    HW260675   1.547   2.235   1.544
16486SOL     OW60676   1.277   4.375   4.702
16486SOL    HW160677   1.250   4.329   4.618
16486SOL    HW260678   1.331   4.456   4.680
16487SOL     OW60679   9.388   3.686   0.364
16487SOL    HW160680   9.297   3.663   0.399
16487SOL    HW260681   9.378   3.735   0.277
16488SOL     OW60682   1.538   5.726   1.725
16488SOL    HW160683   1.457   5.668   1.713
16488SOL    HW260684   1.605   5.678   1.781
16489SOL     OW60685   4.683   5.374   3.516
16489SOL    HW160686   4.682   5.435   3.437
16489SOL    HW260687   4.681   5.428   3.600
16490SOL     OW60688   1.009   9.133   2.803
16490SOL    HW160689   1.017   9.110   2.706
16490SOL    HW260690   1.013   9.049   2.857
16491SOL     OW60691   6.057   8.822   3.194
16491SOL    HW160692   6.114   8.889   3.146
16491SOL    HW260693   5.975   8.868   3.230
16492SOL     OW60694   7.120   6.871   6.095
16492SOL    HW160695   7.098   6.774   6.089
16492SOL    HW260696   7.168   6.889   6.180
16493SOL     OW60697   3.416   6.246   2.526
16493SOL    HW160698   3.468   6.201   2.453
16493SOL    HW260699   3.332   6.285   2.487
16494SOL     OW60700   2.433   2.654   2.844
16494SOL    HW160701   2.347   2.603   2.844
16494SOL    HW260702   2.508   2.593   2.819
16495SOL     OW60703   0.826   9.505   2.282
16495SOL    HW160704   0.859   9.420   2.242
16495SOL    HW260705   0.729   9.518   2.260
16496SOL     OW60706   1.136   8.898   0.343
16496SOL    HW160707   1.050   8.863   0.306
16496SOL    HW260708   1.138   8.997   0.336
16497SOL     OW60709   8.360   9.471   4.814
16497SOL    HW160710   8.408   9.558   4.804
16497SOL    HW260711   8.354   9.425   4.726
16498SOL     OW60712   0.780   9.367   5.577
16498SOL    HW160713   0.821   9.449   5.617
16498SOL    HW260714   0.847   9.323   5.517
16499SOL     OW60715   4.217   3.518   1.848
16499SOL    HW160716   4.216   3.441   1.912
16499SOL    HW260717   4.124   3.554   1.836
16500SOL     OW60718   1.217   7.216   3.765
16500SOL    HW160719   1.241   7.312   3.775
16500SOL    HW260720   1.275   7.160   3.824
16501SOL     OW60721   2.793   2.218   1.242
16501SOL    HW160722   2.693   2.223   1.236
16501SOL    HW260723   2.829   2.304   1.278
16502SOL     OW60724   6.952   0.218   1.165
16502SOL    HW160725   6.910   0.192   1.078
16502SOL    HW260726   7.052   0.224   1.153
16503SOL     OW60727   4.230   3.571   3.433
16503SOL    HW160728   4.210   3.499   3.499
16503SOL    HW260729   4.208   3.660   3.474
16504SOL     OW60730   1.832   9.495   1.214
16504SOL    HW160731   1.852   9.582   1.170
16504SOL    HW260732   1.806   9.427   1.146
16505SOL     OW60733   7.862   2.914   6.086
16505SOL    HW160734   7.916   2.956   6.013
16505SOL    HW260735   7.765   2.937   6.072
16506SOL     OW60736   8.059   8.577   3.699
16506SOL    HW160737   8.038   8.655   3.758
16506SOL    HW260738   8.107   8.507   3.752
16507SOL     OW60739   9.405   3.326   0.572
16507SOL    HW160740   9.334   3.306   0.506
16507SOL    HW260741   9.489   3.352   0.525
16508SOL     OW60742   8.837   9.802   0.626
16508SOL    HW160743   8.845   9.767   0.719
16508SOL    HW260744   8.905   9.758   0.568
16509SOL     OW60745   6.227   7.429   6.156
16509SOL    HW160746   6.183   7.503   6.206
16509SOL    HW260747   6.159   7.379   6.102
16510SOL     OW60748   2.542   3.171   0.624
16510SOL    HW160749   2.616   3.116   0.664
16510SOL    HW260750   2.487   3.114   0.563
16511SOL     OW60751   3.155   7.686   3.721
16511SOL    HW160752   3.135   7.620   3.648
16511SOL    HW260753   3.072   7.702   3.775
16512SOL     OW60754   1.257   5.502   6.452
16512SOL    HW160755   1.341   5.528   6.499
16512SOL    HW260756   1.186   5.483   6.520
16513SOL     OW60757   8.090   0.069   2.965
16513SOL    HW160758   8.029   0.147   2.950
16513SOL    HW260759   8.104   0.056   3.063
16514SOL     OW60760   4.593   0.927   3.614
16514SOL    HW160761   4.541   0.842   3.602
16514SOL    HW260762   4.627   0.932   3.708
16515SOL     OW60763   7.986   2.286   2.108
16515SOL    HW160764   7.955   2.302   2.014
16515SOL    HW260765   8.011   2.373   2.150
16516SOL     OW60766   3.397   3.492   3.544
16516SOL    HW160767   3.392   3.592   3.545
16516SOL    HW260768   3.337   3.457   3.472
16517SOL     OW60769   3.046   6.934   0.150
16517SOL    HW160770   2.998   7.021   0.162
16517SOL    HW260771   3.026   6.897   0.060
16518SOL     OW60772   9.925   7.211   2.576
16518SOL    HW160773   9.850   7.145   2.588
16518SOL    HW260774   9.901   7.277   2.505
16519SOL     OW60775   6.050   5.259   0.641
16519SOL    HW160776   6.075   5.342   0.591
16519SOL    HW260777   6.105   5.183   0.609
16520SOL     OW60778   8.307   0.797   4.782
16520SOL    HW160779   8.405   0.798   4.758
16520SOL    HW260780   8.254   0.774   4.700
16521SOL     OW60781   1.272   9.207   2.740
16521SOL    HW160782   1.344   9.167   2.797
16521SOL    HW260783   1.185   9.201   2.788
16522SOL     OW60784   9.704   2.472   0.428
16522SOL    HW160785   9.610   2.450   0.453
16522SOL    HW260786   9.762   2.391   0.444
16523SOL     OW60787   6.306   1.586   1.070
16523SOL    HW160788   6.389   1.544   1.033
16523SOL    HW260789   6.314   1.591   1.169
16524SOL     OW60790   9.427   7.276   0.582
16524SOL    HW160791   9.437   7.189   0.631
16524SOL    HW260792   9.330   7.299   0.575
16525SOL     OW60793   0.305   1.069   1.861
16525SOL    HW160794   0.320   1.117   1.948
16525SOL    HW260795   0.374   0.997   1.850
16526SOL     OW60796   1.184   6.943   1.762
16526SOL    HW160797   1.094   6.925   1.802
16526SOL    HW260798   1.172   6.989   1.674
16527SOL     OW60799   3.930   5.046   2.583
16527SOL    HW160800   3.946   5.111   2.509
16527SOL    HW260801   3.990   5.067   2.659
16528SOL     OW60802   1.639   0.234   0.092
16528SOL    HW160803   1.698   0.282   0.157
16528SOL    HW260804   1.575   0.299   0.052
16529SOL     OW60805   7.869   9.065   4.550
16529SOL    HW160806   7.774   9.092   4.565
16529SOL    HW260807   7.884   8.972   4.583
16530SOL     OW60808   1.223   1.090   0.180
16530SOL    HW160809   1.219   1.171   0.239
16530SOL    HW260810   1.261   1.116   0.091
16531SOL     OW60811   8.479   1.223   3.681
16531SOL    HW160812   8.481   1.319   3.652
16531SOL    HW260813   8.459   1.218   3.778
16532SOL     OW60814   3.583   7.643   5.953
16532SOL    HW160815   3.523   7.643   6.033
16532SOL    HW260816   3.670   7.686   5.976
16533SOL     OW60817   1.046   1.689   0.852
16533SOL    HW160818   1.045   1.788   0.869
16533SOL    HW260819   0.983   1.644   0.915
16534SOL     OW60820   3.808   3.730   3.841
16534SOL    HW160821   3.712   3.713   3.818
16534SOL    HW260822   3.822   3.827   3.859
16535SOL     OW60823   7.080   1.900   4.986
16535SOL    HW160824   6.998   1.889   5.043
16535SOL    HW260825   7.079   1.990   4.943
16536SOL     OW60826   8.285   9.734   0.218
16536SOL    HW160827   8.259   9.813   0.273
16536SOL    HW260828   8.238   9.738   0.130
16537SOL     OW60829   0.478   4.616   0.054
16537SOL    HW160830   0.477   4.656   8.151
16537SOL    HW260831   0.562   4.642   0.101
16538SOL     OW60832   0.544   2.933   0.662
16538SOL    HW160833   0.573   2.983   0.743
16538SOL    HW260834   0.462   2.879   0.684
16539SOL     OW60835   4.775   9.401   4.209
16539SOL    HW160836   4.733   9.342   4.279
16539SOL    HW260837   4.766   9.496   4.237
16540SOL     OW60838   1.638   2.998   3.183
16540SOL    HW160839   1.704   3.031   3.251
16540SOL    HW260840   1.545   3.009   3.218
16541SOL     OW60841   2.119   6.249   2.538
16541SOL    HW160842   2.206   6.295   2.517
16541SOL    HW260843   2.052   6.271   2.468
16542SOL     OW60844   0.971   3.911   1.133
16542SOL    HW160845   0.977   3.842   1.205
16542SOL    HW260846   1.041   3.981   1.148
16543SOL     OW60847   3.058   6.054   3.699
16543SOL    HW160848   3.065   6.076   3.797
16543SOL    HW260849   3.148   6.023   3.666
16544SOL     OW60850   7.419   2.581   6.097
16544SOL    HW160851   7.508   2.552   6.061
16544SOL    HW260852   7.432   2.651   6.167
16545SOL     OW60853   4.610   1.404   5.029
16545SOL    HW160854   4.673   1.456   4.971
16545SOL    HW260855   4.595   1.453   5.114
16546SOL     OW60856   9.672   4.266   3.200
16546SOL    HW160857   9.584   4.272   3.153
16546SOL    HW260858   9.746   4.274   3.133
16547SOL     OW60859   0.207   5.616   0.484
16547SOL    HW160860   0.299   5.653   0.473
16547SOL    HW260861   0.202   5.526   0.440
16548SOL     OW60862   4.871   4.213   5.109
16548SOL    HW160863   4.886   4.293   5.168
16548SOL    HW260864   4.914   4.133   5.150
16549SOL     OW60865   0.450   6.761   3.557
16549SOL    HW160866   0.521   6.735   3.491
16549SOL    HW260867   0.376   6.808   3.510
16550SOL     OW60868   6.690   1.783   0.207
16550SOL    HW160869   6.748   1.702   0.201
16550SOL    HW260870   6.735   1.852   0.264
16551SOL     OW60871   2.176   5.453   1.683
16551SOL    HW160872   2.131   5.384   1.740
16551SOL    HW260873   2.117   5.477   1.606
16552SOL     OW60874   3.838   4.901   3.722
16552SOL    HW160875   3.794   4.858   3.644
16552SOL    HW260876   3.847   5.000   3.705
16553SOL     OW60877   2.242   2.358   5.522
16553SOL    HW160878   2.145   2.363   5.499
16553SOL    HW260879   2.256   2.295   5.599
16554SOL     OW60880   1.180   3.429   4.829
16554SOL    HW160881   1.270   3.392   4.804
16554SOL    HW260882   1.192   3.517   4.874
16555SOL     OW60883   1.247   1.836   0.365
16555SOL    HW160884   1.251   1.857   0.267
16555SOL    HW260885   1.200   1.911   0.412
16556SOL     OW60886   2.470   9.412   4.143
16556SOL    HW160887   2.515   9.372   4.063
16556SOL    HW260888   2.371   9.397   4.136
16557SOL     OW60889   7.081   1.498   3.922
16557SOL    HW160890   7.059   1.595   3.912
16557SOL    HW260891   7.007   1.444   3.883
16558SOL     OW60892   0.275   3.258   1.857
16558SOL    HW160893   0.213   3.284   1.784
16558SOL    HW260894   0.279   3.332   1.925
16559SOL     OW60895   7.548   3.852   5.233
16559SOL    HW160896   7.610   3.930   5.228
16559SOL    HW260897   7.577   3.783   5.167
16560SOL     OW60898   4.561   0.922   4.880
16560SOL    HW160899   4.647   0.924   4.829
16560SOL    HW260900   4.559   0.998   4.946
16561SOL     OW60901   9.398   3.057   1.051
16561SOL    HW160902   9.398   3.084   0.955
16561SOL    HW260903   9.492   3.054   1.085
16562SOL     OW60904   8.599   5.622   1.597
16562SOL    HW160905   8.675   5.576   1.645
16562SOL    HW260906   8.513   5.577   1.622
16563SOL     OW60907   0.768   3.254   0.666
16563SOL    HW160908   0.698   3.233   0.735
16563SOL    HW260909   0.771   3.180   0.599
16564SOL     OW60910   3.985   2.962   5.339
16564SOL    HW160911   3.944   3.048   5.371
16564SOL    HW260912   3.980   2.894   5.413
16565SOL     OW60913   3.666   9.340   1.223
16565SOL    HW160914   3.644   9.251   1.183
16565SOL    HW260915   3.594   9.366   1.287
16566SOL     OW60916   2.656   8.255   4.550
16566SOL    HW160917   2.658   8.353   4.569
16566SOL    HW260918   2.744   8.215   4.574
16567SOL     OW60919   7.590   1.678   2.670
16567SOL    HW160920   7.606   1.622   2.751
16567SOL    HW260921   7.536   1.626   2.604
16568SOL     OW60922   0.602   2.229   4.348
16568SOL    HW160923   0.533   2.190   4.287
16568SOL    HW260924   0.560   2.299   4.405
16569SOL     OW60925   2.355   8.905   5.576
16569SOL    HW160926   2.454   8.896   5.584
16569SOL    HW260927   2.312   8.816   5.584
16570SOL     OW60928   7.637   2.617   3.726
16570SOL    HW160929   7.691   2.535   3.743
16570SOL    HW260930   7.697   2.690   3.694
16571SOL     OW60931   0.005   3.021   2.793
16571SOL    HW160932   0.031   2.994   2.886
16571SOL    HW260933   0.048   3.107   2.770
16572SOL     OW60934   4.319   4.879   2.901
16572SOL    HW160935   4.262   4.808   2.859
16572SOL    HW260936   4.394   4.835   2.951
16573SOL     OW60937   6.671   7.919   3.559
16573SOL    HW160938   6.686   7.976   3.639
16573SOL    HW260939   6.697   7.970   3.477
16574SOL     OW60940   9.811   5.143   4.229
16574SOL    HW160941   9.783   5.237   4.246
16574SOL    HW260942   9.910   5.136   4.236
16575SOL     OW60943   6.187   9.033   3.040
16575SOL    HW160944   6.247   9.103   3.079
16575SOL    HW260945   6.094   9.070   3.030
16576SOL     OW60946   9.969   6.170   6.112
16576SOL    HW160947   9.911   6.136   6.185
16576SOL    HW260948   9.993   6.095   6.050
16577SOL     OW60949   6.533   8.389   2.811
16577SOL    HW160950   6.497   8.296   2.797
16577SOL    HW260951   6.477   8.454   2.760
16578SOL     OW60952   3.787   4.807   4.161
16578SOL    HW160953   3.795   4.886   4.222
16578SOL    HW260954   3.743   4.732   4.209
16579SOL     OW60955   5.650   9.560   4.700
16579SOL    HW160956   5.643   9.461   4.689
16579SOL    HW260957   5.583   9.606   4.641
16580SOL     OW60958   0.511   2.691   1.009
16580SOL    HW160959   0.589   2.746   1.039
16580SOL    HW260960   0.515   2.601   1.052
16581SOL     OW60961   2.689   1.969   6.391
16581SOL    HW160962   2.716   1.873   6.398
16581SOL    HW260963   2.737   2.022   6.461
16582SOL     OW60964   2.059   9.693   2.376
16582SOL    HW160965   2.090   9.787   2.388
16582SOL    HW260966   2.102   9.654   2.294
16583SOL     OW60967   2.312   8.141   5.256
16583SOL    HW160968   2.228   8.149   5.310
16583SOL    HW260969   2.293   8.166   5.161
16584SOL     OW60970   1.420   0.658   0.204
16584SOL    HW160971   1.517   0.641   0.188
16584SOL    HW260972   1.379   0.580   0.251
16585SOL     OW60973   7.251   4.938   0.530
16585SOL    HW160974   7.152   4.937   0.519
16585SOL    HW260975   7.274   4.957   0.625
16586SOL     OW60976   6.800   0.621   4.136
16586SOL    HW160977   6.900   0.632   4.137
16586SOL    HW260978   6.778   0.524   4.126
16587SOL     OW60979   0.205   7.097   5.858
16587SOL    HW160980   0.153   7.152   5.793
16587SOL    HW260981   0.183   7.001   5.845
16588SOL     OW60982   9.392   1.238   4.312
16588SOL    HW160983   9.399   1.186   4.226
16588SOL    HW260984   9.338   1.186   4.378
16589SOL     OW60985   2.782   8.987   0.301
16589SOL    HW160986   2.857   8.960   0.362
16589SOL    HW260987   2.736   9.068   0.338
16590SOL     OW60988   7.420   4.717   1.347
16590SOL    HW160989   7.479   4.746   1.272
16590SOL    HW260990   7.392   4.796   1.401
16591SOL     OW60991   9.065   0.234   2.303
16591SOL    HW160992   9.138   0.230   2.371
16591SOL    HW260993   8.981   0.269   2.346
16592SOL     OW60994   5.286   9.443   2.887
16592SOL    HW160995   5.255   9.502   2.812
16592SOL    HW260996   5.217   9.373   2.905
16593SOL     OW60997   7.407   2.477   0.140
16593SOL    HW160998   7.426   2.524   0.227
16593SOL    HW260999   7.411   2.378   0.154
16594SOL     OW61000   3.824   2.145   0.361
16594SOL    HW161001   3.885   2.219   0.390
16594SOL    HW261002   3.834   2.067   0.422
16595SOL     OW61003   1.273   4.537   0.995
16595SOL    HW161004   1.351   4.483   1.025
16595SOL    HW261005   1.246   4.509   0.903
16596SOL     OW61006   2.667   6.556   3.293
16596SOL    HW161007   2.736   6.547   3.364
16596SOL    HW261008   2.643   6.652   3.281
16597SOL     OW61009   1.936   9.967   2.014
16597SOL    HW161010   1.916   0.027   1.936
16597SOL    HW261011   1.928   0.019   2.099
16598SOL     OW61012   5.026   5.204   1.629
16598SOL    HW161013   5.114   5.238   1.660
16598SOL    HW261014   4.983   5.270   1.568
16599SOL     OW61015   0.798   7.290   3.231
16599SOL    HW161016   0.702   7.299   3.205
16599SOL    HW261017   0.850   7.253   3.155
16600SOL     OW61018   1.239   5.475   2.098
16600SOL    HW161019   1.204   5.529   2.021
16600SOL    HW261020   1.325   5.514   2.130
16601SOL     OW61021   1.624   2.810   2.291
16601SOL    HW161022   1.544   2.870   2.296
16601SOL    HW261023   1.614   2.736   2.357
16602SOL     OW61024   1.322   0.156   1.585
16602SOL    HW161025   1.408   0.190   1.621
16602SOL    HW261026   1.333   0.062   1.554
16603SOL     OW61027   1.416   7.912   1.359
16603SOL    HW161028   1.328   7.868   1.378
16603SOL    HW261029   1.440   7.973   1.434
16604SOL     OW61030   3.240   5.877   5.147
16604SOL    HW161031   3.327   5.905   5.187
16604SOL    HW261032   3.224   5.928   5.062
16605SOL     OW61033   9.011   9.166   4.677
16605SOL    HW161034   8.918   9.129   4.679
16605SOL    HW261035   9.007   9.264   4.658
16606SOL     OW61036   5.860   0.021   4.130
16606SOL    HW161037   5.923   9.943   4.127
16606SOL    HW261038   5.872   0.069   4.217
16607SOL     OW61039   7.945   1.420   1.063
16607SOL    HW161040   7.974   1.484   1.135
16607SOL    HW261041   7.974   1.327   1.087
16608SOL     OW61042   7.848   2.326   0.557
16608SOL    HW161043   7.830   2.258   0.629
16608SOL    HW261044   7.763   2.374   0.534
16609SOL     OW61045   5.690   7.620   4.302
16609SOL    HW161046   5.667   7.586   4.211
16609SOL    HW261047   5.764   7.686   4.295
16610SOL     OW61048   5.557   2.733   0.609
16610SOL    HW161049   5.591   2.760   0.518
16610SOL    HW261050   5.557   2.634   0.617
16611SOL     OW61051   2.179   3.428   6.310
16611SOL    HW161052   2.246   3.394   6.376
16611SOL    HW261053   2.176   3.368   6.231
16612SOL     OW61054   8.183   0.067   4.243
16612SOL    HW161055   8.192   0.145   4.304
16612SOL    HW261056   8.271   0.049   4.198
16613SOL     OW61057   3.462   5.081   0.542
16613SOL    HW161058   3.408   5.040   0.616
16613SOL    HW261059   3.430   5.174   0.525
16614SOL     OW61060   9.299   6.130   1.552
16614SOL    HW161061   9.328   6.145   1.457
16614SOL    HW261062   9.379   6.125   1.611
16615SOL     OW61063   8.570   7.065   0.709
16615SOL    HW161064   8.658   7.097   0.745
16615SOL    HW261065   8.559   7.097   0.615
16616SOL     OW61066   2.487   7.162   5.928
16616SOL    HW161067   2.576   7.151   5.973
16616SOL    HW261068   2.502   7.176   5.830
16617SOL     OW61069   7.631   1.817   2.235
16617SOL    HW161070   7.616   1.888   2.304
16617SOL    HW261071   7.710   1.761   2.262
16618SOL     OW61072   6.937   7.053   6.004
16618SOL    HW161073   6.998   6.985   6.045
16618SOL    HW261074   6.848   7.011   5.984
16619SOL     OW61075   8.094   3.278   0.169
16619SOL    HW161076   8.122   3.203   0.229
16619SOL    HW261077   7.994   3.280   0.164
16620SOL     OW61078   9.461   5.565   0.202
16620SOL    HW161079   9.472   5.646   0.144
16620SOL    HW261080   9.399   5.586   0.278
16621SOL     OW61081   3.766   5.690   3.356
16621SOL    HW161082   3.761   5.606   3.410
16621SOL    HW261083   3.744   5.670   3.261
16622SOL     OW61084   0.828   5.043   1.383
16622SOL    HW161085   0.876   5.112   1.437
16622SOL    HW261086   0.784   5.086   1.305
16623SOL     OW61087   8.466   0.404   0.291
16623SOL    HW161088   8.561   0.428   0.269
16623SOL    HW261089   8.455   0.305   0.287
16624SOL     OW61090   1.809   9.119   2.993
16624SOL    HW161091   1.803   9.213   3.027
16624SOL    HW261092   1.781   9.116   2.897
16625SOL     OW61093   0.640   6.904   0.439
16625SOL    HW161094   0.585   6.902   0.356
16625SOL    HW261095   0.731   6.867   0.420
16626SOL     OW61096   9.187   6.251   0.959
16626SOL    HW161097   9.137   6.328   0.919
16626SOL    HW261098   9.286   6.266   0.946
16627SOL     OW61099   2.274   7.857   5.247
16627SOL    HW161100   2.227   7.849   5.335
16627SOL    HW261101   2.309   7.950   5.237
16628SOL     OW61102   1.033   9.773   6.153
16628SOL    HW161103   1.082   9.737   6.073
16628SOL    HW261104   1.081   9.746   6.236
16629SOL     OW61105   9.202   6.147   0.322
16629SOL    HW161106   9.207   6.187   0.230
16629SOL    HW261107   9.165   6.054   0.316
16630SOL     OW61108   0.496   1.728   2.859
16630SOL    HW161109   0.593   1.748   2.847
16630SOL    HW261110   0.472   1.736   2.955
16631SOL     OW61111   1.126   3.420   5.922
16631SOL    HW161112   1.039   3.426   5.971
16631SOL    HW261113   1.200   3.400   5.987
16632SOL     OW61114   8.085   7.755   4.748
16632SOL    HW161115   8.131   7.748   4.836
16632SOL    HW261116   8.149   7.730   4.675
16633SOL     OW61117   1.668   0.095   4.791
16633SOL    HW161118   1.572   0.078   4.769
16633SOL    HW261119   1.689   0.055   4.879
16634SOL     OW61120   8.868   0.995   2.053
16634SOL    HW161121   8.924   1.027   1.977
16634SOL    HW261122   8.851   1.071   2.116
16635SOL     OW61123   4.613   4.137   5.046
16635SOL    HW161124   4.565   4.116   5.131
16635SOL    HW261125   4.710   4.155   5.066
16636SOL     OW61126   2.858   5.141   1.241
16636SOL    HW161127   2.930   5.074   1.228
16636SOL    HW261128   2.771   5.095   1.258
16637SOL     OW61129   7.252   3.111   6.228
16637SOL    HW161130   7.239   3.018   6.263
16637SOL    HW261131   7.164   3.157   6.222
16638SOL     OW61132   2.425   5.612   2.292
16638SOL    HW161133   2.456   5.517   2.298
16638SOL    HW261134   2.346   5.617   2.231
16639SOL     OW61135   2.388   9.508   5.093
16639SOL    HW161136   2.294   9.542   5.102
16639SOL    HW261137   2.400   9.466   5.003
16640SOL     OW61138   7.261   9.255   4.434
16640SOL    HW161139   7.236   9.290   4.344
16640SOL    HW261140   7.179   9.245   4.491
16641SOL     OW61141   1.238   5.326   5.093
16641SOL    HW161142   1.197   5.259   5.155
16641SOL    HW261143   1.337   5.324   5.103
16642SOL     OW61144   8.379   2.735   1.836
16642SOL    HW161145   8.282   2.717   1.854
16642SOL    HW261146   8.392   2.752   1.738
16643SOL     OW61147   9.891   4.340   4.079
16643SOL    HW161148   9.808   4.324   4.133
16643SOL    HW261149   9.954   4.397   4.131
16644SOL     OW61150   9.903   5.995   2.336
16644SOL    HW161151   9.813   5.957   2.315
16644SOL    HW261152   9.974   5.940   2.292
16645SOL     OW61153   0.914   1.953   4.480
16645SOL    HW161154   0.957   1.892   4.413
16645SOL    HW261155   0.937   1.922   4.573
16646SOL     OW61156   1.751   5.496   4.093
16646SOL    HW161157   1.710   5.542   4.014
16646SOL    HW261158   1.693   5.419   4.120
16647SOL     OW61159   5.023   1.191   0.128
16647SOL    HW161160   4.997   1.258   0.199
16647SOL    HW261161   5.084   1.235   0.062
16648SOL     OW61162   1.891   5.586   0.596
16648SOL    HW161163   1.911   5.603   0.499
16648SOL    HW261164   1.792   5.587   0.609
16649SOL     OW61165   9.579   9.620   4.541
16649SOL    HW161166   9.530   9.589   4.622
16649SOL    HW261167   9.547   9.569   4.461
16650SOL     OW61168   4.827   8.173   1.805
16650SOL    HW161169   4.824   8.270   1.782
16650SOL    HW261170   4.880   8.124   1.736
16651SOL     OW61171   9.496   1.214   5.725
16651SOL    HW161172   9.418   1.185   5.781
16651SOL    HW261173   9.477   1.193   5.629
16652SOL     OW61174   1.604   0.453   4.300
16652SOL    HW161175   1.693   0.497   4.316
16652SOL    HW261176   1.614   0.354   4.304
16653SOL     OW61177   5.958   1.857   5.015
16653SOL    HW161178   5.871   1.814   5.041
16653SOL    HW261179   6.025   1.786   4.993
16654SOL     OW61180   7.709   1.836   5.140
16654SOL    HW161181   7.652   1.857   5.061
16654SOL    HW261182   7.691   1.903   5.213
16655SOL     OW61183   9.395   7.984   0.346
16655SOL    HW161184   9.447   7.963   0.263
16655SOL    HW261185   9.425   8.072   0.383
16656SOL     OW61186   4.381   2.227   2.076
16656SOL    HW161187   4.366   2.128   2.068
16656SOL    HW261188   4.299   2.270   2.114
16657SOL     OW61189   9.072   6.549   1.974
16657SOL    HW161190   9.065   6.466   2.029
16657SOL    HW261191   9.024   6.536   1.888
16658SOL     OW61192   0.762   1.047   5.779
16658SOL    HW161193   0.815   1.109   5.720
16658SOL    HW261194   0.803   0.956   5.777
16659SOL     OW61195   2.310   1.814   2.188
16659SOL    HW161196   2.376   1.858   2.248
16659SOL    HW261197   2.303   1.717   2.212
16660SOL     OW61198   2.595   4.257   6.043
16660SOL    HW161199   2.679   4.206   6.025
16660SOL    HW261200   2.557   4.228   6.131
16661SOL     OW61201   5.712   3.655   0.593
16661SOL    HW161202   5.649   3.592   0.548
16661SOL    HW261203   5.665   3.703   0.666
16662SOL     OW61204   0.729   1.925   1.492
16662SOL    HW161205   0.783   1.952   1.572
16662SOL    HW261206   0.713   1.826   1.494
16663SOL     OW61207   9.219   9.858   3.741
16663SOL    HW161208   9.175   9.938   3.700
16663SOL    HW261209   9.314   9.852   3.710
16664SOL     OW61210   8.308   7.433   2.236
16664SOL    HW161211   8.320   7.426   2.335
16664SOL    HW261212   8.257   7.353   2.203
16665SOL     OW61213   3.620   7.022   5.898
16665SOL    HW161214   3.690   6.950   5.895
16665SOL    HW261215   3.536   6.986   5.938
16666SOL     OW61216   4.074   5.994   0.331
16666SOL    HW161217   4.124   5.923   0.380
16666SOL    HW261218   4.008   5.951   0.269
16667SOL     OW61219   2.976   9.333   4.773
16667SOL    HW161220   3.052   9.372   4.825
16667SOL    HW261221   2.994   9.341   4.675
16668SOL     OW61222   8.529   4.051   2.670
16668SOL    HW161223   8.546   3.972   2.728
16668SOL    HW261224   8.457   4.108   2.710
16669SOL     OW61225   6.605   0.807   4.758
16669SOL    HW161226   6.518   0.852   4.736
16669SOL    HW261227   6.646   0.770   4.675
16670SOL     OW61228   7.022   5.561   0.631
16670SOL    HW161229   7.005   5.465   0.606
16670SOL    HW261230   7.044   5.613   0.548
16671SOL     OW61231   6.575   0.336   4.443
16671SOL    HW161232   6.535   0.281   4.517
16671SOL    HW261233   6.554   0.293   4.355
16672SOL     OW61234   3.084   5.554   4.896
16672SOL    HW161235   3.087   5.469   4.843
16672SOL    HW261236   3.031   5.623   4.847
16673SOL     OW61237   2.057   9.309   2.944
16673SOL    HW161238   1.969   9.337   2.982
16673SOL    HW261239   2.040   9.248   2.866
16674SOL     OW61240   8.171   4.471   1.200
16674SOL    HW161241   8.115   4.553   1.210
16674SOL    HW261242   8.115   4.397   1.161
16675SOL     OW61243   4.345   5.024   2.671
16675SOL    HW161244   4.355   4.980   2.760
16675SOL    HW261245   4.429   5.071   2.648
16676SOL     OW61246   2.699   5.753   4.370
16676SOL    HW161247   2.635   5.805   4.313
16676SOL    HW261248   2.726   5.669   4.323
16677SOL     OW61249   2.479   8.654   2.390
16677SOL    HW161250   2.495   8.657   2.291
16677SOL    HW261251   2.411   8.584   2.411
16678SOL     OW61252   5.938   9.846   3.050
16678SOL    HW161253   5.929   9.927   2.992
16678SOL    HW261254   5.998   9.780   3.005
16679SOL     OW61255   2.165   0.964   0.827
16679SOL    HW161256   2.189   1.003   0.916
16679SOL    HW261257   2.203   1.020   0.754
16680SOL     OW61258   9.775   8.951   1.876
16680SOL    HW161259   9.787   8.856   1.847
16680SOL    HW261260   9.831   9.011   1.819
16681SOL     OW61261   1.429   3.465   1.099
16681SOL    HW161262   1.362   3.414   1.153
16681SOL    HW261263   1.460   3.410   1.021
16682SOL     OW61264   0.154   1.455   4.773
16682SOL    HW161265   0.180   1.371   4.726
16682SOL    HW261266   0.230   1.485   4.831
16683SOL     OW61267   1.726   5.249   2.977
16683SOL    HW161268   1.776   5.310   2.917
16683SOL    HW261269   1.731   5.283   3.071
16684SOL     OW61270   6.210   9.884   5.357
16684SOL    HW161271   6.238   9.789   5.347
16684SOL    HW261272   6.265   9.928   5.427
16685SOL     OW61273   6.239   8.970   4.136
16685SOL    HW161274   6.258   8.906   4.211
16685SOL    HW261275   6.182   8.924   4.067
16686SOL     OW61276   6.647   1.823   2.533
16686SOL    HW161277   6.719   1.791   2.595
16686SOL    HW261278   6.664   1.786   2.441
16687SOL     OW61279   5.908   1.039   5.570
16687SOL    HW161280   5.876   1.134   5.568
16687SOL    HW261281   5.853   0.987   5.637
16688SOL     OW61282   0.509   2.110   5.568
16688SOL    HW161283   0.495   2.187   5.630
16688SOL    HW261284   0.585   2.131   5.506
16689SOL     OW61285   9.080   0.619   2.329
16689SOL    HW161286   9.165   0.666   2.354
16689SOL    HW261287   9.099   0.555   2.255
16690SOL     OW61288   1.274   3.837   2.370
16690SOL    HW161289   1.249   3.918   2.423
16690SOL    HW261290   1.369   3.814   2.388
16691SOL     OW61291   6.449   1.216   1.994
16691SOL    HW161292   6.394   1.195   2.075
16691SOL    HW261293   6.546   1.208   2.018
16692SOL     OW61294   6.864   1.397   2.394
16692SOL    HW161295   6.864   1.410   2.295
16692SOL    HW261296   6.770   1.401   2.428
16693SOL     OW61297   0.447   9.021   1.823
16693SOL    HW161298   0.479   9.089   1.756
16693SOL    HW261299   0.525   8.983   1.872
16694SOL     OW61300   8.169   9.542   3.111
16694SOL    HW161301   8.136   9.616   3.051
16694SOL    HW261302   8.194   9.580   3.200
16695SOL     OW61303   9.015   2.743   0.410
16695SOL    HW161304   9.092   2.681   0.426
16695SOL    HW261305   8.993   2.792   0.494
16696SOL     OW61306   0.141   8.643   3.541
16696SOL    HW161307   0.238   8.621   3.536
16696SOL    HW261308   0.117   8.666   3.635
16697SOL     OW61309   2.577   6.339   4.255
16697SOL    HW161310   2.563   6.437   4.270
16697SOL    HW261311   2.674   6.317   4.268
16698SOL     OW61312   4.600   1.102   0.179
16698SOL    HW161313   4.605   1.191   0.224
16698SOL    HW261314   4.691   1.059   0.182
16699SOL     OW61315   4.874   0.384   3.143
16699SOL    HW161316   4.856   0.481   3.153
16699SOL    HW261317   4.789   0.332   3.159
16700SOL     OW61318   1.217   8.072   4.730
16700SOL    HW161319   1.191   8.116   4.816
16700SOL    HW261320   1.147   8.006   4.704
16701SOL     OW61321   7.761   9.384   2.402
16701SOL    HW161322   7.807   9.296   2.392
16701SOL    HW261323   7.719   9.410   2.314
16702SOL     OW61324   7.884   2.751   4.067
16702SOL    HW161325   7.822   2.818   4.026
16702SOL    HW261326   7.833   2.667   4.088
16703SOL     OW61327   1.177   8.248   2.618
16703SOL    HW161328   1.269   8.266   2.584
16703SOL    HW261329   1.130   8.336   2.633
16704SOL     OW61330   1.968   6.611   2.949
16704SOL    HW161331   1.971   6.691   2.888
16704SOL    HW261332   1.984   6.528   2.896
16705SOL     OW61333   4.183   0.766   5.114
16705SOL    HW161334   4.114   0.757   5.042
16705SOL    HW261335   4.156   0.839   5.176
16706SOL     OW61336   6.786   8.261   3.555
16706SOL    HW161337   6.722   8.337   3.559
16706SOL    HW261338   6.772   8.201   3.634
16707SOL     OW61339   2.721   7.277   1.529
16707SOL    HW161340   2.647   7.291   1.464
16707SOL    HW261341   2.709   7.338   1.608
16708SOL     OW61342   0.445   7.203   1.345
16708SOL    HW161343   0.460   7.302   1.351
16708SOL    HW261344   0.399   7.181   1.259
16709SOL     OW61345   9.294   2.560   5.380
16709SOL    HW161346   9.212   2.523   5.335
16709SOL    HW261347   9.266   2.617   5.457
16710SOL     OW61348   4.436   9.457   5.319
16710SOL    HW161349   4.469   9.505   5.238
16710SOL    HW261350   4.508   9.458   5.389
16711SOL     OW61351   3.563   9.986   5.961
16711SOL    HW161352   3.522   9.898   5.937
16711SOL    HW261353   3.510   0.060   5.919
16712SOL     OW61354   9.965   7.189   4.432
16712SOL    HW161355   9.870   7.161   4.445
16712SOL    HW261356   9.972   7.288   4.443
16713SOL     OW61357   0.657   9.199   1.985
16713SOL    HW161358   0.668   9.100   1.978
16713SOL    HW261359   0.745   9.244   1.966
16714SOL     OW61360   3.524   1.393   2.641
16714SOL    HW161361   3.571   1.309   2.670
16714SOL    HW261362   3.590   1.457   2.603
16715SOL     OW61363   4.378   2.892   6.372
16715SOL    HW161364   4.399   2.924   6.279
16715SOL    HW261365   4.368   2.971   6.433
16716SOL     OW61366   2.884   0.639   3.276
16716SOL    HW161367   2.969   0.678   3.243
16716SOL    HW261368   2.903   0.550   3.319
16717SOL     OW61369   1.497   1.921   5.306
16717SOL    HW161370   1.416   1.961   5.350
16717SOL    HW261371   1.549   1.869   5.374
16718SOL     OW61372   8.335   7.464   5.002
16718SOL    HW161373   8.266   7.475   5.073
16718SOL    HW261374   8.366   7.369   5.000
16719SOL     OW61375   2.977   4.093   1.136
16719SOL    HW161376   2.926   4.016   1.097
16719SOL    HW261377   3.075   4.077   1.127
16720SOL     OW61378   9.819   5.991   1.075
16720SOL    HW161379   9.756   5.914   1.068
16720SOL    HW261380   9.790   6.052   1.149
16721SOL     OW61381   9.438   5.430   3.961
16721SOL    HW161382   9.523   5.424   3.910
16721SOL    HW261383   9.395   5.340   3.967
16722SOL     OW61384   0.251   7.598   0.220
16722SOL    HW161385   0.208   7.520   0.175
16722SOL    HW261386   0.199   7.681   0.201
16723SOL     OW61387   0.811   7.552   4.153
16723SOL    HW161388   0.736   7.496   4.190
16723SOL    HW261389   0.890   7.545   4.215
16724SOL     OW61390   4.211   2.049   4.076
16724SOL    HW161391   4.138   2.117   4.067
16724SOL    HW261392   4.174   1.967   4.120
16725SOL     OW61393   0.452   2.711   3.153
16725SOL    HW161394   0.387   2.674   3.087
16725SOL    HW261395   0.406   2.781   3.209
16726SOL     OW61396   9.173   0.686   1.209
16726SOL    HW161397   9.116   0.637   1.144
16726SOL    HW261398   9.211   0.621   1.275
16727SOL     OW61399   3.685   4.388   3.665
16727SOL    HW161400   3.720   4.446   3.738
16727SOL    HW261401   3.637   4.445   3.598
16728SOL     OW61402   3.085   3.893   2.514
16728SOL    HW161403   3.166   3.953   2.508
16728SOL    HW261404   3.003   3.948   2.503
16729SOL     OW61405   9.736   2.919   6.336
16729SOL    HW161406   9.834   2.936   6.346
16729SOL    HW261407   9.689   2.945   6.420
16730SOL     OW61408   2.676   1.964   3.659
16730SOL    HW161409   2.643   1.957   3.565
16730SOL    HW261410   2.598   1.969   3.722
16731SOL     OW61411   7.630   4.684   0.945
16731SOL    HW161412   7.598   4.732   0.864
16731SOL    HW261413   7.616   4.741   1.026
16732SOL     OW61414   7.922   0.316   3.986
16732SOL    HW161415   7.947   0.313   3.890
16732SOL    HW261416   7.940   0.227   4.028
16733SOL     OW61417   4.017   9.051   2.845
16733SOL    HW161418   4.071   9.094   2.918
16733SOL    HW261419   3.923   9.085   2.850
16734SOL     OW61420   2.272   8.289   5.723
16734SOL    HW161421   2.270   8.338   5.636
16734SOL    HW261422   2.210   8.334   5.787
16735SOL     OW61423   8.385   5.131   1.684
16735SOL    HW161424   8.363   5.183   1.602
16735SOL    HW261425   8.450   5.058   1.660
16736SOL     OW61426   0.960   0.200   3.272
16736SOL    HW161427   0.995   0.243   3.356
16736SOL    HW261428   0.927   0.272   3.210
16737SOL     OW61429   1.836   1.025   1.065
16737SOL    HW161430   1.816   1.102   1.005
16737SOL    HW261431   1.864   0.946   1.010
16738SOL     OW61432   0.097   8.193   3.101
16738SOL    HW161433   0.007   8.189   3.057
16738SOL    HW261434   0.153   8.116   3.070
16739SOL     OW61435   1.617   2.127   5.666
16739SOL    HW161436   1.518   2.128   5.658
16739SOL    HW261437   1.648   2.037   5.696
16740SOL     OW61438   1.564   1.825   3.453
16740SOL    HW161439   1.658   1.798   3.473
16740SOL    HW261440   1.510   1.744   3.430
16741SOL     OW61441   0.102   2.844   3.844
16741SOL    HW161442   0.133   2.921   3.898
16741SOL    HW261443   0.059   2.877   3.760
16742SOL     OW61444   0.699   1.542   0.383
16742SOL    HW161445   0.701   1.446   0.355
16742SOL    HW261446   0.684   1.600   0.303
16743SOL     OW61447   9.286   7.667   1.045
16743SOL    HW161448   9.198   7.707   1.022
16743SOL    HW261449   9.315   7.606   0.971
16744SOL     OW61450   8.644   7.543   0.886
16744SOL    HW161451   8.657   7.595   0.802
16744SOL    HW261452   8.580   7.467   0.869
16745SOL     OW61453   9.242   7.759   4.046
16745SOL    HW161454   9.340   7.743   4.046
16745SOL    HW261455   9.222   7.848   4.004
16746SOL     OW61456   9.907   2.135   5.970
16746SOL    HW161457   9.980   2.081   5.929
16746SOL    HW261458   9.943   2.188   6.047
16747SOL     OW61459   5.033   9.821   6.117
16747SOL    HW161460   5.106   9.859   6.060
16747SOL    HW261461   4.954   9.799   6.060
16748SOL     OW61462   1.627   6.611   0.979
16748SOL    HW161463   1.722   6.584   0.962
16748SOL    HW261464   1.569   6.577   0.906
16749SOL     OW61465   2.205   6.776   3.819
16749SOL    HW161466   2.182   6.873   3.827
16749SOL    HW261467   2.136   6.730   3.764
16750SOL     OW61468   9.189   2.703   5.595
16750SOL    HW161469   9.263   2.693   5.662
16750SOL    HW261470   9.103   2.676   5.637
16751SOL     OW61471   3.163   2.575   4.619
16751SOL    HW161472   3.125   2.513   4.550
16751SOL    HW261473   3.111   2.660   4.620
16752SOL     OW61474   8.118   6.400   3.593
16752SOL    HW161475   8.147   6.493   3.568
16752SOL    HW261476   8.106   6.395   3.692
16753SOL     OW61477   0.654   2.678   4.331
16753SOL    HW161478   0.657   2.683   4.231
16753SOL    HW261479   0.627   2.586   4.358
16754SOL     OW61480   9.073   5.031   0.634
16754SOL    HW161481   9.075   5.052   0.732
16754SOL    HW261482   9.117   4.942   0.619
16755SOL     OW61483   1.536   8.247   3.007
16755SOL    HW161484   1.506   8.244   3.102
16755SOL    HW261485   1.457   8.232   2.947
16756SOL     OW61486   2.193   0.155   0.560
16756SOL    HW161487   2.167   0.104   0.478
16756SOL    HW261488   2.189   0.253   0.541
16757SOL     OW61489   4.183   4.453   4.601
16757SOL    HW161490   4.110   4.385   4.600
16757SOL    HW261491   4.253   4.427   4.667
16758SOL     OW61492   2.971   9.314   5.833
16758SOL    HW161493   3.043   9.244   5.844
16758SOL    HW261494   2.881   9.271   5.843
16759SOL     OW61495   9.337   4.022   5.755
16759SOL    HW161496   9.270   4.090   5.784
16759SOL    HW261497   9.350   4.028   5.656
16760SOL     OW61498   1.096   3.542   3.383
16760SOL    HW161499   1.153   3.548   3.300
16760SOL    HW261500   1.150   3.572   3.462
16761SOL     OW61501   0.172   9.084   2.052
16761SOL    HW161502   0.084   9.050   2.089
16761SOL    HW261503   0.184   9.049   1.959
16762SOL     OW61504   9.813   0.135   1.345
16762SOL    HW161505   9.819   0.108   1.249
16762SOL    HW261506   9.744   0.079   1.392
16763SOL     OW61507   1.439   9.850   0.159
16763SOL    HW161508   1.381   9.931   0.156
16763SOL    HW261509   1.457   9.825   0.254
16764SOL     OW61510   9.572   8.072   5.026
16764SOL    HW161511   9.552   8.079   4.929
16764SOL    HW261512   9.530   8.148   5.075
16765SOL     OW61513   8.548   3.656   2.287
16765SOL    HW161514   8.488   3.735   2.278
16765SOL    HW261515   8.583   3.630   2.197
16766SOL     OW61516   1.482   2.377   1.257
16766SOL    HW161517   1.495   2.288   1.213
16766SOL    HW261518   1.405   2.424   1.214
16767SOL     OW61519   2.985   2.368   6.410
16767SOL    HW161520   2.954   2.348   6.317
16767SOL    HW261521   2.980   2.466   6.427
16768SOL     OW61522   0.754   1.232   0.560
16768SOL    HW161523   0.747   1.247   0.461
16768SOL    HW261524   0.835   1.279   0.595
16769SOL     OW61525   8.378   1.665   0.411
16769SOL    HW161526   8.329   1.722   0.477
16769SOL    HW261527   8.447   1.610   0.458
16770SOL     OW61528   3.009   9.085   2.165
16770SOL    HW161529   3.003   9.165   2.105
16770SOL    HW261530   2.968   9.107   2.254
16771SOL     OW61531   0.837   0.884   4.312
16771SOL    HW161532   0.830   0.922   4.404
16771SOL    HW261533   0.931   0.856   4.295
16772SOL     OW61534   9.596   7.605   0.151
16772SOL    HW161535   9.512   7.620   0.099
16772SOL    HW261536   9.643   7.524   0.117
16773SOL     OW61537   9.574   6.640   1.114
16773SOL    HW161538   9.545   6.718   1.169
16773SOL    HW261539   9.672   6.647   1.094
16774SOL     OW61540   8.052   6.133   4.556
16774SOL    HW161541   8.091   6.069   4.490
16774SOL    HW261542   7.957   6.153   4.532
16775SOL     OW61543   5.735   5.955   1.374
16775SOL    HW161544   5.762   6.039   1.420
16775SOL    HW261545   5.736   5.969   1.275
16776SOL     OW61546   2.749   4.858   2.803
16776SOL    HW161547   2.697   4.894   2.880
16776SOL    HW261548   2.687   4.836   2.728
16777SOL     OW61549   7.017   9.599   4.793
16777SOL    HW161550   6.965   9.553   4.865
16777SOL    HW261551   6.980   9.573   4.703
16778SOL     OW61552   8.714   5.223   6.124
16778SOL    HW161553   8.624   5.201   6.088
16778SOL    HW261554   8.731   5.321   6.112
16779SOL     OW61555   3.876   6.363   1.201
16779SOL    HW161556   3.812   6.313   1.260
16779SOL    HW261557   3.869   6.461   1.219
16780SOL     OW61558   8.435   3.061   0.549
16780SOL    HW161559   8.488   2.991   0.501
16780SOL    HW261560   8.432   3.144   0.494
16781SOL     OW61561   0.782   5.221   0.652
16781SOL    HW161562   0.703   5.281   0.640
16781SOL    HW261563   0.841   5.258   0.724
16782SOL     OW61564   9.720   5.652   3.620
16782SOL    HW161565   9.665   5.694   3.547
16782SOL    HW261566   9.789   5.592   3.579
16783SOL     OW61567   2.957   2.900   3.289
16783SOL    HW161568   3.012   2.960   3.347
16783SOL    HW261569   2.981   2.805   3.306
16784SOL     OW61570   7.667   1.516   0.311
16784SOL    HW161571   7.656   1.612   0.282
16784SOL    HW261572   7.577   1.479   0.336
16785SOL     OW61573   1.686   5.775   6.184
16785SOL    HW161574   1.777   5.811   6.205
16785SOL    HW261575   1.681   5.679   6.214
16786SOL     OW61576   7.529   0.494   3.758
16786SOL    HW161577   7.574   0.409   3.787
16786SOL    HW261578   7.455   0.473   3.694
16787SOL     OW61579   8.861   8.625   1.505
16787SOL    HW161580   8.872   8.607   1.603
16787SOL    HW261581   8.810   8.710   1.493
16788SOL     OW61582   8.133   7.693   1.942
16788SOL    HW161583   8.161   7.788   1.932
16788SOL    HW261584   8.033   7.687   1.943
16789SOL     OW61585   9.063   5.024   4.795
16789SOL    HW161586   9.054   4.929   4.763
16789SOL    HW261587   9.058   5.086   4.717
16790SOL     OW61588   9.678   5.974   3.496
16790SOL    HW161589   9.644   5.892   3.449
16790SOL    HW261590   9.721   6.034   3.429
16791SOL     OW61591   2.276   1.270   1.655
16791SOL    HW161592   2.282   1.370   1.645
16791SOL    HW261593   2.186   1.246   1.693
16792SOL     OW61594   8.469   0.524   1.140
16792SOL    HW161595   8.407   0.577   1.082
16792SOL    HW261596   8.469   0.561   1.232
16793SOL     OW61597   8.072   1.683   3.656
16793SOL    HW161598   8.064   1.688   3.756
16793SOL    HW261599   8.010   1.612   3.621
16794SOL     OW61600   4.823   5.162   1.824
16794SOL    HW161601   4.886   5.170   1.746
16794SOL    HW261602   4.729   5.173   1.791
16795SOL     OW61603   8.331   2.889   1.182
16795SOL    HW161604   8.375   2.920   1.097
16795SOL    HW261605   8.265   2.817   1.160
16796SOL     OW61606   5.919   0.428   1.954
16796SOL    HW161607   5.923   0.451   2.051
16796SOL    HW261608   5.824   0.438   1.922
16797SOL     OW61609   7.708   3.632   6.314
16797SOL    HW161610   7.787   3.575   6.340
16797SOL    HW261611   7.624   3.584   6.337
16798SOL     OW61612   6.686   4.423   0.862
16798SOL    HW161613   6.664   4.515   0.894
16798SOL    HW261614   6.656   4.356   0.931
16799SOL     OW61615   3.681   3.745   1.605
16799SOL    HW161616   3.593   3.709   1.635
16799SOL    HW261617   3.732   3.780   1.684
16800SOL     OW61618   2.763   7.166   3.276
16800SOL    HW161619   2.678   7.207   3.242
16800SOL    HW261620   2.782   7.083   3.224
16801SOL     OW61621   4.605   8.210   3.238
16801SOL    HW161622   4.640   8.304   3.236
16801SOL    HW261623   4.527   8.203   3.175
16802SOL     OW61624   9.350   6.568   2.432
16802SOL    HW161625   9.315   6.643   2.375
16802SOL    HW261626   9.390   6.498   2.373
16803SOL     OW61627   5.203   8.306   5.434
16803SOL    HW161628   5.240   8.393   5.403
16803SOL    HW261629   5.119   8.285   5.384
16804SOL     OW61630   0.541   0.993   4.436
16804SOL    HW161631   0.633   1.026   4.457
16804SOL    HW261632   0.527   0.904   4.479
16805SOL     OW61633   2.106   5.391   0.408
16805SOL    HW161634   2.158   5.390   0.493
16805SOL    HW261635   2.061   5.479   0.396
16806SOL     OW61636   2.877   8.150   2.054
16806SOL    HW161637   2.867   8.059   2.015
16806SOL    HW261638   2.955   8.196   2.012
16807SOL     OW61639   9.158   2.119   0.904
16807SOL    HW161640   9.242   2.174   0.895
16807SOL    HW261641   9.159   2.074   0.993
16808SOL     OW61642   8.045   9.901   5.137
16808SOL    HW161643   7.972   9.859   5.083
16808SOL    HW261644   8.026   9.999   5.147
16809SOL     OW61645   9.291   0.763   0.066
16809SOL    HW161646   9.317   0.845   0.116
16809SOL    HW261647   9.341   0.684   0.102
16810SOL     OW61648   2.338   8.698   5.870
16810SOL    HW161649   2.323   8.685   5.772
16810SOL    HW261650   2.251   8.686   5.918
16811SOL     OW61651   7.647   5.480   0.138
16811SOL    HW161652   7.663   5.387   0.106
16811SOL    HW261653   7.730   5.515   0.182
16812SOL     OW61654   0.222   0.126   2.561
16812SOL    HW161655   0.129   0.091   2.572
16812SOL    HW261656   0.287   0.052   2.577
16813SOL     OW61657   9.344   4.826   0.424
16813SOL    HW161658   9.344   4.741   0.371
16813SOL    HW261659   9.282   4.817   0.502
16814SOL     OW61660   8.703   0.313   4.417
16814SOL    HW161661   8.616   0.269   4.440
16814SOL    HW261662   8.686   0.403   4.377
16815SOL     OW61663   3.360   2.158   0.383
16815SOL    HW161664   3.320   2.086   0.440
16815SOL    HW261665   3.385   2.236   0.441
16816SOL     OW61666   5.384   4.493   0.179
16816SOL    HW161667   5.323   4.435   0.233
16816SOL    HW261668   5.463   4.439   0.149
16817SOL     OW61669   0.453   9.989   2.312
16817SOL    HW161670   0.416   0.081   2.296
16817SOL    HW261671   0.451   9.969   2.410
16818SOL     OW61672   1.493   1.073   2.548
16818SOL    HW161673   1.479   1.113   2.458
16818SOL    HW261674   1.457   1.135   2.618
16819SOL     OW61675   5.574   1.539   2.434
16819SOL    HW161676   5.587   1.619   2.493
16819SOL    HW261677   5.560   1.457   2.490
16820SOL     OW61678   9.287   4.795   4.581
16820SOL    HW161679   9.202   4.773   4.630
16820SOL    HW261680   9.271   4.788   4.482
16821SOL     OW61681   5.994   6.226   1.306
16821SOL    HW161682   6.064   6.264   1.247
16821SOL    HW261683   5.906   6.271   1.287
16822SOL     OW61684   2.721   6.185   0.968
16822SOL    HW161685   2.820   6.201   0.974
16822SOL    HW261686   2.674   6.272   0.953
16823SOL     OW61687   0.978   2.321   5.596
16823SOL    HW161688   0.998   2.303   5.499
16823SOL    HW261689   0.992   2.238   5.649
16824SOL     OW61690   2.797   8.440   0.185
16824SOL    HW161691   2.891   8.407   0.176
16824SOL    HW261692   2.735   8.375   0.140
16825SOL     OW61693   9.981   9.640   4.636
16825SOL    HW161694   9.988   9.610   4.731
16825SOL    HW261695   9.923   9.577   4.585
16826SOL     OW61696   7.656   1.542   2.915
16826SOL    HW161697   7.574   1.484   2.917
16826SOL    HW261698   7.717   1.514   2.989
16827SOL     OW61699   8.538   1.461   2.760
16827SOL    HW161700   8.595   1.425   2.833
16827SOL    HW261701   8.585   1.449   2.672
16828SOL     OW61702   8.790   4.966   5.772
16828SOL    HW161703   8.861   5.035   5.784
16828SOL    HW261704   8.707   4.996   5.819
16829SOL     OW61705   0.838   5.800   6.159
16829SOL    HW161706   0.926   5.759   6.184
16829SOL    HW261707   0.815   5.774   6.065
16830SOL     OW61708   8.179   5.682   3.757
16830SOL    HW161709   8.255   5.734   3.717
16830SOL    HW261710   8.153   5.723   3.844
16831SOL     OW61711   2.365   6.225   3.097
16831SOL    HW161712   2.327   6.133   3.100
16831SOL    HW261713   2.464   6.220   3.112
16832SOL     OW61714   2.773   4.563   3.123
16832SOL    HW161715   2.848   4.500   3.147
16832SOL    HW261716   2.695   4.545   3.183
16833SOL     OW61717   0.860   8.921   0.231
16833SOL    HW161718   0.822   8.829   0.216
16833SOL    HW261719   0.803   8.971   0.296
16834SOL     OW61720   1.417   9.261   5.595
16834SOL    HW161721   1.381   9.246   5.504
16834SOL    HW261722   1.489   9.195   5.615
16835SOL     OW61723   1.921   1.208   3.955
16835SOL    HW161724   1.930   1.168   3.864
16835SOL    HW261725   1.843   1.167   4.002
16836SOL     OW61726   4.735   3.525   0.194
16836SOL    HW161727   4.793   3.448   0.168
16836SOL    HW261728   4.644   3.491   0.221
16837SOL     OW61729   0.535   4.596   0.561
16837SOL    HW161730   0.564   4.551   0.646
16837SOL    HW261731   0.461   4.543   0.520
16838SOL     OW61732   4.942   4.187   6.186
16838SOL    HW161733   5.011   4.117   6.205
16838SOL    HW261734   4.854   4.159   6.224
16839SOL     OW61735   5.056   6.298   1.870
16839SOL    HW161736   5.006   6.212   1.883
16839SOL    HW261737   5.152   6.278   1.851
16840SOL     OW61738   1.514   1.729   1.196
16840SOL    HW161739   1.426   1.761   1.159
16840SOL    HW261740   1.585   1.741   1.126
16841SOL     OW61741   8.365   3.480   0.840
16841SOL    HW161742   8.358   3.473   0.740
16841SOL    HW261743   8.455   3.449   0.869
16842SOL     OW61744   9.483   3.076   4.895
16842SOL    HW161745   9.488   2.994   4.952
16842SOL    HW261746   9.402   3.070   4.836
16843SOL     OW61747   1.037   3.080   5.935
16843SOL    HW161748   1.021   2.982   5.946
16843SOL    HW261749   1.125   3.105   5.976
16844SOL     OW61750   9.978   9.536   1.739
16844SOL    HW161751   9.962   9.570   1.646
16844SOL    HW261752   0.071   9.500   1.745
16845SOL     OW61753   6.083   0.317   1.587
16845SOL    HW161754   6.000   0.314   1.531
16845SOL    HW261755   6.159   0.275   1.537
16846SOL     OW61756   3.578   3.173   1.805
16846SOL    HW161757   3.508   3.124   1.755
16846SOL    HW261758   3.633   3.109   1.859
16847SOL     OW61759   1.518   3.765   0.417
16847SOL    HW161760   1.576   3.693   0.378
16847SOL    HW261761   1.484   3.824   0.344
16848SOL     OW61762   0.915   4.264   0.894
16848SOL    HW161763   1.001   4.229   0.930
16848SOL    HW261764   0.873   4.195   0.835
16849SOL     OW61765   3.526   6.380   0.555
16849SOL    HW161766   3.581   6.457   0.521
16849SOL    HW261767   3.476   6.338   0.479
16850SOL     OW61768   8.320   2.245   2.964
16850SOL    HW161769   8.283   2.210   3.050
16850SOL    HW261770   8.248   2.244   2.894
16851SOL     OW61771   3.785   0.464   4.046
16851SOL    HW161772   3.845   0.533   4.086
16851SOL    HW261773   3.840   0.385   4.017
16852SOL     OW61774   8.771   1.811   2.684
16852SOL    HW161775   8.745   1.808   2.587
16852SOL    HW261776   8.837   1.738   2.703
16853SOL     OW61777   8.776   5.554   4.532
16853SOL    HW161778   8.834   5.567   4.452
16853SOL    HW261779   8.680   5.545   4.503
16854SOL     OW61780   9.760   2.690   2.987
16854SOL    HW161781   9.748   2.776   2.939
16854SOL    HW261782   9.754   2.614   2.922
16855SOL     OW61783   4.186   1.472   5.122
16855SOL    HW161784   4.127   1.502   5.047
16855SOL    HW261785   4.181   1.538   5.197
16856SOL     OW61786   7.941   3.047   3.273
16856SOL    HW161787   7.983   3.137   3.282
16856SOL    HW261788   7.854   3.055   3.225
16857SOL     OW61789   9.845   9.256   1.154
16857SOL    HW161790   9.894   9.323   1.098
16857SOL    HW261791   9.910   9.188   1.190
16858SOL     OW61792   2.852   7.551   0.520
16858SOL    HW161793   2.884   7.594   0.436
16858SOL    HW261794   2.901   7.590   0.599
16859SOL     OW61795   8.328   8.988   2.439
16859SOL    HW161796   8.278   9.018   2.358
16859SOL    HW261797   8.268   8.932   2.496
16860SOL     OW61798   4.426   5.737   0.255
16860SOL    HW161799   4.517   5.729   0.215
16860SOL    HW261800   4.391   5.830   0.240
16861SOL     OW61801   7.427   8.621   3.901
16861SOL    HW161802   7.341   8.573   3.885
16861SOL    HW261803   7.411   8.719   3.908
16862SOL     OW61804   3.938   9.221   6.150
16862SOL    HW161805   3.936   9.313   6.189
16862SOL    HW261806   4.016   9.214   6.088
16863SOL     OW61807   4.354   3.555   1.603
16863SOL    HW161808   4.300   3.519   1.679
16863SOL    HW261809   4.352   3.655   1.606
16864SOL     OW61810   0.167   0.044   5.691
16864SOL    HW161811   0.131   9.967   5.638
16864SOL    HW261812   0.103   0.067   5.764
16865SOL     OW61813   6.949   2.123   3.734
16865SOL    HW161814   6.904   2.034   3.736
16865SOL    HW261815   7.022   2.122   3.665
16866SOL     OW61816   8.213   3.511   0.087
16866SOL    HW161817   8.171   3.424   0.109
16866SOL    HW261818   8.142   3.577   0.061
16867SOL     OW61819   6.547   9.639   1.684
16867SOL    HW161820   6.468   9.696   1.708
16867SOL    HW261821   6.524   9.581   1.606
16868SOL     OW61822   3.653   3.949   2.128
16868SOL    HW161823   3.638   3.855   2.097
16868SOL    HW261824   3.682   3.948   2.223
16869SOL     OW61825   5.154   3.967   1.508
16869SOL    HW161826   5.142   4.050   1.562
16869SOL    HW261827   5.102   3.892   1.550
16870SOL     OW61828   8.096   7.203   5.702
16870SOL    HW161829   8.113   7.205   5.604
16870SOL    HW261830   8.118   7.292   5.742
16871SOL     OW61831   0.872   7.155   5.777
16871SOL    HW161832   0.808   7.092   5.821
16871SOL    HW261833   0.820   7.229   5.733
16872SOL     OW61834   3.412   6.024   2.948
16872SOL    HW161835   3.497   6.044   2.901
16872SOL    HW261836   3.407   5.926   2.969
16873SOL     OW61837   2.963   1.480   5.351
16873SOL    HW161838   2.920   1.412   5.410
16873SOL    HW261839   3.056   1.450   5.328
16874SOL     OW61840   9.311   9.763   6.336
16874SOL    HW161841   9.283   9.773   6.240
16874SOL    HW261842   9.264   9.684   6.376
16875SOL     OW61843   0.674   7.067   1.079
16875SOL    HW161844   0.697   7.148   1.134
16875SOL    HW261845   0.614   7.007   1.131
16876SOL     OW61846   8.718   1.114   3.887
16876SOL    HW161847   8.763   1.040   3.937
16876SOL    HW261848   8.730   1.100   3.789
16877SOL     OW61849   1.687   3.367   1.561
16877SOL    HW161850   1.733   3.379   1.649
16877SOL    HW261851   1.627   3.445   1.544
16878SOL     OW61852   1.673   3.014   3.882
16878SOL    HW161853   1.575   3.006   3.902
16878SOL    HW261854   1.725   3.009   3.968
16879SOL     OW61855   3.968   9.305   4.817
16879SOL    HW161856   4.062   9.322   4.849
16879SOL    HW261857   3.932   9.387   4.773
16880SOL     OW61858   1.966   0.235   1.332
16880SOL    HW161859   1.956   0.279   1.243
16880SOL    HW261860   1.952   0.136   1.321
16881SOL     OW61861   4.301   9.837   3.707
16881SOL    HW161862   4.215   9.885   3.689
16881SOL    HW261863   4.290   9.740   3.683
16882SOL     OW61864   4.183   0.617   2.033
16882SOL    HW161865   4.117   0.642   1.963
16882SOL    HW261866   4.148   0.541   2.087
16883SOL     OW61867   3.794   1.908   3.062
16883SOL    HW161868   3.701   1.889   3.090
16883SOL    HW261869   3.809   1.875   2.968
16884SOL     OW61870   6.398   2.218   4.029
16884SOL    HW161871   6.490   2.197   3.996
16884SOL    HW261872   6.334   2.217   3.952
16885SOL     OW61873   9.110   4.440   5.027
16885SOL    HW161874   9.080   4.345   5.035
16885SOL    HW261875   9.098   4.486   5.115
16886SOL     OW61876   9.437   2.144   6.082
16886SOL    HW161877   9.390   2.069   6.036
16886SOL    HW261878   9.415   2.142   6.179
16887SOL     OW61879   2.206   1.118   3.959
16887SOL    HW161880   2.109   1.142   3.952
16887SOL    HW261881   2.260   1.201   3.972
16888SOL     OW61882   3.943   8.067   2.117
16888SOL    HW161883   3.898   8.058   2.028
16888SOL    HW261884   3.911   7.995   2.178
16889SOL     OW61885   9.351   4.566   5.189
16889SOL    HW161886   9.422   4.613   5.241
16889SOL    HW261887   9.375   4.469   5.180
16890SOL     OW61888   8.407   5.853   5.737
16890SOL    HW161889   8.341   5.916   5.696
16890SOL    HW261890   8.362   5.767   5.760
16891SOL     OW61891   7.368   1.816   0.303
16891SOL    HW161892   7.362   1.795   0.401
16891SOL    HW261893   7.313   1.897   0.283
16892SOL     OW61894   3.544   8.746   2.416
16892SOL    HW161895   3.485   8.688   2.360
16892SOL    HW261896   3.539   8.716   2.512
16893SOL     OW61897   5.080   5.191   0.189
16893SOL    HW161898   5.082   5.186   0.090
16893SOL    HW261899   5.051   5.102   0.226
16894SOL     OW61900   3.217   0.428   1.800
16894SOL    HW161901   3.300   0.409   1.853
16894SOL    HW261902   3.199   0.350   1.739
16895SOL     OW61903   4.411   4.444   1.796
16895SOL    HW161904   4.404   4.456   1.895
16895SOL    HW261905   4.425   4.347   1.775
16896SOL     OW61906   6.535   2.406   3.233
16896SOL    HW161907   6.558   2.335   3.166
16896SOL    HW261908   6.600   2.481   3.225
16897SOL     OW61909   3.924   8.065   2.766
16897SOL    HW161910   3.965   8.156   2.766
16897SOL    HW261911   3.864   8.055   2.845
16898SOL     OW61912   8.275   5.862   1.507
16898SOL    HW161913   8.264   5.916   1.424
16898SOL    HW261914   8.235   5.771   1.493
16899SOL     OW61915   4.493   0.867   0.473
16899SOL    HW161916   4.442   0.879   0.559
16899SOL    HW261917   4.487   0.772   0.444
16900SOL     OW61918   3.882   3.498   4.496
16900SOL    HW161919   3.816   3.454   4.556
16900SOL    HW261920   3.842   3.582   4.458
16901SOL     OW61921   0.140   6.492   4.478
16901SOL    HW161922   0.148   6.591   4.470
16901SOL    HW261923   0.080   6.457   4.406
16902SOL     OW61924   0.389   4.610   2.215
16902SOL    HW161925   0.458   4.573   2.278
16902SOL    HW261926   0.429   4.623   2.125
16903SOL     OW61927   8.325   4.253   3.434
16903SOL    HW161928   8.311   4.351   3.447
16903SOL    HW261929   8.284   4.225   3.347
16904SOL     OW61930   4.199   3.452   5.235
16904SOL    HW161931   4.175   3.388   5.308
16904SOL    HW261932   4.123   3.458   5.170
16905SOL     OW61933   0.394   8.566   5.593
16905SOL    HW161934   0.464   8.589   5.661
16905SOL    HW261935   0.421   8.603   5.504
16906SOL     OW61936   2.140   4.820   3.056
16906SOL    HW161937   2.082   4.760   3.001
16906SOL    HW261938   2.229   4.831   3.012
16907SOL     OW61939   6.284   9.680   3.565
16907SOL    HW161940   6.346   9.754   3.539
16907SOL    HW261941   6.326   9.592   3.539
16908SOL     OW61942   7.472   7.742   4.993
16908SOL    HW161943   7.408   7.667   4.977
16908SOL    HW261944   7.548   7.709   5.049
16909SOL     OW61945   8.059   9.226   3.790
16909SOL    HW161946   8.151   9.192   3.811
16909SOL    HW261947   8.035   9.199   3.697
16910SOL     OW61948   3.498   6.864   1.540
16910SOL    HW161949   3.501   6.934   1.612
16910SOL    HW261950   3.417   6.878   1.484
16911SOL     OW61951   3.117   2.187   6.079
16911SOL    HW161952   3.039   2.233   6.121
16911SOL    HW261953   3.097   2.090   6.068
16912SOL     OW61954   3.822   3.135   6.050
16912SOL    HW161955   3.754   3.102   5.984
16912SOL    HW261956   3.894   3.185   6.001
16913SOL     OW61957   5.839   5.306   1.980
16913SOL    HW161958   5.859   5.258   1.895
16913SOL    HW261959   5.850   5.404   1.967
16914SOL     OW61960   0.690   6.191   4.829
16914SOL    HW161961   0.667   6.282   4.863
16914SOL    HW261962   0.637   6.171   4.746
16915SOL     OW61963   5.933   1.901   0.093
16915SOL    HW161964   6.014   1.952   0.121
16915SOL    HW261965   5.960   1.815   0.051
16916SOL     OW61966   3.779   1.419   3.918
16916SOL    HW161967   3.750   1.365   3.997
16916SOL    HW261968   3.872   1.453   3.934
16917SOL     OW61969   7.097   1.938   1.445
16917SOL    HW161970   7.043   1.858   1.472
16917SOL    HW261971   7.076   1.963   1.351
16918SOL     OW61972   0.143   4.854   5.953
16918SOL    HW161973   0.124   4.767   5.999
16918SOL    HW261974   0.240   4.860   5.932
16919SOL     OW61975   6.469   8.800   4.738
16919SOL    HW161976   6.407   8.745   4.681
16919SOL    HW261977   6.511   8.741   4.807
16920SOL     OW61978   5.437   0.918   3.244
16920SOL    HW161979   5.366   0.988   3.245
16920SOL    HW261980   5.397   0.829   3.267
16921SOL     OW61981   2.394   7.613   5.328
16921SOL    HW161982   2.360   7.700   5.292
16921SOL    HW261983   2.321   7.545   5.325
16922SOL     OW61984   1.721   1.818   4.944
16922SOL    HW161985   1.747   1.911   4.918
16922SOL    HW261986   1.649   1.785   4.883
16923SOL     OW61987   1.473   7.465   6.061
16923SOL    HW161988   1.495   7.406   5.983
16923SOL    HW261989   1.500   7.420   6.146
16924SOL     OW61990   6.051   1.779   4.413
16924SOL    HW161991   6.139   1.811   4.380
16924SOL    HW261992   6.008   1.850   4.468
16925SOL     OW61993   2.739   1.288   2.059
16925SOL    HW161994   2.644   1.312   2.042
16925SOL    HW261995   2.749   1.252   2.152
16926SOL     OW61996   2.270   7.684   1.929
16926SOL    HW161997   2.216   7.602   1.950
16926SOL    HW261998   2.366   7.666   1.946
16927SOL     OW61999   2.035   5.988   2.593
16927SOL    HW162000   2.038   5.953   2.687
16927SOL    HW262001   2.065   6.083   2.592
16928SOL     OW62002   6.362   1.768   3.909
16928SOL    HW162003   6.274   1.773   3.862
16928SOL    HW262004   6.434   1.799   3.847
16929SOL     OW62005   5.041   8.524   5.005
16929SOL    HW162006   4.946   8.498   4.984
16929SOL    HW262007   5.103   8.472   4.947
16930SOL     OW62008   0.513   4.664   5.076
16930SOL    HW162009   0.492   4.638   4.982
16930SOL    HW262010   0.461   4.607   5.139
16931SOL     OW62011   6.018   5.091   0.993
16931SOL    HW162012   5.971   5.100   1.081
16931SOL    HW262013   6.114   5.117   1.004
16932SOL     OW62014   8.472   1.791   5.139
16932SOL    HW162015   8.529   1.870   5.159
16932SOL    HW262016   8.507   1.711   5.187
16933SOL     OW62017   0.186   0.332   4.507
16933SOL    HW162018   0.249   0.389   4.559
16933SOL    HW262019   0.238   0.262   4.457
16934SOL     OW62020   6.616   4.725   2.131
16934SOL    HW162021   6.663   4.709   2.218
16934SOL    HW262022   6.582   4.819   2.129
16935SOL     OW62023   1.760   1.883   5.206
16935SOL    HW162024   1.672   1.917   5.240
16935SOL    HW262025   1.749   1.850   5.112
16936SOL     OW62026   7.682   6.363   5.279
16936SOL    HW162027   7.721   6.291   5.335
16936SOL    HW262028   7.755   6.412   5.230
16937SOL     OW62029   1.778   4.376   3.602
16937SOL    HW162030   1.681   4.363   3.625
16937SOL    HW262031   1.815   4.292   3.564
16938SOL     OW62032   7.364   2.598   1.584
16938SOL    HW162033   7.270   2.579   1.558
16938SOL    HW262034   7.426   2.534   1.539
16939SOL     OW62035   0.242   1.653   4.115
16939SOL    HW162036   0.292   1.609   4.040
16939SOL    HW262037   0.249   1.596   4.197
16940SOL     OW62038   5.659   0.496   5.006
16940SOL    HW162039   5.746   0.542   5.022
16940SOL    HW262040   5.627   0.453   5.091
16941SOL     OW62041   3.597   2.705   3.169
16941SOL    HW162042   3.505   2.743   3.180
16941SOL    HW262043   3.665   2.778   3.175
16942SOL     OW62044   5.351   1.563   4.757
16942SOL    HW162045   5.427   1.628   4.760
16942SOL    HW262046   5.386   1.473   4.730
16943SOL     OW62047   8.716   8.733   2.872
16943SOL    HW162048   8.807   8.773   2.859
16943SOL    HW262049   8.708   8.696   2.964
16944SOL     OW62050   7.271   8.683   3.545
16944SOL    HW162051   7.281   8.773   3.586
16944SOL    HW262052   7.345   8.624   3.577
16945SOL     OW62053   9.081   5.729   3.394
16945SOL    HW162054   9.033   5.781   3.322
16945SOL    HW262055   9.086   5.784   3.477
16946SOL     OW62056   9.017   2.538   2.360
16946SOL    HW162057   8.969   2.602   2.299
16946SOL    HW262058   9.112   2.568   2.371
16947SOL     OW62059   4.037   9.045   1.852
16947SOL    HW162060   3.995   9.133   1.830
16947SOL    HW262061   4.006   8.976   1.787
16948SOL     OW62062   1.210   9.091   4.777
16948SOL    HW162063   1.238   9.171   4.724
16948SOL    HW262064   1.175   9.120   4.866
16949SOL     OW62065   8.062   0.872   2.010
16949SOL    HW162066   7.966   0.848   1.991
16949SOL    HW262067   8.107   0.795   2.055
16950SOL     OW62068   8.804   8.117   3.219
16950SOL    HW162069   8.751   8.038   3.248
16950SOL    HW262070   8.776   8.144   3.126
16951SOL     OW62071   3.506   2.223   1.589
16951SOL    HW162072   3.574   2.200   1.658
16951SOL    HW262073   3.549   2.226   1.499
16952SOL     OW62074   1.213   4.634   3.644
16952SOL    HW162075   1.312   4.637   3.658
16952SOL    HW262076   1.175   4.556   3.694
16953SOL     OW62077   1.161   8.220   0.445
16953SOL    HW162078   1.196   8.161   0.518
16953SOL    HW262079   1.074   8.182   0.412
16954SOL     OW62080   3.398   9.946   0.095
16954SOL    HW162081   3.370   0.039   0.117
16954SOL    HW262082   3.489   9.928   0.134
16955SOL     OW62083   0.752   8.303   6.089
16955SOL    HW162084   0.817   8.369   6.051
16955SOL    HW262085   0.789   8.211   6.079
16956SOL     OW62086   5.706   9.503   6.258
16956SOL    HW162087   5.742   9.461   6.174
16956SOL    HW262088   5.613   9.469   6.275
16957SOL     OW62089   3.826   3.326   6.381
16957SOL    HW162090   3.768   3.355   6.457
16957SOL    HW262091   3.850   3.230   6.392
16958SOL     OW62092   4.288   6.022   0.853
16958SOL    HW162093   4.227   6.101   0.862
16958SOL    HW262094   4.329   6.022   0.762
16959SOL     OW62095   2.793   1.947   5.398
16959SOL    HW162096   2.868   1.987   5.451
16959SOL    HW262097   2.784   1.850   5.421
16960SOL     OW62098   9.735   1.248   6.055
16960SOL    HW162099   9.787   1.226   6.137
16960SOL    HW262100   9.665   1.178   6.039
16961SOL     OW62101   3.768   8.075   2.991
16961SOL    HW162102   3.817   8.141   3.049
16961SOL    HW262103   3.670   8.096   2.993
16962SOL     OW62104   4.950   3.004   0.144
16962SOL    HW162105   5.000   3.031   0.061
16962SOL    HW262106   4.874   2.945   0.119
16963SOL     OW62107   2.887   2.324   0.164
16963SOL    HW162108   2.909   2.279   0.250
16963SOL    HW262109   2.971   2.338   0.111
16964SOL     OW62110   9.937   8.569   4.399
16964SOL    HW162111   9.973   8.569   4.492
16964SOL    HW262112   9.945   8.478   4.360
16965SOL     OW62113   9.562   3.878   1.630
16965SOL    HW162114   9.644   3.841   1.585
16965SOL    HW262115   9.487   3.880   1.564
16966SOL     OW62116   3.381   9.081   4.716
16966SOL    HW162117   3.365   9.155   4.781
16966SOL    HW262118   3.463   9.030   4.742
16967SOL     OW62119   5.263   1.602   0.410
16967SOL    HW162120   5.343   1.657   0.385
16967SOL    HW262121   5.194   1.609   0.338
16968SOL     OW62122   1.266   9.382   3.442
16968SOL    HW162123   1.246   9.403   3.537
16968SOL    HW262124   1.356   9.339   3.435
16969SOL     OW62125   5.498   2.218   5.281
16969SOL    HW162126   5.422   2.183   5.336
16969SOL    HW262127   5.553   2.141   5.247
16970SOL     OW62128   7.746   4.505   0.342
16970SOL    HW162129   7.834   4.543   0.315
16970SOL    HW262130   7.742   4.409   0.315
16971SOL     OW62131   2.115   6.543   1.320
16971SOL    HW162132   2.172   6.522   1.399
16971SOL    HW262133   2.057   6.622   1.340
16972SOL     OW62134   8.812   0.300   4.005
16972SOL    HW162135   8.716   0.323   4.021
16972SOL    HW262136   8.824   0.201   4.011
16973SOL     OW62137   2.672   6.891   0.582
16973SOL    HW162138   2.574   6.873   0.589
16973SOL    HW262139   2.688   6.967   0.519
16974SOL     OW62140   3.739   9.279   5.693
16974SOL    HW162141   3.808   9.207   5.703
16974SOL    HW262142   3.649   9.238   5.683
16975SOL     OW62143   8.411   5.806   1.168
16975SOL    HW162144   8.461   5.742   1.226
16975SOL    HW262145   8.469   5.886   1.151
16976SOL     OW62146   8.190   1.849   2.793
16976SOL    HW162147   8.234   1.880   2.877
16976SOL    HW262148   8.248   1.782   2.746
16977SOL     OW62149   7.914   7.420   3.754
16977SOL    HW162150   7.825   7.461   3.771
16977SOL    HW262151   7.961   7.405   3.842
16978SOL     OW62152   8.704   0.932   5.581
16978SOL    HW162153   8.663   0.841   5.581
16978SOL    HW262154   8.703   0.969   5.674
16979SOL     OW62155   6.949   0.242   3.989
16979SOL    HW162156   7.011   0.317   3.966
16979SOL    HW262157   6.997   0.174   4.043
16980SOL     OW62158   4.110   7.935   6.321
16980SOL    HW162159   4.194   7.884   6.304
16980SOL    HW262160   4.129   8.012   6.381
16981SOL     OW62161   7.893   0.777   1.278
16981SOL    HW162162   7.983   0.755   1.314
16981SOL    HW262163   7.828   0.704   1.303
16982SOL     OW62164   5.698   4.728   1.751
16982SOL    HW162165   5.797   4.720   1.756
16982SOL    HW262166   5.673   4.824   1.738
16983SOL     OW62167   0.783   5.927   4.594
16983SOL    HW162168   0.714   5.927   4.666
16983SOL    HW262169   0.753   5.987   4.520
16984SOL     OW62170   9.541   1.836   3.102
16984SOL    HW162171   9.525   1.858   3.198
16984SOL    HW262172   9.593   1.751   3.095
16985SOL     OW62173   1.415   5.238   2.824
16985SOL    HW162174   1.333   5.231   2.766
16985SOL    HW262175   1.470   5.155   2.813
16986SOL     OW62176   3.317   4.465   2.297
16986SOL    HW162177   3.340   4.524   2.374
16986SOL    HW262178   3.221   4.480   2.271
16987SOL     OW62179   0.210   9.970   3.353
16987SOL    HW162180   0.251   9.936   3.438
16987SOL    HW262181   0.220   9.900   3.282
16988SOL     OW62182   0.277   6.174   3.189
16988SOL    HW162183   0.357   6.198   3.243
16988SOL    HW262184   0.293   6.086   3.144
16989SOL     OW62185   9.661   8.384   2.647
16989SOL    HW162186   9.717   8.467   2.656
16989SOL    HW262187   9.721   8.304   2.643
16990SOL     OW62188   1.983   6.740   4.380
16990SOL    HW162189   1.952   6.654   4.339
16990SOL    HW262190   2.045   6.720   4.455
16991SOL     OW62191   8.449   1.123   5.851
16991SOL    HW162192   8.545   1.097   5.838
16991SOL    HW262193   8.391   1.062   5.796
16992SOL     OW62194   8.311   3.825   2.918
16992SOL    HW162195   8.404   3.839   2.885
16992SOL    HW262196   8.310   3.752   2.986
16993SOL     OW62197   8.230   6.146   4.187
16993SOL    HW162198   8.206   6.076   4.253
16993SOL    HW262199   8.197   6.120   4.096
16994SOL     OW62200   1.794   4.772   2.795
16994SOL    HW162201   1.696   4.752   2.801
16994SOL    HW262202   1.809   4.870   2.804
16995SOL     OW62203   3.011   8.776   3.643
16995SOL    HW162204   3.033   8.807   3.550
16995SOL    HW262205   3.044   8.844   3.708
16996SOL     OW62206   9.707   1.816   5.977
16996SOL    HW162207   9.700   1.892   6.041
16996SOL    HW262208   9.634   1.824   5.908
16997SOL     OW62209   3.145   1.508   4.988
16997SOL    HW162210   3.145   1.547   4.895
16997SOL    HW262211   3.059   1.459   5.003
16998SOL     OW62212   4.210   0.172   0.490
16998SOL    HW162213   4.246   0.183   0.582
16998SOL    HW262214   4.189   0.076   0.473
16999SOL     OW62215   1.356   1.223   1.317
16999SOL    HW162216   1.380   1.193   1.409
16999SOL    HW262217   1.346   1.323   1.316
17000SOL     OW62218   0.595   8.616   5.776
17000SOL    HW162219   0.658   8.559   5.725
17000SOL    HW262220   0.641   8.701   5.803
17001SOL     OW62221   3.926   3.064   2.068
17001SOL    HW162222   3.948   3.089   1.974
17001SOL    HW262223   3.948   3.141   2.129
17002SOL     OW62224   3.540   6.596   1.472
17002SOL    HW162225   3.511   6.686   1.504
17002SOL    HW262226   3.551   6.599   1.373
17003SOL     OW62227   6.063   1.704   1.594
17003SOL    HW162228   6.002   1.635   1.554
17003SOL    HW262229   6.009   1.776   1.637
17004SOL     OW62230   7.208   2.032   0.233
17004SOL    HW162231   7.161   2.006   0.149
17004SOL    HW262232   7.144   2.082   0.292
17005SOL     OW62233   1.302   3.842   6.257
17005SOL    HW162234   1.397   3.850   6.288
17005SOL    HW262235   1.266   3.932   6.235
17006SOL     OW62236   0.149   4.520   0.634
17006SOL    HW162237   0.235   4.499   0.587
17006SOL    HW262238   0.073   4.505   0.570
17007SOL     OW62239   2.616   6.822   3.274
17007SOL    HW162240   2.541   6.888   3.268
17007SOL    HW262241   2.694   6.856   3.221
17008SOL     OW62242   9.140   4.416   0.545
17008SOL    HW162243   9.240   4.412   0.541
17008SOL    HW262244   9.110   4.511   0.551
17009SOL     OW62245   4.960   4.985   2.406
17009SOL    HW162246   4.952   5.081   2.435
17009SOL    HW262247   5.042   4.974   2.350
17010SOL     OW62248   4.203   4.768   4.259
17010SOL    HW162249   4.285   4.816   4.288
17010SOL    HW262250   4.155   4.731   4.338
17011SOL     OW62251   0.359   8.172   3.765
17011SOL    HW162252   0.406   8.090   3.799
17011SOL    HW262253   0.262   8.166   3.787
17012SOL     OW62254   0.400   9.385   5.181
17012SOL    HW162255   0.460   9.396   5.261
17012SOL    HW262256   0.306   9.373   5.211
17013SOL     OW62257   0.346   9.737   2.315
17013SOL    HW162258   0.300   9.731   2.404
17013SOL    HW262259   0.378   9.831   2.301
17014SOL     OW62260   8.543   9.206   4.572
17014SOL    HW162261   8.456   9.181   4.615
17014SOL    HW262262   8.542   9.302   4.547
17015SOL     OW62263   5.146   2.473   3.627
17015SOL    HW162264   5.075   2.429   3.682
17015SOL    HW262265   5.106   2.509   3.543
17016SOL     OW62266   7.734   7.804   2.588
17016SOL    HW162267   7.669   7.728   2.579
17016SOL    HW262268   7.791   7.809   2.505
17017SOL     OW62269   3.612   3.087   3.661
17017SOL    HW162270   3.696   3.069   3.609
17017SOL    HW262271   3.603   3.185   3.676
17018SOL     OW62272   4.849   7.276   3.631
17018SOL    HW162273   4.946   7.283   3.655
17018SOL    HW262274   4.799   7.351   3.674
17019SOL     OW62275   8.898   3.472   1.576
17019SOL    HW162276   8.877   3.411   1.652
17019SOL    HW262277   8.972   3.433   1.521
17020SOL     OW62278   1.848   1.684   4.616
17020SOL    HW162279   1.785   1.762   4.606
17020SOL    HW262280   1.860   1.664   4.713
17021SOL     OW62281   4.038   8.834   5.135
17021SOL    HW162282   3.992   8.923   5.138
17021SOL    HW262283   4.033   8.791   5.225
17022SOL     OW62284   1.148   3.029   1.717
17022SOL    HW162285   1.108   3.105   1.768
17022SOL    HW262286   1.187   2.962   1.780
17023SOL     OW62287   0.218   7.464   3.873
17023SOL    HW162288   0.168   7.411   3.941
17023SOL    HW262289   0.315   7.443   3.880
17024SOL     OW62290   4.960   3.399   4.533
17024SOL    HW162291   4.957   3.398   4.433
17024SOL    HW262292   4.918   3.482   4.568
17025SOL     OW62293   6.677   9.559   4.619
17025SOL    HW162294   6.766   9.523   4.594
17025SOL    HW262295   6.633   9.497   4.685
17026SOL     OW62296   4.351   8.783   5.403
17026SOL    HW162297   4.356   8.685   5.419
17026SOL    HW262298   4.403   8.806   5.321
17027SOL     OW62299   5.734   5.323   0.143
17027SOL    HW162300   5.747   5.306   0.240
17027SOL    HW262301   5.689   5.245   0.101
17028SOL     OW62302   7.767   2.019   0.341
17028SOL    HW162303   7.859   2.058   0.334
17028SOL    HW262304   7.701   2.093   0.358
17029SOL     OW62305   0.084   4.387   1.881
17029SOL    HW162306   9.997   4.428   1.856
17029SOL    HW262307   0.141   4.377   1.799
17030SOL     OW62308   9.000   8.262   3.714
17030SOL    HW162309   9.041   8.242   3.803
17030SOL    HW262310   8.930   8.334   3.725
17031SOL     OW62311   2.215   8.335   3.199
17031SOL    HW162312   2.260   8.405   3.143
17031SOL    HW262313   2.136   8.299   3.150
17032SOL     OW62314   7.416   6.162   6.353
17032SOL    HW162315   7.380   6.255   6.343
17032SOL    HW262316   7.402   6.131   6.447
17033SOL     OW62317   7.174   2.880   3.555
17033SOL    HW162318   7.266   2.912   3.578
17033SOL    HW262319   7.169   2.863   3.456
17034SOL     OW62320   1.706   8.028   0.766
17034SOL    HW162321   1.642   7.952   0.781
17034SOL    HW262322   1.762   8.008   0.686
17035SOL     OW62323   8.233   5.588   4.773
17035SOL    HW162324   8.313   5.542   4.812
17035SOL    HW262325   8.251   5.686   4.765
17036SOL     OW62326   9.733   9.953   3.237
17036SOL    HW162327   9.781   9.891   3.299
17036SOL    HW262328   9.737   9.918   3.144
17037SOL     OW62329   8.634   4.351   3.523
17037SOL    HW162330   8.607   4.414   3.450
17037SOL    HW262331   8.621   4.396   3.611
17038SOL     OW62332   7.755   3.585   1.772
17038SOL    HW162333   7.730   3.559   1.865
17038SOL    HW262334   7.688   3.547   1.708
17039SOL     OW62335   7.616   1.798   4.175
17039SOL    HW162336   7.589   1.711   4.216
17039SOL    HW262337   7.711   1.793   4.145
17040SOL     OW62338   1.602   3.444   5.976
17040SOL    HW162339   1.652   3.358   5.968
17040SOL    HW262340   1.509   3.426   6.008
17041SOL     OW62341   8.786   0.508   1.856
17041SOL    HW162342   8.709   0.458   1.816
17041SOL    HW262343   8.784   0.499   1.955
17042SOL     OW62344   2.546   8.019   5.547
17042SOL    HW162345   2.588   7.944   5.494
17042SOL    HW262346   2.537   8.100   5.488
17043SOL     OW62347   2.414   1.486   0.832
17043SOL    HW162348   2.357   1.553   0.879
17043SOL    HW262349   2.487   1.532   0.782
17044SOL     OW62350   8.030   9.679   4.115
17044SOL    HW162351   7.964   9.644   4.048
17044SOL    HW262352   7.980   9.723   4.190
17045SOL     OW62353   1.776   3.232   5.962
17045SOL    HW162354   1.854   3.293   5.970
17045SOL    HW262355   1.799   3.156   5.901
17046SOL     OW62356   8.550   1.344   5.535
17046SOL    HW162357   8.598   1.265   5.496
17046SOL    HW262358   8.614   1.420   5.545
17047SOL     OW62359   7.897   6.089   0.998
17047SOL    HW162360   7.935   5.999   0.978
17047SOL    HW262361   7.933   6.156   0.933
17048SOL     OW62362   8.694   9.086   0.708
17048SOL    HW162363   8.635   9.167   0.707
17048SOL    HW262364   8.750   9.085   0.626
17049SOL     OW62365   1.352   0.837   6.284
17049SOL    HW162366   1.421   0.903   6.314
17049SOL    HW262367   1.397   0.750   6.263
17050SOL     OW62368   7.299   3.235   5.780
17050SOL    HW162369   7.266   3.323   5.745
17050SOL    HW262370   7.234   3.163   5.754
17051SOL     OW62371   4.032   6.254   2.414
17051SOL    HW162372   4.009   6.259   2.511
17051SOL    HW262373   3.948   6.243   2.361
17052SOL     OW62374   6.711   0.370   4.049
17052SOL    HW162375   6.793   0.319   4.022
17052SOL    HW262376   6.650   0.377   3.970
17053SOL     OW62377   5.239   7.734   3.248
17053SOL    HW162378   5.141   7.742   3.269
17053SOL    HW262379   5.292   7.749   3.331
17054SOL     OW62380   7.198   4.709   1.581
17054SOL    HW162381   7.174   4.648   1.506
17054SOL    HW262382   7.189   4.661   1.668
17055SOL     OW62383   9.268   3.190   3.996
17055SOL    HW162384   9.234   3.109   3.948
17055SOL    HW262385   9.344   3.164   4.056
17056SOL     OW62386   2.302   9.391   1.112
17056SOL    HW162387   2.398   9.372   1.131
17056SOL    HW262388   2.251   9.305   1.106
17057SOL     OW62389   1.024   6.904   2.688
17057SOL    HW162390   1.013   6.843   2.610
17057SOL    HW262391   0.942   6.961   2.698
17058SOL     OW62392   8.478   8.237   5.853
17058SOL    HW162393   8.470   8.333   5.827
17058SOL    HW262394   8.527   8.230   5.940
17059SOL     OW62395   7.677   4.537   2.037
17059SOL    HW162396   7.676   4.637   2.031
17059SOL    HW262397   7.738   4.509   2.111
17060SOL     OW62398   3.807   6.981   4.664
17060SOL    HW162399   3.817   6.970   4.566
17060SOL    HW262400   3.897   6.985   4.707
17061SOL     OW62401   3.761   5.098   6.385
17061SOL    HW162402   3.820   5.171   6.420
17061SOL    HW262403   3.666   5.128   6.389
17062SOL     OW62404   4.298   1.007   3.627
17062SOL    HW162405   4.396   0.993   3.612
17062SOL    HW262406   4.246   0.952   3.561
17063SOL     OW62407   3.089   9.618   2.401
17063SOL    HW162408   3.163   9.683   2.416
17063SOL    HW262409   3.072   9.566   2.484
17064SOL     OW62410   1.489   6.127   6.072
17064SOL    HW162411   1.570   6.164   6.118
17064SOL    HW262412   1.505   6.033   6.044
17065SOL     OW62413   7.639   1.786   0.251
17065SOL    HW162414   7.541   1.803   0.263
17065SOL    HW262415   7.690   1.869   0.276
17066SOL     OW62416   8.706   3.496   2.923
17066SOL    HW162417   8.717   3.554   2.843
17066SOL    HW262418   8.693   3.401   2.894
17067SOL     OW62419   1.321   1.701   5.252
17067SOL    HW162420   1.252   1.707   5.180
17067SOL    HW262421   1.387   1.775   5.241
17068SOL     OW62422   0.534   0.429   4.238
17068SOL    HW162423   0.562   0.336   4.263
17068SOL    HW262424   0.608   0.493   4.258
17069SOL     OW62425   8.709   1.150   4.674
17069SOL    HW162426   8.694   1.078   4.607
17069SOL    HW262427   8.779   1.213   4.639
17070SOL     OW62428   2.794   0.731   1.373
17070SOL    HW162429   2.741   0.747   1.289
17070SOL    HW262430   2.778   0.807   1.436
17071SOL     OW62431   3.718   3.711   0.617
17071SOL    HW162432   3.708   3.761   0.703
17071SOL    HW262433   3.669   3.760   0.544
17072SOL     OW62434   2.314   4.777   0.952
17072SOL    HW162435   2.348   4.818   0.867
17072SOL    HW262436   2.305   4.678   0.941
17073SOL     OW62437   8.824   8.056   2.136
17073SOL    HW162438   8.736   8.103   2.144
17073SOL    HW262439   8.898   8.124   2.140
17074SOL     OW62440   3.172   5.135   1.848
17074SOL    HW162441   3.115   5.173   1.776
17074SOL    HW262442   3.261   5.181   1.848
17075SOL     OW62443   3.840   2.301   4.311
17075SOL    HW162444   3.835   2.351   4.397
17075SOL    HW262445   3.833   2.203   4.329
17076SOL     OW62446   4.221   0.054   2.466
17076SOL    HW162447   4.278   0.007   2.399
17076SOL    HW262448   4.248   0.025   2.558
17077SOL     OW62449   7.340   4.353   1.644
17077SOL    HW162450   7.253   4.307   1.625
17077SOL    HW262451   7.415   4.288   1.633
17078SOL     OW62452   5.108   5.469   0.757
17078SOL    HW162453   5.171   5.404   0.713
17078SOL    HW262454   5.022   5.423   0.776
17079SOL     OW62455   7.678   3.444   5.494
17079SOL    HW162456   7.654   3.373   5.561
17079SOL    HW262457   7.641   3.532   5.524
17080SOL     OW62458   2.576   1.780   6.124
17080SOL    HW162459   2.518   1.766   6.044
17080SOL    HW262460   2.618   1.871   6.120
17081SOL     OW62461   6.744   0.245   2.681
17081SOL    HW162462   6.688   0.177   2.728
17081SOL    HW262463   6.784   0.307   2.748
17082SOL     OW62464   3.165   4.355   2.819
17082SOL    HW162465   3.156   4.435   2.760
17082SOL    HW262466   3.075   4.312   2.830
17083SOL     OW62467   0.934   5.326   1.330
17083SOL    HW162468   0.845   5.310   1.287
17083SOL    HW262469   1.006   5.286   1.273
17084SOL     OW62470   2.221   4.371   4.901
17084SOL    HW162471   2.232   4.329   4.811
17084SOL    HW262472   2.159   4.315   4.956
17085SOL     OW62473   6.630   7.573   6.234
17085SOL    HW162474   6.570   7.640   6.191
17085SOL    HW262475   6.725   7.605   6.226
17086SOL     OW62476   9.359   6.752   4.571
17086SOL    HW162477   9.310   6.753   4.658
17086SOL    HW262478   9.397   6.842   4.553
17087SOL     OW62479   5.585   9.087   2.828
17087SOL    HW162480   5.576   9.187   2.833
17087SOL    HW262481   5.655   9.064   2.761
17088SOL     OW62482   8.562   0.815   0.926
17088SOL    HW162483   8.610   0.819   1.013
17088SOL    HW262484   8.626   0.787   0.854
17089SOL     OW62485   7.238   9.752   5.597
17089SOL    HW162486   7.238   9.697   5.680
17089SOL    HW262487   7.329   9.750   5.556
17090SOL     OW62488   6.764   1.016   1.699
17090SOL    HW162489   6.799   0.969   1.780
17090SOL    HW262490   6.667   0.992   1.687
17091SOL     OW62491   2.327   6.614   6.095
17091SOL    HW162492   2.394   6.622   6.020
17091SOL    HW262493   2.334   6.694   6.153
17092SOL     OW62494   8.284   4.524   3.451
17092SOL    HW162495   8.200   4.557   3.495
17092SOL    HW262496   8.297   4.572   3.365
17093SOL     OW62497   9.748   3.346   2.339
17093SOL    HW162498   9.701   3.350   2.427
17093SOL    HW262499   9.752   3.437   2.298
17094SOL     OW62500   2.321   3.882   2.091
17094SOL    HW162501   2.340   3.975   2.123
17094SOL    HW262502   2.363   3.816   2.153
17095SOL     OW62503   2.593   9.451   1.711
17095SOL    HW162504   2.635   9.474   1.799
17095SOL    HW262505   2.495   9.471   1.715
17096SOL     OW62506   8.957   1.644   3.327
17096SOL    HW162507   8.857   1.649   3.330
17096SOL    HW262508   8.995   1.706   3.396
17097SOL     OW62509   3.013   9.858   4.914
17097SOL    HW162510   2.947   9.794   4.953
17097SOL    HW262511   3.077   9.809   4.855
17098SOL     OW62512   7.961   1.527   5.682
17098SOL    HW162513   7.917   1.503   5.769
17098SOL    HW262514   8.036   1.591   5.699
17099SOL     OW62515   9.527   5.178   1.500
17099SOL    HW162516   9.459   5.242   1.534
17099SOL    HW262517   9.482   5.104   1.450
17100SOL     OW62518   3.524   0.416   5.717
17100SOL    HW162519   3.590   0.490   5.726
17100SOL    HW262520   3.508   0.397   5.620
17101SOL     OW62521   1.552   1.964   4.282
17101SOL    HW162522   1.523   1.945   4.188
17101SOL    HW262523   1.645   2.002   4.280
17102SOL     OW62524   4.781   3.251   5.361
17102SOL    HW162525   4.692   3.275   5.401
17102SOL    HW262526   4.850   3.251   5.433
17103SOL     OW62527   3.669   1.357   1.949
17103SOL    HW162528   3.632   1.271   1.913
17103SOL    HW262529   3.718   1.404   1.876
17104SOL     OW62530   5.465   5.896   1.361
17104SOL    HW162531   5.426   5.987   1.374
17104SOL    HW262532   5.563   5.898   1.381
17105SOL     OW62533   4.008   2.347   5.401
17105SOL    HW162534   4.028   2.310   5.311
17105SOL    HW262535   4.070   2.307   5.468
17106SOL     OW62536   3.649   7.426   4.283
17106SOL    HW162537   3.555   7.457   4.268
17106SOL    HW262538   3.651   7.327   4.296
17107SOL     OW62539   0.844   2.842   0.797
17107SOL    HW162540   0.917   2.845   0.727
17107SOL    HW262541   0.846   2.927   0.850
17108SOL     OW62542   8.870   3.236   5.369
17108SOL    HW162543   8.940   3.225   5.440
17108SOL    HW262544   8.792   3.177   5.391
17109SOL     OW62545   8.363   5.511   1.670
17109SOL    HW162546   8.337   5.441   1.603
17109SOL    HW262547   8.283   5.568   1.690
17110SOL     OW62548   8.451   7.973   1.539
17110SOL    HW162549   8.546   8.000   1.521
17110SOL    HW262550   8.391   8.051   1.525
17111SOL     OW62551   5.657   4.714   1.369
17111SOL    HW162552   5.717   4.791   1.390
17111SOL    HW262553   5.658   4.648   1.444
17112SOL     OW62554   2.923   2.989   2.773
17112SOL    HW162555   2.933   2.952   2.865
17112SOL    HW262556   3.013   3.004   2.733
17113SOL     OW62557   3.011   0.002   0.161
17113SOL    HW162558   3.060   9.924   0.122
17113SOL    HW262559   2.933   9.969   0.214
17114SOL     OW62560   3.083   2.704   2.429
17114SOL    HW162561   3.014   2.670   2.365
17114SOL    HW262562   3.174   2.689   2.391
17115SOL     OW62563   4.647   4.428   2.038
17115SOL    HW162564   4.699   4.503   1.996
17115SOL    HW262565   4.555   4.460   2.061
17116SOL     OW62566   5.374   0.443   1.671
17116SOL    HW162567   5.419   0.530   1.652
17116SOL    HW262568   5.406   0.374   1.605
17117SOL     OW62569   9.732   0.405   3.477
17117SOL    HW162570   9.806   0.339   3.488
17117SOL    HW262571   9.676   0.381   3.398
17118SOL     OW62572   7.892   1.985   1.105
17118SOL    HW162573   7.989   1.983   1.130
17118SOL    HW262574   7.858   2.079   1.115
17119SOL     OW62575   2.858   7.471   3.783
17119SOL    HW162576   2.765   7.472   3.819
17119SOL    HW262577   2.913   7.540   3.831
17120SOL     OW62578   9.581   9.231   2.088
17120SOL    HW162579   9.556   9.203   1.996
17120SOL    HW262580   9.667   9.282   2.085
17121SOL     OW62581   4.751   9.855   1.949
17121SOL    HW162582   4.697   9.772   1.940
17121SOL    HW262583   4.763   9.897   1.859
17122SOL     OW62584   5.560   1.665   5.460
17122SOL    HW162585   5.623   1.690   5.387
17122SOL    HW262586   5.466   1.663   5.425
17123SOL     OW62587   9.430   0.432   2.714
17123SOL    HW162588   9.520   0.415   2.754
17123SOL    HW262589   9.439   0.440   2.615
17124SOL     OW62590   1.573   6.375   0.267
17124SOL    HW162591   1.537   6.461   0.304
17124SOL    HW262592   1.498   6.311   0.253
17125SOL     OW62593   1.267   0.049   5.391
17125SOL    HW162594   1.175   0.018   5.412
17125SOL    HW262595   1.266   0.148   5.374
17126SOL     OW62596   9.472   8.311   5.130
17126SOL    HW162597   9.487   8.390   5.071
17126SOL    HW262598   9.375   8.303   5.152
17127SOL     OW62599   3.696   9.155   4.189
17127SOL    HW162600   3.703   9.072   4.244
17127SOL    HW262601   3.743   9.230   4.237
17128SOL     OW62602   5.546   3.637   0.258
17128SOL    HW162603   5.450   3.650   0.233
17128SOL    HW262604   5.552   3.565   0.328
17129SOL     OW62605   7.635   9.865   1.607
17129SOL    HW162606   7.616   9.808   1.687
17129SOL    HW262607   7.581   9.833   1.529
17130SOL     OW62608   5.435   0.763   2.469
17130SOL    HW162609   5.456   0.723   2.380
17130SOL    HW262610   5.453   0.695   2.541
17131SOL     OW62611   4.791   0.612   0.754
17131SOL    HW162612   4.833   0.643   0.669
17131SOL    HW262613   4.714   0.671   0.777
17132SOL     OW62614   4.208   2.620   3.878
17132SOL    HW162615   4.195   2.706   3.829
17132SOL    HW262616   4.282   2.631   3.945
17133SOL     OW62617   1.930   1.233   6.324
17133SOL    HW162618   2.006   1.264   6.381
17133SOL    HW262619   1.931   1.283   6.237
17134SOL     OW62620   5.331   0.864   4.700
17134SOL    HW162621   5.360   0.889   4.607
17134SOL    HW262622   5.387   0.787   4.732
17135SOL     OW62623   1.040   5.303   2.160
17135SOL    HW162624   0.992   5.266   2.081
17135SOL    HW262625   1.113   5.365   2.129
17136SOL     OW62626   1.935   6.745   1.380
17136SOL    HW162627   1.883   6.666   1.416
17136SOL    HW262628   1.871   6.817   1.355
17137SOL     OW62629   3.064   0.600   2.393
17137SOL    HW162630   3.148   0.617   2.342
17137SOL    HW262631   2.990   0.582   2.330
17138SOL     OW62632   3.583   0.986   1.631
17138SOL    HW162633   3.537   1.020   1.550
17138SOL    HW262634   3.545   0.897   1.657
17139SOL     OW62635   5.166   1.224   4.746
17139SOL    HW162636   5.079   1.271   4.752
17139SOL    HW262637   5.151   1.125   4.754
17140SOL     OW62638   1.193   0.333   2.290
17140SOL    HW162639   1.162   0.380   2.207
17140SOL    HW262640   1.116   0.285   2.331
17141SOL     OW62641   5.812   8.072   5.208
17141SOL    HW162642   5.874   8.135   5.255
17141SOL    HW262643   5.722   8.115   5.199
17142SOL     OW62644   2.709   5.997   0.774
17142SOL    HW162645   2.711   6.067   0.845
17142SOL    HW262646   2.681   6.039   0.687
17143SOL     OW62647   9.609   3.396   1.936
17143SOL    HW162648   9.591   3.344   2.020
17143SOL    HW262649   9.550   3.362   1.863
17144SOL     OW62650   9.211   7.137   4.517
17144SOL    HW162651   9.142   7.086   4.568
17144SOL    HW262652   9.167   7.184   4.440
17145SOL     OW62653   3.639   7.186   1.972
17145SOL    HW162654   3.683   7.117   2.030
17145SOL    HW262655   3.704   7.260   1.953
17146SOL     OW62656   7.512   0.020   5.216
17146SOL    HW162657   7.564   9.991   5.296
17146SOL    HW262658   7.531   9.959   5.140
17147SOL     OW62659   9.138   1.997   4.952
17147SOL    HW162660   9.115   2.084   4.995
17147SOL    HW262661   9.056   1.940   4.946
17148SOL     OW62662   8.042   3.878   4.472
17148SOL    HW162663   8.059   3.927   4.386
17148SOL    HW262664   8.129   3.860   4.517
17149SOL     OW62665   3.252   1.964   0.548
17149SOL    HW162666   3.316   1.888   0.532
17149SOL    HW262667   3.160   1.928   0.557
17150SOL     OW62668   2.539   1.915   0.938
17150SOL    HW162669   2.452   1.899   0.984
17150SOL    HW262670   2.527   1.902   0.839
17151SOL     OW62671   9.277   8.759   0.385
17151SOL    HW162672   9.315   8.844   0.423
17151SOL    HW262673   9.315   8.743   0.294
17152SOL     OW62674   2.341   5.229   3.988
17152SOL    HW162675   2.309   5.207   4.080
17152SOL    HW262676   2.394   5.314   3.990
17153SOL     OW62677   0.591   6.628   3.972
17153SOL    HW162678   0.491   6.628   3.972
17153SOL    HW262679   0.624   6.682   3.894
17154SOL     OW62680   9.544   4.745   2.706
17154SOL    HW162681   9.612   4.738   2.633
17154SOL    HW262682   9.452   4.740   2.667
17155SOL     OW62683   5.939   7.684   3.838
17155SOL    HW162684   5.843   7.698   3.817
17155SOL    HW262685   5.995   7.718   3.763
17156SOL     OW62686   5.674   0.110   3.425
17156SOL    HW162687   5.677   0.014   3.395
17156SOL    HW262688   5.650   0.114   3.522
17157SOL     OW62689   9.746   6.203   0.913
17157SOL    HW162690   9.822   6.265   0.897
17157SOL    HW262691   9.777   6.125   0.968
17158SOL     OW62692   9.993   2.717   5.093
17158SOL    HW162693   9.920   2.661   5.054
17158SOL    HW262694   9.988   2.714   5.193
17159SOL     OW62695   8.152   6.355   2.801
17159SOL    HW162696   8.173   6.433   2.860
17159SOL    HW262697   8.116   6.280   2.857
17160SOL     OW62698   5.063   3.580   0.698
17160SOL    HW162699   5.011   3.617   0.775
17160SOL    HW262700   5.061   3.643   0.621
17161SOL     OW62701   0.509   1.174   4.776
17161SOL    HW162702   0.508   1.264   4.734
17161SOL    HW262703   0.469   1.179   4.868
17162SOL     OW62704   9.897   1.710   1.581
17162SOL    HW162705   9.968   1.725   1.650
17162SOL    HW262706   9.877   1.612   1.574
17163SOL     OW62707   8.986   2.947   3.756
17163SOL    HW162708   9.011   2.973   3.663
17163SOL    HW262709   9.068   2.939   3.812
17164SOL     OW62710   3.919   5.438   6.313
17164SOL    HW162711   3.875   5.433   6.223
17164SOL    HW262712   3.980   5.359   6.325
17165SOL     OW62713   1.411   2.212   4.234
17165SOL    HW162714   1.323   2.189   4.193
17165SOL    HW262715   1.453   2.129   4.272
17166SOL     OW62716   0.610   0.449   1.045
17166SOL    HW162717   0.689   0.510   1.035
17166SOL    HW262718   0.637   0.369   1.099
17167SOL     OW62719   9.820   1.810   1.339
17167SOL    HW162720   9.749   1.756   1.293
17167SOL    HW262721   9.834   1.776   1.431
17168SOL     OW62722   0.276   3.915   1.618
17168SOL    HW162723   0.338   3.908   1.540
17168SOL    HW262724   0.311   3.983   1.682
17169SOL     OW62725   9.875   3.234   4.632
17169SOL    HW162726   9.903   3.290   4.554
17169SOL    HW262727   9.782   3.201   4.618
17170SOL     OW62728   9.720   7.045   0.830
17170SOL    HW162729   9.743   6.987   0.753
17170SOL    HW262730   9.783   7.123   0.834
17171SOL     OW62731   1.600   9.042   4.323
17171SOL    HW162732   1.504   9.014   4.329
17171SOL    HW262733   1.649   8.981   4.260
17172SOL     OW62734   0.108   1.980   5.862
17172SOL    HW162735   0.059   1.894   5.873
17172SOL    HW262736   0.202   1.969   5.895
17173SOL     OW62737   0.307   0.333   1.855
17173SOL    HW162738   0.208   0.344   1.844
17173SOL    HW262739   0.331   0.350   1.951
17174SOL     OW62740   9.427   4.927   4.773
17174SOL    HW162741   9.373   4.883   4.701
17174SOL    HW262742   9.453   4.859   4.842
17175SOL     OW62743   9.279   8.585   5.284
17175SOL    HW162744   9.252   8.506   5.228
17175SOL    HW262745   9.219   8.662   5.263
17176SOL     OW62746   5.824   1.518   1.992
17176SOL    HW162747   5.732   1.535   1.956
17176SOL    HW262748   5.825   1.535   2.090
17177SOL     OW62749   1.116   9.557   0.646
17177SOL    HW162750   1.142   9.480   0.590
17177SOL    HW262751   1.158   9.641   0.610
17178SOL     OW62752   0.296   5.552   4.420
17178SOL    HW162753   0.215   5.564   4.477
17178SOL    HW262754   0.276   5.488   4.346
17179SOL     OW62755   5.410   0.103   4.582
17179SOL    HW162756   5.362   0.131   4.665
17179SOL    HW262757   5.509   0.105   4.598
17180SOL     OW62758   1.509   4.365   1.786
17180SOL    HW162759   1.526   4.421   1.867
17180SOL    HW262760   1.588   4.370   1.725
17181SOL     OW62761   4.942   8.084   3.001
17181SOL    HW162762   4.886   8.039   3.070
17181SOL    HW262763   4.916   8.181   2.995
17182SOL     OW62764   7.741   2.569   2.767
17182SOL    HW162765   7.783   2.649   2.808
17182SOL    HW262766   7.780   2.553   2.676
17183SOL     OW62767   8.448   1.904   1.882
17183SOL    HW162768   8.487   1.906   1.790
17183SOL    HW262769   8.386   1.825   1.890
17184SOL     OW62770   4.841   4.864   0.928
17184SOL    HW162771   4.836   4.793   0.858
17184SOL    HW262772   4.857   4.822   1.017
17185SOL     OW62773   0.442   1.986   4.689
17185SOL    HW162774   0.516   1.985   4.622
17185SOL    HW262775   0.381   1.909   4.673
17186SOL     OW62776   2.905   8.332   6.124
17186SOL    HW162777   2.817   8.377   6.140
17186SOL    HW262778   2.973   8.400   6.095
17187SOL     OW62779   7.709   0.298   4.490
17187SOL    HW162780   7.717   0.274   4.393
17187SOL    HW262781   7.794   0.341   4.521
17188SOL     OW62782   1.457   4.066   2.928
17188SOL    HW162783   1.434   3.973   2.898
17188SOL    HW262784   1.506   4.061   3.015
17189SOL     OW62785   4.229   6.209   0.307
17189SOL    HW162786   4.189   6.292   0.346
17189SOL    HW262787   4.165   6.133   0.317
17190SOL     OW62788   8.668   3.366   0.660
17190SOL    HW162789   8.649   3.377   0.758
17190SOL    HW262790   8.627   3.280   0.628
17191SOL     OW62791   0.917   9.409   3.839
17191SOL    HW162792   0.865   9.324   3.838
17191SOL    HW262793   0.898   9.459   3.923
17192SOL     OW62794   7.706   4.978   6.000
17192SOL    HW162795   7.655   4.976   5.914
17192SOL    HW262796   7.681   4.898   6.055
17193SOL     OW62797   1.051   6.840   1.277
17193SOL    HW162798   1.091   6.783   1.349
17193SOL    HW262799   0.988   6.905   1.318
17194SOL     OW62800   8.622   0.563   4.834
17194SOL    HW162801   8.718   0.540   4.850
17194SOL    HW262802   8.614   0.658   4.805
17195SOL     OW62803   9.714   0.790   4.281
17195SOL    HW162804   9.758   0.735   4.210
17195SOL    HW262805   9.657   0.860   4.238
17196SOL     OW62806   3.436   0.170   5.803
17196SOL    HW162807   3.337   0.175   5.789
17196SOL    HW262808   3.478   0.256   5.774
17197SOL     OW62809   5.901   9.546   3.716
17197SOL    HW162810   5.934   9.529   3.809
17197SOL    HW262811   5.872   9.460   3.675
17198SOL     OW62812   9.343   4.570   0.315
17198SOL    HW162813   9.429   4.582   0.265
17198SOL    HW262814   9.359   4.511   0.394
17199SOL     OW62815   2.832   8.651   5.375
17199SOL    HW162816   2.804   8.740   5.339
17199SOL    HW262817   2.787   8.635   5.463
17200SOL     OW62818   1.349   7.481   0.659
17200SOL    HW162819   1.338   7.579   0.643
17200SOL    HW262820   1.268   7.433   0.624
17201SOL     OW62821   0.208   6.532   2.310
17201SOL    HW162822   0.237   6.562   2.401
17201SOL    HW262823   0.260   6.580   2.240
17202SOL     OW62824   8.835   7.553   5.932
17202SOL    HW162825   8.899   7.487   5.970
17202SOL    HW262826   8.885   7.629   5.891
17203SOL     OW62827   4.026   5.683   3.030
17203SOL    HW162828   4.031   5.718   3.124
17203SOL    HW262829   4.079   5.599   3.023
17204SOL     OW62830   6.146   0.465   2.472
17204SOL    HW162831   6.078   0.532   2.442
17204SOL    HW262832   6.125   0.437   2.566
17205SOL     OW62833   0.025   2.865   4.773
17205SOL    HW162834   0.098   2.842   4.838
17205SOL    HW262835   9.977   2.947   4.805
17206SOL     OW62836   2.159   3.980   3.941
17206SOL    HW162837   2.082   3.917   3.930
17206SOL    HW262838   2.160   4.015   4.035
17207SOL     OW62839   8.283   1.661   1.030
17207SOL    HW162840   8.255   1.690   1.121
17207SOL    HW262841   8.365   1.712   1.002
17208SOL     OW62842   9.976   9.637   2.701
17208SOL    HW162843   9.963   9.623   2.799
17208SOL    HW262844   9.980   9.548   2.656
17209SOL     OW62845   5.564   0.976   3.006
17209SOL    HW162846   5.544   1.072   2.986
17209SOL    HW262847   5.517   0.949   3.090
17210SOL     OW62848   3.083   6.097   0.386
17210SOL    HW162849   3.127   6.105   0.475
17210SOL    HW262850   3.147   6.057   0.321
17211SOL     OW62851   6.423   8.226   3.928
17211SOL    HW162852   6.398   8.198   3.835
17211SOL    HW262853   6.516   8.264   3.927
17212SOL     OW62854   7.924   1.566   0.399
17212SOL    HW162855   7.828   1.553   0.377
17212SOL    HW262856   7.953   1.499   0.467
17213SOL     OW62857   0.261   7.181   1.694
17213SOL    HW162858   0.327   7.105   1.686
17213SOL    HW262859   0.236   7.192   1.790
17214SOL     OW62860   8.250   5.327   2.240
17214SOL    HW162861   8.219   5.249   2.186
17214SOL    HW262862   8.181   5.350   2.308
17215SOL     OW62863   3.799   1.510   1.751
17215SOL    HW162864   3.798   1.605   1.781
17215SOL    HW262865   3.890   1.487   1.716
17216SOL     OW62866   1.482   8.042   1.601
17216SOL    HW162867   1.577   8.036   1.569
17216SOL    HW262868   1.481   8.061   1.699
17217SOL     OW62869   4.457   9.215   6.174
17217SOL    HW162870   4.439   9.277   6.098
17217SOL    HW262871   4.406   9.246   6.255
17218SOL     OW62872   4.305   3.157   1.361
17218SOL    HW162873   4.323   3.216   1.282
17218SOL    HW262874   4.392   3.133   1.405
17219SOL     OW62875   3.887   4.835   5.304
17219SOL    HW162876   3.813   4.902   5.311
17219SOL    HW262877   3.860   4.761   5.243
17220SOL     OW62878   0.038   8.355   0.524
17220SOL    HW162879   9.992   8.440   0.498
17220SOL    HW262880   9.997   8.319   0.608
17221SOL     OW62881   9.477   5.754   0.809
17221SOL    HW162882   9.438   5.837   0.767
17221SOL    HW262883   9.508   5.692   0.738
17222SOL     OW62884   1.110   5.184   3.996
17222SOL    HW162885   1.162   5.268   4.012
17222SOL    HW262886   1.167   5.104   4.018
17223SOL     OW62887   5.197   1.252   2.389
17223SOL    HW162888   5.295   1.233   2.390
17223SOL    HW262889   5.169   1.276   2.296
17224SOL     OW62890   5.051   2.820   5.361
17224SOL    HW162891   5.057   2.890   5.290
17224SOL    HW262892   5.115   2.746   5.342
17225SOL     OW62893   6.940   0.715   6.207
17225SOL    HW162894   6.863   0.665   6.169
17225SOL    HW262895   6.907   0.788   6.267
17226SOL     OW62896   9.095   1.011   4.119
17226SOL    HW162897   9.174   0.950   4.129
17226SOL    HW262898   9.075   1.055   4.206
17227SOL     OW62899   7.385   6.334   4.367
17227SOL    HW162900   7.362   6.390   4.287
17227SOL    HW262901   7.399   6.240   4.338
17228SOL     OW62902   8.296   7.861   2.738
17228SOL    HW162903   8.375   7.904   2.782
17228SOL    HW262904   8.255   7.926   2.673
17229SOL     OW62905   3.592   1.547   5.889
17229SOL    HW162906   3.603   1.455   5.927
17229SOL    HW262907   3.670   1.604   5.917
17230SOL     OW62908   5.024   5.525   1.741
17230SOL    HW162909   4.945   5.585   1.730
17230SOL    HW262910   5.012   5.469   1.823
17231SOL     OW62911   8.667   9.841   0.419
17231SOL    HW162912   8.730   9.824   0.495
17231SOL    HW262913   8.674   9.937   0.390
17232SOL     OW62914   6.232   1.740   0.385
17232SOL    HW162915   6.314   1.708   0.338
17232SOL    HW262916   6.155   1.679   0.364
17233SOL     OW62917   3.467   4.228   5.299
17233SOL    HW162918   3.554   4.181   5.287
17233SOL    HW262919   3.395   4.161   5.319
17234SOL     OW62920   5.706   4.224   1.174
17234SOL    HW162921   5.727   4.158   1.103
17234SOL    HW262922   5.611   4.254   1.164
17235SOL     OW62923   2.859   6.511   4.886
17235SOL    HW162924   2.785   6.492   4.950
17235SOL    HW262925   2.898   6.425   4.853
17236SOL     OW62926   5.552   1.547   1.934
17236SOL    HW162927   5.493   1.596   1.869
17236SOL    HW262928   5.515   1.557   2.026
17237SOL     OW62929   8.365   3.635   0.272
17237SOL    HW162930   8.293   3.642   0.342
17237SOL    HW262931   8.329   3.590   0.191
17238SOL     OW62932   3.175   2.370   1.229
17238SOL    HW162933   3.248   2.438   1.239
17238SOL    HW262934   3.140   2.345   1.319
17239SOL     OW62935   5.420   7.796   3.457
17239SOL    HW162936   5.519   7.810   3.466
17239SOL    HW262937   5.391   7.724   3.519
17240SOL     OW62938   5.904   5.808   1.528
17240SOL    HW162939   5.980   5.781   1.468
17240SOL    HW262940   5.836   5.858   1.475
17241SOL     OW62941   7.445   4.374   2.377
17241SOL    HW162942   7.357   4.404   2.416
17241SOL    HW262943   7.518   4.432   2.413
17242SOL     OW62944   2.796   1.316   0.564
17242SOL    HW162945   2.825   1.396   0.511
17242SOL    HW262946   2.716   1.275   0.521
17243SOL     OW62947   7.164   8.064   3.326
17243SOL    HW162948   7.177   8.119   3.244
17243SOL    HW262949   7.238   7.996   3.333
17244SOL     OW62950   6.653   4.532   1.395
17244SOL    HW162951   6.681   4.480   1.476
17244SOL    HW262952   6.734   4.568   1.349
17245SOL     OW62953   0.277   1.723   6.091
17245SOL    HW162954   0.187   1.683   6.108
17245SOL    HW262955   0.319   1.748   6.179
17246SOL     OW62956   3.541   8.557   0.100
17246SOL    HW162957   3.475   8.623   0.065
17246SOL    HW262958   3.575   8.500   0.024
17247SOL     OW62959   2.096   5.223   5.961
17247SOL    HW162960   2.131   5.190   6.049
17247SOL    HW262961   2.003   5.189   5.948
17248SOL     OW62962   8.095   4.814   5.614
17248SOL    HW162963   8.121   4.904   5.649
17248SOL    HW262964   8.080   4.751   5.691
17249SOL     OW62965   5.211   8.969   2.008
17249SOL    HW162966   5.147   9.022   1.953
17249SOL    HW262967   5.268   9.032   2.062
17250SOL     OW62968   1.109   4.471   1.206
17250SOL    HW162969   1.166   4.495   1.128
17250SOL    HW262970   1.015   4.456   1.175
17251SOL     OW62971   2.413   5.712   3.300
17251SOL    HW162972   2.318   5.719   3.328
17251SOL    HW262973   2.460   5.798   3.321
17252SOL     OW62974   0.371   5.900   6.110
17252SOL    HW162975   0.417   5.825   6.158
17252SOL    HW262976   0.329   5.961   6.177
17253SOL     OW62977   7.272   7.106   4.075
17253SOL    HW162978   7.290   7.201   4.049
17253SOL    HW262979   7.250   7.053   3.993
17254SOL     OW62980   9.170   1.937   0.108
17254SOL    HW162981   9.175   1.837   0.104
17254SOL    HW262982   9.074   1.965   0.100
17255SOL     OW62983   6.891   2.603   2.470
17255SOL    HW162984   6.977   2.554   2.453
17255SOL    HW262985   6.852   2.571   2.556
17256SOL     OW62986   8.776   0.283   4.689
17256SOL    HW162987   8.755   0.308   4.594
17256SOL    HW262988   8.702   0.227   4.725
17257SOL     OW62989   6.670   9.486   6.125
17257SOL    HW162990   6.613   9.420   6.075
17257SOL    HW262991   6.675   9.458   6.221
17258SOL     OW62992   2.434   6.466   3.423
17258SOL    HW162993   2.505   6.483   3.355
17258SOL    HW262994   2.473   6.478   3.515
17259SOL     OW62995   2.543   9.748   6.173
17259SOL    HW162996   2.492   9.822   6.217
17259SOL    HW262997   2.508   9.734   6.080
17260SOL     OW62998   5.327   2.896   0.483
17260SOL    HW162999   5.280   2.838   0.549
17260SOL    HW263000   5.411   2.933   0.525
17261SOL     OW63001   1.702   7.222   2.626
17261SOL    HW163002   1.752   7.308   2.620
17261SOL    HW263003   1.618   7.237   2.679
17262SOL     OW63004   6.014   4.886   0.039
17262SOL    HW163005   5.983   4.958   0.102
17262SOL    HW263006   5.977   4.903   8.136
17263SOL     OW63007   1.354   8.455   2.255
17263SOL    HW163008   1.285   8.421   2.191
17263SOL    HW263009   1.432   8.392   2.257
17264SOL     OW63010   0.277   3.666   4.751
17264SOL    HW163011   0.279   3.666   4.851
17264SOL    HW263012   0.274   3.760   4.718
17265SOL     OW63013   0.179   8.167   0.774
17265SOL    HW163014   0.231   8.197   0.854
17265SOL    HW263015   0.087   8.207   0.777
17266SOL     OW63016   3.834   2.834   4.699
17266SOL    HW163017   3.903   2.804   4.765
17266SOL    HW263018   3.849   2.787   4.612
17267SOL     OW63019   2.049   4.155   5.905
17267SOL    HW163020   1.955   4.135   5.933
17267SOL    HW263021   2.048   4.231   5.839
17268SOL     OW63022   8.703   9.168   0.077
17268SOL    HW163023   8.626   9.183   0.139
17268SOL    HW263024   8.669   9.157   8.172
17269SOL     OW63025   3.316   7.268   3.970
17269SOL    HW163026   3.348   7.252   4.063
17269SOL    HW263027   3.277   7.360   3.963
17270SOL     OW63028   3.520   1.141   1.852
17270SOL    HW163029   3.556   1.088   1.775
17270SOL    HW263030   3.433   1.102   1.882
17271SOL     OW63031   0.007   7.578   3.754
17271SOL    HW163032   0.089   7.536   3.792
17271SOL    HW263033   0.031   7.628   3.670
17272SOL     OW63034   0.055   7.293   2.806
17272SOL    HW163035   0.002   7.254   2.731
17272SOL    HW263036   0.090   7.220   2.864
17273SOL     OW63037   4.999   0.649   3.606
17273SOL    HW163038   4.918   0.691   3.565
17273SOL    HW263039   5.060   0.618   3.533
17274SOL     OW63040   1.082   1.503   0.206
17274SOL    HW163041   1.039   1.563   0.273
17274SOL    HW263042   1.125   1.426   0.253
17275SOL     OW63043   8.117   1.571   1.666
17275SOL    HW163044   8.076   1.654   1.629
17275SOL    HW263045   8.050   1.497   1.665
17276SOL     OW63046   9.623   0.593   1.108
17276SOL    HW163047   9.715   0.554   1.095
17276SOL    HW263048   9.580   0.607   1.018
17277SOL     OW63049   8.302   2.916   3.678
17277SOL    HW163050   8.280   2.992   3.617
17277SOL    HW263051   8.275   2.829   3.636
17278SOL     OW63052   2.166   5.402   4.785
17278SOL    HW163053   2.148   5.458   4.704
17278SOL    HW263054   2.080   5.380   4.831
17279SOL     OW63055   8.201   6.482   3.210
17279SOL    HW163056   8.216   6.520   3.119
17279SOL    HW263057   8.106   6.499   3.238
17280SOL     OW63058   8.823   5.711   4.757
17280SOL    HW163059   8.801   5.656   4.676
17280SOL    HW263060   8.914   5.751   4.745
17281SOL     OW63061   8.859   0.607   5.110
17281SOL    HW163062   8.789   0.573   5.174
17281SOL    HW263063   8.858   0.552   5.027
17282SOL     OW63064   6.555   2.249   1.441
17282SOL    HW163065   6.543   2.318   1.513
17282SOL    HW263066   6.563   2.158   1.483
17283SOL     OW63067   9.493   8.727   1.727
17283SOL    HW163068   9.440   8.647   1.698
17283SOL    HW263069   9.568   8.743   1.663
17284SOL     OW63070   3.063   5.771   1.302
17284SOL    HW163071   3.153   5.727   1.301
17284SOL    HW263072   3.038   5.796   1.208
17285SOL     OW63073   8.177   7.994   2.516
17285SOL    HW163074   8.102   8.036   2.464
17285SOL    HW263075   8.175   7.895   2.502
17286SOL     OW63076   1.270   8.891   3.188
17286SOL    HW163077   1.296   8.805   3.231
17286SOL    HW263078   1.289   8.886   3.090
17287SOL     OW63079   3.995   4.726   3.145
17287SOL    HW163080   4.057   4.658   3.105
17287SOL    HW263081   3.928   4.754   3.076
17288SOL     OW63082   9.685   2.365   3.291
17288SOL    HW163083   9.757   2.322   3.236
17288SOL    HW263084   9.654   2.449   3.246
17289SOL     OW63085   8.413   9.701   4.373
17289SOL    HW163086   8.336   9.704   4.436
17289SOL    HW263087   8.460   9.789   4.373
17290SOL     OW63088   4.145   3.566   3.176
17290SOL    HW163089   4.184   3.490   3.124
17290SOL    HW263090   4.169   3.557   3.272
17291SOL     OW63091   9.375   0.019   1.611
17291SOL    HW163092   9.384   0.117   1.624
17291SOL    HW263093   9.278   9.995   1.601
17292SOL     OW63094   0.356   8.111   2.183
17292SOL    HW163095   0.297   8.048   2.233
17292SOL    HW263096   0.397   8.064   2.105
17293SOL     OW63097   0.166   4.590   1.575
17293SOL    HW163098   0.224   4.588   1.493
17293SOL    HW263099   0.074   4.621   1.551
17294SOL     OW63100   0.514   1.447   4.698
17294SOL    HW163101   0.449   1.497   4.641
17294SOL    HW263102   0.606   1.460   4.663
17295SOL     OW63103   4.712   5.755   3.516
17295SOL    HW163104   4.797   5.770   3.466
17295SOL    HW263105   4.652   5.835   3.506
17296SOL     OW63106   4.261   9.369   2.469
17296SOL    HW163107   4.260   9.311   2.551
17296SOL    HW263108   4.174   9.419   2.464
17297SOL     OW63109   1.676   4.764   5.805
17297SOL    HW163110   1.669   4.699   5.729
17297SOL    HW263111   1.624   4.847   5.783
17298SOL     OW63112   2.372   2.325   1.812
17298SOL    HW163113   2.360   2.254   1.882
17298SOL    HW263114   2.409   2.407   1.855
17299SOL     OW63115   2.382   3.488   4.397
17299SOL    HW163116   2.308   3.449   4.342
17299SOL    HW263117   2.395   3.432   4.479
17300SOL     OW63118   2.402   9.429   5.357
17300SOL    HW163119   2.481   9.373   5.380
17300SOL    HW263120   2.402   9.447   5.258
17301SOL     OW63121   7.098   3.105   1.830
17301SOL    HW163122   7.165   3.135   1.762
17301SOL    HW263123   7.095   3.005   1.831
17302SOL     OW63124   6.739   8.082   3.348
17302SOL    HW163125   6.666   8.104   3.284
17302SOL    HW263126   6.755   8.160   3.409
17303SOL     OW63127   3.831   6.899   3.949
17303SOL    HW163128   3.825   6.862   4.041
17303SOL    HW263129   3.740   6.929   3.919
17304SOL     OW63130   2.409   9.634   0.435
17304SOL    HW163131   2.442   9.727   0.454
17304SOL    HW263132   2.333   9.613   0.497
17305SOL     OW63133   3.615   5.842   4.352
17305SOL    HW163134   3.695   5.812   4.300
17305SOL    HW263135   3.639   5.922   4.407
17306SOL     OW63136   0.161   6.417   3.915
17306SOL    HW163137   0.068   6.428   3.882
17306SOL    HW263138   0.212   6.357   3.853
17307SOL     OW63139   9.968   8.283   5.212
17307SOL    HW163140   9.875   8.294   5.247
17307SOL    HW263141   0.030   8.343   5.264
17308SOL     OW63142   1.751   5.457   5.991
17308SOL    HW163143   1.715   5.364   5.985
17308SOL    HW263144   1.732   5.494   6.081
17309SOL     OW63145   8.134   0.891   3.274
17309SOL    HW163146   8.048   0.935   3.246
17309SOL    HW263147   8.164   0.829   3.201
17310SOL     OW63148   0.023   6.520   4.935
17310SOL    HW163149   9.924   6.526   4.950
17310SOL    HW263150   0.057   6.435   4.974
17311SOL     OW63151   6.885   7.409   4.156
17311SOL    HW163152   6.794   7.386   4.193
17311SOL    HW263153   6.955   7.390   4.225
17312SOL     OW63154   6.681   1.682   1.079
17312SOL    HW163155   6.775   1.686   1.047
17312SOL    HW263156   6.628   1.756   1.037
17313SOL     OW63157   8.943   0.016   2.189
17313SOL    HW163158   8.889   9.970   2.259
17313SOL    HW263159   9.002   0.085   2.233
17314SOL     OW63160   7.528   8.065   3.742
17314SOL    HW163161   7.599   8.000   3.767
17314SOL    HW263162   7.439   8.033   3.776
17315SOL     OW63163   4.404   6.311   1.149
17315SOL    HW163164   4.471   6.268   1.089
17315SOL    HW263165   4.318   6.260   1.145
17316SOL     OW63166   9.099   9.021   0.388
17316SOL    HW163167   9.186   8.995   0.429
17316SOL    HW263168   9.101   8.999   0.290
17317SOL     OW63169   9.772   3.603   2.226
17317SOL    HW163170   9.859   3.584   2.180
17317SOL    HW263171   9.789   3.657   2.308
17318SOL     OW63172   4.156   9.204   3.037
17318SOL    HW163173   4.185   9.184   3.130
17318SOL    HW263174   4.122   9.298   3.032
17319SOL     OW63175   1.342   1.555   4.700
17319SOL    HW163176   1.299   1.497   4.631
17319SOL    HW263177   1.340   1.507   4.788
17320SOL     OW63178   8.676   8.968   4.918
17320SOL    HW163179   8.579   8.991   4.919
17320SOL    HW263180   8.687   8.869   4.906
17321SOL     OW63181   2.464   2.783   4.294
17321SOL    HW163182   2.490   2.874   4.259
17321SOL    HW263183   2.547   2.732   4.318
17322SOL     OW63184   9.251   3.394   2.733
17322SOL    HW163185   9.251   3.441   2.822
17322SOL    HW263186   9.173   3.426   2.679
17323SOL     OW63187   1.047   4.534   1.662
17323SOL    HW163188   1.043   4.626   1.699
17323SOL    HW263189   0.977   4.477   1.707
17324SOL     OW63190   0.164   5.459   0.933
17324SOL    HW163191   0.098   5.459   1.008
17324SOL    HW263192   0.117   5.480   0.847
17325SOL     OW63193   9.227   7.411   1.975
17325SOL    HW163194   9.282   7.376   2.051
17325SOL    HW263195   9.130   7.394   1.994
17326SOL     OW63196   7.443   3.828   3.441
17326SOL    HW163197   7.368   3.791   3.496
17326SOL    HW263198   7.423   3.815   3.344
17327SOL     OW63199   5.784   8.583   4.735
17327SOL    HW163200   5.858   8.538   4.686
17327SOL    HW263201   5.698   8.566   4.688
17328SOL     OW63202   0.380   1.915   5.921
17328SOL    HW163203   0.347   1.847   5.986
17328SOL    HW263204   0.467   1.953   5.953
17329SOL     OW63205   9.395   1.290   6.155
17329SOL    HW163206   9.454   1.249   6.225
17329SOL    HW263207   9.415   1.387   6.148
17330SOL     OW63208   1.976   1.206   2.981
17330SOL    HW163209   2.017   1.116   2.972
17330SOL    HW263210   1.879   1.197   3.003
17331SOL     OW63211   7.647   8.982   4.933
17331SOL    HW163212   7.646   8.949   5.027
17331SOL    HW263213   7.734   9.027   4.914
17332SOL     OW63214   7.390   1.533   4.819
17332SOL    HW163215   7.413   1.463   4.886
17332SOL    HW263216   7.362   1.617   4.866
17333SOL     OW63217   9.095   3.897   0.682
17333SOL    HW163218   9.050   3.960   0.745
17333SOL    HW263219   9.182   3.937   0.653
17334SOL     OW63220   1.919   5.954   4.714
17334SOL    HW163221   1.890   5.879   4.655
17334SOL    HW263222   2.018   5.950   4.727
17335SOL     OW63223   3.462   9.222   1.590
17335SOL    HW163224   3.463   9.151   1.520
17335SOL    HW263225   3.546   9.217   1.644
17336SOL     OW63226   7.987   7.495   2.538
17336SOL    HW163227   7.897   7.535   2.521
17336SOL    HW263228   7.985   7.399   2.510
17337SOL     OW63229   6.719   7.834   4.199
17337SOL    HW163230   6.637   7.779   4.218
17337SOL    HW263231   6.702   7.928   4.227
17338SOL     OW63232   1.154   5.760   2.312
17338SOL    HW163233   1.220   5.813   2.366
17338SOL    HW263234   1.171   5.776   2.215
17339SOL     OW63235   1.892   6.517   0.945
17339SOL    HW163236   1.978   6.546   0.988
17339SOL    HW263237   1.900   6.523   0.846
17340SOL     OW63238   0.219   3.421   3.232
17340SOL    HW163239   0.173   3.395   3.147
17340SOL    HW263240   0.288   3.491   3.213
17341SOL     OW63241   1.119   1.824   3.700
17341SOL    HW163242   1.168   1.754   3.649
17341SOL    HW263243   1.054   1.870   3.640
17342SOL     OW63244   4.414   0.869   5.288
17342SOL    HW163245   4.367   0.809   5.224
17342SOL    HW263246   4.450   0.815   5.364
17343SOL     OW63247   3.176   1.101   6.088
17343SOL    HW163248   3.130   1.082   6.175
17343SOL    HW263249   3.241   1.175   6.101
17344SOL     OW63250   8.356   6.950   3.781
17344SOL    HW163251   8.279   7.010   3.761
17344SOL    HW263252   8.322   6.862   3.813
17345SOL     OW63253   9.992   5.827   4.503
17345SOL    HW163254   0.054   5.904   4.515
17345SOL    HW263255   0.038   5.742   4.529
17346SOL     OW63256   5.092   2.061   4.796
17346SOL    HW163257   5.117   2.135   4.860
17346SOL    HW263258   5.117   1.973   4.836
17347SOL     OW63259   9.752   4.387   5.495
17347SOL    HW163260   9.668   4.335   5.505
17347SOL    HW263261   9.785   4.413   5.586
17348SOL     OW63262   9.360   4.929   5.257
17348SOL    HW163263   9.291   4.932   5.329
17348SOL    HW263264   9.316   4.935   5.167
17349SOL     OW63265   6.468   2.703   4.170
17349SOL    HW163266   6.443   2.606   4.173
17349SOL    HW263267   6.464   2.741   4.263
17350SOL     OW63268   3.662   1.852   2.315
17350SOL    HW163269   3.660   1.845   2.414
17350SOL    HW263270   3.590   1.795   2.275
17351SOL     OW63271   1.682   2.642   6.092
17351SOL    HW163272   1.771   2.606   6.120
17351SOL    HW263273   1.678   2.646   5.992
17352SOL     OW63274   5.538   0.536   3.466
17352SOL    HW163275   5.618   0.476   3.478
17352SOL    HW263276   5.472   0.491   3.405
17353SOL     OW63277   2.450   4.875   0.723
17353SOL    HW163278   2.536   4.867   0.774
17353SOL    HW263279   2.460   4.831   0.634
17354SOL     OW63280   3.841   1.603   4.541
17354SOL    HW163281   3.751   1.647   4.544
17354SOL    HW263282   3.906   1.658   4.594
17355SOL     OW63283   5.508   0.430   1.232
17355SOL    HW163284   5.486   0.513   1.181
17355SOL    HW263285   5.604   0.406   1.214
17356SOL     OW63286   7.637   2.194   5.546
17356SOL    HW163287   7.688   2.279   5.557
17356SOL    HW263288   7.648   2.138   5.628
17357SOL     OW63289   4.805   9.984   2.459
17357SOL    HW163290   4.891   9.996   2.409
17357SOL    HW263291   4.809   0.034   2.545
17358SOL     OW63292   8.618   6.581   4.182
17358SOL    HW163293   8.569   6.535   4.109
17358SOL    HW263294   8.612   6.528   4.266
17359SOL     OW63295   0.202   7.227   1.960
17359SOL    HW163296   0.135   7.183   2.019
17359SOL    HW263297   0.288   7.238   2.010
17360SOL     OW63298   4.112   7.937   0.951
17360SOL    HW163299   4.120   7.848   0.995
17360SOL    HW263300   4.200   7.985   0.957
17361SOL     OW63301   8.887   6.657   2.585
17361SOL    HW163302   8.866   6.699   2.673
17361SOL    HW263303   8.970   6.602   2.593
17362SOL     OW63304   7.316   9.378   5.482
17362SOL    HW163305   7.390   9.352   5.544
17362SOL    HW263306   7.350   9.444   5.415
17363SOL     OW63307   8.588   8.193   2.124
17363SOL    HW163308   8.550   8.183   2.032
17363SOL    HW263309   8.514   8.217   2.188
17364SOL     OW63310   1.778   2.440   0.991
17364SOL    HW163311   1.690   2.444   0.943
17364SOL    HW263312   1.817   2.532   0.996
17365SOL     OW63313   6.993   2.381   2.157
17365SOL    HW163314   6.904   2.402   2.198
17365SOL    HW263315   6.987   2.296   2.105
17366SOL     OW63316   3.057   6.442   3.301
17366SOL    HW163317   3.137   6.501   3.308
17366SOL    HW263318   2.988   6.471   3.367
17367SOL     OW63319   7.479   3.499   3.228
17367SOL    HW163320   7.486   3.430   3.156
17367SOL    HW263321   7.527   3.468   3.310
17368SOL     OW63322   8.166   9.445   0.541
17368SOL    HW163323   8.116   9.485   0.617
17368SOL    HW263324   8.110   9.373   0.498
17369SOL     OW63325   0.008   0.581   0.606
17369SOL    HW163326   0.072   0.528   0.549
17369SOL    HW263327   0.039   0.580   0.701
17370SOL     OW63328   3.631   1.852   4.322
17370SOL    HW163329   3.551   1.885   4.272
17370SOL    HW263330   3.602   1.811   4.408
17371SOL     OW63331   7.862   0.589   3.972
17371SOL    HW163332   7.867   0.615   3.876
17371SOL    HW263333   7.888   0.493   3.982
17372SOL     OW63334   8.847   9.053   0.486
17372SOL    HW163335   8.935   9.037   0.443
17372SOL    HW263336   8.774   9.016   0.429
17373SOL     OW63337   8.553   9.946   4.378
17373SOL    HW163338   8.531   0.025   4.435
17373SOL    HW263339   8.644   9.911   4.404
17374SOL     OW63340   1.891   3.511   2.083
17374SOL    HW163341   1.887   3.609   2.105
17374SOL    HW263342   1.910   3.459   2.167
17375SOL     OW63343   8.519   4.082   1.136
17375SOL    HW163344   8.540   4.179   1.123
17375SOL    HW263345   8.447   4.074   1.205
17376SOL     OW63346   8.491   4.534   5.921
17376SOL    HW163347   8.436   4.452   5.904
17376SOL    HW263348   8.583   4.519   5.884
17377SOL     OW63349   9.899   9.832   5.931
17377SOL    HW163350   9.876   9.820   6.027
17377SOL    HW263351   9.939   9.922   5.917
17378SOL     OW63352   8.255   0.960   4.991
17378SOL    HW163353   8.270   0.908   4.907
17378SOL    HW263354   8.282   1.055   4.977
17379SOL     OW63355   0.935   8.592   1.234
17379SOL    HW163356   0.895   8.542   1.157
17379SOL    HW263357   1.034   8.597   1.222
17380SOL     OW63358   8.652   0.710   2.363
17380SOL    HW163359   8.722   0.722   2.292
17380SOL    HW263360   8.637   0.798   2.409
17381SOL     OW63361   7.412   0.533   3.165
17381SOL    HW163362   7.483   0.505   3.101
17381SOL    HW263363   7.402   0.464   3.237
17382SOL     OW63364   2.046   5.193   3.007
17382SOL    HW163365   2.114   5.154   2.946
17382SOL    HW263366   2.056   5.152   3.098
17383SOL     OW63367   5.481   2.794   0.863
17383SOL    HW163368   5.564   2.827   0.908
17383SOL    HW263369   5.500   2.774   0.767
17384SOL     OW63370   6.117   4.542   0.736
17384SOL    HW163371   6.185   4.474   0.761
17384SOL    HW263372   6.152   4.634   0.755
17385SOL     OW63373   2.899   0.109   4.922
17385SOL    HW163374   2.962   0.177   4.959
17385SOL    HW263375   2.948   0.022   4.908
17386SOL     OW63376   3.100   2.289   1.477
17386SOL    HW163377   3.011   2.314   1.516
17386SOL    HW263378   3.168   2.286   1.549
17387SOL     OW63379   4.521   5.572   3.112
17387SOL    HW163380   4.495   5.486   3.067
17387SOL    HW263381   4.451   5.641   3.093
17388SOL     OW63382   0.462   4.587   4.817
17388SOL    HW163383   0.411   4.523   4.759
17388SOL    HW263384   0.559   4.565   4.813
17389SOL     OW63385   4.934   2.407   1.136
17389SOL    HW163386   4.902   2.335   1.199
17389SOL    HW263387   4.915   2.380   1.042
17390SOL     OW63388   0.310   9.727   3.800
17390SOL    HW163389   0.304   9.780   3.885
17390SOL    HW263390   0.385   9.662   3.806
17391SOL     OW63391   3.907   9.357   5.186
17391SOL    HW163392   3.856   9.365   5.271
17391SOL    HW263393   3.984   9.421   5.187
17392SOL     OW63394   8.166   9.394   1.832
17392SOL    HW163395   8.107   9.417   1.754
17392SOL    HW263396   8.260   9.421   1.812
17393SOL     OW63397   3.082   4.797   3.436
17393SOL    HW163398   3.015   4.843   3.494
17393SOL    HW263399   3.131   4.864   3.380
17394SOL     OW63400   8.757   5.488   1.795
17394SOL    HW163401   8.678   5.428   1.810
17394SOL    HW263402   8.759   5.559   1.865
17395SOL     OW63403   8.966   1.960   4.495
17395SOL    HW163404   9.027   1.970   4.417
17395SOL    HW263405   8.941   2.051   4.529
17396SOL     OW63406   0.316   4.105   5.008
17396SOL    HW163407   0.324   4.114   5.107
17396SOL    HW263408   0.255   4.029   4.986
17397SOL     OW63409   7.111   2.153   0.657
17397SOL    HW163410   7.023   2.172   0.699
17397SOL    HW263411   7.180   2.214   0.696
17398SOL     OW63412   7.383   2.082   5.517
17398SOL    HW163413   7.469   2.131   5.532
17398SOL    HW263414   7.404   1.992   5.477
17399SOL     OW63415   3.232   2.529   3.480
17399SOL    HW163416   3.291   2.496   3.407
17399SOL    HW263417   3.231   2.463   3.555
17400SOL     OW63418   0.105   6.562   2.829
17400SOL    HW163419   0.068   6.525   2.744
17400SOL    HW263420   0.137   6.487   2.887
17401SOL     OW63421   8.849   0.441   5.479
17401SOL    HW163422   8.779   0.443   5.409
17401SOL    HW263423   8.901   0.356   5.473
17402SOL     OW63424   3.219   6.912   0.882
17402SOL    HW163425   3.161   6.965   0.944
17402SOL    HW263426   3.178   6.912   0.790
17403SOL     OW63427   8.817   2.606   3.201
17403SOL    HW163428   8.741   2.642   3.147
17403SOL    HW263429   8.796   2.512   3.229
17404SOL     OW63430   7.220   4.460   2.508
17404SOL    HW163431   7.203   4.406   2.591
17404SOL    HW263432   7.146   4.444   2.443
17405SOL     OW63433   5.339   1.752   4.327
17405SOL    HW163434   5.321   1.727   4.231
17405SOL    HW263435   5.254   1.786   4.369
17406SOL     OW63436   2.721   9.484   0.987
17406SOL    HW163437   2.715   9.567   1.042
17406SOL    HW263438   2.741   9.508   0.892
17407SOL     OW63439   3.067   9.401   3.903
17407SOL    HW163440   3.001   9.364   3.968
17407SOL    HW263441   3.081   9.498   3.921
17408SOL     OW63442   1.757   2.915   0.762
17408SOL    HW163443   1.689   2.864   0.816
17408SOL    HW263444   1.711   2.986   0.709
17409SOL     OW63445   9.674   1.425   3.974
17409SOL    HW163446   9.637   1.467   3.891
17409SOL    HW263447   9.734   1.349   3.949
17410SOL     OW63448   6.298   7.429   5.615
17410SOL    HW163449   6.310   7.425   5.714
17410SOL    HW263450   6.247   7.512   5.591
17411SOL     OW63451   1.025   6.722   2.479
17411SOL    HW163452   1.097   6.687   2.418
17411SOL    HW263453   0.996   6.649   2.541
17412SOL     OW63454   4.076   1.817   4.997
17412SOL    HW163455   4.157   1.817   5.055
17412SOL    HW263456   4.064   1.908   4.957
17413SOL     OW63457   3.286   0.721   3.572
17413SOL    HW163458   3.373   0.676   3.552
17413SOL    HW263459   3.213   0.653   3.568
17414SOL     OW63460   8.676   5.222   1.304
17414SOL    HW163461   8.690   5.152   1.374
17414SOL    HW263462   8.736   5.299   1.321
17415SOL     OW63463   9.551   6.964   2.786
17415SOL    HW163464   9.548   7.043   2.848
17415SOL    HW263465   9.561   6.880   2.840
17416SOL     OW63466   1.850   5.546   0.929
17416SOL    HW163467   1.924   5.504   0.876
17416SOL    HW263468   1.775   5.481   0.938
17417SOL     OW63469   2.880   0.026   3.128
17417SOL    HW163470   2.810   0.096   3.114
17417SOL    HW263471   2.874   9.991   3.222
17418SOL     OW63472   8.305   2.629   4.061
17418SOL    HW163473   8.274   2.546   4.014
17418SOL    HW263474   8.399   2.648   4.034
17419SOL     OW63475   9.785   4.903   4.996
17419SOL    HW163476   9.806   4.829   4.932
17419SOL    HW263477   9.828   4.988   4.965
17420SOL     OW63478   1.809   9.130   0.533
17420SOL    HW163479   1.832   9.198   0.464
17420SOL    HW263480   1.868   9.142   0.613
17421SOL     OW63481   2.219   2.468   2.795
17421SOL    HW163482   2.264   2.435   2.712
17421SOL    HW263483   2.137   2.520   2.770
17422SOL     OW63484   5.432   4.370   0.833
17422SOL    HW163485   5.485   4.445   0.793
17422SOL    HW263486   5.431   4.380   0.933
17423SOL     OW63487   3.090   3.741   5.132
17423SOL    HW163488   3.092   3.644   5.109
17423SOL    HW263489   2.997   3.767   5.159
17424SOL     OW63490   7.786   3.363   5.868
17424SOL    HW163491   7.773   3.345   5.966
17424SOL    HW263492   7.705   3.334   5.818
17425SOL     OW63493   2.537   8.537   1.003
17425SOL    HW163494   2.467   8.530   1.074
17425SOL    HW263495   2.521   8.618   0.947
17426SOL     OW63496   4.106   8.629   3.762
17426SOL    HW163497   4.008   8.639   3.776
17426SOL    HW263498   4.154   8.644   3.849
17427SOL     OW63499   3.876   1.389   5.082
17427SOL    HW163500   3.874   1.452   5.160
17427SOL    HW263501   3.925   1.431   5.006
17428SOL     OW63502   3.184   9.500   3.126
17428SOL    HW163503   3.138   9.462   3.045
17428SOL    HW263504   3.133   9.579   3.159
17429SOL     OW63505   2.491   8.208   2.273
17429SOL    HW163506   2.458   8.226   2.366
17429SOL    HW263507   2.588   8.185   2.276
17430SOL     OW63508   0.421   9.873   0.417
17430SOL    HW163509   0.335   9.833   0.448
17430SOL    HW263510   0.404   9.964   0.380
17431SOL     OW63511   2.249   9.633   4.226
17431SOL    HW163512   2.232   9.548   4.177
17431SOL    HW263513   2.211   9.709   4.173
17432SOL     OW63514   0.895   2.572   3.055
17432SOL    HW163515   0.806   2.540   3.087
17432SOL    HW263516   0.967   2.528   3.108
17433SOL     OW63517   2.626   1.515   1.516
17433SOL    HW163518   2.612   1.570   1.599
17433SOL    HW263519   2.688   1.564   1.455
17434SOL     OW63520   8.723   8.741   4.022
17434SOL    HW163521   8.676   8.707   3.941
17434SOL    HW263522   8.733   8.840   4.015
17435SOL     OW63523   3.674   3.046   0.436
17435SOL    HW163524   3.600   2.992   0.476
17435SOL    HW263525   3.755   2.989   0.423
17436SOL     OW63526   9.160   6.994   4.908
17436SOL    HW163527   9.190   6.902   4.882
17436SOL    HW263528   9.228   7.036   4.969
17437SOL     OW63529   8.555   4.910   5.119
17437SOL    HW163530   8.546   4.862   5.032
17437SOL    HW263531   8.601   4.998   5.104
17438SOL     OW63532   4.851   0.038   3.196
17438SOL    HW163533   4.918   0.057   3.268
17438SOL    HW263534   4.784   0.111   3.192
17439SOL     OW63535   8.231   8.582   2.729
17439SOL    HW163536   8.208   8.485   2.740
17439SOL    HW263537   8.307   8.591   2.665
17440SOL     OW63538   1.347   9.650   6.175
17440SOL    HW163539   1.288   9.651   6.255
17440SOL    HW263540   1.443   9.661   6.203
17441SOL     OW63541   2.063   7.330   0.270
17441SOL    HW163542   2.112   7.347   0.356
17441SOL    HW263543   1.995   7.402   0.256
17442SOL     OW63544   5.618   9.890   4.146
17442SOL    HW163545   5.562   9.939   4.213
17442SOL    HW263546   5.701   9.943   4.128
17443SOL     OW63547   6.575   0.637   4.984
17443SOL    HW163548   6.578   0.701   4.908
17443SOL    HW263549   6.615   0.680   5.065
17444SOL     OW63550   2.745   0.546   0.541
17444SOL    HW163551   2.780   0.552   0.447
17444SOL    HW263552   2.669   0.610   0.552
17445SOL     OW63553   7.075   1.595   4.558
17445SOL    HW163554   7.033   1.511   4.590
17445SOL    HW263555   7.071   1.665   4.629
17446SOL     OW63556   1.042   5.418   4.226
17446SOL    HW163557   0.966   5.467   4.269
17446SOL    HW263558   1.094   5.369   4.296
17447SOL     OW63559   3.121   4.326   5.388
17447SOL    HW163560   3.181   4.368   5.320
17447SOL    HW263561   3.172   4.316   5.474
17448SOL     OW63562   2.327   0.182   1.174
17448SOL    HW163563   2.300   0.185   1.270
17448SOL    HW263564   2.353   0.273   1.143
17449SOL     OW63565   2.634   3.474   3.221
17449SOL    HW163566   2.554   3.532   3.240
17449SOL    HW263567   2.699   3.481   3.296
17450SOL     OW63568   0.318   9.682   1.694
17450SOL    HW163569   0.287   9.766   1.739
17450SOL    HW263570   0.413   9.665   1.719
17451SOL     OW63571   1.657   4.719   3.865
17451SOL    HW163572   1.657   4.711   3.964
17451SOL    HW263573   1.742   4.679   3.828
17452SOL     OW63574   2.013   1.154   1.242
17452SOL    HW163575   1.953   1.113   1.174
17452SOL    HW263576   2.016   1.096   1.323
17453SOL     OW63577   7.597   1.602   4.634
17453SOL    HW163578   7.675   1.561   4.683
17453SOL    HW263579   7.513   1.584   4.685
17454SOL     OW63580   1.597   4.227   2.753
17454SOL    HW163581   1.682   4.245   2.803
17454SOL    HW263582   1.540   4.164   2.806
17455SOL     OW63583   9.357   6.793   0.779
17455SOL    HW163584   9.424   6.722   0.756
17455SOL    HW263585   9.361   6.812   0.877
17456SOL     OW63586   7.546   1.959   4.386
17456SOL    HW163587   7.547   2.055   4.360
17456SOL    HW263588   7.557   1.903   4.303
17457SOL     OW63589   6.152   2.159   0.588
17457SOL    HW163590   6.095   2.231   0.549
17457SOL    HW263591   6.211   2.198   0.658
17458SOL     OW63592   1.712   7.760   4.430
17458SOL    HW163593   1.713   7.836   4.494
17458SOL    HW263594   1.735   7.675   4.478
17459SOL     OW63595   2.188   4.223   3.818
17459SOL    HW163596   2.180   4.208   3.719
17459SOL    HW263597   2.174   4.137   3.866
17460SOL     OW63598   7.281   2.950   2.809
17460SOL    HW163599   7.192   2.988   2.785
17460SOL    HW263600   7.271   2.855   2.838
17461SOL     OW63601   0.806   9.960   4.438
17461SOL    HW163602   0.834   0.012   4.358
17461SOL    HW263603   0.713   9.926   4.425
17462SOL     OW63604   1.691   1.018   5.368
17462SOL    HW163605   1.613   0.956   5.375
17462SOL    HW263606   1.677   1.081   5.291
17463SOL     OW63607   5.236   7.671   4.628
17463SOL    HW163608   5.328   7.644   4.655
17463SOL    HW263609   5.170   7.606   4.665
17464SOL     OW63610   2.987   6.217   0.976
17464SOL    HW163611   3.060   6.152   0.959
17464SOL    HW263612   3.025   6.309   0.980
17465SOL     OW63613   7.098   3.054   5.701
17465SOL    HW163614   7.102   2.954   5.698
17465SOL    HW263615   7.105   3.091   5.608
17466SOL     OW63616   3.923   9.589   2.829
17466SOL    HW163617   3.890   9.523   2.761
17466SOL    HW263618   3.925   9.680   2.787
17467SOL     OW63619   9.254   5.328   0.849
17467SOL    HW163620   9.198   5.248   0.867
17467SOL    HW263621   9.199   5.398   0.804
17468SOL     OW63622   2.498   3.754   4.976
17468SOL    HW163623   2.541   3.838   4.942
17468SOL    HW263624   2.527   3.676   4.920
17469SOL     OW63625   8.201   6.006   5.627
17469SOL    HW163626   8.207   6.085   5.688
17469SOL    HW263627   8.188   6.038   5.533
17470SOL     OW63628   3.363   2.568   1.272
17470SOL    HW163629   3.425   2.606   1.203
17470SOL    HW263630   3.407   2.572   1.362
17471SOL     OW63631   0.346   9.876   3.571
17471SOL    HW163632   0.335   9.817   3.651
17471SOL    HW263633   0.367   9.969   3.601
17472SOL     OW63634   1.098   5.988   4.322
17472SOL    HW163635   1.195   6.007   4.311
17472SOL    HW263636   1.072   6.000   4.418
17473SOL     OW63637   8.501   6.527   2.891
17473SOL    HW163638   8.553   6.442   2.880
17473SOL    HW263639   8.502   6.578   2.805
17474SOL     OW63640   2.686   3.088   1.025
17474SOL    HW163641   2.599   3.038   1.025
17474SOL    HW263642   2.757   3.029   0.987
17475SOL     OW63643   3.094   1.675   0.844
17475SOL    HW163644   3.026   1.748   0.833
17475SOL    HW263645   3.116   1.664   0.941
17476SOL     OW63646   6.091   1.525   4.007
17476SOL    HW163647   6.125   1.538   4.100
17476SOL    HW263648   6.003   1.476   4.010
17477SOL     OW63649   3.471   7.124   5.460
17477SOL    HW163650   3.439   7.214   5.432
17477SOL    HW263651   3.480   7.065   5.380
17478SOL     OW63652   5.835   8.986   6.260
17478SOL    HW163653   5.842   8.889   6.235
17478SOL    HW263654   5.791   9.036   6.185
17479SOL     OW63655   9.922   7.455   3.155
17479SOL    HW163656   9.847   7.400   3.117
17479SOL    HW263657   9.963   7.405   3.232
17480SOL     OW63658   9.333   0.922   3.093
17480SOL    HW163659   9.282   0.911   3.008
17480SOL    HW263660   9.297   1.001   3.143
17481SOL     OW63661   1.844   5.841   1.988
17481SOL    HW163662   1.937   5.877   1.986
17481SOL    HW263663   1.785   5.899   1.932
17482SOL     OW63664   1.619   5.212   6.010
17482SOL    HW163665   1.540   5.193   5.952
17482SOL    HW263666   1.591   5.208   6.106
17483SOL     OW63667   9.530   5.092   4.579
17483SOL    HW163668   9.497   5.038   4.656
17483SOL    HW263669   9.517   5.189   4.599
17484SOL     OW63670   3.992   6.980   1.105
17484SOL    HW163671   4.057   6.984   1.181
17484SOL    HW263672   4.008   6.896   1.053
17485SOL     OW63673   9.076   0.470   0.663
17485SOL    HW163674   8.976   0.469   0.677
17485SOL    HW263675   9.112   0.559   0.691
17486SOL     OW63676   7.518   3.058   1.421
17486SOL    HW163677   7.420   3.076   1.415
17486SOL    HW263678   7.566   3.104   1.346
17487SOL     OW63679   1.551   3.065   2.922
17487SOL    HW163680   1.583   3.046   3.015
17487SOL    HW263681   1.460   3.106   2.926
17488SOL     OW63682   8.684   8.522   6.240
17488SOL    HW163683   8.743   8.520   6.321
17488SOL    HW263684   8.729   8.572   6.167
17489SOL     OW63685   8.321   9.590   2.220
17489SOL    HW163686   8.362   9.629   2.137
17489SOL    HW263687   8.306   9.662   2.287
17490SOL     OW63688   0.778   1.745   2.853
17490SOL    HW163689   0.800   1.842   2.852
17490SOL    HW263690   0.833   1.697   2.784
17491SOL     OW63691   5.504   2.137   4.940
17491SOL    HW163692   5.514   2.204   4.866
17491SOL    HW263693   5.414   2.147   4.982
17492SOL     OW63694   2.611   2.675   5.555
17492SOL    HW163695   2.614   2.584   5.597
17492SOL    HW263696   2.686   2.731   5.591
17493SOL     OW63697   8.430   0.268   1.040
17493SOL    HW163698   8.354   0.274   0.977
17493SOL    HW263699   8.448   0.359   1.079
17494SOL     OW63700   0.631   3.738   2.494
17494SOL    HW163701   0.539   3.714   2.463
17494SOL    HW263702   0.698   3.689   2.439
17495SOL     OW63703   1.191   4.669   4.258
17495SOL    HW163704   1.147   4.692   4.171
17495SOL    HW263705   1.131   4.694   4.334
17496SOL     OW63706   6.949   7.495   3.650
17496SOL    HW163707   6.960   7.508   3.748
17496SOL    HW263708   6.884   7.562   3.614
17497SOL     OW63709   7.838   1.677   2.336
17497SOL    HW163710   7.850   1.701   2.432
17497SOL    HW263711   7.921   1.633   2.302
17498SOL     OW63712   1.116   3.239   3.906
17498SOL    HW163713   1.069   3.151   3.905
17498SOL    HW263714   1.187   3.239   3.976
17499SOL     OW63715   6.824   2.292   1.388
17499SOL    HW163716   6.869   2.250   1.467
17499SOL    HW263717   6.726   2.299   1.406
17500SOL     OW63718   7.460   4.194   1.334
17500SOL    HW163719   7.372   4.241   1.328
17500SOL    HW263720   7.487   4.188   1.430
17501SOL     OW63721   7.494   5.252   0.729
17501SOL    HW163722   7.539   5.172   0.690
17501SOL    HW263723   7.423   5.284   0.667
17502SOL     OW63724   7.170   1.111   3.451
17502SOL    HW163725   7.223   1.108   3.536
17502SOL    HW263726   7.215   1.055   3.381
17503SOL     OW63727   9.091   9.989   6.469
17503SOL    HW163728   9.095   9.890   6.450
17503SOL    HW263729   9.036   0.033   6.398
17504SOL     OW63730   3.836   2.184   3.773
17504SOL    HW163731   3.760   2.234   3.814
17504SOL    HW263732   3.918   2.241   3.776
17505SOL     OW63733   6.270   1.591   2.778
17505SOL    HW163734   6.181   1.614   2.738
17505SOL    HW263735   6.267   1.608   2.876
17506SOL     OW63736   2.907   9.496   4.300
17506SOL    HW163737   2.888   9.440   4.219
17506SOL    HW263738   2.999   9.535   4.292
17507SOL     OW63739   0.066   9.789   5.267
17507SOL    HW163740   0.039   9.798   5.171
17507SOL    HW263741   0.164   9.774   5.272
17508SOL     OW63742   8.724   6.234   5.957
17508SOL    HW163743   8.682   6.207   5.871
17508SOL    HW263744   8.715   6.333   5.968
17509SOL     OW63745   5.528   6.195   1.166
17509SOL    HW163746   5.479   6.184   1.252
17509SOL    HW263747   5.464   6.222   1.094
17510SOL     OW63748   6.956   5.122   1.426
17510SOL    HW163749   6.945   5.221   1.428
17510SOL    HW263750   6.939   5.085   1.518
17511SOL     OW63751   2.161   9.541   3.289
17511SOL    HW163752   2.256   9.519   3.310
17511SOL    HW263753   2.139   9.630   3.328
17512SOL     OW63754   2.712   5.831   5.496
17512SOL    HW163755   2.671   5.824   5.405
17512SOL    HW263756   2.738   5.926   5.514
17513SOL     OW63757   2.694   4.403   4.629
17513SOL    HW163758   2.665   4.344   4.554
17513SOL    HW263759   2.668   4.498   4.609
17514SOL     OW63760   5.784   4.046   0.984
17514SOL    HW163761   5.745   4.062   0.894
17514SOL    HW263762   5.793   3.947   0.999
17515SOL     OW63763   9.754   0.500   5.042
17515SOL    HW163764   9.813   0.435   5.090
17515SOL    HW263765   9.714   0.454   4.962
17516SOL     OW63766   3.674   3.211   4.406
17516SOL    HW163767   3.678   3.206   4.505
17516SOL    HW263768   3.747   3.156   4.366
17517SOL     OW63769   8.593   2.767   2.801
17517SOL    HW163770   8.578   2.709   2.881
17517SOL    HW263771   8.632   2.855   2.830
17518SOL     OW63772   5.161   9.442   3.759
17518SOL    HW163773   5.167   9.457   3.857
17518SOL    HW263774   5.154   9.530   3.712
17519SOL     OW63775   8.839   8.759   2.111
17519SOL    HW163776   8.917   8.819   2.132
17519SOL    HW263777   8.846   8.676   2.167
17520SOL     OW63778   7.381   0.485   5.616
17520SOL    HW163779   7.317   0.504   5.691
17520SOL    HW263780   7.473   0.474   5.652
17521SOL     OW63781   9.480   1.193   2.865
17521SOL    HW163782   9.393   1.175   2.819
17521SOL    HW263783   9.514   1.108   2.906
17522SOL     OW63784   1.735   0.741   3.533
17522SOL    HW163785   1.702   0.675   3.466
17522SOL    HW263786   1.659   0.771   3.591
17523SOL     OW63787   8.236   8.770   6.153
17523SOL    HW163788   8.208   8.842   6.217
17523SOL    HW263789   8.331   8.744   6.171
17524SOL     OW63790   1.033   1.794   1.750
17524SOL    HW163791   1.106   1.809   1.817
17524SOL    HW263792   0.983   1.879   1.736
17525SOL     OW63793   4.213   5.692   3.891
17525SOL    HW163794   4.187   5.782   3.857
17525SOL    HW263795   4.290   5.657   3.837
17526SOL     OW63796   2.113   5.747   6.159
17526SOL    HW163797   2.074   5.692   6.085
17526SOL    HW263798   2.040   5.795   6.206
17527SOL     OW63799   4.109   5.391   2.733
17527SOL    HW163800   4.127   5.431   2.823
17527SOL    HW263801   4.094   5.292   2.743
17528SOL     OW63802   2.137   7.286   3.354
17528SOL    HW163803   2.138   7.228   3.436
17528SOL    HW263804   2.227   7.330   3.344
17529SOL     OW63805   3.371   9.490   4.147
17529SOL    HW163806   3.389   9.398   4.180
17529SOL    HW263807   3.420   9.506   4.061
17530SOL     OW63808   1.666   8.490   1.908
17530SOL    HW163809   1.577   8.507   1.867
17530SOL    HW263810   1.690   8.393   1.898
17531SOL     OW63811   6.556   3.914   0.332
17531SOL    HW163812   6.498   3.987   0.296
17531SOL    HW263813   6.512   3.872   0.411
17532SOL     OW63814   3.960   2.757   6.306
17532SOL    HW163815   3.959   2.857   6.298
17532SOL    HW263816   4.050   2.727   6.339
17533SOL     OW63817   5.435   3.260   4.259
17533SOL    HW163818   5.375   3.212   4.195
17533SOL    HW263819   5.443   3.209   4.344
17534SOL     OW63820   2.416   2.982   0.446
17534SOL    HW163821   2.361   2.924   0.386
17534SOL    HW263822   2.507   2.943   0.457
17535SOL     OW63823   2.271   4.079   0.156
17535SOL    HW163824   2.216   4.128   0.087
17535SOL    HW263825   2.254   4.119   0.246
17536SOL     OW63826   9.184   1.227   0.999
17536SOL    HW163827   9.116   1.158   0.973
17536SOL    HW263828   9.262   1.222   0.937
17537SOL     OW63829   2.465   7.982   3.923
17537SOL    HW163830   2.468   7.963   4.021
17537SOL    HW263831   2.445   8.079   3.909
17538SOL     OW63832   4.560   1.099   2.783
17538SOL    HW163833   4.540   1.001   2.778
17538SOL    HW263834   4.495   1.143   2.845
17539SOL     OW63835   0.385   0.133   0.338
17539SOL    HW163836   0.308   0.153   0.277
17539SOL    HW263837   0.460   0.197   0.319
17540SOL     OW63838   4.330   0.404   2.362
17540SOL    HW163839   4.244   0.406   2.414
17540SOL    HW263840   4.317   0.350   2.279
17541SOL     OW63841   8.747   0.703   3.007
17541SOL    HW163842   8.765   0.613   2.968
17541SOL    HW263843   8.833   0.753   3.016
17542SOL     OW63844   4.806   6.161   0.380
17542SOL    HW163845   4.775   6.256   0.376
17542SOL    HW263846   4.751   6.106   0.317
17543SOL     OW63847   0.432   7.684   4.460
17543SOL    HW163848   0.496   7.756   4.488
17543SOL    HW263849   0.375   7.658   4.537
17544SOL     OW63850   7.967   2.373   3.513
17544SOL    HW163851   8.063   2.397   3.500
17544SOL    HW263852   7.933   2.328   3.431
17545SOL     OW63853   0.979   5.723   3.902
17545SOL    HW163854   1.070   5.723   3.860
17545SOL    HW263855   0.959   5.632   3.937
17546SOL     OW63856   2.099   1.096   3.356
17546SOL    HW163857   2.052   1.021   3.403
17546SOL    HW263858   2.038   1.175   3.349
17547SOL     OW63859   7.381   1.621   3.332
17547SOL    HW163860   7.397   1.552   3.402
17547SOL    HW263861   7.352   1.577   3.247
17548SOL     OW63862   0.340   9.439   4.094
17548SOL    HW163863   0.301   9.441   4.002
17548SOL    HW263864   0.288   9.375   4.151
17549SOL     OW63865   0.062   5.571   5.771
17549SOL    HW163866   0.151   5.616   5.759
17549SOL    HW263867   0.063   5.483   5.723
17550SOL     OW63868   9.693   2.048   6.122
17550SOL    HW163869   9.606   2.095   6.103
17550SOL    HW263870   9.766   2.088   6.066
17551SOL     OW63871   9.061   3.198   3.083
17551SOL    HW163872   9.030   3.225   2.992
17551SOL    HW263873   9.051   3.099   3.094
17552SOL     OW63874   6.419   7.533   4.617
17552SOL    HW163875   6.406   7.531   4.716
17552SOL    HW263876   6.335   7.564   4.573
17553SOL     OW63877   0.114   2.196   1.819
17553SOL    HW163878   0.088   2.292   1.810
17553SOL    HW263879   0.105   2.150   1.731
17554SOL     OW63880   9.230   7.778   5.965
17554SOL    HW163881   9.298   7.755   6.035
17554SOL    HW263882   9.260   7.860   5.916
17555SOL     OW63883   8.999   0.240   5.098
17555SOL    HW163884   8.969   0.325   5.055
17555SOL    HW263885   9.075   0.259   5.159
17556SOL     OW63886   1.603   2.745   3.487
17556SOL    HW163887   1.696   2.715   3.467
17556SOL    HW263888   1.606   2.836   3.530
17557SOL     OW63889   3.192   8.366   4.225
17557SOL    HW163890   3.256   8.429   4.270
17557SOL    HW263891   3.120   8.340   4.289
17558SOL     OW63892   8.269   2.125   5.268
17558SOL    HW163893   8.201   2.195   5.246
17558SOL    HW263894   8.248   2.041   5.217
17559SOL     OW63895   4.226   2.664   6.372
17559SOL    HW163896   4.297   2.600   6.401
17559SOL    HW263897   4.265   2.756   6.365
17560SOL     OW63898   1.326   9.449   5.767
17560SOL    HW163899   1.359   9.381   5.702
17560SOL    HW263900   1.403   9.488   5.817
17561SOL     OW63901   1.481   7.046   0.759
17561SOL    HW163902   1.401   6.986   0.753
17561SOL    HW263903   1.515   7.048   0.853
17562SOL     OW63904   2.107   9.040   4.820
17562SOL    HW163905   2.016   9.002   4.836
17562SOL    HW263906   2.112   9.133   4.855
17563SOL     OW63907   5.805   1.534   2.278
17563SOL    HW163908   5.714   1.538   2.321
17563SOL    HW263909   5.844   1.443   2.292
17564SOL     OW63910   4.600   8.166   2.341
17564SOL    HW163911   4.696   8.190   2.326
17564SOL    HW263912   4.545   8.197   2.264
17565SOL     OW63913   8.336   9.206   3.204
17565SOL    HW163914   8.374   9.291   3.167
17565SOL    HW263915   8.282   9.160   3.134
17566SOL     OW63916   3.974   4.077   4.416
17566SOL    HW163917   4.010   4.091   4.323
17566SOL    HW263918   4.013   3.993   4.454
17567SOL     OW63919   1.422   8.619   1.811
17567SOL    HW163920   1.416   8.702   1.867
17567SOL    HW263921   1.379   8.636   1.722
17568SOL     OW63922   1.169   9.443   3.046
17568SOL    HW163923   1.153   9.346   3.065
17568SOL    HW263924   1.232   9.481   3.114
17569SOL     OW63925   0.950   0.299   0.532
17569SOL    HW163926   0.960   0.285   0.433
17569SOL    HW263927   1.000   0.228   0.581
17570SOL     OW63928   9.518   3.430   3.507
17570SOL    HW163929   9.445   3.389   3.453
17570SOL    HW263930   9.583   3.359   3.535
17571SOL     OW63931   2.886   8.922   2.599
17571SOL    HW163932   2.814   8.945   2.664
17571SOL    HW263933   2.975   8.927   2.644
17572SOL     OW63934   1.102   6.496   4.798
17572SOL    HW163935   1.036   6.541   4.857
17572SOL    HW263936   1.181   6.465   4.852
17573SOL     OW63937   8.917   2.579   6.222
17573SOL    HW163938   8.991   2.521   6.187
17573SOL    HW263939   8.835   2.523   6.238
17574SOL     OW63940   6.264   1.805   1.421
17574SOL    HW163941   6.181   1.777   1.469
17574SOL    HW263942   6.313   1.724   1.389
17575SOL     OW63943   9.041   0.761   5.740
17575SOL    HW163944   8.991   0.677   5.762
17575SOL    HW263945   9.063   0.809   5.825
17576SOL     OW63946   8.391   7.594   1.264
17576SOL    HW163947   8.472   7.630   1.217
17576SOL    HW263948   8.319   7.574   1.198
17577SOL     OW63949   5.229   1.415   3.744
17577SOL    HW163950   5.236   1.356   3.663
17577SOL    HW263951   5.318   1.416   3.792
17578SOL     OW63952   4.377   8.920   3.924
17578SOL    HW163953   4.421   8.970   3.998
17578SOL    HW263954   4.302   8.976   3.887
17579SOL     OW63955   9.909   7.252   0.883
17579SOL    HW163956   9.878   7.320   0.950
17579SOL    HW263957   9.980   7.195   0.924
17580SOL     OW63958   4.302   1.830   5.152
17580SOL    HW163959   4.390   1.848   5.109
17580SOL    HW263960   4.311   1.756   5.219
17581SOL     OW63961   4.344   9.104   2.858
17581SOL    HW163962   4.281   9.147   2.922
17581SOL    HW263963   4.431   9.087   2.905
17582SOL     OW63964   5.196   5.629   2.595
17582SOL    HW163965   5.182   5.643   2.693
17582SOL    HW263966   5.117   5.581   2.557
17583SOL     OW63967   3.937   9.991   1.700
17583SOL    HW163968   3.879   9.914   1.672
17583SOL    HW263969   3.905   0.025   1.789
17584SOL     OW63970   9.867   6.215   5.428
17584SOL    HW163971   9.809   6.196   5.508
17584SOL    HW263972   9.895   6.129   5.387
17585SOL     OW63973   4.005   4.772   1.730
17585SOL    HW163974   3.967   4.864   1.726
17585SOL    HW263975   4.104   4.777   1.718
17586SOL     OW63976   9.656   0.087   3.665
17586SOL    HW163977   9.742   0.045   3.634
17586SOL    HW263978   9.607   0.022   3.723
17587SOL     OW63979   0.930   6.921   1.858
17587SOL    HW163980   0.852   6.980   1.835
17587SOL    HW263981   0.950   6.930   1.955
17588SOL     OW63982   2.081   8.408   5.890
17588SOL    HW163983   2.090   8.507   5.899
17588SOL    HW263984   1.985   8.382   5.900
17589SOL     OW63985   6.753   1.597   4.492
17589SOL    HW163986   6.808   1.670   4.451
17589SOL    HW263987   6.745   1.522   4.427
17590SOL     OW63988   8.091   6.297   0.160
17590SOL    HW163989   8.181   6.253   0.163
17590SOL    HW263990   8.031   6.255   0.228
17591SOL     OW63991   2.065   1.988   1.081
17591SOL    HW163992   1.990   1.943   1.131
17591SOL    HW263993   2.044   2.085   1.071
17592SOL     OW63994   7.489   2.788   6.265
17592SOL    HW163995   7.540   2.851   6.206
17592SOL    HW263996   7.399   2.826   6.286
17593SOL     OW63997   8.906   6.787   3.376
17593SOL    HW163998   8.958   6.836   3.305
17593SOL    HW263999   8.864   6.854   3.437
17594SOL     OW64000   8.530   0.562   2.805
17594SOL    HW164001   8.616   0.520   2.834
17594SOL    HW264002   8.546   0.658   2.782
17595SOL     OW64003   9.935   7.110   5.432
17595SOL    HW164004   9.869   7.165   5.380
17595SOL    HW264005   9.968   7.035   5.374
17596SOL     OW64006   4.054   7.618   4.240
17596SOL    HW164007   4.052   7.689   4.170
17596SOL    HW264008   4.126   7.637   4.307
17597SOL     OW64009   7.969   0.924   1.614
17597SOL    HW164010   7.998   0.876   1.532
17597SOL    HW264011   8.044   0.927   1.680
17598SOL     OW64012   6.720   2.166   2.265
17598SOL    HW164013   6.727   2.265   2.277
17598SOL    HW264014   6.680   2.146   2.176
17599SOL     OW64015   4.612   3.704   5.213
17599SOL    HW164016   4.609   3.789   5.265
17599SOL    HW264017   4.705   3.688   5.181
17600SOL     OW64018   0.075   7.665   1.669
17600SOL    HW164019   0.072   7.762   1.693
17600SOL    HW264020   0.090   7.610   1.751
17601SOL     OW64021   5.133   3.060   4.871
17601SOL    HW164022   5.111   3.042   4.967
17601SOL    HW264023   5.078   3.136   4.837
17602SOL     OW64024   7.853   7.901   4.044
17602SOL    HW164025   7.936   7.944   4.008
17602SOL    HW264026   7.872   7.805   4.066
17603SOL     OW64027   0.893   3.345   1.646
17603SOL    HW164028   0.822   3.394   1.696
17603SOL    HW264029   0.923   3.400   1.568
17604SOL     OW64030   4.702   6.443   2.932
17604SOL    HW164031   4.711   6.536   2.968
17604SOL    HW264032   4.764   6.432   2.854
17605SOL     OW64033   8.330   1.388   2.926
17605SOL    HW164034   8.389   1.410   2.849
17605SOL    HW264035   8.250   1.336   2.893
17606SOL     OW64036   3.263   2.210   4.456
17606SOL    HW164037   3.203   2.164   4.521
17606SOL    HW264038   3.250   2.170   4.365
17607SOL     OW64039   8.260   8.774   4.894
17607SOL    HW164040   8.278   8.679   4.868
17607SOL    HW264041   8.162   8.787   4.908
17608SOL     OW64042   8.864   5.043   6.267
17608SOL    HW164043   8.802   5.104   6.218
17608SOL    HW264044   8.850   4.949   6.234
17609SOL     OW64045   0.409   5.256   2.652
17609SOL    HW164046   0.333   5.277   2.591
17609SOL    HW264047   0.479   5.206   2.602
17610SOL     OW64048   0.007   9.428   2.509
17610SOL    HW164049   0.104   9.410   2.526
17610SOL    HW264050   9.970   9.358   2.448
17611SOL     OW64051   5.425   9.582   5.572
17611SOL    HW164052   5.379   9.496   5.551
17611SOL    HW264053   5.360   9.657   5.564
17612SOL     OW64054   4.964   3.022   5.836
17612SOL    HW164055   4.942   3.018   5.738
17612SOL    HW264056   4.996   2.932   5.866
17613SOL     OW64057   3.713   0.731   5.060
17613SOL    HW164058   3.692   0.787   5.141
17613SOL    HW264059   3.647   0.751   4.988
17614SOL     OW64060   8.616   0.305   5.995
17614SOL    HW164061   8.617   0.400   5.964
17614SOL    HW264062   8.521   0.274   6.002
17615SOL     OW64063   9.797   9.851   4.861
17615SOL    HW164064   9.838   9.887   4.777
17615SOL    HW264065   9.869   9.826   4.926
17616SOL     OW64066   8.510   5.423   0.938
17616SOL    HW164067   8.471   5.431   1.030
17616SOL    HW264068   8.461   5.484   0.876
17617SOL     OW64069   1.795   4.157   1.176
17617SOL    HW164070   1.847   4.131   1.257
17617SOL    HW264071   1.704   4.114   1.180
17618SOL     OW64072   9.025   0.177   4.672
17618SOL    HW164073   8.934   0.216   4.680
17618SOL    HW264074   9.040   0.111   4.746
17619SOL     OW64075   6.495   1.742   6.126
17619SOL    HW164076   6.558   1.819   6.119
17619SOL    HW264077   6.516   1.675   6.056
17620SOL     OW64078   3.712   6.780   2.896
17620SOL    HW164079   3.705   6.726   2.980
17620SOL    HW264080   3.808   6.797   2.875
17621SOL     OW64081   8.812   4.933   2.203
17621SOL    HW164082   8.833   4.914   2.106
17621SOL    HW264083   8.897   4.951   2.252
17622SOL     OW64084   8.787   2.541   5.918
17622SOL    HW164085   8.808   2.515   6.012
17622SOL    HW264086   8.736   2.467   5.874
17623SOL     OW64087   2.783   1.652   1.326
17623SOL    HW164088   2.752   1.723   1.264
17623SOL    HW264089   2.829   1.580   1.274
17624SOL     OW64090   2.225   9.162   3.947
17624SOL    HW164091   2.177   9.076   3.962
17624SOL    HW264092   2.323   9.147   3.955
17625SOL     OW64093   7.346   0.853   3.809
17625SOL    HW164094   7.276   0.792   3.771
17625SOL    HW264095   7.331   0.863   3.908
17626SOL     OW64096   0.464   0.916   5.135
17626SOL    HW164097   0.391   0.854   5.162
17626SOL    HW264098   0.531   0.868   5.078
17627SOL     OW64099   2.977   4.440   0.303
17627SOL    HW164100   2.959   4.528   0.347
17627SOL    HW264101   2.890   4.396   0.279
17628SOL     OW64102   0.481   1.179   0.588
17628SOL    HW164103   0.574   1.217   0.592
17628SOL    HW264104   0.422   1.231   0.651
17629SOL     OW64105   2.801   6.765   1.535
17629SOL    HW164106   2.743   6.683   1.539
17629SOL    HW264107   2.893   6.742   1.566
17630SOL     OW64108   6.230   1.569   2.257
17630SOL    HW164109   6.146   1.579   2.310
17630SOL    HW264110   6.283   1.492   2.292
17631SOL     OW64111   2.577   3.492   5.990
17631SOL    HW164112   2.612   3.535   6.073
17631SOL    HW264113   2.646   3.499   5.918
17632SOL     OW64114   2.897   4.560   4.968
17632SOL    HW164115   2.909   4.553   5.067
17632SOL    HW264116   2.986   4.568   4.924
17633SOL     OW64117   6.572   1.339   0.481
17633SOL    HW164118   6.499   1.389   0.527
17633SOL    HW264119   6.655   1.395   0.480
17634SOL     OW64120   3.065   5.434   3.342
17634SOL    HW164121   3.003   5.403   3.270
17634SOL    HW264122   3.100   5.355   3.393
17635SOL     OW64123   0.053   3.125   3.464
17635SOL    HW164124   0.024   3.201   3.522
17635SOL    HW264125   0.148   3.138   3.437
17636SOL     OW64126   1.117   2.132   2.193
17636SOL    HW164127   1.102   2.034   2.191
17636SOL    HW264128   1.123   2.164   2.288
17637SOL     OW64129   1.763   9.176   3.463
17637SOL    HW164130   1.820   9.228   3.400
17637SOL    HW264131   1.820   9.130   3.530
17638SOL     OW64132   4.413   5.965   1.096
17638SOL    HW164133   4.507   5.954   1.063
17638SOL    HW264134   4.354   5.993   1.020
17639SOL     OW64135   1.865   8.078   2.674
17639SOL    HW164136   1.932   8.146   2.703
17639SOL    HW264137   1.794   8.069   2.743
17640SOL     OW64138   3.579   7.626   1.223
17640SOL    HW164139   3.596   7.529   1.207
17640SOL    HW264140   3.546   7.639   1.317
17641SOL     OW64141   8.156   1.706   5.746
17641SOL    HW164142   8.238   1.683   5.693
17641SOL    HW264143   8.139   1.805   5.740
17642SOL     OW64144   6.944   2.967   3.021
17642SOL    HW164145   6.976   2.872   3.026
17642SOL    HW264146   6.901   2.992   3.108
17643SOL     OW64147   1.707   0.460   5.345
17643SOL    HW164148   1.615   0.486   5.375
17643SOL    HW264149   1.707   0.449   5.245
17644SOL     OW64150   7.086   0.834   0.117
17644SOL    HW164151   7.047   0.851   0.207
17644SOL    HW264152   7.083   0.737   0.096
17645SOL     OW64153   3.308   7.363   1.810
17645SOL    HW164154   3.301   7.265   1.793
17645SOL    HW264155   3.244   7.411   1.749
17646SOL     OW64156   3.059   7.767   5.401
17646SOL    HW164157   3.016   7.857   5.392
17646SOL    HW264158   3.019   7.719   5.480
17647SOL     OW64159   2.157   0.092   0.976
17647SOL    HW164160   2.212   0.123   1.053
17647SOL    HW264161   2.188   0.001   0.947
17648SOL     OW64162   1.509   9.579   5.931
17648SOL    HW164163   1.519   9.665   5.881
17648SOL    HW264164   1.487   9.599   6.027
17649SOL     OW64165   3.541   9.991   2.278
17649SOL    HW164166   3.504   0.078   2.245
17649SOL    HW264167   3.512   9.976   2.372
17650SOL     OW64168   1.417   7.542   6.393
17650SOL    HW164169   1.414   7.558   6.491
17650SOL    HW264170   1.331   7.570   6.351
17651SOL     OW64171   9.205   3.244   1.713
17651SOL    HW164172   9.169   3.288   1.795
17651SOL    HW264173   9.305   3.242   1.718
17652SOL     OW64174   3.361   5.800   2.480
17652SOL    HW164175   3.272   5.845   2.471
17652SOL    HW264176   3.430   5.869   2.501
17653SOL     OW64177   5.552   2.525   4.283
17653SOL    HW164178   5.624   2.569   4.338
17653SOL    HW264179   5.551   2.567   4.192
17654SOL     OW64180   8.460   3.051   6.188
17654SOL    HW164181   8.362   3.041   6.173
17654SOL    HW264182   8.502   2.961   6.197
17655SOL     OW64183   7.816   6.924   3.343
17655SOL    HW164184   7.805   7.015   3.305
17655SOL    HW264185   7.880   6.872   3.286
17656SOL     OW64186   5.654   5.042   0.185
17656SOL    HW164187   5.598   5.092   0.252
17656SOL    HW264188   5.751   5.054   0.207
17657SOL     OW64189   2.772   3.261   3.567
17657SOL    HW164190   2.797   3.344   3.516
17657SOL    HW264191   2.743   3.287   3.659
17658SOL     OW64192   8.648   0.556   5.892
17658SOL    HW164193   8.730   0.552   5.836
17658SOL    HW264194   8.580   0.616   5.848
17659SOL     OW64195   3.780   5.630   5.924
17659SOL    HW164196   3.781   5.542   5.971
17659SOL    HW264197   3.771   5.704   5.990
17660SOL     OW64198   4.196   9.744   1.833
17660SOL    HW164199   4.139   9.798   1.895
17660SOL    HW264200   4.219   9.657   1.875
17661SOL     OW64201   0.515   6.231   3.323
17661SOL    HW164202   0.571   6.236   3.406
17661SOL    HW264203   0.551   6.159   3.263
17662SOL     OW64204   0.601   0.151   4.260
17662SOL    HW164205   0.700   0.163   4.266
17662SOL    HW264206   0.580   0.066   4.211
17663SOL     OW64207   4.934   2.913   0.404
17663SOL    HW164208   4.953   2.934   0.308
17663SOL    HW264209   4.878   2.986   0.443
17664SOL     OW64210   8.065   0.040   3.573
17664SOL    HW164211   8.061   9.955   3.519
17664SOL    HW264212   8.070   0.118   3.511
17665SOL     OW64213   9.333   8.978   3.456
17665SOL    HW164214   9.424   8.952   3.486
17665SOL    HW264215   9.290   8.901   3.408
17666SOL     OW64216   5.180   5.197   2.081
17666SOL    HW164217   5.250   5.222   2.014
17666SOL    HW264218   5.186   5.258   2.160
17667SOL     OW64219   0.987   0.096   2.831
17667SOL    HW164220   1.011   0.073   2.925
17667SOL    HW264221   1.001   0.017   2.772
17668SOL     OW64222   4.491   9.580   5.080
17668SOL    HW164223   4.550   9.657   5.054
17668SOL    HW264224   4.430   9.559   5.004
17669SOL     OW64225   1.759   2.280   5.063
17669SOL    HW164226   1.846   2.270   5.111
17669SOL    HW264227   1.701   2.343   5.113
17670SOL     OW64228   9.663   0.263   0.746
17670SOL    HW164229   9.763   0.256   0.737
17670SOL    HW264230   9.625   0.170   0.751
17671SOL     OW64231   4.311   0.653   1.153
17671SOL    HW164232   4.381   0.610   1.096
17671SOL    HW264233   4.332   0.751   1.164
17672SOL     OW64234   6.380   2.260   5.425
17672SOL    HW164235   6.446   2.200   5.380
17672SOL    HW264236   6.413   2.284   5.516
17673SOL     OW64237   9.898   5.732   2.001
17673SOL    HW164238   9.896   5.714   2.100
17673SOL    HW264239   9.940   5.654   1.954
17674SOL     OW64240   7.639   9.917   3.429
17674SOL    HW164241   7.705   9.992   3.419
17674SOL    HW264242   7.546   9.955   3.428
17675SOL     OW64243   1.233   2.193   0.156
17675SOL    HW164244   1.143   2.214   0.192
17675SOL    HW264245   1.270   2.274   0.109
17676SOL     OW64246   4.136   3.278   5.437
17676SOL    HW164247   4.200   3.205   5.412
17676SOL    HW264248   4.042   3.244   5.427
17677SOL     OW64249   1.153   0.031   4.843
17677SOL    HW164250   1.066   0.045   4.891
17677SOL    HW264251   1.152   9.940   4.800
17678SOL     OW64252   3.372   3.744   4.347
17678SOL    HW164253   3.396   3.706   4.258
17678SOL    HW264254   3.411   3.687   4.420
17679SOL     OW64255   0.051   7.801   0.208
17679SOL    HW164256   0.017   7.736   0.276
17679SOL    HW264257   9.974   7.847   0.165
17680SOL     OW64258   0.220   0.493   0.186
17680SOL    HW164259   0.248   0.585   0.157
17680SOL    HW264260   0.121   0.484   0.176
17681SOL     OW64261   0.127   6.764   4.425
17681SOL    HW164262   0.161   6.854   4.396
17681SOL    HW264263   0.028   6.770   4.440
17682SOL     OW64264   6.126   8.254   2.741
17682SOL    HW164265   6.152   8.168   2.786
17682SOL    HW264266   6.090   8.318   2.808
17683SOL     OW64267   1.991   8.425   5.136
17683SOL    HW164268   2.081   8.447   5.174
17683SOL    HW264269   1.921   8.481   5.180
17684SOL     OW64270   3.129   6.173   3.270
17684SOL    HW164271   3.224   6.169   3.239
17684SOL    HW264272   3.103   6.269   3.285
17685SOL     OW64273   3.602   3.375   3.675
17685SOL    HW164274   3.514   3.403   3.638
17685SOL    HW264275   3.668   3.368   3.600
17686SOL     OW64276   1.331   1.102   2.960
17686SOL    HW164277   1.322   1.178   3.025
17686SOL    HW264278   1.354   1.138   2.870
17687SOL     OW64279   4.074   8.172   0.588
17687SOL    HW164280   4.029   8.097   0.637
17687SOL    HW264281   4.127   8.227   0.653
17688SOL     OW64282   3.173   9.827   1.893
17688SOL    HW164283   3.083   9.785   1.882
17688SOL    HW264284   3.242   9.772   1.845
17689SOL     OW64285   8.575   0.107   4.760
17689SOL    HW164286   8.522   0.103   4.845
17689SOL    HW264287   8.614   0.017   4.741
17690SOL     OW64288   2.116   6.222   5.994
17690SOL    HW164289   2.202   6.192   5.951
17690SOL    HW264290   2.111   6.322   5.989
17691SOL     OW64291   0.536   4.435   1.367
17691SOL    HW164292   0.450   4.485   1.368
17691SOL    HW264293   0.610   4.496   1.337
17692SOL     OW64294   6.489   9.982   6.287
17692SOL    HW164295   6.410   0.043   6.295
17692SOL    HW264296   6.534   9.997   6.199
17693SOL     OW64297   0.269   5.090   2.325
17693SOL    HW164298   0.233   5.160   2.388
17693SOL    HW264299   0.350   5.126   2.279
17694SOL     OW64300   0.678   4.690   1.675
17694SOL    HW164301   0.747   4.719   1.608
17694SOL    HW264302   0.596   4.746   1.664
17695SOL     OW64303   6.356   9.206   5.119
17695SOL    HW164304   6.257   9.212   5.136
17695SOL    HW264305   6.375   9.127   5.060
17696SOL     OW64306   6.825   0.672   3.765
17696SOL    HW164307   6.814   0.608   3.690
17696SOL    HW264308   6.751   0.660   3.831
17697SOL     OW64309   3.365   0.981   0.221
17697SOL    HW164310   3.345   1.019   0.311
17697SOL    HW264311   3.395   1.055   0.159
17698SOL     OW64312   3.895   0.087   1.289
17698SOL    HW164313   3.894   0.184   1.262
17698SOL    HW264314   3.817   0.068   1.348
17699SOL     OW64315   9.423   9.220   5.074
17699SOL    HW164316   9.488   9.152   5.109
17699SOL    HW264317   9.424   9.218   4.974
17700SOL     OW64318   0.062   1.252   2.152
17700SOL    HW164319   0.025   1.245   2.059
17700SOL    HW264320   9.996   1.297   2.211
17701SOL     OW64321   1.156   2.343   0.700
17701SOL    HW164322   1.095   2.418   0.673
17701SOL    HW264323   1.106   2.256   0.695
17702SOL     OW64324   6.026   1.061   1.524
17702SOL    HW164325   6.097   1.123   1.557
17702SOL    HW264326   6.061   1.007   1.448
17703SOL     OW64327   7.874   8.304   5.049
17703SOL    HW164328   7.889   8.207   5.027
17703SOL    HW264329   7.852   8.313   5.146
17704SOL     OW64330   8.481   3.407   2.408
17704SOL    HW164331   8.566   3.355   2.399
17704SOL    HW264332   8.496   3.500   2.376
17705SOL     OW64333   1.248   6.757   2.758
17705SOL    HW164334   1.256   6.755   2.857
17705SOL    HW264335   1.164   6.804   2.732
17706SOL     OW64336   2.405   1.398   2.608
17706SOL    HW164337   2.306   1.397   2.613
17706SOL    HW264338   2.441   1.308   2.633
17707SOL     OW64339   9.342   9.362   2.161
17707SOL    HW164340   9.285   9.332   2.238
17707SOL    HW264341   9.422   9.302   2.154
17708SOL     OW64342   1.754   8.000   3.588
17708SOL    HW164343   1.783   7.910   3.559
17708SOL    HW264344   1.815   8.070   3.551
17709SOL     OW64345   6.177   9.163   2.290
17709SOL    HW164346   6.274   9.140   2.294
17709SOL    HW264347   6.147   9.198   2.379
17710SOL     OW64348   4.926   1.846   3.168
17710SOL    HW164349   4.877   1.925   3.205
17710SOL    HW264350   5.013   1.835   3.215
17711SOL     OW64351   1.627   5.539   5.757
17711SOL    HW164352   1.630   5.638   5.745
17711SOL    HW264353   1.674   5.514   5.842
17712SOL     OW64354   0.152   8.288   5.837
17712SOL    HW164355   0.209   8.259   5.914
17712SOL    HW264356   0.087   8.356   5.868
17713SOL     OW64357   4.839   4.810   1.452
17713SOL    HW164358   4.753   4.849   1.484
17713SOL    HW264359   4.870   4.740   1.516
17714SOL     OW64360   2.818   1.607   5.108
17714SOL    HW164361   2.840   1.515   5.076
17714SOL    HW264362   2.891   1.639   5.168
17715SOL     OW64363   4.063   9.336   5.474
17715SOL    HW164364   4.106   9.386   5.399
17715SOL    HW264365   3.964   9.339   5.463
17716SOL     OW64366   0.964   0.879   2.084
17716SOL    HW164367   0.878   0.914   2.119
17716SOL    HW264368   0.949   0.835   1.995
17717SOL     OW64369   8.813   2.131   0.565
17717SOL    HW164370   8.908   2.156   0.587
17717SOL    HW264371   8.791   2.044   0.607
17718SOL     OW64372   3.631   3.686   2.022
17718SOL    HW164373   3.602   3.594   1.996
17718SOL    HW264374   3.728   3.684   2.047
17719SOL     OW64375   3.028   6.667   4.693
17719SOL    HW164376   2.961   6.718   4.639
17719SOL    HW264377   2.981   6.615   4.765
17720SOL     OW64378   2.263   9.577   2.555
17720SOL    HW164379   2.327   9.595   2.480
17720SOL    HW264380   2.172   9.608   2.529
17721SOL     OW64381   8.598   5.927   3.868
17721SOL    HW164382   8.570   5.870   3.945
17721SOL    HW264383   8.698   5.933   3.866
17722SOL     OW64384   0.446   5.750   1.693
17722SOL    HW164385   0.424   5.820   1.761
17722SOL    HW264386   0.395   5.767   1.610
17723SOL     OW64387   4.802   2.085   1.525
17723SOL    HW164388   4.824   2.150   1.598
17723SOL    HW264389   4.811   2.131   1.436
17724SOL     OW64390   8.241   8.866   0.870
17724SOL    HW164391   8.299   8.856   0.951
17724SOL    HW264392   8.209   8.776   0.841
17725SOL     OW64393   3.532   6.497   4.129
17725SOL    HW164394   3.618   6.463   4.092
17725SOL    HW264395   3.493   6.429   4.191
17726SOL     OW64396   0.213   8.616   0.549
17726SOL    HW164397   0.244   8.523   0.529
17726SOL    HW264398   0.114   8.621   0.536
17727SOL     OW64399   3.534   3.447   0.955
17727SOL    HW164400   3.472   3.503   0.900
17727SOL    HW264401   3.613   3.501   0.982
17728SOL     OW64402   2.192   3.264   6.089
17728SOL    HW164403   2.148   3.180   6.057
17728SOL    HW264404   2.291   3.257   6.076
17729SOL     OW64405   1.763   7.510   4.547
17729SOL    HW164406   1.708   7.448   4.489
17729SOL    HW264407   1.847   7.464   4.574
17730SOL     OW64408   1.398   5.303   1.750
17730SOL    HW164409   1.495   5.326   1.738
17730SOL    HW264410   1.371   5.237   1.681
17731SOL     OW64411   7.414   2.664   3.894
17731SOL    HW164412   7.456   2.698   3.978
17731SOL    HW264413   7.483   2.658   3.822
17732SOL     OW64414   3.271   3.690   2.308
17732SOL    HW164415   3.243   3.772   2.258
17732SOL    HW264416   3.199   3.663   2.371
17733SOL     OW64417   1.940   0.602   3.653
17733SOL    HW164418   2.019   0.622   3.596
17733SOL    HW264419   1.860   0.651   3.618
17734SOL     OW64420   9.289   0.024   0.776
17734SOL    HW164421   9.226   9.969   0.720
17734SOL    HW264422   9.252   0.032   0.869
17735SOL     OW64423   9.038   0.963   3.280
17735SOL    HW164424   9.098   1.038   3.252
17735SOL    HW264425   9.079   0.913   3.356
17736SOL     OW64426   4.804   4.736   1.187
17736SOL    HW164427   4.825   4.771   1.278
17736SOL    HW264428   4.705   4.728   1.177
17737SOL     OW64429   4.429   4.174   4.559
17737SOL    HW164430   4.402   4.245   4.623
17737SOL    HW264431   4.434   4.211   4.467
17738SOL     OW64432   3.434   3.002   2.610
17738SOL    HW164433   3.530   2.979   2.593
17738SOL    HW264434   3.406   3.075   2.547
17739SOL     OW64435   8.689   6.973   4.671
17739SOL    HW164436   8.698   6.903   4.742
17739SOL    HW264437   8.780   7.001   4.640
17740SOL     OW64438   7.178   3.068   2.097
17740SOL    HW164439   7.251   3.000   2.093
17740SOL    HW264440   7.144   3.085   2.004
17741SOL     OW64441   9.546   8.173   5.487
17741SOL    HW164442   9.597   8.193   5.570
17741SOL    HW264443   9.605   8.184   5.407
17742SOL     OW64444   4.578   3.545   3.117
17742SOL    HW164445   4.534   3.501   3.195
17742SOL    HW264446   4.508   3.584   3.057
17743SOL     OW64447   4.699   8.081   4.197
17743SOL    HW164448   4.756   8.162   4.210
17743SOL    HW264449   4.756   8.005   4.167
17744SOL     OW64450   1.250   2.876   5.642
17744SOL    HW164451   1.322   2.845   5.579
17744SOL    HW264452   1.293   2.914   5.724
17745SOL     OW64453   4.797   1.577   2.483
17745SOL    HW164454   4.783   1.611   2.576
17745SOL    HW264455   4.895   1.578   2.461
17746SOL     OW64456   3.554   0.393   4.197
17746SOL    HW164457   3.628   0.413   4.132
17746SOL    HW264458   3.582   0.423   4.288
17747SOL     OW64459   0.341   3.896   0.545
17747SOL    HW164460   0.360   3.800   0.523
17747SOL    HW264461   0.363   3.913   0.641
17748SOL     OW64462   0.330   1.460   2.415
17748SOL    HW164463   0.354   1.490   2.507
17748SOL    HW264464   0.413   1.450   2.360
17749SOL     OW64465   6.313   9.697   3.242
17749SOL    HW164466   6.253   9.776   3.249
17749SOL    HW264467   6.404   9.727   3.212
17750SOL     OW64468   0.291   3.791   0.238
17750SOL    HW164469   0.354   3.764   0.166
17750SOL    HW264470   0.329   3.766   0.327
17751SOL     OW64471   5.105   0.343   4.933
17751SOL    HW164472   5.076   0.439   4.923
17751SOL    HW264473   5.024   0.286   4.944
17752SOL     OW64474   0.801   2.781   4.669
17752SOL    HW164475   0.822   2.697   4.620
17752SOL    HW264476   0.883   2.838   4.674
17753SOL     OW64477   0.515   5.509   1.553
17753SOL    HW164478   0.509   5.604   1.584
17753SOL    HW264479   0.499   5.505   1.454
17754SOL     OW64480   0.954   9.360   1.915
17754SOL    HW164481   1.020   9.432   1.937
17754SOL    HW264482   0.949   9.349   1.815
17755SOL     OW64483   9.061   5.047   5.268
17755SOL    HW164484   9.073   5.011   5.175
17755SOL    HW264485   8.971   5.090   5.276
17756SOL     OW64486   7.323   2.390   1.949
17756SOL    HW164487   7.350   2.334   2.026
17756SOL    HW264488   7.247   2.346   1.900
17757SOL     OW64489   0.530   7.316   3.167
17757SOL    HW164490   0.499   7.270   3.084
17757SOL    HW264491   0.499   7.411   3.166
17758SOL     OW64492   2.836   6.474   4.055
17758SOL    HW164493   2.768   6.547   4.053
17758SOL    HW264494   2.836   6.430   4.145
17759SOL     OW64495   7.888   5.816   5.828
17759SOL    HW164496   7.831   5.737   5.848
17759SOL    HW264497   7.926   5.852   5.913
17760SOL     OW64498   3.063   5.669   5.148
17760SOL    HW164499   3.128   5.745   5.155
17760SOL    HW264500   3.075   5.622   5.061
17761SOL     OW64501   2.238   6.345   0.119
17761SOL    HW164502   2.332   6.312   0.114
17761SOL    HW264503   2.180   6.274   0.160
17762SOL     OW64504   8.813   0.462   2.132
17762SOL    HW164505   8.810   0.417   2.221
17762SOL    HW264506   8.828   0.560   2.146
17763SOL     OW64507   5.289   1.369   3.006
17763SOL    HW164508   5.277   1.383   3.104
17763SOL    HW264509   5.202   1.344   2.965
17764SOL     OW64510   4.366   7.324   1.572
17764SOL    HW164511   4.369   7.401   1.635
17764SOL    HW264512   4.372   7.238   1.623
17765SOL     OW64513   4.725   9.628   2.689
17765SOL    HW164514   4.650   9.590   2.743
17765SOL    HW264515   4.804   9.568   2.693
17766SOL     OW64516   2.719   7.360   0.198
17766SOL    HW164517   2.675   7.365   0.288
17766SOL    HW264518   2.717   7.450   0.155
17767SOL     OW64519   8.219   6.251   1.865
17767SOL    HW164520   8.297   6.236   1.925
17767SOL    HW264521   8.209   6.174   1.802
17768SOL     OW64522   4.183   2.630   5.568
17768SOL    HW164523   4.170   2.556   5.634
17768SOL    HW264524   4.280   2.643   5.550
17769SOL     OW64525   3.209   5.209   4.156
17769SOL    HW164526   3.297   5.179   4.119
17769SOL    HW264527   3.212   5.205   4.256
17770SOL     OW64528   7.632   9.445   6.040
17770SOL    HW164529   7.569   9.519   6.064
17770SOL    HW264530   7.695   9.429   6.115
17771SOL     OW64531   9.120   9.159   5.646
17771SOL    HW164532   9.213   9.152   5.682
17771SOL    HW264533   9.111   9.245   5.595
17772SOL     OW64534   3.060   0.931   0.393
17772SOL    HW164535   3.123   0.854   0.408
17772SOL    HW264536   3.075   1.000   0.464
17773SOL     OW64537   5.862   2.678   0.773
17773SOL    HW164538   5.858   2.721   0.683
17773SOL    HW264539   5.832   2.583   0.766
17774SOL     OW64540   2.581   0.816   3.513
17774SOL    HW164541   2.672   0.850   3.491
17774SOL    HW264542   2.553   0.850   3.603
17775SOL     OW64543   6.087   1.432   2.494
17775SOL    HW164544   6.051   1.505   2.552
17775SOL    HW264545   6.166   1.389   2.539
17776SOL     OW64546   8.947   7.549   0.621
17776SOL    HW164547   9.012   7.599   0.564
17776SOL    HW264548   8.995   7.511   0.700
17777SOL     OW64549   8.597   8.496   0.376
17777SOL    HW164550   8.540   8.512   0.295
17777SOL    HW264551   8.680   8.447   0.348
17778SOL     OW64552   1.709   4.282   1.599
17778SOL    HW164553   1.762   4.202   1.628
17778SOL    HW264554   1.637   4.253   1.535
17779SOL     OW64555   4.266   1.091   2.394
17779SOL    HW164556   4.279   1.076   2.296
17779SOL    HW264557   4.285   1.186   2.416
17780SOL     OW64558   8.547   5.681   0.409
17780SOL    HW164559   8.495   5.634   0.338
17780SOL    HW264560   8.522   5.777   0.411
17781SOL     OW64561   8.914   1.448   5.708
17781SOL    HW164562   8.846   1.400   5.763
17781SOL    HW264563   8.983   1.489   5.769
17782SOL     OW64564   9.324   5.783   4.631
17782SOL    HW164565   9.363   5.702   4.588
17782SOL    HW264566   9.393   5.826   4.691
17783SOL     OW64567   2.588   2.433   2.751
17783SOL    HW164568   2.653   2.476   2.688
17783SOL    HW264569   2.590   2.333   2.738
17784SOL     OW64570   8.537   6.560   0.235
17784SOL    HW164571   8.503   6.480   0.286
17784SOL    HW264572   8.463   6.626   0.225
17785SOL     OW64573   1.255   5.297   4.455
17785SOL    HW164574   1.338   5.308   4.511
17785SOL    HW264575   1.175   5.312   4.513
17786SOL     OW64576   1.381   0.510   1.726
17786SOL    HW164577   1.409   0.492   1.820
17786SOL    HW264578   1.281   0.512   1.720
17787SOL     OW64579   2.879   3.370   5.470
17787SOL    HW164580   2.860   3.467   5.451
17787SOL    HW264581   2.944   3.335   5.401
17788SOL     OW64582   5.735   2.881   0.924
17788SOL    HW164583   5.776   2.806   0.871
17788SOL    HW264584   5.807   2.936   0.965
17789SOL     OW64585   1.447   8.232   3.274
17789SOL    HW164586   1.358   8.205   3.311
17789SOL    HW264587   1.481   8.312   3.324
17790SOL     OW64588   0.985   2.548   0.620
17790SOL    HW164589   0.900   2.531   0.669
17790SOL    HW264590   1.007   2.645   0.623
17791SOL     OW64591   6.154   7.791   5.796
17791SOL    HW164592   6.106   7.879   5.792
17791SOL    HW264593   6.117   7.736   5.870
17792SOL     OW64594   1.297   3.848   1.344
17792SOL    HW164595   1.328   3.888   1.430
17792SOL    HW264596   1.367   3.784   1.310
17793SOL     OW64597   2.921   9.566   5.947
17793SOL    HW164598   3.012   9.606   5.947
17793SOL    HW264599   2.923   9.478   5.900
17794SOL     OW64600   8.737   9.627   3.654
17794SOL    HW164601   8.790   9.679   3.587
17794SOL    HW264602   8.668   9.572   3.607
17795SOL     OW64603   3.497   1.448   4.168
17795SOL    HW164604   3.449   1.422   4.084
17795SOL    HW264605   3.582   1.397   4.175
17796SOL     OW64606   0.752   5.790   1.581
17796SOL    HW164607   0.681   5.787   1.510
17796SOL    HW264608   0.823   5.723   1.561
17797SOL     OW64609   2.782   4.647   0.654
17797SOL    HW164610   2.777   4.649   0.754
17797SOL    HW264611   2.750   4.558   0.622
17798SOL     OW64612   7.553   4.810   0.722
17798SOL    HW164613   7.511   4.754   0.650
17798SOL    HW264614   7.579   4.899   0.683
17799SOL     OW64615   3.301   4.427   5.208
17799SOL    HW164616   3.296   4.417   5.109
17799SOL    HW264617   3.375   4.369   5.243
17800SOL     OW64618   8.356   5.251   0.550
17800SOL    HW164619   8.301   5.214   0.625
17800SOL    HW264620   8.318   5.338   0.521
17801SOL     OW64621   5.473   8.749   3.551
17801SOL    HW164622   5.402   8.798   3.501
17801SOL    HW264623   5.439   8.659   3.578
17802SOL     OW64624   1.885   7.134   4.681
17802SOL    HW164625   1.797   7.148   4.727
17802SOL    HW264626   1.931   7.223   4.670
17803SOL     OW64627   4.433   7.544   2.498
17803SOL    HW164628   4.349   7.584   2.532
17803SOL    HW264629   4.509   7.609   2.509
17804SOL     OW64630   4.858   0.656   3.206
17804SOL    HW164631   4.845   0.707   3.121
17804SOL    HW264632   4.820   0.709   3.282
17805SOL     OW64633   1.221   6.619   0.692
17805SOL    HW164634   1.125   6.621   0.721
17805SOL    HW264635   1.226   6.598   0.595
17806SOL     OW64636   2.366   7.447   3.327
17806SOL    HW164637   2.302   7.514   3.364
17806SOL    HW264638   2.457   7.488   3.318
17807SOL     OW64639   3.648   6.594   3.116
17807SOL    HW164640   3.677   6.673   3.169
17807SOL    HW264641   3.586   6.537   3.171
17808SOL     OW64642   2.551   9.496   0.634
17808SOL    HW164643   2.522   9.540   0.548
17808SOL    HW264644   2.641   9.530   0.660
17809SOL     OW64645   0.256   0.383   1.111
17809SOL    HW164646   0.216   0.344   1.028
17809SOL    HW264647   0.280   0.309   1.174
17810SOL     OW64648   3.513   6.044   2.051
17810SOL    HW164649   3.419   6.022   2.023
17810SOL    HW264650   3.568   5.961   2.048
17811SOL     OW64651   2.807   1.460   2.482
17811SOL    HW164652   2.801   1.428   2.576
17811SOL    HW264653   2.886   1.521   2.472
17812SOL     OW64654   7.061   8.711   2.462
17812SOL    HW164655   7.014   8.784   2.512
17812SOL    HW264656   7.148   8.691   2.507
17813SOL     OW64657   9.186   9.624   1.889
17813SOL    HW164658   9.136   9.701   1.929
17813SOL    HW264659   9.278   9.620   1.928
17814SOL     OW64660   7.930   7.410   6.363
17814SOL    HW164661   7.855   7.345   6.377
17814SOL    HW264662   7.999   7.369   6.304
17815SOL     OW64663   6.331   9.387   4.123
17815SOL    HW164664   6.247   9.337   4.144
17815SOL    HW264665   6.315   9.485   4.134
17816SOL     OW64666   0.283   8.013   5.513
17816SOL    HW164667   0.268   8.109   5.536
17816SOL    HW264668   0.222   7.987   5.438
17817SOL     OW64669   8.296   8.215   1.014
17817SOL    HW164670   8.271   8.164   1.097
17817SOL    HW264671   8.214   8.231   0.959
17818SOL     OW64672   6.705   1.128   2.508
17818SOL    HW164673   6.805   1.125   2.505
17818SOL    HW264674   6.675   1.222   2.524
17819SOL     OW64675   9.556   5.152   2.123
17819SOL    HW164676   9.553   5.117   2.217
17819SOL    HW264677   9.543   5.076   2.059
17820SOL     OW64678   7.035   9.770   4.119
17820SOL    HW164679   6.998   9.782   4.211
17820SOL    HW264680   7.110   9.703   4.122
17821SOL     OW64681   1.745   3.297   4.822
17821SOL    HW164682   1.789   3.387   4.822
17821SOL    HW264683   1.751   3.257   4.913
17822SOL     OW64684   9.623   7.202   5.809
17822SOL    HW164685   9.569   7.169   5.731
17822SOL    HW264686   9.594   7.153   5.892
17823SOL     OW64687   7.810   3.740   4.176
17823SOL    HW164688   7.777   3.713   4.267
17823SOL    HW264689   7.801   3.839   4.165
17824SOL     OW64690   1.397   8.790   0.294
17824SOL    HW164691   1.405   8.697   0.258
17824SOL    HW264692   1.300   8.814   0.303
17825SOL     OW64693   8.685   7.287   2.660
17825SOL    HW164694   8.634   7.274   2.575
17825SOL    HW264695   8.751   7.362   2.648
17826SOL     OW64696   0.017   1.231   0.692
17826SOL    HW164697   0.016   1.137   0.728
17826SOL    HW264698   9.931   1.276   0.714
17827SOL     OW64699   3.437   3.696   5.323
17827SOL    HW164700   3.374   3.676   5.398
17827SOL    HW264701   3.499   3.770   5.350
17828SOL     OW64702   0.455   0.516   3.787
17828SOL    HW164703   0.415   0.607   3.801
17828SOL    HW264704   0.448   0.463   3.871
17829SOL     OW64705   6.117   3.566   0.723
17829SOL    HW164706   6.031   3.519   0.699
17829SOL    HW264707   6.097   3.646   0.779
17830SOL     OW64708   0.306   5.565   2.441
17830SOL    HW164709   0.261   5.582   2.353
17830SOL    HW264710   0.405   5.566   2.428
17831SOL     OW64711   8.554   8.857   0.636
17831SOL    HW164712   8.462   8.898   0.635
17831SOL    HW264713   8.617   8.918   0.684
17832SOL     OW64714   9.397   3.202   2.862
17832SOL    HW164715   9.412   3.236   2.955
17832SOL    HW264716   9.341   3.267   2.811
17833SOL     OW64717   1.974   3.463   0.597
17833SOL    HW164718   2.050   3.417   0.641
17833SOL    HW264719   2.003   3.499   0.508
17834SOL     OW64720   1.402   8.545   5.416
17834SOL    HW164721   1.456   8.612   5.467
17834SOL    HW264722   1.448   8.523   5.330
17835SOL     OW64723   9.818   4.581   6.128
17835SOL    HW164724   9.762   4.561   6.048
17835SOL    HW264725   9.796   4.517   6.202
17836SOL     OW64726   8.562   9.926   2.261
17836SOL    HW164727   8.649   9.915   2.309
17836SOL    HW264728   8.552   0.020   2.231
17837SOL     OW64729   3.551   4.178   1.411
17837SOL    HW164730   3.605   4.094   1.423
17837SOL    HW264731   3.475   4.179   1.475
17838SOL     OW64732   1.420   2.967   0.579
17838SOL    HW164733   1.513   3.001   0.565
17838SOL    HW264734   1.364   2.990   0.499
17839SOL     OW64735   6.599   2.097   2.508
17839SOL    HW164736   6.636   2.119   2.418
17839SOL    HW264737   6.605   1.998   2.523
17840SOL     OW64738   3.362   9.177   2.913
17840SOL    HW164739   3.380   9.165   2.815
17840SOL    HW264740   3.381   9.272   2.938
17841SOL     OW64741   4.847   9.086   4.085
17841SOL    HW164742   4.776   9.101   4.155
17841SOL    HW264743   4.846   9.162   4.020
17842SOL     OW64744   7.530   0.274   2.407
17842SOL    HW164745   7.617   0.226   2.413
17842SOL    HW264746   7.457   0.217   2.447
17843SOL     OW64747   6.696   7.782   5.222
17843SOL    HW164748   6.698   7.822   5.130
17843SOL    HW264749   6.753   7.699   5.223
17844SOL     OW64750   5.000   0.320   5.735
17844SOL    HW164751   5.087   0.363   5.715
17844SOL    HW264752   4.950   0.374   5.803
17845SOL     OW64753   1.026   9.247   3.399
17845SOL    HW164754   1.028   9.182   3.475
17845SOL    HW264755   1.108   9.305   3.403
17846SOL     OW64756   4.395   0.487   1.359
17846SOL    HW164757   4.423   0.400   1.318
17846SOL    HW264758   4.349   0.543   1.290
17847SOL     OW64759   7.670   0.319   0.362
17847SOL    HW164760   7.736   0.283   0.296
17847SOL    HW264761   7.626   0.243   0.410
17848SOL     OW64762   7.390   1.443   3.981
17848SOL    HW164763   7.347   1.506   4.045
17848SOL    HW264764   7.440   1.495   3.912
17849SOL     OW64765   0.523   0.087   6.060
17849SOL    HW164766   0.459   0.031   6.007
17849SOL    HW264767   0.534   0.176   6.016
17850SOL     OW64768   0.127   8.426   1.106
17850SOL    HW164769   0.193   8.368   1.057
17850SOL    HW264770   0.055   8.455   1.044
17851SOL     OW64771   2.027   2.474   0.393
17851SOL    HW164772   2.123   2.501   0.383
17851SOL    HW264773   1.968   2.554   0.383
17852SOL     OW64774   5.843   9.311   2.294
17852SOL    HW164775   5.810   9.405   2.291
17852SOL    HW264776   5.919   9.304   2.359
17853SOL     OW64777   9.372   7.111   1.832
17853SOL    HW164778   9.426   7.109   1.747
17853SOL    HW264779   9.276   7.097   1.810
17854SOL     OW64780   9.408   5.628   3.745
17854SOL    HW164781   9.440   5.569   3.819
17854SOL    HW264782   9.329   5.680   3.775
17855SOL     OW64783   2.742   6.752   5.644
17855SOL    HW164784   2.810   6.750   5.717
17855SOL    HW264785   2.666   6.811   5.673
17856SOL     OW64786   7.123   7.253   6.058
17856SOL    HW164787   7.078   7.310   6.126
17856SOL    HW264788   7.062   7.178   6.032
17857SOL     OW64789   2.950   1.953   5.170
17857SOL    HW164790   2.993   2.043   5.164
17857SOL    HW264791   2.883   1.953   5.244
17858SOL     OW64792   3.456   8.701   2.040
17858SOL    HW164793   3.533   8.654   1.997
17858SOL    HW264794   3.433   8.656   2.126
17859SOL     OW64795   7.841   2.642   0.144
17859SOL    HW164796   7.887   2.569   0.093
17859SOL    HW264797   7.893   2.727   0.136
17860SOL     OW64798   0.844   4.496   2.713
17860SOL    HW164799   0.901   4.489   2.631
17860SOL    HW264800   0.814   4.590   2.724
17861SOL     OW64801   6.859   1.291   3.058
17861SOL    HW164802   6.953   1.300   3.090
17861SOL    HW264803   6.815   1.214   3.102
17862SOL     OW64804   9.754   5.028   5.806
17862SOL    HW164805   9.697   5.004   5.884
17862SOL    HW264806   9.797   5.117   5.821
17863SOL     OW64807   5.524   5.562   0.930
17863SOL    HW164808   5.566   5.559   1.021
17863SOL    HW264809   5.427   5.585   0.938
17864SOL     OW64810   5.209   4.026   1.246
17864SOL    HW164811   5.186   3.994   1.337
17864SOL    HW264812   5.177   4.120   1.234
17865SOL     OW64813   0.995   0.186   2.424
17865SOL    HW164814   0.915   0.129   2.404
17865SOL    HW264815   1.070   0.127   2.457
17866SOL     OW64816   9.812   0.633   4.075
17866SOL    HW164817   9.760   0.666   3.996
17866SOL    HW264818   9.787   0.538   4.093
17867SOL     OW64819   1.220   6.966   0.336
17867SOL    HW164820   1.318   6.945   0.331
17867SOL    HW264821   1.187   6.996   0.247
17868SOL     OW64822   4.407   8.824   0.873
17868SOL    HW164823   4.489   8.880   0.873
17868SOL    HW264824   4.362   8.830   0.783
17869SOL     OW64825   0.615   9.908   0.604
17869SOL    HW164826   0.627   9.815   0.638
17869SOL    HW264827   0.549   9.907   0.529
17870SOL     OW64828   8.674   3.064   5.454
17870SOL    HW164829   8.593   3.092   5.404
17870SOL    HW264830   8.658   3.073   5.553
17871SOL     OW64831   5.099   6.302   0.844
17871SOL    HW164832   5.010   6.278   0.885
17871SOL    HW264833   5.111   6.251   0.759
17872SOL     OW64834   2.884   1.455   1.147
17872SOL    HW164835   2.814   1.394   1.109
17872SOL    HW264836   2.972   1.434   1.106
17873SOL     OW64837   3.956   4.751   1.057
17873SOL    HW164838   4.020   4.725   1.129
17873SOL    HW264839   3.985   4.710   0.971
17874SOL     OW64840   0.996   2.797   5.671
17874SOL    HW164841   1.088   2.834   5.656
17874SOL    HW264842   0.929   2.856   5.625
17875SOL     OW64843   2.565   9.823   2.232
17875SOL    HW164844   2.480   9.874   2.216
17875SOL    HW264845   2.602   9.792   2.144
17876SOL     OW64846   9.461   8.277   6.282
17876SOL    HW164847   9.472   8.222   6.199
17876SOL    HW264848   9.545   8.328   6.301
17877SOL     OW64849   0.764   8.431   2.989
17877SOL    HW164850   0.721   8.521   2.989
17877SOL    HW264851   0.785   8.404   2.895
17878SOL     OW64852   8.901   4.892   0.453
17878SOL    HW164853   8.947   4.952   0.519
17878SOL    HW264854   8.823   4.848   0.496
17879SOL     OW64855   9.161   6.343   3.266
17879SOL    HW164856   9.090   6.318   3.201
17879SOL    HW264857   9.143   6.433   3.304
17880SOL     OW64858   2.534   9.332   4.400
17880SOL    HW164859   2.628   9.298   4.400
17880SOL    HW264860   2.513   9.368   4.309
17881SOL     OW64861   1.884   1.034   0.434
17881SOL    HW164862   1.823   1.034   0.355
17881SOL    HW264863   1.853   0.967   0.500
17882SOL     OW64864   8.090   5.360   5.375
17882SOL    HW164865   8.009   5.408   5.411
17882SOL    HW264866   8.153   5.341   5.450
17883SOL     OW64867   4.583   0.501   4.154
17883SOL    HW164868   4.625   0.490   4.064
17883SOL    HW264869   4.484   0.492   4.147
17884SOL     OW64870   3.119   2.077   4.245
17884SOL    HW164871   3.126   2.101   4.148
17884SOL    HW264872   3.132   1.979   4.256
17885SOL     OW64873   2.950   5.585   0.183
17885SOL    HW164874   3.014   5.561   0.109
17885SOL    HW264875   3.000   5.596   0.268
17886SOL     OW64876   1.092   7.585   2.470
17886SOL    HW164877   1.032   7.505   2.475
17886SOL    HW264878   1.050   7.661   2.519
17887SOL     OW64879   1.178   9.713   6.383
17887SOL    HW164880   1.194   9.804   6.421
17887SOL    HW264881   1.149   9.651   6.456
17888SOL     OW64882   4.016   9.489   2.480
17888SOL    HW164883   3.957   9.447   2.549
17888SOL    HW264884   3.973   9.479   2.389
17889SOL     OW64885   8.703   0.367   6.252
17889SOL    HW164886   8.623   0.349   6.311
17889SOL    HW264887   8.682   0.336   6.159
17890SOL     OW64888   0.031   1.114   1.295
17890SOL    HW164889   9.953   1.122   1.233
17890SOL    HW264890   0.005   1.059   1.375
17891SOL     OW64891   9.151   4.210   3.969
17891SOL    HW164892   9.137   4.113   3.947
17891SOL    HW264893   9.082   4.239   4.036
17892SOL     OW64894   7.489   7.502   6.067
17892SOL    HW164895   7.588   7.497   6.080
17892SOL    HW264896   7.449   7.411   6.077
17893SOL     OW64897   2.973   8.228   4.867
17893SOL    HW164898   2.926   8.170   4.933
17893SOL    HW264899   2.945   8.323   4.881
17894SOL     OW64900   4.629   2.962   1.938
17894SOL    HW164901   4.658   2.958   2.034
17894SOL    HW264902   4.533   2.937   1.930
17895SOL     OW64903   3.515   9.375   5.325
17895SOL    HW164904   3.445   9.371   5.396
17895SOL    HW264905   3.502   9.300   5.261
  10.00000  10.00000   8.18850
