chitosan Film  in water:acetic acid 2%
10903
    1CHTO  H203    1   4.110   6.420   2.862  0.2678 -0.5198 -0.6360
    1CHTO   O82    2   4.192   6.447   2.826 -0.0664  0.4484 -0.6663
    1CHTO  C123    3   4.284   6.485   2.927  0.1404  0.5462 -0.1671
    1CHTO  H227    4   4.234   6.543   3.006 -0.5577  1.0242 -0.9642
    1CHTO   O77    5   4.326   6.360   2.985  0.1415  0.0535  0.1640
    1CHTO  C118    6   4.420   6.382   3.093  0.1327 -0.4140 -0.3210
    1CHTO  H222    7   4.373   6.454   3.161  0.4314  2.4332 -3.0406
    1CHTO  C125    8   4.431   6.240   3.160 -0.4704 -0.5488 -0.1709
    1CHTO   O84    9   4.523   6.225   3.273  0.0307 -0.4664 -0.5227
    1CHTO  H205   10   4.490   6.155   3.326 -1.2788  0.3388 -0.2538
    1CHTO  C114   11   4.552   6.437   3.040 -0.4789  0.3125 -0.0545
    1CHTO  H218   12   4.598   6.361   2.978  1.3287  1.6916 -0.4461
    1CHTO  C116   13   4.533   6.567   2.956  0.1304 -0.2830  0.5863
    1CHTO  H220   14   4.529   6.658   3.019  0.8677 -0.9646  1.6448
    1CHTO   O79   15   4.651   6.591   2.873 -0.0034  0.4627  0.7844
    1CHTO  H201   16   4.627   6.621   2.787  0.2643 -1.7390 -0.0969
    1CHTO  C120   17   4.404   6.561   2.861  0.5918 -0.3007  0.4447
    1CHTO  H224   18   4.439   6.502   2.774  3.0070 -0.0106  1.1806
    1CHTO   N21   19   4.370   6.697   2.810 -0.1925  0.3066  0.6790
    1CHTO  H211   20   4.307   6.743   2.885  1.6297  0.2973  2.2501
    1CHTO  H212   21   4.463   6.748   2.790 -0.6858  0.2590 -1.8649
    1CHTO   O75   22   4.630   6.456   3.157  0.2870 -1.0225 -1.0336
    1CHTO  C112   23   4.782   6.360   3.127  0.1965 -0.8658  0.4050
    1CHTO  H216   24   4.830   6.405   3.038 -0.6161  0.4698  0.6186
    1CHTO   O73   25   4.747   6.218   3.106 -0.0132 -0.4082  0.4641
    1CHTO  C113   26   4.856   6.132   3.067  0.1186  0.2902  0.4520
    1CHTO  H217   27   4.898   6.179   2.975  1.6611 -1.7707  0.0763
    1CHTO  C124   28   4.795   5.995   3.031  0.1616 -0.5437 -0.2310
    1CHTO   O83   29   4.708   5.998   2.917  0.0755 -0.1671 -0.0528
    1CHTO  H204   30   4.631   5.948   2.936  0.2615  0.2545  1.9529
    1CHTO  C109   31   4.964   6.126   3.180 -0.3580 -0.2298 -0.0264
    1CHTO  H213   32   4.921   6.071   3.265 -1.2983  1.7949  0.8398
    1CHTO  C110   33   5.004   6.268   3.226 -0.1193  0.5998 -0.2772
    1CHTO  H214   34   5.063   6.308   3.143 -0.1113  1.0362 -0.0602
    1CHTO   O78   35   5.098   6.259   3.342 -0.5145  0.1899 -0.7431
    1CHTO  H200   36   5.187   6.233   3.326 -0.5483 -0.9376  0.7491
    1CHTO  C111   37   4.881   6.359   3.252 -0.3989  0.4986  0.3504
    1CHTO  H215   38   4.815   6.318   3.330  2.1240 -1.4601  1.5355
    1CHTO   N19   39   4.911   6.495   3.290 -0.1268 -0.2302 -0.3457
    1CHTO  H207   40   4.824   6.559   3.296 -1.4780 -2.3140  4.2066
    1CHTO  H208   41   4.983   6.541   3.223  0.2073 -0.4673 -0.1478
    1CHTO   O74   42   5.078   6.050   3.122 -0.5121 -0.3406  0.0461
    1CHTO  C115   43   5.102   5.930   3.172 -0.6963  0.2396 -0.3032
    1CHTO  H219   44   5.011   5.890   3.218 -0.9303  1.0147 -0.0803
    1CHTO   O76   45   5.134   5.833   3.062  0.3527 -0.0899  0.5202
    1CHTO  C122   46   5.243   5.881   2.978 -0.1262  0.1404  0.1313
    1CHTO  H226   47   5.191   5.960   2.925 -0.1818  0.7294  1.0581
    1CHTO  C126   48   5.277   5.775   2.869 -0.1297 -0.1205 -0.5680
    1CHTO   O85   49   5.383   5.809   2.781  0.1263  0.0292  0.7235
    1CHTO  H206   50   5.388   5.744   2.713 -2.1963 -0.3170  0.8272
    1CHTO  C121   51   5.365   5.931   3.063  0.1025 -0.0059  0.0565
    1CHTO  H225   52   5.445   5.870   3.017  0.7691  1.1031 -0.2672
    1CHTO   O81   53   5.392   6.068   3.051 -0.2058 -0.1570 -0.0668
    1CHTO  H202   54   5.425   6.089   2.966  1.5086 -1.5687  0.2385
    1CHTO  C119   55   5.356   5.894   3.210  0.5256 -0.0288  0.3072
    1CHTO  H223   56   5.348   5.785   3.214  1.8154 -0.1156  0.7062
    1CHTO  C117   57   5.223   5.943   3.275  0.3108  0.3058 -0.1052
    1CHTO  H221   58   5.218   6.047   3.309 -1.1886  0.0440  0.5046
    1CHTO   N20   59   5.189   5.865   3.399  0.4447 -0.1722 -0.6837
    1CHTO  H209   60   5.118   5.786   3.377 -0.6558  0.3076  1.0006
    1CHTO  H210   61   5.270   5.812   3.446 -0.3670 -0.3980  0.5016
    1CHTO   O80   62   5.470   5.919   3.302  0.0380  0.2995 -0.2631
    1CHTO  C103   63   5.600   5.835   3.297  0.2214 -0.0675  0.3591
    1CHTO  H190   64   5.633   5.834   3.401 -0.0225  0.3038  0.4439
    1CHTO  C101   65   5.585   5.686   3.253 -0.2428  0.0385 -1.1421
    1CHTO  H188   66   5.555   5.682   3.149  1.4406  0.6866 -1.6714
    1CHTO   O68   67   5.475   5.616   3.346 -0.2721  0.1579 -0.1689
    1CHTO  H168   68   5.392   5.602   3.305 -0.6515 -0.8570  0.9210
    1CHTO   C99   69   5.728   5.609   3.259 -0.2452 -0.3712 -0.6210
    1CHTO  H186   70   5.750   5.594   3.367 -1.1214 -0.2729 -0.4250
    1CHTO   N17   71   5.717   5.468   3.212  0.1575 -0.1841  0.5663
    1CHTO  H174   72   5.800   5.408   3.246  0.6066  0.2965  0.3461
    1CHTO  H175   73   5.715   5.467   3.104  0.4754  0.6295  0.5441
    1CHTO   C97   74   5.837   5.695   3.189 -0.4613  0.4944  0.6292
    1CHTO  H184   75   5.810   5.688   3.083  0.3670 -0.1377  0.4540
    1CHTO   O64   76   5.832   5.836   3.241  0.0311  0.4157  0.1420
    1CHTO  C104   77   5.708   5.908   3.215 -0.0797 -0.2380 -0.5843
    1CHTO  H191   78   5.680   5.911   3.110  0.8484 -2.8623 -0.9374
    1CHTO  C108   79   5.732   6.057   3.250  0.3427 -0.0598 -0.7106
    1CHTO   O71   80   5.847   6.109   3.177 -0.4029 -0.1572  0.2094
    1CHTO  H171   81   5.821   6.188   3.134  0.1298  0.3429  0.8006
    1CHTO   O62   82   5.967   5.651   3.214 -0.9999 -0.1584  0.1340
    1CHTO   C91   83   6.052   5.630   3.095  0.2608  0.0204 -0.3958
    1CHTO  H178   84   5.989   5.623   3.007  3.6058 -1.6932 -2.7563
    1CHTO   C92   85   6.113   5.493   3.114  0.0688 -0.5702 -0.1247
    1CHTO  H179   86   6.149   5.484   3.218  4.2088 -0.5727 -1.4640
    1CHTO   O66   87   6.009   5.395   3.088 -0.0399  0.0372  0.3768
    1CHTO  H166   88   5.988   5.360   3.172  1.5856  1.4421  1.3875
    1CHTO   C93   89   6.236   5.472   3.018 -0.7395 -0.2087  0.4592
    1CHTO  H180   90   6.197   5.491   2.917  0.7345 -1.4833 -0.3723
    1CHTO   N16   91   6.297   5.336   3.010  0.1989  0.3603  0.2063
    1CHTO  H172   92   6.350   5.320   3.103  0.6834  0.8741  0.0225
    1CHTO  H173   93   6.217   5.263   3.005 -0.8707  1.5436 -0.3852
    1CHTO   C94   94   6.340   5.584   3.053 -0.9065 -0.5133  0.6107
    1CHTO  H181   95   6.357   5.598   3.160  2.8364 -1.0238  0.1675
    1CHTO   O61   96   6.281   5.706   3.008 -0.0202  0.8699 -0.3432
    1CHTO   C95   97   6.160   5.743   3.075  0.6418  0.5587 -0.5424
    1CHTO  H182   98   6.188   5.786   3.171 -0.0038 -2.4045  1.0370
    1CHTO  C106   99   6.076   5.856   3.000  0.6589  0.2743  0.3454
    1CHTO   O69  100   6.157   5.971   2.984  0.6673  0.3552 -0.0732
    1CHTO  H169  101   6.142   6.020   2.905  1.9018 -0.1114 -0.6058
    1CHTO   O63  102   6.491   5.568   2.981 -0.1809 -0.6311  0.0780
    1CHTO   C96  103   6.619   5.627   3.065 -0.2875  0.5667 -0.3532
    1CHTO  H183  104   6.593   5.721   3.113 -3.5363 -0.0036 -0.8285
    1CHTO   C98  105   6.757   5.631   2.991  0.3386  0.2695  0.0252
    1CHTO  H185  106   6.748   5.675   2.890 -3.3049 -0.2585  0.0225
    1CHTO   O67  107   6.842   5.723   3.057 -0.5003  0.4648 -0.0436
    1CHTO  H167  108   6.890   5.683   3.127 -1.7249 -0.2524  0.4175
    1CHTO  C102  109   6.832   5.487   2.970  0.3962 -0.0530  0.1245
    1CHTO  H189  110   6.938   5.513   2.961  0.7074 -1.2321  0.2059
    1CHTO   N18  111   6.796   5.424   2.841 -0.0670  0.3327  0.3218
    1CHTO  H176  112   6.715   5.470   2.786 -0.9663  2.0083  2.9617
    1CHTO  H177  113   6.883   5.410   2.780  0.3621 -1.9386  1.4062
    1CHTO  C105  114   6.804   5.390   3.085 -0.2696 -0.2405 -0.6794
    1CHTO  H192  115   6.716   5.331   3.061  1.1967 -2.8698  0.2183
    1CHTO   O65  116   6.770   5.465   3.201 -0.3967 -0.6113  0.4223
    1CHTO  C100  117   6.639   5.527   3.194  0.1943 -0.8260 -0.3856
    1CHTO  H187  118   6.574   5.440   3.176  0.7179 -0.8301 -2.3142
    1CHTO  C107  119   6.604   5.597   3.329  0.0076  0.4493  0.2472
    1CHTO   O70  120   6.690   5.710   3.357 -0.9517  1.0174  0.3284
    1CHTO  H170  121   6.772   5.674   3.383 -0.1349  1.3008 -1.7876
    1CHTO   O57  122   6.946   5.301   3.112  0.1887  0.2831 -0.2181
    1CHTO   C85  123   6.939   5.194   3.211  0.0219 -0.1813  0.7575
    1CHTO  H157  124   6.831   5.168   3.217  0.1195 -0.1800  3.1780
    1CHTO   C83  125   6.978   5.254   3.350 -0.8949  0.0295  0.4366
    1CHTO  H155  126   6.917   5.342   3.367  1.1974  1.9856 -1.7722
    1CHTO   O56  127   7.116   5.296   3.355  0.0479 -0.4541  0.2960
    1CHTO  H135  128   7.152   5.327   3.274 -1.4823  2.2165  0.5672
    1CHTO   C81  129   6.958   5.149   3.464  0.5148  0.3128  0.1214
    1CHTO  H153  130   6.852   5.123   3.458  0.6319 -0.0595 -0.3736
    1CHTO   N14  131   6.982   5.202   3.603 -0.0675 -0.1553  0.5711
    1CHTO  H141  132   6.896   5.260   3.627 -0.7778 -0.9364 -0.0393
    1CHTO  H142  133   6.989   5.119   3.670  0.6135 -1.0021 -0.5430
    1CHTO   C79  134   7.037   5.014   3.428  0.2175  0.1182  0.1085
    1CHTO  H151  135   7.015   4.943   3.508 -1.5335  0.6844  0.1567
    1CHTO   O52  136   7.011   4.970   3.296 -0.3814  0.1017 -0.0375
    1CHTO   C86  137   7.028   5.072   3.192 -0.2875  0.0250 -0.0630
    1CHTO  H158  138   7.137   5.096   3.191 -0.6859  1.8886  0.2478
    1CHTO   C90  139   7.006   5.007   3.053  0.6393 -0.1565 -0.3773
    1CHTO   O60  140   7.086   4.891   3.028 -0.5718 -0.6593 -0.1155
    1CHTO  H138  141   7.155   4.915   2.970 -0.2160  0.0341  0.5726
    1CHTO   O50  142   7.180   5.032   3.436  0.5858 -0.6126 -0.1732
    1CHTO   C73  143   7.297   4.943   3.419  0.7412 -0.1268 -0.2864
    1CHTO  H145  144   7.311   4.936   3.310  1.0149 -0.1921 -0.2482
    1CHTO   C74  145   7.269   4.798   3.479 -0.0795 -0.0434 -0.2419
    1CHTO  H146  146   7.176   4.761   3.434 -0.2096 -0.6773  0.5297
    1CHTO   O54  147   7.375   4.708   3.441  0.6414  0.2026 -0.0883
    1CHTO  H133  148   7.382   4.696   3.348 -2.5414 -2.0632 -0.0736
    1CHTO   C75  149   7.252   4.806   3.641  0.1036  0.0311 -0.2473
    1CHTO  H147  150   7.168   4.871   3.670 -0.7330 -0.1110 -2.2597
    1CHTO   N13  151   7.211   4.675   3.695  0.2711 -0.1941  0.0862
    1CHTO  H139  152   7.231   4.592   3.628  1.8783  0.0087  0.2944
    1CHTO  H140  153   7.110   4.668   3.731  0.7529  0.7278  1.6634
    1CHTO   C76  154   7.375   4.870   3.699  0.1858  0.1197  0.0322
    1CHTO  H148  155   7.456   4.797   3.692 -1.0021 -1.1876 -0.1679
    1CHTO   O49  156   7.417   4.984   3.628 -0.1984 -0.2994 -0.0352
    1CHTO   C77  157   7.427   4.988   3.484  0.2962 -0.4867  0.6974
    1CHTO  H149  158   7.510   4.926   3.447  0.2902  1.0153 -1.9600
    1CHTO   C88  159   7.468   5.131   3.433 -0.2246 -0.1563  0.1012
    1CHTO   O58  160   7.595   5.159   3.467 -0.5298 -0.3042  0.5146
    1CHTO  H136  161   7.612   5.244   3.432 -1.7268 -0.0171  0.6386
    1CHTO   O51  162   7.351   4.928   3.847 -0.6527  0.3920  0.0567
    1CHTO   C78  163   7.280   5.063   3.853  0.1287 -0.4236 -0.6987
    1CHTO  H150  164   7.219   5.091   3.764 -0.3501 -1.7076 -0.7841
    1CHTO   C80  165   7.379   5.174   3.891 -0.1083  0.0561  0.2333
    1CHTO  H152  166   7.406   5.172   3.999 -2.6798 -0.8482  0.8798
    1CHTO   O55  167   7.494   5.165   3.805  0.7466 -0.3468 -0.8389
    1CHTO  H134  168   7.569   5.183   3.859  0.0349  1.2300 -0.3270
    1CHTO   C84  169   7.307   5.315   3.883  0.2572 -0.4310  0.6756
    1CHTO  H156  170   7.277   5.329   3.780 -0.3055 -1.2555  0.7307
    1CHTO   N15  171   7.399   5.428   3.917 -0.5994 -0.3543  0.5102
    1CHTO  H143  172   7.351   5.524   3.922 -0.0700 -0.0022 -0.9764
    1CHTO  H144  173   7.433   5.405   4.016  1.6124  2.1303  0.4070
    1CHTO   C87  174   7.173   5.314   3.973  0.6689  0.3369 -0.5652
    1CHTO  H159  175   7.196   5.341   4.076 -1.4236  1.0600 -0.2769
    1CHTO   O53  176   7.095   5.168   3.976 -0.0558  0.0640 -0.3977
    1CHTO   C82  177   7.178   5.050   3.965 -0.3046 -1.0226  0.0069
    1CHTO  H154  178   7.232   5.037   4.058 -0.5154 -0.3831  0.2182
    1CHTO   C89  179   7.079   4.926   3.954 -1.1660  0.0705  0.3629
    1CHTO   O59  180   6.987   4.951   3.849  0.2638  0.2694  0.7464
    1CHTO  H137  181   6.940   5.029   3.870 -0.0351 -0.2779  2.1426
    1CHTO   O45  182   7.057   5.418   3.925 -0.2317 -0.1452  0.4453
    1CHTO   C67  183   7.076   5.565   3.942 -0.1176 -0.5207 -0.3308
    1CHTO  H124  184   7.163   5.585   4.004  0.3397  1.5120 -1.5987
    1CHTO   C65  185   7.090   5.634   3.803  0.2109  1.3376 -0.1987
    1CHTO  H122  186   7.161   5.568   3.753 -1.3742 -0.4451 -0.1691
    1CHTO   O44  187   7.129   5.772   3.821 -1.1995 -0.0223  0.0936
    1CHTO  H102  188   7.060   5.824   3.857 -0.8085 -0.1468  1.0149
    1CHTO   C63  189   6.951   5.602   3.731  0.0702  0.5076 -0.3795
    1CHTO  H120  190   6.932   5.496   3.743 -2.3774  0.7295 -2.0619
    1CHTO   N11  191   6.936   5.625   3.583  0.1692  0.1545  0.1840
    1CHTO  H108  192   7.014   5.679   3.534  0.0444 -0.5023 -0.7732
    1CHTO  H109  193   6.915   5.534   3.530 -0.3459  1.0879 -1.2428
    1CHTO   C61  194   6.833   5.672   3.807  0.0848  0.3055 -0.3861
    1CHTO  H118  195   6.739   5.627   3.772  0.6667 -0.0164 -1.5610
    1CHTO   O40  196   6.835   5.640   3.947  0.2659  0.1707  0.1200
    1CHTO   C68  197   6.952   5.618   4.028  0.3943 -0.6741  1.0315
    1CHTO  H125  198   6.926   5.537   4.099 -1.9476 -0.5251  0.4000
    1CHTO   C72  199   6.986   5.744   4.109  0.3377  0.4518  0.3766
    1CHTO   O48  200   7.110   5.736   4.185 -0.5294  0.2711 -0.2571
    1CHTO  H105  201   7.087   5.692   4.265  1.5384 -0.9189 -0.2922
    1CHTO   O38  202   6.821   5.818   3.793 -0.6068  0.0662 -0.3680
    1CHTO   C55  203   6.709   5.892   3.852 -0.2956 -0.5163 -0.2365
    1CHTO  H112  204   6.690   5.853   3.953 -0.4474 -0.6147 -0.3024
    1CHTO   C56  205   6.575   5.883   3.760  0.2343  0.0699 -0.2833
    1CHTO  H113  206   6.604   5.909   3.657 -0.3000 -0.3124 -0.5310
    1CHTO   O42  207   6.536   5.748   3.748  0.2937  0.3512 -0.3262
    1CHTO  H100  208   6.599   5.698   3.699  0.8516  0.2443  0.4984
    1CHTO   C57  209   6.457   5.970   3.814  0.5281 -0.5702  0.0545
    1CHTO  H114  210   6.419   5.925   3.906 -0.6877 -1.9687 -1.1153
    1CHTO   N10  211   6.338   5.970   3.724  0.3095 -0.8514 -0.0989
    1CHTO  H106  212   6.271   5.887   3.743 -0.5778  0.0476  0.7507
    1CHTO  H107  213   6.285   6.063   3.718  1.1844 -0.4287 -1.3966
    1CHTO   C58  214   6.514   6.109   3.847  0.2367  0.7174  0.2704
    1CHTO  H115  215   6.541   6.162   3.753  0.4657  0.9182  0.4477
    1CHTO   O37  216   6.636   6.104   3.918 -0.1777 -0.5988 -0.1635
    1CHTO   C59  217   6.748   6.039   3.858 -0.4757 -0.6367  0.2652
    1CHTO  H116  218   6.751   6.074   3.755 -0.3563 -0.3528  0.3640
    1CHTO   C70  219   6.883   6.078   3.924 -0.1319 -0.9237 -0.1248
    1CHTO   O46  220   7.001   6.037   3.852 -0.2146 -0.2335  0.1234
    1CHTO  H103  221   7.030   6.106   3.795 -1.8986 -0.3442 -0.8979
    1CHTO   O39  222   6.409   6.190   3.936  0.0556  0.0025  0.4070
    1CHTO   C60  223   6.389   6.326   3.886 -0.2344 -0.9617 -0.2282
    1CHTO  H117  224   6.487   6.367   3.860 -0.0987  0.2121  2.0424
    1CHTO   C62  225   6.282   6.320   3.772  0.1978 -0.2118  0.1119
    1CHTO  H119  226   6.322   6.264   3.685 -0.8518 -2.3867  0.9953
    1CHTO   O43  227   6.169   6.245   3.819  0.1328  0.3383 -0.0520
    1CHTO  H101  228   6.130   6.296   3.887 -2.0646 -1.1482 -0.1255
    1CHTO   C66  229   6.238   6.473   3.722  0.5293  0.1701 -0.1938
    1CHTO  H123  230   6.324   6.522   3.676  0.0443  0.5748 -0.6780
    1CHTO   N12  231   6.141   6.455   3.616 -0.7091 -0.5393 -0.1528
    1CHTO  H110  232   6.048   6.430   3.665 -0.5948  1.8291  1.3699
    1CHTO  H111  233   6.137   6.551   3.567 -1.3939 -0.5025 -0.0371
    1CHTO   C69  234   6.209   6.565   3.839  0.1386 -0.0413 -0.5449
    1CHTO  H126  235   6.110   6.534   3.878  0.6947  0.1975  1.1210
    1CHTO   O41  236   6.317   6.571   3.954 -0.3870 -0.0809  0.1145
    1CHTO   C64  237   6.339   6.423   3.999 -0.5399  0.2349 -0.2438
    1CHTO  H121  238   6.245   6.372   4.026  0.4394 -0.7614  1.4023
    1CHTO   C71  239   6.438   6.423   4.124 -0.2340 -0.2301  0.0099
    1CHTO   O47  240   6.391   6.476   4.251 -0.4674  0.2645  0.4983
    1CHTO  H104  241   6.449   6.469   4.325 -0.4616  0.7556  0.5433
    1CHTO   O34  242   6.192   6.713   3.784 -0.2500  0.2905  0.3796
    1CHTO   C49  243   6.171   6.844   3.749 -0.5521  0.6695 -0.0707
    1CHTO   H91  244   6.066   6.864   3.766 -1.1589 -2.2323 -0.1744
    1CHTO   C47  245   6.217   6.860   3.596 -0.3567  0.4053 -0.0057
    1CHTO   H89  246   6.193   6.966   3.572 -0.2707  0.3179 -0.4860
    1CHTO   O33  247   6.134   6.767   3.513  0.4777 -0.2266  0.2022
    1CHTO   H70  248   6.187   6.738   3.442  1.1411 -0.5180  0.8028
    1CHTO   C45  249   6.377   6.833   3.588 -0.8092 -0.4416 -0.2294
    1CHTO   H87  250   6.403   6.740   3.640  0.8782  0.0870 -0.0772
    1CHTO    N8  251   6.427   6.834   3.445 -0.1631 -0.0093 -0.1611
    1CHTO   H75  252   6.343   6.822   3.377 -1.9095 -0.3295  2.0062
    1CHTO   H76  253   6.493   6.749   3.433 -0.1243 -0.3070  2.0793
    1CHTO   C43  254   6.447   6.946   3.680 -0.7594 -0.1052 -0.2517
    1CHTO   H85  255   6.554   6.930   3.667  0.0991 -1.1581  6.4073
    1CHTO   O29  256   6.404   6.935   3.820  0.4175 -0.7996 -0.0447
    1CHTO   C50  257   6.259   6.936   3.845 -0.2141 -0.2904  0.6718
    1CHTO   H92  258   6.250   6.900   3.948  0.5906  0.7270  1.1058
    1CHTO   C54  259   6.211   7.086   3.850 -0.1357 -0.2601  0.4804
    1CHTO   O36  260   6.096   7.106   3.940  1.1648 -0.1675 -0.3271
    1CHTO   H72  261   6.042   7.174   3.906 -0.4709 -1.9096 -1.3019
    1CHTO   O27  262   6.430   7.072   3.621 -0.0089  0.0530  0.2794
    1CHTO   C37  263   6.460   7.211   3.624  0.2693 -0.5470 -0.8106
    1CHTO   H79  264   6.439   7.261   3.720  0.1261 -0.6833 -0.7706
    1CHTO   C38  265   6.618   7.225   3.607  0.5677  0.1429  0.3547
    1CHTO   H80  266   6.648   7.173   3.514 -0.8205  1.9909 -1.1661
    1CHTO   O31  267   6.678   7.155   3.723  0.0101  0.2713 -0.1609
    1CHTO   H68  268   6.762   7.116   3.706  0.3732  1.0855 -0.2662
    1CHTO   C39  269   6.669   7.370   3.595  0.7000  0.3608  0.0573
    1CHTO   H81  270   6.649   7.421   3.690 -2.6756  0.7238 -0.7817
    1CHTO    N7  271   6.818   7.380   3.566  0.0035  0.4743  0.5487
    1CHTO   H73  272   6.850   7.482   3.552  0.7793  0.1867  0.1924
    1CHTO   H74  273   6.874   7.341   3.650  0.4637  0.3184  0.1726
    1CHTO   C40  274   6.583   7.447   3.486  0.8430 -0.2047 -0.0339
    1CHTO   H82  275   6.613   7.402   3.391  0.5450  0.0919 -0.2676
    1CHTO   O26  276   6.445   7.433   3.508  0.1790 -0.3161 -0.2987
    1CHTO   C41  277   6.398   7.293   3.506  0.1989  0.0286  0.4439
    1CHTO   H83  278   6.422   7.237   3.415  0.3003  1.5671 -0.4895
    1CHTO   C52  279   6.245   7.317   3.521 -0.1143 -0.0788  0.7223
    1CHTO   O35  280   6.160   7.177   3.486  0.2593 -0.0754 -0.1281
    1CHTO   H71  281   6.183   7.156   3.398  0.0156  0.8080 -0.4055
    1CHTO   O28  282   6.604   7.586   3.494 -0.3599  0.8468  0.4182
    1CHTO   C42  283   6.612   7.666   3.368  0.5160  0.1904  0.1010
    1CHTO   H84  284   6.606   7.597   3.284  2.5855  0.0425  0.0493
    1CHTO   C44  285   6.752   7.725   3.351 -0.3432 -0.3771  0.1258
    1CHTO   H86  286   6.797   7.753   3.446 -0.6307  0.2201  0.0875
    1CHTO   O32  287   6.844   7.629   3.300 -0.1671  0.3168 -0.2784
    1CHTO   H69  288   6.866   7.558   3.357  0.0202  1.2458  0.8183
    1CHTO   C48  289   6.759   7.842   3.243  0.9867 -1.1702  0.5708
    1CHTO   H90  290   6.753   7.794   3.145  0.4028  0.6682 -0.3231
    1CHTO    N9  291   6.889   7.921   3.258 -0.3135  0.5407  0.4458
    1CHTO   H77  292   6.896   7.956   3.360  0.0354  0.7046  0.3688
    1CHTO   H78  293   6.970   7.851   3.245  1.7917  2.5731  2.1821
    1CHTO   C51  294   6.636   7.944   3.270 -0.2981  0.4687  0.0424
    1CHTO   H93  295   6.658   7.979   3.371 -1.8013  0.8418  0.2606
    1CHTO   O30  296   6.509   7.869   3.259 -0.0208  0.4425 -0.3938
    1CHTO   C46  297   6.492   7.765   3.357  0.2519  0.2859 -0.5619
    1CHTO   H88  298   6.468   7.811   3.453 -0.9040  0.7708 -1.0704
    1CHTO   C53  299   6.363   7.684   3.310 -0.0627  0.3669 -0.0348
    1CHTO   O72  300   6.259   7.787   3.290  0.4682 -0.3451 -0.2001
    1CHTO  H199  301   6.180   7.742   3.268  1.2596 -0.8992 -1.9929
    1CHTO   O22  302   6.637   8.057   3.176  0.4022  0.0099  0.1054
    1CHTO   C31  303   6.622   8.063   3.032  0.1309 -0.1443  0.1935
    1CHTO   H59  304   6.607   8.170   3.008  1.1862 -0.0700 -0.1347
    1CHTO   C29  305   6.737   8.014   2.938  0.1119 -0.2502 -0.7959
    1CHTO   H57  306   6.749   7.908   2.965  1.3123  0.6628  2.4268
    1CHTO   O21  307   6.861   8.082   2.970  0.2831  0.2889  0.6881
    1CHTO   H37  308   6.894   8.045   3.049  0.7440  2.1497  1.3888
    1CHTO   C27  309   6.701   8.032   2.784 -0.0326  0.4283 -0.3810
    1CHTO   H55  310   6.687   8.140   2.773 -3.3336 -0.0019 -0.8466
    1CHTO    N5  311   6.798   7.986   2.679 -0.5955  0.0728  0.0952
    1CHTO   H43  312   6.825   7.885   2.706  1.1186  0.4753 -0.0484
    1CHTO   H44  313   6.898   8.025   2.695  0.0698 -1.6830  0.3178
    1CHTO   C25  314   6.565   7.961   2.751 -1.1308  0.1276 -0.1313
    1CHTO   H53  315   6.580   7.853   2.765  0.4899  0.3647  0.1085
    1CHTO   O17  316   6.469   8.012   2.842  0.0318 -0.2297  0.4694
    1CHTO   C32  317   6.494   7.996   2.984  0.5441 -0.1843  0.0374
    1CHTO   H60  318   6.505   7.889   2.997  1.5666 -0.1383 -0.3749
    1CHTO   C36  319   6.363   8.045   3.053 -0.3340  0.5777 -0.3794
    1CHTO   O25  320   6.252   7.972   3.008  0.2971  0.2657  0.1113
    1CHTO   H40  321   6.173   7.998   3.052 -0.2858  0.0368 -0.7808
    1CHTO   O15  322   6.512   8.001   2.612  0.0957 -0.2036  0.4585
    1CHTO   C19  323   6.428   7.937   2.509 -0.4329  0.1732 -0.3019
    1CHTO   H47  324   6.382   8.018   2.450 -1.4360  0.6511  1.1093
    1CHTO   C20  325   6.514   7.837   2.424  0.4470 -0.0123 -0.2081
    1CHTO   H48  326   6.550   7.750   2.482  1.2388 -1.7042 -3.1603
    1CHTO   O19  327   6.623   7.926   2.369  0.0503 -0.0122  0.6926
    1CHTO   H35  328   6.701   7.879   2.349  0.1193  0.2690  0.2963
    1CHTO   C21  329   6.421   7.784   2.312  0.0923  0.4418  0.1750
    1CHTO   H49  330   6.389   7.867   2.249  2.3128  1.7680  0.7148
    1CHTO    N4  331   6.496   7.700   2.215 -0.0508  0.4571 -0.5671
    1CHTO   H41  332   6.440   7.684   2.124 -1.4169 -2.0715  0.6624
    1CHTO   H42  333   6.587   7.754   2.191  0.8798 -0.3737  1.0104
    1CHTO   C22  334   6.313   7.705   2.382 -0.1092 -0.1844  0.5548
    1CHTO   H50  335   6.363   7.627   2.440  3.1857  0.6200 -1.0746
    1CHTO   O14  336   6.237   7.794   2.467 -0.0845 -0.2017  0.4743
    1CHTO   C23  337   6.311   7.862   2.571  0.0662 -0.3951 -0.3386
    1CHTO   H51  338   6.345   7.787   2.643 -0.6189 -0.6772 -0.3102
    1CHTO   C34  339   6.222   7.965   2.642  0.3908 -0.2980  0.3926
    1CHTO   O23  340   6.116   7.894   2.701 -0.5206  0.2176 -0.0543
    1CHTO   H38  341   6.120   7.903   2.795 -1.8508 -2.6214  0.3298
    1CHTO   O16  342   6.211   7.651   2.297 -0.1354 -0.5755  0.1959
    1CHTO   C24  343   6.206   7.489   2.303 -0.1018 -0.7927  0.2463
    1CHTO   H52  344   6.296   7.449   2.348 -0.3271 -0.3230  1.1476
    1CHTO   C26  345   6.187   7.442   2.154  1.2170  0.1844 -0.5958
    1CHTO   H54  346   6.092   7.480   2.112  1.8844  0.1458 -2.1517
    1CHTO   O20  347   6.305   7.478   2.076  0.2294  0.2064 -0.1739
    1CHTO   H36  348   6.287   7.483   1.984 -0.3446  2.2571  0.0011
    1CHTO   C30  349   6.168   7.290   2.145  0.3499  0.0097 -0.2567
    1CHTO   H58  350   6.271   7.254   2.160 -0.5002 -2.0230  0.9005
    1CHTO    N6  351   6.125   7.246   2.010  0.6520 -0.3106  0.4486
    1CHTO   H45  352   6.032   7.298   1.995  0.2171 -1.8281 -2.4561
    1CHTO   H46  353   6.194   7.279   1.934 -0.6649  0.6057 -0.3618
    1CHTO   C33  354   6.072   7.226   2.251 -0.1065  0.0647 -0.3074
    1CHTO   H61  355   5.964   7.228   2.227 -1.0641  2.8901  3.6810
    1CHTO   O18  356   6.092   7.297   2.378  0.1882 -0.1554 -0.0204
    1CHTO   C28  357   6.082   7.441   2.387  0.0795 -0.2837 -0.7582
    1CHTO   H56  358   5.990   7.476   2.341  0.2099 -0.7837 -1.4012
    1CHTO   C35  359   6.094   7.486   2.533  0.0759 -0.8800 -0.5077
    1CHTO   O24  360   6.043   7.620   2.568 -0.5691 -0.5505  0.4909
    1CHTO   H39  361   6.058   7.634   2.660 -1.0004 -1.1133  0.6490
    1CHTO    O9  362   6.105   7.088   2.261 -0.5347  0.1831 -0.5499
    1CHTO   C13  363   6.028   7.004   2.374 -0.1674 -0.5445 -0.2487
    1CHTO   H26  364   5.938   7.061   2.403  1.1461  2.0607 -1.0898
    1CHTO   C11  365   6.114   6.980   2.499  0.4485 -0.5878 -0.4346
    1CHTO   H24  366   6.124   7.079   2.546  0.1930  0.1451 -1.8756
    1CHTO    O8  367   6.248   6.934   2.465  0.2561  0.4570 -0.4802
    1CHTO    H3  368   6.244   6.848   2.429 -3.4272  0.6478 -0.6806
    1CHTO    C9  369   6.045   6.885   2.598  0.4508  0.7957  0.2127
    1CHTO   H22  370   5.949   6.934   2.621 -0.9315 -1.0417 -1.4789
    1CHTO    N2  371   6.108   6.874   2.732 -0.3768  0.2318  0.2144
    1CHTO   H10  372   6.054   6.819   2.807 -1.3303  0.9108  0.0330
    1CHTO   H11  373   6.140   6.971   2.768  0.2267 -0.2816  1.0928
    1CHTO    C7  374   6.026   6.746   2.531  0.1434  0.1675  0.3048
    1CHTO   H20  375   5.966   6.689   2.605  2.6361 -1.7923  0.8788
    1CHTO    O4  376   5.956   6.763   2.408 -0.2701  0.2437 -0.1711
    1CHTO   C14  377   5.977   6.867   2.308  0.4632 -0.0390 -0.3029
    1CHTO   H27  378   5.878   6.883   2.260 -0.0711 -0.5112  0.6177
    1CHTO   C18  379   6.075   6.811   2.195 -0.5381 -0.2956 -0.4498
    1CHTO   O13  380   6.016   6.718   2.103  0.0199 -0.1554 -0.6540
    1CHTO    H7  381   6.067   6.727   2.025  2.1617 -0.2357  0.7026
    1CHTO    O2  382   6.183   6.658   2.494 -0.4286  0.2254  0.1549
    1CHTO    C1  383   6.170   6.518   2.513 -0.3659 -0.5336 -0.3651
    1CHTO   H14  384   6.068   6.487   2.483 -1.8488  1.3892  2.3766
    1CHTO    C2  385   6.204   6.462   2.666  0.3014 -0.5120 -0.0762
    1CHTO   H15  386   6.303   6.499   2.695  1.0928 -0.6844 -2.4466
    1CHTO    O6  387   6.113   6.533   2.758 -0.8848 -0.2497 -0.0330
    1CHTO    H1  388   6.102   6.622   2.731 -0.1908 -0.2372 -0.2925
    1CHTO    C3  389   6.206   6.307   2.679  0.0994 -0.6145  1.5010
    1CHTO   H16  390   6.107   6.261   2.665 -0.2290  0.8681 -1.3696
    1CHTO    N1  391   6.255   6.264   2.815 -0.5174  0.2681  0.1757
    1CHTO    H8  392   6.350   6.315   2.823  0.4795 -0.9433 -3.2033
    1CHTO    H9  393   6.197   6.311   2.893 -0.3243  2.6170 -1.0551
    1CHTO    C4  394   6.294   6.249   2.557 -0.7171  0.3113  0.0628
    1CHTO   H17  395   6.398   6.277   2.565 -0.9075  1.1928 -0.4889
    1CHTO    O1  396   6.246   6.303   2.435 -0.3074 -0.0176  0.0319
    1CHTO    C5  397   6.267   6.440   2.416 -1.2056  0.3192  0.3600
    1CHTO   H18  398   6.370   6.466   2.437 -1.1545  1.4317 -1.2165
    1CHTO   C16  399   6.230   6.485   2.275 -0.1078 -0.1707  0.3569
    1CHTO   O11  400   6.295   6.409   2.180 -0.1286 -0.4371 -0.2975
    1CHTO    H5  401   6.259   6.412   2.094 -2.4367  1.4170  0.6661
    1CHTO    O3  402   6.272   6.112   2.548  0.5044  0.2319 -0.1482
    1CHTO    C6  403   6.377   6.023   2.498  0.3209 -0.7657 -0.4498
    1CHTO   H19  404   6.469   6.080   2.483 -1.1673  1.9088  0.3122
    1CHTO    C8  405   6.383   5.909   2.606 -0.7376 -0.0452  0.2678
    1CHTO   H21  406   6.282   5.872   2.625 -2.2737  3.4693 -0.5390
    1CHTO    O7  407   6.436   5.974   2.728  0.5689 -0.2076 -0.2826
    1CHTO    H2  408   6.396   6.057   2.746  2.3980  0.1590  2.3253
    1CHTO   C12  409   6.466   5.789   2.549 -0.0082  0.1495  0.8131
    1CHTO   H25  410   6.571   5.818   2.527 -0.0231  1.8710  2.8757
    1CHTO    N3  411   6.474   5.679   2.655 -0.0009 -0.9085 -0.0623
    1CHTO   H12  412   6.507   5.594   2.598  1.6828 -0.6984  0.5728
    1CHTO   H13  413   6.545   5.690   2.736 -1.0271 -0.6123  0.8132
    1CHTO   C15  414   6.401   5.744   2.411 -0.2595  0.6975  1.0476
    1CHTO   H28  415   6.297   5.717   2.432 -0.3420  1.7761  2.0788
    1CHTO   O10  416   6.481   5.635   2.340 -0.0224  0.3367 -0.1551
    1CHTO    H4  417   6.491   5.648   2.248  1.2304  2.2799  0.2275
    1CHTO    O5  418   6.403   5.856   2.319 -0.3456  0.0997 -0.0604
    1CHTO   C10  419   6.331   5.969   2.355  0.0689 -0.3257 -0.4227
    1CHTO   H23  420   6.226   5.938   2.350  0.2951 -0.9035 -1.9229
    1CHTO   C17  421   6.346   6.081   2.247 -0.4801  0.0245 -0.1530
    1CHTO   O12  422   6.296   6.051   2.117 -0.3394 -0.4866  0.1354
    1CHTO    H6  423   6.350   6.085   2.049 -1.3565  0.3525 -0.2613
    2CHTO  H203  424   3.438   4.262   1.172  0.2919  0.4521 -0.3088
    2CHTO   O82  425   3.523   4.242   1.207 -0.0635 -0.0844  0.2466
    2CHTO  C123  426   3.620   4.336   1.180 -0.0959  0.1556  0.2454
    2CHTO  H227  427   3.716   4.291   1.209 -0.1239 -0.6616 -0.9084
    2CHTO   O77  428   3.608   4.348   1.038 -0.5847 -0.0773  0.8883
    2CHTO  C118  429   3.713   4.436   0.985  0.2502  0.2048  0.7334
    2CHTO  H222  430   3.814   4.402   1.015 -0.3762 -2.2128  0.1981
    2CHTO  C125  431   3.697   4.416   0.828 -0.3361 -0.0893 -0.4029
    2CHTO   O84  432   3.810   4.475   0.755 -0.4826 -0.1370 -0.0482
    2CHTO  H205  433   3.817   4.445   0.666 -0.9288 -2.4448  0.6677
    2CHTO  C114  434   3.690   4.579   1.030  1.1154  0.1524 -0.0474
    2CHTO  H218  435   3.592   4.609   0.994  1.8318  1.0729 -1.2766
    2CHTO  C116  436   3.691   4.587   1.192  0.4716 -0.2875  0.6027
    2CHTO  H220  437   3.796   4.589   1.227  0.7175 -0.5480 -0.1036
    2CHTO   O79  438   3.644   4.718   1.232 -0.3826 -0.4613  0.4284
    2CHTO  H201  439   3.655   4.736   1.324 -0.8639 -0.6717  0.5273
    2CHTO  C120  440   3.600   4.468   1.251  0.0222 -0.4141 -0.0198
    2CHTO  H224  441   3.492   4.493   1.249 -0.0534 -0.3219  3.1066
    2CHTO   N21  442   3.639   4.461   1.397  0.3314 -0.5115  0.0538
    2CHTO  H211  443   3.592   4.376   1.446 -0.6008  0.6381  1.1877
    2CHTO  H212  444   3.607   4.552   1.445  0.2647  1.3200 -3.3297
    2CHTO   O75  445   3.793   4.654   0.966 -0.4409  0.0291  0.1855
    2CHTO  C112  446   3.755   4.811   0.916  0.1804 -0.3226 -0.2613
    2CHTO  H216  447   3.814   4.874   0.985 -1.2315 -0.1298  0.7879
    2CHTO   O73  448   3.616   4.839   0.928  0.1989  0.3801  0.2815
    2CHTO  C113  449   3.587   4.980   0.912 -0.4875  0.3132  0.8216
    2CHTO  H217  450   3.649   5.048   0.973 -0.5110  0.6771  0.4463
    2CHTO  C124  451   3.443   5.005   0.958  0.2679  0.2373  0.2091
    2CHTO   O83  452   3.427   5.139   1.012  0.0469  0.3210  0.3085
    2CHTO  H204  453   3.485   5.161   1.082 -0.3102 -0.1964  0.7717
    2CHTO  C109  454   3.619   5.018   0.765 -0.4514 -0.1318 -0.0377
    2CHTO  H213  455   3.553   4.960   0.698 -0.5018  2.0142 -1.9163
    2CHTO  C110  456   3.762   4.976   0.721 -0.3231  0.5405  0.0506
    2CHTO  H214  457   3.831   5.047   0.767  0.9531 -1.4244  1.2305
    2CHTO   O78  458   3.776   4.983   0.585 -0.3449  0.1900 -0.3010
    2CHTO  H200  459   3.857   4.944   0.561 -0.8264  0.3018 -2.1393
    2CHTO  C111  460   3.804   4.829   0.770 -0.1712  0.3378 -0.6724
    2CHTO  H215  461   3.747   4.757   0.708 -0.1524  0.8438 -1.2785
    2CHTO   N19  462   3.950   4.798   0.747 -0.1845  0.4480 -0.2611
    2CHTO  H207  463   4.007   4.877   0.793  0.4523  0.0019 -0.2776
    2CHTO  H208  464   3.969   4.710   0.806 -0.7293  1.6530  1.7496
    2CHTO   O74  465   3.596   5.158   0.748  0.3662  0.4536 -0.4210
    2CHTO  C115  466   3.471   5.193   0.629 -0.1705  0.5457  0.6232
    2CHTO  H219  467   3.407   5.108   0.606 -0.5073  1.6881 -2.9366
    2CHTO   O76  468   3.376   5.307   0.679  0.4716  0.1046 -0.1711
    2CHTO  C122  469   3.445   5.432   0.701 -0.5779 -0.8225  0.7828
    2CHTO  H226  470   3.492   5.422   0.799 -0.4571 -1.4054  0.6621
    2CHTO  C126  471   3.354   5.556   0.718 -0.3833 -0.0112 -0.4090
    2CHTO   O85  472   3.293   5.593   0.598  0.2645  0.3299 -0.0145
    2CHTO  H206  473   3.346   5.656   0.552  0.6630  0.0535  0.0634
    2CHTO  C121  474   3.550   5.461   0.579  0.0248  0.2819 -0.6626
    2CHTO  H225  475   3.541   5.569   0.555 -2.0800  0.7489  1.9068
    2CHTO   O81  476   3.686   5.451   0.620  0.3466  0.0018 -0.2559
    2CHTO  H202  477   3.704   5.361   0.639 -2.2377 -0.6431 -0.6101
    2CHTO  C119  478   3.526   5.381   0.452 -0.3280  0.1145  0.3687
    2CHTO  H223  479   3.420   5.399   0.432 -0.1698  1.1322  0.4353
    2CHTO  C117  480   3.542   5.231   0.491  0.3351 -0.3013 -0.8325
    2CHTO  H221  481   3.644   5.195   0.511 -0.9916 -3.8997 -0.1519
    2CHTO   N20  482   3.495   5.143   0.381 -0.5954  0.6771 -0.0089
    2CHTO  H209  483   3.479   5.044   0.420 -1.8777  1.5669  1.8453
    2CHTO  H210  484   3.573   5.132   0.308 -0.5892  0.0970  0.0871
    2CHTO   O80  485   3.590   5.444   0.319  0.2862 -0.1385 -0.3047
    2CHTO  C103  486   3.498   5.513   0.202  0.3506 -0.3294  0.2783
    2CHTO  H190  487   3.564   5.541   0.120  0.3774  0.3129  0.5179
    2CHTO  C101  488   3.375   5.419   0.147 -0.1746  0.1186 -0.0308
    2CHTO  H188  489   3.334   5.381   0.241  0.9070  1.9401  1.1921
    2CHTO   O68  490   3.431   5.290   0.067  0.5296  0.2371 -0.2661
    2CHTO  H168  491   3.524   5.278   0.069  0.4428 -0.3558  0.3992
    2CHTO   C99  492   3.265   5.501   0.069  0.4352  0.8197  0.0237
    2CHTO  H186  493   3.306   5.533  -0.029  2.4333  1.5291  1.0491
    2CHTO   N17  494   3.135   5.430   0.038 -0.9861 -1.0025  0.3741
    2CHTO  H174  495   3.077   5.423   0.129 -2.3229  0.3313 -0.3478
    2CHTO  H175  496   3.080   5.467  -0.048 -0.9925  0.3513  0.9529
    2CHTO   C97  497   3.237   5.639   0.141 -0.8094  0.0671 -0.2815
    2CHTO  H184  498   3.180   5.606   0.229  0.9203 -0.2362  0.7454
    2CHTO   O64  499   3.361   5.713   0.168 -0.2639 -0.1644 -0.2755
    2CHTO  C104  500   3.441   5.655   0.268 -0.4474  0.0827  0.2174
    2CHTO  H191  501   3.388   5.636   0.361  0.7791 -3.3505  0.2887
    2CHTO  C108  502   3.561   5.743   0.311  0.2558  0.2510  0.1039
    2CHTO   O71  503   3.496   5.855   0.371 -0.1123 -0.3894 -0.2720
    2CHTO  H171  504   3.502   5.841   0.463 -1.4494  0.3068 -0.0726
    2CHTO   O62  505   3.167   5.729   0.058 -0.1082 -0.1906  0.0285
    2CHTO   C91  506   3.076   5.825   0.121  0.4459  0.1647  0.4891
    2CHTO  H178  507   3.030   5.780   0.209  2.8725 -1.9398  0.7839
    2CHTO   C92  508   2.962   5.834   0.012 -0.0113 -0.2514  0.1846
    2CHTO  H179  509   2.955   5.732  -0.029 -2.1773 -0.2413  0.4986
    2CHTO   O66  510   2.835   5.855   0.075 -0.2694 -0.1287  0.5719
    2CHTO  H166  511   2.834   5.866   0.168  1.1150  0.2136  0.5589
    2CHTO   C93  512   2.982   5.944  -0.100 -0.6065 -0.0153 -0.0406
    2CHTO  H180  513   2.887   5.945  -0.156 -1.1154 -0.6552  0.8033
    2CHTO   N16  514   3.080   5.909  -0.204  0.3897  0.5135 -0.4581
    2CHTO  H172  515   3.040   5.833  -0.270 -0.6355  0.8162 -0.2048
    2CHTO  H173  516   3.171   5.880  -0.155  0.2427  1.0779  0.1492
    2CHTO   C94  517   2.998   6.081  -0.040 -0.3153  0.4664  0.0005
    2CHTO  H181  518   3.069   6.143  -0.094 -0.3445  2.5877  2.3191
    2CHTO   O61  519   3.052   6.080   0.098 -0.1777 -0.2175 -0.4204
    2CHTO   C95  520   3.128   5.970   0.145  0.2999 -0.1468 -0.2051
    2CHTO  H182  521   3.226   5.976   0.097 -0.3811  0.0721 -1.5745
    2CHTO  C106  522   3.157   6.014   0.286  0.3363  0.0222 -0.8557
    2CHTO   O69  523   3.215   5.907   0.361  0.5733 -0.0215  0.1240
    2CHTO  H169  524   3.182   5.919   0.448 -0.6999 -0.4700 -0.2931
    2CHTO   O63  525   2.851   6.151  -0.045 -0.2767 -0.1457  0.0177
    2CHTO   C96  526   2.855   6.299   0.004  0.0993  0.1283 -0.5094
    2CHTO  H183  527   2.960   6.321  -0.009  0.0283  0.1332 -1.0833
    2CHTO   C98  528   2.796   6.327   0.147  0.5303 -0.6399  0.6424
    2CHTO  H185  529   2.693   6.290   0.163  0.0651  0.1148 -0.5434
    2CHTO   O67  530   2.864   6.261   0.256  0.3243 -0.1167 -0.1240
    2CHTO  H167  531   2.954   6.288   0.260  0.2379  0.0086  0.9805
    2CHTO  C102  532   2.792   6.489   0.193 -0.4257  0.4587  0.9436
    2CHTO  H189  533   2.896   6.515   0.214  0.0923 -0.7482 -0.0182
    2CHTO   N18  534   2.710   6.522   0.314 -0.4801 -0.2426  0.4915
    2CHTO  H176  535   2.650   6.437   0.346 -0.2990 -0.6461 -0.2356
    2CHTO  H177  536   2.646   6.606   0.292 -1.7270 -0.8991  1.5720
    2CHTO  C105  537   2.747   6.576   0.069  0.5309 -0.2931  0.0901
    2CHTO  H192  538   2.639   6.570   0.058  0.2741  1.2062  1.7055
    2CHTO   O65  539   2.798   6.525  -0.053  0.3176 -0.3500 -0.2546
    2CHTO  C100  540   2.766   6.392  -0.089  0.1213  0.3003  0.3611
    2CHTO  H187  541   2.659   6.376  -0.070  0.2909 -1.7642 -0.2563
    2CHTO  C107  542   2.793   6.367  -0.240  0.4019 -0.4452 -0.4029
    2CHTO   O70  543   2.719   6.461  -0.313 -0.4709  0.1141 -0.0687
    2CHTO  H170  544   2.631   6.430  -0.309 -0.2835 -0.3810  0.2390
    2CHTO   O57  545   2.796   6.714   0.091 -0.2931  0.1407  0.1809
    2CHTO   C85  546   2.723   6.831   0.086  0.1573  0.6606  1.2902
    2CHTO  H157  547   2.627   6.801   0.132  0.6453  1.8774  3.1715
    2CHTO   C83  548   2.686   6.868  -0.062 -0.4258 -0.0795  0.4215
    2CHTO  H155  549   2.631   6.783  -0.100  0.4564 -0.7324  0.5813
    2CHTO   O56  550   2.807   6.870  -0.138  0.1078  0.0409  0.9165
    2CHTO  H135  551   2.817   6.948  -0.189 -2.0119 -1.2916 -1.6162
    2CHTO   C81  552   2.599   6.997  -0.071 -0.2876 -0.3346  0.2209
    2CHTO  H153  553   2.501   6.972  -0.031 -0.6729 -1.0520 -1.1464
    2CHTO   N14  554   2.556   7.029  -0.211  0.5440 -0.3755 -0.6237
    2CHTO  H141  555   2.644   7.056  -0.265  0.6649 -0.4900 -0.4830
    2CHTO  H142  556   2.492   7.114  -0.196  1.1847 -0.0926  0.5887
    2CHTO   C79  557   2.667   7.114   0.016 -0.2980 -0.1261 -0.5989
    2CHTO  H151  558   2.597   7.197   0.026 -0.5342 -0.4770  0.7916
    2CHTO   O52  559   2.684   7.061   0.151 -0.1529 -0.6523 -0.2517
    2CHTO   C86  560   2.785   6.955   0.157  0.2499  0.0287 -0.5036
    2CHTO  H158  561   2.875   7.005   0.117  1.3860  1.4436  3.5228
    2CHTO   C90  562   2.810   6.939   0.307  0.6922 -0.3117  0.0221
    2CHTO   O60  563   2.918   6.845   0.328 -0.1114  0.5597  0.1178
    2CHTO  H138  564   2.957   6.870   0.410 -1.7137 -0.5559  1.2670
    2CHTO   O50  565   2.792   7.158  -0.036  0.1465  0.1994  0.0071
    2CHTO   C73  566   2.848   7.283  -0.083 -0.8386 -0.6548 -0.0908
    2CHTO  H145  567   2.807   7.365  -0.023 -0.4079 -0.8632  0.4950
    2CHTO   C74  568   2.827   7.299  -0.235  0.3348  0.1043 -0.6736
    2CHTO  H146  569   2.722   7.297  -0.268  0.6908 -0.9607 -1.8163
    2CHTO   O54  570   2.874   7.430  -0.277 -0.6727 -0.5169  0.6739
    2CHTO  H133  571   2.831   7.499  -0.230  0.3630  0.6459 -0.0752
    2CHTO   C75  572   2.902   7.174  -0.296  0.3788 -0.2025 -0.3228
    2CHTO  H147  573   2.857   7.078  -0.268 -0.3107 -0.2961 -1.7053
    2CHTO   N13  574   2.891   7.172  -0.445  0.1168  0.3846 -0.1242
    2CHTO  H139  575   2.985   7.197  -0.493  1.9546 -2.4003  1.8399
    2CHTO  H140  576   2.858   7.078  -0.487  1.2513  0.7108 -1.8375
    2CHTO   C76  577   3.054   7.168  -0.256 -0.4513 -0.3101 -0.6390
    2CHTO  H148  578   3.106   7.238  -0.321  0.2904  1.0350  1.3638
    2CHTO   O49  579   3.081   7.185  -0.113  0.1611 -0.4464 -0.4663
    2CHTO   C77  580   3.001   7.280  -0.040  0.0614  0.1651 -0.6508
    2CHTO  H149  581   3.038   7.382  -0.048  0.3661  0.1710  0.7923
    2CHTO   C88  582   3.014   7.246   0.108  0.6083 -0.2871 -0.0408
    2CHTO   O58  583   2.957   7.362   0.214  0.3860 -0.3495 -0.1045
    2CHTO  H136  584   2.971   7.336   0.303 -1.8062 -0.2225  0.3002
    2CHTO   O51  585   3.097   7.002  -0.281  0.2914 -0.1661  0.3182
    2CHTO   C78  586   3.232   6.972  -0.218 -0.1233 -0.3605 -0.0207
    2CHTO  H150  587   3.269   7.045  -0.143  1.2384 -0.6861 -0.3552
    2CHTO   C80  588   3.347   6.952  -0.324 -0.1608  0.3290  0.6593
    2CHTO  H152  589   3.313   6.875  -0.396 -0.6620  1.3157 -0.1829
    2CHTO   O55  590   3.352   7.073  -0.398  0.2208 -0.6526 -0.3889
    2CHTO  H134  591   3.404   7.145  -0.367 -0.2893  0.2902 -1.6403
    2CHTO   C84  592   3.486   6.920  -0.260  0.6737 -0.2592  0.2480
    2CHTO  H156  593   3.507   6.997  -0.186 -0.4068  0.0669  0.2187
    2CHTO   N15  594   3.603   6.905  -0.355  0.6904  0.4138 -0.2503
    2CHTO  H143  595   3.611   6.811  -0.404 -1.7641  0.4822 -0.8372
    2CHTO  H144  596   3.693   6.926  -0.301  0.0320  1.8289  0.3306
    2CHTO   C87  597   3.468   6.795  -0.175  0.0667  0.2889 -0.0255
    2CHTO  H159  598   3.443   6.707  -0.235 -0.6651  1.4921 -1.5182
    2CHTO   O53  599   3.356   6.823  -0.070 -0.0536  0.6440 -0.0302
    2CHTO   C82  600   3.224   6.842  -0.129  0.4324  0.1207 -0.0293
    2CHTO  H154  601   3.200   6.752  -0.187 -0.7756  0.8817 -0.7374
    2CHTO   C89  602   3.122   6.850  -0.018 -0.3297  0.6695  0.2621
    2CHTO   O59  603   3.125   6.733   0.065 -0.2348 -0.3290  0.2327
    2CHTO  H137  604   3.044   6.728   0.113 -0.7556 -0.3715 -0.6296
    2CHTO   O45  605   3.602   6.736  -0.077  0.3140  0.7123 -0.6520
    2CHTO   C67  606   3.562   6.669   0.048  0.2979  0.4070  0.1310
    2CHTO  H124  607   3.473   6.718   0.088  1.0243  1.8436  0.0140
    2CHTO   C65  608   3.517   6.516   0.013 -0.2460 -0.2704  0.0669
    2CHTO  H122  609   3.581   6.487  -0.071 -0.1239  0.2823 -0.0342
    2CHTO   O44  610   3.378   6.524  -0.023 -0.1533  0.0200 -0.0920
    2CHTO  H102  611   3.347   6.445  -0.063  0.5906 -0.8023  0.9678
    2CHTO   C63  612   3.553   6.423   0.137  0.3157  0.1514 -0.3839
    2CHTO  H120  613   3.657   6.392   0.127 -0.0464 -1.1404 -0.2667
    2CHTO   N11  614   3.487   6.295   0.152 -0.4374 -0.4750  0.5374
    2CHTO  H108  615   3.491   6.229   0.068  0.0130  1.8014 -1.2856
    2CHTO  H109  616   3.385   6.316   0.175 -0.6231  1.2437 -1.7174
    2CHTO   C61  617   3.530   6.508   0.269 -0.0091  0.0080 -0.2225
    2CHTO  H118  618   3.547   6.444   0.357 -1.0017  0.0742  0.0222
    2CHTO   O40  619   3.624   6.621   0.284 -0.1496  0.7705 -0.4476
    2CHTO   C68  620   3.672   6.680   0.159 -0.1993 -0.5474  0.0302
    2CHTO  H125  621   3.768   6.633   0.129 -0.2722 -0.7379  0.0984
    2CHTO   C72  622   3.704   6.828   0.192  0.1810 -0.1043 -0.5191
    2CHTO   O48  623   3.799   6.843   0.294 -0.2530  0.0325 -0.2055
    2CHTO  H105  624   3.867   6.898   0.260 -1.1490  0.6075 -1.0872
    2CHTO   O38  625   3.396   6.559   0.279  0.0463  0.0291 -0.0239
    2CHTO   C55  626   3.345   6.576   0.413  0.2520 -0.1161  0.5119
    2CHTO  H112  627   3.426   6.569   0.487 -0.1654 -0.2204  0.9596
    2CHTO   C56  628   3.237   6.459   0.430 -0.2165  0.3629 -0.0825
    2CHTO  H113  629   3.175   6.458   0.339  0.1694  0.7938 -0.3528
    2CHTO   O42  630   3.311   6.334   0.447 -0.1722 -0.1927  0.5965
    2CHTO  H100  631   3.369   6.337   0.521 -0.4225  0.0145  0.7828
    2CHTO   C57  632   3.148   6.482   0.558  0.3062 -0.2070 -0.4237
    2CHTO  H114  633   3.209   6.461   0.645 -0.2666  0.1823  0.0751
    2CHTO   N10  634   3.032   6.385   0.558 -0.3016  0.0722  0.1001
    2CHTO  H106  635   3.065   6.289   0.523  0.4646  0.1479  0.6112
    2CHTO  H107  636   2.993   6.373   0.658  0.0553 -1.5508  0.0629
    2CHTO   C58  637   3.094   6.627   0.559 -0.3617 -0.6614  0.1166
    2CHTO  H115  638   3.032   6.641   0.469 -1.9919 -1.7874  1.0432
    2CHTO   O37  639   3.201   6.726   0.550  0.4023 -0.3999 -0.7454
    2CHTO   C59  640   3.284   6.721   0.432 -0.0402 -0.3321 -0.1486
    2CHTO  H116  641   3.225   6.745   0.344 -0.9130  0.0193  0.5177
    2CHTO   C70  642   3.389   6.827   0.452  0.4663 -0.2393  0.0470
    2CHTO   O46  643   3.361   6.971   0.448 -0.2588 -0.2715  0.1506
    2CHTO  H103  644   3.443   7.017   0.440 -0.1538 -0.5405 -0.3664
    2CHTO   O39  645   2.998   6.657   0.708  0.1224 -0.1046 -0.2749
    2CHTO   C60  646   2.890   6.750   0.690  0.3163  0.9592 -0.3581
    2CHTO  H117  647   2.887   6.799   0.593 -3.3036 -0.2186 -0.9345
    2CHTO   C62  648   2.757   6.681   0.701 -0.0934  0.2640  0.1559
    2CHTO  H119  649   2.766   6.594   0.634 -0.4985 -0.3956  0.9476
    2CHTO   O43  650   2.750   6.627   0.832 -0.0396 -0.1775 -0.0257
    2CHTO  H101  651   2.805   6.551   0.839  0.4579  0.1252 -0.5831
    2CHTO   C66  652   2.645   6.777   0.656  0.4360  0.1617  0.2745
    2CHTO  H123  653   2.673   6.826   0.563  0.8088 -0.5647  0.0070
    2CHTO   N12  654   2.516   6.709   0.639 -0.2638 -0.1504 -0.0722
    2CHTO  H110  655   2.535   6.627   0.572 -1.0333  0.6820 -1.3438
    2CHTO  H111  656   2.439   6.774   0.600  0.2836  0.0685 -0.8094
    2CHTO   C69  657   2.631   6.888   0.765 -0.6374 -0.0864  0.3039
    2CHTO  H126  658   2.605   6.844   0.863 -2.7291 -1.7651 -0.9543
    2CHTO   O41  659   2.769   6.960   0.777 -0.0323 -0.7072 -0.3614
    2CHTO   C64  660   2.896   6.865   0.791  0.0690 -0.0989 -0.3104
    2CHTO  H121  661   2.909   6.814   0.889 -1.5374 -2.0680 -1.0831
    2CHTO   C71  662   3.014   6.954   0.766  0.0650  0.3414  0.2993
    2CHTO   O47  663   3.021   7.062   0.868  0.3572 -0.6950  0.3861
    2CHTO  H104  664   2.963   7.126   0.831  1.0579 -0.5465 -0.4809
    2CHTO   O34  665   2.527   7.002   0.721 -0.1471  0.0637 -0.7912
    2CHTO   C49  666   2.478   7.121   0.774 -0.2895 -0.5612  0.2019
    2CHTO   H91  667   2.417   7.088   0.858  0.5775 -2.2201  0.2096
    2CHTO   C47  668   2.387   7.175   0.665 -0.0763  0.5083  0.1331
    2CHTO   H89  669   2.341   7.265   0.710  1.7028  0.7609  1.5316
    2CHTO   O33  670   2.288   7.083   0.627 -0.1997  0.1817  0.0124
    2CHTO   H70  671   2.215   7.091   0.685 -1.8963 -0.6070 -1.9392
    2CHTO   C45  672   2.490   7.226   0.554 -0.4637 -0.6522 -0.9076
    2CHTO   H87  673   2.558   7.144   0.528  0.2536 -0.5597  0.6204
    2CHTO    N8  674   2.411   7.265   0.437 -0.3261 -0.6014 -0.4607
    2CHTO   H75  675   2.403   7.193   0.357 -1.2607 -1.1061  0.0814
    2CHTO   H76  676   2.437   7.366   0.408 -1.1592 -0.2529 -0.0121
    2CHTO   C43  677   2.604   7.331   0.605  0.0623 -0.6541 -0.5897
    2CHTO   H85  678   2.671   7.349   0.522 -1.7384  0.2854 -1.8748
    2CHTO   O29  679   2.671   7.270   0.714  0.2092  0.0621 -0.0061
    2CHTO   C50  680   2.602   7.210   0.826 -0.2166 -0.6041 -0.0857
    2CHTO   H92  681   2.671   7.155   0.892 -0.3714  1.4235  1.8446
    2CHTO   C54  682   2.569   7.322   0.926  0.1398 -0.1604  0.1631
    2CHTO   O36  683   2.492   7.276   1.036 -0.0854 -0.2579  0.3381
    2CHTO   H72  684   2.413   7.325   1.024  0.1111 -0.1397 -0.4689
    2CHTO   O27  685   2.542   7.458   0.640 -0.1611 -0.8331 -0.1364
    2CHTO   C37  686   2.517   7.599   0.614 -0.2231 -0.0923  0.4176
    2CHTO   H79  687   2.472   7.606   0.514  1.6686  0.1513 -0.4468
    2CHTO   C38  688   2.408   7.655   0.718  0.7467  0.8043 -0.1267
    2CHTO   H80  689   2.437   7.638   0.823  0.0902  0.7785  0.0510
    2CHTO   O31  690   2.287   7.583   0.696  0.6700  0.3531  0.2877
    2CHTO   H68  691   2.229   7.609   0.766 -2.1735  1.5617 -2.3887
    2CHTO   C39  692   2.399   7.809   0.701 -0.1546 -0.1936 -0.0579
    2CHTO   H81  693   2.351   7.827   0.604  2.6869  0.9095 -1.2958
    2CHTO    N7  694   2.312   7.874   0.803  0.4433 -0.0631  0.2087
    2CHTO   H73  695   2.209   7.842   0.793 -0.3887  2.2485  1.1473
    2CHTO   H74  696   2.347   7.836   0.898  0.1738  1.1834  0.8091
    2CHTO   C40  697   2.537   7.881   0.710 -0.4804 -0.4264  0.2283
    2CHTO   H82  698   2.582   7.858   0.807 -0.3755 -0.1200  0.2544
    2CHTO   O26  699   2.614   7.832   0.603 -0.0424  0.6633  0.3986
    2CHTO   C41  700   2.649   7.689   0.619 -0.0571 -0.3964 -0.2143
    2CHTO   H83  701   2.698   7.672   0.716 -0.7118 -1.7767 -0.1088
    2CHTO   C52  702   2.742   7.651   0.509  0.3564  0.1834 -0.2164
    2CHTO   O35  703   2.863   7.754   0.499 -0.7362 -0.0959 -0.5767
    2CHTO   H71  704   2.893   7.769   0.586  0.3306 -0.6361 -0.8442
    2CHTO   O28  705   2.536   8.022   0.691 -0.2348  0.0217 -0.3663
    2CHTO   C42  706   2.622   8.118   0.757 -0.2244  0.1236  0.0097
    2CHTO   H84  707   2.601   8.211   0.704  0.0140 -0.4477 -1.0952
    2CHTO   C44  708   2.778   8.091   0.741 -0.8081  0.0092 -0.2591
    2CHTO   H86  709   2.802   7.991   0.776  0.2433 -0.4792 -2.2927
    2CHTO   O32  710   2.803   8.091   0.600 -0.1750 -0.0605  0.1654
    2CHTO   H69  711   2.881   8.127   0.563  0.3630 -0.4499  0.9059
    2CHTO   C48  712   2.882   8.188   0.809  0.4507 -0.5967  0.6350
    2CHTO   H90  713   2.877   8.289   0.768 -0.5282 -0.8037  0.2357
    2CHTO    N9  714   3.029   8.158   0.805 -0.1401 -0.1912  0.5166
    2CHTO   H77  715   3.067   8.143   0.905  0.9244 -2.5518 -0.2010
    2CHTO   H78  716   3.087   8.236   0.759  1.2872 -1.1935  0.5646
    2CHTO   C51  717   2.832   8.215   0.960 -0.4766 -0.0441 -0.5070
    2CHTO   H93  718   2.855   8.130   1.025  0.9611  1.2778  0.7582
    2CHTO   O30  719   2.702   8.247   0.961 -0.4549 -0.3084 -0.2219
    2CHTO   C46  720   2.601   8.143   0.917 -0.7366  0.3434 -0.6618
    2CHTO   H88  721   2.620   8.051   0.973  2.0068  0.9330 -0.5420
    2CHTO   C53  722   2.455   8.194   0.946 -0.0544 -0.5817  0.2323
    2CHTO   O72  723   2.430   8.207   1.088  0.1005  0.2021  0.4943
    2CHTO  H199  724   2.408   8.297   1.105  0.5705  0.0533  1.9860
    2CHTO   O22  725   2.890   8.331   1.017 -0.4309  0.4338  0.5693
    2CHTO   C31  726   2.885   8.383   1.156  0.4233  0.9329 -0.1396
    2CHTO   H59  727   2.939   8.480   1.153  0.4258  0.9015 -1.7779
    2CHTO   C29  728   2.738   8.410   1.206  0.3469 -0.3688 -0.3614
    2CHTO   H57  729   2.696   8.309   1.203  1.7339 -0.9582 -0.4978
    2CHTO   O21  730   2.668   8.491   1.111 -0.0880 -0.0384 -0.1917
    2CHTO   H37  731   2.705   8.577   1.111  0.1960 -0.1637 -0.2658
    2CHTO   C27  732   2.734   8.463   1.362  0.0109 -0.1964 -0.2774
    2CHTO   H55  733   2.759   8.570   1.364 -0.4688 -0.0431 -1.7158
    2CHTO    N5  734   2.599   8.451   1.424  0.1348  0.1790  0.1324
    2CHTO   H43  735   2.531   8.507   1.361 -0.3546  0.9914  1.3693
    2CHTO   H44  736   2.563   8.360   1.471 -1.2763  0.3062 -0.6716
    2CHTO   C25  737   2.840   8.378   1.447 -0.4392  0.4920 -0.2228
    2CHTO   H53  738   2.806   8.274   1.443 -0.5808  0.6046 -3.5110
    2CHTO   O17  739   2.965   8.378   1.372  0.3786 -0.0279 -0.1850
    2CHTO   C32  740   2.959   8.298   1.259 -0.2690  0.6703 -0.3378
    2CHTO   H60  741   2.918   8.197   1.265  0.2463  0.2980 -2.6081
    2CHTO   C36  742   3.101   8.263   1.207 -0.5875  0.0786  0.6856
    2CHTO   O25  743   3.183   8.198   1.309  1.1300 -0.1290  0.1777
    2CHTO   H40  744   3.188   8.106   1.292  1.8116 -0.4180  1.7815
    2CHTO   O15  745   2.877   8.435   1.593  0.0403  0.5438 -0.2795
    2CHTO   C19  746   2.951   8.394   1.715  0.5937 -0.1095 -0.2972
    2CHTO   H47  747   2.906   8.299   1.746 -0.3632  0.4822  0.1477
    2CHTO   C20  748   3.099   8.352   1.691 -0.5204  0.6587  0.3217
    2CHTO   H48  749   3.161   8.434   1.652  1.1530 -1.0880 -0.7764
    2CHTO   O19  750   3.094   8.253   1.584  0.2202  0.3802 -0.1051
    2CHTO   H35  751   3.177   8.221   1.555 -0.5322 -0.3288 -1.5367
    2CHTO   C21  752   3.157   8.292   1.829 -0.0087  0.0682 -0.0372
    2CHTO   H49  753   3.114   8.193   1.843 -2.3951  1.0512 -0.1791
    2CHTO    N4  754   3.298   8.250   1.823  1.1861 -0.0144 -0.6111
    2CHTO   H41  755   3.322   8.202   1.916 -0.8855  1.3131  0.6440
    2CHTO   H42  756   3.353   8.343   1.815  1.1426  0.0001 -0.7364
    2CHTO   C22  757   3.130   8.389   1.947 -0.2513 -0.2507  0.3299
    2CHTO   H50  758   3.183   8.481   1.923 -1.4794  0.2638 -0.4289
    2CHTO   O14  759   2.991   8.427   1.962 -0.5422 -0.2700  0.6728
    2CHTO   C23  760   2.940   8.493   1.845 -0.1311  0.4233 -0.1166
    2CHTO   H51  761   2.991   8.589   1.828 -1.1361  0.9437 -0.2275
    2CHTO   C34  762   2.791   8.520   1.864  0.2188 -0.3571 -0.3322
    2CHTO   O23  763   2.707   8.403   1.874  0.0353 -0.3589  0.6296
    2CHTO   H38  764   2.739   8.339   1.934  1.7903  0.7108  0.9011
    2CHTO   O16  765   3.165   8.334   2.070  0.1135 -0.0164 -0.4715
    2CHTO   C24  766   3.227   8.436   2.189  0.5625  0.3177  0.0349
    2CHTO   H52  767   3.236   8.540   2.156  0.3358  0.5488  0.7003
    2CHTO   C26  768   3.369   8.372   2.218 -0.9470  0.0913  0.0581
    2CHTO   H54  769   3.360   8.262   2.211 -0.5270 -0.1643  2.9932
    2CHTO   O20  770   3.444   8.400   2.100  0.1808 -0.0140  0.0304
    2CHTO   H36  771   3.389   8.386   2.025  0.2791  1.1442 -0.2718
    2CHTO   C30  772   3.427   8.422   2.358  0.1549  0.2909  0.0926
    2CHTO   H58  773   3.449   8.529   2.343  1.5964 -0.1793 -1.2772
    2CHTO    N6  774   3.549   8.353   2.396 -0.3252  0.0478  0.2383
    2CHTO   H45  775   3.622   8.380   2.321 -0.3652 -0.0232  0.1734
    2CHTO   H46  776   3.542   8.245   2.393  0.4292  0.0336 -1.3973
    2CHTO   C33  777   3.323   8.427   2.474 -0.5461  0.6168  0.5158
    2CHTO   H61  778   3.303   8.320   2.495  1.0972 -0.0291 -1.0888
    2CHTO   O18  779   3.202   8.491   2.427 -0.9683  0.5909 -0.4760
    2CHTO   C28  780   3.136   8.430   2.313  0.4305  0.9196  0.2372
    2CHTO   H56  781   3.118   8.324   2.332 -1.9916  0.7305 -2.7478
    2CHTO   C35  782   3.003   8.504   2.286  0.1028 -0.8892 -0.1606
    2CHTO   O24  783   2.911   8.496   2.392  0.9185  0.1334 -0.0126
    2CHTO   H39  784   2.821   8.491   2.366  0.1284  0.5299  2.5402
    2CHTO    O9  785   3.375   8.484   2.592  0.2735  0.5505 -0.0786
    2CHTO   C13  786   3.295   8.427   2.722 -0.0310 -0.1187 -0.4653
    2CHTO   H26  787   3.294   8.316   2.711 -0.8397 -0.0233 -1.5176
    2CHTO   C11  788   3.152   8.485   2.728  0.3927  0.1882  0.5118
    2CHTO   H24  789   3.090   8.440   2.649  1.5390 -1.1217  0.3530
    2CHTO    O8  790   3.157   8.629   2.705 -0.1905 -0.8084 -0.4126
    2CHTO    H3  791   3.097   8.666   2.642  0.2821 -2.5695 -1.9364
    2CHTO    C9  792   3.082   8.454   2.866 -0.5053  0.3074  0.3803
    2CHTO   H22  793   3.094   8.346   2.883  0.4258  0.5977  1.6020
    2CHTO    N2  794   2.936   8.479   2.873  0.2562 -0.0957  0.0981
    2CHTO   H10  795   2.872   8.397   2.843  0.8829 -0.1919 -1.0198
    2CHTO   H11  796   2.884   8.523   2.956 -0.5771 -0.9987  0.0639
    2CHTO    C7  797   3.175   8.516   2.977 -0.5510  0.2414  0.2915
    2CHTO   H20  798   3.169   8.435   3.052  0.7187  1.7699  2.1094
    2CHTO    O4  799   3.310   8.553   2.946  0.4557  0.2463 -0.0982
    2CHTO   C14  800   3.374   8.458   2.858  0.2611 -0.4934  0.0312
    2CHTO   H27  801   3.387   8.363   2.914 -0.3795 -0.7893 -0.3163
    2CHTO   C18  802   3.515   8.512   2.844  0.1523  0.2459  0.0454
    2CHTO   O13  803   3.606   8.430   2.777 -0.1595  0.0515 -0.2613
    2CHTO    H7  804   3.567   8.373   2.713  0.4402 -1.3151  0.5739
    2CHTO    O2  805   3.103   8.642   3.053  0.5036 -0.5297  0.1890
    2CHTO    C1  806   3.129   8.653   3.193 -0.3193 -0.2551  0.0631
    2CHTO   H14  807   3.231   8.615   3.216 -0.1009  0.4877  0.3382
    2CHTO    C2  808   3.027   8.575   3.286  0.6882  0.1331 -0.2431
    2CHTO   H15  809   2.923   8.600   3.259 -0.2613 -2.6298  0.6422
    2CHTO    O6  810   3.047   8.436   3.263 -0.5699  0.0394 -0.7217
    2CHTO    H1  811   3.135   8.411   3.282 -0.4687 -0.4786 -1.8203
    2CHTO    C3  812   3.059   8.630   3.442 -0.6028  0.5509  0.1754
    2CHTO   H16  813   3.159   8.601   3.479  0.0169  0.5413 -1.4354
    2CHTO    N1  814   2.974   8.562   3.547 -0.3629  0.6116 -0.4406
    2CHTO    H8  815   2.992   8.456   3.562 -0.1813  0.7804  0.6080
    2CHTO    H9  816   2.869   8.588   3.540 -0.4414  0.4328  0.0154
    2CHTO    C4  817   3.061   8.790   3.453  0.3553  0.1247  0.9349
    2CHTO   H17  818   2.966   8.837   3.426  0.1649  0.2419  1.7768
    2CHTO    O1  819   3.165   8.830   3.363  0.3445  0.0409  0.0695
    2CHTO    C5  820   3.132   8.807   3.225 -0.1707 -0.4335 -0.7009
    2CHTO   H18  821   3.030   8.843   3.213 -0.9572 -1.5900  1.9300
    2CHTO   C16  822   3.235   8.891   3.138  0.4516 -0.2384  0.3122
    2CHTO   O11  823   3.219   9.034   3.172  0.8202  0.1369 -0.1686
    2CHTO    H5  824   3.285   9.065   3.232  1.1003 -0.8343  0.0322
    2CHTO    O3  825   3.109   8.828   3.577 -0.1016  0.4784  0.0880
    2CHTO    C6  826   3.045   8.932   3.659 -0.5798  0.0272 -0.0174
    2CHTO   H19  827   2.943   8.955   3.630 -0.1219  2.3940  0.1464
    2CHTO    C8  828   3.045   8.893   3.808  0.2122 -0.3602 -0.3436
    2CHTO   H21  829   3.147   8.892   3.845 -0.2626  0.5187  1.0511
    2CHTO    O7  830   2.986   8.762   3.809  0.3466 -0.0649 -0.4825
    2CHTO    H2  831   3.009   8.721   3.890 -1.2936 -0.4201 -0.1822
    2CHTO   C12  832   2.961   9.007   3.887  0.1787  0.9328  0.2760
    2CHTO   H25  833   2.867   9.023   3.830 -0.0657 -1.0639  0.1098
    2CHTO    N3  834   2.932   8.960   4.029 -0.1786  0.4081 -0.0940
    2CHTO   H12  835   2.889   9.042   4.086 -0.3447  0.8796 -0.8893
    2CHTO   H13  836   2.865   8.875   4.023  1.3671 -0.7950 -0.4373
    2CHTO   C15  837   3.039   9.145   3.866 -0.3821 -0.0859  0.1798
    2CHTO   H28  838   3.133   9.149   3.921 -0.3658  1.6778  0.0666
    2CHTO   O10  839   2.944   9.272   3.897  0.3119 -0.4107  0.6635
    2CHTO    H4  840   2.931   9.296   3.987  1.1012  2.1849  0.1350
    2CHTO    O5  841   3.073   9.175   3.731  0.2982  0.7303  0.0592
    2CHTO   C10  842   3.122   9.071   3.643  0.6417  0.1071 -0.4278
    2CHTO   H23  843   3.228   9.047   3.651  0.7603  0.4103 -1.0418
    2CHTO   C17  844   3.107   9.122   3.496  0.2795  0.0246  0.2217
    2CHTO   O12  845   3.138   9.256   3.477  0.0407  0.3828  0.0498
    2CHTO    H6  846   3.095   9.297   3.404 -0.5260  3.4751  2.0530
    3CHTO  H203  847   7.324   2.635   0.451  1.2310 -0.8644 -1.2532
    3CHTO   O82  848   7.242   2.591   0.449  0.4938  0.3861  0.3865
    3CHTO  C123  849   7.273   2.464   0.389  0.1322  0.7863 -0.5405
    3CHTO  H227  850   7.297   2.394   0.471 -0.3611  2.5819  1.1950
    3CHTO   O77  851   7.158   2.416   0.328  0.1019  0.5723  0.1870
    3CHTO  C118  852   7.155   2.282   0.279 -0.6409 -0.2569 -0.0229
    3CHTO  H222  853   7.170   2.214   0.365 -0.6381 -0.9862 -0.5923
    3CHTO  C125  854   7.012   2.262   0.226 -0.0938 -0.2320  0.1222
    3CHTO   O84  855   6.925   2.260   0.345 -0.2559 -0.0349 -0.2282
    3CHTO  H205  856   6.838   2.286   0.320  0.9352 -0.1836 -5.1598
    3CHTO  C114  857   7.264   2.259   0.174 -0.2953  0.1366  0.1193
    3CHTO  H218  858   7.229   2.295   0.077 -1.9698 -2.7689 -0.4024
    3CHTO  C116  859   7.400   2.321   0.210 -0.0006  0.6367 -0.0513
    3CHTO  H220  860   7.454   2.249   0.275  1.5380 -0.0241 -1.9949
    3CHTO   O79  861   7.471   2.328   0.090 -0.7168 -0.1347  0.4415
    3CHTO  H201  862   7.554   2.365   0.113 -0.0694 -0.4985 -1.2617
    3CHTO  C120  863   7.387   2.460   0.281 -0.0973  0.3371  0.6124
    3CHTO  H224  864   7.341   2.524   0.203  0.1478  2.0812  1.8707
    3CHTO   N21  865   7.515   2.514   0.325  0.2084 -0.4342  0.7507
    3CHTO  H211  866   7.546   2.584   0.249  0.9239  1.4765  2.7476
    3CHTO  H212  867   7.589   2.438   0.346 -1.0611 -1.6938  0.6510
    3CHTO   O75  868   7.280   2.112   0.170 -0.6153 -0.3342 -0.2158
    3CHTO  C112  869   7.282   2.041   0.008 -0.0528  0.4434  0.0013
    3CHTO  H216  870   7.374   2.075  -0.041  0.2571 -0.8842 -0.3502
    3CHTO   O73  871   7.169   2.091  -0.056  0.0721  0.3907  0.7079
    3CHTO  C113  872   7.147   2.034  -0.182  0.2232  0.0018 -0.1483
    3CHTO  H217  873   7.243   2.043  -0.238  0.7694  2.1288  1.0840
    3CHTO  C124  874   7.050   2.113  -0.269  0.3520  0.8532 -0.6240
    3CHTO   O83  875   6.912   2.086  -0.225  0.5323 -0.2638  0.1151
    3CHTO  H204  876   6.848   2.154  -0.235 -0.0180 -0.2688  2.9524
    3CHTO  C109  877   7.102   1.884  -0.163  0.4002 -0.0527  0.6844
    3CHTO  H213  878   7.020   1.885  -0.090 -1.2837  0.9149 -1.1644
    3CHTO  C110  879   7.227   1.812  -0.106 -0.8323 -0.3630  0.0130
    3CHTO  H214  880   7.303   1.800  -0.183 -0.2615  0.7957  0.3887
    3CHTO   O78  881   7.182   1.675  -0.081 -0.1669  1.0586  0.4370
    3CHTO  H200  882   7.241   1.635  -0.020  1.7684  0.8226 -1.5174
    3CHTO  C111  883   7.279   1.884   0.016  0.4805  0.2833  0.2618
    3CHTO  H215  884   7.206   1.864   0.096 -2.4398  1.4041 -2.0386
    3CHTO   N19  885   7.411   1.831   0.060  0.3541  0.0206  0.2086
    3CHTO  H207  886   7.402   1.739   0.116  1.4598  1.0818  2.1903
    3CHTO  H208  887   7.446   1.907   0.129 -0.5077 -0.0210  0.6880
    3CHTO   O74  888   7.049   1.820  -0.285 -0.4940 -0.5579 -0.5709
    3CHTO  C115  889   6.903   1.730  -0.276 -0.2503  0.5286  0.1977
    3CHTO  H219  890   6.866   1.723  -0.174 -0.8548  0.5452 -0.0239
    3CHTO   O76  891   6.789   1.803  -0.361  0.1559  0.0944 -0.0951
    3CHTO  C122  892   6.804   1.788  -0.501  0.7579  0.0034  0.1803
    3CHTO  H226  893   6.886   1.854  -0.530  1.3140  0.4538  2.7036
    3CHTO  C126  894   6.671   1.850  -0.574 -0.2888  0.0534 -0.2876
    3CHTO   O85  895   6.614   1.964  -0.513  0.1204  0.2509  0.6118
    3CHTO  H206  896   6.540   1.986  -0.567  0.1267 -2.9461 -0.8115
    3CHTO  C121  897   6.824   1.636  -0.549  0.0836 -0.0620 -0.2680
    3CHTO  H225  898   6.743   1.608  -0.620 -1.3112  0.0235  1.2787
    3CHTO   O81  899   6.943   1.606  -0.622 -0.0835  0.1023  0.1127
    3CHTO  H202  900   6.984   1.687  -0.646  0.4285 -0.9318 -2.7420
    3CHTO  C119  901   6.819   1.538  -0.425  0.7281 -0.1707  0.2675
    3CHTO  H223  902   6.725   1.551  -0.370  1.6809  1.0594  1.6328
    3CHTO  C117  903   6.929   1.583  -0.325 -0.5166 -0.1142 -0.5357
    3CHTO  H221  904   7.032   1.574  -0.360  0.0400  0.1358  0.9896
    3CHTO   N20  905   6.929   1.485  -0.210  0.0166 -0.4184  0.3885
    3CHTO  H209  906   7.029   1.450  -0.185 -0.5233 -1.9880  0.3743
    3CHTO  H210  907   6.863   1.403  -0.235  1.0684 -0.8838 -0.9350
    3CHTO   O80  908   6.811   1.383  -0.475 -0.4446  0.2261  0.2967
    3CHTO  C103  909   6.703   1.280  -0.401  0.2339 -0.0090 -0.3311
    3CHTO  H190  910   6.747   1.281  -0.301  0.8550  0.6855 -0.6010
    3CHTO  C101  911   6.547   1.311  -0.417  0.0685  0.4133 -0.2253
    3CHTO  H188  912   6.535   1.321  -0.525  1.9740  1.2530 -0.3915
    3CHTO   O68  913   6.509   1.446  -0.347  0.2214 -0.4084  0.2570
    3CHTO  H168  914   6.542   1.437  -0.259 -1.0795  1.3812  0.9480
    3CHTO   C99  915   6.451   1.197  -0.369  0.3370  0.6963 -0.7658
    3CHTO  H186  916   6.467   1.176  -0.261 -1.2747 -1.4150 -0.9133
    3CHTO   N17  917   6.305   1.220  -0.384  0.4318 -0.0503  0.7715
    3CHTO  H174  918   6.294   1.273  -0.477  0.3517 -1.9256 -0.3002
    3CHTO  H175  919   6.272   1.284  -0.303 -0.9665 -1.0525  1.0008
    3CHTO   C97  920   6.489   1.068  -0.440 -0.0620 -0.0215  0.2186
    3CHTO  H184  921   6.474   1.075  -0.549 -0.5386  0.9504  0.3424
    3CHTO   O64  922   6.626   1.040  -0.411  0.3219 -0.1339  0.2086
    3CHTO  C104  923   6.724   1.137  -0.463  0.9600  0.2318 -0.4919
    3CHTO  H191  924   6.728   1.144  -0.572 -1.6431  0.1365 -0.6338
    3CHTO  C108  925   6.856   1.084  -0.418 -1.0383 -0.2543  0.5379
    3CHTO   O71  926   6.880   0.952  -0.476  0.0337  0.3426  0.0219
    3CHTO  H171  927   6.810   0.892  -0.457  0.8500 -0.2221  1.2770
    3CHTO   O62  928   6.421   0.949  -0.386  0.3422 -0.0870 -0.0954
    3CHTO   C91  929   6.410   0.839  -0.479 -0.0906  0.0495 -0.2179
    3CHTO  H178  930   6.482   0.850  -0.560 -0.5801 -2.0161 -0.9873
    3CHTO   C92  931   6.278   0.835  -0.547  0.0032 -0.4630  0.1526
    3CHTO  H179  932   6.199   0.845  -0.472  1.0344  3.3588  0.7965
    3CHTO   O66  933   6.266   0.951  -0.630 -0.4334  0.0944 -0.0886
    3CHTO  H166  934   6.174   0.956  -0.651 -0.5488  0.8691  0.5372
    3CHTO   C93  935   6.259   0.710  -0.639  0.5778 -0.1888 -0.4559
    3CHTO  H180  936   6.315   0.733  -0.731 -0.7378 -0.0456 -1.2264
    3CHTO   N16  937   6.120   0.690  -0.693 -0.1776 -0.2943 -0.1322
    3CHTO  H172  938   6.132   0.694  -0.800  4.1639  0.8877  0.3277
    3CHTO  H173  939   6.087   0.593  -0.657 -0.7048  0.0921  0.4453
    3CHTO   C94  940   6.316   0.579  -0.575 -0.3790 -0.2366 -0.6548
    3CHTO  H181  941   6.246   0.536  -0.503 -3.0765  4.1626 -0.4342
    3CHTO   O61  942   6.437   0.603  -0.510 -0.1256  0.3775  0.2535
    3CHTO   C95  943   6.429   0.697  -0.405  0.4246 -0.6339  0.5325
    3CHTO  H182  944   6.343   0.671  -0.343 -1.3138  2.4796 -0.4949
    3CHTO  C106  945   6.565   0.695  -0.318  0.1488 -0.0700 -0.7481
    3CHTO   O69  946   6.576   0.572  -0.247  0.3521  0.2394  0.1929
    3CHTO  H169  947   6.498   0.561  -0.197  0.1458  2.3521  0.3555
    3CHTO   O63  948   6.347   0.467  -0.697  0.2500  0.5532 -0.0252
    3CHTO   C96  949   6.262   0.325  -0.706 -0.0979 -0.3720 -0.4261
    3CHTO  H183  950   6.325   0.248  -0.750  1.0829  0.1641  0.2804
    3CHTO   C98  951   6.134   0.333  -0.785 -0.7830 -0.1682 -0.2594
    3CHTO  H185  952   6.070   0.416  -0.751 -1.2096 -0.8988  0.7596
    3CHTO   O67  953   6.171   0.368  -0.918 -0.4952 -0.2478  0.2702
    3CHTO  H167  954   6.101   0.402  -0.970 -0.8519 -0.0641  0.8564
    3CHTO  C102  955   6.044   0.198  -0.787 -0.0429  0.5761  0.3703
    3CHTO  H189  956   6.104   0.122  -0.839  0.5598  0.5773  1.0610
    3CHTO   N18  957   5.915   0.203  -0.861  0.1745 -0.1513  0.0943
    3CHTO  H176  958   5.878   0.102  -0.874  0.4194 -0.2969  0.5172
    3CHTO  H177  959   5.839   0.258  -0.807 -2.1939 -1.7658 -1.4895
    3CHTO  C105  960   6.036   0.143  -0.643  0.1341 -0.3688  0.1600
    3CHTO  H192  961   5.963   0.196  -0.581 -0.4335  0.3481 -1.0981
    3CHTO   O65  962   6.163   0.144  -0.584  0.9262 -0.4744  0.6322
    3CHTO  C100  963   6.219   0.277  -0.560 -0.5192 -0.2655  0.3399
    3CHTO  H187  964   6.148   0.350  -0.519 -0.9699 -0.9329  0.7574
    3CHTO  C107  965   6.342   0.251  -0.467 -0.0200  0.1452  0.1673
    3CHTO   O70  966   6.440   0.172  -0.524  0.1719  0.1196 -1.1168
    3CHTO  H170  967   6.520   0.202  -0.486  0.4671 -2.3973  0.3360
    3CHTO   O57  968   5.990  -0.017  -0.657 -0.3706  0.0236  0.7062
    3CHTO   C85  969   5.951  -0.109  -0.556  0.4295  0.8252 -0.0107
    3CHTO  H157  970   5.986  -0.208  -0.596 -0.1420  1.3998 -2.0116
    3CHTO   C83  971   5.789  -0.117  -0.547  0.0601 -0.4191  0.3903
    3CHTO  H155  972   5.755  -0.165  -0.638 -2.5129  0.4123  0.8739
    3CHTO   O56  973   5.731   0.016  -0.553 -0.1787  0.4341  0.0266
    3CHTO  H135  974   5.700   0.045  -0.636 -1.0118  1.2957  0.6301
    3CHTO   C81  975   5.732  -0.194  -0.427  0.4412  0.4978  0.3558
    3CHTO  H153  976   5.767  -0.296  -0.438  1.3671  0.9672 -1.2064
    3CHTO   N14  977   5.588  -0.208  -0.420  0.0700  0.2259 -0.3519
    3CHTO  H141  978   5.537  -0.170  -0.506 -1.4704  0.3244  0.5650
    3CHTO  H142  979   5.554  -0.155  -0.333  0.6474 -0.3069  0.1983
    3CHTO   C79  980   5.796  -0.131  -0.297  0.1142  0.0142 -0.1042
    3CHTO  H151  981   5.762  -0.187  -0.210 -0.6694  1.0951  0.2950
    3CHTO   O52  982   5.940  -0.139  -0.305 -0.0336  0.2354 -0.4107
    3CHTO   C86  983   6.014  -0.079  -0.414  0.1955 -0.6955 -0.1394
    3CHTO  H158  984   6.010   0.030  -0.393  0.3912 -0.2833 -2.1655
    3CHTO   C90  985   6.159  -0.123  -0.404 -0.6723 -0.5886 -0.1188
    3CHTO   O60  986   6.230  -0.057  -0.291  0.1872  0.2146 -0.6960
    3CHTO  H138  987   6.304  -0.103  -0.258 -0.3667  0.6787  1.2460
    3CHTO   O50  988   5.749   0.008  -0.262 -0.4268 -0.2689 -0.2001
    3CHTO   C73  989   5.744   0.083  -0.147  0.3007 -0.2747 -0.1976
    3CHTO  H145  990   5.819   0.050  -0.074  0.4770 -0.3489 -0.4127
    3CHTO   C74  991   5.605   0.086  -0.079  0.2302 -0.1556  0.8291
    3CHTO  H146  992   5.593  -0.020  -0.050 -1.1708 -0.5496 -1.0526
    3CHTO   O54  993   5.608   0.166   0.041  0.2282  0.0555  0.1450
    3CHTO  H133  994   5.661   0.242   0.030  1.8209 -1.3101 -2.1107
    3CHTO   C75  995   5.505   0.129  -0.187 -0.0304 -0.6959 -0.1238
    3CHTO  H147  996   5.512   0.062  -0.274 -2.3981 -0.6346 -0.3923
    3CHTO   N13  997   5.363   0.105  -0.139  0.0919 -0.7831 -0.1140
    3CHTO  H139  998   5.347   0.002  -0.109 -0.7005 -0.1191  1.8578
    3CHTO  H140  999   5.329   0.172  -0.061 -1.8092  0.1628 -1.7329
    3CHTO   C76 1000   5.535   0.276  -0.243  0.2361 -0.0240 -0.5551
    3CHTO  H148 1001   5.527   0.349  -0.162 -0.8256 -1.0807  0.3069
    3CHTO   O49 1002   5.677   0.279  -0.281 -0.3403 -0.2299  0.0949
    3CHTO   C77 1003   5.765   0.233  -0.186 -0.6454 -0.3163  0.2705
    3CHTO  H149 1004   5.761   0.290  -0.093  0.2263  1.8467 -0.9990
    3CHTO   C88 1005   5.904   0.270  -0.239  0.1386  0.0440 -0.2401
    3CHTO   O58 1006   5.999   0.227  -0.154  0.2801  0.0602 -0.0525
    3CHTO  H136 1007   6.080   0.255  -0.192 -0.8808  0.8823 -1.9784
    3CHTO   O51 1008   5.443   0.308  -0.376  0.6312  0.6162  0.0450
    3CHTO   C78 1009   5.473   0.489  -0.394 -0.0768 -0.1538 -0.3404
    3CHTO  H150 1010   5.542   0.531  -0.317  1.1693 -0.3890 -1.3035
    3CHTO   C80 1011   5.331   0.554  -0.382  0.4849  0.0392 -0.8704
    3CHTO  H152 1012   5.279   0.524  -0.476  0.0027  0.9084 -0.8830
    3CHTO   O55 1013   5.282   0.509  -0.250 -0.3044 -0.1067 -0.0862
    3CHTO  H134 1014   5.209   0.452  -0.262 -1.4564  1.7727 -2.3624
    3CHTO   C84 1015   5.352   0.716  -0.390 -0.4122 -0.1796 -0.1418
    3CHTO  H156 1016   5.413   0.752  -0.307  0.4671 -0.0234 -0.8452
    3CHTO   N15 1017   5.230   0.789  -0.371  0.4736 -0.6915 -0.5973
    3CHTO  H143 1018   5.237   0.896  -0.367 -2.1498 -0.5277  0.6182
    3CHTO  H144 1019   5.163   0.760  -0.449 -0.8893 -1.0490  0.6766
    3CHTO   C87 1020   5.426   0.757  -0.521 -0.5517 -0.1402 -0.1468
    3CHTO  H159 1021   5.363   0.757  -0.609 -3.3569  0.4205  1.7866
    3CHTO   O53 1022   5.546   0.672  -0.546 -0.4402 -0.2421 -0.3442
    3CHTO   C82 1023   5.524   0.530  -0.539  0.6095 -0.5349  0.2833
    3CHTO  H154 1024   5.452   0.506  -0.618  1.0445  1.5643 -0.7786
    3CHTO   C89 1025   5.655   0.463  -0.567 -0.5605 -0.0395  0.8499
    3CHTO   O59 1026   5.676   0.448  -0.706 -0.2899 -0.1502 -0.0080
    3CHTO  H137 1027   5.756   0.402  -0.722 -0.5968 -0.4749 -0.6099
    3CHTO   O45 1028   5.469   0.925  -0.509  0.0125  0.1800  0.2178
    3CHTO   C67 1029   5.597   0.939  -0.448 -0.5138 -0.3267 -0.5910
    3CHTO  H124 1030   5.620   0.843  -0.402  2.8005 -0.6546 -2.7594
    3CHTO   C65 1031   5.715   0.964  -0.552  0.3857 -0.4616 -0.0754
    3CHTO  H122 1032   5.677   1.021  -0.637  0.1090  1.3622  1.2475
    3CHTO   O44 1033   5.757   0.834  -0.605 -0.1642 -0.1727  0.4417
    3CHTO  H102 1034   5.772   0.837  -0.697  1.6926  2.9068  0.7710
    3CHTO   C63 1035   5.819   1.067  -0.489 -0.2099 -0.2406 -0.0079
    3CHTO  H120 1036   5.775   1.167  -0.495  1.1501  0.4356  1.0587
    3CHTO   N11 1037   5.943   1.083  -0.568 -0.1543  0.1622  0.0066
    3CHTO  H108 1038   5.928   1.173  -0.624 -2.0991 -0.3825 -0.3947
    3CHTO  H109 1039   5.960   1.007  -0.642 -2.2989  1.7436 -2.1763
    3CHTO   C61 1040   5.849   1.036  -0.333  0.1089  0.5866  0.1658
    3CHTO  H118 1041   5.914   1.116  -0.293 -1.0730  1.2807  0.7485
    3CHTO   O40 1042   5.726   1.043  -0.256  0.3525  0.0817 -0.0102
    3CHTO   C68 1043   5.600   1.042  -0.326  0.9500  0.2269  0.0612
    3CHTO  H125 1044   5.566   1.143  -0.357 -0.6211 -0.1944  0.3699
    3CHTO   C72 1045   5.498   1.003  -0.217  0.0177 -0.3175  0.0994
    3CHTO   O48 1046   5.498   1.100  -0.111 -0.3594 -0.1584  0.0366
    3CHTO  H105 1047   5.407   1.120  -0.098 -0.6548 -2.5087  1.9704
    3CHTO   O38 1048   5.907   0.903  -0.306  0.1815  0.3876  0.5603
    3CHTO   C55 1049   5.942   0.855  -0.174  0.1232 -0.2755 -0.5922
    3CHTO  H112 1050   5.891   0.909  -0.093  1.4161  0.2217 -0.1000
    3CHTO   C56 1051   6.096   0.876  -0.166 -0.0913  0.5145  0.2174
    3CHTO  H113 1052   6.147   0.833  -0.253 -2.3801 -1.5555 -0.1587
    3CHTO   O42 1053   6.125   1.014  -0.170  0.3192 -0.2161  0.4556
    3CHTO  H100 1054   6.137   1.037  -0.260 -1.1205 -0.1800  0.2684
    3CHTO   C57 1055   6.152   0.799  -0.038  0.0100  0.6481  0.3941
    3CHTO  H114 1056   6.097   0.844   0.045 -4.7450 -1.0151 -1.6406
    3CHTO   N10 1057   6.299   0.819  -0.014  0.2858 -0.2795  0.5927
    3CHTO  H106 1058   6.356   0.807  -0.105 -0.2830 -0.6925  0.2880
    3CHTO  H107 1059   6.320   0.913   0.034 -0.1263  0.6397 -1.0168
    3CHTO   C58 1060   6.104   0.652  -0.049 -0.0957  0.5642 -0.1621
    3CHTO  H115 1061   6.144   0.607  -0.142  1.5709  1.0639  0.2839
    3CHTO   O37 1062   5.960   0.632  -0.055 -0.9151 -0.2116  0.5062
    3CHTO   C59 1063   5.900   0.701  -0.163  0.3444  0.1174  0.2371
    3CHTO  H116 1064   5.913   0.649  -0.258 -2.1855 -1.6969  0.8455
    3CHTO   C70 1065   5.751   0.690  -0.151  0.1956  0.5560 -0.2513
    3CHTO   O46 1066   5.699   0.557  -0.145  0.5213  0.0208 -0.3512
    3CHTO  H103 1067   5.606   0.555  -0.137  0.5654  2.3982  1.0808
    3CHTO   O39 1068   6.149   0.568   0.076 -0.5507  1.0756 -0.1457
    3CHTO   C60 1069   6.194   0.436   0.037 -0.1866 -0.1708 -0.1913
    3CHTO  H117 1070   6.138   0.403  -0.050 -0.0844 -1.0640  0.0706
    3CHTO   C62 1071   6.346   0.446   0.000  0.3852  0.8097 -0.2610
    3CHTO  H119 1072   6.347   0.514  -0.087 -0.1466 -1.0837 -1.7897
    3CHTO   O43 1073   6.418   0.505   0.112  0.2716 -0.3898  0.2127
    3CHTO  H101 1074   6.396   0.596   0.115 -1.1615 -0.7620  1.8310
    3CHTO   C66 1075   6.406   0.300  -0.039 -0.1277 -0.2533 -0.2007
    3CHTO  H123 1076   6.356   0.257  -0.126  3.7213  2.2254 -3.8496
    3CHTO   N12 1077   6.548   0.292  -0.078  0.3838  0.0570 -0.1507
    3CHTO  H110 1078   6.609   0.246  -0.002 -2.0885 -2.6124  0.3122
    3CHTO  H111 1079   6.569   0.397  -0.096 -4.2733  1.2522  0.6065
    3CHTO   C69 1080   6.377   0.194   0.071 -1.0404  0.2060 -0.6749
    3CHTO  H126 1081   6.431   0.214   0.167  0.4650 -1.9708 -1.0438
    3CHTO   O41 1082   6.221   0.203   0.115  0.2924  0.1189 -0.6020
    3CHTO   C64 1083   6.163   0.336   0.156  0.2482 -0.1107  0.4286
    3CHTO  H121 1084   6.210   0.382   0.246 -2.0526  0.7471  1.2147
    3CHTO   C71 1085   6.010   0.327   0.185 -0.5120  0.1513 -0.2925
    3CHTO   O47 1086   5.976   0.240   0.297  0.4674 -0.0448  0.5841
    3CHTO  H104 1087   6.015   0.155   0.295  1.5518  0.4104  1.8619
    3CHTO   O34 1088   6.402   0.058   0.040  0.6734 -0.1049  0.1749
    3CHTO   C49 1089   6.440  -0.069   0.030 -0.5215 -0.4762 -0.4997
    3CHTO   H91 1090   6.467  -0.075  -0.076 -2.3711  0.6557 -1.0750
    3CHTO   C47 1091   6.329  -0.165   0.082  0.9949  0.7606 -1.0067
    3CHTO   H89 1092   6.279  -0.194  -0.013 -1.0621  0.2409  0.1817
    3CHTO   O33 1093   6.234  -0.104   0.169 -0.0651  0.3670 -0.1632
    3CHTO   H70 1094   6.148  -0.138   0.150  1.2338 -3.4633  0.3200
    3CHTO   C45 1095   6.387  -0.302   0.145 -0.5318  0.0042  0.6758
    3CHTO   H87 1096   6.421  -0.298   0.249 -0.7699  0.0178  0.7519
    3CHTO    N8 1097   6.275  -0.406   0.138 -0.4412  0.3877  0.7984
    3CHTO   H75 1098   6.323  -0.486   0.193 -2.6723 -1.0570  0.6925
    3CHTO   H76 1099   6.197  -0.368   0.201 -1.7658 -0.1768 -0.4687
    3CHTO   C43 1100   6.525  -0.342   0.075  0.2840 -0.2865 -0.4267
    3CHTO   H85 1101   6.557  -0.433   0.126  2.5704  0.2440 -0.8348
    3CHTO   O29 1102   6.618  -0.230   0.098 -0.6599 -0.1256 -0.5749
    3CHTO   C50 1103   6.569  -0.098   0.111 -0.2593 -0.4454 -0.4970
    3CHTO   H92 1104   6.540  -0.068   0.213 -2.1125 -1.9667 -0.5525
    3CHTO   C54 1105   6.693  -0.008   0.095  0.6684  0.3123 -0.0232
    3CHTO   O36 1106   6.801  -0.031   0.191 -0.5167 -0.1175  0.1868
    3CHTO   H72 1107   6.789   0.033   0.259 -2.1951 -1.7985  1.5039
    3CHTO   O27 1108   6.500  -0.371  -0.064 -0.1567 -0.2660 -0.2745
    3CHTO   C37 1109   6.542  -0.411  -0.198 -0.7142 -0.5991 -0.8897
    3CHTO   H79 1110   6.571  -0.517  -0.190  0.2579 -0.2834 -0.1839
    3CHTO   C38 1111   6.419  -0.406  -0.290 -0.4389 -0.0475 -0.1677
    3CHTO   H80 1112   6.363  -0.313  -0.274  0.4558  0.4212  0.2464
    3CHTO   O31 1113   6.345  -0.526  -0.250 -0.6357  0.4783 -0.4277
    3CHTO   H68 1114   6.253  -0.519  -0.238 -0.4932 -0.9452  1.7250
    3CHTO   C39 1115   6.466  -0.429  -0.443 -0.5333  0.2798 -0.2263
    3CHTO   H81 1116   6.516  -0.525  -0.451  1.3215  1.3430 -1.8836
    3CHTO    N7 1117   6.355  -0.439  -0.541 -0.3342 -0.1287 -0.3850
    3CHTO   H73 1118   6.374  -0.511  -0.618 -1.7758 -0.5067 -0.3970
    3CHTO   H74 1119   6.340  -0.338  -0.576  3.9192  1.4442  1.9713
    3CHTO   C40 1120   6.575  -0.323  -0.483 -0.1408 -0.1971 -0.3657
    3CHTO   H82 1121   6.529  -0.225  -0.467  1.6309  0.6772 -0.5311
    3CHTO   O26 1122   6.686  -0.349  -0.394  0.2291  0.1168  0.0666
    3CHTO   C41 1123   6.665  -0.318  -0.249  0.9551 -0.1750 -0.2988
    3CHTO   H83 1124   6.639  -0.211  -0.242  0.0214 -0.5816  5.2775
    3CHTO   C52 1125   6.806  -0.346  -0.171  0.4060  0.0649  0.0452
    3CHTO   O35 1126   6.912  -0.274  -0.246  0.0719  0.3536 -0.5814
    3CHTO   H71 1127   6.900  -0.266  -0.338  1.1750 -1.1119 -0.8879
    3CHTO   O28 1128   6.622  -0.325  -0.618  0.1441 -0.1655  0.1896
    3CHTO   C42 1129   6.671  -0.203  -0.683 -0.1406 -0.1382 -0.2429
    3CHTO   H84 1130   6.691  -0.235  -0.785  0.2019  2.1499 -0.9137
    3CHTO   C44 1131   6.807  -0.164  -0.622 -0.4128 -0.0689 -0.1558
    3CHTO   H86 1132   6.790  -0.137  -0.518 -0.7270  0.4042 -0.3244
    3CHTO   O32 1133   6.897  -0.280  -0.625 -0.3609 -0.3236 -0.3155
    3CHTO   H69 1134   6.930  -0.290  -0.538  0.1435  2.3362 -0.1589
    3CHTO   C48 1135   6.865  -0.036  -0.692 -0.4257 -1.1766  1.0792
    3CHTO   H90 1136   6.895  -0.062  -0.793  2.2741  0.0451  1.5198
    3CHTO    N9 1137   6.995   0.015  -0.636  0.2477  0.3565  0.4195
    3CHTO   H77 1138   7.052  -0.067  -0.595  1.3953  0.5118 -0.8370
    3CHTO   H78 1139   6.973   0.099  -0.573  2.8913  1.0774  0.4407
    3CHTO   C51 1140   6.755   0.075  -0.698 -0.1054  0.0098  0.9336
    3CHTO   H93 1141   6.730   0.112  -0.598 -0.8371 -0.1520  0.8116
    3CHTO   O30 1142   6.641   0.022  -0.763  0.2050  0.3266  0.1110
    3CHTO   C46 1143   6.576  -0.080  -0.687 -0.1683  0.1947 -0.4034
    3CHTO   H88 1144   6.562  -0.036  -0.589 -0.0864 -0.0658 -0.2739
    3CHTO   C53 1145   6.443  -0.118  -0.753  0.7916 -0.2212  0.3390
    3CHTO   O72 1146   6.338  -0.019  -0.726 -0.7292 -0.2722 -0.0409
    3CHTO  H199 1147   6.345   0.050  -0.789  2.0086  1.2506  1.7936
    3CHTO   O22 1148   6.788   0.188  -0.781  0.5939 -0.2667  0.4930
    3CHTO   C31 1149   6.753   0.332  -0.760 -0.1590 -0.2289  0.7913
    3CHTO   H59 1150   6.653   0.346  -0.715 -2.2162 -0.3685 -3.4679
    3CHTO   C29 1151   6.851   0.397  -0.661  0.1172  1.4223 -0.1260
    3CHTO   H57 1152   6.953   0.392  -0.701 -0.3975 -1.7713 -1.1634
    3CHTO   O21 1153   6.853   0.319  -0.539 -0.9829 -0.4833 -0.3202
    3CHTO   H37 1154   6.918   0.343  -0.476  0.1600  2.2137 -2.4434
    3CHTO   C27 1155   6.813   0.550  -0.640 -0.0202  0.4332  0.8457
    3CHTO   H55 1156   6.711   0.550  -0.598 -0.9674 -0.0853 -1.3857
    3CHTO    N5 1157   6.904   0.625  -0.547 -0.0801 -0.3560  0.0891
    3CHTO   H43 1158   6.981   0.553  -0.524  0.2255 -0.6773 -1.8746
    3CHTO   H44 1159   6.851   0.670  -0.464 -0.4386  0.5932 -0.6505
    3CHTO   C25 1160   6.808   0.625  -0.780 -0.2349 -0.1567 -0.2037
    3CHTO   H53 1161   6.903   0.621  -0.836  1.6574 -1.1249  2.9464
    3CHTO   O17 1162   6.715   0.552  -0.869 -0.0593 -0.1151  0.0696
    3CHTO   C32 1163   6.744   0.416  -0.897 -0.1661  0.4898  0.3721
    3CHTO   H60 1164   6.840   0.409  -0.949  1.2702 -3.7979  3.3067
    3CHTO   C36 1165   6.627   0.367  -0.991  0.2521  0.6680 -0.3512
    3CHTO   O25 1166   6.498   0.372  -0.932 -0.1629 -0.5431 -0.0259
    3CHTO   H40 1167   6.466   0.460  -0.921  0.6349 -0.5185  2.1584
    3CHTO   O15 1168   6.751   0.783  -0.759  0.6650  0.2742  0.0505
    3CHTO   C19 1169   6.729   0.864  -0.877  0.0913  0.1366 -0.1301
    3CHTO   H47 1170   6.711   0.791  -0.957 -0.7652  1.4595 -1.1537
    3CHTO   C20 1171   6.610   0.959  -0.860  1.2467 -1.1407  0.4112
    3CHTO   H48 1172   6.625   1.036  -0.784 -2.3240 -0.0867  0.1190
    3CHTO   O19 1173   6.493   0.890  -0.822 -0.2783  0.0315  0.5484
    3CHTO   H35 1174   6.466   0.821  -0.880 -0.6245 -1.3294  2.3076
    3CHTO   C21 1175   6.588   1.044  -0.996  0.3586 -0.0653 -0.6890
    3CHTO   H49 1176   6.546   0.976  -1.070  2.9714 -0.7132 -1.6407
    3CHTO    N4 1177   6.480   1.147  -0.988  0.0098 -0.3775  0.4619
    3CHTO   H41 1178   6.385   1.114  -1.026  1.5860 -2.1355 -2.1717
    3CHTO   H42 1179   6.505   1.245  -1.026 -2.5651 -0.0500 -0.4522
    3CHTO   C22 1180   6.714   1.099  -1.056  0.1195  0.0998 -0.1807
    3CHTO   H50 1181   6.743   1.193  -1.009 -0.3580  0.3908 -0.4638
    3CHTO   O14 1182   6.822   0.997  -1.052 -0.6846  0.0132  0.0018
    3CHTO   C23 1183   6.850   0.952  -0.919  0.0879  0.0518  0.0851
    3CHTO   H51 1184   6.863   1.042  -0.857 -1.3134  0.1837  0.2013
    3CHTO   C34 1185   6.979   0.882  -0.934  0.2211  0.0829 -0.1323
    3CHTO   O23 1186   7.030   0.850  -0.809 -0.0673 -0.1397  0.5070
    3CHTO   H38 1187   7.037   0.758  -0.791 -0.2286  0.1611  2.2247
    3CHTO   O16 1188   6.702   1.121  -1.199  0.0247 -0.2474  0.5516
    3CHTO   C24 1189   6.751   1.249  -1.271  0.3036  0.3320  0.2651
    3CHTO   H52 1190   6.780   1.329  -1.203  2.4182 -0.0504 -0.1700
    3CHTO   C26 1191   6.630   1.302  -1.359 -0.0306  0.4123  0.1962
    3CHTO   H54 1192   6.576   1.219  -1.410 -0.2292  1.5973 -1.5492
    3CHTO   O20 1193   6.537   1.349  -1.266  0.1958 -0.6342 -0.0349
    3CHTO   H36 1194   6.491   1.425  -1.298 -2.3229 -1.6939  0.9962
    3CHTO   C30 1195   6.673   1.398  -1.469 -0.9009 -0.0341 -0.2810
    3CHTO   H58 1196   6.688   1.489  -1.409 -0.7482  0.5263 -1.1712
    3CHTO    N6 1197   6.571   1.435  -1.567  0.6404  0.3709 -0.1162
    3CHTO   H45 1198   6.607   1.419  -1.667 -2.4229  0.5256 -1.3037
    3CHTO   H46 1199   6.545   1.539  -1.555  0.3741  0.6189 -2.5269
    3CHTO   C33 1200   6.812   1.347  -1.535  0.4439 -0.1388  0.0190
    3CHTO   H61 1201   6.797   1.253  -1.590  1.1744 -0.1010 -0.2405
    3CHTO   O18 1202   6.912   1.326  -1.434  0.7892  0.0207  0.3516
    3CHTO   C28 1203   6.880   1.209  -1.348 -0.2881 -0.0136 -0.0149
    3CHTO   H56 1204   6.850   1.123  -1.407 -1.9887 -0.9068  2.0503
    3CHTO   C35 1205   7.000   1.175  -1.263 -0.1026  0.1288 -0.3476
    3CHTO   O24 1206   7.089   1.084  -1.326  0.2072  0.1734  0.1978
    3CHTO   H39 1207   7.147   1.131  -1.383  1.0172  0.2326  1.0614
    3CHTO    O9 1208   6.856   1.442  -1.635  0.1350 -0.0176 -0.4570
    3CHTO   C13 1209   6.904   1.602  -1.580  0.5842  0.2338 -0.4313
    3CHTO   H26 1210   6.905   1.597  -1.469 -1.7522  1.8138 -0.3126
    3CHTO   C11 1211   6.804   1.712  -1.634 -0.3464 -0.2047  1.2789
    3CHTO   H24 1212   6.707   1.687  -1.587 -0.5526  0.9506  1.4755
    3CHTO    O8 1213   6.782   1.692  -1.778  0.3259  0.6415  0.1639
    3CHTO    H3 1214   6.736   1.768  -1.809  0.0932  0.4127 -0.0622
    3CHTO    C9 1215   6.867   1.849  -1.596 -0.1409  0.5356  0.7073
    3CHTO   H22 1216   6.895   1.843  -1.489 -1.8391 -0.3801  1.1217
    3CHTO    N2 1217   6.768   1.956  -1.598  0.3650 -0.5742 -0.0755
    3CHTO   H10 1218   6.746   1.995  -1.696 -0.1175  1.4305  0.8081
    3CHTO   H11 1219   6.817   2.030  -1.537  0.3469  0.9680 -1.9022
    3CHTO    C7 1220   7.000   1.872  -1.677 -0.7457  0.5232 -0.6789
    3CHTO   H20 1221   7.060   1.917  -1.595 -1.0497  0.6424 -0.5210
    3CHTO    O4 1222   7.060   1.749  -1.722  0.2839  0.2004  1.1237
    3CHTO   C14 1223   7.050   1.638  -1.634 -0.4515  0.4036 -0.4937
    3CHTO   H27 1224   7.115   1.675  -1.552 -1.7532 -2.6491  2.0529
    3CHTO   C18 1225   7.119   1.528  -1.710  0.2823  0.0877  0.1791
    3CHTO   O13 1226   7.118   1.402  -1.647  0.6067  0.5311  0.0247
    3CHTO    H7 1227   7.154   1.410  -1.561  1.0185  0.3798 -0.1318
    3CHTO    O2 1228   6.989   1.975  -1.800  0.1196  0.8918  0.2567
    3CHTO    C1 1229   7.110   2.053  -1.834 -0.2890 -0.2619 -0.5032
    3CHTO   H14 1230   7.091   2.082  -1.940  0.4429 -3.6567 -1.6073
    3CHTO    C2 1231   7.252   1.983  -1.817  0.1663 -0.5759 -0.1576
    3CHTO   H15 1232   7.251   1.916  -1.729 -1.3722 -0.5856 -0.1686
    3CHTO    O6 1233   7.264   1.888  -1.926 -0.2454  0.3635  0.1071
    3CHTO    H1 1234   7.332   1.830  -1.896  0.2283  1.0500  0.3794
    3CHTO    C3 1235   7.375   2.085  -1.812 -0.2533  0.0894  0.6568
    3CHTO   H16 1236   7.392   2.126  -1.912 -0.2285 -0.9189  0.2458
    3CHTO    N1 1237   7.500   2.015  -1.778 -0.1681  0.5541 -0.2560
    3CHTO    H8 1238   7.588   2.078  -1.785  0.2532  0.0702  0.5649
    3CHTO    H9 1239   7.495   1.981  -1.676  0.2429  0.0427 -0.4052
    3CHTO    C4 1240   7.338   2.208  -1.718 -0.2721  0.5036  0.2269
    3CHTO   H17 1241   7.322   2.177  -1.615  1.1257 -1.8419 -0.2353
    3CHTO    O1 1242   7.216   2.264  -1.769 -0.8610 -0.2769  0.0054
    3CHTO    C5 1243   7.101   2.186  -1.753  0.3885  0.3187 -0.7358
    3CHTO   H18 1244   7.092   2.151  -1.650  1.2518 -1.0343 -1.0896
    3CHTO   C16 1245   6.974   2.271  -1.786  0.2674 -0.0087  0.1428
    3CHTO   O11 1246   6.925   2.362  -1.683  0.0764  0.3996  0.6342
    3CHTO    H5 1247   6.928   2.320  -1.600 -0.4278  0.3170  0.6133
    3CHTO    O3 1248   7.436   2.315  -1.734  0.1954  0.1480 -0.0544
    3CHTO    C6 1249   7.491   2.383  -1.612  0.1710  0.4618 -0.4445
    3CHTO   H19 1250   7.453   2.336  -1.521  0.0311 -0.7510 -1.1216
    3CHTO    C8 1251   7.646   2.376  -1.603  0.1623  0.8030 -0.5900
    3CHTO   H21 1252   7.690   2.423  -1.691  2.1237 -1.2901 -0.7783
    3CHTO    O7 1253   7.688   2.234  -1.601  0.8421  0.8677  0.1340
    3CHTO    H2 1254   7.781   2.229  -1.602  0.8307  0.3422  0.9609
    3CHTO   C12 1255   7.698   2.452  -1.468  0.6846 -0.6095  0.0278
    3CHTO   H25 1256   7.665   2.397  -1.378  0.7025 -0.8857 -0.1335
    3CHTO    N3 1257   7.848   2.458  -1.460  0.5257  0.3147 -0.2119
    3CHTO   H12 1258   7.892   2.467  -1.559 -2.2039  0.3326 -1.4725
    3CHTO   H13 1259   7.898   2.377  -1.410  1.1908  1.4008  0.9301
    3CHTO   C15 1260   7.631   2.596  -1.459  0.5922 -0.8133  0.1780
    3CHTO   H28 1261   7.680   2.651  -1.539 -0.3285 -2.2604 -1.4467
    3CHTO   O10 1262   7.640   2.654  -1.321 -0.1724 -0.1131  0.4356
    3CHTO    H4 1263   7.725   2.676  -1.289  0.1147 -1.0116  0.2832
    3CHTO    O5 1264   7.488   2.595  -1.487  0.3168 -0.1287  0.1218
    3CHTO   C10 1265   7.446   2.527  -1.606  0.3476  0.0086  0.1359
    3CHTO   H23 1266   7.486   2.576  -1.695 -0.5329  1.2352  0.4023
    3CHTO   C17 1267   7.293   2.541  -1.603 -0.1780  0.0568  0.1049
    3CHTO   O12 1268   7.236   2.667  -1.656 -0.0278  0.4604  0.2808
    3CHTO    H6 1269   7.166   2.658  -1.717  1.6848 -1.8985 -1.4085
    4CHTO  H203 1270   5.318   7.061   0.055  0.9484 -1.8940 -0.8010
    4CHTO   O82 1271   5.320   7.089  -0.034  0.3698  0.2227 -0.1554
    4CHTO  C123 1272   5.311   7.235  -0.023  0.5624  0.0407 -0.3821
    4CHTO  H227 1273   5.236   7.259   0.054  0.2331 -2.0587 -0.0258
    4CHTO   O77 1274   5.437   7.274   0.034 -0.5573  0.6612 -0.1631
    4CHTO  C118 1275   5.437   7.408   0.086 -0.5499 -0.3588  0.1670
    4CHTO  H222 1276   5.365   7.435   0.164 -1.0943  0.8221 -0.7332
    4CHTO  C125 1277   5.580   7.427   0.151 -0.3933  0.5043  0.5505
    4CHTO   O84 1278   5.585   7.533   0.247 -0.5511 -0.3584  0.0626
    4CHTO  H205 1279   5.506   7.534   0.297  0.4095 -0.0824  1.6078
    4CHTO  C114 1280   5.426   7.504  -0.032 -0.7025  1.0301 -0.5359
    4CHTO  H218 1281   5.510   7.484  -0.098 -0.2539 -1.2156  0.6309
    4CHTO  C116 1282   5.297   7.475  -0.110  0.0164 -0.1452 -0.6643
    4CHTO  H220 1283   5.202   7.502  -0.060  0.2733  1.9798 -1.2870
    4CHTO   O79 1284   5.305   7.564  -0.228 -0.0860  0.2687 -0.2122
    4CHTO  H201 1285   5.263   7.644  -0.204 -1.9718 -0.9047  0.5288
    4CHTO  C120 1286   5.291   7.320  -0.153  0.0608 -0.5989 -0.0235
    4CHTO  H224 1287   5.371   7.307  -0.229 -0.0854  1.0389 -0.4633
    4CHTO   N21 1288   5.168   7.293  -0.234 -0.7002 -0.6707 -0.1550
    4CHTO  H211 1289   5.197   7.224  -0.312  1.1650 -1.5065  1.2496
    4CHTO  H212 1290   5.120   7.383  -0.271 -0.2750 -0.6701 -0.7155
    4CHTO   O75 1291   5.430   7.632   0.027  0.3162  0.7546 -0.6197
    4CHTO  C112 1292   5.511   7.743  -0.041 -0.0966  0.3735  0.2146
    4CHTO  H216 1293   5.533   7.728  -0.147 -1.1971 -0.3029  0.0683
    4CHTO   O73 1294   5.632   7.762   0.034  0.4480  0.1045 -0.2324
    4CHTO  C113 1295   5.728   7.862  -0.006 -1.2829 -0.0787 -0.1612
    4CHTO  H217 1296   5.758   7.827  -0.107 -0.4294 -0.7033  0.3040
    4CHTO  C124 1297   5.844   7.860   0.092  0.3360  0.5477 -0.2909
    4CHTO   O83 1298   5.826   7.928   0.218 -0.3731  0.5633 -0.3679
    4CHTO  H204 1299   5.886   7.888   0.278 -0.9443  0.1819 -0.0403
    4CHTO  C109 1300   5.656   8.003  -0.015 -0.0447  0.0117  0.2079
    4CHTO  H213 1301   5.645   8.038   0.088 -0.5130  1.7821 -0.4256
    4CHTO  C110 1302   5.519   7.997  -0.097 -1.0219 -0.1335 -0.1570
    4CHTO  H214 1303   5.535   7.968  -0.201 -1.6265  1.4390 -0.6963
    4CHTO   O78 1304   5.456   8.123  -0.104  0.2069  0.0464 -0.0143
    4CHTO  H200 1305   5.433   8.160  -0.021 -0.3546  1.0045 -0.5830
    4CHTO  C111 1306   5.431   7.881  -0.033 -0.2814  0.4621 -0.4870
    4CHTO  H215 1307   5.414   7.905   0.073  0.4169 -2.3666  0.2887
    4CHTO   N19 1308   5.299   7.866  -0.094 -0.2573 -0.3673 -0.0882
    4CHTO  H207 1309   5.232   7.818  -0.024 -1.5917  0.2873 -0.8995
    4CHTO  H208 1310   5.257   7.966  -0.099  1.0512  0.3915  2.7579
    4CHTO   O74 1311   5.749   8.093  -0.084 -0.1624  0.2588 -0.0336
    4CHTO  C115 1312   5.746   8.237  -0.036 -0.2173  0.3630  0.4127
    4CHTO  H219 1313   5.643   8.272  -0.030 -1.4687 -3.0092 -0.5673
    4CHTO   O76 1314   5.799   8.250   0.092  0.1787 -0.1020 -0.4016
    4CHTO  C122 1315   5.940   8.270   0.113  0.6504  0.4261  1.0406
    4CHTO  H226 1316   5.988   8.175   0.094 -2.6521 -1.1080 -0.0945
    4CHTO  C126 1317   5.975   8.306   0.257 -0.1144 -0.4726  0.0970
    4CHTO   O85 1318   6.119   8.311   0.280  0.1267  0.1547  0.0615
    4CHTO  H206 1319   6.157   8.381   0.231 -0.4605  0.5532  0.1671
    4CHTO  C121 1320   6.006   8.384   0.020  0.4343 -0.7758  0.6987
    4CHTO  H225 1321   6.045   8.468   0.081 -0.8304  0.2200  0.1699
    4CHTO   O81 1322   6.114   8.320  -0.049 -0.3005 -0.2213 -0.6804
    4CHTO  H202 1323   6.179   8.387  -0.058 -1.4042  0.6816 -2.2498
    4CHTO  C119 1324   5.899   8.447  -0.080  0.5622 -0.6996 -0.1123
    4CHTO  H223 1325   5.832   8.505  -0.016  1.5749 -0.5908  0.8734
    4CHTO  C117 1326   5.821   8.329  -0.148  0.1496  0.0013 -0.0209
    4CHTO  H221 1327   5.886   8.263  -0.205  2.3168  2.0580  0.0028
    4CHTO   N20 1328   5.722   8.382  -0.246 -0.2920 -0.1807  0.1423
    4CHTO  H209 1329   5.647   8.440  -0.194  2.4860  0.6976  3.3098
    4CHTO  H210 1330   5.774   8.435  -0.326  0.1518 -3.6511 -1.9531
    4CHTO   O80 1331   5.956   8.567  -0.189  0.1019  0.5343  0.1933
    4CHTO  C103 1332   6.041   8.697  -0.140 -0.3080  0.2724  0.1529
    4CHTO  H190 1333   5.995   8.726  -0.046 -1.0622 -2.0562  0.5536
    4CHTO  C101 1334   6.201   8.663  -0.118  0.0119 -0.9229  0.4610
    4CHTO  H188 1335   6.225   8.596  -0.200  2.4704  0.4697 -0.0077
    4CHTO   O68 1336   6.211   8.588   0.010 -0.4295 -0.5925  1.0056
    4CHTO  H168 1337   6.302   8.576   0.031 -0.2454  2.9792  2.7435
    4CHTO   C99 1338   6.290   8.798  -0.133 -0.3416  0.0242 -0.3001
    4CHTO  H186 1339   6.283   8.856  -0.038 -1.8757  0.6761 -0.8032
    4CHTO   N17 1340   6.435   8.766  -0.160 -0.5050  0.4449 -0.5038
    4CHTO  H174 1341   6.479   8.715  -0.076 -1.5265 -0.0107 -0.2429
    4CHTO  H175 1342   6.490   8.852  -0.195  1.1468  0.0051  0.9429
    4CHTO   C97 1343   6.237   8.881  -0.253  0.1861 -0.0966  0.1777
    4CHTO  H184 1344   6.254   8.824  -0.345  1.5963  0.9987 -0.2558
    4CHTO   O64 1345   6.097   8.911  -0.232 -0.5454 -0.5593  0.3339
    4CHTO  C104 1346   6.008   8.804  -0.243  0.0498 -0.6615  0.2323
    4CHTO  H191 1347   6.014   8.758  -0.341  1.8444  3.2776 -1.5983
    4CHTO  C108 1348   5.861   8.854  -0.223  0.0916 -0.1457  0.2813
    4CHTO   O71 1349   5.831   8.982  -0.289 -0.0829  0.1513  0.4645
    4CHTO  H171 1350   5.842   9.047  -0.223 -0.9056 -0.4088  1.1693
    4CHTO   O62 1351   6.289   9.018  -0.266 -0.5489  0.2619  0.2164
    4CHTO   C91 1352   6.379   9.043  -0.376 -0.1972  0.5689  0.2790
    4CHTO  H178 1353   6.420   8.949  -0.414  3.4574  0.5485  3.8621
    4CHTO   C92 1354   6.505   9.132  -0.354 -0.2185  0.1762  0.3157
    4CHTO  H179 1355   6.467   9.233  -0.333 -0.8755 -0.3145  1.5328
    4CHTO   O66 1356   6.566   9.089  -0.235 -0.0834  0.2881 -0.2046
    4CHTO  H166 1357   6.643   9.040  -0.254  0.2591  0.4916  0.6713
    4CHTO   C93 1358   6.600   9.122  -0.478 -0.1995 -0.1237 -0.6250
    4CHTO  H180 1359   6.625   9.015  -0.474  0.2128  0.0382  2.3532
    4CHTO   N16 1360   6.717   9.210  -0.455  0.2050 -0.0266  0.4028
    4CHTO  H172 1361   6.689   9.314  -0.467 -0.5093 -0.2016  0.5467
    4CHTO  H173 1362   6.807   9.183  -0.509 -0.4095 -1.5710  0.1313
    4CHTO   C94 1363   6.524   9.158  -0.615  0.0743 -0.1589 -0.0595
    4CHTO  H181 1364   6.572   9.239  -0.669  1.2131 -0.3042  0.7076
    4CHTO   O61 1365   6.388   9.201  -0.576  0.0261 -0.4012  0.0401
    4CHTO   C95 1366   6.296   9.115  -0.493 -0.7886 -0.0660 -0.3380
    4CHTO  H182 1367   6.212   9.177  -0.462  0.1217  0.5088  1.0456
    4CHTO  C106 1368   6.231   9.013  -0.587 -0.1970  0.3286 -0.3806
    4CHTO   O69 1369   6.100   8.985  -0.549  0.2552 -0.1385  0.1221
    4CHTO  H169 1370   6.058   8.931  -0.613  0.9263 -0.3329 -0.1523
    4CHTO   O63 1371   6.526   9.027  -0.697  0.2401 -0.2454 -0.2050
    4CHTO   C96 1372   6.637   8.994  -0.801  0.1081  0.5982 -0.1347
    4CHTO  H183 1373   6.729   9.041  -0.765  0.6667 -1.9947  1.9305
    4CHTO   C98 1374   6.618   9.050  -0.946  0.5374 -0.3100  0.0338
    4CHTO  H185 1375   6.520   9.022  -0.988 -0.1548  1.7245  0.2539
    4CHTO   O67 1376   6.615   9.194  -0.935 -0.1815  0.0670  0.1471
    4CHTO  H167 1377   6.632   9.234  -1.017  0.0811 -0.2845  0.0313
    4CHTO  C102 1378   6.721   8.992  -1.055 -0.3834 -0.2229 -0.1886
    4CHTO  H189 1379   6.818   9.037  -1.031 -1.2288  0.3449  2.2476
    4CHTO   N18 1380   6.693   9.036  -1.198 -0.0711 -0.1331 -0.1995
    4CHTO  H176 1381   6.588   9.018  -1.219 -0.4746 -1.6102  2.7706
    4CHTO  H177 1382   6.756   8.983  -1.268 -0.8697 -0.5419 -0.6203
    4CHTO  C105 1383   6.720   8.839  -1.049 -0.4909 -0.5635 -0.0121
    4CHTO  H192 1384   6.618   8.802  -1.064 -1.0525  1.0720 -0.2996
    4CHTO   O65 1385   6.752   8.800  -0.909 -0.3594 -0.3976 -0.4702
    4CHTO  C100 1386   6.651   8.833  -0.811 -0.8357  0.2215 -0.0773
    4CHTO  H187 1387   6.552   8.792  -0.836 -0.5896 -0.4384 -0.0027
    4CHTO  C107 1388   6.694   8.761  -0.670  0.7068  0.5756  0.1532
    4CHTO   O70 1389   6.805   8.822  -0.612  0.3825 -0.0272 -0.0251
    4CHTO  H170 1390   6.806   8.806  -0.520  1.7816  0.3026  0.0359
    4CHTO   O57 1391   6.828   8.762  -1.162  0.7939 -0.5317 -0.7291
    4CHTO   C85 1392   6.762   8.690  -1.264  0.5626  0.7552  0.2796
    4CHTO  H157 1393   6.674   8.748  -1.300  0.1177 -0.2033 -0.1885
    4CHTO   C83 1394   6.688   8.557  -1.211 -0.4181  0.1475  0.6877
    4CHTO  H155 1395   6.609   8.592  -1.145  0.5967  0.5490  1.7217
    4CHTO   O56 1396   6.782   8.477  -1.133  0.6107 -0.4853 -0.6052
    4CHTO  H135 1397   6.826   8.532  -1.071 -0.9722  1.5514 -1.2226
    4CHTO   C81 1398   6.628   8.474  -1.332 -0.2735 -0.6116 -0.9517
    4CHTO  H153 1399   6.560   8.540  -1.386  0.6876  1.1271 -0.0832
    4CHTO   N14 1400   6.549   8.361  -1.282 -0.0871  1.0983 -0.1002
    4CHTO  H141 1401   6.489   8.314  -1.357  2.8488 -1.1956 -1.0759
    4CHTO  H142 1402   6.487   8.381  -1.196  0.2834 -1.6760  0.8502
    4CHTO   C79 1403   6.742   8.440  -1.433  0.1301  0.1740  0.2782
    4CHTO  H151 1404   6.690   8.400  -1.520 -0.8520  2.4154 -0.1953
    4CHTO   O52 1405   6.809   8.559  -1.481  0.4194 -0.2641 -0.7459
    4CHTO   C86 1406   6.860   8.652  -1.382  0.6023 -0.6377 -0.0568
    4CHTO  H158 1407   6.950   8.600  -1.342  1.0176 -0.4478 -0.7334
    4CHTO   C90 1408   6.909   8.788  -1.435  0.4874 -0.4050 -0.2600
    4CHTO   O60 1409   7.031   8.782  -1.515  0.5048 -0.1776 -0.1393
    4CHTO  H138 1410   7.095   8.831  -1.467 -0.4787 -0.1037  1.1249
    4CHTO   O50 1411   6.841   8.350  -1.387  0.0732 -0.2014  0.3653
    4CHTO   C73 1412   6.977   8.311  -1.366 -0.2773 -0.0244  0.7249
    4CHTO  H145 1413   7.030   8.381  -1.300 -1.8435  0.1516  1.8231
    4CHTO   C74 1414   7.059   8.310  -1.505 -0.7430  0.3487  0.1361
    4CHTO  H146 1415   7.049   8.411  -1.547 -0.0176  0.9180  1.3035
    4CHTO   O54 1416   7.194   8.300  -1.475  0.0885  0.0956  0.9455
    4CHTO  H133 1417   7.205   8.214  -1.441 -1.8448 -0.1924  0.8682
    4CHTO   C75 1418   7.005   8.207  -1.601 -0.0056  0.1836  1.1338
    4CHTO  H147 1419   6.906   8.239  -1.638  0.8891  2.2144  0.4276
    4CHTO   N13 1420   7.077   8.199  -1.730  0.6042 -0.1053  0.7911
    4CHTO  H139 1421   7.034   8.123  -1.793  1.2513 -1.6798  2.2175
    4CHTO  H140 1422   7.177   8.165  -1.709  0.1176 -0.9567  1.7372
    4CHTO   C76 1423   6.992   8.065  -1.531  0.1938 -0.0599  1.0342
    4CHTO  H148 1424   7.090   8.022  -1.512  0.0224  0.2355  2.6557
    4CHTO   O49 1425   6.924   8.075  -1.403  0.4533 -0.8921 -0.4730
    4CHTO   C77 1426   6.984   8.169  -1.311  0.7604 -0.2004  0.6693
    4CHTO  H149 1427   7.086   8.130  -1.302 -0.1553 -2.4618  1.5654
    4CHTO   C88 1428   6.914   8.164  -1.178 -0.0345 -0.1704 -0.3607
    4CHTO   O58 1429   6.896   8.020  -1.117  0.1987 -0.4365  0.0054
    4CHTO  H136 1430   6.965   8.003  -1.057 -0.3162  0.9859  1.0411
    4CHTO   O51 1431   6.896   7.972  -1.616  0.2614 -0.4282 -0.8150
    4CHTO   C78 1432   6.952   7.829  -1.649  0.1296 -0.2866  0.1819
    4CHTO  H150 1433   7.060   7.834  -1.622  0.2632  2.0044 -0.7250
    4CHTO   C80 1434   6.938   7.793  -1.798 -0.3035 -0.0931 -0.3570
    4CHTO  H152 1435   6.832   7.788  -1.829 -0.8232 -0.9353  1.5746
    4CHTO   O55 1436   7.004   7.897  -1.869  0.1383 -0.0713  0.3130
    4CHTO  H134 1437   6.978   7.891  -1.959 -0.2367 -0.8318  0.4705
    4CHTO   C84 1438   7.001   7.651  -1.823 -0.1438  0.6769 -0.5100
    4CHTO  H156 1439   7.104   7.658  -1.789 -0.2778  0.3706 -0.0413
    4CHTO   N15 1440   7.010   7.612  -1.964 -0.5038  0.1679 -0.3501
    4CHTO  H143 1441   7.106   7.641  -2.002 -0.8960  2.4164  0.2876
    4CHTO  H144 1442   6.937   7.658  -2.028 -1.0361 -0.6761 -0.3563
    4CHTO   C87 1443   6.915   7.553  -1.738 -0.1576 -0.2827  0.5761
    4CHTO  H159 1444   6.813   7.547  -1.777 -0.9901  3.1109  2.0269
    4CHTO   O53 1445   6.939   7.593  -1.589  0.2949 -0.4142  0.4131
    4CHTO   C82 1446   6.877   7.722  -1.559  0.0707 -0.2485  0.0478
    4CHTO  H154 1447   6.769   7.730  -1.575  0.5889  2.7526 -2.2515
    4CHTO   C89 1448   6.903   7.749  -1.403 -0.4118 -0.0336  0.0007
    4CHTO   O59 1449   6.815   7.671  -1.322 -0.2886 -0.0572 -0.0798
    4CHTO  H137 1450   6.839   7.582  -1.305 -0.8463 -0.2995 -0.5342
    4CHTO   O45 1451   6.977   7.390  -1.720 -0.2224 -0.1528 -0.1441
    4CHTO   C67 1452   6.879   7.286  -1.741 -0.1727  0.6671  0.0051
    4CHTO  H124 1453   6.828   7.294  -1.836 -1.5166  1.1321  0.7595
    4CHTO   C65 1454   6.943   7.138  -1.738  0.0456  0.2189  0.2710
    4CHTO  H122 1455   7.032   7.143  -1.800  0.2422  1.1545  0.6098
    4CHTO   O44 1456   6.855   7.047  -1.800 -0.0330  0.7797 -0.4049
    4CHTO  H102 1457   6.904   6.969  -1.819 -1.0273  0.1490 -0.3806
    4CHTO   C63 1458   6.992   7.113  -1.593  0.0497  0.1898  0.7697
    4CHTO  H120 1459   7.050   7.200  -1.560  1.4996 -0.2315 -0.6019
    4CHTO   N11 1460   7.088   6.999  -1.577 -0.1461 -0.6999  0.3249
    4CHTO  H108 1461   7.117   6.981  -1.475 -1.1718 -0.1359  0.7234
    4CHTO  H109 1462   7.054   6.908  -1.622 -0.4777 -0.0984 -0.6498
    4CHTO   C61 1463   6.860   7.108  -1.496 -0.0192  0.4716  0.5529
    4CHTO  H118 1464   6.893   7.104  -1.391  0.0627  0.2044  0.5184
    4CHTO   O40 1465   6.773   7.222  -1.509  0.1913 -0.4703  0.6478
    4CHTO   C68 1466   6.764   7.301  -1.631  0.1317  0.0661  0.9689
    4CHTO  H125 1467   6.772   7.408  -1.603 -0.2775  0.1720  0.6957
    4CHTO   C72 1468   6.625   7.283  -1.701 -0.0321 -0.2789 -0.1611
    4CHTO   O48 1469   6.600   7.153  -1.754 -0.4461  0.1300  0.1249
    4CHTO  H105 1470   6.581   7.172  -1.844  0.2941  0.9902  0.1480
    4CHTO   O38 1471   6.793   6.988  -1.523  0.0856  0.1011  0.0767
    4CHTO   C55 1472   6.712   6.931  -1.417  0.9407  0.5016 -0.1853
    4CHTO  H112 1473   6.668   7.017  -1.364  1.2375  1.4668 -1.4885
    4CHTO   C56 1474   6.799   6.832  -1.323 -0.7889 -0.3752  0.1525
    4CHTO  H113 1475   6.845   6.759  -1.391  0.2362 -0.3495  0.8031
    4CHTO   O42 1476   6.911   6.898  -1.257 -0.1311 -0.2155 -0.0726
    4CHTO  H100 1477   6.994   6.872  -1.291  0.4851  1.7403 -0.1324
    4CHTO   C57 1478   6.713   6.761  -1.212 -0.3348 -0.6470 -0.0315
    4CHTO  H114 1479   6.693   6.845  -1.146 -0.2251 -0.8795  0.3032
    4CHTO   N10 1480   6.795   6.651  -1.138  0.2464 -0.1949  0.0739
    4CHTO  H106 1481   6.719   6.573  -1.133  0.8455 -0.8716 -1.0063
    4CHTO  H107 1482   6.833   6.667  -1.039 -0.8756  0.7396  0.3679
    4CHTO   C58 1483   6.577   6.716  -1.279  0.5169 -0.5987 -0.4052
    4CHTO  H115 1484   6.585   6.626  -1.343 -0.5236 -1.3043  0.4292
    4CHTO   O37 1485   6.513   6.812  -1.368 -0.1054 -0.0143 -0.2986
    4CHTO   C59 1486   6.587   6.860  -1.480  0.5590  0.1228  0.2920
    4CHTO  H116 1487   6.615   6.784  -1.552 -0.5705  0.1324 -0.1675
    4CHTO   C70 1488   6.499   6.958  -1.557 -0.8888 -0.3027  0.3734
    4CHTO   O46 1489   6.375   6.902  -1.591  0.3746 -0.0500 -0.0481
    4CHTO  H103 1490   6.342   6.947  -1.666  0.7826 -0.2865 -0.3719
    4CHTO   O39 1491   6.477   6.692  -1.162  0.4418  0.1422 -0.3319
    4CHTO   C60 1492   6.401   6.572  -1.169  0.1378  0.4137  0.3122
    4CHTO  H117 1493   6.389   6.547  -1.274  1.4180  2.3125 -0.3114
    4CHTO   C62 1494   6.478   6.453  -1.099 -0.1943 -0.0143  0.3015
    4CHTO  H119 1495   6.562   6.434  -1.169 -0.6669 -0.3862 -0.1637
    4CHTO   O43 1496   6.521   6.491  -0.965  0.3675 -0.0634  0.4612
    4CHTO  H101 1497   6.603   6.536  -0.972 -0.2683  0.7353 -2.1674
    4CHTO   C66 1498   6.377   6.322  -1.103  0.0217 -0.0182  0.0102
    4CHTO  H123 1499   6.354   6.306  -1.209  0.8906  0.0781 -0.1972
    4CHTO   N12 1500   6.452   6.205  -1.056 -0.4987  0.5130  0.5820
    4CHTO  H110 1501   6.410   6.112  -1.094  3.3041 -0.6723 -0.9890
    4CHTO  H111 1502   6.447   6.197  -0.949  0.7512 -0.3102  0.5873
    4CHTO   C69 1503   6.241   6.343  -1.035  0.6787  0.8655  0.0836
    4CHTO  H126 1504   6.252   6.360  -0.926 -3.3979 -0.4445  0.7927
    4CHTO   O41 1505   6.168   6.465  -1.107  0.2917  0.1457 -0.5652
    4CHTO   C64 1506   6.266   6.595  -1.106 -0.1250  0.2917 -0.3271
    4CHTO  H121 1507   6.279   6.621  -0.999  1.0832 -0.0312 -0.3895
    4CHTO   C71 1508   6.190   6.712  -1.175  0.3078  0.3518  0.1379
    4CHTO   O47 1509   6.155   6.653  -1.300 -0.3391  1.0553 -0.5267
    4CHTO  H104 1510   6.117   6.717  -1.358  1.5070  0.0452 -2.9482
    4CHTO   O34 1511   6.136   6.203  -1.042  0.3314 -0.6312  0.2272
    4CHTO   C49 1512   5.967   6.195  -1.051 -0.2859 -0.3320 -0.2136
    4CHTO   H91 1513   5.923   6.277  -0.994 -1.9870 -1.7138  0.4809
    4CHTO   C47 1514   5.933   6.054  -0.997 -0.2134  0.6176 -0.3730
    4CHTO   H89 1515   5.823   6.061  -0.988 -0.1666 -0.4142  1.1815
    4CHTO   O33 1516   5.986   6.038  -0.867  0.8700 -0.0836  0.0653
    4CHTO   H70 1517   6.080   6.030  -0.862  0.8917 -0.3117 -0.6995
    4CHTO   C45 1518   5.987   5.944  -1.105 -0.2268  0.5421 -0.5213
    4CHTO   H87 1519   6.085   5.909  -1.069 -0.5254  0.5992  0.3481
    4CHTO    N8 1520   5.888   5.832  -1.098  0.5260  0.1312 -0.6780
    4CHTO   H75 1521   5.814   5.832  -1.176  0.3902 -2.5406 -0.6087
    4CHTO   H76 1522   5.942   5.738  -1.102  0.1860 -0.1154  0.2358
    4CHTO   C43 1523   6.027   6.011  -1.246 -0.3111  0.1441  0.2520
    4CHTO   H85 1524   6.121   6.062  -1.224  0.5921 -0.8595 -1.2380
    4CHTO   O29 1525   5.920   6.102  -1.280  0.2358  0.4251 -0.2201
    4CHTO   C50 1526   5.920   6.218  -1.196  0.0215 -0.1472  0.0149
    4CHTO   H92 1527   5.978   6.297  -1.245  0.3298  0.3604  1.1887
    4CHTO   C54 1528   5.770   6.275  -1.197 -0.5675  0.4322 -0.0395
    4CHTO   O36 1529   5.667   6.171  -1.171 -0.0207 -0.6342  0.3053
    4CHTO   H72 1530   5.602   6.214  -1.119 -1.7635 -1.7309 -0.9049
    4CHTO   O27 1531   6.050   5.918  -1.353  0.8076  0.0825 -0.3700
    4CHTO   C37 1532   6.168   5.858  -1.406 -0.2902  0.0424 -0.4254
    4CHTO   H79 1533   6.124   5.800  -1.488  0.1022  2.3657 -2.3482
    4CHTO   C38 1534   6.264   5.961  -1.466 -0.2121  0.0033  0.1426
    4CHTO   H80 1535   6.252   6.057  -1.412  2.7859 -0.0312  0.9367
    4CHTO   O31 1536   6.234   5.987  -1.599  0.1199  0.1209  0.0740
    4CHTO   H68 1537   6.252   6.076  -1.620 -3.1272  1.3705  2.2139
    4CHTO   C39 1538   6.419   5.929  -1.469 -0.1893  0.1422  0.0939
    4CHTO   H81 1539   6.438   5.861  -1.552 -0.4684  1.4692 -1.0786
    4CHTO    N7 1540   6.497   6.055  -1.483 -0.1019  0.3074  0.1912
    4CHTO   H73 1541   6.518   6.104  -1.389  0.2694  0.6317 -0.0596
    4CHTO   H74 1542   6.464   6.121  -1.562  0.4781  0.5675  0.1664
    4CHTO   C40 1543   6.456   5.842  -1.342  0.0655 -0.0153 -0.0898
    4CHTO   H82 1544   6.437   5.916  -1.264  1.5770 -0.9528  1.1990
    4CHTO   O26 1545   6.368   5.736  -1.340  0.1656  0.1084 -0.6250
    4CHTO   C41 1546   6.232   5.766  -1.303 -0.0844 -0.2584 -0.1658
    4CHTO   H83 1547   6.226   5.811  -1.203 -0.8242 -0.8918  0.0869
    4CHTO   C52 1548   6.150   5.622  -1.295  0.6546 -0.6633  0.4443
    4CHTO   O35 1549   6.208   5.533  -1.206 -0.9665 -0.2447  0.4971
    4CHTO   H71 1550   6.152   5.527  -1.131 -0.1607 -0.7182  1.0719
    4CHTO   O28 1551   6.591   5.799  -1.336  0.5486 -0.2182  0.0471
    4CHTO   C42 1552   6.647   5.776  -1.201  0.4543 -0.1971 -0.4353
    4CHTO   H84 1553   6.726   5.705  -1.226  0.6063 -0.1390 -0.1182
    4CHTO   C44 1554   6.560   5.709  -1.091  0.0728  0.0801  0.4033
    4CHTO   H86 1555   6.470   5.769  -1.077 -0.5113 -1.0773  1.6711
    4CHTO   O32 1556   6.519   5.581  -1.148  0.2956  0.1015 -0.4790
    4CHTO   H69 1557   6.425   5.578  -1.144  0.1762 -0.6721 -2.9088
    4CHTO   C48 1558   6.636   5.694  -0.958 -1.1479  0.7992  0.3055
    4CHTO   H90 1559   6.712   5.617  -0.967  1.4557  3.5738 -3.2800
    4CHTO    N9 1560   6.554   5.635  -0.852 -0.2515 -0.2512 -0.4190
    4CHTO   H77 1561   6.615   5.612  -0.765 -0.3806  1.6336  0.2059
    4CHTO   H78 1562   6.490   5.552  -0.876  0.0520 -0.2352 -1.2777
    4CHTO   C51 1563   6.701   5.835  -0.921 -0.1131 -0.0036  0.0798
    4CHTO   H93 1564   6.617   5.903  -0.906  0.9800  1.1928  0.8626
    4CHTO   O30 1565   6.784   5.873  -1.032  0.0880 -0.0473  0.3477
    4CHTO   C46 1566   6.715   5.908  -1.143  0.4454 -0.8437  0.3476
    4CHTO   H88 1567   6.650   5.992  -1.119  1.1026 -0.6449  1.4626
    4CHTO   C53 1568   6.819   5.957  -1.243  0.3968  0.3061 -0.1180
    4CHTO   O72 1569   6.905   6.065  -1.187  0.6143 -0.2706 -0.3442
    4CHTO  H199 1570   6.976   6.080  -1.247  2.1133 -0.5730  1.3292
    4CHTO   O22 1571   6.794   5.819  -0.807  0.5983 -0.0659 -0.5761
    4CHTO   C31 1572   6.808   5.909  -0.692  0.3381 -0.2367 -0.4181
    4CHTO   H59 1573   6.705   5.949  -0.678 -0.4635 -1.7784 -1.7624
    4CHTO   C29 1574   6.838   5.836  -0.563  0.4991  0.5961 -0.3269
    4CHTO   H57 1575   6.936   5.787  -0.569  1.9663  3.5159 -1.1820
    4CHTO   O21 1576   6.737   5.729  -0.541  0.1003 -0.4310 -0.1157
    4CHTO   H37 1577   6.656   5.760  -0.576 -0.6609 -2.5929 -0.3332
    4CHTO   C27 1578   6.833   5.931  -0.433 -0.5646  0.5477  0.1710
    4CHTO   H55 1579   6.731   5.971  -0.419 -0.4810  0.5955  0.6328
    4CHTO    N5 1580   6.877   5.863  -0.311 -0.0752  0.2865  0.2723
    4CHTO   H43 1581   6.983   5.874  -0.295 -0.1604  0.1148  0.9782
    4CHTO   H44 1582   6.829   5.898  -0.221  1.7683  0.7996  1.0788
    4CHTO   C25 1583   6.933   6.044  -0.472  0.1806  0.0565 -0.5530
    4CHTO   H53 1584   7.036   6.004  -0.469 -0.3218 -1.1753  2.2172
    4CHTO   O17 1585   6.906   6.113  -0.601  0.4932 -0.4609 -0.1447
    4CHTO   C32 1586   6.910   6.027  -0.715  0.2526 -0.2284  0.1240
    4CHTO   H60 1587   7.010   5.987  -0.730  1.3630  3.0770 -1.9264
    4CHTO   C36 1588   6.874   6.120  -0.833 -0.1749  0.3353  0.5481
    4CHTO   O25 1589   6.991   6.205  -0.868 -0.1457  0.2227  0.3385
    4CHTO   H40 1590   7.059   6.158  -0.912  0.6648 -1.1760  3.0270
    4CHTO   O15 1591   6.941   6.153  -0.363  0.8965  0.1647  0.6382
    4CHTO   C19 1592   6.923   6.290  -0.319 -0.7927  0.2705 -0.5166
    4CHTO   H47 1593   6.975   6.291  -0.222 -0.0463  0.2930 -0.9108
    4CHTO   C20 1594   6.984   6.388  -0.415  0.1064 -0.2169  0.5731
    4CHTO   H48 1595   6.950   6.374  -0.519 -0.4810 -0.1061  0.7494
    4CHTO   O19 1596   7.124   6.363  -0.419  0.1637 -0.0147  0.0979
    4CHTO   H35 1597   7.144   6.280  -0.458 -4.1452 -0.3938 -1.5506
    4CHTO   C21 1598   6.955   6.540  -0.376 -0.2507 -0.4930  0.1018
    4CHTO   H49 1599   7.019   6.565  -0.292 -1.8517 -0.2966  1.2929
    4CHTO    N4 1600   6.985   6.644  -0.481  0.8626  0.4982  0.2069
    4CHTO   H41 1601   7.070   6.624  -0.545  0.1429 -0.9770 -0.3092
    4CHTO   H42 1602   6.992   6.745  -0.444 -1.5354  0.2256  1.4872
    4CHTO   C22 1603   6.807   6.551  -0.332 -0.7018  0.7289  0.4906
    4CHTO   H50 1604   6.746   6.528  -0.420  1.2456 -0.8899 -0.4775
    4CHTO   O14 1605   6.773   6.459  -0.227 -0.1250  0.1694  0.3189
    4CHTO   C23 1606   6.778   6.326  -0.285 -0.1420  0.2483  0.0412
    4CHTO   H51 1607   6.714   6.312  -0.374  2.8564 -2.4111 -1.8183
    4CHTO   C34 1608   6.732   6.229  -0.177  0.2945 -0.0162 -0.0643
    4CHTO   O23 1609   6.596   6.236  -0.147 -0.0803  0.2213 -0.1947
    4CHTO   H38 1610   6.562   6.170  -0.204  1.3436  0.5980 -1.4917
    4CHTO   O16 1611   6.795   6.678  -0.273 -0.1958  0.0334 -0.1705
    4CHTO   C24 1612   6.671   6.728  -0.244  0.0884 -0.4303  0.2579
    4CHTO   H52 1613   6.589   6.676  -0.294 -1.7611  1.5271  1.1530
    4CHTO   C26 1614   6.665   6.882  -0.280 -0.0438  0.6212  0.1092
    4CHTO   H54 1615   6.688   6.893  -0.388  0.4802 -1.3004  0.0020
    4CHTO   O20 1616   6.532   6.925  -0.257 -0.0800 -0.0663  0.0010
    4CHTO   H36 1617   6.479   6.937  -0.334 -1.8528 -0.5315  1.1271
    4CHTO   C30 1618   6.767   6.963  -0.196  0.6365 -0.5091 -0.2259
    4CHTO   H58 1619   6.727   7.061  -0.165  2.0670 -0.5146  1.7299
    4CHTO    N6 1620   6.888   7.002  -0.265  0.6329  0.1840 -0.0805
    4CHTO   H45 1621   6.956   7.059  -0.203  0.2296  2.5492 -1.7200
    4CHTO   H46 1622   6.938   6.914  -0.301  0.3832 -0.8372  1.9942
    4CHTO   C33 1623   6.803   6.885  -0.063 -0.4165 -0.8762  0.2136
    4CHTO   H61 1624   6.878   6.809  -0.090 -0.7443  0.0000 -3.4081
    4CHTO   O18 1625   6.685   6.821  -0.014 -0.0451  0.2261  0.0170
    4CHTO   C28 1626   6.644   6.705  -0.088 -0.5811 -0.4948 -0.2128
    4CHTO   H56 1627   6.702   6.619  -0.054  0.5060 -0.8711 -2.8223
    4CHTO   C35 1628   6.493   6.672  -0.061 -0.1017  0.0204  0.6858
    4CHTO   O24 1629   6.463   6.615   0.067  0.3942 -0.0118 -0.4957
    4CHTO   H39 1630   6.463   6.684   0.130 -0.5819 -1.6069  1.2923
    4CHTO    O9 1631   6.865   6.973   0.039  0.8034 -0.5394  0.6559
    4CHTO   C13 1632   6.976   6.887   0.137 -0.5787 -0.3760 -0.2367
    4CHTO   H26 1633   7.070   6.886   0.077 -0.2960 -0.6416  0.2075
    4CHTO   C11 1634   6.929   6.740   0.173 -0.3876 -0.1052 -0.4071
    4CHTO   H24 1635   6.920   6.691   0.075  1.1294  3.1245 -2.2393
    4CHTO    O8 1636   6.799   6.740   0.226  0.3542  0.2541  0.2336
    4CHTO    H3 1637   6.766   6.659   0.193  0.7125 -0.9827  2.7358
    4CHTO    C9 1638   7.054   6.679   0.238  0.9113 -0.1863  0.4713
    4CHTO   H22 1639   7.135   6.696   0.166  0.7623  0.6004  0.4873
    4CHTO    N2 1640   7.046   6.533   0.257  0.1360  0.9655 -0.1709
    4CHTO   H10 1641   7.140   6.493   0.291 -0.5582 -0.3512  0.2474
    4CHTO   H11 1642   7.008   6.492   0.164 -0.9724  1.6126 -0.0130
    4CHTO    C7 1643   7.079   6.763   0.376  0.3653 -0.0883 -0.4261
    4CHTO   H20 1644   7.183   6.734   0.402  1.3573  2.4366 -1.4018
    4CHTO    O4 1645   7.090   6.915   0.364 -0.2412 -0.2356  0.1094
    4CHTO   C14 1646   7.012   6.972   0.265  0.8396 -0.2247 -0.0486
    4CHTO   H27 1647   7.076   7.058   0.238 -0.3416  1.3813  2.1343
    4CHTO   C18 1648   6.876   7.034   0.321  0.7882 -0.1157 -0.1676
    4CHTO   O13 1649   6.902   7.130   0.418  0.4485  0.1425 -0.1052
    4CHTO    H7 1650   6.898   7.212   0.373 -0.9978 -1.1108 -2.3727
    4CHTO    O2 1651   6.964   6.718   0.488  0.1406  0.2044 -0.5329
    4CHTO    C1 1652   7.024   6.690   0.618  0.7070  0.2693 -0.1669
    4CHTO   H14 1653   7.119   6.746   0.630  0.8277 -0.3147  1.8556
    4CHTO    C2 1654   7.058   6.536   0.635 -0.0859 -0.0467 -0.9741
    4CHTO   H15 1655   6.962   6.484   0.621 -0.7387  0.5030  1.2417
    4CHTO    O6 1656   7.160   6.500   0.543 -0.2116 -0.4533  0.5856
    4CHTO    H1 1657   7.153   6.409   0.521  0.3162 -0.6254  1.1244
    4CHTO    C3 1658   7.111   6.499   0.780  0.0407  0.2173 -0.2146
    4CHTO   H16 1659   7.203   6.558   0.793  0.7056 -0.5369 -1.3824
    4CHTO    N1 1660   7.145   6.356   0.810 -0.4984  0.1000 -0.5292
    4CHTO    H8 1661   7.119   6.323   0.909  1.6287  0.8382  0.3110
    4CHTO    H9 1662   7.251   6.341   0.799 -0.1683  2.9237 -1.6769
    4CHTO    C4 1663   7.005   6.560   0.885 -0.6227 -0.8639 -0.9266
    4CHTO   H17 1664   6.910   6.508   0.869 -0.3957 -1.1450 -1.3766
    4CHTO    O1 1665   6.996   6.706   0.862  0.7246  0.5059 -0.0305
    4CHTO    C5 1666   6.930   6.739   0.735 -0.1132 -0.4486  0.4040
    4CHTO   H18 1667   6.831   6.693   0.738 -1.0775  1.4615 -0.8568
    4CHTO   C16 1668   6.918   6.889   0.724  0.0123  0.2519  0.0650
    4CHTO   O11 1669   6.787   6.931   0.722 -0.2835  0.4501  0.2552
    4CHTO    H5 1670   6.780   7.018   0.755  0.8795  1.2524 -1.4945
    4CHTO    O3 1671   7.046   6.548   1.024  0.0477 -0.2670 -0.1155
    4CHTO    C6 1672   6.946   6.489   1.117  0.5081  0.2786  0.5260
    4CHTO   H19 1673   6.878   6.422   1.065 -1.8600  1.5302  1.9115
    4CHTO    C8 1674   7.028   6.422   1.231  0.3866 -0.4784 -1.1700
    4CHTO   H21 1675   7.097   6.495   1.272 -0.0961 -0.4933 -0.3197
    4CHTO    O7 1676   7.104   6.316   1.178  0.0014  0.4753 -0.0881
    4CHTO    H2 1677   7.112   6.240   1.231 -1.1912  1.1421  1.0831
    4CHTO   C12 1678   6.929   6.377   1.344 -0.7890  0.4899  0.0011
    4CHTO   H25 1679   6.872   6.298   1.290 -0.9311  1.1579 -0.8457
    4CHTO    N3 1680   6.998   6.316   1.467 -1.0637  0.0895 -0.4209
    4CHTO   H12 1681   7.080   6.368   1.513 -1.3619 -0.6766  0.9834
    4CHTO   H13 1682   7.022   6.213   1.446 -0.0585  0.3787 -0.7019
    4CHTO   C15 1683   6.824   6.480   1.388 -0.2206 -0.1077  0.5444
    4CHTO   H28 1684   6.865   6.549   1.461 -0.7841  0.7617  0.0468
    4CHTO   O10 1685   6.686   6.403   1.450  0.2810  0.1661 -0.7861
    4CHTO    H4 1686   6.663   6.435   1.535 -1.9698 -0.2690 -1.1909
    4CHTO    O5 1687   6.771   6.550   1.276  0.4528  0.8640  0.3345
    4CHTO   C10 1688   6.859   6.605   1.177 -0.2413  0.8033 -0.1185
    4CHTO   H23 1689   6.927   6.671   1.231  2.7207 -2.5118  0.3702
    4CHTO   C17 1690   6.769   6.681   1.087  0.7427  0.5505 -0.4157
    4CHTO   O12 1691   6.689   6.586   1.016  0.0455 -0.7333  0.1932
    4CHTO    H6 1692   6.668   6.508   1.064  1.1277 -0.3682  1.2906
    5CHTO  H203 1693   7.394   3.196   2.630 -1.7418  2.9974 -0.3908
    5CHTO   O82 1694   7.439   3.212   2.711 -0.5132  0.1583 -0.4224
    5CHTO  C123 1695   7.355   3.306   2.785 -0.2137 -0.0393  0.0515
    5CHTO  H227 1696   7.251   3.273   2.767  0.5152 -1.5470 -1.5482
    5CHTO   O77 1697   7.387   3.283   2.922  0.3869 -0.6394 -0.4263
    5CHTO  C118 1698   7.302   3.354   3.015  0.2822 -0.0967  0.1748
    5CHTO  H222 1699   7.202   3.310   3.001  0.4441 -1.3856  2.7427
    5CHTO  C125 1700   7.341   3.331   3.162  0.0476 -0.4273 -0.1760
    5CHTO   O84 1701   7.353   3.190   3.197  0.0384  0.3945  0.0447
    5CHTO  H205 1702   7.301   3.161   3.270 -1.4283 -2.9296 -2.1967
    5CHTO  C114 1703   7.315   3.504   3.000 -0.5619  0.1322  0.5892
    5CHTO  H218 1704   7.412   3.533   3.040 -0.6544  1.1193  0.1063
    5CHTO  C116 1705   7.307   3.541   2.848  0.1484 -0.2164 -0.3700
    5CHTO  H220 1706   7.205   3.554   2.807  1.1454  0.1603 -2.8008
    5CHTO   O79 1707   7.352   3.677   2.842  0.6363 -0.1898  0.2620
    5CHTO  H201 1708   7.290   3.739   2.807  0.7830  0.3814  1.0089
    5CHTO  C120 1709   7.388   3.452   2.752  0.3597  0.0553 -0.1175
    5CHTO  H224 1710   7.498   3.461   2.766  0.5592 -1.9819 -0.1834
    5CHTO   N21 1711   7.371   3.492   2.612  0.0906 -0.4583 -0.7783
    5CHTO  H211 1712   7.446   3.557   2.568  0.7416  0.6977  1.9876
    5CHTO  H212 1713   7.338   3.412   2.546 -2.8768  1.4867 -1.7564
    5CHTO   O75 1714   7.213   3.563   3.075 -0.7670  0.1482  0.6633
    5CHTO  C112 1715   7.058   3.600   3.014 -0.3846  0.6231  0.0940
    5CHTO  H216 1716   7.025   3.516   2.951 -0.0566 -0.0319  0.7811
    5CHTO   O73 1717   7.072   3.723   2.935  0.5801  0.0941  0.3790
    5CHTO  C113 1718   6.944   3.742   2.866  0.2130 -0.2997  0.0944
    5CHTO  H217 1719   6.936   3.656   2.797  1.9248  0.3564 -0.9473
    5CHTO  C124 1720   6.963   3.860   2.777  0.8429 -0.2279  0.5925
    5CHTO   O83 1721   6.998   3.984   2.834  0.3891 -0.1357  0.1243
    5CHTO  H204 1722   6.939   4.012   2.901  1.5952 -0.4704  1.3439
    5CHTO  C109 1723   6.822   3.763   2.966  0.1682 -0.7952  0.5131
    5CHTO  H213 1724   6.844   3.852   3.027 -1.6081 -1.0140  1.4925
    5CHTO  C110 1725   6.814   3.641   3.070  0.1488 -0.4790  0.1053
    5CHTO  H214 1726   6.766   3.556   3.022  0.8378 -1.3452  0.9433
    5CHTO   O78 1727   6.728   3.681   3.176 -0.0082  0.0463 -0.2981
    5CHTO  H200 1728   6.709   3.604   3.226  2.7212 -0.1230  0.5870
    5CHTO  C111 1729   6.951   3.608   3.130 -0.6761  0.4740  0.2186
    5CHTO  H215 1730   6.981   3.683   3.204 -0.8762  0.1178  0.6697
    5CHTO   N19 1731   6.944   3.475   3.205 -0.1151  0.2284  0.4329
    5CHTO  H207 1732   6.883   3.484   3.294  0.9355  1.3966  1.0483
    5CHTO  H208 1733   6.905   3.407   3.130  0.2522  2.0708 -1.5105
    5CHTO   O74 1734   6.699   3.793   2.887 -0.1226  0.5368 -0.3079
    5CHTO  C115 1735   6.581   3.870   2.966 -0.1154  0.2582 -0.2227
    5CHTO  H219 1736   6.616   3.902   3.064  1.0941  0.1917 -0.6210
    5CHTO   O76 1737   6.537   4.006   2.887  0.2004 -0.2221 -0.5780
    5CHTO  C122 1738   6.512   3.979   2.748  0.1857 -0.3020  0.2806
    5CHTO  H226 1739   6.611   3.966   2.703 -0.6779  0.3186 -1.8470
    5CHTO  C126 1740   6.448   4.104   2.680 -0.5666  0.3578  0.4407
    5CHTO   O85 1741   6.545   4.204   2.650  0.7036 -0.1117  0.2062
    5CHTO  H206 1742   6.542   4.287   2.694 -3.2282  0.8882 -1.7795
    5CHTO  C121 1743   6.416   3.851   2.733  0.0835  0.3991 -0.3001
    5CHTO  H225 1744   6.336   3.868   2.659 -0.4958 -0.5833  0.0814
    5CHTO   O81 1745   6.500   3.736   2.697  0.6406  0.0985 -0.1133
    5CHTO  H202 1746   6.518   3.728   2.605  0.9518 -0.9875  0.0320
    5CHTO  C119 1747   6.346   3.815   2.875 -0.1722  0.4088  0.3103
    5CHTO  H223 1748   6.300   3.912   2.896 -2.3281  0.0129 -2.3170
    5CHTO  C117 1749   6.454   3.772   2.981  0.3554  0.1339  0.6155
    5CHTO  H221 1750   6.490   3.672   2.959 -1.6620 -1.1081  2.8156
    5CHTO   N20 1751   6.402   3.779   3.124 -0.1938 -0.5803  0.2966
    5CHTO  H209 1752   6.340   3.690   3.129  0.0432 -0.7868 -0.3498
    5CHTO  H210 1753   6.487   3.779   3.191  1.6991 -2.8524 -1.9891
    5CHTO   O80 1754   6.226   3.728   2.873  0.5102 -0.2011 -0.1087
    5CHTO  C103 1755   6.200   3.626   2.762 -0.1819 -0.0608 -0.3800
    5CHTO  H190 1756   6.240   3.660   2.666  0.3898 -1.9248 -0.8144
    5CHTO  C101 1757   6.249   3.483   2.778 -0.1546 -0.3439  0.2490
    5CHTO  H188 1758   6.218   3.449   2.877 -2.3687  0.9882  0.0530
    5CHTO   O68 1759   6.421   3.479   2.772 -0.1214  0.4777  0.1906
    5CHTO  H168 1760   6.450   3.514   2.690 -1.9893  1.4739 -0.0719
    5CHTO   C99 1761   6.188   3.374   2.674  0.4309  0.3868 -1.1096
    5CHTO  H186 1762   6.212   3.398   2.568 -0.4748  0.8782 -1.2151
    5CHTO   N17 1763   6.236   3.232   2.695 -0.6114  0.0111 -0.7245
    5CHTO  H174 1764   6.165   3.155   2.669 -2.3835  1.3974 -0.0875
    5CHTO  H175 1765   6.339   3.215   2.667 -0.7971  0.7902 -1.8861
    5CHTO   C97 1766   6.035   3.392   2.691 -0.3488 -0.6634 -0.4377
    5CHTO  H184 1767   6.005   3.363   2.793 -2.3949  0.0162 -0.8116
    5CHTO   O64 1768   6.002   3.528   2.661 -0.2322 -0.3841  0.1803
    5CHTO  C104 1769   6.041   3.632   2.752  0.0642  0.2567 -0.0267
    5CHTO  H191 1770   5.997   3.634   2.851  0.0033 -1.2424 -0.0047
    5CHTO  C108 1771   6.003   3.768   2.684 -0.1300 -0.2674  0.2577
    5CHTO   O71 1772   5.866   3.791   2.697 -0.2539 -0.0674 -0.4695
    5CHTO  H171 1773   5.839   3.848   2.628 -2.3588  0.2037  0.5219
    5CHTO   O62 1774   5.964   3.319   2.598  0.3296  0.6603 -0.4291
    5CHTO   C91 1775   5.839   3.261   2.628 -0.0074 -0.3944  0.4752
    5CHTO  H178 1776   5.805   3.308   2.720  2.1841  0.2240  0.9914
    5CHTO   C92 1777   5.854   3.113   2.663  0.2076 -0.4946  0.2197
    5CHTO  H179 1778   5.906   3.067   2.578 -0.4304 -0.0999 -0.3904
    5CHTO   O66 1779   5.942   3.114   2.777  0.0419  0.2372 -0.3254
    5CHTO  H166 1780   5.947   3.024   2.804 -2.5843 -0.9093 -3.2712
    5CHTO   C93 1781   5.709   3.057   2.695 -0.6066 -1.0497 -0.3623
    5CHTO  H180 1782   5.667   3.110   2.781  2.2228 -1.0927  1.1205
    5CHTO   N16 1783   5.701   2.915   2.729  0.0800  0.3407  0.4848
    5CHTO  H172 1784   5.776   2.893   2.803 -0.2329  0.9333  0.9807
    5CHTO  H173 1785   5.605   2.892   2.772  0.0513 -1.5121 -0.5132
    5CHTO   C94 1786   5.618   3.078   2.577  0.7527 -0.6493  0.1095
    5CHTO  H181 1787   5.648   3.016   2.492  0.7270 -1.4983  0.7074
    5CHTO   O61 1788   5.616   3.215   2.551  0.0011  0.0813 -0.0517
    5CHTO   C95 1789   5.733   3.291   2.516  0.8066  0.6823  0.3990
    5CHTO  H182 1790   5.762   3.256   2.417 -0.0347  0.0659  0.3622
    5CHTO  C106 1791   5.701   3.433   2.483 -0.8092  0.1364 -0.4099
    5CHTO   O69 1792   5.624   3.498   2.590  0.7910 -0.1193  0.2302
    5CHTO  H169 1793   5.532   3.484   2.578  0.5829  0.8236  0.6450
    5CHTO   O63 1794   5.475   3.057   2.601  0.2218  0.0671 -0.1919
    5CHTO   C96 1795   5.377   3.027   2.470  0.5068  0.4103  0.0458
    5CHTO  H183 1796   5.445   2.986   2.395 -0.4751 -1.3859  0.1221
    5CHTO   C98 1797   5.294   3.136   2.411 -0.1609  0.0276  0.3760
    5CHTO  H185 1798   5.212   3.167   2.477  0.4070 -2.1308  2.1606
    5CHTO   O67 1799   5.366   3.253   2.370  0.5362  0.7976 -0.6706
    5CHTO  H167 1800   5.452   3.242   2.336  0.3602  1.5712 -1.4002
    5CHTO  C102 1801   5.224   3.077   2.280  0.2792  0.4793 -0.0498
    5CHTO  H189 1802   5.305   3.069   2.207 -1.0463  0.8094 -1.5791
    5CHTO   N18 1803   5.120   3.167   2.218 -0.2544 -0.0890  0.0310
    5CHTO  H176 1804   5.084   3.121   2.127 -2.8728 -1.3015  1.6029
    5CHTO  H177 1805   5.149   3.269   2.200  0.5899 -0.4903 -0.9255
    5CHTO  C105 1806   5.166   2.930   2.290  0.0783 -0.3038 -0.4106
    5CHTO  H192 1807   5.057   2.928   2.285  0.0321  1.2662 -0.3978
    5CHTO   O65 1808   5.208   2.844   2.400  0.3429 -0.2641 -0.2914
    5CHTO  C100 1809   5.284   2.902   2.511  0.3533  0.2865 -0.5233
    5CHTO  H187 1810   5.208   2.941   2.581 -0.1055  0.1362 -0.9358
    5CHTO  C107 1811   5.376   2.789   2.574  0.4300  0.3022  0.0144
    5CHTO   O70 1812   5.305   2.675   2.617 -0.4487  0.0176 -0.2346
    5CHTO  H170 1813   5.370   2.609   2.627  0.5219  0.5769 -2.5849
    5CHTO   O57 1814   5.215   2.866   2.150  0.2071 -0.5019 -0.4058
    5CHTO   C85 1815   5.162   2.741   2.091 -0.1489  0.3001 -0.5130
    5CHTO  H157 1816   5.056   2.723   2.118 -0.5471 -0.4154 -2.5167
    5CHTO   C83 1817   5.241   2.623   2.165  0.3824 -0.8732 -0.0801
    5CHTO  H155 1818   5.224   2.636   2.272 -0.0226 -0.2767 -0.2147
    5CHTO   O56 1819   5.382   2.642   2.144 -0.3073  0.5317  0.5478
    5CHTO  H135 1820   5.439   2.578   2.182  0.4989  1.6240  1.1999
    5CHTO   C81 1821   5.177   2.490   2.126 -0.1016  0.6675 -0.4250
    5CHTO  H153 1822   5.071   2.499   2.146  0.2153 -1.2569  2.4018
    5CHTO   N14 1823   5.226   2.377   2.216  0.1967 -0.4144  0.9090
    5CHTO  H141 1824   5.166   2.290   2.201  3.3450 -2.2379 -2.1613
    5CHTO  H142 1825   5.323   2.350   2.179 -0.6311 -1.8692 -0.2886
    5CHTO   C79 1826   5.196   2.467   1.971 -0.3644  0.3052  0.3489
    5CHTO  H151 1827   5.125   2.390   1.941  1.3065 -0.3150 -2.1119
    5CHTO   O52 1828   5.160   2.589   1.896  0.1134 -0.1167  0.5817
    5CHTO   C86 1829   5.181   2.725   1.942 -0.1471 -0.5960  0.0370
    5CHTO  H158 1830   5.285   2.741   1.908 -1.3297  1.1812 -2.9184
    5CHTO   C90 1831   5.099   2.826   1.853 -0.0873 -0.2058 -0.3123
    5CHTO   O60 1832   5.140   2.962   1.870  0.3928  0.1032 -0.7399
    5CHTO  H138 1833   5.128   2.987   1.960  0.9951  0.4080 -0.7415
    5CHTO   O50 1834   5.327   2.424   1.934  0.2328 -0.5272  0.6590
    5CHTO   C73 1835   5.408   2.352   1.841  0.1434 -0.7765 -0.2088
    5CHTO  H145 1836   5.360   2.333   1.744 -1.2221  0.7361  0.1605
    5CHTO   C74 1837   5.452   2.215   1.895 -0.1633  0.0843  0.3145
    5CHTO  H146 1838   5.360   2.163   1.925  1.1636 -2.1438  0.5692
    5CHTO   O54 1839   5.504   2.143   1.781  0.0489  0.4503 -0.4107
    5CHTO  H133 1840   5.559   2.080   1.822 -0.9105  0.0233  0.2561
    5CHTO   C75 1841   5.543   2.233   2.017  0.3959 -0.0389 -0.1938
    5CHTO  H147 1842   5.487   2.267   2.105  0.5777 -0.1182 -0.0470
    5CHTO   N13 1843   5.599   2.104   2.067  0.1435  0.0032 -0.0269
    5CHTO  H139 1844   5.541   2.019   2.033 -0.8116  0.3377  0.7246
    5CHTO  H140 1845   5.698   2.090   2.027  0.0379  0.7363 -0.5520
    5CHTO   C76 1846   5.664   2.336   1.988 -0.5361  0.5235 -1.0302
    5CHTO  H148 1847   5.733   2.292   1.915  0.6896  3.6977 -1.8691
    5CHTO   O49 1848   5.608   2.462   1.940  0.1057 -0.0494  0.2983
    5CHTO   C77 1849   5.529   2.437   1.825  0.8399  0.1760 -0.3861
    5CHTO  H149 1850   5.592   2.387   1.752  1.1237 -0.6053  0.3855
    5CHTO   C88 1851   5.492   2.578   1.771  0.3107 -0.4621 -0.5913
    5CHTO   O58 1852   5.447   2.576   1.627  0.3664 -0.2748 -0.3017
    5CHTO  H136 1853   5.479   2.502   1.579  0.5291 -1.3678  1.4391
    5CHTO   O51 1854   5.742   2.356   2.126 -0.5081 -0.3558  0.2250
    5CHTO   C78 1855   5.861   2.476   2.119 -0.3544 -0.4827 -0.4599
    5CHTO  H150 1856   5.853   2.538   2.027 -0.2329  1.5042  0.8443
    5CHTO   C80 1857   6.002   2.411   2.113  0.2359 -0.1690  0.5574
    5CHTO  H152 1858   6.018   2.357   2.208 -0.3349  2.6517  2.2984
    5CHTO   O55 1859   5.988   2.320   1.999  0.0289 -0.0166  0.1115
    5CHTO  H134 1860   6.072   2.283   1.982 -0.2342 -0.3455 -0.4517
    5CHTO   C84 1861   6.109   2.521   2.090  0.8349  0.3347 -0.4750
    5CHTO  H156 1862   6.074   2.579   2.004 -0.4047 -1.5085 -1.2438
    5CHTO   N15 1863   6.242   2.468   2.058 -0.0317  0.1293  0.9172
    5CHTO  H143 1864   6.235   2.399   1.977  2.2844  2.1274 -1.0729
    5CHTO  H144 1865   6.294   2.556   2.026 -1.1048  0.3619 -0.2193
    5CHTO   C87 1866   6.112   2.621   2.211  0.2873  0.2702  0.7447
    5CHTO  H159 1867   6.152   2.577   2.302  2.4203 -2.8573 -1.6185
    5CHTO   O53 1868   5.949   2.670   2.242 -0.1939  0.2016  0.3412
    5CHTO   C82 1869   5.853   2.565   2.236  0.2263 -0.0017 -0.3202
    5CHTO  H154 1870   5.866   2.509   2.328  0.8307  1.3250  0.4299
    5CHTO   C89 1871   5.712   2.628   2.243  0.5540 -0.3286 -0.2502
    5CHTO   O59 1872   5.688   2.682   2.375  0.2242 -0.1800  0.5939
    5CHTO  H137 1873   5.625   2.752   2.367  0.4247 -0.0816 -0.0911
    5CHTO   O45 1874   6.198   2.766   2.173  0.2237  0.1181  0.4528
    5CHTO   C67 1875   6.271   2.810   2.291 -0.0888  0.6818 -0.5597
    5CHTO  H124 1876   6.219   2.769   2.377  2.8041  2.1416  1.9967
    5CHTO   C65 1877   6.418   2.748   2.288 -0.1473 -0.6435  0.4076
    5CHTO  H122 1878   6.434   2.718   2.184  2.9259 -1.7844  1.1597
    5CHTO   O44 1879   6.416   2.631   2.370  0.1262 -0.4288  0.2896
    5CHTO  H102 1880   6.442   2.647   2.459  0.0144  1.0613  0.0736
    5CHTO   C63 1881   6.527   2.861   2.320  0.1315 -0.1149  0.6380
    5CHTO  H120 1882   6.534   2.923   2.230  0.8679 -0.3829  0.5003
    5CHTO   N11 1883   6.672   2.815   2.322  0.2926 -0.2542 -0.1343
    5CHTO  H108 1884   6.717   2.863   2.406 -1.7090 -0.5498  1.1444
    5CHTO  H109 1885   6.686   2.710   2.312  3.5268  0.3048 -2.1958
    5CHTO   C61 1886   6.479   2.934   2.447 -0.4609  0.4192  0.3936
    5CHTO  H118 1887   6.550   3.014   2.469  0.1243 -0.7604  2.9842
    5CHTO   O40 1888   6.347   2.994   2.438 -0.1780 -0.7104  0.4284
    5CHTO   C68 1889   6.272   2.962   2.311 -0.4159 -0.6892 -0.0971
    5CHTO  H125 1890   6.321   3.008   2.222 -2.3098  2.7392  0.5889
    5CHTO   C72 1891   6.137   3.025   2.323 -0.0542 -0.9932 -0.5537
    5CHTO   O48 1892   6.139   3.170   2.315 -0.0890  0.0963 -0.0741
    5CHTO  H105 1893   6.080   3.182   2.243 -1.1376 -1.5292  0.5134
    5CHTO   O38 1894   6.473   2.851   2.566  0.5217 -0.3571 -0.7189
    5CHTO   C55 1895   6.440   2.906   2.691 -0.1100 -0.2879  0.8358
    5CHTO  H112 1896   6.385   3.000   2.679  0.2346 -0.3409 -1.4759
    5CHTO   C56 1897   6.576   2.929   2.770  0.2131  0.2287 -0.0797
    5CHTO  H113 1898   6.632   2.834   2.771 -1.0504 -0.5078  1.5212
    5CHTO   O42 1899   6.667   3.020   2.708  1.1583  0.1922  0.0706
    5CHTO  H100 1900   6.754   2.993   2.689  1.3444  1.7892 -1.4376
    5CHTO   C57 1901   6.539   2.970   2.919 -0.0633 -0.2560  0.2201
    5CHTO  H114 1902   6.518   3.077   2.918  2.8374  0.3636  0.8293
    5CHTO   N10 1903   6.651   2.960   3.015  0.5335  0.5539  0.3233
    5CHTO  H106 1904   6.721   2.887   2.979  0.1332 -0.6050  1.8590
    5CHTO  H107 1905   6.611   2.924   3.109 -1.7167 -0.4291 -0.9706
    5CHTO   C58 1906   6.412   2.893   2.972 -0.7230  0.8698  0.5856
    5CHTO  H115 1907   6.443   2.790   3.001  0.0295  1.0193  0.3038
    5CHTO   O37 1908   6.309   2.876   2.878  0.1334  0.0137 -0.3714
    5CHTO   C59 1909   6.344   2.808   2.757 -0.3097  0.2238  0.0072
    5CHTO  H116 1910   6.391   2.711   2.773 -0.6753 -0.4646 -2.9037
    5CHTO   C70 1911   6.220   2.777   2.677  0.3117 -0.3421 -0.1344
    5CHTO   O46 1912   6.127   2.702   2.749 -0.4150 -0.2172 -0.0713
    5CHTO  H103 1913   6.145   2.612   2.729  1.9072  0.0559  0.6247
    5CHTO   O39 1914   6.356   2.967   3.117  0.3462 -0.3844  0.4209
    5CHTO   C60 1915   6.252   3.066   3.111  0.1952 -0.1154 -0.2156
    5CHTO  H117 1916   6.228   3.097   3.009 -0.0407 -2.4716 -0.8964
    5CHTO   C62 1917   6.128   3.010   3.169 -0.0845  1.0073 -0.4124
    5CHTO  H119 1918   6.113   2.918   3.108  0.6415  0.5239  0.1244
    5CHTO   O43 1919   6.128   2.973   3.310  0.5327  0.2227  0.5018
    5CHTO  H101 1920   6.147   2.882   3.323 -0.3107  0.0988  0.8865
    5CHTO   C66 1921   6.007   3.106   3.140 -0.2243  0.7782  0.6842
    5CHTO  H123 1922   6.013   3.131   3.034 -0.4311  0.0958  0.5121
    5CHTO   N12 1923   5.872   3.051   3.161  0.8169 -0.0066 -0.3211
    5CHTO  H110 1924   5.819   3.092   3.246 -0.3845 -2.5859  0.2243
    5CHTO  H111 1925   5.804   3.031   3.080 -0.9678 -2.4762  1.7325
    5CHTO   C69 1926   6.030   3.237   3.217  0.0310  0.1022  0.1480
    5CHTO  H126 1927   6.010   3.220   3.325 -0.6625  1.1018  0.1917
    5CHTO   O41 1928   6.202   3.288   3.181  0.2257 -0.3828 -0.4893
    5CHTO   C64 1929   6.293   3.190   3.188  0.1098 -0.1703  0.3795
    5CHTO  H121 1930   6.303   3.174   3.297 -0.3844 -0.1931  0.4247
    5CHTO   C71 1931   6.426   3.248   3.136  0.1500  0.3403 -0.4825
    5CHTO   O47 1932   6.478   3.358   3.221  0.0937 -0.3210 -0.5085
    5CHTO  H104 1933   6.502   3.331   3.308 -1.1847 -0.7032 -0.2536
    5CHTO   O34 1934   5.944   3.329   3.194  0.1905 -0.0848  0.1944
    5CHTO   C49 1935   5.839   3.453   3.204  0.3922  0.6141 -0.6106
    5CHTO   H91 1936   5.816   3.474   3.309  0.1738  0.2167 -0.5774
    5CHTO   C47 1937   5.700   3.421   3.148 -0.3476 -0.5193  0.5041
    5CHTO   H89 1938   5.640   3.367   3.225 -1.9800 -2.0440 -1.7631
    5CHTO   O33 1939   5.725   3.334   3.034 -0.0836  0.6470 -0.1166
    5CHTO   H70 1940   5.759   3.254   3.071 -1.7779 -0.6945 -1.3932
    5CHTO   C45 1941   5.610   3.537   3.095 -0.5961 -0.2069 -0.0473
    5CHTO   H87 1942   5.619   3.542   2.986 -0.4683 -0.2373 -0.0374
    5CHTO    N8 1943   5.465   3.506   3.122 -0.3208 -0.0806 -0.4273
    5CHTO   H75 1944   5.444   3.544   3.221 -1.3015 -1.2701 -0.1530
    5CHTO   H76 1945   5.436   3.404   3.098 -0.3964  0.4211 -2.5894
    5CHTO   C43 1946   5.664   3.680   3.146  0.3728  0.3101  0.0911
    5CHTO   H85 1947   5.604   3.752   3.089 -0.0078 -2.1625 -2.7686
    5CHTO   O29 1948   5.800   3.686   3.102  0.0569  0.0752 -0.3409
    5CHTO   C50 1949   5.889   3.580   3.134 -0.3797 -0.5163  0.3574
    5CHTO   H92 1950   5.922   3.555   3.032 -0.1668  0.5851  0.1531
    5CHTO   C54 1951   5.997   3.657   3.215 -0.0478 -0.4972  0.5687
    5CHTO   O36 1952   5.939   3.690   3.346 -0.0046 -0.2899  0.4302
    5CHTO   H72 1953   5.930   3.615   3.401 -0.9447  0.6547  1.6028
    5CHTO   O27 1954   5.657   3.714   3.286 -0.1196 -0.1160 -0.4591
    5CHTO   C37 1955   5.560   3.777   3.371 -0.2308 -0.1014 -0.0247
    5CHTO   H79 1956   5.607   3.833   3.453  2.0561  0.2392 -1.5448
    5CHTO   C38 1957   5.481   3.887   3.286 -0.4398 -0.3212  0.2217
    5CHTO   H80 1958   5.451   3.848   3.188  4.4004 -0.4212 -1.3607
    5CHTO   O31 1959   5.567   3.990   3.262  0.2862  0.4018 -0.5137
    5CHTO   H68 1960   5.526   4.066   3.225  0.5050  2.3671  3.0704
    5CHTO   C39 1961   5.354   3.936   3.360 -0.0119 -0.0036 -0.0241
    5CHTO   H81 1962   5.387   3.990   3.448  1.2313  0.3224 -0.6735
    5CHTO    N7 1963   5.272   4.033   3.271 -0.0842  0.8793  0.1634
    5CHTO   H73 1964   5.216   3.965   3.208  0.6517  0.0679  0.3793
    5CHTO   H74 1965   5.337   4.102   3.219 -0.4529 -0.1693 -1.7563
    5CHTO   C40 1966   5.263   3.816   3.409 -0.0743 -0.6882 -0.4877
    5CHTO   H82 1967   5.227   3.755   3.326 -0.3892  0.4226 -1.1847
    5CHTO   O26 1968   5.343   3.740   3.500 -0.0443 -0.5725  0.4011
    5CHTO   C41 1969   5.458   3.673   3.432  0.3382 -0.0862  0.0200
    5CHTO   H83 1970   5.434   3.594   3.359  2.1304 -0.7689  0.1628
    5CHTO   C52 1971   5.521   3.589   3.549  0.1121  0.1052  0.0646
    5CHTO   O35 1972   5.418   3.486   3.607  0.3135  0.6782  0.1667
    5CHTO   H71 1973   5.344   3.532   3.640  0.4519  0.4929  0.7549
    5CHTO   O28 1974   5.148   3.849   3.495 -0.3998  0.4170 -0.1441
    5CHTO   C42 1975   5.074   3.753   3.581  0.5526 -0.0360 -0.8630
    5CHTO   H84 1976   4.975   3.796   3.594  1.0797  0.5914  1.3950
    5CHTO   C44 1977   5.135   3.742   3.727  0.3873 -0.4777  0.1139
    5CHTO   H86 1978   5.241   3.715   3.725  1.0120  1.8743  0.5439
    5CHTO   O32 1979   5.129   3.874   3.784 -0.6710 -0.4367 -0.0060
    5CHTO   H69 1980   5.178   3.882   3.864 -0.6879  0.2682 -0.0616
    5CHTO   C48 1981   5.066   3.623   3.809 -0.5850 -0.2710 -0.0591
    5CHTO   H90 1982   4.961   3.652   3.811 -1.0391 -1.5026 -2.8904
    5CHTO    N9 1983   5.120   3.614   3.948 -0.6186  0.0206 -0.0746
    5CHTO   H77 1984   5.226   3.609   3.963 -0.8973 -1.3658  1.6781
    5CHTO   H78 1985   5.067   3.548   4.016  1.1776 -1.0506  0.3317
    5CHTO   C51 1986   5.071   3.492   3.717 -0.8384 -0.5534 -0.1524
    5CHTO   H93 1987   5.178   3.479   3.701 -0.7193  0.2787 -0.0607
    5CHTO   O30 1988   4.992   3.514   3.597 -0.0835  0.0138  0.4083
    5CHTO   C46 1989   5.054   3.611   3.512  0.1328 -0.4217 -0.0649
    5CHTO   H88 1990   5.153   3.571   3.488  0.7245 -0.3748  2.1274
    5CHTO   C53 1991   4.959   3.623   3.391 -0.4403 -0.1867  0.5533
    5CHTO   O72 1992   4.837   3.686   3.415  0.0884 -0.4588 -0.3007
    5CHTO  H199 1993   4.796   3.649   3.490 -1.1927  0.7413 -0.3930
    5CHTO   O22 1994   5.021   3.371   3.773  0.2200 -0.1216  0.1910
    5CHTO   C31 1995   5.076   3.238   3.734  0.5036 -0.0098 -0.2792
    5CHTO   H59 1996   4.999   3.163   3.763 -1.8478  1.7469 -1.7604
    5CHTO   C29 1997   5.103   3.210   3.582  0.5275  0.0592  0.2413
    5CHTO   H57 1998   5.177   3.282   3.543  2.4217 -1.4666  0.9443
    5CHTO   O21 1999   4.977   3.223   3.507 -0.9740  0.1163 -0.1715
    5CHTO   H37 2000   4.943   3.308   3.528  0.8576  0.5988  1.0335
    5CHTO   C27 2001   5.165   3.064   3.566 -0.0387  0.0393 -0.0549
    5CHTO   H55 2002   5.089   2.989   3.594 -0.4835  0.8254  0.8971
    5CHTO    N5 2003   5.204   3.034   3.425  0.4919  0.6485  0.7913
    5CHTO   H43 2004   5.252   3.114   3.369 -1.1174  1.5231  0.6347
    5CHTO   H44 2005   5.120   2.983   3.381  0.9111  1.6299 -1.2335
    5CHTO   C25 2006   5.285   3.047   3.662  0.7593 -0.3504  0.1834
    5CHTO   H53 2007   5.362   3.123   3.641  0.9456 -0.4848  0.3775
    5CHTO   O17 2008   5.238   3.065   3.797  0.8756  0.0740  0.3687
    5CHTO   C32 2009   5.194   3.198   3.827  0.1562  0.1760 -0.1997
    5CHTO   H60 2010   5.277   3.268   3.823  1.8237 -1.7267  0.1188
    5CHTO   C36 2011   5.156   3.193   3.980  0.1156 -0.3689 -0.1601
    5CHTO   O25 2012   5.099   3.309   4.046  0.0888 -0.2414  0.3629
    5CHTO   H40 2013   5.027   3.288   4.102  0.2709 -1.0414  0.2970
    5CHTO   O15 2014   5.355   2.916   3.656 -0.1189 -0.1445  0.3706
    5CHTO   C19 2015   5.485   2.879   3.717 -0.2783  0.4664 -0.6078
    5CHTO   H47 2016   5.499   2.953   3.797 -0.0127  0.9164 -1.0655
    5CHTO   C20 2017   5.483   2.732   3.780  0.3791 -0.3387  0.1961
    5CHTO   H48 2018   5.447   2.661   3.704  3.0088 -2.3780  0.7843
    5CHTO   O19 2019   5.386   2.732   3.885  0.2230  0.0262 -0.4379
    5CHTO   H35 2020   5.355   2.651   3.919  1.2450  0.0635  0.5804
    5CHTO   C21 2021   5.623   2.678   3.838  0.3474  0.0861  0.0413
    5CHTO   H49 2022   5.653   2.738   3.924  1.0369  0.0172 -0.1454
    5CHTO    N4 2023   5.623   2.534   3.881  0.0766  0.3099 -0.6913
    5CHTO   H41 2024   5.572   2.527   3.976  1.3621 -1.3252 -0.1060
    5CHTO   H42 2025   5.603   2.450   3.817 -2.6603 -0.1112  0.6490
    5CHTO   C22 2026   5.736   2.709   3.741 -0.5502 -0.6178 -0.4537
    5CHTO   H50 2027   5.733   2.633   3.662  0.2136 -1.1806  0.0463
    5CHTO   O14 2028   5.729   2.844   3.693 -0.1563  0.0271  0.0419
    5CHTO   C23 2029   5.609   2.890   3.628 -0.0837  0.1555 -0.1781
    5CHTO   H51 2030   5.604   2.822   3.542  4.3863 -0.1825 -0.2594
    5CHTO   C34 2031   5.653   3.032   3.597  0.3448 -0.0847  0.2166
    5CHTO   O23 2032   5.748   3.019   3.489  0.2779  0.4197 -0.3016
    5CHTO   H38 2033   5.744   3.095   3.434 -0.4419 -0.8240 -2.0437
    5CHTO   O16 2034   5.868   2.716   3.802  0.2955 -0.1857  0.2781
    5CHTO   C24 2035   5.987   2.672   3.704 -0.6768  0.5951 -0.5020
    5CHTO   H52 2036   5.955   2.661   3.601  1.3625  0.3581 -1.1174
    5CHTO   C26 2037   6.040   2.539   3.764 -1.1664  0.2480 -0.1923
    5CHTO   H54 2038   6.077   2.559   3.867 -1.7152 -0.6375  0.1839
    5CHTO   O20 2039   5.940   2.437   3.769 -0.7737  0.6106 -0.3005
    5CHTO   H36 2040   5.949   2.397   3.854  2.3607 -0.4198 -1.0460
    5CHTO   C30 2041   6.173   2.502   3.686  0.6918  0.1504  0.1546
    5CHTO   H58 2042   6.147   2.485   3.580  2.9691 -2.8985  0.0164
    5CHTO    N6 2043   6.228   2.379   3.744  0.0510  0.3042  0.8352
    5CHTO   H45 2044   6.325   2.342   3.712 -0.6324 -2.7784  2.1745
    5CHTO   H46 2045   6.155   2.304   3.720  1.3182 -0.2996 -1.2453
    5CHTO   C33 2046   6.271   2.623   3.679 -0.2670 -0.0641  0.2359
    5CHTO   H61 2047   6.297   2.648   3.783 -0.6729  1.2163  0.0436
    5CHTO   O18 2048   6.201   2.733   3.623  0.4564 -0.3778 -0.8045
    5CHTO   C28 2049   6.096   2.782   3.707  0.2547 -0.0323  0.0997
    5CHTO   H56 2050   6.131   2.802   3.808 -0.5055  1.7049  0.0403
    5CHTO   C35 2051   6.043   2.923   3.657  0.4080  0.2291 -0.1653
    5CHTO   O24 2052   6.002   3.005   3.764  0.0161 -0.2979 -0.2335
    5CHTO   H39 2053   5.956   2.954   3.828 -0.0363 -0.9640 -0.7992
    5CHTO    O9 2054   6.394   2.600   3.608  0.0031 -0.1354  0.4861
    5CHTO   C13 2055   6.388   2.551   3.465  0.2145 -0.3539 -0.3902
    5CHTO   H26 2056   6.284   2.516   3.447  0.8732 -0.6425 -4.1238
    5CHTO   C11 2057   6.488   2.434   3.444  0.0486  0.1514  0.2613
    5CHTO   H24 2058   6.467   2.353   3.515 -1.0786  0.2731  0.0676
    5CHTO    O8 2059   6.625   2.480   3.468 -0.0912 -0.4614  0.8410
    5CHTO    H3 2060   6.663   2.527   3.397  0.5887  1.8299  2.6656
    5CHTO    C9 2061   6.475   2.387   3.298  0.1142  0.4865 -0.4460
    5CHTO   H22 2062   6.367   2.368   3.285  0.1715  1.3027 -2.2481
    5CHTO    N2 2063   6.545   2.262   3.257 -0.4361 -0.0760 -0.2798
    5CHTO   H10 2064   6.490   2.170   3.249 -0.3234  0.0092 -2.1897
    5CHTO   H11 2065   6.604   2.280   3.169 -0.8177  1.7529 -0.1989
    5CHTO    C7 2066   6.509   2.506   3.199  0.1334 -0.4242 -0.7598
    5CHTO   H20 2067   6.487   2.464   3.099 -0.4578 -0.5760 -0.5651
    5CHTO    O4 2068   6.431   2.623   3.230  0.0056  0.2357  0.1588
    5CHTO   C14 2069   6.409   2.669   3.362 -0.0582  0.0597 -0.0044
    5CHTO   H27 2070   6.309   2.714   3.348 -0.9755 -2.6171 -2.8356
    5CHTO   C18 2071   6.512   2.783   3.405 -0.5645  0.3333  0.5965
    5CHTO   O13 2072   6.455   2.886   3.490 -0.0380 -0.0194 -0.2202
    5CHTO    H7 2073   6.411   2.856   3.567 -0.1094 -0.3500 -0.3881
    5CHTO    O2 2074   6.661   2.531   3.202  0.1265 -0.2767  0.0414
    5CHTO    C1 2075   6.727   2.610   3.102 -0.9220 -0.5799 -0.5572
    5CHTO   H14 2076   6.667   2.702   3.088 -2.1304 -1.3543 -0.5698
    5CHTO    C2 2077   6.747   2.540   2.962 -0.3900  0.2175 -0.2713
    5CHTO   H15 2078   6.774   2.436   2.986  2.4438  0.7172 -1.1128
    5CHTO    O6 2079   6.626   2.526   2.878  0.2220 -0.4884 -0.1650
    5CHTO    H1 2080   6.576   2.451   2.905 -0.0039 -0.3808 -0.2849
    5CHTO    C3 2081   6.871   2.602   2.868 -0.0346  0.1168  0.2089
    5CHTO   H16 2082   6.827   2.691   2.820  0.4409  0.6178  0.6888
    5CHTO    N1 2083   6.911   2.497   2.769  0.6408 -0.6345 -0.6371
    5CHTO    H8 2084   6.835   2.441   2.716  1.6133 -2.2367 -0.3792
    5CHTO    H9 2085   6.964   2.422   2.826  0.5427  0.2532  0.6236
    5CHTO    C4 2086   6.988   2.653   2.956 -0.4101 -0.0221  0.0149
    5CHTO   H17 2087   7.051   2.571   2.988  1.3396  1.6760  1.0516
    5CHTO    O1 2088   6.938   2.725   3.071 -0.2495  0.4328 -0.3087
    5CHTO    C5 2089   6.868   2.645   3.165  0.1033 -0.0553  0.3743
    5CHTO   H18 2090   6.917   2.549   3.181 -0.1951 -0.4620 -1.0311
    5CHTO   C16 2091   6.852   2.713   3.302 -0.4366  0.6242  0.2890
    5CHTO   O11 2092   6.958   2.681   3.393 -0.5457 -0.1017  0.3652
    5CHTO    H5 2093   6.951   2.730   3.472 -1.0673  0.0617  0.2224
    5CHTO    O3 2094   7.065   2.752   2.891 -0.3015  0.3448 -0.6583
    5CHTO    C6 2095   7.211   2.769   2.906 -0.3375 -0.1099 -0.1237
    5CHTO   H19 2096   7.249   2.732   3.001 -1.2372 -0.2287  0.1934
    5CHTO    C8 2097   7.286   2.699   2.791 -0.3148  0.2149  0.3168
    5CHTO   H21 2098   7.254   2.737   2.694 -2.9723 -0.1936  1.0087
    5CHTO    O7 2099   7.268   2.557   2.794  0.3629  0.2146 -0.3728
    5CHTO    H2 2100   7.278   2.524   2.881  1.9719 -0.8878 -0.9520
    5CHTO   C12 2101   7.438   2.744   2.805 -0.0646 -0.4386 -0.0551
    5CHTO   H25 2102   7.475   2.705   2.902 -0.1437  1.0126  0.5668
    5CHTO    N3 2103   7.529   2.688   2.700 -0.0257  0.5348  0.0013
    5CHTO   H12 2104   7.535   2.580   2.708 -1.9059  0.4616  0.7805
    5CHTO   H13 2105   7.627   2.729   2.715  0.2788  0.1454 -0.9273
    5CHTO   C15 2106   7.447   2.905   2.822  0.5804  0.5332 -0.2839
    5CHTO   H28 2107   7.446   2.970   2.735 -0.6390  1.4606  0.3937
    5CHTO   O10 2108   7.582   2.932   2.904  0.2108  0.7477  0.0987
    5CHTO    H4 2109   7.637   2.931   2.828  2.1608 -0.2072  1.4682
    5CHTO    O5 2110   7.364   2.963   2.918 -0.1015  0.3423  0.1049
    5CHTO   C10 2111   7.231   2.928   2.906  0.3343  0.3484 -0.5188
    5CHTO   H23 2112   7.199   2.969   2.810  0.9475 -0.2095 -0.9672
    5CHTO   C17 2113   7.147   3.006   3.011 -0.3662  0.2868  0.2758
    5CHTO   O12 2114   7.006   2.997   2.981  0.3332  0.6284 -0.4110
    5CHTO    H6 2115   6.967   2.982   3.064  0.5640 -1.6094 -0.6746
    6CHTO  H203 2116   4.918   4.589   0.306  1.4273  0.9505  0.0287
    6CHTO   O82 2117   4.859   4.657   0.330 -0.1615 -0.4449  0.1520
    6CHTO  C123 2118   4.935   4.752   0.406 -0.1162 -0.3179 -0.3650
    6CHTO  H227 2119   4.987   4.818   0.334 -0.7315  0.2074 -0.3336
    6CHTO   O77 2120   4.826   4.827   0.472 -0.0404  0.4050  0.1240
    6CHTO  C118 2121   4.865   4.947   0.536  0.1413  0.4643 -0.3059
    6CHTO  H222 2122   4.907   5.018   0.463  3.0313 -2.1326 -1.2142
    6CHTO  C125 2123   4.736   5.020   0.601 -0.0937  0.0392 -0.6469
    6CHTO   O84 2124   4.658   5.077   0.495 -0.3441 -0.2995 -0.2908
    6CHTO  H205 2125   4.611   5.010   0.450 -1.7047 -0.6891  1.6448
    6CHTO  C114 2126   4.975   4.925   0.648  0.7235 -0.3754  0.9921
    6CHTO  H218 2127   4.931   4.862   0.726  0.2071 -0.2050  0.8378
    6CHTO  C116 2128   5.098   4.836   0.592  0.5926  0.7258  0.0223
    6CHTO  H220 2129   5.160   4.904   0.529 -0.5061  0.0318 -1.8344
    6CHTO   O79 2130   5.179   4.802   0.702  0.6446 -0.4744 -0.2872
    6CHTO  H201 2131   5.267   4.812   0.672  0.1469  0.3276 -1.5012
    6CHTO  C120 2132   5.042   4.706   0.513 -1.0441  0.3956 -0.7938
    6CHTO  H224 2133   4.993   4.646   0.593  3.2594 -0.9164  1.0211
    6CHTO   N21 2134   5.152   4.627   0.453 -0.1562  0.0343  0.1053
    6CHTO  H211 2135   5.121   4.524   0.445  1.3419 -0.3782 -0.4900
    6CHTO  H212 2136   5.176   4.655   0.351  0.0492  1.1973  0.4708
    6CHTO   O75 2137   5.003   5.058   0.693  0.2695  0.7456 -0.1641
    6CHTO  C112 2138   4.975   5.083   0.855 -0.6117  0.0614  0.3444
    6CHTO  H216 2139   4.955   4.985   0.901  0.8859 -0.5356 -0.2635
    6CHTO   O73 2140   4.857   5.170   0.861 -0.0023 -0.1088 -0.2410
    6CHTO  C113 2141   4.810   5.180   0.989  0.8041  0.2680  0.1428
    6CHTO  H217 2142   4.767   5.082   1.017  0.3011  0.6161  0.5930
    6CHTO  C124 2143   4.688   5.277   0.989 -0.2678  0.1572 -0.0126
    6CHTO   O83 2144   4.583   5.245   0.890  0.1824 -0.2471  0.3467
    6CHTO  H204 2145   4.502   5.292   0.895  1.0901  1.3690 -0.0319
    6CHTO  C109 2146   4.913   5.227   1.098  0.4434  0.7713 -0.6065
    6CHTO  H213 2147   4.925   5.335   1.080  0.4497  0.4912 -2.3266
    6CHTO  C110 2148   5.053   5.164   1.084  0.3674  0.2638 -0.2241
    6CHTO  H214 2149   5.049   5.064   1.127 -1.3521  0.3707 -0.1272
    6CHTO   O78 2150   5.156   5.223   1.164 -0.4066 -0.0054 -0.1997
    6CHTO  H200 2151   5.231   5.167   1.173  2.0066  2.8087 -1.8972
    6CHTO  C111 2152   5.092   5.147   0.934  0.0814 -0.0478  0.1931
    6CHTO  H215 2153   5.104   5.247   0.890  0.9908 -1.4330 -2.8350
    6CHTO   N19 2154   5.214   5.076   0.910  0.4549  0.4244  0.4306
    6CHTO  H207 2155   5.249   5.076   0.808 -3.3778 -1.8818 -0.9840
    6CHTO  H208 2156   5.289   5.096   0.986  1.2249 -2.3540  0.4545
    6CHTO   O74 2157   4.851   5.214   1.228  0.2687 -0.6172 -0.1522
    6CHTO  C115 2158   4.888   5.336   1.325  0.1704 -0.3870 -0.5063
    6CHTO  H219 2159   4.953   5.409   1.278 -0.3784  0.3422 -0.1612
    6CHTO   O76 2160   4.754   5.424   1.362 -0.1437 -0.0285 -0.1104
    6CHTO  C122 2161   4.647   5.349   1.415 -0.0725  0.1262 -0.3200
    6CHTO  H226 2162   4.598   5.297   1.333  1.2014 -0.3958 -0.7749
    6CHTO  C126 2163   4.539   5.455   1.476  0.6159  0.2791 -0.2728
    6CHTO   O85 2164   4.427   5.375   1.525  0.5439  0.1809  1.1501
    6CHTO  H206 2165   4.457   5.322   1.597 -0.4868 -1.0695  0.6714
    6CHTO  C121 2166   4.701   5.245   1.524 -0.1319 -0.0211 -0.2472
    6CHTO  H225 2167   4.633   5.240   1.611 -0.1625 -1.4938 -0.3377
    6CHTO   O81 2168   4.676   5.110   1.484 -0.3759  0.5691 -0.2973
    6CHTO  H202 2169   4.718   5.093   1.402  0.2329  1.1945 -0.1159
    6CHTO  C119 2170   4.848   5.285   1.577 -0.5272  1.0509  0.2177
    6CHTO  H223 2171   4.840   5.389   1.608 -2.1820  0.4249  1.9842
    6CHTO  C117 2172   4.955   5.284   1.457  0.1969  0.0684 -0.6071
    6CHTO  H221 2173   4.994   5.184   1.435  0.6057  0.1236 -0.1677
    6CHTO   N20 2174   5.081   5.354   1.489  0.2544 -0.7148 -0.7814
    6CHTO  H209 2175   5.146   5.359   1.403 -2.9848  3.2029 -3.1724
    6CHTO  H210 2176   5.056   5.454   1.523 -1.3426 -1.4573  0.2698
    6CHTO   O80 2177   4.897   5.217   1.714  0.1444  0.2620 -0.1462
    6CHTO  C103 2178   4.820   5.246   1.847  0.0496 -0.4679 -0.7242
    6CHTO  H190 2179   4.888   5.249   1.932 -0.7332  0.5626 -0.1230
    6CHTO  C101 2180   4.735   5.378   1.848 -0.5321  0.5560  0.0223
    6CHTO  H188 2181   4.679   5.378   1.754  0.1498 -0.5772 -0.3967
    6CHTO   O68 2182   4.824   5.514   1.854  0.2515 -0.5768  0.2098
    6CHTO  H168 2183   4.857   5.532   1.768 -0.0770  1.2065  0.4224
    6CHTO   C99 2184   4.630   5.379   1.975 -0.0197  0.5720  0.1244
    6CHTO  H186 2185   4.684   5.378   2.073 -0.2311 -0.7817  0.2256
    6CHTO   N17 2186   4.539   5.493   1.972 -0.2987  0.2402 -0.3166
    6CHTO  H174 2187   4.562   5.550   1.883 -0.6860  1.5096  0.3862
    6CHTO  H175 2188   4.564   5.550   2.060  0.4919 -1.4495  0.5851
    6CHTO   C97 2189   4.551   5.245   1.972 -0.5687 -0.1688 -0.1293
    6CHTO  H184 2190   4.489   5.238   1.881 -1.7330 -2.9929  0.7999
    6CHTO   O64 2191   4.646   5.135   1.976  0.5042 -0.1174 -0.5019
    6CHTO  C104 2192   4.732   5.113   1.863 -0.7130  0.4730 -0.2764
    6CHTO  H191 2193   4.675   5.086   1.774 -0.5106 -2.1343  0.3415
    6CHTO  C108 2194   4.834   4.998   1.893 -0.2583 -0.0303  0.4943
    6CHTO   O71 2195   4.771   4.895   1.964  0.2939 -0.0652  0.5003
    6CHTO  H171 2196   4.812   4.813   1.942 -0.7953  0.0470 -2.0733
    6CHTO   O62 2197   4.458   5.222   2.083  0.1688 -0.1004 -0.0818
    6CHTO   C91 2198   4.339   5.140   2.067 -0.7120  0.3086  0.1384
    6CHTO  H178 2199   4.286   5.131   2.162 -0.8787  2.5497  0.2876
    6CHTO   C92 2200   4.382   4.987   2.029  0.4427  0.0677 -0.7268
    6CHTO  H179 2201   4.440   4.976   1.937 -0.6923  2.1557 -1.7160
    6CHTO   O66 2202   4.465   4.938   2.135  0.0638 -0.1778 -0.4951
    6CHTO  H166 2203   4.511   5.006   2.180  0.6157 -1.6913  1.2664
    6CHTO   C93 2204   4.245   4.909   2.016 -0.7647  0.3876 -0.8641
    6CHTO  H180 2205   4.191   4.926   2.110  1.2104 -0.0584  0.3793
    6CHTO   N16 2206   4.256   4.759   1.999 -0.0506 -0.3113 -0.3568
    6CHTO  H172 2207   4.159   4.712   2.010 -0.7794  1.5277  1.3661
    6CHTO  H173 2208   4.292   4.747   1.898 -2.0892  0.7569 -1.2347
    6CHTO   C94 2209   4.166   4.975   1.898 -0.0551  0.1422 -0.4250
    6CHTO  H181 2210   4.228   4.983   1.808  2.1204  1.6791  1.1516
    6CHTO   O61 2211   4.123   5.110   1.934  0.2596  0.0938 -0.2536
    6CHTO   C95 2212   4.234   5.199   1.959  0.0930  0.7509  0.5015
    6CHTO  H182 2213   4.290   5.203   1.865  0.4604 -1.7025  0.5615
    6CHTO  C106 2214   4.175   5.342   1.999 -0.1284  0.0551 -0.2152
    6CHTO   O69 2215   4.140   5.414   1.878 -0.1990 -0.5630 -0.0378
    6CHTO  H169 2216   4.167   5.504   1.882  0.9294 -0.7680 -2.3555
    6CHTO   O63 2217   4.032   4.891   1.858  0.6284 -0.3011  0.3342
    6CHTO   C96 2218   4.004   4.901   1.711  0.0845 -0.5143 -0.0536
    6CHTO  H183 2219   4.102   4.878   1.668  0.2936  0.2910 -0.0051
    6CHTO   C98 2220   3.927   5.026   1.656  0.0729 -0.6722 -0.0223
    6CHTO  H185 2221   3.832   5.038   1.711  0.4529 -0.4355  0.5895
    6CHTO   O67 2222   3.997   5.148   1.684 -0.4427  0.3584 -0.0774
    6CHTO  H167 2223   3.981   5.209   1.615  1.1115  1.6874  0.7060
    6CHTO  C102 2224   3.894   5.000   1.500 -0.2444  0.0476 -0.2227
    6CHTO  H189 2225   3.986   5.026   1.447  0.1936 -0.4671  0.2743
    6CHTO   N18 2226   3.793   5.091   1.447 -0.1228  0.7964 -0.1000
    6CHTO  H176 2227   3.710   5.104   1.515  2.4718  0.8162  3.2080
    6CHTO  H177 2228   3.745   5.051   1.359 -0.5138 -0.4340  0.6573
    6CHTO  C105 2229   3.873   4.850   1.459 -0.3984  0.1534  0.4375
    6CHTO  H192 2230   3.794   4.841   1.385 -1.3268  1.6076  1.2428
    6CHTO   O65 2231   3.836   4.773   1.572  0.6522  0.4090 -0.6563
    6CHTO  C100 2232   3.920   4.772   1.686 -0.4723  0.4788 -0.4889
    6CHTO  H187 2233   3.846   4.751   1.765  1.3247  0.0678  1.1123
    6CHTO  C107 2234   4.017   4.653   1.682  0.0393  0.0552 -0.8146
    6CHTO   O70 2235   3.932   4.531   1.678 -0.0857 -0.2573  0.3165
    6CHTO  H170 2236   3.869   4.519   1.610 -0.1180 -1.9153  0.6361
    6CHTO   O57 2237   4.028   4.797   1.396  0.1855  0.0755 -0.0018
    6CHTO   C85 2238   4.052   4.759   1.262  0.1036  0.1997 -0.0322
    6CHTO  H157 2239   3.952   4.757   1.213  0.6381 -0.0189 -1.1316
    6CHTO   C83 2240   4.095   4.612   1.247 -0.5551 -0.1286 -0.0316
    6CHTO  H155 2241   4.017   4.551   1.292  0.7595 -2.0475 -0.2652
    6CHTO   O56 2242   4.205   4.586   1.330 -0.3278 -0.0666  0.1938
    6CHTO  H135 2243   4.193   4.613   1.419 -1.0644  1.6333 -0.4033
    6CHTO   C81 2244   4.107   4.576   1.099 -0.1042 -0.2625 -0.2570
    6CHTO  H153 2245   4.012   4.597   1.048  0.0070  2.8193  0.7325
    6CHTO   N14 2246   4.114   4.431   1.067  0.6668 -0.0713  0.2695
    6CHTO  H141 2247   4.121   4.366   1.152 -1.6230 -2.1407 -1.0624
    6CHTO  H142 2248   4.191   4.411   0.995  0.3817  0.6464 -0.2373
    6CHTO   C79 2249   4.224   4.662   1.031  0.2442  0.6529  0.2140
    6CHTO  H151 2250   4.217   4.646   0.923 -0.8207 -0.2621  0.4057
    6CHTO   O52 2251   4.198   4.806   1.049 -0.5301  0.2025 -0.4310
    6CHTO   C86 2252   4.160   4.852   1.182  0.6313 -0.2300  0.6012
    6CHTO  H158 2253   4.255   4.864   1.237 -0.7705  1.4105  2.7454
    6CHTO   C90 2254   4.106   4.997   1.171  0.4869  0.2536  0.2668
    6CHTO   O60 2255   3.989   5.004   1.082  0.0056  0.1132 -0.3133
    6CHTO  H138 2256   3.987   5.092   1.048  1.3562  0.7542  1.1674
    6CHTO   O50 2257   4.352   4.627   1.085  0.3209 -0.0841 -0.1666
    6CHTO   C73 2258   4.484   4.601   1.030  0.3861  0.6488 -0.2839
    6CHTO  H145 2259   4.493   4.638   0.927  1.8957 -0.1577 -0.4638
    6CHTO   C74 2260   4.515   4.448   1.047 -0.0136 -0.4588  0.9007
    6CHTO  H146 2261   4.432   4.395   0.998 -0.3907  0.1810  0.8427
    6CHTO   O54 2262   4.634   4.418   0.969  0.2705  0.0821  0.0528
    6CHTO  H133 2263   4.621   4.334   0.928 -1.3416  1.6543 -2.8375
    6CHTO   C75 2264   4.526   4.416   1.197 -0.5080 -0.0747  0.1200
    6CHTO  H147 2265   4.434   4.448   1.248 -1.6948 -2.7904 -0.2435
    6CHTO   N13 2266   4.545   4.272   1.229  0.3754  0.4964 -0.0086
    6CHTO  H139 2267   4.589   4.220   1.146 -1.3304 -0.2633 -0.4652
    6CHTO  H140 2268   4.450   4.230   1.259  0.7294 -0.9844 -0.9309
    6CHTO   C76 2269   4.643   4.503   1.263  0.3598  0.1733  0.0461
    6CHTO  H148 2270   4.735   4.482   1.210 -0.9095 -0.7207 -1.8670
    6CHTO   O49 2271   4.598   4.644   1.253 -0.1101  0.4624 -0.0131
    6CHTO   C77 2272   4.589   4.679   1.115  0.4532 -0.5535  0.2281
    6CHTO  H149 2273   4.687   4.658   1.073  0.7513  1.7521 -0.2962
    6CHTO   C88 2274   4.560   4.831   1.120  0.5258 -0.0678 -0.1203
    6CHTO   O58 2275   4.531   4.889   1.004  0.2652  0.4352 -0.6203
    6CHTO  H136 2276   4.510   4.980   1.012  1.2623  0.3678  3.7608
    6CHTO   O51 2277   4.673   4.466   1.422 -0.2120 -0.0595 -0.3353
    6CHTO   C78 2278   4.808   4.546   1.492  0.5538 -0.7184  0.0053
    6CHTO  H150 2279   4.812   4.533   1.602 -2.0600 -1.2410  0.0796
    6CHTO   C80 2280   4.818   4.696   1.465  0.1022 -0.5792  0.1058
    6CHTO  H152 2281   4.834   4.708   1.356  0.0922 -0.1594  0.1486
    6CHTO   O55 2282   4.697   4.753   1.505 -0.2727 -0.1222  0.2129
    6CHTO  H134 2283   4.692   4.833   1.455  1.2798  0.1203  0.4106
    6CHTO   C84 2284   4.947   4.753   1.536  0.5396 -0.1437  0.2195
    6CHTO  H156 2285   4.944   4.727   1.642 -0.5661 -3.6261 -0.5832
    6CHTO   N15 2286   4.968   4.896   1.515 -0.7206  0.2190  0.0175
    6CHTO  H143 2287   4.903   4.938   1.441 -0.5652  0.1585 -0.1540
    6CHTO  H144 2288   5.070   4.917   1.490  0.0595  0.0069  2.8547
    6CHTO   C87 2289   5.066   4.668   1.484 -0.1087  0.3323 -0.2288
    6CHTO  H159 2290   5.078   4.682   1.377 -2.8585  0.0987 -0.5981
    6CHTO   O53 2291   5.046   4.532   1.503 -0.5133 -0.3169  0.0273
    6CHTO   C82 2292   4.932   4.479   1.436 -0.3681 -0.2280 -1.0095
    6CHTO  H154 2293   4.941   4.489   1.328  0.7618  1.1615 -0.7936
    6CHTO   C89 2294   4.919   4.328   1.468 -0.1489  0.7894 -0.0651
    6CHTO   O59 2295   5.035   4.261   1.407  0.2565  0.1580 -0.0640
    6CHTO  H137 2296   5.082   4.210   1.471 -2.0112  0.0489  1.5819
    6CHTO   O45 2297   5.206   4.697   1.568 -0.3136  0.0096 -0.5846
    6CHTO   C67 2298   5.326   4.722   1.497  1.4024 -0.4755  0.6255
    6CHTO  H124 2299   5.323   4.667   1.403 -0.8043  0.1108  0.3407
    6CHTO   C65 2300   5.350   4.869   1.465  0.3589  0.1876  0.4844
    6CHTO  H122 2301   5.257   4.895   1.415  0.5163 -0.1579  0.0074
    6CHTO   O44 2302   5.456   4.883   1.375 -0.2140 -0.1800 -0.7164
    6CHTO  H102 2303   5.450   4.960   1.321 -1.6995 -0.9671 -1.7021
    6CHTO   C63 2304   5.365   4.955   1.599 -0.3496 -0.3850 -0.0936
    6CHTO  H120 2305   5.271   4.944   1.653 -0.8556 -0.2098 -0.9270
    6CHTO   N11 2306   5.373   5.105   1.580 -0.5334  0.0202 -0.4010
    6CHTO  H108 2307   5.294   5.140   1.518  1.4386  2.5394 -1.5799
    6CHTO  H109 2308   5.463   5.123   1.525  0.1654 -1.8249  0.1100
    6CHTO   C61 2309   5.477   4.883   1.690  0.1881 -0.4338 -0.7326
    6CHTO  H118 2310   5.465   4.928   1.790 -0.0825 -0.6793 -0.6519
    6CHTO   O40 2311   5.465   4.739   1.705  0.5420  0.2100  0.3411
    6CHTO   C68 2312   5.442   4.660   1.586 -0.5858  0.0047 -0.5398
    6CHTO  H125 2313   5.412   4.559   1.622  1.5613  0.6028  3.2153
    6CHTO   C72 2314   5.570   4.638   1.495 -0.6723  0.3017 -0.4324
    6CHTO   O48 2315   5.645   4.531   1.542 -0.6926  0.2128 -0.1989
    6CHTO  H105 2316   5.616   4.453   1.499  0.7253 -0.2346 -0.3567
    6CHTO   O38 2317   5.607   4.904   1.629  0.1640  0.1107 -0.4558
    6CHTO   C55 2318   5.691   5.000   1.688 -0.4473  0.5094 -0.5399
    6CHTO  H112 2319   5.646   5.077   1.752 -1.7709 -0.5862 -0.1293
    6CHTO   C56 2320   5.772   5.056   1.557 -0.7050  0.0438 -0.3508
    6CHTO  H113 2321   5.824   4.972   1.508 -0.1162  0.8202 -1.0926
    6CHTO   O42 2322   5.677   5.113   1.461  0.6630  0.1722 -0.3480
    6CHTO  H100 2323   5.632   5.189   1.491  1.2508  0.3203  0.1588
    6CHTO   C57 2324   5.881   5.166   1.599  0.5345  0.2660 -0.2998
    6CHTO  H114 2325   5.822   5.242   1.649 -0.5804 -0.9391  0.2278
    6CHTO   N10 2326   5.957   5.223   1.488  0.1523  0.7102  0.4965
    6CHTO  H106 2327   6.061   5.251   1.493  0.5685 -1.0094  1.7023
    6CHTO  H107 2328   5.945   5.156   1.405  1.0750 -1.1030  1.7863
    6CHTO   C58 2329   5.969   5.101   1.706 -0.2246  0.0500  0.1768
    6CHTO  H115 2330   6.037   5.028   1.658  1.4715  0.1207  2.3864
    6CHTO   O37 2331   5.900   5.039   1.816 -0.1247 -0.1725 -0.4636
    6CHTO   C59 2332   5.800   4.943   1.789 -0.1752 -0.4432  0.3087
    6CHTO  H116 2333   5.852   4.862   1.738 -0.3269  0.0727 -0.6746
    6CHTO   C70 2334   5.733   4.893   1.916 -0.3029 -0.2179  0.5173
    6CHTO   O46 2335   5.837   4.857   2.007  0.5276 -0.2764  0.0235
    6CHTO  H103 2336   5.804   4.801   2.074 -0.4337 -0.5565 -0.6675
    6CHTO   O39 2337   6.053   5.221   1.762 -0.6920 -0.4830  0.1191
    6CHTO   C60 2338   6.182   5.183   1.821 -0.1612  0.0474 -0.5210
    6CHTO  H117 2339   6.172   5.087   1.871 -3.3647  1.0937  0.9435
    6CHTO   C62 2340   6.292   5.173   1.714 -0.3039 -0.5512  0.7247
    6CHTO  H119 2341   6.264   5.091   1.644  0.9184  1.0982 -1.7688
    6CHTO   O43 2342   6.305   5.289   1.635  0.4718 -0.3095 -0.1357
    6CHTO  H101 2343   6.339   5.268   1.550 -0.3560 -0.1245 -0.5223
    6CHTO   C66 2344   6.431   5.143   1.789 -0.1817  0.6879  0.0485
    6CHTO  H123 2345   6.426   5.049   1.844  1.0876  0.7573  0.2973
    6CHTO   N12 2346   6.537   5.111   1.682  0.0402  0.1045 -0.6315
    6CHTO  H110 2347   6.498   5.150   1.589 -0.2542  0.5113 -0.3422
    6CHTO  H111 2348   6.559   5.006   1.671 -1.3998 -0.4285  1.1182
    6CHTO   C69 2349   6.475   5.257   1.881  0.6562  0.2495 -0.3885
    6CHTO  H126 2350   6.489   5.357   1.836  0.3951  0.7213  0.5524
    6CHTO   O41 2351   6.366   5.267   1.985 -0.3562  0.1706 -0.4991
    6CHTO   C64 2352   6.223   5.285   1.927 -0.1463  0.1445 -0.0637
    6CHTO  H121 2353   6.219   5.386   1.883  0.7519  0.2451  0.0724
    6CHTO   C71 2354   6.123   5.286   2.044 -0.2619 -0.1315  0.1952
    6CHTO   O47 2355   6.172   5.381   2.139  0.1143  0.0938 -0.5190
    6CHTO  H104 2356   6.120   5.375   2.216  0.7772 -3.4148 -0.2694
    6CHTO   O34 2357   6.616   5.223   1.949  0.2949 -0.1115 -0.1098
    6CHTO   C49 2358   6.731   5.163   2.034  0.0032  0.6212 -0.2418
    6CHTO   H91 2359   6.747   5.059   2.009 -2.1442  0.5549 -1.4605
    6CHTO   C47 2360   6.699   5.189   2.182 -0.0773  0.2661  1.0756
    6CHTO   H89 2361   6.770   5.124   2.238  1.6286 -0.2680 -1.5704
    6CHTO   O33 2362   6.564   5.135   2.197  0.1580 -0.4847  0.1286
    6CHTO   H70 2363   6.549   5.115   2.287  1.5971 -1.3033  0.2052
    6CHTO   C45 2364   6.713   5.348   2.215  0.0340 -0.3170 -0.1367
    6CHTO   H87 2365   6.646   5.407   2.151  0.0459 -1.6986 -1.4587
    6CHTO    N8 2366   6.677   5.364   2.358  0.5366  0.0781 -0.5014
    6CHTO   H75 2367   6.591   5.429   2.369 -1.3422 -1.9647 -2.8778
    6CHTO   H76 2368   6.662   5.265   2.398  0.7395  0.3709  0.3183
    6CHTO   C43 2369   6.852   5.406   2.169 -0.1879 -1.0852  0.7021
    6CHTO   H85 2370   6.854   5.514   2.185 -0.1948  0.0171 -5.4233
    6CHTO   O29 2371   6.858   5.368   2.030 -0.5564 -0.5623 -0.7700
    6CHTO   C50 2372   6.868   5.231   1.996 -0.0801 -0.5169  0.3210
    6CHTO   H92 2373   6.875   5.214   1.888 -1.2681 -0.6961  0.2678
    6CHTO   C54 2374   6.994   5.160   2.046  0.0453 -0.3000  0.6107
    6CHTO   O36 2375   7.118   5.201   1.981 -0.7602  0.5346  0.0101
    6CHTO   H72 2376   7.121   5.294   1.970  0.9196  0.5175  0.1721
    6CHTO   O27 2377   6.962   5.362   2.249  0.0184 -0.1750 -0.0878
    6CHTO   C37 2378   7.090   5.404   2.301  0.0907 -0.6079  0.1258
    6CHTO   H79 2379   7.171   5.335   2.272  0.5763 -1.7725  3.9784
    6CHTO   C38 2380   7.136   5.540   2.237  0.0172 -0.0587 -0.1836
    6CHTO   H80 2381   7.057   5.615   2.256 -0.0415  0.0323 -0.7641
    6CHTO   O31 2382   7.153   5.519   2.094  0.5816 -0.2100  0.8405
    6CHTO   H68 2383   7.116   5.442   2.056  1.5498  0.2158 -1.0343
    6CHTO   C39 2384   7.266   5.585   2.307 -0.2547 -0.4086 -0.1890
    6CHTO   H81 2385   7.337   5.508   2.279 -1.0991 -0.8592 -1.1128
    6CHTO    N7 2386   7.314   5.720   2.264 -0.4334  0.1443  0.2051
    6CHTO   H73 2387   7.312   5.734   2.157 -4.0591 -2.1928 -0.1249
    6CHTO   H74 2388   7.409   5.746   2.308  0.9301 -1.3260 -1.7608
    6CHTO   C40 2389   7.249   5.582   2.469  0.5699 -0.5007  0.4094
    6CHTO   H82 2390   7.172   5.653   2.500 -0.7621 -2.3119  1.3250
    6CHTO   O26 2391   7.219   5.449   2.511 -0.0308  0.0119 -0.2095
    6CHTO   C41 2392   7.085   5.408   2.458  0.2610  0.4880 -0.6861
    6CHTO   H83 2393   7.003   5.476   2.487  1.9498  1.9659  0.7651
    6CHTO   C52 2394   7.048   5.268   2.509 -0.2917 -1.2808  0.4419
    6CHTO   O35 2395   7.157   5.156   2.467 -0.4189 -0.3844 -0.2410
    6CHTO   H71 2396   7.198   5.170   2.384 -0.5900 -2.4883 -0.7035
    6CHTO   O28 2397   7.367   5.625   2.541  0.0368  0.2820  0.3466
    6CHTO   C42 2398   7.354   5.689   2.674 -0.3050 -0.4111 -0.6184
    6CHTO   H84 2399   7.458   5.712   2.700 -0.8519  0.6112  0.7591
    6CHTO   C44 2400   7.300   5.592   2.790  0.3520 -0.1276 -0.1629
    6CHTO   H86 2401   7.199   5.563   2.763 -0.7752  2.6773  0.8753
    6CHTO   O32 2402   7.383   5.485   2.794 -0.5864  0.5824  0.0359
    6CHTO   H69 2403   7.338   5.415   2.836 -1.9195  0.7972 -1.0206
    6CHTO   C48 2404   7.300   5.682   2.926 -0.4044  0.3191 -0.0595
    6CHTO   H90 2405   7.404   5.707   2.948 -0.0502 -1.0255 -0.1518
    6CHTO    N9 2406   7.257   5.595   3.043  0.2205  0.0677  0.4115
    6CHTO   H77 2407   7.348   5.562   3.090  0.5502 -1.0928 -1.0147
    6CHTO   H78 2408   7.178   5.626   3.110 -0.1364 -1.8703  0.9231
    6CHTO   C51 2409   7.219   5.810   2.911  0.5153 -0.6936 -0.0577
    6CHTO   H93 2410   7.118   5.778   2.885 -1.0675  2.2153  2.2416
    6CHTO   O30 2411   7.276   5.889   2.802  0.3010  0.3040 -0.4230
    6CHTO   C46 2412   7.283   5.827   2.668  0.1458  0.0192 -0.3524
    6CHTO   H88 2413   7.182   5.805   2.634  0.4406 -1.0564 -0.5269
    6CHTO   C53 2414   7.358   5.926   2.576  0.0389 -0.2519 -1.0608
    6CHTO   O72 2415   7.492   5.947   2.632 -0.3677  0.8113 -0.0634
    6CHTO  H199 2416   7.486   5.999   2.711  2.3892 -0.0164  0.7452
    6CHTO   O22 2417   7.228   5.895   3.023  0.1337  0.0913 -0.2926
    6CHTO   C31 2418   7.107   5.921   3.104 -0.2229  0.5849 -0.0069
    6CHTO   H59 2419   7.040   5.833   3.095 -1.0343  1.1223  0.7590
    6CHTO   C29 2420   7.144   5.940   3.253 -0.1394 -0.5476 -0.3267
    6CHTO   H57 2421   7.215   6.022   3.273 -2.3907  1.3589  0.1536
    6CHTO   O21 2422   7.215   5.830   3.293 -0.2289  0.2271 -0.1799
    6CHTO   H37 2423   7.268   5.852   3.368  0.0537 -0.5692 -0.1366
    6CHTO   C27 2424   7.020   5.967   3.346  0.2114  0.8092 -0.0870
    6CHTO   H55 2425   6.957   5.877   3.353 -1.5347  2.0010 -0.2400
    6CHTO    N5 2426   7.054   6.018   3.479 -0.2025  0.2211 -0.0725
    6CHTO   H43 2427   7.121   5.951   3.531  0.4228  2.8932  2.7542
    6CHTO   H44 2428   6.965   6.032   3.539 -1.1797  0.3598 -1.5299
    6CHTO   C25 2429   6.926   6.069   3.277 -0.0976  0.5565  0.3040
    6CHTO   H53 2430   6.969   6.170   3.262 -1.6308  1.0367 -1.1225
    6CHTO   O17 2431   6.905   6.035   3.135 -0.5304  0.0382 -0.4124
    6CHTO   C32 2432   7.025   6.046   3.054  0.3703 -0.7172  0.3503
    6CHTO   H60 2433   7.084   6.135   3.075  0.6406 -0.3223 -2.0026
    6CHTO   C36 2434   6.997   6.043   2.896 -0.0012  0.0340 -0.6397
    6CHTO   O25 2435   7.109   6.099   2.826 -0.2520  0.3017 -0.2497
    6CHTO   H40 2436   7.154   6.026   2.788  0.4270  0.6014 -0.0314
    6CHTO   O15 2437   6.802   6.061   3.328  0.0967  0.0104 -0.4542
    6CHTO   C19 2438   6.689   6.151   3.348  0.4386  0.1349  0.0246
    6CHTO   H47 2439   6.630   6.087   3.415  0.6719  0.0862  0.1846
    6CHTO   C20 2440   6.722   6.280   3.414  0.3071 -0.3267  0.5914
    6CHTO   H48 2441   6.798   6.339   3.361 -1.1498  0.0623 -1.1295
    6CHTO   O19 2442   6.787   6.244   3.540 -0.2775  0.7977 -0.0192
    6CHTO   H35 2443   6.879   6.230   3.529 -0.5135 -2.2006  1.4700
    6CHTO   C21 2444   6.591   6.360   3.449 -0.2372 -0.1179 -0.2527
    6CHTO   H49 2445   6.537   6.301   3.524  0.0392  0.3792  0.3458
    6CHTO    N4 2446   6.612   6.494   3.509 -0.5092  0.3122  0.1254
    6CHTO   H41 2447   6.686   6.550   3.453 -2.4324  1.1117 -1.6928
    6CHTO   H42 2448   6.515   6.542   3.503  0.4469  2.2204 -0.6061
    6CHTO   C22 2449   6.500   6.365   3.322  0.5648  0.4364  0.6999
    6CHTO   H50 2450   6.535   6.440   3.251 -1.2989  0.7512  0.0837
    6CHTO   O14 2451   6.486   6.245   3.250 -0.5241  0.0638  0.2997
    6CHTO   C23 2452   6.607   6.174   3.222  0.6252  0.1515 -0.9039
    6CHTO   H51 2453   6.669   6.234   3.155  2.3551  1.4748  1.7812
    6CHTO   C34 2454   6.557   6.046   3.158  0.7609  0.4423 -0.2463
    6CHTO   O23 2455   6.507   6.077   3.022  0.2484 -0.1777 -0.7569
    6CHTO   H38 2456   6.445   6.147   3.027  2.1814  1.4211  1.5871
    6CHTO   O16 2457   6.361   6.397   3.352  0.5463 -0.8807 -0.1702
    6CHTO   C24 2458   6.254   6.417   3.231  0.0495 -0.3024 -0.4706
    6CHTO   H52 2459   6.293   6.381   3.136  0.7629 -2.0674  0.4644
    6CHTO   C26 2460   6.219   6.563   3.211  0.2985  0.2378  0.3330
    6CHTO   H54 2461   6.178   6.604   3.306 -2.4470  0.7209 -1.0127
    6CHTO   O20 2462   6.343   6.629   3.205  0.0465  0.4066 -0.4789
    6CHTO   H36 2463   6.368   6.651   3.117 -1.0155  1.2921 -0.5643
    6CHTO   C30 2464   6.131   6.581   3.088 -0.7307 -0.6275 -0.0669
    6CHTO   H58 2465   6.174   6.543   2.994 -1.6373  1.5722 -1.4136
    6CHTO    N6 2466   6.101   6.725   3.058 -0.2880 -0.2896  1.0366
    6CHTO   H45 2467   6.197   6.768   3.035 -0.8897  1.3819  1.6136
    6CHTO   H46 2468   6.041   6.735   2.969  0.0323  1.6568  1.0316
    6CHTO   C33 2469   6.003   6.494   3.106 -0.1853 -0.0165 -0.1966
    6CHTO   H61 2470   5.943   6.539   3.187 -1.8816 -0.6626 -1.0738
    6CHTO   O18 2471   6.038   6.360   3.148  0.1370  0.2715 -0.0233
    6CHTO   C28 2472   6.121   6.336   3.258 -0.0253  0.2591 -0.3246
    6CHTO   H56 2473   6.070   6.379   3.345 -0.8115  0.2721 -0.7904
    6CHTO   C35 2474   6.136   6.181   3.272  0.2627 -0.6351  0.1340
    6CHTO   O24 2475   6.224   6.141   3.368  0.7934  0.2721 -0.3747
    6CHTO   H39 2476   6.192   6.158   3.454  2.2664  0.1537  0.2009
    6CHTO    O9 2477   5.914   6.490   2.987 -0.0931  0.3103  0.3659
    6CHTO   C13 2478   5.766   6.553   3.002 -0.2424 -0.0454 -0.1171
    6CHTO   H26 2479   5.781   6.658   3.032  3.8452  0.1553 -2.6223
    6CHTO   C11 2480   5.662   6.475   3.100 -0.0265  0.6101  0.3565
    6CHTO   H24 2481   5.695   6.486   3.205  1.2783  1.3040 -0.1301
    6CHTO    O8 2482   5.672   6.332   3.068 -0.9912 -0.2074  0.3654
    6CHTO    H3 2483   5.760   6.299   3.074 -1.0064 -0.2192  0.5414
    6CHTO    C9 2484   5.521   6.541   3.087 -0.1219 -0.1298 -0.5007
    6CHTO   H22 2485   5.516   6.626   3.156 -0.2385 -0.2778 -0.3248
    6CHTO    N2 2486   5.413   6.462   3.150 -0.5911  0.2743  0.5836
    6CHTO   H10 2487   5.375   6.495   3.246  0.8536 -0.1856  1.3339
    6CHTO   H11 2488   5.444   6.358   3.153 -2.0952 -0.1853  1.0723
    6CHTO    C7 2489   5.483   6.601   2.947  0.1635 -0.3139  0.2535
    6CHTO   H20 2490   5.507   6.709   2.959  0.2206 -0.1999 -0.8382
    6CHTO    O4 2491   5.565   6.542   2.851  0.5680 -0.2680 -0.0931
    6CHTO   C14 2492   5.702   6.573   2.854 -0.0984  0.1781  0.6838
    6CHTO   H27 2493   5.724   6.678   2.826 -0.5167 -0.2158 -1.2074
    6CHTO   C18 2494   5.771   6.482   2.746 -0.0626  0.4519  0.5153
    6CHTO   O13 2495   5.776   6.338   2.767  0.3507 -0.0973  0.0264
    6CHTO    H7 2496   5.861   6.313   2.735  0.9582  1.2313  0.5721
    6CHTO    O2 2497   5.318   6.601   2.898  0.0719  0.9338  0.1868
    6CHTO    C1 2498   5.243   6.721   2.891 -0.0639 -0.7344  0.4283
    6CHTO   H14 2499   5.311   6.808   2.899  0.7646 -1.4146  0.8823
    6CHTO    C2 2500   5.132   6.736   3.000 -0.0157  0.4897  0.1824
    6CHTO   H15 2501   5.067   6.647   2.996  0.5834 -0.0637  2.1838
    6CHTO    O6 2502   5.189   6.734   3.135 -0.4332 -0.2438 -0.4178
    6CHTO    H1 2503   5.269   6.783   3.144  0.8603 -1.9825 -1.8986
    6CHTO    C3 2504   5.046   6.868   2.979 -0.8674 -0.0544  0.4503
    6CHTO   H16 2505   5.117   6.953   2.981 -0.3841 -0.4490  0.2002
    6CHTO    N1 2506   4.938   6.889   3.080  0.3495 -0.1040  0.1821
    6CHTO    H8 2507   4.868   6.809   3.062  0.8449 -0.4946 -0.0217
    6CHTO    H9 2508   4.957   6.910   3.184  1.9429  0.0855 -0.1395
    6CHTO    C4 2509   4.995   6.867   2.828  0.0382 -0.5040 -0.4916
    6CHTO   H17 2510   4.926   6.784   2.812 -0.1987 -0.3208 -0.4144
    6CHTO    O1 2511   5.114   6.855   2.743 -0.5895 -0.2204  0.0838
    6CHTO    C5 2512   5.176   6.728   2.750  1.2949  0.1595 -0.2857
    6CHTO   H18 2513   5.094   6.657   2.747  0.7159  0.8587 -1.2559
    6CHTO   C16 2514   5.259   6.709   2.618 -0.3858 -0.1394  0.0666
    6CHTO   O11 2515   5.160   6.678   2.516 -0.1589  0.5138  0.0214
    6CHTO    H5 2516   5.121   6.594   2.529 -0.1377  0.5510  0.3266
    6CHTO    O3 2517   4.936   6.989   2.794 -0.3653  0.4086  0.0575
    6CHTO    C6 2518   4.823   6.993   2.693 -0.8297  0.1970  0.7352
    6CHTO   H19 2519   4.810   7.094   2.653  2.8013  0.3213 -0.2598
    6CHTO    C8 2520   4.860   6.917   2.563  0.1495 -0.0567  0.1650
    6CHTO   H21 2521   4.871   6.812   2.592  0.8140 -0.3199 -1.0251
    6CHTO    O7 2522   4.986   6.958   2.517 -0.3017 -0.2083 -0.1678
    6CHTO    H2 2523   5.048   6.915   2.573 -0.4126  0.5268  0.5334
    6CHTO   C12 2524   4.740   6.933   2.457  0.6343  0.2406 -0.1700
    6CHTO   H25 2525   4.741   7.042   2.440  0.3161  0.0438 -1.5171
    6CHTO    N3 2526   4.770   6.867   2.320 -0.3105  0.5609 -0.5559
    6CHTO   H12 2527   4.689   6.802   2.291  0.1839 -0.1332 -0.3856
    6CHTO   H13 2528   4.864   6.818   2.304  0.1732  1.6999 -1.2482
    6CHTO   C15 2529   4.606   6.893   2.525  0.2481  0.3808  0.9887
    6CHTO   H28 2530   4.599   6.785   2.533 -1.1848  0.3384 -0.4983
    6CHTO   O10 2531   4.500   6.950   2.443  0.1125  0.5630  0.5190
    6CHTO    H4 2532   4.465   6.886   2.384  0.0650 -0.0922  1.2660
    6CHTO    O5 2533   4.583   6.957   2.650 -0.6286  0.2774  0.0514
    6CHTO   C10 2534   4.686   6.948   2.751  0.4891  0.3497  0.2237
    6CHTO   H23 2535   4.682   6.844   2.781  1.4236  0.5127  0.9398
    6CHTO   C17 2536   4.650   7.024   2.884  0.0845  0.0668 -0.4853
    6CHTO   O12 2537   4.549   6.954   2.957  0.4227  0.1986  0.4897
    6CHTO    H6 2538   4.573   6.943   3.047  0.4108  0.3689  0.5125
    7CHTO  H203 2539   4.989   1.668   0.202  0.3647 -1.6443  0.8154
    7CHTO   O82 2540   4.954   1.728   0.265  0.7474 -0.2467 -0.2446
    7CHTO  C123 2541   5.007   1.856   0.228 -0.3339  0.2087 -0.1708
    7CHTO  H227 2542   4.930   1.933   0.247  0.3988  0.4528  1.8666
    7CHTO   O77 2543   5.114   1.870   0.326 -0.2489  0.4248 -0.1720
    7CHTO  C118 2544   5.192   1.991   0.321 -0.7068 -0.3185 -0.2562
    7CHTO  H222 2545   5.124   2.071   0.356  0.3133 -1.0142  3.5211
    7CHTO  C125 2546   5.293   1.971   0.440 -0.1561  0.2433 -0.6925
    7CHTO   O84 2547   5.432   1.935   0.412 -0.1440 -1.0344  0.2204
    7CHTO  H205 2548   5.449   1.888   0.333  0.1565  0.5373 -0.6888
    7CHTO  C114 2549   5.256   2.011   0.185  0.3068 -0.1094 -0.1535
    7CHTO  H218 2550   5.330   1.931   0.176 -1.4413 -1.7939  0.0948
    7CHTO  C116 2551   5.153   2.004   0.072  0.0189 -0.0807 -0.2018
    7CHTO  H220 2552   5.097   2.100   0.070 -0.5503 -0.3920  0.4426
    7CHTO   O79 2553   5.223   2.005  -0.052  0.2364  0.0982  0.3766
    7CHTO  H201 2554   5.303   1.961  -0.072 -0.0683 -0.0783 -0.4944
    7CHTO  C120 2555   5.066   1.870   0.087  0.2645  0.5537 -0.2612
    7CHTO  H224 2556   5.131   1.782   0.072 -1.6909 -1.2900  1.6406
    7CHTO   N21 2557   4.957   1.854  -0.009 -0.1410 -0.6088  0.0694
    7CHTO  H211 2558   4.860   1.900   0.004 -0.0053 -0.1684 -0.4405
    7CHTO  H212 2559   4.945   1.753  -0.044  1.6941  0.0036 -2.4736
    7CHTO   O75 2560   5.310   2.144   0.199  0.4956  0.7588  0.3444
    7CHTO  C112 2561   5.445   2.162   0.128 -0.8245 -0.0844 -0.2069
    7CHTO  H216 2562   5.444   2.100   0.037 -0.7080  1.8653 -1.5528
    7CHTO   O73 2563   5.548   2.130   0.220  0.1787 -0.0257 -0.0330
    7CHTO  C113 2564   5.678   2.128   0.177  0.4152  0.3475  0.4049
    7CHTO  H217 2565   5.689   2.056   0.093  0.7484  0.6449  0.1897
    7CHTO  C124 2566   5.754   2.071   0.298 -0.6971 -0.9906  0.3789
    7CHTO   O83 2567   5.879   2.006   0.264  0.0977 -0.1442  0.3491
    7CHTO  H204 2568   5.877   1.919   0.299  2.1067 -1.4769 -2.6329
    7CHTO  C109 2569   5.715   2.274   0.162  0.1573  0.3507  0.2551
    7CHTO  H213 2570   5.703   2.319   0.262 -1.3971 -0.7936  0.5963
    7CHTO  C110 2571   5.613   2.339   0.055  0.1454  0.1586  0.2912
    7CHTO  H214 2572   5.636   2.305  -0.046  0.1599 -2.3861  1.1001
    7CHTO   O78 2573   5.639   2.480   0.039  0.5444  0.3847  0.1158
    7CHTO  H200 2574   5.724   2.486  -0.001  0.2152 -1.6741 -0.9904
    7CHTO  C111 2575   5.465   2.315   0.087  0.3812  0.1149 -0.5068
    7CHTO  H215 2576   5.431   2.373   0.174 -0.4402 -2.1816  0.7278
    7CHTO   N19 2577   5.374   2.353  -0.024 -0.2934 -0.1164  0.6622
    7CHTO  H207 2578   5.403   2.317  -0.121 -0.7444  1.9461 -0.2694
    7CHTO  H208 2579   5.357   2.460  -0.024  0.1421  0.0151 -3.4109
    7CHTO   O74 2580   5.854   2.298   0.116 -0.0014  0.2723  0.3574
    7CHTO  C115 2581   5.909   2.453   0.152  0.2088 -0.2881 -0.0221
    7CHTO  H219 2582   5.865   2.526   0.084  0.3265 -0.8890 -0.7558
    7CHTO   O76 2583   5.871   2.496   0.311  0.6504 -0.2511 -0.2774
    7CHTO  C122 2584   5.925   2.397   0.394  0.2749  0.6385 -0.5931
    7CHTO  H226 2585   5.875   2.301   0.381 -0.9717  1.2577 -0.5043
    7CHTO  C126 2586   5.890   2.440   0.538  0.4629  0.1372 -0.4203
    7CHTO   O85 2587   5.752   2.432   0.574  0.6069  0.1676 -0.0455
    7CHTO  H206 2588   5.690   2.499   0.553  1.0019  0.8397  0.8650
    7CHTO  C121 2589   6.084   2.368   0.371  0.2855  0.3234  0.2373
    7CHTO  H225 2590   6.146   2.449   0.413  1.6284 -0.6861  0.2291
    7CHTO   O81 2591   6.119   2.256   0.450 -0.0365 -0.0984 -0.1909
    7CHTO  H202 2592   6.211   2.244   0.438  0.0159  0.9607 -0.9407
    7CHTO  C119 2593   6.126   2.349   0.221  0.6631 -0.4900 -0.4305
    7CHTO  H223 2594   6.234   2.365   0.224  0.9601 -1.9310 -2.3031
    7CHTO  C117 2595   6.062   2.464   0.129 -0.6536  0.6730 -0.3186
    7CHTO  H221 2596   6.080   2.451   0.022  2.4965 -1.7790  0.4579
    7CHTO   N20 2597   6.120   2.602   0.159 -0.0881 -0.2326  0.4744
    7CHTO  H209 2598   6.220   2.598   0.201 -0.1224  3.0087  0.9873
    7CHTO  H210 2599   6.055   2.646   0.232  0.6683 -0.9307  1.5756
    7CHTO   O80 2600   6.121   2.195   0.164 -0.2587 -0.2232 -0.1948
    7CHTO  C103 2601   6.208   2.161   0.032  0.1029  0.0672 -0.2553
    7CHTO  H190 2602   6.168   2.212  -0.056  0.2802  0.8648  0.1215
    7CHTO  C101 2603   6.359   2.198   0.035  0.4797  0.5172 -0.5804
    7CHTO  H188 2604   6.399   2.167   0.132 -0.4541 -1.1153 -0.7060
    7CHTO   O68 2605   6.377   2.355   0.019 -0.1913  0.0591  0.6021
    7CHTO  H168 2606   6.361   2.382  -0.070 -1.2248  2.5639  1.4895
    7CHTO   C99 2607   6.444   2.107  -0.062 -0.7124  0.6752  0.7775
    7CHTO  H186 2608   6.437   2.150  -0.164 -0.2540  1.1183  0.9313
    7CHTO   N17 2609   6.589   2.113  -0.032 -0.1550  0.7139 -0.0219
    7CHTO  H174 2610   6.638   2.148  -0.121 -0.4609  0.9233 -0.1100
    7CHTO  H175 2611   6.623   2.019   0.009 -2.9407  0.2802  1.4074
    7CHTO   C97 2612   6.397   1.958  -0.075  0.1826 -0.2751 -0.2220
    7CHTO  H184 2613   6.417   1.894   0.013 -0.7258 -1.0904 -0.6013
    7CHTO   O64 2614   6.254   1.963  -0.101 -0.8814 -0.5021  0.2145
    7CHTO  C104 2615   6.179   2.008   0.009 -0.2761  0.3874 -0.1791
    7CHTO  H191 2616   6.200   1.956   0.102 -1.1581  0.9921  0.3705
    7CHTO  C108 2617   6.029   1.978  -0.021  0.2327  0.2631  0.4610
    7CHTO   O71 2618   6.024   1.839  -0.047  0.0268 -0.4674 -0.2254
    7CHTO  H171 2619   6.007   1.789   0.031  0.0713  0.4750  0.3932
    7CHTO   O62 2620   6.443   1.894  -0.200  0.7403  0.3129 -0.1675
    7CHTO   C91 2621   6.407   1.757  -0.227  0.2445  0.0383  0.3659
    7CHTO  H178 2622   6.500   1.710  -0.260 -0.6625 -0.9892 -0.7663
    7CHTO   C92 2623   6.297   1.756  -0.343  0.7782  0.1490 -0.5448
    7CHTO  H179 2624   6.230   1.843  -0.339 -2.5392 -2.3418  0.3023
    7CHTO   O66 2625   6.373   1.777  -0.466  0.0837  0.0494 -0.0296
    7CHTO  H166 2626   6.359   1.713  -0.533  0.4954  1.1464 -1.1794
    7CHTO   C93 2627   6.205   1.623  -0.360  0.2022 -0.4197  0.1971
    7CHTO  H180 2628   6.266   1.547  -0.410 -1.2904  0.0974 -2.5255
    7CHTO   N16 2629   6.097   1.638  -0.459 -0.1994  0.0020  0.1503
    7CHTO  H172 2630   6.032   1.721  -0.433  1.7166  1.3455  0.7220
    7CHTO  H173 2631   6.034   1.550  -0.456 -1.0134  0.5564 -0.4862
    7CHTO   C94 2632   6.167   1.581  -0.217 -0.3405 -0.3716 -0.1130
    7CHTO  H181 2633   6.114   1.662  -0.166 -0.1385  0.2950 -0.9412
    7CHTO   O61 2634   6.292   1.541  -0.148  0.2893 -0.2421  0.1811
    7CHTO   C95 2635   6.367   1.657  -0.097  0.0400 -0.7135  0.6503
    7CHTO  H182 2636   6.304   1.708  -0.024 -0.5978  1.4709 -1.3600
    7CHTO  C106 2637   6.490   1.600  -0.015  0.3766 -0.3382 -0.7124
    7CHTO   O69 2638   6.567   1.504  -0.088 -0.5080 -0.4398 -0.5107
    7CHTO  H169 2639   6.526   1.424  -0.115  1.4764 -1.5348 -0.3910
    7CHTO   O63 2640   6.083   1.456  -0.210 -0.5015  0.3682 -0.0551
    7CHTO   C96 2641   5.988   1.448  -0.067 -0.4600 -0.0729  0.0941
    7CHTO  H183 2642   5.923   1.533  -0.082 -0.3598 -0.4134 -2.3943
    7CHTO   C98 2643   6.062   1.448   0.071  0.6240  0.0197  0.4306
    7CHTO  H185 2644   6.148   1.518   0.077  1.1732 -0.6776  0.7884
    7CHTO   O67 2645   5.971   1.492   0.175 -0.2808  0.1455 -0.6445
    7CHTO  H167 2646   5.884   1.458   0.177 -0.0268 -0.4569  0.5710
    7CHTO  C102 2647   6.111   1.304   0.111  0.9744  0.2918 -0.3745
    7CHTO  H189 2648   6.149   1.317   0.213  2.7173 -1.0980 -0.8063
    7CHTO   N18 2649   6.217   1.242   0.034  0.1734 -0.2926  0.4667
    7CHTO  H176 2650   6.300   1.311   0.036  0.7520 -0.9636 -0.2310
    7CHTO  H177 2651   6.252   1.158   0.093  0.6719 -0.0268  0.5545
    7CHTO  C105 2652   5.984   1.209   0.114 -0.2437 -0.2249  0.2417
    7CHTO  H192 2653   6.005   1.115   0.063 -2.5011  0.5997 -2.3650
    7CHTO   O65 2654   5.864   1.253   0.045  0.1125 -0.3795  0.5496
    7CHTO  C100 2655   5.888   1.325  -0.078 -0.1382  0.5744 -0.2335
    7CHTO  H187 2656   5.931   1.251  -0.147  2.8758  0.9949  1.1151
    7CHTO  C107 2657   5.747   1.369  -0.126 -0.4365 -0.2904  0.0234
    7CHTO   O70 2658   5.751   1.436  -0.250  0.7640 -0.0259  0.2734
    7CHTO  H170 2659   5.708   1.384  -0.315 -1.7062  2.4133 -0.1283
    7CHTO   O57 2660   5.952   1.196   0.273 -0.2076 -0.5839 -0.2262
    7CHTO   C85 2661   6.014   1.106   0.364  0.0645  0.0908 -0.6293
    7CHTO  H157 2662   6.104   1.162   0.397  1.1811 -0.8431 -2.0390
    7CHTO   C83 2663   6.059   0.962   0.320  0.6829  0.1459 -0.0317
    7CHTO  H155 2664   6.129   0.970   0.236  0.3913 -1.0099 -0.3854
    7CHTO   O56 2665   5.945   0.885   0.265  0.6068 -0.3401  0.0188
    7CHTO  H135 2666   5.924   0.903   0.176  0.3276 -1.6219 -0.1804
    7CHTO   C81 2667   6.134   0.892   0.437  1.0154  0.2120 -0.4105
    7CHTO  H153 2668   6.216   0.958   0.466  0.1962  0.8572  0.4804
    7CHTO   N14 2669   6.221   0.777   0.388  0.1627  0.6921 -0.1126
    7CHTO  H141 2670   6.171   0.683   0.397  2.6072 -0.4786  1.8161
    7CHTO  H142 2671   6.243   0.787   0.283  0.4245 -0.9743 -0.2313
    7CHTO   C79 2672   6.040   0.875   0.561  0.3815  0.2082  0.5330
    7CHTO  H151 2673   6.108   0.839   0.639  0.9248 -1.3925 -0.6432
    7CHTO   O52 2674   5.975   1.001   0.596  0.6694  0.3226 -1.3298
    7CHTO   C86 2675   5.912   1.070   0.489  0.6027 -0.8503  0.5406
    7CHTO  H158 2676   5.837   1.001   0.446  0.8552  0.7575 -2.6201
    7CHTO   C90 2677   5.836   1.190   0.560 -0.2838 -0.5777  0.1771
    7CHTO   O60 2678   5.766   1.281   0.470 -0.5482  0.0162 -0.0920
    7CHTO  H138 2679   5.830   1.336   0.428 -1.1020  1.3274  0.7544
    7CHTO   O50 2680   5.934   0.772   0.543  0.1135 -0.1506 -0.4911
    7CHTO   C73 2681   5.928   0.642   0.592  0.4031 -1.1923  0.3725
    7CHTO  H145 2682   6.022   0.586   0.603  1.0466 -0.1256  0.4032
    7CHTO   C74 2683   5.843   0.563   0.495  0.2115 -0.6028  0.5918
    7CHTO  H146 2684   5.890   0.594   0.400 -0.5529  0.3137  0.5143
    7CHTO   O54 2685   5.850   0.424   0.531 -0.2336  0.5413 -0.0372
    7CHTO  H133 2686   5.827   0.374   0.454  2.2765 -0.5681 -0.1231
    7CHTO   C75 2687   5.688   0.603   0.498  0.4014  0.5074  0.2479
    7CHTO  H147 2688   5.683   0.704   0.454 -0.6941  0.6532  0.6904
    7CHTO   N13 2689   5.583   0.537   0.416 -0.0521  0.2248 -0.2177
    7CHTO  H139 2690   5.482   0.549   0.455 -0.2078 -0.7068 -0.3382
    7CHTO  H140 2691   5.582   0.588   0.321  1.6760  0.7191  0.0262
    7CHTO   C76 2692   5.630   0.613   0.654  0.6763 -0.1074  0.3341
    7CHTO  H148 2693   5.621   0.511   0.691  0.4106  0.0646  0.7403
    7CHTO   O49 2694   5.727   0.686   0.729 -0.1637 -0.3672  0.5527
    7CHTO   C77 2695   5.862   0.634   0.733 -0.5292  0.0196 -0.3925
    7CHTO  H149 2696   5.853   0.530   0.763 -0.3249  0.2618  0.5318
    7CHTO   C88 2697   5.942   0.690   0.851 -0.1445 -0.4209  0.5923
    7CHTO   O58 2698   5.924   0.839   0.861 -0.1933  0.1520 -0.4699
    7CHTO  H136 2699   5.839   0.860   0.827 -0.2807  0.2711 -0.1836
    7CHTO   O51 2700   5.494   0.699   0.674  0.1269  0.2713 -0.0077
    7CHTO   C78 2701   5.425   0.667   0.809 -0.7679 -1.0731 -0.3087
    7CHTO  H150 2702   5.504   0.608   0.859 -0.2610 -0.4189 -0.3284
    7CHTO   C80 2703   5.298   0.583   0.795 -0.1302  0.0785  0.0516
    7CHTO  H152 2704   5.228   0.637   0.727 -0.1256  1.0808  0.8182
    7CHTO   O55 2705   5.337   0.462   0.725  0.1407 -0.1037  0.2919
    7CHTO  H134 2706   5.406   0.427   0.778  0.9433  1.1847  0.1341
    7CHTO   C84 2707   5.230   0.549   0.934  0.5299 -0.4743 -0.4945
    7CHTO  H156 2708   5.289   0.483   0.997 -1.0281  0.0280  1.5345
    7CHTO   N15 2709   5.091   0.484   0.914 -0.7312  0.2584  0.5407
    7CHTO  H143 2710   5.106   0.425   0.826 -0.7100 -0.6202  1.1247
    7CHTO  H144 2711   5.015   0.557   0.894 -1.4234 -1.1866 -2.2806
    7CHTO   C87 2712   5.221   0.676   1.023 -0.5960 -0.1983 -0.2657
    7CHTO  H159 2713   5.137   0.733   0.986  1.7450  1.8885 -2.5368
    7CHTO   O53 2714   5.332   0.763   1.017 -0.7722 -0.2913 -0.1071
    7CHTO   C82 2715   5.390   0.796   0.887 -0.2509  0.2532 -0.2563
    7CHTO  H154 2716   5.325   0.858   0.824  1.1301 -0.4060 -2.3841
    7CHTO   C89 2717   5.507   0.882   0.922 -0.5653 -0.0266  0.2532
    7CHTO   O59 2718   5.471   1.004   0.995 -0.2199  0.0470  0.5289
    7CHTO  H137 2719   5.501   0.997   1.083 -1.1900  1.8521  1.0130
    7CHTO   O45 2720   5.199   0.619   1.173  0.7986 -0.0669 -0.1159
    7CHTO   C67 2721   5.256   0.699   1.279  0.4363 -0.2606 -0.8152
    7CHTO  H124 2722   5.347   0.749   1.247  0.1749  1.0267  0.3677
    7CHTO   C65 2723   5.160   0.812   1.328  0.1747 -0.3382 -0.6287
    7CHTO  H122 2724   5.057   0.777   1.321  0.7163 -2.4871  1.3223
    7CHTO   O44 2725   5.175   0.925   1.234  0.7997 -0.5121 -0.7753
    7CHTO  H102 2726   5.212   0.999   1.278  0.8721 -1.9506  1.6946
    7CHTO   C63 2727   5.167   0.839   1.486 -0.7002 -0.2035  1.1063
    7CHTO  H120 2728   5.101   0.764   1.531 -0.8161 -0.7926 -0.0361
    7CHTO   N11 2729   5.096   0.965   1.540 -0.8008 -0.4676  0.7927
    7CHTO  H108 2730   5.155   1.046   1.578  0.6649 -0.7256 -0.8801
    7CHTO  H109 2731   5.025   0.999   1.468  0.2723 -0.7272 -0.3890
    7CHTO   C61 2732   5.318   0.812   1.536 -0.1034 -0.1388 -0.2412
    7CHTO  H118 2733   5.315   0.828   1.645 -0.8595  0.7478 -0.3869
    7CHTO   O40 2734   5.367   0.679   1.512  0.5965 -0.2334 -0.0316
    7CHTO   C68 2735   5.301   0.608   1.400 -0.2917  0.1183 -1.1265
    7CHTO  H125 2736   5.205   0.564   1.435  0.1992 -0.6983 -0.8196
    7CHTO   C72 2737   5.387   0.488   1.350 -0.7081 -0.1094  0.6006
    7CHTO   O48 2738   5.517   0.513   1.302  0.0520 -0.5320 -0.4760
    7CHTO  H105 2739   5.531   0.589   1.250  0.2813 -0.1140  0.1915
    7CHTO   O38 2740   5.405   0.908   1.469 -0.4250  0.0281  0.3014
    7CHTO   C55 2741   5.510   0.960   1.555  0.2066 -0.8001 -1.4112
    7CHTO  H112 2742   5.524   0.883   1.632  0.1629  2.3937  1.9199
    7CHTO   C56 2743   5.467   1.103   1.618 -0.5009  0.5921  0.0542
    7CHTO  H113 2744   5.423   1.155   1.532  0.9702 -0.4486 -1.3560
    7CHTO   O42 2745   5.380   1.079   1.725  0.2680  0.2688 -0.0183
    7CHTO  H100 2746   5.397   1.121   1.807 -2.9791  2.1173 -0.2437
    7CHTO   C57 2747   5.590   1.179   1.678 -0.3456  0.1291  0.2724
    7CHTO  H114 2748   5.628   1.128   1.766 -0.5007  1.2991  1.0360
    7CHTO   N10 2749   5.555   1.312   1.727  0.3367 -0.1155 -0.2240
    7CHTO  H106 2750   5.510   1.309   1.825  1.5481 -0.1801  0.3392
    7CHTO  H107 2751   5.646   1.369   1.740  0.2123 -0.1426  0.8031
    7CHTO   C58 2752   5.712   1.183   1.572  0.0162 -0.4659  0.1055
    7CHTO  H115 2753   5.671   1.235   1.483 -3.0963  0.4129  1.9831
    7CHTO   O37 2754   5.746   1.051   1.540  0.5702  0.2345  0.7063
    7CHTO   C59 2755   5.640   0.980   1.466 -1.5274 -0.3654  0.4078
    7CHTO  H116 2756   5.609   1.031   1.375  0.9916 -1.3239 -1.0623
    7CHTO   C70 2757   5.716   0.854   1.423 -0.1365  0.0275  0.0383
    7CHTO   O46 2758   5.654   0.782   1.317  0.5152 -0.2136  0.7911
    7CHTO  H103 2759   5.566   0.758   1.339 -0.8122  2.1234 -1.7585
    7CHTO   O39 2760   5.875   1.259   1.629  0.0939 -0.1620 -0.3903
    7CHTO   C60 2761   5.984   1.238   1.537  0.4853 -0.0740 -0.9694
    7CHTO  H117 2762   5.978   1.132   1.510  2.8327 -0.5864  0.4147
    7CHTO   C62 2763   5.972   1.336   1.415 -0.2317  0.4300 -0.0678
    7CHTO  H119 2764   5.866   1.321   1.384  0.1283  1.8351 -2.0852
    7CHTO   O43 2765   5.986   1.479   1.444 -0.1232 -0.2167 -0.3027
    7CHTO  H101 2766   5.904   1.518   1.421  0.1406 -0.2274 -1.2671
    7CHTO   C66 2767   6.065   1.275   1.305 -0.5711 -0.1728 -0.5721
    7CHTO  H123 2768   6.027   1.176   1.283 -1.8659  0.9003 -3.4703
    7CHTO   N12 2769   6.045   1.335   1.168  0.3663 -0.3305 -0.2326
    7CHTO  H110 2770   5.958   1.396   1.153  0.8717  0.1979 -1.0612
    7CHTO  H111 2771   6.129   1.354   1.103  1.1774 -1.7131  0.3744
    7CHTO   C69 2772   6.211   1.265   1.342  1.2069  0.5496  0.1880
    7CHTO  H126 2773   6.265   1.361   1.332  1.4612  0.3129 -0.7674
    7CHTO   O41 2774   6.222   1.217   1.489 -0.0076 -0.4606  0.1802
    7CHTO   C64 2775   6.123   1.257   1.604  0.3718  0.2042 -0.3473
    7CHTO  H121 2776   6.135   1.362   1.636  0.1895 -0.0824  0.6752
    7CHTO   C71 2777   6.154   1.163   1.718 -0.1210 -0.4641  0.2820
    7CHTO   O47 2778   6.144   1.023   1.679 -0.0458  0.1462  0.0673
    7CHTO  H104 2779   6.178   1.015   1.592  0.2378 -0.0553  0.1968
    7CHTO   O34 2780   6.259   1.147   1.261  0.1554  0.5071  0.6811
    7CHTO   C49 2781   6.412   1.090   1.268  0.0473  0.1816  0.3364
    7CHTO   H91 2782   6.477   1.172   1.298  0.7326 -0.0650 -0.4645
    7CHTO   C47 2783   6.454   1.059   1.123  0.9842  0.1507 -0.8747
    7CHTO   H89 2784   6.563   1.041   1.128  1.0894  1.3009  3.0899
    7CHTO   O33 2785   6.427   1.172   1.039 -0.4935 -0.3636  0.3773
    7CHTO   H70 2786   6.341   1.196   1.069 -0.4663  0.2819 -0.0368
    7CHTO   C45 2787   6.376   0.932   1.077  0.2791 -0.2267 -0.0602
    7CHTO   H87 2788   6.270   0.952   1.095  0.5241  0.0771  1.0906
    7CHTO    N8 2789   6.392   0.898   0.931 -0.4960 -0.4985 -0.0057
    7CHTO   H75 2790   6.443   0.803   0.921 -1.0767 -0.8089 -0.0166
    7CHTO   H76 2791   6.302   0.897   0.871 -0.0717  0.8803 -0.6862
    7CHTO   C43 2792   6.394   0.810   1.177  0.5135  1.0215  0.7314
    7CHTO   H85 2793   6.316   0.742   1.143  2.7538  0.3479 -3.5300
    7CHTO   O29 2794   6.374   0.847   1.315  0.7709 -0.4764 -0.3871
    7CHTO   C50 2795   6.420   0.974   1.362 -0.2491 -0.0807  0.5778
    7CHTO   H92 2796   6.377   1.012   1.456  2.3378 -1.4959  2.3941
    7CHTO   C54 2797   6.560   0.949   1.418 -0.3329  0.3594 -0.6024
    7CHTO   O36 2798   6.551   0.875   1.542  0.0060 -0.2154 -0.0967
    7CHTO   H72 2799   6.554   0.933   1.616 -1.2277  0.4898 -0.5809
    7CHTO   O27 2800   6.519   0.737   1.152 -0.0974 -0.1909  0.0528
    7CHTO   C37 2801   6.589   0.616   1.151 -0.4497  0.0123 -0.5537
    7CHTO   H79 2802   6.609   0.588   1.255  2.1863 -0.5301 -1.1642
    7CHTO   C38 2803   6.517   0.497   1.083  0.8493 -0.9111 -0.4868
    7CHTO   H80 2804   6.505   0.521   0.976  1.7332  0.4365 -0.2941
    7CHTO   O31 2805   6.386   0.481   1.149  0.6311  0.3800 -0.8275
    7CHTO   H68 2806   6.326   0.525   1.091 -1.8593 -0.9337  0.6469
    7CHTO   C39 2807   6.616   0.370   1.090 -0.3216 -0.3798 -0.5489
    7CHTO   H81 2808   6.632   0.353   1.197 -1.3418  0.4410 -0.2583
    7CHTO    N7 2809   6.551   0.254   1.029 -0.5201 -0.6299  0.3146
    7CHTO   H73 2810   6.572   0.255   0.923 -0.1716 -2.0490  0.3634
    7CHTO   H74 2811   6.583   0.175   1.095  0.8538  0.0580  0.4906
    7CHTO   C40 2812   6.757   0.414   1.028 -0.4778 -0.1526  0.2428
    7CHTO   H82 2813   6.737   0.430   0.922  1.4405  3.2408  0.3124
    7CHTO   O26 2814   6.808   0.539   1.086  0.0381  0.4060 -0.0893
    7CHTO   C41 2815   6.720   0.647   1.078 -0.8609  0.1382  0.4928
    7CHTO   H83 2816   6.702   0.662   0.971  2.0590 -0.0604 -0.0947
    7CHTO   C52 2817   6.804   0.765   1.130  0.5090 -0.2388  0.4728
    7CHTO   O35 2818   6.839   0.783   1.292  0.6318 -0.7591  0.1371
    7CHTO   H71 2819   6.902   0.720   1.321  0.8053 -1.7815 -2.3777
    7CHTO   O28 2820   6.864   0.316   1.052 -0.2856  0.3774  0.0517
    7CHTO   C42 2821   6.997   0.320   0.983  0.0024 -0.3076  0.8239
    7CHTO   H84 2822   7.058   0.245   1.033  1.6634 -0.8343 -1.8604
    7CHTO   C44 2823   7.075   0.444   0.984  0.6156  0.2035 -0.2360
    7CHTO   H86 2824   7.016   0.527   0.946  0.8817  0.3954 -0.2333
    7CHTO   O32 2825   7.099   0.479   1.118 -0.1171 -0.1839  0.5385
    7CHTO   H69 2826   7.087   0.570   1.134 -1.0091 -0.9244  4.8979
    7CHTO   C48 2827   7.212   0.434   0.903 -0.1248 -0.1577 -0.2269
    7CHTO   H90 2828   7.281   0.386   0.973 -0.3453  0.0269  0.1213
    7CHTO    N9 2829   7.271   0.570   0.882 -0.5976  0.2683  0.1898
    7CHTO   H77 2830   7.198   0.640   0.847 -0.7802 -0.2093 -0.3987
    7CHTO   H78 2831   7.356   0.578   0.816 -2.7602  0.2993 -2.6515
    7CHTO   C51 2832   7.183   0.367   0.761  0.2949 -0.3378 -0.3496
    7CHTO   H93 2833   7.123   0.435   0.701 -0.1747 -0.1693  0.3042
    7CHTO   O30 2834   7.114   0.245   0.781 -0.1095  0.4854  0.1310
    7CHTO   C46 2835   6.972   0.264   0.841  0.2597  0.1776  0.1113
    7CHTO   H88 2836   6.920   0.340   0.782 -0.1202  0.2106  0.4806
    7CHTO   C53 2837   6.883   0.131   0.838 -0.3042 -0.1086 -0.4640
    7CHTO   O72 2838   6.872   0.076   0.701  0.1406  0.2744  0.4145
    7CHTO  H199 2839   6.798   0.019   0.707 -0.4644  1.2079  2.1490
    7CHTO   O22 2840   7.297   0.315   0.693 -0.4323 -0.2506 -0.3723
    7CHTO   C31 2841   7.296   0.314   0.546 -1.3173 -0.3366 -0.4102
    7CHTO   H59 2842   7.392   0.268   0.516 -0.4258 -0.2800  2.2442
    7CHTO   C29 2843   7.186   0.221   0.479  0.7882 -0.7403 -0.8902
    7CHTO   H57 2844   7.092   0.245   0.531  1.2516 -2.2733  0.6964
    7CHTO   O21 2845   7.202   0.080   0.509  0.5071  0.1882  0.1389
    7CHTO   H37 2846   7.264   0.063   0.577  1.4976  1.5983 -0.3866
    7CHTO   C27 2847   7.163   0.246   0.321 -0.2913 -0.1839  0.4678
    7CHTO   H55 2848   7.255   0.210   0.272 -0.3614 -2.3653  1.8900
    7CHTO    N5 2849   7.047   0.172   0.262 -0.3697  0.0315  0.7035
    7CHTO   H43 2850   7.045   0.069   0.292  1.1807 -0.1375  0.2846
    7CHTO   H44 2851   7.044   0.188   0.155  1.0123 -3.3829  0.1058
    7CHTO   C25 2852   7.163   0.399   0.286 -0.0968  0.1309 -0.4724
    7CHTO   H53 2853   7.065   0.434   0.324 -0.8743 -1.5705 -0.8804
    7CHTO   O17 2854   7.276   0.462   0.347 -0.7203  0.1757  0.4818
    7CHTO   C32 2855   7.292   0.456   0.491  0.8786  0.3329 -0.4553
    7CHTO   H60 2856   7.206   0.506   0.537  0.1301 -0.6836 -0.7329
    7CHTO   C36 2857   7.424   0.533   0.517 -0.0974 -0.0613  0.9251
    7CHTO   O25 2858   7.417   0.669   0.524 -0.1827 -0.6682  0.4591
    7CHTO   H40 2859   7.500   0.701   0.554 -1.6515  1.9027  1.9673
    7CHTO   O15 2860   7.160   0.421   0.129 -0.8235 -0.0329  0.5261
    7CHTO   C19 2861   7.083   0.525   0.056  0.3215 -0.2145  0.2175
    7CHTO   H47 2862   7.091   0.503  -0.051 -0.7837  2.0248 -0.3467
    7CHTO   C20 2863   6.927   0.518   0.085  0.6761  0.6226 -0.0805
    7CHTO   H48 2864   6.908   0.515   0.193 -1.3570 -0.0083 -0.4239
    7CHTO   O19 2865   6.888   0.386   0.041 -0.2694 -0.5532 -0.6892
    7CHTO   H35 2866   6.798   0.373   0.062  0.2545 -1.9750  0.7653
    7CHTO   C21 2867   6.836   0.630   0.026 -0.4677 -0.9226  0.1380
    7CHTO   H49 2868   6.828   0.615  -0.081 -1.4825  1.1082 -0.0903
    7CHTO    N4 2869   6.698   0.624   0.079  0.5404  0.0863  0.3470
    7CHTO   H41 2870   6.634   0.655  -0.002 -2.1751 -1.2552  1.8734
    7CHTO   H42 2871   6.670   0.524   0.112  0.8373 -0.1098  0.0049
    7CHTO   C22 2872   6.916   0.762   0.045  0.1797 -0.3569  1.2442
    7CHTO   H50 2873   6.931   0.778   0.152  0.1531  3.0734  0.7830
    7CHTO   O14 2874   7.044   0.753  -0.009 -0.3432 -0.3503  0.5789
    7CHTO   C23 2875   7.134   0.674   0.066  0.0462  0.1795  0.6186
    7CHTO   H51 2876   7.137   0.709   0.170 -0.0278 -1.8315  1.3191
    7CHTO   C34 2877   7.275   0.668   0.011 -0.2679  0.7350  1.0826
    7CHTO   O23 2878   7.347   0.787   0.048  0.0329  0.1921 -0.0953
    7CHTO   H38 2879   7.426   0.795  -0.002  0.6838  0.6605  1.0024
    7CHTO   O16 2880   6.850   0.879  -0.019  0.1582  0.0676 -0.3165
    7CHTO   C24 2881   6.870   1.020   0.081  0.0183 -0.7097  0.6849
    7CHTO   H52 2882   6.940   1.001   0.162  0.8992 -2.9525 -0.5422
    7CHTO   C26 2883   6.736   1.046   0.146  0.1498  0.3431 -0.0993
    7CHTO   H54 2884   6.667   1.044   0.059  0.8235 -0.5445 -0.6257
    7CHTO   O20 2885   6.704   0.937   0.237  0.8628 -0.1926 -0.1546
    7CHTO   H36 2886   6.750   0.952   0.317 -0.3404  1.3322  0.2791
    7CHTO   C30 2887   6.728   1.189   0.205 -0.0402  0.1333  0.3846
    7CHTO   H58 2888   6.781   1.188   0.301  2.4772  0.4538 -0.9492
    7CHTO    N6 2889   6.586   1.229   0.232 -0.0044  0.4047  0.3191
    7CHTO   H45 2890   6.550   1.176   0.320  0.4159  0.6991  0.6698
    7CHTO   H46 2891   6.525   1.195   0.150  0.9442  0.6830 -0.5046
    7CHTO   C33 2892   6.794   1.298   0.114  0.2916  1.0633 -0.5579
    7CHTO   H61 2893   6.735   1.305   0.022 -1.3681  2.2103  0.5512
    7CHTO   O18 2894   6.929   1.254   0.078  0.0944  0.2282  0.1264
    7CHTO   C28 2895   6.933   1.137  -0.005  0.1962 -0.3970  0.7042
    7CHTO   H56 2896   6.869   1.149  -0.093 -0.4584  2.7243  1.5461
    7CHTO   C35 2897   7.078   1.102  -0.046  0.4450  0.6658  0.5193
    7CHTO   O24 2898   7.084   1.021  -0.163  0.4831 -0.0977 -0.7100
    7CHTO   H39 2899   7.099   0.931  -0.140 -0.5810 -0.2147 -0.4333
    7CHTO    O9 2900   6.796   1.433   0.161 -0.1610  0.0423  0.1997
    7CHTO   C13 2901   6.938   1.505   0.195  0.2719  0.2419 -0.8153
    7CHTO   H26 2902   7.006   1.491   0.108 -0.4040  1.0567 -1.4842
    7CHTO   C11 2903   6.989   1.439   0.320 -0.5863  0.2378  0.2478
    7CHTO   H24 2904   7.002   1.333   0.293 -2.3553  0.0975 -0.0804
    7CHTO    O8 2905   6.885   1.433   0.421 -0.2663  0.0292  0.1315
    7CHTO    H3 2906   6.864   1.522   0.443  0.9269  0.1666  0.7087
    7CHTO    C9 2907   7.128   1.508   0.358  0.1641 -0.1115  0.0047
    7CHTO   H22 2908   7.195   1.491   0.273 -0.9620 -1.4379 -0.6319
    7CHTO    N2 2909   7.204   1.441   0.464 -0.3760 -0.1713  0.4574
    7CHTO   H10 2910   7.289   1.506   0.480 -1.0484  0.5901  1.0354
    7CHTO   H11 2911   7.232   1.338   0.446  1.8087  0.1629  1.7605
    7CHTO    C7 2912   7.102   1.668   0.385 -0.0193  0.3877  0.3706
    7CHTO   H20 2913   7.174   1.714   0.314  1.2286 -2.6797 -0.4388
    7CHTO    O4 2914   6.967   1.705   0.354  0.7804  0.8239 -0.3157
    7CHTO   C14 2915   6.931   1.667   0.219 -0.3409 -0.5336 -0.0010
    7CHTO   H27 2916   7.014   1.715   0.163 -2.1549  0.3997 -1.9334
    7CHTO   C18 2917   6.802   1.731   0.176  0.2255  0.4737  0.0834
    7CHTO   O13 2918   6.818   1.876   0.182 -0.0635 -0.3305 -0.3206
    7CHTO    H7 2919   6.813   1.921   0.265  0.7944  0.3608 -0.6466
    7CHTO    O2 2920   7.138   1.728   0.546 -0.1145  0.1042  0.0815
    7CHTO    C1 2921   7.164   1.867   0.549  0.2171 -0.7616 -0.7896
    7CHTO   H14 2922   7.134   1.913   0.453 -2.3650 -1.8219 -0.5458
    7CHTO    C2 2923   7.317   1.905   0.569 -0.1403 -0.4764  0.3408
    7CHTO   H15 2924   7.346   1.861   0.665 -1.7796  0.1592  1.1406
    7CHTO    O6 2925   7.389   1.864   0.450 -0.7131 -0.2939  0.3549
    7CHTO    H1 2926   7.356   1.788   0.406 -0.8592  1.1336 -2.1242
    7CHTO    C3 2927   7.340   2.066   0.581 -0.3025 -0.1947  0.5542
    7CHTO   H16 2928   7.317   2.107   0.481  0.0123 -0.5174  0.3457
    7CHTO    N1 2929   7.482   2.105   0.608  0.6745 -0.1596 -0.2657
    7CHTO    H8 2930   7.525   2.150   0.519  0.0960  0.8070 -0.0708
    7CHTO    H9 2931   7.545   2.026   0.646 -0.3008  0.0960  1.9027
    7CHTO    C4 2932   7.231   2.125   0.679  0.6002 -0.7147  0.2867
    7CHTO   H17 2933   7.267   2.111   0.781  1.2284 -0.1816  0.1424
    7CHTO    O1 2934   7.097   2.072   0.664 -0.7342 -0.1095  0.0341
    7CHTO    C5 2935   7.079   1.934   0.666  0.0674  0.0002 -0.6650
    7CHTO   H18 2936   7.117   1.904   0.763  2.5216  2.5865 -0.7431
    7CHTO   C16 2937   6.925   1.906   0.669  0.0948 -0.2302  0.1000
    7CHTO   O11 2938   6.869   1.940   0.797 -0.3609 -0.7905  0.2425
    7CHTO    H5 2939   6.780   1.968   0.791 -0.3241 -0.4074  1.3178
    7CHTO    O3 2940   7.208   2.266   0.651 -0.2010 -0.3323  0.0439
    7CHTO    C6 2941   7.170   2.351   0.760 -1.1064  0.7432 -0.4226
    7CHTO   H19 2942   7.144   2.291   0.848  0.0372  0.3344 -0.3570
    7CHTO    C8 2943   7.297   2.436   0.795 -0.7624  0.3223  0.2243
    7CHTO   H21 2944   7.334   2.479   0.702  0.6303  0.8077  0.9895
    7CHTO    O7 2945   7.394   2.345   0.844 -0.2764 -0.4031 -0.2257
    7CHTO    H2 2946   7.464   2.397   0.877 -0.9930 -0.2426  1.0670
    7CHTO   C12 2947   7.273   2.553   0.890 -0.6389  0.2985 -0.1635
    7CHTO   H25 2948   7.260   2.509   0.992  0.3207  2.7645  1.0705
    7CHTO    N3 2949   7.398   2.640   0.900 -0.5375 -0.2790  0.4561
    7CHTO   H12 2950   7.414   2.686   0.804  1.3426 -0.1786  0.8019
    7CHTO   H13 2951   7.483   2.580   0.928 -0.7420  0.5673  3.0380
    7CHTO   C15 2952   7.139   2.629   0.846  0.1870 -0.2374 -0.1567
    7CHTO   H28 2953   7.155   2.683   0.753 -0.8731  0.7581  0.2348
    7CHTO   O10 2954   7.086   2.741   0.951  0.1009 -0.0337 -0.1526
    7CHTO    H4 2955   7.150   2.810   0.950  0.2691 -0.1721 -2.2738
    7CHTO    O5 2956   7.032   2.540   0.835  0.2330  0.1843  0.1095
    7CHTO   C10 2957   7.046   2.439   0.735 -0.7324 -0.2241  0.9254
    7CHTO   H23 2958   7.052   2.474   0.632 -2.0866 -0.6925  0.6791
    7CHTO   C17 2959   6.909   2.360   0.735  0.6883 -0.0442  0.1861
    7CHTO   O12 2960   6.898   2.254   0.635  0.2452 -0.4327 -0.2860
    7CHTO    H6 2961   6.812   2.238   0.601  0.5653 -0.5360 -1.0365
    8CHTO  H203 2962   6.712   8.449   2.814  0.6689 -2.6103  0.7532
    8CHTO   O82 2963   6.751   8.424   2.733  0.7235 -0.0451 -0.0568
    8CHTO  C123 2964   6.657   8.440   2.624 -0.1463  0.2732 -0.5401
    8CHTO  H227 2965   6.641   8.547   2.606  0.8634  0.5311  0.0560
    8CHTO   O77 2966   6.732   8.378   2.514  0.2506  0.5519 -0.0097
    8CHTO  C118 2967   6.666   8.377   2.385  0.6384 -0.5012  0.0310
    8CHTO  H222 2968   6.635   8.480   2.361  1.2677 -0.1230  0.8201
    8CHTO  C125 2969   6.763   8.320   2.279  0.4848 -0.2612  0.1406
    8CHTO   O84 2970   6.829   8.204   2.335  0.0187 -0.0782  0.3484
    8CHTO  H205 2971   6.826   8.133   2.273 -0.3826  0.9362 -0.8313
    8CHTO  C114 2972   6.536   8.294   2.401  0.1654  0.7515 -0.3362
    8CHTO  H218 2973   6.569   8.194   2.430 -0.4750  0.3598 -0.9484
    8CHTO  C116 2974   6.447   8.354   2.512 -0.1806 -0.1533 -0.1631
    8CHTO  H220 2975   6.420   8.457   2.481  1.1110  0.9280  2.1799
    8CHTO   O79 2976   6.338   8.261   2.519  0.3012  0.2846 -0.4399
    8CHTO  H201 2977   6.294   8.271   2.437 -0.0159  0.0689 -0.2979
    8CHTO  C120 2978   6.525   8.361   2.640 -0.0256 -0.0235  0.2222
    8CHTO  H224 2979   6.547   8.257   2.674 -1.0409 -0.0354  0.8941
    8CHTO   N21 2980   6.451   8.415   2.756 -0.0095  0.4280  0.3354
    8CHTO  H211 2981   6.377   8.483   2.716  0.2477  0.0444 -0.8278
    8CHTO  H212 2982   6.408   8.333   2.811  3.5089  0.8797  3.9838
    8CHTO   O75 2983   6.482   8.288   2.264  0.9813 -0.0445  0.7271
    8CHTO  C112 2984   6.413   8.444   2.213 -0.2504  0.6902  0.2688
    8CHTO  H216 2985   6.476   8.527   2.248 -2.0793  1.3688  1.9602
    8CHTO   O73 2986   6.281   8.452   2.270  0.0798  0.5027 -0.5524
    8CHTO  C113 2987   6.199   8.568   2.248 -0.7429  0.2992  0.6664
    8CHTO  H217 2988   6.245   8.657   2.296  0.6827  0.0621 -0.2206
    8CHTO  C124 2989   6.069   8.532   2.322  0.4526 -0.0812  0.7480
    8CHTO   O83 2990   6.085   8.479   2.455 -0.4530  0.3000 -0.6562
    8CHTO  H204 2991   6.150   8.412   2.457 -0.8204 -0.0688 -0.9707
    8CHTO  C109 2992   6.184   8.583   2.090 -0.1371 -0.0870  0.5673
    8CHTO  H213 2993   6.129   8.493   2.060  0.8255 -0.8764  1.1620
    8CHTO  C110 2994   6.317   8.574   2.007 -0.8432  0.2558 -0.3153
    8CHTO  H214 2995   6.367   8.669   2.029 -2.2360  0.9185 -0.0012
    8CHTO   O78 2996   6.290   8.570   1.869  0.5334  0.0585 -0.3618
    8CHTO  H200 2997   6.350   8.622   1.820 -0.3278  0.7953 -0.6324
    8CHTO  C111 2998   6.406   8.449   2.058  0.5364  0.0357  0.3431
    8CHTO  H215 2999   6.361   8.354   2.025  3.6481 -1.0203 -1.0595
    8CHTO   N19 3000   6.542   8.453   1.999 -0.1391  0.6232 -0.0031
    8CHTO  H207 3001   6.595   8.363   2.026 -0.1836  0.6845  0.2879
    8CHTO  H208 3002   6.597   8.544   2.015 -0.0646  0.9324 -1.9211
    8CHTO   O74 3003   6.106   8.697   2.060  0.2271 -0.1297 -0.3139
    8CHTO  C115 3004   5.956   8.685   2.034 -0.3874 -0.1652 -0.0359
    8CHTO  H219 3005   5.918   8.587   2.065 -2.7767  0.0228 -2.2240
    8CHTO   O76 3006   5.864   8.804   2.121  0.4814  0.2111 -0.1482
    8CHTO  C122 3007   5.867   8.935   2.067 -0.3175  0.4127  0.3790
    8CHTO  H226 3008   5.960   8.979   2.102 -0.0633 -0.9889  1.5384
    8CHTO  C126 3009   5.751   9.009   2.139 -0.2674  0.0236  0.2754
    8CHTO   O85 3010   5.781   9.022   2.278 -0.0456  0.0066  0.0041
    8CHTO  H206 3011   5.817   8.948   2.324  1.9006  0.2090 -1.1139
    8CHTO  C121 3012   5.845   8.939   1.906 -0.1008 -0.3206  0.0077
    8CHTO  H225 3013   5.746   8.891   1.891 -0.2966  0.0373  0.1387
    8CHTO   O81 3014   5.844   9.078   1.862  0.0178 -0.2741  0.5854
    8CHTO  H202 3015   5.807   9.082   1.777  0.2078  1.1497  0.5564
    8CHTO  C119 3016   5.957   8.848   1.839  0.9628 -0.0060 -0.1820
    8CHTO  H223 3017   5.942   8.852   1.731 -1.1840 -0.6305  0.0712
    8CHTO  C117 3018   5.945   8.697   1.879 -1.0488 -0.0364 -0.1187
    8CHTO  H221 3019   6.025   8.629   1.847 -0.1426  0.5790  0.8272
    8CHTO   N20 3020   5.824   8.636   1.820  0.7070 -0.0696 -0.1447
    8CHTO  H209 3021   5.820   8.531   1.847  1.0498 -0.3529 -1.1948
    8CHTO  H210 3022   5.731   8.681   1.852  1.3525  0.1849  1.4576
    8CHTO   O80 3023   6.106   8.905   1.854 -0.0463 -0.2296 -0.1232
    8CHTO  C103 3024   6.148   9.045   1.786 -0.1132  0.6215  0.5543
    8CHTO  H190 3025   6.057   9.092   1.749 -0.1930  0.1793  0.1786
    8CHTO  C101 3026   6.222   9.141   1.884  0.0863  0.5953  0.0177
    8CHTO  H188 3027   6.319   9.097   1.906  0.1475 -0.7864 -2.7518
    8CHTO   O68 3028   6.134   9.170   2.027  0.4792 -0.4053  0.6467
    8CHTO  H168 3029   6.193   9.197   2.094 -1.1100  1.3960  1.3613
    8CHTO   C99 3030   6.253   9.269   1.801  0.7947 -0.2882  0.0364
    8CHTO  H186 3031   6.164   9.303   1.745  1.7398 -2.0679 -2.6753
    8CHTO   N17 3032   6.313   9.371   1.889  0.8193  0.2464  0.1120
    8CHTO  H174 3033   6.390   9.329   1.953 -0.9615 -1.0231  1.4878
    8CHTO  H175 3034   6.344   9.459   1.834  1.0182  0.9870  1.3676
    8CHTO   C97 3035   6.352   9.222   1.687 -0.2250  0.7434  0.4635
    8CHTO  H184 3036   6.440   9.176   1.734 -0.6193  0.4313  0.8991
    8CHTO   O64 3037   6.290   9.130   1.591  0.0161 -0.1521  0.1130
    8CHTO  C104 3038   6.234   9.013   1.652 -0.2523 -0.0361 -0.3866
    8CHTO  H191 3039   6.323   8.955   1.675 -0.2518 -0.1152 -0.5915
    8CHTO  C108 3040   6.145   8.930   1.557 -0.0887  0.3534  0.2652
    8CHTO   O71 3041   6.046   9.021   1.506 -0.2312 -0.2052  0.3257
    8CHTO  H171 3042   6.082   9.080   1.443 -2.0277 -0.2843 -0.8090
    8CHTO   O62 3043   6.394   9.334   1.605 -0.5468 -0.4190  0.6363
    8CHTO   C91 3044   6.500   9.332   1.510  0.5303  0.7987  0.2637
    8CHTO  H178 3045   6.567   9.250   1.536 -0.1021  0.1770 -0.0409
    8CHTO   C92 3046   6.586   9.463   1.523 -0.4929  0.0068 -0.7004
    8CHTO  H179 3047   6.587   9.495   1.628  1.2730  0.7161 -0.9159
    8CHTO   O66 3048   6.722   9.446   1.482 -0.1387  0.3164  0.6601
    8CHTO  H166 3049   6.758   9.400   1.555 -0.3967  0.6309  0.9894
    8CHTO   C93 3050   6.542   9.585   1.442 -0.0675 -0.0956  0.0958
    8CHTO  H180 3051   6.626   9.654   1.428  1.3880 -2.1377 -1.7256
    8CHTO   N16 3052   6.432   9.663   1.502  0.6622  0.2315 -0.2513
    8CHTO  H172 3053   6.367   9.695   1.423 -1.1269 -1.9834  0.2668
    8CHTO  H173 3054   6.464   9.734   1.577  3.3866 -0.0799 -1.0472
    8CHTO   C94 3055   6.501   9.544   1.291 -0.3371 -0.0493 -0.2785
    8CHTO  H181 3056   6.395   9.562   1.271  0.0455  2.2388 -0.3435
    8CHTO   O61 3057   6.522   9.405   1.271  0.1817 -0.0162  0.4019
    8CHTO   C95 3058   6.454   9.316   1.359 -0.6390  0.2019 -0.4676
    8CHTO  H182 3059   6.348   9.338   1.347 -0.6873  0.0886 -0.2564
    8CHTO  C106 3060   6.469   9.161   1.314 -0.2863  0.0722 -0.2196
    8CHTO   O69 3061   6.407   9.142   1.185  0.2386 -0.0493 -0.8612
    8CHTO  H169 3062   6.473   9.144   1.119  0.2548  0.4096 -0.8353
    8CHTO   O63 3063   6.597   9.621   1.194  0.2163  0.9115  0.4025
    8CHTO   C96 3064   6.544   9.686   1.072 -0.0352  0.8919 -0.3806
    8CHTO  H183 3065   6.439   9.654   1.071  0.7870 -1.9128 -0.7723
    8CHTO   C98 3066   6.620   9.652   0.942  0.0380  0.0894  0.3121
    8CHTO  H185 3067   6.717   9.694   0.970 -1.1625  1.9542  1.8316
    8CHTO   O67 3068   6.632   9.509   0.930 -0.1529  0.7700  0.4364
    8CHTO  H167 3069   6.683   9.471   0.999  0.9902  0.1814 -0.7017
    8CHTO  C102 3070   6.557   9.723   0.815 -0.9667  0.1701  0.6864
    8CHTO  H189 3071   6.474   9.658   0.784 -0.8023  0.0466  0.5070
    8CHTO   N18 3072   6.649   9.718   0.694  0.0115 -0.3464  0.0490
    8CHTO  H176 3073   6.666   9.818   0.659 -3.5746  0.7403  1.1363
    8CHTO  H177 3074   6.741   9.665   0.713 -0.4430 -1.5786 -1.1030
    8CHTO  C105 3075   6.492   9.865   0.834  0.1221 -0.3666  0.5080
    8CHTO  H192 3076   6.550   9.939   0.780  0.2409 -0.2565  0.7868
    8CHTO   O65 3077   6.475   9.910   0.969 -0.2397  0.2748 -0.6609
    8CHTO  C100 3078   6.547   9.846   1.078 -0.8934 -0.1501 -0.8520
    8CHTO  H187 3079   6.652   9.878   1.082 -0.9368  0.0373 -1.1387
    8CHTO  C107 3080   6.482   9.914   1.203 -0.5972  0.0993  0.1075
    8CHTO   O70 3081   6.345   9.878   1.209 -0.0166 -0.1234  0.0292
    8CHTO  H170 3082   6.299   9.927   1.274  0.8105  0.3247  0.2800
    8CHTO   O57 3083   6.343   9.852   0.773  0.2676  0.1583 -0.1052
    8CHTO   C85 3084   6.280   9.979   0.729  0.1495 -0.1050 -0.4652
    8CHTO  H157 3085   6.362  10.034   0.678 -2.7377  4.6941 -0.3050
    8CHTO   C83 3086   6.235  10.071   0.852 -0.0578 -0.2063 -0.3660
    8CHTO  H155 3087   6.323  10.094   0.913  0.9784 -0.6093 -1.6991
    8CHTO   O56 3088   6.140  10.000   0.938  0.0719 -0.6443  0.4026
    8CHTO  H135 3089   6.098  10.066   0.990 -0.2132 -1.1033  0.7671
    8CHTO   C81 3090   6.172  10.207   0.799  0.6563  0.3434  0.3461
    8CHTO  H153 3091   6.245  10.261   0.739 -0.0847  1.8727  0.8001
    8CHTO   N14 3092   6.151  10.305   0.905 -0.1919 -0.9394  0.0430
    8CHTO  H141 3093   6.112  10.262   0.995 -0.7098  2.4238  1.5109
    8CHTO  H142 3094   6.087  10.384   0.871  1.7690  0.0211 -1.4942
    8CHTO   C79 3095   6.048  10.174   0.697 -0.3243 -0.5090 -0.7887
    8CHTO  H151 3096   6.026  10.267   0.646  1.1044  0.1327 -0.2678
    8CHTO   O52 3097   6.084  10.075   0.584  0.1672  0.2559 -0.3109
    8CHTO   C86 3098   6.150   9.956   0.629  0.0559  0.4123 -0.2567
    8CHTO  H158 3099   6.067   9.904   0.682  0.2034  0.6228  0.1827
    8CHTO   C90 3100   6.181   9.867   0.502  0.1173 -0.0578 -0.5145
    8CHTO   O60 3101   6.061   9.805   0.453 -0.5127 -0.0583  0.2543
    8CHTO  H138 3102   6.061   9.715   0.479  1.3916  0.4447  2.1987
    8CHTO   O50 3103   5.931  10.140   0.779  0.2553 -0.8287 -0.1106
    8CHTO   C73 3104   5.789  10.135   0.790  0.2658 -0.2255 -0.1687
    8CHTO  H145 3105   5.745  10.118   0.690 -1.7702 -3.2290  1.1680
    8CHTO   C74 3106   5.733  10.273   0.842 -0.0689  0.0498 -0.3137
    8CHTO  H146 3107   5.768  10.353   0.775 -0.2706 -2.2819 -3.3397
    8CHTO   O54 3108   5.590  10.270   0.845  0.2403  0.1494 -0.0516
    8CHTO  H133 3109   5.561  10.187   0.877  0.0382  0.1768 -0.1603
    8CHTO   C75 3110   5.792  10.289   0.983 -0.4003  0.1097  0.1839
    8CHTO  H147 3111   5.902  10.286   0.974 -0.4501  1.1470 -0.7763
    8CHTO   N13 3112   5.757  10.419   1.043  0.1983 -0.0031 -0.1000
    8CHTO  H139 3113   5.766  10.494   0.966 -0.4081  2.3782  2.1041
    8CHTO  H140 3114   5.656  10.417   1.079  0.0048 -1.7700 -0.6576
    8CHTO   C76 3115   5.752  10.160   1.080  0.9955 -0.1399  1.2785
    8CHTO  H148 3116   5.646  10.172   1.103  0.3403 -0.0869 -1.5707
    8CHTO   O49 3117   5.777  10.030   1.022 -0.1153 -0.0834 -0.0682
    8CHTO   C77 3118   5.738  10.015   0.882 -0.1387  0.1916  0.4333
    8CHTO  H149 3119   5.630  10.008   0.873  0.3069 -2.6571 -4.7213
    8CHTO   C88 3120   5.781   9.876   0.837 -0.1107  0.3740 -0.0399
    8CHTO   O58 3121   5.750   9.852   0.693 -0.0810 -0.3004 -0.4925
    8CHTO  H136 3122   5.662   9.880   0.677  0.6895  1.3579 -2.0369
    8CHTO   O51 3123   5.849  10.166   1.190 -0.3128  0.6353  0.3790
    8CHTO   C78 3124   5.819  10.054   1.308 -0.1727  0.0217  0.2442
    8CHTO  H150 3125   5.818   9.953   1.263  2.1270  0.7346 -1.5629
    8CHTO   C80 3126   5.681  10.080   1.373  0.9096 -0.4742  0.5076
    8CHTO  H152 3127   5.660  10.189   1.373 -1.6216 -0.9341  2.0545
    8CHTO   O55 3128   5.567  10.020   1.298  0.0447 -0.1561  0.3746
    8CHTO  H134 3129   5.525   9.962   1.359 -0.2204 -1.0327 -0.6316
    8CHTO   C84 3130   5.675  10.022   1.524  0.5189 -0.3386 -0.6143
    8CHTO  H156 3131   5.651   9.916   1.520 -1.3674 -0.1450  3.3838
    8CHTO   N15 3132   5.559  10.077   1.596  0.0437 -0.1294  0.1428
    8CHTO  H143 3133   5.502  10.003   1.648  2.1238 -1.8956 -0.0316
    8CHTO  H144 3134   5.598  10.144   1.669 -0.7233  1.2816 -0.7189
    8CHTO   C87 3135   5.809  10.054   1.592 -0.6930  0.1778 -0.5955
    8CHTO  H159 3136   5.812  10.163   1.593 -0.9630  0.1876  1.2269
    8CHTO   O53 3137   5.908   9.985   1.526  0.8496  0.8253  0.3558
    8CHTO   C82 3138   5.938  10.060   1.406  0.0475  0.1008  0.2193
    8CHTO  H154 3139   5.966  10.162   1.430  0.5905 -0.2599  1.1440
    8CHTO   C89 3140   6.060   9.998   1.339  0.2348  0.8710 -0.4122
    8CHTO   O59 3141   6.182  10.054   1.385 -0.0739 -0.3727  0.3700
    8CHTO  H137 3142   6.233   9.994   1.436  1.4895  0.2892 -0.3727
    8CHTO   O45 3143   5.822  10.010   1.747  0.0401  0.3208 -0.0001
    8CHTO   C67 3144   5.801   9.872   1.784  0.5191  0.2713  0.2815
    8CHTO  H124 3145   5.712   9.838   1.731  0.6988 -1.8157  1.2862
    8CHTO   C65 3146   5.922   9.772   1.753 -0.0848 -0.2027  0.4991
    8CHTO  H122 3147   5.988   9.821   1.681 -1.2603  0.7492  0.0659
    8CHTO   O44 3148   5.876   9.655   1.683 -1.3097  0.1541 -0.0301
    8CHTO  H102 3149   5.813   9.680   1.618  0.7279 -0.0303 -2.1052
    8CHTO   C63 3150   6.012   9.759   1.878  0.2607  0.1623  0.4070
    8CHTO  H120 3151   6.025   9.857   1.925 -0.4110  0.0838  0.7757
    8CHTO   N11 3152   6.144   9.708   1.838  0.1678 -0.0959  0.3111
    8CHTO  H108 3153   6.215   9.788   1.844 -0.1059  0.2687 -1.1154
    8CHTO  H109 3154   6.147   9.658   1.744 -1.0288  0.5950 -0.1012
    8CHTO   C61 3155   5.931   9.677   1.991 -0.3842  0.1257  0.2058
    8CHTO  H118 3156   5.984   9.706   2.083  2.4303  0.6417 -1.5256
    8CHTO   O40 3157   5.789   9.724   2.006  0.2477 -0.2677  0.0050
    8CHTO   C68 3158   5.756   9.850   1.933  0.7655 -0.3977  0.5273
    8CHTO  H125 3159   5.795   9.933   1.996 -2.3004  1.3723  0.2293
    8CHTO   C72 3160   5.598   9.866   1.940  0.4592  0.9990 -0.1897
    8CHTO   O48 3161   5.537   9.847   2.070  0.0809  0.4223  0.6725
    8CHTO  H105 3162   5.521   9.928   2.114 -2.2894  0.9558 -1.0825
    8CHTO   O38 3163   5.954   9.534   1.976  0.2148 -0.0624 -0.4375
    8CHTO   C55 3164   5.859   9.433   2.027 -0.5334 -0.4959  0.0731
    8CHTO  H112 3165   5.924   9.345   2.015 -1.2442 -0.7153 -2.6692
    8CHTO   C56 3166   5.733   9.419   1.933  0.7644  0.1026 -0.1554
    8CHTO  H113 3167   5.702   9.522   1.910  1.1423  0.5094  1.1029
    8CHTO   O42 3168   5.768   9.372   1.801 -0.2937 -0.3099  0.1374
    8CHTO  H100 3169   5.829   9.301   1.803  0.5652  0.2606 -2.7694
    8CHTO   C57 3170   5.604   9.339   1.991 -0.0883  0.1901  0.4064
    8CHTO  H114 3171   5.623   9.235   1.963  0.5675 -0.7467  4.0403
    8CHTO   N10 3172   5.480   9.370   1.919  0.3046 -0.8296 -0.3517
    8CHTO  H106 3173   5.506   9.396   1.818  2.1429  2.2835  0.8549
    8CHTO  H107 3174   5.409   9.288   1.918 -0.7331  0.0579 -0.0147
    8CHTO   C58 3175   5.596   9.350   2.143 -0.2373 -0.6491 -0.6790
    8CHTO  H115 3176   5.561   9.452   2.170  1.7806 -0.5427  1.6209
    8CHTO   O37 3177   5.727   9.323   2.202 -0.5402  0.2106  0.8697
    8CHTO   C59 3178   5.823   9.433   2.178  0.0943  0.2018 -0.1091
    8CHTO  H116 3179   5.783   9.527   2.216 -0.7086 -0.5904  1.0510
    8CHTO   C70 3180   5.950   9.405   2.255  0.8873  0.2070  0.4095
    8CHTO   O46 3181   5.933   9.413   2.396  0.3332 -0.6747  0.5915
    8CHTO  H103 3182   5.869   9.353   2.430 -1.3074 -0.5679 -2.1524
    8CHTO   O39 3183   5.491   9.238   2.205  0.5259 -0.3524 -0.0137
    8CHTO   C60 3184   5.364   9.292   2.243  0.2381  0.6528 -0.6946
    8CHTO  H117 3185   5.358   9.396   2.211  0.5308 -0.4435 -4.6676
    8CHTO   C62 3186   5.257   9.217   2.162  0.5702  0.4353 -0.2365
    8CHTO  H119 3187   5.283   9.222   2.054 -1.0295  1.4444 -0.6015
    8CHTO   O43 3188   5.249   9.079   2.197  0.2178  0.3219 -0.2513
    8CHTO  H101 3189   5.191   9.060   2.268 -3.7179 -0.4014 -3.4630
    8CHTO   C66 3190   5.121   9.302   2.191 -0.3082  0.1734 -0.6653
    8CHTO  H123 3191   5.140   9.404   2.156 -0.9399  0.6299  0.3005
    8CHTO   N12 3192   5.002   9.263   2.111  0.1179  0.3698  0.3789
    8CHTO  H110 3193   4.931   9.344   2.112 -0.7129 -0.3477  2.0916
    8CHTO  H111 3194   5.029   9.253   2.007 -1.5009 -0.5811  0.0207
    8CHTO   C69 3195   5.094   9.313   2.342 -0.1618  0.7260 -0.1189
    8CHTO  H126 3196   5.044   9.219   2.375  1.5844  0.9727  3.4380
    8CHTO   O41 3197   5.219   9.344   2.437 -0.2421  0.1601  0.9462
    8CHTO   C64 3198   5.345   9.281   2.394 -0.3051 -0.4113  0.8200
    8CHTO  H121 3199   5.356   9.176   2.429  0.3167 -1.2478 -1.8258
    8CHTO   C71 3200   5.452   9.358   2.472  0.4983 -0.1314  0.0738
    8CHTO   O47 3201   5.571   9.290   2.491 -0.0947 -0.6444 -0.3000
    8CHTO  H104 3202   5.585   9.291   2.584 -0.0523  1.0182 -0.3164
    8CHTO   O34 3203   4.971   9.427   2.364  0.2678 -0.5474 -0.2805
    8CHTO   C49 3204   4.970   9.584   2.364  0.6208 -0.7282  0.2083
    8CHTO   H91 3205   5.003   9.626   2.458  1.2214 -1.3218  0.2627
    8CHTO   C47 3206   4.824   9.624   2.323  0.7003  0.3070  0.6913
    8CHTO   H89 3207   4.827   9.735   2.332 -3.3117  0.4844  0.9505
    8CHTO   O33 3208   4.724   9.582   2.407  0.1955  0.0578 -0.3488
    8CHTO   H70 3209   4.660   9.644   2.437  1.5266  1.5504 -0.5717
    8CHTO   C45 3210   4.806   9.592   2.162 -0.6015 -0.2137  0.2652
    8CHTO   H87 3211   4.835   9.487   2.151  2.2618  0.5497  0.1899
    8CHTO    N8 3212   4.670   9.608   2.116 -0.0381 -0.1508  0.1204
    8CHTO   H75 3213   4.616   9.514   2.111 -2.0286  0.9342  1.0719
    8CHTO   H76 3214   4.617   9.693   2.154  0.5337 -0.0199  0.6285
    8CHTO   C43 3215   4.913   9.671   2.071 -0.9135 -0.1359 -0.7740
    8CHTO   H85 3216   4.902   9.642   1.967  1.4615 -1.3581 -0.7188
    8CHTO   O29 3217   5.039   9.631   2.118 -0.6616  0.1164  0.3356
    8CHTO   C50 3218   5.071   9.631   2.260  0.8585 -0.5287 -0.1473
    8CHTO   H92 3219   5.161   9.569   2.275  0.0195 -1.4761  1.1079
    8CHTO   C54 3220   5.129   9.775   2.305 -0.8569  0.1304  0.0906
    8CHTO   O36 3221   5.245   9.812   2.234  0.3841 -0.2854 -0.1488
    8CHTO   H72 3222   5.280   9.896   2.259  1.1342 -0.5791 -0.1999
    8CHTO   O27 3223   4.895   9.815   2.071 -0.2032 -0.2055 -0.2490
    8CHTO   C37 3224   4.866   9.915   1.980 -0.0524 -0.0985 -0.5827
    8CHTO   H79 3225   4.817   9.869   1.893  0.2523 -1.1328 -0.2192
    8CHTO   C38 3226   4.776  10.017   2.045 -0.1767 -0.7432 -0.3142
    8CHTO   H80 3227   4.830  10.054   2.134 -1.8207  0.3142  0.2693
    8CHTO   O31 3228   4.658   9.943   2.093 -0.0246 -0.0678  0.9210
    8CHTO   H68 3229   4.638   9.951   2.184 -0.2493  1.6259  0.7291
    8CHTO   C39 3230   4.739  10.135   1.949  0.3673  0.0972  0.8705
    8CHTO   H81 3231   4.692  10.084   1.865 -1.3452 -1.5715  2.7982
    8CHTO    N7 3232   4.645  10.241   2.006 -0.1029 -0.2269  0.2113
    8CHTO   H73 3233   4.560  10.191   2.051  0.8423 -2.2959 -0.2140
    8CHTO   H74 3234   4.702  10.316   2.058  1.4824 -1.5435  0.4100
    8CHTO   C40 3235   4.871  10.200   1.887  0.1184 -0.0120  0.1032
    8CHTO   H82 3236   4.921  10.271   1.952  1.7960  0.2122 -1.3819
    8CHTO   O26 3237   4.964  10.094   1.848  0.2962 -0.6608  0.1002
    8CHTO   C41 3238   4.997   9.987   1.939  0.0586  0.6231  0.1865
    8CHTO   H83 3239   5.041  10.034   2.028  0.4779 -1.0676  0.8943
    8CHTO   C52 3240   5.096   9.899   1.872 -0.4425  0.0795 -0.0690
    8CHTO   O35 3241   5.217   9.970   1.822  0.1215  0.0836  0.3546
    8CHTO   H71 3242   5.174  10.038   1.775  0.5498  1.8392  2.4575
    8CHTO   O28 3243   4.840  10.279   1.768  0.4200  0.1807 -0.0351
    8CHTO   C42 3244   4.843  10.235   1.625  0.0823  0.4014  0.1178
    8CHTO   H84 3245   4.798  10.310   1.559  1.7501  0.4058 -1.0600
    8CHTO   C44 3246   4.763  10.103   1.606 -0.5360  0.5023  0.0453
    8CHTO   H86 3247   4.810  10.032   1.673  1.5251  0.1602 -1.7235
    8CHTO   O32 3248   4.620  10.122   1.639 -0.4480  0.5350 -0.6607
    8CHTO   H69 3249   4.577  10.038   1.642 -0.3927  0.5168 -0.2801
    8CHTO   C48 3250   4.777  10.052   1.458 -1.0919 -0.7895  0.2088
    8CHTO   H90 3251   4.716  10.130   1.410 -1.7793 -0.1316  2.1158
    8CHTO    N9 3252   4.704   9.922   1.437  0.3385 -0.3427  0.3374
    8CHTO   H77 3253   4.661   9.890   1.530  0.8280 -2.2495 -0.0701
    8CHTO   H78 3254   4.629   9.932   1.360 -0.9383 -1.9768  1.3314
    8CHTO   C51 3255   4.926  10.057   1.403  0.7635 -0.1402  0.5876
    8CHTO   H93 3256   4.974   9.970   1.448 -3.4408 -3.3977 -0.9423
    8CHTO   O30 3257   4.994  10.184   1.437 -0.4780  0.2546  0.3432
    8CHTO   C46 3258   4.986  10.216   1.576 -0.9085  0.8750  0.5157
    8CHTO   H88 3259   5.040  10.144   1.638  1.5163  0.1032 -2.3758
    8CHTO   C53 3260   5.064  10.350   1.591  0.0902  0.5228  0.0874
    8CHTO   O72 3261   5.208  10.343   1.575  0.3758 -0.4666  0.3510
    8CHTO  H199 3262   5.251  10.283   1.633  0.3766  1.1667  2.1047
    8CHTO   O22 3263   4.912  10.061   1.258 -0.4644 -0.0223 -0.1287
    8CHTO   C31 3264   5.007  10.056   1.146  0.2309  0.0696 -0.0370
    8CHTO   H59 3265   4.953  10.097   1.058  1.3647 -0.0753 -0.8040
    8CHTO   C29 3266   5.143  10.129   1.159  0.0253 -0.0394 -0.1325
    8CHTO   H57 3267   5.204  10.091   1.242 -2.0163 -1.2885  0.8230
    8CHTO   O21 3268   5.111  10.263   1.186  0.1455  0.1697 -0.1512
    8CHTO   H37 3269   5.194  10.305   1.200 -0.4339  0.7259  1.6321
    8CHTO   C27 3270   5.230  10.113   1.025 -0.2884 -0.3214 -0.8769
    8CHTO   H55 3271   5.188  10.171   0.941  2.3511  2.2984 -0.4559
    8CHTO    N5 3272   5.372  10.168   1.034  0.8689  0.1851 -0.4402
    8CHTO   H43 3273   5.412  10.126   1.126  1.4161  0.4761 -0.5471
    8CHTO   H44 3274   5.420  10.138   0.942 -0.1262  2.6208 -1.7950
    8CHTO   C25 3275   5.243   9.966   0.983 -0.1322  0.4773  0.0003
    8CHTO   H53 3276   5.301   9.906   1.054 -2.5595 -0.6391  1.1042
    8CHTO   O17 3277   5.109   9.903   0.988  0.0086  0.0765 -0.1897
    8CHTO   C32 3278   5.035   9.904   1.113 -0.1669  0.0983 -0.1894
    8CHTO   H60 3279   5.076   9.862   1.204  0.8029  2.4024  0.4717
    8CHTO   C36 3280   4.912   9.812   1.085 -0.1828 -0.4145 -0.0420
    8CHTO   O25 3281   4.811   9.880   1.007 -0.9030  0.2703  0.3184
    8CHTO   H40 3282   4.817   9.863   0.915 -2.5640 -0.2043  0.2769
    8CHTO   O15 3283   5.312   9.932   0.818  0.0092 -0.3650  0.0143
    8CHTO   C19 3284   5.319   9.927   0.677  0.1983 -0.0398 -0.4978
    8CHTO   H47 3285   5.219   9.947   0.636  0.7705  2.2797 -0.8566
    8CHTO   C20 3286   5.420  10.038   0.631 -0.2711  0.5762  0.6593
    8CHTO   H48 3287   5.516  10.031   0.684  1.7894  2.3799 -2.6337
    8CHTO   O19 3288   5.361  10.164   0.660  0.3524  0.4074 -0.0988
    8CHTO   H35 3289   5.276  10.170   0.622  0.3955 -1.1983 -0.5017
    8CHTO   C21 3290   5.460  10.037   0.480  0.1046 -0.2625 -0.1526
    8CHTO   H49 3291   5.375  10.058   0.416  0.8644  2.3303 -0.3845
    8CHTO    N4 3292   5.570  10.135   0.446 -0.3739  0.1999  0.2790
    8CHTO   H41 3293   5.613  10.127   0.347 -0.2142 -0.0675  0.3698
    8CHTO   H42 3294   5.650  10.110   0.513  1.8242 -0.8810 -2.6408
    8CHTO   C22 3295   5.496   9.891   0.452 -0.6209  0.1084  0.7659
    8CHTO   H50 3296   5.585   9.862   0.507 -1.0001  1.4984  2.1528
    8CHTO   O14 3297   5.390   9.800   0.488 -0.3987 -0.3804  0.0666
    8CHTO   C23 3298   5.363   9.795   0.626  0.4771  0.1957 -0.1519
    8CHTO   H51 3299   5.452   9.761   0.681 -0.5171  0.2153  1.4943
    8CHTO   C34 3300   5.263   9.679   0.641 -0.5371  0.3001 -0.5246
    8CHTO   O23 3301   5.138   9.725   0.578  0.1861  0.3003  0.3309
    8CHTO   H38 3302   5.123   9.698   0.490  1.7725  0.0721  0.1126
    8CHTO   O16 3303   5.513   9.861   0.311  0.5314 -0.2095 -0.1833
    8CHTO   C24 3304   5.623   9.762   0.281 -0.0417 -0.2055 -0.4130
    8CHTO   H52 3305   5.662   9.714   0.371  2.3518 -1.0266 -1.8425
    8CHTO   C26 3306   5.734   9.833   0.206 -0.0867 -0.2157  0.4688
    8CHTO   H54 3307   5.685   9.888   0.123 -0.4044 -0.1796  0.6831
    8CHTO   O20 3308   5.789   9.932   0.285  0.1580 -0.2682 -0.5848
    8CHTO   H36 3309   5.734  10.008   0.292 -1.5582 -1.4898 -0.5006
    8CHTO   C30 3310   5.839   9.724   0.154  0.4948 -0.2177  0.6712
    8CHTO   H58 3311   5.881   9.680   0.246  0.1504  1.6491  1.7656
    8CHTO    N6 3312   5.940   9.791   0.069 -0.1130  0.6054  0.0757
    8CHTO   H45 3313   5.898   9.844  -0.015  2.4977  0.4427 -1.3927
    8CHTO   H46 3314   6.007   9.856   0.124  0.4711 -0.1191  0.2221
    8CHTO   C33 3315   5.760   9.615   0.080 -0.2262  0.3143  0.0518
    8CHTO   H61 3316   5.728   9.650  -0.018  0.3483  0.9643  0.0975
    8CHTO   O18 3317   5.652   9.563   0.157 -0.4031  0.0624  0.2935
    8CHTO   C28 3318   5.552   9.658   0.202  0.3576  0.2550  0.8438
    8CHTO   H56 3319   5.503   9.708   0.118 -0.8284  0.2836  1.5370
    8CHTO   C35 3320   5.438   9.578   0.276  0.1980  0.5352 -1.1027
    8CHTO   O24 3321   5.485   9.505   0.393 -0.0009 -0.9894 -0.2683
    8CHTO   H39 3322   5.558   9.457   0.360  0.2512 -0.2072 -0.8730
    8CHTO    O9 3323   5.852   9.509   0.046 -0.1567 -0.1354  0.2360
    8CHTO   C13 3324   5.803   9.372  -0.018  0.0104  0.1096  0.3981
    8CHTO   H26 3325   5.735   9.400  -0.101 -0.0043 -2.6070 -0.5614
    8CHTO   C11 3326   5.728   9.279   0.086 -0.1867 -0.2314 -0.2615
    8CHTO   H24 3327   5.621   9.307   0.078  0.4267  2.0935 -0.6861
    8CHTO    O8 3328   5.757   9.311   0.220  0.4586 -0.5414  0.7986
    8CHTO    H3 3329   5.848   9.305   0.241  1.0595 -0.8887 -1.6938
    8CHTO    C9 3330   5.752   9.125   0.051  0.3864 -0.5318 -0.0707
    8CHTO   H22 3331   5.724   9.119  -0.055 -1.4669  0.4552  0.3567
    8CHTO    N2 3332   5.664   9.032   0.135  0.5251  0.2183  0.2724
    8CHTO   H10 3333   5.727   8.963   0.189 -1.0004  0.1989  2.0526
    8CHTO   H11 3334   5.585   8.982   0.081 -2.1598  1.5137  2.8444
    8CHTO    C7 3335   5.905   9.101   0.075 -0.2242 -0.5917 -0.6174
    8CHTO   H20 3336   5.916   9.007   0.017  0.0193 -1.2104  0.4278
    8CHTO    O4 3337   5.984   9.206   0.022 -0.3782 -0.1420 -0.0841
    8CHTO   C14 3338   5.925   9.290  -0.083 -0.5610  0.2283 -0.3542
    8CHTO   H27 3339   5.885   9.225  -0.164  2.5822  1.3029 -2.9141
    8CHTO   C18 3340   6.043   9.378  -0.142  0.3305  0.4754  1.2818
    8CHTO   O13 3341   6.122   9.287  -0.226  0.3687  0.0550 -0.5085
    8CHTO    H7 3342   6.115   9.315  -0.315  1.8435  0.2666 -0.5637
    8CHTO    O2 3343   5.939   9.082   0.226  0.0997 -0.2735 -0.7970
    8CHTO    C1 3344   6.061   9.017   0.271  0.2634  0.2144 -0.7249
    8CHTO   H14 3345   6.073   9.027   0.381 -1.1468  0.2497 -0.5627
    8CHTO    C2 3346   6.197   9.065   0.198 -0.3642  0.1110 -0.5679
    8CHTO   H15 3347   6.178   9.045   0.091 -0.3467  0.9496 -0.7277
    8CHTO    O6 3348   6.201   9.208   0.208  0.1029  0.6192  0.0148
    8CHTO    H1 3349   6.204   9.236   0.298 -2.2252 -1.2181  0.7165
    8CHTO    C3 3350   6.315   8.984   0.264 -0.5444  0.3579 -0.6337
    8CHTO   H16 3351   6.321   9.012   0.370  0.3802  1.3469 -0.9339
    8CHTO    N1 3352   6.452   9.020   0.210 -0.2352  0.3561 -0.0914
    8CHTO    H8 3353   6.468   9.127   0.207 -2.5661  0.6799 -1.7449
    8CHTO    H9 3354   6.465   8.991   0.107 -0.7243 -0.6414  0.1226
    8CHTO    C4 3355   6.287   8.828   0.265  0.5269 -0.5664  0.0095
    8CHTO   H17 3356   6.317   8.782   0.172  0.7191 -1.2182  0.3939
    8CHTO    O1 3357   6.152   8.800   0.300 -0.2950  0.0976  0.0151
    8CHTO    C5 3358   6.044   8.865   0.242  0.4704 -0.2240  0.3561
    8CHTO   H18 3359   6.045   8.841   0.136  2.4645  0.3077  0.2518
    8CHTO   C16 3360   5.922   8.799   0.311 -0.3343 -0.1739  0.0779
    8CHTO   O11 3361   5.889   8.675   0.250 -0.3096  0.1717 -0.4627
    8CHTO    H5 3362   5.931   8.668   0.166  1.8816 -0.1428  0.6205
    8CHTO    O3 3363   6.363   8.763   0.370  0.0917  0.8293 -0.7821
    8CHTO    C6 3364   6.370   8.617   0.384 -0.0727 -0.4730 -0.5826
    8CHTO   H19 3365   6.292   8.560   0.334 -1.5254  0.8384  0.1400
    8CHTO    C8 3366   6.512   8.570   0.339 -0.5606  0.2334  0.2963
    8CHTO   H21 3367   6.587   8.633   0.387 -0.0520 -0.0006 -0.1949
    8CHTO    O7 3368   6.505   8.582   0.192  0.0905 -0.2155  0.0376
    8CHTO    H2 3369   6.475   8.667   0.163  0.7608 -0.5668 -1.7844
    8CHTO   C12 3370   6.543   8.423   0.383  0.2821  0.4854 -0.6188
    8CHTO   H25 3371   6.479   8.355   0.323 -1.4956  1.8282 -0.2726
    8CHTO    N3 3372   6.682   8.379   0.345 -0.2713 -0.4615 -0.3020
    8CHTO   H12 3373   6.694   8.369   0.238 -0.1364  0.6019 -0.3898
    8CHTO   H13 3374   6.750   8.459   0.371 -0.0172 -0.9919  0.6867
    8CHTO   C15 3375   6.516   8.412   0.534  0.2457 -0.1739  0.9144
    8CHTO   H28 3376   6.596   8.436   0.604 -0.5910 -0.5157  2.0048
    8CHTO   O10 3377   6.489   8.270   0.561 -0.3165 -0.0302 -0.1337
    8CHTO    H4 3378   6.569   8.224   0.544 -0.7299 -1.0352  0.6064
    8CHTO    O5 3379   6.389   8.463   0.573  0.4699  0.1528 -0.4097
    8CHTO   C10 3380   6.359   8.600   0.537 -0.3069  0.0042  0.4945
    8CHTO   H23 3381   6.438   8.663   0.578  1.9143 -0.9141 -2.2120
    8CHTO   C17 3382   6.222   8.638   0.595  0.1278 -0.2271 -0.3308
    8CHTO   O12 3383   6.221   8.778   0.636  0.0430  0.4839  0.3350
    8CHTO    H6 3384   6.183   8.791   0.720 -1.4281 -0.2940 -0.1976
    9CHTO  H203 3385   7.748   4.708   1.463 -0.2745 -0.1521 -2.0688
    9CHTO   O82 3386   7.832   4.669   1.446  0.0942  0.0459 -0.7576
    9CHTO  C123 3387   7.837   4.633   1.304 -0.7184  0.0546 -0.1271
    9CHTO  H227 3388   7.912   4.694   1.251 -1.2745  0.9379  0.1004
    9CHTO   O77 3389   7.882   4.497   1.310  0.2757  0.0172 -0.1689
    9CHTO  C118 3390   7.910   4.450   1.177  0.4025  0.0442 -0.4935
    9CHTO  H222 3391   7.982   4.524   1.141  1.5751 -0.2363  1.1784
    9CHTO  C125 3392   7.980   4.309   1.182  0.1270 -0.2814 -0.3575
    9CHTO   O84 3393   7.896   4.214   1.241 -0.5032  0.4471 -0.1534
    9CHTO  H205 3394   7.926   4.125   1.237 -1.2266  0.1992 -0.1293
    9CHTO  C114 3395   7.784   4.445   1.085 -0.3479  0.1390 -0.1611
    9CHTO  H218 3396   7.713   4.370   1.120 -1.5049  1.0083 -0.6092
    9CHTO  C116 3397   7.713   4.587   1.085 -0.1701 -0.1481  0.0452
    9CHTO  H220 3398   7.779   4.660   1.034  0.2919  0.3605  1.3491
    9CHTO   O79 3399   7.589   4.581   1.004  0.4318 -0.2071 -0.8111
    9CHTO  H201 3400   7.535   4.655   1.025  1.3237  0.1188  0.4036
    9CHTO  C120 3401   7.701   4.642   1.233 -0.0547 -0.4159 -0.4562
    9CHTO  H224 3402   7.633   4.565   1.276  1.9889 -1.9658  0.0453
    9CHTO   N21 3403   7.638   4.779   1.239 -0.0622 -0.4982 -0.2360
    9CHTO  H211 3404   7.666   4.846   1.159 -2.3658  0.9223  0.1053
    9CHTO  H212 3405   7.671   4.826   1.331  2.7074 -1.7902 -0.5090
    9CHTO   O75 3406   7.833   4.417   0.949 -0.1807 -0.2823  0.0184
    9CHTO  C112 3407   7.733   4.342   0.851  0.4019  0.0376 -0.0019
    9CHTO  H216 3408   7.631   4.366   0.885  0.0580 -2.2664  0.6608
    9CHTO   O73 3409   7.762   4.203   0.864  0.1115 -0.2392 -0.3023
    9CHTO  C113 3410   7.681   4.120   0.781  0.3130  0.6153  0.2321
    9CHTO  H217 3411   7.578   4.117   0.822  0.3840  1.8413  0.5142
    9CHTO  C124 3412   7.728   3.974   0.792 -0.2952  0.0937  0.3651
    9CHTO   O83 3413   7.660   3.906   0.899 -0.4016  0.1408 -0.5085
    9CHTO  H204 3414   7.717   3.838   0.930 -0.6704 -0.3374 -1.0546
    9CHTO  C109 3415   7.669   4.157   0.632  0.4268 -0.4559 -0.4800
    9CHTO  H213 3416   7.759   4.118   0.582  1.5119  0.4520  0.7362
    9CHTO  C110 3417   7.654   4.312   0.613  0.2833  0.2510  0.3428
    9CHTO  H214 3418   7.552   4.348   0.628  0.9379  2.2730  0.1090
    9CHTO   O78 3419   7.683   4.336   0.476  0.0674  0.4323  0.2344
    9CHTO  H200 3420   7.684   4.256   0.427  0.5539  1.2210 -1.0446
    9CHTO  C111 3421   7.753   4.392   0.706  0.3877 -0.2615  0.3374
    9CHTO  H215 3422   7.856   4.375   0.672  0.4208  0.5974 -0.0186
    9CHTO   N19 3423   7.719   4.542   0.697 -0.0537  0.2247  0.0727
    9CHTO  H207 3424   7.613   4.563   0.699  0.0363  0.6749  0.1212
    9CHTO  H208 3425   7.783   4.600   0.762 -0.6836  2.0768 -0.9292
    9CHTO   O74 3426   7.555   4.079   0.577  0.5893 -0.3601  0.1090
    9CHTO  C115 3427   7.578   4.017   0.431  0.0997  0.6531  0.1885
    9CHTO  H219 3428   7.671   4.051   0.386  0.4729  0.3958  0.7635
    9CHTO   O76 3429   7.576   3.854   0.429  0.1019 -0.1047 -0.1687
    9CHTO  C122 3430   7.449   3.795   0.457 -0.3649  0.5928 -0.6043
    9CHTO  H226 3431   7.411   3.826   0.554 -0.7697 -0.3504 -0.4600
    9CHTO  C126 3432   7.469   3.644   0.459  0.2260 -0.2615  0.2724
    9CHTO   O85 3433   7.528   3.599   0.578 -0.0589  0.2933 -0.5381
    9CHTO  H206 3434   7.458   3.564   0.628  0.2098  0.7201  0.1436
    9CHTO  C121 3435   7.343   3.842   0.358 -0.4322  0.6145 -0.0091
    9CHTO  H225 3436   7.373   3.821   0.253 -1.9670  2.4676 -0.8498
    9CHTO   O81 3437   7.220   3.776   0.376  0.0303 -0.2617 -0.1732
    9CHTO  H202 3438   7.161   3.823   0.432  1.4255 -0.0772  1.1816
    9CHTO  C119 3439   7.327   3.994   0.372  1.1871  0.0347  0.0551
    9CHTO  H223 3440   7.261   4.028   0.292  1.6824 -0.8216 -0.7334
    9CHTO  C117 3441   7.461   4.073   0.344  0.1776  0.2570  0.2981
    9CHTO  H221 3442   7.456   4.179   0.367  0.7582  0.0597  1.3712
    9CHTO   N20 3443   7.500   4.065   0.196  0.3525  0.1238  0.0759
    9CHTO  H209 3444   7.470   3.967   0.161  1.8975 -0.5989  0.7175
    9CHTO  H210 3445   7.459   4.148   0.139 -0.0465  0.2803  0.5938
    9CHTO   O80 3446   7.258   4.038   0.503  0.0619 -0.6225 -0.3224
    9CHTO  C103 3447   7.147   4.159   0.509 -0.3219 -0.4358 -0.4423
    9CHTO  H190 3448   7.113   4.175   0.612 -0.1227 -0.3409 -0.3906
    9CHTO  C101 3449   7.195   4.290   0.440 -0.4457  0.7295  0.2551
    9CHTO  H188 3450   7.231   4.251   0.345 -0.2068 -0.7040  0.9204
    9CHTO   O68 3451   7.321   4.343   0.522  0.2783 -0.0124  0.1500
    9CHTO  H168 3452   7.364   4.403   0.465 -1.0502 -0.5847 -1.4982
    9CHTO   C99 3453   7.084   4.403   0.423 -0.0669 -0.2792  0.1242
    9CHTO  H186 3454   7.052   4.432   0.525  0.5038  0.6496  0.0509
    9CHTO   N17 3455   7.138   4.524   0.346  0.7041 -0.2000  0.1114
    9CHTO  H174 3456   7.121   4.509   0.241  0.4183  1.3125 -0.0672
    9CHTO  H175 3457   7.105   4.623   0.377  1.3603  0.3880 -1.0457
    9CHTO   C97 3458   6.958   4.338   0.355  0.1879 -0.3385 -0.1427
    9CHTO  H184 3459   6.984   4.333   0.248  0.2905  2.1752 -0.2564
    9CHTO   O64 3460   6.918   4.213   0.414 -0.1318 -0.7059 -0.1274
    9CHTO  C104 3461   7.019   4.111   0.422  0.3913 -0.1755  1.0025
    9CHTO  H191 3462   7.056   4.077   0.325  0.6715 -2.6598  1.9561
    9CHTO  C108 3463   6.959   3.985   0.484  0.2490  0.1249  0.4826
    9CHTO   O71 3464   6.885   3.996   0.604 -0.0649  0.3633 -0.4048
    9CHTO  H171 3465   6.851   3.913   0.631 -0.9529  0.6926 -0.4940
    9CHTO   O62 3466   6.837   4.421   0.368 -0.0023 -0.6495  0.4786
    9CHTO   C91 3467   6.781   4.478   0.251 -0.3898  0.2875  0.3908
    9CHTO  H178 3468   6.833   4.448   0.160 -1.5639  0.2201 -0.2680
    9CHTO   C92 3469   6.803   4.633   0.255 -0.2410  0.1825 -0.3186
    9CHTO  H179 3470   6.905   4.653   0.291  0.3308 -0.2770 -1.6640
    9CHTO   O66 3471   6.793   4.684   0.125  0.1914 -0.3090  0.1416
    9CHTO  H166 3472   6.855   4.643   0.069  2.3081 -0.9264  2.8463
    9CHTO   C93 3473   6.689   4.715   0.333 -0.0827  0.7551  0.1371
    9CHTO  H180 3474   6.705   4.814   0.288 -1.5222  0.9100 -0.0479
    9CHTO   N16 3475   6.696   4.723   0.480 -0.3055  0.0922  0.2882
    9CHTO  H172 3476   6.798   4.712   0.512 -0.0376  1.4241 -0.0850
    9CHTO  H173 3477   6.632   4.654   0.532 -0.6784  0.6287  0.5516
    9CHTO   C94 3478   6.546   4.669   0.279 -0.4237  0.5039  0.6063
    9CHTO  H181 3479   6.479   4.640   0.360 -1.3187  1.8657  0.3782
    9CHTO   O61 3480   6.558   4.560   0.179  0.0926 -0.2430 -0.1951
    9CHTO   C95 3481   6.627   4.443   0.227 -0.4266 -0.2718  0.0930
    9CHTO  H182 3482   6.584   4.413   0.322  1.4839  0.0689  1.1066
    9CHTO  C106 3483   6.591   4.322   0.131  0.3654 -0.6758  0.0573
    9CHTO   O69 3484   6.693   4.225   0.136 -0.0465 -0.3162 -0.5505
    9CHTO  H169 3485   6.727   4.209   0.222 -0.8892  0.2948 -0.0987
    9CHTO   O63 3486   6.484   4.784   0.206  0.2151  0.0808  0.0151
    9CHTO   C96 3487   6.378   4.853   0.298  0.5326  0.1436 -0.1195
    9CHTO  H183 3488   6.405   4.836   0.402  0.2199 -0.4701 -0.1353
    9CHTO   C98 3489   6.235   4.805   0.276  0.1781 -0.5335  0.2684
    9CHTO  H185 3490   6.202   4.820   0.172  2.5145  0.6196 -0.3337
    9CHTO   O67 3491   6.237   4.665   0.299  0.1879 -0.0520 -0.2059
    9CHTO  H167 3492   6.156   4.632   0.332 -0.6443  2.3253  0.2235
    9CHTO  C102 3493   6.137   4.887   0.379 -0.1295  0.7145 -0.1328
    9CHTO  H189 3494   6.153   4.833   0.474  3.0652  1.2086 -0.3294
    9CHTO   N18 3495   5.993   4.876   0.351 -0.0940  0.1742  0.3450
    9CHTO  H176 3496   5.955   4.780   0.320  0.9610 -0.5160  1.1636
    9CHTO  H177 3497   5.926   4.907   0.430 -0.0470 -0.8025  0.7780
    9CHTO  C105 3498   6.181   5.036   0.389  0.3347  0.7709  0.2220
    9CHTO  H192 3499   6.135   5.094   0.309  0.5168  0.1973 -0.3056
    9CHTO   O65 3500   6.317   5.067   0.379 -0.4393  0.5123  0.5732
    9CHTO  C100 3501   6.388   5.007   0.272  0.2488 -0.7167  0.3513
    9CHTO  H187 3502   6.333   5.027   0.179  0.9675 -2.4827 -0.4804
    9CHTO  C107 3503   6.529   5.071   0.263 -0.8012  0.2529  0.3497
    9CHTO   O70 3504   6.605   5.020   0.150  0.3069  0.1602 -0.0154
    9CHTO  H170 3505   6.573   5.053   0.068  0.1319  3.9069  1.4282
    9CHTO   O57 3506   6.138   5.077   0.531  0.6259 -0.6576  0.6970
    9CHTO   C85 3507   6.109   5.216   0.564 -0.5684  0.3202  0.4974
    9CHTO  H157 3508   6.076   5.264   0.469  0.3243  0.1118  0.0755
    9CHTO   C83 3509   6.235   5.305   0.597 -0.0512  0.2209  0.0721
    9CHTO  H155 3510   6.293   5.322   0.506 -2.1712 -2.0929 -1.7785
    9CHTO   O56 3511   6.319   5.224   0.683  0.1386  0.0530  0.6695
    9CHTO  H135 3512   6.391   5.272   0.720 -0.2623  0.7706  0.5103
    9CHTO   C81 3513   6.196   5.445   0.652 -0.0687 -0.4330 -0.0757
    9CHTO  H153 3514   6.133   5.496   0.579 -0.8244  0.9537  1.5172
    9CHTO   N14 3515   6.312   5.540   0.666 -0.1017  0.9138 -0.4319
    9CHTO  H141 3516   6.345   5.539   0.564  0.0517 -1.1361 -0.3925
    9CHTO  H142 3517   6.385   5.483   0.721  0.5754  0.2727 -1.9711
    9CHTO   C79 3518   6.122   5.431   0.782 -0.2837  0.7002  0.2610
    9CHTO  H151 3519   6.098   5.532   0.817 -1.0905  1.0679 -1.2951
    9CHTO   O52 3520   5.993   5.365   0.746 -0.4916 -0.0771 -1.0325
    9CHTO   C86 3521   6.001   5.233   0.682  0.3929  0.4021  1.0538
    9CHTO  H158 3522   6.034   5.162   0.760  0.9975  0.4491  0.8378
    9CHTO   C90 3523   5.860   5.182   0.634 -0.2105  0.1541  0.1049
    9CHTO   O60 3524   5.768   5.175   0.746  0.2532 -0.4367  0.2289
    9CHTO  H138 3525   5.679   5.170   0.720  0.1395 -1.5994  0.8129
    9CHTO   O50 3526   6.185   5.351   0.889  0.0292 -0.4759 -0.6038
    9CHTO   C73 3527   6.143   5.324   1.026  0.3515 -0.1532 -0.3944
    9CHTO  H145 3528   6.035   5.305   1.029  0.4154 -0.5208 -0.3870
    9CHTO   C74 3529   6.167   5.445   1.116 -0.5145 -0.0337 -0.2622
    9CHTO  H146 3530   6.116   5.531   1.070 -0.6964  0.2839  0.5238
    9CHTO   O54 3531   6.101   5.419   1.245 -0.3394 -0.5696  0.2304
    9CHTO  H133 3532   6.163   5.435   1.314  0.9817 -1.0541 -0.8359
    9CHTO   C75 3533   6.325   5.467   1.128 -0.9377 -0.0844  0.3867
    9CHTO  H147 3534   6.370   5.492   1.031 -1.1905  0.7327  0.4733
    9CHTO   N13 3535   6.348   5.588   1.207  0.1221  0.0361  0.0152
    9CHTO  H139 3536   6.452   5.593   1.236  0.5430  1.2631 -1.6615
    9CHTO  H140 3537   6.281   5.582   1.292 -1.5796  2.5603 -1.0814
    9CHTO   C76 3538   6.394   5.339   1.190 -0.2963 -0.2088 -0.0424
    9CHTO  H148 3539   6.357   5.310   1.289 -0.7136  1.0527  0.1689
    9CHTO   O49 3540   6.368   5.221   1.109  0.2581  0.8383  0.1998
    9CHTO   C77 3541   6.226   5.196   1.081  0.2639  0.3670 -0.2464
    9CHTO  H149 3542   6.192   5.161   1.178  2.5789 -1.1593  0.0618
    9CHTO   C88 3543   6.216   5.080   0.981 -0.1739 -0.4209  0.0974
    9CHTO   O58 3544   6.080   5.031   0.969  0.4175 -0.2212  0.6848
    9CHTO  H136 3545   6.054   5.021   0.880  0.4655  0.4359  0.5956
    9CHTO   O51 3546   6.557   5.350   1.164 -0.4431 -0.3493 -0.0681
    9CHTO   C78 3547   6.637   5.281   1.273  0.4352  0.2555 -0.1406
    9CHTO  H150 3548   6.586   5.192   1.315  0.9376 -0.3143 -0.7383
    9CHTO   C80 3549   6.662   5.379   1.388  0.2343  0.1083 -0.4889
    9CHTO  H152 3550   6.702   5.474   1.347 -1.6014  1.2120  0.2463
    9CHTO   O55 3551   6.541   5.405   1.468 -0.1146  0.2276 -1.0778
    9CHTO  H134 3552   6.550   5.494   1.499  0.1350 -0.3697  0.5985
    9CHTO   C84 3553   6.769   5.321   1.492 -0.1530  0.1348  0.3767
    9CHTO  H156 3554   6.718   5.244   1.549  1.6328 -1.4355 -0.1091
    9CHTO   N15 3555   6.819   5.418   1.595 -0.0381 -0.2649 -0.1708
    9CHTO  H143 3556   6.828   5.522   1.571 -0.4845 -0.1817  0.0085
    9CHTO  H144 3557   6.911   5.379   1.632 -1.1534 -2.9624 -0.1417
    9CHTO   C87 3558   6.889   5.262   1.417  0.1106 -0.3768  0.6994
    9CHTO  H159 3559   6.957   5.333   1.371 -2.5755  0.2422 -2.5293
    9CHTO   O53 3560   6.839   5.170   1.305  0.2399  0.0168  0.3034
    9CHTO   C82 3561   6.768   5.234   1.208  0.5618 -0.1665 -0.2121
    9CHTO  H154 3562   6.823   5.323   1.178 -1.1313  1.5183  1.6078
    9CHTO   C89 3563   6.742   5.156   1.076 -0.2019 -0.2549 -0.0707
    9CHTO   O59 3564   6.677   5.030   1.099  0.4675  0.3156  0.3924
    9CHTO  H137 3565   6.727   4.982   1.163 -1.1136 -0.8680  0.7805
    9CHTO   O45 3566   6.983   5.166   1.527 -0.0890 -0.4996  0.0638
    9CHTO   C67 3567   7.062   5.059   1.473 -0.1857  0.0565  0.0102
    9CHTO  H124 3568   7.065   5.070   1.364  1.4479  0.3441  0.0676
    9CHTO   C65 3569   7.207   5.064   1.524  0.0930 -0.2624 -0.5117
    9CHTO  H122 3570   7.227   5.161   1.568  0.4710 -0.1263 -0.9851
    9CHTO   O44 3571   7.298   5.045   1.419  0.1220  0.3178  0.1514
    9CHTO  H102 3572   7.282   5.114   1.358 -0.7999  1.5098  1.6873
    9CHTO   C63 3573   7.223   4.956   1.647 -0.1743  0.0650 -0.2448
    9CHTO  H120 3574   7.149   4.982   1.723  0.2180  1.0130 -0.1795
    9CHTO   N11 3575   7.349   4.965   1.724 -0.3790  0.5030  0.9146
    9CHTO  H108 3576   7.358   5.061   1.770  0.3516  0.7691  0.2326
    9CHTO  H109 3577   7.352   4.903   1.811  1.6819  2.3625  2.2421
    9CHTO   C61 3578   7.195   4.807   1.598 -0.1010 -0.2904  0.4492
    9CHTO  H118 3579   7.166   4.744   1.683  0.5002 -2.5226 -0.9867
    9CHTO   O40 3580   7.090   4.807   1.495  0.0739  0.1372  0.0263
    9CHTO   C68 3581   6.999   4.917   1.497  0.3980 -0.3418 -0.4952
    9CHTO  H125 3582   6.954   4.933   1.597  1.9165  1.2710 -0.0481
    9CHTO   C72 3583   6.879   4.883   1.403 -0.1223  0.1674  0.4358
    9CHTO   O48 3584   6.811   4.758   1.434  0.0165 -0.1145  0.4225
    9CHTO  H105 3585   6.864   4.689   1.400  0.7008  1.2352 -1.3500
    9CHTO   O38 3586   7.305   4.739   1.530  0.1656  0.0757 -0.3722
    9CHTO   C55 3587   7.296   4.593   1.520 -0.2136 -0.0772 -0.1739
    9CHTO  H112 3588   7.195   4.557   1.543  0.3157 -1.1270  0.5157
    9CHTO   C56 3589   7.403   4.518   1.612 -0.3870  0.1266 -0.3306
    9CHTO  H113 3590   7.495   4.577   1.595 -2.3284  3.2611 -0.3317
    9CHTO   O42 3591   7.384   4.534   1.754  0.2498  0.1079  0.2872
    9CHTO  H100 3592   7.471   4.526   1.788  0.3702  0.2041  0.0072
    9CHTO   C57 3593   7.417   4.367   1.577  0.2053 -0.0927  0.3617
    9CHTO  H114 3594   7.332   4.316   1.623 -2.2545  2.6817 -0.9610
    9CHTO   N10 3595   7.543   4.308   1.633 -0.3577 -0.2065  0.5388
    9CHTO  H106 3596   7.633   4.308   1.573 -0.0110 -0.9525  1.0583
    9CHTO  H107 3597   7.533   4.209   1.674 -0.7677 -0.7582 -0.8793
    9CHTO   C58 3598   7.400   4.342   1.426 -0.1174 -0.3746  0.1056
    9CHTO  H115 3599   7.496   4.366   1.375  0.1264 -0.0948  0.6954
    9CHTO   O37 3600   7.295   4.421   1.367  0.3050  0.0968  0.1174
    9CHTO   C59 3601   7.320   4.559   1.375 -0.4152  0.0504 -0.1468
    9CHTO  H116 3602   7.416   4.588   1.335 -0.2922  0.7431  0.6304
    9CHTO   C70 3603   7.227   4.635   1.275  0.3576 -0.0544  0.0754
    9CHTO   O46 3604   7.282   4.686   1.152  0.1712  0.1270 -0.2024
    9CHTO  H103 3605   7.332   4.616   1.115  0.3202 -0.8164  1.7271
    9CHTO   O39 3606   7.375   4.176   1.410 -0.0910 -0.3544 -0.9287
    9CHTO   C60 3607   7.331   4.117   1.286 -0.4504  0.7529  0.0671
    9CHTO  H117 3608   7.223   4.104   1.290 -0.5051  1.1159 -0.1879
    9CHTO   C62 3609   7.369   4.198   1.159  0.2534  0.1505 -0.0050
    9CHTO  H119 3610   7.327   4.300   1.169 -0.7668 -0.3144  0.5343
    9CHTO   O43 3611   7.509   4.217   1.141 -0.4089  0.2829 -0.2837
    9CHTO  H101 3612   7.535   4.297   1.182  0.3780 -0.2197  0.2101
    9CHTO   C66 3613   7.296   4.133   1.035  0.2555 -0.3411 -0.1177
    9CHTO  H123 3614   7.189   4.120   1.056 -0.0723  1.4566 -0.5638
    9CHTO   N12 3615   7.307   4.212   0.912  0.3374  0.1051 -0.1237
    9CHTO  H110 3616   7.397   4.197   0.854  0.5735  1.1997 -0.0639
    9CHTO  H111 3617   7.217   4.191   0.857  0.8135 -0.4049 -0.7012
    9CHTO   C69 3618   7.353   3.989   1.020  0.6687 -0.4344  0.1394
    9CHTO  H126 3619   7.461   4.000   0.993 -0.4225  1.4711 -3.7936
    9CHTO   O41 3620   7.340   3.908   1.160 -0.1259  0.1793 -0.2324
    9CHTO   C64 3621   7.390   3.977   1.285 -0.6505 -1.4157 -0.3103
    9CHTO  H121 3622   7.500   3.990   1.282 -0.4797 -2.5832  0.2596
    9CHTO   C71 3623   7.352   3.899   1.407 -0.5277 -0.1392 -0.2833
    9CHTO   O47 3624   7.430   3.777   1.410 -1.1366  0.2662 -0.3841
    9CHTO  H104 3625   7.520   3.802   1.411 -0.1552 -3.0137 -0.7773
    9CHTO   O34 3626   7.280   3.911   0.906 -0.4553  0.3922 -0.2575
    9CHTO   C49 3627   7.313   3.771   0.848  0.4919 -0.0146 -0.0620
    9CHTO   H91 3628   7.394   3.795   0.779 -0.2016  1.8181 -0.2600
    9CHTO   C47 3629   7.184   3.722   0.776 -0.3475  0.9235  0.1603
    9CHTO   H89 3630   7.219   3.629   0.727  1.7301  0.3917  2.5372
    9CHTO   O33 3631   7.148   3.815   0.675 -0.3956 -0.1382 -0.3866
    9CHTO   H70 3632   7.151   3.906   0.695 -1.1835 -0.2406  0.1937
    9CHTO   C45 3633   7.069   3.696   0.887  0.6425  0.5189  0.8665
    9CHTO   H87 3634   7.010   3.789   0.898 -0.0692  0.1288  0.3465
    9CHTO    N8 3635   6.970   3.591   0.841  0.0228  0.2953  0.1430
    9CHTO   H75 3636   6.886   3.602   0.908 -1.1074 -2.2332 -0.7973
    9CHTO   H76 3637   7.016   3.495   0.860 -0.4097 -0.0032 -0.2876
    9CHTO   C43 3638   7.128   3.668   1.039  0.6860 -0.1068 -0.1402
    9CHTO   H85 3639   7.143   3.772   1.069 -1.7674 -0.1649  1.4535
    9CHTO   O29 3640   7.248   3.598   1.024  0.4057 -0.0750 -0.1161
    9CHTO   C50 3641   7.355   3.667   0.955  0.0297  0.0498 -0.0153
    9CHTO   H92 3642   7.412   3.723   1.031 -2.9543  1.3458  1.3722
    9CHTO   C54 3643   7.458   3.567   0.907  0.1351  0.5825 -0.3425
    9CHTO   O36 3644   7.390   3.458   0.855  0.3376  0.0720  0.4561
    9CHTO   H72 3645   7.374   3.392   0.920  1.1480  1.0028  1.6119
    9CHTO   O27 3646   7.032   3.622   1.143  0.1903  0.4436 -0.0245
    9CHTO   C37 3647   7.002   3.615   1.284  0.7815 -0.1152  0.1780
    9CHTO   H79 3648   6.933   3.534   1.310  2.3206 -2.3858 -2.4490
    9CHTO   C38 3649   7.127   3.582   1.378 -0.0792  0.4126  0.3130
    9CHTO   H80 3650   7.205   3.655   1.353 -0.7121  0.6874 -0.9338
    9CHTO   O31 3651   7.173   3.453   1.343  0.0179  0.2071 -0.2308
    9CHTO   H68 3652   7.217   3.405   1.410 -2.7241 -2.5293 -0.3270
    9CHTO   C39 3653   7.082   3.588   1.530  0.4363 -0.1926  0.2205
    9CHTO   H81 3654   7.018   3.503   1.551  1.6056 -1.1965 -0.2096
    9CHTO    N7 3655   7.198   3.576   1.624  0.3241 -0.1503 -0.0732
    9CHTO   H73 3656   7.256   3.485   1.620  0.4249 -0.0214 -2.1630
    9CHTO   H74 3657   7.260   3.664   1.618 -0.7328  0.6158  0.0311
    9CHTO   C40 3658   7.004   3.721   1.563 -0.5654 -0.3788  0.5752
    9CHTO   H82 3659   7.072   3.807   1.562  1.7495 -2.1572 -0.1788
    9CHTO   O26 3660   6.902   3.729   1.467  0.2016  0.5617  0.2612
    9CHTO   C41 3661   6.941   3.749   1.326 -0.2535 -0.2682 -0.2312
    9CHTO   H83 3662   7.004   3.837   1.308 -1.5850  0.8978  0.6951
    9CHTO   C52 3663   6.804   3.777   1.252  0.0101  0.4317  0.4065
    9CHTO   O35 3664   6.729   3.882   1.299  0.5643 -0.2265  0.3039
    9CHTO   H71 3665   6.707   3.935   1.226  1.4938 -0.8582 -0.4345
    9CHTO   O28 3666   6.931   3.709   1.691  0.3224  0.4228  0.4398
    9CHTO   C42 3667   6.837   3.812   1.739 -0.7315 -0.1464 -0.6628
    9CHTO   H84 3668   6.835   3.795   1.847  0.3447  1.5356 -0.3462
    9CHTO   C44 3669   6.692   3.790   1.691 -0.2212 -0.0951  0.3980
    9CHTO   H86 3670   6.691   3.801   1.583  1.3117  0.5504  0.4352
    9CHTO   O32 3671   6.650   3.658   1.723  0.7297  0.0493  0.4045
    9CHTO   H69 3672   6.593   3.622   1.657  0.1243  2.4715 -0.4333
    9CHTO   C48 3673   6.595   3.904   1.744 -0.0743 -1.0614 -0.1467
    9CHTO   H90 3674   6.583   3.898   1.852  1.4288  0.0026  0.0882
    9CHTO    N9 3675   6.455   3.889   1.681  0.0317  0.0857  0.5214
    9CHTO   H77 3676   6.406   3.799   1.714  2.6575 -1.3349  0.7172
    9CHTO   H78 3677   6.445   3.907   1.575 -0.7521  0.3640  0.6407
    9CHTO   C51 3678   6.663   4.049   1.714 -0.1295  0.1832 -0.2577
    9CHTO   H93 3679   6.685   4.060   1.608 -0.3919  1.1946 -0.2073
    9CHTO   O30 3680   6.779   4.056   1.796  0.0144 -0.1768 -0.1804
    9CHTO   C46 3681   6.891   3.957   1.722 -0.3011  0.6719 -0.8388
    9CHTO   H88 3682   6.895   3.976   1.615 -0.6266 -0.4374 -1.0517
    9CHTO   C53 3683   7.020   3.982   1.807  0.1568  0.0408  0.0858
    9CHTO   O72 3684   7.053   4.117   1.780  0.1539  0.0017  0.1476
    9CHTO  H199 3685   7.126   4.154   1.826  0.3410  0.4337 -0.4881
    9CHTO   O22 3686   6.587   4.166   1.748 -0.3667 -0.2696 -0.4601
    9CHTO   C31 3687   6.600   4.289   1.669 -0.1704  0.0383 -0.5904
    9CHTO   H59 3688   6.554   4.369   1.730  0.5807 -0.2744  0.4021
    9CHTO   C29 3689   6.743   4.331   1.638  0.0580 -0.2776 -0.5480
    9CHTO   H57 3690   6.800   4.242   1.605  2.5648  0.9455  0.3415
    9CHTO   O21 3691   6.797   4.354   1.772 -0.2569 -0.5075 -0.1593
    9CHTO   H37 3692   6.757   4.435   1.798 -0.0676 -0.7312  0.8616
    9CHTO   C27 3693   6.762   4.451   1.536 -0.7158  0.6597 -0.0140
    9CHTO   H55 3694   6.732   4.544   1.586 -1.6881  0.0833  0.4944
    9CHTO    N5 3695   6.903   4.457   1.500 -0.9341 -0.1095  0.5862
    9CHTO   H43 3696   6.943   4.370   1.450  0.0137  0.9720 -0.5988
    9CHTO   H44 3697   6.925   4.549   1.446 -0.7800  0.1694  1.1186
    9CHTO   C25 3698   6.668   4.421   1.417  1.1640  0.0153 -0.2652
    9CHTO   H53 3699   6.690   4.321   1.378 -0.0063 -1.2520  2.2478
    9CHTO   O17 3700   6.532   4.408   1.464  0.2403  0.2796  0.2966
    9CHTO   C32 3701   6.513   4.284   1.540  0.0110 -0.0136 -0.5578
    9CHTO   H60 3702   6.524   4.188   1.489 -0.9239 -0.0690 -0.6753
    9CHTO   C36 3703   6.359   4.269   1.570 -0.6670 -0.3816  0.1446
    9CHTO   O25 3704   6.284   4.259   1.453  0.8128 -0.2119  0.4568
    9CHTO   H40 3705   6.193   4.258   1.474  0.9158 -0.6720  0.9033
    9CHTO   O15 3706   6.676   4.541   1.304 -0.0174  0.5110 -0.5847
    9CHTO   C19 3707   6.669   4.562   1.166 -0.3309  0.0683  0.1021
    9CHTO   H47 3708   6.682   4.671   1.158 -0.5812  0.2154  1.5942
    9CHTO   C20 3709   6.787   4.495   1.082  0.1232 -0.0007  0.2245
    9CHTO   H48 3710   6.800   4.388   1.104 -1.0441 -0.1040  0.4325
    9CHTO   O19 3711   6.905   4.559   1.134 -0.1393 -0.1562  0.3648
    9CHTO   H35 3712   6.973   4.531   1.076 -1.4290 -1.9935 -0.2778
    9CHTO   C21 3713   6.772   4.520   0.922 -0.4408  0.6909 -0.6557
    9CHTO   H49 3714   6.762   4.627   0.902 -1.5739  0.8485  0.7051
    9CHTO    N4 3715   6.882   4.462   0.841  0.2993 -0.6425  0.0948
    9CHTO   H41 3716   6.882   4.354   0.845 -0.2319 -0.6056  1.1495
    9CHTO   H42 3717   6.981   4.500   0.863  0.2575 -0.3220 -0.2769
    9CHTO   C22 3718   6.634   4.465   0.877 -0.2679  0.2209  0.1450
    9CHTO   H50 3719   6.627   4.358   0.901 -1.6515  0.3197  0.2145
    9CHTO   O14 3720   6.533   4.529   0.958 -0.6348  0.0658 -0.5917
    9CHTO   C23 3721   6.538   4.524   1.099 -0.5195 -0.0324  0.5949
    9CHTO   H51 3722   6.510   4.420   1.123 -1.3024  0.1971  0.6967
    9CHTO   C34 3723   6.424   4.613   1.154  0.5067  0.5054  0.0903
    9CHTO   O23 3724   6.436   4.745   1.098  0.4866 -0.1835 -0.3418
    9CHTO   H38 3725   6.414   4.745   1.007 -1.0170 -1.6199 -0.0085
    9CHTO   O16 3726   6.610   4.479   0.737 -0.1976 -0.6140  0.5225
    9CHTO   C24 3727   6.520   4.384   0.684 -0.3975 -0.4200  0.4333
    9CHTO   H52 3728   6.459   4.340   0.762  1.8739  1.3054  3.2688
    9CHTO   C26 3729   6.595   4.281   0.599 -0.3468 -0.2588  0.2643
    9CHTO   H54 3730   6.643   4.332   0.513 -0.6650  0.2307  0.3732
    9CHTO   O20 3731   6.698   4.223   0.674 -0.3278  0.1903  0.2044
    9CHTO   H36 3732   6.779   4.218   0.627  0.3112  1.1613  1.1585
    9CHTO   C30 3733   6.499   4.179   0.537  0.0871  0.1602  0.1606
    9CHTO   H58 3734   6.448   4.119   0.615  2.1609  2.4195  3.3849
    9CHTO    N6 3735   6.575   4.076   0.457 -0.5996  0.2976  0.4404
    9CHTO   H45 3736   6.506   4.017   0.399  1.7671 -0.7971 -1.3412
    9CHTO   H46 3737   6.643   4.120   0.385  1.9794 -0.8114  2.1383
    9CHTO   C33 3738   6.388   4.244   0.453  0.0773 -0.2312 -0.2137
    9CHTO   H61 3739   6.435   4.276   0.360 -1.1882  0.9795 -0.4437
    9CHTO   O18 3740   6.335   4.356   0.525  0.0035  0.1553 -0.9151
    9CHTO   C28 3741   6.424   4.457   0.586  0.3819  0.0898  0.2664
    9CHTO   H56 3742   6.478   4.516   0.513 -0.4988  1.6090  0.8011
    9CHTO   C35 3743   6.332   4.557   0.658 -0.0882 -0.3864 -0.2266
    9CHTO   O24 3744   6.402   4.656   0.737  0.0422 -0.2539 -0.4967
    9CHTO   H39 3745   6.447   4.718   0.682 -1.1316  0.4291 -0.6947
    9CHTO    O9 3746   6.281   4.150   0.420 -0.4436 -0.4368  0.1620
    9CHTO   C13 3747   6.239   4.143   0.268 -0.0947  0.1246 -0.0826
    9CHTO   H26 3748   6.328   4.100   0.216 -0.6995  0.8990 -1.8156
    9CHTO   C11 3749   6.202   4.283   0.206 -0.0097 -0.4417 -0.5343
    9CHTO   H24 3750   6.294   4.341   0.190  0.6736 -0.7807  1.8538
    9CHTO    O8 3751   6.115   4.354   0.298  0.0222 -0.3849  1.0529
    9CHTO    H3 3752   6.111   4.442   0.265  0.5998 -0.4022  0.9402
    9CHTO    C9 3753   6.134   4.261   0.064 -0.1625  0.2258  0.0264
    9CHTO   H22 3754   6.209   4.207   0.005 -0.9387 -0.6295 -0.1808
    9CHTO    N2 3755   6.113   4.391  -0.003  0.0547 -0.8423  0.0173
    9CHTO   H10 3756   6.045   4.449   0.057  0.0505 -0.8748  0.0436
    9CHTO   H11 3757   6.207   4.443  -0.018  0.4568 -1.7265 -0.5522
    9CHTO    C7 3758   6.010   4.163   0.069 -0.2482 -0.1222  0.1284
    9CHTO   H20 3759   5.981   4.140  -0.036  2.0383  2.4369 -1.1242
    9CHTO    O4 3760   6.045   4.040   0.138  0.3218 -0.2174  0.0388
    9CHTO   C14 3761   6.116   4.041   0.265 -0.0593  0.4406 -1.1536
    9CHTO   H27 3762   6.156   3.938   0.271  0.1074  0.4557 -1.9458
    9CHTO   C18 3763   6.012   4.063   0.381 -0.6835 -0.3051 -0.0159
    9CHTO   O13 3764   5.912   3.960   0.395 -0.4986 -0.4309 -0.1343
    9CHTO    H7 3765   5.846   3.976   0.331 -1.4670 -0.7255  0.7657
    9CHTO    O2 3766   5.873   4.226   0.136  0.2200  0.1861  0.5259
    9CHTO    C1 3767   5.742   4.160   0.140  0.0919 -0.4267  0.2928
    9CHTO   H14 3768   5.731   4.119   0.243  0.4514  1.0200  0.9153
    9CHTO    C2 3769   5.721   4.049   0.035 -0.2784  0.1349 -0.3984
    9CHTO   H15 3770   5.753   4.106  -0.054 -2.5965  1.0187 -0.6986
    9CHTO    O6 3771   5.802   3.941   0.079 -0.5223  0.0808 -0.3376
    9CHTO    H1 3772   5.891   3.959   0.055 -0.2415 -0.4976  0.2706
    9CHTO    C3 3773   5.565   4.003   0.018  0.0237  0.3069 -0.2410
    9CHTO   H16 3774   5.543   3.935   0.101 -0.4610 -0.9037 -1.3336
    9CHTO    N1 3775   5.540   3.912  -0.095 -0.4185  0.4550  0.0657
    9CHTO    H8 3776   5.451   3.853  -0.081 -0.5933  1.0292  1.5010
    9CHTO    H9 3777   5.536   3.976  -0.181 -2.2295 -0.4073 -0.5101
    9CHTO    C4 3778   5.472   4.123   0.030 -0.1464 -0.0973 -0.2636
    9CHTO   H17 3779   5.482   4.188  -0.057 -2.8026 -0.6622 -1.0349
    9CHTO    O1 3780   5.511   4.202   0.146  0.0738 -0.3906 -0.5401
    9CHTO    C5 3781   5.637   4.272   0.127  0.5888 -0.4565  0.0509
    9CHTO   H18 3782   5.641   4.326   0.032 -0.1069  1.1589  0.9238
    9CHTO   C16 3783   5.642   4.374   0.240 -0.1514  0.2516 -0.7909
    9CHTO   O11 3784   5.531   4.463   0.226  0.6779  0.2308  0.1730
    9CHTO    H5 3785   5.547   4.533   0.286  2.4836  0.2624 -0.3380
    9CHTO    O3 3786   5.334   4.080   0.047  0.3122  0.0820 -0.1422
    9CHTO    C6 3787   5.229   4.149  -0.028  0.4194 -0.2893 -0.4952
    9CHTO   H19 3788   5.271   4.220  -0.098  2.1361 -1.3906 -0.6087
    9CHTO    C8 3789   5.144   4.054  -0.111  0.6101 -0.2933 -0.3893
    9CHTO   H21 3790   5.106   3.976  -0.045 -1.0193  0.2845 -0.6223
    9CHTO    O7 3791   5.225   3.987  -0.206  0.4694 -0.5602 -0.7042
    9CHTO    H2 3792   5.315   3.987  -0.182  0.3468  3.6402  0.1641
    9CHTO   C12 3793   5.023   4.134  -0.182  0.7871  0.1886 -0.3888
    9CHTO   H25 3794   5.076   4.205  -0.248  0.2505 -0.1758 -1.2281
    9CHTO    N3 3795   4.945   4.039  -0.268  0.1396 -0.4128 -0.1109
    9CHTO   H12 3796   4.908   4.092  -0.354 -1.2853  1.0775  1.3652
    9CHTO   H13 3797   4.991   3.945  -0.296 -0.0497 -0.8716  1.0731
    9CHTO   C15 3798   4.934   4.219  -0.084  0.1364 -0.3901  0.8792
    9CHTO   H28 3799   4.875   4.156  -0.018 -0.1743 -1.8657 -0.8090
    9CHTO   O10 3800   4.845   4.347  -0.146 -0.2145 -0.3649 -0.5466
    9CHTO    H4 3801   4.802   4.322  -0.226 -2.1343  0.3155  0.2515
    9CHTO    O5 3802   5.025   4.294   0.003  0.1433  0.2112 -0.2233
    9CHTO   C10 3803   5.137   4.230   0.071 -0.9587  0.3037 -0.0932
    9CHTO   H23 3804   5.097   4.163   0.147  0.5059  0.0600  0.4678
    9CHTO   C17 3805   5.226   4.335   0.147 -0.3660 -0.0595 -0.0061
    9CHTO   O12 3806   5.266   4.449   0.065  0.4590 -0.3449  0.2051
    9CHTO    H6 3807   5.326   4.417  -0.000  1.0808 -0.8182  0.9902
   10CHTO  H203 3808   3.815   7.173   2.515 -2.1926  1.6479  0.9091
   10CHTO   O82 3809   3.870   7.237   2.556  0.2481  0.3285 -0.1566
   10CHTO  C123 3810   3.791   7.309   2.656  0.7211 -0.3492 -0.1957
   10CHTO  H227 3811   3.850   7.392   2.696 -0.9495 -0.1253  1.9045
   10CHTO   O77 3812   3.681   7.366   2.577 -0.2486  0.0763  0.3586
   10CHTO  C118 3813   3.558   7.413   2.647 -0.8741 -0.8124 -0.1467
   10CHTO  H222 3814   3.570   7.507   2.703 -1.0503  0.1170 -1.6144
   10CHTO  C125 3815   3.455   7.447   2.533 -0.1593  0.5822  0.1128
   10CHTO   O84 3816   3.493   7.561   2.451  0.1718  0.1778 -0.1707
   10CHTO  H205 3817   3.417   7.615   2.438  0.6003  1.6282  2.9927
   10CHTO  C114 3818   3.506   7.299   2.740  0.5327 -0.3544  0.8198
   10CHTO  H218 3819   3.488   7.213   2.675  0.1823  0.1338  0.2754
   10CHTO  C116 3820   3.609   7.246   2.847 -0.0054  0.3077 -0.0702
   10CHTO  H220 3821   3.639   7.326   2.917 -0.0284  1.1901 -1.0645
   10CHTO   O79 3822   3.552   7.134   2.926 -0.0812  0.0548 -0.3159
   10CHTO  H201 3823   3.469   7.113   2.887 -0.3291  0.7133 -0.1510
   10CHTO  C120 3824   3.739   7.204   2.766 -0.1127  0.1288 -0.4877
   10CHTO  H224 3825   3.708   7.111   2.714 -4.3249  1.6969 -1.0540
   10CHTO   N21 3826   3.853   7.167   2.859 -0.1410 -0.0751  0.4212
   10CHTO  H211 3827   3.955   7.168   2.825  0.1538  0.5627  1.3019
   10CHTO  H212 3828   3.826   7.076   2.911 -0.4294 -0.8787 -1.1194
   10CHTO   O75 3829   3.382   7.349   2.796 -0.7065  0.2573  0.5722
   10CHTO  C112 3830   3.392   7.434   2.931  0.3785 -0.0735  0.6366
   10CHTO  H216 3831   3.490   7.483   2.933  0.7404 -0.6770 -1.0562
   10CHTO   O73 3832   3.376   7.346   3.041  0.0377 -0.4849 -0.2618
   10CHTO  C113 3833   3.417   7.405   3.167 -0.4372 -0.1058  0.7937
   10CHTO  H217 3834   3.520   7.445   3.159 -0.5110  0.2727  1.6337
   10CHTO  C124 3835   3.422   7.303   3.280  0.9096 -0.0641 -0.4460
   10CHTO   O83 3836   3.502   7.196   3.240 -0.2076  0.1282 -0.2582
   10CHTO  H204 3837   3.576   7.189   3.296 -0.7135  0.0874  0.4106
   10CHTO  C109 3838   3.300   7.515   3.191  0.4567 -0.0189  0.6266
   10CHTO  H213 3839   3.206   7.459   3.202  0.7883 -0.2950  2.1723
   10CHTO  C110 3840   3.291   7.616   3.073 -0.5234  0.8772 -1.1570
   10CHTO  H214 3841   3.374   7.687   3.079 -0.3800  0.6792 -0.7841
   10CHTO   O78 3842   3.163   7.685   3.091  0.2253 -0.2259 -0.0720
   10CHTO  H200 3843   3.105   7.677   3.018 -0.6483 -0.5103  0.6503
   10CHTO  C111 3844   3.285   7.543   2.937 -0.3353 -0.2212 -0.7339
   10CHTO  H215 3845   3.190   7.489   2.924 -0.1674 -0.3996 -1.2347
   10CHTO   N19 3846   3.289   7.634   2.823 -0.1933 -0.8901  0.4086
   10CHTO  H207 3847   3.268   7.580   2.731  1.2955 -1.7802  0.5885
   10CHTO  H208 3848   3.366   7.709   2.821 -0.7405 -0.2727  2.1650
   10CHTO   O74 3849   3.327   7.578   3.317  0.0236  0.4802 -0.2492
   10CHTO  C115 3850   3.200   7.618   3.405  0.3992 -0.0332  0.5101
   10CHTO  H219 3851   3.147   7.701   3.359  2.3716 -0.1912 -2.1357
   10CHTO   O76 3852   3.100   7.512   3.412 -0.1082  0.2687  0.0785
   10CHTO  C122 3853   3.120   7.407   3.502  0.3587 -0.0239  0.0213
   10CHTO  H226 3854   3.214   7.363   3.470  0.0130 -0.1346 -0.8471
   10CHTO  C126 3855   3.008   7.299   3.486 -0.1293 -0.5703 -1.3229
   10CHTO   O85 3856   3.033   7.217   3.375 -0.9503 -0.0919  0.0670
   10CHTO  H206 3857   2.980   7.139   3.380 -0.2865 -0.6596 -1.5156
   10CHTO  C121 3858   3.125   7.462   3.654  0.1220  0.5561  0.4514
   10CHTO  H225 3859   3.030   7.433   3.703 -0.5791 -1.4266 -1.9566
   10CHTO   O81 3860   3.236   7.401   3.724 -0.1967  0.0119 -0.7681
   10CHTO  H202 3861   3.230   7.308   3.722  0.2333 -0.1254  2.2468
   10CHTO  C119 3862   3.139   7.621   3.653  0.6838  0.5054  0.4157
   10CHTO  H223 3863   3.039   7.659   3.630 -0.0285 -1.3938  0.2592
   10CHTO  C117 3864   3.247   7.669   3.552  1.1379 -0.2779  0.2308
   10CHTO  H221 3865   3.349   7.628   3.557  1.4886  0.3961 -1.2830
   10CHTO   N20 3866   3.270   7.815   3.548  0.4407  0.1103 -0.1058
   10CHTO  H209 3867   3.300   7.851   3.646  0.7737  0.1080 -0.2071
   10CHTO  H210 3868   3.182   7.869   3.514  1.6137  1.5536 -0.9225
   10CHTO   O80 3869   3.158   7.675   3.803  0.4157 -0.4258  0.3464
   10CHTO  C103 3870   3.041   7.767   3.856 -0.0134  0.2403 -0.5512
   10CHTO  H190 3871   3.014   7.840   3.780  0.6752  0.5418 -0.5142
   10CHTO  C101 3872   2.915   7.687   3.904 -0.2577 -0.6614  0.2836
   10CHTO  H188 3873   2.955   7.611   3.972  1.8290  0.6319  0.5261
   10CHTO   O68 3874   2.850   7.620   3.782  0.3301  0.1179 -0.2063
   10CHTO  H168 3875   2.856   7.527   3.792 -0.8902 -0.0132 -0.6841
   10CHTO   C99 3876   2.813   7.780   3.987 -0.4265 -0.2244 -0.2051
   10CHTO  H186 3877   2.774   7.863   3.924  0.4820  1.2946  1.1981
   10CHTO   N17 3878   2.690   7.709   4.041  0.3810 -0.0444 -0.0708
   10CHTO  H174 3879   2.714   7.677   4.141 -0.0414 -2.2714 -0.6520
   10CHTO  H175 3880   2.606   7.776   4.047 -0.4704 -1.2253  1.5650
   10CHTO   C97 3881   2.893   7.857   4.097  0.2206 -0.1779  0.1147
   10CHTO  H184 3882   2.918   7.778   4.169 -1.0546 -1.6055 -0.9999
   10CHTO   O64 3883   3.012   7.925   4.044 -0.1635 -0.2485  0.3677
   10CHTO  C104 3884   3.107   7.844   3.975 -0.4143 -0.1318 -0.5516
   10CHTO  H191 3885   3.135   7.770   4.050 -2.3835  0.8563  1.1768
   10CHTO  C108 3886   3.237   7.921   3.936 -0.2435 -0.3740  0.5375
   10CHTO   O71 3887   3.307   7.970   4.051  0.0990 -0.0074 -0.1963
   10CHTO  H171 3888   3.358   7.903   4.092  1.7750  0.4477 -1.4806
   10CHTO   O62 3889   2.816   7.964   4.159  0.0906 -0.2180  0.3353
   10CHTO   C91 3890   2.780   7.944   4.296 -0.1742 -1.0702  0.1348
   10CHTO  H178 3891   2.758   7.841   4.325 -1.3950 -0.5131  1.2151
   10CHTO   C92 3892   2.641   8.012   4.315 -0.3465 -0.1065 -0.4772
   10CHTO  H179 3893   2.643   8.119   4.289 -1.2825 -0.0207 -0.2017
   10CHTO   O66 3894   2.544   7.952   4.228 -0.5008 -0.0195 -0.3324
   10CHTO  H166 3895   2.528   7.866   4.262  0.9924 -1.0877 -2.2038
   10CHTO   C93 3896   2.607   8.001   4.468 -0.0446  0.1580 -0.7179
   10CHTO  H180 3897   2.594   7.894   4.492 -2.2715  0.8526  1.2894
   10CHTO   N16 3898   2.473   8.056   4.506 -0.8766 -0.3078  0.3266
   10CHTO  H172 3899   2.399   8.020   4.436  0.3305 -0.7038 -0.7523
   10CHTO  H173 3900   2.475   8.163   4.520  0.0714 -0.0542 -1.5718
   10CHTO   C94 3901   2.723   8.059   4.558 -0.6764 -0.2974 -0.2657
   10CHTO  H181 3902   2.752   8.159   4.526 -2.7954 -0.1672 -1.9041
   10CHTO   O61 3903   2.837   7.975   4.537 -0.1522 -0.3159 -0.1025
   10CHTO   C95 3904   2.885   7.995   4.407 -0.3662  0.3429 -0.5738
   10CHTO  H182 3905   2.910   8.100   4.394 -0.4747  0.6787  1.7534
   10CHTO  C106 3906   3.010   7.902   4.409 -0.4779 -0.6677  0.1430
   10CHTO   O69 3907   3.112   7.964   4.484  0.1062  0.1138 -0.3409
   10CHTO  H169 3908   3.184   7.904   4.485 -1.4112 -1.7258  1.1859
   10CHTO   O63 3909   2.671   8.079   4.720  0.2789  0.0585 -0.1334
   10CHTO   C96 3910   2.696   7.986   4.811  0.1994  0.3020  0.2746
   10CHTO  H183 3911   2.801   7.955   4.808 -0.1005 -1.1742  3.2674
   10CHTO   C98 3912   2.614   7.854   4.799 -0.1522 -0.5933 -0.6266
   10CHTO  H185 3913   2.516   7.887   4.762  0.2425 -0.7577 -1.8595
   10CHTO   O67 3914   2.666   7.769   4.691 -0.9352 -0.0801 -0.0632
   10CHTO  H167 3915   2.595   7.727   4.647 -3.2235  2.0684  1.4915
   10CHTO  C102 3916   2.616   7.776   4.939 -0.0253  0.4091 -0.1045
   10CHTO  H189 3917   2.716   7.732   4.952 -0.3281 -1.1025 -2.4347
   10CHTO   N18 3918   2.518   7.662   4.943 -0.1076 -0.0860  1.0502
   10CHTO  H176 3919   2.546   7.577   4.883  2.9581  0.4385  1.6255
   10CHTO  H177 3920   2.413   7.689   4.938  0.2734  1.2094 -0.4736
   10CHTO  C105 3921   2.603   7.866   5.065  0.0280  0.1925 -0.2576
   10CHTO  H192 3922   2.503   7.909   5.069 -0.1943 -0.4431  1.3325
   10CHTO   O65 3923   2.699   7.972   5.058 -0.7095 -0.0177  0.0762
   10CHTO  C100 3924   2.674   8.061   4.951  0.0372  0.3435  0.4341
   10CHTO  H187 3925   2.570   8.096   4.960 -0.3441 -0.5189 -0.5535
   10CHTO  C107 3926   2.764   8.181   4.972  0.2983  0.3735  0.6387
   10CHTO   O70 3927   2.903   8.165   4.925 -0.0162  0.0745 -0.4666
   10CHTO  H170 3928   2.903   8.138   4.835  0.9638 -0.8241 -0.1988
   10CHTO   O57 3929   2.635   7.779   5.193  0.4050 -0.0780  0.5412
   10CHTO   C85 3930   2.549   7.799   5.311 -0.3455 -0.4468 -0.0156
   10CHTO  H157 3931   2.444   7.804   5.274 -0.8167 -1.6204  1.1061
   10CHTO   C83 3932   2.554   7.945   5.375 -0.0888 -0.4773 -0.3117
   10CHTO  H155 3933   2.525   8.017   5.298 -0.4988 -0.8786 -0.5371
   10CHTO   O56 3934   2.693   7.982   5.401 -0.2937  0.1249  0.1490
   10CHTO  H135 3935   2.713   8.074   5.402  1.4568 -0.2448  1.4877
   10CHTO   C81 3936   2.455   7.951   5.492 -0.2292 -0.0174  0.6351
   10CHTO  H153 3937   2.360   7.924   5.444  0.9133 -0.4568 -1.4548
   10CHTO   N14 3938   2.428   8.085   5.555 -0.2834 -0.4252 -0.4246
   10CHTO  H141 3939   2.513   8.139   5.591 -1.4432  1.3839 -0.3694
   10CHTO  H142 3940   2.355   8.077   5.633  0.5150 -1.0717  0.2679
   10CHTO   C79 3941   2.486   7.842   5.606  0.9079  0.2110 -0.0237
   10CHTO  H151 3942   2.397   7.841   5.670  1.8254  1.3589  1.2997
   10CHTO   O52 3943   2.502   7.705   5.549  0.4895 -0.3981  0.0579
   10CHTO   C86 3944   2.562   7.684   5.420 -0.1099  0.3884 -0.3068
   10CHTO  H158 3945   2.665   7.662   5.455 -0.5588  1.0118  1.4521
   10CHTO   C90 3946   2.508   7.545   5.374 -0.0204  0.4557 -0.9413
   10CHTO   O60 3947   2.576   7.494   5.260  0.1667 -0.0843  0.2174
   10CHTO  H138 3948   2.603   7.565   5.206  0.0837  0.2711  0.6399
   10CHTO   O50 3949   2.607   7.864   5.680  0.4915 -0.0814 -0.2467
   10CHTO   C73 3950   2.629   7.833   5.821 -0.7315  0.9082  1.1744
   10CHTO  H145 3951   2.550   7.771   5.865 -0.5628  0.5634  0.9896
   10CHTO   C74 3952   2.637   7.968   5.905 -0.7152  0.1041 -0.0349
   10CHTO  H146 3953   2.542   8.020   5.882 -1.2136 -0.4248  0.7970
   10CHTO   O54 3954   2.630   7.926   6.044 -0.4793 -0.8433 -0.3218
   10CHTO  H133 3955   2.544   7.909   6.080  0.7441 -3.2149  1.6865
   10CHTO   C75 3956   2.767   8.055   5.865 -0.3326  0.0334  0.0921
   10CHTO  H147 3957   2.762   8.089   5.761 -1.1757 -0.7587 -0.1417
   10CHTO   N13 3958   2.778   8.186   5.930 -0.0114  0.4548  0.0645
   10CHTO  H139 3959   2.800   8.183   6.036  1.9252 -0.6469 -0.3418
   10CHTO  H140 3960   2.844   8.259   5.886 -0.3163  0.0973 -0.9816
   10CHTO   C76 3961   2.902   7.962   5.883 -0.8078 -0.0602  0.7002
   10CHTO  H148 3962   2.920   7.940   5.988  0.3931  0.7102  0.6671
   10CHTO   O49 3963   2.877   7.835   5.811  0.0848 -0.2613  0.4918
   10CHTO   C77 3964   2.761   7.756   5.831  0.3005  0.0897  0.2280
   10CHTO  H149 3965   2.753   7.706   5.927 -0.6373 -1.0497 -0.4284
   10CHTO   C88 3966   2.773   7.635   5.737  0.3121  0.1567  0.5112
   10CHTO   O58 3967   2.641   7.563   5.723 -0.1496 -0.4690  0.1092
   10CHTO  H136 3968   2.632   7.506   5.797  2.3281  0.7708  1.4319
   10CHTO   O51 3969   3.025   8.052   5.806 -0.1714 -0.1972 -0.0294
   10CHTO   C78 3970   3.169   8.016   5.849  0.2779  0.2641 -0.6666
   10CHTO  H150 3971   3.185   7.906   5.840  1.2119  0.3730 -0.3950
   10CHTO   C80 3972   3.192   8.056   5.998 -0.2512 -0.5038 -0.2135
   10CHTO  H152 3973   3.160   8.161   6.011 -0.6875 -0.8213  1.3807
   10CHTO   O55 3974   3.113   7.977   6.085  0.0052 -0.4347  0.4302
   10CHTO  H134 3975   3.022   7.981   6.061 -0.3331 -1.1428  1.5425
   10CHTO   C84 3976   3.340   8.039   6.045  0.2893 -0.0602  0.2471
   10CHTO  H156 3977   3.363   7.932   6.043 -0.4555 -0.2338  0.6503
   10CHTO   N15 3978   3.371   8.093   6.184  0.0145  0.3234  0.5893
   10CHTO  H143 3979   3.460   8.041   6.213 -0.8600 -1.9766 -0.6448
   10CHTO  H144 3980   3.388   8.198   6.191 -1.7833  0.6239  0.6760
   10CHTO   C87 3981   3.433   8.102   5.940  0.5839 -0.4971  0.1662
   10CHTO  H159 3982   3.424   8.210   5.952 -1.0114 -0.6408  0.4086
   10CHTO   O53 3983   3.401   8.060   5.804  0.4539  0.4138 -0.6442
   10CHTO   C82 3984   3.271   8.083   5.756 -0.5768 -0.2872  0.5453
   10CHTO  H154 3985   3.250   8.190   5.757  0.4606 -0.0539 -0.8648
   10CHTO   C89 3986   3.255   8.024   5.608 -0.4959 -0.2659 -0.3216
   10CHTO   O59 3987   3.365   8.072   5.526  0.6319  0.1579  0.3442
   10CHTO  H137 3988   3.431   8.008   5.508 -0.2472  0.1231 -3.1901
   10CHTO   O45 3989   3.585   8.061   5.964 -0.6042  0.1526  0.2398
   10CHTO   C67 3990   3.683   8.124   5.879  0.0829 -0.5152  0.6301
   10CHTO  H124 3991   3.652   8.165   5.783  1.7475 -0.5062  0.0684
   10CHTO   C65 3992   3.742   8.236   5.969 -0.2781 -0.4899  0.3501
   10CHTO  H122 3993   3.668   8.260   6.045 -0.0493  1.4396 -0.0140
   10CHTO   O44 3994   3.768   8.356   5.889  0.3207 -0.0963  0.6422
   10CHTO  H102 3995   3.838   8.334   5.829  0.3404  1.2489  0.1709
   10CHTO   C63 3996   3.878   8.181   6.039 -0.5116 -0.0004  0.0653
   10CHTO  H120 3997   3.854   8.090   6.094  1.5309  0.4229  1.7250
   10CHTO   N11 3998   3.946   8.270   6.137 -0.5281 -0.3146 -0.1456
   10CHTO  H108 3999   4.018   8.219   6.198 -1.2095 -0.6974  0.3451
   10CHTO  H109 4000   3.883   8.300   6.219 -0.0979 -2.0065  0.8274
   10CHTO   C61 4001   3.975   8.138   5.921 -0.1445  0.9675 -0.1286
   10CHTO  H118 4002   4.058   8.084   5.968 -0.6619  1.5332  1.4576
   10CHTO   O40 4003   3.928   8.055   5.822 -0.1078 -0.3305  0.5358
   10CHTO   C68 4004   3.784   8.009   5.840 -0.5874 -0.2783 -0.5553
   10CHTO  H125 4005   3.788   7.936   5.923 -1.8972 -2.1389 -2.0841
   10CHTO   C72 4006   3.751   7.932   5.711 -0.3138 -0.3429 -0.2472
   10CHTO   O48 4007   3.639   7.842   5.731 -0.7429 -0.2163  0.6762
   10CHTO  H105 4008   3.668   7.753   5.731 -0.7224 -0.2316 -0.9733
   10CHTO   O38 4009   4.028   8.252   5.847  0.0809  0.4267  0.0387
   10CHTO   C55 4010   4.162   8.252   5.793  0.0340 -0.0946 -0.1152
   10CHTO  H112 4011   4.184   8.146   5.774 -0.5002 -0.0081 -1.2955
   10CHTO   C56 4012   4.263   8.322   5.894 -0.4694 -0.3170 -0.2020
   10CHTO  H113 4013   4.215   8.408   5.942  2.6132  0.7147  1.2073
   10CHTO   O42 4014   4.279   8.224   6.006  0.6622  0.0010  0.0030
   10CHTO  H100 4015   4.329   8.148   5.984 -0.8717 -1.0009 -0.1548
   10CHTO   C57 4016   4.402   8.368   5.827  0.3036  0.7900 -0.1441
   10CHTO  H114 4017   4.464   8.282   5.801 -0.5974 -0.3338  1.4188
   10CHTO   N10 4018   4.485   8.427   5.936 -0.1667  0.2656  0.2618
   10CHTO  H106 4019   4.590   8.403   5.925  0.1423  1.1755  1.1864
   10CHTO  H107 4020   4.476   8.534   5.930 -2.7212  0.0798  0.3911
   10CHTO   C58 4021   4.373   8.446   5.694  1.0622  0.4364  0.1793
   10CHTO  H115 4022   4.306   8.533   5.715  0.4005 -0.4042  1.6784
   10CHTO   O37 4023   4.297   8.356   5.612 -0.1242  0.0224 -0.8007
   10CHTO   C59 4024   4.162   8.326   5.657  0.0023 -0.0819  0.6051
   10CHTO  H116 4025   4.114   8.423   5.668  0.7683  0.7484 -2.9299
   10CHTO   C70 4026   4.085   8.245   5.555 -0.2900  0.2937 -0.0412
   10CHTO   O46 4027   4.161   8.137   5.495 -0.1629 -1.0367  0.3315
   10CHTO  H103 4028   4.115   8.108   5.419 -0.4875  0.5927 -0.1115
   10CHTO   O39 4029   4.501   8.488   5.618 -0.0755  0.1387  0.6892
   10CHTO   C60 4030   4.502   8.623   5.574 -0.6772  0.2033  0.1852
   10CHTO  H117 4031   4.401   8.650   5.544  0.1136  2.8908 -0.1769
   10CHTO   C62 4032   4.541   8.725   5.689  0.0241  0.8206  0.1262
   10CHTO  H119 4033   4.479   8.707   5.779 -2.0286  1.9961 -1.0293
   10CHTO   O43 4034   4.674   8.714   5.727  0.6618  0.9482  0.2861
   10CHTO  H101 4035   4.723   8.775   5.676  0.0414  0.0346 -1.4560
   10CHTO   C66 4036   4.509   8.872   5.624 -0.1543 -0.3075  0.5517
   10CHTO  H123 4037   4.406   8.882   5.589 -0.3353 -2.0731  0.5462
   10CHTO   N12 4038   4.529   8.986   5.725 -0.7228  0.1745  1.0152
   10CHTO  H110 4039   4.619   8.955   5.776 -0.4068 -1.4577 -0.4807
   10CHTO  H111 4040   4.443   9.001   5.788 -1.1303 -0.6800  0.6655
   10CHTO   C69 4041   4.593   8.882   5.495  0.0827  0.2231  0.6018
   10CHTO  H126 4042   4.703   8.889   5.511 -0.0990  0.4277  1.7862
   10CHTO   O41 4043   4.565   8.774   5.403  0.8169  0.0519  0.5002
   10CHTO   C64 4044   4.591   8.638   5.451  0.5124  0.4916  0.1594
   10CHTO  H121 4045   4.698   8.619   5.472  0.7807  1.0262 -0.6709
   10CHTO   C71 4046   4.552   8.542   5.332 -0.5427 -0.5036  0.3226
   10CHTO   O47 4047   4.415   8.561   5.308  0.0705  0.1831  0.3960
   10CHTO  H104 4048   4.363   8.492   5.347  0.7112 -0.0885  0.7852
   10CHTO   O34 4049   4.559   9.016   5.428  0.6902 -0.5656  0.1754
   10CHTO   C49 4050   4.474   9.128   5.379 -0.1720 -0.0156  0.2173
   10CHTO   H91 4051   4.487   9.208   5.452 -2.5795 -0.2457  0.9452
   10CHTO   C47 4052   4.321   9.084   5.375 -0.1614  0.3952  0.0438
   10CHTO   H89 4053   4.293   9.097   5.482  2.4852  1.5555  0.6441
   10CHTO   O33 4054   4.303   8.946   5.348  0.2734 -0.1599  0.2981
   10CHTO   H70 4055   4.365   8.910   5.408  0.6593  1.4178  0.8656
   10CHTO   C45 4056   4.231   9.163   5.279 -0.6180 -0.8629  0.4170
   10CHTO   H87 4057   4.245   9.119   5.179 -0.3135  0.9649 -0.3756
   10CHTO    N8 4058   4.087   9.157   5.310  0.0983 -0.4063 -0.1219
   10CHTO   H75 4059   4.073   9.114   5.408  0.3501 -1.0941 -0.3842
   10CHTO   H76 4060   4.065   9.262   5.324 -2.2968 -0.6745 -1.5993
   10CHTO   C43 4061   4.297   9.313   5.263 -0.1141 -0.1279 -0.4584
   10CHTO   H85 4062   4.227   9.370   5.201 -0.9463 -0.8354 -0.1763
   10CHTO   O29 4063   4.425   9.303   5.199  0.2904 -0.5820 -0.1125
   10CHTO   C50 4064   4.504   9.187   5.238  0.0468  0.1875  0.9803
   10CHTO   H92 4065   4.490   9.113   5.157  0.7950 -0.0431  1.0566
   10CHTO   C54 4066   4.659   9.214   5.234  0.6779 -0.9186  0.3609
   10CHTO   O36 4067   4.713   9.325   5.309 -0.7009 -0.4454 -0.2231
   10CHTO   H72 4068   4.681   9.405   5.272 -0.5840  0.1857  1.0180
   10CHTO   O27 4069   4.299   9.385   5.388  0.2288  0.1121  0.4595
   10CHTO   C37 4070   4.384   9.493   5.442  0.2935  0.5621 -0.1349
   10CHTO   H79 4071   4.490   9.467   5.426 -0.1571 -0.9712 -0.7457
   10CHTO   C38 4072   4.361   9.624   5.360  0.4271 -0.4008  0.0766
   10CHTO   H80 4073   4.258   9.655   5.383  0.7770  1.1136 -0.3319
   10CHTO   O31 4074   4.381   9.588   5.222 -0.5096 -0.4515 -0.1425
   10CHTO   H68 4075   4.468   9.605   5.194 -0.3535 -0.4435  0.3396
   10CHTO   C39 4076   4.462   9.739   5.413 -0.1595 -0.2381 -0.3687
   10CHTO   H81 4077   4.558   9.690   5.398  0.5775 -0.1339  3.4066
   10CHTO    N7 4078   4.449   9.862   5.332  0.4459 -0.1209  0.3367
   10CHTO   H73 4079   4.546   9.883   5.289 -0.0171 -0.1957 -0.7339
   10CHTO   H74 4080   4.359   9.854   5.273  1.0951 -2.5243 -0.3772
   10CHTO   C40 4081   4.454   9.756   5.566  0.2016 -0.1703  0.2204
   10CHTO   H82 4082   4.379   9.820   5.613  0.6896  0.2816  0.4036
   10CHTO   O26 4083   4.459   9.626   5.630 -0.3012 -0.2767 -0.3371
   10CHTO   C41 4084   4.361   9.525   5.588 -0.0207  0.0656 -0.5531
   10CHTO   H83 4085   4.265   9.577   5.600 -0.3161  0.0676 -2.7617
   10CHTO   C52 4086   4.360   9.394   5.679  0.1432  0.2740  0.8258
   10CHTO   O35 4087   4.342   9.420   5.820  0.4025 -0.7310 -0.0456
   10CHTO   H71 4088   4.266   9.472   5.841  2.5196  1.3478  2.7697
   10CHTO   O28 4089   4.583   9.801   5.614  0.5188  0.1350  0.0050
   10CHTO   C42 4090   4.640   9.934   5.622 -0.1327 -0.7455 -0.1599
   10CHTO   H84 4091   4.688   9.925   5.719 -0.6672  0.7322  0.2535
   10CHTO   C44 4092   4.540  10.061   5.632  0.0786 -0.0995 -0.0461
   10CHTO   H86 4093   4.463  10.043   5.557 -1.1231 -1.1870  1.3852
   10CHTO   O32 4094   4.478  10.050   5.752  0.4179 -0.7858 -0.2547
   10CHTO   H69 4095   4.540  10.064   5.821  0.0011 -0.3821  0.0479
   10CHTO   C48 4096   4.609  10.201   5.615  0.0568  0.0888 -0.2946
   10CHTO   H90 4097   4.663  10.215   5.708  0.7011  0.0310 -0.6529
   10CHTO    N9 4098   4.510  10.313   5.600  0.0166 -0.1591 -0.3498
   10CHTO   H77 4099   4.485  10.322   5.495 -2.4307 -2.1944  0.0222
   10CHTO   H78 4100   4.563  10.396   5.644  0.0998 -0.8545  0.8686
   10CHTO   C51 4101   4.708  10.196   5.492 -0.0910  1.3544 -0.4284
   10CHTO   H93 4102   4.655  10.169   5.401  1.7962  1.3591 -1.5422
   10CHTO   O30 4103   4.810  10.103   5.528 -0.0211 -0.1606  0.0835
   10CHTO   C46 4104   4.757   9.961   5.519  0.4181 -0.2969  0.5951
   10CHTO   H88 4105   4.717   9.958   5.418  1.3597  0.1286  0.2063
   10CHTO   C53 4106   4.868   9.861   5.545  0.5636  0.1514  0.4529
   10CHTO   O72 4107   4.970   9.901   5.458 -0.0032 -0.6747  0.2056
   10CHTO  H199 4108   5.041   9.842   5.441  0.0923 -0.2139 -1.0875
   10CHTO   O22 4109   4.779  10.323   5.478 -0.0818 -0.3093  0.0950
   10CHTO   C31 4110   4.861  10.349   5.361 -0.5279 -0.2417 -0.3004
   10CHTO   H59 4111   4.915  10.442   5.387 -1.0420 -0.2615  0.8526
   10CHTO   C29 4112   4.972  10.244   5.328  0.2694 -0.4137 -0.2110
   10CHTO   H57 4113   4.914  10.154   5.302  1.0161 -0.9305 -0.0780
   10CHTO   O21 4114   5.054  10.220   5.451 -0.3919  0.3941  0.2273
   10CHTO   H37 4115   4.991  10.174   5.504 -1.1626  0.4347 -0.6328
   10CHTO   C27 4116   5.056  10.296   5.209  0.3171  0.4090  0.4271
   10CHTO   H55 4117   5.120  10.380   5.239 -1.9227  1.4875  2.3322
   10CHTO    N5 4118   5.145  10.182   5.169 -0.1325  0.8057 -0.0374
   10CHTO   H43 4119   5.206  10.210   5.084  0.3032 -3.8735 -1.4042
   10CHTO   H44 4120   5.085  10.097   5.142  0.9561 -0.3605  1.1444
   10CHTO   C25 4121   4.972  10.340   5.087  1.1974  0.6579 -0.1914
   10CHTO   H53 4122   4.926  10.248   5.048 -0.7651  1.2034  0.7839
   10CHTO   O17 4123   4.861  10.435   5.128  0.4415  0.5656 -0.8313
   10CHTO   C32 4124   4.776  10.378   5.234  0.0512 -0.7345 -0.4224
   10CHTO   H60 4125   4.731  10.285   5.198 -1.1720  0.5416 -2.3081
   10CHTO   C36 4126   4.659  10.477   5.246 -0.7196 -0.6690 -0.4464
   10CHTO   O25 4127   4.586  10.485   5.123 -0.1654  0.4122  0.5419
   10CHTO   H40 4128   4.534  10.564   5.117 -0.7754 -0.0623 -0.5529
   10CHTO   O15 4129   5.061  10.412   5.001 -0.8101  0.4567 -0.2147
   10CHTO   C19 4130   5.125  10.501   4.906 -0.4522 -0.3602 -0.4029
   10CHTO   H47 4131   5.060  10.496   4.817 -2.8435  0.8961  1.2219
   10CHTO   C20 4132   5.136  10.649   4.940  0.3357 -0.3704  0.0577
   10CHTO   H48 4133   5.184  10.667   5.037 -0.9340  1.7579  0.3262
   10CHTO   O19 4134   5.000  10.691   4.955 -0.7880 -0.0677  0.1672
   10CHTO   H35 4135   4.975  10.754   5.020  2.8370  1.3200  0.3403
   10CHTO   C21 4136   5.214  10.723   4.831 -1.3569 -0.5047 -0.6441
   10CHTO   H49 4137   5.154  10.727   4.740  0.0272  0.0703 -1.5551
   10CHTO    N4 4138   5.232  10.866   4.856 -0.3262  0.5251 -0.0801
   10CHTO   H41 4139   5.290  10.914   4.778  2.5103  0.2921  1.8280
   10CHTO   H42 4140   5.138  10.918   4.871 -0.2357  0.6548  0.0441
   10CHTO   C22 4141   5.352  10.661   4.804 -0.2918  0.0453  0.8986
   10CHTO   H50 4142   5.407  10.647   4.898 -0.0127 -0.9862  0.5875
   10CHTO   O14 4143   5.327  10.525   4.762 -0.0551 -0.3431  0.5439
   10CHTO   C23 4144   5.267  10.446   4.865  0.2487  0.0866 -0.4609
   10CHTO   H51 4145   5.338  10.439   4.949 -1.2727 -1.3911  0.7304
   10CHTO   C34 4146   5.264  10.305   4.796 -0.3358  0.0057 -0.5263
   10CHTO   O23 4147   5.346  10.204   4.855 -0.4803  0.1479 -0.4663
   10CHTO   H38 4148   5.436  10.219   4.836  0.2483 -1.1248  1.8110
   10CHTO   O16 4149   5.429  10.720   4.700 -0.3548  0.1926 -0.0372
   10CHTO   C24 4150   5.593  10.701   4.722 -0.0786  0.0411 -0.6022
   10CHTO   H52 4151   5.610  10.641   4.811 -1.1993  1.1155  0.3543
   10CHTO   C26 4152   5.658  10.834   4.754 -0.8746  0.7272 -0.3507
   10CHTO   H54 4153   5.638  10.906   4.672  1.0425 -0.3146 -1.7501
   10CHTO   O20 4154   5.605  10.890   4.875  0.2406  0.0139  0.4909
   10CHTO   H36 4155   5.629  10.838   4.949 -0.8823 -1.0928  0.1044
   10CHTO   C30 4156   5.819  10.832   4.768 -0.4124  0.3370  0.5524
   10CHTO   H58 4157   5.842  10.784   4.864 -1.8513  0.5323  1.0093
   10CHTO    N6 4158   5.870  10.974   4.784  0.6579 -0.3927  0.1299
   10CHTO   H45 4159   5.961  10.997   4.729 -1.4298  2.3038 -2.3869
   10CHTO   H46 4160   5.877  11.007   4.886 -0.7089  2.6740 -0.7196
   10CHTO   C33 4161   5.881  10.762   4.640  0.2803 -0.1762 -0.3620
   10CHTO   H61 4162   5.851  10.822   4.553  1.1268 -0.8342 -1.1108
   10CHTO   O18 4163   5.814  10.632   4.638  0.1222 -0.0195  0.1689
   10CHTO   C28 4164   5.673  10.638   4.605  0.6835  0.1018  0.0945
   10CHTO   H56 4165   5.658  10.698   4.515  1.2546  0.7706  0.4455
   10CHTO   C35 4166   5.611  10.505   4.579 -0.7605 -0.9731  0.1524
   10CHTO   O24 4167   5.706  10.396   4.564  0.4269  0.2508  0.5410
   10CHTO   H39 4168   5.755  10.399   4.644  0.8314  0.2305  0.2937
   10CHTO    O9 4169   6.024  10.754   4.638 -0.0174  0.3665 -0.7423
   10CHTO   C13 4170   6.090  10.722   4.509  0.7861  0.0331  0.0056
   10CHTO   H26 4171   6.090  10.807   4.437  1.6931  1.6865  1.8803
   10CHTO   C11 4172   6.036  10.596   4.447  0.2249  0.0306  0.3671
   10CHTO   H24 4173   5.940  10.621   4.399  0.0643  1.2691  1.2852
   10CHTO    O8 4174   6.032  10.482   4.540  0.0060 -0.6255 -0.5513
   10CHTO    H3 4175   5.979  10.496   4.616  0.6869  1.5755 -0.4507
   10CHTO    C9 4176   6.121  10.568   4.321  1.4018 -0.4105 -0.2480
   10CHTO   H22 4177   6.101  10.652   4.253 -1.3310 -2.7799 -2.5064
   10CHTO    N2 4178   6.076  10.452   4.239 -0.4453 -0.5080 -0.0261
   10CHTO   H10 4179   6.138  10.450   4.150 -0.9791 -0.1941 -0.4066
   10CHTO   H11 4180   6.102  10.363   4.294  0.9517 -0.0944 -0.0019
   10CHTO    C7 4181   6.276  10.553   4.354  0.0327  0.4051 -0.1143
   10CHTO   H20 4182   6.335  10.566   4.261 -1.4697  0.1678 -1.1153
   10CHTO    O4 4183   6.328  10.667   4.419  1.0184 -0.4616 -0.9407
   10CHTO   C14 4184   6.243  10.712   4.539  0.2702 -0.3565  0.5638
   10CHTO   H27 4185   6.280  10.816   4.539  1.6626 -0.8418 -0.2494
   10CHTO   C18 4186   6.287  10.643   4.674  0.7312  0.3472  0.0921
   10CHTO   O13 4187   6.426  10.638   4.698  0.6536 -0.5324  0.0114
   10CHTO    H7 4188   6.463  10.611   4.616 -0.6366  2.2524 -1.5771
   10CHTO    O2 4189   6.316  10.417   4.431  0.2015 -0.2754 -0.1308
   10CHTO    C1 4190   6.453  10.376   4.448  0.1804 -0.1042 -1.2435
   10CHTO   H14 4191   6.474  10.396   4.555  1.3527  2.3562 -1.8988
   10CHTO    C2 4192   6.575  10.454   4.369  0.7041  0.1186  0.0605
   10CHTO   H15 4193   6.553  10.455   4.261 -1.7875  0.7995  0.5490
   10CHTO    O6 4194   6.600  10.592   4.418  0.0253  0.7088  0.1432
   10CHTO    H1 4195   6.531  10.627   4.469  0.6091  2.7039 -0.3974
   10CHTO    C3 4196   6.706  10.366   4.391  0.6214  0.2463  0.1124
   10CHTO   H16 4197   6.732  10.373   4.498  1.6417 -0.2551 -0.1000
   10CHTO    N1 4198   6.818  10.432   4.309  0.1860  0.1588 -0.0175
   10CHTO    H8 4199   6.784  10.430   4.206  0.1052  2.3307 -0.0531
   10CHTO    H9 4200   6.914  10.385   4.323  0.1085 -0.4205 -1.3784
   10CHTO    C4 4201   6.676  10.216   4.362 -0.3033  0.4281  0.0387
   10CHTO   H17 4202   6.649  10.209   4.257 -1.0334  1.3125  0.1619
   10CHTO    O1 4203   6.571  10.164   4.443  0.0225  0.4250 -0.2689
   10CHTO    C5 4204   6.451  10.227   4.434  0.0360  0.1862 -0.1420
   10CHTO   H18 4205   6.417  10.204   4.333  0.6503 -1.9577  0.1266
   10CHTO   C16 4206   6.359  10.167   4.541  0.0385  0.2265  0.5576
   10CHTO   O11 4207   6.222  10.155   4.504  0.2198 -0.2750  0.2350
   10CHTO    H5 4208   6.173  10.117   4.575  0.8140 -0.8380  0.3515
   10CHTO    O3 4209   6.796  10.139   4.379 -0.3968 -0.2280 -0.0225
   10CHTO    C6 4210   6.807  10.015   4.320 -0.9273  0.5610 -0.0387
   10CHTO   H19 4211   6.715   9.966   4.287 -0.8367  0.9164 -0.8391
   10CHTO    C8 4212   6.896  10.019   4.188  0.2312  0.4878 -0.3710
   10CHTO   H21 4213   6.991  10.068   4.210  1.4300 -2.1712  0.5525
   10CHTO    O7 4214   6.806  10.092   4.102 -0.2236  0.0145  0.6567
   10CHTO    H2 4215   6.812  10.184   4.118  0.4012  0.4632 -1.8383
   10CHTO   C12 4216   6.924   9.872   4.129  0.4147 -0.0158  0.3432
   10CHTO   H25 4217   6.824   9.834   4.100 -0.5854  2.6298  0.2175
   10CHTO    N3 4218   7.021   9.875   4.011  0.0810 -0.4564 -0.1719
   10CHTO   H12 4219   7.067   9.971   3.991 -1.0671 -0.1029 -1.1762
   10CHTO   H13 4220   6.977   9.834   3.921  1.2360 -0.7943 -0.5851
   10CHTO   C15 4221   6.985   9.792   4.247 -0.0757  0.4824  0.3131
   10CHTO   H28 4222   7.081   9.833   4.277  0.0108 -1.7314  3.3954
   10CHTO   O10 4223   6.998   9.644   4.221 -0.0104  0.0887 -0.8579
   10CHTO    H4 4224   7.074   9.627   4.168  0.3520 -0.4036 -0.1801
   10CHTO    O5 4225   6.883   9.795   4.351 -0.4176 -0.0359  0.5546
   10CHTO   C10 4226   6.875   9.919   4.419 -0.5560 -0.5913 -0.1800
   10CHTO   H23 4227   6.979   9.945   4.440 -0.5049 -1.2551  0.3946
   10CHTO   C17 4228   6.794   9.906   4.552 -0.2382  0.3080 -0.3958
   10CHTO   O12 4229   6.654   9.861   4.535  0.1125  0.0132  0.1174
   10CHTO    H6 4230   6.614   9.881   4.452 -0.7049 -0.1599  0.4614
   11CHTO  H203 4231   5.874   5.266   1.085 -0.7508 -1.3345  0.6916
   11CHTO   O82 4232   5.791   5.299   1.056 -0.0561  0.1126  0.3257
   11CHTO  C123 4233   5.722   5.320   1.178  0.4914  0.3559 -0.6534
   11CHTO  H227 4234   5.736   5.230   1.240 -0.7073  0.7718  0.2481
   11CHTO   O77 4235   5.778   5.441   1.235 -0.7771 -0.3814  0.2220
   11CHTO  C118 4236   5.709   5.477   1.357 -0.4514 -0.4910  0.1395
   11CHTO  H222 4237   5.699   5.389   1.423 -0.5253 -1.3235 -0.9644
   11CHTO  C125 4238   5.800   5.590   1.421 -0.3759 -0.0219  0.2850
   11CHTO   O84 4239   5.784   5.604   1.564  0.0722  0.1464 -0.2034
   11CHTO  H205 4240   5.757   5.689   1.593  0.4253  0.3545 -0.4796
   11CHTO  C114 4241   5.572   5.531   1.325 -0.6001  0.6400 -0.3300
   11CHTO  H218 4242   5.580   5.608   1.248 -2.2038 -0.9073 -2.0735
   11CHTO  C116 4243   5.489   5.407   1.277 -0.7608  0.3240 -0.5201
   11CHTO  H220 4244   5.479   5.340   1.365  0.0504 -0.2790 -0.8867
   11CHTO   O79 4245   5.356   5.449   1.246  0.0527  0.0360  0.1063
   11CHTO  H201 4246   5.299   5.374   1.245  0.2383 -0.0967 -2.5110
   11CHTO  C120 4247   5.567   5.332   1.157 -0.4107  0.5986  0.6175
   11CHTO  H224 4248   5.549   5.398   1.069  3.2741  1.5223  0.5132
   11CHTO   N21 4249   5.499   5.200   1.130  0.1475  0.0125  0.7584
   11CHTO  H211 4250   5.567   5.117   1.115  1.3054  1.2237 -0.9451
   11CHTO  H212 4251   5.417   5.212   1.060 -0.2665  1.3350  1.4628
   11CHTO   O75 4252   5.528   5.594   1.445 -0.1350 -0.6148 -0.2466
   11CHTO  C112 4253   5.425   5.734   1.444 -0.1062  0.4221 -0.4966
   11CHTO  H216 4254   5.396   5.752   1.549  0.4037 -2.0327  0.1181
   11CHTO   O73 4255   5.308   5.704   1.360 -0.1891  0.5759  0.3659
   11CHTO  C113 4256   5.218   5.813   1.376 -0.4223  0.7195 -0.7378
   11CHTO  H217 4257   5.203   5.827   1.485  0.7477  1.0765 -0.6164
   11CHTO  C124 4258   5.086   5.773   1.313 -0.0983 -0.1182 -0.2155
   11CHTO   O83 4259   5.019   5.687   1.402 -0.4016  0.4761 -0.2100
   11CHTO  H204 4260   4.934   5.662   1.373 -0.3600 -0.0237  0.1007
   11CHTO  C109 4261   5.266   5.951   1.334 -0.2138  0.6241  0.1753
   11CHTO  H213 4262   5.271   5.947   1.224 -0.3647  2.1138  0.1066
   11CHTO  C110 4263   5.407   5.984   1.389 -0.6198 -0.8647  0.1872
   11CHTO  H214 4264   5.402   6.034   1.485 -0.0652 -1.4938  0.5422
   11CHTO   O78 4265   5.468   6.093   1.315  0.5287  0.3395 -0.1613
   11CHTO  H200 4266   5.542   6.067   1.264  0.4080  1.7215 -1.0719
   11CHTO  C111 4267   5.501   5.859   1.383 -0.0791  0.3305 -0.6742
   11CHTO  H215 4268   5.524   5.836   1.278  2.8944  0.1026 -0.0002
   11CHTO   N19 4269   5.630   5.895   1.443 -0.3141  0.0579  0.3149
   11CHTO  H207 4270   5.635   5.857   1.545  2.0644 -1.9402 -0.4831
   11CHTO  H208 4271   5.715   5.881   1.378  0.2028  0.5681  0.8771
   11CHTO   O74 4272   5.170   6.053   1.376  0.1991  0.0778  0.2701
   11CHTO  C115 4273   5.174   6.202   1.298  0.1799 -0.3696  0.3578
   11CHTO  H219 4274   5.239   6.201   1.210  0.0037 -1.6677  0.2323
   11CHTO   O76 4275   5.039   6.247   1.252  0.5219 -0.1276 -0.3697
   11CHTO  C122 4276   4.941   6.269   1.360 -1.1284 -0.2827 -0.0468
   11CHTO  H226 4277   4.912   6.169   1.393 -0.4148 -1.1395 -1.9363
   11CHTO  C126 4278   4.818   6.319   1.291  0.1388 -0.4324  0.0242
   11CHTO   O85 4279   4.698   6.253   1.324 -0.6561  0.4834 -0.1792
   11CHTO  H206 4280   4.643   6.306   1.379 -1.5839 -0.0889 -0.5454
   11CHTO  C121 4281   4.988   6.341   1.479 -0.7737 -0.4832  0.6063
   11CHTO  H225 4282   4.916   6.416   1.516  0.0300  0.9694 -0.7284
   11CHTO   O81 4283   5.008   6.256   1.589 -0.4288 -0.0035 -0.2581
   11CHTO  H202 4284   5.096   6.223   1.582  0.6151  2.7215 -0.6725
   11CHTO  C119 4285   5.124   6.410   1.449 -0.8854 -0.5098 -0.2676
   11CHTO  H223 4286   5.099   6.470   1.361  0.5040  0.9649  0.3229
   11CHTO  C117 4287   5.230   6.310   1.401  0.4345  0.9661  0.5611
   11CHTO  H221 4288   5.272   6.246   1.478 -0.2287  0.1724  0.2739
   11CHTO   N20 4289   5.348   6.384   1.346  0.2229  0.1112 -0.1501
   11CHTO  H209 4290   5.372   6.475   1.399  0.8426  1.3877 -2.5224
   11CHTO  H210 4291   5.431   6.316   1.337  1.1352  1.2076 -0.2523
   11CHTO   O80 4292   5.150   6.531   1.561  0.0369  0.0769 -0.4716
   11CHTO  C103 4293   5.193   6.494   1.711  0.1497 -0.2268  0.4608
   11CHTO  H190 4294   5.136   6.416   1.762 -0.4163  0.3748  0.7487
   11CHTO  C101 4295   5.347   6.455   1.737  0.0105 -0.0404  0.6068
   11CHTO  H188 4296   5.403   6.504   1.657  1.2217 -0.3566  1.2451
   11CHTO   O68 4297   5.367   6.297   1.726 -0.2762  0.2349  0.3722
   11CHTO  H168 4298   5.320   6.265   1.800 -2.9446  1.2594 -0.8265
   11CHTO   C99 4299   5.397   6.499   1.881  0.4060 -0.4479  0.3331
   11CHTO  H186 4300   5.340   6.437   1.954  0.6349  0.1328  1.0174
   11CHTO   N17 4301   5.542   6.468   1.904 -0.0658  0.2050 -0.0741
   11CHTO  H174 4302   5.596   6.463   1.811  0.1059 -1.3750  0.1079
   11CHTO  H175 4303   5.552   6.384   1.972 -0.0823  0.4308  0.2106
   11CHTO   C97 4304   5.354   6.644   1.915 -0.0535  0.7494  0.3882
   11CHTO  H184 4305   5.398   6.716   1.845  0.1123 -0.1325 -0.4298
   11CHTO   O64 4306   5.210   6.648   1.913  0.1998 -0.6700 -0.6416
   11CHTO  C104 4307   5.153   6.635   1.785 -0.3804 -0.2082 -0.2595
   11CHTO  H191 4308   5.181   6.715   1.716 -0.1203 -0.2039 -0.1500
   11CHTO  C108 4309   4.999   6.647   1.803 -0.0816 -0.2412 -0.9791
   11CHTO   O71 4310   4.939   6.532   1.866  0.5900 -0.1220 -0.4294
   11CHTO  H171 4311   4.938   6.462   1.803 -1.5108  0.3632 -0.9615
   11CHTO   O62 4312   5.384   6.682   2.043  0.3086  0.0841 -0.3994
   11CHTO   C91 4313   5.373   6.820   2.077 -0.3394 -0.2121  0.3941
   11CHTO  H178 4314   5.328   6.878   1.997 -2.4055 -2.9704 -0.5143
   11CHTO   C92 4315   5.519   6.872   2.091  0.1027 -0.6888  0.0928
   11CHTO  H179 4316   5.586   6.827   2.017  1.0264 -0.3464  0.7102
   11CHTO   O66 4317   5.515   7.012   2.050  0.5721  0.3208 -0.4486
   11CHTO  H166 4318   5.524   7.013   1.957  3.1830  0.0088 -0.2258
   11CHTO   C93 4319   5.579   6.870   2.243 -0.3671 -0.5783  0.2409
   11CHTO  H180 4320   5.661   6.941   2.224 -1.0540 -0.4505 -2.4561
   11CHTO   N16 4321   5.628   6.739   2.293 -0.5430 -0.7769  0.2217
   11CHTO  H172 4322   5.539   6.682   2.319 -2.0181 -0.0844 -3.0238
   11CHTO  H173 4323   5.689   6.759   2.380  1.3128  1.6310 -1.5842
   11CHTO   C94 4324   5.476   6.927   2.348 -0.9969 -0.0160  0.0213
   11CHTO  H181 4325   5.451   6.857   2.428 -0.6693 -0.6246 -0.4017
   11CHTO   O61 4326   5.357   6.971   2.275 -0.0096  0.0759  0.0965
   11CHTO   C95 4327   5.291   6.863   2.207 -0.9972 -0.1534 -0.0394
   11CHTO  H182 4328   5.266   6.784   2.278 -0.2256  1.8297  2.5413
   11CHTO  C106 4329   5.153   6.922   2.163 -0.4572  0.0718 -0.0053
   11CHTO   O69 4330   5.072   6.812   2.123  0.7691  0.4006 -0.4170
   11CHTO  H169 4331   4.978   6.820   2.116  0.7206  0.2819  0.0426
   11CHTO   O63 4332   5.535   7.058   2.405 -0.2404  0.0359  0.5599
   11CHTO   C96 4333   5.645   7.037   2.533  0.6660 -0.2732  0.0082
   11CHTO  H183 4334   5.728   6.979   2.494  0.1386 -1.8123  1.1043
   11CHTO   C98 4335   5.597   6.964   2.668 -0.3223 -0.0878 -0.1480
   11CHTO  H185 4336   5.503   7.009   2.702  0.5590  1.1233  0.7605
   11CHTO   O67 4337   5.568   6.826   2.643 -0.2431  0.3950  0.6259
   11CHTO  H167 4338   5.497   6.816   2.582  0.8807  0.0324 -0.6375
   11CHTO  C102 4339   5.706   6.973   2.787  0.7145 -0.3543 -0.1468
   11CHTO  H189 4340   5.787   6.903   2.761  0.0245 -0.4417 -2.1202
   11CHTO   N18 4341   5.660   6.939   2.922  0.7279  0.1639  0.6481
   11CHTO  H176 4342   5.745   6.958   2.985  1.0204  2.7356 -0.4594
   11CHTO  H177 4343   5.637   6.833   2.923 -1.3265  0.3572 -5.2388
   11CHTO  C105 4344   5.767   7.121   2.798  0.1868  0.0585 -0.0622
   11CHTO  H192 4345   5.696   7.185   2.848 -1.1515 -2.1060  0.8987
   11CHTO   O65 4346   5.802   7.180   2.670  0.6663  0.2117  0.1668
   11CHTO  C100 4347   5.695   7.179   2.575 -0.2887  0.2851  0.1509
   11CHTO  H187 4348   5.608   7.234   2.614 -0.4969 -0.9374  1.4652
   11CHTO  C107 4349   5.738   7.257   2.448 -0.6363 -0.2568  0.0934
   11CHTO   O70 4350   5.774   7.396   2.481  0.0604 -0.3748 -0.5683
   11CHTO  H170 4351   5.696   7.447   2.493  0.2252 -0.4505  0.8996
   11CHTO   O57 4352   5.915   7.105   2.880 -0.4568 -0.3671 -0.1202
   11CHTO   C85 4353   5.956   7.204   2.978 -0.0227  0.2167  0.1274
   11CHTO  H157 4354   5.865   7.247   3.024 -0.4341 -0.7557  0.2388
   11CHTO   C83 4355   6.025   7.319   2.898  0.4085  0.4027 -0.6402
   11CHTO  H155 4356   5.944   7.363   2.839 -1.7571 -3.7202 -0.9137
   11CHTO   O56 4357   6.116   7.258   2.807 -0.0400 -0.6624  0.5696
   11CHTO  H135 4358   6.073   7.212   2.737 -0.6503 -0.6751  0.9523
   11CHTO   C81 4359   6.083   7.429   2.991 -0.4963  0.0321  0.0532
   11CHTO  H153 4360   6.000   7.471   3.049 -0.2989  0.9739 -0.3512
   11CHTO   N14 4361   6.132   7.546   2.912  0.1716  0.1729 -0.3630
   11CHTO  H141 4362   6.225   7.526   2.864  0.3473 -1.4006  0.5706
   11CHTO  H142 4363   6.060   7.582   2.842  0.9689  0.7708 -0.8726
   11CHTO   C79 4364   6.187   7.363   3.088  0.2933 -0.5621  0.1863
   11CHTO  H151 4365   6.219   7.438   3.159  1.3735 -2.1133  1.3870
   11CHTO   O52 4366   6.128   7.254   3.163 -0.4145 -0.1004  0.0127
   11CHTO   C86 4367   6.058   7.148   3.090  0.0821 -0.3274 -0.6755
   11CHTO  H158 4368   6.143   7.090   3.048 -0.4607 -1.0365 -0.8012
   11CHTO   C90 4369   5.983   7.061   3.190  0.2163 -0.5737  0.1863
   11CHTO   O60 4370   6.074   6.985   3.271 -0.0662 -0.5099  0.0296
   11CHTO  H138 4371   6.103   7.038   3.342  1.8798 -1.6191  0.1086
   11CHTO   O50 4372   6.308   7.316   3.027  0.0361 -0.3268 -0.4895
   11CHTO   C73 4373   6.441   7.276   3.072  0.0837 -0.4032 -1.0516
   11CHTO  H145 4374   6.431   7.219   3.165  0.2125 -2.2863 -2.1523
   11CHTO   C74 4375   6.521   7.406   3.092 -0.8031 -0.0377 -0.1632
   11CHTO  H146 4376   6.473   7.465   3.171  0.2665  0.1194  0.3849
   11CHTO   O54 4377   6.654   7.378   3.143 -0.0732  0.2253  0.0706
   11CHTO  H133 4378   6.672   7.440   3.211  0.2565 -1.5221  1.6329
   11CHTO   C75 4379   6.518   7.483   2.951 -0.4746 -0.6357  0.1549
   11CHTO  H147 4380   6.414   7.498   2.921  0.2374  2.1798 -1.0384
   11CHTO   N13 4381   6.578   7.619   2.958 -0.0988 -0.2867 -0.6910
   11CHTO  H139 4382   6.579   7.670   2.862  2.5162  1.5630  0.2651
   11CHTO  H140 4383   6.678   7.636   2.994 -0.0052  2.2635 -1.9966
   11CHTO   C76 4384   6.590   7.387   2.837  0.5813 -1.2871 -0.1157
   11CHTO  H148 4385   6.694   7.378   2.871  0.1331  0.2871  1.7913
   11CHTO   O49 4386   6.529   7.259   2.831 -0.5325 -0.3933  0.1050
   11CHTO   C77 4387   6.501   7.189   2.954 -0.5015 -0.7128  0.0362
   11CHTO  H149 4388   6.596   7.148   2.987  0.2506  0.0605 -1.1140
   11CHTO   C88 4389   6.417   7.066   2.924  0.4778 -0.1988  0.0479
   11CHTO   O58 4390   6.395   6.973   3.046 -0.1188  0.5831 -0.2321
   11CHTO  H136 4391   6.473   6.928   3.071 -0.7234  0.3423  1.2858
   11CHTO   O51 4392   6.565   7.458   2.684  0.0934 -0.0151  0.6072
   11CHTO   C78 4393   6.652   7.386   2.558  0.2238  0.5568  0.1916
   11CHTO  H150 4394   6.704   7.295   2.593  1.2098  0.6106 -1.0707
   11CHTO   C80 4395   6.753   7.492   2.507  0.7178 -0.0698  0.6174
   11CHTO  H152 4396   6.693   7.581   2.477  0.6493 -0.5971 -0.8461
   11CHTO   O55 4397   6.832   7.523   2.625 -0.0016  0.3446  0.3255
   11CHTO  H134 4398   6.863   7.611   2.615  2.8021 -0.5394  0.9716
   11CHTO   C84 4399   6.842   7.443   2.394 -0.1484 -0.1974  0.2290
   11CHTO  H156 4400   6.906   7.367   2.440  0.2175 -1.5071 -2.3768
   11CHTO   N15 4401   6.933   7.549   2.333  0.3663 -0.5959  0.0344
   11CHTO  H143 4402   6.937   7.626   2.406  2.3045  0.1097 -0.7813
   11CHTO  H144 4403   7.032   7.517   2.305  0.3173 -0.8669  0.1691
   11CHTO   C87 4404   6.758   7.374   2.279 -0.4945  0.1962  0.4818
   11CHTO  H159 4405   6.706   7.449   2.220  1.3806 -0.1250 -1.6523
   11CHTO   O53 4406   6.657   7.268   2.345 -0.2365 -0.1312 -0.2633
   11CHTO   C82 4407   6.569   7.329   2.437  0.1713 -0.2363  0.0101
   11CHTO  H154 4408   6.504   7.402   2.390 -0.5611 -0.9857 -0.1543
   11CHTO   C89 4409   6.473   7.228   2.498  0.4683  0.0367  0.3503
   11CHTO   O59 4410   6.395   7.156   2.407 -0.0968  0.1023  0.0562
   11CHTO  H137 4411   6.318   7.138   2.458 -0.2783  1.3832  0.2622
   11CHTO   O45 4412   6.865   7.275   2.203  0.5563  0.1197  0.0643
   11CHTO   C67 4413   6.802   7.241   2.077 -0.6061 -0.9105 -0.4648
   11CHTO  H124 4414   6.694   7.242   2.088 -0.3840 -0.9230  1.8781
   11CHTO   C65 4415   6.847   7.349   1.964 -0.3005  0.4705 -0.1408
   11CHTO  H122 4416   6.949   7.379   1.988 -0.6784  2.0608 -0.4976
   11CHTO   O44 4417   6.764   7.467   1.976  0.2956 -0.5761  0.2014
   11CHTO  H102 4418   6.764   7.496   2.065  0.1895 -0.6402  0.2222
   11CHTO   C63 4419   6.862   7.279   1.824 -0.3074 -0.0760  0.1528
   11CHTO  H120 4420   6.959   7.230   1.821 -0.4107 -0.3334  1.0371
   11CHTO   N11 4421   6.882   7.357   1.702  0.2228 -0.9001  0.1724
   11CHTO  H108 4422   6.889   7.462   1.721  3.5220 -0.9314 -0.5030
   11CHTO  H109 4423   6.817   7.325   1.623 -0.0956  0.5043 -0.1472
   11CHTO   C61 4424   6.757   7.162   1.807 -0.1942  0.1810  0.4803
   11CHTO  H118 4425   6.766   7.116   1.708 -0.7726  0.6345  0.2129
   11CHTO   O40 4426   6.768   7.054   1.905 -0.4723 -0.4289 -0.1511
   11CHTO   C68 4427   6.839   7.087   2.029  0.4854  0.0188  0.3497
   11CHTO  H125 4428   6.949   7.074   2.018  0.5556  0.2129  0.7795
   11CHTO   C72 4429   6.787   6.982   2.136 -0.0452 -0.5360 -0.8773
   11CHTO   O48 4430   6.821   6.848   2.104 -0.1165 -0.2587 -0.0530
   11CHTO  H105 4431   6.756   6.794   2.144 -2.6729  1.7157 -1.3956
   11CHTO   O38 4432   6.621   7.217   1.810 -0.0893  0.0431 -0.2753
   11CHTO   C55 4433   6.518   7.171   1.718  0.0091 -0.2066 -0.6910
   11CHTO  H112 4434   6.559   7.094   1.651 -0.6417  0.1698 -1.5299
   11CHTO   C56 4435   6.464   7.297   1.636  0.0962 -0.4937  0.5510
   11CHTO  H113 4436   6.447   7.373   1.714  1.4694  0.1852  0.2022
   11CHTO   O42 4437   6.567   7.349   1.549 -0.2426 -0.0262  0.3251
   11CHTO  H100 4438   6.626   7.406   1.595 -1.4413  0.5270  1.2174
   11CHTO   C57 4439   6.337   7.259   1.551  0.1222  0.5443 -0.4843
   11CHTO  H114 4440   6.364   7.192   1.469 -0.3768 -1.3218  0.8550
   11CHTO   N10 4441   6.268   7.383   1.491 -0.1567 -0.3394  0.4708
   11CHTO  H106 4442   6.264   7.465   1.562 -1.6616 -0.2760  0.3205
   11CHTO  H107 4443   6.319   7.410   1.399  1.8665  1.3883  2.0260
   11CHTO   C58 4444   6.235   7.182   1.643  0.1846 -0.8848  0.4405
   11CHTO  H115 4445   6.188   7.253   1.714 -2.4120 -2.0672 -0.0213
   11CHTO   O37 4446   6.298   7.068   1.707 -0.1704 -0.6176  0.3273
   11CHTO   C59 4447   6.408   7.102   1.800  0.5969 -0.0492  0.0187
   11CHTO  H116 4448   6.366   7.174   1.870  1.1992  1.3563 -1.0443
   11CHTO   C70 4449   6.460   6.976   1.859  0.2318 -0.3680 -0.2867
   11CHTO   O46 4450   6.379   6.911   1.953  0.1659 -0.3306 -0.3743
   11CHTO  H103 4451   6.349   6.834   1.910 -1.8259  1.3283 -2.0550
   11CHTO   O39 4452   6.103   7.126   1.532 -0.9309 -0.5073 -0.1231
   11CHTO   C60 4453   5.983   7.088   1.599 -0.4881 -0.1427 -0.1209
   11CHTO  H117 4454   6.008   7.010   1.671 -0.9253 -0.3936 -0.2391
   11CHTO   C62 4455   5.906   7.202   1.668  0.2928  0.3110 -0.0474
   11CHTO  H119 4456   5.971   7.243   1.748 -2.1435  1.7764  1.2317
   11CHTO   O43 4457   5.879   7.318   1.584  0.6043  0.2420 -0.2806
   11CHTO  H101 4458   5.787   7.326   1.569  0.5337  1.9176  0.9211
   11CHTO   C66 4459   5.781   7.150   1.743 -0.4023  0.1616  0.0083
   11CHTO  H123 4460   5.810   7.071   1.813 -3.1906 -1.3148 -0.4045
   11CHTO   N12 4461   5.725   7.245   1.834 -0.0213 -0.7635 -0.3311
   11CHTO  H110 4462   5.793   7.287   1.907  0.1141  0.6428 -1.2475
   11CHTO  H111 4463   5.628   7.211   1.866 -0.5201 -0.1526 -1.1810
   11CHTO   C69 4464   5.677   7.092   1.640 -0.7848 -0.2842  0.0380
   11CHTO  H126 4465   5.640   7.175   1.576  1.9791  0.1963 -1.0355
   11CHTO   O41 4466   5.759   6.978   1.531  0.0427  0.2356 -0.1514
   11CHTO   C64 4467   5.904   7.019   1.487  0.1436 -0.1341  0.8200
   11CHTO  H121 4468   5.891   7.089   1.403  2.1140 -1.1876 -0.4053
   11CHTO   C71 4469   5.975   6.888   1.437  0.2226 -0.1079 -0.0828
   11CHTO   O47 4470   6.096   6.902   1.358 -0.7703 -0.5678  0.1909
   11CHTO  H104 4471   6.162   6.910   1.425 -0.1560  0.8448 -0.5536
   11CHTO   O34 4472   5.537   7.026   1.722 -0.3570  0.3684  0.1191
   11CHTO   C49 4473   5.393   6.965   1.680 -0.0136  0.6802  0.3105
   11CHTO   H91 4474   5.369   6.920   1.776 -0.5429  1.7447  0.6882
   11CHTO   C47 4475   5.400   6.854   1.570 -0.3364 -0.0165 -0.1043
   11CHTO   H89 4476   5.300   6.807   1.555 -0.4960  0.3400 -0.1642
   11CHTO   O33 4477   5.495   6.754   1.619  0.4859 -0.3187 -0.6676
   11CHTO   H70 4478   5.481   6.670   1.580 -1.2287 -0.1103 -0.5396
   11CHTO   C45 4479   5.442   6.921   1.430  0.1901  0.0773  0.1266
   11CHTO   H87 4480   5.538   6.973   1.446  0.4391  0.3654 -2.0248
   11CHTO    N8 4481   5.463   6.821   1.324 -0.4610 -0.5216 -0.1144
   11CHTO   H75 4482   5.366   6.784   1.296 -0.3503 -0.1256 -1.0432
   11CHTO   H76 4483   5.508   6.859   1.233  0.4332  1.8033  1.2572
   11CHTO   C43 4484   5.341   7.035   1.389  0.3019 -0.0854 -0.7723
   11CHTO   H85 4485   5.379   7.082   1.299  1.0050 -0.5020 -0.6929
   11CHTO   O29 4486   5.326   7.130   1.500  0.5486 -0.1186  0.1477
   11CHTO   C50 4487   5.294   7.078   1.629 -0.2787  0.2288  0.0745
   11CHTO   H92 4488   5.302   7.163   1.699 -2.0108 -0.0132  0.5757
   11CHTO   C54 4489   5.145   7.039   1.640 -0.1166 -0.1941  0.4242
   11CHTO   O36 4490   5.112   7.019   1.779 -0.4389 -0.6582  0.0931
   11CHTO   H72 4491   5.025   6.986   1.792  0.3585 -2.7468  0.4172
   11CHTO   O27 4492   5.210   6.983   1.349 -0.1097 -0.1870  0.2211
   11CHTO   C37 4493   5.068   6.991   1.317 -0.3349 -0.9715  0.3231
   11CHTO   H79 4494   5.003   6.971   1.403  1.0368 -1.2530  1.3294
   11CHTO   C38 4495   5.012   7.126   1.267 -0.1001 -1.1240  0.0475
   11CHTO   H80 4496   5.069   7.155   1.177 -1.3046  1.3581  0.0326
   11CHTO   O31 4497   5.038   7.229   1.370  0.1518  0.0577 -0.1434
   11CHTO   H68 4498   5.128   7.248   1.383 -0.0257 -0.2425  1.5621
   11CHTO   C39 4499   4.854   7.117   1.240 -1.0212  0.0613  0.3216
   11CHTO   H81 4500   4.817   7.101   1.341  0.0293 -2.5373  0.3352
   11CHTO    N7 4501   4.799   7.242   1.185 -0.2297 -0.3205 -0.0774
   11CHTO   H73 4502   4.829   7.266   1.084  0.6805  1.6148  0.6429
   11CHTO   H74 4503   4.803   7.330   1.246 -1.9627  0.3289 -0.8509
   11CHTO   C40 4504   4.814   6.993   1.156  0.7833  0.9199  0.0530
   11CHTO   H82 4505   4.819   7.014   1.049 -0.3695 -2.0768 -0.6302
   11CHTO   O26 4506   4.899   6.883   1.190  0.0889 -0.0934 -0.3409
   11CHTO   C41 4507   5.043   6.890   1.209  0.2214  0.1253  0.1513
   11CHTO   H83 4508   5.091   6.928   1.117 -0.0079 -1.5134 -0.6664
   11CHTO   C52 4509   5.099   6.753   1.242  0.4182 -0.2811 -0.0884
   11CHTO   O35 4510   5.079   6.654   1.138  0.4250  0.5453  0.2170
   11CHTO   H71 4511   4.987   6.640   1.123  0.6864 -0.5109 -0.5343
   11CHTO   O28 4512   4.681   6.958   1.181  0.3640  0.1194 -0.1478
   11CHTO   C42 4513   4.613   6.833   1.147  0.1086 -0.2410  0.0969
   11CHTO   H84 4514   4.685   6.776   1.089  0.8517  1.0457 -0.2839
   11CHTO   C44 4515   4.491   6.857   1.055 -0.3599 -0.4845 -0.0407
   11CHTO   H86 4516   4.436   6.944   1.090  2.0668  1.3262 -0.5877
   11CHTO   O32 4517   4.549   6.891   0.924 -0.1526 -0.4692 -0.2481
   11CHTO   H69 4518   4.478   6.927   0.874  1.1345  0.9462 -1.1288
   11CHTO   C48 4519   4.392   6.732   1.035 -0.5840 -0.3722 -0.0196
   11CHTO   H90 4520   4.455   6.662   0.980  1.1917 -0.2323  1.7509
   11CHTO    N9 4521   4.269   6.779   0.962 -0.7410 -0.3471  0.3232
   11CHTO   H77 4522   4.185   6.735   1.013 -0.6909 -0.2543  0.4864
   11CHTO   H78 4523   4.264   6.756   0.857  1.8949 -0.5774  0.2295
   11CHTO   C51 4524   4.374   6.658   1.170  0.0628  0.3497 -0.4126
   11CHTO   H93 4525   4.318   6.723   1.237 -0.9852 -1.0001  0.0496
   11CHTO   O30 4526   4.503   6.628   1.223  0.0743 -0.2661 -0.4226
   11CHTO   C46 4527   4.568   6.742   1.270  0.0594 -0.3997  0.3115
   11CHTO   H88 4528   4.505   6.798   1.338 -0.4420 -1.3590  0.6418
   11CHTO   C53 4529   4.690   6.692   1.353 -0.3491  0.0274 -0.2626
   11CHTO   O72 4530   4.638   6.614   1.465  0.1322  0.6832  0.6445
   11CHTO  H199 4531   4.617   6.660   1.543 -1.0707 -0.2825  0.9174
   11CHTO   O22 4532   4.298   6.537   1.155  0.1611 -0.6221  0.1479
   11CHTO   C31 4533   4.254   6.473   1.281  0.2101  0.5059  0.4970
   11CHTO   H59 4534   4.326   6.497   1.363  1.3776 -2.9876  0.6206
   11CHTO   C29 4535   4.114   6.519   1.324 -0.3211  0.5381 -0.0715
   11CHTO   H57 4536   4.053   6.492   1.237 -0.3580 -0.1509  0.1624
   11CHTO   O21 4537   4.114   6.662   1.334 -0.3942 -0.3007  0.0844
   11CHTO   H37 4538   4.026   6.685   1.311 -0.8452  1.0239  2.9180
   11CHTO   C27 4539   4.052   6.449   1.446 -0.7132  0.9816 -1.1700
   11CHTO   H55 4540   4.111   6.471   1.536 -1.7908 -1.4669  0.1926
   11CHTO    N5 4541   3.909   6.482   1.468 -0.2584  0.4963  0.0194
   11CHTO   H43 4542   3.897   6.568   1.532  0.2951 -0.1004  0.9459
   11CHTO   H44 4543   3.851   6.492   1.378  0.3132 -0.2714 -0.4384
   11CHTO   C25 4544   4.071   6.292   1.432 -0.5395  0.1695 -0.0923
   11CHTO   H53 4545   4.012   6.260   1.345  0.6696  1.5936 -1.4743
   11CHTO   O17 4546   4.212   6.262   1.403 -0.0916  0.4509  0.3235
   11CHTO   C32 4547   4.251   6.316   1.273 -0.7014  0.5355 -0.5003
   11CHTO   H60 4548   4.183   6.286   1.192 -1.4232 -1.1652  0.6943
   11CHTO   C36 4549   4.384   6.253   1.240 -0.2313  0.8343  0.2249
   11CHTO   O25 4550   4.452   6.300   1.121  0.2839  0.3059  0.2738
   11CHTO   H40 4551   4.421   6.271   1.038 -0.6744  2.2455 -0.0862
   11CHTO   O15 4552   4.005   6.209   1.564  0.3083  0.5943 -0.3544
   11CHTO   C19 4553   3.995   6.066   1.595 -0.1922 -0.0455 -0.3060
   11CHTO   H47 4554   3.979   6.012   1.501 -0.7376 -2.4100  1.0875
   11CHTO   C20 4555   4.120   6.003   1.669  0.0462 -0.0248 -0.4379
   11CHTO   H48 4556   4.139   6.046   1.769 -1.6395  0.6209 -0.3893
   11CHTO   O19 4557   4.236   6.038   1.591 -0.0001  0.6347 -0.4377
   11CHTO   H35 4558   4.314   6.010   1.635 -0.0474  1.8692  0.4458
   11CHTO   C21 4559   4.104   5.850   1.695 -0.0836 -0.0168 -0.5158
   11CHTO   H49 4560   4.101   5.796   1.600  0.2043  0.9925 -1.1055
   11CHTO    N4 4561   4.209   5.780   1.773  0.1657 -0.0143 -0.6710
   11CHTO   H41 4562   4.177   5.684   1.808  0.9058  0.3566  1.0972
   11CHTO   H42 4563   4.247   5.837   1.857 -1.4507 -1.1339  0.8318
   11CHTO   C22 4564   3.969   5.823   1.761 -0.5282 -0.2985 -0.1589
   11CHTO   H50 4565   3.968   5.857   1.865  0.7757 -1.7335  0.3497
   11CHTO   O14 4566   3.866   5.893   1.692  0.5530  0.5065 -0.2287
   11CHTO   C23 4567   3.875   6.037   1.682  0.1892  0.1122 -0.5135
   11CHTO   H51 4568   3.891   6.072   1.785 -1.4406 -0.2646 -0.1171
   11CHTO   C34 4569   3.745   6.097   1.635  0.2184 -0.3083 -0.2824
   11CHTO   O23 4570   3.690   6.042   1.509 -0.4567 -0.2222  0.2028
   11CHTO   H38 4571   3.601   6.071   1.502 -0.3589  0.3699  1.2299
   11CHTO   O16 4572   3.940   5.677   1.762 -0.2369  0.1302  0.2767
   11CHTO   C24 4573   3.842   5.621   1.651 -0.5183 -0.7570  0.5211
   11CHTO   H52 4574   3.830   5.690   1.567 -1.2209 -0.1664  1.0967
   11CHTO   C26 4575   3.705   5.592   1.720  0.1282 -0.0824 -0.5484
   11CHTO   H54 4576   3.723   5.516   1.799 -0.1043 -0.1651 -0.5762
   11CHTO   O20 4577   3.659   5.716   1.779 -0.1361  0.5433  0.2699
   11CHTO   H36 4578   3.667   5.723   1.872 -1.2719 -1.2662  0.5292
   11CHTO   C30 4579   3.600   5.546   1.612  0.2022  0.3970 -0.3560
   11CHTO   H58 4580   3.574   5.629   1.545 -0.2574  0.4292 -0.1374
   11CHTO    N6 4581   3.473   5.500   1.674  0.3577  0.6036  0.2076
   11CHTO   H45 4582   3.476   5.395   1.697 -1.3024  0.9142  1.9671
   11CHTO   H46 4583   3.398   5.513   1.598 -0.8098 -1.5179  0.9493
   11CHTO   C33 4584   3.662   5.435   1.521 -0.9477  0.4334 -0.0979
   11CHTO   H61 4585   3.650   5.336   1.568 -0.3804 -0.7155 -2.2749
   11CHTO   O18 4586   3.800   5.450   1.495 -0.1117  0.1787 -0.1380
   11CHTO   C28 4587   3.889   5.487   1.597  0.1958  0.0017 -0.2869
   11CHTO   H56 4588   3.873   5.414   1.676  1.2264  0.1919  0.0982
   11CHTO   C35 4589   4.041   5.477   1.552  0.0927  0.2229 -0.7232
   11CHTO   O24 4590   4.080   5.344   1.519 -0.1607 -0.3068 -0.4855
   11CHTO   H39 4591   4.171   5.340   1.497  0.1897 -0.1947  0.8989
   11CHTO    O9 4592   3.589   5.422   1.397  0.0260  0.5245  0.0987
   11CHTO   C13 4593   3.616   5.536   1.286  0.7384  0.3170 -0.1955
   11CHTO   H26 4594   3.662   5.628   1.327  0.4183  1.6699 -2.7657
   11CHTO   C11 4595   3.475   5.568   1.216  0.3859 -0.1023  0.3382
   11CHTO   H24 4596   3.404   5.603   1.293 -1.2984 -0.4414 -1.0272
   11CHTO    O8 4597   3.430   5.449   1.147  0.5035 -0.1489 -0.1617
   11CHTO    H3 4598   3.476   5.435   1.066  1.9561  0.0793  0.6177
   11CHTO    C9 4599   3.496   5.693   1.126 -0.1386 -0.3407  0.0342
   11CHTO   H22 4600   3.513   5.778   1.194  3.4539  0.7203 -2.0672
   11CHTO    N2 4601   3.366   5.734   1.056 -0.1317  0.4264 -0.1718
   11CHTO   H10 4602   3.281   5.736   1.123  1.1964 -1.0498  1.5822
   11CHTO   H11 4603   3.370   5.821   0.992 -0.0185  2.9407  3.1498
   11CHTO    C7 4604   3.624   5.675   1.035 -1.4011 -0.2803  0.0290
   11CHTO   H20 4605   3.693   5.749   1.079  1.4892 -2.6207 -0.3706
   11CHTO    O4 4606   3.684   5.539   1.042 -0.0091  0.2001  0.2146
   11CHTO   C14 4607   3.723   5.491   1.174 -0.0946  0.6138 -0.3926
   11CHTO   H27 4608   3.823   5.532   1.200  0.9924 -0.6425 -2.4443
   11CHTO   C18 4609   3.744   5.334   1.168  0.2971  0.6808 -0.0122
   11CHTO   O13 4610   3.850   5.292   1.081  0.1140 -0.1599  0.0887
   11CHTO    H7 4611   3.845   5.328   0.995  1.2566 -0.0989  0.0457
   11CHTO    O2 4612   3.596   5.713   0.873  0.0061 -0.2818  0.1922
   11CHTO    C1 4613   3.673   5.824   0.817  0.2528  0.1325  0.0746
   11CHTO   H14 4614   3.726   5.880   0.897 -0.8106  0.0981  0.8207
   11CHTO    C2 4615   3.577   5.926   0.737  1.0824 -0.2149 -0.2467
   11CHTO   H15 4616   3.504   5.866   0.681  0.8661  1.1381 -1.4350
   11CHTO    O6 4617   3.504   5.994   0.839  0.3473 -0.1746  0.1433
   11CHTO    H1 4618   3.433   5.942   0.873  0.1187  1.4057  2.2081
   11CHTO    C3 4619   3.667   6.024   0.649 -0.0580  0.5189  0.0855
   11CHTO   H16 4620   3.721   6.090   0.719  3.4133 -3.0321  0.9451
   11CHTO    N1 4621   3.580   6.105   0.555  0.5056  0.3981 -0.1132
   11CHTO    H8 4622   3.519   6.165   0.622  1.8551  0.1704  1.3404
   11CHTO    H9 4623   3.509   6.047   0.498 -1.1905  1.4287  0.8973
   11CHTO    C4 4624   3.780   5.944   0.577 -0.4331  0.0290 -0.4047
   11CHTO   H17 4625   3.734   5.879   0.502 -1.1999  0.2083 -0.0877
   11CHTO    O1 4626   3.858   5.865   0.662  0.3674  0.0466 -0.2340
   11CHTO    C5 4627   3.776   5.760   0.721 -0.3219  0.5090  0.0024
   11CHTO   H18 4628   3.716   5.711   0.644 -0.7070 -1.1880  1.3792
   11CHTO   C16 4629   3.866   5.650   0.789 -0.2755  0.1205 -0.2790
   11CHTO   O11 4630   3.935   5.696   0.910 -0.2622 -0.1489  0.0781
   11CHTO    H5 4631   3.871   5.718   0.974 -1.4228 -0.7311 -0.8619
   11CHTO    O3 4632   3.874   6.034   0.510  0.4108  0.2243  0.8293
   11CHTO    C6 4633   3.922   6.002   0.371  0.0870 -0.3505  0.1224
   11CHTO   H19 4634   3.888   5.902   0.342 -0.8919 -0.0661  0.2921
   11CHTO    C8 4635   3.878   6.114   0.269 -0.0071  0.0666  0.0133
   11CHTO   H21 4636   3.903   6.212   0.310  0.1029 -0.5088  1.3250
   11CHTO    O7 4637   3.736   6.097   0.256 -0.1998  0.4311  0.4698
   11CHTO    H2 4638   3.703   6.151   0.186 -0.4438  2.3996  2.0565
   11CHTO   C12 4639   3.948   6.099   0.127 -0.5588 -0.1333  0.2581
   11CHTO   H25 4640   3.927   6.001   0.079  0.3971  0.4619 -1.4339
   11CHTO    N3 4641   3.902   6.209   0.036  0.8631  0.2872 -0.1606
   11CHTO   H12 4642   3.919   6.301   0.090  0.1358  0.1485  0.3020
   11CHTO   H13 4643   3.965   6.210  -0.052 -0.4586 -2.4767 -1.2180
   11CHTO   C15 4644   4.103   6.118   0.159  0.0013  0.0231  0.6492
   11CHTO   H28 4645   4.117   6.216   0.206 -1.1938  0.6300 -0.2127
   11CHTO   O10 4646   4.200   6.103   0.028  0.3439  0.3418  0.1931
   11CHTO    H4 4647   4.162   6.140  -0.049  1.5943 -1.0217 -1.1222
   11CHTO    O5 4648   4.139   6.013   0.253 -0.1529  0.1188  0.5535
   11CHTO   C10 4649   4.078   5.998   0.384 -0.5422  0.2530 -0.4287
   11CHTO   H23 4650   4.102   6.076   0.456  1.5600  0.3940 -1.2517
   11CHTO   C17 4651   4.110   5.857   0.438 -0.0803 -0.0937  0.2484
   11CHTO   O12 4652   4.246   5.850   0.468  0.6544  0.2927 -0.0776
   11CHTO    H6 4653   4.252   5.815   0.555 -0.2619  1.1970  0.3660
   12CHTO  H203 4654   5.422   1.660   2.828  0.8925 -0.3664  0.4625
   12CHTO   O82 4655   5.422   1.722   2.898  0.1210  0.3304 -0.1481
   12CHTO  C123 4656   5.403   1.654   3.026 -0.1392 -0.2595  0.1242
   12CHTO  H227 4657   5.381   1.723   3.108 -3.4161 -0.3660 -0.6035
   12CHTO   O77 4658   5.288   1.572   3.012 -0.1844 -0.5548 -0.3418
   12CHTO  C118 4659   5.260   1.482   3.123 -0.2533  0.4836  0.9671
   12CHTO  H222 4660   5.259   1.526   3.224 -0.7899 -0.1022  1.2149
   12CHTO  C125 4661   5.111   1.430   3.093 -0.0702  0.2308 -0.2019
   12CHTO   O84 4662   5.062   1.402   2.960  0.1983 -0.6411 -0.5012
   12CHTO  H205 4663   5.040   1.484   2.920  0.6854  1.2758  2.9052
   12CHTO  C114 4664   5.370   1.370   3.106 -0.0428 -1.0590 -0.4090
   12CHTO  H218 4665   5.371   1.334   3.003  0.2160  0.0377 -0.8002
   12CHTO  C116 4666   5.514   1.430   3.120 -0.1129 -0.1551  0.5087
   12CHTO  H220 4667   5.524   1.431   3.231 -0.6248  2.4397  0.5777
   12CHTO   O79 4668   5.608   1.329   3.073 -0.3953 -0.2840 -0.1233
   12CHTO  H201 4669   5.696   1.341   3.102 -1.2153 -2.8475  3.7881
   12CHTO  C120 4670   5.530   1.571   3.048 -0.1286  0.2358 -0.2749
   12CHTO  H224 4671   5.577   1.540   2.952 -1.5153 -0.5954 -0.6909
   12CHTO   N21 4672   5.639   1.650   3.115  0.4559 -0.4804 -0.2265
   12CHTO  H211 4673   5.737   1.629   3.074  0.2480 -2.6827  0.3606
   12CHTO  H212 4674   5.650   1.613   3.216  1.5692  0.1816 -0.0879
   12CHTO   O75 4675   5.331   1.271   3.203 -0.0247 -0.3018 -0.4800
   12CHTO  C112 4676   5.351   1.114   3.157 -0.2350  0.5493 -0.7899
   12CHTO  H216 4677   5.447   1.096   3.105 -0.5604 -0.5183 -1.0402
   12CHTO   O73 4678   5.240   1.072   3.074  0.4422  0.2856 -0.3608
   12CHTO  C113 4679   5.251   0.933   3.032 -0.2581 -0.4237  0.4978
   12CHTO  H217 4680   5.336   0.936   2.961 -2.2482  0.8681 -1.9446
   12CHTO  C124 4681   5.137   0.920   2.928  0.7175  0.6634 -0.4089
   12CHTO   O83 4682   5.160   1.002   2.812 -0.1986  0.0308  0.1579
   12CHTO  H204 4683   5.219   0.968   2.749 -2.2611 -2.2967 -0.5895
   12CHTO  C109 4684   5.253   0.823   3.146  0.5535 -0.8077  0.0118
   12CHTO  H213 4685   5.152   0.820   3.190  0.6266  0.3500  0.2910
   12CHTO  C110 4686   5.349   0.873   3.259 -0.5062 -0.1765 -0.3130
   12CHTO  H214 4687   5.450   0.848   3.228  0.0999 -0.3478  1.7132
   12CHTO   O78 4688   5.325   0.788   3.376  0.4672  0.4989 -0.5217
   12CHTO  H200 4689   5.401   0.780   3.431  0.4609 -2.8480 -0.8897
   12CHTO  C111 4690   5.341   1.022   3.291  0.8867  0.8590  0.2491
   12CHTO  H215 4691   5.243   1.047   3.334  0.4511  1.3696 -0.9860
   12CHTO   N19 4692   5.438   1.062   3.388  0.0795 -0.0747  0.1708
   12CHTO  H207 4693   5.467   1.162   3.359 -2.6131 -0.0172 -2.4362
   12CHTO  H208 4694   5.403   1.064   3.490  0.3315 -1.2202  0.2840
   12CHTO   O74 4695   5.282   0.694   3.086  0.1140 -0.2513 -0.6694
   12CHTO  C115 4696   5.145   0.614   3.067  0.9850 -0.3327 -0.1117
   12CHTO  H219 4697   5.058   0.669   3.101  0.4892 -1.2951  0.1983
   12CHTO   O76 4698   5.114   0.586   2.910  0.1651 -0.1604 -0.8390
   12CHTO  C122 4699   5.008   0.501   2.880  0.4381 -0.4911 -0.7599
   12CHTO  H226 4700   5.020   0.484   2.773  1.6309 -0.7745 -0.5892
   12CHTO  C126 4701   4.865   0.567   2.914 -0.2534  0.5650 -0.2923
   12CHTO   O85 4702   4.745   0.507   2.865 -0.0768  0.3969  0.3680
   12CHTO  H206 4703   4.739   0.417   2.889 -2.1438  0.9382  2.0844
   12CHTO  C121 4704   5.019   0.355   2.948  0.4030 -0.1203  0.4118
   12CHTO  H225 4705   4.922   0.304   2.927  0.2179 -0.1130  1.2469
   12CHTO   O81 4706   5.125   0.276   2.894 -0.4586 -0.5190  0.1305
   12CHTO  H202 4707   5.207   0.315   2.921 -0.8434 -0.4194  1.2016
   12CHTO  C119 4708   5.032   0.376   3.102  0.1161 -0.8700 -0.6815
   12CHTO  H223 4709   4.944   0.428   3.140  1.5031 -0.2603  1.8223
   12CHTO  C117 4710   5.153   0.476   3.139 -0.3950  0.4231  0.3759
   12CHTO  H221 4711   5.249   0.438   3.104 -1.7224 -0.1330 -2.8584
   12CHTO   N20 4712   5.167   0.488   3.289  0.2497 -0.0647 -0.6716
   12CHTO  H209 4713   5.086   0.548   3.328 -1.0419 -0.8238 -2.1251
   12CHTO  H210 4714   5.150   0.389   3.328 -0.2436 -0.3059 -1.4817
   12CHTO   O80 4715   5.022   0.250   3.173 -0.2863  0.0008  0.3289
   12CHTO  C103 4716   4.875   0.203   3.251  0.1865 -0.0736 -0.3761
   12CHTO  H190 4717   4.826   0.288   3.298  1.3466 -0.5555  1.7832
   12CHTO  C101 4718   4.769   0.127   3.168  0.1165 -0.6419 -0.0186
   12CHTO  H188 4719   4.823   0.044   3.123  1.6583  0.0172  0.5899
   12CHTO   O68 4720   4.711   0.247   3.066 -0.1808 -0.2158 -0.0662
   12CHTO  H168 4721   4.619   0.230   3.054 -0.4425  1.9054 -1.3823
   12CHTO   C99 4722   4.653   0.075   3.266 -0.2112  0.2293  0.7336
   12CHTO  H186 4723   4.611   0.166   3.315 -2.8487  1.0794 -2.8526
   12CHTO   N17 4724   4.546   0.009   3.187  0.3746  0.0324 -0.4685
   12CHTO  H174 4725   4.588  -0.083   3.148  1.5272  0.3650 -0.0365
   12CHTO  H175 4726   4.465  -0.014   3.254  1.3752  0.1735  0.8086
   12CHTO   C97 4727   4.716  -0.014   3.376 -0.1206  0.6603 -0.4199
   12CHTO  H184 4728   4.761  -0.105   3.335 -1.2140 -0.6172  1.1389
   12CHTO   O64 4729   4.813   0.064   3.444  0.3585 -0.3779  0.0778
   12CHTO  C104 4730   4.928   0.110   3.368  0.3107  0.8390 -0.7896
   12CHTO  H191 4731   4.993   0.032   3.331 -0.9948 -0.6598  0.0069
   12CHTO  C108 4732   5.014   0.196   3.456  0.3802  0.3690 -0.0805
   12CHTO   O71 4733   5.039   0.120   3.576  0.1321 -0.2461 -0.9589
   12CHTO  H171 4734   4.966   0.104   3.633 -0.0379 -0.2179 -1.1666
   12CHTO   O62 4735   4.611  -0.042   3.468  0.1232  0.0958  0.3686
   12CHTO   C91 4736   4.566  -0.178   3.501 -0.1326  0.6234 -0.2613
   12CHTO  H178 4737   4.573  -0.236   3.409  0.6244 -1.9600  1.3687
   12CHTO   C92 4738   4.416  -0.178   3.544 -0.5466  0.3528  0.6402
   12CHTO  H179 4739   4.394  -0.108   3.626  0.5121  1.3572  0.0634
   12CHTO   O66 4740   4.336  -0.130   3.429 -0.5750  0.7151  0.1919
   12CHTO  H166 4741   4.243  -0.132   3.446 -0.5657  2.2458  0.5675
   12CHTO   C93 4742   4.353  -0.325   3.576 -0.2501 -0.3152  0.2379
   12CHTO  H180 4743   4.365  -0.384   3.484  0.0520 -1.0280  0.7313
   12CHTO   N16 4744   4.221  -0.320   3.637  0.9490 -0.1659 -0.2486
   12CHTO  H172 4745   4.169  -0.414   3.620 -0.6104  0.4979  0.7275
   12CHTO  H173 4746   4.151  -0.241   3.615  0.8603 -0.0076  0.6145
   12CHTO   C94 4747   4.454  -0.388   3.681 -0.6152 -0.4820 -0.0121
   12CHTO  H181 4748   4.453  -0.331   3.774  1.5198 -0.6230  0.1297
   12CHTO   O61 4749   4.588  -0.395   3.626  0.6688  0.4051  0.3958
   12CHTO   C95 4750   4.648  -0.261   3.613 -0.4638  0.4630  0.3773
   12CHTO  H182 4751   4.646  -0.210   3.709  1.5968 -0.9737  1.2206
   12CHTO  C106 4752   4.804  -0.282   3.592 -0.6284 -0.3155  0.1639
   12CHTO   O69 4753   4.822  -0.362   3.478 -0.0121 -0.3759  0.8122
   12CHTO  H169 4754   4.912  -0.365   3.453 -0.4926  1.1424 -1.2757
   12CHTO   O63 4755   4.423  -0.548   3.715 -0.1010  0.7975 -0.1186
   12CHTO   C96 4756   4.529  -0.613   3.826 -0.0389 -0.0241  0.4028
   12CHTO  H183 4757   4.624  -0.581   3.784 -0.5457 -0.5922 -1.2165
   12CHTO   C98 4758   4.493  -0.760   3.829  0.3160 -0.0907  0.5173
   12CHTO  H185 4759   4.389  -0.774   3.863 -0.6332  2.0551 -1.4086
   12CHTO   O67 4760   4.502  -0.828   3.698  0.3024  0.5197  0.1271
   12CHTO  H167 4761   4.413  -0.831   3.669 -0.1368 -1.6087  1.5806
   12CHTO  C102 4762   4.603  -0.827   3.927 -0.4229 -0.1458 -1.2065
   12CHTO  H189 4763   4.701  -0.809   3.881  0.0092  3.3257  0.8606
   12CHTO   N18 4764   4.588  -0.979   3.953 -0.1233 -0.2854 -0.5116
   12CHTO  H176 4765   4.544  -1.018   3.862  0.2017 -0.4718 -0.5881
   12CHTO  H177 4766   4.522  -0.998   4.036  0.4782  0.6087  0.1850
   12CHTO  C105 4767   4.604  -0.752   4.063  0.1214 -0.3799 -0.3602
   12CHTO  H192 4768   4.561  -0.816   4.140 -1.2764  0.0627 -0.7431
   12CHTO   O65 4769   4.511  -0.634   4.072 -0.0737 -0.2756 -0.4716
   12CHTO  C100 4770   4.496  -0.544   3.961  0.5590 -0.2240 -0.7025
   12CHTO  H187 4771   4.392  -0.509   3.960  0.4421 -0.4245  1.5893
   12CHTO  C107 4772   4.575  -0.416   3.982 -0.5349  0.5446  0.0517
   12CHTO   O70 4773   4.522  -0.354   4.098 -0.2700  0.1336 -0.3253
   12CHTO  H170 4774   4.512  -0.264   4.076 -0.3165 -0.3371 -2.3110
   12CHTO   O57 4775   4.763  -0.724   4.093  0.2913  0.4048  0.3717
   12CHTO   C85 4776   4.804  -0.707   4.228  0.0506  0.6601 -0.5277
   12CHTO  H157 4777   4.727  -0.749   4.296  2.2415 -0.1035  1.5470
   12CHTO   C83 4778   4.796  -0.557   4.277  0.0377  0.1870 -0.3645
   12CHTO  H155 4779   4.691  -0.532   4.264 -0.0606  0.1287  0.3087
   12CHTO   O56 4780   4.871  -0.483   4.179 -0.0543 -0.1570  0.0915
   12CHTO  H135 4781   4.858  -0.390   4.174  1.7304  0.1672  1.1167
   12CHTO   C81 4782   4.829  -0.552   4.430  0.3059  0.2143  0.2512
   12CHTO  H153 4783   4.758  -0.615   4.485 -1.2026 -0.2165 -2.1278
   12CHTO   N14 4784   4.816  -0.412   4.489 -0.2120  0.4980 -0.2800
   12CHTO  H141 4785   4.715  -0.376   4.483 -0.2955  0.0537 -1.5976
   12CHTO  H142 4786   4.840  -0.427   4.592 -0.2418  1.8318 -0.0719
   12CHTO   C79 4787   4.975  -0.608   4.457  0.2887  0.7063 -0.0618
   12CHTO  H151 4788   4.992  -0.613   4.565  0.6404  3.1471  0.0073
   12CHTO   O52 4789   4.985  -0.739   4.404  0.2629  0.4024  0.1353
   12CHTO   C86 4790   4.947  -0.762   4.269  0.0454  0.2029 -0.2502
   12CHTO  H158 4791   5.024  -0.711   4.207 -0.3448  2.0763  0.7753
   12CHTO   C90 4792   4.953  -0.908   4.247  0.2592  0.2645  0.5397
   12CHTO   O60 4793   5.078  -0.959   4.281 -0.0700  0.2475  0.0989
   12CHTO  H138 4794   5.075  -1.011   4.359  0.5546  0.1907  0.0869
   12CHTO   O50 4795   5.087  -0.531   4.404  0.4573  0.0397  0.5831
   12CHTO   C73 4796   5.197  -0.482   4.481 -0.9442 -0.2956 -0.8099
   12CHTO  H145 4797   5.186  -0.508   4.587 -0.4499 -1.1331 -0.9624
   12CHTO   C74 4798   5.208  -0.320   4.469  0.0663  0.2761 -0.9863
   12CHTO  H146 4799   5.108  -0.280   4.490  0.5010  0.9868 -0.2297
   12CHTO   O54 4800   5.299  -0.284   4.575  0.6024  0.1270  0.3336
   12CHTO  H133 4801   5.288  -0.324   4.659  1.9649 -0.9638  0.0161
   12CHTO   C75 4802   5.257  -0.278   4.330 -0.2710  0.7771 -0.0994
   12CHTO  H147 4803   5.177  -0.297   4.257  0.4452  0.2725 -0.7565
   12CHTO   N13 4804   5.269  -0.128   4.317 -0.5184  1.3109 -0.1710
   12CHTO  H139 4805   5.316  -0.075   4.399  0.8605 -0.0159 -0.0870
   12CHTO  H140 4806   5.328  -0.112   4.227 -1.4544  0.6872 -0.9045
   12CHTO   C76 4807   5.385  -0.360   4.295 -0.0824 -0.3990 -0.3968
   12CHTO  H148 4808   5.463  -0.346   4.370  2.2783 -2.7602 -2.2881
   12CHTO   O49 4809   5.352  -0.505   4.294 -0.4782 -0.1816 -0.0730
   12CHTO   C77 4810   5.327  -0.561   4.423 -0.4699  0.1154 -0.8693
   12CHTO  H149 4811   5.407  -0.550   4.496  0.4935 -2.7710 -1.4161
   12CHTO   C88 4812   5.310  -0.711   4.405 -0.5223 -0.1332 -0.1263
   12CHTO   O58 4813   5.291  -0.770   4.541  0.6383  0.4601  0.7264
   12CHTO  H136 4814   5.220  -0.832   4.541  0.3551  0.7785  1.6316
   12CHTO   O51 4815   5.449  -0.309   4.150 -0.2010 -0.1410  0.1170
   12CHTO   C78 4816   5.582  -0.406   4.106 -0.1686  0.1615 -1.0222
   12CHTO  H150 4817   5.579  -0.513   4.134 -1.1179  0.5231  0.3153
   12CHTO   C80 4818   5.706  -0.342   4.158 -0.3001 -0.1038  0.4517
   12CHTO  H152 4819   5.706  -0.235   4.129  2.3899 -0.5899 -1.6262
   12CHTO   O55 4820   5.708  -0.347   4.308  0.2207 -0.1161  0.2091
   12CHTO  H134 4821   5.689  -0.426   4.355  3.2263 -0.9415  0.1001
   12CHTO   C84 4822   5.834  -0.410   4.090  0.5035 -0.8158  0.3231
   12CHTO  H156 4823   5.839  -0.507   4.140  0.3446 -0.6425  0.6774
   12CHTO   N15 4824   5.961  -0.337   4.130 -0.3040 -0.1106 -0.5677
   12CHTO  H143 4825   6.006  -0.284   4.049  2.2754 -1.8687 -0.3463
   12CHTO  H144 4826   6.031  -0.406   4.172 -2.0373 -0.9710  0.9869
   12CHTO   C87 4827   5.824  -0.435   3.942 -0.2042  0.2188  0.0409
   12CHTO  H159 4828   5.850  -0.348   3.880  0.4412  0.1544  0.2145
   12CHTO   O53 4829   5.703  -0.497   3.914  0.0289  0.0422  0.0635
   12CHTO   C82 4830   5.586  -0.419   3.955  0.2344  0.0356  0.2013
   12CHTO  H154 4831   5.595  -0.318   3.916  0.8842  0.5926  1.7345
   12CHTO   C89 4832   5.460  -0.484   3.890  0.3145  0.0504  0.7657
   12CHTO   O59 4833   5.465  -0.490   3.744  0.7184 -0.0704  0.1054
   12CHTO  H137 4834   5.455  -0.576   3.708 -0.4299  0.9687 -2.1779
   12CHTO   O45 4835   5.935  -0.554   3.902 -0.1207  0.1266 -0.0388
   12CHTO   C67 4836   5.972  -0.541   3.764 -0.3473  0.0056  0.2368
   12CHTO  H124 4837   6.032  -0.628   3.740 -0.9700 -0.6041  0.8268
   12CHTO   C65 4838   5.862  -0.527   3.660 -0.7447 -0.6673 -0.1079
   12CHTO  H122 4839   5.781  -0.464   3.697  0.4116  0.6816  0.1823
   12CHTO   O44 4840   5.799  -0.657   3.652  0.2863 -0.1482 -0.0706
   12CHTO  H102 4841   5.727  -0.657   3.592 -0.5520  1.0485  0.9034
   12CHTO   C63 4842   5.903  -0.453   3.520  0.3922  0.6779 -0.3845
   12CHTO  H120 4843   5.888  -0.346   3.525 -1.4282  0.3688  1.5565
   12CHTO   N11 4844   5.817  -0.495   3.399  0.3882 -0.5152 -0.4066
   12CHTO  H108 4845   5.760  -0.577   3.436  1.7673 -1.4876 -0.3836
   12CHTO  H109 4846   5.747  -0.420   3.371  0.7255  1.3368  3.4225
   12CHTO   C61 4847   6.052  -0.466   3.502 -0.3255 -0.0644  0.7542
   12CHTO  H118 4848   6.078  -0.413   3.409 -1.4487 -0.8325 -0.0080
   12CHTO   O40 4849   6.126  -0.409   3.610  0.3572  0.1475 -0.5683
   12CHTO   C68 4850   6.064  -0.417   3.742  0.3787 -0.4955 -0.0180
   12CHTO  H125 4851   6.001  -0.327   3.758 -0.4206 -0.8144 -1.3170
   12CHTO   C72 4852   6.174  -0.424   3.855  0.1796 -0.7802 -0.1043
   12CHTO   O48 4853   6.278  -0.522   3.829 -0.0260 -0.3032  0.1213
   12CHTO  H105 4854   6.343  -0.537   3.895  1.5134  1.5530 -0.8894
   12CHTO   O38 4855   6.099  -0.606   3.477 -0.4615  0.7350 -0.0184
   12CHTO   C55 4856   6.236  -0.630   3.492 -0.5358  0.3475 -0.5668
   12CHTO  H112 4857   6.269  -0.596   3.591  0.0721 -2.2941  0.1857
   12CHTO   C56 4858   6.336  -0.583   3.376 -0.7343 -0.5625 -0.0180
   12CHTO  H113 4859   6.304  -0.632   3.283  0.8556 -0.7825 -0.4656
   12CHTO   O42 4860   6.318  -0.439   3.365  0.5412 -0.4081 -0.1237
   12CHTO  H100 4861   6.353  -0.412   3.282  2.4116  0.5068  0.9531
   12CHTO   C57 4862   6.482  -0.627   3.411 -0.1332 -0.4319  0.8842
   12CHTO  H114 4863   6.507  -0.580   3.506  0.9368  0.8623 -0.0160
   12CHTO   N10 4864   6.591  -0.585   3.317 -0.0872 -0.7725  0.6007
   12CHTO  H106 4865   6.564  -0.494   3.266  0.4213  0.5867  2.6996
   12CHTO  H107 4866   6.683  -0.567   3.370  0.7820 -2.6311 -0.2229
   12CHTO   C58 4867   6.490  -0.781   3.424 -1.0176 -0.2385  0.4524
   12CHTO  H115 4868   6.467  -0.828   3.326  2.3797 -1.5120  0.2186
   12CHTO   O37 4869   6.390  -0.814   3.522 -0.4712 -0.2224  0.0717
   12CHTO   C59 4870   6.252  -0.784   3.502 -0.2672 -0.0480  0.1580
   12CHTO  H116 4871   6.213  -0.840   3.417  1.2486 -1.3034  0.2593
   12CHTO   C70 4872   6.184  -0.845   3.627  0.7473 -0.4295  0.0791
   12CHTO   O46 4873   6.046  -0.859   3.614  0.2737  0.1229  0.6053
   12CHTO  H103 4874   6.011  -0.943   3.638 -1.8339  1.1306  1.1402
   12CHTO   O39 4875   6.636  -0.841   3.486 -0.1306  0.3917  0.1064
   12CHTO   C60 4876   6.645  -0.981   3.500 -0.5651  0.6849 -0.6126
   12CHTO  H117 4877   6.544  -1.021   3.504 -0.3284  0.1933  1.5962
   12CHTO   C62 4878   6.718  -1.054   3.378  0.1031  0.3435 -0.3109
   12CHTO  H119 4879   6.640  -1.058   3.299 -2.1058  0.1553  1.8202
   12CHTO   O43 4880   6.829  -0.976   3.337  0.5312  0.3433 -0.0471
   12CHTO  H101 4881   6.874  -0.935   3.408  2.1265  1.0732 -1.4522
   12CHTO   C66 4882   6.767  -1.205   3.421 -0.1373  0.1332  1.4254
   12CHTO  H123 4883   6.676  -1.264   3.425 -0.3449  0.1990 -1.2755
   12CHTO   N12 4884   6.850  -1.264   3.306 -0.0152 -0.1940 -0.0419
   12CHTO  H110 4885   6.840  -1.190   3.228 -2.4002  0.0917  0.5186
   12CHTO  H111 4886   6.948  -1.269   3.352  0.5459  1.0555 -1.0762
   12CHTO   C69 4887   6.840  -1.208   3.555  0.2488 -0.1560 -0.0358
   12CHTO  H126 4888   6.933  -1.148   3.561  0.0662  0.0653  0.6514
   12CHTO   O41 4889   6.745  -1.151   3.662  0.0287 -0.3897  0.3430
   12CHTO   C64 4890   6.702  -1.007   3.638 -1.0251  0.9190  0.6534
   12CHTO  H121 4891   6.789  -0.945   3.669 -0.9900  0.8248  0.7486
   12CHTO   C71 4892   6.613  -0.969   3.761 -0.1189  0.1285 -0.1943
   12CHTO   O47 4893   6.680  -1.002   3.880 -0.4338 -0.6674 -0.2605
   12CHTO  H104 4894   6.753  -0.945   3.891  0.2264 -1.3432 -1.0605
   12CHTO   O34 4895   6.889  -1.368   3.593 -0.6794  0.3808  0.2945
   12CHTO   C49 4896   6.971  -1.453   3.700 -0.1433 -0.3296  0.2978
   12CHTO   H91 4897   7.073  -1.454   3.660 -0.8603 -1.1183 -1.5501
   12CHTO   C47 4898   6.923  -1.598   3.700  0.1339  0.1587  0.4198
   12CHTO   H89 4899   6.996  -1.657   3.759  0.8455  0.0610 -0.5546
   12CHTO   O33 4900   6.920  -1.647   3.564  0.1483 -0.0390 -0.6345
   12CHTO   H70 4901   7.005  -1.663   3.527  0.8520  3.0942 -0.5633
   12CHTO   C45 4902   6.775  -1.612   3.757  0.6970  0.1592 -0.1489
   12CHTO   H87 4903   6.700  -1.603   3.676  1.0267 -0.6443 -0.5462
   12CHTO    N8 4904   6.761  -1.745   3.813 -0.1766  0.4159 -0.0359
   12CHTO   H75 4905   6.825  -1.739   3.900 -0.0352  0.5504 -0.1486
   12CHTO   H76 4906   6.660  -1.750   3.850 -0.2740  2.7173  0.0722
   12CHTO   C43 4907   6.734  -1.474   3.839  0.2127 -0.2947  0.1771
   12CHTO   H85 4908   6.708  -1.400   3.764 -0.9012  2.2825  3.0220
   12CHTO   O29 4909   6.845  -1.433   3.916 -0.2527 -0.2212  0.4868
   12CHTO   C50 4910   6.962  -1.389   3.842  0.3682 -0.1027 -0.3721
   12CHTO   H92 4911   6.967  -1.280   3.833 -1.1037 -0.0925 -1.2891
   12CHTO   C54 4912   7.095  -1.414   3.927  0.1566 -0.2709  0.3974
   12CHTO   O36 4913   7.207  -1.355   3.868  0.3809  0.2120  0.1953
   12CHTO   H72 4914   7.250  -1.420   3.815  0.8379  0.2973  0.4645
   12CHTO   O27 4915   6.629  -1.486   3.931  0.3020 -0.0500 -0.2409
   12CHTO   C37 4916   6.495  -1.442   3.928  0.1158 -0.3183 -0.2603
   12CHTO   H79 4917   6.480  -1.363   3.853 -2.2356 -1.0724 -0.6012
   12CHTO   C38 4918   6.396  -1.555   3.878  0.0773 -0.7073  0.4296
   12CHTO   H80 4919   6.407  -1.641   3.946  1.2268  0.4350  1.7282
   12CHTO   O31 4920   6.436  -1.597   3.749  0.1358  0.2888  0.4965
   12CHTO   H68 4921   6.417  -1.689   3.747  0.6919  0.1464  1.3360
   12CHTO   C39 4922   6.250  -1.501   3.881  0.1497 -0.6403 -0.6511
   12CHTO   H81 4923   6.235  -1.426   3.804 -0.2222 -1.4582 -1.3907
   12CHTO    N7 4924   6.143  -1.604   3.854  0.1265  0.3729  1.0095
   12CHTO   H73 4925   6.044  -1.569   3.876 -0.5737 -0.1174 -1.2216
   12CHTO   H74 4926   6.157  -1.652   3.758 -0.1438 -0.9386  1.6140
   12CHTO   C40 4927   6.212  -1.433   4.021 -0.5965 -0.6034 -0.4961
   12CHTO   H82 4928   6.214  -1.514   4.094 -1.8123 -0.9641 -0.8452
   12CHTO   O26 4929   6.309  -1.334   4.055 -0.5353 -0.2461 -0.3895
   12CHTO   C41 4930   6.446  -1.388   4.070  0.1315  0.5050  0.4686
   12CHTO   H83 4931   6.453  -1.470   4.143 -0.2640  0.8936  0.9453
   12CHTO   C52 4932   6.533  -1.273   4.125 -0.8113  0.4849 -0.0399
   12CHTO   O35 4933   6.489  -1.227   4.277  0.2559 -0.2568 -0.2582
   12CHTO   H71 4934   6.548  -1.162   4.312 -0.9707  0.5187  0.4260
   12CHTO   O28 4935   6.083  -1.365   4.029 -0.1219  0.2318  0.3098
   12CHTO   C42 4936   6.022  -1.248   3.960 -0.2048  0.9185 -0.4707
   12CHTO   H84 4937   6.071  -1.235   3.864  1.5981  0.8364  0.4049
   12CHTO   C44 4938   6.046  -1.116   4.034 -0.5734 -0.0093  0.5326
   12CHTO   H86 4939   6.024  -1.128   4.140  1.6424  1.5433  1.1980
   12CHTO   O32 4940   6.186  -1.101   4.032 -0.2247 -0.6502 -0.4676
   12CHTO   H69 4941   6.206  -1.013   4.057  1.8887 -1.1540 -0.2852
   12CHTO   C48 4942   5.973  -0.994   3.973 -0.8183 -0.1385  0.6075
   12CHTO   H90 4943   6.020  -0.966   3.878 -1.4694  0.0441  0.3366
   12CHTO    N9 4944   5.989  -0.870   4.055  0.7775  0.2817 -0.0254
   12CHTO   H77 4945   5.953  -0.885   4.156  0.7037 -0.6919 -0.1878
   12CHTO   H78 4946   5.934  -0.787   4.014 -0.9007 -0.5605  0.4915
   12CHTO   C51 4947   5.825  -1.036   3.945 -0.0505 -0.5789  0.5673
   12CHTO   H93 4948   5.753  -1.036   4.026  1.1144  3.8048  1.7617
   12CHTO   O30 4949   5.825  -1.157   3.865  1.0081 -0.0496  0.0976
   12CHTO   C46 4950   5.868  -1.262   3.941  0.0304 -0.4577  0.1603
   12CHTO   H88 4951   5.826  -1.249   4.041  0.5439  0.0691  0.3109
   12CHTO   C53 4952   5.833  -1.389   3.875 -0.4434  0.1836  0.1176
   12CHTO   O72 4953   5.709  -1.444   3.914 -0.0748  0.0115  0.0618
   12CHTO  H199 4954   5.710  -1.519   3.971 -2.3593 -1.1329 -1.3479
   12CHTO   O22 4955   5.777  -0.938   3.844 -0.3881 -0.4259 -0.1509
   12CHTO   C31 4956   5.624  -0.951   3.816 -0.4502 -0.4556 -0.1142
   12CHTO   H59 4957   5.600  -1.058   3.827 -1.1834 -0.1387  1.4440
   12CHTO   C29 4958   5.531  -0.866   3.909  0.4380 -0.0963  0.7240
   12CHTO   H57 4959   5.555  -0.761   3.887  0.4268 -0.4387 -0.9932
   12CHTO   O21 4960   5.555  -0.900   4.042  0.2348  0.5006  0.5470
   12CHTO   H37 4961   5.600  -0.831   4.088 -0.9246 -0.2496  2.8969
   12CHTO   C27 4962   5.378  -0.888   3.880  1.0399  0.6419  0.5625
   12CHTO   H55 4963   5.350  -0.994   3.873 -1.7495  1.3626  0.1191
   12CHTO    N5 4964   5.281  -0.826   3.976  0.0577  0.8891 -0.0485
   12CHTO   H43 4965   5.293  -0.875   4.072 -0.4772 -0.7284 -0.7887
   12CHTO   H44 4966   5.276  -0.719   3.986 -4.5132  0.9374 -1.6156
   12CHTO   C25 4967   5.362  -0.844   3.736  0.1988  0.4624  0.7565
   12CHTO   H53 4968   5.382  -0.736   3.725 -2.1338  0.7717 -0.8014
   12CHTO   O17 4969   5.448  -0.917   3.644 -0.3611  0.0975  0.8474
   12CHTO   C32 4970   5.588  -0.914   3.666  0.0811  0.0953 -0.1089
   12CHTO   H60 4971   5.629  -0.817   3.637  0.2473 -0.0649 -0.4171
   12CHTO   C36 4972   5.652  -1.011   3.561  0.1582 -0.0074 -0.2631
   12CHTO   O25 4973   5.796  -0.995   3.524  0.4309 -0.4991 -0.3505
   12CHTO   H40 4974   5.824  -1.078   3.491  0.0879 -0.3127 -1.1309
   12CHTO   O15 4975   5.189  -0.851   3.680  0.3649  0.1280 -0.3709
   12CHTO   C19 4976   5.128  -0.765   3.579 -0.3790 -0.2145 -0.2509
   12CHTO   H47 4977   5.128  -0.666   3.626  3.0047  0.5012 -1.6038
   12CHTO   C20 4978   5.201  -0.765   3.444  0.3116  0.5564 -1.0230
   12CHTO   H48 4979   5.213  -0.866   3.404 -0.1747  0.2556 -0.4100
   12CHTO   O19 4980   5.333  -0.719   3.473  0.2630 -0.3380  0.2253
   12CHTO   H35 4981   5.336  -0.631   3.508 -0.4357  0.2044 -1.0776
   12CHTO   C21 4982   5.125  -0.688   3.330 -0.1813  0.0955  0.7975
   12CHTO   H49 4983   5.122  -0.583   3.359  0.5895  0.0033  1.2410
   12CHTO    N4 4984   5.186  -0.696   3.194  0.1268  0.0715 -0.6707
   12CHTO   H41 4985   5.136  -0.631   3.124  0.1889  0.4592 -0.3529
   12CHTO   H42 4986   5.190  -0.798   3.156  3.2346 -1.2618  2.8665
   12CHTO   C22 4987   4.981  -0.745   3.329 -0.2651  0.3179  0.4619
   12CHTO   H50 4988   4.992  -0.851   3.303 -0.5896  0.3768  0.0902
   12CHTO   O14 4989   4.915  -0.723   3.456 -0.3045 -0.0078 -0.1699
   12CHTO   C23 4990   4.974  -0.801   3.560  0.0652  0.0511 -0.7687
   12CHTO   H51 4991   4.959  -0.906   3.533 -0.1613 -0.5084  1.3981
   12CHTO   C34 4992   4.878  -0.774   3.675  0.6976 -0.2569 -0.0481
   12CHTO   O23 4993   4.884  -0.634   3.703  0.4135 -0.0235  0.0706
   12CHTO   H38 4994   4.801  -0.590   3.694  0.8241  0.9767  1.0159
   12CHTO   O16 4995   4.902  -0.674   3.239  0.6388 -0.2118  0.2601
   12CHTO   C24 4996   4.748  -0.729   3.205 -0.4510  0.2024  0.1515
   12CHTO   H52 4997   4.710  -0.691   3.111 -0.9437  0.8434  0.6049
   12CHTO   C26 4998   4.655  -0.678   3.316  0.0816 -0.7661 -0.7967
   12CHTO   H54 4999   4.685  -0.719   3.415 -1.0107  3.9374  1.6089
   12CHTO   O20 5000   4.654  -0.534   3.339  0.6209 -0.1520 -0.0951
   12CHTO   H36 5001   4.720  -0.494   3.285  1.5001  1.1147  1.8333
   12CHTO   C30 5002   4.505  -0.723   3.290 -0.4515 -0.1107  0.1195
   12CHTO   H58 5003   4.466  -0.678   3.198 -0.5464 -1.0215 -0.2919
   12CHTO    N6 5004   4.408  -0.691   3.402 -0.5380  0.0591  0.2423
   12CHTO   H45 5005   4.309  -0.727   3.378 -0.4496 -2.4919  3.4515
   12CHTO   H46 5006   4.407  -0.585   3.424  0.3260  0.5173 -1.7395
   12CHTO   C33 5007   4.506  -0.877   3.259 -0.3319 -0.3957 -0.9386
   12CHTO   H61 5008   4.521  -0.933   3.352  1.7756  1.5709 -0.0305
   12CHTO   O18 5009   4.606  -0.921   3.172 -0.4834 -0.3496  0.1419
   12CHTO   C28 5010   4.738  -0.888   3.196  0.1917  0.0106 -0.2419
   12CHTO   H56 5011   4.767  -0.928   3.292  1.9276  0.3867 -0.6007
   12CHTO   C35 5012   4.834  -0.938   3.081 -0.1486  0.5551  0.0154
   12CHTO   O24 5013   4.847  -1.079   3.065 -0.0500 -0.1126 -0.6427
   12CHTO   H39 5014   4.793  -1.102   2.991 -0.2217 -0.4080 -0.4283
   12CHTO    O9 5015   4.373  -0.915   3.209 -0.2170 -0.2459 -0.4366
   12CHTO   C13 5016   4.353  -1.065   3.209 -0.0931  0.2838 -0.4519
   12CHTO   H26 5017   4.446  -1.119   3.184 -0.1157 -2.0193  4.0874
   12CHTO   C11 5018   4.245  -1.092   3.096 -0.2451 -0.0320  0.2945
   12CHTO   H24 5019   4.285  -1.063   2.998 -2.0027  0.3345 -0.3316
   12CHTO    O8 5020   4.127  -1.002   3.114 -1.2468  0.4030 -0.2245
   12CHTO    H3 5021   4.139  -0.939   3.182 -2.8853 -0.8257  1.2455
   12CHTO    C9 5022   4.210  -1.246   3.094  0.3310  0.1360 -0.2703
   12CHTO   H22 5023   4.303  -1.303   3.085  0.3721  0.0246  0.8047
   12CHTO    N2 5024   4.116  -1.281   2.980 -0.7234  0.5282  0.4911
   12CHTO   H10 5025   4.176  -1.341   2.914 -1.4387 -0.7204  0.9625
   12CHTO   H11 5026   4.079  -1.197   2.923  2.4131  1.2120 -0.6158
   12CHTO    C7 5027   4.155  -1.289   3.236 -0.1120 -0.0402 -0.2224
   12CHTO   H20 5028   4.160  -1.399   3.223 -1.2509 -0.0704 -0.4128
   12CHTO    O4 5029   4.260  -1.260   3.338  0.6782  0.2011  0.4094
   12CHTO   C14 5030   4.318  -1.130   3.347  0.5410 -0.4032  0.0609
   12CHTO   H27 5031   4.410  -1.138   3.408  0.5997  0.5997  0.1098
   12CHTO   C18 5032   4.222  -1.037   3.417  0.6252 -0.1535 -0.3125
   12CHTO   O13 5033   4.178  -1.090   3.545  0.1408  0.0208 -0.2459
   12CHTO    H7 5034   4.118  -1.027   3.580  0.6795 -0.2004  1.0815
   12CHTO    O2 5035   4.010  -1.234   3.284 -0.3455 -0.4988 -0.2274
   12CHTO    C1 5036   3.909  -1.329   3.300 -0.7148  0.9852  0.5042
   12CHTO   H14 5037   3.936  -1.424   3.248  1.5023  0.1846  2.9970
   12CHTO    C2 5038   3.768  -1.276   3.242 -0.9368  0.3368  0.9633
   12CHTO   H15 5039   3.746  -1.176   3.280  0.5880  1.1329 -0.1876
   12CHTO    O6 5040   3.790  -1.263   3.102  0.0976  0.1131  0.2303
   12CHTO    H1 5041   3.746  -1.199   3.049 -0.7702 -0.1084  0.6589
   12CHTO    C3 5042   3.647  -1.390   3.280 -0.3741  0.0070  0.2198
   12CHTO   H16 5043   3.684  -1.479   3.228 -1.4160 -0.4026  0.1692
   12CHTO    N1 5044   3.516  -1.348   3.216  0.1456 -0.3160  0.1320
   12CHTO    H8 5045   3.496  -1.242   3.218 -0.5223 -0.3961 -1.4188
   12CHTO    H9 5046   3.533  -1.368   3.111  0.6646  0.5239  0.0503
   12CHTO    C4 5047   3.643  -1.414   3.431 -0.2423 -0.1063 -0.7729
   12CHTO   H17 5048   3.620  -1.322   3.486  1.1059  0.2273 -0.7338
   12CHTO    O1 5049   3.777  -1.454   3.472 -0.5256 -0.1378 -0.4517
   12CHTO    C5 5050   3.889  -1.366   3.451 -0.0605 -0.2101  0.2981
   12CHTO   H18 5051   3.857  -1.274   3.501 -0.1003 -1.3843  2.4891
   12CHTO   C16 5052   4.015  -1.422   3.526 -0.1549  0.4792 -0.1002
   12CHTO   O11 5053   4.017  -1.409   3.672  0.4000 -0.8406  0.8037
   12CHTO    H5 5054   4.103  -1.436   3.700  1.3681 -0.3800 -1.5972
   12CHTO    O3 5055   3.554  -1.524   3.455 -0.4080  0.4164  0.1257
   12CHTO    C6 5056   3.546  -1.567   3.599  0.0633 -0.4035 -0.7510
   12CHTO   H19 5057   3.638  -1.542   3.653  0.3440 -1.4677 -0.7196
   12CHTO    C8 5058   3.428  -1.504   3.674  0.3782  0.1622  0.2976
   12CHTO   H21 5059   3.335  -1.539   3.629 -0.1357  1.2845  0.4877
   12CHTO    O7 5060   3.447  -1.370   3.677 -0.0295 -0.0658  0.5623
   12CHTO    H2 5061   3.527  -1.345   3.719 -0.3002 -0.4643  1.3301
   12CHTO   C12 5062   3.437  -1.557   3.827  0.0084 -0.7421 -0.5646
   12CHTO   H25 5063   3.529  -1.527   3.880  1.0114 -1.8799 -1.6188
   12CHTO    N3 5064   3.320  -1.502   3.915  0.0893 -0.2502 -0.3345
   12CHTO   H12 5065   3.228  -1.521   3.862 -0.4100  1.2157 -0.0157
   12CHTO   H13 5066   3.337  -1.397   3.935 -2.3893 -0.3893  2.9359
   12CHTO   C15 5067   3.434  -1.714   3.829  0.0190 -0.4027  0.1083
   12CHTO   H28 5068   3.337  -1.749   3.793 -0.1659 -1.3318  1.4973
   12CHTO   O10 5069   3.465  -1.776   3.965 -0.6186  0.0414 -0.2277
   12CHTO    H4 5070   3.403  -1.745   4.028 -0.9532  0.1104 -0.5963
   12CHTO    O5 5071   3.538  -1.765   3.740 -0.4763  0.5134  0.7714
   12CHTO   C10 5072   3.530  -1.718   3.606 -0.4552  0.2252 -0.5123
   12CHTO   H23 5073   3.431  -1.748   3.569 -0.9877  1.6693 -0.2779
   12CHTO   C17 5074   3.631  -1.799   3.526 -0.7961  0.3461 -0.4400
   12CHTO   O12 5075   3.763  -1.774   3.574  0.0997 -0.1907  0.5813
   12CHTO    H6 5076   3.834  -1.793   3.515 -1.5031  0.3850 -1.6199
   13CHTO  H203 5077   7.201   4.155   2.869 -0.4870  0.8038 -1.3077
   13CHTO   O82 5078   7.208   4.244   2.896  0.0774  0.3998 -0.1172
   13CHTO  C123 5079   7.174   4.333   2.787 -0.1144 -0.2675  0.4220
   13CHTO  H227 5080   7.235   4.304   2.700  0.5884  0.6316  0.6122
   13CHTO   O77 5081   7.033   4.299   2.767 -0.0687 -0.1691 -0.2573
   13CHTO  C118 5082   6.976   4.393   2.673 -0.4197  0.1810  0.5243
   13CHTO  H222 5083   7.007   4.389   2.567  1.0367  0.1984  0.9492
   13CHTO  C125 5084   6.827   4.357   2.676 -0.0890  0.4232  0.3834
   13CHTO   O84 5085   6.802   4.252   2.592 -0.0288  0.3295 -0.4367
   13CHTO  H205 5086   6.795   4.171   2.639 -2.8859 -0.1624 -1.5869
   13CHTO  C114 5087   6.990   4.537   2.713  0.3777  0.1416  0.6921
   13CHTO  H218 5088   6.936   4.555   2.806  1.1640  0.1013  1.1573
   13CHTO  C116 5089   7.130   4.584   2.742 -0.4072  0.2510  0.1732
   13CHTO  H220 5090   7.188   4.583   2.647  1.2276  0.7948  1.1307
   13CHTO   O79 5091   7.131   4.720   2.782  0.3557  0.1396  0.0720
   13CHTO  H201 5092   7.096   4.780   2.718 -2.4440  0.4855  1.8217
   13CHTO  C120 5093   7.202   4.485   2.842 -0.5662  0.4025 -0.2334
   13CHTO  H224 5094   7.156   4.502   2.941 -1.5225 -1.4206 -0.3490
   13CHTO   N21 5095   7.348   4.520   2.847 -0.0835  0.2631 -0.2966
   13CHTO  H211 5096   7.386   4.565   2.756  2.9766 -0.9602  0.3250
   13CHTO  H212 5097   7.368   4.589   2.928 -0.0675 -0.9869  0.7737
   13CHTO   O75 5098   6.922   4.608   2.604 -0.0842  0.0404  0.0982
   13CHTO  C112 5099   6.821   4.727   2.642  0.1908 -0.5290 -0.3253
   13CHTO  H216 5100   6.855   4.763   2.740  1.5444 -1.8370 -0.2875
   13CHTO   O73 5101   6.691   4.664   2.650 -0.4598 -0.2360  0.0337
   13CHTO  C113 5102   6.593   4.742   2.716 -0.0125  0.2810  0.0081
   13CHTO  H217 5103   6.619   4.750   2.824  1.1085 -1.3618 -0.1208
   13CHTO  C124 5104   6.468   4.656   2.716  0.3409 -0.9247 -0.2570
   13CHTO   O83 5105   6.380   4.689   2.824 -0.1114 -0.1501  0.0440
   13CHTO  H204 5106   6.324   4.618   2.848 -0.7297  0.5633  0.7444
   13CHTO  C109 5107   6.582   4.880   2.648  0.5078 -0.0789 -0.0466
   13CHTO  H213 5108   6.527   4.861   2.554 -0.0095  1.2220 -0.0131
   13CHTO  C110 5109   6.717   4.945   2.610 -0.3995  0.2948  0.1032
   13CHTO  H214 5110   6.768   4.981   2.700  1.2082 -1.7293  0.0348
   13CHTO   O78 5111   6.694   5.052   2.526 -0.5599  0.0802 -0.1446
   13CHTO  H200 5112   6.749   5.126   2.545 -0.7946  0.4939 -1.0524
   13CHTO  C111 5113   6.811   4.841   2.540  0.4512 -0.8202 -0.3430
   13CHTO  H215 5114   6.756   4.809   2.451  0.3465 -0.5201 -0.3873
   13CHTO   N19 5115   6.944   4.897   2.498  0.3018  0.1865 -0.5111
   13CHTO  H207 5116   6.954   4.907   2.391 -0.7158 -1.0828 -0.7442
   13CHTO  H208 5117   7.023   4.845   2.549 -0.4113 -2.6271 -2.1776
   13CHTO   O74 5118   6.508   4.972   2.729  0.7122  0.0298 -0.3713
   13CHTO  C115 5119   6.365   5.064   2.662  0.4208 -0.3954  0.4205
   13CHTO  H219 5120   6.352   5.160   2.713  0.6120  0.0425 -0.3451
   13CHTO   O76 5121   6.388   5.092   2.509 -0.5598 -0.0114 -0.5919
   13CHTO  C122 5122   6.289   5.154   2.422  0.1534 -0.1001 -0.1440
   13CHTO  H226 5123   6.326   5.140   2.321  1.6822 -2.6609  0.7011
   13CHTO  C126 5124   6.272   5.305   2.450 -0.3639 -0.4550 -0.4090
   13CHTO   O85 5125   6.386   5.385   2.421 -0.1628 -0.1416  0.0132
   13CHTO  H206 5126   6.373   5.472   2.453  0.0741  0.4263 -1.4019
   13CHTO  C121 5127   6.152   5.078   2.434 -0.1509 -0.5588 -0.0735
   13CHTO  H225 5128   6.081   5.150   2.388 -1.2186 -2.7920 -2.0089
   13CHTO   O81 5129   6.154   4.955   2.355  0.7936  0.4109  0.0119
   13CHTO  H202 5130   6.118   4.972   2.270  2.4292  0.1645 -0.7518
   13CHTO  C119 5131   6.115   5.062   2.586 -0.5952 -0.6429  0.7007
   13CHTO  H223 5132   6.105   5.160   2.634  1.0956  0.6836 -1.5705
   13CHTO  C117 5133   6.227   4.992   2.672  0.2941  0.0414 -0.5864
   13CHTO  H221 5134   6.245   4.889   2.642  0.6552  0.9009 -3.4516
   13CHTO   N20 5135   6.190   4.975   2.813 -0.0826 -0.8628 -0.8666
   13CHTO  H209 5136   6.250   4.893   2.851  0.2999 -0.8906 -1.5262
   13CHTO  H210 5137   6.144   5.060   2.860  0.3861 -1.7478  1.2911
   13CHTO   O80 5138   5.982   5.001   2.603 -0.4879 -0.3317  0.6418
   13CHTO  C103 5139   5.846   5.107   2.637  0.1684 -0.1177  0.3783
   13CHTO  H190 5140   5.757   5.052   2.667 -0.8333 -0.9162 -3.7954
   13CHTO  C101 5141   5.859   5.220   2.748 -0.0269  0.5896  0.3061
   13CHTO  H188 5142   5.948   5.281   2.728 -1.7652  2.9448 -0.4702
   13CHTO   O68 5143   5.871   5.140   2.882  0.3549 -0.0032 -0.0864
   13CHTO  H168 5144   5.924   5.064   2.870  1.0103  0.1567  1.7110
   13CHTO   C99 5145   5.732   5.327   2.747 -0.4469  0.3129  0.0460
   13CHTO  H186 5146   5.643   5.279   2.793 -0.0709 -0.5943 -0.1712
   13CHTO   N17 5147   5.763   5.442   2.838 -0.4160 -0.6025 -0.0274
   13CHTO  H174 5148   5.732   5.409   2.936 -0.0102 -0.7214  0.0643
   13CHTO  H175 5149   5.868   5.467   2.841 -0.5071 -0.3460  1.2873
   13CHTO   C97 5150   5.697   5.365   2.598  0.5847 -0.7505 -0.5072
   13CHTO  H184 5151   5.764   5.447   2.568 -2.9642  2.0803 -0.9653
   13CHTO   O64 5152   5.696   5.253   2.501  0.3062 -0.3683 -0.8629
   13CHTO  C104 5153   5.816   5.168   2.497 -0.2990 -0.1598 -0.1816
   13CHTO  H191 5154   5.904   5.223   2.465  0.0837 -1.0416 -0.6662
   13CHTO  C108 5155   5.783   5.053   2.397 -0.4008  0.4626  0.3473
   13CHTO   O71 5156   5.800   5.092   2.261  0.3520 -0.2148  0.2507
   13CHTO  H171 5157   5.888   5.072   2.237  0.6050 -1.1886  1.8925
   13CHTO   O62 5158   5.563   5.417   2.596 -0.0691  0.0808 -0.3742
   13CHTO   C91 5159   5.514   5.488   2.487 -0.8553 -0.7446 -0.2327
   13CHTO  H178 5160   5.593   5.485   2.411 -0.4530  1.3116  0.0669
   13CHTO   C92 5161   5.483   5.641   2.532  0.4616  0.1990  0.2661
   13CHTO  H179 5162   5.416   5.632   2.619  1.0321 -0.9455  0.5983
   13CHTO   O66 5163   5.609   5.711   2.570  0.1823  0.7783  0.1306
   13CHTO  H166 5164   5.586   5.802   2.565 -0.8601  0.5029 -0.2452
   13CHTO   C93 5165   5.417   5.713   2.405  1.2172 -1.4107 -0.2144
   13CHTO  H180 5166   5.492   5.706   2.325  0.4271  1.8873 -1.3428
   13CHTO   N16 5167   5.390   5.858   2.424  0.1233 -0.1393  0.2490
   13CHTO  H172 5168   5.331   5.901   2.344  0.1622  2.4371  1.5380
   13CHTO  H173 5169   5.338   5.862   2.518  1.2012  1.2560  0.8014
   13CHTO   C94 5170   5.290   5.636   2.353  0.0954 -0.2897  0.3448
   13CHTO  H181 5171   5.214   5.625   2.430  0.6753  0.2940  1.0065
   13CHTO   O61 5172   5.326   5.503   2.319 -0.2680  0.5051  0.2691
   13CHTO   C95 5173   5.377   5.428   2.427 -0.8956  0.0314  0.9734
   13CHTO  H182 5174   5.294   5.425   2.498 -2.3878  1.2658 -0.6297
   13CHTO  C106 5175   5.402   5.285   2.381 -0.0787 -0.1429 -0.5653
   13CHTO   O69 5176   5.407   5.193   2.490 -0.3465 -0.1078  0.2822
   13CHTO  H169 5177   5.445   5.113   2.460  1.1024  0.9527 -0.7855
   13CHTO   O63 5178   5.234   5.690   2.219 -0.4958  0.1343  0.3377
   13CHTO   C96 5179   5.057   5.715   2.228 -0.4145  0.0453  0.0722
   13CHTO  H183 5180   5.027   5.741   2.127 -2.9298 -1.9917  0.2579
   13CHTO   C98 5181   5.023   5.814   2.348 -0.8093  0.3813 -0.1144
   13CHTO  H185 5182   5.085   5.778   2.432 -0.0183 -1.2127 -1.3403
   13CHTO   O67 5183   5.073   5.946   2.321  0.3209 -0.7457  0.1393
   13CHTO  H167 5184   5.158   5.948   2.281  0.8200  0.7314  1.2206
   13CHTO  C102 5185   4.868   5.809   2.386  0.8371  0.2799  0.3057
   13CHTO  H189 5186   4.818   5.867   2.308 -0.0605  0.7109  1.1876
   13CHTO   N18 5187   4.840   5.891   2.510  0.3941 -0.2518 -0.3143
   13CHTO  H176 5188   4.876   5.993   2.512 -0.7432  0.1364  1.6556
   13CHTO  H177 5189   4.738   5.881   2.544  0.9719 -0.8858  1.2668
   13CHTO  C105 5190   4.816   5.665   2.397  0.0503  0.8124  0.1889
   13CHTO  H192 5191   4.865   5.621   2.484 -2.2939 -0.0688  1.0799
   13CHTO   O65 5192   4.850   5.594   2.279  0.2781  0.3935  0.3302
   13CHTO  C100 5193   4.992   5.573   2.258  0.6706  0.1998 -0.0369
   13CHTO  H187 5194   5.032   5.527   2.350 -1.0964  0.2982  0.8137
   13CHTO  C107 5195   4.994   5.472   2.146 -0.2160  0.2632 -0.4443
   13CHTO   O70 5196   5.128   5.438   2.118  0.3174 -0.8225  0.2808
   13CHTO  H170 5197   5.190   5.490   2.165 -1.0716 -0.1100  1.3668
   13CHTO   O57 5198   4.657   5.680   2.418 -0.6601  0.1970  0.3113
   13CHTO   C85 5199   4.569   5.660   2.307  0.3790  0.0232  0.2883
   13CHTO  H157 5200   4.625   5.633   2.216 -0.5659  1.0546 -0.6115
   13CHTO   C83 5201   4.493   5.794   2.277 -0.1446  0.3668 -0.0181
   13CHTO  H155 5202   4.562   5.867   2.235  1.8453 -0.1991  2.1553
   13CHTO   O56 5203   4.447   5.853   2.406  0.0639 -0.2815 -0.6519
   13CHTO  H135 5204   4.356   5.877   2.403  0.1827  0.3651  0.6478
   13CHTO   C81 5205   4.377   5.774   2.171  0.5134 -0.0296 -0.3283
   13CHTO  H153 5206   4.418   5.752   2.073 -0.4763 -0.6749 -0.6075
   13CHTO   N14 5207   4.313   5.903   2.148  0.9028  0.0117 -0.7296
   13CHTO  H141 5208   4.371   5.990   2.171 -1.9352  1.1675  2.4265
   13CHTO  H142 5209   4.258   5.914   2.056 -0.0833  1.7406  0.0468
   13CHTO   C79 5210   4.279   5.652   2.207 -0.0300  0.3745 -0.3346
   13CHTO  H151 5211   4.220   5.632   2.117  0.3723 -0.3778 -0.4366
   13CHTO   O52 5212   4.351   5.529   2.238  0.2436  0.3823 -0.4122
   13CHTO   C86 5213   4.454   5.546   2.340  0.1739  0.4947  0.2524
   13CHTO  H158 5214   4.399   5.576   2.432 -0.1023  1.3961 -0.1955
   13CHTO   C90 5215   4.521   5.413   2.370  0.0715 -0.4469 -0.2303
   13CHTO   O60 5216   4.423   5.315   2.404  0.2111  0.2970 -0.1332
   13CHTO  H138 5217   4.460   5.247   2.457 -1.4908 -2.0447 -1.8364
   13CHTO   O50 5218   4.186   5.669   2.319 -0.2878  0.3879 -0.2576
   13CHTO   C73 5219   4.046   5.635   2.305 -0.1301 -0.6481  0.3009
   13CHTO  H145 5220   4.025   5.580   2.213 -2.6557  0.1052  0.3919
   13CHTO   C74 5221   3.979   5.776   2.296  0.1291  0.5194 -0.7184
   13CHTO  H146 5222   4.031   5.830   2.216  0.0790  1.9995  0.2409
   13CHTO   O54 5223   3.845   5.753   2.253  0.4047  0.3099  0.0549
   13CHTO  H133 5224   3.805   5.835   2.231  0.9886  0.3991 -0.7196
   13CHTO   C75 5225   3.988   5.850   2.436 -0.5155  0.0789  0.0155
   13CHTO  H147 5226   4.094   5.870   2.456 -0.0702 -0.8582 -1.3104
   13CHTO   N13 5227   3.914   5.982   2.445  0.0051  0.1672  0.0440
   13CHTO  H139 5228   3.978   6.060   2.407  0.8438 -0.4189  0.2368
   13CHTO  H140 5229   3.819   5.974   2.395 -1.2204  1.9102  2.0111
   13CHTO   C76 5230   3.929   5.751   2.550 -0.8085 -0.3298 -0.0444
   13CHTO  H148 5231   3.822   5.747   2.529 -1.1048  0.2009  1.3014
   13CHTO   O49 5232   3.994   5.627   2.548  0.8134  1.1502  0.1336
   13CHTO   C77 5233   3.993   5.557   2.425  0.4350  0.7338 -0.7730
   13CHTO  H149 5234   3.893   5.524   2.396  0.3713  1.3717 -1.2823
   13CHTO   C88 5235   4.078   5.429   2.450 -0.0775  0.1329  0.0344
   13CHTO   O58 5236   4.086   5.345   2.330  0.3494  0.4114 -0.0655
   13CHTO  H136 5237   4.012   5.288   2.325  1.3070 -1.3332  3.6483
   13CHTO   O51 5238   3.968   5.823   2.707  0.4461  0.0946  0.1470
   13CHTO   C78 5239   4.098   5.793   2.779 -0.2092 -0.3075  0.4059
   13CHTO  H150 5240   4.105   5.860   2.867  1.1748  0.1046  0.0083
   13CHTO   C80 5241   4.227   5.808   2.699  0.1587 -0.2282  0.6602
   13CHTO  H152 5242   4.227   5.728   2.621  0.2773  0.0161  0.4063
   13CHTO   O55 5243   4.235   5.933   2.639 -0.1008  0.3708 -0.2960
   13CHTO  H134 5244   4.232   6.005   2.700  1.1359 -0.2110  0.4792
   13CHTO   C84 5245   4.353   5.781   2.780  0.1606  0.0019  0.8434
   13CHTO  H156 5246   4.345   5.849   2.864 -2.4964 -0.4950  1.0348
   13CHTO   N15 5247   4.484   5.803   2.712 -0.0343 -0.5723 -0.4176
   13CHTO  H143 5248   4.495   5.756   2.616  1.1774  0.3396 -0.7368
   13CHTO  H144 5249   4.556   5.757   2.776 -0.0400 -0.3451 -0.2487
   13CHTO   C87 5250   4.347   5.637   2.837  0.1618 -0.3790  0.4612
   13CHTO  H159 5251   4.362   5.551   2.772  3.4070 -0.5201  1.2704
   13CHTO   O53 5252   4.208   5.623   2.920  0.1806 -0.1968  0.4836
   13CHTO   C82 5253   4.090   5.651   2.844 -0.2992  0.0614  0.4160
   13CHTO  H154 5254   4.067   5.576   2.768  0.3451 -0.5627  0.8343
   13CHTO   C89 5255   3.970   5.652   2.943 -0.8295  0.5354 -1.0268
   13CHTO   O59 5256   3.948   5.527   3.001  0.0800  0.3469  0.0198
   13CHTO  H137 5257   3.924   5.469   2.930  2.0841  0.2662 -0.6053
   13CHTO   O45 5258   4.460   5.628   2.972 -0.3099 -0.3344 -0.2227
   13CHTO   C67 5259   4.493   5.491   2.995  0.4650 -0.4983  0.4314
   13CHTO  H124 5260   4.421   5.426   2.946  2.0901 -3.5142  1.9177
   13CHTO   C65 5261   4.630   5.468   2.933 -0.1122 -0.1842  0.0978
   13CHTO  H122 5262   4.617   5.510   2.834 -0.3841 -0.5845 -0.0336
   13CHTO   O44 5263   4.654   5.327   2.928  0.0199 -0.6501 -0.2381
   13CHTO  H102 5264   4.599   5.292   2.996  1.1111 -0.3446  0.8040
   13CHTO   C63 5265   4.738   5.559   3.007 -0.6903 -0.3575  0.5775
   13CHTO  H120 5266   4.702   5.662   3.004  0.8980  0.2038  0.2761
   13CHTO   N11 5267   4.878   5.567   2.946  0.1649 -0.4286 -0.6189
   13CHTO  H108 5268   4.877   5.562   2.839 -1.1494 -0.8199 -0.5997
   13CHTO  H109 5269   4.923   5.659   2.976 -2.5073 -0.2736  3.3226
   13CHTO   C61 5270   4.737   5.524   3.162 -0.0772  0.8110 -0.6278
   13CHTO  H118 5271   4.785   5.613   3.205 -1.1703  0.1638  1.9769
   13CHTO   O40 5272   4.602   5.523   3.213  0.0261 -0.2649 -0.3593
   13CHTO   C68 5273   4.488   5.462   3.149 -0.9439 -0.0990  0.0364
   13CHTO  H125 5274   4.395   5.508   3.188 -1.3229  0.3144 -1.2921
   13CHTO   C72 5275   4.482   5.317   3.176  0.7806 -0.2121  0.5361
   13CHTO   O48 5276   4.465   5.288   3.317 -0.2904 -0.1953  0.2900
   13CHTO  H105 5277   4.375   5.266   3.333 -0.2081 -0.4095  0.4561
   13CHTO   O38 5278   4.810   5.404   3.191 -0.5892  0.0973 -0.6181
   13CHTO   C55 5279   4.881   5.396   3.321 -0.1125  0.3795  0.7668
   13CHTO  H112 5280   4.889   5.287   3.335  1.6025  0.3409 -0.3619
   13CHTO   C56 5281   4.813   5.466   3.444  0.1279  0.2903 -0.3556
   13CHTO  H113 5282   4.779   5.566   3.416  1.2875  0.3110 -1.7328
   13CHTO   O42 5283   4.694   5.399   3.470 -0.5976 -0.2278  0.0543
   13CHTO  H100 5284   4.626   5.453   3.507 -1.1982  0.3823 -1.8586
   13CHTO   C57 5285   4.910   5.479   3.566 -0.1236  0.3638 -0.1681
   13CHTO  H114 5286   4.917   5.375   3.600  2.1110  0.8178  0.8834
   13CHTO   N10 5287   4.852   5.556   3.679  0.1086  0.3614 -0.0762
   13CHTO  H106 5288   4.926   5.574   3.756 -0.8067 -4.3147  2.0709
   13CHTO  H107 5289   4.767   5.503   3.718  0.7614 -0.5903  0.0548
   13CHTO   C58 5290   5.045   5.529   3.528 -0.0082 -0.0060 -0.0529
   13CHTO  H115 5291   5.040   5.637   3.505 -3.8598  0.4860  2.7032
   13CHTO   O37 5292   5.103   5.462   3.416  0.4780 -0.1280  0.2697
   13CHTO   C59 5293   5.027   5.451   3.298  0.1276 -0.0295  0.9490
   13CHTO  H116 5294   5.019   5.550   3.253  1.0457  0.6190  2.1660
   13CHTO   C70 5295   5.092   5.346   3.207  0.8597  0.5087  0.8451
   13CHTO   O46 5296   5.196   5.403   3.129  0.4159 -0.3080 -0.1460
   13CHTO  H103 5297   5.244   5.347   3.069  2.0004  2.9412 -2.0500
   13CHTO   O39 5298   5.147   5.493   3.654 -0.4653 -0.5744 -0.3394
   13CHTO   C60 5299   5.278   5.550   3.642 -0.6662  0.0124  0.1718
   13CHTO  H117 5300   5.293   5.568   3.536  0.4409  0.2876  0.3611
   13CHTO   C62 5301   5.284   5.685   3.721 -0.3502  0.2080 -0.9356
   13CHTO  H119 5302   5.201   5.750   3.683 -1.6516 -1.6337 -1.3444
   13CHTO   O43 5303   5.255   5.677   3.857 -0.2779  0.3085  0.1528
   13CHTO  H101 5304   5.268   5.767   3.880 -1.0643  1.1931 -2.7201
   13CHTO   C66 5305   5.422   5.753   3.684  0.1697 -0.9800 -0.9021
   13CHTO  H123 5306   5.435   5.755   3.576 -0.2692  3.9046 -0.9435
   13CHTO   N12 5307   5.432   5.897   3.725  0.0503  0.2800  0.3641
   13CHTO  H110 5308   5.349   5.962   3.703 -0.2920 -0.7122 -1.3584
   13CHTO  H111 5309   5.518   5.941   3.675 -0.0213 -0.5271 -0.4631
   13CHTO   C69 5310   5.540   5.665   3.742 -0.4115  0.1238 -0.0275
   13CHTO  H126 5311   5.548   5.666   3.852  0.0585  0.6821 -0.0643
   13CHTO   O41 5312   5.537   5.524   3.685  0.5619  0.3099 -0.6596
   13CHTO   C64 5313   5.382   5.444   3.685  0.2403 -0.1256  0.1607
   13CHTO  H121 5314   5.368   5.402   3.787 -1.2614 -1.6848 -0.6627
   13CHTO   C71 5315   5.396   5.332   3.589  0.1095 -0.1583 -0.1854
   13CHTO   O47 5316   5.462   5.219   3.644 -0.5258  0.1290 -0.5586
   13CHTO  H104 5317   5.445   5.138   3.601  2.8637 -0.7938 -0.3010
   13CHTO   O34 5318   5.679   5.734   3.688 -0.2183  0.8866  0.8192
   13CHTO   C49 5319   5.833   5.720   3.679  0.0381 -0.0072  0.0710
   13CHTO   H91 5320   5.855   5.623   3.636  1.1230  0.6979 -0.9838
   13CHTO   C47 5321   5.884   5.718   3.823  0.7064 -1.2328  0.4663
   13CHTO   H89 5322   5.991   5.688   3.819  0.7987 -0.9714  0.9295
   13CHTO   O33 5323   5.816   5.620   3.901 -0.1620  0.4742  0.4356
   13CHTO   H70 5324   5.865   5.578   3.969  0.5194  0.9587  0.2519
   13CHTO   C45 5325   5.857   5.854   3.902 -0.0242 -0.1071 -0.1701
   13CHTO   H87 5326   5.759   5.847   3.950  1.0647 -2.0398  1.8435
   13CHTO    N8 5327   5.961   5.876   4.005 -0.1886 -0.3083  0.7619
   13CHTO   H75 5328   5.962   5.977   4.041  1.5609 -0.4520  1.1373
   13CHTO   H76 5329   6.055   5.823   3.992  0.3002  0.1406  2.3561
   13CHTO   C43 5330   5.835   5.976   3.798  0.2100 -0.4754  0.0819
   13CHTO   H85 5331   5.732   5.973   3.763  0.6394 -3.0338 -1.0915
   13CHTO   O29 5332   5.926   5.956   3.688 -0.5044 -0.1693 -0.9215
   13CHTO   C50 5333   5.902   5.839   3.609  0.0182 -0.2214 -0.2819
   13CHTO   H92 5334   5.840   5.869   3.523 -1.9330 -0.7601  0.9004
   13CHTO   C54 5335   6.031   5.790   3.545  0.1401 -0.2511 -0.1185
   13CHTO   O36 5336   6.095   5.884   3.459 -0.0631  0.0403 -0.0032
   13CHTO   H72 5337   6.111   5.966   3.501 -1.4570  0.2812  0.0652
   13CHTO   O27 5338   5.838   6.111   3.849 -0.4868 -0.0282 -0.4261
   13CHTO   C37 5339   5.764   6.234   3.867  0.3568 -0.3490  0.0608
   13CHTO   H79 5340   5.658   6.217   3.889 -0.4067 -0.2237 -3.2012
   13CHTO   C38 5341   5.828   6.318   3.982  0.8643  0.4121 -0.2788
   13CHTO   H80 5342   5.938   6.312   3.972  0.8376  0.0845 -0.3859
   13CHTO   O31 5343   5.786   6.256   4.101  0.0410  0.3273  0.8100
   13CHTO   H68 5344   5.832   6.174   4.102  2.4371  1.5718 -2.1007
   13CHTO   C39 5345   5.791   6.469   3.974 -0.2813  0.7777 -0.0762
   13CHTO   H81 5346   5.686   6.480   3.998 -0.1570 -0.7648  1.2807
   13CHTO    N7 5347   5.872   6.560   4.072 -0.2501  0.5370  0.2213
   13CHTO   H73 5348   5.973   6.592   4.053 -0.9118  2.3409 -0.3706
   13CHTO   H74 5349   5.814   6.651   4.077 -0.7018  0.2132  1.0668
   13CHTO   C40 5350   5.793   6.524   3.825 -0.2455  0.0743  0.2626
   13CHTO   H82 5351   5.899   6.530   3.798 -0.8949  0.7708 -2.3043
   13CHTO   O26 5352   5.724   6.443   3.739  0.3832 -0.5651 -0.5873
   13CHTO   C41 5353   5.779   6.308   3.738 -0.2516  0.4443 -0.3756
   13CHTO   H83 5354   5.886   6.308   3.715  0.2394  0.4967  1.8108
   13CHTO   C52 5355   5.699   6.231   3.626 -0.5352  0.1222  0.8138
   13CHTO   O35 5356   5.718   6.295   3.489  0.7475  0.0306 -0.0115
   13CHTO   H71 5357   5.810   6.295   3.474  0.8227  0.1267  0.4460
   13CHTO   O28 5358   5.733   6.647   3.816  0.6475  0.0331  0.5190
   13CHTO   C42 5359   5.773   6.766   3.746  0.1268  0.1009  0.2996
   13CHTO   H84 5360   5.878   6.751   3.723  0.2762  1.5089 -0.0094
   13CHTO   C44 5361   5.766   6.888   3.835  0.0864 -0.0441  1.1119
   13CHTO   H86 5362   5.666   6.893   3.879  0.2639 -2.7634  1.9056
   13CHTO   O32 5363   5.847   6.881   3.950  0.2247 -0.4885  0.2602
   13CHTO   H69 5364   5.804   6.831   4.017 -2.3212  0.0367 -0.9131
   13CHTO   C48 5365   5.796   7.029   3.761  0.3416 -0.0816 -0.1370
   13CHTO   H90 5366   5.904   7.032   3.742  0.5297 -0.9795  0.7777
   13CHTO    N9 5367   5.763   7.144   3.851  0.5344 -0.0731 -0.4490
   13CHTO   H77 5368   5.853   7.199   3.875  0.2716  0.3705 -0.4703
   13CHTO   H78 5369   5.690   7.214   3.811  0.3634  0.2167  0.3609
   13CHTO   C51 5370   5.722   7.032   3.621  0.6525  0.0869  0.2439
   13CHTO   H93 5371   5.614   7.035   3.640 -0.1539 -2.1533 -3.4470
   13CHTO   O30 5372   5.768   6.914   3.548 -0.2419 -1.0287 -0.5444
   13CHTO   C46 5373   5.702   6.786   3.611 -0.1831  0.0255  0.1252
   13CHTO   H88 5374   5.594   6.793   3.623  0.0065  1.1273  1.3483
   13CHTO   C53 5375   5.738   6.666   3.516  0.0048  0.3142 -0.6928
   13CHTO   O72 5376   5.655   6.652   3.404 -0.4834 -0.7928  0.0214
   13CHTO  H199 5377   5.698   6.597   3.342  0.7272 -0.5174  0.5959
   13CHTO   O22 5378   5.763   7.134   3.536  0.0267  0.4255  0.0981
   13CHTO   C31 5379   5.660   7.185   3.441  0.4846  0.3669  0.0862
   13CHTO   H59 5380   5.718   7.240   3.365  0.8399  0.5224  0.4680
   13CHTO   C29 5381   5.573   7.083   3.367  0.0922  0.3399 -0.1048
   13CHTO   H57 5382   5.512   7.031   3.443  1.5762 -1.6232 -0.2397
   13CHTO   O21 5383   5.665   6.988   3.311 -0.3160 -0.0106  0.3331
   13CHTO   H37 5384   5.733   7.032   3.264  0.6034 -2.8455 -1.0771
   13CHTO   C27 5385   5.479   7.149   3.264  0.6807 -0.4762  0.0573
   13CHTO   H55 5386   5.540   7.199   3.187 -0.4977  2.3420  0.9164
   13CHTO    N5 5387   5.394   7.047   3.195 -0.0006  0.4345 -0.2959
   13CHTO   H43 5388   5.346   7.077   3.103  0.4550  1.4555 -0.2107
   13CHTO   H44 5389   5.327   7.012   3.272  3.0480  0.0057  2.2643
   13CHTO   C25 5390   5.390   7.258   3.341  0.2619 -0.3587  0.4868
   13CHTO   H53 5391   5.333   7.214   3.424 -2.3571  1.2118 -0.4020
   13CHTO   O17 5392   5.478   7.355   3.407 -0.2051  0.2045  0.2262
   13CHTO   C32 5393   5.565   7.297   3.502 -0.1150 -0.6991 -0.3464
   13CHTO   H60 5394   5.492   7.252   3.570  2.8719 -2.1610  2.0215
   13CHTO   C36 5395   5.649   7.412   3.558 -0.4253 -0.2641 -0.5233
   13CHTO   O25 5396   5.699   7.390   3.689  0.1960  0.3616  0.1482
   13CHTO   H40 5397   5.631   7.372   3.752  1.9367 -0.1868  1.9228
   13CHTO   O15 5398   5.310   7.335   3.242  0.0280 -0.1105  0.1143
   13CHTO   C19 5399   5.197   7.431   3.241 -0.2490  0.1865 -0.0399
   13CHTO   H47 5400   5.144   7.418   3.336  1.1415 -1.9196  0.4637
   13CHTO   C20 5401   5.235   7.586   3.228  0.0338  0.1905 -0.0928
   13CHTO   H48 5402   5.273   7.610   3.128  1.3237 -0.0001  0.3514
   13CHTO   O19 5403   5.341   7.603   3.325 -0.1096  0.1087 -0.4343
   13CHTO   H35 5404   5.384   7.685   3.307 -2.6676  1.1555 -2.0885
   13CHTO   C21 5405   5.113   7.688   3.254 -0.0949  0.2062 -0.5117
   13CHTO   H49 5406   5.104   7.696   3.363  1.4565  3.8319 -0.5452
   13CHTO    N4 5407   5.149   7.828   3.212  0.1644  0.0078 -0.8723
   13CHTO   H41 5408   5.249   7.832   3.171  1.3911 -0.2776  1.9147
   13CHTO   H42 5409   5.076   7.861   3.140 -0.3341 -1.6358 -1.1239
   13CHTO   C22 5410   4.981   7.641   3.185 -0.4432  0.4756  0.0757
   13CHTO   H50 5411   4.969   7.702   3.095  0.0819  1.2735  0.5419
   13CHTO   O14 5412   4.971   7.497   3.160  0.6060  0.3006  0.4214
   13CHTO   C23 5413   5.091   7.418   3.129  0.5658  0.3128  0.0949
   13CHTO   H51 5414   5.124   7.458   3.032 -1.1898  1.2558 -0.1437
   13CHTO   C34 5415   5.033   7.276   3.112 -0.1412  0.4890  0.5605
   13CHTO   O23 5416   4.998   7.223   3.243 -0.1764  0.6729 -0.8708
   13CHTO   H38 5417   5.067   7.170   3.276 -1.5200  0.7402  2.2318
   13CHTO   O16 5418   4.879   7.667   3.277  0.2100 -0.0942  0.0195
   13CHTO   C24 5419   4.738   7.706   3.191  0.1824 -0.0754  0.4206
   13CHTO   H52 5420   4.751   7.690   3.084 -1.1354  0.1559  0.2168
   13CHTO   C26 5421   4.712   7.852   3.228  0.2560 -0.1310  0.4434
   13CHTO   H54 5422   4.696   7.850   3.338  0.0502  0.9127  0.4435
   13CHTO   O20 5423   4.829   7.927   3.198  0.1265  0.0072 -0.3347
   13CHTO   H36 5424   4.908   7.880   3.219  1.0008  2.0930  1.2309
   13CHTO   C30 5425   4.581   7.905   3.158 -0.4346 -0.2590  0.2528
   13CHTO   H58 5426   4.581   7.918   3.049  0.4255  0.6016  0.3540
   13CHTO    N6 5427   4.552   8.042   3.210 -0.3142  0.4504 -0.3559
   13CHTO   H45 5428   4.447   8.054   3.230 -0.3120  0.2504 -0.2126
   13CHTO   H46 5429   4.583   8.101   3.126 -0.7552 -1.5308 -1.9483
   13CHTO   C33 5430   4.466   7.802   3.190 -1.0645 -0.1819  0.4769
   13CHTO   H61 5431   4.446   7.804   3.298 -0.1666  2.0799  0.6376
   13CHTO   O18 5432   4.509   7.668   3.151  0.1079  0.0750 -0.1353
   13CHTO   C28 5433   4.618   7.614   3.233 -0.3681 -0.4332 -0.4322
   13CHTO   H56 5434   4.607   7.621   3.341 -1.4359 -0.4570 -0.5326
   13CHTO   C35 5435   4.643   7.464   3.179  0.2411 -0.0134 -0.5647
   13CHTO   O24 5436   4.713   7.389   3.280  0.0741  0.1080 -0.0727
   13CHTO   H39 5437   4.714   7.297   3.262 -1.7344  0.0728 -0.0996
   13CHTO    O9 5438   4.334   7.840   3.131 -1.0709  0.2731  0.0481
   13CHTO   C13 5439   4.218   7.727   3.183  0.1284  0.0113 -0.0474
   13CHTO   H26 5440   4.272   7.637   3.219 -0.0189 -0.4891 -1.0531
   13CHTO   C11 5441   4.125   7.684   3.068 -0.4965 -0.0120 -0.3577
   13CHTO   H24 5442   4.187   7.628   2.997 -0.7323  0.3162 -0.8292
   13CHTO    O8 5443   4.072   7.802   3.006 -0.0579  0.1694  0.7366
   13CHTO    H3 5444   4.024   7.859   3.063  1.7589  0.1744  2.2822
   13CHTO    C9 5445   4.018   7.580   3.120 -0.5613 -0.0196  0.3281
   13CHTO   H22 5446   4.079   7.492   3.145  1.1901  1.0737 -0.0049
   13CHTO    N2 5447   3.928   7.543   3.006 -0.6839  0.0626  0.3686
   13CHTO   H10 5448   3.870   7.453   3.020 -1.0542 -0.3778 -3.2963
   13CHTO   H11 5449   3.858   7.625   2.994 -0.3939  0.1645 -0.7044
   13CHTO    C7 5450   3.955   7.624   3.258 -0.4747 -0.2266  0.0655
   13CHTO   H20 5451   4.004   7.549   3.324 -1.3024 -0.6493  0.2085
   13CHTO    O4 5452   3.993   7.758   3.298 -0.0534  0.5193 -0.1002
   13CHTO   C14 5453   4.132   7.780   3.303  0.6190 -0.0084  0.2916
   13CHTO   H27 5454   4.158   7.725   3.397  1.4166  0.8080  0.5597
   13CHTO   C18 5455   4.154   7.931   3.332  0.9890  0.4386  0.0027
   13CHTO   O13 5456   4.087   7.979   3.449 -0.0462  0.4276 -0.5119
   13CHTO    H7 5457   3.994   7.979   3.439 -0.4639 -2.0030  2.6658
   13CHTO    O2 5458   3.786   7.600   3.270  0.5136 -0.2490  0.0075
   13CHTO    C1 5459   3.764   7.593   3.415 -0.5824  0.3685 -0.8619
   13CHTO   H14 5460   3.846   7.645   3.470 -0.4422  0.2866 -0.9910
   13CHTO    C2 5461   3.747   7.443   3.459 -0.3665  0.1734 -0.3547
   13CHTO   H15 5462   3.653   7.414   3.411  0.1431  0.8663 -1.8288
   13CHTO    O6 5463   3.856   7.367   3.420 -0.2924  0.6712  0.3719
   13CHTO    H1 5464   3.931   7.404   3.462 -0.4173 -1.0611  2.1942
   13CHTO    C3 5465   3.738   7.448   3.615  0.1337 -0.0698  0.2265
   13CHTO   H16 5466   3.839   7.460   3.656  0.7310  0.9329 -1.4571
   13CHTO    N1 5467   3.699   7.310   3.664 -0.7421  0.0362 -0.5130
   13CHTO    H8 5468   3.629   7.253   3.605 -2.5568  1.8445 -0.1492
   13CHTO    H9 5469   3.784   7.254   3.699 -0.1697  0.2920 -1.4536
   13CHTO    C4 5470   3.652   7.566   3.687  0.4063 -0.0047  0.1883
   13CHTO   H17 5471   3.548   7.532   3.695  0.7824 -1.4132 -0.6786
   13CHTO    O1 5472   3.648   7.685   3.607 -0.2799 -0.2131  0.1539
   13CHTO    C5 5473   3.642   7.667   3.462  0.2199 -0.3312  0.3174
   13CHTO   H18 5474   3.550   7.611   3.446  0.6404 -1.1905  0.8966
   13CHTO   C16 5475   3.622   7.801   3.389 -0.3801 -0.4155 -0.2182
   13CHTO   O11 5476   3.725   7.904   3.395 -0.1775  0.1929 -0.7254
   13CHTO    H5 5477   3.700   7.966   3.461  0.1242 -0.2119 -0.2339
   13CHTO    O3 5478   3.702   7.596   3.819  0.4177  0.2110  0.0553
   13CHTO    C6 5479   3.597   7.640   3.910  0.1425  0.2216 -0.1473
   13CHTO   H19 5480   3.508   7.676   3.859  0.0525  1.8156  1.1353
   13CHTO    C8 5481   3.533   7.523   3.990  0.0998 -0.2662  0.3466
   13CHTO   H21 5482   3.612   7.460   4.032  0.4142  0.3547  0.6991
   13CHTO    O7 5483   3.466   7.436   3.898 -0.1137  0.3547 -0.2649
   13CHTO    H2 5484   3.493   7.347   3.910 -0.0460  0.0936 -2.1676
   13CHTO   C12 5485   3.446   7.575   4.110 -0.0528 -0.1142 -1.1063
   13CHTO   H25 5486   3.356   7.624   4.066 -0.5989  1.2999  1.5055
   13CHTO    N3 5487   3.396   7.465   4.198  0.0531 -0.8675  0.3134
   13CHTO   H12 5488   3.360   7.498   4.294  1.4508 -0.1859  0.6105
   13CHTO   H13 5489   3.473   7.390   4.212  2.9392  1.6713 -1.2762
   13CHTO   C15 5490   3.520   7.681   4.194 -0.3069  0.1449  0.0790
   13CHTO   H28 5491   3.607   7.639   4.245  1.3805  0.2608 -2.6066
   13CHTO   O10 5492   3.439   7.766   4.296 -0.7665  0.0695  0.6547
   13CHTO    H4 5493   3.485   7.784   4.376  0.9919 -1.8710  0.1259
   13CHTO    O5 5494   3.566   7.785   4.106  0.2308  0.4749 -0.0703
   13CHTO   C10 5495   3.653   7.756   3.992  0.0087  0.1133  0.8389
   13CHTO   H23 5496   3.755   7.734   4.024  0.5398 -1.0858 -1.5588
   13CHTO   C17 5497   3.666   7.893   3.918 -0.7518  0.0197  0.0024
   13CHTO   O12 5498   3.708   7.996   4.013  0.2757 -0.2217 -0.3661
   13CHTO    H6 5499   3.798   7.989   4.038 -0.0772 -2.1827  0.4174
   14CHTO  H203 5500   5.811   4.445   2.668 -0.1237 -0.8761  0.0998
   14CHTO   O82 5501   5.747   4.476   2.730 -0.0342 -0.2663 -0.1115
   14CHTO  C123 5502   5.725   4.616   2.718 -0.2202  0.3509 -0.2440
   14CHTO  H227 5503   5.817   4.665   2.683 -0.7484  0.9572 -0.7860
   14CHTO   O77 5504   5.617   4.641   2.626  0.3199 -0.3476  0.2240
   14CHTO  C118 5505   5.569   4.778   2.615  0.0167  0.2223  0.0778
   14CHTO  H222 5506   5.652   4.847   2.591 -0.2813  1.1480  1.6367
   14CHTO  C125 5507   5.463   4.772   2.502  0.7851  0.1153 -0.9199
   14CHTO   O84 5508   5.419   4.903   2.466  0.0401  0.3914  0.0563
   14CHTO  H205 5509   5.463   4.943   2.393  0.0003 -0.4621 -0.4407
   14CHTO  C114 5510   5.501   4.817   2.746  0.0204 -0.7179 -0.7855
   14CHTO  H218 5511   5.424   4.743   2.771  0.6713 -0.6024  1.7370
   14CHTO  C116 5512   5.613   4.816   2.858  1.1528 -0.6673 -0.1549
   14CHTO  H220 5513   5.686   4.894   2.827  0.0340  0.7566  0.6789
   14CHTO   O79 5514   5.569   4.856   2.987 -0.0317  0.1983  0.1387
   14CHTO  H201 5515   5.481   4.888   2.986 -0.0169  0.2787  0.7180
   14CHTO  C120 5516   5.695   4.677   2.863  0.2961 -0.3614  0.4352
   14CHTO  H224 5517   5.624   4.606   2.910 -0.4781 -0.4067 -0.7714
   14CHTO   N21 5518   5.811   4.692   2.954 -0.4301  0.3200  0.0969
   14CHTO  H211 5519   5.826   4.596   3.002 -0.7559  0.3853  0.3258
   14CHTO  H212 5520   5.892   4.725   2.890 -0.0349  0.2584  0.5682
   14CHTO   O75 5521   5.449   4.951   2.726 -0.6205 -0.1728  0.2101
   14CHTO  C112 5522   5.320   4.954   2.805  0.0279  0.4903  0.1450
   14CHTO  H216 5523   5.348   4.917   2.904  0.3680 -1.8146 -0.7800
   14CHTO   O73 5524   5.226   4.869   2.747 -0.2318  0.5654  0.5153
   14CHTO  C113 5525   5.112   4.840   2.831 -0.7471 -0.0337  0.5638
   14CHTO  H217 5526   5.150   4.818   2.933  0.3229 -2.1286 -0.2629
   14CHTO  C124 5527   5.034   4.718   2.774 -0.4110 -0.7745 -0.5115
   14CHTO   O83 5528   5.112   4.602   2.749 -0.3895 -0.7099 -0.2146
   14CHTO  H204 5529   5.186   4.606   2.806 -1.6138  0.2086  1.3606
   14CHTO  C109 5530   5.024   4.969   2.837 -0.4841 -0.1485  0.4312
   14CHTO  H213 5531   4.996   4.993   2.734 -1.5804  1.4838  1.0927
   14CHTO  C110 5532   5.112   5.085   2.896 -0.1357  0.3919  0.1734
   14CHTO  H214 5533   5.137   5.067   3.000 -3.8013  1.6060  1.3133
   14CHTO   O78 5534   5.036   5.206   2.890 -0.2405 -0.0597 -0.2406
   14CHTO  H200 5535   5.003   5.218   2.804  0.7598  1.3072 -0.4544
   14CHTO  C111 5536   5.248   5.093   2.813 -0.8473  0.3118 -0.1889
   14CHTO  H215 5537   5.225   5.119   2.708  0.0054 -4.2053 -1.6315
   14CHTO   N19 5538   5.344   5.193   2.862  0.5448  0.3132  0.4196
   14CHTO  H207 5539   5.313   5.243   2.953 -0.5898 -0.5641  0.5198
   14CHTO  H208 5540   5.372   5.268   2.789  0.1583 -0.8525 -0.9393
   14CHTO   O74 5541   4.901   4.935   2.913 -0.1832 -0.4774 -0.2170
   14CHTO  C115 5542   4.759   5.026   2.858  0.1655  0.0017  0.3571
   14CHTO  H219 5543   4.708   5.075   2.942  0.4926 -0.1667  0.6540
   14CHTO   O76 5544   4.795   5.144   2.749 -0.4756 -0.4336  0.5298
   14CHTO  C122 5545   4.775   5.118   2.615  0.6040  0.1200  0.2944
   14CHTO  H226 5546   4.850   5.047   2.581  0.6315 -0.5337  1.6900
   14CHTO  C126 5547   4.802   5.248   2.540 -0.2008  0.5723  0.1872
   14CHTO   O85 5548   4.858   5.228   2.405 -0.5853 -0.0227 -0.3737
   14CHTO  H206 5549   4.913   5.298   2.375 -1.8471  0.8494 -0.7469
   14CHTO  C121 5550   4.631   5.068   2.593  0.1906  0.1352  0.4864
   14CHTO  H225 5551   4.563   5.149   2.559  0.4130 -0.6866 -2.0647
   14CHTO   O81 5552   4.643   4.976   2.479  0.0814  0.5603  0.4166
   14CHTO  H202 5553   4.557   4.963   2.443  0.2168 -0.4278  0.4197
   14CHTO  C119 5554   4.563   5.004   2.716  0.4782 -0.6168 -0.0657
   14CHTO  H223 5555   4.541   5.090   2.779 -3.3142 -1.3499 -0.2738
   14CHTO  C117 5556   4.661   4.919   2.802 -0.2964 -0.0748 -0.2717
   14CHTO  H221 5557   4.729   4.853   2.748  1.3990  0.6755  0.9091
   14CHTO   N20 5558   4.595   4.832   2.907  0.7819 -0.3402  0.0492
   14CHTO  H209 5559   4.541   4.758   2.850  1.4172  0.8035 -2.0871
   14CHTO  H210 5560   4.531   4.898   2.964  0.4561  0.0641 -0.7830
   14CHTO   O80 5561   4.408   4.939   2.690  0.1949  0.0646 -0.3583
   14CHTO  C103 5562   4.286   5.036   2.631  0.0968 -0.2171 -0.8955
   14CHTO  H190 5563   4.316   5.135   2.596 -2.2120  1.2939  1.2406
   14CHTO  C101 5564   4.201   4.963   2.517 -0.5863  0.0296  0.2167
   14CHTO  H188 5565   4.179   4.861   2.549 -0.5417  0.2140  0.8417
   14CHTO   O68 5566   4.293   4.934   2.399  0.6351 -0.0860 -0.1992
   14CHTO  H168 5567   4.357   5.002   2.395 -0.3343  0.8606  0.1812
   14CHTO   C99 5568   4.064   5.039   2.490 -0.0270 -0.3616 -0.0401
   14CHTO  H186 5569   4.083   5.140   2.448 -1.1286  0.1236  0.6184
   14CHTO   N17 5570   3.974   4.972   2.391  0.6248  0.0368  0.2248
   14CHTO  H174 5571   3.961   5.037   2.306  2.0881 -0.9081 -0.7498
   14CHTO  H175 5572   3.877   4.948   2.432  0.4359 -0.4225 -0.4779
   14CHTO   C97 5573   3.988   5.062   2.622 -0.1132 -0.4530 -0.6869
   14CHTO  H184 5574   3.948   4.968   2.662  2.1531 -1.7031 -1.3068
   14CHTO   O64 5575   4.067   5.135   2.719  0.1341 -0.1090 -0.3043
   14CHTO  C104 5576   4.188   5.065   2.755  0.2169  0.8431 -0.0870
   14CHTO  H191 5577   4.163   4.969   2.800 -0.0800  0.6910 -0.5674
   14CHTO  C108 5578   4.260   5.143   2.861 -0.2296 -0.2696 -0.1203
   14CHTO   O71 5579   4.186   5.147   2.984  0.4269 -0.8340  0.0618
   14CHTO  H171 5580   4.107   5.195   2.965 -1.0483 -2.0170  2.7790
   14CHTO   O62 5581   3.874   5.151   2.599  0.5295  0.2631  0.4743
   14CHTO   C91 5582   3.761   5.149   2.691 -0.4343  0.7296 -0.0580
   14CHTO  H178 5583   3.751   5.049   2.733  1.5240  0.2267 -0.7311
   14CHTO   C92 5584   3.635   5.163   2.607 -0.3731 -0.4917  0.0307
   14CHTO  H179 5585   3.647   5.097   2.519 -0.8524  0.0492 -0.4428
   14CHTO   O66 5586   3.516   5.122   2.678 -0.4770 -0.0740 -0.7988
   14CHTO  H166 5587   3.439   5.158   2.640 -0.8104 -0.5802 -0.6112
   14CHTO   C93 5588   3.610   5.314   2.567 -0.5073 -0.2204 -0.0262
   14CHTO  H180 5589   3.505   5.317   2.535 -1.0064  0.7745  1.7075
   14CHTO   N16 5590   3.682   5.357   2.445  0.1160 -0.3715 -0.0150
   14CHTO  H172 5591   3.613   5.400   2.374  0.3246  0.2423  0.1550
   14CHTO  H173 5592   3.777   5.407   2.457  0.5835 -1.1648 -0.3162
   14CHTO   C94 5593   3.633   5.415   2.687  0.2150  0.3984 -0.6538
   14CHTO  H181 5594   3.720   5.478   2.670  1.2165 -0.0980  2.3769
   14CHTO   O61 5595   3.650   5.344   2.811 -0.1110  0.0926 -0.3032
   14CHTO   C95 5596   3.768   5.261   2.813 -0.4135 -0.3310  0.4581
   14CHTO  H182 5597   3.861   5.318   2.809  0.8012 -2.2781 -0.1263
   14CHTO  C106 5598   3.770   5.188   2.950 -0.3730 -0.0305  0.0973
   14CHTO   O69 5599   3.899   5.134   2.972 -0.0056 -0.2001 -0.7900
   14CHTO  H169 5600   3.960   5.204   2.983 -1.9631  1.2408  1.3832
   14CHTO   O63 5601   3.505   5.506   2.701  0.0557 -0.1094  0.6574
   14CHTO   C96 5602   3.534   5.660   2.634 -0.6756  0.4934 -0.2939
   14CHTO  H183 5603   3.631   5.653   2.586 -1.3655 -0.3234 -1.5912
   14CHTO   C98 5604   3.549   5.777   2.739  0.2107 -0.3610  0.3766
   14CHTO  H185 5605   3.465   5.781   2.810 -0.7961  0.7661 -0.8639
   14CHTO   O67 5606   3.662   5.731   2.812 -0.1382  0.2674  0.2007
   14CHTO  H167 5607   3.644   5.652   2.860 -0.8586  0.7783  0.7901
   14CHTO  C102 5608   3.560   5.921   2.670  0.3886  0.6948 -0.3549
   14CHTO  H189 5609   3.656   5.924   2.616  1.2521  2.9473  1.2275
   14CHTO   N18 5610   3.570   6.031   2.767  0.4157 -0.0975 -0.2404
   14CHTO  H176 5611   3.588   6.129   2.726  1.4725  0.0317  0.5014
   14CHTO  H177 5612   3.498   6.031   2.848  0.2475  2.1852 -0.3766
   14CHTO  C105 5613   3.441   5.937   2.571  0.0819 -0.0204 -0.2905
   14CHTO  H192 5614   3.350   5.938   2.631  0.2767 -0.2837  0.0129
   14CHTO   O65 5615   3.433   5.830   2.475 -0.5443 -0.5989 -0.5184
   14CHTO  C100 5616   3.413   5.705   2.540  0.4728 -0.1353 -0.1237
   14CHTO  H187 5617   3.325   5.710   2.607  2.5208  1.8611  2.5174
   14CHTO  C107 5618   3.374   5.597   2.438  0.2749  0.1398  0.1069
   14CHTO   O70 5619   3.250   5.621   2.373  0.2324  0.2140 -0.1258
   14CHTO  H170 5620   3.227   5.544   2.325  1.8473 -0.7452  0.6147
   14CHTO   O57 5621   3.450   6.082   2.490  0.0338 -0.0864  0.4560
   14CHTO   C85 5622   3.383   6.128   2.373 -0.2903 -0.0038 -0.5745
   14CHTO  H157 5623   3.307   6.050   2.349 -0.4314  0.0458 -0.2921
   14CHTO   C83 5624   3.483   6.121   2.248 -0.0949  0.2831 -0.0073
   14CHTO  H155 5625   3.518   6.020   2.225 -1.4208  0.4961 -3.1984
   14CHTO   O56 5626   3.610   6.191   2.270  0.0694  0.3328 -0.2672
   14CHTO  H135 5627   3.662   6.149   2.335 -2.6342 -3.9693 -0.6529
   14CHTO   C81 5628   3.399   6.169   2.131  0.1762 -0.6525 -0.0509
   14CHTO  H153 5629   3.311   6.104   2.127  0.6972 -1.3288 -0.7658
   14CHTO   N14 5630   3.462   6.150   2.000 -0.1021 -0.0566  0.1929
   14CHTO  H141 5631   3.409   6.073   1.948  0.7807 -0.1356 -0.6058
   14CHTO  H142 5632   3.458   6.238   1.938  1.8431 -0.1748 -0.1516
   14CHTO   C79 5633   3.356   6.323   2.148  0.1310 -0.5063 -0.4161
   14CHTO  H151 5634   3.291   6.353   2.065 -0.8127 -0.0696  0.4616
   14CHTO   O52 5635   3.272   6.333   2.265  0.5367  0.5567 -0.1927
   14CHTO   C86 5636   3.324   6.268   2.393 -0.1934 -0.0632  0.2598
   14CHTO  H158 5637   3.398   6.340   2.434  0.2913 -0.7812  0.6611
   14CHTO   C90 5638   3.211   6.263   2.491  0.1723 -0.0705  0.2303
   14CHTO   O60 5639   3.237   6.214   2.618 -0.1705  0.0851 -0.7012
   14CHTO  H138 5640   3.178   6.146   2.644  0.9443  0.2827  2.6788
   14CHTO   O50 5641   3.462   6.415   2.169  0.7902  0.1880  0.4994
   14CHTO   C73 5642   3.511   6.549   2.147  0.3159 -0.2981 -0.0616
   14CHTO  H145 5643   3.447   6.621   2.200 -1.9143 -1.7766 -0.6442
   14CHTO   C74 5644   3.518   6.581   2.000  0.0407 -0.3576  0.1249
   14CHTO  H146 5645   3.418   6.589   1.954 -1.3209 -0.2100  2.9620
   14CHTO   O54 5646   3.555   6.722   1.988  1.1300 -0.6849  0.0082
   14CHTO  H133 5647   3.641   6.738   1.956  1.4599 -0.7712  0.8388
   14CHTO   C75 5648   3.620   6.486   1.919  0.0307 -0.3282 -0.2109
   14CHTO  H147 5649   3.582   6.383   1.928  0.8870 -0.5777  0.6565
   14CHTO   N13 5650   3.625   6.520   1.772  0.2227 -0.1788  0.0051
   14CHTO  H139 5651   3.528   6.507   1.727 -0.5123  0.6214  1.3516
   14CHTO  H140 5652   3.696   6.460   1.717  0.3084  0.0165 -0.0997
   14CHTO   C76 5653   3.759   6.502   1.990  0.3428 -0.0369  0.5871
   14CHTO  H148 5654   3.798   6.600   1.962 -0.8949  0.5493  0.8922
   14CHTO   O49 5655   3.756   6.489   2.133  0.3839  0.2759 -0.3876
   14CHTO   C77 5656   3.660   6.571   2.197  0.9237 -0.4337 -0.6967
   14CHTO  H149 5657   3.681   6.678   2.198  0.4742 -0.3420 -1.2621
   14CHTO   C88 5658   3.669   6.535   2.348  0.0206  0.3036  0.3278
   14CHTO   O58 5659   3.572   6.592   2.433 -0.3038  0.2590  0.3007
   14CHTO  H136 5660   3.484   6.566   2.414  0.3234 -1.4314 -0.3641
   14CHTO   O51 5661   3.846   6.389   1.923 -0.1008  0.7968 -0.6479
   14CHTO   C78 5662   4.003   6.404   1.956 -0.5933  0.0460  0.1343
   14CHTO  H150 5663   4.020   6.449   2.056 -2.7666  2.3360 -0.4879
   14CHTO   C80 5664   4.071   6.489   1.844 -0.2801  0.0566 -0.2918
   14CHTO  H152 5665   4.040   6.443   1.747  2.1990 -0.2906 -0.9625
   14CHTO   O55 5666   4.027   6.625   1.855 -0.0296  0.2006  0.3585
   14CHTO  H134 5667   4.047   6.680   1.781 -0.9150  0.9200  0.6417
   14CHTO   C84 5668   4.227   6.474   1.859  0.3308 -0.1731  0.7446
   14CHTO  H156 5669   4.260   6.526   1.949 -0.2782 -0.4572  1.1297
   14CHTO   N15 5670   4.302   6.539   1.741 -0.3224  0.7162 -0.2453
   14CHTO  H143 5671   4.405   6.550   1.770  0.4808 -2.0612 -1.8893
   14CHTO  H144 5672   4.298   6.473   1.658  0.8657 -2.2358  1.9605
   14CHTO   C87 5673   4.274   6.328   1.879 -0.0932  0.7564  0.9436
   14CHTO  H159 5674   4.247   6.271   1.790 -0.8864  1.1164  0.9436
   14CHTO   O53 5675   4.205   6.270   1.994  0.2715  0.3517  0.1627
   14CHTO   C82 5676   4.059   6.258   1.971 -0.5767 -0.1169  0.3040
   14CHTO  H154 5677   4.042   6.199   1.881 -1.4737 -0.4693  0.7005
   14CHTO   C89 5678   4.001   6.182   2.086 -0.2045 -0.2443  0.5253
   14CHTO   O59 5679   3.862   6.143   2.067  0.0219  0.1461 -0.2017
   14CHTO  H137 5680   3.869   6.098   1.985 -2.3642  0.5210 -0.6504
   14CHTO   O45 5681   4.434   6.326   1.907  0.1995  0.5214 -0.1369
   14CHTO   C67 5682   4.484   6.201   1.957 -0.1885  0.1922  0.2888
   14CHTO  H124 5683   4.420   6.152   2.030  0.4981 -1.4654 -0.1874
   14CHTO   C65 5684   4.507   6.113   1.837 -0.3044  0.9366  0.0243
   14CHTO  H122 5685   4.416   6.132   1.781 -0.1482  2.0237  0.1218
   14CHTO   O44 5686   4.518   5.980   1.881  0.6311 -0.7090 -0.6171
   14CHTO  H102 5687   4.464   5.920   1.832  0.8107 -2.4635  1.2407
   14CHTO   C63 5688   4.619   6.165   1.747 -0.6683  0.3652 -0.0045
   14CHTO  H120 5689   4.599   6.268   1.719  2.4907  0.6512 -1.4274
   14CHTO   N11 5690   4.637   6.101   1.611  0.7744  0.1966 -0.0907
   14CHTO  H108 5691   4.673   6.000   1.614  0.6321  0.0922 -1.6361
   14CHTO  H109 5692   4.709   6.156   1.556  1.0297  0.2620  0.3055
   14CHTO   C61 5693   4.754   6.169   1.831 -0.1376  0.3316 -0.2584
   14CHTO  H118 5694   4.823   6.220   1.762 -2.1272  2.1593 -0.9436
   14CHTO   O40 5695   4.735   6.248   1.952  0.2648  0.2350 -0.0232
   14CHTO   C68 5696   4.622   6.228   2.035 -0.1360 -0.5669 -0.8052
   14CHTO  H125 5697   4.612   6.322   2.093 -1.5183 -0.2815 -1.5030
   14CHTO   C72 5698   4.646   6.109   2.138 -0.5751 -0.2339  0.2021
   14CHTO   O48 5699   4.776   6.102   2.199 -0.0214  0.0364  0.8086
   14CHTO  H105 5700   4.783   6.032   2.261 -0.7769 -0.8977 -0.1426
   14CHTO   O38 5701   4.811   6.042   1.876  0.3647  0.2547  0.7841
   14CHTO   C55 5702   4.938   5.996   1.827 -0.2638 -0.2493  0.4232
   14CHTO  H112 5703   4.956   6.047   1.730  1.1712 -0.5863  0.4926
   14CHTO   C56 5704   4.950   5.838   1.811 -0.1527 -0.7175  0.4437
   14CHTO  H113 5705   4.929   5.795   1.910 -0.9083  0.7044  0.9121
   14CHTO   O42 5706   4.846   5.791   1.723  0.0318  0.3465  0.2934
   14CHTO  H100 5707   4.767   5.776   1.772 -0.5180  0.1591 -0.6421
   14CHTO   C57 5708   5.096   5.805   1.766  0.0314 -0.5779 -0.0780
   14CHTO  H114 5709   5.113   5.861   1.674  0.9461 -1.6843 -0.6006
   14CHTO   N10 5710   5.119   5.663   1.733 -0.2947  0.6170  0.3833
   14CHTO  H106 5711   5.105   5.641   1.628  1.6009  2.9218 -0.3983
   14CHTO  H107 5712   5.064   5.592   1.793  0.9879 -1.7782 -1.1579
   14CHTO   C58 5713   5.190   5.862   1.875 -1.1622 -0.2247 -0.9081
   14CHTO  H115 5714   5.167   5.815   1.973  0.8618 -1.9399 -1.2296
   14CHTO   O37 5715   5.173   6.006   1.877 -0.4156  0.2969 -0.2646
   14CHTO   C59 5716   5.048   6.048   1.926  0.2791 -0.3661  0.0455
   14CHTO  H116 5717   5.034   6.006   2.025  1.9770 -1.6444 -0.2343
   14CHTO   C70 5718   5.055   6.197   1.953  0.4946 -0.5163  0.3126
   14CHTO   O46 5719   5.132   6.226   2.067 -0.6267  0.4168 -0.1120
   14CHTO  H103 5720   5.163   6.314   2.063  1.4399 -0.3226 -1.1382
   14CHTO   O39 5721   5.349   5.841   1.822 -0.5303  0.1799 -0.6192
   14CHTO   C60 5722   5.436   5.784   1.917  0.6426 -0.0822  0.4909
   14CHTO  H117 5723   5.380   5.777   2.010 -1.5473 -1.4091 -0.8928
   14CHTO   C62 5724   5.483   5.641   1.886 -0.1381  0.0835  0.1642
   14CHTO  H119 5725   5.392   5.579   1.875 -0.0667 -0.2847  1.5615
   14CHTO   O43 5726   5.550   5.629   1.759  0.0622 -0.9225 -0.2039
   14CHTO  H101 5727   5.515   5.693   1.700 -0.0276  0.6864  1.5496
   14CHTO   C66 5728   5.568   5.576   2.012  0.1097  0.1772  0.1362
   14CHTO  H123 5729   5.508   5.584   2.102 -1.0133  3.0439 -0.7962
   14CHTO   N12 5730   5.597   5.433   1.997 -0.1810 -0.2572 -0.4399
   14CHTO  H110 5731   5.699   5.414   1.966 -0.1068  1.0463 -1.0232
   14CHTO  H111 5732   5.523   5.387   1.934 -0.6432  0.8709 -0.7367
   14CHTO   C69 5733   5.698   5.658   2.028 -0.5488 -0.3872 -0.2948
   14CHTO  H126 5734   5.760   5.647   1.937  0.2688  1.6183 -0.0018
   14CHTO   O41 5735   5.653   5.812   2.053  0.3408  0.0497 -0.2597
   14CHTO   C64 5736   5.558   5.872   1.941  0.0955  0.3755 -0.0415
   14CHTO  H121 5737   5.613   5.885   1.845  0.4461  0.2400  0.1415
   14CHTO   C71 5738   5.510   6.010   1.985  0.3422  0.0242 -0.8354
   14CHTO   O47 5739   5.618   6.103   2.020 -0.1874  0.3644  0.7051
   14CHTO  H104 5740   5.591   6.187   1.987 -0.6599  0.5427  1.5579
   14CHTO   O34 5741   5.770   5.602   2.168 -0.2470  0.0178 -0.4543
   14CHTO   C49 5742   5.920   5.597   2.174 -0.5864  0.2264  0.2613
   14CHTO   H91 5743   5.961   5.526   2.102 -0.8177 -0.7582  1.0864
   14CHTO   C47 5744   5.956   5.559   2.319  0.2159 -0.6479  0.5000
   14CHTO   H89 5745   6.064   5.533   2.315 -0.6876 -4.4501 -1.2377
   14CHTO   O33 5746   5.879   5.445   2.356  0.0936 -0.0149 -0.3515
   14CHTO   H70 5747   5.909   5.363   2.322  1.2651 -0.4910  1.7236
   14CHTO   C45 5748   5.931   5.683   2.425  0.5663 -0.0209  0.5110
   14CHTO   H87 5749   5.834   5.659   2.470  0.2393 -0.6065 -0.4935
   14CHTO    N8 5750   6.041   5.685   2.533  0.4484  0.1109 -0.5301
   14CHTO   H75 5751   6.008   5.748   2.614 -0.8901 -0.4534 -0.6172
   14CHTO   H76 5752   6.072   5.590   2.574  0.5421  0.2799 -0.2074
   14CHTO   C43 5753   5.911   5.820   2.338 -0.0689  0.1988  0.0708
   14CHTO   H85 5754   5.808   5.807   2.303  0.5182  0.1652 -1.6975
   14CHTO   O29 5755   6.012   5.829   2.233 -0.0786  0.1119  0.0185
   14CHTO   C50 5756   5.984   5.730   2.134 -0.1461 -0.3859 -0.0138
   14CHTO   H92 5757   5.927   5.781   2.055  1.6659  0.2256 -0.9776
   14CHTO   C54 5758   6.121   5.699   2.066 -0.3081 -0.7876 -0.4494
   14CHTO   O36 5759   6.116   5.628   1.944 -0.4063 -0.6576  0.0944
   14CHTO   H72 5760   6.083   5.692   1.883  1.0322  1.6099  1.5899
   14CHTO   O27 5761   5.904   5.943   2.412 -0.1267 -0.3465 -0.0467
   14CHTO   C37 5762   5.853   6.066   2.469 -0.3977 -0.5081  0.4068
   14CHTO   H79 5763   5.928   6.110   2.537  1.4984 -0.0783 -1.8781
   14CHTO   C38 5764   5.849   6.173   2.349 -0.5450 -0.3040  0.2190
   14CHTO   H80 5765   5.806   6.123   2.261 -1.2614 -3.0275  2.0604
   14CHTO   O31 5766   5.984   6.210   2.314 -0.4730  0.1343 -0.0003
   14CHTO   H68 5767   6.041   6.137   2.297  0.0093  0.0898  1.7193
   14CHTO   C39 5768   5.757   6.291   2.393 -0.5555 -0.0385 -0.3116
   14CHTO   H81 5769   5.815   6.346   2.467 -1.6286  2.3133 -1.1905
   14CHTO    N7 5770   5.729   6.384   2.277 -0.2698 -0.1299  0.1121
   14CHTO   H73 5771   5.721   6.485   2.315  1.1622  0.3308 -0.7563
   14CHTO   H74 5772   5.790   6.358   2.192 -1.1453 -0.9868 -0.2541
   14CHTO   C40 5773   5.615   6.238   2.457 -0.5621 -0.7067  0.4243
   14CHTO   H82 5774   5.572   6.182   2.373 -1.8980  1.3552 -0.3099
   14CHTO   O26 5775   5.633   6.157   2.575 -0.2702  0.5832  0.5102
   14CHTO   C41 5776   5.721   6.036   2.551  0.0071 -0.0622 -0.4008
   14CHTO   H83 5777   5.671   5.957   2.494 -0.8139  0.1275  0.0335
   14CHTO   C52 5778   5.758   5.993   2.696 -0.1579 -0.5401  0.6529
   14CHTO   O35 5779   5.657   5.920   2.778  0.1383  0.2570 -0.2880
   14CHTO   H71 5780   5.692   5.893   2.861  1.0150  0.7559 -0.4884
   14CHTO   O28 5781   5.536   6.351   2.498  0.1222  0.0831 -0.2140
   14CHTO   C42 5782   5.395   6.345   2.522  0.7348  0.4278  0.2745
   14CHTO   H84 5783   5.379   6.451   2.542  1.3833  0.4600  0.6166
   14CHTO   C44 5784   5.354   6.263   2.650 -1.0951  0.1017  0.0380
   14CHTO   H86 5785   5.356   6.158   2.623 -0.8212  0.6753 -2.3493
   14CHTO   O32 5786   5.442   6.308   2.756  0.0032 -0.3462  0.2076
   14CHTO   H69 5787   5.415   6.293   2.845  0.8590  0.7842  0.6708
   14CHTO   C48 5788   5.204   6.283   2.694 -0.2508  0.1501 -0.4101
   14CHTO   H90 5789   5.199   6.381   2.741  0.2938  0.7660 -1.6111
   14CHTO    N9 5790   5.161   6.182   2.798  0.1660 -0.2831 -0.0031
   14CHTO   H77 5791   5.085   6.226   2.861 -0.5315 -0.0301 -1.0073
   14CHTO   H78 5792   5.254   6.158   2.849 -0.0185  0.3314  0.6373
   14CHTO   C51 5793   5.119   6.278   2.563 -0.3222 -0.6754 -0.3654
   14CHTO   H93 5794   5.094   6.175   2.537 -0.8813 -0.5843 -0.1952
   14CHTO   O30 5795   5.181   6.350   2.452 -0.1308 -0.4483 -0.1937
   14CHTO   C46 5796   5.305   6.312   2.405 -0.4463  0.0886  0.7656
   14CHTO   H88 5797   5.301   6.204   2.389  2.4441 -0.1128  1.2430
   14CHTO   C53 5798   5.333   6.381   2.270 -0.2889 -0.1667  0.3013
   14CHTO   O72 5799   5.324   6.523   2.277  0.0785 -0.3396  0.3275
   14CHTO  H199 5800   5.249   6.540   2.330  0.7544 -1.5941  1.7062
   14CHTO   O22 5801   4.996   6.354   2.586 -0.1383  0.5841 -0.2002
   14CHTO   C31 5802   4.869   6.325   2.526  0.0803  0.5057 -0.2260
   14CHTO   H59 5803   4.887   6.238   2.459 -1.2766 -0.2385  0.3629
   14CHTO   C29 5804   4.758   6.275   2.627 -0.7248 -0.0495  0.1179
   14CHTO   H57 5805   4.737   6.359   2.694  0.5797  0.0259  0.4443
   14CHTO   O21 5806   4.809   6.163   2.699 -0.2219 -0.0290 -0.1622
   14CHTO   H37 5807   4.867   6.114   2.643 -0.9474 -0.5903 -0.4453
   14CHTO   C27 5808   4.628   6.232   2.548 -0.2396  0.3329  0.1364
   14CHTO   H55 5809   4.652   6.151   2.477 -0.2331  0.2553  0.2271
   14CHTO    N5 5810   4.513   6.181   2.628 -0.3772  0.2336 -0.2277
   14CHTO   H43 5811   4.413   6.203   2.595 -0.2329 -1.2211 -1.6839
   14CHTO   H44 5812   4.531   6.078   2.655  2.2787  1.2851  2.2962
   14CHTO   C25 5813   4.579   6.353   2.462 -1.0619 -0.0198  0.2352
   14CHTO   H53 5814   4.562   6.440   2.527 -0.3761  1.5428 -1.6277
   14CHTO   O17 5815   4.690   6.398   2.371 -0.1634  0.1901 -0.5183
   14CHTO   C32 5816   4.815   6.440   2.438  0.5797 -0.6331 -0.3314
   14CHTO   H60 5817   4.794   6.526   2.502  1.6604  1.1869 -2.3310
   14CHTO   C36 5818   4.924   6.482   2.336  0.3773  0.7778  0.1454
   14CHTO   O25 5819   4.947   6.378   2.242  0.1409 -0.5830  0.6680
   14CHTO   H40 5820   4.893   6.402   2.170 -0.0397  0.8222  1.2380
   14CHTO   O15 5821   4.450   6.324   2.365 -0.9320 -0.4325  0.5122
   14CHTO   C19 5822   4.314   6.382   2.344  0.3940 -0.5909 -1.4059
   14CHTO   H47 5823   4.291   6.361   2.238 -0.3598  1.4730 -1.6754
   14CHTO   C20 5824   4.201   6.318   2.431  0.1225  0.9537  0.1756
   14CHTO   H48 5825   4.225   6.320   2.538  0.7794  1.6326  0.0177
   14CHTO   O19 5826   4.193   6.176   2.397  0.1113  0.3480  0.3170
   14CHTO   H35 5827   4.193   6.163   2.304  0.6386  0.2359  0.3313
   14CHTO   C21 5828   4.068   6.392   2.411  0.3725 -0.5486  0.5598
   14CHTO   H49 5829   4.032   6.370   2.310  1.6268 -1.6323  0.3376
   14CHTO    N4 5830   3.965   6.346   2.512 -0.5131 -0.0113  0.0046
   14CHTO   H41 5831   3.874   6.309   2.466 -0.1158 -0.3292 -0.5361
   14CHTO   H42 5832   4.004   6.267   2.575 -0.1598 -0.0757 -0.2908
   14CHTO   C22 5833   4.091   6.546   2.411  0.3382  0.4142 -0.3046
   14CHTO   H50 5834   4.124   6.581   2.509  0.5336  0.9987 -0.5752
   14CHTO   O14 5835   4.194   6.586   2.321 -0.3258  0.3775 -1.1510
   14CHTO   C23 5836   4.323   6.533   2.350 -0.8426 -1.0739  0.7948
   14CHTO   H51 5837   4.356   6.567   2.449  1.0683  0.1576 -0.2126
   14CHTO   C34 5838   4.407   6.602   2.242  0.5883 -0.0402  0.3292
   14CHTO   O23 5839   4.547   6.613   2.245 -0.0291  0.4810  0.3346
   14CHTO   H38 5840   4.581   6.659   2.170 -0.0884 -3.5492 -2.3160
   14CHTO   O16 5841   3.970   6.617   2.375  0.0278  0.2211 -0.2030
   14CHTO   C24 5842   3.977   6.798   2.404  0.4850  0.0051  0.5724
   14CHTO   H52 5843   3.879   6.844   2.402  0.8184  0.6821 -0.5042
   14CHTO   C26 5844   4.069   6.865   2.296  0.3403  0.2598  0.1303
   14CHTO   H54 5845   4.167   6.812   2.293 -0.6140 -1.5144 -1.1696
   14CHTO   O20 5846   4.003   6.842   2.167 -0.1268 -0.4104  0.1211
   14CHTO   H36 5847   4.068   6.829   2.100  1.2016  1.7446  0.9716
   14CHTO   C30 5848   4.095   7.018   2.323 -0.0968  0.2820  0.6001
   14CHTO   H58 5849   3.998   7.071   2.319  0.8529  1.9950 -0.4004
   14CHTO    N6 5850   4.189   7.077   2.226  0.4186 -0.4704  0.7436
   14CHTO   H45 5851   4.286   7.029   2.232  1.2560  0.7090 -2.1817
   14CHTO   H46 5852   4.149   7.067   2.126  0.4920 -2.1209  0.8577
   14CHTO   C33 5853   4.140   7.026   2.471 -0.0677 -0.2420  0.1532
   14CHTO   H61 5854   4.235   6.972   2.485 -0.5816 -0.8512  1.4225
   14CHTO   O18 5855   4.036   6.970   2.558  0.1785  0.0159 -0.6096
   14CHTO   C28 5856   4.035   6.833   2.543  0.6230 -0.3452 -0.1522
   14CHTO   H56 5857   4.131   6.782   2.551  0.5312 -0.4556  0.2486
   14CHTO   C35 5858   3.951   6.790   2.664  0.1352 -0.2490 -0.0159
   14CHTO   O24 5859   3.941   6.649   2.673  0.1172  0.1004  0.3889
   14CHTO   H39 5860   3.902   6.630   2.756  0.2394 -1.1700  0.1718
   14CHTO    O9 5861   4.164   7.163   2.507 -0.0465  0.1864 -0.2150
   14CHTO   C13 5862   4.276   7.179   2.623 -0.1922 -0.0762  0.3588
   14CHTO   H26 5863   4.319   7.078   2.640 -0.1461 -0.3030 -1.0440
   14CHTO   C11 5864   4.215   7.248   2.756  0.7944  0.2715  0.0806
   14CHTO   H24 5865   4.131   7.184   2.786  2.0949 -1.3479  0.3997
   14CHTO    O8 5866   4.157   7.375   2.734  0.1784  0.0371  0.1564
   14CHTO    H3 5867   4.214   7.442   2.766 -0.8535  0.7688  0.4845
   14CHTO    C9 5868   4.323   7.235   2.860  0.7076  0.1957 -0.4626
   14CHTO   H22 5869   4.352   7.129   2.860  0.5785  0.1588  0.5595
   14CHTO    N2 5870   4.282   7.265   2.995  0.1700 -0.0588 -0.3250
   14CHTO   H10 5871   4.184   7.227   3.019  0.7464 -0.9494  0.6660
   14CHTO   H11 5872   4.291   7.372   3.010  0.9594 -0.1988  0.2560
   14CHTO    C7 5873   4.444   7.319   2.813  0.1231  0.3689 -0.6584
   14CHTO   H20 5874   4.523   7.311   2.891 -0.4318  1.0407 -0.0216
   14CHTO    O4 5875   4.499   7.285   2.678  0.0085  0.0095  0.2195
   14CHTO   C14 5876   4.397   7.254   2.578 -0.0751  0.1687 -0.2411
   14CHTO   H27 5877   4.448   7.186   2.507  2.1636  0.7746  0.7357
   14CHTO   C18 5878   4.354   7.379   2.492  0.0314  0.3923 -0.0880
   14CHTO   O13 5879   4.464   7.447   2.416  0.6442  0.3811  0.3992
   14CHTO    H7 5880   4.498   7.516   2.470 -1.1839 -0.1108  2.2634
   14CHTO    O2 5881   4.422   7.489   2.816  0.2508  0.0196  0.3179
   14CHTO    C1 5882   4.519   7.578   2.758  0.0524  0.5276  0.0365
   14CHTO   H14 5883   4.509   7.586   2.648 -0.7305  1.1921  0.1492
   14CHTO    C2 5884   4.669   7.546   2.804  0.4073  0.2297 -0.3317
   14CHTO   H15 5885   4.680   7.540   2.913 -2.7270 -2.7381 -0.0963
   14CHTO    O6 5886   4.717   7.420   2.760 -0.2027 -1.2225  0.0400
   14CHTO    H1 5887   4.649   7.355   2.760  0.9034 -2.4098  0.5266
   14CHTO    C3 5888   4.746   7.671   2.746  0.4505  0.3626  0.5041
   14CHTO   H16 5889   4.734   7.666   2.637  2.3594 -0.6936  0.3217
   14CHTO    N1 5890   4.896   7.658   2.785  0.5588 -0.1537  0.5830
   14CHTO    H8 5891   4.914   7.650   2.891  1.4016  0.0228  0.4599
   14CHTO    H9 5892   4.933   7.573   2.729 -2.0266 -0.4628 -0.7210
   14CHTO    C4 5893   4.683   7.810   2.786 -0.8465 -0.0167  0.5199
   14CHTO   H17 5894   4.700   7.825   2.893 -1.2203  0.2712  0.5419
   14CHTO    O1 5895   4.547   7.817   2.751 -0.5081 -0.0282  0.1063
   14CHTO    C5 5896   4.474   7.716   2.813  0.2580 -0.0074 -0.2074
   14CHTO   H18 5897   4.484   7.711   2.921  0.9961 -0.5090 -0.2917
   14CHTO   C16 5898   4.323   7.740   2.777 -0.0937  0.6085 -0.3158
   14CHTO   O11 5899   4.279   7.862   2.831  0.6016  0.0658  0.0951
   14CHTO    H5 5900   4.199   7.876   2.786  0.6254 -0.2130 -0.0351
   14CHTO    O3 5901   4.743   7.913   2.708  0.7162 -0.1444 -0.2279
   14CHTO    C6 5902   4.760   8.034   2.786 -0.5574  0.1380  0.2544
   14CHTO   H19 5903   4.712   8.034   2.884  0.0576 -1.9699  0.5957
   14CHTO    C8 5904   4.910   8.072   2.814  0.2246  0.0594 -0.2338
   14CHTO   H21 5905   4.964   8.095   2.722  1.1730 -0.6465  0.1385
   14CHTO    O7 5906   4.978   7.961   2.884  0.0993 -0.4882  0.0850
   14CHTO    H2 5907   5.067   7.992   2.883 -0.9425  2.6693 -0.9849
   14CHTO   C12 5908   4.919   8.207   2.890 -0.0439  0.0243  1.0440
   14CHTO   H25 5909   4.862   8.189   2.984  0.9557  0.7472  1.8017
   14CHTO    N3 5910   5.056   8.259   2.928  0.1782  0.0173 -0.0050
   14CHTO   H12 5911   5.082   8.216   3.024  1.3938  0.2089 -0.2319
   14CHTO   H13 5912   5.134   8.231   2.858  0.6227 -1.3977  1.0416
   14CHTO   C15 5913   4.834   8.318   2.811 -0.2808  0.0831 -0.2389
   14CHTO   H28 5914   4.878   8.350   2.716 -1.5798  0.7492 -0.6311
   14CHTO   O10 5915   4.798   8.439   2.892 -0.3596  0.2622  0.3965
   14CHTO    H4 5916   4.753   8.409   2.968 -1.4838 -1.5696 -0.9595
   14CHTO    O5 5917   4.701   8.276   2.778 -0.0937  0.2489  0.0912
   14CHTO   C10 5918   4.697   8.151   2.703  0.2794  0.2687 -0.0936
   14CHTO   H23 5919   4.757   8.163   2.613 -0.1034  0.5867 -0.3110
   14CHTO   C17 5920   4.550   8.140   2.663  0.0611  0.3278 -0.1227
   14CHTO   O12 5921   4.471   8.100   2.778 -0.1923 -0.3615 -0.5939
   14CHTO    H6 5922   4.392   8.151   2.779  0.7853  1.1636 -0.4350
   15CHTO  H203 5923   5.016   5.089   2.437  0.1363  0.4323  0.2166
   15CHTO   O82 5924   5.098   5.047   2.419 -0.1420  0.1662 -0.4299
   15CHTO  C123 5925   5.096   4.990   2.289 -0.8136  0.4063 -0.3994
   15CHTO  H227 5926   5.031   5.047   2.221 -0.5903  0.6962 -0.3658
   15CHTO   O77 5927   5.232   4.992   2.242 -0.3443  0.2775  0.1375
   15CHTO  C118 5928   5.250   4.945   2.108 -0.1983  0.0098 -0.5788
   15CHTO  H222 5929   5.183   5.002   2.043 -0.0338  0.1898 -0.5910
   15CHTO  C125 5930   5.401   4.970   2.053  0.1526  0.0586  0.2897
   15CHTO   O84 5931   5.511   4.926   2.135 -0.5547 -0.0682 -0.7569
   15CHTO  H205 5932   5.593   4.955   2.099 -0.5649  0.6653 -0.1955
   15CHTO  C114 5933   5.228   4.790   2.112 -0.0720 -0.4206 -0.0141
   15CHTO  H218 5934   5.298   4.740   2.180  1.2984  0.0335 -1.0779
   15CHTO  C116 5935   5.076   4.760   2.155  0.1147  0.3537  0.0319
   15CHTO  H220 5936   5.005   4.792   2.076  1.7252 -2.6468 -2.7476
   15CHTO   O79 5937   5.074   4.621   2.179 -0.2607 -0.7578 -0.5541
   15CHTO  H201 5938   5.048   4.572   2.103 -1.1975 -1.4280  0.1895
   15CHTO  C120 5939   5.048   4.838   2.290 -0.5685 -0.2487  0.1035
   15CHTO  H224 5940   5.112   4.794   2.369 -0.2006  0.2140  0.0694
   15CHTO   N21 5941   4.902   4.829   2.332  0.3991  0.8219 -0.1691
   15CHTO  H211 5942   4.869   4.735   2.292  0.6813  0.8969 -0.5770
   15CHTO  H212 5943   4.885   4.828   2.439 -1.0231  0.0802 -0.3948
   15CHTO   O75 5944   5.250   4.736   1.980  0.0735 -0.4596  0.5768
   15CHTO  C112 5945   5.296   4.555   1.968  0.0157  0.0375  0.1097
   15CHTO  H216 5946   5.273   4.502   2.062  0.3710 -0.4403 -0.0741
   15CHTO   O73 5947   5.435   4.544   1.940 -0.3878  0.1938 -0.2220
   15CHTO  C113 5948   5.484   4.407   1.945  0.3090  0.0521  0.5227
   15CHTO  H217 5949   5.455   4.365   2.043 -0.5633 -0.9820 -0.1702
   15CHTO  C124 5950   5.634   4.411   1.939 -0.5177 -0.0830  0.8587
   15CHTO   O83 5951   5.683   4.502   1.844 -0.1227  0.0240  0.6355
   15CHTO  H204 5952   5.687   4.589   1.878 -0.4567 -0.9638  3.3290
   15CHTO  C109 5953   5.424   4.318   1.835  0.0526 -0.6335 -0.1447
   15CHTO  H213 5954   5.472   4.350   1.741  0.1554  0.8400  0.3916
   15CHTO  C110 5955   5.272   4.321   1.836 -0.6899 -0.5381  0.0237
   15CHTO  H214 5956   5.239   4.262   1.921  0.0856 -0.4082  0.4280
   15CHTO   O78 5957   5.221   4.251   1.716  0.8313  0.2994 -0.2280
   15CHTO  H200 5958   5.191   4.308   1.648  1.2930 -0.9852 -1.5366
   15CHTO  C111 5959   5.229   4.472   1.848 -0.1980  0.0556  0.3942
   15CHTO  H215 5960   5.252   4.523   1.753 -2.0878  0.2814  0.0385
   15CHTO   N19 5961   5.085   4.492   1.875 -0.1383  0.2462  0.7056
   15CHTO  H207 5962   5.040   4.455   1.784  1.7144  1.5714 -0.7971
   15CHTO  H208 5963   5.044   4.435   1.957  0.0486  0.9674  1.3076
   15CHTO   O74 5964   5.461   4.178   1.859  0.1124  0.1160  0.0130
   15CHTO  C115 5965   5.518   4.093   1.738 -0.3435 -0.4340  0.1648
   15CHTO  H219 5966   5.484   4.135   1.643 -1.0675 -0.1219  0.5599
   15CHTO   O76 5967   5.689   4.087   1.729  0.0298  0.2530  0.0959
   15CHTO  C122 5968   5.742   4.004   1.829 -0.6461 -0.9582  0.0602
   15CHTO  H226 5969   5.710   4.039   1.927  0.3904  1.2002 -0.3311
   15CHTO  C126 5970   5.909   4.014   1.833  0.5010  0.6180  0.2846
   15CHTO   O85 5971   5.962   4.146   1.842 -0.2911  0.0044  0.4425
   15CHTO  H206 5972   6.054   4.134   1.835 -0.5948 -1.5928 -1.0682
   15CHTO  C121 5973   5.703   3.858   1.808  0.0932 -0.2928 -0.3986
   15CHTO  H225 5974   5.785   3.817   1.745 -0.7227 -0.1463 -1.5918
   15CHTO   O81 5975   5.701   3.789   1.935  0.0635  0.3475  0.1082
   15CHTO  H202 5976   5.626   3.814   1.987  0.0980  1.0612 -0.1771
   15CHTO  C119 5977   5.574   3.836   1.727 -0.8979  0.5135  0.1696
   15CHTO  H223 5978   5.605   3.852   1.624  2.4213  1.7626  1.2894
   15CHTO  C117 5979   5.465   3.946   1.762 -0.2881 -0.4041 -0.1188
   15CHTO  H221 5980   5.425   3.947   1.864  0.2486 -1.1339  0.0997
   15CHTO   N20 5981   5.344   3.930   1.671 -0.3797  0.4812  0.1693
   15CHTO  H209 5982   5.366   3.949   1.567 -0.6039  0.3215  0.0925
   15CHTO  H210 5983   5.303   3.830   1.668 -1.6189  0.9350  1.5736
   15CHTO   O80 5984   5.532   3.678   1.724 -0.3654  0.0313 -0.1192
   15CHTO  C103 5985   5.561   3.595   1.591  0.5999  0.2412  0.5314
   15CHTO  H190 5986   5.524   3.493   1.602  1.9870 -0.1800  1.3035
   15CHTO  C101 5987   5.512   3.649   1.454  0.3991  0.1512 -0.3809
   15CHTO  H188 5988   5.553   3.747   1.429 -0.4684  0.5269 -0.3292
   15CHTO   O68 5989   5.363   3.671   1.465 -0.7467  0.0690  0.4451
   15CHTO  H168 5990   5.311   3.622   1.404  0.6257  0.2454 -0.9064
   15CHTO   C99 5991   5.539   3.539   1.340  0.5583  0.0767  0.7239
   15CHTO  H186 5992   5.479   3.454   1.376  0.3113 -0.1691 -0.2563
   15CHTO   N17 5993   5.497   3.574   1.200  0.2494 -0.0265  0.2673
   15CHTO  H174 5994   5.399   3.619   1.200  0.2033 -0.1254  0.1044
   15CHTO  H175 5995   5.565   3.642   1.151 -0.4017  0.8207  0.5393
   15CHTO   C97 5996   5.691   3.502   1.344 -0.1800 -0.1989  0.5071
   15CHTO  H184 5997   5.749   3.578   1.289 -0.6142 -1.0068 -1.0835
   15CHTO   O64 5998   5.744   3.475   1.474  0.0395 -0.2176  0.8521
   15CHTO  C104 5999   5.715   3.575   1.576  0.0330  0.1432 -0.4424
   15CHTO  H191 6000   5.764   3.668   1.546 -1.5620  1.1040 -0.1424
   15CHTO  C108 6001   5.783   3.535   1.715 -0.1171 -0.0257 -0.6884
   15CHTO   O71 6002   5.924   3.556   1.724  0.0697  0.2130  0.3952
   15CHTO  H171 6003   5.940   3.644   1.754  0.4535  1.3541 -2.9066
   15CHTO   O62 6004   5.703   3.368   1.281  0.2905  0.6502  0.1918
   15CHTO   C91 6005   5.818   3.326   1.213  0.1115  0.3117  0.2188
   15CHTO  H178 6006   5.871   3.410   1.167  0.2478  0.6440  0.9710
   15CHTO   C92 6007   5.764   3.237   1.101 -0.0617 -0.5653 -0.4360
   15CHTO  H179 6008   5.682   3.296   1.057  0.0456 -0.8217 -0.9827
   15CHTO   O66 6009   5.861   3.226   0.988 -0.3020  0.4643  0.0287
   15CHTO  H166 6010   5.868   3.306   0.938  3.2789  1.6735  2.2103
   15CHTO   C93 6011   5.710   3.094   1.142 -0.2098 -1.1798  0.1816
   15CHTO  H180 6012   5.720   3.033   1.051 -0.0212  1.3333 -1.5365
   15CHTO   N16 6013   5.556   3.100   1.174 -0.1153  0.7270  0.1009
   15CHTO  H172 6014   5.502   3.094   1.080  0.2997  0.6309 -0.1290
   15CHTO  H173 6015   5.523   3.014   1.231 -3.7471  1.8489 -0.1677
   15CHTO   C94 6016   5.799   3.039   1.259  0.6520  0.4276  0.9199
   15CHTO  H181 6017   5.744   3.046   1.353  1.3438  0.9245  1.2911
   15CHTO   O61 6018   5.923   3.104   1.268 -0.0275  0.2898  0.0571
   15CHTO   C95 6019   5.911   3.246   1.305 -0.9770  0.3203 -0.1635
   15CHTO  H182 6020   5.882   3.254   1.410  1.6394 -1.4903  0.7535
   15CHTO  C106 6021   6.058   3.303   1.302 -0.2757 -0.0316 -0.1615
   15CHTO   O69 6022   6.139   3.263   1.408 -0.0960  0.5354 -0.1040
   15CHTO  H169 6023   6.191   3.331   1.446  0.0973  1.2979 -1.7062
   15CHTO   O63 6024   5.808   2.895   1.236 -0.1911 -0.0805  0.1248
   15CHTO   C96 6025   5.913   2.801   1.331  0.3369 -0.1192 -0.1336
   15CHTO  H183 6026   5.930   2.844   1.430  0.9633 -0.0694 -0.2610
   15CHTO   C98 6027   6.048   2.774   1.259 -0.2557  0.3009 -0.6647
   15CHTO  H185 6028   6.028   2.748   1.153 -0.2777 -2.0918 -0.1095
   15CHTO   O67 6029   6.122   2.895   1.270  0.3345 -0.3814 -0.5889
   15CHTO  H167 6030   6.083   2.953   1.208  1.1430 -1.3625 -2.0202
   15CHTO  C102 6031   6.133   2.654   1.321  0.9067 -0.2878  0.1706
   15CHTO  H189 6032   6.153   2.683   1.425  3.2878 -0.1103 -0.3188
   15CHTO   N18 6033   6.267   2.627   1.261 -0.0847 -0.1812 -0.2485
   15CHTO  H176 6034   6.305   2.533   1.298  0.5227 -0.0401 -0.4986
   15CHTO  H177 6035   6.331   2.708   1.295 -1.7963  2.2781 -2.6175
   15CHTO  C105 6036   6.041   2.529   1.334  0.9930 -0.2825  0.5393
   15CHTO  H192 6037   6.021   2.495   1.232 -3.2467 -1.3477  1.6187
   15CHTO   O65 6038   5.930   2.563   1.415  0.0876 -0.7348  0.2747
   15CHTO  C100 6039   5.842   2.660   1.357  0.7322  0.3170  0.5234
   15CHTO  H187 6040   5.801   2.611   1.266  0.0927  0.7168  0.5910
   15CHTO  C107 6041   5.723   2.671   1.459 -0.3770 -0.2108  0.7276
   15CHTO   O70 6042   5.612   2.751   1.414  0.0879 -0.1790  0.4772
   15CHTO  H170 6043   5.559   2.710   1.348  2.7243  0.2557 -1.9999
   15CHTO   O57 6044   6.129   2.398   1.422  0.2154 -0.0656 -0.1453
   15CHTO   C85 6045   6.058   2.279   1.452 -0.6745  0.4411  0.3772
   15CHTO  H157 6046   5.955   2.316   1.474 -0.3129  1.3820  0.4832
   15CHTO   C83 6047   6.118   2.220   1.579 -0.0148 -0.4223 -0.6090
   15CHTO  H155 6048   6.110   2.292   1.660  1.6920 -1.9572  0.9845
   15CHTO   O56 6049   6.261   2.189   1.563 -0.5128  0.0576 -0.5122
   15CHTO  H135 6050   6.307   2.226   1.490 -0.4922  0.6489 -0.2078
   15CHTO   C81 6051   6.045   2.086   1.618  0.3930 -0.1318  0.4617
   15CHTO  H153 6052   5.942   2.119   1.635  1.3761  2.2088  2.1351
   15CHTO   N14 6053   6.090   2.042   1.754  0.2972  0.0748 -0.1382
   15CHTO  H141 6054   6.196   2.032   1.750  0.0787 -1.8016 -1.7358
   15CHTO  H142 6055   6.044   1.948   1.774  0.5725 -0.0465 -0.0738
   15CHTO   C79 6056   6.054   1.976   1.508 -0.2983  0.5658 -0.5950
   15CHTO  H151 6057   5.984   1.897   1.537 -2.7829  3.0578  0.3911
   15CHTO   O52 6058   6.008   2.026   1.381  0.9144 -0.1900 -0.1485
   15CHTO   C86 6059   6.056   2.163   1.337 -0.3986  0.0257  0.0815
   15CHTO  H158 6060   6.161   2.133   1.315  0.5012  1.7821  1.7650
   15CHTO   C90 6061   5.995   2.206   1.206  0.2351  0.3930  0.0016
   15CHTO   O60 6062   6.036   2.119   1.104 -0.3981 -0.4548  0.4525
   15CHTO  H138 6063   6.120   2.150   1.076 -0.9405  1.8091  1.2190
   15CHTO   O50 6064   6.186   1.924   1.481  0.0773 -0.1480  0.7810
   15CHTO   C73 6065   6.235   1.796   1.436  0.0636 -0.3336  0.4713
   15CHTO  H145 6066   6.177   1.756   1.353  3.1135  0.1374 -1.9838
   15CHTO   C74 6067   6.234   1.691   1.558 -0.8319  0.0155  0.0437
   15CHTO  H146 6068   6.130   1.688   1.596 -0.8899 -3.9330 -0.2798
   15CHTO   O54 6069   6.263   1.563   1.505  0.4289 -0.4030 -0.2145
   15CHTO  H133 6070   6.348   1.564   1.465  0.2761  1.6963 -0.5302
   15CHTO   C75 6071   6.336   1.731   1.673  0.2797  0.3277 -0.4294
   15CHTO  H147 6072   6.303   1.825   1.718 -0.6065 -0.4486  0.5611
   15CHTO   N13 6073   6.358   1.638   1.786 -0.7035  0.7366  0.3480
   15CHTO  H139 6074   6.355   1.535   1.752  0.4829  0.2554  1.6638
   15CHTO  H140 6075   6.280   1.655   1.858  0.5811  0.8203  1.7230
   15CHTO   C76 6076   6.474   1.766   1.608  0.1542  0.2887  0.2534
   15CHTO  H148 6077   6.504   1.671   1.563  0.1639 -0.3406  1.5762
   15CHTO   O49 6078   6.458   1.867   1.504  0.0078  0.0862 -0.0939
   15CHTO   C77 6079   6.385   1.807   1.393  0.9956 -0.3222  0.3009
   15CHTO  H149 6080   6.421   1.707   1.371 -0.4210 -1.2871  2.2214
   15CHTO   C88 6081   6.404   1.893   1.268 -0.3169 -0.0698 -0.3178
   15CHTO   O58 6082   6.331   1.817   1.132  0.1149  0.1221  0.1580
   15CHTO  H136 6083   6.359   1.866   1.057  0.9277 -1.2565 -0.4758
   15CHTO   O51 6084   6.589   1.821   1.722 -0.1725 -0.1999 -0.4040
   15CHTO   C78 6085   6.730   1.827   1.678 -0.0190 -0.9474  0.0277
   15CHTO  H150 6086   6.745   1.814   1.569 -0.0266  1.7863 -0.3451
   15CHTO   C80 6087   6.802   1.719   1.758  0.8140 -0.6124 -0.1190
   15CHTO  H152 6088   6.769   1.724   1.864  0.1535  2.5938 -0.4110
   15CHTO   O55 6089   6.751   1.591   1.710  0.0380  0.1286  0.1751
   15CHTO  H134 6090   6.754   1.587   1.617  1.0609 -0.6761  0.2276
   15CHTO   C84 6091   6.960   1.727   1.756 -0.2354  0.1847 -0.1903
   15CHTO  H156 6092   6.994   1.707   1.654  2.3174 -0.2059  0.7017
   15CHTO   N15 6093   7.025   1.616   1.839 -0.1879  0.5110  0.3885
   15CHTO  H143 6094   6.978   1.519   1.839 -3.1585  1.8729  1.3860
   15CHTO  H144 6095   7.038   1.651   1.939  0.6097  1.3376 -0.0051
   15CHTO   C87 6096   7.002   1.865   1.798 -0.1801 -0.3894  0.5407
   15CHTO  H159 6097   6.977   1.877   1.904 -0.8473 -0.2774  0.3708
   15CHTO   O53 6098   6.926   1.975   1.701 -0.3449  0.1234  0.2018
   15CHTO   C82 6099   6.787   1.965   1.721 -0.0828 -0.1720 -0.2799
   15CHTO  H154 6100   6.769   1.990   1.826  0.1111  3.8499 -1.1154
   15CHTO   C89 6101   6.723   2.087   1.644 -0.0660 -0.0722  0.1551
   15CHTO   O59 6102   6.576   2.091   1.656  0.0601 -0.5478 -0.2257
   15CHTO  H137 6103   6.539   2.122   1.576  2.0339  0.6246 -0.7123
   15CHTO   O45 6104   7.168   1.884   1.761  0.2070 -0.3771 -0.0792
   15CHTO   C67 6105   7.218   2.018   1.766 -0.3651 -0.0542 -0.4692
   15CHTO  H124 6106   7.141   2.090   1.739  1.2931  3.1229  2.8010
   15CHTO   C65 6107   7.267   2.059   1.909  0.0126  0.4243  0.3507
   15CHTO  H122 6108   7.300   1.965   1.954 -0.4292  0.3203  0.4627
   15CHTO   O44 6109   7.149   2.121   1.961  0.2256  0.1178 -0.1898
   15CHTO  H102 6110   7.152   2.214   1.944 -0.6324  0.2234  0.1934
   15CHTO   C63 6111   7.389   2.152   1.902  0.2261  0.1257 -0.5104
   15CHTO  H120 6112   7.475   2.089   1.880  0.6713  0.3764  0.5071
   15CHTO   N11 6113   7.426   2.216   2.033 -0.0850 -0.1324  0.3259
   15CHTO  H108 6114   7.496   2.292   2.006 -0.4402  0.1823  0.2997
   15CHTO  H109 6115   7.454   2.144   2.107 -2.7059 -0.7766  0.7248
   15CHTO   C61 6116   7.381   2.246   1.782 -0.4543 -0.3624 -0.1201
   15CHTO  H118 6117   7.477   2.300   1.790 -0.7003  0.1898 -0.8627
   15CHTO   O40 6118   7.384   2.164   1.655 -0.4860 -0.5899 -0.5123
   15CHTO   C68 6119   7.331   2.028   1.654  0.0790 -0.8018  0.8008
   15CHTO  H125 6120   7.414   1.958   1.677  0.2684  0.0325  2.8046
   15CHTO   C72 6121   7.266   1.980   1.514 -0.0477  0.2058 -0.0869
   15CHTO   O48 6122   7.232   1.845   1.491 -0.0482  0.2251  0.4807
   15CHTO  H105 6123   7.161   1.819   1.546 -1.2135 -0.5081 -1.3423
   15CHTO   O38 6124   7.265   2.328   1.781 -0.6365  0.1296  0.7001
   15CHTO   C55 6125   7.267   2.440   1.692 -0.3455 -0.1545 -0.1783
   15CHTO  H112 6126   7.333   2.430   1.605  0.5259 -2.7163  0.7316
   15CHTO   C56 6127   7.303   2.572   1.781 -0.3799 -0.0355 -0.5106
   15CHTO  H113 6128   7.235   2.568   1.866  0.7234 -1.8401  0.3133
   15CHTO   O42 6129   7.438   2.566   1.833 -0.0889 -0.4540 -0.0540
   15CHTO  H100 6130   7.503   2.537   1.771  0.0005 -1.2727  0.4045
   15CHTO   C57 6131   7.273   2.705   1.692  0.1187  0.0125  0.5489
   15CHTO  H114 6132   7.344   2.695   1.610  1.8477 -1.5178  2.1621
   15CHTO   N10 6133   7.293   2.834   1.764 -0.1784  0.1535 -0.8767
   15CHTO  H106 6134   7.346   2.905   1.702  1.1741 -0.2727 -0.2206
   15CHTO  H107 6135   7.349   2.814   1.854 -2.6608  1.8371  1.1622
   15CHTO   C58 6136   7.125   2.691   1.645  0.6940 -0.0772 -0.3479
   15CHTO  H115 6137   7.061   2.669   1.734  0.0702 -2.2228 -1.3084
   15CHTO   O37 6138   7.121   2.580   1.553  0.3429  0.1186 -0.6261
   15CHTO   C59 6139   7.124   2.457   1.630  0.1162 -0.6351 -0.0560
   15CHTO  H116 6140   7.049   2.450   1.709 -0.5526  0.4246 -0.5820
   15CHTO   C70 6141   7.110   2.341   1.527 -0.1698  1.1296 -0.1053
   15CHTO   O46 6142   6.993   2.327   1.459 -0.1350  0.0991 -0.1185
   15CHTO  H103 6143   6.964   2.238   1.458 -1.0711  0.3947 -0.6543
   15CHTO   O39 6144   7.066   2.839   1.559  0.1561  0.7488 -0.1783
   15CHTO   C60 6145   6.994   2.810   1.439 -0.4865 -0.5335 -0.6406
   15CHTO  H117 6146   7.065   2.770   1.366 -1.1185  0.8525 -2.0358
   15CHTO   C62 6147   6.868   2.715   1.459  0.1385  0.2723  0.0178
   15CHTO  H119 6148   6.902   2.626   1.516  3.5791  0.9768 -0.8039
   15CHTO   O43 6149   6.770   2.784   1.542  0.0796  0.4648  0.3908
   15CHTO  H101 6150   6.759   2.874   1.516  0.2534  0.5662  0.6706
   15CHTO   C66 6151   6.807   2.681   1.316 -0.7738 -0.1048 -0.2794
   15CHTO  H123 6152   6.889   2.657   1.248 -0.0792  0.3309  0.3948
   15CHTO   N12 6153   6.712   2.570   1.331 -0.0281 -0.0327 -0.4081
   15CHTO  H110 6154   6.725   2.488   1.261 -3.7021 -0.5912 -0.5445
   15CHTO  H111 6155   6.613   2.613   1.333  0.2345  0.5108  1.5205
   15CHTO   C69 6156   6.732   2.811   1.264  0.0831  0.5476  0.2137
   15CHTO  H126 6157   6.645   2.835   1.330 -0.1762  1.0003 -0.2946
   15CHTO   O41 6158   6.831   2.938   1.271 -0.2787  0.2795 -0.0454
   15CHTO   C64 6159   6.951   2.947   1.389  0.2406  0.3855  0.6346
   15CHTO  H121 6160   6.913   3.014   1.469 -0.6881  1.0870 -0.3731
   15CHTO   C71 6161   7.072   3.023   1.329  0.8940  0.1951 -0.2497
   15CHTO   O47 6162   7.023   3.153   1.297  0.2456 -0.0143 -0.5996
   15CHTO  H104 6163   7.092   3.199   1.253  0.4768  1.1806  0.9610
   15CHTO   O34 6164   6.693   2.787   1.129 -0.1293  0.2978  0.4028
   15CHTO   C49 6165   6.582   2.811   1.036 -0.3965  0.9178 -0.4887
   15CHTO   H91 6166   6.514   2.727   1.052  0.1365  0.4928 -0.4570
   15CHTO   C47 6167   6.649   2.804   0.895 -0.0881  0.2243 -0.6007
   15CHTO   H89 6168   6.562   2.822   0.828 -2.0987 -2.4365  1.1904
   15CHTO   O33 6169   6.715   2.679   0.865  0.1338 -0.6539  0.4369
   15CHTO   H70 6170   6.807   2.695   0.851  0.1640 -2.2430 -1.2319
   15CHTO   C45 6171   6.746   2.927   0.884 -0.0703 -0.4069 -0.0232
   15CHTO   H87 6172   6.816   2.929   0.969 -1.7533  1.1099  1.3636
   15CHTO    N8 6173   6.830   2.935   0.759  0.4788 -0.0200  0.4425
   15CHTO   H75 6174   6.936   2.920   0.774  0.8706  5.1290  3.8598
   15CHTO   H76 6175   6.815   3.025   0.701  1.7639  0.5251  0.9447
   15CHTO   C43 6176   6.664   3.066   0.909  0.8486  0.1859 -0.1723
   15CHTO   H85 6177   6.732   3.150   0.895 -0.9248  1.1667 -3.4982
   15CHTO   O29 6178   6.592   3.068   1.029  0.2616 -0.1471 -0.4480
   15CHTO   C50 6179   6.510   2.944   1.060 -0.4740  0.2781  0.5751
   15CHTO   H92 6180   6.472   2.951   1.163 -1.2547 -0.0538  0.3164
   15CHTO   C54 6181   6.380   2.947   0.985  0.0950 -0.5205  0.2488
   15CHTO   O36 6182   6.281   3.033   1.043 -0.4092  0.5419  0.0062
   15CHTO   H72 6183   6.311   3.120   1.026 -2.3637  0.9466 -1.7115
   15CHTO   O27 6184   6.591   3.098   0.793 -0.4337 -0.2385 -0.2681
   15CHTO   C37 6185   6.540   3.196   0.704  0.1093 -0.1900  0.3254
   15CHTO   H79 6186   6.543   3.150   0.603  1.1258 -1.0963  0.7540
   15CHTO   C38 6187   6.396   3.232   0.739 -0.5480  0.2704  0.4612
   15CHTO   H80 6188   6.391   3.243   0.848 -0.0574 -0.5564  0.5663
   15CHTO   O31 6189   6.312   3.120   0.703 -0.6874  0.4910  0.2326
   15CHTO   H68 6190   6.263   3.093   0.778  1.4144 -0.7535  1.1949
   15CHTO   C39 6191   6.337   3.361   0.666  0.1903 -0.4908  0.2839
   15CHTO   H81 6192   6.329   3.349   0.557  2.5235 -0.7599  0.1253
   15CHTO    N7 6193   6.199   3.409   0.717 -0.0626  0.6972 -0.3364
   15CHTO   H73 6194   6.184   3.514   0.694 -1.3707  0.1202 -2.2112
   15CHTO   H74 6195   6.124   3.353   0.663 -0.4003 -0.1459  0.9954
   15CHTO   C40 6196   6.444   3.478   0.690 -0.3244  0.5871  0.9359
   15CHTO   H82 6197   6.442   3.513   0.793  1.2894  1.9587  0.5175
   15CHTO   O26 6198   6.570   3.437   0.650 -0.8123 -0.3655  0.9022
   15CHTO   C41 6199   6.627   3.316   0.711  0.7653 -1.2473 -0.3075
   15CHTO   H83 6200   6.631   3.337   0.819 -2.9536 -0.2093 -0.2923
   15CHTO   C52 6201   6.765   3.278   0.652  0.2359 -0.6954 -0.5753
   15CHTO   O35 6202   6.776   3.250   0.495 -0.0415 -0.2270  0.1814
   15CHTO   H71 6203   6.769   3.158   0.479  0.4925 -0.5149  1.5715
   15CHTO   O28 6204   6.424   3.604   0.617 -0.3613  0.3296 -0.4945
   15CHTO   C42 6205   6.448   3.734   0.665 -0.0784  0.5818 -0.0629
   15CHTO   H84 6206   6.477   3.791   0.576  1.0987 -0.1838 -0.1789
   15CHTO   C44 6207   6.563   3.756   0.774 -0.5900 -0.7913 -0.3072
   15CHTO   H86 6208   6.551   3.689   0.860 -1.1996  0.5533  0.6739
   15CHTO   O32 6209   6.683   3.703   0.713  0.0300 -0.4508  0.0258
   15CHTO   H69 6210   6.740   3.659   0.774 -0.3768 -0.4119  0.4392
   15CHTO   C48 6211   6.570   3.914   0.803 -0.3874  0.0281 -0.3696
   15CHTO   H90 6212   6.604   3.972   0.717  3.4401 -0.7557  0.5394
   15CHTO    N9 6213   6.679   3.922   0.899 -0.3841 -0.2388 -0.0948
   15CHTO   H77 6214   6.695   4.024   0.930 -0.6304  0.9055 -3.5400
   15CHTO   H78 6215   6.775   3.892   0.860 -0.0810  0.7856 -0.1418
   15CHTO   C51 6216   6.435   3.977   0.851 -0.9717  0.4790 -0.1309
   15CHTO   H93 6217   6.406   3.929   0.944  1.4040  0.7859  0.7914
   15CHTO   O30 6218   6.345   3.945   0.745 -0.1082  0.2789  0.2417
   15CHTO   C46 6219   6.315   3.800   0.720 -0.0140  0.0139 -0.6005
   15CHTO   H88 6220   6.283   3.745   0.808  2.5463 -1.6261 -0.6562
   15CHTO   C53 6221   6.203   3.798   0.612 -0.3626 -1.3769 -0.3611
   15CHTO   O72 6222   6.091   3.873   0.650  0.4978 -0.7560 -0.2626
   15CHTO  H199 6223   6.102   3.959   0.614 -1.4209 -0.8560 -1.1242
   15CHTO   O22 6224   6.439   4.115   0.872 -0.2227 -0.2745 -0.2078
   15CHTO   C31 6225   6.325   4.190   0.936 -0.2129  0.3681 -0.6622
   15CHTO   H59 6226   6.359   4.294   0.955  1.2663  0.2595 -2.4924
   15CHTO   C29 6227   6.193   4.195   0.858 -0.2741  0.1293 -0.0048
   15CHTO   H57 6228   6.163   4.089   0.853  1.8427 -0.6011  1.5534
   15CHTO   O21 6229   6.205   4.234   0.724 -0.2947  0.3458 -0.0229
   15CHTO   H37 6230   6.251   4.167   0.678 -0.7047  1.4581 -2.1076
   15CHTO   C27 6231   6.086   4.285   0.936  0.6929  0.5301 -0.5878
   15CHTO   H55 6232   6.121   4.389   0.931 -0.0606  0.7555 -1.3618
   15CHTO    N5 6233   5.950   4.276   0.872  0.7137 -0.3040 -0.2133
   15CHTO   H43 6234   5.943   4.185   0.815  0.8492 -3.4163  4.4412
   15CHTO   H44 6235   5.923   4.368   0.823  0.4447 -1.0796 -1.5283
   15CHTO   C25 6236   6.075   4.239   1.095 -0.2257  0.0457  0.0117
   15CHTO   H53 6237   6.035   4.137   1.106  2.9119 -1.0335  2.3720
   15CHTO   O17 6238   6.204   4.216   1.156 -0.2168  0.4388  0.1650
   15CHTO   C32 6239   6.297   4.130   1.082 -0.3407  0.0194 -0.7190
   15CHTO   H60 6240   6.248   4.033   1.080 -0.0089 -0.2199  1.5603
   15CHTO   C36 6241   6.427   4.112   1.163 -0.3990  0.3633  0.6949
   15CHTO   O25 6242   6.412   4.001   1.250 -0.1987  0.2018  0.0212
   15CHTO   H40 6243   6.397   3.920   1.207 -1.5722 -0.4005  1.5862
   15CHTO   O15 6244   5.976   4.342   1.184 -0.0990 -0.3253 -0.0356
   15CHTO   C19 6245   6.008   4.452   1.277  1.0599  0.2174 -0.9114
   15CHTO   H47 6246   6.118   4.452   1.287  1.1971 -0.9811 -2.2022
   15CHTO   C20 6247   5.972   4.592   1.218 -0.2025  0.0855 -0.5125
   15CHTO   H48 6248   5.864   4.602   1.199 -0.1641  1.5715  0.0440
   15CHTO   O19 6249   6.038   4.612   1.086  0.0597 -0.4703  0.2672
   15CHTO   H35 6250   6.005   4.544   1.030  0.1248  0.7839 -1.3317
   15CHTO   C21 6251   6.015   4.703   1.323 -0.5284  0.7597  0.5233
   15CHTO   H49 6252   6.123   4.702   1.336 -0.3942 -0.4476 -0.5915
   15CHTO    N4 6253   5.965   4.838   1.278  0.0240  0.2419  0.1532
   15CHTO   H41 6254   5.896   4.839   1.195 -1.0426  1.3655  1.0383
   15CHTO   H42 6255   5.918   4.889   1.361  1.4592  1.2074  0.3897
   15CHTO   C22 6256   5.971   4.665   1.468  0.2777  0.5569  0.0231
   15CHTO   H50 6257   5.863   4.676   1.470  0.3393  2.4792 -3.4012
   15CHTO   O14 6258   5.999   4.529   1.505  0.0817  0.2344  0.3464
   15CHTO   C23 6259   5.936   4.431   1.419  0.0544  0.4658 -0.2986
   15CHTO   H51 6260   5.826   4.442   1.417  0.0612  0.8142  1.0634
   15CHTO   C34 6261   5.963   4.297   1.482 -0.3399  0.1241 -0.1068
   15CHTO   O23 6262   5.898   4.304   1.609 -0.6127 -0.0986 -0.7851
   15CHTO   H38 6263   5.899   4.219   1.648 -1.0183 -0.1556 -0.8979
   15CHTO   O16 6264   6.037   4.756   1.559  0.5220  0.4607  0.3360
   15CHTO   C24 6265   6.133   4.695   1.682 -0.4425  0.0033 -0.0553
   15CHTO   H52 6266   6.163   4.593   1.661  1.8214  0.6907 -0.2620
   15CHTO   C26 6267   6.061   4.699   1.816 -0.4581  0.0505 -0.0962
   15CHTO   H54 6268   6.041   4.804   1.844 -3.3342  0.8024 -4.4721
   15CHTO   O20 6269   5.937   4.623   1.799  0.2590  0.1078  0.1494
   15CHTO   H36 6270   5.954   4.530   1.794  1.6499  0.0703  3.6456
   15CHTO   C30 6271   6.162   4.632   1.917 -0.6408 -0.1337  0.4224
   15CHTO   H58 6272   6.188   4.533   1.877  0.0766  0.2535 -0.0649
   15CHTO    N6 6273   6.098   4.611   2.048  0.5116 -0.2110 -0.5938
   15CHTO   H45 6274   6.100   4.504   2.064  2.3129 -0.4889 -2.3762
   15CHTO   H46 6275   5.997   4.648   2.056 -0.4673 -3.1135  1.3368
   15CHTO   C33 6276   6.294   4.718   1.922 -1.0714  0.3812  0.5077
   15CHTO   H61 6277   6.269   4.820   1.956 -0.2076  0.4814  0.8429
   15CHTO   O18 6278   6.352   4.725   1.790  0.1878  0.2356  0.1975
   15CHTO   C28 6279   6.268   4.775   1.685  0.3010  0.4546  0.2037
   15CHTO   H56 6280   6.250   4.881   1.703 -1.0238  0.1659  0.6546
   15CHTO   C35 6281   6.321   4.754   1.539 -0.0233 -0.0634 -0.2352
   15CHTO   O24 6282   6.450   4.811   1.514  0.1714 -0.3935  0.4051
   15CHTO   H39 6283   6.518   4.750   1.531 -1.1702 -1.8572  0.6330
   15CHTO    O9 6284   6.383   4.667   2.020 -0.0650  0.4136 -0.5149
   15CHTO   C13 6285   6.534   4.743   2.047 -0.0387  0.1176 -0.2149
   15CHTO   H26 6286   6.529   4.850   2.076  2.9236  0.6766 -1.5861
   15CHTO   C11 6287   6.637   4.719   1.929  0.7191  0.1444 -0.1645
   15CHTO   H24 6288   6.613   4.799   1.857 -0.7618 -0.8763 -0.8321
   15CHTO    O8 6289   6.604   4.597   1.860 -0.0484  0.2532 -0.1281
   15CHTO    H3 6290   6.558   4.534   1.913  0.6856 -0.1918 -0.0265
   15CHTO    C9 6291   6.783   4.739   1.973 -0.5337  0.5357  0.2680
   15CHTO   H22 6292   6.790   4.838   2.021  1.7236  0.6083 -0.1344
   15CHTO    N2 6293   6.877   4.742   1.859 -0.2030 -0.2538 -0.4773
   15CHTO   H10 6294   6.868   4.838   1.809  2.5854 -0.6721 -1.8939
   15CHTO   H11 6295   6.979   4.728   1.893 -0.9328 -2.4562  0.8860
   15CHTO    C7 6296   6.816   4.619   2.075 -0.0320 -0.4520 -0.6213
   15CHTO   H20 6297   6.877   4.668   2.154 -2.6335  2.0897 -0.1063
   15CHTO    O4 6298   6.698   4.573   2.147 -0.3018 -0.0924  0.2737
   15CHTO   C14 6299   6.604   4.672   2.175 -0.2059  0.1949 -1.0909
   15CHTO   H27 6300   6.660   4.749   2.232  0.6077 -2.4599  1.8581
   15CHTO   C18 6301   6.492   4.614   2.272 -0.1090 -0.5892 -0.3331
   15CHTO   O13 6302   6.541   4.576   2.397 -0.0324 -0.1825  0.1580
   15CHTO    H7 6303   6.478   4.515   2.431 -0.3354  0.6703  1.1544
   15CHTO    O2 6304   6.892   4.484   2.003 -0.0577  0.2563 -0.4610
   15CHTO    C1 6305   6.989   4.411   2.081  0.5330  0.0447  0.6301
   15CHTO   H14 6306   7.002   4.457   2.182  1.2187 -0.4251  0.7516
   15CHTO    C2 6307   7.135   4.406   2.016  0.2051  0.5563 -0.0079
   15CHTO   H15 6308   7.129   4.367   1.914 -0.3797 -1.5303  0.7920
   15CHTO    O6 6309   7.188   4.542   2.012 -0.3648  0.0842 -0.5512
   15CHTO    H1 6310   7.168   4.590   2.090 -0.5483 -0.4389 -0.2783
   15CHTO    C3 6311   7.232   4.305   2.103  0.2213 -0.2158  0.4072
   15CHTO   H16 6312   7.238   4.340   2.207 -0.4480 -2.6641  1.3008
   15CHTO    N1 6313   7.375   4.296   2.050 -0.3498 -0.6948 -0.2223
   15CHTO    H8 6314   7.377   4.270   1.945  0.5996  0.8518 -0.6027
   15CHTO    H9 6315   7.420   4.216   2.106 -1.4875 -0.8165  0.5574
   15CHTO    C4 6316   7.161   4.166   2.112 -0.0014  0.1473  0.0260
   15CHTO   H17 6317   7.169   4.113   2.017  0.2399 -1.2300  0.7969
   15CHTO    O1 6318   7.028   4.173   2.159  0.3426 -0.1488  0.0755
   15CHTO    C5 6319   6.935   4.268   2.098  0.6623 -1.1972 -0.2856
   15CHTO   H18 6320   6.915   4.233   1.997 -0.0604  0.7606 -0.8452
   15CHTO   C16 6321   6.799   4.251   2.178  0.2435 -0.2416 -0.9310
   15CHTO   O11 6322   6.812   4.272   2.320 -0.2871 -0.0038  0.2875
   15CHTO    H5 6323   6.873   4.340   2.340  0.4940 -1.3012  2.5087
   15CHTO    O3 6324   7.231   4.080   2.210 -0.6028  0.1496  0.5301
   15CHTO    C6 6325   7.212   3.934   2.184  0.0135  0.1034 -0.7259
   15CHTO   H19 6326   7.120   3.908   2.132  0.0684  0.2471 -0.8914
   15CHTO    C8 6327   7.320   3.865   2.103 -0.2342  0.0177  0.1058
   15CHTO   H21 6328   7.416   3.888   2.149 -0.8670  1.5325  0.7022
   15CHTO    O7 6329   7.324   3.921   1.967 -0.2033 -0.4155  0.3004
   15CHTO    H2 6330   7.399   3.903   1.914  0.1509  0.6488  0.4310
   15CHTO   C12 6331   7.301   3.707   2.099  0.5850 -0.5465  0.8398
   15CHTO   H25 6332   7.217   3.689   2.029  0.0570  2.3466  0.6867
   15CHTO    N3 6333   7.420   3.631   2.042 -0.0748  0.5025 -0.1385
   15CHTO   H12 6334   7.387   3.594   1.946 -0.2316 -1.5519  0.6817
   15CHTO   H13 6335   7.447   3.553   2.112 -1.0051 -0.2071 -0.5643
   15CHTO   C15 6336   7.257   3.653   2.243  0.3393 -0.0023 -0.0651
   15CHTO   H28 6337   7.339   3.656   2.314 -0.0430 -3.8515  0.6627
   15CHTO   O10 6338   7.174   3.519   2.236 -0.1531 -0.1589 -0.0210
   15CHTO    H4 6339   7.226   3.441   2.239  0.5320  0.3392  2.3858
   15CHTO    O5 6340   7.153   3.734   2.307 -0.3059  0.3559  0.1378
   15CHTO   C10 6341   7.200   3.867   2.321  0.4010  0.1511  0.1653
   15CHTO   H23 6342   7.299   3.866   2.366  0.0218  1.0268  1.0331
   15CHTO   C17 6343   7.112   3.938   2.426  0.3310  0.1238 -0.3029
   15CHTO   O12 6344   7.158   4.067   2.463  0.2291  0.6348 -0.9072
   15CHTO    H6 6345   7.150   4.130   2.394  0.6873  0.3016 -1.2696
   16CHTO  H203 6346   4.895   4.758   1.015  0.4216 -0.6130  1.1631
   16CHTO   O82 6347   4.892   4.673   0.975 -0.1548 -0.0633  0.0170
   16CHTO  C123 6348   4.977   4.577   1.048  0.2804  0.2949 -0.0671
   16CHTO  H227 6349   4.932   4.566   1.148  0.9167  0.1831  0.2100
   16CHTO   O77 6350   4.968   4.455   0.972 -0.1028 -0.1711  0.2171
   16CHTO  C118 6351   5.030   4.350   1.044  0.1273 -0.2379  0.2767
   16CHTO  H222 6352   4.995   4.359   1.148 -1.7006 -0.5004 -0.2842
   16CHTO  C125 6353   4.986   4.217   0.989 -0.4956  0.0620 -0.2045
   16CHTO   O84 6354   5.027   4.189   0.857 -0.1633 -0.0868 -0.1754
   16CHTO  H205 6355   4.958   4.207   0.796  1.0891  2.8846 -0.7975
   16CHTO  C114 6356   5.185   4.359   1.056  0.5529  0.1980 -0.0602
   16CHTO  H218 6357   5.234   4.354   0.958  0.7108 -0.6250  0.0510
   16CHTO  C116 6358   5.220   4.497   1.112 -0.1519  0.1977  0.5409
   16CHTO  H220 6359   5.210   4.494   1.223 -1.7043 -0.3026  0.4047
   16CHTO   O79 6360   5.360   4.541   1.091 -0.3590 -0.0467  0.1663
   16CHTO  H201 6361   5.382   4.623   1.132  0.4751 -0.6359  0.9213
   16CHTO  C120 6362   5.133   4.621   1.055  0.2270  0.1762 -0.0046
   16CHTO  H224 6363   5.184   4.636   0.958  1.6269 -0.6828  0.5714
   16CHTO   N21 6364   5.149   4.746   1.130 -0.0626 -0.0458  0.1159
   16CHTO  H211 6365   5.065   4.813   1.119 -0.2868 -0.4104 -0.4012
   16CHTO  H212 6366   5.239   4.795   1.095 -0.1772 -1.0347 -1.6255
   16CHTO   O75 6367   5.224   4.242   1.134 -0.4159  0.1070 -0.2375
   16CHTO  C112 6368   5.387   4.209   1.136 -0.1582 -0.1507  0.1142
   16CHTO  H216 6369   5.444   4.297   1.101  1.0399 -0.8772  0.2127
   16CHTO   O73 6370   5.421   4.093   1.055 -0.4298 -0.4409  0.5520
   16CHTO  C113 6371   5.561   4.058   1.043  0.9284 -0.4747 -0.1171
   16CHTO  H217 6372   5.625   4.136   0.996  0.1989  0.7579  0.8979
   16CHTO  C124 6373   5.574   3.940   0.943 -0.2456 -0.3065 -0.8086
   16CHTO   O83 6374   5.504   3.826   0.966 -0.8066 -0.1507  0.7421
   16CHTO  H204 6375   5.534   3.767   0.899 -1.1947 -1.1611  1.4519
   16CHTO  C109 6376   5.622   4.028   1.183 -0.1568 -0.0329  0.5269
   16CHTO  H213 6377   5.582   3.930   1.212 -1.6254 -0.2630 -2.0967
   16CHTO  C110 6378   5.594   4.152   1.280 -0.3301 -0.3924 -0.2397
   16CHTO  H214 6379   5.655   4.233   1.240 -0.4663 -0.5302 -0.7382
   16CHTO   O78 6380   5.648   4.105   1.405  0.3726 -0.0949 -0.2975
   16CHTO  H200 6381   5.586   4.052   1.452  1.0881  0.6795  1.5623
   16CHTO  C111 6382   5.441   4.177   1.284  0.7063 -0.0335  0.8589
   16CHTO  H215 6383   5.389   4.085   1.315  0.0820 -0.9797 -2.7581
   16CHTO   N19 6384   5.408   4.280   1.383 -0.2179 -0.3347  0.1638
   16CHTO  H207 6385   5.310   4.270   1.428  0.1352 -1.0413  0.7984
   16CHTO  H208 6386   5.419   4.383   1.353 -1.8239  0.2072  1.3804
   16CHTO   O74 6387   5.767   4.006   1.165 -0.1281 -0.3589 -0.0225
   16CHTO  C115 6388   5.812   3.865   1.228  0.4816 -0.4845  0.1172
   16CHTO  H219 6389   5.753   3.841   1.316  1.3729  1.6208  1.3340
   16CHTO   O76 6390   5.793   3.749   1.127 -0.0225  1.2293  0.3979
   16CHTO  C122 6391   5.882   3.742   1.017 -0.6532 -0.0608 -0.0706
   16CHTO  H226 6392   5.852   3.822   0.950 -3.1105 -0.1974  0.7836
   16CHTO  C126 6393   5.860   3.604   0.937 -0.0671 -0.0465  0.5344
   16CHTO   O85 6394   5.728   3.565   0.922  0.1856  0.2450  0.3477
   16CHTO  H206 6395   5.676   3.620   0.867  0.2621 -0.7671 -0.7355
   16CHTO  C121 6396   6.032   3.743   1.067  0.1083 -0.8092  0.1039
   16CHTO  H225 6397   6.079   3.646   1.040  0.7229 -0.6568  0.6133
   16CHTO   O81 6398   6.108   3.846   1.001  0.3494  0.1795 -0.1437
   16CHTO  H202 6399   6.093   3.929   1.041  1.3935  0.3830 -0.1844
   16CHTO  C119 6400   6.043   3.768   1.223  0.0641  0.0846  0.4088
   16CHTO  H223 6401   6.007   3.684   1.282 -1.0074  1.0344  1.1498
   16CHTO  C117 6402   5.962   3.890   1.267  0.0059 -0.8245  0.2072
   16CHTO  H221 6403   5.994   3.983   1.221 -3.0078 -0.1657 -0.6627
   16CHTO   N20 6404   5.958   3.919   1.418 -0.4264 -0.1444  0.4214
   16CHTO  H209 6405   5.913   4.011   1.450 -0.2132 -0.2768  1.1070
   16CHTO  H210 6406   6.058   3.909   1.458  0.2195 -1.8054 -1.5167
   16CHTO   O80 6407   6.194   3.774   1.264  0.1994  0.0916 -0.0436
   16CHTO  C103 6408   6.277   3.637   1.253 -0.7667 -0.1966  0.1850
   16CHTO  H190 6409   6.220   3.549   1.223  2.8741 -1.8732 -2.2420
   16CHTO  C101 6410   6.403   3.643   1.159 -0.8405  0.5048 -0.2005
   16CHTO  H188 6411   6.470   3.720   1.195 -1.9431  0.7623  1.3759
   16CHTO   O68 6412   6.365   3.670   1.029 -0.1417  0.4584  0.1728
   16CHTO  H168 6413   6.336   3.758   1.011  0.3898  0.4281 -0.8967
   16CHTO   C99 6414   6.481   3.504   1.174 -0.4955  0.2788  0.4141
   16CHTO  H186 6415   6.423   3.415   1.142  1.0471 -1.3333  1.9490
   16CHTO   N17 6416   6.615   3.501   1.101  0.6823 -0.0989  0.5611
   16CHTO  H174 6417   6.705   3.534   1.150  0.9877  0.2866 -0.2463
   16CHTO  H175 6418   6.628   3.405   1.053 -3.5901 -1.0445  1.1070
   16CHTO   C97 6419   6.512   3.477   1.322 -0.0736  0.1960 -0.2804
   16CHTO  H184 6420   6.584   3.553   1.357 -0.3177 -0.3333  1.4497
   16CHTO   O64 6421   6.398   3.479   1.403 -0.8133  0.1193  0.1721
   16CHTO  C104 6422   6.336   3.605   1.398 -0.0036 -0.7743 -0.2776
   16CHTO  H191 6423   6.402   3.685   1.429 -0.9407  0.7783 -2.1753
   16CHTO  C108 6424   6.218   3.592   1.496 -0.8370  0.1259 -0.1048
   16CHTO   O71 6425   6.237   3.660   1.623 -0.1680 -0.1568 -0.6491
   16CHTO  H171 6426   6.313   3.628   1.666  1.1340  1.4225 -1.7195
   16CHTO   O62 6427   6.559   3.343   1.349  0.0928  0.1817  0.3295
   16CHTO   C91 6428   6.592   3.299   1.487  0.2167 -0.0364  0.2812
   16CHTO  H178 6429   6.538   3.356   1.563 -2.9967 -1.1671 -1.0843
   16CHTO   C92 6430   6.742   3.323   1.523 -1.1828 -0.5526 -1.1608
   16CHTO  H179 6431   6.797   3.273   1.441  0.6920  1.1447 -0.9690
   16CHTO   O66 6432   6.766   3.463   1.522 -0.2487  0.0233 -0.5607
   16CHTO  H166 6433   6.801   3.498   1.443  0.9771  0.2180  0.0569
   16CHTO   C93 6434   6.798   3.265   1.659 -0.1221 -0.2480  0.5754
   16CHTO  H180 6435   6.778   3.341   1.736 -0.6249  0.1549  0.0464
   16CHTO   N16 6436   6.946   3.241   1.648 -0.6694  0.0493  0.3147
   16CHTO  H172 6437   6.959   3.188   1.555  0.7334  1.4390 -0.2958
   16CHTO  H173 6438   6.991   3.336   1.628 -0.7569  0.0414  0.0845
   16CHTO   C94 6439   6.729   3.125   1.696  0.3102 -0.4020 -0.4551
   16CHTO  H181 6440   6.779   3.042   1.647  1.3233 -0.7100  1.0889
   16CHTO   O61 6441   6.585   3.122   1.656  0.2944 -0.3116  0.1971
   16CHTO   C95 6442   6.566   3.144   1.520  0.1205 -0.2357  0.0452
   16CHTO  H182 6443   6.634   3.076   1.467  2.0507  2.4105 -0.9702
   16CHTO  C106 6444   6.420   3.097   1.477  0.0677  0.6445  0.5309
   16CHTO   O69 6445   6.426   2.955   1.502  0.6870  0.1166  0.4397
   16CHTO  H169 6446   6.385   2.908   1.431  2.1633 -1.1876  0.4339
   16CHTO   O63 6447   6.738   3.111   1.875  0.1265 -0.0506 -0.3055
   16CHTO   C96 6448   6.648   3.005   1.934 -0.1749  0.5386  0.4771
   16CHTO  H183 6449   6.699   2.980   2.028 -0.4306  0.0497  0.4871
   16CHTO   C98 6450   6.634   2.874   1.847  0.0976 -0.0852  0.5779
   16CHTO  H185 6451   6.641   2.903   1.741  1.3254 -2.0928  0.0635
   16CHTO   O67 6452   6.754   2.794   1.871 -0.2065 -0.2770 -0.2960
   16CHTO  H167 6453   6.814   2.787   1.799  0.3452  0.3599  0.0843
   16CHTO  C102 6454   6.493   2.789   1.877  0.4154 -0.2674  0.2997
   16CHTO  H189 6455   6.502   2.749   1.978 -1.2146  0.3663  0.7130
   16CHTO   N18 6456   6.479   2.674   1.785  0.0274 -0.0345  0.1166
   16CHTO  H176 6457   6.519   2.581   1.824 -2.0158 -1.2455 -0.6181
   16CHTO  H177 6458   6.379   2.671   1.745  0.1588  0.5191 -0.2568
   16CHTO  C105 6459   6.383   2.901   1.863  0.1830 -0.6171 -0.0185
   16CHTO  H192 6460   6.399   2.961   1.773 -1.0579 -0.2922 -0.0363
   16CHTO   O65 6461   6.392   2.994   1.971  0.2247 -0.1471  0.0624
   16CHTO  C100 6462   6.511   3.078   1.962 -0.6867 -0.1379 -0.0690
   16CHTO  H187 6463   6.502   3.148   1.877 -1.7850  1.0789  1.0276
   16CHTO  C107 6464   6.513   3.167   2.087  0.6074  0.8044  0.2194
   16CHTO   O70 6465   6.391   3.240   2.117 -0.0564  0.0790 -0.2086
   16CHTO  H170 6466   6.323   3.176   2.104  0.3775 -0.5255  0.5358
   16CHTO   O57 6467   6.234   2.828   1.875 -0.1615 -0.2588  0.0154
   16CHTO   C85 6468   6.140   2.864   1.773  0.1538 -0.0048  0.5895
   16CHTO  H157 6469   6.200   2.864   1.680  0.3702  0.1995  0.7260
   16CHTO   C83 6470   6.098   3.014   1.806  0.4418  0.0668 -0.1516
   16CHTO  H155 6471   6.187   3.078   1.806  0.3207  0.3591 -4.2877
   16CHTO   O56 6472   6.037   3.015   1.942 -0.0099  0.4428  0.7039
   16CHTO  H135 6473   6.013   3.100   1.974  0.0188  1.2664 -1.4087
   16CHTO   C81 6474   6.001   3.061   1.699  0.6902  0.5121 -0.3550
   16CHTO  H153 6475   6.051   3.060   1.602 -1.7232  0.4416 -1.6527
   16CHTO   N14 6476   5.966   3.201   1.720  0.4407 -0.1124 -0.2529
   16CHTO  H141 6477   5.905   3.231   1.638  0.5186 -0.3701 -0.4075
   16CHTO  H142 6478   6.048   3.270   1.723  0.4560 -0.1821  1.0764
   16CHTO   C79 6479   5.878   2.964   1.681  0.7354  0.3040 -0.0662
   16CHTO  H151 6480   5.827   2.991   1.589 -0.2403  0.5489  0.5356
   16CHTO   O52 6481   5.915   2.821   1.670 -0.4601 -0.2696 -0.1907
   16CHTO   C86 6482   6.013   2.769   1.762 -0.0509  0.0127  0.1262
   16CHTO  H158 6483   5.964   2.769   1.862 -2.1921 -0.1179 -0.8829
   16CHTO   C90 6484   6.059   2.627   1.727 -0.6783  0.1773 -0.2996
   16CHTO   O60 6485   5.949   2.534   1.735 -0.0476  0.7638 -0.0085
   16CHTO  H138 6486   5.914   2.509   1.652 -2.9053 -0.1928  1.4200
   16CHTO   O50 6487   5.780   2.982   1.793  0.1055 -0.1984  0.0206
   16CHTO   C73 6488   5.645   2.934   1.796 -0.4830  0.0010  1.1247
   16CHTO  H145 6489   5.641   2.825   1.803  0.2999 -0.2539 -1.9231
   16CHTO   C74 6490   5.567   2.981   1.665 -0.1351  0.0044 -0.1957
   16CHTO  H146 6491   5.612   2.939   1.574  2.9236  1.9009  0.3623
   16CHTO   O54 6492   5.437   2.926   1.675 -0.2633 -0.1052 -0.4608
   16CHTO  H133 6493   5.442   2.835   1.700 -0.2888  0.2862  1.0392
   16CHTO   C75 6494   5.560   3.135   1.663 -0.4612 -0.0476 -0.6778
   16CHTO  H147 6495   5.660   3.180   1.657 -0.2961 -0.1975  0.6691
   16CHTO   N13 6496   5.492   3.203   1.549 -0.3833 -0.6469  0.2145
   16CHTO  H139 6497   5.417   3.140   1.503  0.0256 -2.1959  1.6205
   16CHTO  H140 6498   5.466   3.307   1.550 -1.3518 -0.7002 -5.1147
   16CHTO   C76 6499   5.496   3.193   1.805 -0.1426  0.1084  0.3040
   16CHTO  H148 6500   5.391   3.164   1.807  0.1223 -0.8305  1.9375
   16CHTO   O49 6501   5.566   3.139   1.920 -0.4399  0.4516  0.0845
   16CHTO   C77 6502   5.568   2.995   1.923  0.7380 -0.4224  0.3594
   16CHTO  H149 6503   5.466   2.958   1.935  0.1660  1.1678  0.4970
   16CHTO   C88 6504   5.645   2.932   2.043 -0.2751  0.0637 -0.2914
   16CHTO   O58 6505   5.602   2.989   2.158  0.5245  0.5649  0.3252
   16CHTO  H136 6506   5.668   3.005   2.223  0.6860  0.9708  0.0596
   16CHTO   O51 6507   5.522   3.350   1.817 -0.8241  0.0610  0.4782
   16CHTO   C78 6508   5.430   3.408   1.922  0.0023 -0.4732 -0.0949
   16CHTO  H150 6509   5.383   3.325   1.980 -0.1426 -2.1123 -2.4567
   16CHTO   C80 6510   5.315   3.484   1.851 -0.1570 -0.4312  0.2450
   16CHTO  H152 6511   5.354   3.542   1.765  1.5012 -0.8305  0.6956
   16CHTO   O55 6512   5.238   3.384   1.786  0.3282  0.3529 -0.5891
   16CHTO  H134 6513   5.172   3.423   1.731 -0.8240  0.0746  0.5782
   16CHTO   C84 6514   5.228   3.572   1.949  0.2612 -0.3023  0.6166
   16CHTO  H156 6515   5.177   3.497   2.010  1.2461  0.9692  3.0268
   16CHTO   N15 6516   5.121   3.646   1.882  0.4929  0.0993 -0.1356
   16CHTO  H143 6517   5.141   3.657   1.777  1.6290 -3.5564 -0.3742
   16CHTO  H144 6518   5.021   3.609   1.896  0.2077  0.6589 -0.6295
   16CHTO   C87 6519   5.312   3.668   2.034  0.4019  0.2765  0.3618
   16CHTO  H159 6520   5.356   3.740   1.965  0.0510  0.7940  0.6769
   16CHTO   O53 6521   5.434   3.581   2.102 -0.0123  0.0947  1.1773
   16CHTO   C82 6522   5.514   3.503   2.009 -0.5444 -0.8710 -0.2697
   16CHTO  H154 6523   5.579   3.570   1.953 -0.0315  0.6964  2.1245
   16CHTO   C89 6524   5.603   3.421   2.103  0.4604 -0.5976  0.0130
   16CHTO   O59 6525   5.725   3.368   2.052 -0.6798 -0.3422 -0.3801
   16CHTO  H137 6526   5.703   3.317   1.976 -2.9450  0.0374 -0.0160
   16CHTO   O45 6527   5.229   3.731   2.150  0.0711  0.2268  0.0739
   16CHTO   C67 6528   5.288   3.851   2.207  0.0433  0.2543  0.0203
   16CHTO  H124 6529   5.389   3.872   2.172 -0.1217  1.3277  0.1835
   16CHTO   C65 6530   5.201   3.976   2.170  0.7893  0.0749  0.3582
   16CHTO  H122 6531   5.098   3.940   2.166  0.9373 -0.1969 -2.1609
   16CHTO   O44 6532   5.249   4.008   2.040 -0.1109 -0.0630  0.0897
   16CHTO  H102 6533   5.184   4.038   1.979 -0.2325 -2.5052 -1.0448
   16CHTO   C63 6534   5.201   4.096   2.284 -0.4570 -0.1801 -0.7724
   16CHTO  H120 6535   5.130   4.065   2.360 -0.2821  1.0662 -0.0848
   16CHTO   N11 6536   5.150   4.233   2.252  0.0279 -0.0460  0.0289
   16CHTO  H108 6537   5.046   4.238   2.226  0.7341 -1.8641 -3.4643
   16CHTO  H109 6538   5.159   4.310   2.325 -1.0412 -0.7292  0.9139
   16CHTO   C61 6539   5.346   4.091   2.359  0.1375  0.0211  0.4455
   16CHTO  H118 6540   5.354   4.157   2.447 -0.6802 -1.7180  1.8446
   16CHTO   O40 6541   5.380   3.959   2.407 -0.0754  0.5502 -0.4413
   16CHTO   C68 6542   5.308   3.840   2.360 -0.5299  0.6405 -0.4921
   16CHTO  H125 6543   5.213   3.839   2.417 -1.7918 -1.4709 -2.5076
   16CHTO   C72 6544   5.377   3.709   2.396 -0.3628 -0.5277 -0.3013
   16CHTO   O48 6545   5.396   3.697   2.535  0.1565  0.1378 -0.3895
   16CHTO  H105 6546   5.455   3.625   2.549  0.5842  0.9581  2.1647
   16CHTO   O38 6547   5.452   4.126   2.268 -0.3064 -0.1631 -0.4218
   16CHTO   C55 6548   5.578   4.163   2.330 -0.2415  0.4231 -0.4683
   16CHTO  H112 6549   5.587   4.122   2.431 -0.7071 -0.2119 -0.6828
   16CHTO   C56 6550   5.590   4.324   2.324  0.1208  0.3712  0.2780
   16CHTO  H113 6551   5.542   4.352   2.229 -1.2374 -0.2712  0.7672
   16CHTO   O42 6552   5.503   4.378   2.422 -0.0282  0.1322 -0.0591
   16CHTO  H100 6553   5.419   4.337   2.418 -0.1029  0.1699  1.0533
   16CHTO   C57 6554   5.733   4.383   2.341 -0.4805 -0.3275  0.2363
   16CHTO  H114 6555   5.756   4.379   2.447  2.9001  0.3396 -0.4210
   16CHTO   N10 6556   5.751   4.527   2.303  0.3137  0.1111 -0.7163
   16CHTO  H106 6557   5.827   4.573   2.365 -1.2275 -0.3248  1.5531
   16CHTO  H107 6558   5.778   4.538   2.199 -1.3588  1.1676 -1.0446
   16CHTO   C58 6559   5.836   4.292   2.264 -0.0218  0.1592 -0.1107
   16CHTO  H115 6560   5.824   4.306   2.154 -0.9585 -1.7255 -0.2642
   16CHTO   O37 6561   5.822   4.153   2.299  0.4862 -0.1181 -0.0475
   16CHTO   C59 6562   5.699   4.106   2.249  0.2981 -0.3557  0.4022
   16CHTO  H116 6563   5.695   4.123   2.142  0.2111  0.2533  0.5024
   16CHTO   C70 6564   5.696   3.955   2.262  0.2037 -0.3494 -0.0886
   16CHTO   O46 6565   5.695   3.908   2.392  0.5883  0.1420  0.0589
   16CHTO  H103 6566   5.781   3.891   2.427  1.5764  0.0957 -2.3098
   16CHTO   O39 6567   5.993   4.330   2.309 -0.2498 -0.1016  0.3501
   16CHTO   C60 6568   6.097   4.235   2.273 -0.4665 -0.5837 -0.0837
   16CHTO  H117 6569   6.054   4.144   2.232  0.7736 -2.0879  1.8692
   16CHTO   C62 6570   6.185   4.280   2.163  0.2972 -0.5093  0.0957
   16CHTO  H119 6571   6.119   4.311   2.079 -2.9916 -1.2654  2.2987
   16CHTO   O43 6572   6.249   4.402   2.210  0.2271  0.1799 -0.5576
   16CHTO  H101 6573   6.336   4.410   2.177  0.9380  1.2385  1.5463
   16CHTO   C66 6574   6.280   4.165   2.114  0.3802 -0.1802  0.2054
   16CHTO  H123 6575   6.221   4.079   2.080  0.6431 -0.2887  0.0242
   16CHTO   N12 6576   6.365   4.201   1.997 -0.1572  0.1819 -0.0064
   16CHTO  H110 6577   6.302   4.204   1.909  1.6965 -1.6695 -1.4570
   16CHTO  H111 6578   6.426   4.290   2.003  2.5915 -1.4311 -2.5255
   16CHTO   C69 6579   6.365   4.108   2.237  0.1598  0.0423 -0.2809
   16CHTO  H126 6580   6.436   4.189   2.266  1.0406 -0.3150 -1.3882
   16CHTO   O41 6581   6.285   4.080   2.359  0.0747 -0.0868 -0.4326
   16CHTO   C64 6582   6.173   4.194   2.400 -0.3333 -0.5418  0.5044
   16CHTO  H121 6583   6.224   4.284   2.441  2.2538 -1.3114 -0.9073
   16CHTO   C71 6584   6.079   4.121   2.503 -0.2809 -0.6538  0.3066
   16CHTO   O47 6585   5.974   4.204   2.557  0.6210  0.1577  0.3806
   16CHTO  H104 6586   5.908   4.213   2.491  1.2371 -0.8882 -0.4068
   16CHTO   O34 6587   6.461   3.960   2.195 -0.9574  0.3804 -0.0848
   16CHTO   C49 6588   6.568   3.882   2.170 -0.7091  0.2149  0.2104
   16CHTO   H91 6589   6.622   3.933   2.090 -2.3503 -0.3211 -1.2738
   16CHTO   C47 6590   6.536   3.732   2.143 -0.2022 -0.0193 -0.3580
   16CHTO   H89 6591   6.635   3.681   2.136 -0.4692 -0.7106  0.6463
   16CHTO   O33 6592   6.461   3.714   2.026 -0.3127 -0.6879  0.2207
   16CHTO   H70 6593   6.388   3.773   2.034 -1.2906 -2.1475  2.5911
   16CHTO   C45 6594   6.460   3.669   2.270 -0.3992 -0.0309 -0.0493
   16CHTO   H87 6595   6.372   3.731   2.294  1.9862  3.7716 -0.8288
   16CHTO    N8 6596   6.408   3.527   2.251  0.1487  0.0470 -0.1865
   16CHTO   H75 6597   6.353   3.529   2.158  0.6528  4.0873 -0.4800
   16CHTO   H76 6598   6.490   3.459   2.228 -1.1804 -1.4776 -0.4764
   16CHTO   C43 6599   6.558   3.683   2.397 -0.1832 -0.4323 -0.8894
   16CHTO   H85 6600   6.497   3.655   2.483 -2.2968 -1.5958 -2.6914
   16CHTO   O29 6601   6.615   3.815   2.409 -0.3263 -0.1714 -0.1323
   16CHTO   C50 6602   6.659   3.882   2.288 -0.0140  0.1051  0.2809
   16CHTO   H92 6603   6.674   3.988   2.312 -0.9727  0.5209 -0.9639
   16CHTO   C54 6604   6.809   3.844   2.239 -0.3417  0.0566 -0.3396
   16CHTO   O36 6605   6.874   3.907   2.126 -0.4955 -0.2067  0.4280
   16CHTO   H72 6606   6.893   3.995   2.153 -1.4464  0.9564 -2.5509
   16CHTO   O27 6607   6.672   3.602   2.382  0.5455  0.2194  0.1951
   16CHTO   C37 6608   6.788   3.541   2.444 -0.0151  0.2732 -0.3863
   16CHTO   H79 6609   6.870   3.612   2.458  1.4449 -1.2826 -0.8495
   16CHTO   C38 6610   6.766   3.475   2.586  0.0683 -0.4795  0.4424
   16CHTO   H80 6611   6.684   3.403   2.571 -0.7584  0.9936 -2.3567
   16CHTO   O31 6612   6.728   3.574   2.684  0.4800  0.3316 -0.1265
   16CHTO   H68 6613   6.739   3.534   2.768  0.5231 -0.2875 -0.4258
   16CHTO   C39 6614   6.898   3.405   2.635 -0.3847  0.4771 -0.2185
   16CHTO   H81 6615   6.974   3.480   2.657 -1.0781  1.9076 -2.5431
   16CHTO    N7 6616   6.878   3.332   2.777  0.4411  0.2277 -0.0086
   16CHTO   H73 6617   6.973   3.288   2.804  0.1445 -0.7113 -0.4461
   16CHTO   H74 6618   6.850   3.405   2.850 -0.9026  0.5964 -0.8787
   16CHTO   C40 6619   6.957   3.298   2.535 -0.1100  0.0452 -0.2977
   16CHTO   H82 6620   6.894   3.209   2.527  0.3813 -0.1128 -3.2298
   16CHTO   O26 6621   6.964   3.370   2.407 -0.3344 -0.1822  0.3560
   16CHTO   C41 6622   6.841   3.426   2.352 -0.8742 -0.4684 -0.0628
   16CHTO   H83 6623   6.762   3.350   2.345 -0.0385 -1.2412 -1.4294
   16CHTO   C52 6624   6.863   3.477   2.210 -0.4166 -0.9200 -0.0333
   16CHTO   O35 6625   6.942   3.371   2.109  0.5180  0.3812 -0.3077
   16CHTO   H71 6626   6.896   3.290   2.098 -0.3415  0.7357  0.5756
   16CHTO   O28 6627   7.084   3.234   2.567  0.0072  0.4453  0.1447
   16CHTO   C42 6628   7.137   3.117   2.499  0.2030 -0.3564 -0.3576
   16CHTO   H84 6629   7.214   3.080   2.566 -1.4382 -0.4565  1.5253
   16CHTO   C44 6630   7.203   3.144   2.358  0.3203  0.6530 -0.7758
   16CHTO   H86 6631   7.128   3.179   2.287 -0.9177  0.4655  0.4181
   16CHTO   O32 6632   7.300   3.247   2.375 -0.1389 -0.4608 -0.1819
   16CHTO   H69 6633   7.371   3.215   2.427  1.1544  0.3140 -1.4655
   16CHTO   C48 6634   7.260   3.016   2.295  0.2025  0.2063  0.0472
   16CHTO   H90 6635   7.347   2.972   2.344 -0.2989  0.0364  0.7972
   16CHTO    N9 6636   7.306   3.048   2.153  1.0689 -0.4397 -0.6077
   16CHTO   H77 6637   7.276   2.984   2.072  0.7985 -1.7823  0.5456
   16CHTO   H78 6638   7.413   3.064   2.157  0.9125  0.4637  0.3499
   16CHTO   C51 6639   7.150   2.908   2.288 -1.1760  0.7132 -0.0098
   16CHTO   H93 6640   7.069   2.944   2.224 -0.1372  1.4744 -0.8963
   16CHTO   O30 6641   7.098   2.881   2.418 -0.2652 -0.1639  0.3223
   16CHTO   C46 6642   7.036   2.997   2.486 -0.3397 -0.4013 -0.0746
   16CHTO   H88 6643   6.954   3.029   2.422  1.8024  0.5164 -2.4272
   16CHTO   C53 6644   6.981   2.958   2.624  0.0059 -0.3618  0.5659
   16CHTO   O72 6645   6.877   2.865   2.599  0.1306  0.1669  0.3776
   16CHTO  H199 6646   6.843   2.818   2.673 -5.4421  0.3035 -1.8951
   16CHTO   O22 6647   7.197   2.774   2.250  0.3502 -0.2663 -0.1812
   16CHTO   C31 6648   7.104   2.652   2.245 -0.0206 -0.9685  0.0827
   16CHTO   H59 6649   7.023   2.668   2.319  1.0456  0.9033  0.8779
   16CHTO   C29 6650   7.043   2.637   2.109  0.6399  0.4827  0.8123
   16CHTO   H57 6651   7.134   2.609   2.054  0.2929 -0.8685  0.9081
   16CHTO   O21 6652   6.995   2.767   2.058 -0.6648  0.2528  0.1876
   16CHTO   H37 6653   7.023   2.787   1.971 -1.2945 -0.3295 -0.1505
   16CHTO   C27 6654   6.941   2.515   2.093  0.6515 -0.2817  0.4118
   16CHTO   H55 6655   6.852   2.541   2.151 -0.9460 -2.1892 -1.1212
   16CHTO    N5 6656   6.899   2.495   1.956  0.3405 -0.7115 -0.2687
   16CHTO   H43 6657   6.946   2.415   1.901  2.6614 -0.0266  0.6496
   16CHTO   H44 6658   6.792   2.485   1.950  0.4101 -1.4390 -0.2539
   16CHTO   C25 6659   7.010   2.379   2.151 -0.5054 -0.7049 -0.0241
   16CHTO   H53 6660   7.089   2.341   2.084 -0.1779  0.9215 -0.5915
   16CHTO   O17 6661   7.074   2.402   2.285  0.0817 -0.7643 -0.0797
   16CHTO   C32 6662   7.167   2.514   2.279 -0.6300  0.1482 -0.1742
   16CHTO   H60 6663   7.244   2.496   2.205 -1.1413 -1.6079 -0.3014
   16CHTO   C36 6664   7.231   2.523   2.418  0.8813 -0.2582 -0.3860
   16CHTO   O25 6665   7.297   2.405   2.464  0.2869 -0.0682  0.4213
   16CHTO   H40 6666   7.334   2.428   2.548 -0.0485  1.0552  0.2740
   16CHTO   O15 6667   6.883   2.266   2.183  0.1813 -1.0218 -0.4587
   16CHTO   C19 6668   6.755   2.248   2.257 -0.0494 -0.3490  0.3780
   16CHTO   H47 6669   6.770   2.142   2.284  1.2221 -0.2604  0.0533
   16CHTO   C20 6670   6.731   2.345   2.384  0.3710  0.2245 -0.0072
   16CHTO   H48 6671   6.706   2.448   2.353 -0.2456 -0.0606 -0.4776
   16CHTO   O19 6672   6.846   2.331   2.462 -0.5619  0.6243  0.1019
   16CHTO   H35 6673   6.897   2.408   2.442  2.1005 -1.4447 -1.3229
   16CHTO   C21 6674   6.609   2.299   2.474  0.2420 -0.0787 -1.1197
   16CHTO   H49 6675   6.628   2.203   2.523 -0.4506  0.0994 -0.5094
   16CHTO    N4 6676   6.574   2.400   2.580 -0.6145 -0.0391 -0.1317
   16CHTO   H41 6677   6.520   2.337   2.650  0.9834 -1.9871 -0.5961
   16CHTO   H42 6678   6.512   2.479   2.541  1.1404  2.4932  2.0871
   16CHTO   C22 6679   6.489   2.276   2.382  0.4722  0.3537  0.5541
   16CHTO   H50 6680   6.443   2.370   2.349 -1.3385 -0.8534 -0.4265
   16CHTO   O14 6681   6.520   2.200   2.261 -0.4718  0.3449 -0.2245
   16CHTO   C23 6682   6.625   2.254   2.173 -0.1593 -0.2623 -0.2866
   16CHTO   H51 6683   6.595   2.357   2.147 -1.2357 -0.3066  0.7589
   16CHTO   C34 6684   6.621   2.162   2.053  0.2865  0.0668 -0.5875
   16CHTO   O23 6685   6.506   2.190   1.967  0.0408 -0.0734 -0.2846
   16CHTO   H38 6686   6.508   2.279   1.937  0.9997  0.0304  0.0882
   16CHTO   O16 6687   6.387   2.192   2.446 -0.0498 -0.0330 -0.1510
   16CHTO   C24 6688   6.234   2.242   2.410 -1.1056 -0.0403  0.2475
   16CHTO   H52 6689   6.231   2.294   2.314 -0.2450  0.2412  0.3658
   16CHTO   C26 6690   6.179   2.323   2.529 -0.1732  0.2227 -0.2069
   16CHTO   H54 6691   6.204   2.270   2.623  0.4404  1.9324  0.6134
   16CHTO   O20 6692   6.245   2.450   2.533  0.1695 -0.6489 -0.3635
   16CHTO   H36 6693   6.331   2.442   2.569 -0.9456 -2.7864  1.9959
   16CHTO   C30 6694   6.027   2.337   2.528 -0.4089  0.1252 -0.0927
   16CHTO   H58 6695   5.997   2.399   2.442  0.4573 -0.5914 -0.9232
   16CHTO    N6 6696   5.968   2.416   2.639 -0.4391  0.1303  0.1048
   16CHTO   H45 6697   6.036   2.470   2.703  1.1370 -1.6607  0.0189
   16CHTO   H46 6698   5.893   2.364   2.697  2.4171 -3.1740  1.0774
   16CHTO   C33 6699   5.954   2.201   2.495  0.9673 -0.5494 -0.3167
   16CHTO   H61 6700   5.966   2.133   2.580 -0.2743 -1.4003 -0.8051
   16CHTO   O18 6701   6.005   2.140   2.378 -0.1108 -0.1555 -0.8222
   16CHTO   C28 6702   6.149   2.112   2.397 -0.4725  0.8086 -0.0577
   16CHTO   H56 6703   6.161   2.050   2.486 -3.5563  0.2044  0.0131
   16CHTO   C35 6704   6.194   2.028   2.276  0.2814  0.5178 -0.6371
   16CHTO   O24 6705   6.176   2.095   2.157 -0.7530  0.2001 -0.3877
   16CHTO   H39 6706   6.180   2.030   2.090  3.1134 -1.0796  0.9180
   16CHTO    O9 6707   5.811   2.232   2.480 -0.6926 -0.2064 -0.3513
   16CHTO   C13 6708   5.720   2.137   2.568  0.3928  0.2748 -0.3170
   16CHTO   H26 6709   5.748   2.155   2.674  2.1973 -1.6892 -0.4259
   16CHTO   C11 6710   5.740   1.987   2.533 -0.3037 -0.9157  0.1908
   16CHTO   H24 6711   5.836   1.953   2.574  0.1960  0.5852  0.3092
   16CHTO    O8 6712   5.753   1.972   2.391 -0.3626  0.5460  0.7485
   16CHTO    H3 6713   5.779   1.884   2.371 -0.5681  0.1013  2.3575
   16CHTO    C9 6714   5.632   1.897   2.595 -0.4740  0.0767 -0.3808
   16CHTO   H22 6715   5.631   1.929   2.700  3.2637 -1.5790  0.2443
   16CHTO    N2 6716   5.662   1.753   2.590 -0.4874 -0.1871  0.0806
   16CHTO   H10 6717   5.754   1.741   2.647 -0.4192  0.0661  0.0241
   16CHTO   H11 6718   5.678   1.726   2.487 -1.9201  1.4166 -0.5890
   16CHTO    C7 6719   5.493   1.940   2.529  0.5745  0.2629 -0.3003
   16CHTO   H20 6720   5.425   1.923   2.615  0.2104 -0.0833 -0.6469
   16CHTO    O4 6721   5.490   2.082   2.482 -0.4102  0.6992 -0.0006
   16CHTO   C14 6722   5.569   2.182   2.554 -0.1067 -0.2336  0.2700
   16CHTO   H27 6723   5.530   2.187   2.657  0.4267 -2.6913  0.6190
   16CHTO   C18 6724   5.542   2.319   2.481  0.4178 -0.5864  0.1217
   16CHTO   O13 6725   5.590   2.426   2.562  0.1310 -0.6356 -0.2989
   16CHTO    H7 6726   5.593   2.508   2.516  0.7666 -0.0393  0.7879
   16CHTO    O2 6727   5.442   1.846   2.397  0.1959  0.3659 -0.2457
   16CHTO    C1 6728   5.301   1.835   2.375 -0.0456 -0.1935 -0.1727
   16CHTO   H14 6729   5.283   1.761   2.294 -2.4094  2.6456 -2.3995
   16CHTO    C2 6730   5.226   1.968   2.335  0.3173 -0.0671  0.5217
   16CHTO   H15 6731   5.226   2.042   2.417  1.3092  1.7488 -1.0639
   16CHTO    O6 6732   5.301   2.031   2.224  0.1935  0.3557 -0.4199
   16CHTO    H1 6733   5.381   2.069   2.256  1.4743 -1.3590 -1.4722
   16CHTO    C3 6734   5.073   1.935   2.301  0.1742  0.1713  0.3237
   16CHTO   H16 6735   5.078   1.872   2.211 -0.4016  1.1795 -0.4281
   16CHTO    N1 6736   4.991   2.055   2.264  0.1621 -0.7086 -0.2593
   16CHTO    H8 6737   4.903   2.032   2.206  0.3790 -0.6271 -0.6228
   16CHTO    H9 6738   5.054   2.125   2.210 -1.9051  2.0237  0.7656
   16CHTO    C4 6739   5.005   1.847   2.413  1.2531  0.5226 -0.0152
   16CHTO   H17 6740   4.969   1.911   2.494  1.2486  0.9553 -0.3542
   16CHTO    O1 6741   5.086   1.745   2.468  0.1140 -0.0340 -0.1131
   16CHTO    C5 6742   5.225   1.785   2.500 -0.1497 -0.3645  0.0949
   16CHTO   H18 6743   5.227   1.868   2.571  2.6463  0.1084 -0.4519
   16CHTO   C16 6744   5.292   1.663   2.563  0.1739 -0.1512  0.3321
   16CHTO   O11 6745   5.306   1.539   2.491  0.3611 -0.3864  0.7053
   16CHTO    H5 6746   5.395   1.518   2.468  1.0021  3.0460 -0.2718
   16CHTO    O3 6747   4.896   1.771   2.353 -0.4145  0.3469  0.3756
   16CHTO    C6 6748   4.776   1.753   2.438  0.3504 -0.4768  0.3127
   16CHTO   H19 6749   4.786   1.804   2.534 -0.2079  1.9347 -0.8791
   16CHTO    C8 6750   4.657   1.827   2.385 -0.4336 -0.5798  0.2933
   16CHTO   H21 6751   4.642   1.804   2.280  0.1167  3.2505 -0.7028
   16CHTO    O7 6752   4.684   1.969   2.399  0.4732  0.2763  0.2943
   16CHTO    H2 6753   4.617   2.016   2.352  1.7465  0.9581 -0.8971
   16CHTO   C12 6754   4.532   1.782   2.472  0.3330 -0.1783  0.3306
   16CHTO   H25 6755   4.559   1.813   2.576  1.7097  0.4692 -0.2114
   16CHTO    N3 6756   4.410   1.867   2.440 -0.2705 -0.3153  0.2846
   16CHTO   H12 6757   4.389   1.943   2.513 -2.6630 -3.3174  2.8357
   16CHTO   H13 6758   4.325   1.801   2.446 -1.9730  1.7724 -0.4265
   16CHTO   C15 6759   4.503   1.628   2.475 -0.4934  0.2578 -0.1061
   16CHTO   H28 6760   4.490   1.594   2.373 -0.8368  2.2930 -0.7628
   16CHTO   O10 6761   4.380   1.584   2.573  0.0891  0.2020 -0.0794
   16CHTO    H4 6762   4.309   1.562   2.517  0.2082  1.2904 -0.6750
   16CHTO    O5 6763   4.620   1.571   2.525  0.0455  0.4849  0.4005
   16CHTO   C10 6764   4.752   1.601   2.463  0.2137  0.8309  0.0846
   16CHTO   H23 6765   4.746   1.543   2.371  0.4819 -0.0437  0.6098
   16CHTO   C17 6766   4.854   1.554   2.570 -0.2009  0.0767 -0.1215
   16CHTO   O12 6767   4.846   1.422   2.618 -0.2961 -0.6312  0.4967
   16CHTO    H6 6768   4.901   1.404   2.691 -0.5534 -0.3068  0.7688
   17CHTO  H203 6769   4.022   5.061   0.281  0.5725  1.1501 -0.3451
   17CHTO   O82 6770   4.090   5.041   0.343 -0.0361 -0.0364 -0.0252
   17CHTO  C123 6771   4.073   5.111   0.467 -0.7698  0.0655 -0.1568
   17CHTO  H227 6772   3.987   5.069   0.523  1.4657 -0.6525  2.8758
   17CHTO   O77 6773   4.193   5.076   0.546  0.2298 -0.1008 -0.2653
   17CHTO  C118 6774   4.196   5.126   0.680 -0.0598  0.4280 -0.5478
   17CHTO  H222 6775   4.105   5.095   0.733  1.2345 -0.8839  0.9381
   17CHTO  C125 6776   4.323   5.065   0.755 -0.6836 -0.3437 -0.7191
   17CHTO   O84 6777   4.304   4.926   0.792 -0.1637 -0.3864  0.2731
   17CHTO  H205 6778   4.255   4.934   0.872 -1.2665 -1.2924 -0.3095
   17CHTO  C114 6779   4.200   5.283   0.678  0.4630 -0.6898  0.5252
   17CHTO  H218 6780   4.289   5.316   0.625  1.0961 -0.3693  1.7751
   17CHTO  C116 6781   4.079   5.337   0.592  0.1623  0.1752 -0.0425
   17CHTO  H220 6782   3.983   5.327   0.647  1.6361 -0.7328  2.4360
   17CHTO   O79 6783   4.089   5.479   0.582  0.3656  0.3391 -0.3745
   17CHTO  H201 6784   4.090   5.520   0.666 -0.5921  0.6940 -0.5197
   17CHTO  C120 6785   4.064   5.265   0.451  0.2231 -1.4556 -0.1715
   17CHTO  H224 6786   4.149   5.302   0.390  0.4314 -0.5029  0.6829
   17CHTO   N21 6787   3.934   5.310   0.383  0.1125 -0.1778 -0.3905
   17CHTO  H211 6788   3.896   5.239   0.310  0.1904 -0.6289  0.0027
   17CHTO  H212 6789   3.857   5.337   0.453  2.1670  1.4357  1.3173
   17CHTO   O75 6790   4.208   5.314   0.816  0.5861 -0.7332  0.3232
   17CHTO  C112 6791   4.239   5.468   0.849 -0.5071 -0.3201  0.5551
   17CHTO  H216 6792   4.152   5.533   0.834 -0.2391  0.1243  0.9240
   17CHTO   O73 6793   4.360   5.503   0.779 -0.6341 -0.1542 -0.0723
   17CHTO  C113 6794   4.386   5.646   0.781  0.1764 -0.0979 -0.4154
   17CHTO  H217 6795   4.301   5.706   0.743  1.6744  1.4672 -1.3736
   17CHTO  C124 6796   4.500   5.682   0.684  0.3565  0.1044 -0.1562
   17CHTO   O83 6797   4.471   5.643   0.548 -0.0060  0.0012 -0.0523
   17CHTO  H204 6798   4.400   5.701   0.527  1.5549  1.7061 -0.8125
   17CHTO  C109 6799   4.411   5.686   0.930 -0.0768  0.2158 -0.2443
   17CHTO  H213 6800   4.511   5.648   0.956 -0.7127 -0.3202  1.4547
   17CHTO  C110 6801   4.307   5.631   1.025 -0.1074 -0.2394 -0.2859
   17CHTO  H214 6802   4.215   5.688   1.018  0.0508  0.0627  0.0905
   17CHTO   O78 6803   4.366   5.657   1.152 -0.2052 -0.1432 -0.1106
   17CHTO  H200 6804   4.419   5.583   1.174 -2.2276 -1.4859  0.3929
   17CHTO  C111 6805   4.277   5.479   1.005  0.1141 -0.4363 -0.9479
   17CHTO  H215 6806   4.366   5.420   1.031 -0.3861 -0.3224  1.0300
   17CHTO   N19 6807   4.167   5.430   1.087  0.4540 -0.2260  0.0994
   17CHTO  H207 6808   4.141   5.327   1.068  1.8013 -0.5329 -0.1225
   17CHTO  H208 6809   4.177   5.454   1.192 -1.0316 -1.1422  0.4554
   17CHTO   O74 6810   4.410   5.829   0.940 -0.7449 -0.0377 -0.1747
   17CHTO  C115 6811   4.565   5.908   0.992  1.1357 -0.1408  0.5838
   17CHTO  H219 6812   4.548   5.990   1.063 -0.8919 -0.5031  0.5655
   17CHTO   O76 6813   4.659   5.807   1.064  0.2080  0.0816 -0.0276
   17CHTO  C122 6814   4.777   5.861   1.119 -0.1528  0.1642 -0.7288
   17CHTO  H226 6815   4.835   5.774   1.149  0.7463  0.8482 -0.4608
   17CHTO  C126 6816   4.754   5.944   1.250 -0.5585 -0.6148 -0.8588
   17CHTO   O85 6817   4.661   5.882   1.343 -0.4152  0.3707  0.4558
   17CHTO  H206 6818   4.581   5.930   1.348  0.4465  1.7148  1.7278
   17CHTO  C121 6819   4.860   5.958   1.028 -0.0043 -0.2443 -0.5300
   17CHTO  H225 6820   4.924   6.030   1.084 -0.2450 -0.0790 -0.4656
   17CHTO   O81 6821   4.954   5.880   0.951 -0.2753 -0.2430  0.2590
   17CHTO  H202 6822   5.033   5.864   0.999  1.1313 -1.6586 -2.3947
   17CHTO  C119 6823   4.770   6.042   0.931 -0.3188 -0.2741 -0.0369
   17CHTO  H223 6824   4.727   6.116   0.999  1.8894  0.9982  0.0453
   17CHTO  C117 6825   4.650   5.962   0.874 -0.3011 -0.5655 -0.3836
   17CHTO  H221 6826   4.679   5.879   0.810  0.8280 -0.5879  0.1517
   17CHTO   N20 6827   4.563   6.058   0.793 -0.0947 -0.1493  0.4159
   17CHTO  H209 6828   4.532   6.148   0.844 -0.4374 -0.9300  1.6234
   17CHTO  H210 6829   4.509   6.012   0.712 -1.1197  0.4573  0.7477
   17CHTO   O80 6830   4.863   6.147   0.822  0.3505 -0.1323 -0.5059
   17CHTO  C103 6831   4.942   6.262   0.876  0.0427 -0.4084  0.0945
   17CHTO  H190 6832   4.916   6.281   0.980 -1.6751 -0.0172 -0.3976
   17CHTO  C101 6833   5.101   6.263   0.856 -0.7264  0.6242 -0.0917
   17CHTO  H188 6834   5.122   6.243   0.751 -1.1126  1.6395 -0.3765
   17CHTO   O68 6835   5.156   6.148   0.952  0.1734 -0.2237 -0.0969
   17CHTO  H168 6836   5.197   6.082   0.899 -0.0576 -0.5481  0.1279
   17CHTO   C99 6837   5.172   6.410   0.887  0.4177 -0.2130  0.1118
   17CHTO  H186 6838   5.158   6.436   0.994  0.2501  0.7852 -0.1471
   17CHTO   N17 6839   5.321   6.418   0.862  0.1857 -0.0527 -0.2343
   17CHTO  H174 6840   5.379   6.354   0.927  1.9742 -0.6679 -2.3183
   17CHTO  H175 6841   5.329   6.381   0.760  0.2628  0.1325 -0.2952
   17CHTO   C97 6842   5.095   6.518   0.809 -0.1764 -0.3053  0.2214
   17CHTO  H184 6843   5.118   6.498   0.703 -0.7801  0.0230  0.0266
   17CHTO   O64 6844   4.955   6.516   0.828  0.2738 -0.1805 -0.2171
   17CHTO  C104 6845   4.887   6.389   0.797  0.5869 -0.3949  0.2542
   17CHTO  H191 6846   4.899   6.373   0.690 -1.0960 -2.5575  0.3647
   17CHTO  C108 6847   4.739   6.427   0.817 -0.2200  0.5699  0.2990
   17CHTO   O71 6848   4.703   6.446   0.951 -0.0156  0.3059  0.3165
   17CHTO  H171 6849   4.691   6.368   1.002 -1.4180  1.7282  2.2409
   17CHTO   O62 6850   5.125   6.655   0.846  0.7011  0.1803 -0.0677
   17CHTO   C91 6851   5.115   6.756   0.743 -0.0646 -0.0998  0.4699
   17CHTO  H178 6852   5.075   6.706   0.654  0.6892  0.7531 -0.3606
   17CHTO   C92 6853   5.250   6.817   0.697 -0.2467  0.1150  0.2569
   17CHTO  H179 6854   5.324   6.738   0.677  0.6210  0.8945  0.3673
   17CHTO   O66 6855   5.232   6.877   0.568  0.1681 -0.6837  0.0698
   17CHTO  H166 6856   5.256   6.816   0.501 -2.6592 -1.3618 -0.3746
   17CHTO   C93 6857   5.314   6.924   0.801  0.5846  0.6736  0.1758
   17CHTO  H180 6858   5.400   6.976   0.756 -0.8143  2.0246 -1.0064
   17CHTO   N16 6859   5.356   6.864   0.928 -0.0553  0.4339 -0.2615
   17CHTO  H172 6860   5.378   6.939   1.002 -0.5044 -1.1798  1.5420
   17CHTO  H173 6861   5.276   6.798   0.958 -0.3946  0.0141 -2.0197
   17CHTO   C94 6862   5.199   7.022   0.830  0.1359  0.2861  0.0083
   17CHTO  H181 6863   5.173   7.023   0.936  1.3406 -2.0546  0.3433
   17CHTO   O61 6864   5.072   7.002   0.764  0.5655  0.3110  0.5128
   17CHTO   C95 6865   5.019   6.868   0.780 -0.2088 -0.6677  0.2210
   17CHTO  H182 6866   4.978   6.862   0.881 -0.2381 -0.6908  0.2076
   17CHTO  C106 6867   4.888   6.857   0.693  0.3517 -0.2328  0.5130
   17CHTO   O69 6868   4.906   6.859   0.548 -0.1723 -0.2519  0.6904
   17CHTO  H169 6869   4.830   6.896   0.507 -1.4393 -1.1828  2.1527
   17CHTO   O63 6870   5.253   7.181   0.773  0.5324 -0.0584  0.0185
   17CHTO   C96 6871   5.196   7.304   0.861 -0.3212  0.5734  0.2234
   17CHTO  H183 6872   5.115   7.260   0.919  0.1062  2.0531  1.9957
   17CHTO   C98 6873   5.136   7.418   0.769  0.3405 -0.0057 -0.3041
   17CHTO  H185 6874   5.213   7.454   0.699 -1.2660  1.1018 -1.5465
   17CHTO   O67 6875   5.028   7.360   0.687 -0.0428 -0.5404  0.3763
   17CHTO  H167 6876   4.985   7.429   0.640  0.8642  0.5811  1.1563
   17CHTO  C102 6877   5.080   7.539   0.864 -0.4485 -0.0367  0.1015
   17CHTO  H189 6878   4.987   7.500   0.909 -1.8334  1.0936 -1.6703
   17CHTO   N18 6879   5.036   7.656   0.782 -0.2489 -0.6071 -0.1811
   17CHTO  H176 6880   4.944   7.700   0.818  0.6367  0.9111  0.3017
   17CHTO  H177 6881   5.123   7.720   0.775 -0.3406 -0.6822 -2.1046
   17CHTO  C105 6882   5.189   7.581   0.969  0.6035  0.0154  0.2908
   17CHTO  H192 6883   5.269   7.635   0.919  0.3221  0.1737  0.0056
   17CHTO   O65 6884   5.248   7.472   1.041 -0.3096 -0.1621 -0.2670
   17CHTO  C100 6885   5.296   7.357   0.963  0.3221 -0.3945  0.0631
   17CHTO  H187 6886   5.384   7.395   0.910  0.0103  0.3355  0.0576
   17CHTO  C107 6887   5.345   7.251   1.060  0.1589  0.5879  0.5205
   17CHTO   O70 6888   5.460   7.292   1.128 -0.0881  0.2721 -0.4303
   17CHTO  H170 6889   5.535   7.279   1.074 -0.0337  1.4599 -0.6716
   17CHTO   O57 6890   5.094   7.672   1.074 -0.3881  0.2626 -0.4369
   17CHTO   C85 6891   5.140   7.778   1.160  0.1516  0.2982  0.1638
   17CHTO  H157 6892   5.186   7.843   1.083 -0.9177  0.1829 -0.5986
   17CHTO   C83 6893   5.240   7.720   1.265  0.6490 -0.3935 -0.6757
   17CHTO  H155 6894   5.324   7.683   1.208  1.0281 -0.9646  0.2459
   17CHTO   O56 6895   5.177   7.613   1.343 -0.1190  0.0279 -0.4826
   17CHTO  H135 6896   5.139   7.551   1.284 -0.3632 -0.5458  0.2720
   17CHTO   C81 6897   5.294   7.845   1.348  0.0938  0.4944  0.1459
   17CHTO  H153 6898   5.340   7.912   1.275 -1.2661 -0.9132 -2.1027
   17CHTO   N14 6899   5.405   7.814   1.437 -0.0978  0.2384  0.0545
   17CHTO  H141 6900   5.497   7.866   1.427 -1.8526  3.3819 -0.3277
   17CHTO  H142 6901   5.418   7.709   1.454 -0.5136 -0.0549 -1.3933
   17CHTO   C79 6902   5.176   7.913   1.417 -0.5640  0.3610 -0.1459
   17CHTO  H151 6903   5.212   7.998   1.474 -3.5097 -0.6334  3.3223
   17CHTO   O52 6904   5.077   7.961   1.324 -0.1768  0.0385  0.3468
   17CHTO   C86 6905   5.022   7.852   1.238 -0.5743 -0.4649 -0.1696
   17CHTO  H158 6906   4.973   7.780   1.307 -1.7431 -0.2729 -0.7863
   17CHTO   C90 6907   4.908   7.908   1.143  0.2070  0.4719 -0.7321
   17CHTO   O60 6908   4.818   7.970   1.231 -0.1153 -0.0444  0.0586
   17CHTO  H138 6909   4.858   8.038   1.281  1.5918 -0.4884 -0.6595
   17CHTO   O50 6910   5.107   7.840   1.519  0.2838  0.0474  0.2212
   17CHTO   C73 6911   5.058   7.864   1.653 -0.8326 -0.5730  0.1839
   17CHTO  H145 6912   5.046   7.972   1.670  0.8768 -0.3943  0.4016
   17CHTO   C74 6913   5.161   7.813   1.758 -0.3754  0.0276 -0.0762
   17CHTO  H146 6914   5.259   7.848   1.721 -0.2126  1.6611  1.8437
   17CHTO   O54 6915   5.145   7.888   1.878  0.3129  0.0235 -0.1648
   17CHTO  H133 6916   5.181   7.974   1.873 -0.7720  0.5170  0.2689
   17CHTO   C75 6917   5.155   7.654   1.764 -1.1178 -0.0076 -0.1746
   17CHTO  H147 6918   5.202   7.612   1.674  0.5281 -2.3691  1.7121
   17CHTO   N13 6919   5.238   7.597   1.871 -0.1549 -0.3125 -0.1670
   17CHTO  H139 6920   5.342   7.623   1.855 -0.7978  2.1052 -0.5671
   17CHTO  H140 6921   5.235   7.490   1.856 -1.9335 -0.2721 -0.1662
   17CHTO   C76 6922   5.009   7.600   1.774 -0.1856  0.4546  0.4463
   17CHTO  H148 6923   4.967   7.610   1.874  1.0517 -2.0231  1.2828
   17CHTO   O49 6924   4.920   7.660   1.669 -0.1644 -0.2030 -0.0053
   17CHTO   C77 6925   4.921   7.800   1.680 -0.7280  0.7724 -0.5116
   17CHTO  H149 6926   4.894   7.822   1.784  0.4916  1.6118 -0.3649
   17CHTO   C88 6927   4.803   7.847   1.595 -0.4797 -0.2877  0.0513
   17CHTO   O58 6928   4.668   7.797   1.645 -0.2572  0.4394  0.4494
   17CHTO  H136 6929   4.679   7.731   1.711 -0.4393  0.2415  0.2842
   17CHTO   O51 6930   5.010   7.443   1.718  0.3530 -0.1893  0.1691
   17CHTO   C78 6931   4.883   7.365   1.748  0.3728 -0.1472 -0.6337
   17CHTO  H150 6932   4.804   7.435   1.783  1.1956 -0.0370  1.0733
   17CHTO   C80 6933   4.909   7.270   1.869 -0.2035 -0.7010 -0.6131
   17CHTO  H152 6934   5.010   7.228   1.850  0.7652  1.8542 -1.1791
   17CHTO   O55 6935   4.920   7.338   1.997 -0.7827 -0.1585 -0.0964
   17CHTO  H134 6936   4.950   7.278   2.063 -1.4202  0.8111  1.0809
   17CHTO   C84 6937   4.807   7.152   1.877 -0.0970  0.1792  0.4698
   17CHTO  H156 6938   4.724   7.186   1.939  0.1965  0.2264  0.8323
   17CHTO   N15 6939   4.854   7.034   1.956  0.1429  0.3041 -0.6528
   17CHTO  H143 6940   4.830   7.044   2.059 -0.4715 -0.2877 -0.7409
   17CHTO  H144 6941   4.961   7.034   1.948  0.0510  0.8647 -2.1593
   17CHTO   C87 6942   4.775   7.095   1.734  0.2769 -0.1264 -0.5171
   17CHTO  H159 6943   4.870   7.053   1.701  0.8224 -0.5783  1.5443
   17CHTO   O53 6944   4.730   7.205   1.637 -0.6543 -0.0787 -0.5975
   17CHTO   C82 6945   4.836   7.298   1.620  0.7040  0.3475  0.0172
   17CHTO  H154 6946   4.924   7.252   1.575  0.0618 -1.3406  0.4422
   17CHTO   C89 6947   4.780   7.399   1.519  0.1970  0.1748  0.0965
   17CHTO   O59 6948   4.666   7.474   1.560  0.3224 -0.0736 -0.6927
   17CHTO  H137 6949   4.681   7.534   1.631  1.2839  0.1524 -1.0759
   17CHTO   O45 6950   4.649   6.973   1.737 -0.1308 -0.1064 -0.0105
   17CHTO   C67 6951   4.520   7.039   1.750  0.1422 -0.0510  0.5963
   17CHTO  H124 6952   4.528   7.129   1.811  0.7742  0.8484 -0.7905
   17CHTO   C65 6953   4.463   7.073   1.615 -0.1994  0.0168 -0.0326
   17CHTO  H122 6954   4.546   7.074   1.544  0.2282  2.3386  0.4688
   17CHTO   O44 6955   4.399   7.195   1.623 -0.2051  0.1670 -0.0006
   17CHTO  H102 6956   4.464   7.260   1.604 -1.4148  1.0689 -1.1486
   17CHTO   C63 6957   4.359   6.962   1.563 -0.3360  0.3390 -0.7565
   17CHTO  H120 6958   4.413   6.867   1.563  1.0611  1.0979  1.3134
   17CHTO   N11 6959   4.310   6.961   1.421 -0.0300 -0.8207  0.0928
   17CHTO  H108 6960   4.374   6.892   1.370 -1.6255 -1.8221 -0.5945
   17CHTO  H109 6961   4.209   6.927   1.433 -0.4388 -0.1655 -1.4506
   17CHTO   C61 6962   4.237   6.945   1.671 -0.8168  0.4763  0.0568
   17CHTO  H118 6963   4.193   6.846   1.651 -0.5118 -0.2770  2.9502
   17CHTO   O40 6964   4.285   6.938   1.809  0.3729 -0.5920  0.5053
   17CHTO   C68 6965   4.427   6.936   1.833  0.1069  0.2137 -0.3826
   17CHTO  H125 6966   4.457   6.834   1.802 -0.6500  0.1155 -0.8071
   17CHTO   C72 6967   4.452   6.949   1.982  0.0628 -0.8025 -0.0974
   17CHTO   O48 6968   4.411   6.836   2.054  0.1602  0.0699 -0.0249
   17CHTO  H105 6969   4.320   6.826   2.073  0.5389  1.4171  2.7805
   17CHTO   O38 6970   4.145   7.050   1.669 -0.6921 -0.6835  0.1010
   17CHTO   C55 6971   4.022   7.029   1.735  0.4949  0.4438 -0.0820
   17CHTO  H112 6972   4.044   6.993   1.837 -1.1320 -1.4468 -0.3456
   17CHTO   C56 6973   3.902   6.945   1.661 -0.1442 -0.3069 -0.0371
   17CHTO  H113 6974   3.892   6.978   1.556 -0.6652 -1.2244 -0.2762
   17CHTO   O42 6975   3.939   6.803   1.646  0.7657 -0.6104  0.0309
   17CHTO  H100 6976   3.933   6.771   1.558  1.9612 -0.4067 -0.1303
   17CHTO   C57 6977   3.763   6.961   1.733  1.0462  0.0870 -0.2576
   17CHTO  H114 6978   3.768   6.899   1.822  0.2690  1.7787  0.9779
   17CHTO   N10 6979   3.645   6.904   1.657 -0.6512  0.2187 -0.8385
   17CHTO  H106 6980   3.598   6.989   1.611  0.2619  1.2620  0.1185
   17CHTO  H107 6981   3.573   6.863   1.726 -0.5473 -0.3854 -1.0861
   17CHTO   C58 6982   3.732   7.111   1.775 -0.0850 -0.2842 -0.0895
   17CHTO  H115 6983   3.711   7.177   1.689  0.8089  2.7702  1.9461
   17CHTO   O37 6984   3.844   7.162   1.845  0.2042 -0.0078 -0.0732
   17CHTO   C59 6985   3.954   7.177   1.751 -0.3145  0.2939  0.5131
   17CHTO  H116 6986   3.925   7.202   1.649  1.4125 -0.5404 -0.2102
   17CHTO   C70 6987   4.056   7.276   1.804  0.0143  0.2907 -0.2326
   17CHTO   O46 6988   4.093   7.243   1.941  0.0641 -0.0784 -0.3476
   17CHTO  H103 6989   4.050   7.168   1.976  2.5261 -0.3650  2.1809
   17CHTO   O39 6990   3.624   7.121   1.872 -0.3687  0.4037  0.0568
   17CHTO   C60 6991   3.572   7.254   1.902 -0.3253  0.4927 -0.5470
   17CHTO  H117 6992   3.647   7.332   1.888 -0.5236  0.8344  0.3000
   17CHTO   C62 6993   3.455   7.283   1.805  0.0313  0.1043 -0.7178
   17CHTO  H119 6994   3.506   7.299   1.707 -0.8281  3.1671 -0.7428
   17CHTO   O43 6995   3.349   7.181   1.796 -0.0023 -0.0685 -0.0357
   17CHTO  H101 6996   3.288   7.214   1.732  0.9515 -1.2964 -1.6118
   17CHTO   C66 6997   3.391   7.425   1.844 -0.0065  0.0735  0.2109
   17CHTO  H123 6998   3.474   7.496   1.840  2.0089 -2.2619 -0.2625
   17CHTO   N12 6999   3.296   7.485   1.745  0.0177  0.6408 -0.8711
   17CHTO  H110 7000   3.285   7.431   1.652  2.7107  0.0776 -0.9235
   17CHTO  H111 7001   3.312   7.590   1.728 -1.1178  0.8464 -0.7057
   17CHTO   C69 7002   3.327   7.416   1.987  0.1601 -0.9150 -0.0021
   17CHTO  H126 7003   3.239   7.349   1.991  0.3495 -1.0467  2.3179
   17CHTO   O41 7004   3.444   7.364   2.100 -0.9373  0.0479 -0.4489
   17CHTO   C64 7005   3.531   7.247   2.057  0.0199  0.4423 -0.2931
   17CHTO  H121 7006   3.486   7.146   2.070  0.0432  0.5738  0.8921
   17CHTO   C71 7007   3.647   7.259   2.162 -0.3552  0.3029  0.4091
   17CHTO   O47 7008   3.726   7.140   2.160  0.4436  0.2988  0.7989
   17CHTO  H104 7009   3.767   7.128   2.244 -2.7475  0.9813  2.5332
   17CHTO   O34 7010   3.277   7.559   2.036 -0.1584 -0.4734  0.2741
   17CHTO   C49 7011   3.189   7.676   2.077 -0.5822 -0.0668  0.0331
   17CHTO   H91 7012   3.247   7.757   2.121 -0.8776  0.0437  0.2213
   17CHTO   C47 7013   3.098   7.618   2.191  0.0765  0.0944 -0.1196
   17CHTO   H89 7014   3.046   7.707   2.232 -2.2794  0.0356 -2.7736
   17CHTO   O33 7015   3.172   7.561   2.300 -0.0478 -0.1261  0.1388
   17CHTO   H70 7016   3.203   7.629   2.357 -0.0011  0.0325 -0.0739
   17CHTO   C45 7017   2.992   7.510   2.124  0.6575  0.2558  0.4420
   17CHTO   H87 7018   3.039   7.411   2.129  2.1636  0.8681 -0.8805
   17CHTO    N8 7019   2.869   7.509   2.207  0.1290 -0.0506  0.3449
   17CHTO   H75 7020   2.827   7.608   2.193 -2.7632 -1.7390 -3.8291
   17CHTO   H76 7021   2.802   7.432   2.173 -0.0401 -1.1803  3.0977
   17CHTO   C43 7022   2.961   7.544   1.966 -0.1139 -0.1189  0.0121
   17CHTO   H85 7023   3.035   7.489   1.908 -0.5119  2.4219 -3.0208
   17CHTO   O29 7024   2.974   7.688   1.939  0.3731  0.8230 -0.5862
   17CHTO   C50 7025   3.109   7.732   1.959 -0.2386 -0.2827 -0.1453
   17CHTO   H92 7026   3.159   7.711   1.863 -0.0181 -1.7202  0.2645
   17CHTO   C54 7027   3.099   7.886   1.967 -0.1444  0.5880 -0.0261
   17CHTO   O36 7028   3.078   7.943   2.096  0.3397  0.1759  0.3499
   17CHTO   H72 7029   3.007   7.895   2.133 -0.5511  1.0833 -0.1681
   17CHTO   O27 7030   2.843   7.479   1.915  0.2014 -0.1838 -0.0357
   17CHTO   C37 7031   2.805   7.420   1.792 -0.7278 -0.9826  0.4962
   17CHTO   H79 7032   2.696   7.427   1.778 -0.6077 -1.0523 -0.4939
   17CHTO   C38 7033   2.873   7.494   1.669  0.1270 -0.5775 -0.2578
   17CHTO   H80 7034   2.981   7.505   1.690 -0.0245  0.3403  0.0816
   17CHTO   O31 7035   2.817   7.625   1.654 -0.3926  0.0965  0.0466
   17CHTO   H68 7036   2.863   7.701   1.686  0.6997 -1.1757  1.5592
   17CHTO   C39 7037   2.854   7.422   1.531  0.1702 -0.0266  0.5656
   17CHTO   H81 7038   2.749   7.432   1.505  0.2609 -0.7432 -0.1093
   17CHTO    N7 7039   2.933   7.485   1.420 -0.1702  0.7313  0.4000
   17CHTO   H73 7040   2.872   7.512   1.336  1.8447  0.8053 -1.0850
   17CHTO   H74 7041   3.030   7.439   1.407 -0.3444  0.5105 -0.1338
   17CHTO   C40 7042   2.887   7.269   1.552  0.2556  0.1565 -0.0153
   17CHTO   H82 7043   2.995   7.257   1.561 -0.0628 -1.1218  2.4990
   17CHTO   O26 7044   2.812   7.211   1.659 -0.0484 -0.1506 -0.0833
   17CHTO   C41 7045   2.846   7.272   1.787  0.4206  0.1198  0.7215
   17CHTO   H83 7046   2.955   7.259   1.792  0.7386  1.9176 -0.9890
   17CHTO   C52 7047   2.797   7.188   1.904  0.3071  0.3402  0.3525
   17CHTO   O35 7048   2.832   7.048   1.892 -0.1450  0.2454 -0.2116
   17CHTO   H71 7049   2.826   7.009   1.977  1.1590  0.8710  0.1822
   17CHTO   O28 7050   2.842   7.196   1.441  0.0890  0.4201 -0.2267
   17CHTO   C42 7051   2.909   7.087   1.361 -0.1219 -0.3536  0.1667
   17CHTO   H84 7052   2.832   7.017   1.329  0.2187 -0.5756 -0.1669
   17CHTO   C44 7053   3.014   6.995   1.436  0.1605  0.4920 -0.3955
   17CHTO   H86 7054   3.090   7.064   1.473  0.1983  0.7191 -0.9005
   17CHTO   O32 7055   2.946   6.935   1.552 -0.1932 -0.6355  1.0341
   17CHTO   H69 7056   2.986   6.859   1.590 -0.0459 -0.8588  0.4444
   17CHTO   C48 7057   3.071   6.878   1.342 -0.0167 -0.0048  0.4610
   17CHTO   H90 7058   2.992   6.809   1.312  0.3480  0.5061 -1.8200
   17CHTO    N9 7059   3.172   6.788   1.408  0.9693 -0.0071 -0.7162
   17CHTO   H77 7060   3.136   6.748   1.501  1.5061 -2.7425 -1.6332
   17CHTO   H78 7061   3.262   6.845   1.423  0.8548  0.1147 -0.4989
   17CHTO   C51 7062   3.136   6.932   1.205  0.1278  0.1456  0.8815
   17CHTO   H93 7063   3.226   6.992   1.221 -0.1514  1.2874 -1.6683
   17CHTO   O30 7064   3.032   7.017   1.146  0.1675 -0.0383 -0.2634
   17CHTO   C46 7065   2.977   7.142   1.234 -0.2594  0.7771  0.0412
   17CHTO   H88 7066   3.058   7.208   1.264  0.1719  0.1259  0.3111
   17CHTO   C53 7067   2.875   7.222   1.146 -0.3224 -0.1475  0.0693
   17CHTO   O72 7068   2.939   7.272   1.032 -0.5458  0.3879  0.2850
   17CHTO  H199 7069   2.872   7.315   0.984 -0.4632  0.2293  0.0264
   17CHTO   O22 7070   3.163   6.825   1.115  0.3059  0.5794  0.2993
   17CHTO   C31 7071   3.289   6.772   1.048 -0.7402  0.0208  0.4028
   17CHTO   H59 7072   3.365   6.769   1.129  0.1089 -1.7772 -0.4370
   17CHTO   C29 7073   3.272   6.624   0.996  0.4109  0.4048  0.2503
   17CHTO   H57 7074   3.192   6.628   0.919 -1.0673 -0.4418  1.7173
   17CHTO   O21 7075   3.228   6.539   1.101 -0.2705  0.0770 -0.4116
   17CHTO   H37 7076   3.264   6.557   1.186 -1.3817 -1.3766  0.4013
   17CHTO   C27 7077   3.407   6.566   0.934  0.2166 -0.5305 -0.3901
   17CHTO   H55 7078   3.484   6.559   1.012  1.9734 -1.8462 -2.1905
   17CHTO    N5 7079   3.400   6.425   0.887 -0.1285 -0.7027 -0.3825
   17CHTO   H43 7080   3.346   6.365   0.960  1.5169 -0.5831  0.9725
   17CHTO   H44 7081   3.497   6.377   0.889 -1.3226 -3.3555  4.9543
   17CHTO   C25 7082   3.478   6.659   0.834 -0.5727  0.2325  0.1193
   17CHTO   H53 7083   3.422   6.656   0.739 -0.7629 -0.6871  0.2539
   17CHTO   O17 7084   3.475   6.798   0.883  0.0823  0.4121 -0.0601
   17CHTO   C32 7085   3.351   6.859   0.923  0.3667 -0.4753 -0.1766
   17CHTO   H60 7086   3.285   6.845   0.838  1.5047  0.6475 -1.2689
   17CHTO   C36 7087   3.368   7.012   0.954  0.6973  0.4515  0.6045
   17CHTO   O25 7088   3.418   7.083   0.842 -0.0847 -0.3293  0.2989
   17CHTO   H40 7089   3.450   7.165   0.873 -0.7077 -0.0190  0.1453
   17CHTO   O15 7090   3.639   6.617   0.799 -0.1017  0.0461 -0.4844
   17CHTO   C19 7091   3.762   6.698   0.815  0.1276  0.4592  0.6748
   17CHTO   H47 7092   3.836   6.619   0.791  0.5120  0.4301  1.9168
   17CHTO   C20 7093   3.775   6.812   0.711  0.0724  0.5163 -0.7867
   17CHTO   H48 7094   3.687   6.878   0.714  0.3633  0.8679 -0.0414
   17CHTO   O19 7095   3.767   6.752   0.581  0.5239 -0.0276  0.0163
   17CHTO   H35 7096   3.773   6.818   0.514 -1.6659 -0.0708 -0.2461
   17CHTO   C21 7097   3.902   6.908   0.738 -0.4883  0.1680  0.5093
   17CHTO   H49 7098   3.995   6.851   0.736 -0.8690 -0.4446 -0.5963
   17CHTO    N4 7099   3.905   7.012   0.634 -0.6483 -0.7010 -0.2602
   17CHTO   H41 7100   3.913   7.109   0.681  0.7280 -0.1990 -1.4961
   17CHTO   H42 7101   3.827   7.014   0.559 -1.6048 -0.7986  0.7190
   17CHTO   C22 7102   3.889   6.945   0.886 -0.2640 -0.2611 -0.2437
   17CHTO   H50 7103   3.790   6.987   0.903  0.2480  0.9370 -0.1850
   17CHTO   O14 7104   3.903   6.825   0.962  0.4227  0.5727 -0.2095
   17CHTO   C23 7105   3.785   6.743   0.955 -0.2147 -0.0997  0.2482
   17CHTO   H51 7106   3.702   6.801   0.996  1.1102  0.4067  2.3463
   17CHTO   C34 7107   3.806   6.630   1.060 -0.1407 -0.1598  0.9338
   17CHTO   O23 7108   3.796   6.665   1.200  0.9722  0.6865  0.3332
   17CHTO   H38 7109   3.861   6.726   1.229  1.7795 -0.2814  0.5906
   17CHTO   O16 7110   3.982   7.049   0.926  0.3017 -0.1876  0.0440
   17CHTO   C24 7111   4.005   7.096   1.067  0.3491 -0.4840  0.1534
   17CHTO   H52 7112   4.061   7.022   1.124  0.7789  0.6997  1.2925
   17CHTO   C26 7113   3.874   7.138   1.142  0.0925 -0.6232  0.1067
   17CHTO   H54 7114   3.812   7.205   1.079  0.4991  1.5131  1.9366
   17CHTO   O20 7115   3.800   7.016   1.171 -0.3362  0.0884  0.7223
   17CHTO   H36 7116   3.746   6.994   1.097  1.3446 -0.2613 -0.4444
   17CHTO   C30 7117   3.908   7.214   1.274 -0.4554  0.2856  0.2122
   17CHTO   H58 7118   3.964   7.148   1.341  0.9221 -0.4908 -1.6703
   17CHTO    N6 7119   3.781   7.257   1.337  0.1800 -0.3654 -0.0626
   17CHTO   H45 7120   3.728   7.321   1.268 -0.3855 -0.8647 -0.0911
   17CHTO   H46 7121   3.715   7.178   1.369  0.3302 -0.7081 -0.5933
   17CHTO   C33 7122   3.998   7.340   1.245 -0.2354  0.3069  0.6258
   17CHTO   H61 7123   3.947   7.406   1.173 -2.3577 -0.3961  1.4510
   17CHTO   O18 7124   4.114   7.279   1.181 -0.4959 -0.4931 -0.3979
   17CHTO   C28 7125   4.095   7.222   1.051  0.2352  0.1599  0.2480
   17CHTO   H56 7126   4.047   7.285   0.976 -1.1644 -2.1816 -0.8861
   17CHTO   C35 7127   4.247   7.181   1.000 -0.2442 -0.1272  0.1389
   17CHTO   O24 7128   4.242   7.136   0.864 -0.2763  0.1748 -0.6052
   17CHTO   H39 7129   4.186   7.187   0.808 -0.9117 -0.0209 -0.1560
   17CHTO    O9 7130   4.036   7.420   1.357  0.0753 -0.6241 -0.1140
   17CHTO   C13 7131   4.121   7.547   1.311 -0.2279  0.1691  0.3192
   17CHTO   H26 7132   4.125   7.540   1.200  2.4890  2.3280  0.2487
   17CHTO   C11 7133   4.264   7.546   1.375 -0.0082  0.1119  0.2658
   17CHTO   H24 7134   4.312   7.458   1.329 -2.3853 -0.0117 -2.0804
   17CHTO    O8 7135   4.249   7.529   1.515  0.6713  0.0674 -0.6171
   17CHTO    H3 7136   4.209   7.446   1.537  0.9999 -0.2654 -1.2628
   17CHTO    C9 7137   4.330   7.684   1.337  0.6682 -0.6246 -0.1908
   17CHTO   H22 7138   4.328   7.688   1.227  2.0682 -2.7478 -0.3321
   17CHTO    N2 7139   4.474   7.675   1.373  0.5272  0.0073 -0.0258
   17CHTO   H10 7140   4.505   7.771   1.414  0.0923  0.6730 -1.2565
   17CHTO   H11 7141   4.524   7.662   1.279 -0.9935  1.8645 -1.1172
   17CHTO    C7 7142   4.251   7.807   1.391 -0.7344  0.0553 -0.1785
   17CHTO   H20 7143   4.261   7.885   1.313 -1.1600 -0.9437 -1.2442
   17CHTO    O4 7144   4.115   7.775   1.428 -0.2478  1.0129 -0.0706
   17CHTO   C14 7145   4.039   7.688   1.342  0.5012 -0.1194  0.1252
   17CHTO   H27 7146   4.008   7.731   1.245 -3.2346 -1.4790  0.6403
   17CHTO   C18 7147   3.902   7.670   1.420 -0.2579 -0.1778  0.4685
   17CHTO   O13 7148   3.821   7.781   1.400  0.3968 -0.4036  0.0656
   17CHTO    H7 7149   3.844   7.855   1.452  1.6581 -0.9920  0.3694
   17CHTO    O2 7150   4.331   7.875   1.531 -0.9002 -0.3704 -0.6906
   17CHTO    C1 7151   4.355   8.012   1.512 -0.2548 -0.0980 -0.3792
   17CHTO   H14 7152   4.269   8.053   1.455 -0.7629  0.6997  0.9451
   17CHTO    C2 7153   4.495   8.060   1.453 -0.5232  0.2816 -0.0852
   17CHTO   H15 7154   4.570   8.004   1.511 -0.3460  0.0493 -0.5409
   17CHTO    O6 7155   4.498   8.027   1.314 -0.3279 -0.1477 -0.4880
   17CHTO    H1 7156   4.583   8.043   1.277 -0.3160 -0.6209 -0.6684
   17CHTO    C3 7157   4.537   8.216   1.474  0.0070 -0.1649 -0.0881
   17CHTO   H16 7158   4.479   8.276   1.402  0.1120 -1.7910 -1.5815
   17CHTO    N1 7159   4.678   8.241   1.431  0.2319 -0.0637 -0.2818
   17CHTO    H8 7160   4.729   8.262   1.524  1.2933  1.3979 -1.1816
   17CHTO    H9 7161   4.730   8.159   1.383  0.1035  0.5738 -1.5021
   17CHTO    C4 7162   4.496   8.268   1.611 -0.1333  0.2101 -0.2383
   17CHTO   H17 7163   4.568   8.232   1.684  0.2726 -1.3706 -1.3849
   17CHTO    O1 7164   4.362   8.224   1.647 -0.0193  0.5011 -0.6110
   17CHTO    C5 7165   4.344   8.079   1.661 -0.1510  0.3653  0.4366
   17CHTO   H18 7166   4.419   8.043   1.732 -0.0816 -0.3342  0.0066
   17CHTO   C16 7167   4.204   8.061   1.728  0.3710 -0.0515 -0.6230
   17CHTO   O11 7168   4.170   7.919   1.743  0.3218  0.5509 -0.3561
   17CHTO    H5 7169   4.227   7.889   1.811  0.3856  0.6805 -0.3518
   17CHTO    O3 7170   4.487   8.410   1.608  0.3812  0.1350  0.1711
   17CHTO    C6 7171   4.532   8.492   1.722  0.0353  0.6537 -0.2875
   17CHTO   H19 7172   4.538   8.596   1.688  0.8779  1.8971  3.4018
   17CHTO    C8 7173   4.425   8.487   1.843  0.4074 -0.1072 -0.1449
   17CHTO   H21 7174   4.387   8.386   1.854  0.1987  0.0636  0.7139
   17CHTO    O7 7175   4.313   8.564   1.793 -0.5068  0.2043 -0.5179
   17CHTO    H2 7176   4.231   8.519   1.781 -0.2720 -0.0672 -1.1027
   17CHTO   C12 7177   4.476   8.541   1.984  0.4477 -0.0472  0.1344
   17CHTO   H25 7178   4.490   8.650   1.973  3.0897 -0.1576  1.8762
   17CHTO    N3 7179   4.372   8.521   2.087  0.3960  0.3907 -0.1054
   17CHTO   H12 7180   4.275   8.531   2.040 -0.0566 -0.4908  0.6233
   17CHTO   H13 7181   4.383   8.605   2.154  0.8172 -1.2728  1.9645
   17CHTO   C15 7182   4.623   8.489   2.013  0.8436  0.3251  0.8310
   17CHTO   H28 7183   4.621   8.382   2.032  1.6181 -0.1613 -1.6391
   17CHTO   O10 7184   4.687   8.559   2.130  0.3473 -0.1360 -0.0826
   17CHTO    H4 7185   4.751   8.499   2.164 -0.9096 -0.6349  1.4894
   17CHTO    O5 7186   4.709   8.517   1.898 -0.4161 -0.3686 -0.5754
   17CHTO   C10 7187   4.679   8.457   1.772 -0.0599 -0.7305 -0.6029
   17CHTO   H23 7188   4.702   8.351   1.775  1.0717 -0.4781  0.5497
   17CHTO   C17 7189   4.793   8.510   1.684  0.2099  0.1124  0.1671
   17CHTO   O12 7190   4.758   8.588   1.571  0.0098 -0.2529 -0.1655
   17CHTO    H6 7191   4.833   8.592   1.514  0.5607 -1.5391  0.4538
   18CHTO  H203 7192   5.829   7.940   2.610 -4.4670  1.4032 -2.1050
   18CHTO   O82 7193   5.876   8.003   2.559 -0.0702  0.1296  0.1488
   18CHTO  C123 7194   5.850   7.987   2.418 -0.5948  0.3395  0.1458
   18CHTO  H227 7195   5.757   8.040   2.396 -0.3807  1.4914  1.8981
   18CHTO   O77 7196   5.970   8.058   2.367  0.3898 -0.3269  0.6126
   18CHTO  C118 7197   5.990   8.058   2.220  0.0277  0.4037  0.6276
   18CHTO  H222 7198   5.903   8.102   2.168  2.0904 -0.0531 -3.4031
   18CHTO  C125 7199   6.119   8.146   2.187  0.5963 -0.0003  0.2111
   18CHTO   O84 7200   6.240   8.100   2.243  0.3003 -0.3032  0.2936
   18CHTO  H205 7201   6.246   8.009   2.267  0.0311 -0.1278  1.0406
   18CHTO  C114 7202   6.005   7.912   2.174  0.3554  0.2762  0.1937
   18CHTO  H218 7203   6.098   7.872   2.213  0.8154  0.8202 -0.3293
   18CHTO  C116 7204   5.886   7.837   2.218 -0.0175  0.5462 -0.0824
   18CHTO  H220 7205   5.804   7.885   2.161 -0.9675 -0.7106  0.2010
   18CHTO   O79 7206   5.907   7.702   2.167 -0.2046 -0.1306  0.0672
   18CHTO  H201 7207   5.849   7.641   2.208  0.4673  0.3971  1.8253
   18CHTO  C120 7208   5.853   7.834   2.371 -0.3796  0.3224 -0.5903
   18CHTO  H224 7209   5.942   7.783   2.413 -0.4310  1.2524  0.7065
   18CHTO   N21 7210   5.725   7.762   2.398  0.1311  0.0220  0.6440
   18CHTO  H211 7211   5.689   7.774   2.499  1.7499  0.6640  1.1503
   18CHTO  H212 7212   5.737   7.657   2.375 -2.0452 -0.4578  1.5539
   18CHTO   O75 7213   6.016   7.908   2.031  0.3298  0.4434 -0.5934
   18CHTO  C112 7214   6.138   7.844   1.960 -0.8441  0.3603 -0.6741
   18CHTO  H216 7215   6.177   7.761   2.021 -0.1134  0.6880 -0.6913
   18CHTO   O73 7216   6.235   7.953   1.944  0.5407 -0.0266  0.6592
   18CHTO  C113 7217   6.345   7.909   1.860 -0.5687 -0.9192  0.1279
   18CHTO  H217 7218   6.397   7.826   1.911 -0.9868  0.3663  2.6916
   18CHTO  C124 7219   6.444   8.030   1.850  0.2370 -0.3835 -0.0225
   18CHTO   O83 7220   6.502   8.064   1.975 -0.3996  0.2348  0.6877
   18CHTO  H204 7221   6.436   8.077   2.041 -0.7791  1.7193  0.0281
   18CHTO  C109 7222   6.291   7.883   1.713 -0.3257 -0.5256 -0.3544
   18CHTO  H213 7223   6.245   7.976   1.676  0.0992 -0.4788 -0.7786
   18CHTO  C110 7224   6.202   7.757   1.719 -0.4513  0.4773 -0.0891
   18CHTO  H214 7225   6.260   7.672   1.757 -0.9395  1.5611  3.3021
   18CHTO   O78 7226   6.152   7.714   1.593 -0.0406  0.5187  0.5194
   18CHTO  H200 7227   6.218   7.697   1.528 -0.1422 -2.3823  1.1346
   18CHTO  C111 7228   6.087   7.790   1.816 -0.1079  0.7757 -0.3043
   18CHTO  H215 7229   6.032   7.875   1.773  3.2605  2.4399 -1.5869
   18CHTO   N19 7230   5.998   7.675   1.830 -0.0678  0.4324  0.3304
   18CHTO  H207 7231   6.005   7.630   1.927 -3.2013 -0.0645  0.3838
   18CHTO  H208 7232   5.904   7.695   1.781 -0.5760 -0.9885  0.7140
   18CHTO   O74 7233   6.410   7.859   1.633 -0.5899  0.3359  0.3068
   18CHTO  C115 7234   6.404   7.909   1.480  0.3779  0.2223  0.0489
   18CHTO  H219 7235   6.307   7.887   1.436  0.3468  1.4521 -0.5227
   18CHTO   O76 7236   6.423   8.072   1.473  0.1432 -0.2483 -0.2009
   18CHTO  C122 7237   6.414   8.127   1.343 -0.6237 -0.6586  0.0941
   18CHTO  H226 7238   6.443   8.232   1.348  1.1484 -1.0764 -0.8310
   18CHTO  C126 7239   6.286   8.127   1.278  0.2783 -0.3593 -0.1952
   18CHTO   O85 7240   6.187   8.209   1.337  0.5096 -0.2231 -0.0523
   18CHTO  H206 7241   6.116   8.223   1.277 -0.3865  0.4768  1.1233
   18CHTO  C121 7242   6.522   8.060   1.251 -0.0260  0.5003 -0.3395
   18CHTO  H225 7243   6.501   8.102   1.150  1.5173  1.1351 -0.3983
   18CHTO   O81 7244   6.650   8.112   1.286  0.3777  0.5656  0.9238
   18CHTO  H202 7245   6.664   8.193   1.241 -1.3702  0.2532 -0.2298
   18CHTO  C119 7246   6.506   7.903   1.247  0.5873  0.0483 -0.5036
   18CHTO  H223 7247   6.407   7.874   1.213  0.2426 -0.9784  1.2848
   18CHTO  C117 7248   6.510   7.844   1.390  0.8639  0.2660 -0.1387
   18CHTO  H221 7249   6.603   7.857   1.446 -0.3136 -0.4961  2.0625
   18CHTO   N20 7250   6.488   7.700   1.393  0.0482  0.1235 -0.1253
   18CHTO  H209 7251   6.405   7.670   1.330 -0.1129 -0.9756  0.5949
   18CHTO  H210 7252   6.574   7.641   1.364 -1.0254 -1.3254 -0.4517
   18CHTO   O80 7253   6.594   7.836   1.133 -0.2429  0.1895  0.2335
   18CHTO  C103 7254   6.519   7.756   1.014  0.2659 -0.2080 -0.2570
   18CHTO  H190 7255   6.591   7.690   0.965  1.4477 -2.4580  4.2700
   18CHTO  C101 7256   6.394   7.667   1.054  0.1527 -0.0524 -0.2248
   18CHTO  H188 7257   6.335   7.719   1.128 -0.0781 -0.3583 -0.1927
   18CHTO   O68 7258   6.447   7.536   1.122 -0.2781 -0.2065  0.2573
   18CHTO  H168 7259   6.520   7.512   1.067 -1.5940  0.2007 -1.7360
   18CHTO   C99 7260   6.300   7.635   0.932  0.5906  0.3115  0.1653
   18CHTO  H186 7261   6.362   7.570   0.867  1.5366  1.6195 -0.2782
   18CHTO   N17 7262   6.168   7.571   0.963  0.3438  0.4555  0.5257
   18CHTO  H174 7263   6.099   7.615   0.893 -0.8771 -0.3939  1.1798
   18CHTO  H175 7264   6.177   7.463   0.960 -1.0895  0.3297  0.7476
   18CHTO   C97 7265   6.277   7.758   0.845  0.1524  0.0898  0.3571
   18CHTO  H184 7266   6.223   7.834   0.902  1.7746  1.9008 -0.4625
   18CHTO   O64 7267   6.408   7.805   0.803  0.1143 -0.1570  0.1262
   18CHTO  C104 7268   6.479   7.868   0.914  0.5314  0.5235  0.1909
   18CHTO  H191 7269   6.422   7.941   0.971  0.3146  1.1147 -0.7683
   18CHTO  C108 7270   6.601   7.941   0.859 -0.3053 -0.3198  0.5656
   18CHTO   O71 7271   6.676   7.851   0.774 -0.0376  0.3087 -0.0865
   18CHTO  H171 7272   6.760   7.849   0.816  0.1355  2.6514 -0.2959
   18CHTO   O62 7273   6.205   7.739   0.717 -0.3568  0.4417  0.0107
   18CHTO   C91 7274   6.090   7.820   0.709 -0.2635 -0.3603  0.4613
   18CHTO  H178 7275   6.037   7.834   0.803  0.5771  1.2406  0.7152
   18CHTO   C92 7276   5.983   7.757   0.606  0.4809 -0.3206 -0.4931
   18CHTO  H179 7277   6.014   7.757   0.501  1.6950  0.1435 -0.1489
   18CHTO   O66 7278   5.956   7.622   0.645 -0.4157 -0.4572  0.0589
   18CHTO  H166 7279   5.991   7.557   0.587  1.8426 -0.3964  1.2854
   18CHTO   C93 7280   5.845   7.831   0.631  0.0189 -0.4372  0.1401
   18CHTO  H180 7281   5.812   7.820   0.735 -1.9625  1.3004 -0.2622
   18CHTO   N16 7282   5.740   7.787   0.527 -0.5974 -0.2183  0.3813
   18CHTO  H172 7283   5.643   7.796   0.573 -0.7833  1.9684 -0.3749
   18CHTO  H173 7284   5.747   7.831   0.429 -0.0422 -1.1156  0.0187
   18CHTO   C94 7285   5.863   7.987   0.604 -0.2870 -0.0140  0.3657
   18CHTO  H181 7286   5.899   8.011   0.505 -0.1813  2.4664  0.9744
   18CHTO   O61 7287   5.973   8.041   0.688 -0.4851 -0.8546  0.0571
   18CHTO   C95 7288   6.101   7.970   0.667 -0.2390  0.0506 -0.7212
   18CHTO  H182 7289   6.115   7.968   0.559 -1.2700  0.6563 -0.8740
   18CHTO  C106 7290   6.208   8.057   0.730 -0.0260  0.2640  0.4272
   18CHTO   O69 7291   6.229   8.173   0.650 -0.2812 -0.0812 -0.4407
   18CHTO  H169 7292   6.288   8.228   0.697 -0.8143  1.0004 -1.0358
   18CHTO   O63 7293   5.720   8.084   0.627 -0.3345  0.2575  0.0024
   18CHTO   C96 7294   5.737   8.227   0.558 -0.3956  0.3469 -0.4959
   18CHTO  H183 7295   5.822   8.213   0.491  0.1523  0.6943  0.1219
   18CHTO   C98 7296   5.761   8.347   0.647 -0.3616  1.3821 -0.5003
   18CHTO  H185 7297   5.691   8.353   0.732 -1.3301  0.8149 -1.2598
   18CHTO   O67 7298   5.892   8.331   0.708  0.6034  0.5006 -0.2496
   18CHTO  H167 7299   5.930   8.417   0.718  0.1495  0.5783  0.8606
   18CHTO  C102 7300   5.751   8.482   0.561 -0.1310 -1.0270  0.4130
   18CHTO  H189 7301   5.846   8.485   0.507  1.2052  2.1330  2.8339
   18CHTO   N18 7302   5.757   8.608   0.643  0.3430  0.0999  0.0322
   18CHTO  H176 7303   5.667   8.609   0.703  1.4726  1.2333  1.7673
   18CHTO  H177 7304   5.759   8.702   0.591 -3.8177 -0.4664 -1.3876
   18CHTO  C105 7305   5.627   8.488   0.466  0.2251 -0.5307 -0.4182
   18CHTO  H192 7306   5.536   8.485   0.526 -0.1106 -2.9509 -1.0191
   18CHTO   O65 7307   5.632   8.364   0.386  0.0381 -0.4298 -0.6199
   18CHTO  C100 7308   5.611   8.247   0.464 -0.1212 -0.2602  0.2154
   18CHTO  H187 7309   5.516   8.268   0.515 -0.0705  0.5601 -0.0104
   18CHTO  C107 7310   5.580   8.116   0.385  0.1425 -0.5089  0.0741
   18CHTO   O70 7311   5.454   8.137   0.321  0.6470 -0.5417  0.6590
   18CHTO  H170 7312   5.382   8.096   0.364 -0.0882  1.0504  0.9964
   18CHTO   O57 7313   5.632   8.620   0.368 -0.3606  0.1208  0.3432
   18CHTO   C85 7314   5.518   8.675   0.296 -0.0223  0.0590 -0.6061
   18CHTO  H157 7315   5.575   8.747   0.234  0.5774 -0.2414 -0.4072
   18CHTO   C83 7316   5.423   8.759   0.393  0.3804 -0.9937  0.2427
   18CHTO  H155 7317   5.486   8.837   0.435  0.5535 -1.0785  0.1373
   18CHTO   O56 7318   5.390   8.669   0.508  0.8372 -0.0941  0.2837
   18CHTO  H135 7319   5.466   8.624   0.539  0.6793 -0.2069  0.5102
   18CHTO   C81 7320   5.311   8.827   0.314  0.2263  0.5609  0.4155
   18CHTO  H153 7321   5.354   8.898   0.243  1.5263  0.4224  1.0622
   18CHTO   N14 7322   5.222   8.909   0.403 -0.2429 -0.0386 -0.3318
   18CHTO  H141 7323   5.272   8.935   0.495 -0.9644 -0.9920  0.3425
   18CHTO  H142 7324   5.206   8.996   0.343  0.2439  1.7843  2.0582
   18CHTO   C79 7325   5.221   8.714   0.241 -0.4148  0.6316  0.2643
   18CHTO  H151 7326   5.145   8.766   0.184  0.3817 -0.1008 -1.5026
   18CHTO   O52 7327   5.309   8.639   0.154 -0.5374 -0.0304 -0.0134
   18CHTO   C86 7328   5.431   8.576   0.208  0.6669  0.5418  0.2863
   18CHTO  H158 7329   5.394   8.500   0.279 -1.7698  0.6922 -0.7705
   18CHTO   C90 7330   5.520   8.509   0.105 -0.2882  0.5277 -0.1536
   18CHTO   O60 7331   5.449   8.402   0.037 -0.0210 -0.0362  0.0862
   18CHTO  H138 7332   5.432   8.427  -0.052  1.5941  0.0579 -0.2125
   18CHTO   O50 7333   5.151   8.629   0.331  0.4357  0.2418 -0.8624
   18CHTO   C73 7334   5.042   8.538   0.375  0.8669 -0.2719 -0.3818
   18CHTO  H145 7335   5.041   8.461   0.297 -0.4924  0.4056 -1.0390
   18CHTO   C74 7336   4.911   8.615   0.381 -0.1123  0.3930 -0.0521
   18CHTO  H146 7337   4.901   8.662   0.282  2.2038 -3.4836 -2.2546
   18CHTO   O54 7338   4.813   8.513   0.400 -0.0780  0.3742 -0.1146
   18CHTO  H133 7339   4.787   8.488   0.313  0.1545  0.7583 -0.2966
   18CHTO   C75 7340   4.910   8.720   0.499  0.3087 -0.0564  0.7222
   18CHTO  H147 7341   4.967   8.807   0.464  1.0100 -0.6176  0.4483
   18CHTO   N13 7342   4.783   8.791   0.518  0.8289 -0.2528  0.3030
   18CHTO  H139 7343   4.746   8.845   0.432  1.3469  0.2128  0.3703
   18CHTO  H140 7344   4.711   8.721   0.557  1.4046 -0.4398  1.0503
   18CHTO   C76 7345   4.965   8.665   0.633  0.4991  0.5183 -0.0834
   18CHTO  H148 7346   4.883   8.607   0.676 -0.4788 -0.4374 -3.0816
   18CHTO   O49 7347   5.085   8.578   0.609 -0.2075  0.1226 -0.0969
   18CHTO   C77 7348   5.074   8.474   0.516  0.1236  0.3517  0.2149
   18CHTO  H149 7349   4.992   8.410   0.549 -1.1404  1.6959 -0.2567
   18CHTO   C88 7350   5.205   8.409   0.513 -0.9332 -0.1950  0.0782
   18CHTO   O58 7351   5.207   8.258   0.436 -0.3129  0.2465 -0.5286
   18CHTO  H136 7352   5.197   8.273   0.344  0.9906  1.8821 -0.4028
   18CHTO   O51 7353   5.008   8.777   0.728  0.3389  0.1458  0.4681
   18CHTO   C78 7354   5.038   8.727   0.885 -0.1043 -0.1437  0.3608
   18CHTO  H150 7355   5.059   8.618   0.892 -0.4751 -0.1416  1.5516
   18CHTO   C80 7356   4.934   8.778   0.982  0.4669 -0.6547 -0.4769
   18CHTO  H152 7357   4.933   8.889   0.984 -0.2416 -0.6586 -0.2551
   18CHTO   O55 7358   4.810   8.731   0.932  0.3757 -0.1827 -0.1586
   18CHTO  H134 7359   4.799   8.638   0.935  0.3012 -0.1573  0.6663
   18CHTO   C84 7360   4.969   8.724   1.124  0.0694 -0.0912 -0.1624
   18CHTO  H156 7361   4.974   8.616   1.113  2.2324 -0.1840  1.5566
   18CHTO   N15 7362   4.855   8.754   1.224  0.2352 -0.3095 -0.5118
   18CHTO  H143 7363   4.884   8.712   1.318 -0.6139  1.3889  0.5141
   18CHTO  H144 7364   4.765   8.709   1.187  1.3776 -0.0047 -3.8495
   18CHTO   C87 7365   5.108   8.784   1.164  0.2451  0.2371  0.7243
   18CHTO  H159 7366   5.095   8.892   1.175  2.4665  0.7492 -1.2081
   18CHTO   O53 7367   5.208   8.754   1.058 -0.2583  0.3753 -0.0934
   18CHTO   C82 7368   5.169   8.793   0.925  0.1328  0.3572  0.5218
   18CHTO  H154 7369   5.167   8.902   0.915 -1.6756  0.0767 -2.9895
   18CHTO   C89 7370   5.290   8.739   0.835  0.2162  0.5917 -0.3862
   18CHTO   O59 7371   5.415   8.778   0.883  0.9708 -0.3520 -0.0676
   18CHTO  H137 7372   5.475   8.757   0.813  0.9833  0.1730 -0.2149
   18CHTO   O45 7373   5.162   8.726   1.303  0.5703 -0.1892  0.0531
   18CHTO   C67 7374   5.296   8.699   1.337 -0.0769 -0.1729 -0.0772
   18CHTO  H124 7375   5.335   8.618   1.276 -0.2582 -0.0399 -0.3647
   18CHTO   C65 7376   5.396   8.824   1.329  0.1387  0.3255  0.0566
   18CHTO  H122 7377   5.336   8.915   1.326 -0.1831  0.0727 -1.3745
   18CHTO   O44 7378   5.456   8.819   1.198  0.2765 -0.3295 -0.7973
   18CHTO  H102 7379   5.511   8.893   1.181  0.8703 -0.5317  0.2296
   18CHTO   C63 7380   5.490   8.839   1.458 -0.7938 -0.2898  0.0374
   18CHTO  H120 7381   5.432   8.887   1.537 -0.6628  0.9622 -0.6160
   18CHTO   N11 7382   5.604   8.937   1.442  0.1406 -0.0286 -0.0962
   18CHTO  H108 7383   5.566   9.037   1.443  0.7288  0.1993 -0.2372
   18CHTO  H109 7384   5.681   8.931   1.516 -1.0538  2.3150  1.4090
   18CHTO   C61 7385   5.535   8.694   1.505 -0.0770 -0.1395 -0.4756
   18CHTO  H118 7386   5.599   8.705   1.594 -0.2982  0.8740 -0.4403
   18CHTO   O40 7387   5.425   8.608   1.541  0.5151 -0.1949 -0.8689
   18CHTO   C68 7388   5.290   8.637   1.487  0.6647 -0.1414 -1.1443
   18CHTO  H125 7389   5.241   8.713   1.551 -0.4755 -0.3201 -1.7968
   18CHTO   C72 7390   5.199   8.514   1.484 -0.6944  0.0763 -0.2987
   18CHTO   O48 7391   5.235   8.419   1.381  0.3138 -0.1904  0.2281
   18CHTO  H105 7392   5.199   8.441   1.297  0.6680  0.2039  0.1804
   18CHTO   O38 7393   5.615   8.625   1.407  0.0557 -0.2840 -0.3620
   18CHTO   C55 7394   5.705   8.522   1.446  0.0269  0.1329 -0.1041
   18CHTO  H112 7395   5.688   8.488   1.549  1.6160  3.2262  1.2545
   18CHTO   C56 7396   5.858   8.575   1.430 -0.1026  0.7376  0.5878
   18CHTO  H113 7397   5.881   8.598   1.325  0.0754  0.3347  0.5392
   18CHTO   O42 7398   5.879   8.701   1.496  0.1500 -0.1124  0.2888
   18CHTO  H100 7399   5.826   8.767   1.455  0.7122 -1.5806 -2.9441
   18CHTO   C57 7400   5.949   8.464   1.484 -0.4928 -0.1190 -0.7308
   18CHTO  H114 7401   5.932   8.450   1.590 -1.2070 -1.5727 -1.0383
   18CHTO   N10 7402   6.097   8.496   1.482 -0.4716 -0.0325 -0.6917
   18CHTO  H106 7403   6.160   8.450   1.556 -1.0126 -0.3938 -0.4530
   18CHTO  H107 7404   6.153   8.531   1.396  1.0186  2.7846  1.3517
   18CHTO   C58 7405   5.928   8.332   1.408  0.2414  0.0611  0.3095
   18CHTO  H115 7406   5.980   8.343   1.311 -1.8156  0.3922 -0.7682
   18CHTO   O37 7407   5.794   8.295   1.375  0.2315 -0.0391 -0.2341
   18CHTO   C59 7408   5.683   8.390   1.356 -0.4592 -0.3428  0.1097
   18CHTO  H116 7409   5.672   8.411   1.250  1.2304  2.9218  0.4987
   18CHTO   C70 7410   5.557   8.313   1.394 -0.2208  0.3345  0.4612
   18CHTO   O46 7411   5.547   8.290   1.534 -0.2775 -0.3483 -0.1427
   18CHTO  H103 7412   5.494   8.213   1.537 -2.0163  0.8732  2.5875
   18CHTO   O39 7413   5.981   8.213   1.512  0.3963 -0.5969 -0.8911
   18CHTO   C60 7414   5.906   8.191   1.633 -0.0085 -0.5589 -0.2808
   18CHTO  H117 7415   5.846   8.278   1.659 -0.0465 -0.4077 -0.8492
   18CHTO   C62 7416   5.809   8.071   1.606  0.4102 -0.3108 -0.3581
   18CHTO  H119 7417   5.757   8.100   1.513  0.4188 -0.6432 -0.4689
   18CHTO   O43 7418   5.882   7.948   1.575  0.2124 -0.4725 -0.6310
   18CHTO  H101 7419   5.939   7.955   1.500  1.3633 -0.7382  0.2133
   18CHTO   C66 7420   5.703   8.055   1.723 -0.0053 -0.2788 -0.3596
   18CHTO  H123 7421   5.645   8.147   1.732  0.5330 -0.0850  1.3865
   18CHTO   N12 7422   5.594   7.957   1.704  0.3223 -0.2713  0.3840
   18CHTO  H110 7423   5.638   7.873   1.652 -0.8164 -1.3457  1.1398
   18CHTO  H111 7424   5.563   7.925   1.802  0.9713 -0.4571  0.5326
   18CHTO   C69 7425   5.777   8.032   1.855  0.1775 -0.0236 -0.0500
   18CHTO  H126 7426   5.805   7.924   1.856 -2.0025 -0.6100  0.6959
   18CHTO   O41 7427   5.910   8.125   1.867  0.3041  0.3465 -0.0595
   18CHTO   C64 7428   5.994   8.163   1.747 -0.1302  0.5573 -0.1029
   18CHTO  H121 7429   6.055   8.073   1.724  1.4437  1.2766  1.1553
   18CHTO   C71 7430   6.088   8.283   1.782  0.4525 -0.2520  0.4659
   18CHTO   O47 7431   6.009   8.392   1.836 -0.0213 -0.3119  0.0073
   18CHTO  H104 7432   6.055   8.419   1.913  1.1642 -1.4759 -0.2729
   18CHTO   O34 7433   5.683   8.048   1.973  0.3794 -0.2387 -0.7357
   18CHTO   C49 7434   5.625   8.125   2.072 -0.1247 -0.2761 -0.1252
   18CHTO   H91 7435   5.660   8.080   2.165  0.5138 -0.2753 -0.3655
   18CHTO   C47 7436   5.474   8.110   2.055  0.0832 -0.4039 -0.6860
   18CHTO   H89 7437   5.431   8.143   2.153  1.6184 -0.8453  0.1598
   18CHTO   O33 7438   5.445   7.970   2.043 -0.1207  0.2717 -0.3584
   18CHTO   H70 7439   5.354   7.950   2.051  0.2347 -1.2423  0.2210
   18CHTO   C45 7440   5.424   8.194   1.932  0.0341  0.4484 -0.2565
   18CHTO   H87 7441   5.480   8.157   1.845 -0.9743 -0.1896 -0.6421
   18CHTO    N8 7442   5.283   8.177   1.908  0.2331 -0.3502 -0.2539
   18CHTO   H75 7443   5.258   8.214   1.810  0.8102 -1.3699 -0.7841
   18CHTO   H76 7444   5.220   8.216   1.988  0.8968  2.3547 -0.9949
   18CHTO   C43 7445   5.459   8.346   1.943  0.2303 -0.3903 -0.2874
   18CHTO   H85 7446   5.432   8.388   1.846 -0.1536  0.9847  0.3945
   18CHTO   O29 7447   5.599   8.362   1.974  0.6059  1.2967 -0.4284
   18CHTO   C50 7448   5.656   8.277   2.075 -0.5618 -0.3271 -0.0942
   18CHTO   H92 7449   5.764   8.287   2.056 -0.9627  0.6753 -1.9409
   18CHTO   C54 7450   5.636   8.327   2.219 -0.1485 -0.2289  0.5651
   18CHTO   O36 7451   5.692   8.452   2.243  0.0314 -0.2263  0.4854
   18CHTO   H72 7452   5.633   8.505   2.293  2.2516  3.1695 -0.2622
   18CHTO   O27 7453   5.398   8.413   2.051  0.1913 -1.0625 -0.0037
   18CHTO   C37 7454   5.343   8.549   2.066  0.6245 -0.0425  0.4146
   18CHTO   H79 7455   5.356   8.583   2.170  1.3286 -0.2638  0.3997
   18CHTO   C38 7456   5.406   8.665   1.984 -0.4783 -0.3207 -0.1629
   18CHTO   H80 7457   5.399   8.633   1.879  0.3983 -1.3117  0.0763
   18CHTO   O31 7458   5.532   8.687   2.032  0.4415  0.5082  0.9690
   18CHTO   H68 7459   5.586   8.728   1.968 -1.7188  1.2442 -0.4608
   18CHTO   C39 7460   5.315   8.793   1.995  0.4148 -0.2051 -0.2323
   18CHTO   H81 7461   5.323   8.837   2.095 -0.8843 -0.1239 -0.1618
   18CHTO    N7 7462   5.368   8.899   1.906 -0.4623  0.0153  0.5056
   18CHTO   H73 7463   5.326   8.993   1.938  2.4503  1.5732 -0.0495
   18CHTO   H74 7464   5.342   8.872   1.805  1.2038 -2.6767  0.7419
   18CHTO   C40 7465   5.164   8.767   1.959 -0.3557  0.6523  0.6614
   18CHTO   H82 7466   5.151   8.747   1.853  0.5341  2.5806  0.1694
   18CHTO   O26 7467   5.115   8.660   2.041 -0.1182 -0.5498 -0.1808
   18CHTO   C41 7468   5.193   8.534   2.032  0.0819 -0.3970 -0.0710
   18CHTO   H83 7469   5.194   8.488   1.932  2.1684 -1.2429  0.3156
   18CHTO   C52 7470   5.119   8.433   2.126 -1.1018 -0.2392  0.9041
   18CHTO   O35 7471   4.982   8.387   2.069 -0.0821 -0.5357 -0.5725
   18CHTO   H71 7472   4.916   8.454   2.068  0.1756 -0.2950 -2.2509
   18CHTO   O28 7473   5.078   8.878   1.997 -0.2102 -0.1337 -0.3800
   18CHTO   C42 7474   4.946   8.913   1.952  0.0019 -0.6679 -0.1767
   18CHTO   H84 7475   4.955   9.021   1.943 -1.4016 -0.1594  3.8564
   18CHTO   C44 7476   4.838   8.882   2.063 -0.0158 -0.0151  0.0467
   18CHTO   H86 7477   4.834   8.775   2.084  2.0402 -0.1919 -0.3098
   18CHTO   O32 7478   4.875   8.959   2.178  0.2252 -0.2477  0.2285
   18CHTO   H69 7479   4.910   9.045   2.165 -1.5581  0.3819 -0.6013
   18CHTO   C48 7480   4.697   8.922   2.021 -0.4635  0.3466 -0.2941
   18CHTO   H90 7481   4.692   9.030   2.007 -0.2844  0.5098  0.8164
   18CHTO    N9 7482   4.597   8.884   2.125 -0.2646 -0.6898  0.2523
   18CHTO   H77 7483   4.610   8.922   2.225 -2.9708 -0.1783  0.4645
   18CHTO   H78 7484   4.496   8.880   2.085 -0.5310 -1.1458  0.9550
   18CHTO   C51 7485   4.662   8.871   1.874  0.5006 -0.0495 -0.0483
   18CHTO   H93 7486   4.646   8.764   1.883 -0.0257  0.0153 -0.1824
   18CHTO   O30 7487   4.774   8.910   1.786 -0.3643  0.0938  0.4518
   18CHTO   C46 7488   4.894   8.859   1.815 -0.7309  0.2482 -0.5163
   18CHTO   H88 7489   4.888   8.750   1.825 -0.6684  0.1752 -1.2327
   18CHTO   C53 7490   4.984   8.903   1.692 -0.2922 -0.5352 -0.6708
   18CHTO   O72 7491   4.963   8.810   1.586  0.1766 -0.0658  0.2038
   18CHTO  H199 7492   4.871   8.817   1.570  0.7629  1.5709 -2.7429
   18CHTO   O22 7493   4.546   8.943   1.821 -0.4947  0.5553 -0.2640
   18CHTO   C31 7494   4.438   8.889   1.745 -0.2119  0.5124  0.3448
   18CHTO   H59 7495   4.444   8.778   1.750 -3.1623  0.1813 -2.3446
   18CHTO   C29 7496   4.303   8.929   1.808  0.2062  0.3306 -0.0024
   18CHTO   H57 7497   4.319   9.036   1.829  1.4801  0.4733 -1.6300
   18CHTO   O21 7498   4.297   8.858   1.933 -0.2429 -0.2147  0.7147
   18CHTO   H37 7499   4.227   8.797   1.939  0.0300 -0.5561  0.4338
   18CHTO   C27 7500   4.172   8.907   1.718  0.3110 -0.2222 -0.4320
   18CHTO   H55 7501   4.143   8.801   1.723  2.9338 -1.0129 -1.2068
   18CHTO    N5 7502   4.056   8.987   1.760  0.0070 -0.5564  0.2335
   18CHTO   H43 7503   4.004   8.960   1.850 -0.5198  1.2198  0.4753
   18CHTO   H44 7504   4.077   9.093   1.769 -2.0891 -0.3052  2.5355
   18CHTO   C25 7505   4.207   8.938   1.565 -0.1551  0.1699  0.2010
   18CHTO   H53 7506   4.206   9.047   1.552  2.0523  0.4337  1.9365
   18CHTO   O17 7507   4.329   8.891   1.513  0.1823 -0.3405 -0.0141
   18CHTO   C32 7508   4.445   8.927   1.587 -0.4674  0.3846  0.0146
   18CHTO   H60 7509   4.447   9.036   1.578  1.5476  0.4840  1.3965
   18CHTO   C36 7510   4.570   8.863   1.520  0.2886 -0.6731 -0.0293
   18CHTO   O25 7511   4.577   8.893   1.379 -0.0006  0.4151  0.3715
   18CHTO   H40 7512   4.634   8.834   1.335  0.8651  1.2838  0.3071
   18CHTO   O15 7513   4.109   8.883   1.483 -0.5058 -0.2528  0.2310
   18CHTO   C19 7514   4.096   8.829   1.346  0.3576  0.1305  0.0112
   18CHTO   H47 7515   3.990   8.804   1.328  0.4263  0.9136 -1.6099
   18CHTO   C20 7516   4.156   8.920   1.230  0.0450  0.8902  0.0356
   18CHTO   H48 7517   4.263   8.937   1.247 -0.4412  1.1156  3.2854
   18CHTO   O19 7518   4.087   9.045   1.243  0.5842  0.2703  0.5236
   18CHTO   H35 7519   4.125   9.110   1.187  1.4986  0.8341  1.7837
   18CHTO   C21 7520   4.150   8.846   1.087 -0.1026  0.5922  0.2079
   18CHTO   H49 7521   4.048   8.820   1.061  0.2824 -0.1994 -0.5352
   18CHTO    N4 7522   4.205   8.931   0.970  0.0135  0.1132  0.0790
   18CHTO   H41 7523   4.194   9.035   0.993 -1.5718 -0.4552  2.0287
   18CHTO   H42 7524   4.158   8.916   0.874  0.1214  2.1759 -0.3167
   18CHTO   C22 7525   4.215   8.705   1.114  0.2610  0.1726 -0.0910
   18CHTO   H50 7526   4.317   8.721   1.147  0.9781 -0.9977 -1.7082
   18CHTO   O14 7527   4.144   8.636   1.215 -0.5381 -0.2257 -0.2475
   18CHTO   C23 7528   4.167   8.693   1.340  0.0833  0.2147 -1.5169
   18CHTO   H51 7529   4.275   8.700   1.359 -0.5335 -0.5363  2.8025
   18CHTO   C34 7530   4.099   8.598   1.445  0.5997  0.1963  0.2605
   18CHTO   O23 7531   4.146   8.466   1.435  0.3372 -0.4427 -0.6782
   18CHTO   H38 7532   4.239   8.457   1.447  0.3492  2.7119  2.5270
   18CHTO   O16 7533   4.216   8.622   0.997 -0.7376 -0.1368 -0.4002
   18CHTO   C24 7534   4.358   8.556   0.956  0.5814 -0.3711  0.3634
   18CHTO   H52 7535   4.442   8.608   1.004  1.4970 -0.5833 -0.9847
   18CHTO   C26 7536   4.372   8.569   0.805  0.5525 -0.1020 -0.1092
   18CHTO   H54 7537   4.283   8.525   0.756  1.2510  1.1764 -2.6256
   18CHTO   O20 7538   4.361   8.702   0.767  0.1664  0.4860  0.3177
   18CHTO   H36 7539   4.447   8.733   0.749 -0.0823  1.2284  0.3845
   18CHTO   C30 7540   4.497   8.497   0.753  0.2152 -0.4711  0.2040
   18CHTO   H58 7541   4.587   8.553   0.782 -1.3605  2.3448 -0.1259
   18CHTO    N6 7542   4.501   8.508   0.604 -0.7879 -0.1218 -0.0550
   18CHTO   H45 7543   4.524   8.604   0.561  1.6026 -0.7665 -0.2353
   18CHTO   H46 7544   4.428   8.457   0.544 -1.0098  0.3030 -0.1513
   18CHTO   C33 7545   4.512   8.353   0.808  0.7539 -0.4867 -0.6265
   18CHTO   H61 7546   4.430   8.290   0.769 -0.0862  1.0241 -1.3315
   18CHTO   O18 7547   4.498   8.368   0.949  0.1252 -0.2586 -0.4313
   18CHTO   C28 7548   4.369   8.403   0.995 -0.2095 -0.0194  0.3459
   18CHTO   H56 7549   4.296   8.348   0.935 -2.0040  1.0231  1.5556
   18CHTO   C35 7550   4.373   8.378   1.150 -0.6202 -0.3338 -0.6977
   18CHTO   O24 7551   4.395   8.242   1.165  0.0554 -0.1690  0.1328
   18CHTO   H39 7552   4.424   8.219   1.251  2.0864  1.6588 -0.0164
   18CHTO    O9 7553   4.637   8.290   0.767  0.2318 -0.5137  0.5593
   18CHTO   C13 7554   4.740   8.221   0.870  0.3538  0.1343 -0.2048
   18CHTO   H26 7555   4.678   8.159   0.938 -0.2294 -1.8066 -2.4112
   18CHTO   C11 7556   4.827   8.328   0.952 -0.3696 -0.3640  0.6172
   18CHTO   H24 7557   4.758   8.368   1.028 -0.7836 -0.4512  0.2878
   18CHTO    O8 7558   4.880   8.428   0.863  0.0348 -0.2994 -0.7118
   18CHTO    H3 7559   4.845   8.514   0.878 -0.5854 -0.9898  2.1781
   18CHTO    C9 7560   4.944   8.260   1.023  0.1854 -0.3905  0.7930
   18CHTO   H22 7561   4.898   8.194   1.098  0.3315 -0.8086  0.5110
   18CHTO    N2 7562   5.037   8.346   1.104  0.9684 -0.5215  0.3343
   18CHTO   H10 7563   5.140   8.315   1.097  1.4626  1.0492  0.3954
   18CHTO   H11 7564   5.005   8.358   1.207 -0.5841  1.3949 -0.3405
   18CHTO    C7 7565   5.022   8.159   0.927 -0.0068 -0.0257  0.1600
   18CHTO   H20 7566   5.091   8.101   0.993 -0.6767  1.2570  2.0477
   18CHTO    O4 7567   4.939   8.066   0.856  0.2820  0.0358 -0.0472
   18CHTO   C14 7568   4.827   8.122   0.784  0.5534  0.9765  0.2590
   18CHTO   H27 7569   4.766   8.035   0.753  1.7303  0.5552 -0.9163
   18CHTO   C18 7570   4.877   8.189   0.649  0.4137  0.2911  0.2282
   18CHTO   O13 7571   4.909   8.092   0.552 -0.7162 -0.0253  0.0178
   18CHTO    H7 7572   4.981   8.123   0.500 -1.7765  1.5534 -0.5555
   18CHTO    O2 7573   5.139   8.223   0.828  0.7867 -0.9753 -0.1114
   18CHTO    C1 7574   5.260   8.159   0.803  0.4897  0.4389 -0.2230
   18CHTO   H14 7575   5.309   8.211   0.718  1.0897  0.1875 -0.0270
   18CHTO    C2 7576   5.252   8.003   0.772 -0.2055 -0.5859  0.4809
   18CHTO   H15 7577   5.196   7.953   0.852 -0.3830 -0.5883  0.3546
   18CHTO    O6 7578   5.171   7.984   0.655 -0.2963 -0.1424 -0.0554
   18CHTO    H1 7579   5.079   7.992   0.672 -0.6922 -0.9454 -1.6891
   18CHTO    C3 7580   5.401   7.942   0.765  0.5114 -0.0165 -0.1414
   18CHTO   H16 7581   5.453   7.988   0.679  1.3208 -0.8042 -0.0860
   18CHTO    N1 7582   5.399   7.795   0.739  0.3292  0.3628  0.0833
   18CHTO    H8 7583   5.353   7.731   0.813  1.9368  0.4559  1.1977
   18CHTO    H9 7584   5.366   7.778   0.638 -2.7341  1.5772  0.8246
   18CHTO    C4 7585   5.479   7.984   0.894 -0.2000 -0.5966  0.2309
   18CHTO   H17 7586   5.428   7.950   0.984  0.5627  0.1950  0.9757
   18CHTO    O1 7587   5.482   8.129   0.892  0.5726 -0.1082 -0.0016
   18CHTO    C5 7588   5.353   8.190   0.917 -0.7655 -0.1576  0.6375
   18CHTO   H18 7589   5.310   8.146   1.006 -0.1683 -2.0523  0.0081
   18CHTO   C16 7590   5.363   8.342   0.945 -0.2692  0.1118 -0.5543
   18CHTO   O11 7591   5.423   8.376   1.072 -0.7007 -0.0003  0.4741
   18CHTO    H5 7592   5.476   8.303   1.098 -0.0555  0.6853  1.0871
   18CHTO    O3 7593   5.620   7.938   0.889 -0.0589 -0.1993 -0.9486
   18CHTO    C6 7594   5.684   7.944   1.016  0.7208 -0.3748 -0.2149
   18CHTO   H19 7595   5.624   7.985   1.098  2.7451 -1.1776  1.7073
   18CHTO    C8 7596   5.697   7.797   1.072  0.6270 -0.0019  0.5950
   18CHTO   H21 7597   5.735   7.737   0.989 -0.4046  1.4437 -0.9817
   18CHTO    O7 7598   5.563   7.751   1.091 -0.5428  0.5092 -0.6641
   18CHTO    H2 7599   5.543   7.733   1.181  1.2694 -0.7433 -0.4857
   18CHTO   C12 7600   5.777   7.781   1.197  0.4803  0.3535 -0.3038
   18CHTO   H25 7601   5.720   7.833   1.277  0.9771  1.1358 -0.4515
   18CHTO    N3 7602   5.798   7.642   1.253 -0.1675  1.0529  1.6096
   18CHTO   H12 7603   5.702   7.592   1.241  0.8257 -0.5431 -0.0071
   18CHTO   H13 7604   5.862   7.590   1.183 -1.4567  1.2965  0.2009
   18CHTO   C15 7605   5.917   7.859   1.183 -0.0549  0.6179  0.1513
   18CHTO   H28 7606   5.985   7.816   1.109 -0.6116  0.7659 -0.4503
   18CHTO   O10 7607   5.992   7.881   1.306  0.4269 -0.3119 -0.0323
   18CHTO    H4 7608   6.021   7.806   1.354  1.1683  0.4493  0.7331
   18CHTO    O5 7609   5.888   7.996   1.148 -0.3083  0.5758  0.0927
   18CHTO   C10 7610   5.823   8.008   1.022  0.1281  0.1707 -0.1432
   18CHTO   H23 7611   5.884   7.968   0.941 -1.2538 -1.2677 -0.4934
   18CHTO   C17 7612   5.815   8.156   0.991  0.0338  0.1304  0.5683
   18CHTO   O12 7613   5.741   8.223   1.089 -0.3368 -0.7220 -0.3085
   18CHTO    H6 7614   5.722   8.311   1.064 -1.2854 -0.6998  0.4144
   19CHTO  H203 7615   5.222   0.009   0.193 -2.5683 -0.1167  0.2387
   19CHTO   O82 7616   5.226  -0.083   0.209 -0.0507  0.0131  0.5586
   19CHTO  C123 7617   5.142  -0.155   0.117  0.0300  0.5165 -0.8399
   19CHTO  H227 7618   5.078  -0.082   0.066  1.0747  2.6536  0.8643
   19CHTO   O77 7619   5.242  -0.207   0.029 -0.3131 -0.1388 -0.5923
   19CHTO  C118 7620   5.203  -0.295  -0.079  0.7015 -0.1896  0.2124
   19CHTO  H222 7621   5.131  -0.245  -0.146 -0.2998 -0.0623  1.3553
   19CHTO  C125 7622   5.334  -0.330  -0.155  0.3575  0.3668  0.2489
   19CHTO   O84 7623   5.429  -0.405  -0.073 -0.0925  0.8963  0.2522
   19CHTO  H205 7624   5.508  -0.363  -0.102  0.0557  0.8220  0.5444
   19CHTO  C114 7625   5.127  -0.418  -0.018 -0.0046  0.1258  0.5274
   19CHTO  H218 7626   5.195  -0.474   0.047  0.9137 -2.1186 -2.2534
   19CHTO  C116 7627   5.011  -0.375   0.076 -1.0277  0.0580  0.4310
   19CHTO  H220 7628   4.924  -0.331   0.023  0.5122  2.0770 -0.4577
   19CHTO   O79 7629   4.961  -0.495   0.143 -0.5053 -0.6415  0.1359
   19CHTO  H201 7630   4.995  -0.518   0.227 -1.2989 -1.0335  0.3630
   19CHTO  C120 7631   5.069  -0.284   0.180  0.7193 -0.2887 -0.1919
   19CHTO  H224 7632   5.137  -0.344   0.243 -1.5912 -0.7980  1.9048
   19CHTO   N21 7633   4.962  -0.236   0.275  0.3888  0.1192  0.1774
   19CHTO  H211 7634   4.917  -0.149   0.230  1.2535 -0.1529 -1.2735
   19CHTO  H212 7635   5.003  -0.199   0.368 -1.0173  0.2554  0.7521
   19CHTO   O75 7636   5.084  -0.497  -0.129  1.0200 -0.6324 -0.1181
   19CHTO  C112 7637   5.094  -0.655  -0.095  0.4922 -0.6103 -0.5766
   19CHTO  H216 7638   5.089  -0.665   0.015  0.7241 -0.8440 -0.5902
   19CHTO   O73 7639   5.213  -0.709  -0.148  0.4696  1.0600 -0.3246
   19CHTO  C113 7640   5.226  -0.848  -0.102  0.2609  0.3249  0.2794
   19CHTO  H217 7641   5.211  -0.861   0.007 -1.1044 -1.6129 -0.1102
   19CHTO  C124 7642   5.368  -0.900  -0.133  0.2086  0.4662 -0.0939
   19CHTO   O83 7643   5.463  -0.808  -0.081  0.2299  0.4323  0.1620
   19CHTO  H204 7644   5.549  -0.844  -0.087  0.4592  0.8540  0.8905
   19CHTO  C109 7645   5.129  -0.941  -0.177  0.5096  0.0451 -0.5959
   19CHTO  H213 7646   5.151  -0.927  -0.284  0.0617 -2.8983 -1.0977
   19CHTO  C110 7647   4.983  -0.888  -0.147  0.2937 -0.6212 -0.5037
   19CHTO  H214 7648   4.955  -0.906  -0.043  0.1544  1.0031 -0.2495
   19CHTO   O78 7649   4.886  -0.954  -0.233 -0.7930 -0.0646 -0.2570
   19CHTO  H200 7650   4.897  -0.921  -0.320  0.0040  0.2775 -0.0374
   19CHTO  C111 7651   4.972  -0.732  -0.163 -0.1220  0.2316 -0.2851
   19CHTO  H215 7652   4.985  -0.705  -0.269  1.2182 -0.8684 -0.4167
   19CHTO   N19 7653   4.845  -0.666  -0.120 -0.7015  0.2343  0.4564
   19CHTO  H207 7654   4.847  -0.559  -0.136 -0.4381  0.0609 -0.6923
   19CHTO  H208 7655   4.823  -0.688  -0.017 -0.9325 -0.3879  0.2729
   19CHTO   O74 7656   5.147  -1.084  -0.144 -0.1498 -0.4635  0.2079
   19CHTO  C115 7657   5.121  -1.182  -0.250 -0.4050 -0.6391  0.5681
   19CHTO  H219 7658   5.026  -1.162  -0.299 -1.0573 -2.3649  1.0970
   19CHTO   O76 7659   5.236  -1.166  -0.378  0.1395  1.0717 -0.8669
   19CHTO  C122 7660   5.351  -1.241  -0.355  0.1511 -0.1579 -0.1115
   19CHTO  H226 7661   5.398  -1.209  -0.262  0.2109 -1.2654  0.2467
   19CHTO  C126 7662   5.461  -1.217  -0.466 -0.9239  0.1790 -0.7206
   19CHTO   O85 7663   5.517  -1.095  -0.463 -0.1957  0.1034  0.8270
   19CHTO  H206 7664   5.451  -1.028  -0.459 -0.3906 -0.0515  0.2353
   19CHTO  C121 7665   5.324  -1.391  -0.341  0.3677 -0.5735 -0.1494
   19CHTO  H225 7666   5.348  -1.442  -0.437 -0.8998 -2.6934  0.6363
   19CHTO   O81 7667   5.413  -1.439  -0.239 -0.1061  0.4432 -0.4395
   19CHTO  H202 7668   5.459  -1.516  -0.265  3.1867  2.0116  0.4100
   19CHTO  C119 7669   5.175  -1.422  -0.302 -0.2154 -0.4803 -0.7410
   19CHTO  H223 7670   5.116  -1.389  -0.387 -2.6246  0.4215  1.2088
   19CHTO  C117 7671   5.120  -1.329  -0.187  0.2949  0.0351 -0.4472
   19CHTO  H221 7672   5.183  -1.321  -0.098 -0.3164 -1.0848  0.1062
   19CHTO   N20 7673   4.979  -1.367  -0.142  0.6099 -0.0406  0.1300
   19CHTO  H209 7674   4.929  -1.294  -0.080 -1.3244 -0.8649 -0.4593
   19CHTO  H210 7675   4.923  -1.368  -0.234  1.2857 -1.3209 -0.2737
   19CHTO   O80 7676   5.135  -1.587  -0.286 -0.1238  0.4994  0.2170
   19CHTO  C103 7677   5.138  -1.675  -0.405  0.3120  0.7590 -0.1607
   19CHTO  H190 7678   5.155  -1.614  -0.493  2.0548  0.0265 -0.3535
   19CHTO  C101 7679   5.251  -1.782  -0.389  0.0963 -0.3507  0.0692
   19CHTO  H188 7680   5.259  -1.832  -0.293  0.1462 -0.5022 -0.0146
   19CHTO   O68 7681   5.376  -1.721  -0.421  0.3411 -0.2205 -0.3537
   19CHTO  H168 7682   5.441  -1.787  -0.435  1.3082  0.7193 -0.2788
   19CHTO   C99 7683   5.236  -1.900  -0.492 -0.2539  0.3846 -0.8767
   19CHTO  H186 7684   5.263  -1.864  -0.594  1.8757  1.2328 -0.0258
   19CHTO   N17 7685   5.334  -2.008  -0.464 -0.6496 -0.0917 -0.1055
   19CHTO  H174 7686   5.335  -2.072  -0.551  0.0090 -0.1831 -0.0313
   19CHTO  H175 7687   5.431  -1.968  -0.441 -0.1254 -0.4563 -1.5938
   19CHTO   C97 7688   5.090  -1.958  -0.497  0.1371 -1.2286 -0.6255
   19CHTO  H184 7689   5.062  -2.012  -0.406 -0.1219  0.2598  0.1864
   19CHTO   O64 7690   5.000  -1.852  -0.521 -0.0481  0.1889 -0.0742
   19CHTO  C104 7691   4.998  -1.751  -0.418 -0.6071 -0.5496  0.2598
   19CHTO  H191 7692   4.966  -1.777  -0.317 -1.2488 -0.5829  0.0518
   19CHTO  C108 7693   4.903  -1.646  -0.471  0.5770  0.7604 -0.1272
   19CHTO   O71 7694   4.766  -1.679  -0.469  0.7085 -0.4790 -0.0817
   19CHTO  H171 7695   4.707  -1.610  -0.491  2.4713  0.8636 -0.7055
   19CHTO   O62 7696   5.075  -2.047  -0.611 -0.6045  0.2011  0.4716
   19CHTO   C91 7697   4.953  -2.126  -0.623  0.2315  0.0251 -0.2986
   19CHTO  H178 7698   4.881  -2.089  -0.550  0.7800 -2.5858  1.6364
   19CHTO   C92 7699   4.979  -2.272  -0.576  0.0169 -0.5145  0.1748
   19CHTO  H179 7700   5.060  -2.311  -0.638 -1.0666 -0.7949 -1.0869
   19CHTO   O66 7701   5.043  -2.269  -0.444 -0.1180  0.0543  0.8529
   19CHTO  H166 7702   5.017  -2.206  -0.379 -1.9743  3.8930 -3.3437
   19CHTO   C93 7703   4.849  -2.363  -0.591  0.4436  0.2981 -0.0242
   19CHTO  H180 7704   4.782  -2.337  -0.508  0.6389 -0.0321  0.2395
   19CHTO   N16 7705   4.883  -2.505  -0.562 -0.4861 -0.2311  0.0383
   19CHTO  H172 7706   4.803  -2.539  -0.499 -1.6938  0.5469 -1.0545
   19CHTO  H173 7707   4.890  -2.566  -0.651 -0.8963  0.4406 -0.4606
   19CHTO   C94 7708   4.778  -2.339  -0.725 -0.3279 -0.6439 -0.1646
   19CHTO  H181 7709   4.828  -2.392  -0.806 -0.1603 -0.5707 -0.1093
   19CHTO   O61 7710   4.780  -2.202  -0.764  0.4580 -0.4992  0.1779
   19CHTO   C95 7711   4.898  -2.122  -0.771  0.4016  0.6120 -0.5771
   19CHTO  H182 7712   4.971  -2.168  -0.838 -0.2634  0.0956 -0.9494
   19CHTO  C106 7713   4.849  -1.987  -0.827  0.6695 -0.2143 -0.4730
   19CHTO   O69 7714   4.767  -1.995  -0.942  0.1672  0.3218 -0.1432
   19CHTO  H169 7715   4.692  -2.049  -0.923 -0.7198  1.8554  0.8495
   19CHTO   O63 7716   4.629  -2.385  -0.712  0.0003 -0.7111 -0.4224
   19CHTO   C96 7717   4.550  -2.380  -0.860  0.2119  0.6588 -0.2778
   19CHTO  H183 7718   4.629  -2.393  -0.934 -1.8826 -0.6003 -2.3458
   19CHTO   C98 7719   4.485  -2.240  -0.868 -0.6718 -0.1126  0.3667
   19CHTO  H185 7720   4.558  -2.160  -0.851  0.0734 -0.2982 -1.6991
   19CHTO   O67 7721   4.446  -2.225  -1.004 -0.6720  0.4113 -0.2889
   19CHTO  H167 7722   4.520  -2.180  -1.041  0.6334 -0.4801  1.2009
   19CHTO  C102 7723   4.344  -2.220  -0.779 -0.3963 -0.3167 -0.3044
   19CHTO  H189 7724   4.286  -2.139  -0.826 -0.7747  0.7663  1.9565
   19CHTO   N18 7725   4.374  -2.163  -0.645 -0.2706  0.2013  0.5378
   19CHTO  H176 7726   4.348  -2.058  -0.646  1.8074  0.7246 -1.3293
   19CHTO  H177 7727   4.482  -2.153  -0.648 -0.1646 -1.2269 -2.9219
   19CHTO  C105 7728   4.257  -2.348  -0.765  0.5861  0.0607  0.5195
   19CHTO  H192 7729   4.285  -2.398  -0.672  0.5096 -0.4011  0.2914
   19CHTO   O65 7730   4.299  -2.450  -0.863 -0.0753  0.5858 -0.2157
   19CHTO  C100 7731   4.438  -2.487  -0.871 -0.2030  0.2730  0.6282
   19CHTO  H187 7732   4.453  -2.558  -0.789  0.3106  0.5547  0.7844
   19CHTO  C107 7733   4.453  -2.572  -1.003 -0.2420  0.4483  0.1562
   19CHTO   O70 7734   4.459  -2.487  -1.118  0.0526  0.3976  0.4232
   19CHTO  H170 7735   4.407  -2.409  -1.111 -0.9019  0.0275 -2.0435
   19CHTO   O57 7736   4.122  -2.298  -0.771  0.1810  0.3223 -0.5444
   19CHTO   C85 7737   4.006  -2.382  -0.789  0.6254 -0.4053 -0.1763
   19CHTO  H157 7738   4.032  -2.489  -0.786  0.8414 -0.3736 -0.7114
   19CHTO   C83 7739   3.952  -2.349  -0.934 -0.0654 -0.1055  0.4361
   19CHTO  H155 7740   4.024  -2.391  -1.004 -0.9061  0.6616 -0.9132
   19CHTO   O56 7741   3.939  -2.204  -0.952  0.3006  1.0984  0.5098
   19CHTO  H135 7742   3.983  -2.148  -0.890 -1.1778  1.4163  1.3051
   19CHTO   C81 7743   3.817  -2.420  -0.965 -0.3720 -0.0145  0.1771
   19CHTO  H153 7744   3.834  -2.527  -0.955 -3.4838 -0.2802  4.0868
   19CHTO   N14 7745   3.764  -2.405  -1.099 -0.1407 -0.1554 -0.4091
   19CHTO  H141 7746   3.718  -2.312  -1.122  1.9780  1.1872  0.5848
   19CHTO  H142 7747   3.842  -2.428  -1.168 -0.5381 -2.7620 -0.0348
   19CHTO   C79 7748   3.712  -2.382  -0.852 -0.4740  0.7359  0.3270
   19CHTO  H151 7749   3.630  -2.453  -0.865  1.3489 -1.5003  0.7133
   19CHTO   O52 7750   3.768  -2.406  -0.713  0.7326 -0.1938 -0.0716
   19CHTO   C86 7751   3.896  -2.338  -0.684  0.4637 -0.1519 -0.7265
   19CHTO  H158 7752   3.869  -2.231  -0.683 -1.2414 -0.5542 -0.9835
   19CHTO   C90 7753   3.944  -2.375  -0.547 -0.3507 -0.8460  0.2234
   19CHTO   O60 7754   3.853  -2.358  -0.438 -0.3156  0.0233  0.0949
   19CHTO  H138 7755   3.782  -2.420  -0.436 -0.2549 -0.0469  0.1004
   19CHTO   O50 7756   3.653  -2.257  -0.859 -0.4483 -0.1737 -0.1195
   19CHTO   C73 7757   3.532  -2.177  -0.885 -0.0053  0.2175 -0.4735
   19CHTO  H145 7758   3.441  -2.235  -0.864  0.3663 -1.1541 -2.5186
   19CHTO   C74 7759   3.533  -2.142  -1.034 -0.7926  0.0830  0.5156
   19CHTO  H146 7760   3.546  -2.238  -1.087  1.6198  0.1708  0.9047
   19CHTO   O54 7761   3.403  -2.097  -1.075 -0.3891  0.0894  0.2901
   19CHTO  H133 7762   3.409  -2.053  -1.157  3.5581 -0.8226 -0.0112
   19CHTO   C75 7763   3.651  -2.047  -1.065  0.0047  0.3373  0.4224
   19CHTO  H147 7764   3.746  -2.099  -1.045 -0.3478 -0.3764  0.2928
   19CHTO   N13 7765   3.658  -2.005  -1.208  0.7694 -0.4337  0.1575
   19CHTO  H139 7766   3.667  -1.898  -1.223  1.3291 -0.7052 -1.4970
   19CHTO  H140 7767   3.744  -2.051  -1.254  1.8930  0.3865  1.3873
   19CHTO   C76 7768   3.650  -1.921  -0.963  0.1451 -0.5236  0.7640
   19CHTO  H148 7769   3.579  -1.845  -0.993 -0.7358 -2.3969 -2.1065
   19CHTO   O49 7770   3.631  -1.955  -0.818 -0.8617  0.6396  0.1543
   19CHTO   C77 7771   3.525  -2.049  -0.792  0.6231  0.1550 -0.5080
   19CHTO  H149 7772   3.425  -2.008  -0.807 -0.1832 -1.5169  0.0874
   19CHTO   C88 7773   3.533  -2.090  -0.646  0.0074 -0.4285  0.0255
   19CHTO   O58 7774   3.450  -1.965  -0.558 -0.1280 -0.1322 -0.1638
   19CHTO  H136 7775   3.480  -1.881  -0.585  0.6119 -0.5501 -0.6421
   19CHTO   O51 7776   3.799  -1.872  -0.959 -0.4204  0.0870 -0.1655
   19CHTO   C78 7777   3.812  -1.734  -0.912  0.2463  0.1213 -0.1131
   19CHTO  H150 7778   3.731  -1.702  -0.843  0.3826  0.4664 -0.1069
   19CHTO   C80 7779   3.817  -1.638  -1.035 -0.0027  0.2099  0.1941
   19CHTO  H152 7780   3.893  -1.672  -1.109 -1.7509 -1.1709 -0.9876
   19CHTO   O55 7781   3.694  -1.643  -1.106 -0.3206  0.5629 -0.8824
   19CHTO  H134 7782   3.631  -1.592  -1.058  0.7864  2.2169 -1.1109
   19CHTO   C84 7783   3.852  -1.493  -0.996 -0.3550 -0.2320  0.0662
   19CHTO  H156 7784   3.765  -1.460  -0.939 -0.9321  1.3182 -1.6877
   19CHTO   N15 7785   3.872  -1.400  -1.115  0.4639 -0.0991  0.8661
   19CHTO  H143 7786   3.975  -1.382  -1.138 -0.0126 -0.1150 -1.3404
   19CHTO  H144 7787   3.816  -1.310  -1.118 -1.3928 -1.3087 -1.8115
   19CHTO   C87 7788   3.977  -1.486  -0.899  0.0741  0.0301  0.3957
   19CHTO  H159 7789   4.056  -1.520  -0.966 -2.0402 -2.7889 -0.8070
   19CHTO   O53 7790   3.959  -1.580  -0.785 -0.0692 -0.5293 -0.3867
   19CHTO   C82 7791   3.939  -1.715  -0.828  0.0240  0.1350 -1.1120
   19CHTO  H154 7792   4.026  -1.758  -0.879  0.4975 -1.5801  1.0509
   19CHTO   C89 7793   3.931  -1.799  -0.696  0.1573  0.0430 -0.0548
   19CHTO   O59 7794   4.053  -1.818  -0.630  0.9527 -0.1960 -0.5566
   19CHTO  H137 7795   4.065  -1.776  -0.548  0.3799 -1.3910  0.1555
   19CHTO   O45 7796   4.014  -1.344  -0.819 -0.0442 -0.0750 -0.2732
   19CHTO   C67 7797   3.945  -1.301  -0.698  0.6329  0.1423  0.0411
   19CHTO  H124 7798   3.839  -1.319  -0.716  1.0136  0.7065 -3.0686
   19CHTO   C65 7799   3.993  -1.372  -0.569  0.0484  0.4624 -0.2003
   19CHTO  H122 7800   4.092  -1.410  -0.594 -0.6260  0.6524 -3.4035
   19CHTO   O44 7801   3.911  -1.483  -0.539 -0.0230 -0.3249  0.6417
   19CHTO  H102 7802   3.839  -1.460  -0.483  0.0327 -2.6021  1.7055
   19CHTO   C63 7803   4.029  -1.273  -0.451  0.1302 -0.3726 -0.8157
   19CHTO  H120 7804   4.114  -1.210  -0.477  0.4589 -0.4254  0.1011
   19CHTO   N11 7805   4.091  -1.330  -0.329  0.2624  0.6150 -0.8560
   19CHTO  H108 7806   4.180  -1.388  -0.339 -0.1301 -0.3030  0.8001
   19CHTO  H109 7807   4.095  -1.260  -0.248 -1.9929 -0.1695 -0.0365
   19CHTO   C61 7808   3.915  -1.170  -0.426 -0.2668  0.6088 -0.1165
   19CHTO  H118 7809   3.969  -1.095  -0.366 -0.2668  0.8390 -0.4058
   19CHTO   O40 7810   3.878  -1.104  -0.548 -0.5335  0.0179 -0.3747
   19CHTO   C68 7811   3.947  -1.140  -0.679  0.4325  0.0834 -0.1452
   19CHTO  H125 7812   4.052  -1.105  -0.669 -0.4568  2.6406  0.5797
   19CHTO   C72 7813   3.876  -1.065  -0.792 -0.3423 -0.1877  0.1072
   19CHTO   O48 7814   3.864  -0.928  -0.770  0.0863 -0.0320  0.3818
   19CHTO  H105 7815   3.845  -0.881  -0.849 -0.2081 -1.1004 -0.1907
   19CHTO   O38 7816   3.800  -1.227  -0.361 -0.2979 -0.0122 -0.0493
   19CHTO   C55 7817   3.693  -1.140  -0.332  0.2617 -0.9055 -0.4373
   19CHTO  H112 7818   3.713  -1.040  -0.373 -1.3343  0.3739  1.8006
   19CHTO   C56 7819   3.667  -1.133  -0.169  0.4978 -0.2335  0.1881
   19CHTO  H113 7820   3.672  -1.234  -0.125 -2.8687 -0.5600 -0.0540
   19CHTO   O42 7821   3.785  -1.069  -0.118 -0.5169  0.4710  0.0760
   19CHTO  H100 7822   3.845  -1.141  -0.128  0.6470  1.1059  2.0988
   19CHTO   C57 7823   3.529  -1.058  -0.134  1.1497 -0.6156  0.0457
   19CHTO  H114 7824   3.560  -0.957  -0.159 -0.8891 -0.0648 -0.3570
   19CHTO   N10 7825   3.481  -1.059   0.007 -0.0469  0.4808  0.5195
   19CHTO  H106 7826   3.526  -0.978   0.063  2.4913 -0.1860 -0.4437
   19CHTO  H107 7827   3.494  -1.152   0.061  2.0808  0.2368 -0.3559
   19CHTO   C58 7828   3.417  -1.104  -0.229  0.0201  0.0512 -0.9421
   19CHTO  H115 7829   3.401  -1.214  -0.217 -0.5161  0.2699  0.4512
   19CHTO   O37 7830   3.459  -1.092  -0.366  0.1193  0.3035  0.1942
   19CHTO   C59 7831   3.564  -1.179  -0.405  0.5294  0.3116  0.5499
   19CHTO  H116 7832   3.541  -1.281  -0.375 -2.0904 -0.1682 -2.8291
   19CHTO   C70 7833   3.579  -1.161  -0.561  0.0405  0.5397 -0.1656
   19CHTO   O46 7834   3.476  -1.215  -0.640 -0.1161  0.2955 -0.1173
   19CHTO  H103 7835   3.514  -1.275  -0.701  0.2338  0.2032  0.1898
   19CHTO   O39 7836   3.288  -1.003  -0.206  0.5405 -0.0153  0.1776
   19CHTO   C60 7837   3.210  -0.965  -0.324  0.3156  0.4746  0.0493
   19CHTO  H117 7838   3.246  -1.008  -0.417  0.0455 -1.4144  0.7893
   19CHTO   C62 7839   3.074  -1.034  -0.311 -0.3198 -0.7385 -0.0981
   19CHTO  H119 7840   3.101  -1.139  -0.288  2.8358  0.0676  0.0356
   19CHTO   O43 7841   2.996  -0.984  -0.198 -0.7108  0.3225 -0.4189
   19CHTO  H101 7842   2.918  -1.033  -0.183 -0.9031  0.9435  0.6700
   19CHTO   C66 7843   3.007  -1.023  -0.458  0.0621  0.2872 -0.2991
   19CHTO  H123 7844   3.076  -1.065  -0.530  0.9246  0.7172  0.2612
   19CHTO   N12 7845   2.878  -1.094  -0.473 -0.0559  0.2329  0.5804
   19CHTO  H110 7846   2.848  -1.155  -0.389  1.5035 -0.5382  0.5791
   19CHTO  H111 7847   2.882  -1.149  -0.566 -0.0451 -1.6501  1.6654
   19CHTO   C69 7848   2.987  -0.875  -0.504  0.1357 -0.4362  0.1234
   19CHTO  H126 7849   2.900  -0.836  -0.446 -0.2740 -0.2212 -0.6309
   19CHTO   O41 7850   3.115  -0.786  -0.477  0.3408  0.3682 -0.7296
   19CHTO   C64 7851   3.201  -0.818  -0.339 -1.3500 -0.5452  0.1228
   19CHTO  H121 7852   3.144  -0.773  -0.255 -1.4501  2.7888 -1.6680
   19CHTO   C71 7853   3.346  -0.749  -0.347  0.4689  0.1256 -0.6458
   19CHTO   O47 7854   3.416  -0.771  -0.472  0.7651  0.7946  0.7535
   19CHTO  H104 7855   3.361  -0.741  -0.542  0.6225 -1.9392 -0.3480
   19CHTO   O34 7856   2.967  -0.870  -0.665 -0.1651  0.1984 -0.3930
   19CHTO   C49 7857   3.065  -0.869  -0.783  0.5033  0.0078 -0.2281
   19CHTO   H91 7858   3.093  -0.764  -0.796 -0.5385  0.8542  3.7599
   19CHTO   C47 7859   2.982  -0.921  -0.902 -0.0953 -0.1235 -0.0008
   19CHTO   H89 7860   3.052  -0.911  -0.987  1.5721  0.9049  1.4633
   19CHTO   O33 7861   2.867  -0.835  -0.922  0.3280 -0.1550  0.4568
   19CHTO   H70 7862   2.804  -0.858  -0.857 -0.0128 -0.1367  0.1349
   19CHTO   C45 7863   2.952  -1.071  -0.882  1.0027  0.1604  0.1325
   19CHTO   H87 7864   2.907  -1.091  -0.784  0.7133 -1.6443 -0.3408
   19CHTO    N8 7865   2.860  -1.121  -0.985 -0.6048  0.3994  0.1335
   19CHTO   H75 7866   2.813  -1.214  -0.956  0.6487 -0.6523 -1.1385
   19CHTO   H76 7867   2.910  -1.134  -1.080  1.2164  2.0294  0.8499
   19CHTO   C43 7868   3.095  -1.149  -0.886  0.2264  0.2520  0.6006
   19CHTO   H85 7869   3.081  -1.257  -0.879 -1.4809  0.3547 -0.7981
   19CHTO   O29 7870   3.186  -1.102  -0.782  0.2455 -0.0020  0.7321
   19CHTO   C50 7871   3.192  -0.958  -0.769 -0.4607  0.9713  0.0900
   19CHTO   H92 7872   3.231  -0.946  -0.667 -1.4565  0.1971  0.5720
   19CHTO   C54 7873   3.304  -0.891  -0.855 -0.3071  0.1669  0.2077
   19CHTO   O36 7874   3.435  -0.942  -0.810  0.2664 -0.1008  0.4482
   19CHTO   H72 7875   3.505  -0.887  -0.841 -0.6012  1.7956  1.7525
   19CHTO   O27 7876   3.170  -1.142  -1.004 -0.5957  0.5621  0.8372
   19CHTO   C37 7877   3.220  -1.234  -1.105  0.1880  0.4172  0.0657
   19CHTO   H79 7878   3.177  -1.335  -1.106  0.1068  0.4597 -0.9268
   19CHTO   C38 7879   3.188  -1.155  -1.236 -0.1546 -0.0048 -0.4810
   19CHTO   H80 7880   3.226  -1.054  -1.214  1.0616 -0.3941 -0.7509
   19CHTO   O31 7881   3.045  -1.151  -1.265  0.6524  0.1058  0.2749
   19CHTO   H68 7882   2.992  -1.084  -1.227  0.9605 -0.1486  1.1543
   19CHTO   C39 7883   3.255  -1.218  -1.368  0.0311  0.1211  0.1886
   19CHTO   H81 7884   3.197  -1.307  -1.393  1.2650 -0.6548  0.0619
   19CHTO    N7 7885   3.260  -1.138  -1.489 -0.0313  0.1409  0.4951
   19CHTO   H73 7886   3.234  -1.202  -1.573  1.7140 -0.1169  0.1432
   19CHTO   H74 7887   3.185  -1.060  -1.482 -1.5389 -1.1447 -0.7345
   19CHTO   C40 7888   3.400  -1.271  -1.337  0.3194 -0.6226  0.2518
   19CHTO   H82 7889   3.468  -1.187  -1.356  1.3874 -1.5102  0.0957
   19CHTO   O26 7890   3.423  -1.331  -1.208 -0.4649  0.2470  0.3021
   19CHTO   C41 7891   3.377  -1.254  -1.090  1.0344 -0.8023  0.4833
   19CHTO   H83 7892   3.418  -1.152  -1.095 -1.2251  0.0961 -0.6734
   19CHTO   C52 7893   3.419  -1.332  -0.960 -0.0208  0.0412  0.2992
   19CHTO   O35 7894   3.561  -1.338  -0.928  0.3715  0.0269  0.4284
   19CHTO   H71 7895   3.593  -1.274  -0.867 -0.0498 -0.0444  0.7317
   19CHTO   O28 7896   3.429  -1.377  -1.424 -0.0618  0.2962  0.1808
   19CHTO   C42 7897   3.558  -1.415  -1.467 -0.0128 -0.6439  0.3721
   19CHTO   H84 7898   3.631  -1.407  -1.387  3.0110  0.4475 -2.4198
   19CHTO   C44 7899   3.618  -1.338  -1.589 -0.1021 -1.0779 -0.0289
   19CHTO   H86 7900   3.541  -1.333  -1.666 -2.6174  3.1511  2.5300
   19CHTO   O32 7901   3.627  -1.198  -1.554  0.1154 -0.8207  0.3839
   19CHTO   H69 7902   3.709  -1.163  -1.526  0.3232 -1.2892  0.3629
   19CHTO   C48 7903   3.763  -1.386  -1.647  0.1019 -0.0858  0.0855
   19CHTO   H90 7904   3.847  -1.353  -1.586 -0.6388  1.9043  0.0492
   19CHTO    N9 7905   3.798  -1.329  -1.780  1.0156 -0.2039  0.1908
   19CHTO   H77 7906   3.738  -1.372  -1.859  1.1809 -2.0902  1.0686
   19CHTO   H78 7907   3.784  -1.222  -1.771  0.2977 -0.2485 -0.3006
   19CHTO   C51 7908   3.771  -1.546  -1.644 -0.0105 -0.0262  0.4349
   19CHTO   H93 7909   3.730  -1.586  -1.737  3.6101  2.2661 -2.2869
   19CHTO   O30 7910   3.704  -1.599  -1.530  0.6792  0.5112 -0.7720
   19CHTO   C46 7911   3.563  -1.567  -1.512 -0.2438 -0.3054  0.5548
   19CHTO   H88 7912   3.517  -1.578  -1.610  2.0471 -0.0719 -0.5647
   19CHTO   C53 7913   3.519  -1.667  -1.407 -0.0014  0.5531  0.6622
   19CHTO   O72 7914   3.528  -1.807  -1.435 -0.2221  0.2013  0.0680
   19CHTO  H199 7915   3.440  -1.836  -1.421  0.3696 -1.2919  0.8555
   19CHTO   O22 7916   3.903  -1.590  -1.629 -0.3441 -0.0732 -0.3074
   19CHTO   C31 7917   3.936  -1.724  -1.682  0.2870 -0.1421  0.0262
   19CHTO   H59 7918   3.843  -1.784  -1.674 -1.1833  1.8173 -1.8892
   19CHTO   C29 7919   3.972  -1.724  -1.830 -0.3858  0.8934  0.4962
   19CHTO   H57 7920   4.053  -1.651  -1.844 -0.3985  0.9143  0.5274
   19CHTO   O21 7921   3.848  -1.691  -1.905 -0.4815 -0.2080 -0.1211
   19CHTO   H37 7922   3.865  -1.628  -1.972 -0.8402  0.5165  0.4625
   19CHTO   C27 7923   4.012  -1.865  -1.883  0.1287  0.7464 -0.7918
   19CHTO   H55 7924   3.920  -1.925  -1.888  0.2289  0.5918 -0.7854
   19CHTO    N5 7925   4.078  -1.853  -2.021 -0.0686  0.0987 -0.2204
   19CHTO   H43 7926   4.164  -1.790  -2.008  0.0548 -0.1355  0.0972
   19CHTO   H44 7927   4.095  -1.948  -2.069 -2.2670  0.2976 -1.4428
   19CHTO   C25 7928   4.107  -1.945  -1.779  0.0417 -0.2125  0.2726
   19CHTO   H53 7929   4.205  -1.896  -1.788 -0.2737  0.6925  1.6535
   19CHTO   O17 7930   4.056  -1.938  -1.642  0.5583  0.1783 -0.2418
   19CHTO   C32 7931   4.045  -1.798  -1.599  0.6354  0.4018  0.2183
   19CHTO   H60 7932   4.142  -1.750  -1.609 -0.4145  2.2996 -1.1153
   19CHTO   C36 7933   3.994  -1.806  -1.454  0.1585  0.4982 -0.6469
   19CHTO   O25 7934   3.891  -1.903  -1.440 -0.0224 -0.3096  0.4411
   19CHTO   H40 7935   3.872  -1.923  -1.351  1.8381 -1.3458  0.6335
   19CHTO   O15 7936   4.141  -2.105  -1.823  0.5722  0.3619  0.6189
   19CHTO   C19 7937   4.215  -2.167  -1.927 -0.3823  0.1834  0.1491
   19CHTO   H47 7938   4.185  -2.110  -2.016 -2.4176  1.9958  1.9586
   19CHTO   C20 7939   4.371  -2.154  -1.920 -0.1836 -0.5964 -0.3510
   19CHTO   H48 7940   4.412  -2.206  -1.832  0.1868 -1.0691 -0.7991
   19CHTO   O19 7941   4.388  -2.012  -1.914 -0.2660 -0.1262  0.1202
   19CHTO   H35 7942   4.476  -1.992  -1.888 -0.8833  1.6825  0.8907
   19CHTO   C21 7943   4.434  -2.221  -2.048  1.0608 -0.3728  0.0935
   19CHTO   H49 7944   4.394  -2.171  -2.135  0.6570  0.2001  0.6040
   19CHTO    N4 7945   4.580  -2.202  -2.038 -0.2624 -0.4005 -0.5158
   19CHTO   H41 7946   4.617  -2.225  -1.940 -0.5791 -0.0556 -0.3164
   19CHTO   H42 7947   4.612  -2.103  -2.066  0.0209 -0.7512 -1.4525
   19CHTO   C22 7948   4.398  -2.372  -2.049 -0.1687 -0.0485 -0.0982
   19CHTO   H50 7949   4.429  -2.413  -1.953 -0.1110 -3.6349 -1.5576
   19CHTO   O14 7950   4.254  -2.373  -2.067  0.4455  0.2322 -0.2989
   19CHTO   C23 7951   4.182  -2.310  -1.956 -0.5384  0.8272  0.1159
   19CHTO   H51 7952   4.208  -2.374  -1.871  3.5565  1.5493 -0.4986
   19CHTO   C34 7953   4.036  -2.323  -2.001  0.7222  1.2464  0.5372
   19CHTO   O23 7954   3.948  -2.272  -1.904 -0.4283 -0.1527 -0.3202
   19CHTO   H38 7955   3.872  -2.327  -1.896 -0.0206 -0.8038 -0.8889
   19CHTO   O16 7956   4.449  -2.444  -2.159  0.6047  0.4376  0.7569
   19CHTO   C24 7957   4.450  -2.589  -2.144 -0.1658 -0.2758  0.3759
   19CHTO   H52 7958   4.397  -2.624  -2.055 -3.5465 -4.4791 -3.0096
   19CHTO   C26 7959   4.598  -2.629  -2.140 -0.3391  0.3085  0.3195
   19CHTO   H54 7960   4.646  -2.593  -2.233  0.4816 -0.8719  0.2743
   19CHTO   O20 7961   4.652  -2.557  -2.030  0.3050 -0.5041  0.0427
   19CHTO   H36 7962   4.729  -2.516  -2.064  0.8280  0.2285  2.0538
   19CHTO   C30 7963   4.614  -2.784  -2.127 -0.4200  0.2912  0.2973
   19CHTO   H58 7964   4.572  -2.818  -2.031 -0.5348  1.0501  0.5215
   19CHTO    N6 7965   4.760  -2.818  -2.119 -0.3274 -0.1339 -0.3084
   19CHTO   H45 7966   4.768  -2.918  -2.079 -2.1103  0.8864  2.7838
   19CHTO   H46 7967   4.801  -2.811  -2.218 -0.8271 -0.4470 -0.5398
   19CHTO   C33 7968   4.545  -2.844  -2.253  0.0297 -0.1698  0.4112
   19CHTO   H61 7969   4.591  -2.800  -2.343 -1.1915  2.0293  0.8192
   19CHTO   O18 7970   4.407  -2.799  -2.256 -0.2107  0.1118 -0.2430
   19CHTO   C28 7971   4.382  -2.660  -2.257 -0.5423  0.4431  0.3741
   19CHTO   H56 7972   4.414  -2.612  -2.349  1.1731  0.1274  0.7903
   19CHTO   C35 7973   4.230  -2.644  -2.251  0.6619  0.0049  0.1806
   19CHTO   O24 7974   4.170  -2.660  -2.381 -0.1961  0.0286 -0.0482
   19CHTO   H39 7975   4.122  -2.739  -2.394  2.2184 -1.4076 -0.6800
   19CHTO    O9 7976   4.553  -2.988  -2.270 -0.2639  0.7880  0.7803
   19CHTO   C13 7977   4.485  -3.045  -2.414 -0.0251  0.2350  0.5997
   19CHTO   H26 7978   4.531  -2.989  -2.497  0.5083 -2.1290 -0.7646
   19CHTO   C11 7979   4.326  -3.024  -2.415 -0.9655 -0.3579 -0.1996
   19CHTO   H24 7980   4.304  -2.921  -2.449  0.6076  0.7294  1.9384
   19CHTO    O8 7981   4.274  -3.050  -2.287 -0.6756  0.2312 -0.0748
   19CHTO    H3 7982   4.295  -2.988  -2.219 -1.5899 -1.4087  1.7671
   19CHTO    C9 7983   4.266  -3.124  -2.518 -0.4387  0.7934  0.5739
   19CHTO   H22 7984   4.318  -3.102  -2.613 -0.8797 -1.2646 -0.1620
   19CHTO    N2 7985   4.128  -3.090  -2.545  0.1328  0.1635 -1.0374
   19CHTO   H10 7986   4.115  -2.986  -2.573  0.2719  1.3144  2.8932
   19CHTO   H11 7987   4.080  -3.150  -2.621 -1.1295 -0.3624  0.1422
   19CHTO    C7 7988   4.295  -3.278  -2.481  0.1230 -0.7671  0.2875
   19CHTO   H20 7989   4.246  -3.336  -2.562 -1.4331  2.0925 -0.8811
   19CHTO    O4 7990   4.436  -3.305  -2.484  0.2012 -0.0930 -0.2967
   19CHTO   C14 7991   4.525  -3.206  -2.428 -0.3592  0.3592  0.1555
   19CHTO   H27 7992   4.621  -3.207  -2.484 -0.5642  0.1731 -0.1938
   19CHTO   C18 7993   4.557  -3.259  -2.290 -0.5910  0.3387  0.3276
   19CHTO   O13 7994   4.638  -3.376  -2.303  0.0550 -0.0308  0.3795
   19CHTO    H7 7995   4.692  -3.378  -2.226  1.4084 -2.4474 -0.5719
   19CHTO    O2 7996   4.235  -3.334  -2.335 -0.1059  0.1283 -0.2158
   19CHTO    C1 7997   4.163  -3.455  -2.332 -0.2980 -0.6748 -0.8319
   19CHTO   H14 7998   4.216  -3.522  -2.403  2.4930  1.0495 -0.4678
   19CHTO    C2 7999   4.013  -3.450  -2.365 -0.0014 -0.1964  0.0627
   19CHTO   H15 8000   3.974  -3.359  -2.319 -2.2164 -1.1740  0.1683
   19CHTO    O6 8001   4.002  -3.432  -2.506 -0.3520  0.2225 -0.1676
   19CHTO    H1 8002   3.913  -3.415  -2.529 -0.7422  0.4030  1.4159
   19CHTO    C3 8003   3.931  -3.590  -2.325 -0.1847 -0.3706  0.3282
   19CHTO   H16 8004   3.962  -3.673  -2.390  0.3777 -0.7214  1.0372
   19CHTO    N1 8005   3.786  -3.578  -2.362 -0.1480  0.3114  0.1435
   19CHTO    H8 8006   3.773  -3.586  -2.469 -0.3570  2.6548 -0.0376
   19CHTO    H9 8007   3.721  -3.649  -2.313 -0.2792 -0.9265 -1.7905
   19CHTO    C4 8008   3.974  -3.628  -2.180 -0.3643 -0.7285 -0.0496
   19CHTO   H17 8009   3.941  -3.553  -2.108  0.9561  0.0923 -0.2837
   19CHTO    O1 8010   4.115  -3.643  -2.177 -0.9930 -0.3307 -0.4456
   19CHTO    C5 8011   4.184  -3.518  -2.185  0.3492  0.2935 -0.3671
   19CHTO   H18 8012   4.136  -3.460  -2.107 -2.4774 -1.2273 -0.9127
   19CHTO   C16 8013   4.336  -3.540  -2.152  0.4845  0.2698 -0.2381
   19CHTO   O11 8014   4.360  -3.608  -2.029  0.3659 -0.5892 -0.1534
   19CHTO    H5 8015   4.380  -3.695  -2.055 -0.8833 -0.6653 -0.9096
   19CHTO    O3 8016   3.921  -3.756  -2.142  0.9871  0.0773 -0.0228
   19CHTO    C6 8017   3.931  -3.789  -2.001  0.0069 -0.0197  0.6096
   19CHTO   H19 8018   3.995  -3.719  -1.947 -1.3705  1.7997 -0.0918
   19CHTO    C8 8019   3.797  -3.784  -1.920 -0.1303 -0.5794  0.2964
   19CHTO   H21 8020   3.727  -3.859  -1.956  2.3026 -1.8929 -1.8585
   19CHTO    O7 8021   3.735  -3.651  -1.927 -0.1480  0.0578  0.0494
   19CHTO    H2 8022   3.789  -3.587  -1.883  0.7025 -0.2007 -0.6054
   19CHTO   C12 8023   3.831  -3.816  -1.770 -0.7143 -0.2285 -0.5212
   19CHTO   H25 8024   3.904  -3.738  -1.742 -1.6795  1.0754 -1.5940
   19CHTO    N3 8025   3.709  -3.807  -1.679 -0.3036  0.3101  0.0992
   19CHTO   H12 8026   3.721  -3.857  -1.584 -2.8587 -0.4417  0.0661
   19CHTO   H13 8027   3.692  -3.701  -1.669  2.5320  0.8822 -0.7148
   19CHTO   C15 8028   3.892  -3.958  -1.772  0.7792 -1.0529 -0.1218
   19CHTO   H28 8029   3.826  -4.035  -1.811  0.5343 -1.0084  0.1976
   19CHTO   O10 8030   3.928  -4.022  -1.624 -0.4561  0.3418  0.0710
   19CHTO    H4 8031   3.869  -4.000  -1.555 -0.2777 -0.9555  0.6506
   19CHTO    O5 8032   4.011  -3.956  -1.850 -0.2889  0.0350  0.1143
   19CHTO   C10 8033   3.987  -3.929  -1.992 -0.5908  0.1615 -0.4435
   19CHTO   H23 8034   3.916  -4.005  -2.024  0.4756 -0.6160 -1.0086
   19CHTO   C17 8035   4.126  -3.936  -2.062  0.1823  0.1627 -0.2637
   19CHTO   O12 8036   4.175  -4.072  -2.060  0.5499 -0.4332  0.2660
   19CHTO    H6 8037   4.154  -4.112  -2.142  0.3919  2.4089 -1.1015
   20CHTO  H203 8038   4.887   0.774   2.495  0.9765  1.2593 -0.4699
   20CHTO   O82 8039   4.861   0.851   2.542 -0.0888  0.2708  0.5925
   20CHTO  C123 8040   4.885   0.978   2.465  0.0386 -0.4421 -0.0924
   20CHTO  H227 8041   4.800   1.046   2.472  1.4399  1.5942 -2.2222
   20CHTO   O77 8042   4.999   1.040   2.531 -0.0775 -0.1758 -0.2481
   20CHTO  C118 8043   5.020   1.178   2.489  0.9458 -0.0316  0.2037
   20CHTO  H222 8044   4.927   1.225   2.524 -0.1468 -1.0110 -1.3018
   20CHTO  C125 8045   5.143   1.235   2.571  0.3038  0.0243 -0.5762
   20CHTO   O84 8046   5.267   1.185   2.524 -0.8910 -0.0573  0.7211
   20CHTO  H205 8047   5.308   1.111   2.566 -0.8590  0.4939  1.6825
   20CHTO  C114 8048   5.034   1.185   2.335 -0.4314  0.2066  0.4451
   20CHTO  H218 8049   5.129   1.142   2.306 -0.5093 -0.2501  0.8573
   20CHTO  C116 8050   4.915   1.110   2.256 -0.7604 -0.4241  0.1559
   20CHTO  H220 8051   4.820   1.162   2.280 -0.1381  0.9153 -0.2112
   20CHTO   O79 8052   4.954   1.127   2.117  0.1118  0.1373  0.4688
   20CHTO  H201 8053   4.878   1.119   2.063  1.2724 -1.8846 -0.9709
   20CHTO  C120 8054   4.904   0.961   2.303 -0.0765 -0.4509  0.5801
   20CHTO  H224 8055   5.001   0.908   2.284 -1.1721 -1.9133 -1.1099
   20CHTO   N21 8056   4.792   0.892   2.229 -0.3324 -0.0549  0.3888
   20CHTO  H211 8057   4.825   0.836   2.143  0.3256  1.0043 -0.0623
   20CHTO  H212 8058   4.725   0.836   2.293 -0.9876 -0.5133 -0.6856
   20CHTO   O75 8059   5.048   1.324   2.298  0.4544  0.8492 -0.0155
   20CHTO  C112 8060   5.144   1.359   2.203  1.1371  0.4340 -0.5846
   20CHTO  H216 8061   5.128   1.294   2.116  0.8244  2.3442 -1.9887
   20CHTO   O73 8062   5.278   1.347   2.262  0.6921 -0.4202 -0.2607
   20CHTO  C113 8063   5.390   1.361   2.173  0.1271 -0.1223  0.6600
   20CHTO  H217 8064   5.372   1.291   2.089 -0.3009  0.0133  0.6334
   20CHTO  C124 8065   5.528   1.323   2.229 -0.2467  0.5575 -0.6084
   20CHTO   O83 8066   5.579   1.411   2.334 -0.7075  0.2053  0.4051
   20CHTO  H204 8067   5.556   1.499   2.310  0.3604  0.4303  0.2005
   20CHTO  C109 8068   5.388   1.512   2.123 -0.3455 -0.1558  0.3377
   20CHTO  H213 8069   5.410   1.574   2.211 -0.4834  0.9583 -0.3970
   20CHTO  C110 8070   5.250   1.550   2.057  0.4820  0.2519 -0.4427
   20CHTO  H214 8071   5.238   1.503   1.959 -0.0636  3.0482 -1.7737
   20CHTO   O78 8072   5.255   1.693   2.028 -0.3821  0.0470  0.0846
   20CHTO  H200 8073   5.211   1.740   2.096 -0.2747  1.2642 -0.6723
   20CHTO  C111 8074   5.131   1.512   2.156 -0.5148  0.3704 -0.1149
   20CHTO  H215 8075   5.135   1.576   2.245 -2.4555  0.3191  0.0185
   20CHTO   N19 8076   5.000   1.541   2.089 -0.1803  0.1482 -0.4364
   20CHTO  H207 8077   5.017   1.620   2.017  0.3183  0.6666  0.2471
   20CHTO  H208 8078   4.929   1.555   2.169 -0.5582  0.2706 -0.7928
   20CHTO   O74 8079   5.499   1.525   2.028 -0.3032 -0.0937  0.5708
   20CHTO  C115 8080   5.589   1.681   2.030  0.1673 -0.0592 -0.4383
   20CHTO  H219 8081   5.544   1.752   2.100 -1.4642 -0.1290 -1.3767
   20CHTO   O76 8082   5.745   1.659   2.090  0.5893  0.5426  0.2965
   20CHTO  C122 8083   5.824   1.611   1.987  0.6139 -0.0263 -0.1303
   20CHTO  H226 8084   5.774   1.522   1.948  1.6997 -0.8085  0.2431
   20CHTO  C126 8085   5.959   1.558   2.055  0.5915  0.4628  0.0314
   20CHTO   O85 8086   5.932   1.459   2.155 -0.6919  0.7604  1.0489
   20CHTO  H206 8087   5.890   1.506   2.224 -1.6541  2.1172 -0.4194
   20CHTO  C121 8088   5.850   1.719   1.877  0.3278 -0.1027  0.0795
   20CHTO  H225 8089   5.924   1.795   1.910 -0.0983 -0.0404  0.8977
   20CHTO   O81 8090   5.912   1.664   1.766 -0.6356  0.2233  0.2027
   20CHTO  H202 8091   5.870   1.585   1.738  0.1379 -0.2910  0.4763
   20CHTO  C119 8092   5.724   1.801   1.842  0.4087  0.2099 -0.0365
   20CHTO  H223 8093   5.726   1.885   1.911 -2.0760  2.1915 -2.2182
   20CHTO  C117 8094   5.584   1.726   1.871  0.1670  0.3446  0.1055
   20CHTO  H221 8095   5.569   1.633   1.815  2.1496 -0.5763  1.0393
   20CHTO   N20 8096   5.467   1.804   1.842  0.4220  0.0087 -0.2135
   20CHTO  H209 8097   5.469   1.880   1.918 -0.1810 -1.1935  1.0323
   20CHTO  H210 8098   5.468   1.850   1.744 -1.3238  2.8049  1.0080
   20CHTO   O80 8099   5.739   1.880   1.705  0.1062 -0.0383  0.3956
   20CHTO  C103 8100   5.712   1.823   1.558 -0.5660 -0.3693  0.1360
   20CHTO  H190 8101   5.804   1.814   1.501 -0.8996  1.1834 -0.6919
   20CHTO  C101 8102   5.637   1.691   1.525 -0.0401 -0.1795  0.3441
   20CHTO  H188 8103   5.549   1.674   1.587 -0.5145  0.9648  0.0068
   20CHTO   O68 8104   5.726   1.569   1.547 -0.1405 -0.6044  0.0881
   20CHTO  H168 8105   5.735   1.557   1.640  0.9385 -0.8517 -0.0461
   20CHTO   C99 8106   5.597   1.689   1.369  0.1654  0.3467  0.1287
   20CHTO  H186 8107   5.690   1.679   1.309 -2.3421  0.0237 -3.8246
   20CHTO   N17 8108   5.510   1.574   1.331 -0.1794  0.4463 -0.2463
   20CHTO  H174 8109   5.511   1.558   1.224  1.0333 -1.2547 -0.0068
   20CHTO  H175 8110   5.552   1.484   1.374 -0.3624  1.1044  1.3534
   20CHTO   C97 8111   5.525   1.817   1.319 -0.2036 -0.0946 -0.7378
   20CHTO  H184 8112   5.425   1.828   1.364  0.5917  0.5740  0.9227
   20CHTO   O64 8113   5.611   1.930   1.346  1.0890  0.8137  0.2205
   20CHTO  C104 8114   5.624   1.942   1.492  0.2214 -0.3528 -0.5801
   20CHTO  H191 8115   5.525   1.940   1.536  0.6681 -1.4023  0.3929
   20CHTO  C108 8116   5.681   2.084   1.525 -0.0928  0.2143  0.1823
   20CHTO   O71 8117   5.596   2.193   1.477 -0.1116 -0.1135  0.3695
   20CHTO  H171 8118   5.546   2.240   1.542  0.9905  1.1075  0.3439
   20CHTO   O62 8119   5.530   1.812   1.172  0.0827 -0.4297  0.3301
   20CHTO   C91 8120   5.443   1.915   1.120  0.2461 -0.0160  0.2412
   20CHTO  H178 8121   5.419   1.990   1.196 -2.1187 -0.1947 -0.2805
   20CHTO   C92 8122   5.310   1.852   1.082  0.2260  0.5574 -0.4673
   20CHTO  H179 8123   5.333   1.764   1.020  0.1385  0.5091 -0.4311
   20CHTO   O66 8124   5.235   1.803   1.197  0.2516  0.3663  0.0671
   20CHTO  H166 8125   5.280   1.731   1.237  0.7161 -0.0507 -1.1704
   20CHTO   C93 8126   5.208   1.951   0.995  0.1940  0.0807 -0.6736
   20CHTO  H180 8127   5.159   2.016   1.068  0.4829 -1.3164  0.7982
   20CHTO   N16 8128   5.098   1.874   0.927  0.4855 -0.5081  0.1483
   20CHTO  H172 8129   5.001   1.890   0.971  1.2895  1.5790  1.2661
   20CHTO  H173 8130   5.126   1.770   0.916 -0.2060 -0.3751 -3.4561
   20CHTO   C94 8131   5.287   2.041   0.888 -0.0710 -0.1357  0.1699
   20CHTO  H181 8132   5.328   1.982   0.806  3.2452  2.0652  0.1066
   20CHTO   O61 8133   5.411   2.092   0.942  0.0813  0.1671  0.0622
   20CHTO   C95 8134   5.500   1.998   0.996  0.0870  0.3476 -0.2637
   20CHTO  H182 8135   5.516   1.922   0.919 -0.4350 -0.1324  0.1021
   20CHTO  C106 8136   5.626   2.074   1.052  0.0643  0.0908  0.2432
   20CHTO   O69 8137   5.593   2.197   1.114  0.1978  0.2127 -0.0989
   20CHTO  H169 8138   5.672   2.240   1.142  0.4859  1.1953 -2.2788
   20CHTO   O63 8139   5.205   2.177   0.864 -0.5675 -0.3049  0.5202
   20CHTO   C96 8140   5.217   2.219   0.712  0.1290  0.7863 -0.4686
   20CHTO  H183 8141   5.223   2.123   0.661 -0.9895  0.0500  0.7564
   20CHTO   C98 8142   5.337   2.305   0.682  0.2109  0.1128 -0.1705
   20CHTO  H185 8143   5.342   2.397   0.741 -1.0665  0.9690 -1.3491
   20CHTO   O67 8144   5.460   2.235   0.714  0.0394 -0.0087  0.0670
   20CHTO  H167 8145   5.532   2.294   0.720 -0.9073  1.1784 -0.0841
   20CHTO  C102 8146   5.320   2.348   0.524 -0.1508  0.5847  0.2296
   20CHTO  H189 8147   5.334   2.253   0.471 -1.0617 -0.0116  1.0352
   20CHTO   N18 8148   5.418   2.453   0.480  0.6604  0.8520 -0.4448
   20CHTO  H176 8149   5.501   2.410   0.425  1.3607  2.0050 -0.2975
   20CHTO  H177 8150   5.439   2.516   0.564 -2.6801  0.3742  0.8072
   20CHTO  C105 8151   5.176   2.406   0.495 -0.6377  0.9365 -0.7344
   20CHTO  H192 8152   5.156   2.495   0.554 -0.6849  0.3173  0.2044
   20CHTO   O65 8153   5.081   2.301   0.531  0.3266  0.2753  0.4278
   20CHTO  C100 8154   5.080   2.282   0.670 -0.2595 -0.1382  0.0529
   20CHTO  H187 8155   5.070   2.380   0.720  0.4583 -0.1861  0.2955
   20CHTO  C107 8156   4.959   2.191   0.692 -0.0808  0.1724 -0.6711
   20CHTO   O70 8157   4.965   2.060   0.636  0.2095  0.6106 -0.2894
   20CHTO  H170 8158   4.914   2.033   0.562  1.8075  2.6078 -2.1933
   20CHTO   O57 8159   5.156   2.424   0.332  0.1212  0.4169  0.3399
   20CHTO   C85 8160   5.062   2.518   0.280 -0.1883  0.2319 -0.3430
   20CHTO  H157 8161   5.035   2.575   0.371 -0.1773  0.9643 -0.7996
   20CHTO   C83 8162   4.938   2.439   0.225  0.5402  0.7028 -0.7274
   20CHTO  H155 8163   4.890   2.393   0.310  1.4520  0.3949 -0.3697
   20CHTO   O56 8164   4.979   2.327   0.141 -0.7125  0.6003  0.0607
   20CHTO  H135 8165   4.918   2.307   0.072 -0.3809  2.7243 -0.8835
   20CHTO   C81 8166   4.842   2.540   0.157  0.1016  0.0693  0.1548
   20CHTO  H153 8167   4.824   2.620   0.229  4.1231 -0.4760  1.9519
   20CHTO   N14 8168   4.713   2.477   0.131 -0.1201  0.2949 -0.0393
   20CHTO  H141 8169   4.706   2.372   0.152 -0.5336  0.3277 -0.0067
   20CHTO  H142 8170   4.627   2.533   0.161 -0.6874  0.1064 -1.3062
   20CHTO   C79 8171   4.916   2.604   0.032  0.5920  0.3084 -0.2988
   20CHTO  H151 8172   4.847   2.675  -0.014 -0.3920 -0.6628 -0.3643
   20CHTO   O52 8173   5.025   2.680   0.079 -0.1515  0.2457  0.0424
   20CHTO   C86 8174   5.119   2.613   0.164 -0.2136 -0.1791 -0.3237
   20CHTO  H158 8175   5.171   2.551   0.088 -1.3949 -1.6208  0.0343
   20CHTO   C90 8176   5.222   2.704   0.226 -0.2631 -0.0513  0.0343
   20CHTO   O60 8177   5.321   2.749   0.135  0.4752  0.3173  0.4027
   20CHTO  H138 8178   5.393   2.777   0.188  0.7941  0.2262  0.0228
   20CHTO   O50 8179   4.951   2.511  -0.076  0.3073 -0.5174 -0.1206
   20CHTO   C73 8180   5.000   2.513  -0.207  0.1560  0.2603  0.5787
   20CHTO  H145 8181   5.108   2.531  -0.199 -0.0311  2.2056 -0.9109
   20CHTO   C74 8182   4.943   2.621  -0.304  0.5660 -0.0935  0.3506
   20CHTO  H146 8183   4.957   2.718  -0.254  0.6737  0.6453 -1.1149
   20CHTO   O54 8184   5.031   2.616  -0.420  0.2466  0.9334  0.2188
   20CHTO  H133 8185   4.989   2.621  -0.504 -1.9285 -1.2875  1.1109
   20CHTO   C75 8186   4.788   2.597  -0.334 -0.2141 -0.3553 -0.2745
   20CHTO  H147 8187   4.742   2.603  -0.234  0.8032 -1.3992  0.2696
   20CHTO   N13 8188   4.733   2.696  -0.431  0.5760  0.1013  0.0032
   20CHTO  H139 8189   4.641   2.669  -0.479  1.5215 -1.1751 -1.1254
   20CHTO  H140 8190   4.808   2.721  -0.505 -0.4415  1.7603 -0.4820
   20CHTO   C76 8191   4.763   2.443  -0.373 -0.9513  1.0726  0.2998
   20CHTO  H148 8192   4.795   2.435  -0.477  0.6887  1.5731  0.7478
   20CHTO   O49 8193   4.830   2.348  -0.272 -0.2702 -0.1219 -0.0488
   20CHTO   C77 8194   4.974   2.370  -0.267  0.9793  0.1805  0.1619
   20CHTO  H149 8195   5.011   2.368  -0.369 -0.0169 -3.4326 -0.1976
   20CHTO   C88 8196   5.038   2.260  -0.180 -0.0201 -0.6884 -0.4723
   20CHTO   O58 8197   5.037   2.121  -0.237  0.0968 -0.3837  0.4363
   20CHTO  H136 8198   5.045   2.134  -0.330  1.4063  1.8217  0.8213
   20CHTO   O51 8199   4.596   2.407  -0.346  0.3580 -0.3190  0.0880
   20CHTO   C78 8200   4.544   2.343  -0.202  0.3048 -0.2525 -0.6520
   20CHTO  H150 8201   4.617   2.371  -0.124  0.3558  0.2896 -0.8952
   20CHTO   C80 8202   4.526   2.191  -0.207  0.0167  0.2857 -0.1761
   20CHTO  H152 8203   4.453   2.168  -0.286 -2.8974 -1.7495  2.9850
   20CHTO   O55 8204   4.655   2.139  -0.245  0.4235 -0.5179 -0.1708
   20CHTO  H134 8205   4.681   2.174  -0.328  0.7549  2.2109  1.0285
   20CHTO   C84 8206   4.478   2.137  -0.060  1.0288 -0.0141  0.2286
   20CHTO  H156 8207   4.546   2.177   0.015  1.0773  0.2289  0.0536
   20CHTO   N15 8208   4.462   1.987  -0.049  0.5207  0.1036 -0.0615
   20CHTO  H143 8209   4.560   1.950  -0.027  0.1412 -1.5798 -1.0813
   20CHTO  H144 8210   4.401   1.962   0.035  0.5772 -0.4590 -0.1868
   20CHTO   C87 8211   4.343   2.210  -0.027  0.4160 -0.4345 -0.5074
   20CHTO  H159 8212   4.267   2.187  -0.101 -1.0320 -0.8231  1.0767
   20CHTO   O53 8213   4.373   2.362  -0.028  0.4647 -0.7957 -0.4409
   20CHTO   C82 8214   4.401   2.398  -0.162 -0.1567 -0.3074 -0.0282
   20CHTO  H154 8215   4.330   2.351  -0.230  0.0773 -0.8298  0.0885
   20CHTO   C89 8216   4.392   2.549  -0.180 -0.3687 -0.4159  0.0217
   20CHTO   O59 8217   4.421   2.599  -0.312  0.4965 -0.2665  0.1625
   20CHTO  H137 8218   4.356   2.568  -0.371  0.3728  0.5783 -0.1501
   20CHTO   O45 8219   4.290   2.166   0.138 -0.6879  0.0163 -0.1514
   20CHTO   C67 8220   4.346   2.247   0.245  0.4404 -0.4952 -0.1874
   20CHTO  H124 8221   4.444   2.282   0.213 -0.6078 -0.2867 -3.2914
   20CHTO   C65 8222   4.260   2.379   0.277 -0.2299 -1.3054  0.6986
   20CHTO  H122 8223   4.181   2.375   0.202  0.4119  0.7127 -0.1060
   20CHTO   O44 8224   4.338   2.495   0.259 -0.0993 -0.0566  0.3548
   20CHTO  H102 8225   4.393   2.485   0.184 -1.2198 -2.8788 -0.1527
   20CHTO   C63 8226   4.177   2.381   0.408  0.3659 -0.3024  0.0839
   20CHTO  H120 8227   4.098   2.307   0.396  0.8990 -0.5397 -2.2722
   20CHTO   N11 8228   4.094   2.503   0.437 -0.4298  0.0523  0.1892
   20CHTO  H108 8229   4.157   2.587   0.457  0.1396 -0.7966  2.1412
   20CHTO  H109 8230   4.014   2.513   0.367  1.8615  0.0669 -2.5439
   20CHTO   C61 8231   4.271   2.339   0.525 -0.3065 -0.4574  0.2277
   20CHTO  H118 8232   4.202   2.284   0.591 -0.4501 -0.2314  0.2679
   20CHTO   O40 8233   4.373   2.253   0.490 -0.1124  0.3369 -0.1393
   20CHTO   C68 8234   4.368   2.167   0.377 -0.1831 -0.2726  0.0887
   20CHTO  H125 8235   4.284   2.095   0.392 -1.4928  1.3038  0.4343
   20CHTO   C72 8236   4.499   2.089   0.374 -0.3664  0.0454 -0.2512
   20CHTO   O48 8237   4.619   2.176   0.379  0.3818  0.0018  0.0976
   20CHTO  H105 8238   4.606   2.249   0.321 -1.6796  1.8528  2.7420
   20CHTO   O38 8239   4.341   2.440   0.600 -0.4354 -0.5277  0.1655
   20CHTO   C55 8240   4.379   2.410   0.733  0.1585  0.5840 -0.3351
   20CHTO  H112 8241   4.403   2.302   0.730 -0.6180  0.4268 -0.7482
   20CHTO   C56 8242   4.268   2.449   0.836 -0.0482 -0.3107 -1.3537
   20CHTO  H113 8243   4.246   2.556   0.832  0.0582 -0.2597 -0.5639
   20CHTO   O42 8244   4.146   2.382   0.801 -0.2791  0.4487  0.8258
   20CHTO  H100 8245   4.149   2.289   0.812 -1.3573  0.3655  0.4987
   20CHTO   C57 8246   4.307   2.417   0.987 -0.6391 -0.1875  0.6223
   20CHTO  H114 8247   4.301   2.309   1.004  0.7075 -0.3665 -0.0215
   20CHTO   N10 8248   4.219   2.482   1.092 -0.0284 -0.3478 -0.1760
   20CHTO  H106 8249   4.235   2.444   1.192 -1.6505 -2.3748 -0.6586
   20CHTO  H107 8250   4.114   2.487   1.069 -0.3318 -0.3824  1.1713
   20CHTO   C58 8251   4.462   2.462   1.009  0.4494 -0.0996 -0.4401
   20CHTO  H115 8252   4.468   2.569   1.036  0.6141 -0.0990 -0.4813
   20CHTO   O37 8253   4.546   2.425   0.900 -0.5262  0.1455  0.0621
   20CHTO   C59 8254   4.518   2.473   0.768  0.4279 -0.0875  0.1024
   20CHTO  H116 8255   4.533   2.581   0.768 -0.1792 -0.0003  0.7231
   20CHTO   C70 8256   4.626   2.420   0.679 -0.8209  0.6454  0.0664
   20CHTO   O46 8257   4.610   2.468   0.550 -0.1817 -0.0008  0.1255
   20CHTO  H103 8258   4.681   2.522   0.520 -0.6736 -0.7288 -2.3965
   20CHTO   O39 8259   4.517   2.375   1.144 -0.2546 -0.2631  0.1665
   20CHTO   C60 8260   4.645   2.404   1.202  0.4006  0.2843 -0.7336
   20CHTO  H117 8261   4.714   2.466   1.145 -0.6413  2.3893  0.2362
   20CHTO   C62 8262   4.624   2.492   1.330  0.9404  0.0976 -0.6205
   20CHTO  H119 8263   4.596   2.595   1.298  0.6419 -0.4334 -2.1405
   20CHTO   O43 8264   4.512   2.473   1.417  0.5077 -0.1373 -0.3449
   20CHTO  H101 8265   4.490   2.383   1.432 -1.9111  0.3289 -0.9387
   20CHTO   C66 8266   4.768   2.512   1.409 -0.6079  0.4254  0.3190
   20CHTO  H123 8267   4.836   2.558   1.337 -0.7040  1.5359  0.9407
   20CHTO   N12 8268   4.775   2.601   1.527  0.3851 -0.0128 -0.9196
   20CHTO  H110 8269   4.776   2.705   1.501  0.4282  0.6525  1.6084
   20CHTO  H111 8270   4.734   2.566   1.620  2.3434 -0.2726 -0.1330
   20CHTO   C69 8271   4.831   2.369   1.445  0.6592  0.0294  0.0967
   20CHTO  H126 8272   4.761   2.315   1.511  2.1251 -2.2829 -0.1822
   20CHTO   O41 8273   4.840   2.286   1.315 -0.0382  0.4194 -0.0646
   20CHTO   C64 8274   4.718   2.271   1.231 -0.5572 -0.3654 -0.6392
   20CHTO  H121 8275   4.643   2.213   1.290  0.9574 -0.6055  1.0906
   20CHTO   C71 8276   4.747   2.203   1.095 -0.3257 -0.6615 -0.4295
   20CHTO   O47 8277   4.796   2.068   1.090 -0.0502 -0.2575 -0.5878
   20CHTO  H104 8278   4.881   2.062   1.050  0.3008  0.1573  0.1032
   20CHTO   O34 8279   4.975   2.372   1.505  0.0098 -0.6175 -0.1931
   20CHTO   C49 8280   5.059   2.217   1.535  0.2609  0.2479 -0.8992
   20CHTO   H91 8281   5.017   2.148   1.462  0.2056  1.3851 -1.9475
   20CHTO   C47 8282   5.016   2.165   1.671 -0.3449 -0.1641  0.2851
   20CHTO   H89 8283   4.914   2.120   1.664 -0.3674 -0.1445  0.4895
   20CHTO   O33 8284   5.014   2.278   1.763 -0.3928 -0.2012 -0.1130
   20CHTO   H70 8285   4.935   2.282   1.814  0.8919  2.8008  1.7676
   20CHTO   C45 8286   5.121   2.071   1.747 -0.0469 -0.0602 -0.5016
   20CHTO   H87 8287   5.193   2.136   1.798 -3.0297  0.4505  3.2613
   20CHTO    N8 8288   5.069   1.985   1.853  0.6826  0.1662 -0.4713
   20CHTO   H75 8289   5.010   1.903   1.814 -0.2230  0.5889  0.0131
   20CHTO   H76 8290   5.140   1.959   1.930 -0.2265  2.7053  1.2593
   20CHTO   C43 8291   5.210   1.994   1.645 -0.1887  0.8364  0.4506
   20CHTO   H85 8292   5.283   1.938   1.704 -1.4203 -1.3248 -0.0187
   20CHTO   O29 8293   5.278   2.093   1.560 -0.4958 -0.3252  0.5265
   20CHTO   C50 8294   5.212   2.212   1.508  0.2148 -0.7046  1.0436
   20CHTO   H92 8295   5.262   2.302   1.547 -1.8077 -0.2527  2.6719
   20CHTO   C54 8296   5.244   2.213   1.360 -1.0742  1.1547 -0.0757
   20CHTO   O36 8297   5.377   2.193   1.325  0.4488  0.2453  0.0314
   20CHTO   H72 8298   5.393   2.241   1.247  2.0840 -0.8024 -0.3100
   20CHTO   O27 8299   5.141   1.904   1.565  0.1345 -0.2875 -0.0453
   20CHTO   C37 8300   5.058   1.793   1.551  0.0951  0.3051 -0.2071
   20CHTO   H79 8301   5.012   1.779   1.650  0.2001  1.2379 -0.0206
   20CHTO   C38 8302   4.942   1.819   1.451 -0.5100  0.1391  0.7596
   20CHTO   H80 8303   4.985   1.880   1.371 -0.8916 -0.0527  0.4102
   20CHTO   O31 8304   4.845   1.892   1.520 -0.3911 -0.1750 -0.1094
   20CHTO   H68 8305   4.793   1.827   1.564 -0.4270 -0.4324 -0.5269
   20CHTO   C39 8306   4.868   1.694   1.385  0.0824  0.5398  0.2531
   20CHTO   H81 8307   4.812   1.635   1.457  0.0541 -0.3190 -0.4609
   20CHTO    N7 8308   4.769   1.738   1.271 -0.3534  1.4410  0.1529
   20CHTO   H73 8309   4.714   1.657   1.227  0.9529  0.6754 -0.0986
   20CHTO   H74 8310   4.733   1.840   1.276 -1.0955  1.1091  2.5168
   20CHTO   C40 8311   4.980   1.600   1.333 -0.4447 -0.1850  0.7831
   20CHTO   H82 8312   5.045   1.650   1.262  0.4044 -1.1483  0.8810
   20CHTO   O26 8313   5.056   1.559   1.451 -0.1095  1.1216  0.3319
   20CHTO   C41 8314   5.145   1.660   1.510 -0.3853 -0.2486  0.1747
   20CHTO   H83 8315   5.225   1.666   1.434 -0.5032 -2.3076 -0.1361
   20CHTO   C52 8316   5.215   1.609   1.638  0.0205  0.1497  0.0107
   20CHTO   O35 8317   5.302   1.485   1.608  0.2228 -0.3551 -0.8711
   20CHTO   H71 8318   5.379   1.520   1.568  0.4989  1.2265  0.9300
   20CHTO   O28 8319   4.932   1.478   1.279  0.2830 -0.8827 -0.5463
   20CHTO   C42 8320   5.030   1.392   1.207  0.3632  0.2781  0.8806
   20CHTO   H84 8321   4.961   1.309   1.192 -3.6577  3.2190  2.2526
   20CHTO   C44 8322   5.156   1.348   1.289  0.3036  0.6238  0.1423
   20CHTO   H86 8323   5.211   1.438   1.316 -0.1437  0.7132  0.7712
   20CHTO   O32 8324   5.128   1.281   1.415 -0.0281  0.1785 -0.0739
   20CHTO   H69 8325   5.179   1.325   1.480  1.7720 -1.9775  0.0228
   20CHTO   C48 8326   5.253   1.261   1.190 -0.3143 -0.1155 -0.8240
   20CHTO   H90 8327   5.214   1.166   1.154  0.3609 -0.5172 -0.5069
   20CHTO    N9 8328   5.382   1.226   1.261  0.4009 -0.4165  0.1420
   20CHTO   H77 8329   5.398   1.302   1.336  1.3862 -1.6791  1.2334
   20CHTO   H78 8330   5.391   1.129   1.306  2.5406 -1.4766 -2.4264
   20CHTO   C51 8331   5.279   1.345   1.061 -0.0174  0.0069 -0.6601
   20CHTO   H93 8332   5.326   1.441   1.081  2.6478 -1.2153 -0.6994
   20CHTO   O30 8333   5.149   1.359   1.000 -0.5062  0.7877 -0.4199
   20CHTO   C46 8334   5.068   1.455   1.066  0.2575  0.1936  0.2522
   20CHTO   H88 8335   5.123   1.546   1.092 -1.5580  0.7272  2.4128
   20CHTO   C53 8336   4.960   1.481   0.962 -0.5965 -0.3398 -0.6309
   20CHTO   O72 8337   4.871   1.592   0.985  0.0929  0.8234 -0.3630
   20CHTO  H199 8338   4.894   1.666   1.038  1.5773 -0.4837  0.8491
   20CHTO   O22 8339   5.361   1.279   0.958  0.2524 -0.0716 -0.0539
   20CHTO   C31 8340   5.454   1.338   0.861  0.3421 -0.9216  0.3762
   20CHTO   H59 8341   5.492   1.253   0.799 -2.6541 -2.5107  0.6206
   20CHTO   C29 8342   5.391   1.442   0.767 -0.2052  0.2156 -0.0156
   20CHTO   H57 8343   5.337   1.518   0.825 -2.5773 -1.2761 -0.2162
   20CHTO   O21 8344   5.289   1.379   0.691  0.0711 -0.1740  0.2584
   20CHTO   H37 8345   5.236   1.436   0.640  1.9161  1.8760  0.5326
   20CHTO   C27 8346   5.495   1.517   0.675  0.1553 -0.0806 -0.1280
   20CHTO   H55 8347   5.550   1.447   0.610  1.6307  0.9621 -0.0311
   20CHTO    N5 8348   5.438   1.619   0.589  0.2421  0.2091 -0.1045
   20CHTO   H43 8349   5.352   1.575   0.540 -0.6992 -1.8662  3.2916
   20CHTO   H44 8350   5.402   1.697   0.655  3.3796 -0.0052  1.9599
   20CHTO   C25 8351   5.621   1.572   0.765 -0.3762 -0.1622 -0.4516
   20CHTO   H53 8352   5.587   1.648   0.837 -0.9465 -1.4644  0.6730
   20CHTO   O17 8353   5.670   1.455   0.848  0.3435 -0.4643  0.8319
   20CHTO   C32 8354   5.577   1.398   0.938  0.1385  0.4232  0.0256
   20CHTO   H60 8355   5.544   1.469   1.013 -4.0279 -0.5360 -0.7593
   20CHTO   C36 8356   5.658   1.296   1.007  0.4711  0.4630  0.3843
   20CHTO   O25 8357   5.700   1.338   1.140  0.1629 -0.5442 -1.1177
   20CHTO   H40 8358   5.749   1.279   1.194 -2.2500 -1.9558 -0.4327
   20CHTO   O15 8359   5.735   1.612   0.675  0.8065  0.3183  0.3118
   20CHTO   C19 8360   5.805   1.729   0.623 -0.2042 -0.5319 -0.2906
   20CHTO   H47 8361   5.763   1.752   0.524  2.3664  0.0923 -1.2639
   20CHTO   C20 8362   5.791   1.860   0.712  0.0953  0.4242 -0.0862
   20CHTO   H48 8363   5.792   1.838   0.820  1.2240 -0.0748 -0.1951
   20CHTO   O19 8364   5.653   1.909   0.696 -0.1074 -0.0595 -0.3071
   20CHTO   H35 8365   5.600   1.839   0.730 -0.4392 -0.6505 -2.0085
   20CHTO   C21 8366   5.890   1.977   0.665  0.4204 -0.9697  0.8324
   20CHTO   H49 8367   5.859   2.014   0.567  0.2250  1.6535  1.8324
   20CHTO    N4 8368   5.886   2.100   0.742  0.6641 -0.3024  0.7598
   20CHTO   H41 8369   5.937   2.063   0.830 -0.8909 -1.1364  1.3277
   20CHTO   H42 8370   5.784   2.124   0.768 -0.2676 -0.4544 -2.5907
   20CHTO   C22 8371   6.037   1.920   0.647 -0.6789  0.4114 -1.2192
   20CHTO   H50 8372   6.061   1.878   0.745  1.3778  2.1306 -0.9437
   20CHTO   O14 8373   6.031   1.816   0.551  0.0064 -0.5466  0.0930
   20CHTO   C23 8374   5.958   1.695   0.597 -0.4722  0.2900  0.2837
   20CHTO   H51 8375   6.008   1.650   0.684 -1.5268 -0.0501  0.7292
   20CHTO   C34 8376   5.987   1.573   0.502 -0.3020  0.2182  0.2039
   20CHTO   O23 8377   6.122   1.512   0.502  0.3037  1.1511  0.1603
   20CHTO   H38 8378   6.185   1.575   0.471  0.4871  1.3482  0.9409
   20CHTO   O16 8379   6.137   2.017   0.609  0.0590 -0.7044  0.1077
   20CHTO   C24 8380   6.269   1.959   0.650  0.1895 -0.3471  0.3251
   20CHTO   H52 8381   6.262   1.852   0.670  2.2759 -0.4268  0.7895
   20CHTO   C26 8382   6.330   2.034   0.773  0.1557 -0.5502 -0.0123
   20CHTO   H54 8383   6.331   2.141   0.744  0.0013  0.0846  2.2335
   20CHTO   O20 8384   6.242   2.034   0.887 -0.4755 -0.2175  1.0096
   20CHTO   H36 8385   6.293   2.066   0.960  1.1941  2.2440 -1.1505
   20CHTO   C30 8386   6.474   1.973   0.805  0.3464  0.3236 -0.1690
   20CHTO   H58 8387   6.462   1.909   0.894  2.6840 -0.3921 -0.3320
   20CHTO    N6 8388   6.565   2.091   0.836 -0.2120  0.1652  0.0787
   20CHTO   H45 8389   6.536   2.180   0.782 -0.9218  0.3116  0.6996
   20CHTO   H46 8390   6.579   2.113   0.940 -1.2370 -1.2794  0.5413
   20CHTO   C33 8391   6.526   1.877   0.693 -0.0701 -0.9446  0.4687
   20CHTO   H61 8392   6.635   1.861   0.696  0.0401 -0.5082 -0.7136
   20CHTO   O18 8393   6.500   1.931   0.562 -0.1704 -0.5460 -0.6043
   20CHTO   C28 8394   6.364   1.971   0.534 -0.3721 -0.6776  0.2297
   20CHTO   H56 8395   6.354   2.075   0.501  2.2053 -0.6425 -0.4934
   20CHTO   C35 8396   6.320   1.892   0.409 -0.5854  0.4510 -0.2069
   20CHTO   O24 8397   6.392   1.938   0.290  0.1480 -0.5301  0.0684
   20CHTO   H39 8398   6.395   1.867   0.229 -1.3058 -1.7737  1.3970
   20CHTO    O9 8399   6.467   1.746   0.708 -0.6299 -0.9253 -0.1498
   20CHTO   C13 8400   6.531   1.642   0.820 -0.0742 -0.2772 -0.1449
   20CHTO   H26 8401   6.533   1.690   0.920 -1.6007 -1.8839  0.6877
   20CHTO   C11 8402   6.673   1.596   0.782 -0.0914 -0.2452 -0.1032
   20CHTO   H24 8403   6.739   1.679   0.812 -1.9484  1.1535  0.1926
   20CHTO    O8 8404   6.680   1.580   0.640 -0.2337  0.1706  0.0019
   20CHTO    H3 8405   6.634   1.651   0.599 -0.5309  1.0784  1.8292
   20CHTO    C9 8406   6.711   1.469   0.862  0.1130  0.2441  0.3808
   20CHTO   H22 8407   6.689   1.496   0.966  1.5917 -0.5766  0.9264
   20CHTO    N2 8408   6.857   1.439   0.861  0.9306  0.9704  0.0655
   20CHTO   H10 8409   6.873   1.340   0.821  0.0104  0.0304  1.9478
   20CHTO   H11 8410   6.898   1.445   0.961  0.3224 -1.5894  0.5057
   20CHTO    C7 8411   6.620   1.348   0.826 -0.0228 -0.0546  0.3211
   20CHTO   H20 8412   6.614   1.284   0.917 -0.5924 -1.5050 -0.7158
   20CHTO    O4 8413   6.492   1.393   0.784  0.7140 -0.6024  0.3223
   20CHTO   C14 8414   6.440   1.514   0.844  0.6891 -0.2532 -0.0970
   20CHTO   H27 8415   6.436   1.496   0.953 -0.8106 -0.4664 -0.1840
   20CHTO   C18 8416   6.295   1.528   0.792  0.4799  0.8509 -0.0539
   20CHTO   O13 8417   6.229   1.645   0.828 -0.6373 -0.4144  0.1246
   20CHTO    H7 8418   6.138   1.636   0.811 -0.4882 -5.4904  1.3220
   20CHTO    O2 8419   6.683   1.241   0.691  0.0480  0.4694  0.0849
   20CHTO    C1 8420   6.671   1.100   0.719  0.5452 -0.0455  0.7453
   20CHTO   H14 8421   6.615   1.087   0.815 -0.5581 -0.7919  0.0135
   20CHTO    C2 8422   6.818   1.036   0.734  0.0847  0.0490  0.3734
   20CHTO   H15 8423   6.873   1.063   0.643 -0.2430  1.5427  0.6209
   20CHTO    O6 8424   6.876   1.105   0.851 -0.1148 -0.6276 -0.5845
   20CHTO    H1 8425   6.969   1.114   0.841 -0.1557 -0.3750 -0.7321
   20CHTO    C3 8426   6.810   0.878   0.749 -0.2260 -0.4497 -1.0119
   20CHTO   H16 8427   6.763   0.867   0.848 -1.6567  3.9891 -1.1051
   20CHTO    N1 8428   6.948   0.816   0.749  0.3851 -0.1669  0.4185
   20CHTO    H8 8429   7.008   0.867   0.823 -0.3036 -0.1927  1.0117
   20CHTO    H9 8430   6.986   0.836   0.650  0.9766 -1.7053  0.3232
   20CHTO    C4 8431   6.706   0.808   0.653  0.2221  0.1734  0.1606
   20CHTO   H17 8432   6.749   0.800   0.553  0.1891  1.7465  0.0120
   20CHTO    O1 8433   6.580   0.882   0.652 -0.0303  0.2130  0.0169
   20CHTO    C5 8434   6.591   1.017   0.606  0.0545 -0.3404  0.2845
   20CHTO   H18 8435   6.644   1.032   0.512 -0.1239  0.9678  0.3714
   20CHTO   C16 8436   6.444   1.060   0.589 -0.5025 -0.5064 -0.4523
   20CHTO   O11 8437   6.419   1.185   0.527  0.0331  0.0682 -0.0066
   20CHTO    H5 8438   6.495   1.216   0.482 -0.0329  1.9506  1.1282
   20CHTO    O3 8439   6.671   0.673   0.692 -0.1213  0.1516 -0.1948
   20CHTO    C6 8440   6.585   0.601   0.590 -0.1843 -0.4346  0.4581
   20CHTO   H19 8441   6.560   0.657   0.500  0.4053  0.2341  0.6960
   20CHTO    C8 8442   6.663   0.484   0.528  0.1458  1.0560  0.8577
   20CHTO   H21 8443   6.708   0.428   0.609  0.8812  2.1529  1.2203
   20CHTO    O7 8444   6.766   0.542   0.443 -0.1878 -0.0822 -0.1559
   20CHTO    H2 8445   6.829   0.585   0.498 -3.2346  2.2127  1.6542
   20CHTO   C12 8446   6.579   0.378   0.446 -0.7427 -0.7268 -0.1905
   20CHTO   H25 8447   6.566   0.437   0.353  1.6788 -0.3573 -0.3238
   20CHTO    N3 8448   6.653   0.250   0.397  0.2971  0.1986 -1.1486
   20CHTO   H12 8449   6.736   0.270   0.330  2.0790 -0.1210  0.8895
   20CHTO   H13 8450   6.684   0.202   0.489 -0.7162  0.9591 -0.3972
   20CHTO   C15 8451   6.441   0.354   0.516  0.1259  0.2751 -0.2220
   20CHTO   H28 8452   6.464   0.297   0.606  1.8775  1.2763 -0.0073
   20CHTO   O10 8453   6.336   0.276   0.427  0.7158  0.0168  0.9934
   20CHTO    H4 8454   6.379   0.210   0.377 -1.7621 -1.0513  0.1826
   20CHTO    O5 8455   6.371   0.471   0.561 -0.5531 -0.1987 -0.2889
   20CHTO   C10 8456   6.453   0.544   0.649 -0.7404 -0.4039  0.5671
   20CHTO   H23 8457   6.484   0.490   0.739 -1.0835 -0.6925  0.5165
   20CHTO   C17 8458   6.352   0.650   0.701 -0.1928  0.4576  0.6811
   20CHTO   O12 8459   6.240   0.605   0.777  0.1025  0.0760  0.3551
   20CHTO    H6 8460   6.181   0.675   0.797 -0.1914  0.3198 -1.2602
   21GLOH   H03 8461   3.530   0.229   1.133 -2.2035  0.3954 -0.0766
   21GLOH    O1 8462   3.527   0.309   1.189 -0.5495  0.3254  0.1383
   21GLOH    C1 8463   3.392   0.359   1.194 -0.3351 -0.7147  0.1921
   21GLOH   H02 8464   3.363   0.369   1.298 -0.1199 -1.5283  0.3337
   21GLOH   H08 8465   3.333   0.275   1.159  1.3861 -2.3370  1.1040
   21GLOH    C2 8466   3.360   0.494   1.121  0.5708  0.5952 -0.2837
   21GLOH   H04 8467   3.404   0.571   1.185  4.5249 -1.0324 -0.8926
   21GLOH    O2 8468   3.430   0.484   0.999  1.0461 -0.2960  0.5988
   21GLOH   H05 8469   3.419   0.392   0.971  0.6847  0.2135 -0.9878
   21GLOH    C3 8470   3.206   0.511   1.094 -0.4182 -0.4056 -0.1079
   21GLOH   H06 8471   3.172   0.424   1.037 -1.5908  1.0129 -1.6014
   21GLOH   H07 8472   3.192   0.595   1.026  2.0658  0.6724  0.6491
   21GLOH    O3 8473   3.140   0.506   1.220  0.2759  0.1125  0.5543
   21GLOH   H01 8474   3.053   0.463   1.213  0.4530  0.1657 -2.9332
   22GLOH   H03 8475   3.247   0.225   1.626 -1.6775 -0.7580  0.3147
   22GLOH    O1 8476   3.284   0.174   1.700 -0.2195  0.0661  0.1660
   22GLOH    C1 8477   3.176   0.084   1.743 -0.0783 -0.4614 -0.0758
   22GLOH   H02 8478   3.157   0.001   1.674  0.2152 -2.7555  2.5345
   22GLOH   H08 8479   3.080   0.135   1.746 -0.3262 -0.9146 -0.1978
   22GLOH    C2 8480   3.197   0.009   1.872 -0.5366 -0.6788 -0.3708
   22GLOH   H04 8481   3.177   0.086   1.948  2.4902 -0.9230  0.7104
   22GLOH    O2 8482   3.103  -0.096   1.878 -0.2563  0.1381 -0.4838
   22GLOH   H05 8483   3.122  -0.147   1.958 -2.2987 -0.1577 -0.1544
   22GLOH    C3 8484   3.343  -0.040   1.881  0.6217  0.4711  0.5279
   22GLOH   H06 8485   3.346  -0.131   1.820 -0.3407  0.7620  0.0370
   22GLOH   H07 8486   3.366  -0.075   1.982  1.1614 -0.0330  0.2359
   22GLOH    O3 8487   3.445   0.056   1.837  0.3411 -0.6180  0.4943
   22GLOH   H01 8488   3.398   0.130   1.793 -1.0571 -0.1051  2.7706
   23GLOH   H03 8489   3.607   9.360   0.886 -0.6706  0.7691  1.0911
   23GLOH    O1 8490   3.580   9.279   0.933  0.1528 -0.2216 -0.1386
   23GLOH    C1 8491   3.616   9.292   1.072  0.5070  0.7751 -0.7047
   23GLOH   H02 8492   3.548   9.354   1.130 -0.6957 -1.7310  0.6680
   23GLOH   H08 8493   3.721   9.323   1.071  1.0352 -0.8386 -4.0940
   23GLOH    C2 8494   3.619   9.158   1.140 -0.4124  0.5411  0.0324
   23GLOH   H04 8495   3.691   9.087   1.097 -2.5117 -2.0999  0.6893
   23GLOH    O2 8496   3.647   9.160   1.280 -0.1742 -0.2835  0.1402
   23GLOH   H05 8497   3.585   9.222   1.321 -1.1568 -0.1514 -1.4782
   23GLOH    C3 8498   3.473   9.101   1.128 -0.8272 -0.1621 -0.1983
   23GLOH   H06 8499   3.469   9.010   1.187  2.1494 -0.4547 -0.3601
   23GLOH   H07 8500   3.448   9.081   1.024 -1.8922 -1.5278  0.3114
   23GLOH    O3 8501   3.377   9.188   1.191 -0.4008  0.0867  0.8170
   23GLOH   H01 8502   3.318   9.228   1.125 -0.2553 -0.3642  0.4115
   24GLOH   H03 8503   3.851   0.330   2.819 -1.7667 -2.5780 -1.8006
   24GLOH    O1 8504   3.851   0.297   2.911  0.2715  0.0596 -0.7991
   24GLOH    C1 8505   3.834   0.408   3.006 -0.3739 -0.0143  0.0878
   24GLOH   H02 8506   3.740   0.456   2.979 -2.0636 -1.7738  2.6026
   24GLOH   H08 8507   3.913   0.479   2.982 -1.2550  0.7474 -0.5938
   24GLOH    C2 8508   3.845   0.369   3.152  0.6659 -0.1426 -0.0355
   24GLOH   H04 8509   3.881   0.455   3.211 -0.4059 -1.7209  3.0064
   24GLOH    O2 8510   3.723   0.346   3.213 -0.6420  0.3855 -0.0722
   24GLOH   H05 8511   3.653   0.352   3.145 -1.2137  0.0838  0.4846
   24GLOH    C3 8512   3.927   0.238   3.169  0.2993 -1.1580  0.4544
   24GLOH   H06 8513   3.878   0.160   3.111 -0.8788  1.8983 -2.8035
   24GLOH   H07 8514   3.922   0.214   3.276  1.0939  2.3796  1.3549
   24GLOH    O3 8515   4.058   0.267   3.123  0.0028  0.3870 -0.2480
   24GLOH   H01 8516   4.057   0.273   3.026  0.0967  1.2241 -0.2013
   25GLOH   H03 8517   3.309   2.177   2.832  2.7861 -2.5184  1.6125
   25GLOH    O1 8518   3.280   2.095   2.789 -0.1558 -0.5788 -0.3026
   25GLOH    C1 8519   3.260   1.997   2.892  0.2798 -0.5392 -0.0973
   25GLOH   H02 8520   3.253   2.054   2.985  1.6910  1.1463 -0.9888
   25GLOH   H08 8521   3.354   1.942   2.891  0.7301  0.2230  0.1262
   25GLOH    C2 8522   3.143   1.900   2.863  0.7037 -0.7701  0.9623
   25GLOH   H04 8523   3.173   1.855   2.768 -3.1034 -1.0852 -0.1718
   25GLOH    O2 8524   3.147   1.804   2.974 -0.2019 -0.0788  0.2935
   25GLOH   H05 8525   3.174   1.714   2.953 -0.0489  0.0154  0.0923
   25GLOH    C3 8526   3.005   1.964   2.853  0.2042  0.1725  0.5688
   25GLOH   H06 8527   3.014   2.043   2.778  0.6997 -0.3000  0.1230
   25GLOH   H07 8528   2.986   2.022   2.943  4.1920  3.4890 -0.5640
   25GLOH    O3 8529   2.889   1.888   2.818 -0.2139 -0.3174  0.5703
   25GLOH   H01 8530   2.911   1.811   2.763 -2.6063 -0.7549  0.1683
   26GLOH   H03 8531   4.332   1.411   0.007  0.8955  2.1900 -1.4623
   26GLOH    O1 8532   4.394   1.435   0.078  0.2768  0.2130 -0.2301
   26GLOH    C1 8533   4.441   1.567   0.042 -0.2996  0.7849  0.6715
   26GLOH   H02 8534   4.361   1.635   0.072 -0.2616 -0.4166  3.6241
   26GLOH   H08 8535   4.450   1.575  -0.067 -0.4751 -0.6519  0.5469
   26GLOH    C2 8536   4.573   1.613   0.103  0.0255 -0.0645 -0.0749
   26GLOH   H04 8537   4.590   1.711   0.054  3.9617 -0.4292  0.3955
   26GLOH    O2 8538   4.566   1.635   0.245  0.5472  0.4613 -1.0817
   26GLOH   H05 8539   4.487   1.595   0.283  1.5796  0.1062  0.7451
   26GLOH    C3 8540   4.689   1.524   0.060 -0.5829 -0.1133 -0.7940
   26GLOH   H06 8541   4.779   1.564   0.106 -0.7170 -1.4803  0.7138
   26GLOH   H07 8542   4.705   1.550  -0.045  2.2144 -0.1967 -0.4194
   26GLOH    O3 8543   4.660   1.388   0.059  0.1266  1.4644  0.2079
   26GLOH   H01 8544   4.586   1.377   0.121  1.1678  0.4459  1.2958
   27GLOH   H03 8545   4.280   1.184   1.023  1.9821 -0.3522  0.8515
   27GLOH    O1 8546   4.247   1.117   1.086  0.0805 -0.3469 -0.0939
   27GLOH    C1 8547   4.109   1.141   1.114  0.6272  0.1136 -0.0317
   27GLOH   H02 8548   4.071   1.228   1.060  0.0637 -0.5360 -0.6981
   27GLOH   H08 8549   4.098   1.167   1.219  3.1703  1.3864 -0.0433
   27GLOH    C2 8550   4.031   1.018   1.072  0.7133  0.5109 -0.7024
   27GLOH   H04 8551   4.089   0.930   1.102 -0.0795  1.1346  2.8150
   27GLOH    O2 8552   3.908   1.016   1.135 -0.3268  0.1211  0.3554
   27GLOH   H05 8553   3.895   0.920   1.137 -2.3863  0.3748 -0.1832
   27GLOH    C3 8554   4.012   1.020   0.918  0.5148  0.0380 -0.3463
   27GLOH   H06 8555   3.951   1.106   0.893 -0.5187 -0.4958  0.2931
   27GLOH   H07 8556   3.951   0.935   0.887  0.8099  0.4666 -2.1341
   27GLOH    O3 8557   4.139   1.012   0.851 -0.3824 -1.1155  0.6657
   27GLOH   H01 8558   4.181   1.096   0.873 -1.3891 -0.6768  0.9580
   28GLOH   H03 8559   4.467   1.701   1.600  0.6085  0.8803  1.9848
   28GLOH    O1 8560   4.471   1.606   1.620 -0.6975  0.3673 -0.0764
   28GLOH    C1 8561   4.497   1.539   1.496 -0.4291 -0.1912  0.9332
   28GLOH   H02 8562   4.574   1.584   1.433 -0.2273  1.1650  2.1349
   28GLOH   H08 8563   4.402   1.551   1.443 -0.4951 -0.2507  1.0397
   28GLOH    C2 8564   4.534   1.389   1.498  0.2627 -0.0686  0.1849
   28GLOH   H04 8565   4.459   1.335   1.558 -0.2458  0.6687  0.2061
   28GLOH    O2 8566   4.542   1.334   1.366  0.0515 -0.1815 -0.5018
   28GLOH   H05 8567   4.453   1.314   1.331  0.9297 -0.8962 -2.3917
   28GLOH    C3 8568   4.674   1.370   1.548 -0.3875 -0.0741 -0.2848
   28GLOH   H06 8569   4.751   1.384   1.472  0.0310 -0.1506  0.1209
   28GLOH   H07 8570   4.679   1.265   1.577  0.2570  0.3924  1.3383
   28GLOH    O3 8571   4.710   1.441   1.671  0.0700  0.7312  0.6506
   28GLOH   H01 8572   4.672   1.522   1.711  1.2046  2.5159 -1.7790
   29GLOH   H03 8573   4.615   0.861   1.714 -2.3034 -0.4998  0.2278
   29GLOH    O1 8574   4.621   0.958   1.713  0.3854 -0.6154 -0.1150
   29GLOH    C1 8575   4.613   0.995   1.851  0.1609  0.7943  0.7733
   29GLOH   H02 8576   4.673   1.085   1.858  1.4689 -0.0018  0.0441
   29GLOH   H08 8577   4.669   0.921   1.909  1.3997  1.2045  0.1246
   29GLOH    C2 8578   4.468   1.006   1.898  0.2304  0.5775 -1.2125
   29GLOH   H04 8579   4.417   0.914   1.866 -2.2750  0.2741  3.1538
   29GLOH    O2 8580   4.447   1.029   2.039 -0.0430  0.4287 -0.0979
   29GLOH   H05 8581   4.358   1.006   2.071 -0.7960  0.1688 -2.2506
   29GLOH    C3 8582   4.415   1.133   1.825 -0.1054 -1.1827 -0.0990
   29GLOH   H06 8583   4.477   1.212   1.866 -0.5106 -0.1299 -1.4855
   29GLOH   H07 8584   4.311   1.156   1.847 -0.3709  1.4027 -3.6473
   29GLOH    O3 8585   4.425   1.120   1.685  0.3055  0.7101  0.5099
   29GLOH   H01 8586   4.513   1.085   1.662 -0.0653  0.1162 -0.0306
   30GLOH   H03 8587   3.563   0.076   2.015  2.6135  0.0035  0.4794
   30GLOH    O1 8588   3.556   0.042   2.106  0.4042 -0.2021  0.2454
   30GLOH    C1 8589   3.672  -0.022   2.150 -0.0783  0.6140  0.6210
   30GLOH   H02 8590   3.698  -0.103   2.081  0.4912  1.1797  0.1662
   30GLOH   H08 8591   3.667  -0.066   2.249  2.8090 -1.0145  0.1120
   30GLOH    C2 8592   3.784   0.076   2.146  0.3803  0.1015 -1.3984
   30GLOH   H04 8593   3.866   0.024   2.197 -0.9323  0.0127  0.6753
   30GLOH    O2 8594   3.815   0.117   2.018  0.0172 -0.1197 -0.1682
   30GLOH   H05 8595   3.762   0.073   1.950 -0.9716  0.0263  0.4963
   30GLOH    C3 8596   3.740   0.199   2.227  0.1478 -0.1214  0.1127
   30GLOH   H06 8597   3.654   0.249   2.184 -0.7850 -2.4606 -0.8205
   30GLOH   H07 8598   3.826   0.265   2.229  0.4576 -0.5435  1.6686
   30GLOH    O3 8599   3.723   0.168   2.367  0.7134 -0.0821 -0.7864
   30GLOH   H01 8600   3.637   0.204   2.395  0.8595 -1.9248  2.2570
   31GLOH   H03 8601   3.722   1.822   1.025 -0.6421 -1.6290 -0.3494
   31GLOH    O1 8602   3.729   1.812   0.929 -0.2792 -0.2956 -0.4700
   31GLOH    C1 8603   3.853   1.880   0.897  0.5526 -0.1021  0.9178
   31GLOH   H02 8604   3.891   1.841   0.802 -1.8887 -1.8292  0.5964
   31GLOH   H08 8605   3.929   1.858   0.971  2.6164  1.7294 -0.6072
   31GLOH    C2 8606   3.846   2.034   0.892 -0.4881  0.2845  0.7045
   31GLOH   H04 8607   3.770   2.064   0.817 -0.4225 -2.7311 -0.6361
   31GLOH    O2 8608   3.808   2.082   1.022 -0.0719 -0.0351  0.2120
   31GLOH   H05 8609   3.731   2.031   1.053  0.8578 -0.3569  2.1106
   31GLOH    C3 8610   3.981   2.094   0.854  0.1407 -0.4999 -0.6929
   31GLOH   H06 8611   4.065   2.056   0.912 -0.8182 -1.4337  0.1016
   31GLOH   H07 8612   3.983   2.200   0.881  1.5512 -0.7455  0.2364
   31GLOH    O3 8613   4.028   2.068   0.723 -0.1878 -0.1292 -0.1377
   31GLOH   H01 8614   3.986   2.138   0.669 -2.5549  0.0292  1.8140
   32GLOH   H03 8615   2.026   1.230   0.648 -0.2953 -1.5675  1.5548
   32GLOH    O1 8616   2.121   1.208   0.640  0.0855  0.2866  0.7344
   32GLOH    C1 8617   2.180   1.294   0.539 -0.5133  0.3412 -0.1692
   32GLOH   H02 8618   2.135   1.393   0.550 -0.1124  0.3138  1.8925
   32GLOH   H08 8619   2.162   1.246   0.443 -1.8710  0.6646 -0.0780
   32GLOH    C2 8620   2.336   1.314   0.544  0.4104  0.3681  0.5561
   32GLOH   H04 8621   2.372   1.332   0.646 -0.2941  0.1646  0.8447
   32GLOH    O2 8622   2.409   1.193   0.502  0.1189 -0.0903 -0.3662
   32GLOH   H05 8623   2.381   1.120   0.559 -0.1362 -0.5095 -1.0270
   32GLOH    C3 8624   2.384   1.437   0.469  0.2810 -0.2884 -0.0181
   32GLOH   H06 8625   2.332   1.434   0.373 -0.7377 -0.6371  0.5431
   32GLOH   H07 8626   2.492   1.428   0.453  0.2433  0.2871 -0.6440
   32GLOH    O3 8627   2.353   1.549   0.544 -0.0617 -0.5572  0.7555
   32GLOH   H01 8628   2.439   1.579   0.579 -0.7638 -0.0393  2.0409
   33GLOH   H03 8629   4.112   0.746   0.480  0.0283 -2.2622  0.2115
   33GLOH    O1 8630   4.166   0.735   0.400 -0.1681 -0.3869 -0.2009
   33GLOH    C1 8631   4.195   0.593   0.386 -0.4327 -0.2241  0.2596
   33GLOH   H02 8632   4.115   0.547   0.328 -0.6951 -3.3803  2.9515
   33GLOH   H08 8633   4.196   0.552   0.487 -1.9280 -2.3979 -0.5549
   33GLOH    C2 8634   4.330   0.539   0.324 -0.2678 -0.2844 -0.1819
   33GLOH   H04 8635   4.316   0.432   0.305  0.2504 -0.9331  2.7107
   33GLOH    O2 8636   4.353   0.591   0.192  0.6264  0.4782 -0.1408
   33GLOH   H05 8637   4.413   0.667   0.196 -0.8812  1.7654 -1.0056
   33GLOH    C3 8638   4.457   0.551   0.407  0.6963 -1.3521 -0.5551
   33GLOH   H06 8639   4.491   0.655   0.406  2.2020 -1.6804  3.7558
   33GLOH   H07 8640   4.538   0.489   0.367  1.1695 -2.0605  1.4308
   33GLOH    O3 8641   4.441   0.496   0.540 -0.6530 -0.1232  0.2567
   33GLOH   H01 8642   4.528   0.477   0.581 -0.0884 -0.6178 -1.1279
   34GLOH   H03 8643   4.032   2.085   1.505  0.7998  2.8060 -0.2224
   34GLOH    O1 8644   3.995   2.086   1.415  0.2847 -0.0550 -0.1047
   34GLOH    C1 8645   3.850   2.102   1.416  0.5771  0.4962  0.7606
   34GLOH   H02 8646   3.794   2.014   1.448 -1.4071  1.0065 -1.1433
   34GLOH   H08 8647   3.802   2.123   1.320  0.5132  1.5604  1.0169
   34GLOH    C2 8648   3.812   2.224   1.502  0.7493 -0.1303  0.0883
   34GLOH   H04 8649   3.869   2.307   1.457  2.7058 -1.7878 -0.5670
   34GLOH    O2 8650   3.666   2.247   1.485 -0.2086  0.5841 -0.1609
   34GLOH   H05 8651   3.638   2.242   1.393  0.5431 -0.1924 -0.3584
   34GLOH    C3 8652   3.851   2.212   1.652  0.1592  0.1492  0.0476
   34GLOH   H06 8653   3.782   2.151   1.709  2.1926 -0.0919  2.3529
   34GLOH   H07 8654   3.840   2.314   1.691 -1.2668  0.1838 -0.4316
   34GLOH    O3 8655   3.987   2.164   1.655 -0.0327  0.6638  0.3846
   34GLOH   H01 8656   4.005   2.145   1.749  0.0283  1.3225  0.5044
   35GLOH   H03 8657   3.574   2.556   2.024  1.1163 -1.4885  0.6209
   35GLOH    O1 8658   3.515   2.524   2.094  0.9350 -0.2659  1.0287
   35GLOH    C1 8659   3.425   2.431   2.034  0.0075  0.1973 -0.0264
   35GLOH   H02 8660   3.461   2.329   2.046  1.8765  0.6757 -1.3908
   35GLOH   H08 8661   3.401   2.442   1.928 -0.3432  3.0203  0.2852
   35GLOH    C2 8662   3.289   2.441   2.111  0.6530  0.5071  0.0829
   35GLOH   H04 8663   3.253   2.544   2.100 -1.5060 -0.0370  1.8046
   35GLOH    O2 8664   3.200   2.345   2.058 -0.6342  0.2365  0.3852
   35GLOH   H05 8665   3.111   2.381   2.068 -1.0622 -0.9095  0.8250
   35GLOH    C3 8666   3.310   2.422   2.260 -0.7115  0.5676 -0.5649
   35GLOH   H06 8667   3.327   2.316   2.279  0.0045  0.5892 -1.0705
   35GLOH   H07 8668   3.213   2.450   2.301 -1.2074 -0.0376 -1.3095
   35GLOH    O3 8669   3.406   2.507   2.323  0.1310 -0.5483  0.3121
   35GLOH   H01 8670   3.472   2.533   2.256 -0.0278  1.0554  0.7585
   36GLOH   H03 8671   4.038   2.080   1.982  0.4960  0.8969  3.4504
   36GLOH    O1 8672   3.977   2.142   1.938  1.2631 -0.7110 -0.0975
   36GLOH    C1 8673   4.011   2.276   1.961  0.3862 -0.8592  0.2486
   36GLOH   H02 8674   3.981   2.331   1.872  0.5335 -0.8361  0.2142
   36GLOH   H08 8675   4.117   2.295   1.980  0.4979  0.0605 -1.1666
   36GLOH    C2 8676   3.927   2.333   2.074 -0.1020  0.3797  0.1123
   36GLOH   H04 8677   3.932   2.264   2.159 -3.7024 -0.7040 -0.4537
   36GLOH    O2 8678   3.959   2.470   2.116  0.5899  0.3496 -0.0116
   36GLOH   H05 8679   4.052   2.487   2.138 -0.1813  1.0691  2.9860
   36GLOH    C3 8680   3.773   2.336   2.055  0.0746  0.4976 -0.0900
   36GLOH   H06 8681   3.743   2.413   1.984  0.9666  1.1200  0.1938
   36GLOH   H07 8682   3.731   2.352   2.154  0.3955 -2.7220  0.6211
   36GLOH    O3 8683   3.738   2.210   1.992 -0.3401  0.2932  0.5887
   36GLOH   H01 8684   3.823   2.162   1.988  0.5522  1.7652  1.3763
   37GLOH   H03 8685   3.180   1.534   1.611  1.3589 -0.0738  0.0999
   37GLOH    O1 8686   3.232   1.610   1.643  0.9942  0.1019  0.2811
   37GLOH    C1 8687   3.372   1.590   1.657 -0.2293  0.8204  0.6254
   37GLOH   H02 8688   3.417   1.681   1.616  0.7669  0.1624  0.2534
   37GLOH   H08 8689   3.412   1.517   1.588 -4.0644 -1.6998  0.9322
   37GLOH    C2 8690   3.430   1.550   1.792 -0.1038 -0.4928 -0.4443
   37GLOH   H04 8691   3.537   1.538   1.773 -0.0324 -2.1461  0.9079
   37GLOH    O2 8692   3.414   1.649   1.898 -0.1977  0.2882  0.0458
   37GLOH   H05 8693   3.321   1.679   1.894 -0.1774  0.4179  0.5347
   37GLOH    C3 8694   3.369   1.412   1.834  0.5433 -0.0164  0.2213
   37GLOH   H06 8695   3.394   1.344   1.753  2.4742  2.2580 -1.1576
   37GLOH   H07 8696   3.260   1.418   1.839  0.5573  0.2729  0.1815
   37GLOH    O3 8697   3.416   1.349   1.950 -1.2138  0.1085 -0.7711
   37GLOH   H01 8698   3.395   1.414   2.020  0.1890 -1.3428  1.0792
   38GLOH   H03 8699   4.150   1.696   2.035  2.0480  1.2644  0.1905
   38GLOH    O1 8700   4.204   1.616   2.027 -0.4032 -0.3241 -0.8848
   38GLOH    C1 8701   4.172   1.545   2.152  0.0122  0.5515  0.0072
   38GLOH   H02 8702   4.216   1.597   2.237  1.5501  0.5623 -0.7672
   38GLOH   H08 8703   4.219   1.448   2.138 -0.9836  0.1725 -0.7833
   38GLOH    C2 8704   4.021   1.514   2.165 -0.5873 -0.0618  0.4953
   38GLOH   H04 8705   3.986   1.505   2.061 -0.0484  2.7501  0.0147
   38GLOH    O2 8706   3.992   1.396   2.249  0.1369 -0.2961 -0.9888
   38GLOH   H05 8707   4.042   1.322   2.211 -1.4135 -1.4163 -0.8785
   38GLOH    C3 8708   3.969   1.639   2.235  0.3193 -0.1213  0.5618
   38GLOH   H06 8709   4.016   1.648   2.333  2.9210  1.4772 -0.7839
   38GLOH   H07 8710   3.863   1.620   2.251  0.4259 -1.3361 -0.0945
   38GLOH    O3 8711   4.007   1.752   2.162 -0.5905 -0.0755  0.2493
   38GLOH   H01 8712   3.923   1.802   2.162 -0.9815 -0.7146 -0.2893
   39GLOH   H03 8713   4.560   0.389   0.953 -1.7384  2.2140 -1.6667
   39GLOH    O1 8714   4.571   0.347   0.866 -0.1049 -0.3030 -0.2950
   39GLOH    C1 8715   4.609   0.205   0.865  0.3965 -0.1469 -0.2392
   39GLOH   H02 8716   4.716   0.185   0.863  0.8005  1.8711 -0.1665
   39GLOH   H08 8717   4.561   0.155   0.781  2.1723 -1.1289 -0.6949
   39GLOH    C2 8718   4.555   0.122   0.982 -0.9682  0.0248  0.1637
   39GLOH   H04 8719   4.554   0.017   0.948 -1.9572 -0.0420  0.3852
   39GLOH    O2 8720   4.641   0.131   1.100 -0.3377 -0.2742  0.3133
   39GLOH   H05 8721   4.595   0.081   1.169  2.5435 -1.5570  1.3617
   39GLOH    C3 8722   4.414   0.160   1.015  0.5125  0.4124  0.6436
   39GLOH   H06 8723   4.398   0.266   1.036 -1.2946  0.3483 -0.3080
   39GLOH   H07 8724   4.389   0.104   1.105  1.6023 -0.9016  0.1357
   39GLOH    O3 8725   4.325   0.117   0.902 -0.5182 -0.4621 -0.6520
   39GLOH   H01 8726   4.231   0.140   0.914 -0.2947  0.7066 -0.9780
   40GLOH   H03 8727   3.161   0.547   0.354  0.4866  0.2595  3.2393
   40GLOH    O1 8728   3.189   0.454   0.354 -0.2222 -0.0339 -0.0115
   40GLOH    C1 8729   3.321   0.466   0.407  0.0612 -0.5239  0.5988
   40GLOH   H02 8730   3.377   0.532   0.342 -1.2976 -2.1344 -2.3227
   40GLOH   H08 8731   3.386   0.378   0.411 -0.5565 -0.9514  1.5378
   40GLOH    C2 8732   3.310   0.510   0.554  0.9385  0.3735  0.2989
   40GLOH   H04 8733   3.391   0.454   0.602  0.7965 -0.6138 -0.5989
   40GLOH    O2 8734   3.319   0.654   0.553  0.4765 -0.0700  0.7587
   40GLOH   H05 8735   3.242   0.690   0.505  0.8498  0.8402  0.8323
   40GLOH    C3 8736   3.176   0.466   0.620 -0.3812 -0.0883  0.4518
   40GLOH   H06 8737   3.153   0.364   0.590 -2.3775 -0.4181  2.9523
   40GLOH   H07 8738   3.095   0.533   0.592 -1.0418 -1.4819 -1.0546
   40GLOH    O3 8739   3.183   0.484   0.761  0.9166  0.6296  0.0709
   40GLOH   H01 8740   3.238   0.414   0.800 -1.6314 -0.9280  0.9681
   41GLOH   H03 8741   3.074   1.049   0.803  0.2792 -0.6397 -0.4226
   41GLOH    O1 8742   3.077   0.957   0.769 -0.1288 -0.7369 -0.2105
   41GLOH    C1 8743   2.943   0.903   0.745 -0.2356 -0.3436  0.3193
   41GLOH   H02 8744   2.894   0.967   0.672 -0.9623  0.2337  1.2941
   41GLOH   H08 8745   2.882   0.914   0.834 -1.1946  2.6613 -0.6618
   41GLOH    C2 8746   2.955   0.757   0.708  0.5378  0.6648 -0.0622
   41GLOH   H04 8747   3.023   0.741   0.623 -0.2355 -3.2241 -0.0164
   41GLOH    O2 8748   3.002   0.681   0.819 -0.6463  0.3482  0.3624
   41GLOH   H05 8749   3.067   0.617   0.784  1.0108  0.7416  2.6252
   41GLOH    C3 8750   2.814   0.708   0.680 -0.3710  0.1187  0.4846
   41GLOH   H06 8751   2.748   0.710   0.767  0.2730 -1.2181  1.0243
   41GLOH   H07 8752   2.818   0.604   0.649 -0.2663  0.0755  0.6411
   41GLOH    O3 8753   2.751   0.768   0.566  0.2176  0.4938 -0.2334
   41GLOH   H01 8754   2.657   0.778   0.592 -0.5251 -0.5093 -2.4277
   42GLOH   H03 8755   4.325   1.629   0.468  0.3937  0.1460  0.0309
   42GLOH    O1 8756   4.326   1.589   0.378 -0.4885 -0.4051  0.2524
   42GLOH    C1 8757   4.229   1.649   0.288  0.4919 -0.1931  0.1640
   42GLOH   H02 8758   4.179   1.567   0.236 -0.3117  1.2024 -1.3008
   42GLOH   H08 8759   4.274   1.721   0.219  0.6395 -1.3558 -0.9816
   42GLOH    C2 8760   4.115   1.734   0.355  0.1083  0.3452 -0.1117
   42GLOH   H04 8761   4.176   1.816   0.395 -0.6983  0.9132 -0.0356
   42GLOH    O2 8762   4.024   1.788   0.261 -0.4111 -0.9918  0.6304
   42GLOH   H05 8763   3.931   1.764   0.277 -1.1746  0.2605 -1.6370
   42GLOH    C3 8764   4.054   1.667   0.480 -0.5098 -0.2353  0.1678
   42GLOH   H06 8765   4.002   1.574   0.455  1.0045 -0.5900 -1.7832
   42GLOH   H07 8766   3.988   1.743   0.521 -2.5628 -0.2839 -2.8905
   42GLOH    O3 8767   4.161   1.634   0.576 -0.2872 -0.4504 -0.0399
   42GLOH   H01 8768   4.158   1.700   0.648  0.4970 -0.4629  0.0027
   43GLOH   H03 8769   3.628   9.811   0.151 -1.8726  0.7013 -0.3516
   43GLOH    O1 8770   3.597   9.757   0.076 -0.6523 -0.1722 -0.2427
   43GLOH    C1 8771   3.540   9.856  -0.014 -0.3813 -0.1400 -0.0999
   43GLOH   H02 8772   3.494   9.942   0.035  1.8885  1.1431 -0.1332
   43GLOH   H08 8773   3.453   9.813  -0.064  1.4447 -1.2859 -2.3660
   43GLOH    C2 8774   3.639   9.924  -0.112  0.3858 -0.1251  0.0551
   43GLOH   H04 8775   3.687   9.840  -0.164  0.9650 -0.1879  0.6865
   43GLOH    O2 8776   3.571  10.010  -0.204 -0.0193  0.5910 -0.4513
   43GLOH   H05 8777   3.477   9.984  -0.211 -0.2086  1.1929 -0.1701
   43GLOH    C3 8778   3.761   9.980  -0.045 -0.3572  0.1434 -1.1009
   43GLOH   H06 8779   3.796  10.056  -0.114  0.6411  0.5644 -0.1424
   43GLOH   H07 8780   3.835   9.900  -0.036 -1.3441 -0.4954  1.7826
   43GLOH    O3 8781   3.744  10.045   0.081  0.1100 -0.6201 -0.1289
   43GLOH   H01 8782   3.782  10.134   0.071 -0.8113 -0.0725  1.0916
   44GLOH   H03 8783   3.648   0.806   2.194  1.9752  2.2305  0.6090
   44GLOH    O1 8784   3.686   0.747   2.262 -0.1496 -0.4116 -0.4005
   44GLOH    C1 8785   3.831   0.747   2.257 -0.1958  0.1686 -0.7640
   44GLOH   H02 8786   3.861   0.699   2.164 -2.3316 -0.2191 -1.2956
   44GLOH   H08 8787   3.861   0.689   2.344 -1.8419 -0.1241 -0.3774
   44GLOH    C2 8788   3.885   0.892   2.270 -0.5227  0.2515  0.4853
   44GLOH   H04 8789   3.827   0.939   2.351 -1.2749 -1.3668  0.9023
   44GLOH    O2 8790   4.028   0.902   2.272 -0.8265  0.6938 -0.7784
   44GLOH   H05 8791   4.072   0.922   2.356 -0.7143  0.9642 -0.8996
   44GLOH    C3 8792   3.836   0.968   2.138 -0.0635 -0.6486 -0.7454
   44GLOH   H06 8793   3.899   0.934   2.057 -1.2982 -4.4615 -0.1794
   44GLOH   H07 8794   3.850   1.075   2.158  0.6174 -1.1282  1.4830
   44GLOH    O3 8795   3.699   0.945   2.106  0.1270  0.1859  0.4305
   44GLOH   H01 8796   3.686   1.011   2.036 -1.0137 -1.2064 -0.6780
   45GLOH   H03 8797   3.934   1.235   2.598  0.3692 -0.5220 -0.5759
   45GLOH    O1 8798   4.008   1.192   2.643  0.5517  0.5905  0.2176
   45GLOH    C1 8799   3.984   1.226   2.780 -0.0200 -0.9410  0.7803
   45GLOH   H02 8800   4.022   1.146   2.844  0.2399  0.4949  2.4259
   45GLOH   H08 8801   3.876   1.231   2.791 -0.4288 -1.9918 -2.2514
   45GLOH    C2 8802   4.026   1.357   2.841 -0.1011  0.0238  0.4733
   45GLOH   H04 8803   3.987   1.353   2.944  1.4529 -3.2076  0.9721
   45GLOH    O2 8804   4.171   1.365   2.837  1.1868  0.4706 -0.1471
   45GLOH   H05 8805   4.209   1.285   2.797  0.7701 -0.1151  0.6188
   45GLOH    C3 8806   3.965   1.479   2.771  0.7833  0.5449  0.3270
   45GLOH   H06 8807   3.990   1.481   2.665  1.8028  0.0937  0.5560
   45GLOH   H07 8808   4.013   1.566   2.814  0.7633  0.4824  0.4758
   45GLOH    O3 8809   3.823   1.483   2.778  0.3062  0.0975 -0.3018
   45GLOH   H01 8810   3.786   1.546   2.714 -2.0950 -0.3808  0.5675
   46GLOH   H03 8811   4.131   9.496   1.261 -1.1060  1.5912  0.5309
   46GLOH    O1 8812   4.067   9.498   1.187 -0.2364 -0.6792 -0.3195
   46GLOH    C1 8813   4.095   9.376   1.119  0.3531  0.9932 -0.4472
   46GLOH   H02 8814   4.032   9.296   1.158  2.6333 -1.5585 -1.8321
   46GLOH   H08 8815   4.197   9.340   1.134  0.4632  2.4412  2.5032
   46GLOH    C2 8816   4.089   9.382   0.971 -0.3634 -0.9108 -0.7673
   46GLOH   H04 8817   4.182   9.433   0.944  1.6480 -2.9216  2.0340
   46GLOH    O2 8818   4.094   9.253   0.919  0.0658 -0.2788  0.3195
   46GLOH   H05 8819   4.084   9.243   0.823 -0.6570  0.1819  0.3476
   46GLOH    C3 8820   3.967   9.464   0.919  0.3158  0.5234 -1.0153
   46GLOH   H06 8821   3.873   9.409   0.934 -0.9689  3.3174  1.6700
   46GLOH   H07 8822   3.978   9.484   0.813  1.4612 -0.0784 -1.0168
   46GLOH    O3 8823   3.956   9.594   0.988 -0.8885  0.5692  0.8813
   46GLOH   H01 8824   4.005   9.574   1.070 -0.6367 -1.2294  0.3046
   47GLOH   H03 8825   2.643   9.385   1.391  0.1825  2.8758  3.0741
   47GLOH    O1 8826   2.614   9.460   1.335  0.0332  0.4863 -0.1741
   47GLOH    C1 8827   2.723   9.493   1.255  0.4841 -0.1312  0.9999
   47GLOH   H02 8828   2.698   9.465   1.153  1.3292  0.2873  0.6771
   47GLOH   H08 8829   2.817   9.450   1.288  0.3661 -0.5741  0.7598
   47GLOH    C2 8830   2.742   9.647   1.250  0.7558 -0.3663 -1.3363
   47GLOH   H04 8831   2.720   9.700   1.344  0.7421 -1.0624 -0.9489
   47GLOH    O2 8832   2.876   9.683   1.213 -0.1730  0.2865 -0.0317
   47GLOH   H05 8833   2.904   9.764   1.259  1.1428 -0.4834  0.5551
   47GLOH    C3 8834   2.640   9.710   1.149 -0.3294  0.1540  0.0892
   47GLOH   H06 8835   2.660   9.817   1.142 -1.4857  0.3191 -0.9278
   47GLOH   H07 8836   2.538   9.691   1.184  0.1847 -1.7186  0.5811
   47GLOH    O3 8837   2.656   9.661   1.012  0.3160  0.6948 -0.4340
   47GLOH   H01 8838   2.732   9.700   0.966 -0.8767  3.4521 -0.1278
   48GLOH   H03 8839   3.204   0.018   0.894  0.8390  0.9195  1.4351
   48GLOH    O1 8840   3.288   0.054   0.859  0.7439  0.0374  0.2913
   48GLOH    C1 8841   3.343  -0.047   0.777 -0.2985  0.0376  0.7863
   48GLOH   H02 8842   3.266  -0.101   0.721  0.8913  1.9471 -2.8219
   48GLOH   H08 8843   3.411  -0.114   0.828 -0.0700  0.7073  1.3747
   48GLOH    C2 8844   3.441   0.028   0.679  0.1619 -0.0398 -0.2588
   48GLOH   H04 8845   3.377   0.103   0.630 -0.2076 -0.3699 -0.2851
   48GLOH    O2 8846   3.555   0.097   0.749  0.5902 -0.4664  0.2093
   48GLOH   H05 8847   3.637   0.052   0.725  0.3587 -0.6956 -0.1636
   48GLOH    C3 8848   3.498  -0.061   0.572 -1.0546 -0.9019 -0.5697
   48GLOH   H06 8849   3.568  -0.005   0.510 -2.2796 -0.4025 -1.5330
   48GLOH   H07 8850   3.419  -0.107   0.513 -1.1439 -0.8927 -0.4578
   48GLOH    O3 8851   3.571  -0.175   0.631 -0.0193 -0.5414  0.3757
   48GLOH   H01 8852   3.640  -0.145   0.693  0.9564 -1.1643 -0.3965
   49GLOH   H03 8853   3.677   0.330   1.508 -1.2269  0.2498 -0.4022
   49GLOH    O1 8854   3.700   0.270   1.435 -0.4636 -0.5374  0.4672
   49GLOH    C1 8855   3.698   0.140   1.484  0.3593 -0.8646 -0.0601
   49GLOH   H02 8856   3.665   0.073   1.404  0.9444 -2.0860  0.7073
   49GLOH   H08 8857   3.616   0.129   1.555 -0.1239  1.7676 -0.1517
   49GLOH    C2 8858   3.827   0.080   1.540 -0.4572 -0.7575  0.5645
   49GLOH   H04 8859   3.849   0.133   1.634 -0.4833 -2.7549  1.7269
   49GLOH    O2 8860   3.802  -0.061   1.561 -0.0394  0.1258  0.1135
   49GLOH   H05 8861   3.850  -0.117   1.624 -1.3888 -0.0573  1.0039
   49GLOH    C3 8862   3.954   0.097   1.455  0.0790  0.7076  0.4786
   49GLOH   H06 8863   3.947   0.042   1.361 -2.2724  1.1564  0.3587
   49GLOH   H07 8864   4.033   0.059   1.520 -0.3505  3.7581  2.8915
   49GLOH    O3 8865   3.976   0.233   1.426  0.1662  0.1956  0.3233
   49GLOH   H01 8866   3.895   0.286   1.424  0.0071 -0.0590  0.0555
   50GLOH   H03 8867   3.070   1.387   2.023  2.7418  2.3324 -1.0668
   50GLOH    O1 8868   3.121   1.309   2.052 -0.4111  0.7604  0.4276
   50GLOH    C1 8869   3.126   1.281   2.191  0.9723 -0.9304  0.4669
   50GLOH   H02 8870   3.198   1.199   2.200  1.1517 -0.9129 -0.7861
   50GLOH   H08 8871   3.031   1.241   2.226 -0.9401  2.2017 -0.9618
   50GLOH    C2 8872   3.165   1.411   2.274  0.1766 -0.1334  0.1115
   50GLOH   H04 8873   3.107   1.489   2.223 -0.1695 -1.9787 -2.4121
   50GLOH    O2 8874   3.124   1.408   2.409 -0.1782  0.4177  0.4874
   50GLOH   H05 8875   3.103   1.315   2.430 -0.1513  0.1668 -0.5578
   50GLOH    C3 8876   3.308   1.452   2.273  0.1922  0.1106  0.5458
   50GLOH   H06 8877   3.357   1.358   2.299 -1.0413 -1.4098 -2.4409
   50GLOH   H07 8878   3.311   1.510   2.365  0.4838 -0.1700  0.7154
   50GLOH    O3 8879   3.362   1.510   2.153  0.0535  0.5767 -0.4029
   50GLOH   H01 8880   3.321   1.598   2.149 -0.4808  0.3906  0.9529
   51GLOH   H03 8881   2.690   0.594   2.281 -0.1967  2.7201  2.3680
   51GLOH    O1 8882   2.693   0.541   2.363  0.3378  0.2463  0.8231
   51GLOH    C1 8883   2.567   0.548   2.435  0.3846  0.6817  0.6073
   51GLOH   H02 8884   2.529   0.458   2.483  0.0864  1.4013  1.7296
   51GLOH   H08 8885   2.494   0.595   2.369 -2.4267 -0.2472  2.9289
   51GLOH    C2 8886   2.586   0.650   2.552 -0.0652 -0.6693 -0.0622
   51GLOH   H04 8887   2.648   0.734   2.516  1.2026 -1.6919 -0.3274
   51GLOH    O2 8888   2.450   0.697   2.576 -0.8584 -0.2612 -0.6584
   51GLOH   H05 8889   2.459   0.786   2.614  2.4096 -0.7454 -0.1421
   51GLOH    C3 8890   2.652   0.582   2.674  0.3001  0.5083  0.5154
   51GLOH   H06 8891   2.580   0.511   2.716  1.8153 -1.3120  0.0953
   51GLOH   H07 8892   2.657   0.647   2.761 -1.4262 -1.1981  1.9385
   51GLOH    O3 8893   2.776   0.524   2.668  0.1487 -0.1372 -0.1545
   51GLOH   H01 8894   2.780   0.438   2.622  1.5664 -1.0615  1.6149
   52GLOH   H03 8895   2.191   0.637   2.268  1.3946  0.1669  1.1288
   52GLOH    O1 8896   2.189   0.543   2.294  0.1462 -0.0750  0.1951
   52GLOH    C1 8897   2.151   0.454   2.185 -0.4008 -0.1832  0.6640
   52GLOH   H02 8898   2.059   0.480   2.132  0.0340  0.4568  0.2126
   52GLOH   H08 8899   2.134   0.353   2.222  0.2636 -1.1638 -1.6224
   52GLOH    C2 8900   2.258   0.442   2.072 -0.3249  1.0789  0.8208
   52GLOH   H04 8901   2.349   0.391   2.106 -0.6295 -0.2944 -0.3718
   52GLOH    O2 8902   2.204   0.355   1.972  0.6224  0.0547 -0.3585
   52GLOH   H05 8903   2.233   0.264   1.986 -1.9077 -0.9134 -1.2216
   52GLOH    C3 8904   2.291   0.569   1.987  0.3686  1.2522  0.1924
   52GLOH   H06 8905   2.197   0.618   1.959 -0.9815 -0.5325  1.4856
   52GLOH   H07 8906   2.345   0.547   1.895 -0.5194  0.6016 -0.1869
   52GLOH    O3 8907   2.365   0.668   2.067  0.1783  0.0688 -0.0579
   52GLOH   H01 8908   2.320   0.753   2.058 -2.6858 -1.3165  0.7039
   53GLOH   H03 8909   2.308   0.086   2.348 -1.5136 -3.7787 -1.7222
   53GLOH    O1 8910   2.370   0.089   2.273 -0.1646  0.1612 -0.5592
   53GLOH    C1 8911   2.463  -0.013   2.284 -0.0529 -0.0939  0.6982
   53GLOH   H02 8912   2.420  -0.112   2.296  1.3512 -1.3991 -3.8546
   53GLOH   H08 8913   2.521   0.007   2.374  0.1752 -1.4333  0.8540
   53GLOH    C2 8914   2.553  -0.020   2.160  0.2510  0.3971 -0.3825
   53GLOH   H04 8915   2.624   0.064   2.160  1.3172 -0.4458 -3.2121
   53GLOH    O2 8916   2.624  -0.143   2.161  0.6303  0.1530 -0.4045
   53GLOH   H05 8917   2.710  -0.123   2.119 -0.1845  2.5147 -1.0479
   53GLOH    C3 8918   2.473  -0.014   2.024 -0.8741 -0.1617  0.4021
   53GLOH   H06 8919   2.416  -0.107   2.023  0.1990 -0.8283  0.4079
   53GLOH   H07 8920   2.551  -0.015   1.948 -2.7908 -2.4217 -1.6076
   53GLOH    O3 8921   2.394   0.106   2.025  0.1456 -0.5520  0.2070
   53GLOH   H01 8922   2.354   0.097   2.114 -0.6570  1.5327  0.0901
   54GLOH   H03 8923   3.638   0.412   1.267  2.3677  0.0789 -2.1093
   54GLOH    O1 8924   3.672   0.503   1.273  0.3562  0.7221  0.0429
   54GLOH    C1 8925   3.802   0.505   1.223  0.0099  0.0830  0.9330
   54GLOH   H02 8926   3.803   0.487   1.116 -3.0501  0.0171  0.8611
   54GLOH   H08 8927   3.859   0.426   1.272  2.8986  0.1341 -2.1948
   54GLOH    C2 8928   3.874   0.635   1.245  0.3187 -0.3149  0.5549
   54GLOH   H04 8929   3.972   0.615   1.199  0.4567  1.8132 -0.1200
   54GLOH    O2 8930   3.815   0.751   1.178  0.0831  0.2198  0.1883
   54GLOH   H05 8931   3.741   0.719   1.124  2.2193  0.1098 -2.8149
   54GLOH    C3 8932   3.914   0.662   1.388  0.5028  0.0300 -0.2222
   54GLOH   H06 8933   3.829   0.627   1.447  0.6849  0.6564  0.4272
   54GLOH   H07 8934   3.922   0.770   1.400  2.7949 -0.1374 -0.0350
   54GLOH    O3 8935   4.029   0.586   1.438  0.0007 -0.5000 -1.0969
   54GLOH   H01 8936   4.104   0.621   1.385  1.7522 -3.8301 -0.9190
   55GLOH   H03 8937   3.644   1.562   0.882 -2.5340 -4.6567 -0.9767
   55GLOH    O1 8938   3.564   1.607   0.851 -0.1868 -0.1159 -0.8140
   55GLOH    C1 8939   3.556   1.580   0.707 -0.5504 -0.4228  0.1142
   55GLOH   H02 8940   3.456   1.599   0.668  0.3679  0.4481 -1.8796
   55GLOH   H08 8941   3.559   1.472   0.689 -0.9650 -0.3490 -0.4213
   55GLOH    C2 8942   3.665   1.654   0.628  0.1910  0.0039 -0.1135
   55GLOH   H04 8943   3.756   1.657   0.690 -0.6418  3.0749  1.0163
   55GLOH    O2 8944   3.697   1.577   0.516 -0.5052 -0.1260  0.2194
   55GLOH   H05 8945   3.737   1.493   0.546  0.5583 -0.0559 -0.9256
   55GLOH    C3 8946   3.613   1.791   0.580 -0.3934 -0.6489 -0.0644
   55GLOH   H06 8947   3.519   1.786   0.524 -0.5735  1.1282  0.0784
   55GLOH   H07 8948   3.691   1.828   0.513 -0.1513  1.6775  1.4761
   55GLOH    O3 8949   3.605   1.884   0.685  0.1229 -0.4864  0.0643
   55GLOH   H01 8950   3.663   1.848   0.755  0.5345  0.6329  0.3035
   56GLOH   H03 8951   3.956   1.654   1.192  0.8229  0.6277 -1.5854
   56GLOH    O1 8952   3.914   1.612   1.115 -0.9059 -0.2897 -0.1961
   56GLOH    C1 8953   4.033   1.601   1.033 -0.9177 -0.0713  0.6277
   56GLOH   H02 8954   4.104   1.530   1.074 -0.2984 -1.2257 -2.3401
   56GLOH   H08 8955   4.091   1.693   1.041  0.0772 -0.6646  0.3424
   56GLOH    C2 8956   4.008   1.558   0.892  0.4472  0.1752 -0.1199
   56GLOH   H04 8957   3.976   1.651   0.842 -0.9916 -0.1056  0.2647
   56GLOH    O2 8958   4.133   1.505   0.844 -0.2949 -0.4617  0.8420
   56GLOH   H05 8959   4.117   1.482   0.751  0.9683  0.5701  0.3476
   56GLOH    C3 8960   3.890   1.459   0.874 -0.4178 -0.0506 -0.2844
   56GLOH   H06 8961   3.925   1.363   0.912  1.9645  0.5311 -0.9136
   56GLOH   H07 8962   3.881   1.456   0.765  1.4744  1.0801 -0.5097
   56GLOH    O3 8963   3.771   1.504   0.937 -0.1190  0.1117 -0.7419
   56GLOH   H01 8964   3.813   1.556   1.008  3.0971 -2.1406 -0.9022
   57GLOH   H03 8965   2.249   0.655   0.483 -1.1030  2.6531  0.3136
   57GLOH    O1 8966   2.337   0.681   0.449 -0.3368  0.1438  0.2540
   57GLOH    C1 8967   2.426   0.562   0.454 -0.8538 -0.1561  0.1978
   57GLOH   H02 8968   2.357   0.488   0.415  0.2523 -0.9677 -0.2409
   57GLOH   H08 8969   2.443   0.533   0.558  2.9300  0.2353 -0.2592
   57GLOH    C2 8970   2.553   0.588   0.376 -0.2309  0.4659  0.3280
   57GLOH   H04 8971   2.585   0.688   0.409  0.6962  0.0056  0.8379
   57GLOH    O2 8972   2.650   0.483   0.395  0.6865 -0.1583 -0.0136
   57GLOH   H05 8973   2.601   0.400   0.403 -2.8423  1.8166 -0.0243
   57GLOH    C3 8974   2.529   0.588   0.224 -0.9690  0.5660  0.0083
   57GLOH   H06 8975   2.501   0.487   0.194  0.1140  0.5943 -1.1059
   57GLOH   H07 8976   2.626   0.621   0.187 -0.4370  0.0918  0.9557
   57GLOH    O3 8977   2.429   0.680   0.164  0.3004 -0.2666 -0.4111
   57GLOH   H01 8978   2.456   0.768   0.198  0.8353 -0.9715  1.0239
   58GLOH   H03 8979   3.573   0.613   1.343  0.0080  0.0062 -0.7162
   58GLOH    O1 8980   3.508   0.668   1.389  0.4553  0.2973 -0.4269
   58GLOH    C1 8981   3.579   0.714   1.500 -0.3686 -0.4551  0.2784
   58GLOH   H02 8982   3.661   0.779   1.470  1.7291 -2.8458  0.6286
   58GLOH   H08 8983   3.622   0.631   1.556  2.8427  0.1931 -1.1475
   58GLOH    C2 8984   3.487   0.799   1.586 -0.6427  0.0360 -0.5902
   58GLOH   H04 8985   3.410   0.729   1.624 -1.5870  1.3850  0.0097
   58GLOH    O2 8986   3.562   0.858   1.695 -1.2562 -0.8205  0.3209
   58GLOH   H05 8987   3.504   0.871   1.772  1.0415  0.3355  1.9273
   58GLOH    C3 8988   3.411   0.900   1.498  0.0075 -0.2213  0.8928
   58GLOH   H06 8989   3.356   0.957   1.573 -0.3755  0.5509  0.0391
   58GLOH   H07 8990   3.344   0.832   1.444  0.8000  0.4934 -1.0522
   58GLOH    O3 8991   3.488   0.983   1.398 -0.2183  0.3690 -0.4090
   58GLOH   H01 8992   3.448   0.988   1.309 -0.4830  2.3391 -0.2001
   59GLOH   H03 8993   4.614   0.805   0.199 -0.3338 -2.4756  1.0537
   59GLOH    O1 8994   4.527   0.805   0.153  0.0389 -0.3639  0.3219
   59GLOH    C1 8995   4.536   0.764   0.018 -0.4296 -0.2091  0.4567
   59GLOH   H02 8996   4.446   0.771  -0.043  0.4136 -0.9373 -0.9016
   59GLOH   H08 8997   4.585   0.667   0.009  0.4118  0.4205 -2.1159
   59GLOH    C2 8998   4.626   0.854  -0.066 -0.0678 -0.6809  0.5911
   59GLOH   H04 8999   4.720   0.858  -0.009  0.3195 -1.6725  0.0336
   59GLOH    O2 9000   4.638   0.785  -0.190 -0.7095 -0.0924 -0.2175
   59GLOH   H05 9001   4.614   0.841  -0.265  0.7347 -0.9253 -1.3225
   59GLOH    C3 9002   4.565   0.992  -0.094  0.2005 -0.3626 -0.2610
   59GLOH   H06 9003   4.541   1.044  -0.001  1.5857  1.3433 -0.8377
   59GLOH   H07 9004   4.476   0.967  -0.152  0.3554 -1.6980  0.0551
   59GLOH    O3 9005   4.657   1.074  -0.162  0.3775 -0.2906 -0.1337
   59GLOH   H01 9006   4.742   1.082  -0.114  0.5406 -0.0442 -0.4539
   60GLOH   H03 9007   2.714   0.930   2.405 -1.2828 -1.6539  2.0499
   60GLOH    O1 9008   2.758   1.002   2.454 -0.3276 -0.5758 -0.3333
   60GLOH    C1 9009   2.884   0.946   2.496 -0.0149  0.0121  0.2910
   60GLOH   H02 9010   2.967   0.965   2.427 -0.2468 -0.7145 -0.1992
   60GLOH   H08 9011   2.873   0.839   2.514  0.2242 -0.2941 -1.2361
   60GLOH    C2 9012   2.925   1.000   2.631 -0.3293  0.8506 -0.5611
   60GLOH   H04 9013   2.844   0.990   2.705 -0.7691  0.2531 -1.1125
   60GLOH    O2 9014   3.034   0.921   2.694  0.2742 -0.1434  0.4186
   60GLOH   H05 9015   3.092   0.895   2.620  1.7660 -1.9704  2.1953
   60GLOH    C3 9016   2.954   1.148   2.621 -1.2638  0.3873  0.2736
   60GLOH   H06 9017   2.969   1.171   2.727  2.6653  0.1722 -0.1897
   60GLOH   H07 9018   2.872   1.212   2.587 -0.7472 -0.3649 -2.4651
   60GLOH    O3 9019   3.076   1.191   2.556 -0.1061 -0.1530 -0.4077
   60GLOH   H01 9020   3.152   1.131   2.559  0.2652  0.4045  2.1007
   61GLOH   H03 9021   2.827   9.952   0.955 -0.6479 -0.5995  0.8391
   61GLOH    O1 9022   2.796  10.010   1.028  0.3514 -0.3093  1.0505
   61GLOH    C1 9023   2.902  10.008   1.122 -0.1924 -0.5481  0.1770
   61GLOH   H02 9024   2.949   9.909   1.128 -0.2210 -0.5853 -0.1923
   61GLOH   H08 9025   2.874  10.040   1.222 -3.1810 -2.8299  0.1432
   61GLOH    C2 9026   2.997  10.114   1.072  0.3900 -0.6672 -0.5851
   61GLOH   H04 9027   2.961  10.212   1.106  0.0025 -1.0251  0.0373
   61GLOH    O2 9028   3.132  10.097   1.124  0.3311  0.0232 -0.2978
   61GLOH   H05 9029   3.155  10.007   1.095 -2.2597 -0.4751 -0.8542
   61GLOH    C3 9030   2.998  10.123   0.916 -0.2938 -0.1654  0.2480
   61GLOH   H06 9031   3.062  10.207   0.887 -2.3631  1.4838  0.2820
   61GLOH   H07 9032   2.901  10.163   0.887 -0.8619 -1.2990  0.5606
   61GLOH    O3 9033   3.044  10.006   0.850  0.1459 -0.9389 -0.8858
   61GLOH   H01 9034   3.054  10.024   0.755  1.0278 -2.6399 -1.1384
   62GLOH   H03 9035   4.084   0.886   0.699  0.3617 -0.0409  0.6416
   62GLOH    O1 9036   4.070   0.801   0.652  0.0748  0.4498 -0.1709
   62GLOH    C1 9037   4.100   0.688   0.731  0.0212 -0.3656  0.3668
   62GLOH   H02 9038   4.100   0.601   0.665  1.1614 -2.4517  3.0508
   62GLOH   H08 9039   4.030   0.675   0.813 -3.1262  0.3005 -2.1028
   62GLOH    C2 9040   4.243   0.691   0.800 -0.1894  0.3052 -0.5849
   62GLOH   H04 9041   4.314   0.717   0.720  1.3221 -0.2225  0.5536
   62GLOH    O2 9042   4.244   0.786   0.910 -0.5519  0.7004 -0.3867
   62GLOH   H05 9043   4.200   0.870   0.886  0.3439  2.2162  3.0278
   62GLOH    C3 9044   4.275   0.551   0.842 -0.2643  0.6801 -0.2811
   62GLOH   H06 9045   4.369   0.530   0.894 -0.1310 -0.8747 -1.1371
   62GLOH   H07 9046   4.290   0.497   0.749 -1.4555 -0.2888  0.0872
   62GLOH    O3 9047   4.168   0.486   0.915  0.1555 -0.2905 -0.2445
   62GLOH   H01 9048   4.148   0.541   0.993 -0.3181 -0.6989 -0.0753
   63GLOH   H03 9049   4.953   1.069   0.353 -0.0925  0.2530 -1.6234
   63GLOH    O1 9050   4.918   0.979   0.336 -0.3780 -0.0805  0.5026
   63GLOH    C1 9051   4.921   0.907   0.460  0.2448  0.1698 -0.6283
   63GLOH   H02 9052   4.854   0.954   0.532  0.3768  0.0527 -0.4300
   63GLOH   H08 9053   5.017   0.916   0.511 -0.8549  1.8542  1.2041
   63GLOH    C2 9054   4.878   0.760   0.442  0.2430 -0.4116 -0.6615
   63GLOH   H04 9055   4.967   0.713   0.398  0.3945 -2.4046  1.6128
   63GLOH    O2 9056   4.852   0.704   0.569  0.5108  0.0207  0.2670
   63GLOH   H05 9057   4.877   0.764   0.641 -1.4960  0.1979  0.8414
   63GLOH    C3 9058   4.754   0.740   0.357 -0.5428  0.0353 -0.3615
   63GLOH   H06 9059   4.669   0.771   0.416  0.4642  1.5792  0.3065
   63GLOH   H07 9060   4.738   0.634   0.337  0.8365 -0.3083  0.2785
   63GLOH    O3 9061   4.758   0.818   0.230 -0.3617  0.3462  0.0544
   63GLOH   H01 9062   4.812   0.893   0.263  0.8807  0.7904 -2.8584
   64GLOH   H03 9063   3.621   1.041   2.763 -1.2551 -1.2029  0.7744
   64GLOH    O1 9064   3.571   1.086   2.693  0.8744  0.0713  0.0455
   64GLOH    C1 9065   3.601   1.231   2.705 -0.3367 -0.5057 -0.4340
   64GLOH   H02 9066   3.633   1.275   2.610 -3.3302  0.7127 -0.9358
   64GLOH   H08 9067   3.684   1.241   2.774 -0.5999  1.7656 -0.4345
   64GLOH    C2 9068   3.474   1.299   2.762  0.2988  0.0669  0.3195
   64GLOH   H04 9069   3.455   1.257   2.862  0.7313  1.4976  1.0174
   64GLOH    O2 9070   3.507   1.437   2.777 -0.5502  0.1385 -0.0884
   64GLOH   H05 9071   3.497   1.461   2.871 -0.1498 -0.7300  0.1763
   64GLOH    C3 9072   3.356   1.284   2.671  0.1501 -0.1710 -0.3069
   64GLOH   H06 9073   3.373   1.330   2.573  2.0279 -0.4665 -0.1524
   64GLOH   H07 9074   3.266   1.321   2.719  0.1748 -1.1740  0.5469
   64GLOH    O3 9075   3.331   1.146   2.643 -0.0556 -0.1379 -0.6864
   64GLOH   H01 9076   3.411   1.097   2.619 -0.4036  0.1866 -2.6202
   65GLOH   H03 9077   3.664   9.618   1.950 -2.2359  0.2880 -0.7423
   65GLOH    O1 9078   3.650   9.636   2.045  0.6871 -0.2507 -0.1837
   65GLOH    C1 9079   3.508   9.660   2.064  0.2946 -1.0951  0.1864
   65GLOH   H02 9080   3.465   9.704   1.974 -1.7970  0.5550  1.9540
   65GLOH   H08 9081   3.485   9.735   2.140  1.6842  0.9201 -1.3376
   65GLOH    C2 9082   3.430   9.533   2.094  0.7924 -0.1119  0.0610
   65GLOH   H04 9083   3.485   9.463   2.158  0.6015  1.5529  2.0837
   65GLOH    O2 9084   3.294   9.549   2.141 -0.2643  0.5745 -0.0520
   65GLOH   H05 9085   3.231   9.517   2.073 -0.4828 -1.7434  1.1968
   65GLOH    C3 9086   3.420   9.455   1.962 -0.0675  0.0859 -1.3962
   65GLOH   H06 9087   3.367   9.525   1.897  0.3673  1.6616 -0.1040
   65GLOH   H07 9088   3.350   9.372   1.971 -1.3536  1.5412  3.3744
   65GLOH    O3 9089   3.544   9.404   1.904 -0.4971  0.1593 -0.4350
   65GLOH   H01 9090   3.532   9.397   1.807 -0.8371  0.0307 -0.3840
   66GLOH   H03 9091   3.845   9.567   2.809 -0.7334  0.2888 -0.0659
   66GLOH    O1 9092   3.938   9.588   2.789 -0.5237 -0.0754  0.5058
   66GLOH    C1 9093   3.948   9.569   2.647  0.4966  0.1330 -0.0692
   66GLOH   H02 9094   3.882   9.491   2.607  0.1303  0.0670  0.6568
   66GLOH   H08 9095   4.050   9.542   2.622  0.5012 -1.9252  2.0358
   66GLOH    C2 9096   3.912   9.700   2.565 -0.0184 -0.0710 -0.0417
   66GLOH   H04 9097   3.816   9.737   2.602 -0.1076 -0.1264 -0.2130
   66GLOH    O2 9098   4.005   9.808   2.584 -0.1215 -0.1810 -0.2307
   66GLOH   H05 9099   4.050   9.806   2.670 -0.4652 -1.8206 -0.0623
   66GLOH    C3 9100   3.899   9.669   2.415 -0.0302  0.1652 -0.2644
   66GLOH   H06 9101   3.999   9.633   2.390 -0.6330 -1.3715 -0.5290
   66GLOH   H07 9102   3.874   9.756   2.354  0.9613  1.7535  1.5397
   66GLOH    O3 9103   3.809   9.558   2.404 -0.2835 -0.1009  0.1266
   66GLOH   H01 9104   3.793   9.546   2.308 -0.6761  1.8029 -0.0639
   67GLOH   H03 9105   4.289   2.192   1.495 -1.4399 -0.7618 -0.7085
   67GLOH    O1 9106   4.273   2.277   1.539 -0.7416 -0.8547 -0.2613
   67GLOH    C1 9107   4.208   2.370   1.454 -0.4608 -0.2538  0.5752
   67GLOH   H02 9108   4.146   2.331   1.373  3.1268  0.2385 -2.5969
   67GLOH   H08 9109   4.290   2.411   1.395  2.5326 -3.0565  2.5652
   67GLOH    C2 9110   4.144   2.477   1.539 -1.4734 -0.0161  0.1907
   67GLOH   H04 9111   4.123   2.556   1.465  2.8151  1.2003  0.1434
   67GLOH    O2 9112   4.024   2.446   1.609  0.2646  0.4992  0.2622
   67GLOH   H05 9113   4.033   2.364   1.661 -0.9578 -0.9347 -1.7650
   67GLOH    C3 9114   4.241   2.547   1.635 -0.7011  0.2089  0.4682
   67GLOH   H06 9115   4.193   2.614   1.706 -1.5516 -0.0808  0.1750
   67GLOH   H07 9116   4.305   2.607   1.570 -0.8189 -1.8536 -1.6302
   67GLOH    O3 9117   4.314   2.443   1.706  0.2253 -0.0296  0.2304
   67GLOH   H01 9118   4.296   2.351   1.680  1.4055  0.2709 -1.7307
   68GLOH   H03 9119   3.735   1.887   1.879  0.4546  1.3186 -0.6501
   68GLOH    O1 9120   3.830   1.872   1.864  0.4082  0.0236  0.2099
   68GLOH    C1 9121   3.855   1.840   1.726 -0.0898 -0.2147  0.0462
   68GLOH   H02 9122   3.964   1.842   1.725 -0.0621  1.4060  1.9624
   68GLOH   H08 9123   3.812   1.926   1.674  0.6760  2.1121  3.1115
   68GLOH    C2 9124   3.798   1.710   1.675 -0.3668 -0.2146 -0.0352
   68GLOH   H04 9125   3.690   1.720   1.690 -0.1549  0.2896  1.2155
   68GLOH    O2 9126   3.823   1.695   1.536 -0.1308  0.4936  0.0897
   68GLOH   H05 9127   3.762   1.634   1.491 -1.8562  1.4492  1.1230
   68GLOH    C3 9128   3.847   1.592   1.759 -0.6648 -0.6144 -0.1956
   68GLOH   H06 9129   3.951   1.568   1.737  0.0430 -0.0903  2.3382
   68GLOH   H07 9130   3.781   1.512   1.724 -1.6358 -0.5805  1.4751
   68GLOH    O3 9131   3.830   1.615   1.903 -0.1243  0.0622 -0.2474
   68GLOH   H01 9132   3.827   1.711   1.918  1.1395  0.1984 -0.7710
   69GLOH   H03 9133   4.008   2.143   2.515 -1.5209 -1.4412 -1.6301
   69GLOH    O1 9134   4.084   2.099   2.472 -0.1082 -0.0367 -0.6363
   69GLOH    C1 9135   4.029   1.978   2.412 -0.3448  0.4078 -0.5277
   69GLOH   H02 9136   4.102   1.932   2.345  0.3294  0.0220  0.4699
   69GLOH   H08 9137   3.943   1.999   2.348 -0.2206 -1.4749 -1.3635
   69GLOH    C2 9138   3.972   1.889   2.521  1.0869 -0.2516  0.4450
   69GLOH   H04 9139   3.921   1.955   2.592  0.7588  1.3992 -1.2861
   69GLOH    O2 9140   3.869   1.791   2.468 -1.3159  0.1055 -0.3267
   69GLOH   H05 9141   3.847   1.815   2.376  0.0934 -0.3290 -0.7905
   69GLOH    C3 9142   4.075   1.808   2.596  0.2957  0.0168 -0.2151
   69GLOH   H06 9143   4.126   1.772   2.507 -0.6690 -0.6085 -0.5166
   69GLOH   H07 9144   4.033   1.731   2.661 -0.0034  0.0155 -0.4122
   69GLOH    O3 9145   4.165   1.891   2.670  0.0497  0.3433  0.0823
   69GLOH   H01 9146   4.198   1.956   2.605  1.7167 -2.3441 -1.8414
   70GLOH   H03 9147   2.815   0.532   1.267  0.5743 -0.2739  1.1651
   70GLOH    O1 9148   2.876   0.490   1.204  0.2186  0.5004  0.2894
   70GLOH    C1 9149   2.820   0.503   1.070 -0.3207  0.1097 -0.3227
   70GLOH   H02 9150   2.891   0.486   0.989 -0.9360  2.4701 -1.3788
   70GLOH   H08 9151   2.793   0.606   1.049 -1.1230  0.4948  2.3609
   70GLOH    C2 9152   2.697   0.411   1.056  0.0653 -1.0363 -0.4798
   70GLOH   H04 9153   2.728   0.307   1.042  1.1785 -0.8837  0.7639
   70GLOH    O2 9154   2.611   0.433   1.166 -0.4283 -0.2609  0.1685
   70GLOH   H05 9155   2.655   0.396   1.244 -0.1360 -0.9778 -0.3283
   70GLOH    C3 9156   2.621   0.459   0.927 -0.7150 -0.0102 -0.2947
   70GLOH   H06 9157   2.692   0.471   0.845 -1.5242  1.0767 -0.8480
   70GLOH   H07 9158   2.571   0.554   0.949  0.1795  0.5555 -0.6513
   70GLOH    O3 9159   2.527   0.351   0.900  0.0007  0.6768 -0.0310
   70GLOH   H01 9160   2.552   0.263   0.933 -0.3917  0.0450 -1.3771
   71GLOH   H03 9161   3.347   2.052   1.607  3.3031  3.2386 -0.3549
   71GLOH    O1 9162   3.399   1.984   1.560  0.0987  0.3165  0.1532
   71GLOH    C1 9163   3.510   1.937   1.644  0.3916  0.1199  0.1215
   71GLOH   H02 9164   3.592   1.999   1.608  1.0222 -0.7726  0.0092
   71GLOH   H08 9165   3.539   1.834   1.621 -2.1689 -0.3117 -1.4799
   71GLOH    C2 9166   3.487   1.937   1.789  0.4504  0.5815 -0.2157
   71GLOH   H04 9167   3.385   1.904   1.813  0.9705 -0.6124  0.3323
   71GLOH    O2 9168   3.582   1.853   1.852 -0.5310  0.8198 -0.3301
   71GLOH   H05 9169   3.539   1.779   1.897  2.3041 -0.9092 -0.3427
   71GLOH    C3 9170   3.481   2.081   1.844  0.4923  0.6253 -0.5835
   71GLOH   H06 9171   3.574   2.123   1.808  0.1971  0.0412 -2.0894
   71GLOH   H07 9172   3.474   2.080   1.953  0.3371  1.5840 -0.5787
   71GLOH    O3 9173   3.371   2.163   1.792  0.2926  0.1376  0.2191
   71GLOH   H01 9174   3.411   2.241   1.748 -0.3023  0.7810  0.8052
   72GLOH   H03 9175   2.716   1.922   1.364  0.0487  0.9818 -1.6441
   72GLOH    O1 9176   2.637   1.876   1.332  0.4116 -0.5316 -0.4288
   72GLOH    C1 9177   2.662   1.735   1.323  0.4668  0.3713  0.3982
   72GLOH   H02 9178   2.752   1.713   1.379 -0.1952  0.6368  1.5760
   72GLOH   H08 9179   2.677   1.706   1.219  3.2188  0.2975  0.7741
   72GLOH    C2 9180   2.548   1.645   1.378 -1.2172 -0.5838  0.9706
   72GLOH   H04 9181   2.456   1.675   1.325 -1.4264 -0.5721  1.3416
   72GLOH    O2 9182   2.569   1.501   1.363 -0.0746  0.0648 -0.7216
   72GLOH   H05 9183   2.549   1.466   1.274 -1.1216  1.9250 -1.2466
   72GLOH    C3 9184   2.526   1.668   1.525  0.3091  0.4819 -1.2946
   72GLOH   H06 9185   2.438   1.612   1.558  0.6133  1.2616  0.9681
   72GLOH   H07 9186   2.514   1.775   1.542  0.5200 -0.0395  2.5533
   72GLOH    O3 9187   2.632   1.624   1.610 -0.6636 -0.4728  0.3147
   72GLOH   H01 9188   2.620   1.653   1.703 -3.3156 -1.2661  0.2480
   73GLOH   H03 9189   4.201   2.184   2.395 -0.1806 -0.0128 -0.1885
   73GLOH    O1 9190   4.296   2.207   2.386 -0.3168  0.6151 -0.0404
   73GLOH    C1 9191   4.326   2.215   2.243  0.5880 -0.2753 -0.0665
   73GLOH   H02 9192   4.236   2.220   2.181  1.3046 -0.1148 -1.1070
   73GLOH   H08 9193   4.381   2.128   2.206 -0.0361 -0.9498  0.5645
   73GLOH    C2 9194   4.416   2.337   2.235 -0.0321  0.2844 -0.7529
   73GLOH   H04 9195   4.500   2.316   2.304 -0.7075  2.2855  0.7399
   73GLOH    O2 9196   4.466   2.354   2.098 -0.0733 -0.1807  1.0092
   73GLOH   H05 9197   4.515   2.438   2.102  1.8122 -1.2643  1.0948
   73GLOH    C3 9198   4.333   2.465   2.263 -0.3486  0.4928 -0.5155
   73GLOH   H06 9199   4.395   2.550   2.236 -1.3500  1.5216  0.3867
   73GLOH   H07 9200   4.315   2.467   2.371 -0.2223  0.7474 -0.5002
   73GLOH    O3 9201   4.207   2.466   2.197  0.0568  0.6854 -0.3567
   73GLOH   H01 9202   4.231   2.469   2.103 -0.8526  0.3786 -0.6074
   74GLOH   H03 9203   2.150   1.239   0.090  2.7208 -0.0806  0.6515
   74GLOH    O1 9204   2.188   1.328   0.080  0.9472  0.5921 -0.2937
   74GLOH    C1 9205   2.302   1.303  -0.010 -0.1691 -0.5558  0.2155
   74GLOH   H02 9206   2.392   1.265   0.038  0.4089 -0.7955 -1.0527
   74GLOH   H08 9207   2.325   1.392  -0.068 -0.6229 -1.2854 -1.1217
   74GLOH    C2 9208   2.266   1.191  -0.116  0.2135  0.8828 -0.1582
   74GLOH   H04 9209   2.172   1.208  -0.171  1.1987 -2.8774 -3.2228
   74GLOH    O2 9210   2.371   1.171  -0.213  0.6165 -0.8351  0.0149
   74GLOH   H05 9211   2.379   1.240  -0.281  3.9630  1.4683  2.5539
   74GLOH    C3 9212   2.244   1.064  -0.033  0.8125  0.1871  0.6438
   74GLOH   H06 9213   2.331   1.033   0.025 -1.0861 -0.5084  3.2247
   74GLOH   H07 9214   2.222   0.986  -0.106  1.5880 -0.8991  1.5517
   74GLOH    O3 9215   2.138   1.063   0.069 -0.2570  0.1637 -0.3875
   74GLOH   H01 9216   2.128   0.969   0.091  2.1228 -0.2239 -0.8618
   75GLOH   H03 9217   4.849   0.695   1.181  0.5377  0.8035 -1.5381
   75GLOH    O1 9218   4.914   0.627   1.157  0.3940  0.2281 -0.3217
   75GLOH    C1 9219   4.886   0.503   1.233 -0.0611  0.1068 -0.2321
   75GLOH   H02 9220   4.848   0.525   1.332 -2.3671 -3.1021 -0.3258
   75GLOH   H08 9221   4.974   0.441   1.247 -1.2600 -1.5080  0.2955
   75GLOH    C2 9222   4.772   0.429   1.160 -0.4973 -0.0276 -0.7889
   75GLOH   H04 9223   4.814   0.372   1.076  0.0405 -0.0364 -0.5129
   75GLOH    O2 9224   4.728   0.328   1.252 -0.2606  0.3025  0.2968
   75GLOH   H05 9225   4.698   0.254   1.196  1.6777  0.7448 -1.4153
   75GLOH    C3 9226   4.664   0.522   1.107  0.2976 -0.1058 -0.5138
   75GLOH   H06 9227   4.703   0.581   1.024  1.0169 -0.9280 -0.7611
   75GLOH   H07 9228   4.641   0.599   1.181 -0.6195 -1.3332  0.4884
   75GLOH    O3 9229   4.541   0.459   1.072  0.2225 -0.9670  0.5377
   75GLOH   H01 9230   4.507   0.408   1.148 -1.8797 -1.4149 -0.6563
   76GLOH   H03 9231   2.795   1.245   0.048  3.2237  1.4889  3.4396
   76GLOH    O1 9232   2.808   1.322  -0.009 -0.0202 -0.1945  0.1800
   76GLOH    C1 9233   2.753   1.450   0.027 -0.0116 -0.4815  0.0751
   76GLOH   H02 9234   2.836   1.519   0.013 -1.0922  0.9129  0.3790
   76GLOH   H08 9235   2.728   1.451   0.133 -4.2432  0.2822 -0.8433
   76GLOH    C2 9236   2.624   1.492  -0.046  0.3304  0.0837 -0.8100
   76GLOH   H04 9237   2.537   1.433  -0.013  0.4222  1.9733  3.0312
   76GLOH    O2 9238   2.595   1.634  -0.042 -0.7538 -0.2126  0.8059
   76GLOH   H05 9239   2.664   1.685   0.005  2.1998 -1.6977 -1.7274
   76GLOH    C3 9240   2.640   1.459  -0.199  0.0928 -0.3312 -0.0912
   76GLOH   H06 9241   2.661   1.353  -0.217 -2.3566 -0.3986 -3.0078
   76GLOH   H07 9242   2.728   1.509  -0.238 -0.4580  0.5200 -0.2517
   76GLOH    O3 9243   2.521   1.484  -0.274  0.6183 -0.1101  0.3592
   76GLOH   H01 9244   2.489   1.567  -0.234  1.3246 -0.2926  1.3360
   77GLOH   H03 9245   4.601   1.229   2.616 -1.0511 -0.9082 -0.3863
   77GLOH    O1 9246   4.549   1.283   2.554  0.1678  0.3739 -0.3105
   77GLOH    C1 9247   4.592   1.230   2.423 -0.0983  0.3177 -0.0600
   77GLOH   H02 9248   4.576   1.123   2.425 -1.3750  0.4756 -1.1033
   77GLOH   H08 9249   4.696   1.257   2.406  0.4917 -1.0409  1.2908
   77GLOH    C2 9250   4.506   1.277   2.309 -0.0834 -0.0519 -0.2831
   77GLOH   H04 9251   4.494   1.386   2.321 -1.0958 -0.0950 -0.8046
   77GLOH    O2 9252   4.550   1.246   2.173  0.2329 -0.4797 -0.0271
   77GLOH   H05 9253   4.514   1.165   2.133  1.3555 -1.1353  0.2691
   77GLOH    C3 9254   4.359   1.240   2.346  0.2888  0.0327  0.0439
   77GLOH   H06 9255   4.288   1.288   2.278  0.1895  0.2917  0.3304
   77GLOH   H07 9256   4.347   1.267   2.450  1.9111 -0.8680  0.4882
   77GLOH    O3 9257   4.329   1.098   2.338  0.2006 -0.6446  0.1429
   77GLOH   H01 9258   4.240   1.086   2.375  0.6903 -0.2667  1.4943
   78GLOH   H03 9259   2.948   1.584   1.350  0.5887  0.0349  0.2091
   78GLOH    O1 9260   2.996   1.640   1.286  0.2903  0.1453  0.0821
   78GLOH    C1 9261   3.126   1.583   1.269 -0.0480 -0.3235  0.3524
   78GLOH   H02 9262   3.186   1.604   1.358  0.8830  0.9035 -0.5432
   78GLOH   H08 9263   3.186   1.631   1.192 -0.6260 -0.5993 -0.2653
   78GLOH    C2 9264   3.130   1.435   1.254  0.0016  0.6679 -0.1309
   78GLOH   H04 9265   3.073   1.395   1.339  0.6531 -0.8744 -0.3979
   78GLOH    O2 9266   3.075   1.397   1.134  0.4786  0.4149 -0.6123
   78GLOH   H05 9267   2.995   1.445   1.108 -0.5765 -1.1725 -0.3891
   78GLOH    C3 9268   3.276   1.386   1.269 -0.1558  0.7410  0.7844
   78GLOH   H06 9269   3.335   1.413   1.182 -2.8330  0.8906 -1.0518
   78GLOH   H07 9270   3.284   1.277   1.271 -0.6867  0.6465 -1.2466
   78GLOH    O3 9271   3.350   1.435   1.382  0.2343 -0.0114  0.1894
   78GLOH   H01 9272   3.393   1.520   1.357  0.0869 -0.1391 -0.5280
   79GLOH   H03 9273   2.908   1.099   0.208 -1.2204 -0.5767  2.3733
   79GLOH    O1 9274   2.831   1.132   0.157  0.1006 -0.0740  0.6590
   79GLOH    C1 9275   2.723   1.037   0.141  0.4048 -0.6192 -0.3131
   79GLOH   H02 9276   2.773   0.942   0.123 -0.1673 -0.9363 -0.2322
   79GLOH   H08 9277   2.663   1.072   0.057  0.8302 -0.0624 -0.3900
   79GLOH    C2 9278   2.635   1.021   0.262 -0.1372 -0.5514 -0.1262
   79GLOH   H04 9279   2.563   1.104   0.272 -1.3042 -1.5910  0.2033
   79GLOH    O2 9280   2.558   0.904   0.265  0.1175 -0.7425 -0.1428
   79GLOH   H05 9281   2.485   0.932   0.322  0.4443 -0.0633 -0.0427
   79GLOH    C3 9282   2.709   1.031   0.396 -0.1174  0.2843 -0.0603
   79GLOH   H06 9283   2.644   0.989   0.473 -0.3843  2.0700  0.7176
   79GLOH   H07 9284   2.727   1.136   0.419  0.7560 -0.5633  3.3717
   79GLOH    O3 9285   2.830   0.955   0.413 -0.1816  0.6078  0.2776
   79GLOH   H01 9286   2.811   0.882   0.474  1.3008 -0.3562 -0.3788
   80GLOH   H03 9287   3.463   9.626   2.568 -0.0343  2.3662  0.1283
   80GLOH    O1 9288   3.381   9.671   2.540 -1.0309  0.2191 -0.4643
   80GLOH    C1 9289   3.427   9.802   2.491  0.7125 -0.3886 -0.3234
   80GLOH   H02 9290   3.449   9.788   2.386 -4.2938  0.7191 -1.6511
   80GLOH   H08 9291   3.523   9.824   2.537  1.0466 -1.7382 -0.3442
   80GLOH    C2 9292   3.322   9.913   2.505  0.1095 -0.4158  0.2671
   80GLOH   H04 9293   3.232   9.858   2.474  0.4347 -0.2340 -1.0193
   80GLOH    O2 9294   3.323   9.956   2.642  0.1767  0.1220  0.5410
   80GLOH   H05 9295   3.234   9.976   2.676  0.3661 -2.4015  2.6904
   80GLOH    C3 9296   3.354  10.017   2.395 -0.2195 -0.1984 -0.4140
   80GLOH   H06 9297   3.446  10.066   2.427  0.1964 -1.8420  1.0168
   80GLOH   H07 9298   3.273  10.087   2.413 -0.6813 -0.7149 -0.4824
   80GLOH    O3 9299   3.353   9.980   2.262  0.5999  0.3147 -0.1507
   80GLOH   H01 9300   3.434   9.997   2.210 -0.3690 -0.9484 -2.1346
   81GLOH   H03 9301   3.409   2.504   2.478  1.0636  0.4246  0.0225
   81GLOH    O1 9302   3.414   2.527   2.573 -0.2982 -0.1647  0.2475
   81GLOH    C1 9303   3.384   2.408   2.649 -0.1721  0.0062  0.0308
   81GLOH   H02 9304   3.464   2.342   2.616  0.7632 -0.0304  2.2871
   81GLOH   H08 9305   3.287   2.373   2.613  0.8003  0.5189 -3.1824
   81GLOH    C2 9306   3.395   2.436   2.803  0.2088  0.8215  0.5866
   81GLOH   H04 9307   3.343   2.532   2.818  0.0124  0.9607 -0.8431
   81GLOH    O2 9308   3.346   2.323   2.874 -0.7163  0.3943 -0.0606
   81GLOH   H05 9309   3.354   2.338   2.970  3.2434 -0.3600 -0.2237
   81GLOH    C3 9310   3.539   2.470   2.838  0.5294 -0.8411 -0.4584
   81GLOH   H06 9311   3.606   2.393   2.801  0.5503 -0.0538 -2.1176
   81GLOH   H07 9312   3.548   2.477   2.947 -2.8390 -4.8480  0.1948
   81GLOH    O3 9313   3.562   2.595   2.776  0.3702  0.3692  0.1218
   81GLOH   H01 9314   3.509   2.589   2.694  1.3349  0.0805 -0.4893
   82GLOH   H03 9315   3.719   9.938   0.210 -0.1374  0.3031  2.1954
   82GLOH    O1 9316   3.713   9.855   0.259 -0.6524 -0.6181  0.6101
   82GLOH    C1 9317   3.797   9.880   0.376  0.3254 -0.1484  0.7690
   82GLOH   H02 9318   3.752   9.832   0.463  0.7545  1.0361  1.6758
   82GLOH   H08 9319   3.792   9.984   0.410 -1.1380 -0.2048  0.7636
   82GLOH    C2 9320   3.938   9.817   0.367  0.7524 -0.2999  0.0948
   82GLOH   H04 9321   3.995   9.844   0.277  1.6423 -1.1438  0.3884
   82GLOH    O2 9322   4.018   9.857   0.477 -0.0361 -0.0167 -0.3121
   82GLOH   H05 9323   4.061   9.942   0.457 -0.7519 -0.2070 -2.7432
   82GLOH    C3 9324   3.935   9.661   0.351 -0.7120 -0.0360  0.4755
   82GLOH   H06 9325   3.885   9.623   0.440 -1.4598 -1.1753 -0.4195
   82GLOH   H07 9326   4.034   9.615   0.352 -0.2213  0.9397 -1.6065
   82GLOH    O3 9327   3.871   9.615   0.233 -0.5436 -0.3485 -0.5536
   82GLOH   H01 9328   3.857   9.677   0.158 -1.0969  0.2203  0.0188
   83GLOH   H03 9329   4.646   1.761   1.872 -0.5045  0.2476 -1.3933
   83GLOH    O1 9330   4.600   1.833   1.918  0.6590  0.0603  0.1066
   83GLOH    C1 9331   4.659   1.968   1.897 -0.0998  0.1304  0.0125
   83GLOH   H02 9332   4.670   1.982   1.790  1.6824 -1.3292 -0.0148
   83GLOH   H08 9333   4.752   1.984   1.951 -1.1528  0.2483  1.8274
   83GLOH    C2 9334   4.564   2.071   1.963  0.0245  0.0692 -0.1118
   83GLOH   H04 9335   4.550   2.046   2.069 -3.1767 -3.2307 -1.2029
   83GLOH    O2 9336   4.611   2.200   1.950  0.4963  0.0454 -0.4942
   83GLOH   H05 9337   4.563   2.262   2.008 -1.2387  0.3988 -2.2590
   83GLOH    C3 9338   4.421   2.064   1.896  0.8156  0.7336  0.5196
   83GLOH   H06 9339   4.442   2.079   1.790  0.8268  2.8476  0.8032
   83GLOH   H07 9340   4.360   2.139   1.946  1.4724  2.2648 -0.8955
   83GLOH    O3 9341   4.365   1.930   1.914 -0.7798 -0.0996  0.5654
   83GLOH   H01 9342   4.444   1.877   1.936  0.4996  1.8437  0.8045
   84GLOH   H03 9343   3.417   0.991   2.323  0.8270 -0.3785  0.8442
   84GLOH    O1 9344   3.327   0.955   2.331  0.7999 -0.2943  0.9199
   84GLOH    C1 9345   3.297   0.830   2.257  0.7021 -0.6695 -0.3743
   84GLOH   H02 9346   3.368   0.750   2.282  0.7688 -0.1908  1.0112
   84GLOH   H08 9347   3.306   0.857   2.152 -1.1263 -1.7071 -0.8147
   84GLOH    C2 9348   3.150   0.784   2.304 -0.0573  0.5675  0.0274
   84GLOH   H04 9349   3.086   0.871   2.281  1.0922  2.1128  2.5498
   84GLOH    O2 9350   3.101   0.669   2.234 -0.6287 -0.7856 -0.6001
   84GLOH   H05 9351   3.036   0.696   2.167 -2.0544 -2.0116  0.2582
   84GLOH    C3 9352   3.155   0.762   2.461  0.6385 -0.2161 -0.8788
   84GLOH   H06 9353   3.227   0.684   2.486  2.2537  1.3118 -0.7008
   84GLOH   H07 9354   3.050   0.741   2.482 -0.0851  3.5958 -0.3305
   84GLOH    O3 9355   3.210   0.878   2.529  0.0179  0.3944  0.3599
   84GLOH   H01 9356   3.285   0.902   2.471  0.1573 -1.5371 -0.3022
   85GLOH   H03 9357   3.148   1.566   0.751 -0.8464 -1.8956  0.3856
   85GLOH    O1 9358   3.226   1.571   0.809 -0.7430  0.1689  0.0958
   85GLOH    C1 9359   3.191   1.609   0.943 -0.2772  0.4741  0.3324
   85GLOH   H02 9360   3.264   1.578   1.018 -0.4640  0.3774  0.4748
   85GLOH   H08 9361   3.093   1.574   0.975 -0.1244 -0.1596  0.1186
   85GLOH    C2 9362   3.184   1.761   0.931  0.4861 -0.2617  0.0509
   85GLOH   H04 9363   3.100   1.783   0.864  0.5833  0.4493  0.1619
   85GLOH    O2 9364   3.154   1.823   1.057 -0.2618  0.0263 -0.1079
   85GLOH   H05 9365   3.229   1.824   1.119  0.9803 -1.4542 -1.5252
   85GLOH    C3 9366   3.308   1.831   0.873  0.7899 -0.2449  0.3803
   85GLOH   H06 9367   3.284   1.937   0.870  1.0332 -0.2074 -0.4954
   85GLOH   H07 9368   3.318   1.798   0.769  1.7213 -0.4056  0.5156
   85GLOH    O3 9369   3.422   1.811   0.961  0.8295 -0.0035 -0.4667
   85GLOH   H01 9370   3.469   1.737   0.917 -0.6240 -0.7602 -0.7760
   86GLOH   H03 9371   2.770   1.147   2.350 -0.2347  1.8906  1.0218
   86GLOH    O1 9372   2.775   1.184   2.261  0.6110  0.0002  0.2540
   86GLOH    C1 9373   2.794   1.086   2.168  0.0007  0.8789 -0.0510
   86GLOH   H02 9374   2.845   1.004   2.217 -1.4635 -0.6374 -1.0201
   86GLOH   H08 9375   2.853   1.126   2.086  0.9316 -1.2763 -0.4641
   86GLOH    C2 9376   2.663   1.019   2.103 -0.4203  0.7557  0.0894
   86GLOH   H04 9377   2.589   1.096   2.074 -2.5799 -1.4168 -0.3685
   86GLOH    O2 9378   2.700   0.936   1.987  0.3725 -0.6292  0.1404
   86GLOH   H05 9379   2.713   0.990   1.907 -2.8444 -0.5976 -0.4228
   86GLOH    C3 9380   2.586   0.933   2.207 -0.2918 -0.3962  0.7088
   86GLOH   H06 9381   2.492   0.893   2.169 -1.0548  1.8097  0.1527
   86GLOH   H07 9382   2.554   1.020   2.265 -0.7103 -0.6363  0.8390
   86GLOH    O3 9383   2.651   0.835   2.287 -0.6901  0.4673  0.5443
   86GLOH   H01 9384   2.635   0.754   2.235 -2.3051 -1.3401  3.7117
   87GLOH   H03 9385   3.039   1.235   1.237 -1.1711  1.1972 -0.0533
   87GLOH    O1 9386   3.013   1.142   1.247  0.0510  0.7981 -0.4789
   87GLOH    C1 9387   3.116   1.050   1.289 -0.7181  0.0444 -0.3527
   87GLOH   H02 9388   3.127   1.061   1.397  2.1467  0.8969 -0.7134
   87GLOH   H08 9389   3.210   1.079   1.244  1.0303  0.1667  3.2344
   87GLOH    C2 9390   3.088   0.899   1.247 -1.0439 -1.1482 -0.0484
   87GLOH   H04 9391   3.176   0.837   1.267 -2.8115 -3.4267  0.8917
   87GLOH    O2 9392   2.975   0.860   1.324  0.0759 -0.0572 -0.9285
   87GLOH   H05 9393   2.984   0.895   1.414  0.6526  0.7773 -1.3003
   87GLOH    C3 9394   3.064   0.885   1.096  0.4100 -0.4653  1.0430
   87GLOH   H06 9395   2.996   0.966   1.072  3.0272  1.2565 -0.9138
   87GLOH   H07 9396   3.013   0.790   1.078 -1.2083  0.5763  0.1050
   87GLOH    O3 9397   3.173   0.898   1.009  0.0755  0.1390 -0.3388
   87GLOH   H01 9398   3.140   0.898   0.918  0.9103  0.7232 -0.6499
   88GLOH   H03 9399   2.361   2.055   0.315 -2.9284  1.2551  0.3263
   88GLOH    O1 9400   2.381   2.100   0.231  0.1343 -0.4107  0.1010
   88GLOH    C1 9401   2.357   2.028   0.106 -0.0424  0.5098 -0.7902
   88GLOH   H02 9402   2.409   2.069   0.019  1.4934 -0.4422 -0.3432
   88GLOH   H08 9403   2.250   2.026   0.089  0.1102 -1.9625 -1.6219
   88GLOH    C2 9404   2.412   1.884   0.130  0.8696 -0.3800 -0.2815
   88GLOH   H04 9405   2.372   1.853   0.228 -0.5353 -0.1112 -0.7508
   88GLOH    O2 9406   2.379   1.800   0.019 -0.7132 -0.1366  0.2299
   88GLOH   H05 9407   2.454   1.738   0.019 -0.4500  0.1333 -2.1995
   88GLOH    C3 9408   2.572   1.912   0.142  0.3356  0.0415  0.4185
   88GLOH   H06 9409   2.590   1.983   0.222 -0.0349 -1.0045  1.4528
   88GLOH   H07 9410   2.605   1.963   0.052  1.0850  0.0566  0.6973
   88GLOH    O3 9411   2.647   1.793   0.139 -0.0658  0.9449  0.2996
   88GLOH   H01 9412   2.741   1.807   0.158 -0.3601  4.0171 -0.3577
   89GLOH   H03 9413   4.015   9.817   1.390 -0.1317 -0.2830  0.1233
   89GLOH    O1 9414   3.958   9.739   1.398  0.1854 -0.5439 -0.1559
   89GLOH    C1 9415   4.035   9.628   1.462  0.5479 -0.3046  0.4564
   89GLOH   H02 9416   4.009   9.537   1.407 -1.4238  0.7675 -0.4066
   89GLOH   H08 9417   4.006   9.633   1.567  1.4001 -1.0890  0.7358
   89GLOH    C2 9418   4.186   9.650   1.455  0.4436  0.5554  0.1452
   89GLOH   H04 9419   4.224   9.669   1.556  1.1985 -1.9689  0.3733
   89GLOH    O2 9420   4.246   9.528   1.392  0.1974 -0.2820  0.2926
   89GLOH   H05 9421   4.309   9.493   1.458  0.1119 -0.5092  0.2545
   89GLOH    C3 9422   4.217   9.773   1.365  0.2789  0.4837  0.0386
   89GLOH   H06 9423   4.192   9.742   1.263  2.0065  2.9988 -1.2111
   89GLOH   H07 9424   4.325   9.788   1.374 -0.1258  2.3648  2.0757
   89GLOH    O3 9425   4.145   9.893   1.400 -0.8488 -0.6513 -0.3567
   89GLOH   H01 9426   4.214   9.958   1.423  2.1068 -4.1429  1.1364
   90GLOH   H03 9427   2.461   9.557   2.247  1.1647 -0.1463 -1.7280
   90GLOH    O1 9428   2.377   9.564   2.197  0.2456 -0.3017 -0.2222
   90GLOH    C1 9429   2.403   9.541   2.052 -0.1244  0.4350  0.1022
   90GLOH   H02 9430   2.428   9.436   2.042  2.2116  1.1023 -1.5643
   90GLOH   H08 9431   2.489   9.602   2.027  0.1215  0.0194 -0.0582
   90GLOH    C2 9432   2.275   9.574   1.967  0.4101 -0.2552 -0.3639
   90GLOH   H04 9433   2.264   9.682   1.985 -2.8707 -0.4407 -0.9874
   90GLOH    O2 9434   2.298   9.549   1.828 -0.3613 -0.4858  0.7017
   90GLOH   H05 9435   2.240   9.620   1.794 -0.6432 -1.1124 -0.1364
   90GLOH    C3 9436   2.151   9.506   2.026  0.3853  0.4221 -0.0425
   90GLOH   H06 9437   2.175   9.400   2.032 -2.6548 -0.7748 -5.4052
   90GLOH   H07 9438   2.065   9.507   1.959  0.1890  2.0537  0.2161
   90GLOH    O3 9439   2.127   9.568   2.153  0.1443 -0.0625  0.0137
   90GLOH   H01 9440   2.213   9.588   2.193 -0.5655 -0.8218  1.9287
   91GLOH   H03 9441   3.776   1.686   2.564  1.3358 -2.2175 -0.3855
   91GLOH    O1 9442   3.715   1.613   2.583 -0.1619 -0.7444  0.6795
   91GLOH    C1 9443   3.588   1.645   2.515 -0.4884  0.5028 -0.8064
   91GLOH   H02 9444   3.516   1.566   2.534 -1.3601  1.7730  1.3691
   91GLOH   H08 9445   3.609   1.655   2.408 -1.7870  2.6567 -0.8827
   91GLOH    C2 9446   3.528   1.778   2.554  0.6301  0.0393 -0.2383
   91GLOH   H04 9447   3.610   1.847   2.529  1.6718 -1.1201 -0.0907
   91GLOH    O2 9448   3.411   1.797   2.478 -0.1257 -0.5973 -0.0663
   91GLOH   H05 9449   3.345   1.730   2.503  1.5344 -1.6805  1.5562
   91GLOH    C3 9450   3.501   1.785   2.708 -0.1157  0.4935  0.0256
   91GLOH   H06 9451   3.448   1.877   2.731  0.4920  0.8907 -0.1601
   91GLOH   H07 9452   3.599   1.782   2.756  0.4800 -0.3228 -1.1939
   91GLOH    O3 9453   3.426   1.679   2.764 -0.2781  0.1635  0.4136
   91GLOH   H01 9454   3.483   1.600   2.768  0.1465  0.4015 -0.6899
   92GLOH   H03 9455   3.604   0.491   2.035 -0.5937  0.5130 -2.7489
   92GLOH    O1 9456   3.695   0.463   2.014  0.1738  0.3800  0.3823
   92GLOH    C1 9457   3.711   0.387   1.894  0.6541 -0.0264  0.6065
   92GLOH   H02 9458   3.664   0.290   1.882  1.0259  0.1420 -2.6375
   92GLOH   H08 9459   3.818   0.379   1.875  0.5229  0.6050 -0.4874
   92GLOH    C2 9460   3.663   0.477   1.781  0.5452 -0.0611  0.3504
   92GLOH   H04 9461   3.715   0.573   1.780 -0.7620  0.6529 -2.2495
   92GLOH    O2 9462   3.695   0.418   1.657 -0.2507 -0.4087  0.0265
   92GLOH   H05 9463   3.790   0.430   1.638 -0.5527 -3.0889 -3.8998
   92GLOH    C3 9464   3.512   0.506   1.782  0.3516 -0.1074  0.3160
   92GLOH   H06 9465   3.458   0.414   1.805  0.9132 -1.3418 -3.0855
   92GLOH   H07 9466   3.487   0.533   1.680 -2.4178 -2.2552  0.3579
   92GLOH    O3 9467   3.470   0.612   1.875 -0.6652  0.2237  0.2195
   92GLOH   H01 9468   3.504   0.701   1.855 -0.5254  0.1731  0.2363
   93GLOH   H03 9469   4.153   0.569   2.351  1.0345 -1.8270 -0.0784
   93GLOH    O1 9470   4.080   0.510   2.325 -0.3935 -0.0896 -0.0721
   93GLOH    C1 9471   4.091   0.378   2.375 -0.1483  0.1400 -0.6405
   93GLOH   H02 9472   4.183   0.365   2.431 -0.0924  0.0820 -0.7435
   93GLOH   H08 9473   4.098   0.316   2.285 -1.1364 -1.3451  0.2862
   93GLOH    C2 9474   3.967   0.348   2.465  0.1976  0.0374 -0.2729
   93GLOH   H04 9475   3.873   0.366   2.412 -1.4600 -0.4300  2.4213
   93GLOH    O2 9476   3.954   0.204   2.490  0.2291  0.3886 -0.4609
   93GLOH   H05 9477   3.865   0.173   2.470  0.3558 -0.0571 -0.3288
   93GLOH    C3 9478   3.978   0.410   2.603  0.1839 -0.7105 -0.7497
   93GLOH   H06 9479   4.042   0.499   2.599  1.1130 -1.2051  1.7829
   93GLOH   H07 9480   4.041   0.339   2.658  0.9372  0.3129 -0.2594
   93GLOH    O3 9481   3.862   0.435   2.679 -0.5357 -0.4772 -0.4802
   93GLOH   H01 9482   3.823   0.511   2.632 -0.4046  0.4842  0.9289
   94GLOH   H03 9483   3.916   2.067   0.028  0.5861  0.5729  2.2926
   94GLOH    O1 9484   3.866   2.146   0.002 -0.1695 -0.5161  0.3730
   94GLOH    C1 9485   3.953   2.250  -0.055  0.0708  0.0871  0.4215
   94GLOH   H02 9486   4.012   2.207  -0.136  0.8046 -0.0530  1.0286
   94GLOH   H08 9487   4.020   2.303   0.013  0.1286 -0.2575  0.6302
   94GLOH    C2 9488   3.874   2.360  -0.122  0.1380  0.8560  0.6976
   94GLOH   H04 9489   3.793   2.385  -0.051 -2.6810  0.1979 -2.1742
   94GLOH    O2 9490   3.944   2.485  -0.158  0.1624  0.2034  0.3367
   94GLOH   H05 9491   3.878   2.556  -0.160 -0.6701 -0.5338  1.3760
   94GLOH    C3 9492   3.792   2.296  -0.235  0.1153 -0.1661  0.5233
   94GLOH   H06 9493   3.719   2.371  -0.264  0.4526  0.3669  1.0614
   94GLOH   H07 9494   3.731   2.217  -0.191 -0.4835 -1.1717 -2.0095
   94GLOH    O3 9495   3.874   2.248  -0.345 -0.5369 -0.2554  0.2913
   94GLOH   H01 9496   3.922   2.317  -0.395 -1.3313  0.6364  0.7631
   95GLOH   H03 9497   3.398   2.021   2.255 -0.5070 -1.9843 -0.8926
   95GLOH    O1 9498   3.323   2.006   2.315  0.0179 -0.0923  0.2686
   95GLOH    C1 9499   3.218   1.989   2.224 -0.4041  0.1016  0.1188
   95GLOH   H02 9500   3.177   2.076   2.171  0.5203 -0.2768 -1.2572
   95GLOH   H08 9501   3.135   1.942   2.276  1.7067 -4.3978 -0.3510
   95GLOH    C2 9502   3.255   1.879   2.117 -0.2644  0.0206  0.1175
   95GLOH   H04 9503   3.329   1.923   2.049  0.5718 -0.1236  0.9183
   95GLOH    O2 9504   3.333   1.777   2.182  0.2473  0.4073 -0.3217
   95GLOH   H05 9505   3.347   1.810   2.273 -2.6130 -0.4212  0.4797
   95GLOH    C3 9506   3.133   1.817   2.037  0.0413  0.7665 -0.1551
   95GLOH   H06 9507   3.067   1.897   2.004  0.8004  0.9606 -1.2543
   95GLOH   H07 9508   3.076   1.752   2.103  0.3034  1.3780  0.6784
   95GLOH    O3 9509   3.178   1.732   1.925 -0.4668 -0.4266 -0.0149
   95GLOH   H01 9510   3.175   1.788   1.845  0.5369  0.1927  0.3802
   96GLOH   H03 9511   3.492   0.488   0.195 -2.1838  0.2054  1.2200
   96GLOH    O1 9512   3.522   0.396   0.202 -0.1069  0.6541 -0.9074
   96GLOH    C1 9513   3.461   0.328   0.094 -0.8021  0.0241 -0.0881
   96GLOH   H02 9514   3.543   0.298   0.029 -0.8435 -2.2890  0.8901
   96GLOH   H08 9515   3.397   0.397   0.040 -0.6185  0.1676 -0.1246
   96GLOH    C2 9516   3.387   0.211   0.139  0.0967 -1.1809 -0.2124
   96GLOH   H04 9517   3.292   0.245   0.183 -0.2111 -1.4699 -0.6522
   96GLOH    O2 9518   3.360   0.141   0.016  0.1683  0.5211  0.4081
   96GLOH   H05 9519   3.277   0.091   0.023 -0.3232  1.1916 -0.4457
   96GLOH    C3 9520   3.467   0.121   0.239 -0.6693 -0.3380  0.4326
   96GLOH   H06 9521   3.510   0.184   0.317 -0.6673 -1.3164  1.2294
   96GLOH   H07 9522   3.552   0.064   0.202  1.0538  1.5247  1.3826
   96GLOH    O3 9523   3.374   0.029   0.300 -0.0802 -0.4619 -0.2341
   96GLOH   H01 9524   3.359  -0.046   0.239  0.9127 -0.8796  0.0259
   97GLOH   H03 9525   2.575   2.063   2.555 -1.9925 -0.4949  1.4315
   97GLOH    O1 9526   2.515   2.078   2.480 -0.2935  0.2024  0.1793
   97GLOH    C1 9527   2.382   2.015   2.495  0.8939  0.2794 -0.3089
   97GLOH   H02 9528   2.327   2.038   2.404  1.1851 -1.1161 -0.8520
   97GLOH   H08 9529   2.329   2.076   2.568  4.4011  0.3012  2.3649
   97GLOH    C2 9530   2.377   1.864   2.521 -0.5844 -0.7091  0.0794
   97GLOH   H04 9531   2.472   1.841   2.572 -1.0069  0.3587  1.3715
   97GLOH    O2 9532   2.284   1.827   2.630 -0.1599  0.0171  0.3598
   97GLOH   H05 9533   2.320   1.821   2.720  1.2805 -2.5982 -0.3157
   97GLOH    C3 9534   2.357   1.783   2.390  0.1167  0.5696 -0.0717
   97GLOH   H06 9535   2.400   1.844   2.311  1.7730 -1.6713 -0.9431
   97GLOH   H07 9536   2.249   1.778   2.379  0.0451  0.4488  0.6950
   97GLOH    O3 9537   2.404   1.647   2.375 -0.3877  0.5386 -0.8311
   97GLOH   H01 9538   2.336   1.583   2.404 -1.4436  1.6683 -0.7739
   98GLOH   H03 9539   2.697   1.668   0.649  2.0782 -1.7399  1.1833
   98GLOH    O1 9540   2.643   1.587   0.644  0.4768 -0.6199 -0.4112
   98GLOH    C1 9541   2.676   1.503   0.759  0.1917 -0.2187 -0.1691
   98GLOH   H02 9542   2.632   1.409   0.727 -0.0032  0.1663 -1.0214
   98GLOH   H08 9543   2.614   1.537   0.842 -1.0166 -0.0443 -1.1437
   98GLOH    C2 9544   2.826   1.480   0.795  0.4580  0.0108 -0.0649
   98GLOH   H04 9545   2.870   1.571   0.838 -3.0543  2.0376 -0.5599
   98GLOH    O2 9546   2.833   1.372   0.891  0.3725 -0.4032 -0.2072
   98GLOH   H05 9547   2.825   1.397   0.985  0.6510  1.2447 -0.6065
   98GLOH    C3 9548   2.901   1.438   0.668 -0.2299 -0.0186 -0.1939
   98GLOH   H06 9549   2.848   1.494   0.591  0.1197 -0.9351 -1.1055
   98GLOH   H07 9550   2.883   1.333   0.649  0.8465 -0.3135  0.3524
   98GLOH    O3 9551   3.047   1.456   0.669  0.0597 -0.0736 -0.2482
   98GLOH   H01 9552   3.079   1.384   0.612 -2.8409 -0.8651 -0.9853
   99GLOH   H03 9553   4.246   0.514   1.773 -1.3081  0.2513 -1.2785
   99GLOH    O1 9554   4.280   0.450   1.708 -0.2096 -0.3433 -0.1429
   99GLOH    C1 9555   4.421   0.451   1.697  0.1980  0.2085  0.1949
   99GLOH   H02 9556   4.446   0.352   1.659 -0.4166 -0.2607  0.9976
   99GLOH   H08 9557   4.461   0.448   1.798 -1.6721 -1.3146  0.9194
   99GLOH    C2 9558   4.476   0.568   1.615 -1.1154  0.0444  0.0196
   99GLOH   H04 9559   4.412   0.597   1.531 -2.7299 -1.6985  0.6258
   99GLOH    O2 9560   4.488   0.688   1.698 -1.0263  0.1348  0.3849
   99GLOH   H05 9561   4.412   0.679   1.759 -1.7582 -0.1159 -0.5560
   99GLOH    C3 9562   4.612   0.513   1.556  0.7800 -0.0481  0.1877
   99GLOH   H06 9563   4.684   0.495   1.637 -0.4361  0.5347  1.4185
   99GLOH   H07 9564   4.657   0.591   1.494  0.3437  0.1605  0.1344
   99GLOH    O3 9565   4.594   0.400   1.470 -0.3866 -0.8219 -0.3582
   99GLOH   H01 9566   4.675   0.370   1.425  0.9523  4.2256 -1.6104
  100GLOH   H03 9567   4.128   9.933   2.214  0.0207  0.8824  0.7414
  100GLOH    O1 9568   4.139   9.928   2.117  0.8126  0.7388  0.8348
  100GLOH    C1 9569   4.160   9.791   2.078  0.4327  0.1537 -0.9453
  100GLOH   H02 9570   4.089   9.775   1.996 -3.3026 -1.4240  2.4542
  100GLOH   H08 9571   4.139   9.723   2.160 -0.9550  0.4586 -1.0472
  100GLOH    C2 9572   4.308   9.770   2.028  0.3939  0.6160 -0.5105
  100GLOH   H04 9573   4.367   9.768   2.120 -2.1367  1.2437  1.1719
  100GLOH    O2 9574   4.336   9.657   1.947 -0.1417  0.3990 -0.1133
  100GLOH   H05 9575   4.333   9.679   1.853  1.4575  0.3441 -0.1976
  100GLOH    C3 9576   4.354   9.884   1.937  0.6136  0.2074  0.0116
  100GLOH   H06 9577   4.458   9.866   1.908  0.2344 -0.1069 -1.1741
  100GLOH   H07 9578   4.355   9.977   1.994  3.0114 -1.0011  2.0791
  100GLOH    O3 9579   4.289   9.892   1.811  0.5140  0.2222  0.1982
  100GLOH   H01 9580   4.334   9.964   1.762 -3.0615  2.1356 -0.4280
  101GLOH   H03 9581   3.354   1.237   0.355 -0.0662 -1.8292 -0.2519
  101GLOH    O1 9582   3.398   1.233   0.442 -0.0649  0.6030 -0.0868
  101GLOH    C1 9583   3.526   1.299   0.435  0.5483  0.2180 -0.3456
  101GLOH   H02 9584   3.559   1.296   0.539 -3.9530  1.5743  1.2548
  101GLOH   H08 9585   3.530   1.404   0.406 -1.5758 -0.2524 -2.4593
  101GLOH    C2 9586   3.621   1.221   0.349  0.0247  0.4953  0.2948
  101GLOH   H04 9587   3.617   1.117   0.385  1.7039 -0.6931 -2.7156
  101GLOH    O2 9588   3.577   1.213   0.213 -0.2467 -0.3737 -0.7013
  101GLOH   H05 9589   3.547   1.122   0.199 -0.2259 -0.5197  0.1482
  101GLOH    C3 9590   3.762   1.293   0.359 -0.2423  0.2754 -0.4808
  101GLOH   H06 9591   3.783   1.380   0.296  0.7610  0.3821 -0.0108
  101GLOH   H07 9592   3.837   1.219   0.328  2.5035  2.6960  0.1456
  101GLOH    O3 9593   3.806   1.333   0.492 -0.4364  1.3488  0.2519
  101GLOH   H01 9594   3.807   1.259   0.555  2.1332  1.6578  0.6356
  102GLOH   H03 9595   2.952   0.970   0.335  1.4008 -2.9879 -0.4438
  102GLOH    O1 9596   3.025   1.007   0.281 -0.1735  0.1487 -0.5834
  102GLOH    C1 9597   3.113   1.069   0.378  1.1432 -0.6084 -0.1386
  102GLOH   H02 9598   3.217   1.061   0.348  0.7997  1.0726 -1.8502
  102GLOH   H08 9599   3.101   1.022   0.476 -1.3424 -1.0127 -0.6136
  102GLOH    C2 9600   3.078   1.221   0.403  0.2430 -0.0799  0.2383
  102GLOH   H04 9601   2.969   1.230   0.416  0.1652 -1.0766  0.2997
  102GLOH    O2 9602   3.148   1.270   0.518 -0.7944  0.3382 -0.0316
  102GLOH   H05 9603   3.239   1.237   0.524 -1.1688 -0.3454  2.5608
  102GLOH    C3 9604   3.117   1.300   0.280  0.5054  0.6185 -0.0854
  102GLOH   H06 9605   3.109   1.406   0.304  2.4575  0.6790  0.3647
  102GLOH   H07 9606   3.059   1.264   0.195  1.4831 -0.2392 -0.3989
  102GLOH    O3 9607   3.257   1.267   0.244 -0.3008 -0.3874 -0.1695
  102GLOH   H01 9608   3.261   1.247   0.149  3.5809 -0.2481 -0.1329
  103GLOH   H03 9609   3.213   9.352   1.701  0.1452  0.1143 -1.6350
  103GLOH    O1 9610   3.139   9.415   1.710  0.8535  0.7233  0.1860
  103GLOH    C1 9611   3.087   9.413   1.570 -0.0412  0.5739 -0.4801
  103GLOH   H02 9612   3.159   9.475   1.517  1.2705  0.0030  0.6142
  103GLOH   H08 9613   2.982   9.442   1.573 -0.0289  0.4638  1.1929
  103GLOH    C2 9614   3.080   9.278   1.499 -0.5141 -0.4188 -0.9936
  103GLOH   H04 9615   3.026   9.211   1.567  0.3442  0.5982  0.7115
  103GLOH    O2 9616   3.018   9.281   1.369 -0.6257  0.0739 -0.2420
  103GLOH   H05 9617   3.059   9.352   1.317  1.0788  1.1433  2.4788
  103GLOH    C3 9618   3.223   9.230   1.477 -0.9277 -0.1397 -0.4295
  103GLOH   H06 9619   3.271   9.303   1.412 -3.4667  1.3340 -0.6836
  103GLOH   H07 9620   3.222   9.133   1.427  1.0090 -1.7102  2.4010
  103GLOH    O3 9621   3.292   9.223   1.600  0.7481  0.2923 -0.1089
  103GLOH   H01 9622   3.385   9.197   1.587  0.2932 -2.6687  2.0895
  104GLOH   H03 9623   3.098   1.597   1.950  0.2989 -0.3769 -2.6279
  104GLOH    O1 9624   3.041   1.519   1.958 -0.1453  0.1443 -0.0813
  104GLOH    C1 9625   2.920   1.514   1.883 -0.5308 -1.0705  0.1673
  104GLOH   H02 9626   2.893   1.410   1.864 -1.6230 -0.9358  0.9513
  104GLOH   H08 9627   2.915   1.572   1.791 -1.6298 -0.6833  0.4587
  104GLOH    C2 9628   2.800   1.572   1.965 -0.3819  0.4721 -0.3142
  104GLOH   H04 9629   2.848   1.658   2.015 -0.4980 -0.2515  1.0654
  104GLOH    O2 9630   2.678   1.608   1.891 -0.7132  0.2230  0.3045
  104GLOH   H05 9631   2.670   1.705   1.898  2.0467  0.4845  0.4144
  104GLOH    C3 9632   2.754   1.464   2.066  0.8591  0.6632 -0.2344
  104GLOH   H06 9633   2.741   1.369   2.015  2.7031  0.0054  0.4849
  104GLOH   H07 9634   2.660   1.493   2.112  1.5568  1.2798  0.8322
  104GLOH    O3 9635   2.845   1.445   2.174  0.2218 -0.6501  0.0523
  104GLOH   H01 9636   2.820   1.367   2.227  1.1350  0.0705  1.5612
  105GLOH   H03 9637   2.884   0.090   1.638 -0.6830 -0.3114 -0.2329
  105GLOH    O1 9638   2.827   0.135   1.702  0.6095  0.8597  0.1150
  105GLOH    C1 9639   2.756   0.254   1.641  0.7193  0.3217 -0.5883
  105GLOH   H02 9640   2.806   0.349   1.658 -0.4349  0.4304  2.6042
  105GLOH   H08 9641   2.659   0.262   1.691  2.6491  1.4256  3.1567
  105GLOH    C2 9642   2.745   0.239   1.486 -0.1504  0.0022  0.5763
  105GLOH   H04 9643   2.700   0.140   1.465  0.7206 -0.6751  1.8171
  105GLOH    O2 9644   2.680   0.349   1.412  0.0845  0.9969 -0.1479
  105GLOH   H05 9645   2.720   0.430   1.446 -0.7796  1.3001  0.1521
  105GLOH    C3 9646   2.891   0.239   1.436  0.5472 -0.7097 -0.2049
  105GLOH   H06 9647   2.921   0.343   1.452  1.2793 -1.1695  1.5367
  105GLOH   H07 9648   2.907   0.226   1.329  1.4026  1.1816 -0.3391
  105GLOH    O3 9649   2.969   0.143   1.507 -0.8950  0.3291 -0.6476
  105GLOH   H01 9650   3.058   0.180   1.514 -0.9955  0.3719  0.5043
  106GLOH   H03 9651   3.303   1.428   0.814  1.4154  0.3828  0.7059
  106GLOH    O1 9652   3.306   1.331   0.804 -0.2184  0.3712  0.1921
  106GLOH    C1 9653   3.327   1.255   0.928 -0.2310  0.1789 -0.3704
  106GLOH   H02 9654   3.311   1.148   0.914  1.5569  0.0800 -1.7423
  106GLOH   H08 9655   3.259   1.293   1.005  0.1000 -2.4599  1.2452
  106GLOH    C2 9656   3.476   1.273   0.978 -0.1589  0.7312  0.4414
  106GLOH   H04 9657   3.505   1.379   0.978 -2.1729  1.3437 -2.2409
  106GLOH    O2 9658   3.499   1.213   1.107 -0.3907 -0.0306 -0.2206
  106GLOH   H05 9659   3.458   1.125   1.111  0.1822 -0.2887  0.0184
  106GLOH    C3 9660   3.570   1.202   0.880  0.3793 -0.7566  0.4039
  106GLOH   H06 9661   3.533   1.226   0.780 -0.4499  0.2836  0.9484
  106GLOH   H07 9662   3.555   1.096   0.898  1.5634 -0.9205  0.4318
  106GLOH    O3 9663   3.699   1.264   0.893 -0.4122  0.2907 -0.3130
  106GLOH   H01 9664   3.681   1.352   0.932 -0.3778  0.2613 -0.2314
  107GLOH   H03 9665   2.953   2.025   1.356 -0.3106  2.0727  3.4216
  107GLOH    O1 9666   2.878   1.969   1.384  0.0393 -0.3205 -0.1106
  107GLOH    C1 9667   2.851   2.018   1.516 -0.3432 -0.1218  0.6666
  107GLOH   H02 9668   2.753   1.993   1.555 -0.3044  0.6298  1.2763
  107GLOH   H08 9669   2.862   2.127   1.516 -2.5657  0.1260  0.0431
  107GLOH    C2 9670   2.973   1.999   1.621  0.7657  0.1387  0.5342
  107GLOH   H04 9671   3.066   2.054   1.598 -1.0133  3.9976  2.2027
  107GLOH    O2 9672   2.916   2.032   1.748 -0.0050  0.3686  0.1030
  107GLOH   H05 9673   2.996   2.054   1.797  0.2656  0.6572 -0.4648
  107GLOH    C3 9674   3.019   1.852   1.612  1.0644 -0.1856 -0.1076
  107GLOH   H06 9675   3.042   1.818   1.511 -1.7478 -1.7847 -0.2797
  107GLOH   H07 9676   2.932   1.796   1.645  0.2757  1.5431  0.8451
  107GLOH    O3 9677   3.133   1.818   1.690  0.2442 -0.3783  0.0007
  107GLOH   H01 9678   3.167   1.733   1.656 -2.5474 -1.0991 -1.1456
  108GLOH   H03 9679   2.532   1.072   1.477  0.9883 -2.7650 -1.3704
  108GLOH    O1 9680   2.616   1.107   1.510 -0.3908 -0.2621 -0.3844
  108GLOH    C1 9681   2.711   1.001   1.537 -0.3354  0.2014  0.6179
  108GLOH   H02 9682   2.766   0.967   1.448  2.2266 -1.1014  2.6290
  108GLOH   H08 9683   2.649   0.918   1.571  0.4061 -0.9421 -0.7445
  108GLOH    C2 9684   2.806   1.045   1.651 -0.5890  0.6815  0.2955
  108GLOH   H04 9685   2.869   1.129   1.617 -0.8505  0.2848 -1.1973
  108GLOH    O2 9686   2.731   1.079   1.777 -0.0283  0.4909  0.2198
  108GLOH   H05 9687   2.693   1.166   1.755  0.7842  0.2169 -2.3576
  108GLOH    C3 9688   2.912   0.934   1.664  0.0374  0.5703  0.0984
  108GLOH   H06 9689   2.863   0.838   1.648  0.5143 -0.1307  2.5615
  108GLOH   H07 9690   2.947   0.930   1.767  0.3457 -0.4044 -0.0398
  108GLOH    O3 9691   3.030   0.941   1.579 -0.4535  0.0411 -0.3805
  108GLOH   H01 9692   3.085   0.864   1.604 -1.3567 -0.9765 -1.4108
  109GLOH   H03 9693   4.554   1.715   0.588  0.9444  2.5746 -0.4321
  109GLOH    O1 9694   4.469   1.718   0.636  0.9365 -0.6360 -0.1502
  109GLOH    C1 9695   4.419   1.853   0.645  0.3092 -0.5062  0.2426
  109GLOH   H02 9696   4.328   1.867   0.586  2.4022  0.4156 -2.8217
  109GLOH   H08 9697   4.491   1.924   0.604 -0.5758  0.5427  0.4663
  109GLOH    C2 9698   4.380   1.893   0.789  0.9347 -0.3348  0.6783
  109GLOH   H04 9699   4.468   1.875   0.853  0.3882  0.2389  1.6032
  109GLOH    O2 9700   4.337   2.023   0.811  0.3798 -0.0910 -0.6821
  109GLOH   H05 9701   4.370   2.053   0.898 -0.9771 -0.9720  0.1524
  109GLOH    C3 9702   4.270   1.800   0.838  0.4910 -0.7161  0.5580
  109GLOH   H06 9703   4.246   1.821   0.943 -0.7744  0.8132 -0.0198
  109GLOH   H07 9704   4.308   1.699   0.825  0.2725 -0.6878 -0.3422
  109GLOH    O3 9705   4.146   1.813   0.763 -0.2031 -0.1954 -0.2769
  109GLOH   H01 9706   4.131   1.909   0.761  0.2923 -0.1229 -0.9798
  110GLOH   H03 9707   2.826   1.871   0.650  0.2825  0.8540 -2.6683
  110GLOH    O1 9708   2.806   1.787   0.605 -0.3740 -0.2356 -0.4368
  110GLOH    C1 9709   2.790   1.798   0.461 -0.4826 -0.2255 -0.6013
  110GLOH   H02 9710   2.746   1.895   0.437 -2.1874 -0.6446  0.7659
  110GLOH   H08 9711   2.725   1.721   0.420  1.0690 -1.6530 -0.3920
  110GLOH    C2 9712   2.919   1.779   0.383 -0.1557  0.9590  0.7260
  110GLOH   H04 9713   2.947   1.672   0.384 -0.2452  0.8992 -1.3363
  110GLOH    O2 9714   2.896   1.823   0.246  0.2304 -0.3283 -0.1458
  110GLOH   H05 9715   2.980   1.798   0.203  0.2625 -1.8668  0.7541
  110GLOH    C3 9716   3.037   1.843   0.450 -0.2632  0.0257  0.5050
  110GLOH   H06 9717   3.042   1.806   0.553  0.5625  2.3132  1.3256
  110GLOH   H07 9718   3.040   1.952   0.456  0.0695  0.0633 -0.3879
  110GLOH    O3 9719   3.166   1.809   0.390 -0.5646  0.3712  0.5307
  110GLOH   H01 9720   3.193   1.719   0.415  0.5531  1.1538  2.2294
  111GLOH   H03 9721   2.892   1.587   2.246 -0.8664  1.4629 -0.6307
  111GLOH    O1 9722   2.926   1.665   2.293  0.2493  0.5757  0.0665
  111GLOH    C1 9723   2.900   1.625   2.433 -0.7683 -0.7473  0.0061
  111GLOH   H02 9724   2.936   1.523   2.437  0.3689 -0.3619 -0.0936
  111GLOH   H08 9725   2.792   1.624   2.450 -0.5819 -0.2729  1.2262
  111GLOH    C2 9726   2.972   1.719   2.527 -0.7243 -0.1149 -0.4081
  111GLOH   H04 9727   2.934   1.821   2.508 -0.4861  0.3873  1.6700
  111GLOH    O2 9728   2.957   1.692   2.668 -0.2028 -0.7974 -0.3547
  111GLOH   H05 9729   3.023   1.631   2.706 -0.3627 -0.9012 -0.2409
  111GLOH    C3 9730   3.116   1.728   2.488  0.4354  0.3382 -0.0846
  111GLOH   H06 9731   3.156   1.826   2.514 -0.9322  1.5269 -2.2491
  111GLOH   H07 9732   3.122   1.718   2.379 -1.8760  0.3707 -0.2405
  111GLOH    O3 9733   3.193   1.622   2.545  0.1812  0.2575  0.1121
  111GLOH   H01 9734   3.143   1.540   2.528  3.6646 -2.2968  1.5883
  112GLOH   H03 9735   3.048   2.472   0.740  0.9510 -2.3268 -0.1580
  112GLOH    O1 9736   2.972   2.428   0.698 -0.4391  0.3786 -0.5642
  112GLOH    C1 9737   2.945   2.290   0.743  0.1395 -0.1235  0.4495
  112GLOH   H02 9738   2.846   2.255   0.714 -0.6308  1.0318  1.6746
  112GLOH   H08 9739   2.951   2.293   0.852  1.9323 -0.2884  0.3738
  112GLOH    C2 9740   3.040   2.182   0.685 -0.3837  0.8166  0.6222
  112GLOH   H04 9741   3.046   2.195   0.576 -0.8494  0.5471  0.5615
  112GLOH    O2 9742   3.170   2.202   0.745 -0.2485 -0.6698  0.2909
  112GLOH   H05 9743   3.234   2.133   0.721  1.3058  0.7458  0.2590
  112GLOH    C3 9744   2.987   2.043   0.727 -0.6953  0.2137 -0.0550
  112GLOH   H06 9745   2.986   2.037   0.835  0.2751  0.1238 -0.0525
  112GLOH   H07 9746   3.056   1.967   0.691  0.3052  0.1619  1.9123
  112GLOH    O3 9747   2.858   2.019   0.668 -0.7700  0.0571 -0.6263
  112GLOH   H01 9748   2.841   2.070   0.587 -4.2420 -2.6311 -1.7220
  113GLOH   H03 9749   3.646   1.448   1.443 -0.0916  0.2747  0.2843
  113GLOH    O1 9750   3.653   1.545   1.428  0.3223  0.1888 -0.0886
  113GLOH    C1 9751   3.624   1.549   1.282  0.5676  0.4700  1.3574
  113GLOH   H02 9752   3.565   1.475   1.229 -2.0310  3.2663  0.1885
  113GLOH   H08 9753   3.724   1.539   1.239  0.4005  2.0743  0.5623
  113GLOH    C2 9754   3.559   1.675   1.240 -0.5816 -0.5053 -0.7916
  113GLOH   H04 9755   3.568   1.691   1.131 -2.1507  2.2473 -0.5480
  113GLOH    O2 9756   3.417   1.675   1.273 -0.6604 -0.1424  0.6086
  113GLOH   H05 9757   3.384   1.766   1.272  0.1237  0.1962 -3.1260
  113GLOH    C3 9758   3.628   1.796   1.296 -0.6782 -0.7440 -0.5008
  113GLOH   H06 9759   3.659   1.786   1.401 -0.3260  0.4330 -0.4814
  113GLOH   H07 9760   3.570   1.888   1.287  0.3716 -0.2262 -2.1850
  113GLOH    O3 9761   3.753   1.819   1.220 -0.0476 -0.0966  0.5197
  113GLOH   H01 9762   3.832   1.816   1.277  0.6449 -1.4008 -0.4896
  114GLOH   H03 9763   3.509   1.941   0.998  1.1229 -0.9415  0.6048
  114GLOH    O1 9764   3.541   2.018   1.050  0.2715 -0.2426  0.1124
  114GLOH    C1 9765   3.494   2.136   0.981  0.3579  0.7385 -0.2389
  114GLOH   H02 9766   3.387   2.129   0.957  0.2043 -0.8871  0.8424
  114GLOH   H08 9767   3.545   2.137   0.885  2.0869 -3.1248  0.5234
  114GLOH    C2 9768   3.535   2.263   1.063 -0.7643  0.5642 -0.0681
  114GLOH   H04 9769   3.644   2.277   1.066 -0.6265 -0.6886  1.0695
  114GLOH    O2 9770   3.483   2.386   1.001  0.5871 -0.2555  0.4171
  114GLOH   H05 9771   3.515   2.398   0.910  0.3076 -0.6044  0.2714
  114GLOH    C3 9772   3.497   2.267   1.209 -0.3953  0.4421 -0.1848
  114GLOH   H06 9773   3.389   2.252   1.216 -0.2202 -0.4311  0.8794
  114GLOH   H07 9774   3.522   2.364   1.252  0.0957 -0.2617  1.1447
  114GLOH    O3 9775   3.549   2.151   1.273  0.0595 -0.0442 -0.1758
  114GLOH   H01 9776   3.548   2.088   1.198  0.1047  0.4188 -0.5713
  115GLOH   H03 9777   4.085   0.240   1.312 -0.3246  1.9497  0.5916
  115GLOH    O1 9778   4.170   0.237   1.264 -0.4510 -0.3300  0.4601
  115GLOH    C1 9779   4.189   0.379   1.228 -0.3318 -0.3039 -0.4230
  115GLOH   H02 9780   4.107   0.444   1.261 -1.6205 -1.7798 -0.6842
  115GLOH   H08 9781   4.199   0.379   1.120  1.0796  0.3810 -0.3119
  115GLOH    C2 9782   4.311   0.436   1.304 -0.1198  0.4052 -0.3481
  115GLOH   H04 9783   4.292   0.437   1.413  0.6090 -0.1507 -0.2107
  115GLOH    O2 9784   4.437   0.357   1.288  0.3081  0.0685 -0.0768
  115GLOH   H05 9785   4.492   0.372   1.367 -1.4612  1.3481  0.9316
  115GLOH    C3 9786   4.339   0.581   1.265  0.4189  0.4431  0.7510
  115GLOH   H06 9787   4.348   0.590   1.156  0.5718 -3.8119  0.3511
  115GLOH   H07 9788   4.438   0.613   1.298  1.3725 -2.8582  1.2742
  115GLOH    O3 9789   4.240   0.676   1.314 -0.0525  0.0989 -0.0555
  115GLOH   H01 9790   4.283   0.759   1.342  0.5671 -0.6491  1.2584
  116GLOH   H03 9791   2.885   9.750   2.060 -0.4713  0.5033  1.0495
  116GLOH    O1 9792   2.880   9.659   2.095 -0.4882  0.0050 -0.2387
  116GLOH    C1 9793   2.904   9.663   2.228  0.7041 -0.7198 -0.7204
  116GLOH   H02 9794   2.832   9.726   2.279  1.8000 -0.4405  0.5056
  116GLOH   H08 9795   3.007   9.691   2.253  0.7955 -1.6266 -0.0600
  116GLOH    C2 9796   2.885   9.520   2.283 -0.6239 -0.1607  0.5459
  116GLOH   H04 9797   2.942   9.455   2.215  1.8576  0.7473  1.6937
  116GLOH    O2 9798   2.927   9.510   2.418  0.3452 -0.4750  0.7414
  116GLOH   H05 9799   3.022   9.527   2.412  0.6041 -1.3371  2.1095
  116GLOH    C3 9800   2.738   9.465   2.269 -0.2905 -0.2199 -0.3513
  116GLOH   H06 9801   2.717   9.390   2.345  1.5177  0.0733  0.4553
  116GLOH   H07 9802   2.725   9.413   2.174  2.1964 -2.2275  0.3811
  116GLOH    O3 9803   2.635   9.571   2.275 -0.2338  0.6859  0.2989
  116GLOH   H01 9804   2.667   9.659   2.249  1.2904  0.0330 -0.0890
  117GLOH   H03 9805   4.300   1.428   0.406 -0.0790  0.5867 -1.1826
  117GLOH    O1 9806   4.320   1.334   0.422 -0.6840  0.5191 -0.8051
  117GLOH    C1 9807   4.251   1.256   0.316  0.6357 -0.4164  0.5274
  117GLOH   H02 9808   4.330   1.198   0.268  2.2055  3.2357 -1.5044
  117GLOH   H08 9809   4.204   1.320   0.241  3.8235  1.4207 -0.0249
  117GLOH    C2 9810   4.137   1.162   0.363 -0.9159 -0.2326  0.4982
  117GLOH   H04 9811   4.061   1.227   0.410 -0.5573  2.9544 -3.1083
  117GLOH    O2 9812   4.077   1.083   0.257  0.1988  0.0794  0.1331
  117GLOH   H05 9813   4.145   1.026   0.217  3.0165  2.9200  0.5967
  117GLOH    C3 9814   4.196   1.067   0.470 -0.5058  0.2204 -0.1502
  117GLOH   H06 9815   4.260   0.996   0.417 -0.5756 -0.7827  1.0706
  117GLOH   H07 9816   4.109   1.014   0.509  0.8164 -0.3348  2.1119
  117GLOH    O3 9817   4.262   1.144   0.576 -0.1528  0.3130  0.5138
  117GLOH   H01 9818   4.292   1.223   0.527 -0.9085 -0.0477 -0.5478
  118GLOH   H03 9819   3.322   0.919   1.063  2.0280 -1.7785 -1.3010
  118GLOH    O1 9820   3.392   0.956   1.119  0.0058 -0.0587  0.1925
  118GLOH    C1 9821   3.498   0.860   1.128  0.0733 -0.0469  0.1439
  118GLOH   H02 9822   3.465   0.772   1.181  0.2763  0.6434  1.4348
  118GLOH   H08 9823   3.588   0.891   1.181  1.6460 -1.6616 -1.5221
  118GLOH    C2 9824   3.552   0.802   0.997  0.4177  0.3166  0.0132
  118GLOH   H04 9825   3.610   0.884   0.953 -1.7534  0.5185 -2.5469
  118GLOH    O2 9826   3.626   0.680   1.024  0.2562 -0.3088  0.4295
  118GLOH   H05 9827   3.563   0.607   1.030 -1.3861  0.7822 -2.5783
  118GLOH    C3 9828   3.444   0.775   0.889  0.6597 -0.1714  0.1524
  118GLOH   H06 9829   3.396   0.873   0.878 -2.0934 -1.6668 -2.0914
  118GLOH   H07 9830   3.370   0.705   0.928 -0.1141  0.6200  0.1224
  118GLOH    O3 9831   3.494   0.723   0.764 -0.3283 -0.4396 -0.3182
  118GLOH   H01 9832   3.411   0.700   0.719  0.2195 -0.1884 -1.4780
  119GLOH   H03 9833   3.721   0.913   1.648 -0.0955 -2.2015  0.9538
  119GLOH    O1 9834   3.817   0.904   1.636  0.0621  0.4796 -0.2485
  119GLOH    C1 9835   3.872   0.840   1.742  0.1056  0.1957 -0.9616
  119GLOH   H02 9836   3.872   0.733   1.721  1.3193  0.5445 -2.8265
  119GLOH   H08 9837   3.817   0.857   1.834 -1.0742 -0.5772 -1.5152
  119GLOH    C2 9838   4.016   0.892   1.768  0.4634 -0.2329 -0.4302
  119GLOH   H04 9839   4.004   0.993   1.811  1.6347 -0.3039  0.0771
  119GLOH    O2 9840   4.075   0.817   1.877 -0.4561  0.4589  0.3772
  119GLOH   H05 9841   4.042   0.726   1.874  2.4086 -0.6597  0.5708
  119GLOH    C3 9842   4.119   0.898   1.648 -0.3093  0.3050  1.0063
  119GLOH   H06 9843   4.123   0.798   1.605 -0.9940  1.2018 -1.2560
  119GLOH   H07 9844   4.217   0.926   1.687  1.6372 -0.3219 -3.1525
  119GLOH    O3 9845   4.072   0.988   1.546 -0.1069  0.0024 -0.9665
  119GLOH   H01 9846   3.975   0.979   1.554  0.2003 -2.2549  0.5743
  120GLOH   H03 9847   3.444   2.332   0.424  1.1535  1.7677 -1.3986
  120GLOH    O1 9848   3.501   2.357   0.498  0.1433 -0.2983  0.1137
  120GLOH    C1 9849   3.634   2.310   0.473 -0.4209 -0.2356 -0.1782
  120GLOH   H02 9850   3.694   2.386   0.422  2.8433 -2.1712  0.6048
  120GLOH   H08 9851   3.631   2.224   0.407  1.2490  1.3020 -2.3153
  120GLOH    C2 9852   3.702   2.258   0.594 -0.3771  0.3128 -0.5506
  120GLOH   H04 9853   3.652   2.162   0.614 -0.1802 -0.2916 -2.7947
  120GLOH    O2 9854   3.842   2.235   0.571  0.4502  0.3616 -1.4291
  120GLOH   H05 9855   3.846   2.178   0.493  2.4120 -3.2953  1.1777
  120GLOH    C3 9856   3.682   2.343   0.722 -0.1439 -0.2361  0.1657
  120GLOH   H06 9857   3.732   2.436   0.695 -1.2561  0.5262  0.7226
  120GLOH   H07 9858   3.728   2.298   0.810  0.1452  0.1366  0.2078
  120GLOH    O3 9859   3.545   2.378   0.749  0.3411 -0.5202  0.1662
  120GLOH   H01 9860   3.493   2.374   0.666  1.3572  0.0372 -0.5158
  121ACOH    H4 9861   4.498   4.828   1.716  3.3092 -0.1156  0.1782
  121ACOH    O2 9862   4.495   4.730   1.714 -0.5203 -0.0718 -0.1387
  121ACOH    C2 9863   4.384   4.697   1.644 -0.0740 -0.2932 -0.0465
  121ACOH    O1 9864   4.331   4.759   1.555  0.2581 -0.1597  0.5490
  121ACOH    C1 9865   4.361   4.554   1.666 -0.2204 -0.2110  0.3647
  121ACOH    H1 9866   4.272   4.525   1.610  0.6337 -0.6711 -0.7612
  121ACOH    H2 9867   4.358   4.533   1.773  0.4711  0.6638  0.5629
  121ACOH    H3 9868   4.443   4.500   1.618 -1.6142 -1.7436 -0.3313
  122ACOH    H4 9869   2.398   0.370   1.010  1.1020  0.9957  0.3818
  122ACOH    O2 9870   2.330   0.414   1.063  0.5742  0.7165 -0.0601
  122ACOH    C2 9871   2.207   0.371   1.024 -0.5120 -0.0444  0.1952
  122ACOH    O1 9872   2.183   0.315   0.921 -0.3936 -0.2051  0.0068
  122ACOH    C1 9873   2.109   0.432   1.115 -0.4665  0.5417  0.0084
  122ACOH    H1 9874   2.056   0.512   1.064  0.0278 -0.2331 -1.7809
  122ACOH    H2 9875   2.154   0.459   1.211  2.1617 -1.8698 -0.4508
  122ACOH    H3 9876   2.046   0.344   1.128 -0.4927 -0.4296 -5.4554
  123ACOH    H4 9877   3.718   9.075   1.413 -2.7591 -0.3542  0.2432
  123ACOH    O2 9878   3.736   9.006   1.480  0.5183  0.2891  0.0915
  123ACOH    C2 9879   3.660   9.021   1.594 -0.5276 -0.7340 -0.6356
  123ACOH    O1 9880   3.570   9.098   1.610  0.7534  0.3216 -0.7692
  123ACOH    C1 9881   3.706   8.922   1.695  0.5383  0.6153 -1.0204
  123ACOH    H1 9882   3.709   8.820   1.656  0.1812  0.1917  0.0545
  123ACOH    H2 9883   3.628   8.903   1.769 -1.0641  1.6209 -2.4165
  123ACOH    H3 9884   3.796   8.948   1.751  0.2406  1.3512 -0.8749
  124ACOH    H4 9885   3.620   0.700   2.387  0.1389 -0.3278 -0.9908
  124ACOH    O2 9886   3.556   0.655   2.445  0.6351  0.3359  0.0818
  124ACOH    C2 9887   3.610   0.636   2.563  0.1651 -0.5562 -0.3236
  124ACOH    O1 9888   3.729   0.653   2.589 -0.0425 -0.1169  0.2335
  124ACOH    C1 9889   3.511   0.586   2.657  0.4441 -0.6394  0.1411
  124ACOH    H1 9890   3.540   0.582   2.762  0.0489 -3.7599  0.1753
  124ACOH    H2 9891   3.471   0.490   2.626 -0.4565  0.0003 -0.7251
  124ACOH    H3 9892   3.432   0.662   2.656  0.9858 -0.0654  0.4659
  125ACOH    H4 9893   4.359   1.081   0.662  2.4862  1.4224 -0.2458
  125ACOH    O2 9894   4.392   1.018   0.728 -0.1114 -0.1383 -0.3715
  125ACOH    C2 9895   4.502   0.959   0.667  0.6511  0.6871 -0.3545
  125ACOH    O1 9896   4.532   0.961   0.548 -0.5510  0.4657 -0.4525
  125ACOH    C1 9897   4.564   0.863   0.758  0.1501 -0.3653 -0.7227
  125ACOH    H1 9898   4.525   0.764   0.735  0.3568 -0.7646  0.5635
  125ACOH    H2 9899   4.544   0.884   0.863 -0.5093  1.3438 -1.1732
  125ACOH    H3 9900   4.672   0.861   0.744  0.4795 -0.9311  1.5233
  126ACOH    H4 9901   3.166   9.352   0.055 -2.1405  0.5184  0.9006
  126ACOH    O2 9902   3.103   9.303  -0.000 -0.3787 -0.2021 -0.5338
  126ACOH    C2 9903   2.982   9.326   0.059  1.0974  0.0058 -0.3524
  126ACOH    O1 9904   2.968   9.380   0.164 -0.0541 -0.0148  0.5151
  126ACOH    C1 9905   2.867   9.267  -0.013  0.1759 -0.4785  0.0035
  126ACOH    H1 9906   2.838   9.173   0.034 -0.4015 -0.3292 -0.0455
  126ACOH    H2 9907   2.891   9.247  -0.117  1.9597 -1.1909  0.5412
  126ACOH    H3 9908   2.793   9.348  -0.014 -2.4666 -2.8291  0.0568
  127ACOH    H4 9909   2.855   2.090   1.098 -2.4894  1.0012  0.5484
  127ACOH    O2 9910   2.886   2.179   1.074  0.2710  0.1107  0.5762
  127ACOH    C2 9911   2.999   2.196   1.139 -0.2735  0.1772  0.3182
  127ACOH    O1 9912   3.043   2.123   1.227 -1.1173 -0.3306 -0.3280
  127ACOH    C1 9913   3.075   2.319   1.102 -0.5627  0.0553  0.5734
  127ACOH    H1 9914   3.149   2.350   1.175 -2.1524  0.9296  1.8459
  127ACOH    H2 9915   3.003   2.397   1.074  1.4087  2.3592  1.7581
  127ACOH    H3 9916   3.127   2.292   1.010  0.5599  1.3025  0.8154
  128ACOH    H4 9917   3.757   9.545   2.103  2.4580  0.7627 -2.3815
  128ACOH    O2 9918   3.820   9.495   2.158  0.4428  0.1966 -0.5061
  128ACOH    C2 9919   3.933   9.500   2.087  0.2085  0.5826 -0.2348
  128ACOH    O1 9920   3.947   9.557   1.982 -0.0711  0.5225  0.1053
  128ACOH    C1 9921   4.035   9.406   2.131 -0.4270 -0.2543  1.0544
  128ACOH    H1 9922   4.125   9.416   2.071  1.0809 -3.7827  2.5973
  128ACOH    H2 9923   4.005   9.302   2.117  0.9419 -0.6200  0.6994
  128ACOH    H3 9924   4.064   9.426   2.234  1.7932 -0.3586  0.4703
  129ACOH    H4 9925   4.363   9.525   2.002 -0.5877 -0.9221 -1.7488
  129ACOH    O2 9926   4.395   9.444   2.046  0.4399  0.3205 -0.1182
  129ACOH    C2 9927   4.445   9.389   1.936 -0.4903 -0.2408  0.6848
  129ACOH    O1 9928   4.464   9.436   1.828  0.1609 -0.4605  0.2270
  129ACOH    C1 9929   4.466   9.244   1.969  0.0229  0.1856  0.6324
  129ACOH    H1 9930   4.529   9.229   2.058 -0.3218 -3.3239  0.3602
  129ACOH    H2 9931   4.508   9.192   1.883  1.2993 -0.7455  1.7693
  129ACOH    H3 9932   4.372   9.191   1.980  0.2295 -0.5668 -1.0814
  130ACOH    H4 9933   4.859   1.453   1.718 -0.3639  0.4024 -0.1301
  130ACOH    O2 9934   4.949   1.432   1.747 -0.4421 -0.1830 -0.2857
  130ACOH    C2 9935   4.978   1.309   1.712 -0.1112  0.2055  0.0972
  130ACOH    O1 9936   4.918   1.231   1.644 -0.7259  0.4491  0.0301
  130ACOH    C1 9937   5.106   1.254   1.776  0.4891 -0.4447  0.5463
  130ACOH    H1 9938   5.182   1.244   1.698 -1.2213  0.2070 -1.2400
  130ACOH    H2 9939   5.086   1.167   1.839 -2.3461 -0.4213 -0.2548
  130ACOH    H3 9940   5.141   1.334   1.841  1.8798  0.5780 -1.4114
  131ACOH    H4 9941   3.567   9.153   0.849  0.5798  0.5943 -0.3875
  131ACOH    O2 9942   3.571   9.083   0.782 -0.6163 -0.0276  0.1849
  131ACOH    C2 9943   3.527   9.135   0.668 -0.5311  0.6453  0.2056
  131ACOH    O1 9944   3.553   9.249   0.629  0.2384 -0.1755 -0.1510
  131ACOH    C1 9945   3.486   9.029   0.573 -0.4667 -0.1553 -0.4702
  131ACOH    H1 9946   3.510   9.064   0.472  1.9119 -0.0314  0.1239
  131ACOH    H2 9947   3.381   9.008   0.591 -0.6491  1.2635  0.1758
  131ACOH    H3 9948   3.533   8.932   0.587  0.8568  0.4867 -0.4087
  132ACOH    H4 9949   3.812   9.271   1.751 -2.7778 -1.1240  0.2088
  132ACOH    O2 9950   3.814   9.266   1.654 -0.1584 -0.4342  0.1641
  132ACOH    C2 9951   3.945   9.293   1.624 -0.0135 -0.2866  0.4603
  132ACOH    O1 9952   4.013   9.363   1.691 -0.0696 -0.5720 -0.2257
  132ACOH    C1 9953   3.975   9.271   1.475 -0.3517 -0.2595 -0.1735
  132ACOH    H1 9954   3.946   9.171   1.444  2.2503 -1.1452  0.1274
  132ACOH    H2 9955   4.081   9.287   1.459 -0.4112 -0.2376 -0.5352
  132ACOH    H3 9956   3.917   9.334   1.407  0.5149  0.0546 -0.6186
  133ACOH    H4 9957   2.705   1.950   0.891  0.1974  0.5283 -0.1828
  133ACOH    O2 9958   2.629   1.994   0.932  0.0202  0.2532 -0.2160
  133ACOH    C2 9959   2.523   1.975   0.846  0.2430 -0.6943  0.4546
  133ACOH    O1 9960   2.535   1.922   0.738  0.0058  0.5635  0.4657
  133ACOH    C1 9961   2.396   2.047   0.890  0.1579 -0.2280  0.2083
  133ACOH    H1 9962   2.375   2.134   0.827 -0.5261 -1.0292 -0.6789
  133ACOH    H2 9963   2.405   2.074   0.995  1.5795 -0.0116  0.0382
  133ACOH    H3 9964   2.309   1.982   0.884 -1.6759  2.1139  0.7506
  134ACOH    H4 9965   2.837   0.191   1.850 -0.1110  1.8478 -0.3095
  134ACOH    O2 9966   2.862   0.212   1.942  0.1803  0.1228  0.0299
  134ACOH    C2 9967   2.938   0.324   1.963  0.1357  0.0631  0.0874
  134ACOH    O1 9968   3.017   0.366   1.884 -0.7384  0.3237  0.0196
  134ACOH    C1 9969   2.945   0.361   2.106 -0.5447 -0.3042  0.3812
  134ACOH    H1 9970   3.027   0.431   2.111 -0.4573 -0.1986 -1.9019
  134ACOH    H2 9971   2.964   0.274   2.168 -0.3366  0.7302  1.7802
  134ACOH    H3 9972   2.865   0.423   2.147 -2.1067 -2.6072  0.9713
  135ACOH    H4 9973   3.843   9.038   0.544  1.5073  0.7896  1.8547
  135ACOH    O2 9974   3.818   8.975   0.613 -0.0361  0.1481  0.7477
  135ACOH    C2 9975   3.842   9.049   0.723  0.4315 -0.4235  0.2626
  135ACOH    O1 9976   3.876   9.166   0.723 -0.5569  0.4274 -0.4223
  135ACOH    C1 9977   3.865   8.965   0.839  0.0947 -0.6864 -0.1609
  135ACOH    H1 9978   3.895   9.025   0.925 -0.5715 -0.3630 -0.1510
  135ACOH    H2 9979   3.956   8.909   0.816  1.7764  1.2463  1.5396
  135ACOH    H3 9980   3.781   8.900   0.861 -1.5445  1.1748 -0.7287
  136ACOH    H4 9981   4.221   2.124   1.121  1.3986  2.4038  1.9930
  136ACOH    O2 9982   4.302   2.073   1.101 -0.0279  0.8406 -0.1279
  136ACOH    C2 9983   4.378   2.072   1.210 -1.3580 -0.7629 -1.2050
  136ACOH    O1 9984   4.373   2.126   1.323  0.1031 -0.2624 -0.1055
  136ACOH    C1 9985   4.483   1.971   1.176 -0.6911  0.6422 -0.1866
  136ACOH    H1 9986   4.543   1.960   1.266 -1.7004  0.9126  0.5363
  136ACOH    H2 9987   4.554   2.014   1.106  1.8241 -0.7994  1.3955
  136ACOH    H3 9988   4.443   1.878   1.135 -3.0128  1.8083 -0.6953
  137ACOH    H4 9989   2.532   1.524   1.934 -0.6443  1.0710  2.4498
  137ACOH    O2 9990   2.453   1.468   1.935  0.3018 -0.3591 -0.3139
  137ACOH    C2 9991   2.356   1.537   1.875  0.0816 -0.1845  0.5657
  137ACOH    O1 9992   2.361   1.650   1.834 -0.0405  0.3643 -0.1088
  137ACOH    C1 9993   2.233   1.463   1.858  0.2413  0.4878 -0.0715
  137ACOH    H1 9994   2.148   1.527   1.834  1.5284  0.8652 -4.0335
  137ACOH    H2 9995   2.212   1.401   1.945  2.4425  0.2160  0.3000
  137ACOH    H3 9996   2.247   1.392   1.777 -1.6219 -1.7019  1.4801
  138ACOH    H4 9997   4.066   9.605   2.864 -0.5026 -2.2008  0.3735
  138ACOH    O2 9998   4.125   9.628   2.937 -0.9233  0.0739  0.0305
  138ACOH    C2 9999   4.150   9.764   2.926 -0.1129 -0.3409  0.3690
  138ACOH    O110000   4.105   9.831   2.833 -0.6627 -0.2435 -0.0437
  138ACOH    C110001   4.239   9.811   3.031  0.1450  0.3630 -0.6067
  138ACOH    H110002   4.343   9.807   2.999 -0.0357 -4.6407 -0.9824
  138ACOH    H210003   4.236   9.752   3.123 -0.7080 -1.4792 -1.7870
  138ACOH    H310004   4.217   9.915   3.057 -0.4778 -0.5927  2.9953
  139ACOH    H410005   4.781   1.252   0.453 -0.0474 -0.4842 -0.1151
  139ACOH    O210006   4.875   1.242   0.476  0.1232 -0.6492 -0.8501
  139ACOH    C210007   4.872   1.241   0.610  0.6427 -0.5131 -0.2629
  139ACOH    O110008   4.779   1.202   0.684  0.0617  0.3235  0.3910
  139ACOH    C110009   5.008   1.248   0.662  0.4377 -0.1655  0.0648
  139ACOH    H110010   5.025   1.146   0.697  0.4146  0.2051  1.1817
  139ACOH    H210011   5.011   1.315   0.748 -1.0502 -0.3397  0.2668
  139ACOH    H310012   5.071   1.272   0.576  0.6505 -2.1388 -0.3662
  140ACOH    H410013   3.484   0.526   2.387  0.8289  0.8525 -3.9708
  140ACOH    O210014   3.437   0.443   2.365  0.4256  0.1148 -0.5902
  140ACOH    C210015   3.405   0.458   2.237 -0.3391  0.0636 -0.2956
  140ACOH    O110016   3.472   0.513   2.157 -0.4051  0.3236  0.6324
  140ACOH    C110017   3.313   0.351   2.202  0.1624  0.7659 -0.0736
  140ACOH    H110018   3.276   0.302   2.292 -2.9848 -2.0795 -2.8218
  140ACOH    H210019   3.374   0.274   2.154 -1.4561 -1.3082  1.1343
  140ACOH    H310020   3.232   0.392   2.143 -0.3069  0.6058  0.4590
  141ACOH    H410021   3.062   2.224   2.566  0.6307 -0.3138  2.3529
  141ACOH    O210022   2.988   2.270   2.609 -0.2115 -0.2638  0.8984
  141ACOH    C210023   2.968   2.382   2.536 -0.0222  1.1700 -0.4726
  141ACOH    O110024   2.988   2.399   2.415  0.0374 -0.0644 -0.2207
  141ACOH    C110025   2.940   2.494   2.631  0.5643 -0.0613 -0.3443
  141ACOH    H110026   3.043   2.514   2.661 -0.0734  0.2068  1.7801
  141ACOH    H210027   2.877   2.466   2.715  0.3855 -5.4033 -2.0990
  141ACOH    H310028   2.903   2.583   2.580  0.3068 -0.2076 -0.4142
  142ACOH    H410029   4.553   1.452   1.256  3.1380  1.7915 -0.4957
  142ACOH    O210030   4.523   1.513   1.187  0.1509  0.5725 -0.3355
  142ACOH    C210031   4.544   1.468   1.059  0.0661 -0.1511  0.8172
  142ACOH    O110032   4.614   1.372   1.042  0.1841 -0.4808 -0.9983
  142ACOH    C110033   4.468   1.545   0.959 -0.2727 -0.2252  0.3232
  142ACOH    H110034   4.361   1.529   0.964 -0.5005  1.1305 -0.0242
  142ACOH    H210035   4.505   1.509   0.863 -0.5267 -0.9935  0.5069
  142ACOH    H310036   4.502   1.647   0.976  3.8304 -1.0767 -1.9993
  143SOL     OW10037   2.905   9.931   2.079 -0.3102 -0.2008 -0.6205
  143SOL    HW110038   2.923   9.991   2.001  0.9705  0.4141  0.1407
  143SOL    HW210039   2.958   9.962   2.158 -1.5898 -0.8252  0.4967
  144SOL     OW10040   2.333   0.339   1.688 -0.2796 -0.1717 -0.1347
  144SOL    HW110041   2.297   0.336   1.782  0.6879  0.1264  0.2508
  144SOL    HW210042   2.379   0.253   1.668  0.5759  0.2351  0.0886
  145SOL     OW10043   2.885   1.906   1.069 -0.3669  0.4153 -0.4198
  145SOL    HW110044   2.847   1.874   1.156 -1.8584  1.3637 -0.7085
  145SOL    HW210045   2.980   1.875   1.061 -0.3865 -0.1428  1.2934
  146SOL     OW10046   2.342   6.758   2.531  0.2244  0.0790 -0.3229
  146SOL    HW110047   2.405   6.721   2.600 -0.3326 -0.0314  0.1367
  146SOL    HW210048   2.252   6.718   2.545 -0.2193  1.0916 -0.2555
  147SOL     OW10049   3.177   1.091   0.007  0.1165 -0.3193 -0.0210
  147SOL    HW110050   3.106   1.021   0.002  1.4204 -1.5865 -1.0311
  147SOL    HW210051   3.238   1.083  -0.071  1.5887  0.5401  1.0052
  148SOL     OW10052   4.371   5.049   1.433 -0.1671  0.0247 -0.2837
  148SOL    HW110053   4.401   5.092   1.348 -0.5608  0.6786 -0.0960
  148SOL    HW210054   4.295   4.987   1.413 -0.7123  0.6998 -0.3103
  149SOL     OW10055   4.193   0.243   2.861 -0.5114  0.4284 -0.0865
  149SOL    HW110056   4.231   0.169   2.805 -0.3442  1.3509 -1.2071
  149SOL    HW210057   4.226   0.331   2.827 -0.9572  1.0461  1.0485
  150SOL     OW10058   2.145   1.519   2.345  0.4146  0.8586  0.3393
  150SOL    HW110059   2.137   1.587   2.272  1.2433 -0.8237 -1.3745
  150SOL    HW210060   2.109   1.557   2.430  1.1091  3.5214 -0.5024
  151SOL     OW10061   3.231   0.848   0.196 -0.4071  0.1091 -0.4064
  151SOL    HW110062   3.280   0.835   0.110 -1.3732 -2.1868 -0.6564
  151SOL    HW210063   3.182   0.935   0.193  0.8250  0.7810 -1.5414
  152SOL     OW10064   3.244   2.452   0.836 -0.3044 -0.0779 -0.1747
  152SOL    HW110065   3.310   2.450   0.911  1.3946  1.2225 -1.5918
  152SOL    HW210066   3.242   2.363   0.791  1.2796  0.1781 -0.7796
  153SOL     OW10067   4.508   1.327   0.691 -0.2580 -0.0211  0.5141
  153SOL    HW110068   4.559   1.312   0.776  0.7062  0.4748  0.0197
  153SOL    HW210069   4.545   1.406   0.643 -0.7772 -0.3282 -0.3988
  154SOL     OW10070   3.125   2.127   1.887  0.2542  0.4397 -0.1950
  154SOL    HW110071   3.218   2.127   1.852  0.3796  1.1384  0.1421
  154SOL    HW210072   3.114   2.200   1.955  0.7128 -2.3863  3.0554
  155SOL     OW10073   2.684   2.144   2.281 -0.1752  0.3218  0.2302
  155SOL    HW110074   2.754   2.076   2.304 -0.4023 -0.4521 -1.3074
  155SOL    HW210075   2.611   2.140   2.348  0.3610 -0.1531  0.7967
  156SOL     OW10076   4.126   1.509   1.441  0.4809  0.0585 -0.0293
  156SOL    HW110077   4.040   1.461   1.424  1.1800 -0.3127 -2.8060
  156SOL    HW210078   4.160   1.485   1.532 -1.3331 -1.3432  0.3108
  157SOL     OW10079   3.119   1.170   1.683  0.1437 -0.1131 -1.0632
  157SOL    HW110080   3.195   1.155   1.746 -0.5447 -0.7753 -0.3624
  157SOL    HW210081   3.088   1.082   1.647 -0.1794  0.1671 -1.4765
  158SOL     OW10082   2.279   0.494   2.519 -0.0485 -0.4427  0.1448
  158SOL    HW110083   2.236   0.501   2.429  0.0032 -0.6723  0.1030
  158SOL    HW210084   2.330   0.578   2.538  1.1549 -0.9878 -0.6538
  159SOL     OW10085   2.721   0.876   1.099 -0.3100  0.1011  0.0957
  159SOL    HW110086   2.729   0.963   1.051 -0.5193  0.2274  0.2872
  159SOL    HW210087   2.800   0.865   1.160 -0.2285  0.1061 -0.0081
  160SOL     OW10088   2.456   9.454   1.126  0.5469  0.1972  0.0749
  160SOL    HW110089   2.488   9.447   1.221  0.7701 -0.8289 -0.0695
  160SOL    HW210090   2.524   9.503   1.072  0.9190 -0.1415  0.2275
  161SOL     OW10091   3.013   9.915   0.401  0.0498 -0.3851  0.3415
  161SOL    HW110092   3.100   9.868   0.385  0.8108  1.4213 -0.9000
  161SOL    HW210093   3.026   9.984   0.473 -0.6149 -0.7734  0.8426
  162SOL     OW10094   3.330   0.287   2.574  0.6005 -0.0423 -0.0527
  162SOL    HW110095   3.390   0.253   2.647  1.2428 -0.6358 -0.8564
  162SOL    HW210096   3.383   0.339   2.508  0.0093  0.5060 -0.1005
  163SOL     OW10097   3.473   2.347   1.630 -0.0508 -0.0278  0.4622
  163SOL    HW110098   3.554   2.330   1.574 -0.5978 -0.0003 -0.3357
  163SOL    HW210099   3.488   2.429   1.685  0.8328 -0.5552  1.0164
  164SOL     OW10100   3.463   9.733   1.103  0.1861 -0.1443 -0.5624
  164SOL    HW110101   3.507   9.682   1.177  1.6386  2.0312  0.1370
  164SOL    HW210102   3.521   9.810   1.077 -1.3260  0.3796 -2.4976
  165SOL     OW10103   2.843   2.081   2.045 -0.1633  0.1001 -0.1742
  165SOL    HW110104   2.767   2.131   2.003 -0.0604  0.0647 -0.4041
  165SOL    HW210105   2.929   2.122   2.016 -0.1218  0.7537  0.8705
  166SOL     OW10106   2.319   0.936   0.352 -0.0873  0.5447 -0.2157
  166SOL    HW110107   2.267   0.934   0.267 -1.4107  1.9426  0.5225
  166SOL    HW210108   2.308   0.850   0.401 -1.7276  0.8197 -0.0740
  167SOL     OW10109   3.805   9.314   1.895  0.5139  0.0296  0.0051
  167SOL    HW110110   3.871   9.386   1.916 -0.7402  1.9508 -2.3624
  167SOL    HW210111   3.714   9.343   1.922  0.1618 -1.2270  0.2124
  168SOL     OW10112   3.831   1.822   2.812 -0.2280  0.1765  0.4429
  168SOL    HW110113   3.916   1.864   2.846 -0.0915 -1.0377  1.6376
  168SOL    HW210114   3.753   1.862   2.859 -0.3348  1.2313 -0.5941
  169SOL     OW10115   4.042   1.239   1.848 -0.3888 -0.8082  0.1362
  169SOL    HW110116   4.000   1.189   1.772  0.1597 -1.8705  0.5239
  169SOL    HW210117   4.077   1.326   1.815 -1.0661 -0.8140 -0.6198
  170SOL     OW10118   4.053   2.137   1.154 -0.1280 -0.2874  0.1702
  170SOL    HW110119   4.047   2.128   1.254  1.2783  1.6263  0.4740
  170SOL    HW210120   3.979   2.085   1.111 -3.1044  1.9096  2.3786
  171SOL     OW10121   3.205   9.552   2.390 -0.5264 -0.2767 -0.0055
  171SOL    HW110122   3.280   9.588   2.447 -1.6835  2.4506 -0.1373
  171SOL    HW210123   3.238   9.541   2.296 -0.2272  0.8359 -0.0468
  172SOL     OW10124   3.940   0.482   2.074  0.0705 -0.3031 -0.7164
  172SOL    HW110125   3.846   0.471   2.040 -0.4808 -1.0800  0.9768
  172SOL    HW210126   3.937   0.509   2.170  1.5775 -1.7381 -0.2450
  173SOL     OW10127   4.365   1.236   2.727 -0.1616  0.3391  0.1580
  173SOL    HW110128   4.430   1.255   2.801  0.8719  0.6266 -0.8043
  173SOL    HW210129   4.409   1.255   2.639 -1.0507 -0.9453 -0.5765
  174SOL     OW10130   3.614   0.258   2.600  0.2131 -0.7968 -0.0633
  174SOL    HW110131   3.699   0.286   2.643 -0.4289  2.3461 -0.6867
  174SOL    HW210132   3.603   0.159   2.607  2.8625 -0.9856  1.8772
  175SOL     OW10133   4.691   1.164   1.211  0.1008  0.1476 -0.6138
  175SOL    HW110134   4.687   1.228   1.135 -1.2606  1.3572  0.4450
  175SOL    HW210135   4.644   1.203   1.291  1.2380 -1.2090  0.7615
  176SOL     OW10136   2.979   0.509   2.429  0.7357  0.7082 -0.5447
  176SOL    HW110137   3.029   0.580   2.379  0.2439  1.6207  0.2550
  176SOL    HW210138   2.881   0.521   2.415  0.7219 -1.4794 -2.6546
  177SOL     OW10139   3.566   2.062   2.203  0.2033  0.7841  0.2916
  177SOL    HW110140   3.577   2.106   2.114  1.0035  2.4848  1.1910
  177SOL    HW210141   3.597   2.125   2.275 -1.2404 -0.2130  1.8336
  178SOL     OW10142   3.101   1.415   1.592 -0.1356  0.6388  0.2625
  178SOL    HW110143   3.012   1.435   1.551 -0.8681 -1.3541  0.8200
  178SOL    HW210144   3.102   1.321   1.627  1.4568  1.3345  2.2153
  179SOL     OW10145   2.859   2.140   0.437  0.2657  0.0793  0.3849
  179SOL    HW110146   2.854   2.239   0.424  0.3639  0.1446  0.8284
  179SOL    HW210147   2.934   2.103   0.382  0.0400  0.2072 -0.0132
  180SOL     OW10148   4.261   0.500   2.072  0.0207 -0.2215  0.0876
  180SOL    HW110149   4.308   0.556   2.140 -2.5933 -0.2711  1.9905
  180SOL    HW210150   4.164   0.491   2.096 -0.1695 -3.4776 -1.5148
  181SOL     OW10151   4.921   0.860   0.772  0.5857 -0.2557  0.6914
  181SOL    HW110152   4.975   0.805   0.836 -0.8206 -0.2710  1.8822
  181SOL    HW210153   4.883   0.939   0.819  0.0595  0.0855 -0.2898
  182SOL     OW10154   3.798   2.636   1.646 -0.7504 -0.4792 -0.4055
  182SOL    HW110155   3.820   2.690   1.565  0.8986  1.0057  0.9805
  182SOL    HW210156   3.846   2.549   1.642  0.3887  0.1433 -0.4066
  183SOL     OW10157   3.867   9.763   0.663 -0.7277 -0.1402 -0.8401
  183SOL    HW110158   3.893   9.667   0.672  0.1454  0.1167 -0.5644
  183SOL    HW210159   3.913   9.803   0.585  1.6829  0.9501  1.0648
  184SOL     OW10160   2.580   0.817   1.317 -0.1833  0.2956 -1.2125
  184SOL    HW110161   2.530   0.735   1.289 -1.6044  1.6723 -2.7555
  184SOL    HW210162   2.635   0.850   1.241  2.3318 -0.6077  0.1570
  185SOL     OW10163   4.144   0.981   2.496  0.3522 -0.1247 -0.5379
  185SOL    HW110164   4.202   0.918   2.548 -2.7468 -1.5699  1.2993
  185SOL    HW210165   4.103   1.047   2.558 -2.1232 -0.8720 -1.3412
  186SOL     OW10166   3.266   9.678   1.693  0.6082  0.0645 -0.7384
  186SOL    HW110167   3.215   9.592   1.704  0.5648  0.3081  1.2522
  186SOL    HW210168   3.207   9.755   1.717  1.1093  0.5447 -1.0337
  187SOL     OW10169   4.850   1.146   2.851 -0.2133 -0.0699  0.2308
  187SOL    HW110170   4.862   1.074   2.919 -1.7631  0.8473  1.5019
  187SOL    HW210171   4.802   1.224   2.892 -0.6545  0.7409 -1.7565
  188SOL     OW10172   4.158   0.082   0.430 -0.8285 -0.0279 -0.1463
  188SOL    HW110173   4.125   0.145   0.359  0.4369 -0.4044 -1.0928
  188SOL    HW210174   4.218   0.132   0.493 -1.8210  0.2685  0.5820
  189SOL     OW10175   3.246   0.747   2.799  0.8218 -0.2760 -0.5485
  189SOL    HW110176   3.168   0.686   2.785  0.5465  0.0269 -0.3374
  189SOL    HW210177   3.260   0.803   2.718  0.7793 -0.2825 -0.5600
  190SOL     OW10178   2.810   1.419   1.145 -0.0015 -0.0691  0.0936
  190SOL    HW110179   2.734   1.359   1.173  0.9431 -0.3531  2.1286
  190SOL    HW210180   2.799   1.509   1.188  0.0707  0.3285 -0.7260
  191SOL     OW10181   2.282   9.804   1.698 -0.4957  0.1542  0.1412
  191SOL    HW110182   2.287   9.895   1.656 -0.0726 -0.2819 -0.7700
  191SOL    HW210183   2.374   9.764   1.699 -0.8398 -0.6420 -0.3078
  192SOL     OW10184   3.003   4.356   0.903  0.0053 -0.2506  0.2619
  192SOL    HW110185   2.925   4.418   0.895  1.1816  1.2797  0.1964
  192SOL    HW210186   3.081   4.395   0.855  1.3072 -0.8842  1.7925
  193SOL     OW10187   3.827   2.056   0.318  0.0724 -0.0671  0.1057
  193SOL    HW110188   3.777   2.068   0.233 -1.4519  0.3124  1.0383
  193SOL    HW210189   3.856   1.960   0.326  0.4993 -0.0353 -0.9675
  194SOL     OW10190   2.651   1.329   1.643  0.9978 -0.0424 -0.1163
  194SOL    HW110191   2.620   1.424   1.641  0.9657 -0.0500  0.0913
  194SOL    HW210192   2.620   1.282   1.560 -0.0197 -0.2066  0.3506
  195SOL     OW10193   3.436   2.242   0.249 -0.4354  0.7813  0.8625
  195SOL    HW110194   3.402   2.169   0.308  1.0038  0.5656  1.4322
  195SOL    HW210195   3.515   2.209   0.197  3.5655  3.3596  4.9079
  196SOL     OW10196   3.596   1.061   2.357  0.4476  0.0972 -0.4568
  196SOL    HW110197   3.634   1.064   2.450  0.0078  0.1959 -0.2766
  196SOL    HW210198   3.664   1.095   2.292  0.8023 -0.0891 -0.1854
  197SOL     OW10199   2.839   1.478   1.453  0.2489 -0.3326 -0.2734
  197SOL    HW110200   2.810   1.384   1.468  2.0568 -0.4636  2.5703
  197SOL    HW210201   2.768   1.540   1.487 -0.7153 -0.6345 -1.6840
  198SOL     OW10202   3.586   2.109   0.052 -0.8966  0.9686 -0.0080
  198SOL    HW110203   3.671   2.123   0.002 -0.0799  0.0437  1.1009
  198SOL    HW210204   3.536   2.032   0.012 -0.4341  0.4794  0.3570
  199SOL     OW10205   3.977   0.382   1.635  0.0905 -0.2523 -0.1014
  199SOL    HW110206   3.984   0.438   1.553  1.4145 -0.1567  0.0712
  199SOL    HW210207   4.046   0.310   1.633  1.7923  1.2423  2.0614
  200SOL     OW10208   3.037   1.198   0.862  0.2646  0.0095 -0.0100
  200SOL    HW110209   3.121   1.252   0.857  1.2686 -1.3013  2.4086
  200SOL    HW210210   2.960   1.258   0.882  0.8747  0.9782 -0.5436
  201SOL     OW10211   3.783   0.000   0.692  0.2055 -0.3080  0.3498
  201SOL    HW110212   3.831   0.057   0.759 -0.2868  0.5276  0.0067
  201SOL    HW210213   3.827  -0.089   0.687  0.5749 -0.1926  1.3888
  202SOL     OW10214   2.301   1.320   0.917  0.3291 -0.3417  0.1458
  202SOL    HW110215   2.203   1.318   0.898  0.2198  0.8624  0.5203
  202SOL    HW210216   2.340   1.230   0.900 -1.0656 -1.1645  1.1930
  203SOL     OW10217   3.292   9.471   0.530 -0.3300  0.5357  0.3420
  203SOL    HW110218   3.287   9.415   0.447 -1.1469 -1.5397  1.7809
  203SOL    HW210219   3.240   9.556   0.515 -2.1313 -0.7036 -0.5987
  204SOL     OW10220   4.080   0.113   1.940  0.3178 -0.3945 -0.6127
  204SOL    HW110221   4.118   0.039   1.996  3.4719  1.8233  0.3113
  204SOL    HW210222   3.981   0.121   1.958  0.8002 -1.3370  2.8499
  205SOL     OW10223   3.473   0.673   0.094 -0.0071  0.3384  0.5164
  205SOL    HW110224   3.383   0.658   0.055  0.3806 -1.4279  0.2354
  205SOL    HW210225   3.501   0.768   0.080 -0.2888  0.0042 -2.6719
  206SOL     OW10226   4.513   1.035   0.260 -0.2653 -1.0179  0.0160
  206SOL    HW110227   4.499   1.005   0.355 -2.8821 -0.5111 -0.1633
  206SOL    HW210228   4.522   0.954   0.201  0.1445 -1.3583  0.5430
  207SOL     OW10229   1.748   8.654   2.528  0.0451  0.0100 -0.3945
  207SOL    HW110230   1.823   8.672   2.593 -0.2913 -1.5380  0.4411
  207SOL    HW210231   1.671   8.715   2.549  0.9574  1.4515 -1.1151
  208SOL     OW10232   3.076   0.257   2.465 -0.8506 -0.1397  0.1539
  208SOL    HW110233   3.040   0.349   2.448  0.1566  0.4303  1.0444
  208SOL    HW210234   3.166   0.264   2.507 -0.4401 -1.5434 -0.4687
  209SOL     OW10235   3.746   1.241   1.198  0.0427  0.3057  0.4061
  209SOL    HW110236   3.655   1.248   1.159 -0.4748 -1.7236  1.2151
  209SOL    HW210237   3.797   1.167   1.154  1.2701  1.3068  0.0733
  210SOL     OW10238   3.327   0.068   1.346  0.4119  0.4241 -0.0324
  210SOL    HW110239   3.347  -0.026   1.373  1.0870  0.9354  1.2658
  210SOL    HW210240   3.261   0.067   1.270 -0.3870 -1.0508  0.6525
  211SOL     OW10241   4.661   1.513   0.522 -0.1568 -0.0008 -0.2416
  211SOL    HW110242   4.696   1.594   0.474 -0.7519  0.9548  0.9149
  211SOL    HW210243   4.649   1.438   0.457 -0.2458  1.0554 -1.4546
  212SOL     OW10244   3.870   0.177   0.886 -0.8223  0.1662 -0.1933
  212SOL    HW110245   3.867   0.258   0.828 -1.4136  1.1106  1.1250
  212SOL    HW210246   3.966   0.150   0.899 -0.4719  1.8615  0.9684
  213SOL     OW10247   3.065   9.500   1.970  0.8040  0.6143  0.2242
  213SOL    HW110248   3.059   9.474   1.874 -0.3771 -0.3379  0.5518
  213SOL    HW210249   2.987   9.559   1.993  1.0566  0.7968  0.6170
  214SOL     OW10250   2.091   0.503   0.196  0.0505  0.3243 -0.0908
  214SOL    HW110251   2.113   0.496   0.099  1.3105  0.4239  0.1839
  214SOL    HW210252   2.073   0.411   0.232  1.7554  0.0506  0.0795
  215SOL     OW10253   2.674   2.359   2.120  0.2215  0.3332  0.5246
  215SOL    HW110254   2.577   2.363   2.142  0.6041  1.3602  2.1624
  215SOL    HW210255   2.720   2.296   2.183  0.5504 -0.5275 -0.5542
  216SOL     OW10256   2.100   0.571   0.524 -0.1431 -0.0026  0.3896
  216SOL    HW110257   2.075   0.483   0.566  1.7781 -0.4039  0.7167
  216SOL    HW210258   2.067   0.574   0.430 -1.5432 -0.4504  0.8479
  217SOL     OW10259   4.215   0.880   0.165 -0.3791 -0.2781  0.2333
  217SOL    HW110260   4.194   0.838   0.254 -1.1157  1.7781  1.0728
  217SOL    HW210261   4.271   0.818   0.111 -1.4734 -2.3418  1.4041
  218SOL     OW10262   4.039   2.396   2.422  0.3540  0.3173 -0.5509
  218SOL    HW110263   4.091   2.416   2.339  3.5891 -1.8525  0.8466
  218SOL    HW210264   4.050   2.470   2.487  1.2297  0.1497 -0.5017
  219SOL     OW10265   2.163   1.715   2.085  0.5151 -0.0648  0.2162
  219SOL    HW110266   2.141   1.800   2.133  0.6157  0.8285 -1.2965
  219SOL    HW210267   2.205   1.736   1.997  1.9353 -1.6980  0.4654
  220SOL     OW10268   3.833   1.321   2.488 -0.3202  0.4164 -0.3221
  220SOL    HW110269   3.886   1.342   2.406  2.6412  0.4670  1.5286
  220SOL    HW210270   3.790   1.404   2.523 -0.7267  0.5857 -1.2115
  221SOL     OW10271   2.181   0.804   0.129  0.5010  0.2499 -0.1674
  221SOL    HW110272   2.272   0.766   0.112  0.6596  0.0224  1.1565
  221SOL    HW210273   2.132   0.745   0.194 -0.3617  0.7048 -0.4039
  222SOL     OW10274   3.751   1.834   2.206 -0.4073  0.4294  0.3718
  222SOL    HW110275   3.693   1.915   2.202 -0.6612  0.2678  0.8246
  222SOL    HW210276   3.696   1.752   2.190 -0.2159  0.3112  0.3058
  223SOL     OW10277   3.856   0.712   0.184 -0.6966 -0.1252 -0.0922
  223SOL    HW110278   3.781   0.668   0.234 -0.0053 -0.4538  0.6693
  223SOL    HW210279   3.870   0.804   0.220  0.9980 -1.0032  1.6083
  224SOL     OW10280   2.763   9.923   0.255 -0.4782  0.7370  0.0446
  224SOL    HW110281   2.696   9.931   0.329  0.6010  0.3121  1.0659
  224SOL    HW210282   2.855   9.923   0.293  0.0553 -0.1739 -1.2479
  225SOL     OW10283   3.280   9.728   1.443  0.2178  1.4209  0.4006
  225SOL    HW110284   3.355   9.694   1.387  0.6646 -0.5419  2.1304
  225SOL    HW210285   3.302   9.716   1.540 -3.1490 -1.2363  0.9539
  226SOL     OW10286   4.312   1.292   1.278  0.0868  0.6943  0.1753
  226SOL    HW110287   4.270   1.241   1.203  2.3927 -0.2279 -0.5199
  226SOL    HW210288   4.276   1.259   1.365 -0.8354  0.1287 -0.4137
  227SOL     OW10289   2.067   1.648   2.571  0.4291  0.0785 -0.2778
  227SOL    HW110290   2.034   1.625   2.663  1.8939  0.1974  0.2797
  227SOL    HW210291   2.105   1.740   2.572 -1.2520  0.8247 -1.4554
  228SOL     OW10292   2.557   0.532   1.669 -0.4272 -0.2614 -0.0488
  228SOL    HW110293   2.481   0.469   1.651 -0.0532 -0.7306  0.0170
  228SOL    HW210294   2.523   0.609   1.724 -0.9454 -0.2568 -0.3686
  229SOL     OW10295   4.658   1.408   1.963  0.0039  0.3718 -0.2276
  229SOL    HW110296   4.577   1.466   1.971 -0.2064  0.1811 -0.9772
  229SOL    HW210297   4.652   1.332   2.028 -0.9512 -0.2844 -1.0848
  230SOL     OW10298   3.797   9.442   0.658  0.1035  0.4267 -0.3277
  230SOL    HW110299   3.712   9.459   0.609 -0.2532 -0.4965 -0.0455
  230SOL    HW210300   3.796   9.349   0.694  1.0808  0.5351 -0.0130
  231SOL     OW10301   3.702   0.610   0.430  0.4364  0.0193  0.5016
  231SOL    HW110302   3.719   0.512   0.415 -1.6003 -0.1035 -1.1889
  231SOL    HW210303   3.742   0.637   0.518  1.1014 -2.3008  0.9646
  232SOL     OW10304   4.675   0.473   0.647  0.1730  0.0110 -0.0421
  232SOL    HW110305   4.664   0.425   0.734 -1.9348 -0.0210 -0.2889
  232SOL    HW210306   4.753   0.535   0.653 -0.1028  0.2052  1.9679
  233SOL     OW10307   4.057   1.292   0.669  0.3660  0.4778 -0.9227
  233SOL    HW110308   3.981   1.296   0.605 -0.1977 -1.7254 -0.4348
  233SOL    HW210309   4.124   1.223   0.638 -0.1394 -0.9605  1.0389
  234SOL     OW10310   2.498   1.391   1.124 -0.2847  0.6247  0.5153
  234SOL    HW110311   2.456   1.313   1.171 -0.1371 -0.8380 -1.7185
  234SOL    HW210312   2.434   1.427   1.055  0.2277  1.5681  0.5201
  235SOL     OW10313   4.037   9.405   0.561 -0.2560  0.2890  0.2244
  235SOL    HW110314   4.021   9.342   0.485 -1.2093 -0.3623  0.9441
  235SOL    HW210315   3.950   9.423   0.608  0.6433 -1.0319  2.4826
  236SOL     OW10316   3.689   1.250   2.171  0.0151 -0.8969 -0.0841
  236SOL    HW110317   3.597   1.288   2.179  0.4595  0.3096 -0.7231
  236SOL    HW210318   3.734   1.287   2.091  1.8581  0.2010  1.4211
  237SOL     OW10319   4.005   0.726   2.795 -0.0920 -0.0946  0.6287
  237SOL    HW110320   3.938   0.716   2.722 -0.7142  1.2429  0.9893
  237SOL    HW210321   3.959   0.721   2.884  0.1621  1.4558  0.8709
  238SOL     OW10322   3.625   9.540   0.862  0.0743  0.2500 -0.4663
  238SOL    HW110323   3.623   9.625   0.915  0.6064  0.8148 -1.3238
  238SOL    HW210324   3.680   9.554   0.779  2.6821 -1.8002  0.8243
  239SOL     OW10325   2.231   0.979   0.613 -0.6250 -0.7690 -0.1039
  239SOL    HW110326   2.187   1.068   0.620 -0.5471 -0.7484  0.1333
  239SOL    HW210327   2.244   0.955   0.517 -0.9782 -0.6897 -0.1712
  240SOL     OW10328   4.025   0.564   1.827  0.2263 -0.1990  0.2499
  240SOL    HW110329   4.014   0.517   1.914  4.0258 -1.1557  0.3169
  240SOL    HW210330   4.044   0.497   1.755  0.8543  0.8445 -0.5755
  241SOL     OW10331   2.883   0.321   0.478  0.2537  0.6582 -0.5504
  241SOL    HW110332   2.898   0.298   0.382  2.4247  0.4724 -0.2092
  241SOL    HW210333   2.809   0.387   0.486 -1.0369 -0.5287 -2.2010
  242SOL     OW10334   2.455   9.042   1.457 -0.1853 -0.3693 -0.1837
  242SOL    HW110335   2.451   9.026   1.358 -1.7344  2.3947 -0.6230
  242SOL    HW210336   2.407   9.127   1.479 -0.5511 -1.3602  3.0701
  243SOL     OW10337   2.503   0.267   0.400 -0.2698  0.4019  0.1833
  243SOL    HW110338   2.436   0.242   0.330 -0.2027 -0.5225  0.4385
  243SOL    HW210339   2.473   0.232   0.488  0.6027 -0.1154  0.2819
  244SOL     OW10340   3.846   0.418   0.635 -0.0371 -0.1134  0.2881
  244SOL    HW110341   3.804   0.353   0.571  0.6671 -0.4280  0.1353
  244SOL    HW210342   3.944   0.399   0.641  0.0108  0.3490  0.9530
  245SOL     OW10343   4.088   0.301   0.704 -0.2078 -0.3468 -0.1868
  245SOL    HW110344   4.130   0.365   0.769  0.2304  1.3518 -2.0947
  245SOL    HW210345   4.160   0.262   0.645 -0.6013 -1.8747  0.3134
  246SOL     OW10346   3.267   9.412   1.087  0.5586 -0.1379  0.1317
  246SOL    HW110347   3.289   9.474   1.012  1.4456 -0.1107  0.4177
  246SOL    HW210348   3.199   9.455   1.146 -0.3956 -0.2852 -0.8275
  247SOL     OW10349   2.632   0.639   2.114  0.4279 -0.4893  0.2512
  247SOL    HW110350   2.673   0.710   2.058 -0.4152  0.1946  0.5019
  247SOL    HW210351   2.537   0.624   2.086  0.2688 -0.7569  0.9086
  248SOL     OW10352   2.734   0.295   2.540 -0.2697 -0.1387  0.2290
  248SOL    HW110353   2.767   0.208   2.577 -1.7489 -0.4410  0.8525
  248SOL    HW210354   2.707   0.282   2.445 -4.1404 -1.3203  1.4247
  249SOL     OW10355   3.044   1.404   2.732  0.3113 -0.4397 -0.6798
  249SOL    HW110356   3.085   1.341   2.666  0.4988  0.1379 -1.1238
  249SOL    HW210357   2.980   1.355   2.790  0.6535 -1.0923 -0.8499
  250SOL     OW10358   4.256   1.676   1.249 -0.8243  0.0694 -0.4406
  250SOL    HW110359   4.349   1.647   1.224 -0.9057  0.6577 -1.4621
  250SOL    HW210360   4.209   1.601   1.295  0.8212  0.3995  1.8810
  251SOL     OW10361   2.912   0.262   0.197  0.1798  0.2633 -0.1938
  251SOL    HW110362   2.911   0.335   0.129 -0.2199 -1.0394 -1.6148
  251SOL    HW210363   2.971   0.187   0.166 -0.4136 -0.5726  0.6433
  252SOL     OW10364   3.576   9.339   0.319  0.4916  0.4920 -0.0340
  252SOL    HW110365   3.581   9.438   0.328 -0.0246  0.4705  0.5065
  252SOL    HW210366   3.544   9.299   0.405 -0.2226 -0.0644 -0.5528
  253SOL     OW10367   2.862   0.647   0.286  0.3477  0.1873 -0.0643
  253SOL    HW110368   2.788   0.590   0.320  0.9566 -1.1971 -0.9979
  253SOL    HW210369   2.830   0.702   0.209  0.2018 -0.2443 -0.3194
  254SOL     OW10370   4.407   0.843   2.326  0.1573 -0.0656 -0.9749
  254SOL    HW110371   4.445   0.847   2.233  1.8481  0.3388 -0.2957
  254SOL    HW210372   4.379   0.935   2.354 -0.0157 -0.1258 -0.9505
  255SOL     OW10373   2.804   9.639   2.585 -0.2837 -0.3111  0.4628
  255SOL    HW110374   2.750   9.579   2.644  0.3367 -1.2631  0.0618
  255SOL    HW210375   2.864   9.584   2.526  1.3405  0.7430  1.1016
  256SOL     OW10376   2.432   0.179   0.652  0.5919  0.4206 -1.0846
  256SOL    HW110377   2.460   0.232   0.732  1.3834  0.6201 -1.4841
  256SOL    HW210378   2.423   0.083   0.676  2.4273  0.2218 -1.1225
  257SOL     OW10379   3.725   1.007   0.014  0.0286 -0.5035 -0.1767
  257SOL    HW110380   3.736   0.992   0.112  1.5919 -0.9877 -0.4153
  257SOL    HW210381   3.799   0.961  -0.035  0.9260  2.1699 -1.4099
  258SOL     OW10382   3.613   9.760   1.615 -0.0071 -0.1072 -0.2134
  258SOL    HW110383   3.659   9.714   1.690  0.8139 -0.1594 -0.7360
  258SOL    HW210384   3.672   9.832   1.579 -0.7757  0.5412 -0.2040
  259SOL     OW10385   2.503   0.804   0.623  0.0525 -0.2086  0.5130
  259SOL    HW110386   2.462   0.860   0.695  2.0871 -0.1546  1.6685
  259SOL    HW210387   2.431   0.768   0.564 -1.4780  1.6127  1.2016
  260SOL     OW10388   3.782   1.739   0.302  0.0125  0.6733 -0.0386
  260SOL    HW110389   3.730   1.716   0.220  0.0617  3.1606 -0.8339
  260SOL    HW210390   3.760   1.676   0.376 -0.9082 -0.8918 -1.6273
  261SOL     OW10391   3.192   2.132   2.518  0.1757  0.2086  0.2547
  261SOL    HW110392   3.217   2.123   2.614 -1.5125  0.0235  0.6803
  261SOL    HW210393   3.252   2.074   2.462  1.6272  0.8698  1.1105
  262SOL     OW10394   3.029   9.849   1.384  0.8122 -0.2434 -0.1371
  262SOL    HW110395   3.030   9.948   1.398  0.4638  0.5326 -4.7626
  262SOL    HW210396   3.120   9.812   1.401  0.7973  0.7045  2.2439
  263SOL     OW10397   4.368   1.852   1.591  0.2686  0.0963  0.8457
  263SOL    HW110398   4.343   1.878   1.684  0.5893 -0.3395  1.0567
  263SOL    HW210399   4.296   1.881   1.528 -0.6509 -0.9072  1.4145
  264SOL     OW10400   1.979   9.537   2.454 -0.0095  0.1708  0.3921
  264SOL    HW110401   1.961   9.449   2.498  0.7856  0.6896  1.7856
  264SOL    HW210402   2.018   9.521   2.363 -1.1899 -0.9056  0.0636
  265SOL     OW10403   3.222   9.684   2.751  0.1040  0.5050  0.3413
  265SOL    HW110404   3.291   9.709   2.683  1.5276  2.3182  2.4057
  265SOL    HW210405   3.229   9.586   2.771  1.5478  0.5221 -0.0504
  266SOL     OW10406   2.435   0.067   1.683  0.7010  0.1667 -0.0402
  266SOL    HW110407   2.473   0.073   1.775  0.9943 -1.3231 -0.0623
  266SOL    HW210408   2.498   0.019   1.623  0.3389  0.7846 -0.9322
  267SOL     OW10409   4.786   1.636   1.865  0.5387  0.3892 -0.0699
  267SOL    HW110410   4.736   1.560   1.905  0.5948  1.3416  1.8520
  267SOL    HW210411   4.878   1.606   1.839  0.2640 -0.4092 -0.1203
  268SOL     OW10412   3.859   9.081   0.385 -0.9155 -0.2817  0.2652
  268SOL    HW110413   3.775   9.126   0.355 -0.5991 -0.9431 -1.7565
  268SOL    HW210414   3.932   9.099   0.318  1.7462  3.6578  4.0145
  269SOL     OW10415   4.279   0.117   1.465 -0.9645 -0.1709 -0.2989
  269SOL    HW110416   4.281   0.172   1.549  0.5733 -0.2708 -0.2528
  269SOL    HW210417   4.271   0.178   1.386  0.1948  0.0989 -0.2184
  270SOL     OW10418   2.235   0.085   0.441 -0.1592 -0.5242  0.5208
  270SOL    HW110419   2.306   0.097   0.510  2.0462 -0.2071 -1.7673
  270SOL    HW210420   2.148   0.119   0.478  1.2059  0.7673  2.6951
  271SOL     OW10421   2.721   9.251   1.445  0.1923  0.1012 -0.2194
  271SOL    HW110422   2.815   9.234   1.416 -0.0172 -0.9122 -0.3239
  271SOL    HW210423   2.688   9.173   1.498 -0.6832  0.3298 -0.4226
  272SOL     OW10424   2.605   9.684   0.039 -0.4605  0.1069 -0.4798
  272SOL    HW110425   2.628   9.724  -0.049  0.4408  2.5320  0.8068
  272SOL    HW210426   2.667   9.720   0.109  0.3270 -3.5248  0.7795
  273SOL     OW10427   3.357   9.517   0.839  0.2314  0.0030  0.2717
  273SOL    HW110428   3.456   9.524   0.829  0.1121  0.3660 -0.7116
  273SOL    HW210429   3.323   9.442   0.783 -0.3723  1.6965 -1.7420
  274SOL     OW10430   4.677   1.775   0.429  0.7264  0.7050  0.2198
  274SOL    HW110431   4.600   1.746   0.372 -0.1353 -0.6115  1.9638
  274SOL    HW210432   4.748   1.815   0.372  0.7333 -2.3002 -2.0198
  275SOL     OW10433   3.263   0.549   1.473 -0.0477  0.1615 -0.9173
  275SOL    HW110434   3.345   0.603   1.453 -0.0564 -0.6176 -3.1685
  275SOL    HW210435   3.201   0.553   1.395 -0.6459 -1.9818 -0.5750
  276SOL     OW10436   7.320   8.873   1.207 -0.1215  0.4882  0.0337
  276SOL    HW110437   7.368   8.797   1.250 -2.5392 -2.7256 -2.7518
  276SOL    HW210438   7.355   8.887   1.114 -0.9631  1.5803 -0.1378
  277SOL     OW10439   3.479   1.453   0.161  0.3528 -0.1027  0.1254
  277SOL    HW110440   3.519   1.364   0.184  0.1831 -0.8162 -2.2152
  277SOL    HW210441   3.383   1.455   0.191 -0.2141 -1.4537 -1.5515
  278SOL     OW10442   3.333   9.391   0.132 -0.4226  0.0744 -0.0547
  278SOL    HW110443   3.424   9.354   0.112 -0.8043 -0.2251 -1.3064
  278SOL    HW210444   3.342   9.476   0.182  0.5963  0.6677 -1.2040
  279SOL     OW10445   2.609   9.473   2.709 -0.1517 -0.5567  0.2377
  279SOL    HW110446   2.567   9.422   2.633  1.0512 -0.3732 -0.5695
  279SOL    HW210447   2.538   9.503   2.772 -1.2269 -0.3745 -1.0253
  280SOL     OW10448   3.210   9.832   1.082  0.7097  0.7888 -0.3070
  280SOL    HW110449   3.148   9.756   1.061  0.2546  1.6539 -2.1940
  280SOL    HW210450   3.305   9.798   1.080  0.3799 -0.2788  1.4290
  281SOL     OW10451   3.687   9.533   2.824  0.4097 -0.2732 -0.6522
  281SOL    HW110452   3.648   9.603   2.883  2.0973  0.2062 -0.0594
  281SOL    HW210453   3.685   9.444   2.869 -1.9311 -0.6669 -1.4899
  282SOL     OW10454   3.281   1.567   0.435  0.4730 -0.0862 -0.0078
  282SOL    HW110455   3.372   1.544   0.468  0.4046 -0.4312 -0.0575
  282SOL    HW210456   3.220   1.488   0.447 -0.2373  0.6653  1.5465
  283SOL     OW10457   3.853   0.873   0.510  0.2985  0.0907  0.5149
  283SOL    HW110458   3.919   0.831   0.571 -1.7583 -1.5384  1.6617
  283SOL    HW210459   3.771   0.899   0.561  0.4746  3.1700 -0.6531
  284SOL     OW10460   4.640   2.577   2.046 -0.7968  0.0560 -0.1374
  284SOL    HW110461   4.650   2.675   2.032  1.1175  0.0377  0.9319
  284SOL    HW210462   4.628   2.532   1.957  2.4329  0.8554 -1.0692
  285SOL     OW10463   2.830   9.766   0.847 -0.8326 -0.1842 -0.2788
  285SOL    HW110464   2.923   9.801   0.858 -0.5682 -0.8459 -0.3509
  285SOL    HW210465   2.803   9.771   0.751 -0.2990 -1.3865 -0.5003
  286SOL     OW10466   2.939   9.783   2.823 -0.0197  0.2201 -0.1009
  286SOL    HW110467   2.875   9.782   2.747  0.5220  0.6813 -0.5694
  286SOL    HW210468   3.025   9.741   2.795  0.1265  0.2453  0.3060
  287SOL     OW10469   3.606   1.294   1.442 -0.6799 -0.2559  0.5406
  287SOL    HW110470   3.630   1.235   1.365 -1.0770 -3.6123  2.9213
  287SOL    HW210471   3.508   1.311   1.442 -0.3039  2.2902 -1.3685
  288SOL     OW10472   3.055   9.627   0.986  0.6856 -0.2780  0.9059
  288SOL    HW110473   2.976   9.566   0.991  1.0246 -0.6185  2.1907
  288SOL    HW210474   3.083   9.637   0.890 -1.1740  0.2007  0.3917
  289SOL     OW10475   3.727   9.598   1.776  0.2487  0.4678 -0.3106
  289SOL    HW110476   3.714   9.514   1.724 -2.6936 -0.6153  2.0482
  289SOL    HW210477   3.819   9.597   1.817  0.8176 -0.8485 -1.5640
  290SOL     OW10478   2.267   0.417   1.430  0.2375  0.5158  0.5652
  290SOL    HW110479   2.254   0.392   1.526  0.4593 -0.3884  0.3620
  290SOL    HW210480   2.317   0.345   1.383 -0.2282  0.7707 -0.3284
  291SOL     OW10481   4.218   2.518   1.953  0.3289  1.4303 -0.2008
  291SOL    HW110482   4.274   2.498   1.873  1.8514  0.9069  0.9799
  291SOL    HW210483   4.143   2.579   1.927  0.8650  1.3395 -1.9950
  292SOL     OW10484   9.846   3.904   2.739 -0.1273 -0.1771 -0.0478
  292SOL    HW110485   9.838   3.805   2.728  1.4487 -0.2325 -0.7892
  292SOL    HW210486   9.872   3.925   2.833  1.3045 -0.5754 -0.3460
  293SOL     OW10487   2.461   9.149   1.125  0.3505 -0.0059  0.2545
  293SOL    HW110488   2.550   9.178   1.160  2.6896 -1.1959 -4.3214
  293SOL    HW210489   2.413   9.229   1.087  1.2528 -0.0162 -0.9231
  294SOL     OW10490   4.378   0.904   1.387 -0.1076 -0.7143  0.1493
  294SOL    HW110491   4.473   0.877   1.404  0.7588  1.0998 -1.5265
  294SOL    HW210492   4.371   1.004   1.390 -1.5870 -0.7465 -1.5208
  295SOL     OW10493   2.798   9.598   1.827  0.4869 -0.0436  0.3026
  295SOL    HW110494   2.797   9.639   1.919  0.9292  0.6109  0.0215
  295SOL    HW210495   2.839   9.663   1.762 -2.3131  0.6053 -0.8720
  296SOL     OW10496   4.022   9.896   1.746 -0.5285 -0.2440 -0.3901
  296SOL    HW110497   3.995   9.952   1.824 -0.1471  2.0281 -1.8233
  296SOL    HW210498   4.121   9.881   1.749 -0.1449  1.7737 -1.5795
  297SOL     OW10499   3.552   9.649   1.379 -0.3853  0.6936 -0.4221
  297SOL    HW110500   3.640   9.648   1.332 -0.8181  2.1016 -1.3083
  297SOL    HW210501   3.563   9.688   1.470 -0.0397  0.5474 -0.3990
  298SOL     OW10502   2.232   1.027   0.895  0.5559  0.5257 -0.1806
  298SOL    HW110503   2.310   0.994   0.948  0.1292  1.0658  0.7920
  298SOL    HW210504   2.241   0.996   0.800  0.9367 -1.0870  0.3646
  299SOL     OW10505   2.356   9.754   0.131  0.4535 -0.6452 -0.7766
  299SOL    HW110506   2.350   9.854   0.129 -0.7221 -0.6508  1.1061
  299SOL    HW210507   2.439   9.724   0.084  3.1517  1.4844  2.4060
  300SOL     OW10508   3.379   0.890   1.875 -0.1179 -0.6607 -0.4979
  300SOL    HW110509   3.330   0.976   1.888  0.5831 -0.4235  0.6801
  300SOL    HW210510   3.324   0.814   1.912 -0.1504 -0.5465 -0.3084
  301SOL     OW10511   3.252   2.240   1.521  0.9346 -0.3789 -0.3995
  301SOL    HW110512   3.320   2.288   1.577 -0.3342  1.6393 -0.5639
  301SOL    HW210513   3.218   2.301   1.450 -0.8220 -1.4717 -0.5233
  302SOL     OW10514   3.775   0.670   0.721  0.2972  0.1074  0.0778
  302SOL    HW110515   3.792   0.578   0.685  0.6013 -0.0768  0.6835
  302SOL    HW210516   3.678   0.679   0.744  0.1304  0.1816 -0.6649
  303SOL     OW10517   3.615   0.089   1.052 -0.1632  0.5969  0.4277
  303SOL    HW110518   3.576   0.075   0.961 -1.1123 -0.6270  1.0079
  303SOL    HW210519   3.713   0.067   1.049 -0.4510 -0.7108 -0.0120
  304SOL     OW10520   3.937   9.215   0.149  0.4894  0.5470  0.1483
  304SOL    HW110521   4.006   9.280   0.182  1.1606  0.7589 -1.6349
  304SOL    HW210522   3.895   9.251   0.067 -1.4787  0.2170  0.9918
  305SOL     OW10523   2.907   9.822   1.647  0.0041 -0.0772 -0.3155
  305SOL    HW110524   2.943   9.823   1.554 -0.0340  2.1016 -0.3214
  305SOL    HW210525   2.960   9.886   1.704 -1.1794  0.0122  0.7019
  306SOL     OW10526   4.128   1.986   2.055 -0.2248 -0.4095 -0.1297
  306SOL    HW110527   4.205   1.947   2.005 -1.8497  0.0435 -3.1018
  306SOL    HW210528   4.106   1.928   2.134  1.1390 -2.2397 -1.0810
  307SOL     OW10529   3.607   2.590   1.831  0.6221  0.3408  1.0382
  307SOL    HW110530   3.696   2.588   1.787 -0.5257 -0.7681 -1.3132
  307SOL    HW210531   3.562   2.677   1.811  0.0912 -0.1720 -0.0607
  308SOL     OW10532   3.049   9.649   0.222  0.1429 -0.5363  0.5642
  308SOL    HW110533   3.002   9.567   0.257  0.2496 -1.3450 -1.1706
  308SOL    HW210534   2.995   9.688   0.147  1.1396 -0.2086  0.0196
  309SOL     OW10535   2.528   9.675   1.750 -0.3705 -0.0913  0.4117
  309SOL    HW110536   2.452   9.611   1.762  0.2440 -0.5822  1.8921
  309SOL    HW210537   2.614   9.627   1.769  0.1428  1.0010  0.8788
  310SOL     OW10538   4.465   4.994   1.689 -0.4073  0.2780  0.0068
  310SOL    HW110539   4.495   5.082   1.724  0.3810 -0.3393  0.8917
  310SOL    HW210540   4.429   5.006   1.596 -1.5647  1.7460  0.6164
  311SOL     OW10541   2.391   0.961   1.457  0.1837  0.1488 -0.1192
  311SOL    HW110542   2.444   0.916   1.384 -0.4494 -2.1107  0.7713
  311SOL    HW210543   2.322   0.897   1.492 -0.6595  1.8048  1.2851
  312SOL     OW10544   3.394   2.048   0.657 -0.1307  0.3769 -0.0794
  312SOL    HW110545   3.396   2.069   0.560 -0.4963  1.7626  0.1934
  312SOL    HW210546   3.471   1.989   0.680  0.3273  0.5609 -1.0977
  313SOL     OW10547   2.192   0.063   2.478  0.3696  0.5154 -0.2775
  313SOL    HW110548   2.109   0.007   2.483  0.8288  0.0056  3.3226
  313SOL    HW210549   2.176   0.150   2.524  2.1156 -0.0528  1.5048
  314SOL     OW10550   4.613   1.235   0.456  0.6874  0.3203  0.0977
  314SOL    HW110551   4.559   1.245   0.540 -1.5863  2.4241 -1.5053
  314SOL    HW210552   4.563   1.177   0.391  1.4092  0.4255 -0.5549
  315SOL     OW10553   2.909   0.483   0.028 -0.8750 -0.0479  0.0408
  315SOL    HW110554   2.932   0.564   0.083 -2.1193 -0.4613  1.2113
  315SOL    HW210555   2.851   0.510  -0.049  0.1317  0.4121 -0.5559
  316SOL     OW10556   3.798   2.699   2.762  0.5658 -0.3832  0.0476
  316SOL    HW110557   3.705   2.673   2.788  0.2581 -0.2861 -0.9437
  316SOL    HW210558   3.800   2.796   2.738  0.4758 -0.8456 -1.9243
  317SOL     OW10559   3.622   1.604   2.146 -0.4835 -0.2692  0.1710
  317SOL    HW110560   3.632   1.598   2.047 -0.6267  0.5327  0.1009
  317SOL    HW210561   3.529   1.576   2.172 -0.5587 -0.1391  0.0413
  318SOL     OW10562   2.398   0.622   1.271 -0.5251 -0.1678  0.1351
  318SOL    HW110563   2.361   0.585   1.356 -1.1965 -0.5134 -0.3069
  318SOL    HW210564   2.388   0.555   1.197  1.8880 -0.6752  0.2149
  319SOL     OW10565   3.117   0.705   1.663  0.0723 -0.1909  0.5396
  319SOL    HW110566   3.142   0.641   1.590  1.7489 -0.1311  1.0180
  319SOL    HW210567   3.132   0.661   1.752 -0.5266  0.2438  0.8581
  320SOL     OW10568   2.923   0.766   2.052 -0.2700  0.3500 -0.5450
  320SOL    HW110569   2.922   0.701   1.976 -3.5056 -0.5977  0.2466
  320SOL    HW210570   2.864   0.844   2.030 -0.1936  0.7072  0.5008
  321SOL     OW10571   3.096   9.519   1.276 -0.1762 -0.4064 -0.3921
  321SOL    HW110572   3.148   9.577   1.338 -1.2378  1.2075 -0.9708
  321SOL    HW210573   3.037   9.576   1.219  1.0504 -1.8085 -3.1728
  322SOL     OW10574   3.649   2.265   2.373 -0.7465 -0.5945 -0.1135
  322SOL    HW110575   3.738   2.269   2.417 -1.3769 -2.3088  1.3930
  322SOL    HW210576   3.596   2.347   2.397  0.2769  0.2494 -0.7208
  323SOL     OW10577   4.422   0.824   1.094  0.6567 -0.7219 -0.1637
  323SOL    HW110578   4.358   0.791   1.025 -0.0951 -4.2173  2.0910
  323SOL    HW210579   4.389   0.911   1.131 -2.1190 -1.8338  0.0485
  324SOL     OW10580   3.272   1.918   1.310  0.8821 -0.8871  0.2406
  324SOL    HW110581   3.199   1.982   1.287  0.4250 -1.9377 -1.2653
  324SOL    HW210582   3.318   1.948   1.394  2.8158  3.2678 -2.1491
  325SOL     OW10583   4.201   0.950   2.059  0.1289  0.0721 -0.2271
  325SOL    HW110584   4.149   0.913   1.982 -1.0218  2.1405 -0.5000
  325SOL    HW210585   4.155   0.925   2.145 -0.1294  0.1130 -0.3539
  326SOL     OW10586   3.150   9.686   0.727  0.0911  0.0654 -0.0483
  326SOL    HW110587   3.229   9.627   0.739 -0.7312 -1.0543  0.0243
  326SOL    HW210588   3.156   9.733   0.639  0.5998 -0.3815 -0.2534
  327SOL     OW10589   3.508   9.372   1.350 -1.0136 -0.3403  0.0351
  327SOL    HW110590   3.537   9.462   1.317 -2.3157  0.0039 -0.1830
  327SOL    HW210591   3.422   9.345   1.305 -2.1850 -0.3879  2.2371
  328SOL     OW10592   3.361   2.016   0.395  0.3174 -0.6992 -0.3072
  328SOL    HW110593   3.265   1.991   0.408  0.0421  0.4996  0.0336
  328SOL    HW210594   3.409   1.941   0.350 -1.1094 -0.7643 -1.7680
  329SOL     OW10595   3.784   9.638   1.230  0.3307  0.4930 -0.1926
  329SOL    HW110596   3.834   9.618   1.146 -0.6791 -0.5526 -0.5490
  329SOL    HW210597   3.846   9.682   1.296  1.5986 -0.3615 -0.7967
  330SOL     OW10598   3.665   1.096   1.880 -0.2776 -0.7971 -0.1836
  330SOL    HW110599   3.602   1.058   1.812  0.3859  1.4942 -2.1508
  330SOL    HW210600   3.643   1.192   1.895  2.8803  0.0980 -1.0851
  331SOL     OW10601   3.786   1.353   1.939  0.0909  0.2639 -0.2386
  331SOL    HW110602   3.867   1.298   1.917  0.8515  1.0998  0.4098
  331SOL    HW210603   3.814   1.448   1.954 -0.9637  0.4777  0.4018
  332SOL     OW10604   3.276   1.127   1.906  0.0012  0.1067  0.2423
  332SOL    HW110605   3.194   1.155   1.956 -1.1464  0.1065 -1.5990
  332SOL    HW210606   3.348   1.195   1.920 -0.5038  0.4221  1.3839
  333SOL     OW10607   2.956   2.403   2.136 -0.2045  0.3010 -0.1888
  333SOL    HW110608   2.864   2.364   2.126  0.4868 -1.9987  2.0140
  333SOL    HW210609   2.972   2.426   2.231  1.7707  0.0478 -0.4544
  334SOL     OW10610   2.482   0.933   2.674 -0.3186 -0.0185  0.0154
  334SOL    HW110611   2.483   0.945   2.774 -2.4351 -0.6413  0.1365
  334SOL    HW210612   2.449   1.016   2.630  0.2484  0.1235 -0.1399
  335SOL     OW10613   3.763   9.773   0.972 -0.2237  0.3487  0.3173
  335SOL    HW110614   3.829   9.848   0.984  0.4285 -0.0777 -0.5245
  335SOL    HW210615   3.812   9.687   0.958 -0.9560 -0.7023  3.7864
  336SOL     OW10616   2.103   0.274   2.634  0.5415  0.7824  0.2714
  336SOL    HW110617   2.108   0.237   2.727  0.9771 -1.9989 -0.8288
  336SOL    HW210618   2.131   0.370   2.636 -1.2378  1.3212  3.2953
  337SOL     OW10619   4.091   0.079   1.042 -0.6242  0.4348  0.4889
  337SOL    HW110620   4.111   0.154   1.105  1.0998  0.1806  0.2807
  337SOL    HW210621   4.149   0.001   1.065 -2.5431 -0.9336  0.8466
  338SOL     OW10622   3.192   1.564   0.000 -0.1643  0.4253  0.5940
  338SOL    HW110623   3.158   1.477  -0.035  1.7978 -0.5420  0.9624
  338SOL    HW210624   3.267   1.596  -0.058 -0.4322  1.5386  0.8488
  339SOL     OW10625   3.078   0.552   2.677  0.1771  0.1143 -0.1969
  339SOL    HW110626   3.017   0.513   2.746  1.7386 -0.2306  0.9952
  339SOL    HW210627   3.053   0.516   2.587 -1.4261  0.0359  0.2632
  340SOL     OW10628   2.650   9.920   1.553 -0.0666  0.2629 -0.3039
  340SOL    HW110629   2.744   9.903   1.583 -0.9830 -0.9476  1.9788
  340SOL    HW210630   2.613   9.839   1.509 -0.3484  0.4477 -0.4132
  341SOL     OW10631   3.209   0.573   1.874 -0.2530  0.3860  0.2057
  341SOL    HW110632   3.308   0.560   1.874 -0.1725  0.9698 -0.5655
  341SOL    HW210633   3.163   0.484   1.874  0.2764  0.0996 -1.5646
  342SOL     OW10634   3.203   0.268   1.478  0.0391  0.8201 -0.2465
  342SOL    HW110635   3.219   0.361   1.445  0.9149 -0.2252 -2.8866
  342SOL    HW210636   3.277   0.209   1.447 -0.8022 -0.8819  0.9341
  343SOL     OW10637   4.114   9.399   0.247  0.2720  0.6534  0.3299
  343SOL    HW110638   4.139   9.442   0.334  1.8220 -1.5437  0.9886
  343SOL    HW210639   4.104   9.470   0.177  0.1688  2.3279  1.9991
  344SOL     OW10640   0.618   2.874   1.908  0.0799 -0.2049  0.4846
  344SOL    HW110641   0.534   2.915   1.872  0.5162 -1.1739 -1.6631
  344SOL    HW210642   0.632   2.905   2.003 -2.0533  0.8995  0.4614
  345SOL     OW10643   2.381   0.308   2.710  0.3491  0.2365  0.4537
  345SOL    HW110644   2.370   0.211   2.687 -2.8519  0.4255  0.9825
  345SOL    HW210645   2.331   0.364   2.645 -0.0819  1.3717  1.7310
  346SOL     OW10646   2.922   0.770   0.049  0.2915 -0.1687 -0.2024
  346SOL    HW110647   3.011   0.798   0.085  0.2053  0.7731 -0.7038
  346SOL    HW210648   2.924   0.772  -0.051 -0.3116 -0.0903 -0.2185
  347SOL     OW10649   3.662   1.638   0.081  0.0007 -0.7232  0.4719
  347SOL    HW110650   3.621   1.562   0.131 -1.0033  0.0358  0.8195
  347SOL    HW210651   3.738   1.604   0.025 -0.2138 -1.9160  0.8888
  348SOL     OW10652   4.403   0.595   2.601 -0.0417  0.1376  0.6686
  348SOL    HW110653   4.343   0.545   2.663  0.4978  1.8384  2.6267
  348SOL    HW210654   4.496   0.596   2.638 -0.0697  2.6904  0.7675
  349SOL     OW10655   2.350   1.331   2.455  0.7540 -0.2009 -0.1322
  349SOL    HW110656   2.424   1.389   2.489  1.7228 -0.1464 -2.2513
  349SOL    HW210657   2.278   1.389   2.416 -1.6107 -0.1125  4.0657
  350SOL     OW10658   4.457   1.601   1.982 -0.2598 -0.9525 -0.4035
  350SOL    HW110659   4.358   1.594   1.974 -0.1225  0.2040 -3.6631
  350SOL    HW210660   4.480   1.670   2.052 -1.6946 -1.9236  1.0624
  351SOL     OW10661   4.333   0.257   0.596 -0.2051 -0.1633 -0.2985
  351SOL    HW110662   4.364   0.349   0.575 -0.7063 -0.1322 -0.9358
  351SOL    HW210663   4.402   0.209   0.651  0.5443  0.2119 -0.9033
  352SOL     OW10664   2.164   1.585   0.015  0.1408 -0.3835 -0.2111
  352SOL    HW110665   2.194   1.503   0.063  1.0489 -0.5953 -1.1240
  352SOL    HW210666   2.229   1.659   0.031 -0.9955  0.3670  1.1195
  353SOL     OW10667   3.562   9.397   1.636 -0.2840  0.2682  0.5818
  353SOL    HW110668   3.614   9.315   1.615  2.8338  1.9845  1.1349
  353SOL    HW210669   3.501   9.419   1.560  0.1056 -1.6056 -0.2974
  354SOL     OW10670   3.215   0.161   0.432  0.4347  0.2932 -0.2309
  354SOL    HW110671   3.199   0.242   0.376  0.7827  0.1242 -0.5832
  354SOL    HW210672   3.277   0.099   0.383  0.5203  0.0180  0.2249
  355SOL     OW10673   2.552   0.092   0.956 -0.4354 -0.0757  0.3740
  355SOL    HW110674   2.630   0.047   1.001 -1.1019 -1.3109  0.3086
  355SOL    HW210675   2.487   0.023   0.925 -2.0368  0.9934  1.3047
  356SOL     OW10676   2.185   0.543   2.805  0.3306  0.5196  0.2946
  356SOL    HW110677   2.214   0.600   2.729  0.5397  0.2878  0.2002
  356SOL    HW210678   2.265   0.501   2.847  0.1990  0.4977  0.5243
  357SOL     OW10679   2.907   2.415   0.425 -0.3003 -0.2683  0.5896
  357SOL    HW110680   2.926   2.435   0.521  0.1058  0.9129  0.2746
  357SOL    HW210681   2.858   2.493   0.385  1.7825  0.3333 -0.8206
  358SOL     OW10682   3.083   0.042   0.020  0.2256  0.3186 -0.2164
  358SOL    HW110683   3.052  -0.051   0.042 -1.0116  0.7556 -0.1145
  358SOL    HW210684   3.062   0.062  -0.076 -2.0156  1.4939  0.4988
  359SOL     OW10685   4.091   1.215   2.110 -0.5519  0.2721 -0.0431
  359SOL    HW110686   4.070   1.242   2.016 -2.3369 -1.2112 -0.0995
  359SOL    HW210687   4.153   1.136   2.108 -0.7158  0.1415  0.0164
  360SOL     OW10688   4.411   9.398   1.547  0.2519 -0.4041 -0.1355
  360SOL    HW110689   4.462   9.316   1.521  0.8030 -0.6184  1.5565
  360SOL    HW210690   4.409   9.406   1.647 -1.5465  0.5389 -0.2174
  361SOL     OW10691   2.750   1.157   1.234 -0.0299  0.6431  0.4038
  361SOL    HW110692   2.847   1.136   1.241 -0.1725 -0.2788 -0.2042
  361SOL    HW210693   2.712   1.172   1.325  0.9129  2.1340  0.5648
  362SOL     OW10694   2.436   9.824   0.932  0.2873 -0.5421 -0.3796
  362SOL    HW110695   2.344   9.801   0.965  1.1600 -1.7118  1.3344
  362SOL    HW210696   2.498   9.747   0.950  2.3366  1.4876  1.5732
  363SOL     OW10697   4.761   1.030   1.000 -0.0799 -0.7290  0.3564
  363SOL    HW110698   4.721   1.096   0.935  1.4408 -0.7014 -0.5562
  363SOL    HW210699   4.719   1.044   1.090  0.5395  1.8161  0.2960
  364SOL     OW10700   8.600   8.610   2.564 -0.0553  0.2497  0.5410
  364SOL    HW110701   8.523   8.648   2.615 -0.8343 -1.1364  0.4084
  364SOL    HW210702   8.615   8.516   2.592  1.3656  0.3961  0.2965
  365SOL     OW10703   2.414   9.912   0.668 -0.5536 -0.1747  0.5542
  365SOL    HW110704   2.436   9.858   0.586 -1.8764 -0.1891  0.1936
  365SOL    HW210705   2.424   9.854   0.749  0.5308 -0.2305  0.3822
  366SOL     OW10706   4.278   0.187   1.739  0.0836  0.4121  0.5568
  366SOL    HW110707   4.220   0.146   1.809  0.7263  0.2210  0.9846
  366SOL    HW210708   4.256   0.284   1.730 -0.7358  0.2023  0.2644
  367SOL     OW10709   2.613   2.164   1.924 -0.1237 -0.0607 -0.0234
  367SOL    HW110710   2.529   2.122   1.959  0.2135  0.3200  1.2579
  367SOL    HW210711   2.622   2.256   1.961  1.0884 -0.2585  0.1753
  368SOL     OW10712   4.250   0.819   2.665  0.0041  0.3969  0.3725
  368SOL    HW110713   4.268   0.734   2.616  2.8591  0.9857  0.2909
  368SOL    HW210714   4.191   0.801   2.744 -0.2461 -1.4636 -0.2231
  369SOL     OW10715   2.710   1.878   1.834  0.4653  0.0881 -0.6049
  369SOL    HW110716   2.788   1.941   1.837  1.0745 -0.6590 -0.6823
  369SOL    HW210717   2.625   1.930   1.844  1.0615  0.7007  1.7042
  370SOL     OW10718   2.846   0.627   1.806 -0.5473  0.3269 -0.5947
  370SOL    HW110719   2.773   0.586   1.750 -0.1065  0.1449 -1.0411
  370SOL    HW210720   2.924   0.649   1.747  0.1055 -0.2942  0.0293
  371SOL     OW10721   4.565   2.414   1.805  0.3099  0.3560  0.8187
  371SOL    HW110722   4.473   2.426   1.768  1.2225 -0.6358 -1.9413
  371SOL    HW210723   4.576   2.319   1.834  0.7721  0.2075  0.1738
  372SOL     OW10724   3.905   1.335   1.420 -0.4021  0.2165 -0.3337
  372SOL    HW110725   3.862   1.290   1.342 -0.9859  1.3333 -0.6662
  372SOL    HW210726   3.874   1.292   1.505 -0.0184 -0.7865 -0.6867
  373SOL     OW10727   3.098   0.713   0.408 -0.2471  0.0482  0.6368
  373SOL    HW110728   3.003   0.689   0.386 -0.0557  0.3634 -0.5597
  373SOL    HW210729   3.130   0.783   0.344  0.7647  0.0048  1.0969
  374SOL     OW10730   3.547   9.566   0.562  0.3600 -0.0958 -0.3663
  374SOL    HW110731   3.455   9.531   0.581  0.1598 -0.0928 -1.2996
  374SOL    HW210732   3.550   9.664   0.578  0.0771 -0.0199 -0.7902
  375SOL     OW10733   3.815   1.203   1.642 -0.2283 -0.2011  0.5060
  375SOL    HW110734   3.794   1.136   1.714 -1.4662 -0.5451 -0.1592
  375SOL    HW210735   3.732   1.254   1.619  0.0902 -0.2598 -0.8359
  376SOL     OW10736   2.238   0.787   2.369 -0.3074 -0.2595 -0.9976
  376SOL    HW110737   2.182   0.806   2.449  0.7002 -1.4358  0.0218
  376SOL    HW210738   2.335   0.787   2.395  0.0597 -0.2668 -2.2959
  377SOL     OW10739   3.626   0.929   0.642 -0.5154  0.5902 -0.1765
  377SOL    HW110740   3.578   0.874   0.710 -2.4078  3.1697  0.6746
  377SOL    HW210741   3.591   0.908   0.551 -0.7155 -0.0913  0.0536
  378SOL     OW10742   4.327   0.692   1.902  0.3003  0.1560  0.7902
  378SOL    HW110743   4.270   0.774   1.894 -1.1210 -0.9731 -1.1262
  378SOL    HW210744   4.289   0.632   1.973 -0.4724 -0.2380  0.0542
  379SOL     OW10745   3.600   9.561   2.567 -0.6474 -0.1545  0.3634
  379SOL    HW110746   3.677   9.551   2.503 -1.4872  0.2479 -0.7385
  379SOL    HW210747   3.628   9.533   2.658  0.7702 -0.1434 -0.0575
  380SOL     OW10748   3.199   9.802   2.096 -0.3641  0.7480 -0.3719
  380SOL    HW110749   3.199   9.702   2.103 -1.3974  0.5032 -2.9673
  380SOL    HW210750   3.261   9.841   2.163  1.8863 -1.7896 -0.8932
  381SOL     OW10751   2.801   9.797   0.562  0.5513 -0.4504  0.7749
  381SOL    HW110752   2.875   9.846   0.516  0.3499 -0.1899  0.7252
  381SOL    HW210753   2.720   9.796   0.503  0.0992  0.4092  1.3720
  382SOL     OW10754   3.667   9.299   0.065 -0.8445 -0.1740 -0.9410
  382SOL    HW110755   3.645   9.202   0.054 -0.1034 -0.4606  0.0634
  382SOL    HW210756   3.645   9.328   0.158  1.8505 -0.1736 -0.2758
  383SOL     OW10757   2.702   0.126   0.088  0.4005 -0.0828 -0.2753
  383SOL    HW110758   2.718   0.039   0.135 -0.3412  0.3582  0.8238
  383SOL    HW210759   2.766   0.195   0.123  0.6669 -0.0630 -0.7981
  384SOL     OW10760   2.077   0.222   0.649  0.2881 -0.0176  0.5069
  384SOL    HW110761   2.135   0.181   0.720  1.4026  1.6136  0.5672
  384SOL    HW210762   2.003   0.273   0.693  0.4579  0.2460  0.4904
  385SOL     OW10763   2.607   9.833   2.652 -0.0556  0.6609 -0.2094
  385SOL    HW110764   2.645   9.756   2.600  2.2688 -1.2519  4.1245
  385SOL    HW210765   2.509   9.817   2.667  0.3478 -1.4107  0.4604
  386SOL     OW10766   2.497   9.700   1.480 -0.2388 -0.1728  0.1598
  386SOL    HW110767   2.504   9.671   1.576  1.1753 -2.4712 -0.5759
  386SOL    HW210768   2.464   9.623   1.425 -0.4398  0.9412 -1.2911
  387SOL     OW10769   2.210   0.773   1.506 -0.0002 -0.0895  0.2768
  387SOL    HW110770   2.227   0.677   1.528  0.0184 -0.2704 -0.5293
  387SOL    HW210771   2.114   0.795   1.526 -0.6023 -0.8790 -1.6934
  388SOL     OW10772   4.671   0.810   1.262  0.0512 -0.3728 -0.5363
  388SOL    HW110773   4.707   0.899   1.290 -1.3268 -0.2624  0.9519
  388SOL    HW210774   4.587   0.824   1.211 -1.3119 -0.8854  1.5146
  389SOL     OW10775   4.722   1.017   1.462  0.3751  0.9201 -0.0071
  389SOL    HW110776   4.798   1.080   1.481  0.4432  0.7731  0.2024
  389SOL    HW210777   4.683   0.985   1.548 -0.0960  1.2015 -0.1181
  390SOL     OW10778   1.999   9.786   2.325 -0.1200 -0.4716  0.4688
  390SOL    HW110779   1.976   9.748   2.235 -0.9320  0.2193  0.3719
  390SOL    HW210780   1.953   9.733   2.396 -1.1496  0.2186  0.3409
  391SOL     OW10781   3.022   0.097   0.594 -0.0852  0.5434  0.9090
  391SOL    HW110782   3.102   0.113   0.537 -0.1855  0.1378  0.6552
  391SOL    HW210783   2.953   0.167   0.575  0.0722  0.6933  0.8860
  392SOL     OW10784   2.865   1.931   2.267  0.2123 -0.5008  0.5066
  392SOL    HW110785   2.839   1.981   2.185  0.1295 -1.5793 -0.1279
  392SOL    HW210786   2.887   1.837   2.244 -0.4805 -1.0024  1.8177
  393SOL     OW10787   4.243   1.426   1.695  0.5156  0.2068  0.1549
  393SOL    HW110788   4.322   1.487   1.693 -0.4513  1.4917 -0.7126
  393SOL    HW210789   4.258   1.349   1.634 -0.3120  2.3506 -2.9241
  394SOL     OW10790   2.368   1.140   1.213  0.2705 -0.3513 -0.3664
  394SOL    HW110791   2.335   1.083   1.289 -0.2469 -0.0482 -0.3625
  394SOL    HW210792   2.398   1.080   1.138  0.9357 -0.6539  0.1381
  395SOL     OW10793   2.324   0.014   0.169  0.3564  0.0007 -0.2739
  395SOL    HW110794   2.361   0.106   0.162 -2.6609  1.0476 -3.8235
  395SOL    HW210795   2.254   0.011   0.240  1.2489  0.1215  0.6240
  396SOL     OW10796   3.696   9.993   1.835  0.8053  0.8067 -0.0805
  396SOL    HW110797   3.597  10.009   1.834  1.0675  2.4976  0.2985
  396SOL    HW210798   3.726   9.968   1.743  0.3385  2.2726 -0.6352
  397SOL     OW10799   2.762   0.056   2.654 -0.1133 -0.4432 -0.5700
  397SOL    HW110800   2.702  -0.024   2.661 -0.6775  0.0731  0.4614
  397SOL    HW210801   2.777   0.095   2.745  0.3345  0.5052 -1.0481
  398SOL     OW10802   4.082   9.957   2.356 -0.2601 -0.5456  0.2701
  398SOL    HW110803   4.075  10.056   2.366  0.8186 -0.3912 -0.4031
  398SOL    HW210804   4.069   9.913   2.445  0.9230  0.3050  0.8754
  399SOL     OW10805   3.994   1.749   1.326  0.1920  0.1798  0.8320
  399SOL    HW110806   4.093   1.764   1.331  0.3709 -1.3374  2.3988
  399SOL    HW210807   3.958   1.735   1.418 -1.3163 -0.3792  0.1701
  400SOL     OW10808   2.709   2.067   2.655 -0.0732 -0.6815 -0.1655
  400SOL    HW110809   2.772   2.142   2.674 -1.9641  0.7576  0.5404
  400SOL    HW210810   2.739   1.986   2.705  0.9636  0.0988  0.5238
  401SOL     OW10811   2.360   1.081   1.804  0.0631 -0.7116 -0.2827
  401SOL    HW110812   2.356   1.109   1.708 -1.5964 -3.1420 -0.9930
  401SOL    HW210813   2.442   1.118   1.847 -0.1569  1.9874 -2.1036
  402SOL     OW10814   2.480   9.876   0.382 -0.3634  0.4144 -0.0344
  402SOL    HW110815   2.450   9.959   0.335 -0.7987  0.2789  0.0044
  402SOL    HW210816   2.433   9.796   0.344 -0.9404  0.3370  0.8127
  403SOL     OW10817   9.265   6.284   1.158  0.5489 -0.1276  0.7656
  403SOL    HW110818   9.322   6.365   1.142  1.2418 -0.2720  2.4005
  403SOL    HW210819   9.262   6.229   1.074  2.0659  0.3597  0.3731
  404SOL     OW10820   4.200   0.518   2.856  0.1472 -0.0690 -0.8585
  404SOL    HW110821   4.119   0.576   2.847  0.1804  0.2172  0.5239
  404SOL    HW210822   4.248   0.541   2.941  1.8166 -0.0700 -1.7858
  405SOL     OW10823   2.458   0.982   1.009  0.1858 -0.7895  0.7991
  405SOL    HW110824   2.536   1.040   0.989 -0.0458 -0.3273  1.2201
  405SOL    HW210825   2.488   0.899   1.057  0.0526  0.9371  3.9611
  406SOL     OW10826   3.040   0.043   2.624 -0.0595  0.5844  0.4533
  406SOL    HW110827   2.965  -0.023   2.630  1.5064 -1.6646 -3.0571
  406SOL    HW210828   3.006   0.129   2.585 -1.0590  0.0839  0.1994
  407SOL     OW10829   3.529   0.812   0.406  0.5986 -0.1213  0.3762
  407SOL    HW110830   3.600   0.745   0.383  0.4626  0.0437 -0.5449
  407SOL    HW210831   3.452   0.765   0.448  1.0866 -0.3548  1.0204
  408SOL     OW10832   2.442   0.240   0.104  0.5732  0.0357  0.1908
  408SOL    HW110833   2.535   0.202   0.108  1.3673  1.6302 -2.3802
  408SOL    HW210834   2.417   0.259   0.009 -2.4137 -0.3426  0.8344
  409SOL     OW10835   9.916   0.277   1.773  0.8589  0.1702  0.6573
  409SOL    HW110836   9.961   0.329   1.845  2.4184  0.6431 -0.6471
  409SOL    HW210837   9.967   0.285   1.688 -1.7869  0.9035 -0.9438
  410SOL     OW10838   2.000   1.135   0.964  0.1576 -0.2034  0.0330
  410SOL    HW110839   2.077   1.081   0.930 -2.3208 -4.7452  1.3509
  410SOL    HW210840   2.026   1.180   1.049  1.8110 -0.3651 -0.3637
  411SOL     OW10841   3.808   2.601   2.359 -0.3269  0.2156 -0.3831
  411SOL    HW110842   3.855   2.554   2.285  2.3174  0.6382  0.9718
  411SOL    HW210843   3.761   2.682   2.324 -0.7539 -0.6769 -1.8956
  412SOL     OW10844   3.210   9.714   0.416  0.0576 -1.0239 -0.0713
  412SOL    HW110845   3.158   9.686   0.336  1.2449 -2.3420 -0.4210
  412SOL    HW210846   3.308   9.717   0.393 -0.0048  4.0747 -0.2018
  413SOL     OW10847   1.951   9.295   2.576 -0.0075  0.8078  0.4011
  413SOL    HW110848   1.858   9.266   2.553 -0.8175  2.1382  1.8918
  413SOL    HW210849   1.967   9.281   2.673  2.0267 -1.1248 -0.1580
  414SOL     OW10850   3.824   0.984   0.252  0.0918 -0.4653 -0.4629
  414SOL    HW110851   3.807   0.931   0.335  2.1292 -1.4587 -0.6586
  414SOL    HW210852   3.903   1.043   0.266 -0.4334  0.4434 -1.2342
  415SOL     OW10853   3.074   0.029   2.259 -0.2727 -0.6605 -0.2875
  415SOL    HW110854   3.031   0.093   2.324  1.6953  0.4957 -0.0691
  415SOL    HW210855   3.166   0.008   2.291 -0.3482 -2.3958 -1.2088
  416SOL     OW10856   2.879   2.792   2.443  0.2771 -0.7173 -0.4008
  416SOL    HW110857   2.977   2.803   2.458  0.6748 -1.1731 -2.4178
  416SOL    HW210858   2.864   2.740   2.359 -1.7001 -0.6649 -0.1170
  417SOL     OW10859   3.360   0.297   0.806 -0.9276  0.2851  0.1439
  417SOL    HW110860   3.341   0.201   0.827 -0.0432  0.3989  1.5000
  417SOL    HW210861   3.451   0.304   0.764 -1.6102  0.3644 -1.3502
  418SOL     OW10862   2.376   1.991   0.463  0.3206  1.1027  0.0362
  418SOL    HW110863   2.471   1.964   0.478  0.1667 -0.1816 -1.2024
  418SOL    HW210864   2.326   1.987   0.549  1.2486  1.2571  0.5938
  419SOL     OW10865   3.445   9.605   0.294 -0.2368  0.0883 -0.0070
  419SOL    HW110866   3.512   9.609   0.368  1.1342 -4.6146 -0.7792
  419SOL    HW210867   3.482   9.651   0.213  0.8748  0.0677  0.4728
  420SOL     OW10868   2.269   0.920   2.022  0.3260 -0.3965 -0.1665
  420SOL    HW110869   2.304   0.984   1.953  0.6721  0.7818  1.0761
  420SOL    HW210870   2.200   0.966   2.078  1.6366 -0.6437  1.6789
  421SOL     OW10871   4.041   1.943   0.037  0.2869  0.9448 -0.2241
  421SOL    HW110872   4.046   1.866   0.101  1.7784  0.3501 -1.0342
  421SOL    HW210873   4.120   1.940  -0.025 -0.0543  2.6898 -0.7580
  422SOL     OW10874   4.294   1.248   0.864 -0.0823 -0.4469  0.1922
  422SOL    HW110875   4.386   1.263   0.829  0.0269  0.9723  1.0713
  422SOL    HW210876   4.227   1.284   0.800 -0.1047 -2.7898 -1.1497
  423SOL     OW10877   3.442   1.798   0.231 -0.1716  0.4402  0.3015
  423SOL    HW110878   3.508   1.765   0.163  0.5306 -0.7687  1.5407
  423SOL    HW210879   3.349   1.781   0.198  0.1444  0.6321 -0.7236
  424SOL     OW10880   4.323   0.595   2.352 -0.1543  1.0602 -0.3447
  424SOL    HW110881   4.343   0.691   2.335  1.0817  1.1734  1.5785
  424SOL    HW210882   4.381   0.562   2.427  0.7087 -1.6446 -2.1274
  425SOL     OW10883   2.742   0.603   1.466  0.7261 -0.0285 -0.1633
  425SOL    HW110884   2.733   0.700   1.441 -0.7652  0.1819  1.0851
  425SOL    HW210885   2.671   0.580   1.533  1.9121 -1.6589  0.5420
  426SOL     OW10886   4.242   1.187   1.514  0.1894  0.0483  0.2600
  426SOL    HW110887   4.165   1.124   1.525  1.2598 -1.5520 -1.1904
  426SOL    HW210888   4.313   1.165   1.580 -0.6726  1.7376  1.8238
  427SOL     OW10889   3.798   1.151   0.691 -0.5489  0.5516  0.5898
  427SOL    HW110890   3.742   1.068   0.685  0.8838 -0.3184 -1.0592
  427SOL    HW210891   3.774   1.201   0.774 -2.0206 -1.0758  1.1793
  428SOL     OW10892   3.252   9.814   0.147  0.4724  0.3819 -0.1552
  428SOL    HW110893   3.293   9.776   0.064  1.3249 -2.1260  1.3686
  428SOL    HW210894   3.175   9.757   0.175  0.6716  0.7702  1.1931
  429SOL     OW10895   2.296   9.805   2.533  0.3007 -0.0929  0.0575
  429SOL    HW110896   2.222   9.752   2.491 -1.8673  1.6370  1.5819
  429SOL    HW210897   2.299   9.896   2.492 -0.0811  0.6910  1.7359
  430SOL     OW10898   2.688   1.112   0.960 -0.7294 -0.4345 -0.1431
  430SOL    HW110899   2.702   1.158   1.047 -0.8152 -2.0113  0.7261
  430SOL    HW210900   2.712   1.173   0.885 -1.4930  1.2316  0.9588
  431SOL     OW10901   2.451   0.775   1.788 -0.1273 -0.2676  0.9870
  431SOL    HW110902   2.484   0.857   1.740 -0.8509 -1.0809 -0.9717
  431SOL    HW210903   2.393   0.802   1.864 -0.9110  1.0482 -0.0539
  10.00000  10.00000   2.87400
