chitosan Film  in water:acetic acid 2%
14447
    1CHTO  H203    1   5.590   7.115   1.722 -1.0568 -0.0272 -1.5685
    1CHTO   O82    2   5.589   7.022   1.735 -0.4475  0.1253 -0.2973
    1CHTO  C123    3   5.704   6.980   1.807  0.3577 -0.2231  0.4908
    1CHTO  H227    4   5.725   7.038   1.898 -0.6163  1.4663 -0.3444
    1CHTO   O77    5   5.669   6.837   1.844  0.3296  0.3604  0.0054
    1CHTO  C118    6   5.776   6.763   1.899 -0.2011  0.3072 -0.0377
    1CHTO  H222    7   5.808   6.806   1.995  2.7820 -0.1872 -0.7717
    1CHTO  C125    8   5.714   6.621   1.929  0.7301  0.0619  0.5067
    1CHTO   O84    9   5.669   6.631   2.067  0.0279  0.2584 -0.4559
    1CHTO  H205   10   5.575   6.621   2.064  0.0774 -0.1193 -0.7061
    1CHTO  C114   11   5.905   6.753   1.808  0.7332  0.5116 -0.5094
    1CHTO  H218   12   5.880   6.688   1.724 -3.1802  0.6760  0.4127
    1CHTO  C116   13   5.950   6.894   1.771  0.1575  0.5247  0.0053
    1CHTO  H220   14   5.989   6.937   1.866  0.3034  0.7241 -0.1453
    1CHTO   O79   15   6.062   6.889   1.680 -0.4567 -0.3679  0.6273
    1CHTO  H201   16   6.060   6.822   1.614 -1.3851  0.3190 -0.0561
    1CHTO  C120   17   5.834   6.986   1.713  0.0131 -0.3115 -0.2890
    1CHTO  H224   18   5.823   6.942   1.611 -0.9413 -1.6184  0.3485
    1CHTO   N21   19   5.876   7.130   1.694 -0.0250 -0.6519  0.0401
    1CHTO  H211   20   5.947   7.153   1.772  0.4941  1.1427 -0.9475
    1CHTO  H212   21   5.928   7.142   1.600  2.9234  0.5518  1.7427
    1CHTO   O75   22   6.001   6.683   1.890 -0.3057 -0.4669 -0.2808
    1CHTO  C112   23   6.058   6.538   1.814  0.9615 -0.4144 -0.1157
    1CHTO  H216   24   6.023   6.546   1.709  1.2520  1.3016 -0.0946
    1CHTO   O73   25   5.990   6.428   1.891  0.0867 -0.1267 -0.0308
    1CHTO  C113   26   6.041   6.295   1.856 -0.0076  0.3337  0.8188
    1CHTO  H217   27   6.016   6.280   1.749 -3.7513 -0.6252  1.7597
    1CHTO  C124   28   5.964   6.195   1.939 -0.4711  0.0848  0.0199
    1CHTO   O83   29   5.818   6.204   1.935 -0.5867  0.2531  0.4501
    1CHTO  H204   30   5.782   6.131   1.980 -0.4401  0.0331  0.2128
    1CHTO  C109   31   6.200   6.288   1.860  0.2450 -0.5625 -0.9598
    1CHTO  H213   32   6.229   6.293   1.966  0.5204  0.0192 -1.0651
    1CHTO  C110   33   6.272   6.402   1.782  0.0782  0.9224 -0.0946
    1CHTO  H214   34   6.271   6.381   1.675 -0.4999 -0.6311  0.1933
    1CHTO   O78   35   6.415   6.396   1.800  0.6331  0.2138  0.0868
    1CHTO  H200   36   6.444   6.484   1.785 -1.4054  1.3493  2.4104
    1CHTO  C111   37   6.214   6.540   1.814 -0.3863 -0.8732 -0.0379
    1CHTO  H215   38   6.238   6.555   1.920 -2.5785 -2.5719  0.7296
    1CHTO   N19   39   6.271   6.655   1.734  0.4450  0.4967  0.8373
    1CHTO  H207   40   6.354   6.625   1.671 -0.9032 -0.9506 -0.3039
    1CHTO  H208   41   6.255   6.756   1.770 -1.0529  0.9776 -1.0942
    1CHTO   O74   42   6.247   6.159   1.807  0.5282  0.2480  0.8157
    1CHTO  C115   43   6.315   6.063   1.912 -0.0792 -0.1222 -0.6441
    1CHTO  H219   44   6.306   6.104   2.013  1.8527 -0.4728 -0.3075
    1CHTO   O76   45   6.251   5.920   1.920 -0.4169  0.2006 -0.2940
    1CHTO  C122   46   6.248   5.842   1.804 -0.6663 -0.1825  0.2059
    1CHTO  H226   47   6.179   5.882   1.730 -0.6593  2.1406  1.4219
    1CHTO  C126   48   6.196   5.695   1.849 -0.0716  0.2113  0.4856
    1CHTO   O85   49   6.303   5.636   1.923  0.1792 -0.3215  0.0215
    1CHTO  H206   50   6.356   5.588   1.862 -0.4568 -1.9177  0.6848
    1CHTO  C121   51   6.390   5.842   1.731  1.1054 -0.5492 -0.4597
    1CHTO  H225   52   6.416   5.734   1.727  0.4744 -0.7693  1.2513
    1CHTO   O81   53   6.371   5.906   1.600 -0.1145  0.2379  0.2441
    1CHTO  H202   54   6.294   5.881   1.553  0.6157  1.3604 -1.6069
    1CHTO  C119   55   6.509   5.921   1.813 -0.6376 -0.2798  0.4281
    1CHTO  H223   56   6.552   5.859   1.892 -1.4801 -1.1691  0.1917
    1CHTO  C117   57   6.465   6.066   1.874  0.7210  0.2373  0.4535
    1CHTO  H221   58   6.468   6.145   1.798 -1.5396  0.6623  0.7561
    1CHTO   N20   59   6.553   6.111   1.987 -0.9297  0.6042  0.6387
    1CHTO  H209   60   6.592   6.211   1.972 -0.9459  0.6056  0.6072
    1CHTO  H210   61   6.633   6.039   1.988 -0.7536  0.7931  0.3060
    1CHTO   O80   62   6.638   5.938   1.717  0.2098 -0.1659 -0.6590
    1CHTO  C103   63   6.743   5.855   1.736  0.0656  0.0274 -0.0381
    1CHTO  H190   64   6.758   5.843   1.843 -0.1932 -1.3584 -0.1569
    1CHTO  C101   65   6.739   5.712   1.675  0.4337  0.1339 -0.1652
    1CHTO  H188   66   6.691   5.714   1.578  0.9065 -1.2488 -0.4475
    1CHTO   O68   67   6.632   5.628   1.762 -0.3288  0.2898 -0.0983
    1CHTO  H168   68   6.638   5.645   1.854 -1.1425 -0.3190  0.0719
    1CHTO   C99   69   6.883   5.644   1.694  0.1111 -0.0257 -0.1225
    1CHTO  H186   70   6.898   5.631   1.803  2.7953 -0.1516 -0.4622
    1CHTO   N17   71   6.888   5.512   1.632  0.0147 -0.0971 -0.3204
    1CHTO  H174   72   6.817   5.443   1.676 -0.3295  0.5264  0.1092
    1CHTO  H175   73   6.988   5.474   1.641  0.3369  0.4530 -1.4947
    1CHTO   C97   74   7.007   5.735   1.647  0.0733  0.3190  0.1697
    1CHTO  H184   75   7.012   5.723   1.537  2.6204  1.2014  0.1474
    1CHTO   O64   76   6.990   5.870   1.694 -0.2883  0.2741  0.2173
    1CHTO  C104   77   6.872   5.936   1.676 -0.5655 -0.0583  0.1648
    1CHTO  H191   78   6.860   5.948   1.568 -1.5346  1.5606  0.4382
    1CHTO  C108   79   6.877   6.072   1.744 -0.4607  0.1595 -0.6043
    1CHTO   O71   80   6.832   6.175   1.659 -0.5608 -0.0624  0.2549
    1CHTO  H171   81   6.873   6.170   1.575  1.7648  0.5924  1.3110
    1CHTO   O62   82   7.124   5.686   1.712 -0.2351 -0.0384  0.0666
    1CHTO   C91   83   7.235   5.647   1.635  0.3575  0.0835  0.1094
    1CHTO  H178   84   7.205   5.589   1.548 -0.2259  1.0342 -0.3257
    1CHTO   C92   85   7.319   5.552   1.734  0.3825  0.3314 -0.5915
    1CHTO  H179   86   7.344   5.615   1.821 -2.2914  2.0875 -1.0074
    1CHTO   O66   87   7.225   5.450   1.778  0.2378  0.3645 -0.6226
    1CHTO  H166   88   7.181   5.409   1.706  0.5484 -1.2602  0.0910
    1CHTO   C93   89   7.434   5.491   1.646  0.0942 -0.3776  0.2409
    1CHTO  H180   90   7.394   5.459   1.549  0.9207  0.6032 -0.4270
    1CHTO   N16   91   7.505   5.372   1.703  0.1349 -0.3868 -0.1947
    1CHTO  H172   92   7.610   5.365   1.680 -0.2412 -0.6570 -1.8891
    1CHTO  H173   93   7.458   5.277   1.683  2.8009 -1.3627 -2.1517
    1CHTO   C94   94   7.529   5.615   1.627 -0.1117 -1.0301 -0.2009
    1CHTO  H181   95   7.555   5.659   1.723 -2.1433  2.9798 -1.3994
    1CHTO   O61   96   7.464   5.716   1.548  0.2543 -0.2955  0.6115
    1CHTO   C95   97   7.329   5.763   1.588 -0.1907  1.1535  0.0164
    1CHTO  H182   98   7.347   5.837   1.666  0.1502  0.1579  0.8858
    1CHTO  C106   99   7.279   5.830   1.455  0.1219 -0.2504  0.0598
    1CHTO   O69  100   7.284   5.744   1.339  0.2549  0.5718 -0.4974
    1CHTO  H169  101   7.363   5.770   1.296  0.3447  0.8885 -0.1499
    1CHTO   O63  102   7.654   5.564   1.551 -0.4666  0.4559 -0.4386
    1CHTO   C96  103   7.764   5.648   1.552  0.7016 -0.0659  0.0880
    1CHTO  H183  104   7.735   5.742   1.599  1.9237 -0.5576  1.8666
    1CHTO   C98  105   7.801   5.683   1.402  0.1195 -0.0553  0.3648
    1CHTO  H185  106   7.713   5.723   1.350  0.0347 -1.6701 -0.7806
    1CHTO   O67  107   7.902   5.787   1.400  0.0470 -0.6220 -0.0884
    1CHTO  H167  108   7.928   5.821   1.317  0.4442  2.8643  1.3625
    1CHTO  C102  109   7.872   5.565   1.323  0.3516 -0.1925 -0.4322
    1CHTO  H189  110   7.934   5.613   1.245  0.0201  0.4290 -0.3163
    1CHTO   N18  111   7.772   5.482   1.253 -0.0153  0.0993 -0.3883
    1CHTO  H176  112   7.678   5.475   1.305 -0.6598 -0.7364 -1.6629
    1CHTO  H177  113   7.808   5.382   1.238  0.2494  0.2891 -1.0199
    1CHTO  C105  114   7.953   5.478   1.424 -0.2261 -0.4377 -0.5165
    1CHTO  H192  115   7.890   5.395   1.457 -0.4967  0.2057  0.6278
    1CHTO   O65  116   7.992   5.540   1.547  0.2065  0.0591 -0.1115
    1CHTO  C100  117   7.876   5.566   1.633 -0.7450 -0.2303 -0.0503
    1CHTO  H187  118   7.842   5.464   1.657 -1.9414 -0.2047 -1.5377
    1CHTO  C107  119   7.928   5.638   1.757  0.5835  0.7176 -0.1288
    1CHTO   O70  120   7.807   5.671   1.826  0.0365  0.6275  0.0906
    1CHTO  H170  121   7.829   5.668   1.917  1.3034  0.5417 -0.2097
    1CHTO   O57  122   8.076   5.427   1.342  0.1224  0.1427  0.5312
    1CHTO   C85  123   8.077   5.291   1.307 -0.3221 -0.5491 -0.0053
    1CHTO  H157  124   7.996   5.264   1.235 -1.2896  1.1732  0.4380
    1CHTO   C83  125   8.038   5.195   1.420 -0.3701 -0.5045 -0.2005
    1CHTO  H155  126   7.941   5.224   1.460  0.8616  0.2991  2.3107
    1CHTO   O56  127   8.117   5.237   1.536  0.4981  0.3925 -0.2075
    1CHTO  H135  128   8.081   5.313   1.576 -0.3404 -0.2648  0.3214
    1CHTO   C81  129   8.046   5.043   1.388 -0.6483  0.2634  0.6505
    1CHTO  H153  130   7.983   5.028   1.300 -0.5478 -0.4939  0.7066
    1CHTO   N14  131   7.997   4.954   1.490 -0.1946  0.0461  0.6578
    1CHTO  H141  132   7.980   4.858   1.446  1.4857 -0.9469  2.1002
    1CHTO  H142  133   8.063   4.946   1.574  0.5556  0.1402  0.0801
    1CHTO   C79  134   8.197   5.009   1.342 -0.5197  0.3217  0.0397
    1CHTO  H151  135   8.198   4.910   1.298  0.9582  0.5969 -0.5571
    1CHTO   O52  136   8.229   5.099   1.225 -0.1394  0.3436  0.5110
    1CHTO   C86  137   8.216   5.239   1.257 -0.5870 -0.4879 -0.0904
    1CHTO  H158  138   8.302   5.263   1.324 -1.0173  0.2923  0.1925
    1CHTO   C90  139   8.251   5.312   1.125 -0.2089  0.5559  0.7207
    1CHTO   O60  140   8.185   5.259   1.010  0.4393  0.0311  0.4160
    1CHTO  H138  141   8.094   5.276   1.027 -0.1130 -0.2803 -2.1139
    1CHTO   O50  142   8.299   5.007   1.437 -0.2450  0.6458 -0.0401
    1CHTO   C73  143   8.420   4.955   1.496  0.1044  0.5231  0.7185
    1CHTO  H145  144   8.498   4.952   1.419  0.2110  0.9107  0.8065
    1CHTO   C74  145   8.398   4.809   1.558 -0.5567  0.0293  0.2628
    1CHTO  H146  146   8.357   4.760   1.469 -1.0430  2.3533 -0.8025
    1CHTO   O54  147   8.526   4.744   1.587 -0.2676 -0.7054  0.7605
    1CHTO  H133  148   8.526   4.703   1.671  0.9676 -2.0394  0.1402
    1CHTO   C75  149   8.294   4.822   1.675 -0.3428 -0.5554  0.2311
    1CHTO  H147  150   8.199   4.860   1.637 -0.2935 -0.7512 -0.0843
    1CHTO   N13  151   8.270   4.695   1.747  0.9315  0.3111  0.2550
    1CHTO  H139  152   8.285   4.710   1.853 -1.4431  0.8375  0.5428
    1CHTO  H140  153   8.173   4.654   1.720  1.7123 -0.4942 -1.4033
    1CHTO   C76  154   8.357   4.932   1.778  0.2095  0.1790 -0.3606
    1CHTO  H148  155   8.455   4.891   1.805  0.0022  1.1024  1.8714
    1CHTO   O49  156   8.386   5.064   1.718  0.2977 -0.1851  0.2909
    1CHTO   C77  157   8.468   5.055   1.602  0.3807 -0.3343  0.4066
    1CHTO  H149  158   8.570   5.034   1.633  0.0999 -1.7795  0.3997
    1CHTO   C88  159   8.486   5.198   1.548 -0.0992 -0.3461 -0.5329
    1CHTO   O58  160   8.592   5.270   1.644  0.0762  0.1946 -0.0034
    1CHTO  H136  161   8.630   5.348   1.609  0.3618  0.7336  1.4552
    1CHTO   O51  162   8.271   4.953   1.915  0.5353  0.0131 -0.0309
    1CHTO   C78  163   8.340   5.049   2.024 -0.7042  0.2177  0.2590
    1CHTO  H150  164   8.426   5.108   1.986 -0.6451  0.0690  0.1631
    1CHTO   C80  165   8.396   4.971   2.145 -0.1379 -0.5925 -1.3988
    1CHTO  H152  166   8.335   4.881   2.168 -2.0845  0.8402 -0.7863
    1CHTO   O55  167   8.526   4.923   2.106 -0.4057  0.5525 -0.2499
    1CHTO  H134  168   8.590   4.983   2.075 -0.3379  0.5750 -0.0635
    1CHTO   C84  169   8.413   5.059   2.281 -0.6735 -0.6954  0.2437
    1CHTO  H156  170   8.488   5.136   2.265 -1.0552 -0.5148 -0.7220
    1CHTO   N15  171   8.462   4.977   2.401  0.6171 -0.5346 -0.8629
    1CHTO  H143  172   8.515   5.043   2.466  0.9553 -0.1306 -1.5520
    1CHTO  H144  173   8.373   4.942   2.449 -0.8441  2.5132 -1.2349
    1CHTO   C87  174   8.289   5.153   2.303 -0.5468  0.4348  0.8509
    1CHTO  H159  175   8.203   5.092   2.328 -1.4539  0.5539 -1.7547
    1CHTO   O53  176   8.264   5.233   2.173  0.6498 -0.3335 -0.0828
    1CHTO   C82  177   8.228   5.150   2.064 -0.1098 -0.2186  0.3992
    1CHTO  H154  178   8.141   5.089   2.087 -0.0030  0.0631  1.5615
    1CHTO   C89  179   8.185   5.239   1.942  0.0232 -0.0745 -0.0845
    1CHTO   O59  180   8.063   5.304   1.977 -0.0439 -0.7093 -0.1240
    1CHTO  H137  181   7.997   5.310   1.910  2.0997  0.4062 -2.2207
    1CHTO   O45  182   8.302   5.261   2.436  0.3156 -0.2092  0.3797
    1CHTO   C67  183   8.191   5.353   2.433 -0.1164  0.1850  0.0402
    1CHTO  H124  184   8.187   5.404   2.336 -0.2163 -0.5046 -0.3262
    1CHTO   C65  185   8.054   5.287   2.461  0.0898  0.1691 -1.3330
    1CHTO  H122  186   8.069   5.191   2.511 -2.7244 -0.8062 -2.2780
    1CHTO   O44  187   8.004   5.263   2.330 -0.1831  0.0512 -0.3122
    1CHTO  H102  188   7.915   5.233   2.329  0.1933 -1.1578 -3.2543
    1CHTO   C63  189   7.974   5.366   2.565  0.2789 -0.4867 -0.2765
    1CHTO  H120  190   8.025   5.353   2.661  0.5348 -1.7238 -0.5686
    1CHTO   N11  191   7.838   5.322   2.590  0.4325  0.2670 -0.6285
    1CHTO  H108  192   7.852   5.224   2.630  2.9106  0.1721 -1.6410
    1CHTO  H109  193   7.791   5.306   2.495 -0.4272 -1.8172  0.1159
    1CHTO   C61  194   7.985   5.515   2.543 -0.3328  0.3267  0.5319
    1CHTO  H118  195   7.931   5.568   2.624 -0.3679  1.4178 -0.1861
    1CHTO   O40  196   8.124   5.570   2.549 -0.6077 -0.0758 -0.6575
    1CHTO   C68  197   8.229   5.465   2.538 -0.8779 -0.7170 -0.3487
    1CHTO  H125  198   8.239   5.408   2.633  0.2361 -1.3667 -0.8418
    1CHTO   C72  199   8.364   5.543   2.513  0.4737  0.0119  0.6222
    1CHTO   O48  200   8.371   5.580   2.379  0.2561 -0.2595 -0.2172
    1CHTO  H105  201   8.462   5.599   2.365 -0.0453  2.0499  0.8845
    1CHTO   O38  202   7.947   5.544   2.410 -0.2775 -0.2282  0.1249
    1CHTO   C55  203   7.921   5.684   2.378 -0.3820 -0.7240  0.2033
    1CHTO  H112  204   7.995   5.747   2.431 -0.4005 -0.4247 -0.1197
    1CHTO   C56  205   7.769   5.732   2.410  0.0863 -0.1854  0.0173
    1CHTO  H113  206   7.696   5.669   2.356  1.0945  0.3055 -1.9765
    1CHTO   O42  207   7.747   5.710   2.540 -0.0862 -0.4237 -0.0832
    1CHTO  H100  208   7.784   5.781   2.590  0.6593 -1.7344  1.2660
    1CHTO   C57  209   7.733   5.883   2.366 -0.4289  0.2225  0.8606
    1CHTO  H114  210   7.798   5.935   2.437  1.3259 -0.6056 -0.1097
    1CHTO   N10  211   7.588   5.930   2.379 -0.2013  0.0694 -0.4827
    1CHTO  H106  212   7.577   6.035   2.399 -0.7440 -0.0670 -0.0120
    1CHTO  H107  213   7.542   5.876   2.461 -0.3936  0.9199 -0.0303
    1CHTO   C58  214   7.795   5.918   2.226  0.7028 -0.2369 -0.4748
    1CHTO  H115  215   7.730   5.885   2.142  0.7760  0.0683 -0.6506
    1CHTO   O37  216   7.924   5.861   2.206 -0.0614 -0.0577 -0.2331
    1CHTO   C59  217   7.947   5.721   2.232  0.1430  0.7220 -0.6286
    1CHTO  H116  218   7.887   5.669   2.159 -0.9295  2.6143 -1.1278
    1CHTO   C70  219   8.092   5.681   2.209  0.5684  0.0514 -0.4014
    1CHTO   O46  220   8.139   5.697   2.076 -0.1483  0.1500 -0.6896
    1CHTO  H103  221   8.231   5.678   2.078 -0.2161 -0.0976  0.8465
    1CHTO   O39  222   7.822   6.072   2.220  0.4083  0.8303  0.4696
    1CHTO   C60  223   7.784   6.150   2.106 -0.5923 -0.1848  0.0457
    1CHTO  H117  224   7.792   6.085   2.019 -1.4488 -0.3234  0.0650
    1CHTO   C62  225   7.639   6.195   2.122  0.6647  0.3025 -0.6606
    1CHTO  H119  226   7.569   6.109   2.118  0.6430  0.3966 -2.9290
    1CHTO   O43  227   7.622   6.255   2.254  0.4047  0.0151 -0.1941
    1CHTO  H101  228   7.532   6.258   2.279  1.5953 -1.3322  4.8916
    1CHTO   C66  229   7.590   6.302   2.010  0.0685  0.1242 -0.6305
    1CHTO  H123  230   7.596   6.255   1.912  0.4869  1.6155 -1.3370
    1CHTO   N12  231   7.449   6.341   2.022 -0.1902 -0.6938  0.3091
    1CHTO  H110  232   7.440   6.398   2.113  1.4487  1.3985 -0.7804
    1CHTO  H111  233   7.426   6.407   1.941  2.1192 -1.0128 -0.6640
    1CHTO   C69  234   7.691   6.422   2.016 -0.7650 -0.0445  0.3361
    1CHTO  H126  235   7.689   6.458   2.121  3.3119  0.0946  0.4743
    1CHTO   O41  236   7.831   6.367   1.987 -0.4756  0.0196 -0.7301
    1CHTO   C64  237   7.880   6.272   2.080  0.4641  0.2326  0.5686
    1CHTO  H121  238   7.892   6.326   2.176  0.6995  0.9622  0.1321
    1CHTO   C71  239   8.005   6.223   2.015 -0.9716 -0.4683 -0.0061
    1CHTO   O47  240   8.084   6.151   2.114 -0.5966 -0.1873  0.1836
    1CHTO  H104  241   8.127   6.212   2.172  0.2516  0.4943 -1.1383
    1CHTO   O34  242   7.665   6.544   1.908  0.2322 -0.3766  0.2634
    1CHTO   C49  243   7.552   6.651   1.895 -0.2115  0.0337  0.4310
    1CHTO   H91  244   7.464   6.597   1.859  1.6736 -1.6756 -1.7698
    1CHTO   C47  245   7.591   6.756   1.794  0.7070 -0.0514 -0.5725
    1CHTO   H89  246   7.496   6.812   1.791  0.4775 -0.1368  2.8801
    1CHTO   O33  247   7.617   6.710   1.665  0.1839 -0.0143 -0.3623
    1CHTO   H70  248   7.696   6.659   1.672  1.0636  1.5777  1.6962
    1CHTO   C45  249   7.711   6.854   1.852 -0.0781  0.0966 -0.4166
    1CHTO   H87  250   7.790   6.785   1.886  1.6750  2.6564  0.8600
    1CHTO    N8  251   7.764   6.955   1.756 -0.4019 -0.0669  0.1115
    1CHTO   H75  252   7.852   6.997   1.802  0.3143 -2.1233  0.6518
    1CHTO   H76  253   7.682   7.022   1.733 -0.8921  0.1383  2.3349
    1CHTO   C43  254   7.655   6.925   1.980  0.9000  0.1571 -0.0189
    1CHTO   H85  255   7.730   6.990   2.026  0.9568  0.8592 -1.0790
    1CHTO   O29  256   7.602   6.829   2.074  0.3868 -0.2016  0.2752
    1CHTO   C50  257   7.519   6.717   2.029 -0.4069 -0.3505  0.1238
    1CHTO   H92  258   7.532   6.640   2.106 -0.0365 -1.2420 -0.8094
    1CHTO   C54  259   7.363   6.747   2.050 -0.4362  0.5460  0.3765
    1CHTO   O36  260   7.285   6.624   2.059 -0.3687 -0.2862 -0.1392
    1CHTO   H72  261   7.232   6.630   1.981 -0.5873 -2.4204 -0.1974
    1CHTO   O27  262   7.549   7.015   1.954 -0.0670  0.0905  0.0416
    1CHTO   C37  263   7.459   7.109   2.018 -0.0114 -0.3538 -0.1514
    1CHTO   H79  264   7.382   7.057   2.077 -0.4920 -0.9152 -1.2491
    1CHTO   C38  265   7.534   7.186   2.132 -0.1278 -0.3313  0.1760
    1CHTO   H80  266   7.626   7.225   2.086  0.1626 -0.7060  0.4302
    1CHTO   O31  267   7.585   7.104   2.235  0.0459 -0.7042 -0.3896
    1CHTO   H68  268   7.638   7.156   2.291 -1.6976  1.7536 -0.9249
    1CHTO   C39  269   7.436   7.297   2.183 -0.1776  0.0997  0.1227
    1CHTO   H81  270   7.356   7.246   2.235  0.6806  1.2170  2.5963
    1CHTO    N7  271   7.504   7.380   2.291 -0.6338  0.5589  0.1158
    1CHTO   H73  272   7.467   7.360   2.390 -1.7233  1.8795 -0.0100
    1CHTO   H74  273   7.610   7.369   2.303 -0.6403  1.7182  1.2931
    1CHTO   C40  274   7.388   7.389   2.067 -0.1105 -0.6535 -0.4851
    1CHTO   H82  275   7.463   7.453   2.021 -0.7186  0.5047  0.1059
    1CHTO   O26  276   7.322   7.303   1.973 -0.1783 -0.4771  0.2581
    1CHTO   C41  277   7.399   7.199   1.907  0.2258 -0.0726 -0.0254
    1CHTO   H83  278   7.476   7.236   1.838  0.6569 -1.9252 -0.5498
    1CHTO   C52  279   7.290   7.121   1.825  0.1609 -0.1887 -0.8354
    1CHTO   O35  280   7.343   7.010   1.757 -0.7051 -0.2998  0.1456
    1CHTO   H71  281   7.290   6.972   1.690  0.4153 -0.8367 -0.4560
    1CHTO   O28  282   7.279   7.474   2.120 -0.3541  0.8327  0.4321
    1CHTO   C42  283   7.271   7.612   2.075 -0.0415 -0.3278 -0.7450
    1CHTO   H84  284   7.296   7.618   1.970  1.9576  3.4840 -0.1187
    1CHTO   C44  285   7.363   7.721   2.147  0.0687  0.6223  0.0617
    1CHTO   H86  286   7.348   7.712   2.255  1.2488  3.5602  0.5057
    1CHTO   O32  287   7.498   7.680   2.118 -0.0697 -0.2161 -0.1663
    1CHTO   H69  288   7.517   7.723   2.036 -1.0649  1.3143  0.3952
    1CHTO   C48  289   7.333   7.873   2.106  0.1269  0.3728  0.0528
    1CHTO   H90  290   7.374   7.876   2.005  1.7280 -0.0441  0.6892
    1CHTO    N9  291   7.418   7.966   2.189  0.0561  0.2224 -0.2578
    1CHTO   H77  292   7.452   8.049   2.128 -0.5483 -1.2303 -2.6422
    1CHTO   H78  293   7.371   8.002   2.279 -0.1816 -0.5892 -0.0544
    1CHTO   C51  294   7.180   7.895   2.126  0.3551 -0.5593  0.9361
    1CHTO   H93  295   7.154   7.880   2.231 -1.6170  0.4504  0.6247
    1CHTO   O30  296   7.110   7.802   2.039  0.0482 -0.1010 -0.0469
    1CHTO   C46  297   7.124   7.660   2.088  0.3286  0.9902 -0.1992
    1CHTO   H88  298   7.092   7.654   2.192  3.5927  0.7650  0.8533
    1CHTO   C53  299   7.038   7.563   1.996  0.6309  0.4943  0.0896
    1CHTO   O72  300   6.905   7.551   2.029  0.3484  0.0428 -0.0529
    1CHTO  H199  301   6.859   7.521   1.953  0.8563  0.3095 -0.4693
    1CHTO   O22  302   7.124   8.022   2.082  0.7526  0.2231  0.4938
    1CHTO   C31  303   7.091   8.094   1.955 -0.7071  0.3619 -0.2798
    1CHTO   H59  304   7.051   8.191   1.989  1.6543  1.3659 -0.2763
    1CHTO   C29  305   7.209   8.124   1.857  0.5292 -0.7617  0.3280
    1CHTO   H57  306   7.243   8.024   1.825  0.0342 -0.6620 -0.5329
    1CHTO   O21  307   7.311   8.200   1.922 -0.5273 -0.4765 -0.0982
    1CHTO   H37  308   7.389   8.155   1.948 -0.3473  0.9101  1.9352
    1CHTO   C27  309   7.153   8.204   1.733  0.9060  0.0925 -0.3410
    1CHTO   H55  310   7.100   8.292   1.771 -0.1888 -0.2774 -0.9816
    1CHTO    N5  311   7.257   8.247   1.638  0.8838  0.3280 -0.4730
    1CHTO   H43  312   7.253   8.188   1.548  0.0260  0.8439 -0.7754
    1CHTO   H44  313   7.353   8.232   1.685  1.2433  0.3678 -1.1963
    1CHTO   C25  314   7.048   8.119   1.660  0.0778 -0.1922 -0.1696
    1CHTO   H53  315   7.097   8.028   1.624  2.8384  1.0266  0.3781
    1CHTO   O17  316   6.938   8.092   1.753  0.2150 -0.0523  0.0807
    1CHTO   C32  317   6.975   8.024   1.873  0.4659  0.4856 -0.2631
    1CHTO   H60  318   7.008   7.927   1.837  2.5397  0.8487  0.6041
    1CHTO   C36  319   6.852   8.000   1.967  0.2756 -0.7340 -0.1801
    1CHTO   O25  320   6.761   7.917   1.896  0.1482  1.1390  0.2489
    1CHTO   H40  321   6.708   7.869   1.956 -1.4221  1.7823 -0.6182
    1CHTO   O15  322   6.968   8.182   1.533 -0.3794 -0.1420 -0.2879
    1CHTO   C19  323   6.908   8.142   1.407  0.4404  0.2093  0.0071
    1CHTO   H47  324   6.800   8.145   1.425  0.4664  1.4882 -0.0319
    1CHTO   C20  325   6.933   8.244   1.292 -0.3716  1.0680 -0.1887
    1CHTO   H48  326   7.040   8.257   1.271 -0.4949  1.0279 -0.8347
    1CHTO   O19  327   6.873   8.370   1.327  0.2608  0.0083  0.4178
    1CHTO   H35  328   6.946   8.428   1.340  1.4684 -1.4119  0.1140
    1CHTO   C21  329   6.859   8.195   1.155  0.1108 -0.7889 -0.0410
    1CHTO   H49  330   6.753   8.184   1.176 -0.0952  0.9070 -0.0684
    1CHTO    N4  331   6.888   8.282   1.037 -0.0676 -0.2011 -0.3049
    1CHTO   H41  332   6.986   8.269   0.994 -0.2672 -2.3892 -0.1451
    1CHTO   H42  333   6.814   8.289   0.959  0.1157  1.8272 -0.3360
    1CHTO   C22  334   6.911   8.051   1.123  0.1599 -0.2589 -0.6734
    1CHTO   H50  335   7.016   8.054   1.095  0.8390  0.4019  1.7960
    1CHTO   O14  336   6.878   7.976   1.246  0.2402 -0.0265  0.9443
    1CHTO   C23  337   6.940   7.995   1.369  0.6290 -0.8746  0.1397
    1CHTO   H51  338   7.047   7.979   1.351  0.7394 -0.1168  0.1056
    1CHTO   C34  339   6.876   7.887   1.458  0.2222  0.0907  0.9636
    1CHTO   O23  340   6.931   7.761   1.423  0.4500  0.0570  0.3676
    1CHTO   H38  341   6.909   7.696   1.487 -1.4086  0.0125 -0.2646
    1CHTO   O16  342   6.833   7.982   1.020 -0.0100 -0.3410  0.3294
    1CHTO   C24  343   6.916   7.865   0.923  0.2866  0.0764 -0.1590
    1CHTO   H52  344   7.023   7.866   0.942  0.7859  0.2247 -2.8806
    1CHTO   C26  345   6.894   7.903   0.776 -0.3116  0.0677  0.8977
    1CHTO   H54  346   6.786   7.920   0.756  0.1918 -0.2955 -2.5219
    1CHTO   O20  347   6.973   8.022   0.742  0.6056  0.2521 -0.0446
    1CHTO   H36  348   6.944   8.093   0.796 -0.4045 -0.6855  0.6775
    1CHTO   C30  349   6.932   7.784   0.678 -0.0166  0.0544 -0.1301
    1CHTO   H58  350   7.038   7.781   0.650  0.0124 -0.2850  0.0127
    1CHTO    N6  351   6.869   7.801   0.548 -0.8896 -0.1241  0.6814
    1CHTO   H45  352   6.937   7.759   0.475  0.3346 -0.6678  2.1082
    1CHTO   H46  353   6.853   7.906   0.525  0.4153 -0.2634 -0.9626
    1CHTO   C33  354   6.895   7.645   0.735  0.0338 -0.0165 -0.0868
    1CHTO   H61  355   6.786   7.630   0.732  0.2564 -1.3635 -2.3010
    1CHTO   O18  356   6.928   7.642   0.875 -0.2275 -0.7727 -0.0343
    1CHTO   C28  357   6.864   7.731   0.965 -0.0668 -0.0055  0.7312
    1CHTO   H56  358   6.755   7.726   0.958  0.0433 -1.0952 -0.3910
    1CHTO   C35  359   6.906   7.681   1.106 -0.7884  0.0026  0.2352
    1CHTO   O24  360   6.833   7.566   1.145 -0.3732  1.0435  0.3938
    1CHTO   H39  361   6.751   7.585   1.187 -1.1201 -1.9680  0.4163
    1CHTO    O9  362   6.964   7.537   0.664  0.3465  0.2723  0.3499
    1CHTO   C13  363   6.907   7.385   0.676  1.0642  0.0780 -0.3724
    1CHTO   H26  364   6.800   7.414   0.689  1.0753  1.7894 -3.6001
    1CHTO   C11  365   6.964   7.304   0.797 -1.2668 -0.1184 -0.3860
    1CHTO   H24  366   6.947   7.366   0.886 -2.3223 -0.7911 -0.1183
    1CHTO    O8  367   7.108   7.299   0.793 -0.2426  0.4170  0.1761
    1CHTO    H3  368   7.141   7.231   0.737  0.9859  2.2165 -1.3372
    1CHTO    C9  369   6.897   7.166   0.801  0.3101  0.2895  0.0584
    1CHTO   H22  370   6.789   7.184   0.788  0.4917  1.9842  0.7347
    1CHTO    N2  371   6.911   7.093   0.932 -0.1005  0.4458  0.1540
    1CHTO   H10  372   6.883   7.157   1.015  2.9249 -1.4756  2.7782
    1CHTO   H11  373   7.013   7.065   0.955  0.0645 -0.1503 -1.3100
    1CHTO    C7  374   6.951   7.081   0.674  0.4883  0.1954  0.7871
    1CHTO   H20  375   6.893   6.986   0.676  2.1215 -0.8631 -0.5905
    1CHTO    O4  376   6.920   7.156   0.555  0.5880  0.1007  0.6614
    1CHTO   C14  377   6.921   7.302   0.542  0.5820 -0.2100  0.1662
    1CHTO   H27  378   6.823   7.328   0.496  1.4819  0.1187 -1.6280
    1CHTO   C18  379   7.034   7.349   0.440  0.1784  0.3259 -0.0991
    1CHTO   O13  380   7.033   7.257   0.334 -0.9059 -0.0690 -0.3572
    1CHTO    H7  381   7.078   7.281   0.256  0.2902 -1.7023 -0.2002
    1CHTO    O2  382   7.101   7.045   0.678  0.7949  0.0905 -0.5923
    1CHTO    C1  383   7.143   6.905   0.658  1.1331  0.0368 -0.3664
    1CHTO   H14  384   7.055   6.841   0.636  0.0071  1.3211  0.3373
    1CHTO    C2  385   7.211   6.850   0.793 -0.2413  0.7378  0.0535
    1CHTO   H15  386   7.293   6.918   0.820 -0.9964  1.7684 -0.2343
    1CHTO    O6  387   7.115   6.825   0.898 -0.7655  0.1799  0.0486
    1CHTO    H1  388   7.150   6.803   0.982  2.4778  1.5878 -0.8612
    1CHTO    C3  389   7.292   6.710   0.761  0.0736 -0.0941 -0.0265
    1CHTO   H16  390   7.216   6.632   0.745  1.0454 -1.0439 -0.0616
    1CHTO    N1  391   7.374   6.654   0.871  0.3626 -0.1751 -0.4660
    1CHTO    H8  392   7.357   6.694   0.971 -2.0748  2.2684 -1.7888
    1CHTO    H9  393   7.479   6.633   0.854  0.2359  0.3946 -2.0549
    1CHTO    C4  394   7.371   6.715   0.624 -0.0347  0.1787  0.0522
    1CHTO   H17  395   7.464   6.768   0.642 -1.1498  2.7626 -1.4858
    1CHTO    O1  396   7.302   6.775   0.512 -0.1445  0.1699 -0.4222
    1CHTO    C5  397   7.247   6.905   0.533  0.3611 -0.1640  0.2561
    1CHTO   H18  398   7.333   6.969   0.553  0.4894 -0.7247  1.5852
    1CHTO   C16  399   7.178   6.950   0.400 -0.9013  0.0584 -0.2203
    1CHTO   O11  400   7.079   6.853   0.373 -0.0845  0.2850 -0.2349
    1CHTO    H5  401   7.101   6.779   0.320 -0.9789 -0.0555 -0.1474
    1CHTO    O3  402   7.399   6.579   0.573  0.2839  0.1286  0.1772
    1CHTO    C6  403   7.516   6.569   0.480 -0.2627 -0.1420 -0.6292
    1CHTO   H19  404   7.551   6.662   0.435 -0.6905 -0.4632 -1.6359
    1CHTO    C8  405   7.645   6.516   0.551 -0.2902 -0.7702 -0.3415
    1CHTO   H21  406   7.618   6.423   0.599 -0.5823  0.2558  1.5200
    1CHTO    O7  407   7.691   6.611   0.654 -0.1336 -0.0230 -0.0499
    1CHTO    H2  408   7.734   6.685   0.615 -0.9499  0.8790  0.7270
    1CHTO   C12  409   7.765   6.498   0.449 -0.0824  0.3644 -0.0385
    1CHTO   H25  410   7.804   6.600   0.427  1.0985 -0.3635 -1.4637
    1CHTO    N3  411   7.890   6.423   0.502  0.5587  0.1081 -0.1557
    1CHTO   H12  412   7.958   6.420   0.418  0.6284 -0.8763 -0.0785
    1CHTO   H13  413   7.876   6.331   0.557 -3.2090  0.9757  0.4901
    1CHTO   C15  414   7.713   6.423   0.321  0.6700 -0.4358 -0.2675
    1CHTO   H28  415   7.702   6.320   0.355  1.0550 -1.5376 -3.2762
    1CHTO   O10  416   7.796   6.432   0.201 -0.3511  0.5843 -0.0182
    1CHTO    H4  417   7.805   6.355   0.149  2.2580 -0.3532  1.7290
    1CHTO    O5  418   7.586   6.475   0.262  0.3371  0.0185 -0.2719
    1CHTO   C10  419   7.483   6.470   0.365  0.6634  0.6814 -0.0436
    1CHTO   H23  420   7.480   6.368   0.402 -0.6043  0.2178 -1.3807
    1CHTO   C17  421   7.350   6.493   0.298 -0.1881 -0.0996 -0.1305
    1CHTO   O12  422   7.341   6.624   0.242  0.8374 -0.6259 -0.1518
    1CHTO    H6  423   7.397   6.649   0.171  1.4570 -2.1984 -0.2399
    2CHTO  H203  424   6.723   4.525   2.118  1.4977 -0.0572 -0.5105
    2CHTO   O82  425   6.730   4.613   2.148 -0.0029 -0.1368  0.1078
    2CHTO  C123  426   6.600   4.680   2.148 -0.6576 -0.1951  0.8562
    2CHTO  H227  427   6.620   4.787   2.161 -0.0867 -0.3033  0.8782
    2CHTO   O77  428   6.535   4.648   2.017  0.4166  0.1701 -0.4120
    2CHTO  C118  429   6.420   4.718   1.976  1.0840  0.2910 -0.4395
    2CHTO  H222  430   6.450   4.823   1.977  2.9040 -0.2256  0.0018
    2CHTO  C125  431   6.376   4.676   1.826 -0.1988  0.1521 -0.9600
    2CHTO   O84  432   6.293   4.774   1.763  0.3901 -0.6999 -0.1162
    2CHTO  H205  433   6.301   4.783   1.670 -1.6548 -1.6741 -0.4210
    2CHTO  C114  434   6.307   4.690   2.074  0.2220  0.8146  0.4276
    2CHTO  H218  435   6.262   4.593   2.053  0.1714  1.0348 -0.5187
    2CHTO  C116  436   6.353   4.703   2.224  0.7166  0.8422 -0.2384
    2CHTO  H220  437   6.363   4.809   2.253 -1.6759  0.0637  3.7043
    2CHTO   O79  438   6.229   4.664   2.292 -0.0707 -0.6713 -0.3236
    2CHTO  H201  439   6.248   4.635   2.380 -1.1889 -0.1498  0.0902
    2CHTO  C120  440   6.493   4.631   2.259 -0.6429 -0.1285 -0.4950
    2CHTO  H224  441   6.488   4.521   2.240 -0.6489  0.2955 -3.0272
    2CHTO   N21  442   6.528   4.656   2.398  0.7415  0.6479 -0.8892
    2CHTO  H211  443   6.632   4.662   2.424  0.1958  0.0322  1.5764
    2CHTO  H212  444   6.472   4.739   2.439  0.9214 -0.2519  1.2547
    2CHTO   O75  445   6.217   4.793   2.032  0.2568  0.0296  0.3474
    2CHTO  C112  446   6.062   4.737   2.038  0.0802  0.1467 -0.0943
    2CHTO  H216  447   6.053   4.673   2.127  0.5874 -0.5165 -0.5138
    2CHTO   O73  448   6.041   4.659   1.917 -0.6731 -0.8598  0.2757
    2CHTO  C113  449   5.917   4.589   1.903 -0.4914  0.1656  0.8165
    2CHTO  H217  450   5.914   4.527   1.995  1.2870  0.4122  1.0562
    2CHTO  C124  451   5.923   4.490   1.785 -0.1481 -0.0447  0.3126
    2CHTO   O83  452   5.978   4.541   1.664 -0.0345  0.1546  0.2871
    2CHTO  H204  453   5.931   4.521   1.585  3.4257  0.5724 -2.0045
    2CHTO  C109  454   5.794   4.681   1.902  0.5378  0.3695 -0.5974
    2CHTO  H213  455   5.789   4.726   1.802  1.2647 -0.1385 -0.8696
    2CHTO  C110  456   5.807   4.790   2.022  0.2667  0.4844  0.2141
    2CHTO  H214  457   5.790   4.725   2.108 -2.4677 -0.7188 -1.1750
    2CHTO   O78  458   5.711   4.898   2.005  0.1044  0.0616  0.6207
    2CHTO  H200  459   5.638   4.872   1.951 -1.0474  2.9957  0.7038
    2CHTO  C111  460   5.953   4.849   2.032  0.7147  0.9298  1.0278
    2CHTO  H215  461   5.980   4.910   1.945  0.4138 -0.1472  0.1853
    2CHTO   N19  462   5.974   4.935   2.153  0.1744 -0.0231  0.4371
    2CHTO  H207  463   5.878   4.961   2.193  0.2422  0.4572  0.2877
    2CHTO  H208  464   6.046   5.014   2.140 -1.0131  1.3002  1.8338
    2CHTO   O74  465   5.674   4.604   1.922 -0.3872  0.2657 -0.3950
    2CHTO  C115  466   5.548   4.647   1.820 -0.2811 -0.0252 -0.0916
    2CHTO  H219  467   5.558   4.750   1.784  1.2297 -0.6397 -1.5018
    2CHTO   O76  468   5.546   4.553   1.674  0.2708  0.1974 -0.0702
    2CHTO  C122  469   5.451   4.449   1.680  0.2854 -0.3156 -0.2779
    2CHTO  H226  470   5.490   4.392   1.764  1.8914 -0.9879 -1.4441
    2CHTO  C126  471   5.469   4.359   1.558  0.6594 -0.8765 -0.1265
    2CHTO   O85  472   5.368   4.257   1.549  0.7389 -0.3086  0.1179
    2CHTO  H206  473   5.413   4.176   1.560  1.6268  0.3704  1.7049
    2CHTO  C121  474   5.302   4.508   1.691 -0.4573  0.4921  0.2076
    2CHTO  H225  475   5.256   4.542   1.596 -1.2938  1.4283  0.9338
    2CHTO   O81  476   5.215   4.405   1.748 -0.6347 -0.3691 -0.1087
    2CHTO  H202  477   5.223   4.326   1.700 -0.7922  0.1569 -1.0169
    2CHTO  C119  478   5.296   4.637   1.791  0.3059  0.3439 -0.8318
    2CHTO  H223  479   5.325   4.719   1.726 -0.7400  1.2182 -0.2130
    2CHTO  C117  480   5.412   4.629   1.897  0.2448 -0.2413 -0.1036
    2CHTO  H221  481   5.434   4.539   1.955 -1.6713  0.2308  1.3743
    2CHTO   N20  482   5.398   4.742   1.999 -0.1748  0.4531  0.3690
    2CHTO  H209  483   5.491   4.773   2.044 -0.0104  0.1745  0.2250
    2CHTO  H210  484   5.320   4.708   2.065 -0.7490  0.0189 -0.5310
    2CHTO   O80  485   5.137   4.681   1.833  0.1656  0.0078  0.0599
    2CHTO  C103  486   5.064   4.803   1.758 -0.7774 -0.1168 -0.2506
    2CHTO  H190  487   5.136   4.876   1.721 -1.4257  0.8422  0.3686
    2CHTO  C101  488   4.972   4.768   1.639  0.2048  0.4479  0.1337
    2CHTO  H188  489   4.904   4.691   1.672  1.1496 -0.9944 -1.2070
    2CHTO   O68  490   5.064   4.690   1.524 -0.3430 -0.0423  0.5142
    2CHTO  H168  491   5.011   4.676   1.447  0.9471 -1.4784 -0.1323
    2CHTO   C99  492   4.893   4.907   1.596 -0.0588 -0.7097 -0.4300
    2CHTO  H186  493   4.961   4.985   1.558 -0.3101 -0.1958  0.1666
    2CHTO   N17  494   4.794   4.880   1.485  0.1882  0.2908 -0.9389
    2CHTO  H174  495   4.717   4.955   1.493 -1.0158 -1.0803  0.5352
    2CHTO  H175  496   4.850   4.883   1.393 -0.7100  1.4133 -1.4564
    2CHTO   C97  497   4.823   4.971   1.723 -0.0739 -0.5807  0.3203
    2CHTO  H184  498   4.748   4.900   1.761  0.6599 -1.3349  0.3882
    2CHTO   O64  499   4.921   5.002   1.820 -0.4242  0.1553 -0.7803
    2CHTO  C104  500   4.976   4.878   1.870  0.2921 -0.1922  0.1886
    2CHTO  H191  501   4.895   4.810   1.895  1.0153 -2.0679 -2.3270
    2CHTO  C108  502   5.048   4.914   1.997 -0.2026  0.1389 -0.6944
    2CHTO   O71  503   4.951   4.945   2.095  0.1674  0.5558  0.3872
    2CHTO  H171  504   4.938   5.038   2.101  0.2393  0.6552 -0.8928
    2CHTO   O62  505   4.782   5.110   1.701  0.8016 -0.3807  0.1138
    2CHTO   C91  506   4.648   5.129   1.751  0.1485 -0.5074 -0.5277
    2CHTO  H178  507   4.608   5.045   1.807 -0.7338  1.5820  2.1423
    2CHTO   C92  508   4.558   5.144   1.626 -0.8971  0.5174 -0.1584
    2CHTO  H179  509   4.585   5.067   1.553  0.3805  1.8610 -1.1335
    2CHTO   O66  510   4.420   5.120   1.663 -0.2051  0.3067  0.2328
    2CHTO  H166  511   4.408   5.086   1.750 -0.7937  0.1410  0.0914
    2CHTO   C93  512   4.554   5.293   1.569 -0.5072 -0.4173  0.4804
    2CHTO  H180  513   4.469   5.288   1.500  0.8476  0.9679 -1.3551
    2CHTO   N16  514   4.664   5.325   1.482 -0.2394  0.7880  0.2449
    2CHTO  H172  515   4.752   5.336   1.543 -1.2408  1.2949  1.6480
    2CHTO  H173  516   4.645   5.407   1.414 -0.5302 -0.2188 -0.8891
    2CHTO   C94  517   4.530   5.397   1.684  0.2282  0.3238 -0.4344
    2CHTO  H181  518   4.614   5.464   1.698  0.1163  0.5728 -0.9408
    2CHTO   O61  519   4.520   5.339   1.815 -0.4180  0.3942 -0.7396
    2CHTO   C95  520   4.631   5.253   1.847 -0.2049  0.0202 -0.9303
    2CHTO  H182  521   4.722   5.313   1.842 -0.7475  1.3352  2.8509
    2CHTO  C106  522   4.598   5.204   1.991  0.1011 -0.3531 -0.0433
    2CHTO   O69  523   4.696   5.108   2.032  0.5338  0.1495 -0.2106
    2CHTO  H169  524   4.671   5.024   1.997  0.7936  0.0622 -0.1881
    2CHTO   O63  525   4.409   5.469   1.651 -0.4759  0.4407 -0.8778
    2CHTO   C96  526   4.404   5.614   1.706  0.5398  0.4083 -0.3263
    2CHTO  H183  527   4.506   5.644   1.729  0.3700 -0.4002  1.5976
    2CHTO   C98  528   4.300   5.632   1.828  0.1940 -0.3450 -0.0695
    2CHTO  H185  529   4.200   5.592   1.806  0.8655 -1.6859 -0.6747
    2CHTO   O67  530   4.336   5.558   1.948  0.1337 -0.6004  0.2588
    2CHTO  H167  531   4.413   5.585   1.995 -0.4940 -0.3925  1.1747
    2CHTO  C102  532   4.286   5.797   1.860  0.2484  0.6122  0.0772
    2CHTO  H189  533   4.384   5.826   1.900  0.0643  2.0683 -0.5164
    2CHTO   N18  534   4.192   5.841   1.961  0.0371 -0.2119  0.3574
    2CHTO  H176  535   4.244   5.891   2.042 -2.1862 -0.8579  2.2394
    2CHTO  H177  536   4.125   5.766   2.001 -0.3081  1.5984  3.3834
    2CHTO  C105  537   4.262   5.879   1.728  0.1771 -0.0124  0.0302
    2CHTO  H192  538   4.159   5.863   1.697  0.1314 -1.3705  0.8484
    2CHTO   O65  539   4.346   5.843   1.616  0.1207  0.2065  0.3061
    2CHTO  C100  540   4.361   5.705   1.591  0.4292  0.1959 -0.2162
    2CHTO  H187  541   4.268   5.664   1.549  0.8304 -2.1957  1.0962
    2CHTO  C107  542   4.469   5.691   1.479  0.6070 -0.1535  0.5467
    2CHTO   O70  543   4.443   5.773   1.359  0.0236 -0.3290  0.4043
    2CHTO  H170  544   4.396   5.850   1.383 -0.4942 -0.8831  1.1576
    2CHTO   O57  545   4.297   6.031   1.759  0.5595 -0.0894 -0.0236
    2CHTO   C85  546   4.256   6.123   1.660 -0.1819 -0.7076 -0.2602
    2CHTO  H157  547   4.158   6.087   1.623 -1.3355  1.2806  0.7319
    2CHTO   C83  548   4.352   6.142   1.540 -0.2859  0.0342  0.3394
    2CHTO  H155  549   4.353   6.046   1.489  2.6262  1.2159 -1.9876
    2CHTO   O56  550   4.483   6.163   1.587  0.2338 -0.0355 -0.6842
    2CHTO  H135  551   4.511   6.083   1.628 -1.5606  0.1345  0.9237
    2CHTO   C81  552   4.285   6.245   1.445 -0.0030  0.9169  0.3336
    2CHTO  H153  553   4.182   6.214   1.428  0.0908  0.2768  0.9216
    2CHTO   N14  554   4.346   6.252   1.308 -0.6059  0.1588  0.0141
    2CHTO  H141  555   4.277   6.299   1.242  0.0730 -1.0148 -1.5568
    2CHTO  H142  556   4.434   6.313   1.312 -1.2372  1.1094 -0.5217
    2CHTO   C79  557   4.287   6.391   1.518  0.8384  0.6521  0.6590
    2CHTO  H151  558   4.241   6.459   1.447  1.3882 -1.7087 -2.0481
    2CHTO   O52  559   4.203   6.380   1.638  0.0663 -0.1882  0.2245
    2CHTO   C86  560   4.242   6.272   1.727  0.4697  0.7873 -0.1863
    2CHTO  H158  561   4.340   6.309   1.765 -0.6158  3.5997  0.0532
    2CHTO   C90  562   4.142   6.269   1.855 -0.9368  0.0736 -0.4455
    2CHTO   O60  563   4.156   6.396   1.918 -0.6370  0.2613 -0.4713
    2CHTO  H138  564   4.098   6.397   1.991  0.6594 -2.1374  0.6433
    2CHTO   O50  565   4.424   6.434   1.542  0.3057  0.3046  0.7430
    2CHTO   C73  566   4.488   6.543   1.605 -0.0108 -0.2487 -0.1820
    2CHTO  H145  567   4.420   6.595   1.674  0.1746  0.5035 -0.5598
    2CHTO   C74  568   4.533   6.641   1.488  0.7789  0.1109  0.1366
    2CHTO  H146  569   4.445   6.672   1.430  1.1863  0.3360 -0.3613
    2CHTO   O54  570   4.587   6.760   1.545  0.3198 -0.1854  0.1353
    2CHTO  H133  571   4.665   6.790   1.503 -0.6295  3.1036  0.5668
    2CHTO   C75  572   4.633   6.561   1.398 -0.1046 -0.2593  0.3678
    2CHTO  H147  573   4.577   6.485   1.341  1.1300  0.3545 -1.7221
    2CHTO   N13  574   4.695   6.642   1.286  0.0238 -0.4146  0.1044
    2CHTO  H139  575   4.634   6.729   1.267 -0.9828 -0.7492  1.7232
    2CHTO  H140  576   4.791   6.680   1.320  0.4754 -1.4113 -0.0354
    2CHTO   C76  577   4.749   6.488   1.487  0.5569 -0.5559  0.7463
    2CHTO  H148  578   4.825   6.560   1.520 -1.0309  1.6405 -0.2289
    2CHTO   O49  579   4.694   6.413   1.594 -0.2724 -0.4798 -0.5256
    2CHTO   C77  580   4.613   6.490   1.686  0.4437 -0.3217  0.5245
    2CHTO  H149  581   4.671   6.574   1.724  1.3788  0.8289 -3.2032
    2CHTO   C88  582   4.576   6.412   1.812  0.1606  0.0519 -0.3556
    2CHTO   O58  583   4.501   6.503   1.912 -0.2989 -0.1503 -0.1012
    2CHTO  H136  584   4.544   6.586   1.915 -1.1970  0.5788 -4.0970
    2CHTO   O51  585   4.824   6.371   1.395 -0.0099 -0.3017 -0.1694
    2CHTO   C78  586   4.897   6.282   1.468 -0.2317 -0.4290  0.6451
    2CHTO  H150  587   4.858   6.272   1.571  1.7105 -0.2886  1.4133
    2CHTO   C80  588   5.054   6.309   1.466 -0.1114  0.1258  0.6468
    2CHTO  H152  589   5.095   6.301   1.363 -1.6277  3.1231 -0.2472
    2CHTO   O55  590   5.067   6.450   1.507  0.6887 -0.0560  0.2941
    2CHTO  H134  591   5.154   6.480   1.486  1.7079 -3.1737 -0.2228
    2CHTO   C84  592   5.126   6.197   1.563 -0.1514 -0.1011  0.1520
    2CHTO  H156  593   5.084   6.202   1.664  0.5237 -0.4741  0.4577
    2CHTO   N15  594   5.279   6.219   1.577  0.0124  0.3634 -0.0775
    2CHTO  H143  595   5.301   6.318   1.611 -0.8286  1.3101 -2.2220
    2CHTO  H144  596   5.343   6.196   1.494  0.2990 -1.7806  0.6939
    2CHTO   C87  597   5.095   6.061   1.505 -0.2319 -0.3336 -0.3910
    2CHTO  H159  598   5.141   6.057   1.406  0.2794  1.0707 -0.2252
    2CHTO   O53  599   4.942   6.049   1.500 -0.1639 -0.2657 -0.6812
    2CHTO   C82  600   4.880   6.141   1.405 -0.5596  0.3104  0.2098
    2CHTO  H154  601   4.922   6.136   1.304 -1.0829 -0.7145  0.0322
    2CHTO   C89  602   4.732   6.102   1.392  1.3660  0.0861  0.1093
    2CHTO   O59  603   4.729   5.966   1.345 -0.4534  0.2627  0.2855
    2CHTO  H137  604   4.807   5.917   1.361  0.2674  2.0175  2.3873
    2CHTO   O45  605   5.168   5.929   1.598  0.2199  0.4811  0.2830
    2CHTO   C67  606   5.078   5.865   1.686 -0.0858 -0.4608 -0.4019
    2CHTO  H124  607   4.997   5.934   1.707  1.3479  1.4347 -0.9413
    2CHTO   C65  608   5.025   5.734   1.631  0.7402 -0.1915  0.1940
    2CHTO  H122  609   5.102   5.712   1.557  0.9862 -0.6726  0.5883
    2CHTO   O44  610   4.898   5.776   1.578 -0.6986  0.1060 -0.3345
    2CHTO  H102  611   4.905   5.790   1.486  1.4365 -0.6112 -0.3232
    2CHTO   C63  612   5.040   5.614   1.730  0.3920 -0.5220 -0.3139
    2CHTO  H120  613   5.145   5.586   1.733  0.7002  0.6433  0.2105
    2CHTO   N11  614   4.969   5.487   1.693  0.0752 -1.3804  0.1043
    2CHTO  H108  615   4.892   5.524   1.628  2.7068  0.6905 -1.9691
    2CHTO  H109  616   5.043   5.426   1.645  0.3090 -0.4627 -0.7282
    2CHTO   C61  617   5.001   5.661   1.874  0.0952  0.1220 -0.0607
    2CHTO  H118  618   5.022   5.576   1.940  2.2624 -0.3164 -1.2558
    2CHTO   O40  619   5.082   5.766   1.924  0.1002  0.3494  0.1918
    2CHTO   C68  620   5.163   5.846   1.822  0.0145  0.1528 -0.1103
    2CHTO  H125  621   5.253   5.784   1.801  2.6364  3.4855  0.9110
    2CHTO   C72  622   5.214   5.983   1.885 -0.1154  0.0144  0.3115
    2CHTO   O48  623   5.108   6.073   1.910  0.4187 -0.1411  0.0578
    2CHTO  H105  624   5.148   6.149   1.948  0.1171 -1.1710  2.5358
    2CHTO   O38  625   4.861   5.691   1.888 -0.5650 -1.2257  0.0871
    2CHTO   C55  626   4.801   5.716   2.015  0.0716 -0.4725  0.1554
    2CHTO  H112  627   4.877   5.761   2.081 -0.0185 -0.3598  0.1804
    2CHTO   C56  628   4.738   5.582   2.077  0.6228 -0.9686  0.1535
    2CHTO  H113  629   4.686   5.525   1.999 -2.1425  1.8228 -0.1385
    2CHTO   O42  630   4.856   5.505   2.117  0.3681  0.6269  0.2968
    2CHTO  H100  631   4.910   5.553   2.177 -1.1624  1.0825  1.3428
    2CHTO   C57  632   4.650   5.609   2.208 -0.4836  0.4536 -0.0447
    2CHTO  H114  633   4.719   5.637   2.288 -0.5785 -1.0537  0.5888
    2CHTO   N10  634   4.585   5.488   2.251 -0.6530 -0.5467 -0.2291
    2CHTO  H106  635   4.636   5.453   2.340  1.7857 -0.0574 -1.3887
    2CHTO  H107  636   4.489   5.523   2.286  0.0223 -0.7849  1.9456
    2CHTO   C58  637   4.554   5.731   2.182  0.3574 -0.0174  0.8350
    2CHTO  H115  638   4.477   5.703   2.106  1.9587  0.3674 -0.9668
    2CHTO   O37  639   4.630   5.842   2.130  0.1122  0.1957  0.2613
    2CHTO   C59  640   4.691   5.824   2.000  0.3393 -0.1290  0.7636
    2CHTO  H116  641   4.611   5.801   1.929 -0.2487 -1.7579  1.9342
    2CHTO   C70  642   4.746   5.966   1.967  0.3189 -0.2117  0.1861
    2CHTO   O46  643   4.821   5.981   1.846  0.0291  0.3266 -0.6366
    2CHTO  H103  644   4.788   5.923   1.780 -1.5687  0.9235 -0.3712
    2CHTO   O39  645   4.502   5.777   2.323  0.1063  0.0461  0.0303
    2CHTO   C60  646   4.366   5.818   2.321 -0.3686 -0.1814  0.8226
    2CHTO  H117  647   4.325   5.845   2.224 -0.5205  1.4571  1.3269
    2CHTO   C62  648   4.276   5.709   2.376 -0.1974  0.3466  0.6577
    2CHTO  H119  649   4.279   5.619   2.311  1.8135  1.5328 -0.9558
    2CHTO   O43  650   4.317   5.655   2.508 -0.0239 -0.5429 -0.0827
    2CHTO  H101  651   4.409   5.662   2.522  0.0962  0.3820 -1.2539
    2CHTO   C66  652   4.127   5.772   2.374 -0.3837  0.8881 -0.5532
    2CHTO  H123  653   4.103   5.808   2.273  0.8811 -0.1794 -1.2510
    2CHTO   N12  654   4.025   5.669   2.396 -0.0796  0.0859 -0.1539
    2CHTO  H110  655   4.026   5.634   2.499 -0.4950  2.3909  0.6610
    2CHTO  H111  656   3.932   5.718   2.371  0.2465  1.0574  0.5079
    2CHTO   C69  657   4.116   5.893   2.463 -0.1435 -0.8496 -0.1978
    2CHTO  H126  658   4.139   5.871   2.569  1.3824 -0.1483 -0.3615
    2CHTO   O41  659   4.231   6.002   2.402 -0.6337  0.4605  0.1200
    2CHTO   C64  660   4.359   5.945   2.411 -0.2545  0.3945  0.5015
    2CHTO  H121  661   4.373   5.906   2.514 -1.7069 -2.4512 -0.3387
    2CHTO   C71  662   4.468   6.058   2.387 -0.0723  0.0950 -0.3571
    2CHTO   O47  663   4.448   6.133   2.263 -0.4228  0.0617 -0.1639
    2CHTO  H104  664   4.399   6.074   2.209  0.3734 -0.1772 -0.6264
    2CHTO   O34  665   3.969   5.961   2.459  0.5199  0.0531 -0.3397
    2CHTO   C49  666   3.894   6.072   2.479  0.4102  0.5251  0.5098
    2CHTO   H91  667   3.878   6.070   2.587  0.5427  0.6112  0.5311
    2CHTO   C47  668   3.762   6.049   2.402  0.3707  0.9015  0.2607
    2CHTO   H89  669   3.702   6.139   2.426 -0.3940  1.0090 -1.9376
    2CHTO   O33  670   3.688   5.936   2.451 -0.4107  0.4167  0.1451
    2CHTO   H70  671   3.602   5.935   2.412 -1.7498 -0.8461  2.9928
    2CHTO   C45  672   3.781   6.060   2.246 -0.5387 -0.1047  0.7379
    2CHTO   H87  673   3.851   5.979   2.223 -0.1279  0.3471  0.3966
    2CHTO    N8  674   3.657   6.042   2.166  0.2027 -0.0982  0.6398
    2CHTO   H75  675   3.603   5.956   2.205  1.7288 -2.0540 -1.3975
    2CHTO   H76  676   3.590   6.124   2.187 -0.7061 -0.1542 -1.8714
    2CHTO   C43  677   3.855   6.205   2.213 -0.6047 -0.6777  0.6017
    2CHTO   H85  678   3.878   6.196   2.107  2.4503 -0.0007  1.1447
    2CHTO   O29  679   3.975   6.220   2.291 -0.1192  0.3170 -0.3403
    2CHTO   C50  680   3.966   6.205   2.433 -0.3136  0.2175 -0.6152
    2CHTO   H92  681   4.072   6.202   2.463  0.0471 -1.1018 -1.9509
    2CHTO   C54  682   3.910   6.329   2.505 -0.3407  0.1982  0.2650
    2CHTO   O36  683   3.997   6.446   2.481  0.6898  0.3471  0.5541
    2CHTO   H72  684   3.983   6.510   2.548 -0.7137  0.7664 -0.1368
    2CHTO   O27  685   3.768   6.316   2.220 -0.0352  0.3985  0.6761
    2CHTO   C37  686   3.716   6.429   2.151  0.3623  0.3918  0.3643
    2CHTO   H79  687   3.736   6.422   2.043 -1.3154  0.1934  0.0472
    2CHTO   C38  688   3.561   6.433   2.155  0.4280 -0.0285 -0.2136
    2CHTO   H80  689   3.527   6.412   2.258 -1.1044 -0.5758 -0.8225
    2CHTO   O31  690   3.520   6.324   2.066 -0.2189 -0.4590 -1.0707
    2CHTO   H68  691   3.429   6.302   2.060 -0.7337  1.3647 -0.4112
    2CHTO   C39  692   3.493   6.574   2.107 -0.2037  0.7083 -0.0118
    2CHTO   H81  693   3.500   6.574   1.998  3.4281  3.1406  0.1195
    2CHTO    N7  694   3.351   6.585   2.143 -0.1835 -0.4913 -0.1128
    2CHTO   H73  695   3.300   6.493   2.116 -0.6438  0.0744 -1.2011
    2CHTO   H74  696   3.336   6.615   2.245  0.4911  0.1431 -0.2032
    2CHTO   C40  697   3.575   6.698   2.160 -0.1113 -0.1510 -0.1907
    2CHTO   H82  698   3.544   6.715   2.263 -0.9709 -0.7845 -0.3349
    2CHTO   O26  699   3.718   6.680   2.144  0.2866  0.3524  0.1233
    2CHTO   C41  700   3.774   6.561   2.207 -0.1872 -0.0398  0.3032
    2CHTO   H83  701   3.743   6.565   2.312  0.7509 -1.3747  0.6404
    2CHTO   C52  702   3.926   6.566   2.191 -0.2382 -0.3091  0.1710
    2CHTO   O35  703   3.966   6.686   2.267  0.4365 -0.0113 -0.0627
    2CHTO   H71  704   4.053   6.681   2.302  0.6168  1.4420 -0.2862
    2CHTO   O28  705   3.544   6.821   2.083  0.2514 -0.2707 -0.0483
    2CHTO   C42  706   3.570   6.953   2.148  0.4113 -0.4735 -0.2392
    2CHTO   H84  707   3.530   7.022   2.074  0.6454  0.7765  0.7886
    2CHTO   C44  708   3.719   6.998   2.170 -1.0663 -0.2901 -0.6275
    2CHTO   H86  709   3.772   6.920   2.225 -1.9618 -1.0853 -0.8869
    2CHTO   O32  710   3.789   6.998   2.039 -0.6377 -0.2223 -0.8597
    2CHTO   H69  711   3.882   6.993   2.051 -0.7446  0.0674  0.0881
    2CHTO   C48  712   3.738   7.138   2.250  1.3273 -0.2935  0.4099
    2CHTO   H90  713   3.702   7.227   2.197 -0.8031 -0.7611  1.0444
    2CHTO    N9  714   3.889   7.166   2.276  0.4988  0.6470  0.0464
    2CHTO   H77  715   3.912   7.251   2.214  1.3531  0.0162 -0.5065
    2CHTO   H78  716   3.915   7.170   2.381 -0.0033 -2.8696  0.3476
    2CHTO   C51  717   3.645   7.134   2.376 -0.2547  0.8644  0.1723
    2CHTO   H93  718   3.667   7.054   2.447 -0.9968  0.3148 -0.2081
    2CHTO   O30  719   3.517   7.120   2.327  0.2156  0.4085  0.2950
    2CHTO   C46  720   3.493   6.976   2.283  0.0396  0.1045  0.5139
    2CHTO   H88  721   3.529   6.910   2.362 -1.8319 -0.0090  1.2783
    2CHTO   C53  722   3.344   6.956   2.258  0.2468 -0.2295 -0.0750
    2CHTO   O72  723   3.261   6.966   2.374 -0.2960  0.3012  0.4210
    2CHTO  H199  724   3.238   7.056   2.387 -0.6408  0.0927  1.2865
    2CHTO   O22  725   3.639   7.259   2.440  0.0647 -0.0203  0.0132
    2CHTO   C31  726   3.618   7.267   2.586  0.1791 -0.4190 -0.1375
    2CHTO   H59  727   3.572   7.365   2.607  0.2390 -0.0147 -1.8765
    2CHTO   C29  728   3.523   7.158   2.646 -0.8005 -0.1566 -0.0907
    2CHTO   H57  729   3.552   7.054   2.624  1.2332  0.1686  0.8803
    2CHTO   O21  730   3.395   7.178   2.584 -0.0579  0.1594 -0.4038
    2CHTO   H37  731   3.338   7.105   2.598  1.8049 -1.3727 -0.5892
    2CHTO   C27  732   3.512   7.176   2.804 -0.0940  0.4501 -0.0985
    2CHTO   H55  733   3.466   7.274   2.824 -2.2642 -0.9875  2.2430
    2CHTO    N5  734   3.431   7.072   2.870  0.2418 -0.4901 -0.6378
    2CHTO   H43  735   3.419   6.978   2.818 -4.6705  0.4574 -1.3713
    2CHTO   H44  736   3.466   7.064   2.972  0.5716 -2.6124 -0.8943
    2CHTO   C25  737   3.654   7.180   2.872 -0.0994 -0.2795  0.0837
    2CHTO   H53  738   3.704   7.083   2.858 -0.2183 -0.8231  3.2243
    2CHTO   O17  739   3.724   7.289   2.806  0.3399 -0.3814 -0.5081
    2CHTO   C32  740   3.752   7.263   2.664  0.2727  0.3423 -0.7532
    2CHTO   H60  741   3.799   7.165   2.650 -1.0492 -0.3324 -0.5103
    2CHTO   C36  742   3.858   7.365   2.614 -0.8921  0.4471 -0.6035
    2CHTO   O25  743   3.811   7.503   2.608 -0.4235  0.4381 -0.3766
    2CHTO   H40  744   3.882   7.557   2.581  0.5473  0.2427  1.6922
    2CHTO   O15  745   3.664   7.210   3.024  0.6369 -0.2312 -0.6293
    2CHTO   C19  746   3.641   7.113   3.137 -1.1531 -0.4342  0.0434
    2CHTO   H47  747   3.532   7.108   3.136 -1.1579 -0.3397  0.1147
    2CHTO   C20  748   3.711   6.970   3.130  0.1251  0.0281 -0.4857
    2CHTO   H48  749   3.819   6.977   3.113 -0.3567 -0.1835 -4.1303
    2CHTO   O19  750   3.655   6.901   3.009 -0.2766 -0.6228  0.0633
    2CHTO   H35  751   3.703   6.821   3.002 -0.7446 -0.8195 -1.0567
    2CHTO   C21  752   3.679   6.879   3.258 -0.0472 -0.4183 -0.1478
    2CHTO   H49  753   3.575   6.847   3.259 -0.4550  0.8649  0.4177
    2CHTO    N4  754   3.763   6.750   3.267 -0.0130 -0.0291  0.1316
    2CHTO   H41  755   3.866   6.766   3.295 -0.4277  0.9262  1.1316
    2CHTO   H42  756   3.721   6.676   3.334  1.7249 -2.0659 -0.9647
    2CHTO   C22  757   3.692   6.967   3.389 -0.1545 -0.1010  0.5259
    2CHTO   H50  758   3.797   6.969   3.416  0.2941  1.1221 -1.2255
    2CHTO   O14  759   3.631   7.098   3.387 -0.4579 -0.5801 -0.4005
    2CHTO   C23  760   3.681   7.179   3.276 -0.0462 -0.0245  0.3754
    2CHTO   H51  761   3.790   7.186   3.293 -0.3431 -0.5586  2.6888
    2CHTO   C34  762   3.615   7.315   3.290  0.5275  0.0985 -0.3662
    2CHTO   O23  763   3.661   7.401   3.387  0.1299 -0.1485  0.2037
    2CHTO   H38  764   3.664   7.355   3.469  0.3163 -3.5190 -1.6003
    2CHTO   O16  765   3.611   6.896   3.487  0.1176 -0.0489  0.1997
    2CHTO   C24  766   3.660   6.935   3.649  0.1868  0.3717 -1.0576
    2CHTO   H52  767   3.728   7.019   3.652  1.4499 -0.6405 -0.6195
    2CHTO   C26  768   3.726   6.818   3.718 -0.2976 -0.2662  0.2041
    2CHTO   H54  769   3.648   6.739   3.719  1.0513 -1.7082 -2.7622
    2CHTO   O20  770   3.843   6.790   3.643 -0.0342  0.5654  0.2591
    2CHTO   H36  771   3.911   6.851   3.662  0.1917  1.2979 -2.5890
    2CHTO   C30  772   3.767   6.856   3.863  0.3055  0.2193 -0.6186
    2CHTO   H58  773   3.854   6.922   3.873  0.3377  0.4935 -2.4813
    2CHTO    N6  774   3.810   6.730   3.939 -0.5539 -0.2299 -0.0025
    2CHTO   H45  775   3.917   6.728   3.944 -0.4676  1.1047 -0.9360
    2CHTO   H46  776   3.777   6.639   3.892  3.0529 -1.5131 -0.2019
    2CHTO   C33  777   3.641   6.919   3.935 -0.5505 -0.1405  0.3156
    2CHTO   H61  778   3.566   6.839   3.944 -0.2975 -0.3545  0.5602
    2CHTO   O18  779   3.586   7.025   3.859  0.3554  0.5371  0.3137
    2CHTO   C28  780   3.530   6.974   3.735 -0.4342  0.0351  0.0323
    2CHTO   H56  781   3.467   6.887   3.754  0.7868 -1.3589 -2.1054
    2CHTO   C35  782   3.442   7.084   3.669 -0.6674  0.0053 -0.2756
    2CHTO   O24  783   3.319   7.113   3.740  0.4443 -0.8697 -0.1748
    2CHTO   H39  784   3.255   7.132   3.675  1.2896 -0.0010 -0.7710
    2CHTO    O9  785   3.683   6.964   4.067  0.0078 -0.5642  0.3062
    2CHTO   C13  786   3.552   6.997   4.171  1.2393 -0.2667  0.8845
    2CHTO   H26  787   3.482   6.911   4.162 -0.9461  1.4257  1.2009
    2CHTO   C11  788   3.482   7.129   4.120 -0.0378  0.2272  0.4166
    2CHTO   H24  789   3.433   7.106   4.025 -0.0321  3.5181 -0.4577
    2CHTO    O8  790   3.577   7.237   4.093  0.0600  0.0774  0.2994
    2CHTO    H3  791   3.615   7.226   4.008 -2.4804 -1.3065 -0.6912
    2CHTO    C9  792   3.369   7.173   4.227 -0.5471  0.2063  1.2360
    2CHTO   H22  793   3.302   7.085   4.229  0.0502 -0.3167 -0.6022
    2CHTO    N2  794   3.295   7.287   4.181 -0.7267 -0.8804 -0.0154
    2CHTO   H10  795   3.217   7.307   4.253  2.0563 -1.7398  3.3357
    2CHTO   H11  796   3.252   7.274   4.083 -2.8805  1.0095  0.6281
    2CHTO    C7  797   3.442   7.191   4.368 -0.4705 -0.1786  0.2713
    2CHTO   H20  798   3.364   7.218   4.442  1.2811  2.4181  1.2534
    2CHTO    O4  799   3.502   7.065   4.409 -0.6702  0.2237  0.8555
    2CHTO   C14  800   3.591   6.995   4.322  0.0793  0.0166 -0.1185
    2CHTO   H27  801   3.586   6.890   4.358 -1.0889  0.0427 -0.2000
    2CHTO   C18  802   3.737   7.039   4.341 -0.3620  0.1120  0.0742
    2CHTO   O13  803   3.784   7.009   4.472 -0.2528 -0.0360 -0.1543
    2CHTO    H7  804   3.750   7.064   4.541 -0.9633 -1.2278  0.4507
    2CHTO    O2  805   3.563   7.310   4.375  0.6522  0.1489 -0.6667
    2CHTO    C1  806   3.536   7.414   4.474  0.4995  0.4210  0.6875
    2CHTO   H14  807   3.448   7.390   4.537  0.7098 -0.2371  0.7315
    2CHTO    C2  808   3.501   7.553   4.398  0.4698  0.4179 -0.6810
    2CHTO   H15  809   3.582   7.567   4.324  2.2898 -0.8116  1.0335
    2CHTO    O6  810   3.373   7.557   4.338  0.0934 -0.0695  0.1085
    2CHTO    H1  811   3.387   7.502   4.263 -3.4782 -1.2941  0.2374
    2CHTO    C3  812   3.522   7.676   4.504  0.4636  0.2608  0.7443
    2CHTO   H16  813   3.436   7.669   4.571  0.3255  1.9409  0.7706
    2CHTO    N1  814   3.519   7.811   4.439  0.2647  0.5178  0.0636
    2CHTO    H8  815   3.475   7.882   4.507  0.2978 -0.4859  1.1474
    2CHTO    H9  816   3.616   7.840   4.401  0.7942  1.0022  1.7357
    2CHTO    C4  817   3.650   7.660   4.594  1.0234 -0.8228  1.2840
    2CHTO   H17  818   3.738   7.673   4.532 -1.2379  1.1682 -1.6069
    2CHTO    O1  819   3.653   7.534   4.658 -0.1145 -1.0240  0.5446
    2CHTO    C5  820   3.659   7.420   4.568 -0.1996 -0.2739 -0.1882
    2CHTO   H18  821   3.751   7.426   4.510 -1.5167 -0.8695 -2.3918
    2CHTO   C16  822   3.654   7.298   4.657 -0.2069  0.4070 -0.1103
    2CHTO   O11  823   3.538   7.272   4.733 -0.1085  0.1780  0.8794
    2CHTO    H5  824   3.533   7.333   4.804 -0.6391 -0.1789  1.1573
    2CHTO    O3  825   3.645   7.753   4.705  0.1585  0.0976 -0.4875
    2CHTO    C6  826   3.775   7.782   4.774  0.2035 -0.8770  0.7532
    2CHTO   H19  827   3.851   7.704   4.767  2.4961  1.1886  1.9984
    2CHTO    C8  828   3.844   7.921   4.727 -0.2956  0.4592  0.0211
    2CHTO   H21  829   3.775   8.004   4.745  2.0780  2.2401  1.1736
    2CHTO    O7  830   3.868   7.918   4.590 -0.0188 -0.3012 -0.2289
    2CHTO    H2  831   3.889   8.007   4.569 -2.1572  0.4051  0.5142
    2CHTO   C12  832   3.966   7.954   4.822 -1.0223 -0.6985  0.0102
    2CHTO   H25  833   4.040   7.873   4.805  0.8361  1.1018 -0.8395
    2CHTO    N3  834   4.021   8.089   4.783 -0.0757 -0.2445  0.1411
    2CHTO   H12  835   3.963   8.143   4.710  2.4483 -0.1413 -1.8363
    2CHTO   H13  836   4.114   8.056   4.740 -0.8343  0.0010 -1.7712
    2CHTO   C15  837   3.921   7.945   4.973 -0.5879  0.2560  0.1693
    2CHTO   H28  838   3.859   8.028   5.007  0.0556  0.9930 -0.4403
    2CHTO   O10  839   4.038   7.940   5.062  0.0719  0.5885  0.3381
    2CHTO    H4  840   4.057   8.023   5.101  1.2601  0.1067  0.7996
    2CHTO    O5  841   3.852   7.818   5.003  0.2068 -0.7895 -0.7320
    2CHTO   C10  842   3.739   7.798   4.919 -0.6409  0.3115  0.1426
    2CHTO   H23  843   3.673   7.884   4.930  1.0537  2.1304 -3.1525
    2CHTO   C17  844   3.668   7.669   4.970 -0.0361 -0.2259  0.5695
    2CHTO   O12  845   3.756   7.561   4.994  0.4533 -0.1555 -0.0375
    2CHTO    H6  846   3.712   7.507   5.057 -0.3722  0.6217  0.0624
    3CHTO  H203  847   7.706   1.752   0.702 -3.0579  1.2680 -0.6372
    3CHTO   O82  848   7.692   1.754   0.794 -0.3881 -0.2672 -0.1319
    3CHTO  C123  849   7.664   1.629   0.864  0.1705 -0.2291  0.0193
    3CHTO  H227  850   7.730   1.625   0.952  0.3298  0.5468 -0.0554
    3CHTO   O77  851   7.521   1.642   0.900  0.0162 -0.7069  0.1195
    3CHTO  C118  852   7.471   1.532   0.976  0.4684  0.0273  0.2033
    3CHTO  H222  853   7.525   1.510   1.069  0.4894  0.2366  0.2409
    3CHTO  C125  854   7.323   1.561   1.010 -0.3911 -0.5301 -0.3726
    3CHTO   O84  855   7.307   1.668   1.106  0.4285  0.4210  0.3278
    3CHTO  H205  856   7.222   1.708   1.108 -0.9386 -2.3093  0.0488
    3CHTO  C114  857   7.488   1.402   0.888  0.2757 -0.5880  0.1012
    3CHTO  H218  858   7.437   1.422   0.793  2.7108  0.0859 -1.1153
    3CHTO  C116  859   7.630   1.376   0.854  0.3095 -0.2803  0.4911
    3CHTO  H220  860   7.692   1.371   0.946  1.6216  0.0380 -0.3526
    3CHTO   O79  861   7.642   1.251   0.782 -0.3753  1.0028  0.1511
    3CHTO  H201  862   7.651   1.182   0.845 -0.5603  1.2448  0.4447
    3CHTO  C120  863   7.683   1.502   0.779  0.1598  0.1436 -0.6714
    3CHTO  H224  864   7.625   1.519   0.686 -0.4331  1.2396 -0.1187
    3CHTO   N21  865   7.829   1.475   0.746  0.0345 -0.0451  0.2885
    3CHTO  H211  866   7.858   1.529   0.658 -0.3379  0.2746  0.3641
    3CHTO  H212  867   7.889   1.492   0.834 -1.4654  1.4629  1.0408
    3CHTO   O75  868   7.426   1.300   0.969 -0.6374 -0.5999  0.4834
    3CHTO  C112  869   7.282   1.215   0.906 -0.7948 -0.1400 -0.2674
    3CHTO  H216  870   7.312   1.157   0.817 -1.7561 -0.9137 -0.0918
    3CHTO   O73  871   7.185   1.323   0.872  0.4145 -0.1936  0.0560
    3CHTO  C113  872   7.054   1.278   0.832  0.2922 -0.6427 -0.5477
    3CHTO  H217  873   7.064   1.240   0.728  0.4252 -1.1942 -0.3375
    3CHTO  C124  874   6.974   1.406   0.819 -1.0254 -0.0507  0.1965
    3CHTO   O83  875   7.029   1.518   0.752 -0.0647  0.4628 -0.4788
    3CHTO  H204  876   7.053   1.583   0.815  0.4455 -0.5475  0.3649
    3CHTO  C109  877   6.984   1.186   0.931 -0.7115  0.7420 -0.6340
    3CHTO  H213  878   6.965   1.245   1.022 -1.1715 -1.2805  0.6159
    3CHTO  C110  879   7.082   1.070   0.968  0.4605  0.3022 -0.4542
    3CHTO  H214  880   7.076   0.998   0.886  1.7528  1.8181 -1.9006
    3CHTO   O78  881   7.007   0.999   1.073 -0.1361  0.5187  0.0432
    3CHTO  H200  882   7.068   0.939   1.113  1.1092  0.2070 -2.2630
    3CHTO  C111  883   7.220   1.122   1.015  0.0786  0.3059 -0.1759
    3CHTO  H215  884   7.200   1.173   1.110 -0.7074 -0.6703  0.1908
    3CHTO   N19  885   7.325   1.020   1.046  0.2422  0.2590  0.4358
    3CHTO  H207  886   7.359   0.975   0.954  1.4288  0.8515  0.5730
    3CHTO  H208  887   7.400   1.074   1.101  1.4801 -2.0608  1.1121
    3CHTO   O74  888   6.861   1.136   0.875  0.3264 -0.3451  0.2033
    3CHTO  C115  889   6.723   1.130   0.978  0.1175 -0.2824  0.2965
    3CHTO  H219  890   6.744   1.073   1.069 -1.2084  0.7296  1.2684
    3CHTO   O76  891   6.692   1.269   1.040  0.2593  0.1969 -0.0268
    3CHTO  C122  892   6.595   1.348   0.961  0.1592  0.2310 -0.1280
    3CHTO  H226  893   6.641   1.367   0.864  3.4163  3.2023  1.8878
    3CHTO  C126  894   6.549   1.484   1.018  0.8634 -0.6252 -0.5037
    3CHTO   O85  895   6.529   1.505   1.160 -0.2670  0.6015 -0.2535
    3CHTO  H206  896   6.601   1.469   1.208  1.3051  2.6086 -0.9968
    3CHTO  C121  897   6.463   1.264   0.949  0.3000 -0.1124  0.1335
    3CHTO  H225  898   6.389   1.299   1.025  0.3876 -2.3193  1.2824
    3CHTO   O81  899   6.403   1.305   0.828  0.0013  0.0353 -0.2176
    3CHTO  H202  900   6.315   1.275   0.812  1.0094 -1.7479 -2.6335
    3CHTO  C119  901   6.478   1.106   0.953 -1.1867  0.3946 -0.0151
    3CHTO  H223  902   6.488   1.072   1.056 -0.5271 -2.0163 -0.8534
    3CHTO  C117  903   6.608   1.066   0.884  0.0926  0.0374 -0.1512
    3CHTO  H221  904   6.631   1.104   0.785  0.4542  0.0892 -0.0500
    3CHTO   N20  905   6.642   0.920   0.868  0.6517  0.1834 -0.0597
    3CHTO  H209  906   6.556   0.863   0.835  2.1691 -1.4055 -1.3465
    3CHTO  H210  907   6.665   0.888   0.969 -0.0090  0.5478  0.2071
    3CHTO   O80  908   6.345   1.027   0.919  0.4539 -0.0134 -0.8080
    3CHTO  C103  909   6.212   1.061   0.989  0.0245 -0.0470 -0.2681
    3CHTO  H190  910   6.234   1.125   1.075  3.6262 -1.9103  0.2803
    3CHTO  C101  911   6.094   1.126   0.899  0.0629  0.5954  0.4169
    3CHTO  H188  912   6.104   1.070   0.806  0.5476 -0.3747  1.0364
    3CHTO   O68  913   6.126   1.264   0.873 -0.2968 -0.5617 -0.6048
    3CHTO  H168  914   6.212   1.274   0.836  0.1986  0.1147  0.7002
    3CHTO   C99  915   5.949   1.093   0.965  0.0154 -0.1344 -0.0059
    3CHTO  H186  916   5.942   1.153   1.057  0.5727  2.2747 -1.4890
    3CHTO   N17  917   5.846   1.136   0.867  0.0174 -0.0236 -0.4200
    3CHTO  H174  918   5.784   1.213   0.910  0.2190 -0.3725  0.5155
    3CHTO  H175  919   5.788   1.050   0.837 -1.0458  0.7654 -0.6178
    3CHTO   C97  920   5.937   0.945   1.005  0.5993 -0.2466  0.0229
    3CHTO  H184  921   5.959   0.882   0.917 -0.6964 -1.7985  0.8033
    3CHTO   O64  922   6.031   0.927   1.111  0.0166 -0.3073 -0.1022
    3CHTO  C104  923   6.165   0.924   1.052 -0.2279  0.9400 -0.6135
    3CHTO  H191  924   6.178   0.847   0.976  0.6429  1.2509 -0.7914
    3CHTO  C108  925   6.265   0.889   1.166 -0.0474  0.7125  0.2093
    3CHTO   O71  926   6.243   0.756   1.211 -0.3961 -0.1154 -0.0769
    3CHTO  H171  927   6.251   0.761   1.305  0.8768  2.2961 -0.2636
    3CHTO   O62  928   5.816   0.915   1.082 -0.1022 -0.0824 -0.1793
    3CHTO   C91  929   5.733   0.811   1.034  0.3238 -0.8761  0.3822
    3CHTO  H178  930   5.756   0.800   0.928 -1.4234  1.5506 -0.2937
    3CHTO   C92  931   5.584   0.857   1.042  0.5403  0.4675 -0.2184
    3CHTO  H179  932   5.561   0.882   1.147  1.0404 -1.5918  0.3955
    3CHTO   O66  933   5.580   0.979   0.956  0.1078  0.3026 -0.9443
    3CHTO  H166  934   5.590   0.956   0.866  0.0476  2.7004 -1.6061
    3CHTO   C93  935   5.496   0.733   0.987  0.3689  0.0041 -0.7623
    3CHTO  H180  936   5.520   0.711   0.882  2.5355 -0.6817 -0.1515
    3CHTO   N16  937   5.352   0.766   0.976 -0.9692 -0.6270  0.3489
    3CHTO  H172  938   5.319   0.798   1.074  0.0051 -0.3971  0.6048
    3CHTO  H173  939   5.338   0.856   0.918  2.0130  0.1871  0.8156
    3CHTO   C94  940   5.515   0.606   1.071 -0.3882  1.2566  0.1284
    3CHTO  H181  941   5.431   0.590   1.138  0.5691  0.5503  1.1920
    3CHTO   O61  942   5.630   0.617   1.159  0.2083  0.6388 -0.4235
    3CHTO   C95  943   5.752   0.674   1.112  0.0082 -0.1210 -0.0298
    3CHTO  H182  944   5.815   0.700   1.198 -1.3328  0.4807  0.7905
    3CHTO  C106  945   5.834   0.566   1.044 -0.1625 -0.4846  0.0264
    3CHTO   O69  946   5.926   0.606   0.939 -0.5971 -0.2339 -0.1940
    3CHTO  H169  947   5.979   0.680   0.962 -0.4577 -0.4853  0.3129
    3CHTO   O63  948   5.536   0.500   0.989  0.1058 -0.3131  0.0678
    3CHTO   C96  949   5.451   0.358   1.029 -0.0068  0.3330  0.2127
    3CHTO  H183  950   5.467   0.283   0.952 -0.2611 -0.7952  1.2498
    3CHTO   C98  951   5.291   0.373   1.041 -0.0879 -0.4786  0.1824
    3CHTO  H185  952   5.271   0.460   1.106  0.5550 -0.3939  0.2703
    3CHTO   O67  953   5.237   0.410   0.916 -0.0462 -0.0403  0.1607
    3CHTO  H167  954   5.148   0.383   0.916 -0.3639  0.9400  1.0994
    3CHTO  C102  955   5.213   0.243   1.099 -0.1493  0.7373  0.1968
    3CHTO  H189  956   5.215   0.172   1.015 -3.3277  0.9008 -0.0720
    3CHTO   N18  957   5.069   0.271   1.125 -0.4604 -0.2482 -0.4145
    3CHTO  H176  958   5.063   0.350   1.198 -0.0624 -0.2174 -0.4121
    3CHTO  H177  959   5.029   0.174   1.151  1.6317 -1.2175 -0.6520
    3CHTO  C105  960   5.285   0.190   1.228 -0.4377  1.2183 -0.5939
    3CHTO  H192  961   5.263   0.252   1.315 -0.2708 -0.8988  0.9996
    3CHTO   O65  962   5.433   0.189   1.216  0.2839  0.1393 -0.0347
    3CHTO  C100  963   5.498   0.305   1.170  0.1854  0.0951 -0.6795
    3CHTO  H187  964   5.476   0.379   1.249  0.0140 -1.8303  1.1334
    3CHTO  C107  965   5.654   0.279   1.175  0.2506  0.4994  0.8573
    3CHTO   O70  966   5.700   0.263   1.305  0.5045  0.8709  0.5492
    3CHTO  H170  967   5.659   0.315   1.372 -0.1877  1.3458 -0.2410
    3CHTO   O57  968   5.241   0.039   1.245  0.3221 -0.1813 -0.3993
    3CHTO   C85  969   5.234  -0.031   1.373  0.7845  0.1178  0.0810
    3CHTO  H157  970   5.208  -0.136   1.347 -1.4584  0.1080  2.1478
    3CHTO   C83  971   5.122   0.023   1.460  0.1349  0.2055  0.4618
    3CHTO  H155  972   5.035  -0.014   1.406 -0.2748 -0.1747  1.3683
    3CHTO   O56  973   5.114   0.168   1.459  0.4635 -0.3111  0.1669
    3CHTO  H135  974   5.050   0.200   1.398  0.8087  1.3737  0.6604
    3CHTO   C81  975   5.129  -0.037   1.606  0.1859 -0.3821  0.5862
    3CHTO  H153  976   5.133  -0.146   1.598 -1.1513 -0.5144  1.5111
    3CHTO   N14  977   5.004  -0.019   1.683 -0.4089 -0.2562 -0.5498
    3CHTO  H141  978   4.932  -0.086   1.641  0.1779 -2.1307  1.3315
    3CHTO  H142  979   4.969   0.082   1.677  0.7099  0.0791 -1.7133
    3CHTO   C79  980   5.255   0.015   1.673  0.1092 -0.0735 -0.1536
    3CHTO  H151  981   5.258  -0.021   1.776 -0.3288  2.0066  0.6012
    3CHTO   O52  982   5.365  -0.042   1.600 -0.8859  0.1478  0.3617
    3CHTO   C86  983   5.369  -0.017   1.451  0.4543  0.4033  0.3861
    3CHTO  H158  984   5.408   0.087   1.447  1.8197 -0.1502 -0.8330
    3CHTO   C90  985   5.480  -0.113   1.402 -0.2123  0.0727  0.2438
    3CHTO   O60  986   5.473  -0.247   1.433 -0.2222 -0.2703  0.1917
    3CHTO  H138  987   5.556  -0.290   1.433 -0.6366 -1.0648  0.5322
    3CHTO   O50  988   5.262   0.156   1.675  0.3720  0.4141  0.2910
    3CHTO   C73  989   5.302   0.259   1.765 -0.0226 -0.1407 -0.3120
    3CHTO  H145  990   5.390   0.229   1.824  2.1058  1.5392 -2.5234
    3CHTO   C74  991   5.175   0.288   1.850  0.6003  0.0815  0.4104
    3CHTO  H146  992   5.145   0.195   1.900 -1.6137 -0.4819 -1.8815
    3CHTO   O54  993   5.228   0.375   1.950 -0.1261  0.1338  0.1807
    3CHTO  H133  994   5.164   0.433   1.987  0.4383  0.5763  0.4729
    3CHTO   C75  995   5.056   0.343   1.760 -0.2303  0.1965 -0.0504
    3CHTO  H147  996   5.032   0.267   1.684  0.9784 -0.9724  0.7211
    3CHTO   N13  997   4.927   0.373   1.836 -0.6689  0.6247 -0.3129
    3CHTO  H139  998   4.903   0.293   1.905  0.0318  0.6974  0.0228
    3CHTO  H140  999   4.845   0.399   1.772 -4.0973 -4.2820  1.7850
    3CHTO   C76 1000   5.111   0.476   1.682  0.0552  0.3660  0.0491
    3CHTO  H148 1001   5.134   0.554   1.754  2.0684 -0.7582  0.6691
    3CHTO   O49 1002   5.234   0.443   1.610  0.4874  0.7769 -0.3933
    3CHTO   C77 1003   5.343   0.383   1.678 -0.1189 -0.9905 -0.5928
    3CHTO  H149 1004   5.381   0.460   1.745 -1.2708 -0.0178 -1.0374
    3CHTO   C88 1005   5.457   0.360   1.580 -0.1852 -0.2254  0.3774
    3CHTO   O58 1006   5.497   0.474   1.527  0.1029  0.5925 -0.0466
    3CHTO  H136 1007   5.551   0.461   1.451  2.1289  0.2705  1.4130
    3CHTO   O51 1008   5.012   0.522   1.581 -0.5470  0.1084  0.1971
    3CHTO   C78 1009   5.037   0.666   1.552 -0.1074  0.3044  0.0272
    3CHTO  H150 1010   5.135   0.707   1.585  1.2129  0.9097 -4.3078
    3CHTO   C80 1011   4.927   0.749   1.618 -0.2262  0.4681 -0.3089
    3CHTO  H152 1012   4.829   0.716   1.577  0.0751 -0.8274 -0.0029
    3CHTO   O55 1013   4.938   0.719   1.756  0.1166 -0.6595 -0.1323
    3CHTO  H134 1014   4.861   0.673   1.784 -0.4551 -0.8692 -1.9772
    3CHTO   C84 1015   4.934   0.906   1.581 -0.0876  0.1755 -0.5806
    3CHTO  H156 1016   5.029   0.948   1.615  0.0860  0.8479 -1.8852
    3CHTO   N15 1017   4.823   0.993   1.645  0.1211 -0.3289  0.5490
    3CHTO  H143 1018   4.788   1.072   1.582  1.5233  1.0067  1.4112
    3CHTO  H144 1019   4.741   0.929   1.669  1.1013 -1.9751 -0.4132
    3CHTO   C87 1020   4.942   0.926   1.427  0.0437  0.3306 -0.3756
    3CHTO  H159 1021   4.850   0.894   1.378  1.4809 -3.4505 -0.7481
    3CHTO   O53 1022   5.051   0.829   1.374 -0.2357 -0.4087  0.0874
    3CHTO   C82 1023   5.022   0.693   1.397 -0.0928 -0.6368 -0.3906
    3CHTO  H154 1024   4.918   0.676   1.367  0.1554 -3.2006  0.1067
    3CHTO   C89 1025   5.113   0.607   1.304  0.1736 -0.6012  1.0564
    3CHTO   O59 1026   5.253   0.625   1.345 -0.4118 -0.2592 -0.2062
    3CHTO  H137 1027   5.295   0.542   1.332  3.1631  1.2678  1.0048
    3CHTO   O45 1028   4.976   1.088   1.391 -0.2438  0.8657 -0.3474
    3CHTO   C67 1029   5.112   1.121   1.377  0.3713  0.0834  0.1037
    3CHTO  H124 1030   5.177   1.042   1.415 -1.6625 -2.5916 -1.7379
    3CHTO   C65 1031   5.144   1.128   1.220 -0.5410  0.0062  0.4742
    3CHTO  H122 1032   5.056   1.165   1.167  0.7185  0.9399 -1.0275
    3CHTO   O44 1033   5.182   0.995   1.178  0.4965 -0.4683 -0.7095
    3CHTO  H102 1034   5.274   0.974   1.177  0.2600 -1.8103  1.8228
    3CHTO   C63 1035   5.250   1.238   1.178 -0.3967  0.2615  0.0964
    3CHTO  H120 1036   5.198   1.334   1.171 -1.7983 -0.3830  1.5462
    3CHTO   N11 1037   5.317   1.226   1.042 -0.8039  0.1647  0.1129
    3CHTO  H108 1038   5.262   1.154   0.985 -1.5975  1.9786 -1.4416
    3CHTO  H109 1039   5.423   1.211   1.045 -0.6825  1.0579  0.4627
    3CHTO   C61 1040   5.358   1.251   1.296  0.2263 -0.2658  0.8188
    3CHTO  H118 1041   5.431   1.330   1.276  3.1049 -3.0474 -0.2208
    3CHTO   O40 1042   5.308   1.275   1.431  0.0638  0.3750 -0.0821
    3CHTO   C68 1043   5.165   1.253   1.451  0.4593 -0.4191  0.1688
    3CHTO  H125 1044   5.125   1.352   1.423  2.2914  0.6775  1.3457
    3CHTO   C72 1045   5.135   1.238   1.598  0.3880  0.2375  0.0167
    3CHTO   O48 1046   5.195   1.330   1.687  0.2069  0.4291  0.8902
    3CHTO  H105 1047   5.157   1.415   1.675  0.0689  0.3597  0.8360
    3CHTO   O38 1048   5.431   1.129   1.309  0.2166  0.5742 -0.5708
    3CHTO   C55 1049   5.546   1.110   1.399 -0.2642  0.0711 -1.4457
    3CHTO  H112 1050   5.527   1.156   1.497 -1.4051 -0.3642 -1.4561
    3CHTO   C56 1051   5.684   1.157   1.336 -0.2409  0.0242  0.5026
    3CHTO  H113 1052   5.685   1.120   1.232  0.6826  0.4631  0.3420
    3CHTO   O42 1053   5.678   1.300   1.309  0.5120 -0.6197  0.4317
    3CHTO  H100 1054   5.748   1.325   1.251 -0.0414  0.2584  0.1358
    3CHTO   C57 1055   5.814   1.113   1.420  0.1211  0.4803 -0.2106
    3CHTO  H114 1056   5.818   1.173   1.511  1.0433  2.1654 -1.3345
    3CHTO   N10 1057   5.947   1.146   1.361  0.3126 -0.2634 -0.0978
    3CHTO  H106 1058   6.021   1.070   1.377 -0.5576 -0.6371  2.4400
    3CHTO  H107 1059   5.975   1.239   1.409  0.9485 -0.5386  0.0572
    3CHTO   C58 1060   5.793   0.962   1.459  0.0121 -0.0628 -0.5776
    3CHTO  H115 1061   5.786   0.903   1.365 -0.0730 -2.6206  0.9862
    3CHTO   O37 1062   5.666   0.946   1.525 -0.6319 -0.2343 -0.3954
    3CHTO   C59 1063   5.555   0.960   1.442  0.5477  0.6020 -0.0490
    3CHTO  H116 1064   5.559   0.893   1.356 -1.3833  0.5490 -0.1235
    3CHTO   C70 1065   5.428   0.921   1.518  0.1957  0.1461 -0.1961
    3CHTO   O46 1066   5.423   0.782   1.558  0.2666 -0.2107  0.0700
    3CHTO  H103 1067   5.445   0.717   1.494  2.0362  0.7524 -0.3313
    3CHTO   O39 1068   5.896   0.899   1.560  0.5202  0.3613 -0.3932
    3CHTO   C60 1069   5.904   0.758   1.568 -0.3020 -0.0109 -0.7458
    3CHTO  H117 1070   5.809   0.727   1.525 -0.3691 -0.6332 -0.1654
    3CHTO   C62 1071   6.013   0.687   1.473  0.0589 -0.4313  0.9450
    3CHTO  H119 1072   6.001   0.722   1.368  2.0459  0.9092  1.1271
    3CHTO   O43 1073   6.139   0.738   1.517  0.4758  0.1547  0.3365
    3CHTO  H101 1074   6.213   0.709   1.467  2.0663  0.9196  2.1785
    3CHTO   C66 1075   5.995   0.524   1.475 -0.6425 -0.0268 -0.1364
    3CHTO  H123 1076   5.898   0.503   1.430 -0.4747  1.5567 -1.2798
    3CHTO   N12 1077   6.098   0.459   1.394 -0.4616 -0.4556 -0.3163
    3CHTO  H110 1078   6.087   0.355   1.369 -1.5360  0.0105 -1.8789
    3CHTO  H111 1079   6.198   0.483   1.426 -0.5991 -0.5331  0.1738
    3CHTO   C69 1080   6.012   0.469   1.623 -0.1887 -0.3848 -0.0364
    3CHTO  H126 1081   6.115   0.488   1.659 -0.1247 -0.8289  0.0059
    3CHTO   O41 1082   5.906   0.541   1.713  0.0209  0.3616  0.1647
    3CHTO   C64 1083   5.908   0.698   1.710  0.4513  0.1032  0.4181
    3CHTO  H121 1084   6.002   0.728   1.761 -0.3708 -0.5903  2.3923
    3CHTO   C71 1085   5.788   0.752   1.799  0.3664 -0.0632 -0.4506
    3CHTO   O47 1086   5.660   0.714   1.743 -0.0864 -0.2345 -0.0841
    3CHTO  H104 1087   5.594   0.718   1.809 -0.7031 -0.7299 -0.6653
    3CHTO   O34 1088   5.996   0.321   1.632  0.3321 -0.4497 -0.6039
    3CHTO   C49 1089   6.037   0.180   1.568  0.0736 -0.9917  0.5152
    3CHTO   H91 1090   6.122   0.200   1.503  0.2647  0.7373  1.2664
    3CHTO   C47 1091   5.923   0.116   1.490  0.3515 -0.2663 -0.3256
    3CHTO   H89 1092   5.919   0.184   1.402  0.9091 -0.3477 -0.4108
    3CHTO   O33 1093   5.800   0.125   1.566  0.1153  0.0083 -0.0600
    3CHTO   H70 1094   5.769   0.214   1.563 -1.4982 -0.4622  1.6746
    3CHTO   C45 1095   5.945  -0.040   1.459 -0.4194 -0.3255 -0.0688
    3CHTO   H87 1096   5.889  -0.101   1.532 -1.6549 -1.9844 -2.3340
    3CHTO    N8 1097   5.892  -0.081   1.323  0.2350  0.8641 -0.1981
    3CHTO   H75 1098   5.810  -0.150   1.333  2.6786 -1.9923  0.7846
    3CHTO   H76 1099   5.962  -0.109   1.246  1.1815 -1.8032  1.5361
    3CHTO   C43 1100   6.095  -0.081   1.484  0.3979  0.4936  0.1811
    3CHTO   H85 1101   6.109  -0.188   1.465 -0.2607  0.3711  0.3820
    3CHTO   O29 1102   6.132  -0.049   1.623 -0.0996  0.6435  0.6457
    3CHTO   C50 1103   6.090   0.079   1.674 -0.1509  0.4611 -0.4169
    3CHTO   H92 1104   6.012   0.064   1.750 -0.3972  0.2190 -0.7177
    3CHTO   C54 1105   6.222   0.128   1.733 -0.9067  0.4905  0.1715
    3CHTO   O36 1106   6.248   0.050   1.846 -0.6098  0.1293 -0.0771
    3CHTO   H72 1107   6.339   0.037   1.863 -0.8621 -1.2510  0.3111
    3CHTO   O27 1108   6.183  -0.015   1.394  0.5712 -0.4130 -0.0693
    3CHTO   C37 1109   6.293   0.067   1.346 -0.0871  0.1095 -0.1494
    3CHTO   H79 1110   6.288   0.169   1.388  1.4374  0.6913 -1.3275
    3CHTO   C38 1111   6.411  -0.022   1.396 -0.0820  0.4226  0.3169
    3CHTO   H80 1112   6.386  -0.125   1.368  1.1342  0.0947  0.3834
    3CHTO   O31 1113   6.419  -0.008   1.538  0.0452  0.6506 -0.6057
    3CHTO   H68 1114   6.339  -0.035   1.579 -0.1718  2.0187 -0.1024
    3CHTO   C39 1115   6.548   0.026   1.343  0.5222  0.0792  1.1743
    3CHTO   H81 1116   6.568   0.120   1.395  2.5083 -0.3783  1.2853
    3CHTO    N7 1117   6.666  -0.062   1.381  0.5743  0.0563 -0.2881
    3CHTO   H73 1118   6.643  -0.127   1.464  0.1124 -0.4476 -0.8110
    3CHTO   H74 1119   6.752  -0.000   1.399  0.6133 -0.5797  1.8365
    3CHTO   C40 1120   6.542   0.054   1.189 -0.8343 -0.1120 -0.2462
    3CHTO   H82 1121   6.535  -0.041   1.137 -1.6194  0.1721 -0.6748
    3CHTO   O26 1122   6.429   0.131   1.166 -0.3635  0.2861  0.7157
    3CHTO   C41 1123   6.300   0.075   1.190  0.2975  0.2105  0.2871
    3CHTO   H83 1124   6.288  -0.022   1.140 -2.1853  0.7316 -0.2077
    3CHTO   C52 1125   6.180   0.166   1.147 -0.3010 -0.4829  0.5851
    3CHTO   O35 1126   6.175   0.170   1.006  0.8081 -0.0390  0.0075
    3CHTO   H71 1127   6.159   0.254   0.966  0.7611 -1.0783 -2.2070
    3CHTO   O28 1128   6.668   0.114   1.142  0.2573  0.2980 -0.4223
    3CHTO   C42 1129   6.668   0.232   1.047 -0.2942  0.4923  0.8058
    3CHTO   H84 1130   6.771   0.240   1.012 -0.1438 -0.9570  0.8714
    3CHTO   C44 1131   6.637   0.366   1.115 -0.5618  1.0113 -0.3988
    3CHTO   H86 1132   6.536   0.364   1.157 -0.0294  3.1428  1.0517
    3CHTO   O32 1133   6.746   0.374   1.207  0.3174  0.3471 -0.9673
    3CHTO   H69 1134   6.728   0.311   1.274 -0.8859  0.7752 -0.8771
    3CHTO   C48 1135   6.638   0.493   1.020  0.4234 -0.1416  0.6862
    3CHTO   H90 1136   6.735   0.511   0.975  0.7105 -2.1816  0.4253
    3CHTO    N9 1137   6.608   0.624   1.094 -0.0433 -0.2167  0.3018
    3CHTO   H77 1138   6.652   0.633   1.192  1.0067  4.5933 -0.4725
    3CHTO   H78 1139   6.637   0.709   1.035  2.9574 -1.0952  0.4008
    3CHTO   C51 1140   6.544   0.458   0.899  0.9934 -0.1517  0.3199
    3CHTO   H93 1141   6.443   0.452   0.940  0.5193  1.3498 -0.5685
    3CHTO   O30 1142   6.580   0.342   0.825 -0.2528 -0.0817  0.5707
    3CHTO   C46 1143   6.577   0.204   0.918  0.1836  0.6238 -0.1323
    3CHTO   H88 1144   6.475   0.188   0.952  0.7335  0.1538  1.3562
    3CHTO   C53 1145   6.632   0.087   0.828 -0.5119  0.3857  0.3776
    3CHTO   O72 1146   6.549   0.066   0.712  0.1064  0.1789  0.0243
    3CHTO  H199 1147   6.571   0.113   0.633  2.3153 -0.7503  0.0304
    3CHTO   O22 1148   6.560   0.571   0.809  0.0613  0.4506 -0.1161
    3CHTO   C31 1149   6.463   0.601   0.705  0.1360  0.3340  0.4245
    3CHTO   H59 1150   6.406   0.509   0.681 -0.3745  1.2514 -2.1146
    3CHTO   C29 1151   6.354   0.706   0.745 -0.5421 -0.1083 -0.0825
    3CHTO   H57 1152   6.404   0.801   0.769 -2.0078  0.1988  1.8503
    3CHTO   O21 1153   6.299   0.654   0.872 -0.0858  0.1195 -0.0507
    3CHTO   H37 1154   6.311   0.715   0.943  0.8836 -0.0030 -0.1091
    3CHTO   C27 1155   6.261   0.724   0.624 -0.0026  0.4535  0.0347
    3CHTO   H55 1156   6.225   0.625   0.594  0.1172 -0.2816  2.2257
    3CHTO    N5 1157   6.147   0.810   0.655 -0.1724 -0.3161  0.0751
    3CHTO   H43 1158   6.184   0.911   0.663  2.4704 -1.0289 -2.3185
    3CHTO   H44 1159   6.064   0.801   0.587  1.1561  1.1936 -1.7927
    3CHTO   C25 1160   6.348   0.772   0.497 -0.4759 -1.0461  0.0001
    3CHTO   H53 1161   6.391   0.868   0.528 -2.7212 -0.3530  1.0254
    3CHTO   O17 1162   6.449   0.677   0.461  0.0805  0.8653  0.3224
    3CHTO   C32 1163   6.538   0.647   0.572 -0.9610 -0.7879  0.1835
    3CHTO   H60 1164   6.594   0.740   0.586 -0.0982 -1.2992  0.2069
    3CHTO   C36 1165   6.628   0.543   0.523 -0.0441  0.6025  0.0328
    3CHTO   O25 1166   6.688   0.581   0.395  0.5088  0.1918 -0.5514
    3CHTO   H40 1167   6.746   0.512   0.367 -1.2390 -1.4605 -0.2045
    3CHTO   O15 1168   6.273   0.794   0.379 -0.3765 -0.3798 -0.2836
    3CHTO   C19 1169   6.286   0.886   0.261 -0.4544  0.6324  0.1130
    3CHTO   H47 1170   6.227   0.853   0.175 -0.8127  0.9280  0.2459
    3CHTO   C20 1171   6.242   1.026   0.308 -0.3185 -0.3477  0.3640
    3CHTO   H48 1172   6.310   1.062   0.387  2.5350 -0.4972 -1.9410
    3CHTO   O19 1173   6.104   1.027   0.357  0.3489  0.1975 -0.4260
    3CHTO   H35 1174   6.046   1.007   0.286 -0.5096  0.5313  0.1641
    3CHTO   C21 1175   6.246   1.133   0.195  0.3566  1.3090 -1.0118
    3CHTO   H49 1176   6.157   1.118   0.133 -0.5419  1.6931  0.1674
    3CHTO    N4 1177   6.226   1.272   0.244 -0.2512  0.1974  0.0989
    3CHTO   H41 1178   6.280   1.339   0.179  1.5023 -2.1318 -0.9104
    3CHTO   H42 1179   6.122   1.301   0.251 -0.7714 -1.3816 -0.8241
    3CHTO   C22 1180   6.379   1.119   0.118  0.0052 -0.1359 -0.7751
    3CHTO   H50 1181   6.464   1.172   0.160  0.3044 -0.9644 -0.3404
    3CHTO   O14 1182   6.424   0.988   0.098  0.1586  0.2319  0.4651
    3CHTO   C23 1183   6.432   0.895   0.205 -0.9553  0.6723  0.4668
    3CHTO   H51 1184   6.505   0.928   0.281  0.2893  0.2235 -0.5212
    3CHTO   C34 1185   6.473   0.762   0.139 -0.1607 -0.6295 -0.5409
    3CHTO   O23 1186   6.596   0.769   0.057  0.4049 -0.2074 -0.0622
    3CHTO   H38 1187   6.593   0.700  -0.007  4.9143 -0.4116 -0.2284
    3CHTO   O16 1188   6.361   1.166  -0.016  0.1617  0.1165  0.8102
    3CHTO   C24 1189   6.423   1.310  -0.060 -0.9397  0.5271  0.0421
    3CHTO   H52 1190   6.463   1.362   0.027 -1.4524 -0.8711  1.1311
    3CHTO   C26 1191   6.312   1.388  -0.120  0.9715 -0.1934 -0.4842
    3CHTO   H54 1192   6.270   1.328  -0.203 -0.8245 -0.6331  0.6977
    3CHTO   O20 1193   6.197   1.409  -0.027 -0.1834 -0.0098 -0.1340
    3CHTO   H36 1194   6.151   1.327  -0.019 -0.4148 -0.1005 -2.2997
    3CHTO   C30 1195   6.364   1.526  -0.162  0.1409 -0.9606  0.4314
    3CHTO   H58 1196   6.394   1.582  -0.072 -1.2443  1.7069 -0.7037
    3CHTO    N6 1197   6.261   1.615  -0.227  0.3185  0.4786  0.6060
    3CHTO   H45 1198   6.230   1.701  -0.169 -1.0696 -0.2509  0.9578
    3CHTO   H46 1199   6.304   1.644  -0.322  1.2587  0.0748  0.8957
    3CHTO   C33 1200   6.494   1.512  -0.245 -0.0128 -0.1366  0.5972
    3CHTO   H61 1201   6.475   1.492  -0.351  1.8251  0.5324  0.1228
    3CHTO   O18 1202   6.589   1.408  -0.196 -0.4448 -0.5158  0.3259
    3CHTO   C28 1203   6.534   1.285  -0.157 -0.2953 -0.1605 -0.2453
    3CHTO   H56 1204   6.496   1.230  -0.243  0.7167  0.0869 -0.8633
    3CHTO   C35 1205   6.646   1.188  -0.107 -0.3889 -0.2402 -0.4216
    3CHTO   O24 1206   6.748   1.135  -0.191 -0.6045 -0.0113 -0.3307
    3CHTO   H39 1207   6.798   1.066  -0.152 -0.0153 -0.3385 -1.6229
    3CHTO    O9 1208   6.551   1.646  -0.250  1.0691  0.3399  0.2303
    3CHTO   C13 1209   6.662   1.690  -0.127 -0.1561 -0.7625  0.6911
    3CHTO   H26 1210   6.620   1.653  -0.031 -0.2843 -2.4196  0.0106
    3CHTO   C11 1211   6.684   1.839  -0.124 -0.1351 -0.1075  0.8588
    3CHTO   H24 1212   6.588   1.872  -0.084  0.6813  0.8528  2.0423
    3CHTO    O8 1213   6.714   1.890  -0.256  0.0162  0.6083 -0.2918
    3CHTO    H3 1214   6.641   1.872  -0.312 -1.2769  0.7971  1.2996
    3CHTO    C9 1215   6.786   1.873  -0.008  0.0920  0.4574  0.3675
    3CHTO   H22 1216   6.734   1.833   0.081  0.8762  1.9920  1.5336
    3CHTO    N2 1217   6.800   2.018   0.023  0.4930  0.0602 -0.2773
    3CHTO   H10 1218   6.866   2.072  -0.043  0.5245 -0.0222 -0.3135
    3CHTO   H11 1219   6.838   2.017   0.124 -0.4133 -1.9626  0.0781
    3CHTO    C7 1220   6.919   1.793  -0.029 -0.7464 -0.4030 -0.2195
    3CHTO   H20 1221   6.972   1.810   0.067  0.2473 -0.3749 -0.7665
    3CHTO    O4 1222   6.904   1.654  -0.048 -0.1552 -0.3681  0.5101
    3CHTO   C14 1223   6.796   1.601  -0.134 -0.7442  0.2498  0.0346
    3CHTO   H27 1224   6.784   1.498  -0.095  0.3909 -0.1891 -0.7550
    3CHTO   C18 1225   6.849   1.588  -0.281 -0.1883  0.2929 -0.0227
    3CHTO   O13 1226   6.961   1.501  -0.294  0.5114  0.1695  0.8326
    3CHTO    H7 1227   7.030   1.529  -0.236  0.8785 -0.3086  0.6291
    3CHTO    O2 1228   6.998   1.850  -0.157  0.1826 -0.3303  0.1656
    3CHTO    C1 1229   7.129   1.800  -0.191 -0.1502  0.2259 -0.7646
    3CHTO   H14 1230   7.124   1.690  -0.205 -1.3011  0.2906 -0.8818
    3CHTO    C2 1231   7.232   1.824  -0.081 -0.4540 -0.0953  0.3355
    3CHTO   H15 1232   7.242   1.933  -0.077  0.0979 -0.0142 -2.6912
    3CHTO    O6 1233   7.194   1.759   0.042 -0.0042  0.2232  0.1592
    3CHTO    H1 1234   7.110   1.787   0.073  0.9062  1.8314  1.2381
    3CHTO    C3 1235   7.377   1.777  -0.126  0.0983  0.7204  0.0028
    3CHTO   H16 1236   7.372   1.667  -0.127 -0.6816  0.7400  1.3769
    3CHTO    N1 1237   7.494   1.809  -0.045  0.1705  0.5171  0.5894
    3CHTO    H8 1238   7.509   1.905   0.001 -0.7898  0.5682  0.8088
    3CHTO    H9 1239   7.579   1.745  -0.063  0.8562  1.7236 -0.4854
    3CHTO    C4 1240   7.401   1.822  -0.279  0.1811  0.2001  1.0077
    3CHTO   H17 1241   7.416   1.930  -0.280  0.5030  0.1622 -0.2616
    3CHTO    O1 1242   7.293   1.793  -0.376 -0.0443  0.1137  0.0279
    3CHTO    C5 1243   7.164   1.857  -0.328  0.0808 -0.3304 -0.3110
    3CHTO   H18 1244   7.164   1.966  -0.327  1.2279 -0.3198 -0.8637
    3CHTO   C16 1245   7.069   1.808  -0.448  0.7037  0.1638 -0.2450
    3CHTO   O11 1246   6.944   1.883  -0.461 -0.0554  0.7264 -0.0108
    3CHTO    H5 1247   6.904   1.896  -0.377 -0.4775 -2.7737  0.4280
    3CHTO    O3 1248   7.520   1.752  -0.335 -0.0972  0.5023 -0.6259
    3CHTO    C6 1249   7.586   1.828  -0.446 -1.0221 -0.3629  0.9565
    3CHTO   H19 1250   7.540   1.917  -0.489  0.7097 -0.8287 -2.0096
    3CHTO    C8 1251   7.721   1.893  -0.396  0.1956 -0.1041 -0.1812
    3CHTO   H21 1252   7.789   1.813  -0.366 -1.5418 -0.3775  3.2857
    3CHTO    O7 1253   7.682   1.982  -0.281  0.1900 -0.5955 -0.0727
    3CHTO    H2 1254   7.632   2.055  -0.312 -2.1735 -0.5759  3.5336
    3CHTO   C12 1255   7.789   1.973  -0.515  0.0137  0.0046  0.6030
    3CHTO   H25 1256   7.719   2.053  -0.546 -1.5430 -1.7458 -0.5280
    3CHTO    N3 1257   7.910   2.047  -0.466 -0.2818  0.4810  0.1692
    3CHTO   H12 1258   7.920   2.136  -0.527  0.0147 -0.0043 -0.4976
    3CHTO   H13 1259   7.993   1.986  -0.500  0.6206  2.1495 -0.7198
    3CHTO   C15 1260   7.803   1.877  -0.641  0.1884 -0.5717 -0.2592
    3CHTO   H28 1261   7.887   1.811  -0.619 -0.1309 -0.7867  0.3215
    3CHTO   O10 1262   7.827   1.970  -0.779 -0.5637 -0.5992  0.0002
    3CHTO    H4 1263   7.744   1.999  -0.812 -2.1745 -4.2843  0.5323
    3CHTO    O5 1264   7.681   1.808  -0.676 -0.8529  0.2003  0.1682
    3CHTO   C10 1265   7.618   1.736  -0.572 -0.3336  0.5326  0.3322
    3CHTO   H23 1266   7.686   1.655  -0.548  0.1079  0.9598  0.5323
    3CHTO   C17 1267   7.500   1.652  -0.633 -0.1363 -0.1914  0.0803
    3CHTO   O12 1268   7.538   1.537  -0.707 -0.4047 -0.1734 -0.1895
    3CHTO    H6 1269   7.455   1.493  -0.713 -0.8883  0.6548  0.2877
    4CHTO  H203 1270   6.412   7.262   1.678  1.1429 -1.1842 -1.5280
    4CHTO   O82 1271   6.398   7.318   1.604  0.1825 -0.0743 -0.5182
    4CHTO  C123 1272   6.313   7.429   1.644  0.0359 -0.0627 -0.0663
    4CHTO  H227 1273   6.240   7.391   1.717  0.6233 -1.8833 -0.3892
    4CHTO   O77 1274   6.410   7.514   1.719  0.2481  0.1398 -0.5085
    4CHTO  C118 1275   6.351   7.633   1.786 -0.0048 -0.4620 -0.2342
    4CHTO  H222 1276   6.279   7.601   1.864  1.2995  2.4558  2.2696
    4CHTO  C125 1277   6.463   7.714   1.853  0.1516 -0.1388 -0.2861
    4CHTO   O84 1278   6.397   7.808   1.946  0.2461 -0.4523  0.1769
    4CHTO  H205 1279   6.402   7.888   1.897  2.2334 -1.2972 -1.0647
    4CHTO  C114 1280   6.280   7.720   1.683 -0.7526  0.2271 -0.2403
    4CHTO  H218 1281   6.354   7.753   1.611 -1.1270  0.3738 -0.5571
    4CHTO  C116 1282   6.181   7.634   1.599  0.7961  0.6455  0.7704
    4CHTO  H220 1283   6.098   7.589   1.657  0.4970  0.1876  0.0024
    4CHTO   O79 1284   6.135   7.719   1.493  0.2304 -0.2806 -0.3608
    4CHTO  H201 1285   6.081   7.787   1.528 -0.7475 -1.3649  0.2738
    4CHTO  C120 1286   6.248   7.511   1.526  0.0107  0.4633  0.2294
    4CHTO  H224 1287   6.330   7.550   1.461  1.6081  1.2135  2.6071
    4CHTO   N21 1288   6.156   7.425   1.441  0.0698 -0.1819  0.0193
    4CHTO  H211 1289   6.107   7.350   1.501  0.2283 -1.6144 -1.6262
    4CHTO  H212 1290   6.222   7.377   1.370  1.1897  1.5842 -0.1592
    4CHTO   O75 1291   6.215   7.826   1.752  0.2592  0.3368  0.3993
    4CHTO  C112 1292   6.248   7.979   1.693  0.3778 -0.3046  0.2923
    4CHTO  H216 1293   6.227   7.976   1.585  1.2520  4.0965 -0.0906
    4CHTO   O73 1294   6.383   8.008   1.718 -0.4290 -0.4559 -0.4533
    4CHTO  C113 1295   6.421   8.138   1.663  0.0963 -0.4126 -0.0347
    4CHTO  H217 1296   6.424   8.127   1.553 -1.6985  0.4670 -0.1925
    4CHTO  C124 1297   6.569   8.163   1.696 -0.1570  0.0439 -0.5671
    4CHTO   O83 1298   6.596   8.186   1.835 -0.1248 -0.1255 -0.0055
    4CHTO  H204 1299   6.554   8.267   1.860  1.1285  0.1006  1.4462
    4CHTO  C109 1300   6.336   8.268   1.695 -0.2687  0.1692 -0.0695
    4CHTO  H213 1301   6.351   8.286   1.802  1.8945 -1.0888 -0.1300
    4CHTO  C110 1302   6.185   8.233   1.674 -0.3881  0.4536 -0.5490
    4CHTO  H214 1303   6.159   8.231   1.568 -0.5553  1.9210 -0.5465
    4CHTO   O78 1304   6.112   8.352   1.725  0.1567  1.0060 -0.4925
    4CHTO  H200 1305   6.129   8.420   1.664 -1.3887  0.6524 -1.3367
    4CHTO  C111 1306   6.149   8.099   1.746 -0.3854  0.0591  0.6003
    4CHTO  H215 1307   6.172   8.113   1.853  1.7243 -0.6517  0.2712
    4CHTO   N19 1308   6.003   8.060   1.735 -0.3924  0.4167  0.4208
    4CHTO  H207 1309   5.957   8.125   1.662 -1.1778 -0.6939 -0.0826
    4CHTO  H208 1310   5.949   8.079   1.826 -1.5105 -2.1876  0.3444
    4CHTO   O74 1311   6.381   8.388   1.620 -0.0920 -0.0225 -0.2114
    4CHTO  C115 1312   6.426   8.512   1.699 -0.3600  0.2632  0.1666
    4CHTO  H219 1313   6.377   8.515   1.796 -1.2050 -3.9829 -0.0253
    4CHTO   O76 1314   6.575   8.506   1.732  0.3372  0.4023  0.1221
    4CHTO  C122 1315   6.666   8.513   1.616 -0.0763 -0.3838 -0.3923
    4CHTO  H226 1316   6.660   8.420   1.558 -1.2752  1.2990 -3.0971
    4CHTO  C126 1317   6.819   8.536   1.665  0.0176  0.6623  0.3108
    4CHTO   O85 1318   6.862   8.438   1.759  0.2004 -0.1775 -0.2830
    4CHTO  H206 1319   6.901   8.481   1.833 -0.2273  0.5178 -0.4617
    4CHTO  C121 1320   6.616   8.625   1.516 -0.3270 -0.9351  0.1220
    4CHTO  H225 1321   6.705   8.688   1.497 -2.3946  2.1683  0.3503
    4CHTO   O81 1322   6.578   8.570   1.395  0.0815 -0.0064  0.3332
    4CHTO  H202 1323   6.637   8.504   1.364  1.6702  1.5916 -0.1586
    4CHTO  C119 1324   6.505   8.723   1.571 -0.9142  0.9714 -0.0478
    4CHTO  H223 1325   6.551   8.767   1.660 -0.1892 -0.1360  0.1422
    4CHTO  C117 1326   6.384   8.643   1.623  0.1433  0.1442  0.1708
    4CHTO  H221 1327   6.325   8.612   1.537  0.6794  0.1408 -0.1995
    4CHTO   N20 1328   6.288   8.730   1.704  0.4040  0.1203 -0.1818
    4CHTO  H209 1329   6.186   8.713   1.675  0.3208  1.6703 -0.8490
    4CHTO  H210 1330   6.309   8.836   1.701 -1.2495  0.4956  0.9995
    4CHTO   O80 1331   6.482   8.842   1.484  0.0336  0.1596  0.5544
    4CHTO  C103 1332   6.535   8.989   1.518  0.8649 -0.8186  0.2825
    4CHTO  H190 1333   6.505   9.021   1.618  2.5376  0.5119  0.3798
    4CHTO  C101 1334   6.684   9.014   1.495  0.2211 -0.0291 -0.1458
    4CHTO  H188 1335   6.712   8.981   1.395 -0.2287  0.9353 -0.5870
    4CHTO   O68 1336   6.778   8.947   1.594  0.1192  0.1041 -0.0405
    4CHTO  H168 1337   6.749   8.972   1.680  3.4799  0.3074  1.0881
    4CHTO   C99 1338   6.707   9.179   1.505  0.3908  0.5233  0.5375
    4CHTO  H186 1339   6.672   9.216   1.604  0.3221 -1.8174  1.4100
    4CHTO   N17 1340   6.853   9.222   1.492  0.0103  0.4969 -0.0597
    4CHTO  H174 1341   6.885   9.265   1.586 -0.8954  1.9451 -0.3985
    4CHTO  H175 1342   6.915   9.139   1.464 -2.2793 -1.2431 -0.1382
    4CHTO   C97 1343   6.619   9.247   1.397  0.1123 -0.4690  0.0206
    4CHTO  H184 1344   6.652   9.202   1.302 -0.5663 -1.6501  0.3275
    4CHTO   O64 1345   6.480   9.221   1.427 -0.1876  0.1113  0.5157
    4CHTO  C104 1346   6.447   9.083   1.416  0.3002  0.1102 -0.6345
    4CHTO  H191 1347   6.467   9.059   1.311  2.8246  0.0940 -0.1929
    4CHTO  C108 1348   6.289   9.074   1.438 -0.2745 -0.0396  0.4927
    4CHTO   O71 1349   6.220   9.129   1.322  0.0802  0.2361  0.5652
    4CHTO  H171 1350   6.135   9.089   1.326  0.3147 -0.4138 -0.8209
    4CHTO   O62 1351   6.625   9.392   1.396 -0.2561  0.2789  0.5607
    4CHTO   C91 1352   6.608   9.456   1.265  0.2014  0.5381  0.4215
    4CHTO  H178 1353   6.568   9.385   1.193  0.0702  1.2328 -0.2006
    4CHTO   C92 1354   6.752   9.492   1.207  0.2235 -0.0851 -0.6682
    4CHTO  H179 1355   6.796   9.554   1.286 -3.3998  0.6662  0.8566
    4CHTO   O66 1356   6.836   9.376   1.203  0.2258 -0.1149  0.0177
    4CHTO  H166 1357   6.912   9.397   1.153  0.3455  0.1523  0.3088
    4CHTO   C93 1358   6.746   9.565   1.071 -0.3367 -0.6454  0.6311
    4CHTO  H180 1359   6.753   9.496   0.986  1.2221  0.4888 -0.1833
    4CHTO   N16 1360   6.871   9.650   1.047 -0.2899  0.1729  0.1207
    4CHTO  H172 1361   6.859   9.712   0.959  1.9234 -1.6689 -1.5432
    4CHTO  H173 1362   6.963   9.595   1.051  0.4082  1.0919 -2.1292
    4CHTO   C94 1363   6.618   9.651   1.050 -0.9330  0.7137 -0.0316
    4CHTO  H181 1364   6.639   9.744   0.997 -1.2529  0.7882 -0.0304
    4CHTO   O61 1365   6.551   9.684   1.173  0.3569  0.1925  0.1913
    4CHTO   C95 1366   6.513   9.580   1.266  0.0295 -0.4643  0.1450
    4CHTO  H182 1367   6.508   9.623   1.366  1.3556  0.7864 -0.3117
    4CHTO  C106 1368   6.366   9.531   1.232 -0.6254 -0.2196 -0.2696
    4CHTO   O69 1369   6.279   9.646   1.249  0.0923  0.0245 -0.0569
    4CHTO  H169 1370   6.237   9.638   1.332  2.2012  3.2093  1.4207
    4CHTO   O63 1371   6.511   9.572   0.965  0.8560  0.1251  0.8183
    4CHTO   C96 1372   6.537   9.558   0.822 -0.0282 -0.2635 -0.5016
    4CHTO  H183 1373   6.638   9.581   0.788  0.0610  0.9062  0.5267
    4CHTO   C98 1374   6.457   9.648   0.719  0.9328 -0.7912 -0.4934
    4CHTO  H185 1375   6.348   9.638   0.731  0.6446  2.6798  0.3551
    4CHTO   O67 1376   6.485   9.788   0.750 -0.3394  0.5619  0.1131
    4CHTO  H167 1377   6.576   9.811   0.747 -0.0984  0.1502  2.7400
    4CHTO  C102 1378   6.503   9.612   0.565  0.3768  0.8699  0.9557
    4CHTO  H189 1379   6.610   9.639   0.564  0.6085 -0.0033  0.4134
    4CHTO   N18 1380   6.439   9.680   0.450 -0.3961 -0.4036 -0.4564
    4CHTO  H176 1381   6.500   9.659   0.363 -1.0460 -0.4073 -0.9102
    4CHTO  H177 1382   6.338   9.646   0.434  0.4712 -2.3999 -1.9529
    4CHTO  C105 1383   6.495   9.458   0.548  0.0949  0.4851  0.6625
    4CHTO  H192 1384   6.419   9.432   0.473  0.3053  1.0036  0.2687
    4CHTO   O65 1385   6.452   9.377   0.654 -0.1810  0.1510  0.2341
    4CHTO  C100 1386   6.503   9.407   0.790 -0.4507  0.1451  0.2570
    4CHTO  H187 1387   6.419   9.362   0.844 -0.2560 -2.9907 -1.9110
    4CHTO  C107 1388   6.621   9.311   0.826 -0.6262  0.4806 -0.1791
    4CHTO   O70 1389   6.742   9.337   0.755  0.1958 -0.0131 -0.1059
    4CHTO  H170 1390   6.789   9.402   0.805 -0.5108 -1.1869  2.1303
    4CHTO   O57 1391   6.627   9.426   0.497  0.3121  1.0021  0.1186
    4CHTO   C85 1392   6.640   9.372   0.362 -0.1865  1.0429 -0.3610
    4CHTO  H157 1393   6.550   9.370   0.298 -0.4820  0.3019  0.0856
    4CHTO   C83 1394   6.666   9.214   0.387 -0.2904 -0.2276  0.6107
    4CHTO  H155 1395   6.574   9.176   0.430  0.0852 -0.7602  0.9484
    4CHTO   O56 1396   6.771   9.196   0.477  0.2692 -0.7583 -0.0511
    4CHTO  H135 1397   6.741   9.170   0.562  0.3262  0.2608  0.2851
    4CHTO   C81 1398   6.688   9.140   0.245  0.4925 -0.6523 -0.0313
    4CHTO  H153 1399   6.602   9.162   0.182  1.6277  1.6998 -0.8238
    4CHTO   N14 1400   6.695   8.994   0.265 -0.3592  0.1245  0.4651
    4CHTO  H141 1401   6.673   8.959   0.167 -1.8120  0.6177  0.6007
    4CHTO  H142 1402   6.788   8.956   0.304 -0.7981 -1.0896  0.3549
    4CHTO   C79 1403   6.816   9.205   0.170 -0.2651 -0.7093 -0.7812
    4CHTO  H151 1404   6.821   9.163   0.070 -0.8359 -1.5135 -0.4796
    4CHTO   O52 1405   6.787   9.348   0.161  0.4314  0.2473 -0.0335
    4CHTO   C86 1406   6.763   9.418   0.282  0.5648  0.0014 -0.2036
    4CHTO  H158 1407   6.855   9.397   0.339  0.2483  0.0104  0.3130
    4CHTO   C90 1408   6.762   9.572   0.256 -0.3266  0.1052  0.6608
    4CHTO   O60 1409   6.659   9.604   0.167 -1.1165 -0.2974 -0.6681
    4CHTO  H138 1410   6.595   9.536   0.157  0.0660 -1.8319  1.9791
    4CHTO   O50 1411   6.942   9.187   0.250 -0.0131  0.3101 -0.4889
    4CHTO   C73 1412   7.072   9.251   0.250  0.5823 -0.0877  0.9909
    4CHTO  H145 1413   7.065   9.351   0.294 -0.4800  0.5471 -0.5576
    4CHTO   C74 1414   7.117   9.264   0.098 -0.1543  0.5594 -1.4539
    4CHTO  H146 1415   7.045   9.331   0.048 -0.4016  1.8848  0.6292
    4CHTO   O54 1416   7.248   9.327   0.096  0.0229 -0.1768  0.5559
    4CHTO  H133 1417   7.269   9.347   0.007  2.2682 -2.5882  0.4871
    4CHTO   C75 1418   7.128   9.125   0.030 -0.3432 -0.5209  1.3060
    4CHTO  H147 1419   7.029   9.077   0.029 -0.0636 -1.0859  0.4419
    4CHTO   N13 1420   7.169   9.129  -0.113 -0.2005 -0.1301  0.2157
    4CHTO  H139 1421   7.213   9.034  -0.138  2.7237  1.0081  0.7332
    4CHTO  H140 1422   7.244   9.205  -0.129  0.7149 -1.4540 -2.0898
    4CHTO   C76 1423   7.223   9.031   0.126  0.4891 -0.1778  0.3234
    4CHTO  H148 1424   7.325   9.070   0.121 -0.1914  1.6696  0.5756
    4CHTO   O49 1425   7.188   9.035   0.269  0.2609  0.2407  0.1792
    4CHTO   C77 1426   7.177   9.163   0.326 -0.1862  0.6289 -0.1968
    4CHTO  H149 1427   7.275   9.209   0.319 -0.3160  1.0253  0.5436
    4CHTO   C88 1428   7.133   9.147   0.468 -0.7421 -0.4262 -0.2068
    4CHTO   O58 1429   7.020   9.040   0.497 -0.1968 -0.6932  0.2634
    4CHTO  H136 1430   6.955   9.073   0.556 -2.9482 -1.6729 -2.1403
    4CHTO   O51 1431   7.207   8.900   0.089 -0.2797  0.6786  0.4711
    4CHTO   C78 1432   7.348   8.812   0.086  1.1832 -0.5308  0.0397
    4CHTO  H150 1433   7.419   8.854   0.160 -0.4460  1.3742  0.5983
    4CHTO   C80 1434   7.418   8.815  -0.053 -0.1962 -0.1184 -0.6372
    4CHTO  H152 1435   7.339   8.806  -0.130  0.0487  1.7928 -1.1270
    4CHTO   O55 1436   7.460   8.950  -0.058 -0.3128 -0.5429 -0.2446
    4CHTO  H134 1437   7.392   9.012  -0.079 -0.8448 -1.2616 -0.6603
    4CHTO   C84 1438   7.545   8.713  -0.063 -0.6693 -0.0508 -0.0865
    4CHTO  H156 1439   7.614   8.746   0.014 -0.0039 -0.0910 -0.6660
    4CHTO   N15 1440   7.615   8.705  -0.202 -0.8079 -0.0188 -0.1681
    4CHTO  H143 1441   7.700   8.641  -0.191  0.8404  2.2152  0.5099
    4CHTO  H144 1442   7.647   8.800  -0.238  0.2505  0.2513  1.4206
    4CHTO   C87 1443   7.506   8.577  -0.006 -1.0766  0.4021  0.2997
    4CHTO  H159 1444   7.433   8.524  -0.068 -0.5292 -0.9938  0.8176
    4CHTO   O53 1445   7.442   8.596   0.128  0.0825  0.2568 -0.3060
    4CHTO   C82 1446   7.320   8.672   0.131  0.1046  0.1545  0.5076
    4CHTO  H154 1447   7.249   8.624   0.064 -0.7666  2.4588 -0.2315
    4CHTO   C89 1448   7.258   8.666   0.271  0.1275  0.3764  0.4315
    4CHTO   O59 1449   7.231   8.526   0.304  0.3198  0.5899 -0.5210
    4CHTO  H137 1450   7.151   8.503   0.261  0.0987 -1.9246  1.1647
    4CHTO   O45 1451   7.632   8.472   0.022  0.4215  0.2287 -0.1716
    4CHTO   C67 1452   7.633   8.362  -0.066 -0.0991  0.1735 -0.9168
    4CHTO  H124 1453   7.583   8.392  -0.158  1.2590 -0.0935 -1.7406
    4CHTO   C65 1454   7.774   8.318  -0.092  0.3705 -0.1259  0.3928
    4CHTO  H122 1455   7.831   8.406  -0.124  0.4375 -0.2951  0.0403
    4CHTO   O44 1456   7.780   8.229  -0.209 -0.2828  0.2973  0.1953
    4CHTO  H102 1457   7.866   8.192  -0.211  0.6232  2.3240 -0.5197
    4CHTO   C63 1458   7.840   8.270   0.042 -0.1377 -0.1443  0.2977
    4CHTO  H120 1459   7.828   8.354   0.109  0.1111 -1.6199  2.2440
    4CHTO   N11 1460   7.991   8.252   0.044  0.1249  0.2655  0.2540
    4CHTO  H108 1461   8.036   8.321  -0.024  1.3880 -0.0842  0.7346
    4CHTO  H109 1462   8.030   8.244   0.143  0.2236 -1.6242  0.0871
    4CHTO   C61 1463   7.759   8.146   0.099  0.4607 -0.7641  0.1596
    4CHTO  H118 1464   7.780   8.145   0.207 -1.5896 -0.9737  0.5711
    4CHTO   O40 1465   7.614   8.151   0.085  0.3118 -0.0782 -0.2706
    4CHTO   C68 1466   7.552   8.240  -0.013 -0.2829 -0.2433  0.1853
    4CHTO  H125 1467   7.459   8.283   0.028 -1.5697 -0.6396 -2.2226
    4CHTO   C72 1468   7.512   8.137  -0.121  0.0323 -0.0644 -0.5266
    4CHTO   O48 1469   7.472   8.192  -0.246  0.2988  1.0102  0.1505
    4CHTO  H105 1470   7.429   8.123  -0.292 -0.4027  0.2925  1.8405
    4CHTO   O38 1471   7.797   8.017   0.055 -0.5178  0.0175 -0.4204
    4CHTO   C55 1472   7.784   7.907   0.143 -0.3858  0.1004  0.4508
    4CHTO  H112 1473   7.688   7.924   0.194 -0.7286 -0.3931 -0.0370
    4CHTO   C56 1474   7.904   7.885   0.247  0.0905 -0.5129 -0.5532
    4CHTO  H113 1475   7.996   7.890   0.187  2.4015 -1.4258  2.7741
    4CHTO   O42 1476   7.910   7.994   0.338  0.8272 -0.5990 -0.0880
    4CHTO  H100 1477   7.844   7.988   0.404  0.4822  0.6639 -0.2998
    4CHTO   C57 1478   7.895   7.745   0.323  0.2135 -0.1411 -0.0825
    4CHTO  H114 1479   7.808   7.755   0.389  1.1459 -1.6324  1.3988
    4CHTO   N10 1480   8.020   7.711   0.403 -0.2167  0.1742 -0.7918
    4CHTO  H106 1481   7.987   7.697   0.505  1.3503  0.3428 -0.2532
    4CHTO  H107 1482   8.095   7.788   0.401  0.0486 -0.1037 -1.4483
    4CHTO   C58 1483   7.866   7.633   0.220  0.5570  0.0778  0.6142
    4CHTO  H115 1484   7.954   7.620   0.153 -1.1033  1.2549 -1.8568
    4CHTO   O37 1485   7.758   7.665   0.140 -0.0707 -0.1487 -1.0361
    4CHTO   C59 1486   7.772   7.783   0.060  0.4382 -0.5235  0.1547
    4CHTO  H116 1487   7.858   7.765  -0.004 -0.3895  0.6855 -1.3387
    4CHTO   C70 1488   7.648   7.798  -0.032  0.2751  0.1549 -0.5583
    4CHTO   O46 1489   7.636   7.711  -0.139 -0.1201 -0.2988 -0.3027
    4CHTO  H103 1490   7.586   7.634  -0.120 -0.3335 -0.0628  0.0989
    4CHTO   O39 1491   7.832   7.476   0.279 -0.3856 -0.3145 -0.1742
    4CHTO   C60 1492   7.791   7.377   0.184  1.0337 -0.5552  0.1777
    4CHTO  H117 1493   7.687   7.398   0.160  0.6215 -1.9078  0.7345
    4CHTO   C62 1494   7.887   7.373   0.059 -0.2911  0.2007  0.8756
    4CHTO  H119 1495   7.878   7.462  -0.006 -0.0916 -0.4925 -0.1083
    4CHTO   O43 1496   8.026   7.374   0.094  0.3481  0.6354 -0.1699
    4CHTO  H101 1497   8.052   7.448   0.146  0.6919  2.2607 -2.5718
    4CHTO   C66 1498   7.849   7.248  -0.046  0.2058 -0.3257 -0.0176
    4CHTO  H123 1499   7.743   7.256  -0.070  0.5503 -1.3248 -1.9153
    4CHTO   N12 1500   7.921   7.246  -0.174 -0.4871  0.0925 -0.3002
    4CHTO  H110 1501   7.938   7.343  -0.217  0.3450 -0.2799 -0.8345
    4CHTO  H111 1502   7.877   7.176  -0.243 -1.8064 -1.1642  1.7434
    4CHTO   C69 1503   7.863   7.116   0.028 -0.0058 -0.2546  0.5146
    4CHTO  H126 1504   7.972   7.111   0.050  0.0033 -0.8010  0.3690
    4CHTO   O41 1505   7.777   7.123   0.166 -0.4104  0.1596  0.0819
    4CHTO   C64 1506   7.795   7.239   0.257 -0.5910 -0.1795 -0.2431
    4CHTO  H121 1507   7.894   7.227   0.306 -0.5430  0.8043 -0.0975
    4CHTO   C71 1508   7.686   7.236   0.366  0.2943  0.0590 -0.4802
    4CHTO   O47 1509   7.709   7.327   0.479 -0.5162  0.2840 -0.1181
    4CHTO  H104 1510   7.635   7.327   0.536 -0.7292 -3.8852 -0.2297
    4CHTO   O34 1511   7.803   6.994  -0.061  0.7959  0.2077 -0.1630
    4CHTO   C49 1512   7.698   6.905  -0.097 -0.1723  0.2595  1.0693
    4CHTO   H91 1513   7.746   6.824  -0.152  1.0428  0.0915  2.3671
    4CHTO   C47 1514   7.584   6.962  -0.186 -0.6725 -0.4396  0.8192
    4CHTO   H89 1515   7.616   6.940  -0.290  0.1564  0.0330  0.9649
    4CHTO   O33 1516   7.565   7.103  -0.172  0.3027 -0.2966  0.2239
    4CHTO   H70 1517   7.559   7.113  -0.079  1.5151 -3.2961  0.6621
    4CHTO   C45 1518   7.442   6.895  -0.158  0.5218 -0.2892 -0.1895
    4CHTO   H87 1519   7.392   6.941  -0.071 -0.3116  0.1078 -0.8636
    4CHTO    N8 1520   7.352   6.908  -0.277  0.2170  0.1889 -0.1117
    4CHTO   H75 1521   7.385   6.848  -0.360 -1.3006 -0.9194  0.0581
    4CHTO   H76 1522   7.246   6.890  -0.262 -0.1245  1.4238 -0.9600
    4CHTO   C43 1523   7.460   6.736  -0.109  0.2904  0.1589  0.3121
    4CHTO   H85 1524   7.360   6.699  -0.091  0.7170  0.0316  2.5278
    4CHTO   O29 1525   7.536   6.742   0.012 -0.0719 -0.4215  0.2556
    4CHTO   C50 1526   7.636   6.846   0.032 -0.4490 -0.7867  0.0554
    4CHTO   H92 1527   7.580   6.916   0.095  1.3906 -1.0068  2.0117
    4CHTO   C54 1528   7.744   6.796   0.135  0.7470 -0.4677 -0.2601
    4CHTO   O36 1529   7.686   6.774   0.267  0.0363  0.1955 -0.2699
    4CHTO   H72 1530   7.631   6.699   0.270 -0.8214  0.6816 -2.5305
    4CHTO   O27 1531   7.532   6.657  -0.207  0.0670  0.0902  0.4707
    4CHTO   C37 1532   7.586   6.538  -0.265 -0.2252  0.2954  0.2525
    4CHTO   H79 1533   7.555   6.531  -0.371  0.4268  2.6207 -0.1147
    4CHTO   C38 1534   7.743   6.567  -0.270  0.3547  0.4764  0.6681
    4CHTO   H80 1535   7.767   6.611  -0.172 -1.0050  0.2395  1.1144
    4CHTO   O31 1536   7.771   6.664  -0.377  0.2349  0.2358  0.1032
    4CHTO   H68 1537   7.853   6.704  -0.358  1.4697 -2.5593  0.8294
    4CHTO   C39 1538   7.824   6.435  -0.288  0.2905 -0.3617 -0.7370
    4CHTO   H81 1539   7.799   6.402  -0.390  0.8655 -1.6832 -0.4642
    4CHTO    N7 1540   7.973   6.455  -0.275 -0.6418  0.4925  0.5412
    4CHTO   H73 1541   7.986   6.487  -0.172 -1.0550  2.0213  0.1411
    4CHTO   H74 1542   8.014   6.362  -0.309 -2.7235 -0.0798 -0.5091
    4CHTO   C40 1543   7.779   6.325  -0.187  1.3122  0.6497 -0.0674
    4CHTO   H82 1544   7.804   6.346  -0.082  0.5561 -2.1366  0.7177
    4CHTO   O26 1545   7.635   6.293  -0.201  0.0979  0.0119  0.3608
    4CHTO   C41 1546   7.553   6.417  -0.176 -0.1008 -0.1706 -0.4325
    4CHTO   H83 1547   7.572   6.446  -0.071  2.1317  0.2698 -0.9151
    4CHTO   C52 1548   7.403   6.376  -0.178 -0.2106  0.1977 -0.5299
    4CHTO   O35 1549   7.362   6.288  -0.062 -0.6365  0.7352 -0.3861
    4CHTO   H71 1550   7.430   6.273   0.001 -1.0007 -1.6034 -0.4889
    4CHTO   O28 1551   7.827   6.194  -0.230  0.1621 -0.0120  0.0972
    4CHTO   C42 1552   7.914   6.117  -0.134 -0.1078  0.3197 -0.6137
    4CHTO   H84 1553   7.960   6.197  -0.075 -2.4522  1.4290 -0.1822
    4CHTO   C44 1554   8.037   6.042  -0.194  0.9849 -0.4845  0.2702
    4CHTO   H86 1555   8.004   5.949  -0.240  0.7846  0.1608 -0.9134
    4CHTO   O32 1556   8.104   6.126  -0.285  0.2403 -0.1354  0.1046
    4CHTO   H69 1557   8.162   6.080  -0.343  0.2453 -0.3187  0.2567
    4CHTO   C48 1558   8.139   6.001  -0.076 -0.5547  0.6067  0.3937
    4CHTO   H90 1559   8.172   6.102  -0.051  0.0481  2.1567 -5.8342
    4CHTO    N9 1560   8.248   5.929  -0.135  0.0114  0.0971  0.3754
    4CHTO   H77 1561   8.302   6.002  -0.195  0.0223  1.1478  1.6408
    4CHTO   H78 1562   8.307   5.872  -0.066  1.0488  0.4799 -0.1729
    4CHTO   C51 1563   8.072   5.923   0.043 -0.1163  0.3477 -0.3833
    4CHTO   H93 1564   8.042   5.827   0.000 -1.4627  0.4763  0.2576
    4CHTO   O30 1565   7.957   6.001   0.076 -0.1272 -0.0297  0.4678
    4CHTO   C46 1566   7.851   6.018  -0.037 -0.9172 -1.1520  0.0023
    4CHTO   H88 1567   7.835   5.919  -0.080 -2.7226 -1.0612  0.4230
    4CHTO   C53 1568   7.731   6.079   0.030  0.0353  0.1059 -0.5998
    4CHTO   O72 1569   7.606   6.009   0.007  0.4608  0.3957  0.1934
    4CHTO  H199 1570   7.536   6.069   0.023  1.7943  1.5636  1.8390
    4CHTO   O22 1571   8.141   5.909   0.170 -0.0135 -0.2769 -0.0678
    4CHTO   C31 1572   8.079   5.869   0.298  0.1879  0.1577  0.4580
    4CHTO   H59 1573   7.980   5.920   0.301 -1.3796 -2.5340 -2.3402
    4CHTO   C29 1574   8.055   5.720   0.304  0.2977 -0.4592  0.7911
    4CHTO   H57 1575   8.150   5.666   0.316  0.8362  0.4526  0.6948
    4CHTO   O21 1576   7.987   5.671   0.184 -0.3807 -0.1234 -0.4061
    4CHTO   H37 1577   7.968   5.579   0.189 -0.2618 -0.2439 -1.8026
    4CHTO   C27 1578   7.955   5.684   0.433  0.0232 -0.2975  0.0251
    4CHTO   H55 1579   7.864   5.746   0.427  1.4834  1.8142 -0.6882
    4CHTO    N5 1580   7.923   5.537   0.457 -0.4846 -0.2117  0.0696
    4CHTO   H43 1581   7.916   5.494   0.358  2.3859  0.0047 -0.2828
    4CHTO   H44 1582   8.012   5.496   0.503  1.3440  2.7214 -0.6961
    4CHTO   C25 1583   8.028   5.749   0.557  0.1414  0.5709 -0.3874
    4CHTO   H53 1584   8.111   5.688   0.594  0.5715  0.0171 -2.2271
    4CHTO   O17 1585   8.076   5.887   0.535 -0.3905  0.0659 -0.7444
    4CHTO   C32 1586   8.155   5.915   0.423 -0.0204  0.4508 -0.1696
    4CHTO   H60 1587   8.246   5.857   0.438 -1.7600 -2.2331  0.3693
    4CHTO   C36 1588   8.186   6.070   0.413 -0.1620  0.2986 -0.5999
    4CHTO   O25 1589   8.267   6.107   0.523  0.2360  0.0308 -0.3819
    4CHTO   H40 1590   8.214   6.149   0.588 -0.4989 -1.0562 -0.2659
    4CHTO   O15 1591   7.922   5.744   0.678 -0.3045  0.2288  0.2948
    4CHTO   C19 1592   7.896   5.838   0.793 -0.1041 -0.8943 -0.0246
    4CHTO   H47 1593   7.801   5.804   0.837  0.1080  0.4690  1.5395
    4CHTO   C20 1594   8.012   5.839   0.899 -1.1722 -0.4775 -0.0233
    4CHTO   H48 1595   8.107   5.877   0.859 -1.2556 -0.6909 -0.4272
    4CHTO   O19 1596   8.047   5.700   0.922 -0.6577  0.2976  0.0785
    4CHTO   H35 1597   8.130   5.693   0.966 -0.8422  0.9858  0.5501
    4CHTO   C21 1598   7.958   5.923   1.020 -0.8623 -0.6973 -0.0566
    4CHTO   H49 1599   7.865   5.876   1.053 -0.9878  0.5215  1.3492
    4CHTO    N4 1600   8.062   5.927   1.127  0.0558 -0.2734  0.2414
    4CHTO   H41 1601   8.023   5.971   1.217  1.8894  1.9270  0.0019
    4CHTO   H42 1602   8.148   5.984   1.096 -0.8440 -0.0842 -1.9586
    4CHTO   C22 1603   7.920   6.068   0.968  0.2838 -0.8028  0.1990
    4CHTO   H50 1604   8.012   6.104   0.920 -0.4068  0.9464  0.1596
    4CHTO   O14 1605   7.828   6.064   0.859  0.1986  0.3204  0.6970
    4CHTO   C23 1606   7.859   5.976   0.750 -0.3483 -0.4675  0.2968
    4CHTO   H51 1607   7.942   6.025   0.696 -0.6737 -0.9678 -0.6641
    4CHTO   C34 1608   7.735   5.969   0.658  0.1469  0.6589  0.2297
    4CHTO   O23 1609   7.718   6.094   0.588  0.0957  0.4681  0.4479
    4CHTO   H38 1610   7.682   6.073   0.504  1.2061  1.3683 -0.2674
    4CHTO   O16 1611   7.871   6.161   1.069 -0.9107  0.5296 -0.0523
    4CHTO   C24 1612   7.844   6.309   1.020 -0.4476 -0.0228 -0.6178
    4CHTO   H52 1613   7.829   6.314   0.912 -1.7435 -0.4577 -0.4624
    4CHTO   C26 1614   7.970   6.380   1.079 -0.1827  0.0622 -0.2462
    4CHTO   H54 1615   7.969   6.368   1.189  0.0757 -1.4281 -0.3908
    4CHTO   O20 1616   8.088   6.311   1.031  0.5037 -0.4691 -0.1889
    4CHTO   H36 1617   8.107   6.329   0.940 -1.5985  0.2041 -0.5085
    4CHTO   C30 1618   7.963   6.527   1.040 -0.1496  0.4841  0.0146
    4CHTO   H58 1619   7.969   6.529   0.930  3.4990 -3.3129  0.0176
    4CHTO    N6 1620   8.085   6.600   1.084 -0.4176 -0.6476 -0.3947
    4CHTO   H45 1621   8.129   6.648   0.998 -0.8924  0.9430  0.2296
    4CHTO   H46 1622   8.155   6.528   1.125 -0.8155 -1.2824 -0.8366
    4CHTO   C33 1623   7.825   6.595   1.072 -0.2848 -0.0519 -0.0154
    4CHTO   H61 1624   7.827   6.611   1.181  0.6996 -1.6884  0.2282
    4CHTO   O18 1625   7.715   6.505   1.040 -0.7022 -0.7248  0.5372
    4CHTO   C28 1626   7.719   6.367   1.085  0.2459 -0.4248  0.0819
    4CHTO   H56 1627   7.732   6.358   1.193  1.6222  2.9952  0.2721
    4CHTO   C35 1628   7.591   6.287   1.046  0.2598 -0.3909  0.3021
    4CHTO   O24 1629   7.463   6.343   1.088 -0.4135  0.1774  0.1920
    4CHTO   H39 1630   7.398   6.329   1.022 -0.8847  1.3515  0.3956
    4CHTO    O9 1631   7.806   6.728   1.016 -0.0832 -0.8339  0.4756
    4CHTO   C13 1632   7.683   6.820   1.077  0.0011  0.2922 -0.2310
    4CHTO   H26 1633   7.593   6.755   1.086 -0.1375  0.3102 -1.3893
    4CHTO   C11 1634   7.659   6.941   0.987 -0.4827 -1.0490  0.6695
    4CHTO   H24 1635   7.626   6.907   0.888 -0.0111  0.4099  0.0050
    4CHTO    O8 1636   7.779   7.020   0.969 -0.3545 -0.3028 -0.3920
    4CHTO    H3 1637   7.835   7.033   1.042 -0.4974  3.6936 -0.8648
    4CHTO    C9 1638   7.541   7.020   1.055  0.3190 -0.4151 -0.1352
    4CHTO   H22 1639   7.458   6.948   1.061  0.0511 -0.0083  1.4980
    4CHTO    N2 1640   7.485   7.126   0.965 -0.2414 -0.4006  0.0380
    4CHTO   H10 1641   7.427   7.085   0.884 -0.8983  1.5256 -0.4894
    4CHTO   H11 1642   7.420   7.195   1.017 -0.2488 -0.5200  0.1882
    4CHTO    C7 1643   7.575   7.072   1.200  0.1845  0.2609  0.3193
    4CHTO   H20 1644   7.482   7.116   1.241 -0.7783 -1.0558 -0.4085
    4CHTO    O4 1645   7.619   6.964   1.277 -0.7926  0.1512 -0.2458
    4CHTO   C14 1646   7.722   6.867   1.226 -0.0616 -0.6792 -0.0938
    4CHTO   H27 1647   7.705   6.772   1.282  0.1150 -1.8490 -1.9630
    4CHTO   C18 1648   7.866   6.910   1.247  0.4723 -0.2920 -0.0239
    4CHTO   O13 1649   7.897   6.914   1.388  0.1328 -0.3812  0.2770
    4CHTO    H7 1650   7.981   6.879   1.408  0.0031 -0.8730 -0.0284
    4CHTO    O2 1651   7.686   7.179   1.203  0.4583 -0.0766 -0.3703
    4CHTO    C1 1652   7.639   7.305   1.261 -0.0564 -0.0918  0.4180
    4CHTO   H14 1653   7.530   7.320   1.250  0.5345  4.0423 -0.4752
    4CHTO    C2 1654   7.705   7.430   1.201 -0.2268 -0.4541 -0.1473
    4CHTO   H15 1655   7.813   7.407   1.198 -0.1685 -0.6968  2.6440
    4CHTO    O6 1656   7.674   7.454   1.065 -0.0509  0.0930 -0.0017
    4CHTO    H1 1657   7.698   7.543   1.045 -2.0142  1.4169  3.2137
    4CHTO    C3 1658   7.668   7.565   1.295 -0.5079 -0.0219 -0.0311
    4CHTO   H16 1659   7.560   7.577   1.279 -0.1784  1.5052 -1.2422
    4CHTO    N1 1660   7.745   7.693   1.262 -0.0108  0.4041  0.1325
    4CHTO    H8 1661   7.706   7.768   1.330  1.0932  0.9188  0.2033
    4CHTO    H9 1662   7.713   7.707   1.160  0.7401  0.3509 -0.1122
    4CHTO    C4 1663   7.689   7.537   1.448 -0.4412 -0.5510  0.4224
    4CHTO   H17 1664   7.795   7.540   1.473 -0.4354 -0.5622  0.3971
    4CHTO    O1 1665   7.619   7.421   1.478 -0.6242  0.0064 -0.2741
    4CHTO    C5 1666   7.666   7.307   1.414 -0.5367  0.4645 -0.3840
    4CHTO   H18 1667   7.774   7.306   1.426 -0.3045  0.3472 -2.3265
    4CHTO   C16 1668   7.617   7.197   1.510  0.3156  0.0912 -0.2723
    4CHTO   O11 1669   7.482   7.159   1.491  0.8084  0.6264  0.6110
    4CHTO    H5 1670   7.421   7.226   1.515 -0.3721  0.2797 -1.2328
    4CHTO    O3 1671   7.610   7.627   1.530 -0.2867  0.7309 -0.1451
    4CHTO    C6 1672   7.688   7.712   1.624  0.1142 -0.0116 -0.5644
    4CHTO   H19 1673   7.792   7.723   1.593 -0.0326 -0.6667 -1.2978
    4CHTO    C8 1674   7.631   7.857   1.635  0.4415  0.4880  0.0351
    4CHTO   H21 1675   7.528   7.853   1.671 -0.0249  3.1191 -0.9270
    4CHTO    O7 1676   7.615   7.912   1.503 -0.0205 -0.2235  0.6850
    4CHTO    H2 1677   7.577   7.998   1.508  1.2340  0.3518  0.5141
    4CHTO   C12 1678   7.711   7.953   1.742  0.4555 -0.0828  1.1088
    4CHTO   H25 1679   7.811   7.973   1.698 -0.2084 -1.2204 -1.0375
    4CHTO    N3 1680   7.646   8.092   1.766  0.6758 -0.5814  0.1096
    4CHTO   H12 1681   7.635   8.147   1.674 -1.4795  1.4711  1.5578
    4CHTO   H13 1682   7.691   8.147   1.847  1.1337  1.7705 -1.6731
    4CHTO   C15 1683   7.726   7.873   1.874  0.2291 -0.4983  0.1436
    4CHTO   H28 1684   7.644   7.884   1.945  1.7501 -1.7902  2.1557
    4CHTO   O10 1685   7.859   7.917   1.940  0.2295  0.1676 -0.3206
    4CHTO    H4 1686   7.922   7.920   1.870 -0.2785 -0.4722 -0.8024
    4CHTO    O5 1687   7.775   7.736   1.856 -0.1649  0.1923  0.0325
    4CHTO   C10 1688   7.690   7.653   1.775  0.1144  0.1442 -0.3696
    4CHTO   H23 1689   7.586   7.666   1.807 -0.2023  0.1743 -1.3934
    4CHTO   C17 1690   7.715   7.501   1.789  0.6825 -0.5849  0.2270
    4CHTO   O12 1691   7.709   7.463   1.927  0.2241  0.4914 -0.1610
    4CHTO    H6 1692   7.640   7.400   1.935  1.2556 -0.8233 -1.3079
    5CHTO  H203 1693   8.111   3.873   0.311  0.1965 -0.9690  0.8190
    5CHTO   O82 1694   8.043   3.875   0.376 -0.4040  0.3958  0.1644
    5CHTO  C123 1695   8.054   3.753   0.442  1.2126  0.1392  0.5563
    5CHTO  H227 1696   8.089   3.674   0.374  3.3723  1.5647 -0.0131
    5CHTO   O77 1697   8.148   3.782   0.551  0.3068  0.6025 -0.1554
    5CHTO  C118 1698   8.175   3.659   0.625 -0.2505 -1.2462 -0.0870
    5CHTO  H222 1699   8.192   3.577   0.555 -2.0312 -2.7523  1.2018
    5CHTO  C125 1700   8.306   3.692   0.713 -0.0944 -0.4238  0.3338
    5CHTO   O84 1701   8.279   3.771   0.828 -0.1042  0.6839  0.2429
    5CHTO  H205 1702   8.367   3.790   0.855  0.5302 -1.5601 -0.1800
    5CHTO  C114 1703   8.046   3.619   0.709 -0.4111 -0.6102 -0.1703
    5CHTO  H218 1704   8.008   3.706   0.763  1.3675  0.6258 -0.8836
    5CHTO  C116 1705   7.939   3.580   0.602 -0.0276  0.2673 -0.8228
    5CHTO  H220 1706   7.962   3.490   0.541 -0.8723  0.6352 -1.7063
    5CHTO   O79 1707   7.812   3.543   0.670  0.2762 -0.1438  0.1815
    5CHTO  H201 1708   7.769   3.474   0.625 -0.6696  0.2876  0.4050
    5CHTO  C120 1709   7.915   3.707   0.502 -0.3012  1.1192  0.3933
    5CHTO  H224 1710   7.873   3.793   0.558 -0.2238  0.7323  1.0426
    5CHTO   N21 1711   7.822   3.667   0.397  0.1711 -0.1508  0.3161
    5CHTO  H211 1712   7.881   3.608   0.328 -1.5894 -0.6993 -0.7564
    5CHTO  H212 1713   7.801   3.756   0.339  2.9452  0.8505  0.7790
    5CHTO   O75 1714   8.080   3.524   0.809  0.1526 -0.0578  0.2732
    5CHTO  C112 1715   7.970   3.470   0.917 -0.0352 -0.4968 -0.1908
    5CHTO  H216 1716   7.882   3.427   0.867  0.1744 -0.1558 -0.8503
    5CHTO   O73 1717   7.933   3.580   0.997  0.1818 -0.1124  0.3578
    5CHTO  C113 1718   7.805   3.543   1.062 -0.0157 -0.4220 -1.1901
    5CHTO  H217 1719   7.737   3.494   0.989  0.3534 -1.3860 -0.8818
    5CHTO  C124 1720   7.735   3.673   1.104  0.2156  0.5785 -0.2387
    5CHTO   O83 1721   7.813   3.748   1.200 -0.2309 -0.5500 -0.7391
    5CHTO  H204 1722   7.847   3.702   1.274 -0.1010 -2.1642 -1.7785
    5CHTO  C109 1723   7.838   3.441   1.176  0.3169 -0.3825 -0.5224
    5CHTO  H213 1724   7.893   3.494   1.255  0.6112 -1.2311 -0.1505
    5CHTO  C110 1725   7.922   3.319   1.125  0.1917  0.7245  0.2119
    5CHTO  H214 1726   7.852   3.256   1.071  0.4004  2.4694 -2.1624
    5CHTO   O78 1727   7.975   3.231   1.231  0.5682 -0.5611 -0.0881
    5CHTO  H200 1728   8.024   3.271   1.301 -1.1893  0.5489  0.5497
    5CHTO  C111 1729   8.029   3.359   1.012  0.1157 -0.1769 -0.8307
    5CHTO  H215 1730   8.117   3.400   1.063  0.6129 -1.5616 -0.5477
    5CHTO   N19 1731   8.073   3.242   0.931  0.2467 -0.3777 -0.4368
    5CHTO  H207 1732   8.170   3.206   0.964 -0.5761 -2.7667 -0.5682
    5CHTO  H208 1733   8.005   3.167   0.967  1.4916 -0.5315  1.6773
    5CHTO   O74 1734   7.709   3.399   1.233  0.5102 -0.2566 -0.0924
    5CHTO  C115 1735   7.707   3.356   1.391  0.1650  0.0395  0.2026
    5CHTO  H219 1736   7.784   3.282   1.410  0.1944 -0.1210 -0.5161
    5CHTO   O76 1737   7.741   3.478   1.477  0.6985 -0.4778 -0.2094
    5CHTO  C122 1738   7.640   3.585   1.485  0.4179  0.3008  0.4293
    5CHTO  H226 1739   7.675   3.644   1.401  0.3846  0.9305  0.8544
    5CHTO  C126 1740   7.664   3.675   1.610 -0.1965  0.1321  0.2294
    5CHTO   O85 1741   7.798   3.734   1.608 -0.4479 -0.9847  0.1539
    5CHTO  H206 1742   7.840   3.751   1.691  0.2090 -0.0086 -0.3678
    5CHTO  C121 1743   7.485   3.532   1.466  0.1710  0.4278 -0.2217
    5CHTO  H225 1744   7.428   3.589   1.541  2.4294  0.0569  1.8365
    5CHTO   O81 1745   7.434   3.580   1.339 -0.4460  0.1610  0.0181
    5CHTO  H202 1746   7.350   3.543   1.319  0.2682 -1.4211 -0.1678
    5CHTO  C119 1747   7.477   3.380   1.507 -0.6062  0.5412 -0.6840
    5CHTO  H223 1748   7.509   3.391   1.611  0.4977 -0.7998 -0.8583
    5CHTO  C117 1749   7.567   3.289   1.428  0.3023 -0.4612  0.4803
    5CHTO  H221 1750   7.538   3.258   1.327  0.9453  0.0328  0.1413
    5CHTO   N20 1751   7.579   3.162   1.502 -0.2097  0.1176  0.3662
    5CHTO  H209 1752   7.673   3.120   1.469 -0.9867  0.1394 -1.9821
    5CHTO  H210 1753   7.508   3.091   1.462  0.0325 -0.7307  1.4512
    5CHTO   O80 1754   7.326   3.345   1.526  0.2516  0.0470 -0.5917
    5CHTO  C103 1755   7.228   3.357   1.412 -0.6868 -0.1511  0.1056
    5CHTO  H190 1756   7.244   3.442   1.345  0.4894 -0.8280 -0.4955
    5CHTO  C101 1757   7.221   3.223   1.313 -0.0657 -0.6695 -0.6094
    5CHTO  H188 1758   7.261   3.143   1.376  0.3138  1.6450  2.1771
    5CHTO   O68 1759   7.333   3.248   1.192  0.4971  0.6072  0.3595
    5CHTO  H168 1760   7.393   3.176   1.195 -0.8698 -0.5355  0.8719
    5CHTO   C99 1761   7.078   3.198   1.250 -1.0251 -0.5781  0.1613
    5CHTO  H186 1762   7.067   3.267   1.164  1.5561 -0.6416 -0.2553
    5CHTO   N17 1763   7.074   3.065   1.181  0.2047  0.0173 -0.1106
    5CHTO  H174 1764   7.003   2.996   1.225 -0.4886  2.2279  2.3022
    5CHTO  H175 1765   7.172   3.020   1.184 -0.7483 -2.4846 -2.9660
    5CHTO   C97 1766   6.959   3.220   1.343  0.0140  0.4225 -0.2836
    5CHTO  H184 1767   6.962   3.138   1.416  0.5469  0.6199 -0.0840
    5CHTO   O64 1768   6.970   3.347   1.406  0.0204 -0.6677  0.7201
    5CHTO  C104 1769   7.089   3.379   1.484 -0.4817  0.3900 -0.6213
    5CHTO  H191 1770   7.085   3.308   1.566  0.3283  0.2526 -0.6912
    5CHTO  C108 1771   7.083   3.517   1.551 -0.2027 -0.2063 -0.3470
    5CHTO   O71 1772   7.051   3.614   1.447  0.2375  0.0493  0.4250
    5CHTO  H171 1773   7.073   3.700   1.477  4.2419 -0.3932 -0.9958
    5CHTO   O62 1774   6.837   3.224   1.264 -0.0723  0.2045  0.7609
    5CHTO   C91 1775   6.715   3.228   1.337 -0.6091 -0.0515  0.1616
    5CHTO  H178 1776   6.738   3.239   1.443  0.7799 -0.7316 -0.0544
    5CHTO   C92 1777   6.658   3.082   1.324  0.0584 -0.3101  0.6239
    5CHTO  H179 1778   6.645   3.050   1.220  0.8239  0.3390  0.3213
    5CHTO   O66 1779   6.744   2.983   1.383  0.5840 -0.2894 -0.3845
    5CHTO  H166 1780   6.830   3.019   1.391 -0.0404  0.9416  1.2645
    5CHTO   C93 1781   6.506   3.070   1.373 -0.7419  0.3600 -0.5424
    5CHTO  H180 1782   6.508   3.076   1.483  0.6052 -3.0182 -0.3295
    5CHTO   N16 1783   6.453   2.934   1.333  0.2404  0.1744 -0.6467
    5CHTO  H172 1784   6.453   2.911   1.227  1.1229  0.6260 -0.7467
    5CHTO  H173 1785   6.362   2.902   1.382 -0.2243 -0.9964 -2.2204
    5CHTO   C94 1786   6.425   3.187   1.314  0.0905  0.2639 -0.1635
    5CHTO  H181 1787   6.419   3.183   1.206  2.1082 -0.7893 -0.2592
    5CHTO   O61 1788   6.491   3.311   1.346  0.1203 -0.1689  0.2987
    5CHTO   C95 1789   6.614   3.330   1.274  0.5536  0.3051  0.2696
    5CHTO  H182 1790   6.601   3.310   1.167  0.9299 -0.8018  0.4255
    5CHTO  C106 1791   6.671   3.478   1.283 -0.0108  0.1645 -0.4100
    5CHTO   O69 1792   6.782   3.501   1.192  0.0455 -0.9399  0.2279
    5CHTO  H169 1793   6.864   3.489   1.237  0.6413  3.4353  0.5365
    5CHTO   O63 1794   6.264   3.200   1.385  0.0047 -0.7793 -0.0985
    5CHTO   C96 1795   6.145   3.158   1.273 -0.1099 -0.3271  0.1075
    5CHTO  H183 1796   6.188   3.098   1.193  0.2227  0.6046 -0.4172
    5CHTO   C98 1797   6.084   3.287   1.199  0.0124  0.5705 -0.6609
    5CHTO  H185 1798   6.027   3.352   1.267 -3.1386 -1.2641 -1.4148
    5CHTO   O67 1799   6.192   3.361   1.149  0.5585  0.1587  0.1307
    5CHTO  H167 1800   6.168   3.450   1.129 -2.5803 -0.3768  1.2614
    5CHTO  C102 1801   5.984   3.249   1.078 -0.4992 -0.0672  0.8044
    5CHTO  H189 1802   6.046   3.224   0.992 -2.3067 -2.4375  0.1500
    5CHTO   N18 1803   5.904   3.368   1.028  0.2879 -0.1747  0.1401
    5CHTO  H176 1804   5.868   3.415   1.118  1.7457 -1.2507  1.3272
    5CHTO  H177 1805   5.963   3.435   0.968  0.6066 -1.4965 -1.0507
    5CHTO  C105 1806   5.893   3.132   1.122 -0.2706 -0.0158 -0.4487
    5CHTO  H192 1807   5.800   3.168   1.166 -0.6101 -1.6004  0.1604
    5CHTO   O65 1808   5.946   3.033   1.219 -0.3555 -0.6053 -0.5475
    5CHTO  C100 1809   6.029   3.076   1.331  0.0806 -0.0422  0.1467
    5CHTO  H187 1810   5.962   3.141   1.390  0.3732  0.4233 -0.0268
    5CHTO  C107 1811   6.063   2.952   1.420  0.3983  0.4104 -0.2297
    5CHTO   O70 1812   6.132   2.970   1.546  0.2155 -0.3322  0.3320
    5CHTO  H170 1813   6.075   2.996   1.616  0.3297  1.1989 -0.1104
    5CHTO   O57 1814   5.853   3.063   0.973 -0.0553 -0.3809 -0.5362
    5CHTO   C85 1815   5.732   2.984   0.960  0.2767  0.0752 -0.1579
    5CHTO  H157 1816   5.654   3.049   1.006 -0.2954  0.6375 -1.8766
    5CHTO   C83 1817   5.741   2.857   1.056  0.6054  0.1450 -0.0366
    5CHTO  H155 1818   5.738   2.900   1.156  1.9742  0.0462  0.0516
    5CHTO   O56 1819   5.868   2.794   1.047  0.5941 -0.1689  0.4281
    5CHTO  H135 1820   5.937   2.857   1.057  0.3785  0.5857 -2.4380
    5CHTO   C81 1821   5.623   2.758   1.033  0.2721  0.5285 -1.4246
    5CHTO  H153 1822   5.531   2.810   1.057 -0.2297 -0.2834 -1.5844
    5CHTO   N14 1823   5.616   2.640   1.128  0.2970 -0.5298 -0.2923
    5CHTO  H141 1824   5.572   2.551   1.087  0.4728 -0.6672 -0.1810
    5CHTO  H142 1825   5.709   2.613   1.172 -0.2320 -1.2093  0.4331
    5CHTO   C79 1826   5.612   2.720   0.882  0.0285  0.8182  1.1082
    5CHTO  H151 1827   5.524   2.656   0.870  0.4525  0.5375 -0.6094
    5CHTO   O52 1828   5.590   2.840   0.802  0.6068  0.1985  0.0917
    5CHTO   C86 1829   5.693   2.944   0.809 -0.1517 -0.0528 -0.1715
    5CHTO  H158 1830   5.784   2.903   0.760  1.9919  2.3845  1.5747
    5CHTO   C90 1831   5.660   3.065   0.724 -0.5230 -0.5788 -0.4081
    5CHTO   O60 1832   5.635   3.028   0.586 -1.1125 -0.1835 -0.3029
    5CHTO  H138 1833   5.550   2.991   0.571 -1.5805  1.1663 -1.0323
    5CHTO   O50 1834   5.730   2.656   0.835  0.0330 -0.3709  0.0156
    5CHTO   C73 1835   5.754   2.576   0.716  0.0539  0.0124 -0.9458
    5CHTO  H145 1836   5.694   2.595   0.626  0.0605  2.8049 -0.3905
    5CHTO   C74 1837   5.733   2.428   0.755  0.7915  0.4608 -0.4777
    5CHTO  H146 1838   5.630   2.415   0.789  0.9893  2.6565  1.0260
    5CHTO   O54 1839   5.761   2.350   0.638  0.3149  0.2935  0.8683
    5CHTO  H133 1840   5.738   2.259   0.635  3.3706 -0.5052  0.6212
    5CHTO   C75 1841   5.839   2.383   0.870  0.8041  0.0786 -0.2612
    5CHTO  H147 1842   5.816   2.443   0.960 -0.2628 -0.6854 -0.0194
    5CHTO   N13 1843   5.826   2.239   0.912  0.4399  0.3577 -0.1963
    5CHTO  H139 1844   5.742   2.182   0.875  0.9216  0.3124 -1.2415
    5CHTO  H140 1845   5.815   2.236   1.019  1.0261  1.9048 -0.0773
    5CHTO   C76 1846   5.987   2.413   0.823 -0.0301  0.3754 -0.2913
    5CHTO  H148 1847   6.015   2.363   0.730 -4.4864 -0.9936 -1.0615
    5CHTO   O49 1848   5.999   2.555   0.784 -0.7167 -0.7510 -0.6925
    5CHTO   C77 1849   5.908   2.593   0.677 -0.2674 -0.7768  0.7336
    5CHTO  H149 1850   5.926   2.526   0.592  0.9178 -1.3802  1.4539
    5CHTO   C88 1851   5.941   2.727   0.618 -0.7549  0.1124  0.2843
    5CHTO   O58 1852   5.869   2.758   0.506  0.4771  0.2460 -0.1968
    5CHTO  H136 1853   5.842   2.848   0.512  1.1876  0.5654 -1.6189
    5CHTO   O51 1854   6.093   2.400   0.936 -0.4089  0.1676  0.4326
    5CHTO   C78 1855   6.243   2.429   0.898 -0.2015  0.3266  0.3079
    5CHTO  H150 1856   6.241   2.483   0.801  0.2857 -2.3282 -1.2281
    5CHTO   C80 1857   6.327   2.297   0.876  0.0672  0.4256 -0.1049
    5CHTO  H152 1858   6.314   2.231   0.964  0.5255 -1.0505 -1.1287
    5CHTO   O55 1859   6.262   2.221   0.779  0.7822 -0.2500  0.5665
    5CHTO  H134 1860   6.202   2.162   0.820  0.2063  0.0602  0.1849
    5CHTO   C84 1861   6.474   2.325   0.846 -0.1384 -0.1298 -0.1961
    5CHTO  H156 1862   6.474   2.361   0.743  0.3028  1.2363  0.2710
    5CHTO   N15 1863   6.549   2.189   0.839 -0.1301  0.2803  0.9723
    5CHTO  H143 1864   6.628   2.194   0.767 -1.2142 -0.0887 -0.2526
    5CHTO  H144 1865   6.481   2.114   0.806  1.4642 -0.1044 -1.5123
    5CHTO   C87 1866   6.530   2.410   0.960  0.0768 -0.1164 -0.6651
    5CHTO  H159 1867   6.532   2.355   1.054 -0.2447  0.3194 -0.4056
    5CHTO   O53 1868   6.444   2.533   0.982  0.7124  0.1226 -1.0708
    5CHTO   C82 1869   6.305   2.514   1.008 -0.8883 -0.2439  0.3888
    5CHTO  H154 1870   6.290   2.459   1.100  0.1842 -1.7825 -0.3515
    5CHTO   C89 1871   6.235   2.651   1.028  0.1751 -0.0599  0.2215
    5CHTO   O59 1872   6.290   2.725   1.137  0.4904  0.0693 -0.2586
    5CHTO  H137 1873   6.248   2.809   1.145  2.0015  1.0166 -1.8618
    5CHTO   O45 1874   6.649   2.464   0.923  0.2058 -0.2918 -1.0556
    5CHTO   C67 1875   6.744   2.498   1.024 -0.1672 -0.4196 -0.6099
    5CHTO  H124 1876   6.694   2.514   1.119 -0.4320  1.4569 -1.0468
    5CHTO   C65 1877   6.848   2.380   1.037 -0.3137  0.3759 -0.2120
    5CHTO  H122 1878   6.850   2.334   0.939  2.1234 -1.2007  0.5465
    5CHTO   O44 1879   6.787   2.285   1.128 -0.1476 -0.3114  0.0736
    5CHTO  H102 1880   6.707   2.241   1.109 -0.4115 -1.0059  2.6428
    5CHTO   C63 1881   7.003   2.428   1.058 -0.1496 -0.7478  0.1149
    5CHTO  H120 1882   7.042   2.471   0.966 -1.7870  1.1059  0.2656
    5CHTO   N11 1883   7.101   2.315   1.092  0.3095 -0.5450 -0.6819
    5CHTO  H108 1884   7.050   2.246   1.157  4.1673 -1.0916  1.9468
    5CHTO  H109 1885   7.183   2.349   1.152 -0.6378  0.4996  0.0364
    5CHTO   C61 1886   7.007   2.553   1.146  0.1103 -0.6433 -0.1482
    5CHTO  H118 1887   7.111   2.590   1.139 -0.2822  0.3893 -0.7725
    5CHTO   O40 1888   6.922   2.659   1.095  0.1357 -0.3951  0.0036
    5CHTO   C68 1889   6.824   2.632   0.993 -0.1759 -0.1106  0.8469
    5CHTO  H125 1890   6.866   2.625   0.891  0.3386  1.7970  0.8990
    5CHTO   C72 1891   6.734   2.755   0.993  0.1097  0.0225 -0.3125
    5CHTO   O48 1892   6.659   2.767   1.114  0.5049 -0.2934 -0.2204
    5CHTO  H105 1893   6.621   2.683   1.127 -1.3367  0.2892 -1.7263
    5CHTO   O38 1894   6.985   2.517   1.285 -0.3469 -0.3376 -0.7518
    5CHTO   C55 1895   6.928   2.620   1.377 -0.6824 -0.2156 -0.6759
    5CHTO  H112 1896   6.864   2.691   1.323  0.9072  0.3071 -1.9347
    5CHTO   C56 1897   7.049   2.693   1.462  0.1699 -0.1319  0.0727
    5CHTO  H113 1898   7.115   2.618   1.507  1.6643  1.3318  0.3974
    5CHTO   O42 1899   7.138   2.756   1.369 -0.0309  0.4051  0.4017
    5CHTO  H100 1900   7.177   2.832   1.408 -0.5068  0.2890  1.1197
    5CHTO   C57 1901   7.001   2.791   1.574  0.8112 -0.2512  0.2076
    5CHTO  H114 1902   6.943   2.866   1.520 -1.1244 -1.4334  0.6085
    5CHTO   N10 1903   7.107   2.858   1.655 -0.0755  0.1400  0.2714
    5CHTO  H106 1904   7.080   2.954   1.696  1.4975  0.1537  1.3459
    5CHTO  H107 1905   7.198   2.867   1.597 -0.7729 -0.2437 -0.9003
    5CHTO   C58 1906   6.906   2.713   1.662 -0.3069  0.1739 -0.2220
    5CHTO  H115 1907   6.964   2.639   1.721 -0.1560  0.1822 -0.3605
    5CHTO   O37 1908   6.803   2.644   1.590  0.2375  0.2074 -0.0398
    5CHTO   C59 1909   6.844   2.550   1.488  0.3087 -0.1146  0.0731
    5CHTO  H116 1910   6.908   2.476   1.536  1.5388  0.0209 -1.3166
    5CHTO   C70 1911   6.710   2.498   1.433 -0.0484 -0.3522 -0.2062
    5CHTO   O46 1912   6.634   2.583   1.351 -1.0313  0.2819  0.3672
    5CHTO  H103 1913   6.548   2.546   1.358 -0.3311 -1.2804  0.9646
    5CHTO   O39 1914   6.830   2.809   1.776 -0.1567  1.0925  0.5999
    5CHTO   C60 1915   6.714   2.883   1.733  0.1593  0.2284  0.4840
    5CHTO  H117 1916   6.694   2.872   1.627 -0.6423 -0.0257  0.6533
    5CHTO   C62 1917   6.593   2.825   1.819 -1.0282  0.8637  0.1363
    5CHTO  H119 1918   6.571   2.720   1.794 -2.7399  0.2080  4.0115
    5CHTO   O43 1919   6.626   2.835   1.958  0.2341 -0.7550  0.0749
    5CHTO  H101 1920   6.647   2.926   1.968 -1.8191 -0.4631  2.1086
    5CHTO   C66 1921   6.463   2.904   1.771  0.3789 -1.3210  0.1997
    5CHTO  H123 1922   6.453   2.880   1.665  1.2828  0.2236 -0.2640
    5CHTO   N12 1923   6.341   2.859   1.849 -0.0473 -0.2838  0.3324
    5CHTO  H110 1924   6.252   2.875   1.789  0.3117  1.1099  0.1462
    5CHTO  H111 1925   6.340   2.911   1.944  0.7520 -0.7203  0.5827
    5CHTO   C69 1926   6.483   3.062   1.788 -0.2054  0.1371  0.0795
    5CHTO  H126 1927   6.502   3.080   1.896  1.7148  0.3649 -0.2800
    5CHTO   O41 1928   6.608   3.106   1.716 -0.0767 -0.3497 -0.3778
    5CHTO   C64 1929   6.733   3.032   1.762  0.2411  0.4836 -0.1567
    5CHTO  H121 1930   6.751   3.045   1.871  0.4040 -3.2098  0.3113
    5CHTO   C71 1931   6.846   3.099   1.685 -0.0864 -0.1107 -0.1203
    5CHTO   O47 1932   6.873   3.233   1.730  0.1877 -0.3850  0.5737
    5CHTO  H104 1933   6.908   3.273   1.653 -0.5030  0.5526  0.7432
    5CHTO   O34 1934   6.359   3.160   1.731  0.0742 -0.6390  0.0067
    5CHTO   C49 1935   6.369   3.308   1.707  0.1685 -0.4076  0.5359
    5CHTO   H91 1936   6.434   3.325   1.621  2.5390 -3.8629  1.5427
    5CHTO   C47 1937   6.422   3.391   1.830 -0.0076 -0.2175 -1.1910
    5CHTO   H89 1938   6.419   3.500   1.809  2.0672  0.9216  3.7248
    5CHTO   O33 1939   6.560   3.359   1.854  0.7481  0.4104 -0.0069
    5CHTO   H70 1940   6.565   3.274   1.893  0.5666  0.2332 -0.3693
    5CHTO   C45 1941   6.335   3.366   1.959  0.0306 -0.0624 -0.3821
    5CHTO   H87 1942   6.335   3.257   1.975 -0.3281  0.5619  4.6409
    5CHTO    N8 1943   6.393   3.424   2.083 -0.0576  0.0937  0.1272
    5CHTO   H75 1944   6.421   3.335   2.138  0.5609 -0.5933 -1.2795
    5CHTO   H76 1945   6.328   3.480   2.148 -0.3835  1.7336 -1.5783
    5CHTO   C43 1946   6.186   3.427   1.925  0.1160  0.1169  0.4366
    5CHTO   H85 1947   6.120   3.392   2.005 -0.8652  1.4171  0.2051
    5CHTO   O29 1948   6.138   3.380   1.796  0.2358  0.0759  0.2520
    5CHTO   C50 1949   6.226   3.371   1.680  0.4998  0.2537 -0.0313
    5CHTO   H92 1950   6.182   3.305   1.603  1.4393  0.1275 -0.4647
    5CHTO   C54 1951   6.223   3.513   1.609  0.0101 -0.1627  0.0026
    5CHTO   O36 1952   6.301   3.513   1.494 -0.4506  0.7129 -0.5450
    5CHTO   H72 1953   6.294   3.591   1.443  0.1127  1.2188  0.1450
    5CHTO   O27 1954   6.189   3.573   1.930  0.0042 -0.2870 -0.3693
    5CHTO   C37 1955   6.096   3.661   1.989  0.1541  0.3402  0.2298
    5CHTO   H79 1956   6.087   3.757   1.935 -1.9274  0.6423  1.0803
    5CHTO   C38 1957   5.951   3.602   1.981  0.3922 -0.1630  0.4508
    5CHTO   H80 1958   5.949   3.509   2.038  2.1966 -1.3070 -1.2624
    5CHTO   O31 1959   5.917   3.570   1.847  0.0250 -0.0256 -0.5610
    5CHTO   H68 1960   5.986   3.513   1.819 -0.3879 -0.8037 -0.0178
    5CHTO   C39 1961   5.843   3.708   2.039  0.3540  0.1876 -0.3601
    5CHTO   H81 1962   5.838   3.799   1.980 -1.5185  0.0609 -0.4141
    5CHTO    N7 1963   5.702   3.656   2.041 -0.2801 -0.4382 -0.1659
    5CHTO   H73 1964   5.631   3.735   2.062 -0.5054 -1.1729  1.9242
    5CHTO   H74 1965   5.694   3.574   1.971 -0.3264 -1.1117  0.6188
    5CHTO   C40 1966   5.884   3.755   2.186 -0.5280 -0.2906  0.3190
    5CHTO   H82 1967   5.856   3.674   2.254 -0.5352  0.4104  1.1591
    5CHTO   O26 1968   6.024   3.784   2.194 -0.3410 -1.3647 -0.0987
    5CHTO   C41 1969   6.122   3.695   2.138 -0.1875  0.0249 -0.0635
    5CHTO   H83 1970   6.135   3.604   2.197 -0.1642 -0.1063 -0.2679
    5CHTO   C52 1971   6.264   3.767   2.151  0.0977  0.2028 -0.5483
    5CHTO   O35 1972   6.301   3.830   2.276  0.1094 -0.7433  0.2657
    5CHTO   H71 1973   6.241   3.897   2.304  1.7335  0.3770  1.1393
    5CHTO   O28 1974   5.819   3.880   2.216  0.1818  0.4418 -0.2290
    5CHTO   C42 1975   5.815   3.924   2.362  0.7022 -0.0306  0.2011
    5CHTO   H84 1976   5.775   4.024   2.349  0.9417 -0.0739 -0.9214
    5CHTO   C44 1977   5.945   3.954   2.441  0.5041  0.2057 -0.8371
    5CHTO   H86 1978   6.024   3.966   2.366  2.1614  1.7638  1.1207
    5CHTO   O32 1979   5.930   4.086   2.502 -0.0091 -0.1672 -0.1503
    5CHTO   H69 1980   5.905   4.158   2.448 -1.0278  0.5484  1.2590
    5CHTO   C48 1981   5.987   3.851   2.554  0.2632  0.2435  0.7963
    5CHTO   H90 1982   5.932   3.860   2.648 -1.7695 -3.0685  0.0081
    5CHTO    N9 1983   6.133   3.874   2.593 -0.6037  1.4450  0.0730
    5CHTO   H77 1984   6.161   3.824   2.685  2.1316 -2.0232 -2.4631
    5CHTO   H78 1985   6.189   3.838   2.508 -0.4345  1.9778 -0.0421
    5CHTO   C51 1986   5.943   3.708   2.514  0.2070  0.8096 -0.2242
    5CHTO   H93 1987   5.998   3.694   2.421  2.4852  1.4447  0.9835
    5CHTO   O30 1988   5.801   3.706   2.492  0.4983 -0.5433 -0.1570
    5CHTO   C46 1989   5.719   3.835   2.432  0.8029  0.7980 -0.1427
    5CHTO   H88 1990   5.640   3.809   2.362  1.0887 -0.1943 -0.1024
    5CHTO   C53 1991   5.640   3.893   2.544  0.3183 -0.6192 -0.0027
    5CHTO   O72 1992   5.546   3.990   2.496  0.8157 -0.0615  0.6907
    5CHTO  H199 1993   5.493   4.019   2.567  0.8060 -0.6132  0.9109
    5CHTO   O22 1994   5.974   3.600   2.610  0.3868 -0.4237  0.5151
    5CHTO   C31 1995   5.993   3.467   2.568 -0.2387 -0.0024  0.5963
    5CHTO   H59 1996   6.039   3.416   2.655  0.6000 -0.5953 -0.1827
    5CHTO   C29 1997   5.860   3.398   2.540  0.4729 -0.5560  1.1651
    5CHTO   H57 1998   5.790   3.458   2.480  3.0852 -0.3652 -1.8476
    5CHTO   O21 1999   5.789   3.399   2.663  0.8004 -0.9713  0.1525
    5CHTO   H37 2000   5.815   3.337   2.729 -0.5740 -0.0934  1.5600
    5CHTO   C27 2001   5.876   3.247   2.476  0.6582 -0.3765  0.0326
    5CHTO   H55 2002   5.914   3.185   2.559  3.3055 -0.1856 -0.9795
    5CHTO    N5 2003   5.757   3.185   2.424  0.5598  0.7309  0.1035
    5CHTO   H43 2004   5.728   3.248   2.341  1.0150  0.6527 -0.1210
    5CHTO   H44 2005   5.672   3.187   2.490 -0.9021  1.5332 -1.7511
    5CHTO   C25 2006   5.991   3.250   2.370  0.4478 -0.0831  0.3609
    5CHTO   H53 2007   5.955   3.310   2.286  0.6903  2.5100  2.0647
    5CHTO   O17 2008   6.114   3.310   2.418  0.2624 -0.0646 -0.0792
    5CHTO   C32 2009   6.091   3.446   2.453 -0.3940  0.0634 -0.1970
    5CHTO   H60 2010   6.056   3.501   2.365 -1.0421 -2.2327 -1.4064
    5CHTO   C36 2011   6.225   3.520   2.494 -0.1959 -0.1000 -0.0392
    5CHTO   O25 2012   6.316   3.543   2.387 -0.0680 -0.2553 -0.1494
    5CHTO   H40 2013   6.338   3.460   2.350 -1.6769  0.2324 -2.2619
    5CHTO   O15 2014   6.022   3.090   2.332 -0.1327  0.3709  0.6898
    5CHTO   C19 2015   6.115   2.992   2.401  0.4829 -0.3637  0.3782
    5CHTO   H47 2016   6.159   3.057   2.478  3.4327 -0.8807 -0.7958
    5CHTO   C20 2017   6.043   2.876   2.472  0.1585  0.1764  0.0799
    5CHTO   H48 2018   5.987   2.811   2.403  0.2295 -1.3362  1.4225
    5CHTO   O19 2019   5.935   2.920   2.564  0.7379 -0.2665  0.3104
    5CHTO   H35 2020   5.909   2.856   2.627 -0.7471 -1.4281 -1.4396
    5CHTO   C21 2021   6.154   2.791   2.545  0.3316  0.1245  0.4878
    5CHTO   H49 2022   6.180   2.841   2.638 -1.0071  0.2955  0.7843
    5CHTO    N4 2023   6.093   2.657   2.580  0.2658 -0.5578  0.0847
    5CHTO   H41 2024   6.044   2.623   2.490  1.2550  1.8021 -1.4037
    5CHTO   H42 2025   6.025   2.669   2.663  0.3741  1.6826 -0.1093
    5CHTO   C22 2026   6.279   2.773   2.456  0.8010 -0.1976 -0.6184
    5CHTO   H50 2027   6.244   2.712   2.372 -3.0709 -0.6330  1.1787
    5CHTO   O14 2028   6.323   2.899   2.400  0.3556 -0.2012  0.1362
    5CHTO   C23 2029   6.231   2.950   2.315 -1.2249  0.2170  0.3752
    5CHTO   H51 2030   6.199   2.878   2.237  0.2125 -1.9806  1.7514
    5CHTO   C34 2031   6.316   3.061   2.251  0.8458  0.4263 -1.1277
    5CHTO   O23 2032   6.432   3.017   2.184 -0.3975 -0.3761  0.1206
    5CHTO   H38 2033   6.475   2.954   2.238 -0.2294  1.2734  1.9779
    5CHTO   O16 2034   6.383   2.704   2.524 -0.0281  0.4944  0.0154
    5CHTO   C24 2035   6.473   2.608   2.417  0.4101 -0.3388 -0.3677
    5CHTO   H52 2036   6.437   2.617   2.314 -0.6598 -1.9245 -0.1527
    5CHTO   C26 2037   6.474   2.463   2.463  0.0538 -1.0842 -0.2308
    5CHTO   H54 2038   6.512   2.460   2.567 -1.4354 -1.8026  0.3034
    5CHTO   O20 2039   6.342   2.415   2.477  0.5562  0.0702  0.5558
    5CHTO   H36 2040   6.337   2.361   2.555  0.4457 -1.1057 -0.2492
    5CHTO   C30 2041   6.559   2.367   2.377  0.2424  0.7762 -0.2286
    5CHTO   H58 2042   6.500   2.363   2.285 -3.4019 -2.1004  2.0934
    5CHTO    N6 2043   6.571   2.233   2.445  1.0274  0.1589  0.5323
    5CHTO   H45 2044   6.474   2.190   2.465  0.7013 -0.3393 -1.9771
    5CHTO   H46 2045   6.623   2.243   2.539 -0.4537  0.1399  1.3624
    5CHTO   C33 2046   6.701   2.432   2.362 -0.1358 -0.0559  0.0526
    5CHTO   H61 2047   6.752   2.428   2.460 -0.1976 -0.5186  0.0669
    5CHTO   O18 2048   6.690   2.573   2.326  0.4470  0.6022  0.2472
    5CHTO   C28 2049   6.615   2.658   2.413 -0.4313 -0.1670 -0.2182
    5CHTO   H56 2050   6.658   2.648   2.513 -0.2885  0.7864 -0.1740
    5CHTO   C35 2051   6.629   2.804   2.359 -0.5695  0.1526  0.4551
    5CHTO   O24 2052   6.604   2.898   2.464  1.2814 -0.0643 -0.2118
    5CHTO   H39 2053   6.640   2.974   2.424  0.0420  0.6851  0.0678
    5CHTO    O9 2054   6.795   2.360   2.279  0.5449  0.6004 -0.1739
    5CHTO   C13 2055   6.749   2.334   2.114  0.8084  0.4442 -0.0136
    5CHTO   H26 2056   6.639   2.323   2.102  1.2807 -2.2530 -2.2816
    5CHTO   C11 2057   6.823   2.207   2.067  0.0446  0.8265 -0.4477
    5CHTO   H24 2058   6.763   2.128   2.114  1.1755 -1.1759 -2.2672
    5CHTO    O8 2059   6.957   2.205   2.109  0.1477  0.0554 -0.2834
    5CHTO    H3 2060   6.967   2.149   2.183  0.0479 -1.4885 -1.4131
    5CHTO    C9 2061   6.794   2.196   1.914 -1.0200  0.2196  0.3052
    5CHTO   H22 2062   6.685   2.201   1.904 -1.1205 -0.0832  1.2337
    5CHTO    N2 2063   6.836   2.064   1.867  0.7618 -0.2291 -0.4229
    5CHTO   H10 2064   6.746   2.012   1.838  1.4742 -2.7197  1.5930
    5CHTO   H11 2065   6.914   2.073   1.794  0.5739 -4.0892 -1.1627
    5CHTO    C7 2066   6.858   2.324   1.839 -0.3627 -0.3611  0.5968
    5CHTO   H20 2067   6.809   2.315   1.740 -1.5252  2.5108  0.8621
    5CHTO    O4 2068   6.816   2.450   1.891 -0.0927  0.3115 -0.0844
    5CHTO   C14 2069   6.796   2.466   2.038 -0.0691 -0.2345  0.7901
    5CHTO   H27 2070   6.720   2.546   2.052 -1.1185 -0.9112 -0.9659
    5CHTO   C18 2071   6.929   2.520   2.100 -0.0898  0.3976  0.3685
    5CHTO   O13 2072   6.991   2.629   2.047 -0.0317  1.0574 -0.3292
    5CHTO    H7 2073   7.015   2.618   1.957 -2.0833 -1.5016 -0.6307
    5CHTO    O2 2074   7.013   2.313   1.841  0.5399  0.3343 -0.4650
    5CHTO    C1 2075   7.090   2.325   1.718  0.3879 -0.1556 -0.1319
    5CHTO   H14 2076   7.037   2.401   1.656 -1.5902 -1.5602 -0.2089
    5CHTO    C2 2077   7.114   2.199   1.627 -0.0951  0.0881 -0.8637
    5CHTO   H15 2078   7.169   2.120   1.680  3.0456  2.1729 -0.8942
    5CHTO    O6 2079   6.989   2.146   1.583 -0.8967  0.2424  0.2404
    5CHTO    H1 2080   6.996   2.053   1.568 -1.9733  0.3006 -0.6587
    5CHTO    C3 2081   7.208   2.249   1.496  0.1921 -0.2576 -0.7316
    5CHTO   H16 2082   7.154   2.321   1.433 -1.1062 -0.3534  0.2377
    5CHTO    N1 2083   7.251   2.132   1.416 -0.2160 -0.0587  0.4767
    5CHTO    H8 2084   7.284   2.050   1.477 -1.0161  0.2240  1.2989
    5CHTO    H9 2085   7.328   2.168   1.349 -0.3783  1.4807  1.0791
    5CHTO    C4 2086   7.337   2.331   1.546 -0.0055 -0.0061  0.0165
    5CHTO   H17 2087   7.407   2.261   1.592  1.7580  2.7260  1.6436
    5CHTO    O1 2088   7.292   2.436   1.634 -0.2324 -0.4616 -1.1960
    5CHTO    C5 2089   7.228   2.393   1.754 -0.2111 -0.3613 -0.0253
    5CHTO   H18 2090   7.290   2.317   1.802 -0.7156 -0.8156 -0.0867
    5CHTO   C16 2091   7.214   2.501   1.854 -0.1513  0.3414  0.1077
    5CHTO   O11 2092   7.345   2.552   1.870 -0.1675  0.0901  0.0607
    5CHTO    H5 2093   7.389   2.500   1.935  0.1621  0.7150  0.3390
    5CHTO    O3 2094   7.400   2.410   1.445  0.5201  0.5372  0.0870
    5CHTO    C6 2095   7.540   2.444   1.478 -0.1245  0.6477  0.3724
    5CHTO   H19 2096   7.557   2.426   1.584 -0.2644  0.3767  0.3499
    5CHTO    C8 2097   7.624   2.350   1.372  0.5280 -0.4633 -0.2875
    5CHTO   H21 2098   7.585   2.369   1.272 -0.7467 -0.9313  0.1198
    5CHTO    O7 2099   7.590   2.214   1.411  0.0116  0.3467  0.0007
    5CHTO    H2 2100   7.649   2.154   1.368 -2.7105 -0.0453 -3.4299
    5CHTO   C12 2101   7.776   2.383   1.390 -0.0843  0.4457  0.1505
    5CHTO   H25 2102   7.795   2.346   1.492 -0.3965 -0.4825 -0.1228
    5CHTO    N3 2103   7.851   2.300   1.293 -0.2298  0.3018  0.2263
    5CHTO   H12 2104   7.798   2.302   1.200 -2.4760  2.7247  1.4922
    5CHTO   H13 2105   7.859   2.202   1.338  0.4293  0.7787  1.1689
    5CHTO   C15 2106   7.807   2.542   1.375  0.0485 -0.0401  0.5101
    5CHTO   H28 2107   7.793   2.584   1.276 -1.4318 -0.0911  0.6781
    5CHTO   O10 2108   7.954   2.572   1.422 -0.0126 -0.7008 -0.5339
    5CHTO    H4 2109   7.974   2.540   1.508 -2.2617 -0.3557  0.1523
    5CHTO    O5 2110   7.716   2.618   1.464  0.4086 -0.1919  0.0464
    5CHTO   C10 2111   7.575   2.595   1.443  0.0356 -0.7341 -0.0986
    5CHTO   H23 2112   7.551   2.626   1.341 -2.6770  1.5921  1.1782
    5CHTO   C17 2113   7.501   2.678   1.536 -0.1322 -0.2336 -0.4954
    5CHTO   O12 2114   7.497   2.816   1.506 -0.4962  0.4680 -0.7963
    5CHTO    H6 2115   7.415   2.858   1.523  0.6535  2.3419  0.5135
    6CHTO  H203 2116   7.087   4.644   2.186 -2.5002  1.7199 -1.3922
    6CHTO   O82 2117   7.039   4.623   2.264  0.9221 -0.4120  0.2585
    6CHTO  C123 2118   7.043   4.748   2.333 -0.1501 -0.2568 -0.1175
    6CHTO  H227 2119   7.136   4.801   2.311  0.0400  0.0799  1.5094
    6CHTO   O77 2120   6.931   4.820   2.282  0.1470  0.0539 -0.4575
    6CHTO  C118 2121   6.913   4.952   2.338  0.0134 -0.3318 -0.0625
    6CHTO  H222 2122   7.006   5.011   2.333  0.7052 -1.4759 -1.1825
    6CHTO  C125 2123   6.797   5.033   2.253 -0.2225  0.9821  0.2613
    6CHTO   O84 2124   6.830   4.999   2.113 -0.0773 -0.3175  0.4367
    6CHTO  H205 2125   6.784   5.054   2.052 -2.2604  0.6865  2.8887
    6CHTO  C114 2126   6.861   4.941   2.481 -0.0276 -0.2809  0.3024
    6CHTO  H218 2127   6.765   4.888   2.484 -0.4614  0.4775  0.1875
    6CHTO  C116 2128   6.966   4.861   2.566 -0.8027 -0.1424  0.3297
    6CHTO  H220 2129   7.050   4.931   2.589 -0.3506 -0.8245  0.7538
    6CHTO   O79 2130   6.915   4.829   2.696  0.1221 -0.7192  0.2055
    6CHTO  H201 2131   6.984   4.795   2.751 -1.6128  0.4951  3.2505
    6CHTO  C120 2132   7.024   4.728   2.491  0.5469  0.0052  0.2697
    6CHTO  H224 2133   6.955   4.643   2.507  1.6034 -0.8594  0.2464
    6CHTO   N21 2134   7.160   4.698   2.554 -0.5470 -0.0483  0.6971
    6CHTO  H211 2135   7.137   4.646   2.645 -0.2901 -0.7880  0.3420
    6CHTO  H212 2136   7.231   4.651   2.487 -0.2713 -0.9610  1.6322
    6CHTO   O75 2137   6.844   5.074   2.531  0.1056  0.4978 -0.3545
    6CHTO  C112 2138   6.731   5.094   2.644 -0.5186  0.0938 -0.8192
    6CHTO  H216 2139   6.754   5.058   2.746  0.0562  0.0566 -0.9579
    6CHTO   O73 2140   6.616   5.033   2.591  0.2600 -0.8840 -0.7026
    6CHTO  C113 2141   6.492   5.064   2.664  0.2124 -0.0689 -0.0931
    6CHTO  H217 2142   6.491   5.019   2.765  3.5268  0.4208  0.2103
    6CHTO  C124 2143   6.374   4.996   2.591  1.1112  0.0391 -0.0423
    6CHTO   O83 2144   6.359   5.036   2.458  0.0620  0.0672  0.1168
    6CHTO  H204 2145   6.438   5.045   2.409  0.7139 -0.0832  1.1212
    6CHTO  C109 2146   6.457   5.213   2.665 -0.1117 -0.4452  1.1737
    6CHTO  H213 2147   6.457   5.248   2.561  1.3310 -0.4249  1.1662
    6CHTO  C110 2148   6.575   5.292   2.720 -0.3940  0.8451 -0.0918
    6CHTO  H214 2149   6.590   5.287   2.828  0.8342  1.3300 -0.2290
    6CHTO   O78 2150   6.548   5.432   2.708  0.0938 -0.2827  0.3125
    6CHTO  H200 2151   6.618   5.487   2.737  0.6447 -1.3101  0.9512
    6CHTO  C111 2152   6.710   5.250   2.650  0.2707  0.3389  0.8427
    6CHTO  H215 2153   6.698   5.273   2.543  1.2432  2.1144  1.0966
    6CHTO   N19 2154   6.837   5.319   2.697 -0.2861  0.2763  0.0206
    6CHTO  H207 2155   6.905   5.348   2.619 -0.3019 -0.7926 -0.3979
    6CHTO  H208 2156   6.886   5.255   2.770 -2.8279  1.6052  3.0457
    6CHTO   O74 2157   6.329   5.247   2.728 -0.5384  0.3014  0.1672
    6CHTO  C115 2158   6.315   5.243   2.878 -0.2284 -0.4413 -0.2318
    6CHTO  H219 2159   6.407   5.213   2.928  0.3325  0.9403 -0.4177
    6CHTO   O76 2160   6.273   5.380   2.935 -0.2978  0.1840 -0.4407
    6CHTO  C122 2161   6.154   5.432   2.873 -0.2544 -0.1746 -0.2737
    6CHTO  H226 2162   6.172   5.465   2.771 -0.9597 -1.3694 -0.7926
    6CHTO  C126 2163   6.122   5.562   2.955  0.8045  0.1952 -0.2891
    6CHTO   O85 2164   6.094   5.542   3.093 -0.4924 -0.5368  0.1618
    6CHTO  H206 2165   6.148   5.603   3.140 -1.5373 -0.3218  1.0967
    6CHTO  C121 2166   6.032   5.331   2.872  0.4460  0.4496 -0.1068
    6CHTO  H225 2167   5.942   5.375   2.919  0.3269  0.9207 -0.7653
    6CHTO   O81 2168   6.012   5.293   2.732  0.2598 -0.2010  0.2438
    6CHTO  H202 2169   5.990   5.366   2.677  1.5160 -1.5455 -2.0817
    6CHTO  C119 2170   6.068   5.203   2.947  0.5341  0.1470  0.1588
    6CHTO  H223 2171   6.072   5.228   3.053  0.3052 -1.2296  0.5143
    6CHTO  C117 2172   6.207   5.134   2.907 -0.1829  0.4971  0.2597
    6CHTO  H221 2173   6.199   5.065   2.823  1.4429 -1.1194  1.4176
    6CHTO   N20 2174   6.241   5.045   3.016  0.2460 -0.1924 -0.1838
    6CHTO  H209 2175   6.322   4.979   2.990  0.7410  0.2587  0.2054
    6CHTO  H210 2176   6.269   5.089   3.110  0.0427 -0.5291  0.0379
    6CHTO   O80 2177   5.935   5.106   2.951  0.8849  0.2563 -0.4072
    6CHTO  C103 2178   5.862   5.081   3.091 -0.4344  0.8184 -0.6587
    6CHTO  H190 2179   5.938   5.063   3.167  0.4991  0.3202 -1.6971
    6CHTO  C101 2180   5.777   5.198   3.153  0.0334 -0.4957 -0.4598
    6CHTO  H188 2181   5.698   5.219   3.081  0.4364  0.3923 -0.6469
    6CHTO   O68 2182   5.860   5.343   3.173  0.2750  0.4312  0.1545
    6CHTO  H168 2183   5.866   5.392   3.093 -1.9352  1.0424  0.3271
    6CHTO   C99 2184   5.709   5.150   3.290  0.5435  0.6742  0.1837
    6CHTO  H186 2185   5.792   5.125   3.359 -2.0550 -1.5650  2.6477
    6CHTO   N17 2186   5.614   5.251   3.355 -0.8285  0.2091  0.9867
    6CHTO  H174 2187   5.652   5.352   3.346  1.1823 -0.4960  1.2257
    6CHTO  H175 2188   5.600   5.232   3.460  0.1704 -1.8123  0.7755
    6CHTO   C97 2189   5.636   5.013   3.270 -0.3950 -0.0637  0.0809
    6CHTO  H184 2190   5.539   5.024   3.219  0.5598  1.3728 -1.5112
    6CHTO   O64 2191   5.725   4.912   3.208 -0.3885  0.1656 -0.1544
    6CHTO  C104 2192   5.775   4.950   3.080 -0.1974  0.4099 -0.3173
    6CHTO  H191 2193   5.700   4.968   3.003 -0.7327  1.6619  0.4764
    6CHTO  C108 2194   5.862   4.834   3.035 -0.2694  0.7518  0.7978
    6CHTO   O71 2195   5.979   4.817   3.117  0.3215  0.4561  0.1689
    6CHTO  H171 2196   5.955   4.775   3.198 -0.3713 -0.2997 -0.4196
    6CHTO   O62 2197   5.607   4.960   3.396 -0.0596  1.1564 -0.2394
    6CHTO   C91 2198   5.503   4.867   3.427  0.0554 -0.1968 -0.0743
    6CHTO  H178 2199   5.412   4.920   3.456 -0.1999 -0.5701 -0.1867
    6CHTO   C92 2200   5.548   4.798   3.554 -0.3615  0.2013 -0.2977
    6CHTO  H179 2201   5.587   4.871   3.627 -0.5341 -0.1784  0.1841
    6CHTO   O66 2202   5.427   4.755   3.618  0.3891 -0.0775  0.1138
    6CHTO  H166 2203   5.391   4.680   3.574 -0.4236 -0.2055  0.9831
    6CHTO   C93 2204   5.640   4.672   3.529 -0.8406 -0.0232 -0.1769
    6CHTO  H180 2205   5.627   4.610   3.619 -2.8800 -0.0498 -0.4691
    6CHTO   N16 2206   5.787   4.708   3.525 -0.2352 -0.1264 -0.0580
    6CHTO  H172 2207   5.846   4.663   3.604 -1.3940  2.4908  2.4074
    6CHTO  H173 2208   5.833   4.696   3.428 -1.3596  0.2823 -0.6468
    6CHTO   C94 2209   5.601   4.583   3.409 -0.5147  0.0334  0.0524
    6CHTO  H181 2210   5.674   4.584   3.328 -0.2321 -0.1250  0.3021
    6CHTO   O61 2211   5.473   4.620   3.354 -0.1676 -0.0178  0.4340
    6CHTO   C95 2212   5.451   4.756   3.321  0.5719 -0.4825 -0.7335
    6CHTO  H182 2213   5.497   4.778   3.225  2.6503  2.6186  0.8999
    6CHTO  C106 2214   5.294   4.766   3.312 -0.2844 -0.2692 -0.6712
    6CHTO   O69 2215   5.260   4.900   3.264 -0.5568 -0.0942 -0.5022
    6CHTO  H169 2216   5.318   4.906   3.191 -1.0863 -2.4400 -1.1433
    6CHTO   O63 2217   5.570   4.438   3.473  0.4746 -0.1067  0.0478
    6CHTO   C96 2218   5.532   4.334   3.384 -0.4461 -0.1445 -0.7252
    6CHTO  H183 2219   5.496   4.374   3.290  0.5553 -0.2407 -1.1579
    6CHTO   C98 2220   5.408   4.252   3.437  0.0059  0.5503 -0.1196
    6CHTO  H185 2221   5.429   4.231   3.543  3.0684  0.0091 -0.7751
    6CHTO   O67 2222   5.295   4.346   3.442 -0.6157 -0.3200 -0.3740
    6CHTO  H167 2223   5.224   4.309   3.492 -0.5099  1.8546  1.4496
    6CHTO  C102 2224   5.387   4.118   3.341  0.2857  0.0726 -0.4737
    6CHTO  H189 2225   5.348   4.159   3.247  1.6157 -1.0030 -1.5023
    6CHTO   N18 2226   5.285   4.024   3.394  0.3936 -1.0967 -0.0330
    6CHTO  H176 2227   5.210   4.041   3.470  0.9959  2.0081 -0.0541
    6CHTO  H177 2228   5.306   3.919   3.380  2.0352 -0.9317  1.0677
    6CHTO  C105 2229   5.521   4.047   3.305  0.3731 -0.7000 -0.2435
    6CHTO  H192 2230   5.570   4.007   3.394  2.9516  0.5979 -1.0207
    6CHTO   O65 2231   5.614   4.139   3.256 -0.4139  0.5142 -0.3069
    6CHTO  C100 2232   5.653   4.242   3.350 -0.2461  0.1229 -0.2839
    6CHTO  H187 2233   5.687   4.199   3.445  0.4061  0.2877 -0.4351
    6CHTO  C107 2234   5.780   4.312   3.288 -0.2449  0.5208  0.0579
    6CHTO   O70 2235   5.850   4.401   3.375 -0.6729 -0.3384 -0.1126
    6CHTO  H170 2236   5.887   4.473   3.327 -2.6939  0.8808  0.1000
    6CHTO   O57 2237   5.494   3.929   3.195  0.0864  0.0044 -0.2319
    6CHTO   C85 2238   5.580   3.860   3.104 -0.0828  0.8275 -0.3022
    6CHTO  H157 2239   5.515   3.774   3.076  0.5635  0.1876  0.1492
    6CHTO   C83 2240   5.699   3.787   3.175 -0.1033 -1.0415  0.2748
    6CHTO  H155 2241   5.652   3.715   3.242  0.1545 -1.8514 -0.4095
    6CHTO   O56 2242   5.764   3.880   3.259  0.4557 -0.3692  1.0534
    6CHTO  H135 2243   5.812   3.849   3.333 -1.0996  0.2553  2.3412
    6CHTO   C81 2244   5.783   3.707   3.073  0.3603 -0.3379  0.3840
    6CHTO  H153 2245   5.718   3.638   3.020  1.3273 -1.6552  0.8945
    6CHTO   N14 2246   5.886   3.619   3.132 -0.9760  0.6365  0.0585
    6CHTO  H141 2247   5.940   3.557   3.064 -0.4332 -1.3452  2.2208
    6CHTO  H142 2248   5.956   3.675   3.192  0.2988 -1.4696  0.5791
    6CHTO   C79 2249   5.842   3.804   2.967  0.3203  1.1594 -0.3898
    6CHTO  H151 2250   5.905   3.744   2.902  2.2336  2.2545  0.3835
    6CHTO   O52 2251   5.728   3.856   2.894 -0.0669 -0.2344 -0.3341
    6CHTO   C86 2252   5.636   3.943   2.972 -0.5941 -0.0861  0.6506
    6CHTO  H158 2253   5.699   4.032   2.994 -0.3881  0.2989 -1.4111
    6CHTO   C90 2254   5.512   3.992   2.889  0.0842  0.8333  0.1589
    6CHTO   O60 2255   5.422   4.077   2.965  0.0848 -0.2671 -0.2166
    6CHTO  H138 2256   5.344   4.100   2.917 -2.1333 -2.6124  2.0958
    6CHTO   O50 2257   5.936   3.902   3.016  0.5256 -0.2994 -0.4061
    6CHTO   C73 2258   6.061   3.936   2.961  0.2105  0.2177  0.2476
    6CHTO  H145 2259   6.077   3.870   2.874  2.1824 -1.1510  1.6154
    6CHTO   C74 2260   6.176   3.912   3.061  0.2805  0.5132 -0.9197
    6CHTO  H146 2261   6.157   3.806   3.085  1.0688  0.4474 -0.5928
    6CHTO   O54 2262   6.304   3.926   2.991 -0.2558  0.4367  0.0032
    6CHTO  H133 2263   6.312   3.849   2.937  2.2263  1.2228 -0.8307
    6CHTO   C75 2264   6.159   4.005   3.185 -0.0328  0.2146 -0.8100
    6CHTO  H147 2265   6.067   3.978   3.239  0.2220  1.8946  0.4958
    6CHTO   N13 2266   6.270   3.991   3.287  0.2612  0.1845  0.1456
    6CHTO  H139 2267   6.254   4.060   3.368  0.5214 -0.8390  1.0861
    6CHTO  H140 2268   6.369   4.015   3.251  0.2499 -0.0256 -0.0268
    6CHTO   C76 2269   6.149   4.153   3.131  0.0128  0.9647  0.1830
    6CHTO  H148 2270   6.246   4.184   3.092 -0.5936  0.4921 -1.7363
    6CHTO   O49 2271   6.047   4.169   3.030 -0.1364 -0.2212 -0.0038
    6CHTO   C77 2272   6.069   4.087   2.917 -0.3825  0.7385  0.2444
    6CHTO  H149 2273   6.161   4.102   2.859 -0.9110 -0.7903 -1.0168
    6CHTO   C88 2274   5.960   4.121   2.815 -0.0836  0.7619 -0.4160
    6CHTO   O58 2275   5.964   4.273   2.797  0.1396 -0.4250  0.1295
    6CHTO  H136 2276   6.046   4.296   2.759  0.7487 -0.8146  1.2034
    6CHTO   O51 2277   6.098   4.255   3.249 -0.6401  0.3471  0.1700
    6CHTO   C78 2278   6.195   4.389   3.268  0.5537  0.3563 -0.2336
    6CHTO  H150 2279   6.296   4.372   3.224  1.3333  0.7902  1.3588
    6CHTO   C80 2280   6.214   4.420   3.418  0.3776 -0.0539 -0.0724
    6CHTO  H152 2281   6.114   4.427   3.465  0.7332  0.7256  0.5719
    6CHTO   O55 2282   6.281   4.301   3.462 -0.0734 -0.3973  0.0617
    6CHTO  H134 2283   6.371   4.323   3.476 -0.7479  2.2289  0.5857
    6CHTO   C84 2284   6.306   4.542   3.444  0.2140 -0.2346 -0.0074
    6CHTO  H156 2285   6.410   4.527   3.414 -0.0943  0.8657 -1.7038
    6CHTO   N15 2286   6.319   4.582   3.591 -0.2745  0.0803  0.3265
    6CHTO  H143 2287   6.369   4.513   3.656  0.6335  2.0186  1.7122
    6CHTO  H144 2288   6.363   4.677   3.610  2.6101 -0.9719 -0.6212
    6CHTO   C87 2289   6.255   4.661   3.353 -1.3318  0.0837 -0.2665
    6CHTO  H159 2290   6.161   4.702   3.391 -0.7887  0.6758  0.4539
    6CHTO   O53 2291   6.242   4.612   3.208  0.2549  0.6999  0.4139
    6CHTO   C82 2292   6.136   4.517   3.207 -0.8553  0.2826 -0.1189
    6CHTO  H154 2293   6.051   4.559   3.260 -1.5217  0.8302 -1.5789
    6CHTO   C89 2294   6.091   4.499   3.064  0.0523  0.2809  0.6304
    6CHTO   O59 2295   5.958   4.450   3.055 -0.4239 -0.0726  0.3420
    6CHTO  H137 2296   5.935   4.427   2.967  1.8371  2.7844 -1.0940
    6CHTO   O45 2297   6.358   4.788   3.334 -0.4717  0.0031  0.1930
    6CHTO   C67 2298   6.502   4.776   3.315  0.5062 -0.3095  0.2325
    6CHTO  H124 2299   6.540   4.690   3.371 -0.0519 -1.2826 -0.8503
    6CHTO   C65 2300   6.543   4.751   3.163 -0.0692  0.4177 -0.1459
    6CHTO  H122 2301   6.451   4.745   3.103  0.4075 -1.1372 -0.7518
    6CHTO   O44 2302   6.615   4.627   3.149 -0.2838  0.2964  0.0041
    6CHTO  H102 2303   6.669   4.598   3.220  1.1396 -1.7266 -1.8452
    6CHTO   C63 2304   6.611   4.877   3.100 -0.7873 -0.5565  0.3021
    6CHTO  H120 2305   6.539   4.960   3.103  0.0432  0.2720 -1.9767
    6CHTO   N11 2306   6.649   4.868   2.957  0.4629 -0.3360 -0.2711
    6CHTO  H108 2307   6.668   4.971   2.934  0.1552 -0.2622 -0.2072
    6CHTO  H109 2308   6.561   4.840   2.902 -0.5839  1.1188  0.6230
    6CHTO   C61 2309   6.732   4.936   3.197 -0.4584  0.3199 -1.0243
    6CHTO  H118 2310   6.729   5.044   3.180  0.2772  0.3107 -1.2080
    6CHTO   O40 2311   6.713   4.919   3.339  0.1026 -0.1652  0.0750
    6CHTO   C68 2312   6.572   4.908   3.378 -0.0422 -0.8223  0.2358
    6CHTO  H125 2313   6.518   4.999   3.343  2.0743  0.6231  0.6980
    6CHTO   C72 2314   6.560   4.913   3.530 -0.0220  0.7286  0.4087
    6CHTO   O48 2315   6.632   5.017   3.586  0.1627 -0.0858  0.2645
    6CHTO  H105 2316   6.604   5.098   3.546  0.8836  1.6128  3.0340
    6CHTO   O38 2317   6.866   4.886   3.167 -0.4427 -0.2077 -0.4872
    6CHTO   C55 2318   6.982   4.960   3.186 -0.1614 -0.4699  1.1414
    6CHTO  H112 2319   6.969   5.027   3.273  1.9687  1.7556 -0.1882
    6CHTO   C56 2320   7.004   5.043   3.053  0.5479 -0.1505  0.6020
    6CHTO  H113 2321   6.985   4.972   2.972 -1.2211  0.6025  0.3154
    6CHTO   O42 2322   6.894   5.140   3.038 -0.4833  0.4157  0.2355
    6CHTO  H100 2323   6.926   5.220   2.999  0.3512  0.1454  0.3564
    6CHTO   C57 2324   7.153   5.101   3.050  0.1089  0.0048 -0.7020
    6CHTO  H114 2325   7.141   5.189   3.113  3.5978  0.0769 -0.0264
    6CHTO   N10 2326   7.187   5.143   2.913 -0.0347 -0.4767 -0.3670
    6CHTO  H106 2327   7.287   5.120   2.879 -0.2728  0.0886 -1.4986
    6CHTO  H107 2328   7.170   5.249   2.898  1.2492 -0.3012 -0.6811
    6CHTO   C58 2329   7.259   5.013   3.109  0.5562  0.0094  0.2320
    6CHTO  H115 2330   7.287   4.939   3.031 -1.2230 -0.0891 -0.3163
    6CHTO   O37 2331   7.219   4.939   3.225  0.0701  0.5585  0.2364
    6CHTO   C59 2332   7.101   4.860   3.200  0.2151 -0.5440  0.0645
    6CHTO  H116 2333   7.114   4.807   3.106 -0.3142  0.4150 -0.5453
    6CHTO   C70 2334   7.074   4.766   3.319 -0.1314 -0.9211  0.1766
    6CHTO   O46 2335   7.001   4.645   3.286  0.0856 -0.3042 -0.0001
    6CHTO  H103 2336   6.970   4.647   3.197  0.2911 -1.3591 -0.0989
    6CHTO   O39 2337   7.380   5.097   3.151  0.0552 -0.4001 -0.2534
    6CHTO   C60 2338   7.503   5.024   3.146 -0.1672  1.1165  0.4316
    6CHTO  H117 2339   7.479   4.918   3.149  0.5877  0.9684  1.6502
    6CHTO   C62 2340   7.585   5.060   3.019 -0.0331 -0.6319  0.7549
    6CHTO  H119 2341   7.522   5.026   2.934 -1.1447  1.4220  0.7195
    6CHTO   O43 2342   7.606   5.197   3.006  0.7192 -0.3514  0.4744
    6CHTO  H101 2343   7.684   5.229   3.047  0.0572 -1.0442  2.3176
    6CHTO   C66 2344   7.723   4.984   3.020  0.0278  0.0028  0.1335
    6CHTO  H123 2345   7.702   4.883   3.054 -1.0758 -0.1185 -0.8809
    6CHTO   N12 2346   7.778   4.981   2.882  0.6684  0.6471 -0.3276
    6CHTO  H110 2347   7.883   5.005   2.877  0.2713  2.2086 -1.3659
    6CHTO  H111 2348   7.757   4.883   2.841 -0.5273  0.8171 -0.1455
    6CHTO   C69 2349   7.806   5.050   3.130  0.7335  0.3090 -0.6080
    6CHTO  H126 2350   7.827   5.158   3.119 -1.8036  1.0274  1.2174
    6CHTO   O41 2351   7.728   5.018   3.278  0.2921  0.4723  0.2976
    6CHTO   C64 2352   7.577   5.057   3.276 -0.4939  0.4755 -0.1945
    6CHTO  H121 2353   7.570   5.167   3.292  1.3567  0.5225  0.3669
    6CHTO   C71 2354   7.513   4.988   3.401  0.0230  0.1766  0.5252
    6CHTO   O47 2355   7.538   4.847   3.413  0.0693  0.1891  0.2367
    6CHTO  H104 2356   7.512   4.818   3.499 -0.8746  0.1067 -0.0676
    6CHTO   O34 2357   7.955   4.972   3.145  0.1209 -0.3730 -0.5947
    6CHTO   C49 2358   8.103   4.980   3.065 -0.9566  1.6465  0.4218
    6CHTO   H91 2359   8.087   4.936   2.967  2.3845 -1.4833  1.1538
    6CHTO   C47 2360   8.209   4.906   3.143  0.6156  0.1957 -0.3538
    6CHTO   H89 2361   8.300   4.918   3.081  0.6909 -0.0224 -0.2829
    6CHTO   O33 2362   8.168   4.767   3.151  0.1493 -0.1250 -0.3594
    6CHTO   H70 2363   8.241   4.709   3.163  0.3347  0.2659  0.4201
    6CHTO   C45 2364   8.225   4.983   3.285 -0.0135 -0.0202 -0.4539
    6CHTO   H87 2365   8.128   4.970   3.336  0.7075 -1.9498  0.4877
    6CHTO    N8 2366   8.331   4.912   3.362 -0.4224 -0.1693  0.3423
    6CHTO   H75 2367   8.431   4.952   3.357 -0.4061 -0.4098 -1.6111
    6CHTO   H76 2368   8.290   4.915   3.462 -2.9222 -3.0479 -0.5314
    6CHTO   C43 2369   8.223   5.140   3.286  0.5676 -0.1777 -0.2720
    6CHTO   H85 2370   8.182   5.172   3.382  0.3467  0.4142 -0.5583
    6CHTO   O29 2371   8.145   5.194   3.175  0.2602  0.0735 -0.4405
    6CHTO   C50 2372   8.139   5.131   3.049  0.1853  0.1797 -0.1123
    6CHTO   H92 2373   8.063   5.170   2.980  0.6763  1.6796  0.1778
    6CHTO   C54 2374   8.276   5.163   2.973 -0.4917 -0.1651 -0.1287
    6CHTO   O36 2375   8.284   5.307   2.963 -0.8263  0.5072 -0.3394
    6CHTO   H72 2376   8.276   5.343   3.049  2.2848 -1.4967  0.8704
    6CHTO   O27 2377   8.355   5.202   3.279 -0.1285  0.4915 -0.1495
    6CHTO   C37 2378   8.434   5.308   3.330 -0.9518  0.3834  0.0649
    6CHTO   H79 2379   8.528   5.304   3.273 -0.6177  0.5204  0.6050
    6CHTO   C38 2380   8.361   5.448   3.304 -0.1966 -0.1251 -0.9162
    6CHTO   H80 2381   8.267   5.451   3.362 -0.5168  2.0347 -1.4968
    6CHTO   O31 2382   8.322   5.469   3.169 -0.1190  0.2586  0.3206
    6CHTO   H68 2383   8.297   5.558   3.156  1.0323  0.2319 -2.3458
    6CHTO   C39 2384   8.448   5.567   3.365 -1.1033  0.7073  0.3507
    6CHTO   H81 2385   8.550   5.558   3.327 -1.0522 -1.8492  1.0618
    6CHTO    N7 2386   8.396   5.708   3.352 -0.4117  0.1563  0.2539
    6CHTO   H73 2387   8.382   5.733   3.248 -2.0472  1.7178  0.8165
    6CHTO   H74 2388   8.463   5.779   3.397  1.3441 -0.7559 -0.8722
    6CHTO   C40 2389   8.474   5.544   3.518  0.4789 -0.8743 -0.3073
    6CHTO   H82 2390   8.380   5.568   3.567  1.0868  0.1938  0.3545
    6CHTO   O26 2391   8.525   5.411   3.553 -0.4489  0.0672 -0.2416
    6CHTO   C41 2392   8.453   5.305   3.485 -0.2750  0.3227  0.3057
    6CHTO   H83 2393   8.351   5.298   3.526 -0.1284  1.2780  0.8560
    6CHTO   C52 2394   8.525   5.175   3.525  0.5036  0.1638 -0.3659
    6CHTO   O35 2395   8.494   5.122   3.674 -0.0307 -0.0020  0.2313
    6CHTO   H71 2396   8.555   5.063   3.714  0.1186  0.5150  0.7850
    6CHTO   O28 2397   8.567   5.642   3.569 -0.0542  0.4335  0.2419
    6CHTO   C42 2398   8.573   5.683   3.715  0.0929  0.4185  0.0642
    6CHTO   H84 2399   8.674   5.724   3.721  0.3586 -0.2235 -0.0153
    6CHTO   C44 2400   8.570   5.561   3.824 -0.2919  0.1477  0.2875
    6CHTO   H86 2401   8.473   5.512   3.817 -0.0908 -0.2902  0.5848
    6CHTO   O32 2402   8.681   5.482   3.792 -0.3866  0.5053 -0.7376
    6CHTO   H69 2403   8.657   5.392   3.787 -2.7771  1.0431  0.1990
    6CHTO   C48 2404   8.588   5.612   3.973  0.3604 -0.1820 -0.1896
    6CHTO   H90 2405   8.687   5.656   3.964  1.9210 -3.1860  1.7411
    6CHTO    N9 2406   8.591   5.503   4.079 -0.4220 -0.5005  0.2765
    6CHTO   H77 2407   8.518   5.425   4.059 -0.9657  0.6454 -2.3498
    6CHTO   H78 2408   8.574   5.545   4.177  0.2003  1.8750 -0.6073
    6CHTO   C51 2409   8.485   5.721   4.005  0.0901 -0.0699 -0.0211
    6CHTO   H93 2410   8.392   5.666   3.990  0.4633 -1.1804  1.5723
    6CHTO   O30 2411   8.500   5.833   3.910  0.2653 -0.2965  0.2078
    6CHTO   C46 2412   8.475   5.799   3.756  0.1889  0.8661  0.0155
    6CHTO   H88 2413   8.370   5.771   3.749  0.8925 -2.4194  1.7412
    6CHTO   C53 2414   8.509   5.919   3.674  0.3387 -0.0021  0.0077
    6CHTO   O72 2415   8.429   6.031   3.719  0.6607  0.4091 -0.0459
    6CHTO  H199 2416   8.419   6.024   3.812  0.7908 -1.8685 -0.1769
    6CHTO   O22 2417   8.499   5.782   4.132  0.3158  0.2467 -0.2935
    6CHTO   C31 2418   8.409   5.878   4.195  0.0259  0.0194 -0.5826
    6CHTO   H59 2419   8.465   5.908   4.286 -0.8581  0.0347 -0.0349
    6CHTO   C29 2420   8.376   6.007   4.112  0.0584 -0.2058 -0.0732
    6CHTO   H57 2421   8.333   5.973   4.016 -0.7260  0.4947  0.0241
    6CHTO   O21 2422   8.509   6.074   4.094  0.2139 -0.1902  0.5440
    6CHTO   H37 2423   8.571   6.021   4.049 -1.1931 -0.7148 -0.8262
    6CHTO   C27 2424   8.269   6.095   4.186 -0.1868 -0.0594  0.0434
    6CHTO   H55 2425   8.312   6.122   4.284 -0.1657  1.3563 -0.3477
    6CHTO    N5 2426   8.239   6.220   4.114 -0.1076 -0.4072  0.3759
    6CHTO   H43 2427   8.333   6.272   4.100 -0.0540 -0.5359  0.2472
    6CHTO   H44 2428   8.187   6.190   4.024 -1.3502  2.7638 -0.0091
    6CHTO   C25 2429   8.132   6.011   4.221 -0.3515 -0.2324  0.0365
    6CHTO   H53 2430   8.084   5.966   4.133 -0.2062  0.6229 -0.4912
    6CHTO   O17 2431   8.169   5.894   4.297 -0.3448 -0.4570  0.0773
    6CHTO   C32 2432   8.271   5.803   4.249  0.0063 -0.2761 -0.2601
    6CHTO   H60 2433   8.229   5.739   4.171 -1.0911  0.1785 -0.0561
    6CHTO   C36 2434   8.294   5.691   4.363 -0.2870 -0.7329 -0.4490
    6CHTO   O25 2435   8.361   5.576   4.321  0.1915  0.0060  0.2287
    6CHTO   H40 2436   8.422   5.549   4.388 -1.0223  0.9670  1.7721
    6CHTO   O15 2437   8.024   6.096   4.297  0.4883 -0.2626  0.1428
    6CHTO   C19 2438   7.922   6.192   4.333  0.0972 -0.6936  0.0915
    6CHTO   H47 2439   7.924   6.194   4.443 -0.4764  1.3030  0.0799
    6CHTO   C20 2440   7.953   6.335   4.283 -0.3405  0.9846  0.3916
    6CHTO   H48 2441   7.972   6.339   4.175 -3.7488  1.4963 -0.2460
    6CHTO   O19 2442   8.070   6.376   4.367  0.4120  0.3294 -0.5294
    6CHTO   H35 2443   8.144   6.325   4.341 -0.4091 -1.5273  0.6886
    6CHTO   C21 2444   7.841   6.436   4.305 -0.0970 -0.0868 -0.7550
    6CHTO   H49 2445   7.840   6.467   4.409 -0.2707  2.4245 -1.4676
    6CHTO    N4 2446   7.857   6.564   4.227 -0.4069  0.6702 -1.1363
    6CHTO   H41 2447   7.779   6.637   4.245  0.1467  0.4604  2.3464
    6CHTO   H42 2448   7.952   6.612   4.245 -0.9362  0.7674  1.5341
    6CHTO   C22 2449   7.708   6.367   4.266  0.7002  0.0228  0.0168
    6CHTO   H50 2450   7.718   6.342   4.160  0.9012 -2.2873  0.5502
    6CHTO   O14 2451   7.687   6.243   4.330 -0.1279  0.7927 -0.2840
    6CHTO   C23 2452   7.775   6.146   4.288 -0.5072 -0.5224  0.5386
    6CHTO   H51 2453   7.764   6.136   4.179 -1.4629 -2.1049  0.7698
    6CHTO   C34 2454   7.745   6.021   4.369  0.5418 -0.2437 -0.8282
    6CHTO   O23 2455   7.606   5.976   4.354  0.2602  0.1666 -0.5617
    6CHTO   H38 2456   7.586   5.963   4.263  1.6898 -0.6987 -0.7755
    6CHTO   O16 2457   7.588   6.442   4.300 -0.0210 -0.3084 -0.0404
    6CHTO   C24 2458   7.463   6.425   4.187  0.4522 -0.2978  0.1517
    6CHTO   H52 2459   7.477   6.342   4.118  0.1519  0.7104 -1.1376
    6CHTO   C26 2460   7.456   6.556   4.112 -0.1239 -0.4389 -0.5465
    6CHTO   H54 2461   7.464   6.636   4.188  3.0993 -0.9817 -0.2360
    6CHTO   O20 2462   7.570   6.556   4.027 -0.3694  0.5146 -0.3589
    6CHTO   H36 2463   7.570   6.627   3.965 -0.4674  0.4375 -0.4464
    6CHTO   C30 2464   7.323   6.583   4.033 -0.0151 -0.4351  0.2230
    6CHTO   H58 2465   7.316   6.522   3.942  0.6713 -1.6925  0.9941
    6CHTO    N6 2466   7.304   6.722   3.991  0.1188 -0.0440  0.2105
    6CHTO   H45 2467   7.218   6.768   4.036  1.0442  0.8071  1.1343
    6CHTO   H46 2468   7.295   6.738   3.884 -0.3810  2.0426  0.5395
    6CHTO   C33 2469   7.193   6.539   4.110 -0.4014  0.6576  0.4474
    6CHTO   H61 2470   7.171   6.614   4.187  2.0139  1.7788  0.1119
    6CHTO   O18 2471   7.216   6.410   4.177  0.5731 -0.7503 -0.1895
    6CHTO   C28 2472   7.325   6.397   4.267  0.2886 -0.0150 -0.0437
    6CHTO   H56 2473   7.316   6.469   4.348 -0.8123  1.7025 -1.6485
    6CHTO   C35 2474   7.337   6.259   4.318  0.6684  0.4542 -0.4401
    6CHTO   O24 2475   7.209   6.227   4.371  0.4134  0.0236 -0.3575
    6CHTO   H39 2476   7.211   6.217   4.465  1.1516 -2.7787 -0.6173
    6CHTO    O9 2477   7.075   6.536   4.020 -0.2498 -0.4743  0.0979
    6CHTO   C13 2478   6.937   6.584   4.086  0.6130 -0.6136  0.3128
    6CHTO   H26 2479   6.976   6.675   4.136  1.2586 -0.8499  0.2446
    6CHTO   C11 2480   6.865   6.488   4.185 -0.0246  0.1937 -0.7079
    6CHTO   H24 2481   6.938   6.478   4.267 -1.4180 -2.2255  0.2869
    6CHTO    O8 2482   6.853   6.356   4.126 -0.0133 -0.1766 -0.3981
    6CHTO    H3 2483   6.763   6.334   4.139  0.4023 -0.3365  2.5295
    6CHTO    C9 2484   6.734   6.559   4.232  0.3056 -0.2377  0.1490
    6CHTO   H22 2485   6.764   6.652   4.284  2.0350 -0.1232 -1.0156
    6CHTO    N2 2486   6.664   6.478   4.336  1.0835 -0.4776 -0.0751
    6CHTO   H10 2487   6.742   6.464   4.409  1.1763  1.6760  0.2742
    6CHTO   H11 2488   6.590   6.549   4.368  0.6914 -0.2444 -1.4523
    6CHTO    C7 2489   6.640   6.587   4.107  0.2353 -0.3836  0.3198
    6CHTO   H20 2490   6.557   6.647   4.150 -0.9277  1.2534 -3.8642
    6CHTO    O4 2491   6.702   6.671   4.007  0.2392  0.0049  0.1373
    6CHTO   C14 2492   6.836   6.638   3.975  0.1666 -0.2892 -0.0447
    6CHTO   H27 2493   6.885   6.732   3.941  1.0924 -0.6893  0.1616
    6CHTO   C18 2494   6.830   6.546   3.849  0.2168 -0.6619 -0.1801
    6CHTO   O13 2495   6.773   6.613   3.734  0.0910  0.1910  0.0777
    6CHTO    H7 2496   6.712   6.677   3.764  2.1460  1.0805  2.5011
    6CHTO    O2 2497   6.574   6.437   4.020 -0.2493 -0.2612 -0.2359
    6CHTO    C1 2498   6.434   6.413   3.986  0.2277 -0.3538  0.0666
    6CHTO   H14 2499   6.418   6.337   3.907 -2.8510 -0.7790  1.0446
    6CHTO    C2 2500   6.352   6.536   3.937  0.2815 -0.5085  0.1930
    6CHTO   H15 2501   6.377   6.612   4.012  1.3341 -0.6173 -0.0351
    6CHTO    O6 2502   6.408   6.574   3.804 -0.1871 -0.0267  0.1811
    6CHTO    H1 2503   6.430   6.665   3.805 -0.2352 -0.0006  2.0439
    6CHTO    C3 2504   6.197   6.511   3.930  0.7004  0.5769  0.8095
    6CHTO   H16 2505   6.172   6.443   3.847  0.5995  2.7071 -0.9306
    6CHTO    N1 2506   6.120   6.636   3.910 -0.5542 -0.3965 -0.2358
    6CHTO    H8 2507   6.176   6.685   3.832  0.5138  0.1532  0.8624
    6CHTO    H9 2508   6.020   6.616   3.874 -1.1339  1.3701  0.3623
    6CHTO    C4 2509   6.147   6.439   4.053  0.1108 -0.4005 -0.5932
    6CHTO   H17 2510   6.157   6.502   4.142  0.2132  1.8932 -2.1893
    6CHTO    O1 2511   6.227   6.321   4.066 -0.6162 -0.0113 -0.5516
    6CHTO    C5 2512   6.361   6.348   4.105 -0.7898 -0.6437  0.1767
    6CHTO   H18 2513   6.373   6.411   4.193  4.2481 -1.2629  0.0935
    6CHTO   C16 2514   6.413   6.207   4.144  0.1989 -0.2925  0.4409
    6CHTO   O11 2515   6.546   6.201   4.187 -0.7051 -0.2389 -0.5957
    6CHTO    H5 2516   6.556   6.124   4.241  2.1783  0.9547  0.7032
    6CHTO    O3 2517   6.010   6.387   4.030 -0.3638  0.4130 -0.4518
    6CHTO    C6 2518   5.934   6.377   4.157 -0.0220  0.1324 -0.3902
    6CHTO   H19 2519   5.997   6.393   4.244  3.9149  0.4282 -3.1488
    6CHTO    C8 2520   5.817   6.483   4.160 -0.3169  0.3423 -0.5178
    6CHTO   H21 2521   5.759   6.474   4.068 -1.6623 -0.7278  0.4340
    6CHTO    O7 2522   5.884   6.608   4.158  0.5672 -0.6722 -0.4909
    6CHTO    H2 2523   5.840   6.658   4.092  0.0237 -0.2108  0.2154
    6CHTO   C12 2524   5.730   6.466   4.286 -0.0934  0.6270  0.0951
    6CHTO   H25 2525   5.801   6.477   4.371  0.5059 -0.6712 -0.2374
    6CHTO    N3 2526   5.621   6.566   4.286 -0.2850  0.6794 -0.0379
    6CHTO   H12 2527   5.543   6.523   4.347  1.0043 -1.2728  0.2807
    6CHTO   H13 2528   5.595   6.587   4.184  0.3304 -2.9802 -1.0488
    6CHTO   C15 2529   5.672   6.313   4.284  0.1699 -0.0141 -0.2715
    6CHTO   H28 2530   5.616   6.300   4.191  1.2148 -1.4208 -0.7301
    6CHTO   O10 2531   5.583   6.291   4.413  0.2707 -0.2133  0.1767
    6CHTO    H4 2532   5.548   6.378   4.422  0.2574 -0.1421 -0.4992
    6CHTO    O5 2533   5.780   6.220   4.291 -0.1290  0.0941  0.2342
    6CHTO   C10 2534   5.869   6.236   4.174  0.1539  0.1966 -0.0514
    6CHTO   H23 2535   5.804   6.224   4.087  0.9994 -0.1189 -0.6502
    6CHTO   C17 2536   5.980   6.132   4.178  0.1931 -0.3961  0.5440
    6CHTO   O12 2537   6.038   6.124   4.307 -0.6108 -0.7008 -0.6428
    6CHTO    H6 2538   6.127   6.099   4.296 -0.0551  1.9277 -2.5652
    7CHTO  H203 2539   4.973   2.403   1.922  0.8590  1.9099 -1.2815
    7CHTO   O82 2540   5.050   2.350   1.932 -0.2244  0.5397 -0.0328
    7CHTO  C123 2541   5.152   2.414   1.864 -0.1003 -0.1447 -0.7219
    7CHTO  H227 2542   5.126   2.521   1.855 -0.7945 -0.6061 -4.8464
    7CHTO   O77 2543   5.261   2.401   1.959 -0.2526 -0.5844  0.3396
    7CHTO  C118 2544   5.370   2.483   1.932  0.1041  0.5192  0.2432
    7CHTO  H222 2545   5.344   2.590   1.919 -0.2162  0.1896 -1.9047
    7CHTO  C125 2546   5.468   2.472   2.050 -0.3330 -0.0833 -0.3228
    7CHTO   O84 2547   5.543   2.351   2.057 -0.2241 -0.2997 -0.0653
    7CHTO  H205 2548   5.615   2.358   2.117  0.4414 -0.9835 -0.7920
    7CHTO  C114 2549   5.433   2.434   1.801  0.0587  0.2485 -0.6284
    7CHTO  H218 2550   5.472   2.334   1.822  1.2932  0.6891 -0.7931
    7CHTO  C116 2551   5.330   2.426   1.687  0.4650 -0.5477 -0.3082
    7CHTO  H220 2552   5.303   2.528   1.653  1.6084 -0.1580 -0.0586
    7CHTO   O79 2553   5.394   2.360   1.579 -0.4235 -0.5822  0.3676
    7CHTO  H201 2554   5.350   2.371   1.497 -2.1394  2.6035  1.6182
    7CHTO  C120 2555   5.201   2.354   1.728 -0.4264 -0.3310  0.3878
    7CHTO  H224 2556   5.229   2.250   1.755  0.1814 -0.9514 -2.4516
    7CHTO   N21 2557   5.098   2.352   1.618 -0.1042 -0.1629 -0.1864
    7CHTO  H211 2558   5.131   2.354   1.515 -2.9929  0.6173 -1.1380
    7CHTO  H212 2559   5.027   2.273   1.635  0.4342 -1.1500 -2.3928
    7CHTO   O75 2560   5.533   2.528   1.772  0.4043 -0.0461  0.2319
    7CHTO  C112 2561   5.674   2.485   1.723 -0.8222 -0.3180  0.5466
    7CHTO  H216 2562   5.660   2.419   1.636  1.0613  0.0492 -0.0566
    7CHTO   O73 2563   5.738   2.415   1.836 -0.3945  0.2651 -0.0673
    7CHTO  C113 2564   5.855   2.338   1.807 -0.0068  0.3916  0.3690
    7CHTO  H217 2565   5.848   2.275   1.716 -0.1405 -0.8953  1.2548
    7CHTO  C124 2566   5.885   2.241   1.927  0.3002  0.1051 -0.4060
    7CHTO   O83 2567   5.778   2.154   1.956 -0.1540 -0.4370  0.2185
    7CHTO  H204 2568   5.723   2.197   2.018 -0.0488  0.6241 -0.4024
    7CHTO  C109 2569   5.966   2.444   1.776 -0.0850  0.2245 -0.5214
    7CHTO  H213 2570   5.979   2.501   1.869 -0.2973 -0.7264  0.1000
    7CHTO  C110 2571   5.924   2.542   1.660  0.2302 -0.4693  0.3574
    7CHTO  H214 2572   5.937   2.494   1.562 -0.0406 -2.3558  1.2163
    7CHTO   O78 2573   6.014   2.657   1.654  0.1783 -0.3156  0.5934
    7CHTO  H200 2574   6.024   2.705   1.733 -0.1836  0.5799  0.1006
    7CHTO  C111 2575   5.775   2.593   1.670 -0.2225  0.7723  0.5866
    7CHTO  H215 2576   5.769   2.667   1.752 -1.8072  0.6148  0.6245
    7CHTO   N19 2577   5.726   2.663   1.548  0.2002  0.5315 -0.4951
    7CHTO  H207 2578   5.769   2.627   1.455  2.8431  0.5282  0.6700
    7CHTO  H208 2579   5.749   2.768   1.547  3.3307 -0.0937 -3.7425
    7CHTO   O74 2580   6.084   2.373   1.746 -0.1085  0.1599  0.2634
    7CHTO  C115 2581   6.215   2.450   1.785  0.8296 -0.1565  0.1700
    7CHTO  H219 2582   6.217   2.546   1.734  0.0383 -0.1491  0.1466
    7CHTO   O76 2583   6.219   2.487   1.942 -0.5937  0.4684  0.7557
    7CHTO  C122 2584   6.222   2.371   2.030  0.0173  0.1920  0.1859
    7CHTO  H226 2585   6.135   2.311   2.004  0.0621  0.3329 -0.2918
    7CHTO  C126 2586   6.204   2.419   2.173  0.1147 -0.2125  0.0388
    7CHTO   O85 2587   6.178   2.323   2.272  0.3995  0.1736 -0.5700
    7CHTO  H206 2588   6.134   2.254   2.226  0.8445 -0.6756  0.2480
    7CHTO  C121 2589   6.349   2.283   2.011  0.0335  0.2104  0.4016
    7CHTO  H225 2590   6.436   2.350   2.024  0.3886 -0.3079  0.7150
    7CHTO   O81 2591   6.341   2.171   2.096 -0.0778 -0.1219 -0.2812
    7CHTO  H202 2592   6.422   2.143   2.133  0.7110  3.1918  0.7047
    7CHTO  C119 2593   6.344   2.240   1.854  0.1281  0.1370  0.7396
    7CHTO  H223 2594   6.439   2.189   1.840 -0.7297 -0.7841 -2.0747
    7CHTO  C117 2595   6.342   2.362   1.750  0.1270  0.1657  0.4821
    7CHTO  H221 2596   6.329   2.329   1.647  2.0460  1.5150 -0.2043
    7CHTO   N20 2597   6.471   2.438   1.747  0.2581 -0.5949 -0.0044
    7CHTO  H209 2598   6.530   2.421   1.836  2.1239 -0.2713 -1.1532
    7CHTO  H210 2599   6.534   2.423   1.660  0.2076 -3.5960  0.4309
    7CHTO   O80 2600   6.248   2.137   1.826  0.3184  0.1830 -0.5526
    7CHTO  C103 2601   6.283   2.023   1.691 -0.5118  0.5919  0.1415
    7CHTO  H190 2602   6.252   2.071   1.598 -1.2721  0.0212  0.1003
    7CHTO  C101 2603   6.427   1.951   1.675 -0.2213 -0.0969  0.3553
    7CHTO  H188 2604   6.450   1.908   1.772 -1.2915 -1.0402  0.2020
    7CHTO   O68 2605   6.525   2.047   1.640  0.4700 -0.4716  0.4183
    7CHTO  H168 2606   6.559   2.090   1.716  0.7649 -1.0425  0.6090
    7CHTO   C99 2607   6.424   1.831   1.570  0.1153  0.3512  0.3498
    7CHTO  H186 2608   6.425   1.883   1.472  0.5449  1.7217  1.0740
    7CHTO   N17 2609   6.553   1.742   1.563  0.6991 -0.2278  0.1956
    7CHTO  H174 2610   6.611   1.758   1.654  1.0082 -3.2443  0.5669
    7CHTO  H175 2611   6.613   1.739   1.473 -0.4456 -0.4787 -0.5648
    7CHTO   C97 2612   6.297   1.746   1.577 -0.5939 -0.0871 -1.1400
    7CHTO  H184 2613   6.310   1.674   1.659 -1.3615  0.1234 -0.8300
    7CHTO   O64 2614   6.175   1.825   1.593  0.4729 -0.1898 -0.0906
    7CHTO  C104 2615   6.178   1.907   1.713  0.2817 -0.0841 -0.2473
    7CHTO  H191 2616   6.183   1.858   1.809 -0.5445 -1.1120 -0.7145
    7CHTO  C108 2617   6.035   1.969   1.713 -0.0241  0.3247  0.1579
    7CHTO   O71 2618   5.951   1.887   1.780 -0.2238  0.2863 -0.1779
    7CHTO  H171 2619   5.956   1.809   1.728  1.4898  0.0368  0.3317
    7CHTO   O62 2620   6.280   1.673   1.449  0.5540 -0.8167  0.2686
    7CHTO   C91 2621   6.274   1.533   1.440 -0.1833 -0.6044  0.0236
    7CHTO  H178 2622   6.380   1.515   1.423  0.1995  0.2388  1.4468
    7CHTO   C92 2623   6.186   1.506   1.312 -0.3790 -0.1168 -0.0727
    7CHTO  H179 2624   6.223   1.570   1.230  1.3415 -1.2875 -0.2510
    7CHTO   O66 2625   6.204   1.371   1.267 -0.2774 -0.3512 -0.1302
    7CHTO  H166 2626   6.190   1.307   1.335 -1.5266  0.9500  0.8748
    7CHTO   C93 2627   6.033   1.527   1.341  0.2897  0.6342  0.7612
    7CHTO  H180 2628   5.981   1.451   1.280 -1.0703  1.1139  1.2927
    7CHTO   N16 2629   5.974   1.651   1.286  0.2092  0.5320  0.0404
    7CHTO  H172 2630   5.914   1.640   1.197 -0.9629 -1.8355  1.0796
    7CHTO  H173 2631   5.925   1.707   1.364 -1.4475 -1.2501  0.3171
    7CHTO   C94 2632   5.999   1.505   1.491 -0.1038 -0.2554 -0.4641
    7CHTO  H181 2633   6.014   1.599   1.544 -2.4354  2.1461 -3.8474
    7CHTO   O61 2634   6.084   1.407   1.542 -0.0900 -0.3172 -0.3239
    7CHTO   C95 2635   6.223   1.451   1.558  0.1871 -0.4253  0.0293
    7CHTO  H182 2636   6.228   1.511   1.648 -2.5871  1.7292 -1.1972
    7CHTO  C106 2637   6.323   1.323   1.579  0.2021 -0.4100  0.0795
    7CHTO   O69 2638   6.342   1.277   1.707  0.0377 -0.1810  0.3781
    7CHTO  H169 2639   6.315   1.187   1.711 -1.8713  0.4192  1.3320
    7CHTO   O63 2640   5.841   1.449   1.520 -0.1702 -0.5335 -0.4648
    7CHTO   C96 2641   5.765   1.507   1.635  0.4957  0.3755 -0.2010
    7CHTO  H183 2642   5.755   1.615   1.630  0.9740  0.4142 -0.3071
    7CHTO   C98 2643   5.828   1.483   1.775 -0.0403  0.0967 -0.2467
    7CHTO  H185 2644   5.928   1.530   1.773  0.2945 -0.5812  0.3349
    7CHTO   O67 2645   5.754   1.568   1.864  0.1811  0.4359 -0.0712
    7CHTO  H167 2646   5.736   1.651   1.822  1.9341  0.9501  0.1621
    7CHTO  C102 2647   5.820   1.339   1.831 -0.2100  0.0461  0.6493
    7CHTO  H189 2648   5.849   1.351   1.937  2.4118  0.8540 -0.1187
    7CHTO   N18 2649   5.924   1.246   1.783 -0.5154  0.3915  0.4458
    7CHTO  H176 2650   5.923   1.237   1.676  0.4825 -2.7607  0.6537
    7CHTO  H177 2651   6.023   1.261   1.824  0.0923 -1.5940 -0.2617
    7CHTO  C105 2652   5.676   1.284   1.802 -0.1082  0.4102 -0.2745
    7CHTO  H192 2653   5.681   1.204   1.727 -1.8479  0.1242 -0.1038
    7CHTO   O65 2654   5.583   1.386   1.759 -0.4401  0.4092 -0.0049
    7CHTO  C100 2655   5.616   1.438   1.626 -0.6521  0.2141  0.2368
    7CHTO  H187 2656   5.620   1.352   1.557 -2.5604 -0.2041  0.6258
    7CHTO  C107 2657   5.505   1.527   1.570 -0.4287 -0.1998  0.1402
    7CHTO   O70 2658   5.514   1.527   1.430  0.2721 -0.7187  0.0363
    7CHTO  H170 2659   5.445   1.585   1.404  1.2784  1.2484  1.6511
    7CHTO   O57 2660   5.629   1.209   1.934  0.3168 -0.2272 -0.4511
    7CHTO   C85 2661   5.576   1.077   1.922 -0.6240  0.7461 -0.3407
    7CHTO  H157 2662   5.630   1.027   1.839 -3.0452 -0.6658 -1.1327
    7CHTO   C83 2663   5.417   1.081   1.889 -0.0168  0.6757  0.2110
    7CHTO  H155 2664   5.415   1.117   1.786 -1.1302  1.9660  0.6683
    7CHTO   O56 2665   5.347   1.169   1.983 -0.1643 -0.2973 -0.3445
    7CHTO  H135 2666   5.266   1.198   1.947 -0.2930  0.5534  0.5996
    7CHTO   C81 2667   5.371   0.932   1.894 -0.2384 -0.4454  0.6006
    7CHTO  H153 2668   5.416   0.879   1.810  1.0389  0.7940  0.4766
    7CHTO   N14 2669   5.225   0.927   1.861 -0.3939  0.2438  0.1589
    7CHTO  H141 2670   5.160   0.981   1.927 -0.3133  0.3763  0.1294
    7CHTO  H142 2671   5.195   0.825   1.865 -0.0996  0.0687 -1.7436
    7CHTO   C79 2672   5.402   0.856   2.031 -0.7825 -0.1211 -0.1650
    7CHTO  H151 2673   5.372   0.753   2.016  1.9916 -0.7725 -1.4972
    7CHTO   O52 2674   5.550   0.860   2.043  0.6278  0.0827  0.0028
    7CHTO   C86 2675   5.595   1.002   2.057 -0.3468 -0.4059  0.1973
    7CHTO  H158 2676   5.537   1.046   2.141  1.4741  0.3969  1.0857
    7CHTO   C90 2677   5.739   0.995   2.109 -0.5256  0.4291 -0.2744
    7CHTO   O60 2678   5.777   1.106   2.182  0.0582  0.3015 -0.2455
    7CHTO  H138 2679   5.866   1.123   2.160  0.7733  2.5923  3.7805
    7CHTO   O50 2680   5.338   0.915   2.149  0.1696  0.2855 -0.2170
    7CHTO   C73 2681   5.366   0.857   2.285 -0.2059 -0.2596 -0.0891
    7CHTO  H145 2682   5.475   0.850   2.299 -0.1814 -2.2313 -1.0447
    7CHTO   C74 2683   5.297   0.719   2.291 -0.5789  0.2163  0.0725
    7CHTO  H146 2684   5.334   0.659   2.206  3.0058  2.3510  0.0457
    7CHTO   O54 2685   5.342   0.667   2.412  0.5811 -0.6939 -0.4600
    7CHTO  H133 2686   5.414   0.609   2.398  0.9208 -0.0177 -1.5800
    7CHTO   C75 2687   5.136   0.731   2.292  1.0470 -0.5673  0.1387
    7CHTO  H147 2688   5.104   0.781   2.199  1.1618 -2.4276 -0.9353
    7CHTO   N13 2689   5.069   0.594   2.300 -0.0597 -0.0727  0.0739
    7CHTO  H139 2690   5.145   0.517   2.294  0.9754  1.0468 -1.4980
    7CHTO  H140 2691   5.018   0.586   2.206  0.8518  1.8891 -0.6223
    7CHTO   C76 2692   5.090   0.817   2.413 -0.2005 -0.2266 -0.0052
    7CHTO  H148 2693   5.113   0.779   2.512  1.0319 -0.9800 -0.5711
    7CHTO   O49 2694   5.157   0.946   2.396  0.7163  0.0050  0.2602
    7CHTO   C77 2695   5.298   0.948   2.393 -0.3717 -0.7486 -0.1945
    7CHTO  H149 2696   5.337   0.918   2.490 -0.4583 -0.8932 -0.2051
    7CHTO   C88 2697   5.331   1.097   2.364  0.7531  0.0754 -0.3045
    7CHTO   O58 2698   5.317   1.189   2.472 -0.3627  0.3541  0.2309
    7CHTO  H136 2699   5.229   1.215   2.490  0.1174  1.9230  0.3733
    7CHTO   O51 2700   4.928   0.854   2.397 -0.1832  0.4275 -0.2204
    7CHTO   C78 2701   4.865   0.896   2.546 -0.1961  0.9278 -0.0351
    7CHTO  H150 2702   4.943   0.900   2.625  1.4908  1.1205 -1.6838
    7CHTO   C80 2703   4.771   0.780   2.586 -0.8874 -0.4503 -0.8761
    7CHTO  H152 2704   4.693   0.767   2.509 -0.6742 -2.3672 -0.7994
    7CHTO   O55 2705   4.842   0.660   2.579 -0.0223 -0.0247  0.7596
    7CHTO  H134 2706   4.791   0.589   2.611  2.6379 -2.3451  0.0337
    7CHTO   C84 2707   4.703   0.801   2.730 -0.2285 -0.5675  0.1508
    7CHTO  H156 2708   4.784   0.789   2.803  1.1691  3.5364 -0.6216
    7CHTO   N15 2709   4.601   0.691   2.763 -0.1465 -0.2946 -0.3299
    7CHTO  H143 2710   4.503   0.703   2.723  0.8128  2.1965 -2.0959
    7CHTO  H144 2711   4.597   0.672   2.868  3.9397 -0.3669 -0.0855
    7CHTO   C87 2712   4.641   0.942   2.738 -0.6401 -0.5078 -0.7429
    7CHTO  H159 2713   4.543   0.949   2.691 -0.7642 -1.2128 -0.5953
    7CHTO   O53 2714   4.732   1.047   2.688  0.3959 -0.3942 -0.1340
    7CHTO   C82 2715   4.777   1.019   2.557  0.0232  0.2883 -0.0830
    7CHTO  H154 2716   4.686   1.008   2.498 -1.0676  1.0514  1.4420
    7CHTO   C89 2717   4.858   1.135   2.499 -0.3539 -0.4021 -0.4347
    7CHTO   O59 2718   4.773   1.247   2.484  0.1834  0.4577  0.0738
    7CHTO  H137 2719   4.721   1.238   2.406 -1.7952 -0.1147  1.4310
    7CHTO   O45 2720   4.611   0.978   2.906  0.7708 -0.4818 -0.1857
    7CHTO   C67 2721   4.703   1.069   2.967 -0.8236 -0.2001 -1.0305
    7CHTO  H124 2722   4.803   1.064   2.925 -0.3868 -0.9005  0.0915
    7CHTO   C65 2723   4.654   1.221   2.954  0.2317  0.7766 -0.1333
    7CHTO  H122 2724   4.549   1.212   2.928  0.3774 -1.4243 -0.0349
    7CHTO   O44 2725   4.715   1.293   2.841  0.5015  0.2686  0.0014
    7CHTO  H102 2726   4.648   1.354   2.820 -0.1787 -0.2278  0.6955
    7CHTO   C63 2727   4.650   1.291   3.096 -0.3143 -0.0567 -0.6840
    7CHTO  H120 2728   4.572   1.242   3.155  1.7345 -1.8718  0.5776
    7CHTO   N11 2729   4.590   1.436   3.097  0.2246 -0.0261 -0.3628
    7CHTO  H108 2730   4.485   1.427   3.078  0.5252  0.9281 -2.6641
    7CHTO  H109 2731   4.619   1.491   3.184  0.0402 -1.3548  0.5519
    7CHTO   C61 2732   4.792   1.262   3.167  0.8282 -0.3754  0.7060
    7CHTO  H118 2733   4.792   1.310   3.266 -3.3199 -2.2132  1.7394
    7CHTO   O40 2734   4.815   1.119   3.187  0.0916  0.2583  0.4289
    7CHTO   C68 2735   4.725   1.027   3.120  0.4742 -0.0314  0.0911
    7CHTO  H125 2736   4.629   1.025   3.175  0.5906  1.0556  0.3565
    7CHTO   C72 2737   4.784   0.889   3.129 -0.4864 -0.1648  0.1020
    7CHTO   O48 2738   4.713   0.786   3.056  0.3687 -0.0363  1.1169
    7CHTO  H105 2739   4.770   0.713   3.042  0.4521  0.1636  0.3997
    7CHTO   O38 2740   4.890   1.323   3.082 -0.0112 -0.3511 -0.4289
    7CHTO   C55 2741   5.028   1.317   3.130  0.8721  0.5782 -0.4689
    7CHTO  H112 2742   5.033   1.241   3.209 -0.2651  1.5490  0.5562
    7CHTO   C56 2743   5.081   1.458   3.174 -0.4281  0.4243  0.9407
    7CHTO  H113 2744   5.052   1.529   3.095  0.4198 -1.0044 -0.6985
    7CHTO   O42 2745   5.007   1.500   3.281 -0.3015  0.8213 -0.1769
    7CHTO  H100 2746   5.024   1.456   3.362 -0.0659  0.8327 -0.2223
    7CHTO   C57 2747   5.236   1.444   3.216  0.3964  0.4248  0.1602
    7CHTO  H114 2748   5.234   1.375   3.301  0.1773 -0.4668 -0.5568
    7CHTO   N10 2749   5.307   1.563   3.260 -0.2912  0.2410 -0.3778
    7CHTO  H106 2750   5.391   1.544   3.325 -0.6185 -1.2265 -0.3732
    7CHTO  H107 2751   5.244   1.640   3.301  0.4065  0.8730 -0.4877
    7CHTO   C58 2752   5.316   1.376   3.104  0.3218 -0.1156  0.1465
    7CHTO  H115 2753   5.310   1.448   3.019 -1.3627 -1.7473 -1.1584
    7CHTO   O37 2754   5.247   1.256   3.064 -0.2313  0.6326 -0.0607
    7CHTO   C59 2755   5.115   1.278   3.010  0.3764 -0.0621  0.3853
    7CHTO  H116 2756   5.111   1.351   2.929 -1.9206 -0.0818  0.4483
    7CHTO   C70 2757   5.084   1.141   2.942  0.2502 -0.1734  0.7705
    7CHTO   O46 2758   5.173   1.116   2.837 -0.0141 -0.2687  0.0150
    7CHTO  H103 2759   5.243   1.061   2.867  0.7416  0.1302 -0.9901
    7CHTO   O39 2760   5.498   1.340   3.149 -0.0041 -0.6085  0.5432
    7CHTO   C60 2761   5.578   1.275   3.050 -0.5303  1.1180  0.2574
    7CHTO  H117 2762   5.554   1.169   3.056 -1.6156  1.4322  1.7717
    7CHTO   C62 2763   5.559   1.334   2.904  0.5152  0.4159  0.2409
    7CHTO  H119 2764   5.452   1.326   2.875  0.4529  3.8300 -0.6848
    7CHTO   O43 2765   5.580   1.473   2.898 -0.0956  0.1957 -0.6175
    7CHTO  H101 2766   5.518   1.520   2.950 -0.0713  0.4434 -0.8161
    7CHTO   C66 2767   5.649   1.247   2.799  0.3759 -0.3801  0.0825
    7CHTO  H123 2768   5.624   1.141   2.812  1.2037 -0.3558  2.2176
    7CHTO   N12 2769   5.617   1.270   2.656  0.3513 -0.5611 -0.8475
    7CHTO  H110 2770   5.688   1.228   2.587  1.1521  3.4451 -2.6307
    7CHTO  H111 2771   5.619   1.375   2.629 -0.4050 -0.1229  0.7126
    7CHTO   C69 2772   5.797   1.260   2.828 -0.6499  0.0005 -0.2050
    7CHTO  H126 2773   5.833   1.356   2.786 -1.0421 -0.9527 -2.8198
    7CHTO   O41 2774   5.833   1.258   2.987  0.3667  0.4596 -0.0348
    7CHTO   C64 2775   5.733   1.290   3.099  0.3807 -0.0808 -0.4562
    7CHTO  H121 2776   5.745   1.395   3.135  1.5027 -0.4017  0.1351
    7CHTO   C71 2777   5.759   1.194   3.221 -0.6536 -0.6848  0.0885
    7CHTO   O47 2778   5.899   1.215   3.256 -0.5272 -0.4651  0.1776
    7CHTO  H104 2779   5.898   1.297   3.302  1.6672 -1.7249  2.5536
    7CHTO   O34 2780   5.854   1.122   2.767  0.4936 -0.6736 -0.1462
    7CHTO   C49 2781   5.940   1.045   2.644 -0.4574 -0.3728  0.2567
    7CHTO   H91 2782   6.004   0.978   2.701  0.4510  0.6626  0.4677
    7CHTO   C47 2783   6.019   1.143   2.557 -0.6248  0.4437  0.5206
    7CHTO   H89 2784   6.122   1.151   2.595  0.8690  0.1547 -3.2142
    7CHTO   O33 2785   5.961   1.276   2.553  0.0278  0.0550  0.4453
    7CHTO   H70 2786   5.928   1.287   2.466  2.2049  0.2743 -0.3969
    7CHTO   C45 2787   6.053   1.087   2.404  0.3622 -0.1472 -0.1065
    7CHTO   H87 2788   5.971   1.124   2.340 -0.0015 -2.8738 -1.3146
    7CHTO    N8 2789   6.182   1.136   2.345  0.0001 -0.3845 -0.1203
    7CHTO   H75 2790   6.194   1.086   2.250 -3.0533 -3.0655  0.7869
    7CHTO   H76 2791   6.180   1.244   2.347 -0.2798 -0.3928  0.1494
    7CHTO   C43 2792   6.037   0.932   2.396 -0.6646 -0.4639 -0.7328
    7CHTO   H85 2793   6.049   0.900   2.293  0.7155 -0.4263 -0.5928
    7CHTO   O29 2794   5.914   0.883   2.457 -0.7724 -0.3012 -0.2237
    7CHTO   C50 2795   5.851   0.961   2.549 -0.0598 -0.3094  0.8565
    7CHTO   H92 2796   5.793   1.027   2.483 -0.1772  0.1867  1.4500
    7CHTO   C54 2797   5.746   0.875   2.640  0.3421  0.3726  0.1706
    7CHTO   O36 2798   5.623   0.868   2.559  0.4138  0.5671  0.5675
    7CHTO   H72 2799   5.557   0.875   2.626 -0.8058 -3.0038 -0.1433
    7CHTO   O27 2800   6.150   0.870   2.467  0.0458  0.1416 -0.8639
    7CHTO   C37 2801   6.214   0.756   2.531  0.4118  0.0459 -0.4031
    7CHTO   H79 2802   6.209   0.777   2.639  0.1891  1.7604 -0.7378
    7CHTO   C38 2803   6.135   0.624   2.491 -0.2725  0.4361 -0.5622
    7CHTO   H80 2804   6.119   0.625   2.382  0.5526 -2.1506 -0.7208
    7CHTO   O31 2805   6.009   0.627   2.565 -0.1546  0.1114 -0.7935
    7CHTO   H68 2806   5.935   0.596   2.515 -0.1540 -0.4994 -0.4149
    7CHTO   C39 2807   6.222   0.498   2.532 -0.0565  0.0121  0.4230
    7CHTO   H81 2808   6.206   0.474   2.637  3.2044  1.0904  1.2300
    7CHTO    N7 2809   6.163   0.385   2.451 -0.0818  0.8414  0.5686
    7CHTO   H73 2810   6.226   0.298   2.454 -3.3776 -1.8044 -2.7684
    7CHTO   H74 2811   6.144   0.413   2.348 -1.4412 -1.3994  0.1848
    7CHTO   C40 2812   6.375   0.511   2.505  0.1269  0.3644  0.0336
    7CHTO   H82 2813   6.385   0.501   2.397  1.2217 -2.2058  0.3435
    7CHTO   O26 2814   6.430   0.634   2.558  0.2419  0.6531 -0.0474
    7CHTO   C41 2815   6.368   0.746   2.481 -0.4168 -0.0339  0.7628
    7CHTO   H83 2816   6.379   0.716   2.376  1.7938 -0.9062  1.2128
    7CHTO   C52 2817   6.448   0.875   2.498 -0.3079  0.3456 -1.3436
    7CHTO   O35 2818   6.580   0.860   2.474  0.3263  0.1345  0.6728
    7CHTO   H71 2819   6.622   0.926   2.527 -2.6986  1.9448  0.9609
    7CHTO   O28 2820   6.444   0.404   2.572  0.4358  0.0580 -0.4440
    7CHTO   C42 2821   6.571   0.360   2.525 -0.2138 -0.2154  0.2972
    7CHTO   H84 2822   6.614   0.305   2.609 -2.3441  0.0907  1.6094
    7CHTO   C44 2823   6.672   0.473   2.482  0.1513 -0.1242 -0.5865
    7CHTO   H86 2824   6.619   0.536   2.410  0.1273  0.5262 -0.0016
    7CHTO   O32 2825   6.703   0.543   2.602 -0.4542  0.1273  0.4747
    7CHTO   H69 2826   6.729   0.491   2.676 -2.6442  0.2914  1.4138
    7CHTO   C48 2827   6.800   0.418   2.411 -0.0382  0.5683 -0.2853
    7CHTO   H90 2828   6.855   0.351   2.478  1.7466  0.6282 -1.6619
    7CHTO    N9 2829   6.897   0.527   2.381  0.2607 -0.1943  0.5647
    7CHTO   H77 2830   6.954   0.564   2.465 -1.1565 -0.1192  1.5139
    7CHTO   H78 2831   6.862   0.600   2.309  0.5837 -0.5977 -0.0066
    7CHTO   C51 2832   6.750   0.338   2.286 -0.0859  0.5414 -0.5809
    7CHTO   H93 2833   6.700   0.405   2.216 -0.1735  0.4015 -0.6525
    7CHTO   O30 2834   6.663   0.227   2.323 -0.6152 -0.0445 -0.0936
    7CHTO   C46 2835   6.549   0.264   2.410 -0.6830 -0.7225 -0.2486
    7CHTO   H88 2836   6.471   0.290   2.338 -0.6071  1.1478  0.3327
    7CHTO   C53 2837   6.510   0.126   2.470  0.3101 -0.6038  0.0631
    7CHTO   O72 2838   6.386   0.138   2.534 -0.3940 -0.4639  0.3379
    7CHTO  H199 2839   6.396   0.192   2.610  1.9732  0.2175 -0.4059
    7CHTO   O22 2840   6.860   0.269   2.224  0.8106  0.0691  0.5560
    7CHTO   C31 2841   6.843   0.232   2.080  0.8841 -0.5308 -0.2175
    7CHTO   H59 2842   6.937   0.178   2.053  1.5286  0.9789 -1.0262
    7CHTO   C29 2843   6.728   0.139   2.049 -0.0855  0.3166 -0.5822
    7CHTO   H57 2844   6.634   0.182   2.088 -0.0683  0.6148 -0.8574
    7CHTO   O21 2845   6.751   0.014   2.120  0.7069  0.1408 -0.0787
    7CHTO   H37 2846   6.774   0.024   2.210  0.1441  1.5022 -0.0830
    7CHTO   C27 2847   6.712   0.113   1.891 -0.3509  0.4432 -0.6700
    7CHTO   H55 2848   6.804   0.057   1.868 -0.7953 -0.1762 -0.9463
    7CHTO    N5 2849   6.596   0.027   1.856  0.6204  0.0299 -0.2763
    7CHTO   H43 2850   6.581  -0.052   1.928  0.7575  0.9991  0.8331
    7CHTO   H44 2851   6.605  -0.013   1.756 -0.1277  0.9682 -0.7288
    7CHTO   C25 2852   6.717   0.249   1.810 -0.0035  0.3578 -0.1379
    7CHTO   H53 2853   6.627   0.307   1.833  0.7922  1.8018 -0.5378
    7CHTO   O17 2854   6.830   0.323   1.851  0.3766 -0.3348  0.4512
    7CHTO   C32 2855   6.840   0.356   1.990  0.3007 -0.5682 -0.0286
    7CHTO   H60 2856   6.757   0.421   2.014  0.8562  0.1910 -0.1450
    7CHTO   C36 2857   6.962   0.444   2.004  0.0312  0.2611  0.0829
    7CHTO   O25 2858   6.958   0.555   1.917 -0.2377 -0.6036 -0.3693
    7CHTO   H40 2859   7.037   0.607   1.921  0.0719 -0.9157 -2.0248
    7CHTO   O15 2860   6.712   0.219   1.641  0.8567  0.0105 -0.4577
    7CHTO   C19 2861   6.710   0.323   1.547  0.1905 -0.5261  0.5710
    7CHTO   H47 2862   6.724   0.269   1.453 -0.8115 -1.4740  0.9553
    7CHTO   C20 2863   6.574   0.403   1.549 -0.1422 -0.1436  0.4871
    7CHTO   H48 2864   6.533   0.416   1.650 -0.0290  0.5731  0.4385
    7CHTO   O19 2865   6.472   0.313   1.506 -0.2488 -0.3481 -0.3863
    7CHTO   H35 2866   6.509   0.261   1.437 -1.3720 -1.8595  0.1295
    7CHTO   C21 2867   6.568   0.541   1.480 -0.1629  0.0581 -0.0360
    7CHTO   H49 2868   6.539   0.528   1.376  0.7756  2.9971 -0.7202
    7CHTO    N4 2869   6.461   0.630   1.535  0.0267 -0.0152 -0.4945
    7CHTO   H41 2870   6.442   0.614   1.639  0.0765  3.5282  0.1307
    7CHTO   H42 2871   6.371   0.616   1.476 -0.6605  0.5844  0.4061
    7CHTO   C22 2872   6.707   0.618   1.495 -0.2887 -0.1262  0.3763
    7CHTO   H50 2873   6.716   0.668   1.591 -0.2791  0.1275  0.2441
    7CHTO   O14 2874   6.810   0.524   1.453 -0.4207 -0.4140 -0.3899
    7CHTO   C23 2875   6.824   0.427   1.554 -0.0078 -0.5884  0.0714
    7CHTO   H51 2876   6.830   0.475   1.653 -0.8659 -1.4972  0.5794
    7CHTO   C34 2877   6.954   0.356   1.526 -0.2339 -0.3732  0.0596
    7CHTO   O23 2878   7.068   0.446   1.512  0.0050 -0.0903  0.0667
    7CHTO   H38 2879   7.078   0.488   1.429 -0.8759 -1.7326 -0.8936
    7CHTO   O16 2880   6.728   0.722   1.390 -0.1948  0.2249  0.3667
    7CHTO   C24 2881   6.756   0.863   1.437 -0.2929 -0.2018  0.3390
    7CHTO   H52 2882   6.738   0.879   1.544  0.5430 -1.0253  0.6119
    7CHTO   C26 2883   6.664   0.959   1.364  0.6474  0.0486 -0.5095
    7CHTO   H54 2884   6.689   0.952   1.256  0.9547  1.3925 -0.5310
    7CHTO   O20 2885   6.524   0.922   1.384 -0.0988  0.1441 -0.2254
    7CHTO   H36 2886   6.478   0.882   1.314 -1.1939 -2.3097  1.8176
    7CHTO   C30 2887   6.704   1.103   1.414 -0.0675  0.0965  0.1239
    7CHTO   H58 2888   6.686   1.115   1.522 -0.1025  0.7484  0.0486
    7CHTO    N6 2889   6.617   1.210   1.350 -0.3405  0.1639 -0.5305
    7CHTO   H45 2890   6.519   1.209   1.395 -0.1732 -1.7744 -0.1678
    7CHTO   H46 2891   6.607   1.183   1.245  0.5566 -0.1945 -0.5263
    7CHTO   C33 2892   6.854   1.131   1.384 -0.2343 -0.2147  0.4176
    7CHTO   H61 2893   6.872   1.126   1.275  3.4794  1.1149  0.8679
    7CHTO   O18 2894   6.927   1.034   1.449 -0.1581  0.2370 -0.4143
    7CHTO   C28 2895   6.903   0.896   1.412 -0.2483  0.1224 -0.7426
    7CHTO   H56 2896   6.919   0.876   1.306 -1.2191 -0.5208 -0.7752
    7CHTO   C35 2897   6.997   0.800   1.485 -0.3642  0.2924 -0.4034
    7CHTO   O24 2898   7.010   0.822   1.627 -0.3773 -0.5758  0.1264
    7CHTO   H39 2899   7.033   0.746   1.677 -0.1142 -0.5305  0.0747
    7CHTO    O9 2900   6.899   1.265   1.418 -0.2689  0.2024 -0.1544
    7CHTO   C13 2901   7.062   1.303   1.348  0.5618 -0.0453  0.0196
    7CHTO   H26 2902   7.070   1.230   1.265  0.1299 -1.7021  1.3967
    7CHTO   C11 2903   7.176   1.285   1.452 -0.5813  0.2652 -0.0025
    7CHTO   H24 2904   7.198   1.178   1.465 -1.4963 -0.0528 -1.0011
    7CHTO    O8 2905   7.126   1.329   1.580 -0.4288 -0.3509  0.5308
    7CHTO    H3 2906   7.193   1.321   1.646 -0.5722  1.3366  0.8977
    7CHTO    C9 2907   7.309   1.360   1.420 -0.3174 -0.3522  0.1383
    7CHTO   H22 2908   7.331   1.337   1.315  0.8171  1.5520 -0.0589
    7CHTO    N2 2909   7.431   1.320   1.500  0.6502  0.1247 -0.3378
    7CHTO   H10 2910   7.414   1.345   1.604  1.8280  1.7402 -0.5286
    7CHTO   H11 2911   7.512   1.377   1.458  1.4123 -2.3829 -2.3804
    7CHTO    C7 2912   7.276   1.508   1.421 -0.1668 -0.4368 -0.1264
    7CHTO   H20 2913   7.359   1.552   1.362  0.6930 -0.6923  0.8786
    7CHTO    O4 2914   7.150   1.541   1.360  0.4700 -0.1076 -0.1712
    7CHTO   C14 2915   7.070   1.452   1.282 -0.2187 -0.0533 -0.3902
    7CHTO   H27 2916   7.108   1.432   1.180  1.1850 -1.5747  0.4205
    7CHTO   C18 2917   6.929   1.517   1.264 -0.0150  0.5875  0.5458
    7CHTO   O13 2918   6.833   1.432   1.199  0.1981  0.0001  0.2992
    7CHTO    H7 2919   6.868   1.412   1.114 -1.6756 -0.1227 -0.4781
    7CHTO    O2 2920   7.276   1.571   1.558 -0.1673  0.8353 -0.1053
    7CHTO    C1 2921   7.311   1.708   1.574 -0.0689 -0.0365 -0.9730
    7CHTO   H14 2922   7.261   1.781   1.507 -0.2587  0.4344 -0.3279
    7CHTO    C2 2923   7.470   1.727   1.572  0.0473  1.2600 -0.5930
    7CHTO   H15 2924   7.515   1.658   1.645  1.1104  0.8310 -1.6555
    7CHTO    O6 2925   7.521   1.693   1.440  0.0391  0.1576 -0.1603
    7CHTO    H1 2926   7.453   1.712   1.378  0.0415  1.3023  0.1662
    7CHTO    C3 2927   7.500   1.873   1.608 -0.2691  0.2416 -0.3066
    7CHTO   H16 2928   7.454   1.939   1.532 -2.8541 -0.2393  0.7726
    7CHTO    N1 2929   7.647   1.893   1.627 -0.4021  0.1623  0.6132
    7CHTO    H8 2930   7.702   1.800   1.634  1.0928  0.9866 -0.0783
    7CHTO    H9 2931   7.684   1.965   1.556  0.9929 -1.4107 -0.2855
    7CHTO    C4 2932   7.432   1.916   1.745 -1.1112  0.4163 -0.3351
    7CHTO   H17 2933   7.466   1.857   1.830  0.3684 -1.9369 -2.5212
    7CHTO    O1 2934   7.294   1.883   1.727  0.3989 -0.6386  0.2297
    7CHTO    C5 2935   7.261   1.740   1.713 -0.3837 -0.3117  0.5213
    7CHTO   H18 2936   7.313   1.676   1.785 -0.7652 -1.7552 -0.4694
    7CHTO   C16 2937   7.105   1.721   1.711 -0.2108  0.2333 -0.6259
    7CHTO   O11 2938   7.051   1.779   1.832 -0.2263  1.0470  0.8988
    7CHTO    H5 2939   7.106   1.760   1.905 -1.4498 -3.2450  0.8028
    7CHTO    O3 2940   7.433   2.057   1.772 -0.2007 -0.2558  0.1256
    7CHTO    C6 2941   7.513   2.116   1.884 -0.1519  0.1859 -0.7080
    7CHTO   H19 2942   7.580   2.036   1.916 -0.1373 -0.1698 -1.5987
    7CHTO    C8 2943   7.590   2.243   1.840 -0.0835  0.1695 -0.6475
    7CHTO   H21 2944   7.521   2.314   1.795 -2.4174 -1.3694  0.3807
    7CHTO    O7 2945   7.685   2.200   1.736  0.2844  0.3245 -0.1174
    7CHTO    H2 2946   7.642   2.176   1.656  0.2868  1.0055 -0.3324
    7CHTO   C12 2947   7.656   2.311   1.966  0.5130  0.3019 -0.0170
    7CHTO   H25 2948   7.737   2.239   1.992  1.2380  1.0241 -0.2791
    7CHTO    N3 2949   7.717   2.444   1.936  0.0733 -0.1146 -0.2609
    7CHTO   H12 2950   7.674   2.499   1.854 -0.2461  1.5219  0.9760
    7CHTO   H13 2951   7.825   2.448   1.939  0.0837 -0.3963 -0.2170
    7CHTO   C15 2952   7.556   2.318   2.088  0.0262  0.4201  0.1414
    7CHTO   H28 2953   7.477   2.390   2.070 -0.1875  0.1129 -0.1599
    7CHTO   O10 2954   7.643   2.363   2.232 -0.2819  0.5194  0.2472
    7CHTO    H4 2955   7.663   2.454   2.243 -2.1034  0.8215  1.4219
    7CHTO    O5 2956   7.502   2.196   2.120 -0.1239 -0.1894 -0.1073
    7CHTO   C10 2957   7.424   2.154   2.013 -0.2141 -0.1285  0.5331
    7CHTO   H23 2958   7.355   2.236   1.991 -0.2202  0.3943  2.3811
    7CHTO   C17 2959   7.335   2.037   2.053 -0.3949  0.3879 -0.6014
    7CHTO   O12 2960   7.219   2.069   2.131  0.9110  0.3733  0.5598
    7CHTO    H6 2961   7.231   2.140   2.191  0.4083 -0.2954  1.4628
    8CHTO  H203 2962   7.340   8.946   0.511  1.3501 -1.7261 -2.5290
    8CHTO   O82 2963   7.409   8.929   0.572 -0.3134  0.1191  0.0506
    8CHTO  C123 2964   7.368   8.872   0.686 -0.5032 -0.0456 -0.0040
    8CHTO  H227 2965   7.453   8.858   0.754 -0.7560  0.5324  0.4432
    8CHTO   O77 2966   7.286   8.977   0.738 -0.4870 -0.7441  0.1650
    8CHTO  C118 2967   7.237   8.949   0.867  0.6508  0.7085  0.2134
    8CHTO  H222 2968   7.309   8.916   0.944 -1.4016 -1.2325  1.3701
    8CHTO  C125 2969   7.167   9.080   0.915 -0.7937 -0.1273 -0.2377
    8CHTO   O84 2970   7.034   9.097   0.864 -0.4312  0.1087  0.2513
    8CHTO  H205 2971   7.005   9.179   0.900  1.3452  1.7909 -2.0133
    8CHTO  C114 2972   7.133   8.833   0.861 -0.0374 -0.6153 -0.3811
    8CHTO  H218 2973   7.062   8.862   0.784  0.1501  1.9313  0.3479
    8CHTO  C116 2974   7.213   8.705   0.823  0.5676 -0.2708 -0.6061
    8CHTO  H220 2975   7.287   8.669   0.898 -1.2876 -1.0697  0.8862
    8CHTO   O79 2976   7.126   8.596   0.828  0.0814 -0.0087 -0.2286
    8CHTO  H201 2977   7.061   8.609   0.762  1.6073  1.5112 -1.4766
    8CHTO  C120 2978   7.288   8.731   0.679 -0.0539  0.1561 -0.0949
    8CHTO  H224 2979   7.205   8.736   0.606  0.3478  0.7151 -0.5169
    8CHTO   N21 2980   7.378   8.617   0.638 -0.1107  0.5623 -0.5458
    8CHTO  H211 2981   7.372   8.606   0.530  0.2879 -0.3788 -0.4757
    8CHTO  H212 2982   7.479   8.642   0.664  1.1915 -2.4611 -2.3132
    8CHTO   O75 2983   7.065   8.831   0.987  0.1210  0.3719  1.0188
    8CHTO  C112 2984   6.903   8.779   0.971 -0.3345  0.0539 -0.0284
    8CHTO  H216 2985   6.906   8.670   0.962  0.4918  0.0354  0.4147
    8CHTO   O73 2986   6.843   8.836   0.858  0.1457 -0.1351  0.3380
    8CHTO  C113 2987   6.697   8.839   0.854 -0.0613 -0.6031 -0.7268
    8CHTO  H217 2988   6.653   8.740   0.830 -0.7082 -1.1021  2.3413
    8CHTO  C124 2989   6.660   8.930   0.739 -0.3008 -0.3285  0.1405
    8CHTO   O83 2990   6.519   8.957   0.713  0.0924 -0.4437  0.3159
    8CHTO  H204 2991   6.510   9.026   0.649  0.2558 -1.2239 -0.5658
    8CHTO  C109 2992   6.633   8.897   0.984 -0.0861 -0.1067 -0.1353
    8CHTO  H213 2993   6.674   8.999   0.994 -1.0746  0.1603  1.4901
    8CHTO  C110 2994   6.679   8.809   1.098  0.1129 -0.6181  0.2725
    8CHTO  H214 2995   6.663   8.708   1.059 -2.2981 -1.2924  2.8568
    8CHTO   O78 2996   6.598   8.830   1.213  1.0373  0.2982 -0.3142
    8CHTO  H200 2997   6.634   8.792   1.291  1.0984 -0.6547 -0.8026
    8CHTO  C111 2998   6.830   8.826   1.108 -0.1403 -0.4367  0.0673
    8CHTO  H215 2999   6.855   8.931   1.126  1.6429 -0.9835  0.9618
    8CHTO   N19 3000   6.892   8.753   1.220 -0.9677  0.0380  0.5030
    8CHTO  H207 3001   6.940   8.823   1.286 -0.1424 -0.1350  0.0882
    8CHTO  H208 3002   6.806   8.702   1.261 -2.5468  0.9382 -1.6123
    8CHTO   O74 3003   6.485   8.905   0.984 -0.0023  0.0506 -0.3849
    8CHTO  C115 3004   6.407   8.763   0.973 -0.1322  0.6025 -0.2957
    8CHTO  H219 3005   6.476   8.681   0.951  0.0835  1.0725 -1.3751
    8CHTO   O76 3006   6.339   8.722   1.119 -0.2528 -0.1395 -0.3174
    8CHTO  C122 3007   6.222   8.787   1.161  0.0753 -0.1043 -0.1468
    8CHTO  H226 3008   6.246   8.884   1.204  0.4899 -0.2677 -0.0107
    8CHTO  C126 3009   6.167   8.703   1.282 -0.3349  0.3864  0.4254
    8CHTO   O85 3010   6.085   8.775   1.374 -0.2140 -0.2157  0.4000
    8CHTO  H206 3011   6.017   8.826   1.334  0.1798 -0.0149 -0.0193
    8CHTO  C121 3012   6.107   8.789   1.044 -0.9754 -0.1077  0.1302
    8CHTO  H225 3013   6.077   8.686   1.016 -0.1076  0.5013 -3.2381
    8CHTO   O81 3014   5.995   8.860   1.096  0.4201  0.0299  0.5040
    8CHTO  H202 3015   6.006   8.952   1.083  1.4516 -0.0883  0.4978
    8CHTO  C119 3016   6.177   8.856   0.917 -0.4350 -0.2081  0.6434
    8CHTO  H223 3017   6.099   8.854   0.841  1.9183 -2.4494 -1.8515
    8CHTO  C117 3018   6.300   8.767   0.861 -0.1752  0.3522  0.2817
    8CHTO  H221 3019   6.341   8.805   0.767 -2.8591  0.2761 -0.9755
    8CHTO   N20 3020   6.259   8.627   0.817  0.1759  0.4708 -0.5144
    8CHTO  H209 3021   6.197   8.573   0.887  2.6115 -1.2758  0.3401
    8CHTO  H210 3022   6.208   8.635   0.722  2.1039  1.8093 -1.4728
    8CHTO   O80 3023   6.205   9.005   0.934 -0.2594 -0.5073 -0.3482
    8CHTO  C103 3024   6.089   9.112   0.905  0.4399 -0.3919 -0.0794
    8CHTO  H190 3025   6.000   9.061   0.869  0.3887  0.2686 -0.9133
    8CHTO  C101 3026   6.071   9.227   1.016  0.3992 -0.1744 -0.0725
    8CHTO  H188 3027   6.170   9.259   1.049  0.2132  0.3233 -0.0030
    8CHTO   O68 3028   5.989   9.175   1.145 -0.5426  0.4248 -0.2311
    8CHTO  H168 3029   5.925   9.241   1.165  1.0702  1.2305  2.5359
    8CHTO   C99 3030   5.995   9.359   0.964 -0.0983  0.3289 -0.2688
    8CHTO  H186 3031   5.891   9.331   0.937  0.2977 -0.6203 -0.8215
    8CHTO   N17 3032   5.988   9.476   1.055 -0.3236  0.0843  0.4014
    8CHTO  H174 3033   6.081   9.512   1.095 -0.1314 -0.6542  0.6384
    8CHTO  H175 3034   5.909   9.464   1.128 -1.2036  0.1721 -0.5088
    8CHTO   C97 3035   6.057   9.408   0.833 -0.3216  0.1015  0.0185
    8CHTO  H184 3036   6.156   9.451   0.853 -0.0088 -0.6623  0.1457
    8CHTO   O64 3037   6.066   9.297   0.739  0.0431  0.2063 -0.3077
    8CHTO  C104 3038   6.152   9.189   0.776  0.3876 -0.0931 -0.7366
    8CHTO  H191 3039   6.250   9.230   0.802  0.5694 -1.2256  0.4093
    8CHTO  C108 3040   6.173   9.090   0.664 -0.2034 -0.7648 -0.2909
    8CHTO   O71 3041   6.206   9.166   0.545 -0.1437 -0.2103  0.9625
    8CHTO  H171 3042   6.212   9.109   0.471  2.5209 -1.4759  2.0682
    8CHTO   O62 3043   5.975   9.500   0.761 -0.5364 -0.0220 -1.0738
    8CHTO   C91 3044   6.038   9.591   0.671  0.1169  0.8272  0.1077
    8CHTO  H178 3045   6.131   9.555   0.627  0.0683  0.7952  0.0296
    8CHTO   C92 3046   6.076   9.723   0.742 -0.4236  0.0005 -0.0070
    8CHTO  H179 3047   5.983   9.768   0.778 -1.4168 -0.3730 -2.0400
    8CHTO   O66 3048   6.150   9.695   0.860  0.1949 -0.1888 -0.1335
    8CHTO  H166 3049   6.198   9.766   0.897 -0.4982  1.3304 -2.0103
    8CHTO   C93 3050   6.149   9.825   0.640  0.0705  0.5317  0.7302
    8CHTO  H180 3051   6.242   9.774   0.609 -0.1551 -0.4766  1.6850
    8CHTO   N16 3052   6.197   9.950   0.704 -0.1264  0.6855 -0.5216
    8CHTO  H172 3053   6.168   9.938   0.808 -1.1878 -0.5933 -0.9400
    8CHTO  H173 3054   6.305   9.946   0.706 -0.1599 -0.0874  0.1732
    8CHTO   C94 3055   6.057   9.850   0.519  0.1432  0.3936  0.8734
    8CHTO  H181 3056   5.963   9.894   0.551 -0.2221  0.1585  0.1309
    8CHTO   O61 3057   6.033   9.719   0.455  0.1992  0.0945  0.2700
    8CHTO   C95 3058   5.956   9.637   0.539 -0.7159  0.5252 -0.2209
    8CHTO  H182 3059   5.871   9.690   0.582 -0.6351 -1.2714  2.2098
    8CHTO  C106 3060   5.900   9.517   0.461 -0.7223 -0.2746 -0.2694
    8CHTO   O69 3061   5.996   9.420   0.436 -0.5313 -0.4319 -0.4158
    8CHTO  H169 3062   5.961   9.340   0.402  1.8498 -2.8846  2.6148
    8CHTO   O63 3063   6.134   9.942   0.411  0.0007  0.4276  0.2364
    8CHTO   C96 3064   6.056   9.954   0.294  0.4326  0.0577 -0.2804
    8CHTO  H183 3065   5.974   9.882   0.289  0.6958 -0.0956 -2.5649
    8CHTO   C98 3066   6.143   9.930   0.168 -0.7558 -0.4706 -0.0518
    8CHTO  H185 3067   6.232   9.994   0.172 -2.1501  1.8683 -3.5285
    8CHTO   O67 3068   6.188   9.793   0.181  0.1773  0.2892 -0.6715
    8CHTO  H167 3069   6.280   9.785   0.198  0.0492 -1.0054 -0.5270
    8CHTO  C102 3070   6.049   9.962   0.034  0.3880  0.1105 -0.4295
    8CHTO  H189 3071   5.974   9.882   0.031 -0.3354  0.7661 -0.1653
    8CHTO   N18 3072   6.120   9.948  -0.090 -0.4903 -0.1733 -0.5372
    8CHTO  H176 3073   6.056  10.006  -0.154 -1.9653  0.8364  1.7623
    8CHTO  H177 3074   6.215   9.999  -0.089  0.5063 -1.9944  0.2490
    8CHTO  C105 3075   5.979  10.105   0.046  0.5449  0.2686 -0.4061
    8CHTO  H192 3076   6.055  10.181   0.032 -0.4410  1.1377 -1.1505
    8CHTO   O65 3077   5.924  10.131   0.177  0.4973  0.0884 -0.4293
    8CHTO  C100 3078   5.998  10.104   0.294  0.2474  0.0980  0.4058
    8CHTO  H187 3079   6.086  10.170   0.295  0.3715  0.0470 -2.6790
    8CHTO  C107 3080   5.900  10.141   0.403 -0.1459 -0.3153 -0.5063
    8CHTO   O70 3081   5.796  10.044   0.422  0.3153 -0.3361 -0.0211
    8CHTO  H170 3082   5.736  10.055   0.493 -0.7049 -2.1119 -0.5789
    8CHTO   O57 3083   5.862  10.108  -0.092 -0.2833  0.4852  0.0110
    8CHTO   C85 3084   5.788  10.222  -0.139  0.2188 -0.3857 -0.1488
    8CHTO  H157 3085   5.867  10.290  -0.176 -0.3417  0.7097  0.6391
    8CHTO   C83 3086   5.718  10.304  -0.027 -0.7192  0.7662 -0.1938
    8CHTO  H155 3087   5.798  10.341   0.038  0.8077  2.3522 -2.8865
    8CHTO   O56 3088   5.637  10.213   0.048 -0.1944  0.0681  0.2447
    8CHTO  H135 3089   5.682  10.139   0.083  0.6597  0.7274  0.5615
    8CHTO   C81 3090   5.646  10.419  -0.091  0.3856  0.4716  0.5831
    8CHTO  H153 3091   5.714  10.468  -0.160  0.9072 -0.5437  0.3680
    8CHTO   N14 3092   5.599  10.517   0.011 -0.1479 -0.3353 -0.2119
    8CHTO  H141 3093   5.631  10.492   0.110  2.1488  1.9680 -0.3223
    8CHTO  H142 3094   5.493  10.531   0.023  0.2681  2.2006  0.8583
    8CHTO   C79 3095   5.523  10.370  -0.174  1.0740  0.3008  0.6333
    8CHTO  H151 3096   5.477  10.460  -0.213 -0.4341 -0.6798  0.1237
    8CHTO   O52 3097   5.578  10.290  -0.282  0.5110  0.2519  0.5542
    8CHTO   C86 3098   5.683  10.186  -0.251  0.2061 -0.9562  0.3007
    8CHTO  H158 3099   5.628  10.096  -0.216 -2.0288 -0.1947 -1.1276
    8CHTO   C90 3100   5.762  10.145  -0.383 -0.3704  0.3030  0.1441
    8CHTO   O60 3101   5.678  10.099  -0.487  0.2372 -0.3605 -0.2562
    8CHTO  H138 3102   5.673  10.007  -0.500 -0.0464 -0.3843  0.0236
    8CHTO   O50 3103   5.423  10.288  -0.113  0.9608  1.2671  0.1872
    8CHTO   C73 3104   5.290  10.246  -0.146 -0.0110  0.1450 -0.1253
    8CHTO  H145 3105   5.284  10.196  -0.244  1.0363  0.9990 -0.6340
    8CHTO   C74 3106   5.200  10.375  -0.149 -0.1684 -0.4798 -0.7254
    8CHTO  H146 3107   5.255  10.436  -0.222  0.5008  0.9197  0.9183
    8CHTO   O54 3108   5.071  10.329  -0.194 -0.0775  0.2155 -0.3074
    8CHTO  H133 3109   5.080  10.303  -0.284  2.6403  1.3108 -0.3972
    8CHTO   C75 3110   5.204  10.439  -0.012 -0.4184 -0.0974  0.6403
    8CHTO  H147 3111   5.306  10.477   0.002 -0.9209  1.5875 -0.1545
    8CHTO   N13 3112   5.117  10.557  -0.010 -0.1910 -0.4183 -0.0158
    8CHTO  H139 3113   5.040  10.544   0.065  0.5042  2.7507  1.3212
    8CHTO  H140 3114   5.176  10.642   0.020 -0.2976 -1.1414  2.3349
    8CHTO   C76 3115   5.162  10.336   0.108 -0.1180 -0.9668  0.3923
    8CHTO  H148 3116   5.056  10.312   0.096 -0.9479  1.6871  2.2802
    8CHTO   O49 3117   5.238  10.210   0.094  0.3724  0.1137  0.0084
    8CHTO   C77 3118   5.230  10.153  -0.039 -0.6213  0.3896  0.4366
    8CHTO  H149 3119   5.129  10.128  -0.069 -1.1179  0.6682  1.8416
    8CHTO   C88 3120   5.299  10.022  -0.040  0.0357 -0.3112  0.3590
    8CHTO   O58 3121   5.270   9.936  -0.169 -0.4290 -0.2627  0.0553
    8CHTO  H136 3122   5.299   9.847  -0.172 -0.2573 -0.1726 -2.2851
    8CHTO   O51 3123   5.198  10.405   0.254  0.4246  0.6503 -0.4374
    8CHTO   C78 3124   5.206  10.310   0.368  0.3503  1.0779 -0.1260
    8CHTO  H150 3125   5.199  10.204   0.334 -1.8512  1.6411 -1.5451
    8CHTO   C80 3126   5.105  10.325   0.480 -0.2260  0.8430  0.3538
    8CHTO  H152 3127   5.107  10.429   0.520  1.9827  0.3760  1.5574
    8CHTO   O55 3128   4.980  10.308   0.426  0.3073  0.6058 -0.2391
    8CHTO  H134 3129   4.926  10.385   0.421  0.3107  0.5373 -1.3378
    8CHTO   C84 3130   5.141  10.213   0.590 -1.2732 -0.7251  0.1187
    8CHTO  H156 3131   5.135  10.114   0.547  2.9607 -0.5381 -1.1393
    8CHTO   N15 3132   5.042  10.225   0.699 -0.6610 -0.5135 -0.3893
    8CHTO  H143 3133   4.943  10.208   0.663  0.0127 -0.8124 -2.1270
    8CHTO  H144 3134   5.054  10.328   0.726  2.3953 -1.1187  0.8228
    8CHTO   C87 3135   5.285  10.254   0.639 -0.2169 -1.1683 -0.2964
    8CHTO  H159 3136   5.282  10.353   0.686 -1.2467 -0.5410 -1.6426
    8CHTO   O53 3137   5.383  10.242   0.538  0.3604 -0.2336 -0.3344
    8CHTO   C82 3138   5.353  10.326   0.424 -0.0128  0.7140  0.1666
    8CHTO  H154 3139   5.368  10.430   0.453 -1.6854  1.0704 -0.1626
    8CHTO   C89 3140   5.466  10.283   0.331 -1.1085 -0.3065 -0.3308
    8CHTO   O59 3141   5.446  10.149   0.288 -0.2279  0.4531 -0.1750
    8CHTO  H137 3142   5.529  10.121   0.254  0.7436  3.0771 -0.0359
    8CHTO   O45 3143   5.326  10.154   0.753  0.6553 -0.4163 -0.0777
    8CHTO   C67 3144   5.376  10.021   0.734 -0.5431  0.5017  0.5837
    8CHTO  H124 3145   5.368   9.990   0.630 -1.2361 -0.2354  0.8501
    8CHTO   C65 3146   5.522  10.000   0.774 -0.0695  0.3142  0.3938
    8CHTO  H122 3147   5.563  10.099   0.756 -0.0677  0.3691  0.6889
    8CHTO   O44 3148   5.584   9.898   0.684 -0.4893 -0.9804 -0.4699
    8CHTO  H102 3149   5.669   9.867   0.707  0.2141 -0.3611 -2.1454
    8CHTO   C63 3150   5.534   9.969   0.925 -0.0445 -0.4234 -0.0354
    8CHTO  H120 3151   5.476  10.044   0.979  1.5240 -0.6268  1.9843
    8CHTO   N11 3152   5.671   9.987   0.976 -0.6488 -0.0436 -0.1015
    8CHTO  H108 3153   5.670   9.930   1.067  1.2720  2.2351  1.4085
    8CHTO  H109 3154   5.740   9.932   0.916  1.3042  1.6164  0.5853
    8CHTO   C61 3155   5.466   9.828   0.956 -0.9170  0.7214  0.1359
    8CHTO  H118 3156   5.444   9.815   1.063  0.7910 -0.2234  0.3887
    8CHTO   O40 3157   5.343   9.812   0.883  0.6108 -0.1357 -0.6954
    8CHTO   C68 3158   5.276   9.927   0.814  0.4289 -0.1492 -0.5242
    8CHTO  H125 3159   5.229   9.983   0.898 -0.1945 -0.0716 -0.9238
    8CHTO   C72 3160   5.162   9.885   0.719  0.4476  0.1928  0.5951
    8CHTO   O48 3161   5.073   9.788   0.774 -0.2007  0.2136  0.3734
    8CHTO  H105 3162   5.075   9.705   0.729 -0.0596  0.3520  0.1244
    8CHTO   O38 3163   5.550   9.728   0.915  0.2561  0.0264  0.5047
    8CHTO   C55 3164   5.509   9.589   0.942  0.9106 -0.2452  0.2693
    8CHTO  H112 3165   5.404   9.595   0.975  0.4585  1.5357 -1.3238
    8CHTO   C56 3166   5.608   9.513   1.052  0.0353  0.1710 -0.3069
    8CHTO  H113 3167   5.705   9.507   1.002  0.6099 -0.4428  0.8592
    8CHTO   O42 3168   5.631   9.600   1.157 -0.1360  0.1843 -0.4145
    8CHTO  H100 3169   5.684   9.675   1.137  2.2507 -1.1131  0.8660
    8CHTO   C57 3170   5.541   9.370   1.082 -0.2249  0.1731 -0.0891
    8CHTO  H114 3171   5.436   9.387   1.109 -0.2550 -0.7394  0.3912
    8CHTO   N10 3172   5.609   9.284   1.183  0.5688  0.5410  0.3708
    8CHTO  H106 3173   5.716   9.302   1.179  0.4734  0.8225 -1.3129
    8CHTO  H107 3174   5.569   9.302   1.282  0.7929  1.9305  0.2215
    8CHTO   C58 3175   5.536   9.298   0.951  0.2257  0.0138  0.5373
    8CHTO  H115 3176   5.639   9.286   0.911 -0.1463 -0.9357 -0.1748
    8CHTO   O37 3177   5.457   9.375   0.859 -0.4872  0.2599  0.4071
    8CHTO   C59 3178   5.511   9.501   0.816 -0.7349 -0.2323 -0.1335
    8CHTO  H116 3179   5.611   9.475   0.784 -0.7612 -1.3563  0.6707
    8CHTO   C70 3180   5.443   9.555   0.690  0.6540 -0.2488  0.1081
    8CHTO   O46 3181   5.300   9.530   0.685  0.9030 -0.3921  0.4502
    8CHTO  H103 3182   5.268   9.468   0.623 -1.8214  0.5119  0.8899
    8CHTO   O39 3183   5.446   9.149   0.960 -0.0704  0.3592 -0.5499
    8CHTO   C60 3184   5.302   9.149   0.974 -0.4325  0.4328  0.5385
    8CHTO  H117 3185   5.254   9.243   1.001  1.0062  2.0006 -2.1919
    8CHTO   C62 3186   5.247   9.109   0.832  0.1026  0.4673 -0.0636
    8CHTO  H119 3187   5.268   9.201   0.774 -1.5107  0.9171  0.0336
    8CHTO   O43 3188   5.313   8.985   0.780  0.9764  0.1387 -0.0361
    8CHTO  H101 3189   5.331   8.925   0.850  1.1535  1.7129  1.2838
    8CHTO   C66 3190   5.087   9.105   0.828  1.4564 -0.5759  0.4266
    8CHTO  H123 3191   5.049   9.200   0.866 -0.2005  0.6533 -4.0001
    8CHTO   N12 3192   5.031   9.102   0.688 -0.0949  0.2647 -0.0015
    8CHTO  H110 3193   4.924   9.095   0.695 -0.2559  2.1282 -0.1573
    8CHTO  H111 3194   5.072   9.016   0.636 -1.0234  1.7763 -3.4190
    8CHTO   C69 3195   5.036   8.996   0.925 -0.4679  0.3889  0.1069
    8CHTO  H126 3196   5.064   8.902   0.873  1.9133  1.0440  0.1508
    8CHTO   O41 3197   5.102   9.010   1.074  1.0763 -0.1723 -0.5255
    8CHTO   C64 3198   5.254   9.045   1.076  0.4139  0.2254 -0.0674
    8CHTO  H121 3199   5.322   8.959   1.053  0.3209 -0.0956  0.8568
    8CHTO   C71 3200   5.279   9.100   1.211  0.0988  0.1100 -0.1154
    8CHTO   O47 3201   5.195   9.201   1.264  0.1058  0.1013 -0.2886
    8CHTO  H104 3202   5.226   9.215   1.351  0.3587  3.3833 -0.8527
    8CHTO   O34 3203   4.888   8.990   0.931 -0.4061 -0.0952  0.0602
    8CHTO   C49 3204   4.806   9.067   1.028 -0.4528 -0.3888 -0.2082
    8CHTO   H91 3205   4.808   9.014   1.123 -0.4789  0.3207  0.1968
    8CHTO   C47 3206   4.663   9.074   0.978  0.3793  0.0253  0.2990
    8CHTO   H89 3207   4.603   9.127   1.054 -0.6616 -0.2950 -0.2788
    8CHTO   O33 3208   4.610   8.936   0.971  0.0369  0.2196 -0.0959
    8CHTO   H70 3209   4.605   8.892   1.053 -1.4483 -0.6254 -0.6177
    8CHTO   C45 3210   4.663   9.157   0.840 -0.6308 -0.6851 -0.2345
    8CHTO   H87 3211   4.742   9.114   0.777  0.4416  1.7421 -0.6100
    8CHTO    N8 3212   4.536   9.150   0.764 -0.2712 -0.3880  0.5264
    8CHTO   H75 3213   4.544   9.225   0.686  3.0806 -1.0104  0.2081
    8CHTO   H76 3214   4.457   9.186   0.828 -0.1876  0.4454  0.1738
    8CHTO   C43 3215   4.709   9.304   0.877 -0.0528 -0.2689 -0.5653
    8CHTO   H85 3216   4.727   9.341   0.776 -1.2613 -2.6438 -1.6898
    8CHTO   O29 3217   4.827   9.319   0.962 -0.0724 -0.3218  0.7326
    8CHTO   C50 3218   4.854   9.220   1.064 -0.0563  0.0501  0.2180
    8CHTO   H92 3219   4.964   9.219   1.072  0.1171 -1.3459 -1.8411
    8CHTO   C54 3220   4.797   9.272   1.196  0.1922  0.1798  0.1282
    8CHTO   O36 3221   4.845   9.184   1.298  0.0004  0.5191 -0.4055
    8CHTO   H72 3222   4.937   9.163   1.295  0.1093  0.9629 -0.2667
    8CHTO   O27 3223   4.603   9.383   0.934 -0.2429 -0.1404 -0.4143
    8CHTO   C37 3224   4.547   9.509   0.960  0.1518 -0.8198  0.0015
    8CHTO   H79 3225   4.482   9.509   1.048 -0.5432 -2.6062 -0.4888
    8CHTO   C38 3226   4.663   9.601   0.994  0.6632 -0.5308  1.1818
    8CHTO   H80 3227   4.735   9.597   0.910 -1.9877 -0.8258 -1.1646
    8CHTO   O31 3228   4.738   9.557   1.104 -0.1572  0.2301  0.5341
    8CHTO   H68 3229   4.683   9.546   1.179 -0.6974  0.9617  0.2497
    8CHTO   C39 3230   4.619   9.750   1.004 -0.0661  0.6792 -0.7997
    8CHTO   H81 3231   4.559   9.745   1.095 -2.2564 -1.3363 -2.2914
    8CHTO    N7 3232   4.728   9.850   1.024  0.0782 -0.7368  0.2728
    8CHTO   H73 3233   4.826   9.807   1.035  0.6644 -0.5207 -3.5998
    8CHTO   H74 3234   4.718   9.938   0.963 -0.3520 -0.7828  0.2725
    8CHTO   C40 3235   4.520   9.793   0.881 -0.0095 -0.4315 -0.1979
    8CHTO   H82 3236   4.582   9.806   0.792  1.1272  2.5740  0.9830
    8CHTO   O26 3237   4.415   9.696   0.865 -0.1805 -0.2129 -0.0425
    8CHTO   C41 3238   4.459   9.558   0.847 -0.6332  0.5406  0.3523
    8CHTO   H83 3239   4.518   9.557   0.754 -1.0723  2.2298  0.0378
    8CHTO   C52 3240   4.328   9.465   0.838  0.1756  0.6983 -0.3866
    8CHTO   O35 3241   4.275   9.435   0.690 -0.6278  0.4646 -0.1325
    8CHTO   H71 3242   4.287   9.511   0.636  1.5842  0.3020  0.0661
    8CHTO   O28 3243   4.460   9.919   0.912 -0.2633  0.2894 -0.1933
    8CHTO   C42 3244   4.392  10.006   0.818 -0.1652 -1.0083 -0.0674
    8CHTO   H84 3245   4.341  10.082   0.878 -1.3638 -0.9502 -1.1565
    8CHTO   C44 3246   4.281   9.939   0.732 -0.3010 -0.2767 -0.5727
    8CHTO   H86 3247   4.312   9.843   0.692 -2.6341 -1.4832  0.4382
    8CHTO   O32 3248   4.184   9.883   0.828 -0.2743 -0.5504  0.7771
    8CHTO   H69 3249   4.096   9.911   0.808 -0.0687  0.8765  1.8171
    8CHTO   C48 3250   4.212  10.033   0.622  1.0376 -0.1303  0.0028
    8CHTO   H90 3251   4.167  10.112   0.682 -0.0958 -1.7590  1.3761
    8CHTO    N9 3252   4.095   9.976   0.545  0.1403 -0.4614 -0.7897
    8CHTO   H77 3253   4.131   9.942   0.449 -0.1893 -0.5316 -0.8867
    8CHTO   H78 3254   4.046   9.902   0.606 -0.0503 -1.0583 -1.6540
    8CHTO   C51 3255   4.327  10.097   0.533  0.6931 -0.1038 -0.5242
    8CHTO   H93 3256   4.384  10.020   0.480  1.4151  0.9917 -1.3817
    8CHTO   O30 3257   4.410  10.179   0.619  0.1984  0.0159 -0.4313
    8CHTO   C46 3258   4.488  10.086   0.721  0.4973  0.4647 -0.4076
    8CHTO   H88 3259   4.550  10.013   0.668  0.0825 -0.5851  0.5234
    8CHTO   C53 3260   4.592  10.173   0.795 -0.4159  0.1393 -0.2765
    8CHTO   O72 3261   4.683  10.250   0.716 -0.9091  0.0209 -0.0304
    8CHTO  H199 3262   4.713  10.329   0.758 -1.4374  0.7751 -1.0501
    8CHTO   O22 3263   4.278  10.197   0.437 -0.2941 -0.2836  0.2152
    8CHTO   C31 3264   4.341  10.232   0.313 -0.0996  0.5835  0.5267
    8CHTO   H59 3265   4.278  10.313   0.273 -0.3373 -0.1260 -0.5574
    8CHTO   C29 3266   4.486  10.289   0.324  0.7527  0.3793  0.7774
    8CHTO   H57 3267   4.546  10.211   0.373 -0.3568 -2.2937 -1.9506
    8CHTO   O21 3268   4.472  10.404   0.413 -0.0650 -0.0141 -0.2277
    8CHTO   H37 3269   4.555  10.447   0.414  0.2188 -0.5657  1.5289
    8CHTO   C27 3270   4.559  10.312   0.188 -0.4361  0.1426  0.7133
    8CHTO   H55 3271   4.514  10.400   0.139  0.3257 -0.0833 -0.4190
    8CHTO    N5 3272   4.700  10.348   0.213 -0.1672  0.0211 -0.4221
    8CHTO   H43 3273   4.750  10.264   0.260  0.2423  0.9544  0.8535
    8CHTO   H44 3274   4.699  10.424   0.290  0.5585  0.7238 -1.0928
    8CHTO   C25 3275   4.552  10.189   0.095  0.6618  0.3468  0.0282
    8CHTO   H53 3276   4.602  10.106   0.146  0.4979  1.2619  1.6921
    8CHTO   O17 3277   4.410  10.153   0.088  0.6701 -0.0006 -0.2029
    8CHTO   C32 3278   4.341  10.120   0.213 -0.5200 -0.2234 -0.0353
    8CHTO   H60 3279   4.384  10.034   0.264  2.4567  0.1296 -1.8125
    8CHTO   C36 3280   4.203  10.077   0.172  0.3307  0.0906  0.2396
    8CHTO   O25 3281   4.216   9.943   0.121  0.3276 -0.4775 -0.5062
    8CHTO   H40 3282   4.133   9.901   0.132 -0.4167  0.3224 -2.7137
    8CHTO   O15 3283   4.617  10.222  -0.057  0.0429  0.3055 -0.0950
    8CHTO   C19 3284   4.670  10.156  -0.174 -0.2524 -0.0057 -0.4084
    8CHTO   H47 3285   4.586  10.093  -0.206 -1.6867  1.5952  0.1114
    8CHTO   C20 3286   4.696  10.256  -0.287 -0.2334  0.3177  0.3459
    8CHTO   H48 3287   4.758  10.341  -0.254  1.3884 -0.3799 -0.8238
    8CHTO   O19 3288   4.565  10.309  -0.324 -1.1239 -0.1419  0.0116
    8CHTO   H35 3289   4.570  10.402  -0.336 -0.9990  0.0822  1.6854
    8CHTO   C21 3290   4.774  10.185  -0.408 -0.6573  0.0410  0.2891
    8CHTO   H49 3291   4.699  10.130  -0.465  0.1902  0.3359 -1.1137
    8CHTO    N4 3292   4.827  10.280  -0.511 -0.3140 -0.1638  0.3949
    8CHTO   H41 3293   4.742  10.335  -0.549  0.1727 -0.9546 -1.9038
    8CHTO   H42 3294   4.878  10.229  -0.591 -1.2887 -1.7306  0.7422
    8CHTO   C22 3295   4.875  10.073  -0.362 -0.0361  0.3593 -0.3638
    8CHTO   H50 3296   4.959  10.129  -0.320  1.4933 -1.8438 -0.4028
    8CHTO   O14 3297   4.816   9.992  -0.259 -0.5925 -0.0138 -0.2472
    8CHTO   C23 3298   4.790  10.065  -0.145  0.1679  0.2649  0.7531
    8CHTO   H51 3299   4.880  10.121  -0.116  0.8591  0.5061 -1.7242
    8CHTO   C34 3300   4.776   9.967  -0.029 -0.6368  0.0036 -0.5078
    8CHTO   O23 3301   4.900   9.898  -0.005  0.1716 -0.2819 -0.3035
    8CHTO   H38 3302   4.933   9.868  -0.087 -1.8129 -0.0971 -1.2103
    8CHTO   O16 3303   4.919   9.988  -0.467  0.0231 -0.1501  0.8337
    8CHTO   C24 3304   5.072   9.961  -0.463  0.0074  0.5965 -0.5089
    8CHTO   H52 3305   5.112   9.959  -0.361 -0.7914 -0.4169 -0.2012
    8CHTO   C26 3306   5.147  10.071  -0.542  0.2528  0.2801  0.2028
    8CHTO   H54 3307   5.111  10.071  -0.647  0.5099  2.9053  0.0851
    8CHTO   O20 3308   5.128  10.202  -0.493 -0.1855  0.0787  0.2645
    8CHTO   H36 3309   5.207  10.243  -0.462 -0.1474 -0.8743  1.4653
    8CHTO   C30 3310   5.299  10.026  -0.545 -1.0174 -0.4863 -0.4700
    8CHTO   H58 3311   5.328  10.004  -0.441 -2.5386  2.9092  0.7319
    8CHTO    N6 3312   5.380  10.137  -0.600 -0.1205  0.8150  0.2686
    8CHTO   H45 3313   5.436  10.110  -0.689 -1.3372 -0.7564 -0.0374
    8CHTO   H46 3314   5.446  10.190  -0.533  1.8272 -0.8172 -0.3004
    8CHTO   C33 3315   5.296   9.892  -0.627  0.0125 -0.7324  0.1811
    8CHTO   H61 3316   5.233   9.903  -0.717 -1.5511 -0.0928  1.3131
    8CHTO   O18 3317   5.236   9.796  -0.539  0.4077  0.4483 -0.1917
    8CHTO   C28 3318   5.095   9.818  -0.529  1.0623 -0.8531  0.3732
    8CHTO   H56 3319   5.039   9.811  -0.622 -1.6870  0.1676  1.8981
    8CHTO   C35 3320   5.034   9.705  -0.449 -0.2858  0.2034 -0.2376
    8CHTO   O24 3321   5.053   9.575  -0.506  0.0996  0.3750  0.6258
    8CHTO   H39 3322   5.145   9.558  -0.513 -0.5566 -2.6408 -1.1467
    8CHTO    O9 3323   5.423   9.848  -0.678 -0.4823  0.2862  0.1339
    8CHTO   C13 3324   5.391   9.737  -0.792  0.5398  0.5827  0.1232
    8CHTO   H26 3325   5.299   9.771  -0.844 -1.0473 -1.6389  1.3938
    8CHTO   C11 3326   5.371   9.589  -0.736  0.6162 -0.1189  0.4232
    8CHTO   H24 3327   5.267   9.584  -0.700  0.3763  1.4071 -0.0327
    8CHTO    O8 3328   5.464   9.558  -0.626  0.3916  0.2534 -0.0228
    8CHTO    H3 3329   5.439   9.599  -0.545 -0.5566  0.4715 -0.4225
    8CHTO    C9 3330   5.384   9.491  -0.853 -0.2276  0.2597 -0.4318
    8CHTO   H22 3331   5.314   9.525  -0.930 -1.5571  1.6250  1.3097
    8CHTO    N2 3332   5.331   9.354  -0.828  0.2066 -0.6342 -0.4806
    8CHTO   H10 3333   5.224   9.347  -0.819  0.4259 -0.2158  3.7727
    8CHTO   H11 3334   5.362   9.285  -0.906  0.6647 -0.9188 -0.0540
    8CHTO    C7 3335   5.534   9.495  -0.908  1.0144 -0.7326  0.2982
    8CHTO   H20 3336   5.527   9.468  -1.015  0.0192  2.3656 -0.4457
    8CHTO    O4 3337   5.596   9.626  -0.896  0.2993  0.0625 -0.0873
    8CHTO   C14 3338   5.504   9.737  -0.904 -0.4363 -0.3017 -0.5311
    8CHTO   H27 3339   5.456   9.733  -1.004 -0.8094  0.2076 -0.3737
    8CHTO   C18 3340   5.590   9.858  -0.908 -0.5702  0.6195 -0.5741
    8CHTO   O13 3341   5.679   9.856  -1.024 -0.0399  0.1690 -0.0663
    8CHTO    H7 3342   5.623   9.840  -1.097 -1.4189  1.8981  0.5803
    8CHTO    O2 3343   5.627   9.375  -0.817 -0.2405  0.1396 -0.0855
    8CHTO    C1 3344   5.767   9.400  -0.825  0.1535  0.4392 -0.1637
    8CHTO   H14 3345   5.788   9.507  -0.803 -0.2849  0.4008  0.4800
    8CHTO    C2 3346   5.839   9.359  -0.958 -0.4538 -0.5506  0.1209
    8CHTO   H15 3347   5.796   9.259  -0.976 -2.7977  0.2175  1.3750
    8CHTO    O6 3348   5.791   9.447  -1.059  0.4755 -0.2738  0.5700
    8CHTO    H1 3349   5.822   9.533  -1.039  1.2029 -0.7022  1.3319
    8CHTO    C3 3350   6.000   9.352  -0.946  0.6706 -0.2140  0.1285
    8CHTO   H16 3351   6.032   9.457  -0.948  1.7998 -0.5157  1.6309
    8CHTO    N1 3352   6.069   9.279  -1.059 -1.0342  0.1394 -0.0636
    8CHTO    H8 3353   6.076   9.343  -1.146 -2.3247 -0.2344 -0.4518
    8CHTO    H9 3354   6.011   9.196  -1.096  0.0579 -0.5401 -0.2914
    8CHTO    C4 3355   6.045   9.293  -0.808 -0.1024 -0.6578 -0.2079
    8CHTO   H17 3356   6.022   9.186  -0.812 -1.2756 -0.3807 -1.3267
    8CHTO    O1 3357   5.972   9.350  -0.700 -0.0661 -0.3123  0.4208
    8CHTO    C5 3358   5.831   9.333  -0.697  0.2547  0.8398  0.0749
    8CHTO   H18 3359   5.813   9.226  -0.697  0.5718  0.7853  0.5342
    8CHTO   C16 3360   5.772   9.381  -0.559  0.8128  0.2685 -0.3207
    8CHTO   O11 3361   5.813   9.289  -0.457  0.0533  0.2432  0.0168
    8CHTO    H5 3362   5.873   9.330  -0.397 -1.0593  1.8397  0.0817
    8CHTO    O3 3363   6.189   9.313  -0.789  0.1162  0.1744 -0.2199
    8CHTO    C6 3364   6.264   9.211  -0.713  0.1118  0.9276  0.4089
    8CHTO   H19 3365   6.198   9.140  -0.663  1.9658 -1.1424 -0.0213
    8CHTO    C8 3366   6.360   9.124  -0.804  0.3892 -0.8380  0.4842
    8CHTO   H21 3367   6.427   9.189  -0.862 -0.6096  0.1781  0.4463
    8CHTO    O7 3368   6.273   9.047  -0.889  0.0389 -0.5180 -0.1086
    8CHTO    H2 3369   6.318   9.015  -0.965 -1.0992  0.7250 -1.3223
    8CHTO   C12 3370   6.473   9.044  -0.734 -1.2766 -0.0671 -0.5382
    8CHTO   H25 3371   6.417   8.964  -0.682  0.9701 -1.9742 -0.9744
    8CHTO    N3 3372   6.558   8.971  -0.838 -0.0528  0.0272 -0.1362
    8CHTO   H12 3373   6.624   9.036  -0.894 -0.4179  0.0972 -0.4875
    8CHTO   H13 3374   6.496   8.912  -0.904 -0.1708 -2.2288  1.9306
    8CHTO   C15 3375   6.544   9.130  -0.626  0.6949 -0.3628  0.2471
    8CHTO   H28 3376   6.590   9.213  -0.679  0.0588  1.1189  1.9824
    8CHTO   O10 3377   6.639   9.045  -0.542 -0.1386  0.3742 -0.1706
    8CHTO    H4 3378   6.692   8.990  -0.597 -2.3222 -0.5923 -1.3909
    8CHTO    O5 3379   6.442   9.191  -0.545  0.1696  0.4819  0.2287
    8CHTO   C10 3380   6.348   9.284  -0.605 -0.2241  0.5690 -0.4507
    8CHTO   H23 3381   6.395   9.371  -0.652 -0.9372  0.8026 -0.7272
    8CHTO   C17 3382   6.256   9.338  -0.495 -0.1573 -0.0463  0.2552
    8CHTO   O12 3383   6.344   9.412  -0.412 -0.6852 -0.6202 -0.2987
    8CHTO    H6 3384   6.284   9.471  -0.371 -1.6625 -2.0206  0.3114
    9CHTO  H203 3385   7.959   4.220   0.507  0.6805  1.2431 -1.1732
    9CHTO   O82 3386   8.012   4.146   0.484 -0.1239  0.2428  0.0767
    9CHTO  C123 3387   8.129   4.196   0.424  0.3640  0.8121  0.3627
    9CHTO  H227 3388   8.171   4.280   0.482  3.9919 -0.5698 -0.1410
    9CHTO   O77 3389   8.223   4.081   0.415 -0.1433  0.0199 -0.0558
    9CHTO  C118 3390   8.346   4.106   0.346 -0.5113  0.6874 -0.2489
    9CHTO  H222 3391   8.414   4.172   0.402 -2.3117  1.5404  0.9743
    9CHTO  C125 3392   8.420   3.966   0.350 -0.2280 -0.2871 -0.6421
    9CHTO   O84 3393   8.440   3.912   0.481  0.0175  0.0369  0.0371
    9CHTO  H205 3394   8.479   3.828   0.468 -0.8787 -0.4514  0.4287
    9CHTO  C114 3395   8.328   4.158   0.203  0.3264  0.3722  0.7556
    9CHTO  H218 3396   8.293   4.078   0.137  3.1259  0.4598 -0.9216
    9CHTO  C116 3397   8.232   4.277   0.200 -0.2899  0.4996 -0.3195
    9CHTO  H220 3398   8.280   4.364   0.249 -2.1185  1.0843  0.4606
    9CHTO   O79 3399   8.220   4.326   0.063 -0.2948 -0.7171 -0.5559
    9CHTO  H201 3400   8.299   4.374   0.043  0.1868 -0.2419  2.2064
    9CHTO  C120 3401   8.093   4.249   0.279 -0.2392 -0.4201 -0.6418
    9CHTO  H224 3402   8.034   4.174   0.223  0.8118 -1.6048 -0.1697
    9CHTO   N21 3403   7.997   4.365   0.283 -0.5107  0.1156  0.0759
    9CHTO  H211 3404   8.018   4.452   0.222  2.2201 -0.0297  0.7563
    9CHTO  H212 3405   7.992   4.398   0.386 -3.6472 -0.0145  0.0151
    9CHTO   O75 3406   8.460   4.178   0.151 -0.1414 -0.5039 -0.6217
    9CHTO  C112 3407   8.489   4.135   0.010 -0.8460  0.0355  0.8437
    9CHTO  H216 3408   8.398   4.151  -0.051 -0.4436  1.7057  0.6386
    9CHTO   O73 3409   8.510   3.995   0.023 -0.6820  0.2008 -0.2426
    9CHTO  C113 3410   8.557   3.905  -0.079  1.0311  0.1904 -0.3141
    9CHTO  H217 3411   8.479   3.886  -0.155  0.0270 -2.0195  1.2363
    9CHTO  C124 3412   8.595   3.773  -0.002 -0.1792 -0.5314  0.5204
    9CHTO   O83 3413   8.483   3.712   0.055 -0.3831 -0.3488  0.3858
    9CHTO  H204 3414   8.514   3.636   0.100 -0.3600 -0.7873 -0.3567
    9CHTO  C109 3415   8.676   3.968  -0.152  0.3613 -0.2684  0.2161
    9CHTO  H213 3416   8.763   3.945  -0.088 -1.2310 -0.4401  2.3894
    9CHTO  C110 3417   8.666   4.120  -0.175  0.0637 -0.0521 -0.5450
    9CHTO  H214 3418   8.592   4.126  -0.255 -1.6911 -3.4424  0.7185
    9CHTO   O78 3419   8.788   4.167  -0.246 -0.3808 -0.1042 -0.6999
    9CHTO  H200 3420   8.813   4.098  -0.305  0.7756  0.1221 -0.4888
    9CHTO  C111 3421   8.619   4.201  -0.047 -0.0013  0.0382 -0.0447
    9CHTO  H215 3422   8.703   4.200   0.025 -1.3373  0.7455  1.5517
    9CHTO   N19 3423   8.592   4.342  -0.078  0.4740  0.6187  0.5097
    9CHTO  H207 3424   8.686   4.387  -0.104 -0.1426  1.0252 -1.0701
    9CHTO  H208 3425   8.541   4.338  -0.173 -0.4856  0.5057  1.0156
    9CHTO   O74 3426   8.690   3.908  -0.286  0.4579  0.0902 -0.2662
    9CHTO  C115 3427   8.823   3.826  -0.314 -0.2206  0.2363 -0.4763
    9CHTO  H219 3428   8.914   3.878  -0.281 -0.4240  0.5763 -0.4492
    9CHTO   O76 3429   8.827   3.680  -0.232  0.2583 -0.1213  0.6339
    9CHTO  C122 3430   8.727   3.586  -0.274 -0.2120 -1.1990 -0.3480
    9CHTO  H226 3431   8.630   3.624  -0.242  0.6245  0.5800  0.1066
    9CHTO  C126 3432   8.754   3.462  -0.193  0.4547  0.5262  0.5108
    9CHTO   O85 3433   8.639   3.385  -0.165  0.1323 -0.0710 -0.0933
    9CHTO  H206 3434   8.598   3.429  -0.094 -0.8248  2.7059 -2.2448
    9CHTO  C121 3435   8.728   3.566  -0.435  0.1289  0.9053  0.1422
    9CHTO  H225 3436   8.825   3.514  -0.451 -0.4375  0.2021 -1.1208
    9CHTO   O81 3437   8.627   3.469  -0.479 -0.6057  0.0261  0.1613
    9CHTO  H202 3438   8.606   3.487  -0.569 -0.9422  0.6823  0.3712
    9CHTO  C119 3439   8.724   3.703  -0.502 -0.2112  1.1398  0.5592
    9CHTO  H223 3440   8.728   3.680  -0.608  0.0643 -1.9003  1.1797
    9CHTO  C117 3441   8.844   3.794  -0.462  0.3031  0.0216  0.2439
    9CHTO  H221 3442   8.840   3.888  -0.516  3.3765 -0.3097 -0.5896
    9CHTO   N20 3443   8.977   3.743  -0.502 -0.0823  0.2159 -0.1221
    9CHTO  H209 3444   9.050   3.811  -0.461  0.5169 -0.9575  0.7832
    9CHTO  H210 3445   8.991   3.645  -0.459  0.7005 -0.2104 -1.3213
    9CHTO   O80 3446   8.577   3.761  -0.487  0.6578  0.0694 -0.4286
    9CHTO  C103 3447   8.513   3.836  -0.613 -0.4817  0.0833  0.1801
    9CHTO  H190 3448   8.420   3.885  -0.584 -1.5532 -1.7512 -0.1291
    9CHTO  C101 3449   8.612   3.945  -0.682  0.4411  0.0012 -0.1052
    9CHTO  H188 3450   8.707   3.900  -0.712  0.0219 -0.2946 -1.0285
    9CHTO   O68 3451   8.639   4.048  -0.573 -0.1656 -0.3550  0.5902
    9CHTO  H168 3452   8.616   4.020  -0.487 -1.9541 -2.1442 -0.4439
    9CHTO   C99 3453   8.542   4.019  -0.807 -0.1429 -0.3270  0.3663
    9CHTO  H186 3454   8.453   4.067  -0.761  0.6398 -0.6788  2.3019
    9CHTO   N17 3455   8.614   4.126  -0.876  0.1790 -0.3053  0.4215
    9CHTO  H174 3456   8.696   4.072  -0.920  0.9261 -0.4413  1.9577
    9CHTO  H175 3457   8.646   4.179  -0.788 -0.6506 -1.2498  1.2951
    9CHTO   C97 3458   8.487   3.909  -0.907 -0.2629 -1.2528 -0.1985
    9CHTO  H184 3459   8.568   3.869  -0.970  0.8132  1.6270 -0.7261
    9CHTO   O64 3460   8.410   3.802  -0.836 -0.2766  0.3528 -0.4189
    9CHTO  C104 3461   8.474   3.735  -0.723 -0.8092  0.4607  0.7596
    9CHTO  H191 3462   8.564   3.682  -0.753 -1.7324 -1.2724  1.0368
    9CHTO  C108 3463   8.381   3.624  -0.665 -0.3264  0.0548 -0.3857
    9CHTO   O71 3464   8.327   3.529  -0.765  0.3545  0.4243 -0.4429
    9CHTO  H171 3465   8.248   3.491  -0.731  0.3934  0.8715  0.1463
    9CHTO   O62 3466   8.387   3.967  -0.999  0.7763 -0.1764 -0.2129
    9CHTO   C91 3467   8.377   3.908  -1.135 -0.2410  0.1583 -0.6628
    9CHTO  H178 3468   8.450   3.828  -1.148 -0.2925 -0.0796  0.4154
    9CHTO   C92 3469   8.411   4.030  -1.231  0.9269  0.3446 -0.4305
    9CHTO  H179 3470   8.514   4.065  -1.213  1.4601  0.0143 -2.6558
    9CHTO   O66 3471   8.429   3.975  -1.364  0.0866  0.0325  0.0067
    9CHTO  H166 3472   8.508   3.930  -1.386  0.7043  1.3286 -0.4989
    9CHTO   C93 3473   8.312   4.153  -1.237 -0.1981  0.5477 -0.1681
    9CHTO  H180 3474   8.313   4.193  -1.340  1.0602  0.7123 -0.1012
    9CHTO   N16 3475   8.356   4.270  -1.149  0.0254  0.3018  0.2228
    9CHTO  H172 3476   8.459   4.300  -1.167  0.4971 -0.2823  1.8759
    9CHTO  H173 3477   8.283   4.349  -1.158 -2.3148 -1.5315  2.6657
    9CHTO   C94 3478   8.171   4.105  -1.196 -0.3185  0.8057 -0.3253
    9CHTO  H181 3479   8.155   4.111  -1.088  2.3636 -2.1660  0.3171
    9CHTO   O61 3480   8.153   3.964  -1.242  0.9089 -0.8598 -0.4399
    9CHTO   C95 3481   8.229   3.864  -1.170  0.2142 -0.1965 -0.2891
    9CHTO  H182 3482   8.181   3.847  -1.073 -1.3051 -1.3485 -1.2377
    9CHTO  C106 3483   8.210   3.728  -1.244 -0.5135 -0.4574 -0.3499
    9CHTO   O69 3484   8.251   3.727  -1.383  0.1751 -0.5332  0.1191
    9CHTO  H169 3485   8.180   3.764  -1.432 -0.1063  0.2197  1.0884
    9CHTO   O63 3486   8.074   4.185  -1.271  0.2414 -0.0327 -0.3667
    9CHTO   C96 3487   7.941   4.200  -1.214 -0.1593 -0.3880  0.3095
    9CHTO  H183 3488   7.950   4.188  -1.106  0.9395  0.0979  0.2900
    9CHTO   C98 3489   7.837   4.109  -1.270  0.0442  1.0760 -0.2050
    9CHTO  H185 3490   7.874   4.091  -1.372  1.5174 -0.5336  0.6081
    9CHTO   O67 3491   7.845   3.986  -1.198 -0.1863  0.0737  0.2117
    9CHTO  H167 3492   7.792   3.923  -1.242  0.7415 -0.4961 -0.1099
    9CHTO  C102 3493   7.684   4.167  -1.251  0.2912 -0.9791 -0.7458
    9CHTO  H189 3494   7.661   4.152  -1.145  0.2183  2.4998 -0.2153
    9CHTO   N18 3495   7.587   4.083  -1.324  0.1790  0.8219  0.2297
    9CHTO  H176 3496   7.583   3.983  -1.284  2.6905  1.5194  2.3977
    9CHTO  H177 3497   7.619   4.092  -1.426  0.7108 -1.4923  0.1806
    9CHTO  C105 3498   7.668   4.318  -1.272  0.0630 -0.5069 -0.1372
    9CHTO  H192 3499   7.667   4.343  -1.378 -1.7747  1.4428  0.3073
    9CHTO   O65 3500   7.775   4.401  -1.221  0.5170 -0.0578 -0.8423
    9CHTO  C100 3501   7.908   4.355  -1.247 -0.5426  0.4866  0.0334
    9CHTO  H187 3502   7.912   4.368  -1.356  0.1511 -1.8462 -0.2610
    9CHTO  C107 3503   8.002   4.458  -1.174  0.1954  1.0003  0.0614
    9CHTO   O70 3504   7.994   4.428  -1.035 -0.6094  0.2610 -0.0712
    9CHTO  H170 3505   8.042   4.490  -0.984 -1.3437 -0.3502  1.4132
    9CHTO   O57 3506   7.520   4.361  -1.188 -0.0548 -0.0213  0.2214
    9CHTO   C85 3507   7.465   4.491  -1.199  0.7528  0.1682  0.3871
    9CHTO  H157 3508   7.456   4.517  -1.307  2.2112  0.1235  0.2436
    9CHTO   C83 3509   7.557   4.601  -1.144 -0.2538 -0.1893  0.2237
    9CHTO  H155 3510   7.649   4.598  -1.203  0.0376 -1.0176  0.7038
    9CHTO   O56 3511   7.597   4.560  -1.014 -0.6151  0.2183 -0.0528
    9CHTO  H135 3512   7.683   4.523  -1.013  0.1839  2.0171  2.0811
    9CHTO   C81 3513   7.491   4.743  -1.150  0.4616  0.4047  0.3614
    9CHTO  H153 3514   7.467   4.761  -1.254 -1.1283 -1.4189  0.3747
    9CHTO   N14 3515   7.578   4.853  -1.103 -0.0389  0.2150  0.4441
    9CHTO  H141 3516   7.678   4.839  -1.138 -0.1990  1.3474 -0.5192
    9CHTO  H142 3517   7.538   4.944  -1.143  0.6635 -0.7128 -2.5276
    9CHTO   C79 3518   7.358   4.737  -1.065  0.0941 -0.2318 -0.1647
    9CHTO  H151 3519   7.308   4.831  -1.089 -3.2793 -1.8805  0.2286
    9CHTO   O52 3520   7.269   4.634  -1.121  0.1394  0.0752 -0.3592
    9CHTO   C86 3521   7.329   4.502  -1.123  0.1919  0.5701  0.3207
    9CHTO  H158 3522   7.343   4.479  -1.015  1.8624  1.1557  0.2430
    9CHTO   C90 3523   7.229   4.401  -1.177  0.1768 -1.0076 -0.4693
    9CHTO   O60 3524   7.111   4.400  -1.099 -0.0983  0.7708  0.3856
    9CHTO  H138 3525   7.121   4.395  -1.006  1.0769  2.5634  0.3682
    9CHTO   O50 3526   7.367   4.707  -0.922 -0.4128  0.0778  0.0597
    9CHTO   C73 3527   7.304   4.736  -0.793  0.3034 -0.3953  0.5108
    9CHTO  H145 3528   7.208   4.683  -0.785  0.2062 -0.0193  2.0928
    9CHTO   C74 3529   7.280   4.887  -0.779 -0.3758 -0.3933 -0.1045
    9CHTO  H146 3530   7.237   4.915  -0.877  2.4947  0.3484 -1.2118
    9CHTO   O54 3531   7.171   4.906  -0.688 -0.0433  0.1446  0.1714
    9CHTO  H133 3532   7.092   4.872  -0.725  0.1697  2.6044 -2.7725
    9CHTO   C75 3533   7.414   4.962  -0.752 -0.4079  0.0513 -0.0777
    9CHTO  H147 3534   7.475   4.956  -0.843  1.4598  0.5146  1.1113
    9CHTO   N13 3535   7.401   5.107  -0.731  0.3247 -1.0761  0.6378
    9CHTO  H139 3536   7.315   5.147  -0.782  2.4334 -0.3882 -2.5820
    9CHTO  H140 3537   7.488   5.167  -0.756 -1.1881  1.3472  1.0661
    9CHTO   C76 3538   7.489   4.901  -0.638  0.2605 -0.2662  0.4308
    9CHTO  H148 3539   7.427   4.913  -0.549  0.0800 -1.4487  0.4772
    9CHTO   O49 3540   7.513   4.768  -0.677 -0.5512  0.2497  0.1428
    9CHTO   C77 3541   7.394   4.692  -0.677 -0.1600  0.1280  0.1743
    9CHTO  H149 3542   7.337   4.706  -0.584  0.0250 -0.1942  0.3375
    9CHTO   C88 3543   7.429   4.544  -0.686  0.0035 -0.6779  0.0229
    9CHTO   O58 3544   7.551   4.524  -0.602  0.3961  0.1547 -0.1321
    9CHTO  H136 3545   7.567   4.434  -0.580 -2.9508 -0.0313  1.8050
    9CHTO   O51 3546   7.657   4.963  -0.627  0.1059 -0.1097 -0.0325
    9CHTO   C78 3547   7.764   4.859  -0.561 -0.2405 -0.9354  0.6974
    9CHTO  H150 3548   7.731   4.753  -0.563  0.9985 -1.3396  0.8694
    9CHTO   C80 3549   7.782   4.908  -0.418 -0.3634 -0.4196  0.0053
    9CHTO  H152 3550   7.792   5.019  -0.418  0.9188 -0.5250  0.5674
    9CHTO   O55 3551   7.660   4.887  -0.343  0.0126 -0.3172  0.0606
    9CHTO  H134 3552   7.676   4.901  -0.252  0.2864 -2.3266  0.3418
    9CHTO   C84 3553   7.909   4.833  -0.353 -0.5806  0.8127  0.3509
    9CHTO  H156 3554   7.888   4.726  -0.347  2.1137  0.2972  1.0586
    9CHTO   N15 3555   7.933   4.890  -0.213  0.0436  0.4839 -0.8744
    9CHTO  H143 3556   7.925   4.818  -0.134  0.2547  3.7737  2.2738
    9CHTO  H144 3557   7.866   4.972  -0.197 -0.5023  0.1534 -1.4203
    9CHTO   C87 3558   8.029   4.852  -0.443 -0.3180 -0.4063 -0.2391
    9CHTO  H159 3559   8.037   4.961  -0.448  0.3108 -0.2443  3.3182
    9CHTO   O53 3560   7.993   4.791  -0.585  0.2508 -0.1993  0.6830
    9CHTO   C82 3561   7.890   4.870  -0.644  0.8122  0.6465  0.1340
    9CHTO  H154 3562   7.924   4.974  -0.642  3.0814 -0.0152 -1.6858
    9CHTO   C89 3563   7.863   4.836  -0.796 -0.7217 -0.2778  0.0081
    9CHTO   O59 3564   7.982   4.824  -0.873  0.3533  0.5899 -0.2215
    9CHTO  H137 3565   8.055   4.792  -0.825 -0.6905  1.8169  2.3158
    9CHTO   O45 3566   8.163   4.766  -0.378  0.4243 -0.1397 -0.2336
    9CHTO   C67 3567   8.159   4.630  -0.414 -0.5694 -0.2596 -0.4986
    9CHTO  H124 3568   8.057   4.604  -0.442 -0.1451 -0.9323 -1.4300
    9CHTO   C65 3569   8.263   4.589  -0.528 -0.1998 -0.0003 -0.0481
    9CHTO  H122 3570   8.299   4.687  -0.559 -0.5175 -0.3136 -1.4421
    9CHTO   O44 3571   8.196   4.513  -0.633 -0.0062  0.2406  0.3142
    9CHTO  H102 3572   8.104   4.504  -0.615  0.2233  0.8495  1.8672
    9CHTO   C63 3573   8.398   4.528  -0.469 -0.4857  0.1737  0.2726
    9CHTO  H120 3574   8.435   4.588  -0.385 -2.3283  2.1355 -0.2672
    9CHTO   N11 3575   8.515   4.502  -0.554 -0.2351  1.0844 -0.2141
    9CHTO  H108 3576   8.598   4.556  -0.513  1.7061 -1.4706 -0.6623
    9CHTO  H109 3577   8.485   4.524  -0.655 -0.2759  3.9765  0.3916
    9CHTO   C61 3578   8.353   4.392  -0.400  0.6465 -0.8375  0.1885
    9CHTO  H118 3579   8.435   4.366  -0.332  1.4535  1.7105  0.2377
    9CHTO   O40 3580   8.230   4.410  -0.311  0.2170 -0.0073 -0.0312
    9CHTO   C68 3581   8.193   4.546  -0.277 -0.1878 -0.2483 -0.5053
    9CHTO  H125 3582   8.278   4.589  -0.219 -1.5892  1.9609 -0.0589
    9CHTO   C72 3583   8.075   4.543  -0.173 -0.8589  0.8265 -0.4061
    9CHTO   O48 3584   7.949   4.492  -0.212  0.2044 -0.2751  0.1442
    9CHTO  H105 3585   7.909   4.557  -0.266  1.6807  0.1239 -0.5066
    9CHTO   O38 3586   8.332   4.281  -0.494 -0.0454  0.0057 -0.1269
    9CHTO   C55 3587   8.226   4.185  -0.474  0.1478  0.5157 -0.2572
    9CHTO  H112 3588   8.140   4.241  -0.432  1.6484  3.5695 -1.1181
    9CHTO   C56 3589   8.267   4.076  -0.385 -0.3792  0.9563  0.6356
    9CHTO  H113 3590   8.361   4.032  -0.422 -0.8412  1.6969 -1.5098
    9CHTO   O42 3591   8.299   4.131  -0.260  0.6604 -0.1153 -0.1504
    9CHTO  H100 3592   8.224   4.139  -0.205  1.2830  1.1029  0.5369
    9CHTO   C57 3593   8.148   3.969  -0.373 -0.8526  0.1533 -0.3100
    9CHTO  H114 3594   8.078   3.997  -0.294 -0.8992  2.1109 -1.0275
    9CHTO   N10 3595   8.193   3.842  -0.316 -0.7166 -0.0844  0.2568
    9CHTO  H106 3596   8.159   3.828  -0.214  3.9742 -0.9509  1.8482
    9CHTO  H107 3597   8.299   3.818  -0.322 -0.6596  0.7418 -3.5516
    9CHTO   C58 3598   8.084   3.936  -0.511  0.1633 -0.3448 -0.4540
    9CHTO  H115 3599   8.157   3.875  -0.569  2.1519  1.0889  0.4523
    9CHTO   O37 3600   8.062   4.052  -0.590 -0.0276 -0.1388 -0.3056
    9CHTO   C59 3601   8.179   4.131  -0.614  0.1963 -0.4607  0.3526
    9CHTO  H116 3602   8.255   4.069  -0.661  1.4419  0.6009  0.9215
    9CHTO   C70 3603   8.134   4.237  -0.716  0.2061 -0.4108 -0.3031
    9CHTO   O46 3604   8.103   4.178  -0.841 -0.3327  0.2700  0.2331
    9CHTO  H103 3605   8.048   4.228  -0.899  0.7798 -2.0239 -2.9386
    9CHTO   O39 3606   7.943   3.869  -0.500 -0.5523  0.0123 -0.6801
    9CHTO   C60 3607   7.916   3.740  -0.550  0.0214  0.4434  0.4577
    9CHTO  H117 3608   8.006   3.678  -0.541  0.0590  0.0760 -2.0894
    9CHTO   C62 3609   7.795   3.663  -0.485 -0.1920 -0.0741 -0.7893
    9CHTO  H119 3610   7.824   3.664  -0.378  0.1601  0.3915 -0.8874
    9CHTO   O43 3611   7.671   3.736  -0.491 -0.6459  0.5354 -0.5753
    9CHTO  H101 3612   7.610   3.702  -0.429 -2.5086  0.5248 -2.3519
    9CHTO   C66 3613   7.791   3.514  -0.541 -0.3509 -0.4802  0.1690
    9CHTO  H123 3614   7.891   3.471  -0.543 -0.9652 -2.0573  1.6708
    9CHTO   N12 3615   7.703   3.415  -0.474  0.1880  0.1142  0.0798
    9CHTO  H110 3616   7.597   3.430  -0.489  0.1211 -0.4198  0.0377
    9CHTO  H111 3617   7.719   3.316  -0.512 -1.1628  0.8209 -2.5019
    9CHTO   C69 3618   7.766   3.517  -0.696 -0.0674  0.0634  0.1387
    9CHTO  H126 3619   7.662   3.540  -0.729  0.1001 -0.5088 -0.7865
    9CHTO   O41 3620   7.863   3.610  -0.765  0.7459 -0.4796  0.7348
    9CHTO   C64 3621   7.880   3.750  -0.706 -0.4199  1.0477  0.0578
    9CHTO  H121 3622   7.789   3.813  -0.717 -2.0713 -1.2403  0.1621
    9CHTO   C71 3623   7.991   3.817  -0.797  0.1622  0.6372 -0.0514
    9CHTO   O47 3624   8.114   3.742  -0.794 -0.0542  0.0866 -0.0985
    9CHTO  H104 3625   8.179   3.777  -0.852 -0.1510  1.3666  0.5731
    9CHTO   O34 3626   7.797   3.381  -0.753 -0.8172 -0.3163  0.2308
    9CHTO   C49 3627   7.879   3.288  -0.864  0.6562  0.0215  0.5983
    9CHTO   H91 3628   7.869   3.333  -0.963  4.0140 -1.2451 -0.3526
    9CHTO   C47 3629   7.806   3.155  -0.856  0.3862  0.6545  0.0727
    9CHTO   H89 3630   7.841   3.094  -0.942  0.0693 -0.3282  0.6287
    9CHTO   O33 3631   7.665   3.163  -0.876  0.0389 -0.0758  0.2059
    9CHTO   H70 3632   7.624   3.079  -0.881 -2.2206  0.8271  2.6750
    9CHTO   C45 3633   7.841   3.069  -0.712 -0.0603  0.7396  0.4465
    9CHTO   H87 3634   7.761   3.091  -0.641 -1.5402 -2.3339 -0.1953
    9CHTO    N8 3635   7.840   2.922  -0.738 -0.0145 -0.4374 -0.2197
    9CHTO   H75 3636   7.753   2.896  -0.796 -0.6156  0.7930  0.1323
    9CHTO   H76 3637   7.929   2.903  -0.797  0.5717  1.1731  0.1211
    9CHTO   C43 3638   7.977   3.129  -0.653  0.7008  0.1571 -0.1388
    9CHTO   H85 3639   7.944   3.222  -0.605 -1.1941 -0.9639  0.7863
    9CHTO   O29 3640   8.072   3.154  -0.756  0.1849  0.1749 -0.1609
    9CHTO   C50 3641   8.032   3.266  -0.841  0.0298  0.5691 -0.5825
    9CHTO   H92 3642   8.070   3.356  -0.790 -0.1557  1.4567 -1.9861
    9CHTO   C54 3643   8.108   3.246  -0.973 -0.8230  0.3324 -0.2693
    9CHTO   O36 3644   8.103   3.364  -1.054 -0.1776 -0.2503 -0.1024
    9CHTO   H72 3645   8.187   3.402  -1.071 -0.0038 -0.8191 -0.5403
    9CHTO   O27 3646   8.041   3.051  -0.553 -0.3726  0.1547  0.3439
    9CHTO   C37 3647   8.087   3.086  -0.422 -0.7779  0.0663 -0.1702
    9CHTO   H79 3648   8.137   2.999  -0.378  1.4275  2.0223  1.3027
    9CHTO   C38 3649   8.191   3.204  -0.418  0.5087  0.4421  0.1976
    9CHTO   H80 3650   8.148   3.291  -0.472  0.3699  1.5247  2.0265
    9CHTO   O31 3651   8.315   3.160  -0.479  0.0271 -0.1554 -0.1097
    9CHTO   H68 3652   8.311   3.142  -0.571 -0.3741 -1.6328  0.1832
    9CHTO   C39 3653   8.218   3.263  -0.276  0.1158  0.1679  0.1277
    9CHTO   H81 3654   8.266   3.188  -0.214  1.0098  0.2598 -0.4421
    9CHTO    N7 3655   8.305   3.387  -0.272 -0.5422  0.2258  0.3142
    9CHTO   H73 3656   8.336   3.408  -0.171 -0.0886  1.0186  0.0213
    9CHTO   H74 3657   8.391   3.384  -0.338 -0.4492 -0.9756  0.4905
    9CHTO   C40 3658   8.080   3.290  -0.209  0.1791  0.5667  0.1947
    9CHTO   H82 3659   8.032   3.366  -0.271 -1.3444  0.6878  1.4912
    9CHTO   O26 3660   8.003   3.166  -0.204  0.5042 -0.1017  0.2752
    9CHTO   C41 3661   7.967   3.124  -0.336  0.1227  0.5587 -0.1501
    9CHTO   H83 3662   7.914   3.208  -0.383 -1.7489  0.1908  1.2609
    9CHTO   C52 3663   7.861   3.017  -0.330  0.0829  0.0430 -0.8278
    9CHTO   O35 3664   7.915   2.877  -0.270 -0.0454 -0.2552 -0.2617
    9CHTO   H71 3665   8.004   2.894  -0.244 -0.5716 -1.7191  2.7066
    9CHTO   O28 3666   8.090   3.324  -0.067  0.0236 -0.1952  0.1438
    9CHTO   C42 3667   7.977   3.394  -0.005  0.4751 -0.4684  0.5020
    9CHTO   H84 3668   7.986   3.368   0.101 -0.4725 -2.0347  0.2030
    9CHTO   C44 3669   7.824   3.352  -0.039 -0.6922 -0.3005  0.4787
    9CHTO   H86 3670   7.810   3.361  -0.147  2.3937  0.4782  0.0993
    9CHTO   O32 3671   7.795   3.218   0.007 -0.3944 -0.3031  0.4990
    9CHTO   H69 3672   7.837   3.156  -0.050  1.2470 -0.9083  2.2959
    9CHTO   C48 3673   7.715   3.455   0.022 -0.1035  0.8977 -0.7348
    9CHTO   H90 3674   7.724   3.440   0.129  0.5261  0.8338 -0.7939
    9CHTO    N9 3675   7.575   3.429  -0.021 -0.3595  0.9701 -0.4501
    9CHTO   H77 3676   7.556   3.468  -0.120 -2.8241  1.3030  0.1238
    9CHTO   H78 3677   7.494   3.463   0.042  1.2153  1.9248  1.1080
    9CHTO   C51 3678   7.769   3.601  -0.010 -0.2413 -0.7546 -0.0667
    9CHTO   H93 3679   7.775   3.620  -0.117 -0.3927  0.2517  0.0944
    9CHTO   O30 3680   7.895   3.608   0.056  0.0218  0.1069  0.3083
    9CHTO   C46 3681   7.996   3.549  -0.016 -0.4577  0.4329 -0.4407
    9CHTO   H88 3682   7.984   3.573  -0.121 -1.5628 -1.6411 -0.8273
    9CHTO   C53 3683   8.133   3.590   0.040 -0.4904 -0.2291 -0.3628
    9CHTO   O72 3684   8.148   3.732   0.068  0.0677 -0.2873  0.1069
    9CHTO  H199 3685   8.114   3.738   0.156  2.4527 -0.3573  1.0594
    9CHTO   O22 3686   7.688   3.706   0.054  0.1553  0.2109  0.4586
    9CHTO   C31 3687   7.685   3.840  -0.011 -0.6629 -0.2229 -0.0538
    9CHTO   H59 3688   7.609   3.895   0.047  1.3539  0.0504  2.3945
    9CHTO   C29 3689   7.821   3.916  -0.009 -0.5005 -0.1821 -0.2878
    9CHTO   H57 3690   7.901   3.860  -0.060  0.8537  1.4253  0.0230
    9CHTO   O21 3691   7.864   3.921   0.130  0.2735  0.1555 -0.2363
    9CHTO   H37 3692   7.817   3.994   0.165 -0.3422 -0.0239 -0.6771
    9CHTO   C27 3693   7.792   4.055  -0.075 -0.1140 -0.4323 -0.2452
    9CHTO   H55 3694   7.721   4.108  -0.010  2.7636  0.2340  2.4906
    9CHTO    N5 3695   7.914   4.137  -0.070  0.6482  0.1402  0.6562
    9CHTO   H43 3696   7.877   4.225  -0.120 -1.8417 -0.7781  0.8162
    9CHTO   H44 3697   7.948   4.146   0.032  1.1591  0.3297  0.4729
    9CHTO   C25 3698   7.738   4.027  -0.222 -0.7428 -0.1331 -0.3764
    9CHTO   H53 3699   7.806   3.962  -0.278  0.2262 -0.1567  0.8118
    9CHTO   O17 3700   7.607   3.964  -0.207  0.5568 -0.3216 -0.4608
    9CHTO   C32 3701   7.627   3.836  -0.158 -0.0944 -0.4566  0.5688
    9CHTO   H60 3702   7.697   3.785  -0.224  2.0616  1.9308  0.9226
    9CHTO   C36 3703   7.484   3.768  -0.172 -0.6539  0.0130 -0.3153
    9CHTO   O25 3704   7.442   3.748  -0.305 -0.2242 -0.3485 -0.3491
    9CHTO   H40 3705   7.358   3.789  -0.306  0.1709  0.5605  1.3626
    9CHTO   O15 3706   7.719   4.164  -0.317 -0.1130  0.0184  0.2332
    9CHTO   C19 3707   7.673   4.227  -0.441 -0.8663  0.2284 -0.0137
    9CHTO   H47 3708   7.671   4.333  -0.409 -1.1490 -0.2638  1.6834
    9CHTO   C20 3709   7.770   4.208  -0.565 -0.1063  0.3329 -0.5022
    9CHTO   H48 3710   7.821   4.111  -0.567 -0.7421  0.0033 -1.0191
    9CHTO   O19 3711   7.883   4.294  -0.542 -0.1817  0.4014 -0.2141
    9CHTO   H35 3712   7.857   4.383  -0.525  0.1226  0.5634 -0.6080
    9CHTO   C21 3713   7.708   4.230  -0.709 -0.2315  0.2495 -0.2994
    9CHTO   H49 3714   7.690   4.335  -0.730  1.8977  0.6916  0.0046
    9CHTO    N4 3715   7.784   4.174  -0.823  0.2145 -0.0391  0.2138
    9CHTO   H41 3716   7.820   4.258  -0.880 -1.6669  0.0734 -0.8229
    9CHTO   H42 3717   7.865   4.107  -0.797 -0.4220 -0.1519  2.0004
    9CHTO   C22 3718   7.566   4.171  -0.711 -0.3130 -0.1706 -0.3312
    9CHTO   H50 3719   7.574   4.063  -0.702  0.4562 -0.3271 -2.5191
    9CHTO   O14 3720   7.495   4.234  -0.607 -0.0549 -0.2726 -0.2526
    9CHTO   C23 3721   7.532   4.181  -0.478  0.6879 -0.2836  0.0623
    9CHTO   H51 3722   7.526   4.071  -0.476  0.7273 -0.2680  1.3260
    9CHTO   C34 3723   7.422   4.223  -0.385 -0.0946 -0.4213  0.2205
    9CHTO   O23 3724   7.394   4.364  -0.398 -1.0480 -0.2883 -0.1190
    9CHTO   H38 3725   7.471   4.417  -0.408  0.7958 -2.9702 -0.5220
    9CHTO   O16 3726   7.489   4.208  -0.831 -0.4314  1.1622 -0.1403
    9CHTO   C24 3727   7.367   4.095  -0.849  0.0412 -0.5458  0.1250
    9CHTO   H52 3728   7.365   4.026  -0.764  1.7277 -1.5619 -0.6336
    9CHTO   C26 3729   7.399   4.023  -0.973 -0.4905 -0.0231  0.1601
    9CHTO   H54 3730   7.410   4.098  -1.055  0.9878 -1.1336 -0.6863
    9CHTO   O20 3731   7.519   3.944  -0.946  0.6236 -0.4564  0.1484
    9CHTO   H36 3732   7.504   3.879  -0.880 -2.8156  1.6722  1.5742
    9CHTO   C30 3733   7.280   3.933  -1.020  0.5567 -0.6603 -0.0505
    9CHTO   H58 3734   7.266   3.846  -0.954 -0.4947  0.1776  0.8524
    9CHTO    N6 3735   7.292   3.878  -1.152  0.4824 -0.4288 -0.9591
    9CHTO   H45 3736   7.390   3.837  -1.167  0.3174 -0.6021 -1.5837
    9CHTO   H46 3737   7.273   3.946  -1.234 -0.6444  0.8497  0.3288
    9CHTO   C33 3738   7.148   4.021  -1.018 -0.0185 -0.0773 -0.8924
    9CHTO   H61 3739   7.164   4.105  -1.087  0.8364  0.5996  0.1123
    9CHTO   O18 3740   7.137   4.071  -0.880  0.7279 -0.2386 -0.2618
    9CHTO   C28 3741   7.234   4.168  -0.853  0.3946 -0.7502  0.2730
    9CHTO   H56 3742   7.239   4.237  -0.937 -0.2337 -0.2276  0.6635
    9CHTO   C35 3743   7.213   4.244  -0.727  0.0930  0.3060 -0.7143
    9CHTO   O24 3744   7.094   4.316  -0.735  0.3102  0.0817  0.1366
    9CHTO   H39 3745   7.077   4.346  -0.648 -0.2367  0.5219 -0.1214
    9CHTO    O9 3746   7.023   3.964  -1.059  0.6862 -0.3001  0.6794
    9CHTO   C13 3747   6.894   4.067  -1.102  0.3234  0.5399  0.0120
    9CHTO   H26 3748   6.947   4.129  -1.178  0.3371 -2.4418 -2.4826
    9CHTO   C11 3749   6.838   4.152  -0.980 -0.8284 -0.4367  0.3418
    9CHTO   H24 3750   6.913   4.228  -0.952 -2.4076  1.2774  0.0373
    9CHTO    O8 3751   6.812   4.068  -0.863 -0.2365  0.1077  0.1300
    9CHTO    H3 3752   6.889   4.019  -0.842  1.5307  3.5144  2.0245
    9CHTO    C9 3753   6.711   4.226  -1.029 -0.4911  0.0581  0.0316
    9CHTO   H22 3754   6.742   4.277  -1.121  2.4466 -2.0934 -0.2328
    9CHTO    N2 3755   6.681   4.339  -0.942  0.0897  0.8769  0.4406
    9CHTO   H10 3756   6.673   4.303  -0.840  3.7080  1.1509  0.8884
    9CHTO   H11 3757   6.760   4.412  -0.940  0.2977  0.6694 -0.1757
    9CHTO    C7 3758   6.600   4.118  -1.063 -0.6303 -0.0810 -0.3642
    9CHTO   H20 3759   6.515   4.184  -1.092  0.0558  1.4314  0.9494
    9CHTO    O4 3760   6.640   4.032  -1.175 -0.0307  0.1373 -0.4218
    9CHTO   C14 3761   6.775   3.978  -1.174  0.4543 -0.8792 -0.1171
    9CHTO   H27 3762   6.787   3.977  -1.285 -1.3846 -0.4399 -0.3452
    9CHTO   C18 3763   6.764   3.831  -1.120  0.7382 -0.0485  0.1546
    9CHTO   O13 3764   6.673   3.746  -1.198  0.3014  0.0304 -0.1352
    9CHTO    H7 3765   6.626   3.685  -1.146 -0.1809 -0.3084 -0.9514
    9CHTO    O2 3766   6.569   4.028  -0.945 -0.1959  0.4208 -0.1018
    9CHTO    C1 3767   6.437   3.987  -0.918 -0.5641 -0.3522 -0.0057
    9CHTO   H14 3768   6.430   3.898  -0.851 -1.8784 -1.2844 -1.3531
    9CHTO    C2 3769   6.345   3.959  -1.038 -0.1006  0.3429 -0.2509
    9CHTO   H15 3770   6.355   4.042  -1.110 -0.9546  1.1017  0.4853
    9CHTO    O6 3771   6.402   3.846  -1.105  0.1081 -0.2153  0.1903
    9CHTO    H1 3772   6.420   3.766  -1.060  0.2844  0.0241  0.5484
    9CHTO    C3 3773   6.184   3.941  -0.998 -0.3340 -0.1534 -0.2340
    9CHTO   H16 3774   6.180   3.849  -0.939 -0.8586  1.5699  2.4995
    9CHTO    N1 3775   6.089   3.934  -1.111  0.8279 -0.9957 -0.1514
    9CHTO    H8 3776   6.046   3.836  -1.119 -1.1931 -0.0437 -1.4060
    9CHTO    H9 3777   6.153   3.953  -1.196  1.9060 -2.3260  0.3491
    9CHTO    C4 3778   6.141   4.050  -0.895 -0.2218  0.9019  1.3327
    9CHTO   H17 3779   6.132   4.145  -0.948 -0.5632  0.8948  1.3751
    9CHTO    O1 3780   6.240   4.067  -0.797  0.0199  0.8304  0.5148
    9CHTO    C5 3781   6.369   4.104  -0.846 -0.1607  0.4345  0.1677
    9CHTO   H18 3782   6.370   4.185  -0.919  0.6010 -1.1128 -1.6129
    9CHTO   C16 3783   6.457   4.142  -0.727  0.0216  0.0234  0.2434
    9CHTO   O11 3784   6.426   4.276  -0.680  0.2543  0.1270  0.0006
    9CHTO    H5 3785   6.440   4.346  -0.740 -1.7334  0.4408 -0.1220
    9CHTO    O3 3786   6.022   4.019  -0.820  0.2373  0.0264  0.6168
    9CHTO    C6 3787   5.922   4.129  -0.812  0.2110 -0.3228 -0.6774
    9CHTO   H19 3788   5.944   4.215  -0.875  1.6229  0.7250  1.1928
    9CHTO    C8 3789   5.781   4.073  -0.860  0.0210  0.0449 -0.0792
    9CHTO   H21 3790   5.759   3.986  -0.797 -1.0738  1.0690  0.9692
    9CHTO    O7 3791   5.792   4.041  -0.998 -0.2346  0.1175  0.0438
    9CHTO    H2 3792   5.762   3.954  -1.015 -0.6326  0.2393  0.1201
    9CHTO   C12 3793   5.663   4.171  -0.829  0.9498 -0.0335  0.2460
    9CHTO   H25 3794   5.668   4.263  -0.891 -0.2428  0.6522  1.1461
    9CHTO    N3 3795   5.533   4.104  -0.862  0.5985  0.2427  0.2443
    9CHTO   H12 3796   5.528   4.022  -0.793  1.2281 -0.5228 -0.6178
    9CHTO   H13 3797   5.530   4.086  -0.968  1.4688  0.0416  0.2554
    9CHTO   C15 3798   5.676   4.221  -0.685  0.6317  0.0691  0.5751
    9CHTO   H28 3799   5.664   4.132  -0.623 -1.7481  0.1540  0.3020
    9CHTO   O10 3800   5.563   4.323  -0.639 -0.0948  0.2453  0.0170
    9CHTO    H4 3801   5.549   4.405  -0.681 -3.9181  0.0769  0.6967
    9CHTO    O5 3802   5.806   4.280  -0.666 -0.2281  0.1340 -0.0497
    9CHTO   C10 3803   5.908   4.185  -0.671 -0.0873 -0.6004  0.4414
    9CHTO   H23 3804   5.895   4.106  -0.598 -0.1441 -0.2001  0.8656
    9CHTO   C17 3805   6.036   4.253  -0.619 -0.1155 -0.4724  0.0710
    9CHTO   O12 3806   6.030   4.303  -0.490  0.7032 -0.0983  0.1407
    9CHTO    H6 3807   5.954   4.358  -0.483  1.6749  1.2519  0.3558
   10CHTO  H203 3808   5.371   6.355   1.806 -0.8515 -0.5220  1.1472
   10CHTO   O82 3809   5.365   6.446   1.828 -0.0010 -0.0787 -0.3884
   10CHTO  C123 3810   5.251   6.519   1.791 -0.3500 -0.2156 -0.4931
   10CHTO  H227 3811   5.253   6.511   1.682  2.5944  2.2325 -0.6877
   10CHTO   O77 3812   5.142   6.439   1.854  0.8522  0.3190 -0.4477
   10CHTO  C118 3813   5.007   6.491   1.831 -0.6005  0.3880 -0.1434
   10CHTO  H222 3814   4.980   6.500   1.725 -0.1061 -1.6604 -0.4637
   10CHTO  C125 3815   4.906   6.392   1.890 -0.1320 -0.3953  0.7374
   10CHTO   O84 3816   4.910   6.267   1.822 -0.4102 -0.3492  0.1773
   10CHTO  H205 3817   4.890   6.195   1.878  1.3658  1.5032  3.3121
   10CHTO  C114 3818   4.996   6.624   1.906 -0.7083  0.6646  0.0280
   10CHTO  H218 3819   5.032   6.611   2.008 -0.2879 -0.8706 -0.3033
   10CHTO  C116 3820   5.103   6.723   1.831  0.6079 -0.3949 -0.0114
   10CHTO  H220 3821   5.063   6.730   1.728 -0.0519 -0.3079  0.2477
   10CHTO   O79 3822   5.076   6.858   1.881  0.1232  0.0285 -0.0614
   10CHTO  H201 3823   5.111   6.915   1.816 -0.3238  0.4518  0.0696
   10CHTO  C120 3824   5.249   6.666   1.835 -0.2651  0.0990 -0.3067
   10CHTO  H224 3825   5.278   6.665   1.942  2.9426 -1.6754 -1.1242
   10CHTO   N21 3826   5.345   6.754   1.760 -0.3741 -0.7385 -0.1301
   10CHTO  H211 3827   5.451   6.742   1.779  0.0063 -1.5346 -2.5687
   10CHTO  H212 3828   5.318   6.770   1.657 -0.3007  1.6665  0.2077
   10CHTO   O75 3829   4.857   6.664   1.896  0.1381 -0.2319 -0.7012
   10CHTO  C112 3830   4.786   6.718   2.030  0.3894  0.1520  0.9936
   10CHTO  H216 3831   4.863   6.765   2.093  0.4322  0.2394  0.8754
   10CHTO   O73 3832   4.731   6.604   2.096 -0.0615  0.5084  0.1659
   10CHTO  C113 3833   4.669   6.627   2.226  0.1238 -0.1574  0.1113
   10CHTO  H217 3834   4.741   6.661   2.302  1.2712  0.6338 -1.3014
   10CHTO  C124 3835   4.615   6.489   2.266 -0.2242 -0.3242  0.1329
   10CHTO   O83 3836   4.522   6.432   2.174 -0.8685  0.2508 -0.0078
   10CHTO  H204 3837   4.433   6.449   2.200 -1.7267 -1.1827 -1.9031
   10CHTO  C109 3838   4.553   6.734   2.215  0.6844 -0.5633 -0.1628
   10CHTO  H213 3839   4.470   6.689   2.158 -1.3870  1.2070  1.3715
   10CHTO  C110 3840   4.610   6.860   2.142 -0.4498 -0.0518 -0.3854
   10CHTO  H214 3841   4.692   6.904   2.198 -0.9169 -0.6844  0.7973
   10CHTO   O78 3842   4.513   6.967   2.134  0.2571  0.1537 -0.4339
   10CHTO  H200 3843   4.537   7.021   2.207  0.0349 -1.7162  1.0909
   10CHTO  C111 3844   4.670   6.818   2.001  0.1242 -1.2579 -0.2937
   10CHTO  H215 3845   4.589   6.767   1.946  0.0113 -1.5011  0.0977
   10CHTO   N19 3846   4.710   6.925   1.910 -0.2237  0.2394 -0.2743
   10CHTO  H207 3847   4.645   7.007   1.883 -2.1154 -1.1723 -0.1102
   10CHTO  H208 3848   4.805   6.961   1.945  0.2079 -0.2389 -0.9369
   10CHTO   O74 3849   4.505   6.763   2.354  0.1420 -0.5591  0.9602
   10CHTO  C115 3850   4.346   6.720   2.375 -0.1252  0.7530 -0.0626
   10CHTO  H219 3851   4.292   6.722   2.280 -0.9041  0.3534  0.3622
   10CHTO   O76 3852   4.330   6.569   2.429 -0.5889 -0.1215  0.2565
   10CHTO  C122 3853   4.363   6.543   2.568  0.5292 -0.7979 -0.5679
   10CHTO  H226 3854   4.469   6.520   2.572  0.8280  0.6126  0.0534
   10CHTO  C126 3855   4.285   6.411   2.620  0.2944  0.0725  0.2745
   10CHTO   O85 3856   4.292   6.297   2.532 -0.4645  0.0920 -0.1956
   10CHTO  H206 3857   4.361   6.243   2.566  0.6243  1.0742 -0.7938
   10CHTO  C121 3858   4.329   6.655   2.666  0.7829 -0.3165  0.1589
   10CHTO  H225 3859   4.287   6.606   2.756 -0.3816 -0.3311 -0.3887
   10CHTO   O81 3860   4.445   6.731   2.697 -0.3509 -0.3268  0.1030
   10CHTO  H202 3861   4.519   6.682   2.728  0.1966 -0.5482 -1.5442
   10CHTO  C119 3862   4.220   6.754   2.598  0.1043 -0.6713  0.9537
   10CHTO  H223 3863   4.135   6.690   2.574 -0.1760 -0.5106  1.5155
   10CHTO  C117 3864   4.285   6.822   2.467  0.0382  0.6875 -1.1979
   10CHTO  H221 3865   4.367   6.883   2.505  0.7695 -1.7827  1.4075
   10CHTO   N20 3866   4.189   6.911   2.393  0.4739  0.1700  0.1799
   10CHTO  H209 3867   4.141   6.979   2.462  0.3300 -0.3669  0.6138
   10CHTO  H210 3868   4.119   6.846   2.343  1.3494 -1.4175  0.9581
   10CHTO   O80 3869   4.155   6.862   2.700  0.2362  0.3386  0.0175
   10CHTO  C103 3870   4.000   6.840   2.754 -0.4759  0.3792  0.1738
   10CHTO  H190 3871   3.971   6.915   2.827  2.0342  0.4249  1.1637
   10CHTO  C101 3872   3.889   6.835   2.639 -0.4780 -0.5615  0.7476
   10CHTO  H188 3873   3.932   6.777   2.558  0.5037  0.4368  0.5388
   10CHTO   O68 3874   3.884   6.963   2.593  0.3521 -0.1776  0.2240
   10CHTO  H168 3875   3.972   6.991   2.575 -0.0734  0.0518 -1.4889
   10CHTO   C99 3876   3.749   6.780   2.686  0.1200  0.1610 -0.6310
   10CHTO  H186 3877   3.701   6.862   2.744 -2.0888  0.1072 -2.3297
   10CHTO   N17 3878   3.659   6.749   2.571  0.1260 -0.2088  0.0379
   10CHTO  H174 3879   3.723   6.714   2.492  1.1328  0.6137  0.4875
   10CHTO  H175 3880   3.584   6.678   2.603  0.4475 -1.1925 -1.3664
   10CHTO   C97 3881   3.765   6.654   2.774 -0.0885 -0.5399 -0.0461
   10CHTO  H184 3882   3.803   6.575   2.708 -0.7415  0.1963 -1.3270
   10CHTO   O64 3883   3.854   6.679   2.883 -0.0238 -0.3806  0.1513
   10CHTO  C104 3884   3.981   6.702   2.829  1.2866 -0.4034  0.0589
   10CHTO  H191 3885   4.000   6.623   2.756  0.2310 -1.5533  1.0230
   10CHTO  C108 3886   4.089   6.683   2.942  0.2140  0.0303 -0.5171
   10CHTO   O71 3887   4.105   6.794   3.031  0.2372  0.2881 -0.0355
   10CHTO  H171 3888   4.151   6.867   2.994  0.1954  0.2401 -0.1853
   10CHTO   O62 3889   3.644   6.622   2.840  0.6258 -0.2305  0.3619
   10CHTO   C91 3890   3.627   6.485   2.863 -0.3975  0.3073  0.4433
   10CHTO  H178 3891   3.634   6.435   2.766  0.3439  1.3787 -0.0575
   10CHTO   C92 3892   3.476   6.469   2.898  0.1468  0.2501 -0.4796
   10CHTO  H179 3893   3.403   6.528   2.840 -0.0260  0.0978 -0.4180
   10CHTO   O66 3894   3.433   6.331   2.877  0.1373 -0.4424  0.0237
   10CHTO  H166 3895   3.351   6.331   2.831 -1.1160 -1.9093  2.1395
   10CHTO   C93 3896   3.442   6.504   3.046 -0.0523 -0.8248  0.6801
   10CHTO  H180 3897   3.341   6.474   3.079  0.2333 -2.0662  0.4472
   10CHTO   N16 3898   3.439   6.651   3.076 -0.0898 -0.1911  0.3521
   10CHTO  H172 3899   3.465   6.720   2.997  2.6448  0.1456  1.4729
   10CHTO  H173 3900   3.505   6.673   3.158 -0.0847  0.8673  0.0645
   10CHTO   C94 3901   3.547   6.428   3.141  0.3420 -0.0347  0.2088
   10CHTO  H181 3902   3.593   6.499   3.210 -2.4197  3.1069 -1.0655
   10CHTO   O61 3903   3.647   6.355   3.070  0.1023 -0.4249  0.8969
   10CHTO   C95 3904   3.722   6.427   2.976  0.2655 -0.4917 -0.0939
   10CHTO  H182 3905   3.766   6.511   3.029  0.2545  0.4853 -1.5917
   10CHTO  C106 3906   3.832   6.335   2.911  0.2388 -0.3184  0.3775
   10CHTO   O69 3907   3.939   6.402   2.839 -0.1249  0.0985 -0.3487
   10CHTO  H169 3908   4.022   6.359   2.835 -0.5539 -0.6500 -1.0586
   10CHTO   O63 3909   3.476   6.321   3.220 -0.1253 -0.3388 -0.0796
   10CHTO   C96 3910   3.541   6.307   3.367 -0.2176 -0.0844 -0.4309
   10CHTO  H183 3911   3.626   6.372   3.386  1.8416 -2.9331  0.6242
   10CHTO   C98 3912   3.597   6.166   3.403  0.3770 -0.3519 -0.4208
   10CHTO  H185 3913   3.527   6.084   3.378  1.0325 -1.4659  1.3344
   10CHTO   O67 3914   3.709   6.145   3.321  0.8247  0.2010 -0.9457
   10CHTO  H167 3915   3.681   6.163   3.233 -0.1901 -0.9850 -0.8798
   10CHTO  C102 3916   3.639   6.160   3.553  0.3291  0.3143 -0.0023
   10CHTO  H189 3917   3.719   6.235   3.565  1.6470 -1.3659  1.9912
   10CHTO   N18 3918   3.702   6.032   3.595  0.0857  0.6930  0.1537
   10CHTO  H176 3919   3.792   6.023   3.535  1.5258  3.5382  1.7918
   10CHTO  H177 3920   3.635   5.956   3.557  1.3776  0.5192 -1.9071
   10CHTO  C105 3921   3.514   6.197   3.638  0.2462  0.4520  0.1829
   10CHTO  H192 3922   3.437   6.121   3.620  0.2096  0.1629  1.4399
   10CHTO   O65 3923   3.470   6.329   3.606 -0.2035 -0.1961 -0.0817
   10CHTO  C100 3924   3.428   6.358   3.475 -0.0379  0.4089  0.2420
   10CHTO  H187 3925   3.334   6.303   3.458  0.6182 -0.8528  0.6615
   10CHTO  C107 3926   3.399   6.503   3.464 -0.1664  0.2745 -0.1878
   10CHTO   O70 3927   3.514   6.578   3.489  0.2388  0.1029  0.6018
   10CHTO  H170 3928   3.492   6.657   3.535 -1.7606 -0.6120  0.9291
   10CHTO   O57 3929   3.550   6.201   3.791 -0.0634 -0.5294 -0.2107
   10CHTO   C85 3930   3.451   6.237   3.895 -0.4671 -0.9400  0.3757
   10CHTO  H157 3931   3.352   6.216   3.850 -0.9801  1.7367  0.2050
   10CHTO   C83 3932   3.456   6.393   3.923 -0.0547 -0.3613 -0.6349
   10CHTO  H155 3933   3.388   6.440   3.852 -0.9454 -1.4929 -0.5298
   10CHTO   O56 3934   3.586   6.440   3.889 -0.5320  0.1383  0.4856
   10CHTO  H135 3935   3.607   6.430   3.798 -0.3087  3.8157  0.0616
   10CHTO   C81 3936   3.412   6.443   4.064 -0.2159 -0.8489  0.1824
   10CHTO  H153 3937   3.305   6.423   4.074  0.3261 -2.1710  4.1271
   10CHTO   N14 3938   3.402   6.594   4.073 -0.1598  0.5211  0.6614
   10CHTO  H141 3939   3.388   6.643   3.978  1.6077  0.5975  0.4249
   10CHTO  H142 3940   3.318   6.615   4.136  0.3747  2.4078  0.7938
   10CHTO   C79 3941   3.490   6.356   4.170  0.0893  0.3482  0.2503
   10CHTO  H151 3942   3.462   6.393   4.269 -0.2929  3.5496 -0.9978
   10CHTO   O52 3943   3.459   6.213   4.159 -0.0591  0.2839  0.3546
   10CHTO   C86 3944   3.481   6.155   4.031 -0.4240  0.7794  0.4542
   10CHTO  H158 3945   3.590   6.136   4.028 -0.4546  0.4238  1.6189
   10CHTO   C90 3946   3.415   6.017   4.033 -0.4061 -0.1105  0.0963
   10CHTO   O60 3947   3.276   6.030   4.005  0.6011 -0.3690 -0.1608
   10CHTO  H138 3948   3.256   6.054   3.917 -1.6008 -1.3310  0.0196
   10CHTO   O50 3949   3.635   6.381   4.167  0.2764 -0.2391 -0.1971
   10CHTO   C73 3950   3.732   6.340   4.265 -0.7395 -0.7571  0.1108
   10CHTO  H145 3951   3.713   6.232   4.282 -0.8599 -0.8232 -0.4384
   10CHTO   C74 3952   3.717   6.416   4.397  0.1615 -0.2485  0.4092
   10CHTO  H146 3953   3.622   6.410   4.452 -0.1904  0.6249 -0.1047
   10CHTO   O54 3954   3.803   6.352   4.492 -0.0325 -0.5213 -0.2789
   10CHTO  H133 3955   3.894   6.337   4.477  0.5482 -1.6534  3.6907
   10CHTO   C75 3956   3.762   6.568   4.378  0.3963 -0.7877 -0.0532
   10CHTO  H147 3957   3.697   6.618   4.305  0.9655  1.4176  0.9025
   10CHTO   N13 3958   3.748   6.645   4.506 -0.0916  0.5000  0.0663
   10CHTO  H139 3959   3.645   6.659   4.532  0.2958  2.0657  0.7690
   10CHTO  H140 3960   3.791   6.744   4.500 -0.4094  0.6724  0.5905
   10CHTO   C76 3961   3.912   6.576   4.317 -0.7890 -0.1222 -0.3512
   10CHTO  H148 3962   3.973   6.535   4.398  1.4580  1.4345 -1.2462
   10CHTO   O49 3963   3.919   6.492   4.192 -0.2207 -0.2744  0.1373
   10CHTO   C77 3964   3.880   6.354   4.211  0.3919 -0.0726  0.2458
   10CHTO  H149 3965   3.947   6.312   4.286 -0.6430 -1.6615  0.3003
   10CHTO   C88 3966   3.910   6.294   4.072  1.0850 -0.5713  0.0474
   10CHTO   O58 3967   3.907   6.143   4.057  0.0420 -0.1312  0.4017
   10CHTO  H136 3968   3.984   6.119   4.104 -1.8350 -3.8061  1.8158
   10CHTO   O51 3969   3.953   6.707   4.277  0.5037 -0.1066 -0.6085
   10CHTO   C78 3970   4.121   6.745   4.317 -0.1313 -0.1220 -0.5133
   10CHTO  H150 3971   4.181   6.653   4.304  1.5472  0.7196  1.0565
   10CHTO   C80 3972   4.132   6.793   4.466 -0.7362  0.6583  0.5361
   10CHTO  H152 3973   4.062   6.878   4.484  1.6712  2.3360  2.2666
   10CHTO   O55 3974   4.101   6.680   4.550 -0.4909  0.1992  0.2281
   10CHTO  H134 3975   4.012   6.652   4.541 -0.4677 -0.7886  2.6844
   10CHTO   C84 3976   4.270   6.854   4.489  0.0148  0.0228  0.3185
   10CHTO  H156 3977   4.345   6.776   4.486  1.2828  1.1494  1.7749
   10CHTO   N15 3978   4.277   6.907   4.629  0.1108 -0.3738 -0.2714
   10CHTO  H143 3979   4.181   6.940   4.664  0.2501 -1.3326  1.0444
   10CHTO  H144 3980   4.311   6.830   4.694  0.0607 -0.9445 -0.9174
   10CHTO   C87 3981   4.309   6.957   4.380 -0.0667 -0.2627 -0.1819
   10CHTO  H159 3982   4.246   7.045   4.392 -0.5600 -0.8118  1.4908
   10CHTO   O53 3983   4.296   6.891   4.237  0.7350 -0.6339 -0.1846
   10CHTO   C82 3984   4.162   6.848   4.211 -0.6200 -0.5947 -0.3493
   10CHTO  H154 3985   4.101   6.938   4.221  2.1798  1.0114  3.4562
   10CHTO   C89 3986   4.142   6.791   4.067 -0.6017 -0.2354 -0.1265
   10CHTO   O59 3987   4.178   6.892   3.971  0.7536 -1.0839 -0.4933
   10CHTO  H137 3988   4.262   6.877   3.931  1.9036 -0.6989  1.6833
   10CHTO   O45 3989   4.480   7.007   4.394  0.1828  0.6992 -0.1550
   10CHTO   C67 3990   4.507   7.139   4.356 -0.2064  0.1267  0.5579
   10CHTO  H124 3991   4.440   7.167   4.275 -1.1910 -1.3348  0.8402
   10CHTO   C65 3992   4.471   7.239   4.471  0.4637  0.5931  0.0345
   10CHTO  H122 3993   4.469   7.181   4.563  1.2363 -2.2885 -1.6943
   10CHTO   O44 3994   4.339   7.290   4.454 -0.2922  0.0416  0.1434
   10CHTO  H102 3995   4.318   7.340   4.530 -2.6349 -2.4006  1.2017
   10CHTO   C63 3996   4.586   7.340   4.500  0.7920  0.0682  0.0144
   10CHTO  H120 3997   4.662   7.293   4.562  0.8300  2.4025  1.7998
   10CHTO   N11 3998   4.560   7.454   4.591  0.2576 -0.1260  0.0691
   10CHTO  H108 3999   4.648   7.509   4.616 -1.5596  1.1321  4.0539
   10CHTO  H109 4000   4.505   7.430   4.680  1.9095 -0.8381  0.9162
   10CHTO   C61 4001   4.647   7.393   4.366  0.4734  0.0918  0.3190
   10CHTO  H118 4002   4.737   7.456   4.375 -0.2777  1.4298 -1.2355
   10CHTO   O40 4003   4.679   7.288   4.272 -0.0343  0.2748  0.0970
   10CHTO   C68 4004   4.653   7.147   4.308 -0.1010 -0.2883 -0.0566
   10CHTO  H125 4005   4.727   7.137   4.391 -1.3185  0.6938  1.1654
   10CHTO   C72 4006   4.686   7.056   4.195 -0.5451 -0.3099 -0.1974
   10CHTO   O48 4007   4.814   7.085   4.143  0.0571  0.1019  0.1023
   10CHTO  H105 4008   4.882   7.092   4.208 -0.4410 -1.6042  0.8292
   10CHTO   O38 4009   4.546   7.464   4.291 -0.0853  0.6014 -0.4035
   10CHTO   C55 4010   4.582   7.582   4.209 -0.4550 -0.9292 -0.5181
   10CHTO  H112 4011   4.500   7.586   4.135 -1.3920 -0.1559  0.5430
   10CHTO   C56 4012   4.729   7.580   4.138 -0.1610 -0.3471 -0.8696
   10CHTO  H113 4013   4.803   7.553   4.215  1.2266 -1.7318 -2.6391
   10CHTO   O42 4014   4.746   7.481   4.039  0.7227  0.1416 -0.1984
   10CHTO  H100 4015   4.667   7.476   3.989  0.5561  1.1832 -0.0577
   10CHTO   C57 4016   4.770   7.725   4.083  0.1750  0.6113  0.3943
   10CHTO  H114 4017   4.712   7.712   3.992 -1.0774  3.9679  0.6425
   10CHTO   N10 4018   4.914   7.734   4.047  0.2399  0.0912 -0.1794
   10CHTO  H106 4019   4.976   7.668   4.106 -2.4439 -1.6736  0.7508
   10CHTO  H107 4020   4.939   7.719   3.942 -0.5124 -1.8641 -0.1087
   10CHTO   C58 4021   4.721   7.845   4.167 -0.0530 -0.3067 -0.6922
   10CHTO  H115 4022   4.780   7.855   4.261  1.3911  1.4334 -1.7436
   10CHTO   O37 4023   4.584   7.822   4.195  0.3477 -0.2736 -0.0414
   10CHTO   C59 4024   4.572   7.719   4.294  0.0643  0.7024 -0.4185
   10CHTO  H116 4025   4.643   7.720   4.377 -1.3376  0.8095  0.8043
   10CHTO   C70 4026   4.433   7.717   4.361 -0.3176  0.2743  0.2010
   10CHTO   O46 4027   4.397   7.850   4.407 -0.3297 -0.4555  0.2705
   10CHTO  H103 4028   4.412   7.858   4.500  0.4954  2.2429 -0.0678
   10CHTO   O39 4029   4.723   7.987   4.073  0.8189 -0.4698  0.0433
   10CHTO   C60 4030   4.694   8.118   4.130  0.6600  0.3625 -0.0789
   10CHTO  H117 4031   4.632   8.167   4.055  1.6409 -1.4286 -2.1365
   10CHTO   C62 4032   4.609   8.119   4.261 -0.0802  0.7164 -0.3722
   10CHTO  H119 4033   4.523   8.053   4.236 -0.3615  0.9821 -0.1185
   10CHTO   O43 4034   4.678   8.057   4.371  0.4362 -0.1697 -0.1465
   10CHTO  H101 4035   4.628   8.039   4.448  1.2824 -1.1929  0.1720
   10CHTO   C66 4036   4.565   8.275   4.301 -0.1614 -0.0039 -1.3626
   10CHTO  H123 4037   4.512   8.318   4.216 -0.4771 -0.0019 -1.1622
   10CHTO   N12 4038   4.465   8.271   4.415  0.4335 -0.1041 -0.6486
   10CHTO  H110 4039   4.382   8.209   4.383 -0.3354  0.0843  0.9308
   10CHTO  H111 4040   4.434   8.365   4.458  1.0814  0.5270 -1.5490
   10CHTO   C69 4041   4.694   8.363   4.318  0.3229  0.9485 -0.4693
   10CHTO  H126 4042   4.741   8.322   4.409  0.8746  0.2140 -1.0884
   10CHTO   O41 4043   4.784   8.336   4.189  0.3627  0.0773 -0.2267
   10CHTO   C64 4044   4.820   8.198   4.150 -0.7452  0.0900 -0.5675
   10CHTO  H121 4045   4.889   8.152   4.225 -0.4755  2.4105  0.6322
   10CHTO   C71 4046   4.898   8.209   4.020 -0.0570  0.9933  0.4291
   10CHTO   O47 4047   4.954   8.087   3.959  0.1230  0.5535 -0.1407
   10CHTO  H104 4048   5.002   8.095   3.879  1.4831 -0.0808  0.6031
   10CHTO   O34 4049   4.660   8.508   4.323 -0.8272 -0.0755  0.4290
   10CHTO   C49 4050   4.698   8.640   4.276  0.0914 -0.3189 -0.1847
   10CHTO   H91 4051   4.807   8.647   4.266  0.1620  3.0677  2.0945
   10CHTO   C47 4052   4.650   8.742   4.384  0.3555  0.0596  0.0849
   10CHTO   H89 4053   4.681   8.843   4.349 -0.7747 -0.0090 -1.1299
   10CHTO   O33 4054   4.707   8.721   4.508 -0.2730  0.1141  0.0239
   10CHTO   H70 4055   4.662   8.654   4.556 -0.5922  0.1629 -0.2074
   10CHTO   C45 4056   4.486   8.745   4.374  0.0448  0.1491 -0.1253
   10CHTO   H87 4057   4.454   8.640   4.376 -0.0997  0.2129  0.7505
   10CHTO    N8 4058   4.421   8.824   4.475 -0.5202  0.1626  0.1986
   10CHTO   H75 4059   4.470   8.794   4.566  1.8072  1.5149 -0.5563
   10CHTO   H76 4060   4.314   8.814   4.470 -0.3864 -0.3496 -2.1350
   10CHTO   C43 4061   4.448   8.800   4.232 -0.7312 -0.0825 -0.3319
   10CHTO   H85 4062   4.340   8.810   4.243 -0.5149 -1.7402  4.1512
   10CHTO   O29 4063   4.489   8.703   4.134 -0.1925 -0.0391 -0.3343
   10CHTO   C50 4064   4.631   8.665   4.134 -0.7350 -0.4550  1.1503
   10CHTO   H92 4065   4.639   8.572   4.077 -0.0035  0.6764 -0.6574
   10CHTO   C54 4066   4.727   8.759   4.050  0.0671 -0.1783  0.0927
   10CHTO   O36 4067   4.707   8.755   3.904 -0.0685  0.6018  0.1126
   10CHTO   H72 4068   4.620   8.738   3.875  0.0045  0.4191 -0.0033
   10CHTO   O27 4069   4.500   8.935   4.203 -0.4973  0.0446 -0.4324
   10CHTO   C37 4070   4.519   9.062   4.140 -0.2549  0.2796 -0.2906
   10CHTO   H79 4071   4.620   9.064   4.097  0.3717 -0.7280  1.0852
   10CHTO   C38 4072   4.410   9.077   4.026  0.0317  0.3062 -0.0543
   10CHTO   H80 4073   4.316   9.037   4.067 -0.3516  2.0048  0.7876
   10CHTO   O31 4074   4.453   8.997   3.918 -0.5694  0.2790 -0.0606
   10CHTO   H68 4075   4.387   8.943   3.879 -1.3591 -0.1505  1.8296
   10CHTO   C39 4076   4.392   9.229   3.968  0.0319  0.0483 -0.0844
   10CHTO   H81 4077   4.478   9.258   3.908 -1.5889  0.0434 -2.4992
   10CHTO    N7 4078   4.276   9.237   3.874  0.2811 -0.9176  0.7680
   10CHTO   H73 4079   4.310   9.274   3.778  2.8855  0.7403  2.2859
   10CHTO   H74 4080   4.191   9.285   3.921 -0.0551  2.0819 -2.6270
   10CHTO   C40 4081   4.386   9.334   4.086  0.3797  0.0701  0.3945
   10CHTO   H82 4082   4.293   9.310   4.139  0.5276 -0.1192  0.5702
   10CHTO   O26 4083   4.500   9.317   4.173  0.5510  0.0540 -0.1624
   10CHTO   C41 4084   4.499   9.185   4.233  0.1337  0.7969  0.6259
   10CHTO   H83 4085   4.414   9.167   4.301 -0.7578 -0.2309 -0.7380
   10CHTO   C52 4086   4.620   9.187   4.339  0.4802 -0.7187 -0.2441
   10CHTO   O35 4087   4.606   9.271   4.455  0.0996  0.1719 -0.1156
   10CHTO   H71 4088   4.637   9.357   4.436  0.2884  0.5376  1.7891
   10CHTO   O28 4089   4.392   9.475   4.044  0.4911  0.1266  0.1841
   10CHTO   C42 4090   4.384   9.590   4.132  0.0220  0.0688 -0.0922
   10CHTO   H84 4091   4.380   9.551   4.234 -2.3133 -1.3902 -0.7145
   10CHTO   C44 4092   4.252   9.681   4.113  0.2473  0.5521  0.3530
   10CHTO   H86 4093   4.255   9.721   4.011  1.3435  1.8380  0.8631
   10CHTO   O32 4094   4.138   9.590   4.125  0.0932  0.5093  0.2249
   10CHTO   H69 4095   4.128   9.567   4.216 -1.0748 -0.1622 -0.0632
   10CHTO   C48 4096   4.238   9.798   4.215 -0.1351  0.0622 -0.3764
   10CHTO   H90 4097   4.221   9.758   4.315  1.1008 -0.6491 -0.4445
   10CHTO    N9 4098   4.119   9.882   4.181  0.6679  0.1822  0.0130
   10CHTO   H77 4099   4.033   9.820   4.157 -0.3288  1.5609 -0.0536
   10CHTO   H78 4100   4.153   9.934   4.092  3.5859  0.1433  1.0589
   10CHTO   C51 4101   4.376   9.880   4.215 -0.0026 -0.0766 -0.1795
   10CHTO   H93 4102   4.390   9.929   4.119 -0.8612  3.0307  1.2195
   10CHTO   O30 4103   4.477   9.782   4.242  0.2724  0.2967 -0.2983
   10CHTO   C46 4104   4.501   9.686   4.133  0.7349 -0.5798  0.4369
   10CHTO   H88 4105   4.496   9.748   4.043 -2.2325 -1.7827 -0.2579
   10CHTO   C53 4106   4.640   9.622   4.147 -0.0262  0.5002 -0.1516
   10CHTO   O72 4107   4.746   9.725   4.149 -0.1311  0.2032 -0.8521
   10CHTO  H199 4108   4.770   9.742   4.238  0.6952  2.2304 -1.4403
   10CHTO   O22 4109   4.373   9.970   4.320  0.9491 -0.3493  0.0798
   10CHTO   C31 4110   4.444  10.095   4.328  0.6646  0.3410  0.0720
   10CHTO   H59 4111   4.460  10.114   4.436  1.9496 -0.0874 -0.0302
   10CHTO   C29 4112   4.584  10.097   4.260  0.1942  0.6940 -0.5310
   10CHTO   H57 4113   4.564  10.066   4.157 -0.3275  0.4496 -0.3590
   10CHTO   O21 4114   4.667  10.003   4.326 -0.5077  0.4944 -0.5480
   10CHTO   H37 4115   4.668  10.018   4.418 -0.4143  1.3580 -0.6852
   10CHTO   C27 4116   4.644  10.238   4.243 -0.1346 -0.1791 -0.5539
   10CHTO   H55 4117   4.660  10.285   4.341 -0.5144 -0.1806 -0.4924
   10CHTO    N5 4118   4.776  10.235   4.171 -0.4103  0.6377 -0.0172
   10CHTO   H43 4119   4.773  10.290   4.078  1.5419  0.4182 -0.2454
   10CHTO   H44 4120   4.863  10.268   4.226 -2.3166 -1.7130  4.7371
   10CHTO   C25 4121   4.535  10.331   4.174  0.1240  0.2311 -0.2954
   10CHTO   H53 4122   4.510  10.281   4.079 -1.3068  0.5391 -0.0808
   10CHTO   O17 4123   4.419  10.338   4.261  0.1336  0.7072  0.2579
   10CHTO   C32 4124   4.358  10.209   4.276  0.5949 -0.2432  0.2606
   10CHTO   H60 4125   4.323  10.180   4.177 -1.1386  0.6356  0.5961
   10CHTO   C36 4126   4.234  10.223   4.371  0.5386  0.6526  0.3020
   10CHTO   O25 4127   4.252  10.327   4.465  0.0041  0.2010 -0.5137
   10CHTO   H40 4128   4.322  10.302   4.522  0.9680  3.6190 -0.1118
   10CHTO   O15 4129   4.601  10.489   4.137  0.8550  0.7714  0.0157
   10CHTO   C19 4130   4.586  10.590   4.023  0.2100  0.5286 -0.5186
   10CHTO   H47 4131   4.483  10.560   3.999  1.1222 -1.9689 -1.4822
   10CHTO   C20 4132   4.597  10.742   4.072 -0.3123  0.2070  0.1156
   10CHTO   H48 4133   4.696  10.759   4.117 -0.2112 -1.9310  0.7145
   10CHTO   O19 4134   4.486  10.752   4.171  0.2178 -0.2447  0.3463
   10CHTO   H35 4135   4.480  10.844   4.188  1.7167  0.0483 -0.6147
   10CHTO   C21 4136   4.574  10.836   3.946  0.2961 -0.0755 -0.1475
   10CHTO   H49 4137   4.469  10.827   3.917  0.2158  2.2652 -0.7072
   10CHTO    N4 4138   4.581  10.979   3.980  0.0196  0.5901  0.3497
   10CHTO   H41 4139   4.499  11.042   3.949 -0.9936  0.9875  3.7096
   10CHTO   H42 4140   4.678  11.024   3.965  0.7730 -1.2047 -0.2990
   10CHTO   C22 4141   4.673  10.794   3.836  0.5528  0.3233 -0.7157
   10CHTO   H50 4142   4.771  10.804   3.884 -0.5608  0.7058  1.5668
   10CHTO   O14 4143   4.656  10.657   3.803  0.1508 -0.0357 -0.2282
   10CHTO   C23 4144   4.674  10.556   3.902 -0.2999 -0.1830 -0.0404
   10CHTO   H51 4145   4.780  10.546   3.930 -0.3714 -0.8458  0.0186
   10CHTO   C34 4146   4.643  10.420   3.840 -0.0291  0.1552 -0.0930
   10CHTO   O23 4147   4.715  10.397   3.720 -0.3096 -0.1325 -0.4011
   10CHTO   H38 4148   4.800  10.362   3.739  0.1075  1.4393  0.7115
   10CHTO   O16 4149   4.679  10.867   3.717  0.8084 -0.3794 -0.4982
   10CHTO   C24 4150   4.844  10.913   3.675  0.5319 -0.5573 -0.1078
   10CHTO   H52 4151   4.913  10.896   3.758  0.5554 -0.6141 -0.1402
   10CHTO   C26 4152   4.834  11.060   3.637  0.5755  0.0183 -0.4193
   10CHTO   H54 4153   4.760  11.071   3.555 -0.6751  0.6328  0.7784
   10CHTO   O20 4154   4.807  11.135   3.759  0.5014 -0.3067  0.4500
   10CHTO   H36 4155   4.726  11.109   3.799 -0.4151 -1.5597 -2.0710
   10CHTO   C30 4156   4.970  11.105   3.576  0.1395 -0.2315 -0.1079
   10CHTO   H58 4157   5.039  11.107   3.661  1.8558 -1.2150 -1.4669
   10CHTO    N6 4158   4.964  11.248   3.544 -0.2829 -0.2576 -0.1050
   10CHTO   H45 4159   5.040  11.298   3.601 -0.7126 -1.3378  1.4473
   10CHTO   H46 4160   4.982  11.260   3.438 -0.2135  1.0864  0.0595
   10CHTO   C33 4161   5.035  11.009   3.469  0.6941 -0.3562  0.0118
   10CHTO   H61 4162   4.984  11.014   3.372  0.7998  1.0434  0.0131
   10CHTO   O18 4163   5.018  10.875   3.510  0.0219  0.2305 -0.5159
   10CHTO   C28 4164   4.891  10.825   3.555 -0.7387  0.2495  0.1358
   10CHTO   H56 4165   4.820  10.842   3.475 -0.3343  1.4008  0.0151
   10CHTO   C35 4166   4.892  10.676   3.581 -1.3442  0.6524 -0.4915
   10CHTO   O24 4167   4.999  10.650   3.667 -0.1452  0.3446 -0.7166
   10CHTO   H39 4168   5.080  10.682   3.633  0.4024  0.3589  0.5810
   10CHTO    O9 4169   5.175  11.037   3.449 -0.1708  0.2857 -0.2812
   10CHTO   C13 4170   5.233  11.023   3.309 -0.4986 -0.0894 -0.0307
   10CHTO   H26 4171   5.172  11.096   3.252 -1.5399 -1.7054 -1.0020
   10CHTO   C11 4172   5.222  10.882   3.256 -0.1680  0.8765  0.4301
   10CHTO   H24 4173   5.122  10.878   3.212  0.7730 -0.4848 -1.6226
   10CHTO    O8 4174   5.237  10.780   3.355 -0.6088  0.1286  0.8871
   10CHTO    H3 4175   5.326  10.764   3.380 -1.3940 -1.3325  2.8470
   10CHTO    C9 4176   5.326  10.871   3.135  0.0162 -0.6786 -0.2187
   10CHTO   H22 4177   5.303  10.954   3.068  0.2305 -0.1848  0.3136
   10CHTO    N2 4178   5.307  10.748   3.057 -0.0521 -0.4006  0.4201
   10CHTO   H10 4179   5.365  10.761   2.967  2.1743  0.3341  1.9224
   10CHTO   H11 4180   5.203  10.743   3.028  1.1461 -2.4144 -3.9454
   10CHTO    C7 4181   5.477  10.886   3.180  0.3365  0.1209 -0.4691
   10CHTO   H20 4182   5.523  10.940   3.094  2.0033 -0.7257 -0.1168
   10CHTO    O4 4183   5.480  10.967   3.294 -0.1329 -0.5451 -0.1220
   10CHTO   C14 4184   5.388  11.070   3.316  0.1374 -0.6797  0.2482
   10CHTO   H27 4185   5.402  11.145   3.236 -1.4582 -0.9071 -0.2619
   10CHTO   C18 4186   5.441  11.131   3.443  0.5780 -0.4455 -0.7923
   10CHTO   O13 4187   5.395  11.270   3.449  0.0329 -0.2046 -0.0870
   10CHTO    H7 4188   5.328  11.277   3.514  0.3915 -2.8545  0.6484
   10CHTO    O2 4189   5.551  10.730   3.211 -0.2828  0.0418 -0.1771
   10CHTO    C1 4190   5.696  10.730   3.199  0.2601 -0.2059 -0.0530
   10CHTO   H14 4191   5.744  10.783   3.284 -1.6286  1.0947  0.2336
   10CHTO    C2 4192   5.758  10.765   3.059 -0.5727  0.4666 -0.0696
   10CHTO   H15 4193   5.693  10.712   2.988 -1.5637  0.6447  0.6973
   10CHTO    O6 4194   5.734  10.903   3.030  0.4591  0.0757 -0.0998
   10CHTO    H1 4195   5.759  10.955   3.104 -2.4863  1.7016 -0.1590
   10CHTO    C3 4196   5.914  10.724   3.052 -0.1594  0.1346 -0.7372
   10CHTO   H16 4197   5.961  10.797   3.120  0.6485 -1.9099  0.9640
   10CHTO    N1 4198   5.966  10.738   2.915 -0.0935  0.4873  0.3346
   10CHTO    H8 4199   6.005  10.649   2.869 -2.2707 -0.7932  0.8923
   10CHTO    H9 4200   6.028  10.826   2.913 -0.0649  0.4347 -3.2312
   10CHTO    C4 4201   5.944  10.585   3.117 -0.2246 -0.4068  0.1243
   10CHTO   H17 4202   5.919  10.500   3.053 -0.3356 -0.2178 -0.0838
   10CHTO    O1 4203   5.871  10.570   3.239 -0.0991 -0.3176 -0.2828
   10CHTO    C5 4204   5.727  10.579   3.237  0.2073 -0.0881 -0.7345
   10CHTO   H18 4205   5.686  10.508   3.165  0.6267 -1.7142  0.5911
   10CHTO   C16 4206   5.675  10.524   3.380  0.9827 -0.3234  0.5007
   10CHTO   O11 4207   5.689  10.385   3.373  0.5524 -0.2627 -0.5714
   10CHTO    H5 4208   5.603  10.348   3.368  1.0684 -1.4697 -0.6318
   10CHTO    O3 4209   6.089  10.568   3.146 -0.4275  0.5111  0.1948
   10CHTO    C6 4210   6.151  10.433   3.118 -0.5305 -0.6428 -0.0102
   10CHTO   H19 4211   6.073  10.364   3.085 -0.7508 -0.2291 -0.3647
   10CHTO    C8 4212   6.261  10.449   3.004  0.1042  0.1433 -0.3578
   10CHTO   H21 4213   6.331  10.528   3.029  0.4075  0.1848 -1.3006
   10CHTO    O7 4214   6.192  10.489   2.882  0.4060 -0.6709  0.3523
   10CHTO    H2 4215   6.198  10.582   2.884 -0.5261 -0.6064  0.0553
   10CHTO   C12 4216   6.343  10.315   2.988  0.0866  0.3650  0.6875
   10CHTO   H25 4217   6.271  10.250   2.935 -0.2313  0.3937  1.0831
   10CHTO    N3 4218   6.464  10.340   2.896 -0.2862 -0.8595  0.6903
   10CHTO   H12 4219   6.523  10.418   2.940 -0.4799 -0.8759  0.9819
   10CHTO   H13 4220   6.519  10.248   2.883 -0.6799 -1.3119  2.1066
   10CHTO   C15 4221   6.382  10.253   3.131 -0.0127 -0.3440  0.3180
   10CHTO   H28 4222   6.463  10.308   3.178  0.3063  0.0293 -0.6798
   10CHTO   O10 4223   6.419  10.094   3.121 -0.1445  0.0934  0.2895
   10CHTO    H4 4224   6.478  10.080   3.050  0.1658 -1.8215  0.9087
   10CHTO    O5 4225   6.273  10.244   3.213 -0.1237 -0.6526  0.0238
   10CHTO   C10 4226   6.219  10.373   3.240  0.8941 -0.4182 -1.1153
   10CHTO   H23 4227   6.298  10.444   3.265  0.2749  0.2735 -1.1012
   10CHTO   C17 4228   6.119  10.366   3.358  0.6865  0.3905  0.1819
   10CHTO   O12 4229   6.185  10.364   3.482  0.6692 -0.3914  0.0472
   10CHTO    H6 4230   6.177  10.447   3.525  0.1553 -0.1914 -0.4210
   11CHTO  H203 4231   7.370   4.924   2.385 -0.6288 -0.4707 -1.3138
   11CHTO   O82 4232   7.309   4.994   2.373 -0.1009  0.2071 -0.1296
   11CHTO  C123 4233   7.374   5.113   2.412 -0.0183 -0.1837 -0.2296
   11CHTO  H227 4234   7.480   5.105   2.383  0.2091 -1.3036  0.8653
   11CHTO   O77 4235   7.305   5.218   2.340 -0.9949 -0.0025  0.1703
   11CHTO  C118 4236   7.331   5.357   2.367  0.1868  0.2435  1.1295
   11CHTO  H222 4237   7.434   5.388   2.349 -0.0295  0.5935  0.4964
   11CHTO  C125 4238   7.237   5.440   2.275 -0.3090  0.0756  0.1639
   11CHTO   O84 4239   7.269   5.431   2.143 -0.4247 -0.4000  0.0576
   11CHTO  H205 4240   7.206   5.377   2.100  2.3061 -2.4144 -1.5829
   11CHTO  C114 4241   7.300   5.392   2.511  0.3857  0.0130 -0.4758
   11CHTO  H218 4242   7.200   5.361   2.540  1.4829 -2.1971  1.1332
   11CHTO  C116 4243   7.387   5.301   2.604  0.1999 -0.4929 -0.4005
   11CHTO  H220 4244   7.493   5.329   2.590  0.6159 -1.1679  1.3224
   11CHTO   O79 4245   7.368   5.323   2.745 -0.0898  0.0514 -0.2112
   11CHTO  H201 4246   7.421   5.262   2.792 -1.1222 -1.5278 -1.0374
   11CHTO  C120 4247   7.359   5.146   2.568 -0.4252  0.9357  0.1409
   11CHTO  H224 4248   7.258   5.115   2.601 -0.5448  0.0077 -1.0516
   11CHTO   N21 4249   7.458   5.051   2.635  0.1017  0.3628 -0.2085
   11CHTO  H211 4250   7.431   4.950   2.608  0.1688  0.7424 -1.7274
   11CHTO  H212 4251   7.458   5.067   2.742 -0.5229 -1.5749  0.0976
   11CHTO   O75 4252   7.319   5.536   2.528  0.2067  0.3329 -0.2320
   11CHTO  C112 4253   7.225   5.615   2.635  0.1234 -0.1611 -0.1212
   11CHTO  H216 4254   7.226   5.567   2.733  1.0282 -0.0533 -0.0701
   11CHTO   O73 4255   7.093   5.625   2.580  0.0493  0.2500 -0.6465
   11CHTO  C113 4256   6.999   5.696   2.663 -0.6254  0.0025 -0.1447
   11CHTO  H217 4257   6.983   5.655   2.765  1.2511 -3.0675 -0.9856
   11CHTO  C124 4258   6.865   5.689   2.583  0.2513  0.1897 -0.3619
   11CHTO   O83 4259   6.878   5.767   2.464 -0.4129 -0.6954 -0.0763
   11CHTO  H204 4260   6.816   5.740   2.398  0.1833 -1.5319 -0.3024
   11CHTO  C109 4261   7.055   5.838   2.667 -0.5472  0.1738 -0.2144
   11CHTO  H213 4262   7.070   5.873   2.564  1.6663 -1.4875 -0.4808
   11CHTO  C110 4263   7.190   5.847   2.742 -0.5158  0.1560  0.5135
   11CHTO  H214 4264   7.194   5.817   2.847  0.3008 -2.6074 -0.2717
   11CHTO   O78 4265   7.228   5.987   2.740 -0.3170  0.2837 -0.1863
   11CHTO  H200 4266   7.245   6.015   2.652  1.1339 -4.6620 -1.6826
   11CHTO  C111 4267   7.281   5.763   2.653  0.0482  0.7149  0.4596
   11CHTO  H215 4268   7.285   5.810   2.553  0.3472 -0.9544 -0.3309
   11CHTO   N19 4269   7.423   5.750   2.697 -0.5682 -0.1859 -0.0475
   11CHTO  H207 4270   7.467   5.844   2.727 -0.2385  0.9123 -3.7292
   11CHTO  H208 4271   7.487   5.716   2.617 -1.0181 -1.7830  0.2615
   11CHTO   O74 4272   6.960   5.926   2.731  0.3798 -0.5941 -0.0899
   11CHTO  C115 4273   6.934   6.055   2.638  0.2823 -0.2569  0.7995
   11CHTO  H219 4274   7.015   6.071   2.567  0.0580  0.0407  0.6085
   11CHTO   O76 4275   6.806   6.047   2.553 -0.3893 -0.7571  0.3504
   11CHTO  C122 4276   6.686   6.035   2.631 -0.2939  0.1063  0.0493
   11CHTO  H226 4277   6.681   5.935   2.674  0.7362 -0.6973 -1.6476
   11CHTO  C126 4278   6.564   6.040   2.534  0.5670  0.1358 -0.8137
   11CHTO   O85 4279   6.447   6.006   2.608  0.2927  0.3484  0.3554
   11CHTO  H206 4280   6.425   5.919   2.582 -2.8350  1.0781  0.2941
   11CHTO  C121 4281   6.678   6.144   2.746 -0.7776 -0.2504  0.4181
   11CHTO  H225 4282   6.581   6.196   2.730 -1.1976 -0.8666  0.9638
   11CHTO   O81 4283   6.684   6.075   2.871 -0.3353 -0.4569 -0.3761
   11CHTO  H202 4284   6.599   6.050   2.903 -1.3572  0.6645 -2.1449
   11CHTO  C119 4285   6.789   6.251   2.737 -0.0315  0.0915 -0.6180
   11CHTO  H223 4286   6.775   6.287   2.635  0.6282 -1.0928 -1.1375
   11CHTO  C117 4287   6.933   6.178   2.734  0.0378 -0.1003 -0.5743
   11CHTO  H221 4288   6.968   6.134   2.828 -1.0677  1.0466  0.4095
   11CHTO   N20 4289   7.036   6.282   2.701 -0.5362  0.0969  0.7016
   11CHTO  H209 4290   7.023   6.313   2.599 -2.7745 -0.9819  0.6372
   11CHTO  H210 4291   7.021   6.364   2.771  0.5368 -0.2469  1.3377
   11CHTO   O80 4292   6.758   6.400   2.839 -0.2984  0.4070 -0.4432
   11CHTO  C103 4293   6.762   6.390   2.984 -0.2722  0.3424  0.2674
   11CHTO  H190 4294   6.758   6.284   3.012  0.2120 -0.2132 -1.6525
   11CHTO  C101 4295   6.892   6.462   3.051  0.3560  0.2271 -1.3290
   11CHTO  H188 4296   6.904   6.558   3.001  0.5376  0.4899 -0.7812
   11CHTO   O68 4297   7.030   6.367   3.025  0.2216  0.4540  0.4670
   11CHTO  H168 4298   7.010   6.283   2.989 -0.1202  1.4992 -1.9026
   11CHTO   C99 4299   6.862   6.501   3.201 -0.2551  0.3791  0.5072
   11CHTO  H186 4300   6.853   6.414   3.269 -2.5849  1.5936  1.8413
   11CHTO   N17 4301   6.962   6.593   3.269  0.4598 -0.0535 -0.2898
   11CHTO  H174 4302   6.997   6.665   3.197  3.7175  0.4988  1.7593
   11CHTO  H175 4303   7.045   6.536   3.308 -0.5333 -3.1752 -2.5143
   11CHTO   C97 4304   6.727   6.580   3.207  0.4447 -0.4477  0.1061
   11CHTO  H184 4305   6.734   6.669   3.143 -1.4326 -0.9863 -0.8856
   11CHTO   O64 4306   6.622   6.489   3.164  0.0500  0.3453  0.1280
   11CHTO  C104 4307   6.626   6.462   3.024 -0.0086 -0.0229  0.0623
   11CHTO  H191 4308   6.622   6.559   2.975  1.5319  0.7016  1.3360
   11CHTO  C108 4309   6.496   6.386   2.975 -1.1773 -0.3606  0.2620
   11CHTO   O71 4310   6.480   6.256   3.034  0.1271 -0.2249  0.6692
   11CHTO  H171 4311   6.551   6.196   3.025 -0.2995 -0.7673  0.8098
   11CHTO   O62 4312   6.679   6.615   3.339  0.2460  0.4014 -0.3394
   11CHTO   C91 4313   6.565   6.705   3.345 -0.2578 -0.5800 -0.3043
   11CHTO  H178 4314   6.483   6.685   3.276  0.0202 -0.8423 -0.5622
   11CHTO   C92 4315   6.595   6.858   3.306  0.0787 -0.1113  0.6434
   11CHTO  H179 4316   6.703   6.878   3.320 -0.5110  3.6642  0.3804
   11CHTO   O66 4317   6.575   6.879   3.162 -0.2475 -0.1352 -0.7557
   11CHTO  H166 4318   6.604   6.806   3.111  0.3331  0.3943 -1.1925
   11CHTO   C93 4319   6.511   6.969   3.382  0.2406 -0.2399 -0.5338
   11CHTO  H180 4320   6.404   6.959   3.355 -0.4043  1.1342  1.4216
   11CHTO   N16 4321   6.543   7.106   3.347  0.0768  0.6476  0.4499
   11CHTO  H172 4322   6.466   7.140   3.279  0.9083 -0.7219 -1.2053
   11CHTO  H173 4323   6.542   7.170   3.435 -1.6077  3.0833 -1.2574
   11CHTO   C94 4324   6.522   6.933   3.529 -0.4424  0.7985  0.5522
   11CHTO  H181 4325   6.625   6.921   3.562 -0.6264  0.5707  1.0469
   11CHTO   O61 4326   6.463   6.803   3.547 -0.2740 -0.0445 -0.2013
   11CHTO   C95 4327   6.503   6.682   3.486 -0.9741 -0.5548 -0.0202
   11CHTO  H182 4328   6.573   6.628   3.550 -0.2919 -0.9694 -1.1097
   11CHTO  C106 4329   6.377   6.586   3.486 -0.5671  0.1354 -0.1619
   11CHTO   O69 4330   6.400   6.467   3.402  0.9308 -0.1680 -0.0398
   11CHTO  H169 4331   6.471   6.416   3.435  0.9504  1.4712  2.6214
   11CHTO   O63 4332   6.449   7.026   3.618  0.3390  0.0134 -0.3516
   11CHTO   C96 4333   6.510   7.042   3.758  0.1623 -0.8377 -0.5788
   11CHTO  H183 4334   6.612   7.004   3.761  0.1196 -0.8339  1.1147
   11CHTO   C98 4335   6.425   6.966   3.862  0.0557  0.3716 -0.1465
   11CHTO  H185 4336   6.325   7.012   3.858  0.2969  1.0643  1.4036
   11CHTO   O67 4337   6.405   6.829   3.819 -0.4563 -0.5082 -0.5958
   11CHTO  H167 4338   6.385   6.778   3.895 -1.1277  0.8575  0.1692
   11CHTO  C102 4339   6.494   6.980   4.003  0.2970  0.6093  0.1975
   11CHTO  H189 4340   6.579   6.911   4.003  0.0726  0.2995 -1.6941
   11CHTO   N18 4341   6.408   6.935   4.118 -0.0556  0.1825  0.0884
   11CHTO  H176 4342   6.328   7.007   4.132  0.1835  0.7092 -1.2015
   11CHTO  H177 4343   6.459   6.909   4.210 -2.3912  0.5220  1.5196
   11CHTO  C105 4344   6.544   7.126   4.032  0.3976 -0.0848  0.4617
   11CHTO  H192 4345   6.470   7.187   4.084 -0.8491 -0.0582 -1.3010
   11CHTO   O65 4346   6.591   7.212   3.930 -0.4947  0.4580  0.2867
   11CHTO  C100 4347   6.518   7.196   3.804  0.4306  0.6333 -0.8565
   11CHTO  H187 4348   6.417   7.237   3.817  1.4864  2.8366  0.7991
   11CHTO  C107 4349   6.576   7.287   3.697 -0.0666 -0.6202  0.4934
   11CHTO   O70 4350   6.593   7.419   3.759  0.1979 -0.4245 -0.0211
   11CHTO  H170 4351   6.664   7.417   3.819  0.5189 -0.6958 -0.4073
   11CHTO   O57 4352   6.683   7.088   4.120 -0.0525  0.4042  0.5867
   11CHTO   C85 4353   6.726   7.170   4.229 -0.1843  0.9447 -0.1552
   11CHTO  H157 4354   6.641   7.171   4.300  0.3527 -1.8636  0.5669
   11CHTO   C83 4355   6.744   7.317   4.198  0.4878 -0.0298 -0.3045
   11CHTO  H155 4356   6.651   7.356   4.155  1.4312 -0.0491 -2.4470
   11CHTO   O56 4357   6.838   7.327   4.089 -0.7508 -0.2787  0.0394
   11CHTO  H135 4358   6.835   7.414   4.055 -1.3532 -0.6221 -0.7840
   11CHTO   C81 4359   6.781   7.396   4.327 -0.2782 -0.2053 -0.3049
   11CHTO  H153 4360   6.705   7.374   4.401  0.7607  0.1875  0.8858
   11CHTO   N14 4361   6.778   7.542   4.306  0.1783  0.0310  0.7623
   11CHTO  H141 4362   6.828   7.591   4.387  0.1786  2.7329 -0.8083
   11CHTO  H142 4363   6.831   7.568   4.217 -0.4359 -3.3340 -0.6869
   11CHTO   C79 4364   6.926   7.345   4.378 -0.2451  0.0654 -0.5356
   11CHTO  H151 4365   6.939   7.390   4.476  1.8325  0.9797 -1.2129
   11CHTO   O52 4366   6.916   7.199   4.399 -0.2121  0.6192 -0.2892
   11CHTO   C86 4367   6.857   7.109   4.302  0.5323 -0.0612 -0.5864
   11CHTO  H158 4368   6.940   7.097   4.230  1.4101 -1.7620  0.6891
   11CHTO   C90 4369   6.837   6.970   4.369  0.5103 -0.3610  0.9897
   11CHTO   O60 4370   6.962   6.912   4.400  0.0130 -0.4626  0.0565
   11CHTO  H138 4371   7.006   6.986   4.437 -1.7185  0.7027 -0.1337
   11CHTO   O50 4372   7.026   7.363   4.277  0.4255  0.1731  0.3993
   11CHTO   C73 4373   7.170   7.354   4.276  0.2914  0.5984  0.1638
   11CHTO  H145 4374   7.203   7.266   4.334  0.1716 -0.2981 -1.1121
   11CHTO   C74 4375   7.234   7.469   4.353 -0.2657  0.7955 -0.2035
   11CHTO  H146 4376   7.183   7.467   4.450 -0.1666 -0.0232 -0.1626
   11CHTO   O54 4377   7.370   7.446   4.393 -0.1737 -0.4916 -0.3348
   11CHTO  H133 4378   7.400   7.521   4.441 -0.2250 -1.8292  1.8398
   11CHTO   C75 4379   7.200   7.599   4.276 -0.8234  0.6006 -0.0447
   11CHTO  H147 4380   7.090   7.604   4.269 -0.8697 -0.9338 -0.7784
   11CHTO   N13 4381   7.245   7.719   4.351  0.7267 -0.4259 -0.2192
   11CHTO  H139 4382   7.207   7.710   4.452  0.5049  0.3269 -0.2299
   11CHTO  H140 4383   7.205   7.807   4.302  1.2995 -1.9018 -3.4654
   11CHTO   C76 4384   7.254   7.591   4.133  0.0659 -0.5439  0.2905
   11CHTO  H148 4385   7.363   7.591   4.145  0.0331 -0.0509  0.6207
   11CHTO   O49 4386   7.202   7.469   4.067 -0.5129  0.2024  0.0306
   11CHTO   C77 4387   7.232   7.346   4.135 -0.0596 -0.6517  0.1795
   11CHTO  H149 4388   7.341   7.336   4.137 -0.2028 -2.2648  0.2248
   11CHTO   C88 4389   7.179   7.238   4.045  0.2183  0.3327  0.1572
   11CHTO   O58 4390   7.242   7.247   3.919 -0.4284  0.2577 -0.2777
   11CHTO  H136 4391   7.179   7.230   3.851 -0.1565 -0.2484 -0.4031
   11CHTO   O51 4392   7.200   7.709   4.040 -0.1517 -0.3788  0.6238
   11CHTO   C78 4393   7.311   7.782   3.929  0.5868 -0.2124  0.0267
   11CHTO  H150 4394   7.408   7.731   3.941 -0.1463 -2.5139 -3.0544
   11CHTO   C80 4395   7.323   7.930   3.959  0.2464  0.1784 -0.0655
   11CHTO  H152 4396   7.226   7.979   3.938  0.0048  0.3258  1.3026
   11CHTO   O55 4397   7.363   7.942   4.099  0.1508  0.2531 -0.0433
   11CHTO  H134 4398   7.301   7.992   4.148 -0.6932 -0.7297 -0.1068
   11CHTO   C84 4399   7.432   7.991   3.854 -0.8226 -0.5647  0.3302
   11CHTO  H156 4400   7.526   7.939   3.877 -0.2588  0.2141 -0.2149
   11CHTO   N15 4401   7.453   8.131   3.873  0.3262 -0.8552 -0.1270
   11CHTO  H143 4402   7.523   8.165   3.800  0.5501  0.4850  0.6844
   11CHTO  H144 4403   7.493   8.152   3.970  0.2524 -0.4010 -0.1921
   11CHTO   C87 4404   7.391   7.962   3.708 -0.6685  0.0247  0.6248
   11CHTO  H159 4405   7.305   8.016   3.670 -0.0768  0.5892  0.0796
   11CHTO   O53 4406   7.362   7.807   3.698 -0.3786  0.4684  0.0937
   11CHTO   C82 4407   7.262   7.753   3.785 -0.8407 -0.2162 -1.3109
   11CHTO  H154 4408   7.163   7.794   3.770 -1.7693 -2.0482 -0.2955
   11CHTO   C89 4409   7.257   7.603   3.752  0.0841  0.8074 -0.3034
   11CHTO   O59 4410   7.356   7.530   3.820 -0.1857  0.0875 -0.2389
   11CHTO  H137 4411   7.333   7.441   3.838 -0.9723  0.6361  1.6085
   11CHTO   O45 4412   7.506   7.981   3.603 -0.2418 -1.2105 -0.2573
   11CHTO   C67 4413   7.482   7.963   3.458 -0.3380  0.7797 -0.1112
   11CHTO  H124 4414   7.416   7.879   3.439 -1.5599  1.1020  2.5012
   11CHTO   C65 4415   7.426   8.085   3.391  1.1073 -0.0790  0.3263
   11CHTO  H122 4416   7.463   8.169   3.451  0.7278  0.0563  0.3699
   11CHTO   O44 4417   7.279   8.082   3.409  0.6096 -0.2081 -0.3674
   11CHTO  H102 4418   7.262   8.137   3.483  0.2215 -0.6401 -0.1363
   11CHTO   C63 4419   7.472   8.116   3.245  0.6739 -0.0774  0.8072
   11CHTO  H120 4420   7.570   8.163   3.253  1.7323 -2.3621  1.8910
   11CHTO   N11 4421   7.403   8.224   3.174 -0.2883 -0.1100 -0.0880
   11CHTO  H108 4422   7.468   8.240   3.089  0.6075 -0.3195  0.5470
   11CHTO  H109 4423   7.399   8.309   3.238  0.1620 -0.7805  0.8394
   11CHTO   C61 4424   7.496   7.979   3.176  0.3370  0.2895  0.0128
   11CHTO  H118 4425   7.541   8.001   3.077  0.5191 -1.7697 -0.3888
   11CHTO   O40 4426   7.593   7.895   3.237 -0.1082 -0.4892  0.2562
   11CHTO   C68 4427   7.617   7.927   3.380 -0.4209 -0.1846 -0.2864
   11CHTO  H125 4428   7.684   8.014   3.394 -0.5631 -0.3354  1.4818
   11CHTO   C72 4429   7.688   7.801   3.449 -0.3515 -0.6625  0.4105
   11CHTO   O48 4430   7.745   7.835   3.576 -0.6698  0.0107  0.1595
   11CHTO  H105 4431   7.829   7.795   3.583 -0.7580 -0.4446 -1.2354
   11CHTO   O38 4432   7.373   7.908   3.157  0.2773 -0.3067  0.0943
   11CHTO   C55 4433   7.365   7.813   3.050  0.5477 -0.1263  0.1607
   11CHTO  H112 4434   7.465   7.780   3.020  0.7934  1.2146 -0.5801
   11CHTO   C56 4435   7.287   7.885   2.920 -0.1617  0.0505  0.1910
   11CHTO  H113 4436   7.184   7.894   2.958  0.3601 -1.5259  2.0467
   11CHTO   O42 4437   7.355   8.006   2.885 -0.1414 -0.0096  0.0042
   11CHTO  H100 4438   7.377   8.006   2.794 -2.7104  1.3986 -0.6756
   11CHTO   C57 4439   7.294   7.768   2.809  0.2165 -0.2437 -0.1031
   11CHTO  H114 4440   7.402   7.755   2.798  0.1812 -0.4554 -0.1992
   11CHTO   N10 4441   7.238   7.808   2.675 -0.4860  0.6812 -0.1823
   11CHTO  H106 4442   7.218   7.719   2.617 -2.1744 -0.4714  2.1230
   11CHTO  H107 4443   7.323   7.862   2.633  0.8907 -1.0619  0.3204
   11CHTO   C58 4444   7.243   7.632   2.866 -0.2482  0.3431 -0.4166
   11CHTO  H115 4445   7.132   7.633   2.869 -0.2201 -0.6651  2.3615
   11CHTO   O37 4446   7.298   7.601   2.991  0.1521 -0.1212  0.2860
   11CHTO   C59 4447   7.277   7.695   3.098  0.1941 -0.0367  0.0249
   11CHTO  H116 4448   7.170   7.713   3.108  0.1255  0.7887 -1.8805
   11CHTO   C70 4449   7.338   7.635   3.220  0.0629 -0.5136  0.3048
   11CHTO   O46 4450   7.274   7.525   3.282 -0.9026 -0.1384  0.1794
   11CHTO  H103 4451   7.251   7.546   3.370 -1.4344  0.8997 -0.1998
   11CHTO   O39 4452   7.299   7.512   2.771  0.9063 -0.2948  0.3252
   11CHTO   C60 4453   7.196   7.410   2.753  0.2663  0.7329 -0.4601
   11CHTO  H117 4454   7.144   7.403   2.848 -1.1184 -2.0259 -1.3799
   11CHTO   C62 4455   7.117   7.423   2.615 -0.5708 -0.3970  0.7124
   11CHTO  H119 4456   7.056   7.515   2.628  0.1190  0.0279  0.9889
   11CHTO   O43 4457   7.211   7.439   2.509  0.1079  0.0765  0.7835
   11CHTO  H101 4458   7.209   7.529   2.483 -1.5129  0.3642  1.8373
   11CHTO   C66 4459   7.012   7.304   2.586  0.7516 -0.0739  0.2794
   11CHTO  H123 4460   6.942   7.302   2.670  0.8570  2.6419  0.4868
   11CHTO   N12 4461   6.938   7.324   2.458  0.5426  0.4865  0.3004
   11CHTO  H110 4462   6.869   7.407   2.450 -1.7980 -1.4893 -0.3722
   11CHTO  H111 4463   7.016   7.337   2.385  2.0598  3.2916  2.3344
   11CHTO   C69 4464   7.090   7.169   2.578 -0.0108 -0.6613  0.5288
   11CHTO  H126 4465   7.163   7.173   2.494  2.0371  1.3601  2.3260
   11CHTO   O41 4466   7.161   7.149   2.708  0.0070 -0.1161 -0.6448
   11CHTO   C64 4467   7.263   7.268   2.740 -0.2052 -0.8806  0.7668
   11CHTO  H121 4468   7.345   7.288   2.668 -0.3410 -0.0039  0.8456
   11CHTO   C71 4469   7.344   7.222   2.871  0.5552  0.5185  0.3791
   11CHTO   O47 4470   7.405   7.095   2.840 -0.5298 -0.1367  0.5341
   11CHTO  H104 4471   7.448   7.059   2.915 -0.9280  0.1865  0.9191
   11CHTO   O34 4472   6.997   7.062   2.557 -0.5985 -0.3003  0.2641
   11CHTO   C49 4473   6.914   6.963   2.667  0.3901  0.2451 -0.2497
   11CHTO   H91 4474   6.988   6.937   2.743  0.8629  0.2154 -0.7232
   11CHTO   C47 4475   6.872   6.842   2.586 -0.6869 -0.6339 -0.0073
   11CHTO   H89 4476   6.842   6.770   2.665  0.9741 -0.8570  0.4419
   11CHTO   O33 4477   6.986   6.794   2.516  0.2708 -0.1926 -0.5468
   11CHTO   H70 4478   6.990   6.703   2.539  0.8761 -0.2582 -0.9126
   11CHTO   C45 4479   6.746   6.892   2.493 -0.2947  0.1578 -0.1272
   11CHTO   H87 4480   6.781   6.982   2.440  2.3475  1.1458  3.1421
   11CHTO    N8 4481   6.709   6.790   2.395 -0.2835 -0.3155  0.1651
   11CHTO   H75 4482   6.767   6.703   2.422  1.4974  0.6876 -0.3482
   11CHTO   H76 4483   6.605   6.771   2.374  0.1531 -2.4646 -0.0803
   11CHTO   C43 4484   6.627   6.938   2.593  0.8770  0.6561 -0.0506
   11CHTO   H85 4485   6.542   6.962   2.530 -0.2093  0.5674  1.3724
   11CHTO   O29 4486   6.664   7.043   2.684  0.1867 -0.1638  0.4955
   11CHTO   C50 4487   6.792   7.032   2.751 -0.3060  0.3022  0.4857
   11CHTO   H92 4488   6.823   7.137   2.763 -0.0259  0.4236 -1.1228
   11CHTO   C54 4489   6.788   6.983   2.901 -0.7512 -0.6648  0.4100
   11CHTO   O36 4490   6.742   6.845   2.919 -0.0304 -0.0592  0.2138
   11CHTO   H72 4491   6.649   6.838   2.931  0.3945 -0.8179  3.8808
   11CHTO   O27 4492   6.576   6.830   2.675 -0.2761  0.2917 -1.0768
   11CHTO   C37 4493   6.460   6.763   2.736 -0.2357 -0.2258  0.0733
   11CHTO   H79 4494   6.481   6.736   2.841 -2.2469  0.3697  0.6347
   11CHTO   C38 4495   6.339   6.857   2.749  0.2084  0.4574 -0.1563
   11CHTO   H80 4496   6.317   6.898   2.649 -1.5312  1.0876  0.4674
   11CHTO   O31 4497   6.374   6.970   2.830 -0.0229  0.4502  0.1778
   11CHTO   H68 4498   6.455   7.008   2.804 -0.1186  0.4657 -0.0961
   11CHTO   C39 4499   6.210   6.777   2.804  0.4705 -0.0545  0.0916
   11CHTO   H81 4500   6.235   6.746   2.905  0.0991 -0.5174  0.0414
   11CHTO    N7 4501   6.090   6.867   2.798  0.0313  0.0557  0.7783
   11CHTO   H73 4502   6.045   6.870   2.700  0.2089 -1.3873  0.6433
   11CHTO   H74 4503   6.135   6.965   2.808  0.0310  0.5354 -3.0845
   11CHTO   C40 4504   6.190   6.645   2.719 -0.2372  0.8747 -0.0139
   11CHTO   H82 4505   6.154   6.669   2.619  1.3599 -0.2228 -0.8724
   11CHTO   O26 4506   6.309   6.565   2.714  0.3845 -0.1622  0.5275
   11CHTO   C41 4507   6.421   6.634   2.655 -0.1583  0.1098  0.1700
   11CHTO   H83 4508   6.392   6.654   2.551  5.8754  1.7474 -1.3563
   11CHTO   C52 4509   6.541   6.543   2.645 -0.2357 -0.3074  0.0577
   11CHTO   O35 4510   6.507   6.397   2.586  0.1401 -0.2972 -0.4376
   11CHTO   H71 4511   6.581   6.342   2.601  1.4958  1.9250  1.3460
   11CHTO   O28 4512   6.096   6.558   2.784  0.6424 -0.2154 -0.4895
   11CHTO   C42 4513   6.012   6.468   2.709 -0.0687  0.5284 -0.7173
   11CHTO   H84 4514   6.032   6.491   2.605 -0.6122  0.0116 -0.9411
   11CHTO   C44 4515   5.861   6.489   2.724  0.0012  0.0649 -0.7275
   11CHTO   H86 4516   5.832   6.493   2.829 -2.7135 -1.2566 -1.3728
   11CHTO   O32 4517   5.820   6.614   2.665  0.4007 -0.0378 -0.1886
   11CHTO   H69 4518   5.890   6.666   2.629  1.2068 -0.8833  0.1457
   11CHTO   C48 4519   5.765   6.375   2.664 -0.0462  0.1954 -0.7010
   11CHTO   H90 4520   5.780   6.371   2.556  1.0041 -0.0998 -0.5482
   11CHTO    N9 4521   5.615   6.410   2.684  0.5288 -0.4986  0.0468
   11CHTO   H77 4522   5.550   6.354   2.619  1.5500 -3.2150  1.2804
   11CHTO   H78 4523   5.590   6.404   2.789 -1.0178  1.8783 -0.1501
   11CHTO   C51 4524   5.803   6.245   2.738  0.7213  0.6354 -0.2848
   11CHTO   H93 4525   5.793   6.267   2.845 -1.5108  0.9400 -0.5372
   11CHTO   O30 4526   5.935   6.205   2.699  0.3895 -0.1248  0.7807
   11CHTO   C46 4527   6.056   6.315   2.735 -0.1953 -0.3387 -0.1713
   11CHTO   H88 4528   6.075   6.297   2.841  1.7989  1.0919 -0.2546
   11CHTO   C53 4529   6.174   6.271   2.649  0.1194 -0.0170 -0.4814
   11CHTO   O72 4530   6.207   6.131   2.662  0.4768  0.4717 -0.3015
   11CHTO  H199 4531   6.275   6.097   2.607 -0.3470  2.3718 -2.5262
   11CHTO   O22 4532   5.710   6.135   2.707 -0.3250  0.6202  0.3964
   11CHTO   C31 4533   5.692   6.020   2.794 -0.1776  0.0274  0.3424
   11CHTO   H59 4534   5.774   6.026   2.868 -0.2357 -1.5907  0.5471
   11CHTO   C29 4535   5.560   6.027   2.873 -0.2328 -0.0022 -0.4806
   11CHTO   H57 4536   5.472   6.030   2.807 -0.7833 -0.8074  0.1916
   11CHTO   O21 4537   5.568   6.148   2.948  0.2638  0.0612  0.6965
   11CHTO   H37 4538   5.517   6.216   2.908  0.9360 -0.6362 -1.4058
   11CHTO   C27 4539   5.533   5.907   2.973 -0.0264 -0.3129 -0.5828
   11CHTO   H55 4540   5.600   5.917   3.060 -1.5765 -0.4808  0.6647
   11CHTO    N5 4541   5.392   5.904   3.030  0.7815 -0.2256 -0.3172
   11CHTO   H43 4542   5.342   5.997   3.005 -0.3215  0.5081  4.2382
   11CHTO   H44 4543   5.384   5.923   3.136 -2.7701 -0.3742 -0.4726
   11CHTO   C25 4544   5.569   5.778   2.894  0.7524  0.0219  0.0885
   11CHTO   H53 4545   5.493   5.765   2.816  0.2097 -0.9864  0.7580
   11CHTO   O17 4546   5.695   5.789   2.830 -0.0440 -0.4353 -0.0486
   11CHTO   C32 4547   5.707   5.884   2.726  0.4626  0.0067  0.2609
   11CHTO   H60 4548   5.626   5.871   2.654  0.5801  2.1306 -0.2685
   11CHTO   C36 4549   5.839   5.873   2.663 -0.5298 -0.1112  0.3550
   11CHTO   O25 4550   5.938   5.898   2.772  0.4480 -0.0853 -0.0838
   11CHTO   H40 4551   5.932   5.987   2.800 -2.5943 -1.0959  2.7318
   11CHTO   O15 4552   5.573   5.652   2.973 -0.1469  0.4777  0.5501
   11CHTO   C19 4553   5.523   5.524   3.024  0.0889  0.0045 -0.3670
   11CHTO   H47 4554   5.597   5.500   3.102  0.1968 -0.7874 -0.7098
   11CHTO   C20 4555   5.381   5.525   3.090 -0.3562 -0.6562 -0.2012
   11CHTO   H48 4556   5.305   5.572   3.026 -1.8614  0.6151  2.4576
   11CHTO   O19 4557   5.397   5.619   3.196  0.4353  0.3115  0.2042
   11CHTO   H35 4558   5.407   5.569   3.275  2.0373 -1.9531 -1.3611
   11CHTO   C21 4559   5.329   5.383   3.134 -0.6011 -0.3155 -0.5644
   11CHTO   H49 4560   5.392   5.343   3.214  0.0143 -0.6352 -1.2094
   11CHTO    N4 4561   5.192   5.398   3.197  0.5308  0.1931 -0.2006
   11CHTO   H41 4562   5.173   5.359   3.296 -1.3728  2.0322  0.1945
   11CHTO   H42 4563   5.148   5.497   3.194 -2.5568 -1.0330  2.8063
   11CHTO   C22 4564   5.338   5.292   3.013 -0.6595 -0.4069  1.0800
   11CHTO   H50 4565   5.272   5.321   2.931 -1.4919 -1.0772  1.5180
   11CHTO   O14 4566   5.475   5.286   2.966 -0.7577  0.6024  0.1160
   11CHTO   C23 4567   5.525   5.411   2.912  0.4923 -0.3801  0.4679
   11CHTO   H51 4568   5.469   5.442   2.823  1.6486  0.8038  0.1341
   11CHTO   C34 4569   5.657   5.365   2.845  0.6396  0.5960 -0.1264
   11CHTO   O23 4570   5.734   5.477   2.808  0.0952 -0.1191 -0.0833
   11CHTO   H38 4571   5.778   5.457   2.727 -0.2929  1.7506 -0.7832
   11CHTO   O16 4572   5.317   5.153   3.047 -0.2783  0.8243 -0.7427
   11CHTO   C24 4573   5.246   5.074   2.919  0.3913  0.1264  0.9981
   11CHTO   H52 4574   5.222   5.141   2.836  1.4582 -1.3882 -0.5544
   11CHTO   C26 4575   5.106   5.025   2.968 -0.7636  0.5202  0.5635
   11CHTO   H54 4576   5.125   4.958   3.055 -1.0187 -0.0184  0.2070
   11CHTO   O20 4577   5.037   5.134   3.026 -0.8102 -0.0951 -0.0762
   11CHTO   H36 4578   5.015   5.194   2.958  1.0971  2.6555  1.6495
   11CHTO   C30 4579   5.023   4.950   2.859  1.0016  0.1589 -0.1449
   11CHTO   H58 4580   4.992   5.020   2.780  1.3500  0.4286 -0.0430
   11CHTO    N6 4581   4.889   4.895   2.899  0.2663 -0.1088  0.4797
   11CHTO   H45 4582   4.851   4.832   2.820 -1.3660  0.4057  0.8307
   11CHTO   H46 4583   4.889   4.837   2.991 -1.5703 -0.9075  0.0028
   11CHTO   C33 4584   5.104   4.844   2.776  0.4106 -0.3450 -0.4333
   11CHTO   H61 4585   5.105   4.743   2.821  3.6043 -0.9856 -1.8543
   11CHTO   O18 4586   5.236   4.887   2.758  0.4952  0.4326  0.0590
   11CHTO   C28 4587   5.329   4.949   2.856  0.7149 -0.1792 -0.0660
   11CHTO   H56 4588   5.343   4.877   2.937 -1.9691 -0.7058 -0.0288
   11CHTO   C35 4589   5.457   4.994   2.785 -0.5696 -0.5299 -0.6089
   11CHTO   O24 4590   5.431   5.080   2.671 -0.5402 -0.2202  0.2283
   11CHTO   H39 4591   5.507   5.095   2.619 -1.6061  0.6270 -1.1312
   11CHTO    O9 4592   5.043   4.816   2.647  0.0264  0.0506 -0.7440
   11CHTO   C13 4593   5.085   4.937   2.536  0.2257  0.0878 -0.6408
   11CHTO   H26 4594   5.131   5.020   2.595 -0.1182 -1.0615  1.2751
   11CHTO   C11 4595   4.956   4.979   2.465 -0.1078 -0.5178  0.3095
   11CHTO   H24 4596   4.880   4.997   2.542 -1.5609 -2.3114 -0.6490
   11CHTO    O8 4597   4.900   4.872   2.395  0.5498 -0.3828 -0.0857
   11CHTO    H3 4598   4.806   4.864   2.400  0.4576 -0.3155 -1.5922
   11CHTO    C9 4599   4.979   5.115   2.395 -0.1167 -0.5274  0.6477
   11CHTO   H22 4600   4.985   5.189   2.476 -0.3295  0.2937 -0.0795
   11CHTO    N2 4601   4.857   5.167   2.323 -0.2289 -0.0587  0.0895
   11CHTO   H10 4602   4.903   5.221   2.241 -1.0487  0.6195  0.0695
   11CHTO   H11 4603   4.786   5.228   2.377 -0.2226  1.6814 -1.8147
   11CHTO    C7 4604   5.122   5.113   2.324  0.1715 -0.0288  0.0672
   11CHTO   H20 4605   5.181   5.175   2.394  2.1399 -0.6905 -0.9699
   11CHTO    O4 4606   5.165   4.976   2.301 -0.3798 -0.1413 -0.0611
   11CHTO   C14 4607   5.189   4.902   2.422 -0.2218  0.2782 -0.0054
   11CHTO   H27 4608   5.287   4.931   2.464  0.9979 -1.7397 -1.3740
   11CHTO   C18 4609   5.198   4.746   2.383 -0.2273 -0.8098 -0.0115
   11CHTO   O13 4610   5.272   4.674   2.482 -0.1151 -0.1714  0.2616
   11CHTO    H7 4611   5.231   4.591   2.497 -0.3852 -0.4087 -1.6358
   11CHTO    O2 4612   5.136   5.187   2.184 -0.3945 -0.2493 -0.1574
   11CHTO    C1 4613   5.252   5.279   2.179 -0.2557  0.1328 -0.1900
   11CHTO   H14 4614   5.321   5.255   2.262  0.4077 -0.1852 -0.8320
   11CHTO    C2 4615   5.213   5.434   2.184  0.6796 -0.0024 -0.6629
   11CHTO   H15 4616   5.148   5.459   2.099  2.2213 -1.4823 -2.3175
   11CHTO    O6 4617   5.137   5.466   2.309  0.5885  0.0800 -0.1589
   11CHTO    H1 4618   5.076   5.535   2.293  1.1777  0.8598  0.9011
   11CHTO    C3 4619   5.343   5.522   2.169  0.3550 -0.9926 -0.2748
   11CHTO   H16 4620   5.407   5.495   2.254 -1.5262 -2.7827  0.6149
   11CHTO    N1 4621   5.319   5.677   2.177  0.0921 -0.4682  0.5398
   11CHTO    H8 4622   5.223   5.704   2.217  0.6941  0.1915  1.5593
   11CHTO    H9 4623   5.391   5.721   2.245 -1.4753 -0.9054  2.5239
   11CHTO    C4 4624   5.417   5.477   2.036 -0.4221  0.2678 -0.1242
   11CHTO   H17 4625   5.358   5.511   1.951 -0.4942 -0.9291 -0.5660
   11CHTO    O1 4626   5.436   5.335   2.029  0.1448  0.4064 -0.0276
   11CHTO    C5 4627   5.326   5.248   2.044  0.9877 -0.0404  0.1694
   11CHTO   H18 4628   5.260   5.273   1.961  1.6237 -0.7399 -0.5531
   11CHTO   C16 4629   5.375   5.104   2.031  0.3618  0.2338  0.1093
   11CHTO   O11 4630   5.449   5.064   2.149  0.2150  0.1019 -0.2130
   11CHTO    H5 4631   5.510   4.996   2.128  1.4183  0.6931  1.2824
   11CHTO    O3 4632   5.551   5.525   2.042 -0.5335 -0.1637 -0.6157
   11CHTO    C6 4633   5.618   5.564   1.923  0.6131 -0.4295  0.5172
   11CHTO   H19 4634   5.567   5.521   1.837 -3.5246  3.3911  0.8545
   11CHTO    C8 4635   5.617   5.723   1.890  0.1398  0.4257  0.1895
   11CHTO   H21 4636   5.646   5.776   1.981  1.5566  0.3789 -0.2164
   11CHTO    O7 4637   5.484   5.756   1.862 -0.1112 -0.0584  0.1996
   11CHTO    H2 4638   5.443   5.683   1.819  0.3779 -0.0367 -0.3063
   11CHTO   C12 4639   5.711   5.757   1.768 -0.2288  0.4553  0.0785
   11CHTO   H25 4640   5.659   5.711   1.681  1.8332 -0.8499 -0.5262
   11CHTO    N3 4641   5.721   5.909   1.752 -0.2159  0.9089 -0.4883
   11CHTO   H12 4642   5.628   5.945   1.711 -0.1926  0.3343 -1.0584
   11CHTO   H13 4643   5.732   5.946   1.853  1.8250  1.8525 -1.0320
   11CHTO   C15 4644   5.843   5.677   1.785  0.2948 -0.1108  0.0248
   11CHTO   H28 4645   5.915   5.710   1.859  0.0825  0.7224 -0.1434
   11CHTO   O10 4646   5.920   5.688   1.644 -0.5422 -0.0259  0.2198
   11CHTO    H4 4647   5.948   5.777   1.629  3.2100 -0.9855  0.8300
   11CHTO    O5 4648   5.824   5.539   1.794 -0.0028  0.5125  0.0889
   11CHTO   C10 4649   5.764   5.502   1.921  0.2000 -0.2427  0.7909
   11CHTO   H23 4650   5.836   5.525   1.999  0.2837 -0.2141  0.7054
   11CHTO   C17 4651   5.754   5.354   1.919 -0.1902  0.0792  0.1409
   11CHTO   O12 4652   5.727   5.285   2.044  0.5736 -0.0374 -0.4233
   11CHTO    H6 4653   5.799   5.277   2.103 -0.9585  0.8963  1.5942
   12CHTO  H203 4654   5.493   2.135   1.665 -0.8380  2.2065 -1.9369
   12CHTO   O82 4655   5.408   2.099   1.676  0.0910  0.4889 -0.0484
   12CHTO  C123 4656   5.396   2.024   1.799  0.2385  0.2707  0.4416
   12CHTO  H227 4657   5.419   2.092   1.882  0.7364  4.8772 -3.2630
   12CHTO   O77 4658   5.258   1.986   1.778  0.1087  0.0342  0.2388
   12CHTO  C118 4659   5.195   1.912   1.881  0.5575 -0.1225 -0.1039
   12CHTO  H222 4660   5.211   1.957   1.980 -0.9962  2.3266 -0.9199
   12CHTO  C125 4661   5.035   1.904   1.851 -0.2419  0.6613  0.1925
   12CHTO   O84 4662   4.982   2.030   1.840  0.2139  0.4503 -0.3450
   12CHTO  H205 4663   5.039   2.104   1.852  0.4558 -0.0246  1.6797
   12CHTO  C114 4664   5.258   1.776   1.885 -0.2054  0.2331  0.5114
   12CHTO  H218 4665   5.242   1.726   1.790  1.8767  1.3300 -0.4471
   12CHTO  C116 4666   5.420   1.792   1.904  0.2713 -0.5904 -0.0514
   12CHTO  H220 4667   5.446   1.819   2.009 -1.0713  0.4445  0.0346
   12CHTO   O79 4668   5.477   1.658   1.910 -0.0983 -0.6941 -0.4698
   12CHTO  H201 4669   5.569   1.661   1.931 -0.2440 -1.1451  0.2720
   12CHTO  C120 4670   5.481   1.889   1.802 -0.5503 -0.6712 -0.3726
   12CHTO  H224 4671   5.468   1.832   1.708  2.5238 -0.4803 -0.9453
   12CHTO   N21 4672   5.622   1.903   1.826  0.0374 -0.1880 -0.6473
   12CHTO  H211 4673   5.670   1.840   1.753 -0.1437 -1.0693 -0.0143
   12CHTO  H212 4674   5.656   2.005   1.832  2.3137 -0.9224 -0.5047
   12CHTO   O75 4675   5.197   1.705   1.987  0.3870  0.0028  0.0775
   12CHTO  C112 4676   5.153   1.560   1.957  0.0973 -0.0242  1.0973
   12CHTO  H216 4677   5.224   1.511   1.889  0.6080  2.5911 -0.3313
   12CHTO   O73 4678   5.022   1.571   1.898 -0.3101  0.3368  0.0621
   12CHTO  C113 4679   4.954   1.454   1.865 -0.0412 -0.4134  0.1216
   12CHTO  H217 4680   5.022   1.409   1.789  0.1741  0.8494 -0.4389
   12CHTO  C124 4681   4.820   1.505   1.799  0.3191  0.7936  0.7262
   12CHTO   O83 4682   4.731   1.402   1.763 -0.0700 -0.1477 -0.4042
   12CHTO  H204 4683   4.770   1.348   1.698  1.8618  0.2817  0.3583
   12CHTO  C109 4684   4.935   1.369   1.989  0.2474  0.0272 -0.3296
   12CHTO  H213 4685   4.873   1.426   2.060  0.5147  0.5721 -0.5288
   12CHTO  C110 4686   5.075   1.343   2.066  0.4373  0.3343 -0.5070
   12CHTO  H214 4687   5.141   1.282   2.005  0.3007 -0.1612 -0.1592
   12CHTO   O78 4688   5.036   1.269   2.181 -0.2329 -0.2662  0.4895
   12CHTO  H200 4689   5.111   1.271   2.237  0.0842 -1.5455  0.1301
   12CHTO  C111 4690   5.144   1.481   2.093  0.9155 -0.3317 -0.1153
   12CHTO  H215 4691   5.078   1.542   2.158  2.2554  0.5524  0.4310
   12CHTO   N19 4692   5.269   1.468   2.173  0.0335 -0.0360  0.3714
   12CHTO  H207 4693   5.262   1.455   2.280 -3.2547 -3.6432 -0.1599
   12CHTO  H208 4694   5.329   1.556   2.155 -2.5214  1.4263 -1.2576
   12CHTO   O74 4695   4.867   1.246   1.953 -0.6185 -0.6189 -0.5730
   12CHTO  C115 4696   4.744   1.196   2.056 -0.1521 -0.4771 -0.2810
   12CHTO  H219 4697   4.761   1.230   2.158  1.8976  2.4240 -1.5045
   12CHTO   O76 4698   4.609   1.262   2.016  0.3887  0.3807  0.1042
   12CHTO  C122 4699   4.492   1.229   2.089 -0.2608  1.0149 -0.7896
   12CHTO  H226 4700   4.403   1.255   2.030  0.6568  0.4545 -2.4488
   12CHTO  C126 4701   4.486   1.321   2.214  0.4069  0.3123  0.0410
   12CHTO   O85 4702   4.491   1.453   2.173 -0.5635  0.3759 -0.2177
   12CHTO  H206 4703   4.502   1.509   2.248 -1.9848 -1.7121  1.6459
   12CHTO  C121 4704   4.483   1.078   2.137 -0.0741 -0.3392 -0.7875
   12CHTO  H225 4705   4.438   1.082   2.238  2.9805 -1.1388  0.6893
   12CHTO   O81 4706   4.390   1.004   2.054 -0.6622 -0.3005 -0.3203
   12CHTO  H202 4707   4.440   0.952   1.994 -1.0894  2.0833 -2.8636
   12CHTO  C119 4708   4.619   1.001   2.159 -0.3018 -0.0730  0.7672
   12CHTO  H223 4709   4.651   1.058   2.246  0.5853  0.4384  0.1100
   12CHTO  C117 4710   4.726   1.038   2.056  0.4264 -0.7773  0.1841
   12CHTO  H221 4711   4.709   1.011   1.952 -2.6174  1.6250 -0.0019
   12CHTO   N20 4712   4.863   0.974   2.094 -0.3320 -0.3679 -0.0217
   12CHTO  H209 4713   4.869   0.870   2.123 -2.2129 -0.0007  1.7910
   12CHTO  H210 4714   4.938   0.986   2.017  1.5067  0.1675  1.7654
   12CHTO   O80 4715   4.606   0.848   2.215  0.4341  0.4559  0.4190
   12CHTO  C103 4716   4.535   0.739   2.140  0.0290 -0.0992  0.0749
   12CHTO  H190 4717   4.437   0.769   2.101  0.9080  2.2441 -0.3710
   12CHTO  C101 4718   4.614   0.675   2.011 -0.0082  0.8854 -0.1522
   12CHTO  H188 4719   4.710   0.631   2.039 -1.3081 -0.8477  1.7926
   12CHTO   O68 4720   4.633   0.787   1.897 -0.1733 -0.4887  0.1154
   12CHTO  H168 4721   4.713   0.778   1.850 -1.0685 -2.7238 -1.0816
   12CHTO   C99 4722   4.519   0.559   1.958 -0.1401  0.4069 -0.5912
   12CHTO  H186 4723   4.424   0.599   1.918  0.3961  0.2961 -2.0050
   12CHTO   N17 4724   4.579   0.487   1.839  0.0817 -0.1836 -0.0658
   12CHTO  H174 4725   4.628   0.544   1.762  1.4719  0.3281  1.1881
   12CHTO  H175 4726   4.636   0.399   1.863  4.8318  2.1462 -2.1293
   12CHTO   C97 4727   4.481   0.461   2.069 -0.4579 -0.2803  0.6170
   12CHTO  H184 4728   4.574   0.412   2.100  0.2540  0.2103 -0.6679
   12CHTO   O64 4729   4.415   0.531   2.177 -0.3496  0.2891  0.7605
   12CHTO  C104 4730   4.507   0.622   2.242 -0.8327  0.2284 -0.4610
   12CHTO  H191 4731   4.598   0.571   2.273 -1.9777 -1.1540  0.6706
   12CHTO  C108 4732   4.438   0.675   2.366  0.4411 -0.1255  0.1826
   12CHTO   O71 4733   4.410   0.574   2.464  0.0257 -0.0599 -0.0099
   12CHTO  H171 4734   4.408   0.484   2.437 -0.5794  0.0364 -0.3074
   12CHTO   O62 4735   4.399   0.355   2.025 -0.0442  0.1186 -0.4312
   12CHTO   C91 4736   4.398   0.231   2.097 -0.0738  0.0267  0.0080
   12CHTO  H178 4737   4.482   0.237   2.167  0.2424  2.1418 -0.5288
   12CHTO   C92 4738   4.433   0.117   1.998  0.2496 -0.5360  0.4496
   12CHTO  H179 4739   4.360   0.122   1.916  0.3824 -2.0728  0.2234
   12CHTO   O66 4740   4.559   0.152   1.937 -0.3774 -0.3485 -0.1651
   12CHTO  H166 4741   4.589   0.084   1.879  1.4796 -0.5118  0.9398
   12CHTO   C93 4742   4.436  -0.028   2.049 -0.0011  0.0075  0.3888
   12CHTO  H180 4743   4.518  -0.030   2.123  1.1307  1.6780 -0.8048
   12CHTO   N16 4744   4.463  -0.134   1.948 -0.2293  0.0953  0.3451
   12CHTO  H172 4745   4.568  -0.139   1.924 -0.7192  0.7859 -2.0388
   12CHTO  H173 4746   4.418  -0.230   1.967  1.5144 -1.0446 -1.1413
   12CHTO   C94 4747   4.298  -0.054   2.128 -0.2992 -0.5327  0.1856
   12CHTO  H181 4748   4.213  -0.052   2.059  0.1517 -0.1662 -0.3721
   12CHTO   O61 4749   4.274   0.048   2.225  0.0964  0.1315  0.2611
   12CHTO   C95 4750   4.263   0.183   2.172 -0.5925  0.2339  0.0959
   12CHTO  H182 4751   4.184   0.192   2.098  0.6598  2.7383 -0.9830
   12CHTO  C106 4752   4.222   0.273   2.293 -0.0020  0.4101  0.5495
   12CHTO   O69 4753   4.192   0.403   2.244  0.1023  0.5543  0.2417
   12CHTO  H169 4754   4.126   0.426   2.181  2.0763  0.2989 -1.9959
   12CHTO   O63 4755   4.298  -0.195   2.208  0.5679 -0.3101  0.5270
   12CHTO   C96 4756   4.398  -0.208   2.332  0.3094 -0.3549  0.4183
   12CHTO  H183 4757   4.429  -0.105   2.348 -2.7846  0.8527 -0.9602
   12CHTO   C98 4758   4.527  -0.298   2.307  0.0599  0.6208  0.1032
   12CHTO  H185 4759   4.498  -0.398   2.273 -1.7583  1.8674 -2.1991
   12CHTO   O67 4760   4.624  -0.246   2.208 -0.1111  0.3991 -0.3361
   12CHTO  H167 4761   4.646  -0.323   2.159 -1.2653  0.5075 -1.0485
   12CHTO  C102 4762   4.598  -0.319   2.454  0.3523 -0.7886  0.4328
   12CHTO  H189 4763   4.638  -0.220   2.482 -2.1888  0.6773 -0.8937
   12CHTO   N18 4764   4.711  -0.417   2.451  0.1037 -0.4449 -0.1707
   12CHTO  H176 4765   4.695  -0.503   2.514  0.4147 -0.8441 -0.6318
   12CHTO  H177 4766   4.795  -0.359   2.486 -1.4862 -0.1976  3.4430
   12CHTO  C105 4767   4.501  -0.346   2.571  0.2945  0.0211  0.1249
   12CHTO  H192 4768   4.459  -0.447   2.564  2.2946 -0.8147  0.0560
   12CHTO   O65 4769   4.396  -0.261   2.583 -0.2537 -0.3407 -0.1870
   12CHTO  C100 4770   4.311  -0.253   2.467 -0.1244  0.7018 -0.1700
   12CHTO  H187 4771   4.271  -0.354   2.448  1.0944  0.3312 -0.7576
   12CHTO  C107 4772   4.187  -0.170   2.509 -0.3314  0.4205 -0.2116
   12CHTO   O70 4773   4.214  -0.030   2.536  0.3751 -0.4200  0.1550
   12CHTO  H170 4774   4.281  -0.032   2.602 -0.7985 -0.1472  1.3801
   12CHTO   O57 4775   4.586  -0.343   2.704 -0.6417 -0.0214  0.5231
   12CHTO   C85 4776   4.538  -0.417   2.826 -0.2424  0.0226 -0.6754
   12CHTO  H157 4777   4.469  -0.493   2.784 -0.1633 -0.4915  0.1119
   12CHTO   C83 4778   4.452  -0.330   2.919  0.8941 -0.1762  0.2564
   12CHTO  H155 4779   4.361  -0.315   2.862  1.2842  0.7827 -0.1338
   12CHTO   O56 4780   4.517  -0.201   2.932 -0.2573  0.0518 -0.0612
   12CHTO  H135 4781   4.455  -0.134   2.952  0.2030  0.4600  0.0331
   12CHTO   C81 4782   4.411  -0.403   3.051  0.3010  0.2777 -0.4689
   12CHTO  H153 4783   4.354  -0.492   3.028  0.3546 -0.2299  1.2844
   12CHTO   N14 4784   4.317  -0.327   3.131  1.1167 -0.8406  0.1502
   12CHTO  H141 4785   4.365  -0.263   3.203 -2.4365  2.2004 -0.0341
   12CHTO  H142 4786   4.255  -0.394   3.186  1.1148  0.6206  1.9774
   12CHTO   C79 4787   4.540  -0.447   3.127 -1.1314 -0.2126  0.4253
   12CHTO  H151 4788   4.512  -0.508   3.213  0.6589 -2.4164 -0.5228
   12CHTO   O52 4789   4.611  -0.533   3.035  0.3017 -0.2085 -0.5893
   12CHTO   C86 4790   4.654  -0.480   2.906 -0.8058  0.1794  0.4181
   12CHTO  H158 4791   4.735  -0.407   2.922  0.1412  0.0820 -3.4020
   12CHTO   C90 4792   4.722  -0.584   2.806  0.1264  0.2270  0.0389
   12CHTO   O60 4793   4.852  -0.625   2.847  0.0832  0.1660  0.2422
   12CHTO  H138 4794   4.883  -0.687   2.784 -3.7124 -1.1909 -0.4227
   12CHTO   O50 4795   4.632  -0.339   3.154  0.5284  0.6048 -0.1970
   12CHTO   C73 4796   4.720  -0.281   3.248 -0.7403  0.9595 -0.0294
   12CHTO  H145 4797   4.676  -0.298   3.347  0.6813  0.7718  0.5826
   12CHTO   C74 4798   4.734  -0.128   3.216  0.4966 -0.2211 -0.3078
   12CHTO  H146 4799   4.633  -0.084   3.210  0.5826 -0.1352 -1.0880
   12CHTO   O54 4800   4.790  -0.066   3.332  0.3331 -0.3040  0.0629
   12CHTO  H133 4801   4.715  -0.035   3.378  0.7086 -2.2811  2.1335
   12CHTO   C75 4802   4.821  -0.107   3.084  0.6166 -0.5499 -0.6319
   12CHTO  H147 4803   4.760  -0.147   3.002  1.1719  1.6584 -2.1335
   12CHTO   N13 4804   4.836   0.032   3.050  0.0257 -0.6050  0.0045
   12CHTO  H139 4805   4.922   0.075   3.098 -0.4664  0.4564 -0.0557
   12CHTO  H140 4806   4.826   0.047   2.944  1.1027 -0.5602 -0.0995
   12CHTO   C76 4807   4.957  -0.185   3.092 -0.7342 -0.8175 -0.7651
   12CHTO  H148 4808   5.018  -0.142   3.171  1.1874 -1.3366 -1.9196
   12CHTO   O49 4809   4.924  -0.328   3.119 -0.6074 -0.0023 -0.2944
   12CHTO   C77 4810   4.857  -0.356   3.243  0.2920 -0.1663 -0.3061
   12CHTO  H149 4811   4.921  -0.313   3.320  0.9407  0.6966 -1.3070
   12CHTO   C88 4812   4.834  -0.505   3.254 -0.5374 -0.1812  0.2677
   12CHTO   O58 4813   4.981  -0.570   3.278  0.5706 -0.5537 -0.1940
   12CHTO  H136 4814   4.981  -0.655   3.239 -2.0112 -0.5250 -0.3504
   12CHTO   O51 4815   5.034  -0.187   2.951 -0.2177 -0.3351 -0.1536
   12CHTO   C78 4816   5.155  -0.303   2.937 -0.5703 -0.3443  0.6459
   12CHTO  H150 4817   5.118  -0.402   2.970 -1.7082  0.0245  0.5149
   12CHTO   C80 4818   5.272  -0.272   3.015 -0.5039 -0.3003 -0.4766
   12CHTO  H152 4819   5.298  -0.165   3.004  0.5610 -0.4387  0.4956
   12CHTO   O55 4820   5.228  -0.293   3.148 -0.6617 -0.3238 -0.0680
   12CHTO  H134 4821   5.235  -0.382   3.176 -0.3227 -0.7895 -1.6065
   12CHTO   C84 4822   5.409  -0.351   2.988  0.0283  0.1375  0.2915
   12CHTO  H156 4823   5.396  -0.456   3.015 -3.0631  1.4142  4.0666
   12CHTO   N15 4824   5.515  -0.300   3.076 -0.2728 -0.4027 -0.2576
   12CHTO  H143 4825   5.569  -0.382   3.120 -2.8693 -0.8820  2.1737
   12CHTO  H144 4826   5.580  -0.242   3.014  0.0055  0.5765  0.9199
   12CHTO   C87 4827   5.435  -0.345   2.834  0.7430  0.7827  0.7094
   12CHTO  H159 4828   5.457  -0.247   2.792 -0.5389  1.0955  0.7398
   12CHTO   O53 4829   5.308  -0.402   2.766 -0.9418 -0.5290  0.2406
   12CHTO   C82 4830   5.188  -0.325   2.789 -0.1698  0.1902 -0.2072
   12CHTO  H154 4831   5.195  -0.229   2.740 -2.0008  1.3073  1.6277
   12CHTO   C89 4832   5.073  -0.401   2.718 -0.3059 -0.5163  0.0435
   12CHTO   O59 4833   5.083  -0.394   2.577 -0.3816  0.0030  1.0357
   12CHTO  H137 4834   5.054  -0.309   2.552  0.6472  0.4933  1.4788
   12CHTO   O45 4835   5.548  -0.443   2.788  0.8725  0.3902 -0.4677
   12CHTO   C67 4836   5.634  -0.414   2.679  0.4279  0.0190 -0.1886
   12CHTO  H124 4837   5.701  -0.497   2.660 -0.4996 -1.0591  1.1624
   12CHTO   C65 4838   5.556  -0.378   2.546  0.8570  0.5725 -0.5587
   12CHTO  H122 4839   5.449  -0.374   2.569  0.9318  0.0860 -0.1280
   12CHTO   O44 4840   5.579  -0.488   2.455  0.0309  0.1861 -0.0430
   12CHTO  H102 4841   5.659  -0.469   2.409 -1.1644  1.3945 -1.6758
   12CHTO   C63 4842   5.591  -0.232   2.498  0.7742 -0.1061  0.1049
   12CHTO  H120 4843   5.560  -0.160   2.574  1.0103 -1.0296  1.0897
   12CHTO   N11 4844   5.522  -0.196   2.364  0.4971 -0.0473 -0.4348
   12CHTO  H108 4845   5.424  -0.237   2.348  0.9157 -2.3643  2.4966
   12CHTO  H109 4846   5.587  -0.218   2.281 -0.1201  2.7079 -1.6954
   12CHTO   C61 4847   5.749  -0.225   2.491 -0.1413  0.6080  0.3876
   12CHTO  H118 4848   5.768  -0.119   2.465  0.1339  0.1549 -1.3561
   12CHTO   O40 4849   5.815  -0.240   2.622  0.1519  0.0665  0.0762
   12CHTO   C68 4850   5.729  -0.293   2.729 -0.1475  0.1418 -0.2868
   12CHTO  H125 4851   5.672  -0.205   2.764  0.6024 -0.5273  2.7421
   12CHTO   C72 4852   5.817  -0.338   2.841  0.7338 -0.4143  0.7191
   12CHTO   O48 4853   5.931  -0.425   2.821  0.0490 -0.2643 -0.1042
   12CHTO  H105 4854   5.916  -0.504   2.773 -1.4195  0.1157 -0.2809
   12CHTO   O38 4855   5.800  -0.312   2.385  0.2805  1.0157  0.1066
   12CHTO   C55 4856   5.917  -0.263   2.317 -0.6075  0.2722 -0.5964
   12CHTO  H112 4857   5.937  -0.166   2.364  0.6135  0.6509 -1.8723
   12CHTO   C56 4858   5.889  -0.251   2.165 -0.0981  0.0011  0.3186
   12CHTO  H113 4859   5.844  -0.341   2.120  0.5977  1.1348 -2.7290
   12CHTO   O42 4860   5.788  -0.147   2.142 -0.0267 -0.2143 -0.2956
   12CHTO  H100 4861   5.756  -0.152   2.054  0.7502  1.3691 -0.6892
   12CHTO   C57 4862   6.014  -0.219   2.079  0.2593  0.0587  0.7102
   12CHTO  H114 4863   6.029  -0.112   2.092 -0.8174  0.1749  1.0176
   12CHTO   N10 4864   6.001  -0.234   1.933  0.1551 -0.5819  0.5424
   12CHTO  H106 4865   6.055  -0.157   1.879 -2.7487  0.0169 -1.6279
   12CHTO  H107 4866   5.902  -0.239   1.891  0.5289 -0.7167 -0.3234
   12CHTO   C58 4867   6.139  -0.292   2.125 -0.0614  0.0301 -0.2917
   12CHTO  H115 4868   6.151  -0.391   2.076 -1.1896  0.0528 -0.6143
   12CHTO   O37 4869   6.144  -0.301   2.273 -0.1571 -0.0397 -0.0636
   12CHTO   C59 4870   6.034  -0.367   2.330 -0.4162 -0.7263  0.0273
   12CHTO  H116 4871   6.014  -0.455   2.268 -0.7297  1.1136 -2.5588
   12CHTO   C70 4872   6.071  -0.409   2.471  0.4857 -0.5001 -0.1927
   12CHTO   O46 4873   5.972  -0.498   2.521 -0.9993  0.4974 -0.5796
   12CHTO  H103 4874   5.967  -0.508   2.615  0.8215  5.7265  0.2117
   12CHTO   O39 4875   6.268  -0.209   2.091  0.5283 -0.3969  0.0042
   12CHTO   C60 4876   6.381  -0.300   2.065  0.2832 -0.2072 -0.5894
   12CHTO  H117 4877   6.363  -0.397   2.112  0.9861 -1.2360 -2.3657
   12CHTO   C62 4878   6.392  -0.334   1.912 -0.1429 -0.2324 -0.0206
   12CHTO  H119 4879   6.304  -0.393   1.879  0.1097  1.0498 -3.2230
   12CHTO   O43 4880   6.383  -0.214   1.841  0.1353  0.4166 -0.6377
   12CHTO  H101 4881   6.311  -0.157   1.862  0.2435 -0.1337  1.2566
   12CHTO   C66 4882   6.521  -0.416   1.888  0.1962  0.6253 -0.0376
   12CHTO  H123 4883   6.515  -0.503   1.954 -1.6110 -0.5778 -1.7153
   12CHTO   N12 4884   6.540  -0.472   1.750 -0.3707 -0.4996 -0.7165
   12CHTO  H110 4885   6.475  -0.419   1.682  0.5019  0.8839 -0.4947
   12CHTO  H111 4886   6.645  -0.462   1.725 -0.3488 -1.7254 -1.1330
   12CHTO   C69 4887   6.649  -0.337   1.942  0.0070  0.2492  0.4056
   12CHTO  H126 4888   6.670  -0.244   1.885 -0.8371  0.8985  1.1429
   12CHTO   O41 4889   6.623  -0.297   2.101  0.0069 -0.2954 -0.3833
   12CHTO   C64 4890   6.506  -0.235   2.129  0.1093 -0.5349  0.1231
   12CHTO  H121 4891   6.508  -0.126   2.108  1.0533 -0.3074  1.3234
   12CHTO   C71 4892   6.482  -0.230   2.287 -0.1523  0.3256  0.1765
   12CHTO   O47 4893   6.593  -0.168   2.354  0.3752 -0.3714  0.1590
   12CHTO  H104 4894   6.673  -0.207   2.326 -0.2075 -1.0000 -0.6369
   12CHTO   O34 4895   6.773  -0.425   1.934  0.2640 -0.8393 -1.0400
   12CHTO   C49 4896   6.920  -0.431   1.968 -0.3128 -0.1705  0.3531
   12CHTO   H91 4897   6.978  -0.371   1.898  1.4298 -1.9017  0.2740
   12CHTO   C47 4898   6.971  -0.579   1.976  0.1097 -0.4870 -0.5788
   12CHTO   H89 4899   7.073  -0.579   2.020 -0.7863  0.4331  1.6146
   12CHTO   O33 4900   6.969  -0.644   1.845  0.7188  0.0065  0.0272
   12CHTO   H70 4901   7.024  -0.719   1.834  2.7362  1.1136  2.1829
   12CHTO   C45 4902   6.881  -0.660   2.084 -0.3858  0.1561 -0.0182
   12CHTO   H87 4903   6.790  -0.686   2.027  0.7353  0.8336 -2.1987
   12CHTO    N8 4904   6.959  -0.782   2.111 -0.7785 -0.1216  0.2899
   12CHTO   H75 4905   7.040  -0.778   2.181 -1.3056 -0.2625  0.9117
   12CHTO   H76 4906   6.991  -0.821   2.015  1.2865 -1.0618  1.3268
   12CHTO   C43 4907   6.837  -0.564   2.205  0.0111 -0.2161  0.2530
   12CHTO   H85 4908   6.739  -0.521   2.187  0.9155  0.9531 -2.0345
   12CHTO   O29 4909   6.936  -0.459   2.223  0.2581 -0.4709 -0.1977
   12CHTO   C50 4910   6.954  -0.369   2.109  0.0790 -0.4085 -0.1260
   12CHTO   H92 4911   6.882  -0.286   2.119  0.0121 -0.3334 -1.1980
   12CHTO   C54 4912   7.086  -0.302   2.112 -0.9469  0.9627  0.2355
   12CHTO   O36 4913   7.096  -0.206   2.219  0.1732  0.2071  0.2470
   12CHTO   H72 4914   7.090  -0.244   2.305 -2.6348  0.0894  0.0555
   12CHTO   O27 4915   6.822  -0.636   2.330  0.3898 -0.4590 -0.1260
   12CHTO   C37 4916   6.753  -0.638   2.456  0.0321 -0.0005  0.2023
   12CHTO   H79 4917   6.828  -0.625   2.536  0.4584 -0.8533 -0.0497
   12CHTO   C38 4918   6.655  -0.512   2.460  0.4516  0.0450 -0.7703
   12CHTO   H80 4919   6.589  -0.512   2.371  1.0512 -4.5148 -1.3431
   12CHTO   O31 4920   6.742  -0.401   2.463  0.0204 -0.3353  0.3779
   12CHTO   H68 4921   6.777  -0.387   2.377 -0.6211 -1.0824 -0.0146
   12CHTO   C39 4922   6.567  -0.519   2.588  0.2506  0.0544  0.3833
   12CHTO   H81 4923   6.634  -0.493   2.670 -1.6293 -1.4561  2.4935
   12CHTO    N7 4924   6.453  -0.421   2.597  0.2436 -0.2780 -0.4311
   12CHTO   H73 4925   6.493  -0.322   2.614  0.6125 -0.6670  1.0180
   12CHTO   H74 4926   6.397  -0.439   2.688  2.3449 -1.0007  0.7428
   12CHTO   C40 4927   6.504  -0.662   2.609 -0.6789  0.1343  0.0888
   12CHTO   H82 4928   6.432  -0.661   2.528 -0.2773  2.2508 -0.2839
   12CHTO   O26 4929   6.605  -0.766   2.596 -0.0009  0.2794  0.1807
   12CHTO   C41 4930   6.678  -0.777   2.472 -0.2402 -0.6555  0.0166
   12CHTO   H83 4931   6.614  -0.787   2.384  0.0663  2.8597 -0.6790
   12CHTO   C52 4932   6.769  -0.900   2.490 -0.7886 -0.3423 -0.6479
   12CHTO   O35 4933   6.691  -1.042   2.542 -0.5545 -0.1382 -0.1885
   12CHTO   H71 4934   6.632  -1.076   2.477 -3.0267 -0.4387  2.1200
   12CHTO   O28 4935   6.448  -0.679   2.742 -0.1263  0.5827  0.1228
   12CHTO   C42 4936   6.346  -0.781   2.779 -0.3118  0.2067  0.4097
   12CHTO   H84 4937   6.378  -0.812   2.879  2.2027  2.2784  0.3028
   12CHTO   C44 4938   6.344  -0.909   2.689 -0.5266  0.0578  0.6467
   12CHTO   H86 4939   6.340  -0.875   2.586  1.0558 -0.5109  0.3841
   12CHTO   O32 4940   6.465  -0.985   2.709  0.5060 -0.1231  0.3238
   12CHTO   H69 4941   6.468  -1.009   2.800  0.2547  3.3490  1.3177
   12CHTO   C48 4942   6.226  -1.007   2.724 -0.2014 -0.0321  0.4104
   12CHTO   H90 4943   6.241  -1.051   2.823  1.7233  1.9884  1.0459
   12CHTO    N9 4944   6.214  -1.125   2.629 -0.3313 -0.3203 -0.6303
   12CHTO   H77 4945   6.253  -1.105   2.529  2.3239  0.2947  0.4726
   12CHTO   H78 4946   6.112  -1.158   2.624 -1.5968  3.1617  0.3408
   12CHTO   C51 4947   6.092  -0.925   2.735 -0.0144 -0.3680  0.0251
   12CHTO   H93 4948   6.061  -0.886   2.638  1.2906  0.5736 -0.0301
   12CHTO   O30 4949   6.106  -0.819   2.824  0.2215 -0.0884 -0.1956
   12CHTO   C46 4950   6.211  -0.718   2.783  0.0241  0.6903  0.8135
   12CHTO   H88 4951   6.176  -0.674   2.690  0.9394 -2.3543 -1.0279
   12CHTO   C53 4952   6.210  -0.621   2.902 -0.2067  0.3820  0.3958
   12CHTO   O72 4953   6.261  -0.491   2.867 -0.1674 -0.0894 -0.0597
   12CHTO  H199 4954   6.189  -0.432   2.878  0.8876  1.5865 -1.8777
   12CHTO   O22 4955   5.993  -1.008   2.795 -0.3139  0.2000 -0.1927
   12CHTO   C31 4956   5.849  -0.969   2.796 -0.0724  0.9270 -0.0655
   12CHTO   H59 4957   5.793  -1.061   2.825 -3.0951  3.1794  1.4593
   12CHTO   C29 4958   5.812  -0.856   2.896  0.1253 -0.0413  0.2845
   12CHTO   H57 4959   5.860  -0.761   2.868 -0.8220  0.0504 -1.0556
   12CHTO   O21 4960   5.864  -0.888   3.030 -0.3568  0.4127  0.4766
   12CHTO   H37 4961   5.854  -0.815   3.087 -0.2578 -1.5543  3.1233
   12CHTO   C27 4962   5.648  -0.830   2.889 -0.1553 -0.0883 -0.8684
   12CHTO   H55 4963   5.603  -0.923   2.928  0.7209 -0.1793 -0.0369
   12CHTO    N5 4964   5.607  -0.713   2.972  0.3584  0.1771  0.2084
   12CHTO   H43 4965   5.504  -0.720   3.005  1.0962  0.2982  2.6661
   12CHTO   H44 4966   5.668  -0.713   3.062  0.2202 -4.8752  0.4431
   12CHTO   C25 4967   5.599  -0.820   2.742  0.5395 -0.1235  0.2687
   12CHTO   H53 4968   5.635  -0.728   2.692 -0.1194  0.9149  1.6707
   12CHTO   O17 4969   5.651  -0.914   2.649 -0.7366 -0.5298 -0.4299
   12CHTO   C32 4970   5.797  -0.927   2.656  0.3287 -0.1896 -0.0724
   12CHTO   H60 4971   5.830  -0.826   2.632  1.4454 -0.5050  0.0628
   12CHTO   C36 4972   5.839  -1.027   2.539  0.5728 -0.5769 -0.2967
   12CHTO   O25 4973   5.769  -1.156   2.547  0.1662  0.0631  0.2968
   12CHTO   H40 4974   5.820  -1.206   2.607  0.0742  2.0046  2.0579
   12CHTO   O15 4975   5.452  -0.824   2.729 -0.8656 -0.2438 -0.7283
   12CHTO   C19 4976   5.324  -0.795   2.654 -0.5675  0.0727  0.1408
   12CHTO   H47 4977   5.306  -0.688   2.674 -0.1066  0.0432  0.7143
   12CHTO   C20 4978   5.335  -0.815   2.503 -0.4443 -0.0270 -0.4728
   12CHTO   H48 4979   5.356  -0.920   2.478  0.6385  0.1672 -0.3917
   12CHTO   O19 4980   5.451  -0.748   2.459 -0.4786  0.1862  0.1120
   12CHTO   H35 4981   5.508  -0.801   2.408 -1.4974  1.4293 -2.3794
   12CHTO   C21 4982   5.195  -0.773   2.437 -0.3948  0.2331 -0.1730
   12CHTO   H49 4983   5.181  -0.667   2.459  2.6842  0.5827  0.3152
   12CHTO    N4 4984   5.195  -0.782   2.288  0.4067  0.3234 -0.8565
   12CHTO   H41 4985   5.236  -0.688   2.255  1.6795  0.9266  2.3257
   12CHTO   H42 4986   5.257  -0.865   2.256 -1.3866 -1.4685  0.1792
   12CHTO   C22 4987   5.083  -0.861   2.500  0.0572  0.3769 -0.2240
   12CHTO   H50 4988   5.105  -0.963   2.472 -2.6548 -1.3636  3.5105
   12CHTO   O14 4989   5.083  -0.840   2.644  0.1016 -0.6882 -0.2065
   12CHTO   C23 4990   5.200  -0.879   2.716 -0.2592 -0.7639  1.1702
   12CHTO   H51 4991   5.212  -0.986   2.699 -0.2607 -0.0435 -4.0714
   12CHTO   C34 4992   5.185  -0.846   2.863  0.0863  0.2115 -0.0110
   12CHTO   O23 4993   5.296  -0.892   2.941 -0.0909  0.0897  0.1690
   12CHTO   H38 4994   5.269  -0.908   3.030 -1.2299  1.4396  0.0890
   12CHTO   O16 4995   4.946  -0.822   2.465 -0.3054  0.2187 -0.1245
   12CHTO   C24 4996   4.851  -0.939   2.414 -0.0936 -0.0096  0.3380
   12CHTO   H52 4997   4.905  -1.030   2.390 -0.4635  0.1427 -1.0946
   12CHTO   C26 4998   4.792  -0.893   2.274 -0.2847 -0.2439  0.9449
   12CHTO   H54 4999   4.744  -0.794   2.290 -0.8420 -0.6925  2.1540
   12CHTO   O20 5000   4.902  -0.873   2.182 -0.7127  0.1338 -0.6294
   12CHTO   H36 5001   4.974  -0.931   2.199  0.3761  0.6026 -3.4422
   12CHTO   C30 5002   4.690  -0.996   2.215 -0.0702  0.4011  0.2288
   12CHTO   H58 5003   4.743  -1.080   2.168  0.4997  0.2097  1.1994
   12CHTO    N6 5004   4.614  -0.941   2.094 -0.0483 -0.1124  0.5883
   12CHTO   H45 5005   4.561  -0.852   2.125 -1.5571 -1.4646  1.9921
   12CHTO   H46 5006   4.536  -1.010   2.065  0.2806  0.2436 -1.1780
   12CHTO   C33 5007   4.600  -1.067   2.321  0.2046 -0.5125 -0.1987
   12CHTO   H61 5008   4.503  -1.017   2.333 -0.7618 -1.7214 -2.6531
   12CHTO   O18 5009   4.662  -1.076   2.456  0.3724 -0.2296  0.1571
   12CHTO   C28 5010   4.743  -0.973   2.514  0.4523  0.4602  1.3622
   12CHTO   H56 5011   4.683  -0.883   2.532 -1.7536 -1.0136  1.5556
   12CHTO   C35 5012   4.801  -1.021   2.647  0.1499 -0.7586 -0.1211
   12CHTO   O24 5013   4.698  -1.052   2.746 -0.1940  0.0008  0.4201
   12CHTO   H39 5014   4.669  -1.141   2.734  0.2363 -0.0317 -0.4434
   12CHTO    O9 5015   4.572  -1.197   2.265 -0.6365 -0.8605  0.1025
   12CHTO   C13 5016   4.694  -1.316   2.263  0.2644  0.6417  0.2109
   12CHTO   H26 5017   4.791  -1.271   2.290 -0.1528  0.6814  1.6710
   12CHTO   C11 5018   4.695  -1.385   2.117 -0.1140 -0.0618 -0.6051
   12CHTO   H24 5019   4.739  -1.312   2.047  1.3819  0.5521  0.9678
   12CHTO    O8 5020   4.566  -1.424   2.068 -0.0816 -0.2237  0.1164
   12CHTO    H3 5021   4.514  -1.352   2.037 -0.5498 -0.8143 -0.4935
   12CHTO    C9 5022   4.793  -1.502   2.120 -0.4670  1.0954 -0.0999
   12CHTO   H22 5023   4.892  -1.459   2.144  0.6384 -0.9906 -0.8579
   12CHTO    N2 5024   4.826  -1.558   1.988 -0.0628  0.2168  0.0699
   12CHTO   H10 5025   4.905  -1.631   1.979  0.6248  0.9204  0.3862
   12CHTO   H11 5026   4.825  -1.491   1.903 -2.9600  0.2846  0.1178
   12CHTO    C7 5027   4.761  -1.603   2.227 -0.0263  0.4878  0.2450
   12CHTO   H20 5028   4.849  -1.668   2.242 -0.1461 -0.0144 -1.1503
   12CHTO    O4 5029   4.741  -1.537   2.359  0.9466  0.0354 -0.1620
   12CHTO   C14 5030   4.658  -1.424   2.373  0.4687  0.1117  0.1865
   12CHTO   H27 5031   4.679  -1.381   2.473 -1.8471  0.1781  0.6526
   12CHTO   C18 5032   4.510  -1.472   2.374 -0.1207 -0.2512 -0.3165
   12CHTO   O13 5033   4.487  -1.556   2.493 -0.3397 -0.0866 -0.1427
   12CHTO    H7 5034   4.548  -1.531   2.560  0.8532 -2.0064 -0.4824
   12CHTO    O2 5035   4.615  -1.699   2.173 -0.4063 -0.1800  0.5243
   12CHTO    C1 5036   4.615  -1.840   2.194 -0.3336  0.1356 -0.7512
   12CHTO   H14 5037   4.688  -1.865   2.274  0.1280  0.6625 -1.0004
   12CHTO    C2 5038   4.661  -1.918   2.066 -0.7587  0.1747  0.0484
   12CHTO   H15 5039   4.596  -1.875   1.988 -0.3180  2.1536  0.7284
   12CHTO    O6 5040   4.805  -1.889   2.046 -0.3100 -0.2923 -0.4013
   12CHTO    H1 5041   4.824  -1.816   1.991  0.2254 -0.5542 -0.5668
   12CHTO    C3 5042   4.634  -2.067   2.073  0.4570  0.6287  0.4678
   12CHTO   H16 5043   4.694  -2.110   2.154  0.9058  1.5911  0.6624
   12CHTO    N1 5044   4.671  -2.130   1.942  0.4556  0.0585 -0.3137
   12CHTO    H8 5045   4.706  -2.056   1.871  0.6391 -1.0397 -1.3835
   12CHTO    H9 5046   4.587  -2.184   1.902 -0.4632  1.3392 -0.1606
   12CHTO    C4 5047   4.484  -2.103   2.112  0.6288 -0.1405 -0.3896
   12CHTO   H17 5048   4.417  -2.085   2.029 -1.0241 -0.0708  0.9378
   12CHTO    O1 5049   4.453  -2.034   2.231  0.0773  0.2637  0.3266
   12CHTO    C5 5050   4.472  -1.891   2.229 -0.0596 -0.0815 -0.4019
   12CHTO   H18 5051   4.409  -1.849   2.150  2.2564  0.2441 -2.1268
   12CHTO   C16 5052   4.422  -1.843   2.369 -0.0116  0.1587 -0.4430
   12CHTO   O11 5053   4.281  -1.864   2.382 -0.0593 -0.0462 -0.2410
   12CHTO    H5 5054   4.255  -1.826   2.464  0.9552 -2.7763  1.4204
   12CHTO    O3 5055   4.475  -2.243   2.154 -0.0583 -0.7656 -0.1506
   12CHTO    C6 5056   4.345  -2.287   2.198 -0.0837 -0.6180 -1.3163
   12CHTO   H19 5057   4.279  -2.204   2.227  0.6780  0.0581 -1.5121
   12CHTO    C8 5058   4.266  -2.369   2.092 -0.4160 -0.2212  0.6407
   12CHTO   H21 5059   4.339  -2.440   2.052 -0.0413  0.4572  0.1230
   12CHTO    O7 5060   4.227  -2.280   1.980 -0.8925 -0.9361 -0.8669
   12CHTO    H2 5061   4.162  -2.323   1.927 -1.6552  0.1638 -0.8462
   12CHTO   C12 5062   4.139  -2.449   2.152 -0.3927  0.1779  0.3407
   12CHTO   H25 5063   4.061  -2.370   2.158 -1.4220 -0.9715  2.6058
   12CHTO    N3 5064   4.096  -2.544   2.051  0.6214  0.0647 -0.4999
   12CHTO   H12 5065   4.170  -2.622   2.049  1.3673  0.7601 -0.2081
   12CHTO   H13 5066   4.003  -2.592   2.078  0.0179  0.1574 -2.3629
   12CHTO   C15 5067   4.159  -2.502   2.293  0.2407 -0.0613  0.5931
   12CHTO   H28 5068   4.213  -2.597   2.288  0.6461  0.1559  0.8535
   12CHTO   O10 5069   4.020  -2.525   2.356 -0.9345 -0.0372  0.2201
   12CHTO    H4 5070   4.025  -2.511   2.449  0.3588 -0.2627  0.1952
   12CHTO    O5 5071   4.228  -2.413   2.375  0.7165 -0.2984 -0.3190
   12CHTO   C10 5072   4.362  -2.382   2.328 -0.3555  0.5045 -0.4084
   12CHTO   H23 5073   4.417  -2.474   2.309 -1.0388  0.2553 -1.2444
   12CHTO   C17 5074   4.431  -2.326   2.451 -0.0274 -1.0519  0.7728
   12CHTO   O12 5075   4.376  -2.198   2.478 -0.3008  0.1965 -0.4339
   12CHTO    H6 5076   4.418  -2.134   2.424 -2.8973  3.3859  1.2135
   13CHTO  H203 5077   8.266   4.427   1.268 -0.1025 -0.2084 -1.7889
   13CHTO   O82 5078   8.291   4.517   1.259  0.5372 -0.0995  0.6650
   13CHTO  C123 5079   8.228   4.578   1.146  0.1846 -0.2781  0.4764
   13CHTO  H227 5080   8.235   4.504   1.065 -0.0270  1.5904 -1.2697
   13CHTO   O77 5081   8.088   4.590   1.188 -0.0469  0.5655  0.0198
   13CHTO  C118 5082   8.001   4.645   1.090 -0.0474 -0.3519  0.5469
   13CHTO  H222 5083   8.004   4.591   0.994  3.0938  1.7701 -0.6389
   13CHTO  C125 5084   7.854   4.630   1.152 -0.1284  0.5514 -0.7084
   13CHTO   O84 5085   7.828   4.491   1.190 -0.0594 -0.0424 -0.0661
   13CHTO  H205 5086   7.908   4.446   1.206 -0.5599 -1.3161 -1.0608
   13CHTO  C114 5087   8.042   4.786   1.067 -0.1409 -0.5938 -0.0443
   13CHTO  H218 5088   8.051   4.832   1.166 -2.4011 -1.0616  0.4056
   13CHTO  C116 5089   8.188   4.798   1.018 -0.3511 -0.2181  0.0906
   13CHTO  H220 5090   8.196   4.764   0.913  0.2161 -0.9836  0.3801
   13CHTO   O79 5091   8.232   4.939   1.009  0.7054  0.1568 -0.1155
   13CHTO  H201 5092   8.270   4.945   0.924  1.2873  1.9068  0.2504
   13CHTO  C120 5093   8.294   4.712   1.100 -0.2072  0.3741 -0.1084
   13CHTO  H224 5094   8.323   4.768   1.192  1.0504 -1.7904  0.8351
   13CHTO   N21 5095   8.422   4.686   1.020  0.0696  0.2790 -0.3959
   13CHTO  H211 5096   8.449   4.766   0.952 -1.0170 -0.0587 -1.2484
   13CHTO  H212 5097   8.509   4.656   1.076  0.8421  0.4542 -1.4795
   13CHTO   O75 5098   7.950   4.848   0.985 -0.0464 -0.3078 -0.0392
   13CHTO  C112 5099   7.884   4.977   1.027 -0.3215  0.0473  0.2460
   13CHTO  H216 5100   7.965   5.036   1.073 -0.6563  0.3748  0.4187
   13CHTO   O73 5101   7.783   4.944   1.126  0.2983  0.2754  0.0499
   13CHTO  C113 5102   7.698   5.053   1.165  0.6906 -0.4718  0.4163
   13CHTO  H217 5103   7.768   5.121   1.218  2.2688  0.3058 -2.4831
   13CHTO  C124 5104   7.604   4.997   1.277 -0.2279  0.3744 -0.1687
   13CHTO   O83 5105   7.532   5.100   1.331  0.6238 -0.6303 -0.1694
   13CHTO  H204 5106   7.443   5.074   1.341 -0.7230  3.4402 -0.6815
   13CHTO  C109 5107   7.639   5.121   1.039 -0.3098  0.3730  0.5118
   13CHTO  H213 5108   7.567   5.053   0.992 -0.3059  1.2591 -0.7913
   13CHTO  C110 5109   7.744   5.170   0.933 -0.1877  0.1138  0.2399
   13CHTO  H214 5110   7.802   5.251   0.979  2.3776 -1.4158 -0.2023
   13CHTO   O78 5111   7.685   5.240   0.822 -0.0027 -0.0206  0.1557
   13CHTO  H200 5112   7.640   5.176   0.770 -0.9848  0.3855  0.4994
   13CHTO  C111 5113   7.835   5.048   0.893 -0.0544 -0.1571  0.0576
   13CHTO  H215 5114   7.767   4.977   0.843 -1.2434  1.8265 -1.2065
   13CHTO   N19 5115   7.951   5.076   0.801 -0.6284  0.2916  0.5269
   13CHTO  H207 5116   8.021   4.995   0.808 -1.8411 -0.7437  0.7644
   13CHTO  H208 5117   7.911   5.077   0.701 -0.3439 -0.8531  0.4052
   13CHTO   O74 5118   7.568   5.234   1.087 -0.2315 -0.3169  0.3942
   13CHTO  C115 5119   7.402   5.241   1.040  0.1527  0.0689 -0.3271
   13CHTO  H219 5120   7.392   5.290   0.943  0.1205  1.4825  0.3701
   13CHTO   O76 5121   7.348   5.105   1.017  0.3991  0.2044  0.2551
   13CHTO  C122 5122   7.206   5.098   0.996 -0.0641 -0.4614  0.4173
   13CHTO  H226 5123   7.183   4.992   0.990 -0.1923 -0.4455  0.6110
   13CHTO  C126 5124   7.167   5.151   0.850  0.2325  0.6183 -0.0020
   13CHTO   O85 5125   7.042   5.097   0.802 -0.1777 -0.5584 -0.0906
   13CHTO  H206 5126   6.966   5.122   0.851 -2.7061 -1.3980 -3.3275
   13CHTO  C121 5127   7.126   5.164   1.120 -0.8677 -0.1966  0.0947
   13CHTO  H225 5128   7.017   5.161   1.100 -1.0664  0.2037  1.0949
   13CHTO   O81 5129   7.135   5.092   1.238  0.3013  0.2946 -0.2640
   13CHTO  H202 5130   7.226   5.085   1.260 -0.0360 -0.5057  0.9419
   13CHTO  C119 5131   7.171   5.317   1.134  0.3645  0.3882  0.7178
   13CHTO  H223 5132   7.155   5.367   1.039  2.2142 -0.2983  0.0244
   13CHTO  C117 5133   7.322   5.321   1.160 -0.1454 -0.3317  0.8318
   13CHTO  H221 5134   7.354   5.282   1.257 -0.3856 -2.0142  0.2559
   13CHTO   N20 5135   7.378   5.459   1.156  0.0737  0.8146 -0.0616
   13CHTO  H209 5136   7.357   5.514   1.065  3.6314  2.4974  0.0301
   13CHTO  H210 5137   7.334   5.505   1.243 -0.6975  1.8843 -1.0092
   13CHTO   O80 5138   7.064   5.420   1.251  0.2778 -0.4364  0.2822
   13CHTO  C103 5139   6.944   5.504   1.195  0.1023 -0.7063 -0.0645
   13CHTO  H190 5140   6.899   5.553   1.281  2.2760  0.3640  0.4753
   13CHTO  C101 5141   6.970   5.615   1.081 -0.6630  0.3616 -0.7184
   13CHTO  H188 5142   7.028   5.561   1.005 -1.5212 -2.4646  0.5878
   13CHTO   O68 5143   7.037   5.735   1.144 -0.3385  0.1930  0.3870
   13CHTO  H168 5144   7.038   5.805   1.082 -0.8100  1.0997  1.3790
   13CHTO   C99 5145   6.832   5.651   1.012 -0.2987 -0.2217  0.0353
   13CHTO  H186 5146   6.775   5.709   1.087  1.8187  1.6912  0.2192
   13CHTO   N17 5147   6.849   5.750   0.900  0.5091 -0.1992 -0.0919
   13CHTO  H174 5148   6.749   5.761   0.861  0.5554 -1.5063 -0.6007
   13CHTO  H175 5149   6.881   5.841   0.949  1.2264  0.1253 -1.1355
   13CHTO   C97 5150   6.746   5.532   0.969  1.0919 -0.0946  0.7676
   13CHTO  H184 5151   6.785   5.462   0.894 -0.5874 -0.8592  0.5801
   13CHTO   O64 5152   6.727   5.463   1.096 -0.4393 -0.1598  0.2479
   13CHTO  C104 5153   6.842   5.396   1.145 -0.1493  0.8672 -0.4674
   13CHTO  H191 5154   6.895   5.332   1.073 -1.2779 -0.6184 -0.0033
   13CHTO  C108 5155   6.790   5.296   1.249 -0.2356  0.2241 -0.6968
   13CHTO   O71 5156   6.720   5.189   1.185 -0.0026  0.2669 -0.4823
   13CHTO  H171 5157   6.677   5.145   1.256 -0.8347  1.9855  0.1127
   13CHTO   O62 5158   6.613   5.557   0.931 -0.2050 -0.8388 -0.3031
   13CHTO   C91 5159   6.529   5.446   0.899 -0.5022 -0.0033 -1.2146
   13CHTO  H178 5160   6.578   5.353   0.928  3.2285  2.0138 -0.7545
   13CHTO   C92 5161   6.519   5.426   0.745 -0.1177 -0.9588 -0.4315
   13CHTO  H179 5162   6.508   5.518   0.686  0.1908 -0.7013 -0.0908
   13CHTO   O66 5163   6.651   5.378   0.705  0.1892  0.3226 -0.4048
   13CHTO  H166 5164   6.716   5.444   0.721  0.4741  0.2850 -1.3637
   13CHTO   C93 5165   6.403   5.328   0.698  0.1037 -0.4452 -0.1471
   13CHTO  H180 5166   6.435   5.230   0.738  0.4190  0.3619  1.6116
   13CHTO   N16 5167   6.391   5.315   0.553 -0.0451  0.1916 -0.1664
   13CHTO  H172 5168   6.488   5.287   0.514  1.0433  1.4998  1.4922
   13CHTO  H173 5169   6.313   5.248   0.520 -1.2605  2.0400 -1.0812
   13CHTO   C94 5170   6.275   5.362   0.765  0.4973 -0.0851  0.0300
   13CHTO  H181 5171   6.237   5.461   0.738 -4.4869 -1.1368  2.6718
   13CHTO   O61 5172   6.298   5.350   0.905 -0.5422 -0.2815 -0.5459
   13CHTO   C95 5173   6.383   5.450   0.966 -0.3956 -0.0955 -0.2706
   13CHTO  H182 5174   6.338   5.548   0.955 -1.9583 -0.8088 -0.4210
   13CHTO  C106 5175   6.386   5.415   1.120 -0.1678 -0.0045  0.0847
   13CHTO   O69 5176   6.377   5.532   1.202  0.5048 -0.0354  0.1948
   13CHTO  H169 5177   6.319   5.596   1.164  0.5670  1.8432  3.0209
   13CHTO   O63 5178   6.169   5.246   0.737  0.1823  0.2346  0.7258
   13CHTO   C96 5179   6.025   5.246   0.817  0.2372 -0.7387  0.1997
   13CHTO  H183 5180   5.954   5.198   0.750 -0.6269  0.6025  0.1258
   13CHTO   C98 5181   5.976   5.389   0.855 -0.6046  0.4860 -0.0140
   13CHTO  H185 5182   6.054   5.440   0.914 -0.0801 -1.1964  0.7705
   13CHTO   O67 5183   5.949   5.461   0.737 -0.4763  0.1448 -0.3319
   13CHTO  H167 5184   5.977   5.550   0.748 -2.1870  0.6800 -0.0685
   13CHTO  C102 5185   5.842   5.385   0.942 -0.4244 -0.7243  0.0158
   13CHTO  H189 5186   5.761   5.354   0.874  0.4447 -0.8702 -0.9643
   13CHTO   N18 5187   5.792   5.520   0.989 -0.6945  0.4775 -0.8917
   13CHTO  H176 5188   5.803   5.594   0.911 -0.3533  0.2339 -1.0760
   13CHTO  H177 5189   5.823   5.557   1.086 -3.7544 -1.9631  1.1256
   13CHTO  C105 5190   5.857   5.286   1.059  0.4380  0.1711 -0.2096
   13CHTO  H192 5191   5.937   5.326   1.121  1.3253 -0.1537 -1.1239
   13CHTO   O65 5192   5.906   5.157   1.007  0.1274 -0.5347 -0.8475
   13CHTO  C100 5193   6.034   5.163   0.942 -0.0316 -0.6282  0.1450
   13CHTO  H187 5194   6.112   5.203   1.009  0.7293 -0.1117 -1.0303
   13CHTO  C107 5195   6.076   5.016   0.905  0.3140 -0.3995 -0.2694
   13CHTO   O70 5196   6.075   4.915   1.012 -0.0166 -0.2626 -0.0627
   13CHTO  H170 5197   6.073   4.828   0.978 -1.1380  0.2641 -1.3907
   13CHTO   O57 5198   5.714   5.264   1.129 -0.0489  0.9404  0.1121
   13CHTO   C85 5199   5.620   5.181   1.065 -0.3252 -0.0963 -0.4676
   13CHTO  H157 5200   5.668   5.146   0.972  1.4992 -0.1828  0.4812
   13CHTO   C83 5201   5.496   5.270   1.030 -0.7074 -1.0073 -0.3054
   13CHTO  H155 5202   5.529   5.360   0.977 -1.0137 -0.0917  1.0260
   13CHTO   O56 5203   5.442   5.323   1.153 -0.3684  1.0316 -0.2079
   13CHTO  H135 5204   5.516   5.366   1.192  1.3845  0.5897 -2.9130
   13CHTO   C81 5205   5.396   5.186   0.941 -0.3959 -0.1054  0.1058
   13CHTO  H153 5206   5.450   5.147   0.854 -0.5699  0.5657 -0.3119
   13CHTO   N14 5207   5.292   5.271   0.873 -0.3135  0.1858 -0.5231
   13CHTO  H141 5208   5.232   5.323   0.944 -1.8491 -0.9180 -0.9800
   13CHTO  H142 5209   5.232   5.227   0.796 -2.1421 -0.2227  1.0952
   13CHTO   C79 5210   5.345   5.067   1.028  0.3572 -0.8234 -0.4374
   13CHTO  H151 5211   5.286   5.000   0.966  1.9770 -1.6054 -1.1459
   13CHTO   O52 5212   5.453   4.983   1.080 -0.1177 -0.2740 -0.4091
   13CHTO   C86 5213   5.562   5.058   1.148 -0.1711 -0.0363 -0.0111
   13CHTO  H158 5214   5.510   5.091   1.241  1.1625  0.3737  0.6070
   13CHTO   C90 5215   5.683   4.975   1.196 -0.2858  0.1818 -0.0703
   13CHTO   O60 5216   5.749   4.913   1.090 -0.6443 -0.0815  0.0716
   13CHTO  H138 5217   5.824   4.872   1.129  0.5416  1.1098 -0.9302
   13CHTO   O50 5218   5.264   5.100   1.142  0.1987  0.2098 -0.7597
   13CHTO   C73 5219   5.122   5.084   1.178 -0.3610 -0.7416  0.3900
   13CHTO  H145 5220   5.068   5.044   1.090  0.9156 -0.5263 -0.5107
   13CHTO   C74 5221   5.064   5.221   1.205 -0.8312 -0.9243 -0.1841
   13CHTO  H146 5222   5.072   5.284   1.115  2.6332  1.9229  1.9633
   13CHTO   O54 5223   4.922   5.200   1.222  0.1137 -0.3786  0.0728
   13CHTO  H133 5224   4.873   5.271   1.260 -0.2072 -0.4759 -0.1537
   13CHTO   C75 5225   5.130   5.281   1.322  0.7070  0.0219 -0.1413
   13CHTO  H147 5226   5.237   5.291   1.298  0.8781  2.5640  1.4654
   13CHTO   N13 5227   5.076   5.417   1.342  0.4323 -0.2305  0.3844
   13CHTO  H139 5228   4.970   5.407   1.324  0.1665  0.8641  1.2998
   13CHTO  H140 5229   5.093   5.468   1.435 -0.3149  1.1007 -0.1935
   13CHTO   C76 5230   5.109   5.191   1.454 -0.4400  0.3622  0.2690
   13CHTO  H148 5231   5.003   5.179   1.475 -0.2354  0.3907  1.3601
   13CHTO   O49 5232   5.164   5.054   1.424  1.1898 -0.0300 -0.3211
   13CHTO   C77 5233   5.109   4.997   1.304 -0.3821 -0.1501 -1.3135
   13CHTO  H149 5234   5.004   4.970   1.317 -0.2825 -0.6594 -1.5324
   13CHTO   C88 5235   5.168   4.856   1.294  0.2024  0.3354 -0.2569
   13CHTO   O58 5236   5.140   4.775   1.172  0.3793 -0.3316 -0.2211
   13CHTO  H136 5237   5.091   4.819   1.105 -2.0805  0.8378  2.2351
   13CHTO   O51 5238   5.190   5.240   1.584  0.4061 -0.1476  0.0288
   13CHTO   C78 5239   5.354   5.255   1.590 -0.3033  0.3278  0.0151
   13CHTO  H150 5240   5.385   5.271   1.695  0.4503 -0.7878 -0.0246
   13CHTO   C80 5241   5.400   5.383   1.508  0.4182  0.3131 -0.3094
   13CHTO  H152 5242   5.370   5.368   1.403  2.5146  0.7109 -1.0034
   13CHTO   O55 5243   5.329   5.493   1.562  0.2017  0.0474  0.6433
   13CHTO  H134 5244   5.254   5.507   1.508  1.3492  0.1354 -0.9615
   13CHTO   C84 5245   5.555   5.410   1.511 -0.4884 -0.4948  0.2611
   13CHTO  H156 5246   5.587   5.445   1.609 -0.8252 -0.1048  0.2310
   13CHTO   N15 5247   5.593   5.522   1.424 -0.1358  0.0722  0.2445
   13CHTO  H143 5248   5.700   5.529   1.429 -0.1776  1.0010 -0.0145
   13CHTO  H144 5249   5.550   5.605   1.477  1.6518  0.4341  1.1784
   13CHTO   C87 5250   5.629   5.281   1.480  0.2787 -0.2393 -0.1926
   13CHTO  H159 5251   5.642   5.269   1.372  3.6167  0.9280  0.0405
   13CHTO   O53 5252   5.577   5.160   1.534 -0.1064  0.1825  0.0494
   13CHTO   C82 5253   5.431   5.134   1.529 -0.0887 -0.2284 -0.5739
   13CHTO  H154 5254   5.408   5.124   1.423 -3.1824  2.7453 -0.2606
   13CHTO   C89 5255   5.392   4.998   1.600  0.2510 -0.2017  0.0086
   13CHTO   O59 5256   5.470   4.890   1.542  0.0340  0.3244  0.4921
   13CHTO  H137 5257   5.544   4.915   1.490  1.5892 -2.4174  1.2902
   13CHTO   O45 5258   5.779   5.302   1.543  0.2227 -0.9197  0.9562
   13CHTO   C67 5259   5.875   5.211   1.482 -0.6310 -0.2996 -0.3777
   13CHTO  H124 5260   5.832   5.159   1.396 -0.3127 -1.6114  0.2456
   13CHTO   C65 5261   5.997   5.295   1.436  0.9941  0.6545  0.6466
   13CHTO  H122 5262   5.948   5.364   1.368 -0.0387 -1.6216 -0.9596
   13CHTO   O44 5263   6.080   5.213   1.350 -0.0695 -0.0303 -0.2517
   13CHTO  H102 5264   6.098   5.135   1.399 -0.7181  0.1116  0.2206
   13CHTO   C63 5265   6.067   5.363   1.553 -0.0307  0.2355  0.0378
   13CHTO  H120 5266   5.993   5.425   1.602 -0.1891 -0.8810  1.2327
   13CHTO   N11 5267   6.163   5.463   1.513  0.1176  0.1223  0.1654
   13CHTO  H108 5268   6.106   5.533   1.456  1.4463  2.9780  2.2158
   13CHTO  H109 5269   6.232   5.420   1.444  0.1764  1.0382 -0.3527
   13CHTO   C61 5270   6.115   5.253   1.654  0.2628 -0.4135 -0.4345
   13CHTO  H118 5271   6.129   5.308   1.749 -1.3036 -3.0825  1.4238
   13CHTO   O40 5272   6.014   5.152   1.681  0.0038  0.1115  0.0887
   13CHTO   C68 5273   5.917   5.106   1.583 -0.5129 -0.1423 -0.2184
   13CHTO  H125 5274   5.824   5.075   1.634 -0.6097 -1.0455 -0.9450
   13CHTO   C72 5275   5.977   4.977   1.517  0.1233  0.2317 -0.3243
   13CHTO   O48 5276   6.001   4.876   1.615 -0.2397 -0.2948 -0.3244
   13CHTO  H105 5277   6.074   4.902   1.667  1.6165 -0.0056 -2.9871
   13CHTO   O38 5278   6.238   5.193   1.620  0.0103  0.2904 -0.0704
   13CHTO   C55 5279   6.346   5.180   1.718 -0.3603 -0.1477  0.3370
   13CHTO  H112 5280   6.403   5.094   1.680 -1.9335 -1.1828  0.2957
   13CHTO   C56 5281   6.303   5.149   1.874  0.1661 -0.1735 -0.3337
   13CHTO  H113 5282   6.230   5.224   1.909 -2.8114 -3.8718  1.7552
   13CHTO   O42 5283   6.235   5.028   1.884 -0.1851 -0.8152  0.0345
   13CHTO  H100 5284   6.234   5.000   1.973 -0.1666 -0.3573  0.1825
   13CHTO   C57 5285   6.423   5.141   1.971 -0.0058  0.3341  0.2764
   13CHTO  H114 5286   6.493   5.062   1.948  0.6442  1.0845 -0.3595
   13CHTO   N10 5287   6.387   5.121   2.117 -0.4264  0.4247 -0.1764
   13CHTO  H106 5288   6.292   5.072   2.130 -1.6306  2.3711 -1.3309
   13CHTO  H107 5289   6.468   5.065   2.160 -0.9016 -0.7105 -0.7497
   13CHTO   C58 5290   6.497   5.283   1.953  0.2365  0.0749  0.0806
   13CHTO  H115 5291   6.424   5.356   1.994 -0.7201 -1.4706  1.2303
   13CHTO   O37 5292   6.534   5.296   1.809 -0.1898 -0.4565  0.0429
   13CHTO   C59 5293   6.433   5.310   1.711 -0.7099  0.0470  0.0887
   13CHTO  H116 5294   6.370   5.399   1.719  0.6072  1.1640 -1.6000
   13CHTO   C70 5295   6.498   5.314   1.573 -0.3783  0.4168  0.4291
   13CHTO   O46 5296   6.566   5.198   1.540  0.6907 -0.6266  0.3463
   13CHTO  H103 5297   6.653   5.192   1.575  1.8536  0.7385 -2.2036
   13CHTO   O39 5298   6.639   5.278   2.049  0.5003 -0.3491 -0.6753
   13CHTO   C60 5299   6.719   5.396   2.029 -0.8886  0.1267  0.0896
   13CHTO  H117 5300   6.713   5.431   1.926 -0.7927 -2.0344 -0.6927
   13CHTO   C62 5301   6.674   5.512   2.126 -0.4874 -0.2340 -0.8453
   13CHTO  H119 5302   6.564   5.519   2.115 -1.0504 -1.8073  2.9800
   13CHTO   O43 5303   6.684   5.468   2.261  0.2991 -0.1346  0.4004
   13CHTO  H101 5304   6.602   5.434   2.292  0.8589 -0.3268  1.7024
   13CHTO   C66 5305   6.752   5.651   2.091  0.1632 -0.0035 -0.2095
   13CHTO  H123 5306   6.739   5.668   1.984  0.6641 -1.0032 -0.4430
   13CHTO   N12 5307   6.687   5.761   2.161 -0.2078 -0.2680 -0.1242
   13CHTO  H110 5308   6.730   5.851   2.120 -0.6639  0.8412  1.8015
   13CHTO  H111 5309   6.707   5.744   2.265 -0.6874  1.2600  0.2331
   13CHTO   C69 5310   6.904   5.625   2.125  0.4650  0.0938 -0.1292
   13CHTO  H126 5311   6.931   5.619   2.233 -4.4727  0.6379  1.2772
   13CHTO   O41 5312   6.951   5.501   2.054 -0.0555  0.6235 -0.2725
   13CHTO   C64 5313   6.862   5.370   2.056 -0.0512  0.5301 -0.2990
   13CHTO  H121 5314   6.865   5.324   2.157 -1.0039 -1.3898 -1.1340
   13CHTO   C71 5315   6.929   5.261   1.960 -0.0881 -0.1126  0.1482
   13CHTO   O47 5316   7.068   5.245   1.995  0.4419  0.0973  0.4057
   13CHTO  H104 5317   7.074   5.236   2.088 -0.1593 -0.7495  0.3562
   13CHTO   O34 5318   6.985   5.732   2.075 -0.7974  0.2517 -0.5781
   13CHTO   C49 5319   7.130   5.805   2.084 -0.1879  0.7492  0.1349
   13CHTO   H91 5320   7.201   5.724   2.067  0.1072  0.9392  0.4691
   13CHTO   C47 5321   7.153   5.863   2.228  0.5536  0.2565 -0.4214
   13CHTO   H89 5322   7.261   5.892   2.226  1.0602 -1.2871  2.2052
   13CHTO   O33 5323   7.133   5.764   2.328  0.2564 -0.5147 -0.1984
   13CHTO   H70 5324   7.201   5.700   2.325  1.5189  0.7872  0.3429
   13CHTO   C45 5325   7.066   5.999   2.254  0.0107  0.2324 -0.9119
   13CHTO   H87 5326   6.974   5.971   2.308 -0.4068  1.9673 -0.6895
   13CHTO    N8 5327   7.147   6.094   2.339  0.6200  0.3828  0.2402
   13CHTO   H75 5328   7.250   6.065   2.330 -0.3915 -2.6617 -2.9013
   13CHTO   H76 5329   7.135   6.197   2.309  1.2870  0.6420  0.8675
   13CHTO   C43 5330   7.005   6.056   2.112 -0.4336  0.3948  0.2475
   13CHTO   H85 5331   6.922   5.988   2.091  0.3472 -1.3275  2.4834
   13CHTO   O29 5332   7.109   6.049   2.011  0.1638 -0.3372 -0.4684
   13CHTO   C50 5333   7.165   5.921   1.985  0.2409 -0.0927 -0.6249
   13CHTO   H92 5334   7.140   5.895   1.881 -3.1501 -2.1381  0.6261
   13CHTO   C54 5335   7.314   5.938   1.977  0.3503 -0.5215  0.2957
   13CHTO   O36 5336   7.352   6.014   1.858  0.1541 -0.7243  0.4216
   13CHTO   H72 5337   7.349   6.107   1.871  1.2422 -0.5704 -0.3573
   13CHTO   O27 5338   6.944   6.183   2.123 -0.2465 -0.1190 -0.1778
   13CHTO   C37 5339   6.942   6.322   2.128  0.0313 -0.7941  0.5918
   13CHTO   H79 5340   6.999   6.358   2.215 -1.4683 -1.5955  1.9334
   13CHTO   C38 5341   6.988   6.384   1.994  0.3409 -0.3349  0.0783
   13CHTO   H80 5342   6.943   6.329   1.910 -0.1940  2.0923 -1.2914
   13CHTO   O31 5343   7.133   6.369   1.984 -0.1121 -0.0954  0.2721
   13CHTO   H68 5344   7.162   6.281   1.975 -0.0862  0.0394 -1.0258
   13CHTO   C39 5345   6.957   6.535   1.981  0.3790 -0.3961  0.4583
   13CHTO   H81 5346   7.031   6.586   2.042 -0.2828 -0.6076  1.4516
   13CHTO    N7 5347   6.985   6.583   1.838 -0.7928 -0.0290  0.2121
   13CHTO   H73 5348   7.015   6.687   1.831  3.3878 -1.2396 -1.9915
   13CHTO   H74 5349   6.912   6.541   1.770  0.0651 -1.1257 -0.0671
   13CHTO   C40 5350   6.816   6.577   2.024 -0.0624 -0.0720  0.0848
   13CHTO   H82 5351   6.739   6.570   1.948 -0.9128 -1.8383  1.0956
   13CHTO   O26 5352   6.779   6.509   2.144 -0.6508 -0.0811 -0.1258
   13CHTO   C41 5353   6.789   6.365   2.152  0.5288  0.9029 -0.0165
   13CHTO   H83 5354   6.722   6.319   2.077 -1.1551 -0.3888  2.2410
   13CHTO   C52 5355   6.732   6.321   2.292  0.4586  0.9557 -0.1547
   13CHTO   O35 5356   6.821   6.382   2.402  0.0227  0.5275 -0.2191
   13CHTO   H71 5357   6.907   6.404   2.371  0.5179  0.8284  1.2833
   13CHTO   O28 5358   6.830   6.708   2.086  0.8757 -0.0444  0.1265
   13CHTO   C42 5359   6.792   6.843   2.021 -0.1717  0.2159  0.2350
   13CHTO   H84 5360   6.815   6.837   1.914  0.9158 -0.3245  0.4923
   13CHTO   C44 5361   6.881   6.960   2.069 -0.2585  0.1176  0.6824
   13CHTO   H86 5362   6.870   6.963   2.177  0.6830  2.4089  0.7403
   13CHTO   O32 5363   7.013   6.929   2.030 -0.1929 -0.0995  0.5784
   13CHTO   H69 5364   7.066   7.004   2.053 -1.0559  0.5038  0.6108
   13CHTO   C48 5365   6.842   7.100   2.008 -0.5708 -0.3073 -0.1529
   13CHTO   H90 5366   6.857   7.101   1.900 -0.7563 -1.9796 -0.2063
   13CHTO    N9 5367   6.919   7.214   2.074 -0.0153  0.0567  0.1878
   13CHTO   H77 5368   7.004   7.168   2.123  1.5504  1.0132 -1.5603
   13CHTO   H78 5369   6.856   7.271   2.141  3.8562  1.4366  2.8292
   13CHTO   C51 5370   6.689   7.126   2.014  0.0877 -0.5575 -0.0966
   13CHTO   H93 5371   6.663   7.138   2.119  4.6841  1.2222  0.9467
   13CHTO   O30 5372   6.620   7.019   1.951  0.1226  0.4578 -0.8098
   13CHTO   C46 5373   6.641   6.883   2.031  0.1522 -0.2849  0.0905
   13CHTO   H88 5374   6.622   6.890   2.138 -0.6329  2.1073 -0.1925
   13CHTO   C53 5375   6.547   6.781   1.973 -0.4812  0.2486 -0.3783
   13CHTO   O72 5376   6.407   6.813   1.988  0.2744  0.1791  0.3059
   13CHTO  H199 5377   6.371   6.803   1.902 -0.4756  0.7582  0.5476
   13CHTO   O22 5378   6.648   7.253   1.950 -0.4435 -0.1617  0.2862
   13CHTO   C31 5379   6.514   7.307   1.978 -0.3415 -0.4959  0.1382
   13CHTO   H59 5380   6.505   7.393   1.909  1.4475 -1.7557 -1.7256
   13CHTO   C29 5381   6.395   7.208   1.951  0.7154 -0.6549 -0.0950
   13CHTO   H57 5382   6.406   7.126   2.023  0.4079 -0.3116  0.3421
   13CHTO   O21 5383   6.403   7.157   1.822  0.5673  0.2455 -0.5232
   13CHTO   H37 5384   6.320   7.128   1.790  0.4586 -1.5875  1.2626
   13CHTO   C27 5385   6.253   7.270   1.982  1.8916 -0.0523 -0.0396
   13CHTO   H55 5386   6.235   7.355   1.915 -0.6938  0.7222  1.5548
   13CHTO    N5 5387   6.147   7.166   1.968  0.1060 -0.1374  0.0312
   13CHTO   H43 5388   6.160   7.117   1.873 -1.0651 -0.1734 -0.1175
   13CHTO   H44 5389   6.149   7.097   2.052  1.4570 -0.3729 -0.1978
   13CHTO   C25 5390   6.257   7.332   2.125  0.3367  0.0262 -0.1000
   13CHTO   H53 5391   6.269   7.250   2.197  0.6823  1.2619  1.2526
   13CHTO   O17 5392   6.372   7.423   2.134 -0.3381  0.4543 -0.6947
   13CHTO   C32 5393   6.504   7.370   2.122 -0.1847  0.3275 -0.3896
   13CHTO   H60 5394   6.519   7.296   2.200 -1.1412  0.5550  0.0208
   13CHTO   C36 5395   6.610   7.480   2.140  0.2051 -0.6439  0.1863
   13CHTO   O25 5396   6.613   7.526   2.275  0.4594  0.2585  0.1607
   13CHTO   H40 5397   6.529   7.568   2.284  0.9380  1.1252  0.7862
   13CHTO   O15 5398   6.135   7.403   2.154 -0.3686 -0.5718 -0.1625
   13CHTO   C19 5399   5.992   7.455   2.134  0.4800 -0.2868  0.4233
   13CHTO   H47 5400   5.963   7.498   2.231 -0.3481 -0.6531  0.3407
   13CHTO   C20 5401   6.001   7.568   2.028  0.4520 -0.4390 -0.0778
   13CHTO   H48 5402   6.043   7.535   1.932  0.1117  2.5206 -1.3133
   13CHTO   O19 5403   6.095   7.667   2.075  0.0517  0.6101 -0.6536
   13CHTO   H35 5404   6.074   7.711   2.155  0.6266 -1.1685  0.4951
   13CHTO   C21 5405   5.852   7.632   1.992  0.2420 -0.4619  0.3292
   13CHTO   H49 5406   5.808   7.673   2.083 -1.1891 -2.6636  0.6739
   13CHTO    N4 5407   5.858   7.744   1.900 -0.4730  0.4556  1.2162
   13CHTO   H41 5408   5.760   7.790   1.892 -0.9816 -0.6999  0.7187
   13CHTO   H42 5409   5.887   7.714   1.801  0.2407 -0.5434  1.7203
   13CHTO   C22 5410   5.762   7.508   1.953 -0.3674 -0.2847  0.4364
   13CHTO   H50 5411   5.803   7.456   1.866 -0.0025 -0.4943  0.7347
   13CHTO   O14 5412   5.753   7.416   2.056 -0.0524  0.4609 -0.0418
   13CHTO   C23 5413   5.879   7.352   2.094  0.7091 -0.0554  0.2069
   13CHTO   H51 5414   5.909   7.282   2.015 -0.6601 -1.0433  0.5475
   13CHTO   C34 5415   5.849   7.258   2.210 -0.5723  0.6444 -0.4774
   13CHTO   O23 5416   5.807   7.132   2.158  0.1519 -0.8348 -0.0834
   13CHTO   H38 5417   5.787   7.068   2.223  0.4057 -0.7220  0.1067
   13CHTO   O16 5418   5.628   7.556   1.920 -0.1866  0.0851 -0.2416
   13CHTO   C24 5419   5.487   7.474   1.965 -0.3351  0.4725  0.0026
   13CHTO   H52 5420   5.492   7.433   2.066  0.0718  0.7899  0.1090
   13CHTO   C26 5421   5.456   7.354   1.871  0.1733 -0.5090  0.2923
   13CHTO   H54 5422   5.466   7.392   1.768  0.4821 -1.1144  0.0968
   13CHTO   O20 5423   5.559   7.255   1.909  0.0870 -0.2852  0.5952
   13CHTO   H36 5424   5.612   7.251   1.831  0.3128 -0.3382  0.7522
   13CHTO   C30 5425   5.312   7.294   1.893  0.3506 -0.5182 -0.0222
   13CHTO   H58 5426   5.323   7.240   1.988  2.4967  0.4810  0.3364
   13CHTO    N6 5427   5.277   7.205   1.783 -0.0699  0.1492  0.2746
   13CHTO   H45 5428   5.196   7.134   1.794 -0.3167  0.1027 -1.6786
   13CHTO   H46 5429   5.254   7.263   1.695  2.4477  1.0679  0.1831
   13CHTO   C33 5430   5.197   7.403   1.910  0.2818 -0.3740 -0.0469
   13CHTO   H61 5431   5.162   7.451   1.817 -2.0594 -1.2356  0.3618
   13CHTO   O18 5432   5.251   7.503   1.993 -0.0307  0.4997 -0.5669
   13CHTO   C28 5433   5.369   7.575   1.953 -0.0933 -0.1680 -0.0074
   13CHTO   H56 5434   5.361   7.608   1.850 -1.3549 -1.6977 -0.4053
   13CHTO   C35 5435   5.383   7.689   2.060 -0.2020  0.2105  0.2947
   13CHTO   O24 5436   5.485   7.782   2.041 -0.1563  0.3198  0.6163
   13CHTO   H39 5437   5.480   7.845   2.111 -2.0447  1.7063 -0.7286
   13CHTO    O9 5438   5.076   7.349   1.964  0.3716  0.2326 -0.4443
   13CHTO   C13 5439   5.095   7.281   2.125  0.2868 -0.1947 -0.6378
   13CHTO   H26 5440   5.200   7.300   2.156  0.4905  1.7321 -2.3476
   13CHTO   C11 5441   5.062   7.124   2.115 -0.8499  0.1296  0.1155
   13CHTO   H24 5442   5.143   7.068   2.065 -2.1284 -1.3234 -0.4047
   13CHTO    O8 5443   4.950   7.118   2.029 -0.0075 -0.4985 -0.0019
   13CHTO    H3 5444   4.904   7.037   2.040 -0.3130  0.1249  3.9944
   13CHTO    C9 5445   5.042   7.067   2.255 -0.3994 -0.6116 -0.2682
   13CHTO   H22 5446   5.140   7.071   2.305  0.8476 -4.9557 -2.1346
   13CHTO    N2 5447   5.011   6.921   2.253 -0.5809 -0.6906  0.6440
   13CHTO   H10 5448   4.904   6.909   2.264 -0.5314  0.3355  2.3987
   13CHTO   H11 5449   5.043   6.872   2.344  1.4502 -1.7885 -0.6177
   13CHTO    C7 5450   4.930   7.160   2.338  1.1947  0.0838  0.5381
   13CHTO   H20 5451   4.987   7.198   2.425 -1.2870  0.0616  2.2026
   13CHTO    O4 5452   4.883   7.264   2.251 -0.1882  0.3750  0.4390
   13CHTO   C14 5453   4.997   7.351   2.231 -0.7344  0.0375  0.0007
   13CHTO   H27 5454   5.051   7.361   2.327 -0.3847 -1.1338 -0.0653
   13CHTO   C18 5455   4.952   7.496   2.195 -0.0091 -0.0747 -0.2465
   13CHTO   O13 5456   4.858   7.545   2.289  0.7541  0.3131  0.6047
   13CHTO    H7 5457   4.889   7.541   2.377  1.5945 -2.5698  0.2503
   13CHTO    O2 5458   4.804   7.078   2.383 -0.0140  0.7352  0.1445
   13CHTO    C1 5459   4.733   7.124   2.502  0.1934 -0.1603  0.6291
   13CHTO   H14 5460   4.771   7.226   2.521  0.7312 -0.0190 -1.0775
   13CHTO    C2 5461   4.743   7.036   2.632 -0.5765 -0.6706 -0.0386
   13CHTO   H15 5462   4.678   6.949   2.612  0.2108 -1.2402 -0.1549
   13CHTO    O6 5463   4.881   6.995   2.651 -0.2605 -0.1477 -0.9307
   13CHTO    H1 5464   4.940   7.063   2.679 -1.2234  1.1911 -2.1007
   13CHTO    C3 5465   4.681   7.115   2.754 -0.4583 -0.0154 -0.5236
   13CHTO   H16 5466   4.729   7.212   2.774  0.7976 -0.5817 -0.7494
   13CHTO    N1 5467   4.697   7.036   2.885  0.0433 -0.7988 -0.1851
   13CHTO    H8 5468   4.798   6.997   2.895  0.4680  0.7327  1.7462
   13CHTO    H9 5469   4.628   6.954   2.900 -1.2807  0.3771  0.1643
   13CHTO    C4 5470   4.526   7.140   2.725 -0.1056  0.3528 -0.5061
   13CHTO   H17 5471   4.480   7.041   2.715  1.5282 -0.6413  1.4685
   13CHTO    O1 5472   4.513   7.200   2.592 -0.3287 -0.8946  0.2589
   13CHTO    C5 5473   4.584   7.138   2.479  0.4746 -0.3600 -0.5956
   13CHTO   H18 5474   4.549   7.038   2.451  0.7317  0.1213 -2.6859
   13CHTO   C16 5475   4.550   7.233   2.364 -0.8179  0.1197  0.2458
   13CHTO   O11 5476   4.408   7.222   2.335  0.4971  0.3242 -0.1636
   13CHTO    H5 5477   4.392   7.248   2.246 -1.7332 -0.8456 -0.1565
   13CHTO    O3 5478   4.451   7.217   2.819  0.0503  0.5166 -0.6359
   13CHTO    C6 5479   4.310   7.181   2.844 -0.0266  0.9145 -0.6933
   13CHTO   H19 5480   4.274   7.106   2.773  1.2287  0.1230 -0.5023
   13CHTO    C8 5481   4.293   7.132   2.990 -0.3354 -0.1399 -0.0905
   13CHTO   H21 5482   4.331   7.213   3.052 -1.0088  0.2190 -0.1385
   13CHTO    O7 5483   4.364   7.013   3.011 -0.0007 -0.6510 -0.4817
   13CHTO    H2 5484   4.361   6.960   2.934 -1.9647 -1.3884  0.0858
   13CHTO   C12 5485   4.140   7.124   3.034  0.1937  0.8001 -0.0291
   13CHTO   H25 5486   4.104   7.043   2.968 -0.7083  1.5709 -0.4918
   13CHTO    N3 5487   4.123   7.080   3.173  0.7927 -0.9428 -0.2497
   13CHTO   H12 5488   4.072   6.984   3.173  1.7816 -1.4715 -0.9184
   13CHTO   H13 5489   4.057   7.155   3.215 -2.6854 -1.4298 -4.4569
   13CHTO   C15 5490   4.079   7.259   2.991 -0.0770 -0.0200  0.2027
   13CHTO   H28 5491   4.116   7.347   3.044  2.8768 -0.1488 -1.5660
   13CHTO   O10 5492   3.931   7.255   2.996  0.3816  0.1915  0.4778
   13CHTO    H4 5493   3.895   7.341   2.989 -0.1129 -0.3013 -4.0684
   13CHTO    O5 5494   4.092   7.289   2.850  0.3152  0.5821 -0.5237
   13CHTO   C10 5495   4.226   7.310   2.816 -0.1271 -0.2359  0.0178
   13CHTO   H23 5496   4.264   7.385   2.885  0.9218 -1.5966  0.9380
   13CHTO   C17 5497   4.222   7.352   2.666 -0.3734  0.1595  0.0581
   13CHTO   O12 5498   4.340   7.423   2.631 -0.1240  0.6542  0.4068
   13CHTO    H6 5499   4.409   7.361   2.621  0.2129  1.1787 -0.5158
   14CHTO  H203 5500   7.094   4.716   1.775 -0.4652  0.9966 -0.7965
   14CHTO   O82 5501   7.014   4.668   1.770 -0.0381  0.1449  0.5660
   14CHTO  C123 5502   6.943   4.719   1.653  0.1945  0.1143 -0.8481
   14CHTO  H227 5503   7.010   4.776   1.588  0.5185 -0.2433 -0.8266
   14CHTO   O77 5504   6.902   4.603   1.582  0.5507  0.1550  0.1441
   14CHTO  C118 5505   6.810   4.632   1.477  0.1043 -0.2981 -0.4436
   14CHTO  H222 5506   6.858   4.703   1.409 -1.2278  0.0241 -1.0685
   14CHTO  C125 5507   6.783   4.499   1.399  0.1611 -0.4222  0.6025
   14CHTO   O84 5508   6.890   4.481   1.313 -0.0499  0.4063  0.1679
   14CHTO  H205 5509   6.861   4.442   1.232 -0.1486 -0.8935  0.8092
   14CHTO  C114 5510   6.681   4.697   1.529 -0.5121 -0.4498  0.0145
   14CHTO  H218 5511   6.635   4.628   1.600 -2.7060 -1.0306 -1.9301
   14CHTO  C116 5512   6.718   4.834   1.605  0.4620  0.4852  0.0026
   14CHTO  H220 5513   6.759   4.906   1.532 -0.9662  1.9972  0.6397
   14CHTO   O79 5514   6.596   4.908   1.653  0.5225 -0.3998  0.0984
   14CHTO  H201 5515   6.530   4.851   1.687  1.1464 -1.3141 -0.2097
   14CHTO  C120 5516   6.823   4.804   1.715 -0.4171  0.0066  0.3001
   14CHTO  H224 5517   6.776   4.753   1.802  0.9352 -2.1569 -0.1879
   14CHTO   N21 5518   6.870   4.929   1.782 -0.0158  0.6393  0.7388
   14CHTO  H211 5519   6.947   4.988   1.734 -0.9503  1.7080  0.5322
   14CHTO  H212 5520   6.899   4.917   1.885 -0.7086  0.2295  0.8875
   14CHTO   O75 5521   6.606   4.709   1.409 -0.4219 -0.2845  0.4748
   14CHTO  C112 5522   6.452   4.678   1.418 -0.0696  0.3681 -0.0702
   14CHTO  H216 5523   6.419   4.738   1.503  1.3788 -0.4798  1.1075
   14CHTO   O73 5524   6.437   4.536   1.443 -0.0868 -0.3843  0.1826
   14CHTO  C113 5525   6.304   4.498   1.483  0.4590 -0.1953 -0.7179
   14CHTO  H217 5526   6.270   4.543   1.578  0.2170 -1.3284 -0.2549
   14CHTO  C124 5527   6.311   4.348   1.511 -0.9549  0.6092 -0.6085
   14CHTO   O83 5528   6.199   4.281   1.562 -0.4629  0.7287  0.0023
   14CHTO  H204 5529   6.186   4.304   1.652  1.2861 -0.6799  0.6476
   14CHTO  C109 5530   6.210   4.518   1.365 -0.0045 -0.0294  0.5911
   14CHTO  H213 5531   6.244   4.450   1.285  2.2742  1.0227  0.6293
   14CHTO  C110 5532   6.220   4.665   1.303  0.0894  0.4332  0.2428
   14CHTO  H214 5533   6.174   4.729   1.379  0.7547  0.9982  0.1714
   14CHTO   O78 5534   6.155   4.663   1.176  0.1610  1.2044  0.0567
   14CHTO  H200 5535   6.067   4.693   1.186 -0.9538 -1.9777  0.1178
   14CHTO  C111 5536   6.370   4.719   1.287 -0.3543 -0.2083 -0.6293
   14CHTO  H215 5537   6.410   4.672   1.195  2.1303 -2.0960  1.3606
   14CHTO   N19 5538   6.380   4.865   1.271  0.0026 -0.0179 -0.3178
   14CHTO  H207 5539   6.481   4.888   1.241 -0.3736  0.9300 -0.8484
   14CHTO  H208 5540   6.302   4.885   1.200  1.4269  0.5449 -1.7378
   14CHTO   O74 5541   6.077   4.482   1.402 -0.2142 -0.1217  0.4875
   14CHTO  C115 5542   5.989   4.410   1.288  0.7028 -0.7195 -0.1287
   14CHTO  H219 5543   5.985   4.469   1.197  2.6040 -2.5262 -1.4362
   14CHTO   O76 5544   6.051   4.271   1.244  0.3146  0.5010 -0.0385
   14CHTO  C122 5545   5.974   4.191   1.153  0.6331  0.2589 -0.2412
   14CHTO  H226 5546   6.009   4.087   1.153 -3.1865 -1.1314  1.5949
   14CHTO  C126 5547   5.998   4.254   1.013 -0.0904 -0.3592 -0.3354
   14CHTO   O85 5548   5.944   4.177   0.900 -0.4169  0.6599  0.1156
   14CHTO  H206 5549   5.967   4.086   0.900 -0.6510  0.5950  2.1393
   14CHTO  C121 5550   5.819   4.176   1.185 -0.1428  0.2934  0.3680
   14CHTO  H225 5551   5.770   4.146   1.090 -1.6947  2.0523  0.6004
   14CHTO   O81 5552   5.795   4.067   1.283 -0.7973 -0.0519  0.5865
   14CHTO  H202 5553   5.785   4.093   1.372 -0.2484  0.6707  0.4358
   14CHTO  C119 5554   5.761   4.316   1.229 -0.0809  0.5312 -0.2104
   14CHTO  H223 5555   5.766   4.370   1.134  0.3851  0.1202 -0.4210
   14CHTO  C117 5556   5.840   4.389   1.338 -0.7475  0.2582 -0.4976
   14CHTO  H221 5557   5.854   4.335   1.432 -0.1245  0.8817 -0.2345
   14CHTO   N20 5558   5.789   4.530   1.365 -0.1316  0.0180  0.3513
   14CHTO  H209 5559   5.689   4.542   1.327 -0.0471 -0.6977 -0.1061
   14CHTO  H210 5560   5.801   4.547   1.471 -0.8954 -2.5679  0.8856
   14CHTO   O80 5561   5.588   4.308   1.261  0.1480 -0.6353 -0.1267
   14CHTO  C103 5562   5.488   4.292   1.149 -1.0079  0.7526 -0.3173
   14CHTO  H190 5563   5.536   4.300   1.051  1.6226  1.6285  0.9967
   14CHTO  C101 5564   5.400   4.163   1.165  0.6407  0.1790  0.3095
   14CHTO  H188 5565   5.368   4.156   1.269  2.2641 -0.9175  0.7593
   14CHTO   O68 5566   5.488   4.043   1.119 -0.0531  0.2532 -0.2400
   14CHTO  H168 5567   5.524   3.993   1.190  2.1333  2.8875  0.6387
   14CHTO   C99 5568   5.267   4.163   1.074  0.6292 -0.2519  0.2113
   14CHTO  H186 5569   5.297   4.161   0.967 -0.6123  1.4287 -0.1853
   14CHTO   N17 5570   5.189   4.039   1.097 -0.1294 -0.0161 -0.5982
   14CHTO  H174 5571   5.169   3.973   1.014 -1.5120  1.4982 -1.4881
   14CHTO  H175 5572   5.110   4.040   1.171  2.5280 -1.9539  2.4114
   14CHTO   C97 5573   5.197   4.298   1.091  0.0417  0.2100  0.0350
   14CHTO  H184 5574   5.157   4.307   1.193  2.0102  1.4449  0.7218
   14CHTO   O64 5575   5.284   4.399   1.059 -0.3092  0.4228 -0.1740
   14CHTO  C104 5576   5.391   4.414   1.159 -0.1145  0.1653 -0.3351
   14CHTO  H191 5577   5.352   4.425   1.260  0.5469 -0.3626 -0.0192
   14CHTO  C108 5578   5.467   4.545   1.136 -0.4198  0.7205  0.4295
   14CHTO   O71 5579   5.493   4.624   1.254  1.1841 -0.0274 -0.8104
   14CHTO  H171 5580   5.414   4.639   1.302  2.7804  0.5522  1.7271
   14CHTO   O62 5581   5.096   4.317   0.989  0.1518 -0.1208 -0.4110
   14CHTO   C91 5582   4.960   4.331   1.032  0.2546 -0.0902 -0.1827
   14CHTO  H178 5583   4.939   4.230   1.068  0.6497  0.2384  0.9744
   14CHTO   C92 5584   4.871   4.354   0.910  0.2839 -0.4281  0.4347
   14CHTO  H179 5585   4.892   4.283   0.828 -0.6011  1.2898 -1.3437
   14CHTO   O66 5586   4.737   4.328   0.947 -0.3011  0.6539  0.0034
   14CHTO  H166 5587   4.693   4.393   0.999  0.7013 -0.4627  2.3485
   14CHTO   C93 5588   4.873   4.505   0.851 -0.5771  0.4524 -0.0646
   14CHTO  H180 5589   4.777   4.522   0.801  1.0693  2.7592 -2.5672
   14CHTO   N16 5590   4.982   4.534   0.755 -0.3360  0.3019 -0.7765
   14CHTO  H172 5591   5.054   4.610   0.781 -1.2195  1.2286 -0.9864
   14CHTO  H173 5592   4.942   4.558   0.657 -1.2207 -2.6362 -1.1772
   14CHTO   C94 5593   4.883   4.614   0.968  0.2227  0.7281  0.7896
   14CHTO  H181 5594   4.980   4.664   0.970  0.0822  1.0763 -0.9279
   14CHTO   O61 5595   4.863   4.554   1.092  0.1686 -0.0215  0.0990
   14CHTO   C95 5596   4.948   4.453   1.136  0.6712  0.6393  0.7642
   14CHTO  H182 5597   5.047   4.498   1.144  1.2940 -0.5122 -0.2774
   14CHTO  C106 5598   4.907   4.431   1.284 -0.6835  0.0101  0.3193
   14CHTO   O69 5599   4.772   4.391   1.294 -0.7663  0.4325 -0.7972
   14CHTO  H169 5600   4.727   4.466   1.329 -0.8607 -0.1069  0.2592
   14CHTO   O63 5601   4.765   4.727   0.947 -0.3709  0.0868  0.2147
   14CHTO   C96 5602   4.778   4.848   1.008  0.1223  0.1931 -0.2021
   14CHTO  H183 5603   4.867   4.851   1.069 -0.5442  1.3230  0.7387
   14CHTO   C98 5604   4.647   4.882   1.083  0.5187 -0.3423  0.1221
   14CHTO  H185 5605   4.561   4.844   1.026  0.5975 -1.3113  0.6434
   14CHTO   O67 5606   4.639   4.803   1.199 -0.0367  0.1577 -0.0471
   14CHTO  H167 5607   4.549   4.809   1.227 -0.2649  0.0398 -0.7397
   14CHTO  C102 5608   4.625   5.034   1.122 -0.7063 -0.5241  0.5310
   14CHTO  H189 5609   4.701   5.052   1.200 -0.6984 -0.8288  0.5953
   14CHTO   N18 5610   4.497   5.075   1.190 -0.5284  0.1294  0.2606
   14CHTO  H176 5611   4.479   5.015   1.278 -2.5737  0.6218  0.2026
   14CHTO  H177 5612   4.412   5.074   1.123 -0.5143  0.6849  0.2320
   14CHTO  C105 5613   4.667   5.121   1.001  0.0167  0.1162 -0.2713
   14CHTO  H192 5614   4.594   5.102   0.922  0.0965 -0.7407 -0.1419
   14CHTO   O65 5615   4.798   5.089   0.941  0.1796 -0.1164  0.2624
   14CHTO  C100 5616   4.807   4.957   0.895  0.4006  0.3589 -0.0526
   14CHTO  H187 5617   4.743   4.947   0.806  2.0537 -1.6996 -1.0346
   14CHTO  C107 5618   4.948   4.943   0.834  0.3000 -0.0220 -0.8077
   14CHTO   O70 5619   4.963   5.002   0.702  0.5080  0.4885 -0.5190
   14CHTO  H170 5620   4.995   5.090   0.711 -0.1847  0.9703 -2.5574
   14CHTO   O57 5621   4.661   5.265   1.040 -0.2931  0.4629 -0.8054
   14CHTO   C85 5622   4.681   5.379   0.958  0.7718 -0.6001  0.1187
   14CHTO  H157 5623   4.626   5.350   0.866 -2.4464  2.0436  1.1185
   14CHTO   C83 5624   4.823   5.394   0.906  0.7008  0.4818 -0.2888
   14CHTO  H155 5625   4.860   5.305   0.854  0.7809  1.5187 -2.0621
   14CHTO   O56 5626   4.911   5.423   1.012  0.4606 -0.1982  0.7568
   14CHTO  H135 5627   4.995   5.443   0.978 -1.4492  1.8685 -3.0368
   14CHTO   C81 5628   4.817   5.512   0.807 -0.1672 -0.4553  0.1350
   14CHTO  H153 5629   4.747   5.491   0.726 -0.1106 -2.4125  0.5727
   14CHTO   N14 5630   4.945   5.538   0.737 -0.0130  0.4839  0.1523
   14CHTO  H141 5631   4.944   5.484   0.644  1.2070  2.1232 -0.8418
   14CHTO  H142 5632   5.024   5.504   0.800  1.5723  0.3222 -1.8701
   14CHTO   C79 5633   4.770   5.648   0.870  0.4530 -0.3894 -0.1794
   14CHTO  H151 5634   4.757   5.723   0.793  0.7220  1.4391  1.5046
   14CHTO   O52 5635   4.636   5.637   0.927  0.2996  0.0939 -0.1024
   14CHTO   C86 5636   4.628   5.517   1.009  0.1989 -0.3801 -0.7284
   14CHTO  H158 5637   4.681   5.539   1.104 -0.0655 -1.5502 -0.2890
   14CHTO   C90 5638   4.478   5.500   1.048  0.0033 -0.0132 -0.8099
   14CHTO   O60 5639   4.446   5.574   1.170 -0.3010  0.4660 -0.0735
   14CHTO  H138 5640   4.354   5.560   1.178 -0.4692  1.2952 -0.5187
   14CHTO   O50 5641   4.857   5.711   0.971 -0.1124 -0.3126  0.7279
   14CHTO   C73 5642   4.864   5.837   1.031  0.5397 -0.0953  0.1396
   14CHTO  H145 5643   4.786   5.854   1.107 -0.4055 -1.1292 -0.6010
   14CHTO   C74 5644   4.850   5.957   0.925 -0.0645 -0.9580  0.3761
   14CHTO  H146 5645   4.754   5.943   0.873 -0.3722  1.2422  0.3104
   14CHTO   O54 5646   4.823   6.083   0.993 -0.3481 -0.0013 -0.0011
   14CHTO  H133 5647   4.823   6.151   0.929  2.0019 -1.2344 -1.4174
   14CHTO   C75 5648   4.970   5.958   0.826  0.4241  0.3235 -0.1366
   14CHTO  H147 5649   4.968   5.875   0.754  1.3944  0.5763 -0.4600
   14CHTO   N13 5650   4.973   6.067   0.725 -0.3806  0.4013 -0.5047
   14CHTO  H139 5651   5.036   6.030   0.645 -1.0159 -1.4001 -0.1997
   14CHTO  H140 5652   5.012   6.156   0.771  0.2052 -0.6643  1.1142
   14CHTO   C76 5653   5.113   5.946   0.899  0.0436  0.0099  0.5380
   14CHTO  H148 5654   5.141   6.044   0.936  1.5446 -0.7862  1.5447
   14CHTO   O49 5655   5.117   5.854   1.009 -0.0621 -0.0373 -0.4967
   14CHTO   C77 5656   5.006   5.846   1.100 -0.4475  0.2618 -0.7656
   14CHTO  H149 5657   5.007   5.939   1.156  0.2904 -0.0129 -0.3222
   14CHTO   C88 5658   5.040   5.737   1.201 -0.8968 -0.1585  0.4147
   14CHTO   O58 5659   5.177   5.773   1.275  0.1881  0.0762 -0.1268
   14CHTO  H136 5660   5.187   5.717   1.350  3.2114  2.0525  1.0369
   14CHTO   O51 5661   5.218   5.908   0.790  0.1898 -0.2823  0.7229
   14CHTO   C78 5662   5.371   5.946   0.826  0.6385 -0.2702  0.3022
   14CHTO  H150 5663   5.387   5.980   0.930 -0.0175  0.1712  0.2647
   14CHTO   C80 5664   5.396   6.062   0.719 -0.3102 -0.0838 -0.5267
   14CHTO  H152 5665   5.350   6.035   0.622 -0.8703 -0.9941 -0.0118
   14CHTO   O55 5666   5.312   6.171   0.769 -0.3624 -0.0249 -0.3048
   14CHTO  H134 5667   5.319   6.250   0.719 -1.5177  0.8044  0.7984
   14CHTO   C84 5668   5.543   6.104   0.697  0.7845  0.6946 -0.6142
   14CHTO  H156 5669   5.575   6.148   0.792 -2.8071 -1.6181  1.7767
   14CHTO   N15 5670   5.570   6.204   0.595 -0.2465 -0.5609  0.2855
   14CHTO  H143 5671   5.580   6.158   0.498  1.3204 -1.4773  0.8546
   14CHTO  H144 5672   5.494   6.279   0.588  1.1235  0.7866 -0.5410
   14CHTO   C87 5673   5.633   5.976   0.687 -0.1078  0.3009 -0.3035
   14CHTO  H159 5674   5.614   5.926   0.593 -3.8897 -0.5318  0.8203
   14CHTO   O53 5675   5.603   5.879   0.794  0.2285 -0.8796 -0.5820
   14CHTO   C82 5676   5.464   5.830   0.789  0.0569 -0.0086 -0.0847
   14CHTO  H154 5677   5.448   5.789   0.689 -2.4452  1.6924 -0.4481
   14CHTO   C89 5678   5.451   5.713   0.883 -0.6687  0.5831  0.4655
   14CHTO   O59 5679   5.523   5.593   0.851  0.0545  0.4312  0.2524
   14CHTO  H137 5680   5.611   5.605   0.879 -0.0957  0.7163  0.5942
   14CHTO   O45 5681   5.802   6.009   0.714  0.1075 -0.5004  0.4095
   14CHTO   C67 5682   5.882   5.903   0.655  0.1841  0.5197 -0.5843
   14CHTO  H124 5683   5.832   5.806   0.659  0.1354  0.3797 -3.3801
   14CHTO   C65 5684   5.909   5.941   0.506 -0.1320 -0.7268 -0.0851
   14CHTO  H122 5685   5.820   5.981   0.458  1.0014  1.2593 -0.5394
   14CHTO   O44 5686   5.943   5.820   0.435 -0.7640  0.4557 -0.1687
   14CHTO  H102 5687   5.930   5.822   0.343 -0.7278 -1.6591 -0.2498
   14CHTO   C63 5688   6.013   6.059   0.510 -0.3650 -0.7790 -0.3296
   14CHTO  H120 5689   5.977   6.141   0.573  0.5712 -0.0412 -0.7248
   14CHTO   N11 5690   6.028   6.132   0.379  0.1156  0.1404  1.1652
   14CHTO  H108 5691   6.003   6.063   0.301 -0.1278 -0.1371  1.4885
   14CHTO  H109 5692   6.129   6.167   0.364  0.5139 -0.9490  1.2882
   14CHTO   C61 5693   6.147   6.014   0.580  0.6047 -0.2723  0.6710
   14CHTO  H118 5694   6.210   6.103   0.581  0.5698 -0.1860 -1.4294
   14CHTO   O40 5695   6.116   5.985   0.715 -0.2039 -0.5521  0.3070
   14CHTO   C68 5696   6.007   5.887   0.748 -1.0249 -0.1874  0.4613
   14CHTO  H125 5697   5.972   5.912   0.851  0.7046 -0.8753  1.2459
   14CHTO   C72 5698   6.062   5.748   0.743 -0.2759  0.5461 -0.5238
   14CHTO   O48 5699   6.183   5.749   0.821 -0.1224 -0.1365 -0.2154
   14CHTO  H105 5700   6.249   5.803   0.782 -1.3467  0.1239 -1.9665
   14CHTO   O38 5701   6.208   5.902   0.518  0.1766  0.2132  0.2299
   14CHTO   C55 5702   6.344   5.919   0.477  0.0540 -0.0757  0.2369
   14CHTO  H112 5703   6.384   6.021   0.488 -2.3948  1.1293 -1.5498
   14CHTO   C56 5704   6.342   5.869   0.331  0.0917  0.0271  0.2517
   14CHTO  H113 5705   6.295   5.770   0.325 -0.9236  0.5368 -0.3257
   14CHTO   O42 5706   6.278   5.966   0.245 -0.7025 -0.1500  0.8607
   14CHTO  H100 5707   6.185   5.971   0.254 -1.2123  0.8161 -3.7401
   14CHTO   C57 5708   6.490   5.840   0.277 -0.7496 -0.1958 -0.4326
   14CHTO  H114 5709   6.527   5.943   0.273  0.9618 -0.8492 -2.4155
   14CHTO   N10 5710   6.494   5.782   0.142  0.8722  0.0571  0.4593
   14CHTO  H106 5711   6.578   5.715   0.132  0.1547 -0.8214  0.2933
   14CHTO  H107 5712   6.495   5.849   0.057 -0.2820 -3.5319 -2.5061
   14CHTO   C58 5713   6.579   5.765   0.380  0.8043 -0.5848  0.1839
   14CHTO  H115 5714   6.557   5.657   0.386 -1.8906 -0.0841 -0.2541
   14CHTO   O37 5715   6.560   5.833   0.506  0.4362 -0.3197 -0.0038
   14CHTO   C59 5716   6.429   5.821   0.564  0.4163  0.3147  0.2443
   14CHTO  H116 5717   6.393   5.719   0.577 -0.7539  1.0359  3.0178
   14CHTO   C70 5718   6.451   5.869   0.708 -0.2653 -0.1774 -0.6554
   14CHTO   O46 5719   6.543   5.810   0.797  0.2704  0.2686 -0.4546
   14CHTO  H103 5720   6.531   5.849   0.881 -0.2108 -2.3765  0.7815
   14CHTO   O39 5721   6.728   5.773   0.338 -0.1235 -0.2925 -0.5229
   14CHTO   C60 5722   6.831   5.736   0.435  0.1345  0.4747 -0.3884
   14CHTO  H117 5723   6.816   5.783   0.532  2.2457  0.5234 -0.0606
   14CHTO   C62 5724   6.835   5.577   0.463  0.1920 -0.3001  0.0502
   14CHTO  H119 5725   6.744   5.543   0.517 -0.1591 -1.8131 -1.4382
   14CHTO   O43 5726   6.832   5.513   0.334 -0.8435 -0.1768 -0.0954
   14CHTO  H101 5727   6.870   5.432   0.358  0.2178  1.0550  2.5296
   14CHTO   C66 5728   6.960   5.539   0.551 -0.3229  0.7561  0.4204
   14CHTO  H123 5729   6.958   5.601   0.640 -0.2814  1.7449 -0.2685
   14CHTO   N12 5730   6.966   5.396   0.588  0.6521 -0.1488 -0.1812
   14CHTO  H110 5731   6.924   5.344   0.503  0.2070 -0.8601  0.4591
   14CHTO  H111 5732   6.905   5.376   0.676  1.4265  2.4968  0.9939
   14CHTO   C69 5733   7.097   5.580   0.494  0.3268 -0.3489  0.0062
   14CHTO  H126 5734   7.117   5.517   0.404  2.0360 -0.4435  0.4381
   14CHTO   O41 5735   7.084   5.742   0.459 -0.1303  0.1646  1.2151
   14CHTO   C64 5736   6.962   5.793   0.379 -0.6178  0.1545  0.7129
   14CHTO  H121 5737   6.969   5.759   0.274 -2.3673 -0.6459  0.8313
   14CHTO   C71 5738   6.971   5.949   0.382  0.4754  0.0780 -0.2910
   14CHTO   O47 5739   7.094   5.996   0.335 -0.0755 -0.4168  0.2138
   14CHTO  H104 5740   7.165   6.002   0.396 -0.4573  1.8265  0.4634
   14CHTO   O34 5741   7.219   5.546   0.598  0.1757 -0.0503 -0.4047
   14CHTO   C49 5742   7.364   5.538   0.539  1.0341 -0.4551  0.0196
   14CHTO   H91 5743   7.359   5.455   0.469  0.0227  0.0215 -0.4880
   14CHTO   C47 5744   7.454   5.505   0.661 -0.4269 -0.1070 -0.1534
   14CHTO   H89 5745   7.556   5.494   0.618 -0.5336 -1.7163 -0.0342
   14CHTO   O33 5746   7.424   5.380   0.717 -0.2816  0.0274  0.1739
   14CHTO   H70 5747   7.430   5.313   0.651 -0.4208 -0.6376  0.8248
   14CHTO   C45 5748   7.446   5.627   0.772  0.3160 -0.3717  0.0038
   14CHTO   H87 5749   7.365   5.598   0.840  2.1511 -0.9194  1.9991
   14CHTO    N8 5750   7.567   5.631   0.852 -0.6585  0.0374 -0.1182
   14CHTO   H75 5751   7.652   5.666   0.795  0.6696 -0.4035  1.5141
   14CHTO   H76 5752   7.565   5.703   0.933  0.0228 -0.9627  0.7995
   14CHTO   C43 5753   7.411   5.767   0.699  0.4620 -0.3641 -0.0703
   14CHTO   H85 5754   7.302   5.764   0.689  0.3355 -0.5157  1.2740
   14CHTO   O29 5755   7.477   5.768   0.567 -0.1364  0.2133  0.2993
   14CHTO   C50 5756   7.416   5.668   0.480  0.1674 -0.4553  0.1822
   14CHTO   H92 5757   7.333   5.709   0.420  1.0020  2.7165  1.1026
   14CHTO   C54 5758   7.518   5.643   0.364 -0.2660 -0.1940  0.4921
   14CHTO   O36 5759   7.555   5.766   0.302 -0.1072  0.6947  0.4004
   14CHTO   H72 5760   7.488   5.781   0.238 -1.3834  2.3092  2.0597
   14CHTO   O27 5761   7.439   5.893   0.760 -0.2794 -0.0596 -0.6946
   14CHTO   C37 5762   7.370   6.005   0.813  0.3369  0.1805  0.1761
   14CHTO   H79 5763   7.443   6.072   0.861  1.9201 -1.4800  0.1620
   14CHTO   C38 5764   7.296   6.083   0.696 -0.1741 -0.6289 -0.6154
   14CHTO   H80 5765   7.245   6.011   0.631  1.5816 -2.6579  0.2100
   14CHTO   O31 5766   7.406   6.137   0.626 -0.6931  0.0221 -0.4050
   14CHTO   H68 5767   7.447   6.070   0.575  2.1284 -0.8826  2.8480
   14CHTO   C39 5768   7.193   6.186   0.750  0.7429  0.1341 -0.2403
   14CHTO   H81 5769   7.249   6.269   0.793  1.9651 -1.5185  1.4232
   14CHTO    N7 5770   7.120   6.234   0.626  0.3179  0.3098  0.0198
   14CHTO   H73 5771   7.054   6.319   0.641 -0.0405  0.3111 -1.5246
   14CHTO   H74 5772   7.194   6.276   0.560  0.5436 -0.8293 -0.4597
   14CHTO   C40 5773   7.093   6.118   0.857 -0.1390  0.1645  0.1270
   14CHTO   H82 5774   7.031   6.045   0.806 -0.0118 -1.8693  2.8087
   14CHTO   O26 5775   7.177   6.054   0.958 -0.0850 -0.4225 -0.0067
   14CHTO   C41 5776   7.265   5.955   0.918  0.2361 -0.2586  0.0113
   14CHTO   H83 5777   7.215   5.865   0.879  1.7391 -2.0090  2.0006
   14CHTO   C52 5778   7.329   5.899   1.048  0.5095 -0.0663 -0.7243
   14CHTO   O35 5779   7.412   6.013   1.114  0.9153  0.2918  0.2206
   14CHTO   H71 5780   7.397   6.010   1.206 -0.1197 -1.0309  0.0321
   14CHTO   O28 5781   7.017   6.223   0.920 -0.4259 -0.4539 -0.1544
   14CHTO   C42 5782   6.896   6.183   0.991  0.3535 -0.1227 -0.3485
   14CHTO   H84 5783   6.879   6.271   1.054  0.4099 -0.9065  0.7739
   14CHTO   C44 5784   6.902   6.064   1.095 -0.5580  0.3349  0.2808
   14CHTO   H86 5785   6.899   5.968   1.044 -0.8757  0.4871  0.0145
   14CHTO   O32 5786   7.020   6.083   1.175  0.0929  0.6651  0.5307
   14CHTO   H69 5787   6.999   6.099   1.265 -1.2838 -0.3391  0.4001
   14CHTO   C48 5788   6.762   6.055   1.177 -0.0269 -0.4841  0.7607
   14CHTO   H90 5789   6.763   6.144   1.240 -1.1362  0.8086 -1.0080
   14CHTO    N9 5790   6.756   5.943   1.279  0.1588 -0.0291  0.0464
   14CHTO   H77 5791   6.833   5.943   1.354 -0.4240  0.7868  0.6527
   14CHTO   H78 5792   6.659   5.956   1.323  0.4905  1.1352  0.4469
   14CHTO   C51 5793   6.641   6.043   1.060  0.0478 -0.0732  0.4075
   14CHTO   H93 5794   6.640   5.947   1.010 -2.0580  1.2352 -2.2162
   14CHTO   O30 5795   6.645   6.153   0.967  0.3599  0.1197  0.2972
   14CHTO   C46 5796   6.776   6.170   0.896  0.1970 -0.2372  0.9501
   14CHTO   H88 5797   6.790   6.082   0.833  0.2186  0.5465 -0.1534
   14CHTO   C53 5798   6.754   6.290   0.799  0.0592 -0.2086 -0.5235
   14CHTO   O72 5799   6.661   6.383   0.856  0.0103 -0.3612  0.3656
   14CHTO  H199 5800   6.669   6.385   0.949 -2.4138  1.4552  0.5820
   14CHTO   O22 5801   6.516   6.062   1.132 -0.7736 -0.1468 -0.2429
   14CHTO   C31 5802   6.395   6.011   1.092 -0.0447  0.0992  0.0781
   14CHTO   H59 5803   6.408   5.946   1.003 -1.1935 -0.3452  0.2262
   14CHTO   C29 5804   6.342   5.919   1.202 -0.4650 -0.0203 -0.3681
   14CHTO   H57 5805   6.339   5.978   1.295  0.3810  2.7533 -2.0704
   14CHTO   O21 5806   6.429   5.806   1.211 -0.1161 -0.4401  0.0550
   14CHTO   H37 5807   6.379   5.728   1.220 -0.2198 -0.3142  0.6153
   14CHTO   C27 5808   6.194   5.869   1.167 -0.1207 -0.1563  0.1448
   14CHTO   H55 5809   6.195   5.802   1.080 -3.1259  1.0553 -0.9262
   14CHTO    N5 5810   6.137   5.795   1.287 -0.5051 -0.0644  0.1201
   14CHTO   H43 5811   6.030   5.783   1.277 -0.3581  0.1876 -2.1014
   14CHTO   H44 5812   6.141   5.866   1.368 -1.0730  0.0888  0.0172
   14CHTO   C25 5813   6.106   5.995   1.129 -0.5295 -0.0412  0.0140
   14CHTO   H53 5814   6.111   6.072   1.206  2.7700 -0.7719  0.5977
   14CHTO   O17 5815   6.167   6.068   1.019  0.6429  0.5190 -0.1424
   14CHTO   C32 5816   6.292   6.123   1.051 -0.1186 -0.9159 -0.3591
   14CHTO   H60 5817   6.275   6.184   1.140 -1.0012  1.2950 -1.9982
   14CHTO   C36 5818   6.332   6.214   0.930 -0.8103 -0.1626  0.3830
   14CHTO   O25 5819   6.217   6.287   0.877 -0.1607  0.5990 -0.1055
   14CHTO   H40 5820   6.141   6.234   0.882 -1.4628  2.1975 -2.3128
   14CHTO   O15 5821   5.956   5.953   1.086  0.1180  0.1257  0.0163
   14CHTO   C19 5822   5.827   6.013   1.070 -0.3510 -0.1701 -0.8730
   14CHTO   H47 5823   5.780   5.967   0.982 -0.2155 -0.8977 -0.5673
   14CHTO   C20 5824   5.730   5.980   1.188  0.0058  0.1915 -0.1178
   14CHTO   H48 5825   5.765   6.013   1.287 -3.7337  1.2172  0.9266
   14CHTO   O19 5826   5.709   5.836   1.184  0.7578 -0.6469  0.5891
   14CHTO   H35 5827   5.688   5.806   1.098  1.9799  0.3923 -0.0747
   14CHTO   C21 5828   5.582   6.055   1.161  0.5374 -0.1022 -0.5686
   14CHTO   H49 5829   5.523   6.000   1.087  2.8596 -2.0941 -0.9906
   14CHTO    N4 5830   5.497   6.048   1.283 -0.1935 -0.4370 -0.0536
   14CHTO   H41 5831   5.560   6.062   1.369 -1.1172  1.8548  0.2745
   14CHTO   H42 5832   5.449   5.952   1.294 -0.6500  0.0764  2.6997
   14CHTO   C22 5833   5.598   6.204   1.117 -0.8441  0.4186 -0.4434
   14CHTO   H50 5834   5.634   6.264   1.201 -1.3121 -0.2122  0.2172
   14CHTO   O14 5835   5.699   6.204   1.009  0.1783 -0.2867 -0.4684
   14CHTO   C23 5836   5.828   6.166   1.047 -0.2976 -0.1397  0.1333
   14CHTO   H51 5837   5.859   6.223   1.136 -0.3885 -1.5383  1.0758
   14CHTO   C34 5838   5.913   6.213   0.920  0.1470 -0.0145 -0.2077
   14CHTO   O23 5839   5.909   6.356   0.905  0.3421  0.0886 -0.4610
   14CHTO   H38 5840   5.880   6.379   0.819  0.5541  0.4212 -0.4473
   14CHTO   O16 5841   5.478   6.267   1.064 -0.2094 -0.1150  0.2573
   14CHTO   C24 5842   5.480   6.438   1.079 -0.0751  0.6682  0.2095
   14CHTO   H52 5843   5.407   6.480   1.011  0.2557  0.2477 -0.4098
   14CHTO   C26 5844   5.618   6.489   1.029 -0.0527 -0.3880 -0.0249
   14CHTO   H54 5845   5.702   6.449   1.090 -0.2282  0.0494  0.5120
   14CHTO   O20 5846   5.638   6.455   0.889  0.1212  0.2371 -0.1423
   14CHTO   H36 5847   5.728   6.456   0.862  0.6426 -1.8007  1.3613
   14CHTO   C30 5848   5.633   6.645   1.044  0.2118  0.5396 -0.5144
   14CHTO   H58 5849   5.564   6.694   0.974 -1.5696 -2.4973 -0.9722
   14CHTO    N6 5850   5.769   6.695   1.005  0.6528  0.9232 -0.3053
   14CHTO   H45 5851   5.786   6.791   1.051 -1.3680  0.3667  1.6674
   14CHTO   H46 5852   5.852   6.626   1.016 -0.4012 -0.3871 -0.4614
   14CHTO   C33 5853   5.592   6.686   1.187 -0.1378 -0.8900 -0.4582
   14CHTO   H61 5854   5.667   6.642   1.255 -0.3626 -0.8621 -0.1873
   14CHTO   O18 5855   5.468   6.634   1.224 -0.0973  0.1788 -0.2018
   14CHTO   C28 5856   5.449   6.491   1.220 -0.1960 -0.3697 -0.1091
   14CHTO   H56 5857   5.505   6.436   1.295 -0.3512  0.3904  0.5750
   14CHTO   C35 5858   5.306   6.442   1.246  0.2705  0.3230 -0.0716
   14CHTO   O24 5859   5.201   6.498   1.163  0.2349  0.4964 -0.7909
   14CHTO   H39 5860   5.117   6.478   1.199  1.5263  0.5819  2.3630
   14CHTO    O9 5861   5.596   6.827   1.207  0.1767  0.6844 -0.3315
   14CHTO   C13 5862   5.535   6.888   1.343 -0.2984 -0.1161 -0.1179
   14CHTO   H26 5863   5.553   6.804   1.413  1.5972 -0.0486 -0.4942
   14CHTO   C11 5864   5.382   6.924   1.327  0.6848  0.0617 -0.0187
   14CHTO   H24 5865   5.326   6.829   1.334  0.7239 -0.0274 -0.8102
   14CHTO    O8 5866   5.359   6.973   1.195  0.6003  0.2999 -0.0983
   14CHTO    H3 5867   5.366   7.067   1.194  1.3862  0.2739  1.2705
   14CHTO    C9 5868   5.329   7.022   1.434 -0.2891 -0.2652  0.7087
   14CHTO   H22 5869   5.354   6.979   1.532  1.5578 -1.3403 -0.2118
   14CHTO    N2 5870   5.180   7.046   1.429  0.0540 -0.8684  0.4831
   14CHTO   H10 5871   5.160   7.146   1.466  2.0893 -1.1657  2.4894
   14CHTO   H11 5872   5.129   6.967   1.482 -1.9618 -0.0216 -0.1378
   14CHTO    C7 5873   5.414   7.156   1.429 -0.3355  0.0766 -0.1568
   14CHTO   H20 5874   5.421   7.185   1.535 -0.3700  1.4403 -0.5189
   14CHTO    O4 5875   5.548   7.130   1.380 -0.2784  0.9405  0.2543
   14CHTO   C14 5876   5.623   7.010   1.406 -0.1679 -0.6623  0.0556
   14CHTO   H27 5877   5.639   6.993   1.515 -0.3009 -0.3440  0.1232
   14CHTO   C18 5878   5.765   7.021   1.344 -0.2672  0.5059 -0.6343
   14CHTO   O13 5879   5.847   6.905   1.367  0.1073  0.6079 -0.2105
   14CHTO    H7 5880   5.866   6.877   1.280  0.4031  0.4486 -0.0949
   14CHTO    O2 5881   5.348   7.277   1.347 -0.4472  0.0827 -0.5155
   14CHTO    C1 5882   5.382   7.415   1.382  0.2814  0.3739  0.5974
   14CHTO   H14 5883   5.351   7.478   1.296  0.9698  0.3056  0.2947
   14CHTO    C2 5884   5.540   7.443   1.413  0.5762 -0.2364 -0.6048
   14CHTO   H15 5885   5.567   7.386   1.503 -0.5835  0.7880  0.4231
   14CHTO    O6 5886   5.620   7.410   1.299  0.1257 -0.0786  0.0128
   14CHTO    H1 5887   5.707   7.382   1.320 -0.3889 -1.9212 -0.2701
   14CHTO    C3 5888   5.558   7.601   1.462  0.3884 -0.4671  0.5170
   14CHTO   H16 5889   5.560   7.667   1.374 -0.8179  1.3288  1.8091
   14CHTO    N1 5890   5.691   7.628   1.521 -0.1750 -0.0011  0.3515
   14CHTO    H8 5891   5.687   7.721   1.575  1.8412  0.7513 -0.7435
   14CHTO    H9 5892   5.723   7.548   1.585  2.4653  2.0856  1.7173
   14CHTO    C4 5893   5.434   7.660   1.551  0.0081 -0.0749 -0.0916
   14CHTO   H17 5894   5.451   7.635   1.656  0.3103  3.6033  0.8169
   14CHTO    O1 5895   5.305   7.609   1.507 -0.7224  0.2068 -0.5731
   14CHTO    C5 5896   5.291   7.463   1.504 -0.0316 -0.0208  0.4702
   14CHTO   H18 5897   5.324   7.415   1.597  0.1254 -0.3277  0.2556
   14CHTO   C16 5898   5.138   7.428   1.478 -0.2907 -0.3807 -0.3373
   14CHTO   O11 5899   5.060   7.451   1.597  0.3432 -0.4857  0.5285
   14CHTO    H5 5900   4.973   7.469   1.566  0.6782  0.0842 -0.1132
   14CHTO    O3 5901   5.417   7.803   1.535  0.6430 -0.0333  0.7262
   14CHTO    C6 5902   5.398   7.885   1.662 -0.8759 -0.1985  0.2665
   14CHTO   H19 5903   5.383   7.822   1.749  0.4563 -0.7713  0.0917
   14CHTO    C8 5904   5.524   7.967   1.681  0.8771 -0.6751 -0.1128
   14CHTO   H21 5905   5.549   8.017   1.587 -0.7956  0.4339 -0.0010
   14CHTO    O7 5906   5.635   7.883   1.712 -0.2967 -0.5635  0.0885
   14CHTO    H2 5907   5.639   7.830   1.634 -2.4746 -0.2716 -0.2457
   14CHTO   C12 5908   5.502   8.073   1.802 -0.2841  0.8070 -0.0689
   14CHTO   H25 5909   5.497   8.014   1.896 -1.1845 -0.1270 -0.6908
   14CHTO    N3 5910   5.613   8.173   1.811  0.5066  0.0455  0.4099
   14CHTO   H12 5911   5.710   8.126   1.822 -0.4856 -2.2387 -0.2566
   14CHTO   H13 5912   5.599   8.246   1.889 -1.9307  1.4380 -1.2753
   14CHTO   C15 5913   5.361   8.143   1.790 -0.5147 -0.1001  0.4866
   14CHTO   H28 5914   5.355   8.216   1.709 -1.9834 -1.1356 -0.3532
   14CHTO   O10 5915   5.314   8.221   1.914 -0.4173 -0.1473 -0.1526
   14CHTO    H4 5916   5.255   8.285   1.881  0.6441  1.7636  1.5183
   14CHTO    O5 5917   5.262   8.045   1.770 -0.1050  0.0282  0.3638
   14CHTO   C10 5918   5.269   7.974   1.643 -0.1414  0.2754 -0.2830
   14CHTO   H23 5919   5.272   8.033   1.552 -0.8463 -1.2050 -1.2999
   14CHTO   C17 5920   5.150   7.876   1.634 -0.1483  0.4933 -0.1503
   14CHTO   O12 5921   5.022   7.939   1.664  0.1296 -0.4290  0.4033
   14CHTO    H6 5922   4.969   7.882   1.715  2.0519 -1.0190  1.7925
   15CHTO  H203 5923   7.264   4.741   1.407 -0.7909  0.7338  1.5229
   15CHTO   O82 5924   7.228   4.806   1.350 -0.2095 -0.0986  0.1943
   15CHTO  C123 5925   7.159   4.739   1.241 -0.1221 -0.3346 -0.4412
   15CHTO  H227 5926   7.135   4.637   1.276  0.2784 -0.0574  0.6623
   15CHTO   O77 5927   7.034   4.811   1.224  0.1527  0.7958 -0.1376
   15CHTO  C118 5928   6.948   4.765   1.120 -0.3808  0.5794 -0.2162
   15CHTO  H222 5929   6.909   4.662   1.129 -0.4243  0.6683  0.6255
   15CHTO  C125 5930   6.826   4.862   1.119  1.1145  0.2298  0.2310
   15CHTO   O84 5931   6.721   4.822   1.199  1.0305 -0.2734  0.1232
   15CHTO  H205 5932   6.700   4.738   1.163  0.5636  1.0488 -2.8019
   15CHTO  C114 5933   7.017   4.761   0.983 -0.8147  0.0668 -0.0769
   15CHTO  H218 5934   7.038   4.863   0.952 -1.8495 -0.0135 -1.0481
   15CHTO  C116 5935   7.154   4.690   0.984 -0.0522  0.8903 -0.7859
   15CHTO  H220 5936   7.151   4.579   0.981 -1.0848  0.8276  1.3504
   15CHTO   O79 5937   7.219   4.705   0.864 -0.6650  0.3480  0.7338
   15CHTO  H201 5938   7.228   4.797   0.846 -2.1308  0.2612 -0.4867
   15CHTO  C120 5939   7.248   4.726   1.108  0.2370 -0.2017 -0.3740
   15CHTO  H224 5940   7.282   4.830   1.089 -3.5078  1.1396 -0.2180
   15CHTO   N21 5941   7.366   4.638   1.116  0.3477 -0.2707  0.6539
   15CHTO  H211 5942   7.454   4.686   1.157 -0.1371  1.4630 -0.2978
   15CHTO  H212 5943   7.341   4.548   1.170 -3.1138  0.2343 -0.0327
   15CHTO   O75 5944   6.921   4.702   0.894  0.0421 -0.0327  0.4525
   15CHTO  C112 5945   6.908   4.519   0.904  0.3350  0.7497  0.0700
   15CHTO  H216 5946   6.916   4.486   1.009  1.0314 -2.7187 -1.0230
   15CHTO   O73 5947   7.013   4.461   0.824 -0.1098 -0.1227 -0.3680
   15CHTO  C113 5948   7.019   4.319   0.814 -0.0560  0.2931 -0.1882
   15CHTO  H217 5949   7.027   4.275   0.915 -1.8530  2.0934  0.7862
   15CHTO  C124 5950   7.146   4.282   0.732  0.4444 -0.2888  0.7328
   15CHTO   O83 5951   7.145   4.302   0.592  0.4056 -0.1897  0.2299
   15CHTO  H204 5952   7.115   4.230   0.539  0.4461  0.1441 -0.2514
   15CHTO  C109 5953   6.891   4.261   0.758  0.3980 -0.1581 -0.3112
   15CHTO  H213 5954   6.884   4.294   0.653 -2.9203 -0.8491 -0.3522
   15CHTO  C110 5955   6.769   4.312   0.841 -0.3351 -0.2572  0.2380
   15CHTO  H214 5956   6.778   4.261   0.937 -2.8899 -2.1529 -0.4769
   15CHTO   O78 5957   6.652   4.258   0.776 -0.1322 -0.1943  0.0505
   15CHTO  H200 5958   6.606   4.208   0.841  0.6580 -0.3449  0.4934
   15CHTO  C111 5959   6.767   4.468   0.853  0.2213 -0.0670  0.1785
   15CHTO  H215 5960   6.748   4.510   0.754 -2.5017 -2.6438 -0.4554
   15CHTO   N19 5961   6.659   4.524   0.943  0.2000  0.0086 -0.0376
   15CHTO  H207 5962   6.603   4.607   0.903 -0.1979 -0.1923  0.0995
   15CHTO  H208 5963   6.591   4.444   0.972  0.2639  0.0695  0.2897
   15CHTO   O74 5964   6.891   4.117   0.752 -0.2236  0.2413  0.8011
   15CHTO  C115 5965   6.838   4.055   0.615 -0.3125  0.2187 -0.0778
   15CHTO  H219 5966   6.767   4.123   0.567 -0.7967  1.0276  1.7466
   15CHTO   O76 5967   6.945   4.041   0.506  0.0275 -0.2806 -0.4903
   15CHTO  C122 5968   7.044   3.939   0.535 -0.0233  0.0998  0.7634
   15CHTO  H226 5969   7.101   3.957   0.626  0.7592  1.1453  0.0774
   15CHTO  C126 5970   7.148   3.939   0.428 -0.1139 -0.3971  0.7112
   15CHTO   O85 5971   7.276   3.900   0.477 -0.0304  0.1310 -0.2451
   15CHTO  H206 5972   7.294   3.812   0.449 -1.4128 -0.2395 -0.0315
   15CHTO  C121 5973   6.973   3.795   0.552 -0.1778  0.0077  0.0273
   15CHTO  H225 5974   7.001   3.728   0.468 -0.2832 -1.4504  1.1473
   15CHTO   O81 5975   7.013   3.741   0.675 -0.3189 -0.1937 -0.2700
   15CHTO  H202 5976   6.952   3.752   0.746  0.3076  2.4772 -0.0840
   15CHTO  C119 5977   6.819   3.805   0.551 -0.5855  0.1365  0.3176
   15CHTO  H223 5978   6.786   3.827   0.450  1.3394  1.5106 -0.0358
   15CHTO  C117 5979   6.764   3.916   0.646  0.1157 -0.3000 -0.8151
   15CHTO  H221 5980   6.793   3.904   0.750 -2.1835  2.1559  0.1969
   15CHTO   N20 5981   6.622   3.926   0.658 -0.2371 -0.1066 -0.2455
   15CHTO  H209 5982   6.580   4.020   0.628 -1.6909  0.2970  2.9028
   15CHTO  H210 5983   6.563   3.841   0.626 -0.3800 -0.0136 -0.2321
   15CHTO   O80 5984   6.761   3.665   0.580 -0.8442 -0.0038  0.1814
   15CHTO  C103 5985   6.676   3.579   0.473  0.0131 -0.2937 -0.1851
   15CHTO  H190 5986   6.639   3.489   0.521 -0.3873  0.6335  1.2629
   15CHTO  C101 5987   6.550   3.651   0.407  0.1652 -0.3309  0.7108
   15CHTO  H188 5988   6.581   3.743   0.357  2.2028 -0.9079  0.8630
   15CHTO   O68 5989   6.461   3.685   0.513  0.4266  0.0208 -0.4544
   15CHTO  H168 5990   6.391   3.736   0.479  2.3175  2.2651 -1.1576
   15CHTO   C99 5991   6.482   3.552   0.306  0.0850  0.2181  0.1606
   15CHTO  H186 5992   6.437   3.468   0.363 -1.2361 -0.6371 -2.0805
   15CHTO   N17 5993   6.371   3.623   0.232  0.0357  0.4159  0.5964
   15CHTO  H174 5994   6.414   3.686   0.156  1.4249 -2.1527 -0.8320
   15CHTO  H175 5995   6.310   3.545   0.188  0.9781 -0.3972  0.7126
   15CHTO   C97 5996   6.588   3.479   0.219 -0.1920  0.2003 -0.2662
   15CHTO  H184 5997   6.614   3.552   0.140  0.0628  0.0078 -0.3585
   15CHTO   O64 5998   6.705   3.436   0.292  0.2270 -0.0739  0.1811
   15CHTO  C104 5999   6.781   3.539   0.357  0.3541  0.3046  0.3933
   15CHTO  H191 6000   6.812   3.628   0.303 -2.3444  0.6881 -0.5748
   15CHTO  C108 6001   6.910   3.479   0.409 -0.4820  0.3271 -0.4608
   15CHTO   O71 6002   6.894   3.405   0.533 -0.2403 -0.3661 -0.2238
   15CHTO  H171 6003   6.816   3.421   0.582 -0.1095  0.1758 -0.1887
   15CHTO   O62 6004   6.520   3.364   0.175 -0.3342 -0.4178  0.5182
   15CHTO   C91 6005   6.567   3.303   0.058  0.0856 -0.1648  0.3261
   15CHTO  H178 6006   6.624   3.373  -0.003 -1.2834  0.2872 -0.4451
   15CHTO   C92 6007   6.441   3.267  -0.041  0.5023 -0.4710  0.1391
   15CHTO  H179 6008   6.386   3.359  -0.067  0.1688 -1.0292 -1.2014
   15CHTO   O66 6009   6.508   3.251  -0.168 -0.1014 -0.2031 -0.2305
   15CHTO  H166 6010   6.451   3.231  -0.241  0.2563 -1.5627 -0.1525
   15CHTO   C93 6011   6.356   3.145   0.007 -0.2750 -0.3210 -0.2656
   15CHTO  H180 6012   6.310   3.104  -0.084  0.1807  0.3807 -0.8138
   15CHTO   N16 6013   6.242   3.184   0.090  0.6381 -0.0035 -0.4058
   15CHTO  H172 6014   6.180   3.262   0.048  0.1733 -0.0256  0.2274
   15CHTO  H173 6015   6.185   3.096   0.115  0.7677  0.5974  2.1615
   15CHTO   C94 6016   6.439   3.038   0.081  0.7031 -0.3037 -0.3438
   15CHTO  H181 6017   6.441   3.056   0.188  1.3789  2.8150 -0.8386
   15CHTO   O61 6018   6.580   3.047   0.041  0.2270 -0.0089  0.4230
   15CHTO   C95 6019   6.645   3.162   0.084  0.0471  0.4357 -0.0801
   15CHTO  H182 6020   6.662   3.155   0.192  1.3254 -1.7275 -0.4049
   15CHTO  C106 6021   6.790   3.160   0.028 -0.1413 -0.4751 -0.1910
   15CHTO   O69 6022   6.864   3.276   0.078  0.1554  0.2909  0.1913
   15CHTO  H169 6023   6.808   3.350   0.084 -0.6307 -0.3630  1.1818
   15CHTO   O63 6024   6.414   2.909   0.045  0.4394 -0.4102  0.0782
   15CHTO   C96 6025   6.441   2.790   0.152  0.6271  0.6964 -0.0957
   15CHTO  H183 6026   6.459   2.838   0.248 -1.0012  0.3200  0.4204
   15CHTO   C98 6027   6.566   2.700   0.112 -0.0473 -0.4124 -0.4206
   15CHTO  H185 6028   6.567   2.699   0.002 -0.1719 -2.2346 -0.4256
   15CHTO   O67 6029   6.686   2.763   0.158 -0.2485  0.3036 -0.0053
   15CHTO  H167 6030   6.752   2.697   0.163 -1.5779 -0.9547  1.7863
   15CHTO  C102 6031   6.560   2.542   0.158  0.4914 -0.3041 -0.2104
   15CHTO  H189 6032   6.566   2.542   0.268  0.1896 -0.8560 -0.1953
   15CHTO   N18 6033   6.670   2.462   0.105  0.0281  0.9274 -0.2120
   15CHTO  H176 6034   6.769   2.470   0.149 -0.2696 -0.1563  0.6936
   15CHTO  H177 6035   6.644   2.357   0.117  0.1438  1.0221  0.9277
   15CHTO  C105 6036   6.415   2.487   0.136  0.2426 -0.5646 -0.3048
   15CHTO  H192 6037   6.379   2.509   0.036  0.4744 -0.9737 -0.4788
   15CHTO   O65 6038   6.324   2.568   0.221  0.0921  0.5726  0.4874
   15CHTO  C100 6039   6.306   2.703   0.163 -0.1951 -0.2250 -0.1287
   15CHTO  H187 6040   6.261   2.691   0.064 -0.1854  0.4880 -0.2193
   15CHTO  C107 6041   6.199   2.783   0.243  0.0606 -0.0743  0.3777
   15CHTO   O70 6042   6.067   2.729   0.232  0.7094  0.1110  0.1480
   15CHTO  H170 6043   6.005   2.788   0.192  1.5540  1.4418  0.7717
   15CHTO   O57 6044   6.400   2.318   0.175  1.2326  0.1037  0.1922
   15CHTO   C85 6045   6.412   2.266   0.310  0.9043  0.4015  0.4395
   15CHTO  H157 6046   6.431   2.349   0.381 -1.9073  0.8712  0.7048
   15CHTO   C83 6047   6.538   2.170   0.316  0.3581  0.3755 -0.1839
   15CHTO  H155 6048   6.627   2.229   0.299  1.4351 -1.2174 -0.1760
   15CHTO   O56 6049   6.532   2.067   0.213 -0.6852 -0.3724 -0.4863
   15CHTO  H135 6050   6.612   2.017   0.211 -0.2900  0.1584  1.0437
   15CHTO   C81 6051   6.552   2.109   0.461  0.3889  0.4720  0.6598
   15CHTO  H153 6052   6.564   2.191   0.531 -3.6004  1.6392  0.1348
   15CHTO   N14 6053   6.671   2.022   0.489  0.5757 -0.1071 -0.6453
   15CHTO  H141 6054   6.655   1.930   0.437 -0.3336 -0.0570 -0.4567
   15CHTO  H142 6055   6.765   2.067   0.463  0.7149 -0.9515 -1.6434
   15CHTO   C79 6056   6.414   2.037   0.506  0.1256 -0.1118 -0.3511
   15CHTO  H151 6057   6.417   2.012   0.612 -0.2848  0.1383 -0.2773
   15CHTO   O52 6058   6.295   2.117   0.484  0.1348 -0.4655  0.0433
   15CHTO   C86 6059   6.287   2.186   0.350  0.8807  0.3271  0.1173
   15CHTO  H158 6060   6.274   2.103   0.278  1.5633 -0.0246  0.4008
   15CHTO   C90 6061   6.163   2.271   0.328 -0.4285 -0.3527  0.1299
   15CHTO   O60 6062   6.149   2.360   0.439 -0.1732 -0.1533  0.1030
   15CHTO  H138 6063   6.060   2.390   0.434 -0.2438 -0.2720  0.6012
   15CHTO   O50 6064   6.406   1.916   0.436  0.0170  0.0549 -0.0755
   15CHTO   C73 6065   6.294   1.826   0.404 -0.8805  0.6840 -0.2806
   15CHTO  H145 6066   6.212   1.878   0.351 -1.6349  0.1593  0.3626
   15CHTO   C74 6067   6.235   1.758   0.535  0.0080 -0.0477  0.0561
   15CHTO  H146 6068   6.200   1.840   0.599 -2.3325  0.2508 -1.5449
   15CHTO   O54 6069   6.120   1.674   0.516  0.4428 -0.0381 -0.1246
   15CHTO  H133 6070   6.147   1.596   0.472 -0.6034 -0.7032  0.3929
   15CHTO   C75 6071   6.359   1.681   0.601 -0.4112  0.7636 -0.0083
   15CHTO  H147 6072   6.443   1.750   0.615 -0.3412  0.4335  1.2716
   15CHTO   N13 6073   6.324   1.625   0.733  0.4128  0.6747 -0.3479
   15CHTO  H139 6074   6.353   1.521   0.738  0.6781  0.7334 -0.6617
   15CHTO  H140 6075   6.384   1.676   0.807  1.0495  0.5686 -0.7875
   15CHTO   C76 6076   6.405   1.569   0.510 -0.6466  0.2874  0.7208
   15CHTO  H148 6077   6.312   1.520   0.481 -0.1398  0.4107 -1.1538
   15CHTO   O49 6078   6.454   1.631   0.388 -0.1656 -0.8582 -0.7720
   15CHTO   C77 6079   6.354   1.705   0.313  0.7731 -0.1753  0.0928
   15CHTO  H149 6080   6.273   1.639   0.282  0.7478 -0.1807  0.1696
   15CHTO   C88 6081   6.421   1.767   0.189  1.0208 -0.2870 -0.3714
   15CHTO   O58 6082   6.309   1.835   0.100 -0.4322 -0.1487 -0.4072
   15CHTO  H136 6083   6.335   1.924   0.108 -0.6624  0.0037 -1.2910
   15CHTO   O51 6084   6.522   1.474   0.575  0.0003  0.3281 -0.1787
   15CHTO   C78 6085   6.640   1.412   0.472  0.5548 -0.7608 -0.3793
   15CHTO  H150 6086   6.607   1.435   0.368 -0.1969  0.1516  0.0604
   15CHTO   C80 6087   6.654   1.265   0.489  0.3920 -0.9881 -0.0330
   15CHTO  H152 6088   6.679   1.244   0.595 -1.9962  0.3076  0.8274
   15CHTO   O55 6089   6.530   1.208   0.461  0.1346 -0.3934 -0.6883
   15CHTO  H134 6090   6.529   1.125   0.504  0.3012 -0.1837 -0.2779
   15CHTO   C84 6091   6.766   1.207   0.393  0.0149  0.6393 -0.2949
   15CHTO  H156 6092   6.732   1.237   0.294  0.9547 -2.3677 -1.5869
   15CHTO   N15 6093   6.770   1.058   0.407 -0.0103  0.2590  0.3211
   15CHTO  H143 6094   6.775   1.026   0.509  0.0678 -1.0203 -0.0726
   15CHTO  H144 6095   6.684   1.019   0.357 -0.7983  2.6834 -0.2723
   15CHTO   C87 6096   6.900   1.276   0.421  0.1614  0.0981 -0.2879
   15CHTO  H159 6097   6.929   1.259   0.525 -1.7182 -0.2111  0.2084
   15CHTO   O53 6098   6.870   1.440   0.413  0.2954  0.1781 -0.0335
   15CHTO   C82 6099   6.765   1.483   0.508  0.1182  0.0076 -0.1421
   15CHTO  H154 6100   6.789   1.465   0.613 -1.4009 -1.1320  0.0248
   15CHTO   C89 6101   6.751   1.636   0.487 -0.3799 -0.5201  0.5999
   15CHTO   O59 6102   6.867   1.704   0.519  0.0088 -0.4301 -0.4644
   15CHTO  H137 6103   6.861   1.797   0.509  0.4242 -0.1128  2.0208
   15CHTO   O45 6104   6.997   1.233   0.319  0.6049  0.0153 -0.3294
   15CHTO   C67 6105   7.131   1.288   0.342 -0.7093  0.0493  0.1129
   15CHTO  H124 6106   7.127   1.379   0.403 -0.7662  1.1977 -1.5445
   15CHTO   C65 6107   7.225   1.181   0.412 -0.3105 -0.4238 -0.3570
   15CHTO  H122 6108   7.197   1.079   0.387 -2.4000  0.1307 -0.3249
   15CHTO   O44 6109   7.209   1.198   0.555 -0.1638 -0.2450  0.2998
   15CHTO  H102 6110   7.119   1.196   0.582 -0.5324 -1.5955 -0.9511
   15CHTO   C63 6111   7.370   1.178   0.356 -0.3303  0.2189  0.6732
   15CHTO  H120 6112   7.377   1.109   0.273  4.2846 -0.2685  1.3160
   15CHTO   N11 6113   7.477   1.110   0.430  0.2655  0.2645  0.4028
   15CHTO  H108 6114   7.543   1.050   0.370  0.0149 -0.5922  0.9854
   15CHTO  H109 6115   7.518   1.161   0.515  0.1604 -0.3702  0.8364
   15CHTO   C61 6116   7.416   1.330   0.313 -0.6793  0.5332 -0.9333
   15CHTO  H118 6117   7.517   1.318   0.270 -0.3260 -0.0628  0.0425
   15CHTO   O40 6118   7.323   1.379   0.208 -0.6224  0.3226  0.0006
   15CHTO   C68 6119   7.190   1.332   0.197  0.6476  0.1338 -0.1371
   15CHTO  H125 6120   7.197   1.237   0.140  4.2089 -1.8664  3.3356
   15CHTO   C72 6121   7.105   1.436   0.117 -0.4233 -0.1994  0.4449
   15CHTO   O48 6122   6.975   1.396   0.087 -0.1356 -0.4880 -0.2470
   15CHTO  H105 6123   6.919   1.431   0.153 -0.8307 -2.0452  0.0164
   15CHTO   O38 6124   7.439   1.425   0.419  0.1968  0.1295 -0.0255
   15CHTO   C55 6125   7.488   1.554   0.394 -0.1817 -0.3497 -0.0273
   15CHTO  H112 6126   7.446   1.584   0.297  1.8085  2.4488 -0.0775
   15CHTO   C56 6127   7.650   1.571   0.391 -0.3363  0.1177 -0.3910
   15CHTO  H113 6128   7.689   1.522   0.482 -1.8856 -1.4757 -0.5726
   15CHTO   O42 6129   7.700   1.492   0.280  0.8148  0.0619 -0.5599
   15CHTO  H100 6130   7.662   1.500   0.195  0.2556 -0.7040 -0.3837
   15CHTO   C57 6131   7.697   1.720   0.375 -0.0172  0.3286  1.0773
   15CHTO  H114 6132   7.677   1.738   0.269 -2.3447 -0.0521  1.4264
   15CHTO   N10 6133   7.842   1.745   0.406 -0.3346 -0.5774  0.6748
   15CHTO  H106 6134   7.887   1.653   0.373 -1.4001 -0.5909 -0.7690
   15CHTO  H107 6135   7.888   1.821   0.345  0.6199 -0.9606  0.9055
   15CHTO   C58 6136   7.611   1.816   0.462 -0.5207 -0.5562  0.2844
   15CHTO  H115 6137   7.646   1.813   0.568 -1.3378 -0.9922  0.5463
   15CHTO   O37 6138   7.464   1.790   0.467  0.1776 -0.1640  0.2972
   15CHTO   C59 6139   7.426   1.655   0.494  0.4625  0.1001 -0.7106
   15CHTO  H116 6140   7.460   1.638   0.596 -1.0488  1.3132  0.0094
   15CHTO   C70 6141   7.271   1.649   0.496 -0.8957  0.1688  0.8064
   15CHTO   O46 6142   7.207   1.716   0.385 -0.0086 -0.4500  0.5371
   15CHTO  H103 6143   7.114   1.712   0.398 -0.1911 -2.5791 -1.0564
   15CHTO   O39 6144   7.626   1.983   0.407 -0.0198 -0.3185 -0.0970
   15CHTO   C60 6145   7.548   2.018   0.294  0.0793  0.1371 -0.0891
   15CHTO  H117 6146   7.549   1.929   0.231  0.9972  0.4953 -0.5885
   15CHTO   C62 6147   7.402   2.054   0.316 -0.2662  0.4071  0.2058
   15CHTO  H119 6148   7.358   1.969   0.371  0.3463  0.4661  0.7901
   15CHTO   O43 6149   7.389   2.165   0.404  0.6423  0.9806  0.0461
   15CHTO  H101 6150   7.436   2.239   0.370  0.8545  1.1829  0.7574
   15CHTO   C66 6151   7.328   2.069   0.172  0.4286  0.1281  0.1845
   15CHTO  H123 6152   7.334   1.976   0.116  0.7011 -1.0637  2.1657
   15CHTO   N12 6153   7.179   2.092   0.194 -0.4482 -0.1467  0.0968
   15CHTO  H110 6154   7.123   2.002   0.214  0.3455 -0.9780 -1.3306
   15CHTO  H111 6155   7.139   2.146   0.109  1.0682 -2.4445 -2.1700
   15CHTO   C69 6156   7.403   2.179   0.090  0.2777 -0.1072 -1.0142
   15CHTO  H126 6157   7.368   2.275   0.132  1.9829  0.5433 -1.0060
   15CHTO   O41 6158   7.556   2.162   0.088 -0.7327 -0.1925 -0.1941
   15CHTO   C64 6159   7.614   2.132   0.217 -0.6903 -0.4228  0.7083
   15CHTO  H121 6160   7.613   2.224   0.279  2.1583 -0.8964  1.5208
   15CHTO   C71 6161   7.757   2.099   0.184 -0.3692 -0.4046 -0.7204
   15CHTO   O47 6162   7.820   2.225   0.147  0.5671 -0.4900  0.3915
   15CHTO  H104 6163   7.813   2.239   0.054 -0.0078 -2.4762  0.1198
   15CHTO   O34 6164   7.359   2.176  -0.032  0.1628 -0.6177 -0.8057
   15CHTO   C49 6165   7.308   2.216  -0.158  0.9069 -0.2288  0.0776
   15CHTO   H91 6166   7.285   2.121  -0.207 -0.4897  0.3341 -0.3793
   15CHTO   C47 6167   7.422   2.294  -0.233  0.0343 -0.4789  0.3839
   15CHTO   H89 6168   7.390   2.317  -0.336  0.6241 -2.1443 -0.1927
   15CHTO   O33 6169   7.544   2.217  -0.240 -0.4256  0.0164 -0.1346
   15CHTO   H70 6170   7.561   2.205  -0.149 -1.6497 -1.6804 -0.0992
   15CHTO   C45 6171   7.438   2.439  -0.163 -0.7148  0.2709 -0.3888
   15CHTO   H87 6172   7.463   2.420  -0.058  0.7883  3.5224 -0.1127
   15CHTO    N8 6173   7.551   2.521  -0.214  0.5463 -0.4052 -0.2892
   15CHTO   H75 6174   7.536   2.598  -0.288  2.8852  1.4198  1.0391
   15CHTO   H76 6175   7.643   2.469  -0.234  1.1085 -0.1587  1.5118
   15CHTO   C43 6176   7.299   2.518  -0.160  0.0600  0.6132 -0.4742
   15CHTO   H85 6177   7.328   2.606  -0.103  0.4873  0.2874 -0.1831
   15CHTO   O29 6178   7.200   2.444  -0.098  0.5072  0.5698 -0.3343
   15CHTO   C50 6179   7.179   2.303  -0.140 -0.6599 -0.1376  0.8071
   15CHTO   H92 6180   7.108   2.272  -0.062 -1.3291  0.2667  0.3625
   15CHTO   C54 6181   7.103   2.299  -0.283  0.3279  0.3039 -0.1429
   15CHTO   O36 6182   7.013   2.188  -0.282  0.5211  0.1009 -0.4316
   15CHTO   H72 6183   6.973   2.179  -0.366 -1.1413  1.7854  0.1487
   15CHTO   O27 6184   7.262   2.566  -0.283 -0.0666 -0.8645  0.0585
   15CHTO   C37 6185   7.194   2.657  -0.374 -0.1888  0.2404 -0.9248
   15CHTO   H79 6186   7.130   2.602  -0.445  0.5803 -1.9275  0.0328
   15CHTO   C38 6187   7.104   2.750  -0.288  0.2986 -0.4054  0.3354
   15CHTO   H80 6188   7.167   2.806  -0.217  0.7262 -0.3742 -0.0644
   15CHTO   O31 6189   7.006   2.673  -0.220  0.1926 -0.1563  0.2661
   15CHTO   H68 6190   6.970   2.600  -0.266  1.6417 -1.2803  0.8773
   15CHTO   C39 6191   7.041   2.863  -0.377  0.1226  0.2575  0.3416
   15CHTO   H81 6192   6.962   2.808  -0.428 -0.7096  1.0909  0.7080
   15CHTO    N7 6193   6.978   2.979  -0.302 -0.3610 -0.9162  1.0031
   15CHTO   H73 6194   7.054   3.029  -0.244  0.5212 -0.9222 -0.1427
   15CHTO   H74 6195   6.917   2.933  -0.226  0.2785 -0.4004  1.8458
   15CHTO   C40 6196   7.140   2.923  -0.477  0.1424  0.2590  0.9604
   15CHTO   H82 6197   7.198   3.011  -0.450 -1.8699  1.9534 -0.0791
   15CHTO   O26 6198   7.220   2.826  -0.545  0.0253 -0.3048 -0.1774
   15CHTO   C41 6199   7.295   2.736  -0.457  0.6213 -0.7615 -0.1867
   15CHTO   H83 6200   7.350   2.802  -0.388  0.5193 -0.5142 -0.3370
   15CHTO   C52 6201   7.382   2.636  -0.527 -0.3424  0.5243 -0.0934
   15CHTO   O35 6202   7.486   2.705  -0.594 -0.5786 -0.0208 -0.5275
   15CHTO   H71 6203   7.548   2.640  -0.622  0.9877  1.1203  0.2528
   15CHTO   O28 6204   7.058   2.963  -0.590  0.1880  0.1877 -0.2047
   15CHTO   C42 6205   7.068   3.078  -0.676  0.0741  0.0143 -0.4020
   15CHTO   H84 6206   7.025   3.033  -0.766  2.4504  0.7452 -1.9610
   15CHTO   C44 6207   7.213   3.119  -0.722  0.3615 -0.3473  0.1828
   15CHTO   H86 6208   7.271   3.134  -0.630  1.3684 -2.3838 -0.1042
   15CHTO   O32 6209   7.264   3.001  -0.787  0.1556 -0.1143 -0.2011
   15CHTO   H69 6210   7.358   3.009  -0.794  0.3892 -0.5395  2.1520
   15CHTO   C48 6211   7.224   3.246  -0.818 -0.3062 -0.4039  0.9249
   15CHTO   H90 6212   7.180   3.215  -0.913 -2.2673  0.8694  1.3822
   15CHTO    N9 6213   7.372   3.276  -0.836 -0.4883 -0.2597  0.3202
   15CHTO   H77 6214   7.417   3.246  -0.743  0.7065 -1.4719 -0.6437
   15CHTO   H78 6215   7.415   3.230  -0.923  1.2868  1.3866  0.2830
   15CHTO   C51 6216   7.136   3.361  -0.761  0.2255  0.1752 -0.4150
   15CHTO   H93 6217   7.178   3.387  -0.664  0.2662  0.5378 -0.5271
   15CHTO   O30 6218   7.001   3.318  -0.746  0.2019 -0.4837 -0.5042
   15CHTO   C46 6219   6.981   3.210  -0.641  0.0358  0.5167  0.3803
   15CHTO   H88 6220   7.017   3.250  -0.546 -0.4825 -0.1181  0.8454
   15CHTO   C53 6221   6.833   3.177  -0.630  0.9628 -0.1722  0.7896
   15CHTO   O72 6222   6.753   3.293  -0.623 -0.6575  0.1676  0.2516
   15CHTO  H199 6223   6.748   3.329  -0.709  0.1666  0.3821  0.2944
   15CHTO   O22 6224   7.130   3.477  -0.850  0.9587  0.0138  0.2980
   15CHTO   C31 6225   7.076   3.602  -0.797 -0.0169 -0.7834  0.0236
   15CHTO   H59 6226   7.081   3.672  -0.884 -1.5841  0.3234  0.8011
   15CHTO   C29 6227   6.932   3.600  -0.750 -0.7509  0.0933  0.6600
   15CHTO   H57 6228   6.927   3.537  -0.661  1.2832  0.4943  1.0822
   15CHTO   O21 6229   6.855   3.526  -0.854 -0.3892  0.1701  0.4334
   15CHTO   H37 6230   6.852   3.568  -0.938  1.4938 -1.4793 -0.5143
   15CHTO   C27 6231   6.884   3.746  -0.718 -0.1572 -0.1566  0.3301
   15CHTO   H55 6232   6.896   3.803  -0.811  1.9090 -0.4024  0.4142
   15CHTO    N5 6233   6.743   3.747  -0.673  0.3083 -0.3326  0.1837
   15CHTO   H43 6234   6.663   3.694  -0.724  0.8902  0.9765 -2.1413
   15CHTO   H44 6235   6.708   3.844  -0.639  0.2564 -0.3226  0.1015
   15CHTO   C25 6236   6.965   3.799  -0.605  0.4642  0.3968 -0.1369
   15CHTO   H53 6237   6.973   3.739  -0.513  0.7255  1.2720  0.4223
   15CHTO   O17 6238   7.106   3.796  -0.645  0.8661  0.0320 -0.2403
   15CHTO   C32 6239   7.157   3.665  -0.678  0.0538  0.4780 -0.0243
   15CHTO   H60 6240   7.144   3.596  -0.594 -3.1671  1.0680  0.0257
   15CHTO   C36 6241   7.306   3.679  -0.717  0.1503  0.4279  0.3329
   15CHTO   O25 6242   7.381   3.753  -0.615 -0.2264  0.1294 -0.2069
   15CHTO   H40 6243   7.441   3.811  -0.656  1.7238 -1.4568  0.3154
   15CHTO   O15 6244   6.925   3.948  -0.553  0.2304  0.4335  0.7140
   15CHTO   C19 6245   6.971   4.055  -0.460 -0.3417  0.3372 -0.5452
   15CHTO   H47 6246   7.049   4.115  -0.510 -1.4349  0.1224 -2.5716
   15CHTO   C20 6247   6.865   4.157  -0.433 -0.1540  0.5513 -0.4014
   15CHTO   H48 6248   6.770   4.112  -0.399  0.2344 -0.7823 -1.0343
   15CHTO   O19 6249   6.833   4.217  -0.557 -0.1693 -0.1594  0.2896
   15CHTO   H35 6250   6.773   4.287  -0.537  0.0722  0.1007  0.0990
   15CHTO   C21 6251   6.915   4.265  -0.317  0.7166  0.2650  0.6320
   15CHTO   H49 6252   6.977   4.337  -0.369 -0.3959 -0.1866 -1.4144
   15CHTO    N4 6253   6.811   4.359  -0.271 -0.1004 -0.0750 -0.2581
   15CHTO   H41 6254   6.859   4.451  -0.239  0.8914 -0.5594 -0.3237
   15CHTO   H42 6255   6.748   4.316  -0.196  0.7255 -0.8820 -0.0266
   15CHTO   C22 6256   6.991   4.203  -0.201  0.2500  0.2905  0.8060
   15CHTO   H50 6257   6.924   4.155  -0.129 -0.6876  1.1842  0.5382
   15CHTO   O14 6258   7.091   4.116  -0.258 -0.2269  0.2980  0.0959
   15CHTO   C23 6259   7.041   3.997  -0.328 -0.5841 -0.4109  0.1364
   15CHTO   H51 6260   6.968   3.959  -0.255  0.8309 -0.4027  1.5915
   15CHTO   C34 6261   7.165   3.907  -0.355  0.3756  0.4289 -0.3243
   15CHTO   O23 6262   7.258   3.954  -0.455 -0.5165 -0.2156  0.4215
   15CHTO   H38 6263   7.329   3.995  -0.409 -0.9162 -0.8060  1.5709
   15CHTO   O16 6264   7.072   4.304  -0.139 -0.1994  0.0160 -0.2636
   15CHTO   C24 6265   7.089   4.299   0.009  0.4966  0.0190 -0.5937
   15CHTO   H52 6266   7.075   4.197   0.046  2.3400 -0.1972 -0.4452
   15CHTO   C26 6267   6.985   4.397   0.066  0.3848  0.3141  0.2687
   15CHTO   H54 6268   6.991   4.488   0.002 -2.1406 -1.5116 -2.7169
   15CHTO   O20 6269   6.855   4.339   0.061  0.1804  0.3040  0.3214
   15CHTO   H36 6270   6.851   4.263   0.116  0.9458 -0.5546 -0.7928
   15CHTO   C30 6271   7.024   4.446   0.205  0.0333  0.2654 -0.9418
   15CHTO   H58 6272   7.016   4.372   0.286 -2.1108  0.8251 -0.5991
   15CHTO    N6 6273   6.932   4.549   0.255 -0.0386  0.2094  0.2897
   15CHTO   H45 6274   6.837   4.511   0.288 -0.0617  0.5665  0.6368
   15CHTO   H46 6275   6.919   4.618   0.174 -1.6469  0.0543  0.4076
   15CHTO   C33 6276   7.169   4.499   0.199 -0.0632  0.0142  0.0088
   15CHTO   H61 6277   7.184   4.566   0.113  2.5021 -1.6463 -0.8828
   15CHTO   O18 6278   7.243   4.378   0.172  0.0239  0.1122  0.6005
   15CHTO   C28 6279   7.236   4.339   0.036 -0.2747 -0.2677 -0.5574
   15CHTO   H56 6280   7.264   4.410  -0.042 -0.3510 -0.1481 -0.4769
   15CHTO   C35 6281   7.325   4.218   0.011 -0.2601 -0.2112  0.9722
   15CHTO   O24 6282   7.293   4.112   0.100 -0.2048 -0.2176  0.8258
   15CHTO   H39 6283   7.206   4.080   0.087 -0.2239 -0.4103  1.3886
   15CHTO    O9 6284   7.220   4.566   0.320 -0.8869 -0.0515  0.2926
   15CHTO   C13 6285   7.352   4.640   0.309 -0.2428 -0.0134 -0.1515
   15CHTO   H26 6286   7.330   4.743   0.273 -0.3006  0.2921  0.7410
   15CHTO   C11 6287   7.459   4.566   0.212 -0.3489  0.0580  0.6433
   15CHTO   H24 6288   7.418   4.582   0.112  3.8252 -1.1694 -1.3777
   15CHTO    O8 6289   7.480   4.429   0.250  0.0930  0.3773  0.2019
   15CHTO    H3 6290   7.510   4.374   0.180 -2.5003 -0.4825 -0.2915
   15CHTO    C9 6291   7.595   4.642   0.222 -0.1106 -0.4023 -0.0789
   15CHTO   H22 6292   7.567   4.748   0.209  1.1892 -0.2137 -1.4831
   15CHTO    N2 6293   7.695   4.606   0.115  0.1214 -0.1983  0.3449
   15CHTO   H10 6294   7.660   4.519   0.061  1.1392  0.9425 -2.2303
   15CHTO   H11 6295   7.729   4.688   0.055  0.8250 -1.4964 -1.0620
   15CHTO    C7 6296   7.644   4.628   0.360 -0.0412 -0.0858 -0.1678
   15CHTO   H20 6297   7.736   4.690   0.351 -1.9949  3.2183  1.5881
   15CHTO    O4 6298   7.558   4.676   0.460  0.4885  0.5067 -0.2889
   15CHTO   C14 6299   7.413   4.667   0.460 -0.3016  0.7670 -0.4043
   15CHTO   H27 6300   7.378   4.766   0.496  1.3156  1.2125 -0.0352
   15CHTO   C18 6301   7.367   4.554   0.565 -0.2417 -0.1695 -0.5124
   15CHTO   O13 6302   7.437   4.577   0.688 -0.0902  0.2523 -0.4294
   15CHTO    H7 6303   7.427   4.510   0.753 -1.1007  0.9321  0.1309
   15CHTO    O2 6304   7.697   4.470   0.416 -0.4341 -0.4504  0.0008
   15CHTO    C1 6305   7.726   4.475   0.548  0.4169 -0.7943 -0.1397
   15CHTO   H14 6306   7.651   4.535   0.603 -1.8540 -1.4701 -2.4192
   15CHTO    C2 6307   7.876   4.550   0.571  0.2542  0.3230  0.5366
   15CHTO   H15 6308   7.940   4.488   0.507  0.7407  0.9682  0.3999
   15CHTO    O6 6309   7.875   4.686   0.539 -0.0789  0.1856 -0.1516
   15CHTO    H1 6310   7.962   4.715   0.519 -0.3113 -0.6319 -2.4545
   15CHTO    C3 6311   7.942   4.530   0.710  0.0627  0.0373 -0.1141
   15CHTO   H16 6312   7.882   4.595   0.776  0.0898 -0.5775  0.5234
   15CHTO    N1 6313   8.086   4.566   0.713 -0.1193 -0.8259  0.5464
   15CHTO    H8 6314   8.139   4.472   0.724  0.7654 -0.3649  0.3184
   15CHTO    H9 6315   8.108   4.627   0.627  0.1565  0.5369  1.5542
   15CHTO    C4 6316   7.911   4.386   0.760 -0.2405 -0.1632  0.0755
   15CHTO   H17 6317   7.965   4.317   0.695  0.7716  0.5242  0.1856
   15CHTO    O1 6318   7.771   4.351   0.753  0.1740  0.6846  0.0086
   15CHTO    C5 6319   7.728   4.334   0.615 -0.8418  0.2713  0.0291
   15CHTO   H18 6320   7.812   4.280   0.572  0.2759  2.8637 -1.1278
   15CHTO   C16 6321   7.599   4.251   0.603  0.9023 -0.1327  0.1865
   15CHTO   O11 6322   7.577   4.212   0.467  0.1270 -0.6947 -0.5626
   15CHTO    H5 6323   7.538   4.127   0.462 -0.1055 -0.7754  2.2920
   15CHTO    O3 6324   7.943   4.356   0.900  0.0739  0.4927  0.0739
   15CHTO    C6 6325   7.994   4.219   0.922  0.8036  0.3391  0.2872
   15CHTO   H19 6326   7.988   4.153   0.836 -0.1879 -0.2553  0.8123
   15CHTO    C8 6327   8.146   4.206   0.960  0.8839  0.8136 -0.2518
   15CHTO   H21 6328   8.171   4.273   1.041  3.1154  0.3948 -0.5677
   15CHTO    O7 6329   8.221   4.246   0.840 -0.0731 -0.7771 -0.1335
   15CHTO    H2 6330   8.314   4.243   0.854  0.0451 -0.4310 -0.8085
   15CHTO   C12 6331   8.187   4.059   1.008 -0.1671 -0.3309  0.1930
   15CHTO   H25 6332   8.176   3.992   0.921  0.0710 -1.0487  0.7127
   15CHTO    N3 6333   8.332   4.058   1.038 -0.4757  0.6660 -0.4567
   15CHTO   H12 6334   8.394   4.063   0.950  1.3408 -1.3278  0.6750
   15CHTO   H13 6335   8.352   4.119   1.125 -1.8123 -0.3909  0.6230
   15CHTO   C15 6336   8.087   4.010   1.124 -0.6009 -0.1046 -0.1441
   15CHTO   H28 6337   8.099   4.056   1.223  1.7011 -1.6154  0.3304
   15CHTO   O10 6338   8.088   3.865   1.148  0.3536  0.6558  0.3759
   15CHTO    H4 6339   8.055   3.845   1.233  0.4267 -2.3491 -0.2527
   15CHTO    O5 6340   7.947   4.026   1.085 -0.0914  0.1771 -0.5135
   15CHTO   C10 6341   7.912   4.160   1.043 -0.0028  0.4177 -0.3018
   15CHTO   H23 6342   7.936   4.231   1.123  0.3854  1.0601 -0.9819
   15CHTO   C17 6343   7.763   4.160   1.014 -0.1773 -0.1261 -0.3939
   15CHTO   O12 6344   7.728   4.068   0.908 -0.0060 -0.1016 -0.1947
   15CHTO    H6 6345   7.733   3.983   0.948 -3.1079 -0.6672 -0.9085
   16CHTO  H203 6346   6.155   4.626   2.530 -0.4510 -0.7932  1.5038
   16CHTO   O82 6347   6.241   4.628   2.569  0.1271 -0.4157  0.2144
   16CHTO  C123 6348   6.266   4.511   2.642 -0.0422  0.2956  0.4641
   16CHTO  H227 6349   6.172   4.492   2.696 -0.2572  1.3510  0.4671
   16CHTO   O77 6350   6.283   4.409   2.540  0.0777  0.4548 -0.7960
   16CHTO  C118 6351   6.293   4.280   2.608  0.2594 -0.2484 -0.2680
   16CHTO  H222 6352   6.196   4.261   2.655  0.2301  0.4971 -0.0074
   16CHTO  C125 6353   6.321   4.165   2.503 -0.4103  0.0424 -0.5534
   16CHTO   O84 6354   6.227   4.158   2.400  0.5304  0.0164 -0.0949
   16CHTO  H205 6355   6.202   4.247   2.386  1.7742  0.2164 -1.1444
   16CHTO  C114 6356   6.413   4.273   2.709  0.0493 -0.7407  0.0304
   16CHTO  H218 6357   6.507   4.294   2.659  0.8839  0.0985  1.9013
   16CHTO  C116 6358   6.407   4.384   2.819  0.2707  0.8027 -0.4265
   16CHTO  H220 6359   6.320   4.362   2.884  1.4286 -0.5319  0.6835
   16CHTO   O79 6360   6.532   4.374   2.889  0.3671 -0.6647  0.5181
   16CHTO  H201 6361   6.528   4.448   2.947 -0.2781  0.7483 -1.2814
   16CHTO  C120 6362   6.390   4.522   2.743 -0.3674  0.5500  0.6512
   16CHTO  H224 6363   6.476   4.534   2.674 -1.3180  0.4535 -0.5740
   16CHTO   N21 6364   6.386   4.628   2.839  0.3354 -0.3603  0.1221
   16CHTO  H211 6365   6.488   4.660   2.856  1.0683 -2.3677 -0.3547
   16CHTO  H212 6366   6.323   4.714   2.823 -1.1359 -0.9302  2.6455
   16CHTO   O75 6367   6.412   4.138   2.763  0.5355 -0.2295 -0.3219
   16CHTO  C112 6368   6.583   4.065   2.746 -0.3028 -0.4572  0.4447
   16CHTO  H216 6369   6.653   4.149   2.732 -2.0934  1.0198  0.0440
   16CHTO   O73 6370   6.579   3.981   2.630 -0.0292  0.7624  0.0028
   16CHTO  C113 6371   6.704   3.918   2.591  0.3606 -0.4710  0.5556
   16CHTO  H217 6372   6.766   3.998   2.546 -0.1556 -0.7782 -0.7246
   16CHTO  C124 6373   6.664   3.824   2.481 -0.1869 -0.0611 -0.3110
   16CHTO   O83 6374   6.595   3.709   2.534 -0.0556 -0.3191  0.3154
   16CHTO  H204 6375   6.571   3.646   2.468 -0.0964  1.3403 -1.3172
   16CHTO  C109 6376   6.788   3.850   2.707 -0.3558 -0.1985 -0.1357
   16CHTO  H213 6377   6.738   3.757   2.736 -2.7978  0.7535 -1.2231
   16CHTO  C110 6378   6.777   3.940   2.832  0.1648  0.0597 -0.0825
   16CHTO  H214 6379   6.835   4.032   2.819 -0.5008  0.2397 -1.8158
   16CHTO   O78 6380   6.841   3.880   2.943 -0.1362 -0.4264  0.5574
   16CHTO  H200 6381   6.855   3.789   2.926 -1.2106 -0.1379 -2.1118
   16CHTO  C111 6382   6.632   3.983   2.870 -0.4182  0.2736  0.3260
   16CHTO  H215 6383   6.566   3.895   2.874  0.4338 -0.4286 -1.0341
   16CHTO   N19 6384   6.616   4.054   3.001  0.2821 -0.2835 -0.0441
   16CHTO  H207 6385   6.538   4.129   3.006  1.8677  1.3777  0.7586
   16CHTO  H208 6386   6.603   3.983   3.081  1.0065 -0.2190  0.1332
   16CHTO   O74 6387   6.927   3.821   2.674 -0.3194  0.0476 -0.1061
   16CHTO  C115 6388   6.945   3.649   2.635  0.3194  0.2532  0.6367
   16CHTO  H219 6389   6.873   3.584   2.684  0.7609  2.0919  3.8109
   16CHTO   O76 6390   6.936   3.624   2.475  0.1360 -1.0636  0.3817
   16CHTO  C122 6391   6.946   3.495   2.414  0.3213 -0.3842  0.0023
   16CHTO  H226 6392   6.942   3.516   2.307  1.9831  3.7863  0.6888
   16CHTO  C126 6393   6.820   3.407   2.446 -0.0753 -0.4161  0.0212
   16CHTO   O85 6394   6.850   3.280   2.398  0.4442 -0.0218 -0.2323
   16CHTO  H206 6395   6.882   3.284   2.310 -2.4741 -0.6926 -1.3974
   16CHTO  C121 6396   7.087   3.443   2.455  0.0512  0.8188 -0.1952
   16CHTO  H225 6397   7.091   3.337   2.421 -0.7682 -0.1558  2.6760
   16CHTO   O81 6398   7.192   3.505   2.381 -0.1205  0.0818 -0.5372
   16CHTO  H202 6399   7.265   3.447   2.372 -0.6840 -0.6756 -0.2219
   16CHTO  C119 6400   7.113   3.454   2.617 -0.2170 -0.4491  0.7699
   16CHTO  H223 6401   7.036   3.394   2.666 -1.0954  0.3334  0.3522
   16CHTO  C117 6402   7.090   3.594   2.680 -0.2852 -0.5708 -0.5116
   16CHTO  H221 6403   7.168   3.662   2.648 -0.8355  0.6942  0.7546
   16CHTO   N20 6404   7.102   3.590   2.830  0.4193  0.5883 -0.4381
   16CHTO  H209 6405   7.203   3.619   2.857  0.1941  0.4877  0.5326
   16CHTO  H210 6406   7.069   3.497   2.875  0.0959  0.3407 -1.1873
   16CHTO   O80 6407   7.256   3.370   2.660 -0.4635 -0.9651  0.3484
   16CHTO  C103 6408   7.258   3.201   2.658  0.4291  0.9982  0.4704
   16CHTO  H190 6409   7.161   3.170   2.617  0.9827  0.1987 -0.2437
   16CHTO  C101 6410   7.378   3.139   2.578  0.3494 -0.5199  0.1339
   16CHTO  H188 6411   7.462   3.195   2.618  0.2556 -1.5874  1.9220
   16CHTO   O68 6412   7.359   3.166   2.428 -0.2356  0.0472  0.4717
   16CHTO  H168 6413   7.441   3.192   2.389  0.0910 -0.4940  0.7915
   16CHTO   C99 6414   7.396   2.982   2.595  0.0617 -0.5879  0.0254
   16CHTO  H186 6415   7.317   2.936   2.533 -0.6907  0.8608 -0.1193
   16CHTO   N17 6416   7.533   2.931   2.551 -0.0384 -0.1855  0.2801
   16CHTO  H174 6417   7.543   2.950   2.446 -1.8110 -4.1069 -0.7003
   16CHTO  H175 6418   7.620   2.969   2.602 -0.7293  1.7501  0.0318
   16CHTO   C97 6419   7.367   2.942   2.746  0.3863  0.5789  0.4666
   16CHTO  H184 6420   7.458   2.962   2.804  0.9935  0.3337 -0.3872
   16CHTO   O64 6421   7.256   3.012   2.795  0.3656  0.2323 -0.0266
   16CHTO  C104 6422   7.266   3.152   2.800  0.4539  0.1556 -0.6846
   16CHTO  H191 6423   7.359   3.185   2.846 -0.7525  0.7829  1.3638
   16CHTO  C108 6424   7.152   3.208   2.891 -0.0271  0.6497  0.0985
   16CHTO   O71 6425   7.191   3.199   3.027  0.0512  0.0590 -0.4675
   16CHTO  H171 6426   7.115   3.177   3.078  0.3481  0.9527  0.3823
   16CHTO   O62 6427   7.332   2.798   2.759 -0.2347  0.1491 -0.3553
   16CHTO   C91 6428   7.331   2.740   2.891  0.2780 -0.3803  0.4398
   16CHTO  H178 6429   7.338   2.824   2.961 -2.7820  0.6931 -0.4500
   16CHTO   C92 6430   7.448   2.638   2.919  0.2999  0.8030  0.2568
   16CHTO  H179 6431   7.440   2.559   2.843 -0.1123  2.0468 -1.0087
   16CHTO   O66 6432   7.565   2.706   2.864  0.5583 -0.2028  0.3553
   16CHTO  H166 6433   7.623   2.737   2.931  1.1195  1.0764 -0.6975
   16CHTO   C93 6434   7.451   2.597   3.070 -0.0547 -0.2264  0.8650
   16CHTO  H180 6435   7.458   2.694   3.122  0.7476 -0.1192  0.5701
   16CHTO   N16 6436   7.569   2.512   3.101  0.0245  0.5781  0.5201
   16CHTO  H172 6437   7.669   2.547   3.081  0.5068 -0.9668  0.1930
   16CHTO  H173 6438   7.554   2.416   3.055  2.2237  1.2188 -1.6446
   16CHTO   C94 6439   7.317   2.532   3.104 -0.2976  0.1013  0.5273
   16CHTO  H181 6440   7.303   2.435   3.057  1.0620 -0.1880  0.7046
   16CHTO   O61 6441   7.212   2.613   3.047  0.4077 -0.1243 -0.3840
   16CHTO   C95 6442   7.194   2.666   2.918 -0.6468 -0.4047  0.7619
   16CHTO  H182 6443   7.182   2.584   2.847  0.4391  0.8933 -0.9759
   16CHTO  C106 6444   7.074   2.766   2.920 -0.1006 -0.0871  0.1616
   16CHTO   O69 6445   7.081   2.858   3.031  0.6843  0.2871 -0.3186
   16CHTO  H169 6446   7.167   2.898   3.031  1.4554 -1.3299 -0.9436
   16CHTO   O63 6447   7.300   2.512   3.284  0.6948  0.5071 -1.0371
   16CHTO   C96 6448   7.153   2.513   3.340 -0.0434  0.3118 -0.8437
   16CHTO  H183 6449   7.172   2.477   3.441  0.0162  0.3574 -0.8391
   16CHTO   C98 6450   7.036   2.433   3.260 -0.7151  0.3116 -0.1402
   16CHTO  H185 6451   7.044   2.451   3.151  0.4502 -0.5998 -0.2172
   16CHTO   O67 6452   7.057   2.294   3.277 -0.0238  0.6256 -0.5129
   16CHTO  H167 6453   7.096   2.249   3.204  0.4739  0.8867 -0.4067
   16CHTO  C102 6454   6.882   2.474   3.308  0.2677  0.2631 -0.7692
   16CHTO  H189 6455   6.872   2.443   3.413  0.6748 -0.9996 -1.0994
   16CHTO   N18 6456   6.764   2.406   3.242 -0.2744  0.3831  0.9062
   16CHTO  H176 6457   6.788   2.380   3.140 -0.6795  0.3125  0.8301
   16CHTO  H177 6458   6.730   2.318   3.293  1.0888 -0.3512  0.5863
   16CHTO  C105 6459   6.874   2.628   3.300  0.2015 -0.0129  0.2202
   16CHTO  H192 6460   6.888   2.659   3.196  0.7815 -1.4832 -0.1431
   16CHTO   O65 6461   6.968   2.685   3.391  0.7224 -0.8220  0.4998
   16CHTO  C100 6462   7.106   2.658   3.357 -0.2844 -0.2498 -0.4178
   16CHTO  H187 6463   7.121   2.710   3.261 -1.7333 -1.2190 -1.1912
   16CHTO  C107 6464   7.191   2.736   3.456 -0.6781  0.6414  0.4597
   16CHTO   O70 6465   7.164   2.702   3.596  0.4934  0.0351  0.3483
   16CHTO  H170 6466   7.232   2.741   3.649  1.3066 -2.4573  1.2422
   16CHTO   O57 6467   6.723   2.674   3.361  0.1318 -0.1880  0.5910
   16CHTO   C85 6468   6.641   2.755   3.274 -0.5089  0.3100 -0.0759
   16CHTO  H157 6469   6.678   2.722   3.175  1.7723 -0.2160  0.9152
   16CHTO   C83 6470   6.678   2.913   3.290  0.3504  0.1592  0.4054
   16CHTO  H155 6471   6.777   2.926   3.247  0.0455  0.1178 -0.3245
   16CHTO   O56 6472   6.676   2.946   3.432  0.5938  0.6550 -0.1531
   16CHTO  H135 6473   6.734   3.013   3.463 -0.9280  1.6525  0.5611
   16CHTO   C81 6474   6.590   3.003   3.202  0.0393  0.2715 -0.3234
   16CHTO  H153 6475   6.614   2.980   3.099  0.2286  1.7024 -0.6110
   16CHTO   N14 6476   6.627   3.147   3.206 -0.0307 -0.4836  0.3727
   16CHTO  H141 6477   6.558   3.198   3.143  2.9546  1.7212 -1.2584
   16CHTO  H142 6478   6.624   3.184   3.306 -0.5584  0.7821 -0.1135
   16CHTO   C79 6479   6.436   2.976   3.229  0.8407 -0.0453  0.6650
   16CHTO  H151 6480   6.381   3.030   3.152  1.5564 -1.2145 -0.6643
   16CHTO   O52 6481   6.399   2.836   3.216  0.1178  0.2076  0.1852
   16CHTO   C86 6482   6.485   2.738   3.288 -0.6232 -0.8767  0.1104
   16CHTO  H158 6483   6.464   2.764   3.394  0.6992  1.5671 -0.2015
   16CHTO   C90 6484   6.440   2.593   3.265 -0.0815 -0.5847  0.1355
   16CHTO   O60 6485   6.302   2.569   3.301 -0.5961  0.0478  0.3358
   16CHTO  H138 6486   6.272   2.485   3.271  1.4692 -0.5242 -0.2106
   16CHTO   O50 6487   6.391   3.030   3.357 -0.3614  0.2472 -0.0375
   16CHTO   C73 6488   6.275   3.007   3.444 -0.4727  0.3312 -0.0927
   16CHTO  H145 6489   6.286   2.904   3.482  1.2445  0.2421 -0.8092
   16CHTO   C74 6490   6.138   3.031   3.362  0.9407 -0.0862  0.1392
   16CHTO  H146 6491   6.141   2.960   3.278  0.0799  0.0051  0.0276
   16CHTO   O54 6492   6.024   2.992   3.445 -0.8222 -0.2191  0.2216
   16CHTO  H133 6493   6.024   3.037   3.528 -0.4364  0.6345 -0.2359
   16CHTO   C75 6494   6.143   3.181   3.311 -0.5357 -0.1102 -0.0908
   16CHTO  H147 6495   6.221   3.190   3.233  1.5545 -0.4588  1.9136
   16CHTO   N13 6496   6.026   3.214   3.229 -0.1296 -0.2239  0.0138
   16CHTO  H139 6497   5.964   3.293   3.270  2.8656  2.4684 -0.5013
   16CHTO  H140 6498   6.056   3.239   3.129 -0.7876  0.2403 -0.0758
   16CHTO   C76 6499   6.165   3.281   3.432  0.3306  0.7366  0.0147
   16CHTO  H148 6500   6.071   3.273   3.486  0.5851 -1.2480  0.2134
   16CHTO   O49 6501   6.278   3.240   3.518  0.0573  0.2750  0.1434
   16CHTO   C77 6502   6.285   3.104   3.562  0.1913 -0.5947  0.5129
   16CHTO  H149 6503   6.207   3.074   3.633  0.1601 -1.2246  0.2212
   16CHTO   C88 6504   6.423   3.091   3.635 -0.5785  0.0975  0.5458
   16CHTO   O58 6505   6.455   2.960   3.701  0.1756  0.0179  0.4929
   16CHTO  H136 6506   6.435   2.900   3.632  2.4460 -0.4885  0.2575
   16CHTO   O51 6507   6.197   3.427   3.387  0.0657  0.1517  0.3173
   16CHTO   C78 6508   6.170   3.534   3.498  0.5982  0.4307  1.2062
   16CHTO  H150 6509   6.124   3.480   3.584  0.4334  1.0742  1.5259
   16CHTO   C80 6510   6.066   3.643   3.460  0.1571  0.7916  0.3348
   16CHTO  H152 6511   6.110   3.700   3.376 -0.2558 -0.1868 -0.5579
   16CHTO   O55 6512   5.942   3.573   3.438 -0.0630 -0.2157 -0.2072
   16CHTO  H134 6513   5.959   3.502   3.380  1.5193 -1.2333  1.4372
   16CHTO   C84 6514   6.053   3.748   3.584 -0.0130  0.4364 -0.1739
   16CHTO  H156 6515   6.023   3.688   3.670  0.3466 -1.2563 -1.2118
   16CHTO   N15 6516   5.952   3.853   3.559  0.2239  0.3610  0.5112
   16CHTO  H143 6517   5.853   3.815   3.551  0.3529  0.2974 -0.9786
   16CHTO  H144 6518   5.974   3.922   3.480  0.5179  0.7612  0.9399
   16CHTO   C87 6519   6.193   3.807   3.619  0.5540 -0.6553  0.0573
   16CHTO  H159 6520   6.241   3.872   3.547  3.2812  0.0524  2.4494
   16CHTO   O53 6521   6.288   3.694   3.649 -0.2957 -0.0279  0.0824
   16CHTO   C82 6522   6.303   3.603   3.533  0.7119 -0.1375  0.7990
   16CHTO  H154 6523   6.331   3.660   3.445 -2.4510  0.6975  0.2799
   16CHTO   C89 6524   6.412   3.510   3.562 -0.2121  0.2639  0.1901
   16CHTO   O59 6525   6.420   3.446   3.691  0.0148  0.6994  0.2781
   16CHTO  H137 6526   6.465   3.497   3.756 -0.0252  0.5301  0.4416
   16CHTO   O45 6527   6.194   3.883   3.758  0.7935  0.0274  0.4355
   16CHTO   C67 6528   6.330   3.919   3.791  0.3516  0.5150 -0.6768
   16CHTO  H124 6529   6.411   3.864   3.744  2.1080 -0.4202  3.2322
   16CHTO   C65 6530   6.359   4.073   3.765 -0.1045  0.3292  0.0363
   16CHTO  H122 6531   6.262   4.120   3.754 -0.3958 -0.7543 -2.2157
   16CHTO   O44 6532   6.425   4.077   3.634 -0.7475  0.4642 -0.1362
   16CHTO  H102 6533   6.483   4.150   3.628  2.0707 -1.5610  1.2738
   16CHTO   C63 6534   6.441   4.150   3.887 -0.5029 -0.4481  0.4745
   16CHTO  H120 6535   6.380   4.152   3.977 -1.1381  0.5088  0.0368
   16CHTO   N11 6536   6.485   4.291   3.874 -0.4534 -0.7104 -0.0432
   16CHTO  H108 6537   6.585   4.302   3.836 -0.2548 -1.7604  0.1477
   16CHTO  H109 6538   6.411   4.349   3.824  0.2280 -0.3731 -0.6663
   16CHTO   C61 6539   6.552   4.047   3.935 -0.0640 -0.4644  0.0477
   16CHTO  H118 6540   6.588   4.095   4.028  0.1692  2.3362 -1.4325
   16CHTO   O40 6541   6.500   3.918   3.973  0.5932 -0.1196  0.1593
   16CHTO   C68 6542   6.355   3.890   3.946  0.1297 -0.0533 -0.1046
   16CHTO  H125 6543   6.288   3.956   4.005  0.7760  0.5060  0.0120
   16CHTO   C72 6544   6.321   3.733   3.982  0.5457  0.0001 -0.3797
   16CHTO   O48 6545   6.175   3.722   3.990 -0.0985  0.2820  0.6173
   16CHTO  H105 6546   6.135   3.657   4.046 -1.5718 -1.0051 -1.8445
   16CHTO   O38 6547   6.646   4.036   3.831  0.3240 -0.5578  0.7379
   16CHTO   C55 6548   6.777   3.984   3.868 -0.0084 -0.8014  0.3927
   16CHTO  H112 6549   6.775   3.921   3.958  0.0097  2.2018  2.5854
   16CHTO   C56 6550   6.889   4.099   3.880  0.1791 -0.1527 -0.5644
   16CHTO  H113 6551   6.892   4.162   3.789  1.6865  0.2131 -0.2678
   16CHTO   O42 6552   6.851   4.186   3.993 -0.2597  0.0447  0.9021
   16CHTO  H100 6553   6.813   4.129   4.057 -0.7897 -1.2339 -0.5300
   16CHTO   C57 6554   7.035   4.037   3.897 -0.7289  0.1018  0.0643
   16CHTO  H114 6555   7.046   4.006   4.001  1.5646 -1.1509 -0.5267
   16CHTO   N10 6556   7.142   4.140   3.872  0.1881  0.0595  0.3999
   16CHTO  H106 6557   7.091   4.213   3.809 -1.3263 -1.3656 -0.0705
   16CHTO  H107 6558   7.228   4.106   3.816  0.8519  1.7233  0.3803
   16CHTO   C58 6559   7.056   3.919   3.797 -0.4163  0.3099  0.6510
   16CHTO  H115 6560   7.058   3.968   3.697 -1.8865 -0.3369  0.2999
   16CHTO   O37 6561   6.948   3.822   3.806  0.4754  0.6351 -0.3577
   16CHTO   C59 6562   6.825   3.888   3.757  0.3221 -1.0522 -0.5054
   16CHTO  H116 6563   6.836   3.949   3.667  0.4835 -0.8787 -0.3686
   16CHTO   C70 6564   6.725   3.778   3.721  0.5039 -0.0796  0.0204
   16CHTO   O46 6565   6.768   3.690   3.617  0.3949  0.3581 -0.0678
   16CHTO  H103 6566   6.707   3.619   3.614  0.0163  0.5874  2.0523
   16CHTO   O39 6567   7.188   3.831   3.817  0.0689 -0.3065 -0.7051
   16CHTO   C60 6568   7.236   3.771   3.699  0.3038  0.3227  0.4288
   16CHTO  H117 6569   7.159   3.766   3.622 -0.3545  1.2435  1.0081
   16CHTO   C62 6570   7.351   3.859   3.650 -0.3640 -0.0701 -0.3005
   16CHTO  H119 6571   7.316   3.960   3.620  0.9463  0.4723 -0.0594
   16CHTO   O43 6572   7.449   3.870   3.754  0.0584  0.0398  0.2044
   16CHTO  H101 6573   7.484   3.955   3.770 -0.9200  0.0732  2.3249
   16CHTO   C66 6574   7.413   3.805   3.514 -1.2652 -0.4676  0.5373
   16CHTO  H123 6575   7.332   3.789   3.443 -0.5925  1.1290 -0.6048
   16CHTO   N12 6576   7.516   3.885   3.445  0.5261  0.1205 -0.4993
   16CHTO  H110 6577   7.527   3.861   3.340 -0.4572  2.7744 -1.2518
   16CHTO  H111 6578   7.506   3.991   3.461  1.2388  0.0253  0.5624
   16CHTO   C69 6579   7.455   3.654   3.541 -0.3833 -0.5591  0.1590
   16CHTO  H126 6580   7.549   3.644   3.600  0.1331 -1.6276 -0.8142
   16CHTO   O41 6581   7.336   3.570   3.622  0.6003 -0.1527  0.2193
   16CHTO   C64 6582   7.286   3.623   3.727 -0.8528 -0.0443 -0.1377
   16CHTO  H121 6583   7.368   3.624   3.801 -1.6759  1.8910  0.7931
   16CHTO   C71 6584   7.173   3.536   3.778  0.0833 -0.0538 -0.6249
   16CHTO   O47 6585   7.056   3.518   3.702  0.3470 -0.7805 -0.9465
   16CHTO  H104 6586   7.081   3.475   3.623  0.3815 -0.2092 -1.2506
   16CHTO   O34 6587   7.477   3.576   3.409  0.1363  0.1969  0.3693
   16CHTO   C49 6588   7.402   3.547   3.287  0.2530 -0.3376 -0.1031
   16CHTO   H91 6589   7.358   3.637   3.246 -0.0218 -1.0332 -1.3456
   16CHTO   C47 6590   7.291   3.450   3.321  0.1288  0.0669 -0.1027
   16CHTO   H89 6591   7.242   3.420   3.226 -1.9499  0.5426  0.8030
   16CHTO   O33 6592   7.189   3.505   3.403 -0.2944  0.3613 -0.6689
   16CHTO   H70 6593   7.162   3.590   3.376 -0.9106  0.0386 -1.0776
   16CHTO   C45 6594   7.356   3.319   3.391  0.3318 -0.6833  0.2502
   16CHTO   H87 6595   7.364   3.343   3.498  0.3290 -1.2700  0.3833
   16CHTO    N8 6596   7.264   3.203   3.373 -0.4306 -0.1039  0.8497
   16CHTO   H75 6597   7.178   3.227   3.435  0.0344  1.4683  0.8837
   16CHTO   H76 6598   7.316   3.112   3.400  0.2462  0.2484  0.7246
   16CHTO   C43 6599   7.508   3.293   3.342  1.1402  0.4802  0.3190
   16CHTO   H85 6600   7.566   3.351   3.414 -0.0865 -0.3404  2.0032
   16CHTO   O29 6601   7.524   3.341   3.205  0.2251 -0.0092 -0.5105
   16CHTO   C50 6602   7.496   3.480   3.190  0.0963 -0.8160 -0.1692
   16CHTO   H92 6603   7.592   3.533   3.180  0.9029 -1.9730  1.3272
   16CHTO   C54 6604   7.439   3.497   3.052  0.6186 -0.2109  0.2165
   16CHTO   O36 6605   7.438   3.636   3.013 -0.4974  0.6948  0.3900
   16CHTO   H72 6606   7.524   3.651   2.979 -0.8633 -1.4928 -1.6338
   16CHTO   O27 6607   7.555   3.156   3.363  0.3336 -0.3256 -0.6967
   16CHTO   C37 6608   7.629   3.070   3.448  0.6445  0.5591  0.0767
   16CHTO   H79 6609   7.734   3.097   3.431  0.4567  1.6600  0.6479
   16CHTO   C38 6610   7.591   3.083   3.596 -0.7708  0.3499  0.8360
   16CHTO   H80 6611   7.481   3.078   3.605 -1.1918  3.7670 -1.4009
   16CHTO   O31 6612   7.628   3.217   3.633 -0.1901 -0.1899  0.4857
   16CHTO   H68 6613   7.563   3.285   3.640  0.1984  0.3359 -0.7263
   16CHTO   C39 6614   7.657   2.971   3.678  0.2695  0.2228  0.0538
   16CHTO   H81 6615   7.766   2.970   3.671  0.3607 -2.3396  1.3508
   16CHTO    N7 6616   7.615   2.987   3.830 -0.0002  0.2762  0.3472
   16CHTO   H73 6617   7.592   2.895   3.882 -1.2955 -0.9625 -2.2976
   16CHTO   H74 6618   7.534   3.057   3.840  0.2876  0.1301  4.1640
   16CHTO   C40 6619   7.616   2.833   3.609  0.0734  0.3773  0.6024
   16CHTO   H82 6620   7.508   2.820   3.610  0.1369 -0.5913  5.2070
   16CHTO   O26 6621   7.671   2.828   3.478  0.0597  0.6555  0.5255
   16CHTO   C41 6622   7.610   2.926   3.396  0.7269  0.0792  0.1609
   16CHTO   H83 6623   7.502   2.904   3.391  0.9223 -0.7468 -0.5208
   16CHTO   C52 6624   7.666   2.913   3.251  0.3610  0.3044 -0.4142
   16CHTO   O35 6625   7.578   2.962   3.140  0.6310  0.3072 -0.1697
   16CHTO   H71 6626   7.522   3.036   3.153 -1.9854 -1.6638 -0.0621
   16CHTO   O28 6627   7.661   2.715   3.687 -0.1993 -0.4055 -0.6125
   16CHTO   C42 6628   7.650   2.573   3.668 -0.3031  0.7869  0.2265
   16CHTO   H84 6629   7.715   2.533   3.745  0.4759  1.0288 -0.2948
   16CHTO   C44 6630   7.695   2.516   3.527  0.2816 -0.2931  0.8955
   16CHTO   H86 6631   7.632   2.559   3.450  2.0211 -0.2841 -0.5646
   16CHTO   O32 6632   7.832   2.563   3.503 -0.2467  0.1932 -0.7571
   16CHTO   H69 6633   7.846   2.652   3.478  1.0963  0.5275  1.0616
   16CHTO   C48 6634   7.681   2.360   3.528  0.4157 -0.4228  0.0145
   16CHTO   H90 6635   7.758   2.330   3.599  0.1956 -0.2396  0.3325
   16CHTO    N9 6636   7.728   2.300   3.399  0.2652  0.0142 -0.7718
   16CHTO   H77 6637   7.647   2.273   3.333  1.0635 -3.0194 -0.5938
   16CHTO   H78 6638   7.800   2.223   3.424 -0.5605 -0.5916 -0.2423
   16CHTO   C51 6639   7.530   2.324   3.566 -0.3179  0.1027 -0.2293
   16CHTO   H93 6640   7.458   2.353   3.489  0.6653 -0.2458 -1.3050
   16CHTO   O30 6641   7.504   2.387   3.694 -0.3108  0.3012  0.1289
   16CHTO   C46 6642   7.508   2.523   3.691 -0.1201 -0.3205  0.3473
   16CHTO   H88 6643   7.446   2.555   3.607  1.3596 -0.0880 -0.6792
   16CHTO   C53 6644   7.440   2.568   3.830  0.8026  0.7811  0.2770
   16CHTO   O72 6645   7.421   2.711   3.849  0.0897  0.4100  0.0559
   16CHTO  H199 6646   7.403   2.758   3.770  0.6515  0.4592 -0.0456
   16CHTO   O22 6647   7.519   2.181   3.595 -0.6701  0.6871 -0.4481
   16CHTO   C31 6648   7.391   2.115   3.612  0.8097 -0.5057 -0.3489
   16CHTO   H59 6649   7.327   2.183   3.672  0.5476 -1.1286  0.0881
   16CHTO   C29 6650   7.319   2.082   3.481 -0.1253 -0.0829  0.2043
   16CHTO   H57 6651   7.382   2.011   3.426  1.4656  1.5486 -0.1082
   16CHTO   O21 6652   7.316   2.201   3.401  0.7123 -0.2022  0.4223
   16CHTO   H37 6653   7.259   2.269   3.432 -1.0358 -0.9353 -1.0984
   16CHTO   C27 6654   7.173   2.012   3.493  0.0497 -0.5157  0.4916
   16CHTO   H55 6655   7.106   2.088   3.536  2.6596  1.4890  1.1548
   16CHTO    N5 6656   7.111   1.967   3.371 -0.0840 -0.0372 -0.0581
   16CHTO   H43 6657   7.004   1.980   3.369 -0.3990 -2.4831  0.2717
   16CHTO   H44 6658   7.113   1.861   3.354 -1.1819 -0.0071 -0.4227
   16CHTO   C25 6659   7.187   1.896   3.605 -0.4460  0.1889 -0.3065
   16CHTO   H53 6660   7.239   1.805   3.569 -0.1787  0.3656 -0.3709
   16CHTO   O17 6661   7.262   1.944   3.722  0.2652 -0.2396 -0.1341
   16CHTO   C32 6662   7.391   1.984   3.689 -1.0837  0.3879 -0.0460
   16CHTO   H60 6663   7.463   1.923   3.634  0.7928  4.1963 -2.0236
   16CHTO   C36 6664   7.455   2.009   3.827  0.2767 -0.2658 -0.2802
   16CHTO   O25 6665   7.537   1.904   3.877 -0.6338  0.0159 -0.1207
   16CHTO   H40 6666   7.616   1.926   3.923  0.2999 -0.2057 -1.5829
   16CHTO   O15 6667   7.060   1.833   3.642  0.0598 -0.1945 -0.2320
   16CHTO   C19 6668   6.943   1.838   3.737 -0.1575  0.8328  0.0791
   16CHTO   H47 6669   6.938   1.729   3.746 -1.0662  1.0413  2.3833
   16CHTO   C20 6670   6.971   1.897   3.883  0.3607 -0.0766  0.2528
   16CHTO   H48 6671   7.009   2.001   3.879  1.0942 -0.3314  0.4779
   16CHTO   O19 6672   7.070   1.821   3.949 -0.4667 -0.1349 -0.1980
   16CHTO   H35 6673   7.148   1.866   3.921  0.7158 -0.5484  2.2533
   16CHTO   C21 6674   6.849   1.890   3.976  0.1498  0.2520 -0.1291
   16CHTO   H49 6675   6.818   1.785   3.983 -0.1985  0.4249  1.0870
   16CHTO    N4 6676   6.865   1.957   4.112 -0.3480  0.0638  0.3910
   16CHTO   H41 6677   6.823   1.890   4.186  0.9102 -3.5937 -2.0076
   16CHTO   H42 6678   6.967   1.975   4.143  0.3670 -1.3016 -1.0990
   16CHTO   C22 6679   6.724   1.940   3.902 -0.1537 -0.0239  0.7888
   16CHTO   H50 6680   6.738   2.048   3.895  1.3644 -0.2797 -0.4629
   16CHTO   O14 6681   6.705   1.871   3.778 -0.0299 -0.2847  0.0672
   16CHTO   C23 6682   6.805   1.888   3.681  0.0453  0.1826 -0.4447
   16CHTO   H51 6683   6.803   1.995   3.656  1.2398  0.4190  0.4873
   16CHTO   C34 6684   6.761   1.816   3.552 -0.5566 -0.2715 -0.7153
   16CHTO   O23 6685   6.647   1.881   3.494  0.1237 -0.3868  0.1620
   16CHTO   H38 6686   6.622   1.837   3.415  0.3744  1.8116 -1.1885
   16CHTO   O16 6687   6.596   1.929   3.973  0.3142 -0.2190 -0.1736
   16CHTO   C24 6688   6.475   2.036   3.929  0.1498 -0.0205 -0.6156
   16CHTO   H52 6689   6.496   2.084   3.833  1.9835  0.0539 -0.1859
   16CHTO   C26 6690   6.461   2.151   4.037 -0.1812  0.4850 -0.7775
   16CHTO   H54 6691   6.439   2.098   4.132 -1.1762 -0.2878 -1.4284
   16CHTO   O20 6692   6.582   2.220   4.060 -0.0231  0.0572  0.3138
   16CHTO   H36 6693   6.653   2.159   4.063 -0.8971 -0.9125  1.9118
   16CHTO   C30 6694   6.345   2.242   3.997  0.1145 -0.5727 -0.0640
   16CHTO   H58 6695   6.372   2.289   3.901  1.6941 -1.1728  0.0799
   16CHTO    N6 6696   6.313   2.357   4.092 -0.5790 -0.4925  0.3180
   16CHTO   H45 6697   6.373   2.444   4.071 -0.2384 -0.5548  1.0006
   16CHTO   H46 6698   6.320   2.333   4.197  0.3178  0.3494  0.4559
   16CHTO   C33 6699   6.222   2.150   3.978  0.4828  0.3805  0.2791
   16CHTO   H61 6700   6.204   2.093   4.070  1.8262 -1.3062 -0.4846
   16CHTO   O18 6701   6.244   2.056   3.872  0.0217 -0.0042 -0.0458
   16CHTO   C28 6702   6.347   1.956   3.904 -0.1298 -0.3486 -0.3675
   16CHTO   H56 6703   6.324   1.897   3.992  0.3750  0.2097  0.1390
   16CHTO   C35 6704   6.370   1.848   3.799 -0.0730 -0.1064  0.1511
   16CHTO   O24 6705   6.251   1.789   3.741 -0.0831 -0.2402 -0.1965
   16CHTO   H39 6706   6.196   1.847   3.693  1.0593  0.9052 -0.1440
   16CHTO    O9 6707   6.098   2.225   3.952 -0.0243  0.1404  0.2212
   16CHTO   C13 6708   5.985   2.201   4.076  0.7091  0.3678  1.1297
   16CHTO   H26 6709   6.025   2.229   4.177  2.0918  2.4827  0.0434
   16CHTO   C11 6710   5.925   2.054   4.076 -1.3291 -0.0105 -0.9505
   16CHTO   H24 6711   5.994   1.985   4.127 -3.4174 -0.7086  0.9947
   16CHTO    O8 6712   5.935   2.015   3.938 -0.1031 -0.1855  0.0326
   16CHTO    H3 6713   5.886   1.936   3.925 -1.6243  0.9876 -1.7685
   16CHTO    C9 6714   5.785   2.050   4.137  0.3002  0.2687 -0.2495
   16CHTO   H22 6715   5.798   2.095   4.237  0.4983 -0.5749  0.1113
   16CHTO    N2 6716   5.741   1.912   4.170  0.3056 -0.2746  1.0269
   16CHTO   H10 6717   5.655   1.924   4.234  0.2350 -0.1090  0.8999
   16CHTO   H11 6718   5.723   1.851   4.082  0.8108  2.2145 -0.8645
   16CHTO    C7 6719   5.681   2.137   4.060 -0.8339 -0.3165 -0.3438
   16CHTO   H20 6720   5.609   2.176   4.135 -0.5005 -0.9911  0.3324
   16CHTO    O4 6721   5.744   2.250   3.996 -0.2649  0.2853  0.5359
   16CHTO   C14 6722   5.862   2.305   4.055 -0.5660 -0.9579  0.2291
   16CHTO   H27 6723   5.825   2.330   4.156 -0.9306  0.8100 -0.3111
   16CHTO   C18 6724   5.895   2.435   3.978  0.1894  0.1327 -0.8576
   16CHTO   O13 6725   6.017   2.489   4.040  0.0781 -0.1847 -0.3400
   16CHTO    H7 6726   6.025   2.466   4.130  0.3852 -0.1276 -0.3507
   16CHTO    O2 6727   5.598   2.046   3.943 -0.6569  0.6752 -0.2461
   16CHTO    C1 6728   5.466   2.089   3.909 -0.1528  0.6042  0.2842
   16CHTO   H14 6729   5.430   2.015   3.835 -0.4649 -1.3919  2.3535
   16CHTO    C2 6730   5.459   2.234   3.840  0.2598  0.2251 -0.1909
   16CHTO   H15 6731   5.520   2.300   3.904 -1.9423  1.7005  0.4505
   16CHTO    O6 6732   5.526   2.231   3.710 -0.1984  0.0029  0.7040
   16CHTO    H1 6733   5.537   2.319   3.680 -2.4304 -0.3375 -1.2776
   16CHTO    C3 6734   5.306   2.289   3.829  0.1501  0.4194 -0.5183
   16CHTO   H16 6735   5.254   2.239   3.745 -0.5242  0.4990 -0.1527
   16CHTO    N1 6736   5.295   2.440   3.805 -0.1708  0.7593  0.1925
   16CHTO    H8 6737   5.243   2.489   3.886 -1.3600  1.3620 -0.9139
   16CHTO    H9 6738   5.246   2.441   3.708  1.4751 -1.2761 -0.6863
   16CHTO    C4 6739   5.220   2.246   3.951  0.0644  0.4030 -0.1345
   16CHTO   H17 6740   5.250   2.311   4.033  1.2611  0.9975 -1.0358
   16CHTO    O1 6741   5.244   2.111   3.985  0.3793 -0.2326 -0.3700
   16CHTO    C5 6742   5.376   2.076   4.034  0.3589  0.2362  0.2965
   16CHTO   H18 6743   5.395   2.147   4.114  0.7268  1.8650 -1.1817
   16CHTO   C16 6744   5.384   1.927   4.082  0.7074  0.0853 -0.7266
   16CHTO   O11 6745   5.308   1.900   4.198 -0.0238  0.0810 -0.0477
   16CHTO    H5 6746   5.299   1.975   4.254 -1.2753 -0.3495  0.3372
   16CHTO    O3 6747   5.074   2.252   3.921  0.2349  0.7497  0.2957
   16CHTO    C6 6748   5.001   2.136   3.871  0.1148 -0.1895 -0.4020
   16CHTO   H19 6749   5.063   2.056   3.831  0.3318 -0.5513  0.6362
   16CHTO    C8 6750   4.927   2.076   4.006  0.0061 -0.6210  0.5828
   16CHTO   H21 6751   4.880   2.156   4.062  0.7288  0.6227 -0.5657
   16CHTO    O7 6752   5.023   2.024   4.101 -0.0665  0.0794 -0.0596
   16CHTO    H2 6753   5.035   2.087   4.169 -0.4865  0.2038 -0.1003
   16CHTO   C12 6754   4.805   1.974   3.967 -0.5028 -0.1902  0.0569
   16CHTO   H25 6755   4.856   1.880   3.934 -2.3102 -1.6052  1.2292
   16CHTO    N3 6756   4.715   1.930   4.079 -0.3265 -0.2837  0.1169
   16CHTO   H12 6757   4.612   1.960   4.066 -0.0139  0.2044 -1.4350
   16CHTO   H13 6758   4.744   1.970   4.175 -2.0966  0.8702  0.1828
   16CHTO   C15 6759   4.724   2.025   3.848  1.1530  0.0504 -0.8500
   16CHTO   H28 6760   4.654   2.101   3.882 -0.3453 -0.3393 -2.9428
   16CHTO   O10 6761   4.654   1.915   3.777  0.6739 -0.2411 -0.6645
   16CHTO    H4 6762   4.715   1.847   3.756 -1.5327 -1.8185 -2.1729
   16CHTO    O5 6763   4.793   2.076   3.731 -0.7811 -0.3587  0.2348
   16CHTO   C10 6764   4.900   2.177   3.759  0.4059 -0.5649  0.6813
   16CHTO   H23 6765   4.851   2.264   3.803 -1.7800 -3.7982  5.0923
   16CHTO   C17 6766   4.963   2.197   3.620 -0.0019 -0.2942 -0.2453
   16CHTO   O12 6767   5.040   2.076   3.595 -0.6130 -0.0370 -0.4723
   16CHTO    H6 6768   5.017   2.035   3.514  0.1773 -0.0908 -0.6707
   17CHTO  H203 6769   5.941   4.458   2.395 -2.0018 -0.1852  0.7782
   17CHTO   O82 6770   5.976   4.527   2.447  0.5679 -0.2579 -0.7841
   17CHTO  C123 6771   5.883   4.617   2.509  0.5612 -0.1279  0.7665
   17CHTO  H227 6772   5.839   4.567   2.597 -0.5469 -1.0276 -0.2717
   17CHTO   O77 6773   5.969   4.729   2.560 -0.3529  0.1461 -0.7130
   17CHTO  C118 6774   5.895   4.839   2.614 -0.2904  0.9019  0.0135
   17CHTO  H222 6775   5.823   4.816   2.694 -0.9544  1.2915 -0.4656
   17CHTO  C125 6776   6.008   4.927   2.680 -0.1391  0.1655  0.0332
   17CHTO   O84 6777   6.075   4.854   2.778  0.1929 -0.7975  0.0582
   17CHTO  H205 6778   6.166   4.873   2.788 -0.0758  0.5975 -0.0647
   17CHTO  C114 6779   5.817   4.902   2.494 -0.5615 -0.1864  0.0853
   17CHTO  H218 6780   5.882   4.913   2.408  2.4215  1.4101  2.4506
   17CHTO  C116 6781   5.700   4.809   2.450 -0.3592 -0.3284 -0.3697
   17CHTO  H220 6782   5.631   4.785   2.533 -0.8801 -0.1690 -0.7522
   17CHTO   O79 6783   5.618   4.866   2.341  0.3436  0.4221  0.6715
   17CHTO  H201 6784   5.635   4.822   2.260 -1.0500  3.3835 -1.2843
   17CHTO  C120 6785   5.772   4.675   2.406  0.4839  0.3473 -0.0547
   17CHTO  H224 6786   5.814   4.701   2.307  1.9735 -2.5556 -0.2431
   17CHTO   N21 6787   5.662   4.575   2.381  1.0752  0.9281 -0.4239
   17CHTO  H211 6788   5.700   4.522   2.295  0.6496  1.7475 -1.1266
   17CHTO  H212 6789   5.653   4.498   2.456 -2.5032  0.9879 -0.7458
   17CHTO   O75 6790   5.778   5.029   2.547 -0.6680  0.0880 -0.0001
   17CHTO  C112 6791   5.803   5.148   2.423  0.5009 -0.7039 -0.2855
   17CHTO  H216 6792   5.770   5.115   2.323 -0.7490 -0.5929  0.0755
   17CHTO   O73 6793   5.945   5.173   2.428 -0.3796  0.0827  0.0112
   17CHTO  C113 6794   6.001   5.279   2.345 -0.3286  0.4234 -1.1155
   17CHTO  H217 6795   5.967   5.263   2.240 -3.5839 -3.1489  0.3496
   17CHTO  C124 6796   6.152   5.281   2.347 -0.0956 -0.0254 -0.1288
   17CHTO   O83 6797   6.203   5.333   2.470  0.9171 -0.2764  0.5996
   17CHTO  H204 6798   6.289   5.365   2.449  0.4759  0.3059 -0.3251
   17CHTO  C109 6799   5.935   5.413   2.372 -0.1046 -0.3769  0.4848
   17CHTO  H213 6800   5.963   5.440   2.475  2.1695  1.6392 -0.6318
   17CHTO  C110 6801   5.778   5.402   2.377  0.2484 -0.0142  0.2677
   17CHTO  H214 6802   5.731   5.405   2.279  0.6848  2.3854  0.1177
   17CHTO   O78 6803   5.727   5.515   2.441  0.0914  0.6529 -0.2430
   17CHTO  H200 6804   5.633   5.523   2.437  0.1643  1.4009 -0.6735
   17CHTO  C111 6805   5.720   5.280   2.455  0.0134  0.2956  0.3012
   17CHTO  H215 6806   5.732   5.301   2.563  1.0850 -0.2228  0.2926
   17CHTO   N19 6807   5.575   5.255   2.437 -0.5107 -0.0190 -0.0747
   17CHTO  H207 6808   5.549   5.171   2.500  1.8858 -0.3225  0.5852
   17CHTO  H208 6809   5.521   5.343   2.469 -0.9195 -0.4231  0.3732
   17CHTO   O74 6810   5.986   5.516   2.281  0.2137  0.0446 -0.3639
   17CHTO  C115 6811   5.987   5.654   2.353  0.0971  0.1215 -0.6907
   17CHTO  H219 6812   5.894   5.664   2.409  0.4441 -0.2139 -0.0370
   17CHTO   O76 6813   6.110   5.652   2.466 -0.2843  0.4229  0.3478
   17CHTO  C122 6814   6.231   5.705   2.406 -0.1746 -0.0086  0.2547
   17CHTO  H226 6815   6.255   5.634   2.327 -0.0446  0.5356 -0.1970
   17CHTO  C126 6816   6.343   5.686   2.521 -0.0714  0.0872  0.3214
   17CHTO   O85 6817   6.474   5.717   2.480  0.0530  0.9444  0.7593
   17CHTO  H206 6818   6.534   5.705   2.552  0.8780  0.7933  0.0619
   17CHTO  C121 6819   6.223   5.852   2.360  0.1752 -0.1127 -0.3178
   17CHTO  H225 6820   6.257   5.925   2.437 -0.6859  0.2240 -0.2523
   17CHTO   O81 6821   6.303   5.872   2.243 -0.1236 -0.0591 -0.0990
   17CHTO  H202 6822   6.391   5.842   2.252 -0.3968 -1.3680 -1.6124
   17CHTO  C119 6823   6.077   5.891   2.328  0.3760 -0.6092 -0.0845
   17CHTO  H223 6824   6.020   5.902   2.420  0.7301 -0.2109  0.0869
   17CHTO  C117 6825   6.011   5.772   2.248 -0.7391  0.2408 -0.0318
   17CHTO  H221 6826   6.070   5.730   2.166 -0.4262 -0.2302  0.4264
   17CHTO   N20 6827   5.877   5.798   2.197  0.6301  0.0410  0.0900
   17CHTO  H209 6828   5.811   5.826   2.277  0.3373 -1.6972  0.4802
   17CHTO  H210 6829   5.841   5.710   2.146  0.6380 -0.3352  0.7336
   17CHTO   O80 6830   6.051   6.035   2.262  0.1345  0.1757 -0.3105
   17CHTO  C103 6831   6.108   6.163   2.324 -0.5643 -0.4050 -0.1615
   17CHTO  H190 6832   6.115   6.143   2.431  0.4679  0.3267 -0.0889
   17CHTO  C101 6833   6.239   6.227   2.262 -0.5864  0.3906  0.5304
   17CHTO  H188 6834   6.219   6.219   2.155 -1.7153 -0.6216  0.8041
   17CHTO   O68 6835   6.382   6.143   2.305 -0.4671 -0.3009  0.2997
   17CHTO  H168 6836   6.409   6.110   2.222 -1.3213  0.4869 -0.3047
   17CHTO   C99 6837   6.255   6.381   2.298 -0.8990 -0.2942 -0.2565
   17CHTO  H186 6838   6.273   6.392   2.407  1.1517 -0.3096 -0.5837
   17CHTO   N17 6839   6.379   6.439   2.228  0.4372 -0.4441  0.2191
   17CHTO  H174 6840   6.396   6.542   2.255  0.5830 -0.4759  0.2478
   17CHTO  H175 6841   6.359   6.440   2.122  0.8244 -0.9075  0.1369
   17CHTO   C97 6842   6.125   6.461   2.269 -1.0417  0.3867  0.1381
   17CHTO  H184 6843   6.105   6.460   2.161  2.4098 -0.1328 -0.5397
   17CHTO   O64 6844   6.022   6.399   2.345  0.7964 -0.3501 -0.2182
   17CHTO  C104 6845   5.985   6.267   2.305  0.5800 -0.2492 -0.1939
   17CHTO  H191 6846   5.957   6.270   2.200  0.6590 -0.1344 -0.2128
   17CHTO  C108 6847   5.865   6.213   2.379  0.8950  0.2988  0.3227
   17CHTO   O71 6848   5.790   6.125   2.297 -0.2881  0.2578 -0.2549
   17CHTO  H171 6849   5.822   6.037   2.304 -0.8162  0.0475 -0.4172
   17CHTO   O62 6850   6.135   6.594   2.328  0.5685 -0.1424  0.1951
   17CHTO   C91 6851   6.038   6.691   2.277  0.4847 -0.9132  0.2291
   17CHTO  H178 6852   5.969   6.645   2.206 -0.6038  0.4207  0.3889
   17CHTO   C92 6853   6.121   6.799   2.201 -0.1957  0.1414  0.5411
   17CHTO  H179 6854   6.198   6.747   2.141 -0.6169  0.7117 -0.4979
   17CHTO   O66 6855   6.041   6.872   2.103  0.0170 -0.1322  0.1643
   17CHTO  H166 6856   6.089   6.946   2.072  1.3606 -1.6935 -1.6443
   17CHTO   C93 6857   6.197   6.899   2.305  0.1426  1.2188  0.0308
   17CHTO  H180 6858   6.235   6.986   2.249  2.0416  1.2439  1.2858
   17CHTO   N16 6859   6.323   6.850   2.370 -0.6069  0.5048  0.1988
   17CHTO  H172 6860   6.337   6.743   2.379  1.4832  0.7259 -0.1071
   17CHTO  H173 6861   6.410   6.889   2.320  0.4534  1.0881  2.4101
   17CHTO   C94 6862   6.089   6.948   2.416 -0.9693  0.5754 -0.3288
   17CHTO  H181 6863   6.117   6.912   2.516 -0.8791 -0.5847 -0.7588
   17CHTO   O61 6864   5.961   6.896   2.388  0.1449 -0.0646  0.4721
   17CHTO   C95 6865   5.942   6.756   2.387 -0.2063  0.0656  0.5701
   17CHTO  H182 6866   5.972   6.716   2.484 -2.7327 -0.9960  0.9676
   17CHTO  C106 6867   5.782   6.730   2.357 -0.2398  0.2508 -0.3157
   17CHTO   O69 6868   5.751   6.590   2.358  0.3249 -0.8921 -0.1900
   17CHTO  H169 6869   5.789   6.558   2.437  0.1408  1.2995  0.8102
   17CHTO   O63 6870   6.091   7.109   2.408 -0.5852 -0.4515 -0.6437
   17CHTO   C96 6871   6.061   7.173   2.530 -0.4258  0.4687 -0.6438
   17CHTO  H183 6872   6.109   7.123   2.615  0.3209  1.4952 -0.4525
   17CHTO   C98 6873   5.909   7.183   2.563 -1.0769  0.1749  0.9738
   17CHTO  H185 6874   5.856   7.210   2.471  0.4615  0.0558  0.0467
   17CHTO   O67 6875   5.862   7.055   2.609  0.3342  0.0332  0.0203
   17CHTO  H167 6876   5.915   7.011   2.672 -0.9665 -0.4683  0.7894
   17CHTO  C102 6877   5.861   7.295   2.673  0.3115 -0.1645 -0.1534
   17CHTO  H189 6878   5.898   7.259   2.770 -1.7807 -2.4995 -0.1585
   17CHTO   N18 6879   5.710   7.303   2.691  0.0676 -0.2629 -0.5614
   17CHTO  H176 6880   5.671   7.403   2.677  2.7906  1.3280  2.5114
   17CHTO  H177 6881   5.684   7.276   2.792  2.3484  2.5668  0.8646
   17CHTO  C105 6882   5.931   7.426   2.646 -0.7181 -0.9106  0.3483
   17CHTO  H192 6883   5.897   7.464   2.550  1.4596  2.0398  0.6890
   17CHTO   O65 6884   6.075   7.413   2.626  0.7708  0.0965 -0.1973
   17CHTO  C100 6885   6.127   7.322   2.528 -0.7042 -0.3750  0.3274
   17CHTO  H187 6886   6.115   7.359   2.425  0.2177  1.5405  0.8878
   17CHTO  C107 6887   6.287   7.313   2.554  0.5400  0.6055 -0.6988
   17CHTO   O70 6888   6.371   7.245   2.465 -0.0407 -0.0990 -0.0325
   17CHTO  H170 6889   6.326   7.186   2.409  1.3696 -1.4796  0.2528
   17CHTO   O57 6890   5.891   7.516   2.773 -0.2963 -0.3645  0.2013
   17CHTO   C85 6891   5.971   7.625   2.818 -0.1525  0.5785  0.1072
   17CHTO  H157 6892   5.993   7.678   2.724 -1.8127  3.2204  1.1592
   17CHTO   C83 6893   6.097   7.573   2.883  0.0205 -0.6231 -0.2988
   17CHTO  H155 6894   6.157   7.515   2.813  1.6989 -0.5519  1.0499
   17CHTO   O56 6895   6.068   7.474   2.986  0.3475  0.4426 -0.2775
   17CHTO  H135 6896   6.075   7.396   2.935 -3.1817  0.8864 -1.5865
   17CHTO   C81 6897   6.181   7.689   2.932 -0.5690 -0.2535  0.1369
   17CHTO  H153 6898   6.180   7.759   2.849 -0.9603  0.5003  0.7608
   17CHTO   N14 6899   6.317   7.658   2.971 -0.4757 -0.1426  0.2988
   17CHTO  H141 6900   6.386   7.676   2.891 -1.0557  1.6564  0.1782
   17CHTO  H142 6901   6.322   7.555   3.001 -0.5832 -0.4972 -0.8537
   17CHTO   C79 6902   6.103   7.765   3.044 -0.6476 -0.4708  0.0435
   17CHTO  H151 6903   6.168   7.843   3.082 -2.2213  1.1541 -0.5737
   17CHTO   O52 6904   5.985   7.819   2.987 -0.3250 -0.2198 -0.3978
   17CHTO   C86 6905   5.895   7.719   2.922 -0.4390  0.2576  0.1163
   17CHTO  H158 6906   5.854   7.663   3.009 -2.0967 -1.2460 -1.5723
   17CHTO   C90 6907   5.771   7.781   2.852 -0.4611 -0.8905  0.1283
   17CHTO   O60 6908   5.804   7.872   2.749 -0.2203  0.1121 -0.4508
   17CHTO  H138 6909   5.721   7.906   2.722 -0.8281 -0.6893  0.3684
   17CHTO   O50 6910   6.071   7.696   3.166 -0.0015  0.8304  0.2350
   17CHTO   C73 6911   6.075   7.695   3.310  0.0972 -0.1669 -0.3938
   17CHTO  H145 6912   6.034   7.792   3.344  5.1225  2.9124 -2.5253
   17CHTO   C74 6913   6.226   7.685   3.359  0.5541  0.0140  0.3974
   17CHTO  H146 6914   6.285   7.767   3.314 -0.8226  0.8828  0.1496
   17CHTO   O54 6915   6.217   7.701   3.501 -0.5975  0.6500 -0.1622
   17CHTO  H133 6916   6.214   7.786   3.540 -2.6828  0.0016  1.1856
   17CHTO   C75 6917   6.287   7.547   3.328  0.1272  0.1858  0.6486
   17CHTO  H147 6918   6.314   7.541   3.221  1.0892 -1.2677  0.9467
   17CHTO   N13 6919   6.417   7.517   3.390 -0.0013  0.3785  0.0991
   17CHTO  H139 6920   6.394   7.521   3.495 -2.2017  1.6542 -0.4187
   17CHTO  H140 6921   6.495   7.586   3.360  0.4906  0.5107  1.6167
   17CHTO   C76 6922   6.176   7.433   3.350  0.1352  0.2782 -0.5982
   17CHTO  H148 6923   6.159   7.416   3.457 -1.0716  1.6790 -0.5551
   17CHTO   O49 6924   6.041   7.458   3.296  0.4045  0.2088 -0.0627
   17CHTO   C77 6925   5.985   7.574   3.354  0.3456 -0.6892  0.0530
   17CHTO  H149 6926   5.981   7.578   3.463 -0.4208  2.4650 -0.0494
   17CHTO   C88 6927   5.838   7.595   3.306  0.4960 -0.8202  0.2596
   17CHTO   O58 6928   5.778   7.712   3.362 -0.1768 -0.5592 -0.1468
   17CHTO  H136 6929   5.731   7.692   3.441  0.8494 -0.0432  0.5925
   17CHTO   O51 6930   6.234   7.310   3.273 -0.6469 -0.4799 -0.5231
   17CHTO   C78 6931   6.128   7.163   3.258  0.0401  0.4836 -0.2616
   17CHTO  H150 6932   6.022   7.192   3.244 -0.0044  0.5700  0.2461
   17CHTO   C80 6933   6.137   7.088   3.390 -0.1185  0.2500 -0.6776
   17CHTO  H152 6934   6.242   7.090   3.423  0.0547 -1.5576 -1.0708
   17CHTO   O55 6935   6.074   7.169   3.494 -0.4662  0.2855  0.4356
   17CHTO  H134 6936   6.092   7.127   3.576  0.6500  1.6324  0.9037
   17CHTO   C84 6937   6.071   6.942   3.382  0.1722  0.2797 -0.3128
   17CHTO  H156 6938   5.963   6.956   3.378  0.1040  0.0656  0.6378
   17CHTO   N15 6939   6.099   6.865   3.511 -0.0508  0.3671 -0.1005
   17CHTO  H143 6940   6.202   6.858   3.539  0.2030  1.1875 -0.7779
   17CHTO  H144 6941   6.045   6.897   3.597 -0.5548 -1.0971  0.1383
   17CHTO   C87 6942   6.109   6.861   3.255  0.8112  0.3296  0.1536
   17CHTO  H159 6943   6.214   6.834   3.267  0.6725 -0.0979  0.4095
   17CHTO   O53 6944   6.095   6.950   3.133  0.1076  0.2255 -0.2622
   17CHTO   C82 6945   6.171   7.068   3.139 -0.0420 -0.1281 -0.7625
   17CHTO  H154 6946   6.276   7.043   3.152  0.0758  0.1383 -1.1900
   17CHTO   C89 6947   6.161   7.154   3.005  0.3384 -0.1229  0.0713
   17CHTO   O59 6948   6.270   7.250   2.993  0.1054 -0.1384  0.4006
   17CHTO  H137 6949   6.300   7.262   3.081 -0.9471  1.2890  0.5760
   17CHTO   O45 6950   6.022   6.717   3.234  0.7612  0.9089  0.0485
   17CHTO   C67 6951   5.877   6.711   3.238  0.1626  0.0463  1.1000
   17CHTO  H124 6952   5.843   6.729   3.340  2.6614  2.4695  1.6001
   17CHTO   C65 6953   5.796   6.806   3.147  0.3844  0.1736 -0.2228
   17CHTO  H122 6954   5.871   6.865   3.094 -0.3135  0.7629 -0.5689
   17CHTO   O44 6955   5.735   6.900   3.237 -0.4993 -0.2030 -0.2586
   17CHTO  H102 6956   5.671   6.946   3.186 -1.0629  1.0793  1.5213
   17CHTO   C63 6957   5.705   6.734   3.041 -0.4812  0.4588 -0.2834
   17CHTO  H120 6958   5.768   6.682   2.969 -0.4631  0.4181 -0.2374
   17CHTO   N11 6959   5.631   6.825   2.947 -0.1073 -0.3287 -0.2821
   17CHTO  H108 6960   5.694   6.848   2.864 -0.5942  2.3429  0.0633
   17CHTO  H109 6961   5.597   6.912   2.999  0.0564 -0.6679  0.4019
   17CHTO   C61 6962   5.620   6.613   3.111  0.3096 -0.1095  0.1545
   17CHTO  H118 6963   5.586   6.551   3.028 -1.6655 -1.3481  1.8368
   17CHTO   O40 6964   5.705   6.537   3.199  0.4017 -0.2790 -0.1377
   17CHTO   C68 6965   5.844   6.555   3.204  0.1271 -0.3046  0.3535
   17CHTO  H125 6966   5.876   6.518   3.105  0.1778  4.1315 -1.3909
   17CHTO   C72 6967   5.888   6.454   3.313  0.2420  0.5504  0.1153
   17CHTO   O48 6968   6.015   6.405   3.311  0.3392 -0.3830 -0.1276
   17CHTO  H105 6969   6.036   6.346   3.242 -0.8547 -0.9560 -0.0170
   17CHTO   O38 6970   5.493   6.669   3.158  0.0538  0.2888 -0.8510
   17CHTO   C55 6971   5.411   6.583   3.246 -0.1630 -0.2661 -0.3891
   17CHTO  H112 6972   5.481   6.518   3.300  2.1689  0.1285 -2.8064
   17CHTO   C56 6973   5.305   6.500   3.160 -0.8692 -0.3905  0.5738
   17CHTO  H113 6974   5.273   6.574   3.085  0.7896 -0.6860 -0.4455
   17CHTO   O42 6975   5.374   6.405   3.083  0.3454 -0.0123  0.1524
   17CHTO  H100 6976   5.333   6.413   2.999  0.1953 -0.3300  0.1954
   17CHTO   C57 6977   5.192   6.427   3.238  0.0285 -0.5743 -0.0994
   17CHTO  H114 6978   5.230   6.338   3.288  0.6769 -1.4022 -2.0090
   17CHTO   N10 6979   5.079   6.378   3.152  0.5130  0.5201 -0.1583
   17CHTO  H106 6980   5.015   6.304   3.197  0.2557  0.6754 -0.2692
   17CHTO  H107 6981   5.023   6.470   3.142  0.8280  1.0972  2.9137
   17CHTO   C58 6982   5.135   6.529   3.345  0.2584  0.9523  0.1364
   17CHTO  H115 6983   5.086   6.614   3.293 -0.9256  0.7712  0.9474
   17CHTO   O37 6984   5.241   6.577   3.427  0.0153 -0.2402  0.2767
   17CHTO   C59 6985   5.332   6.665   3.351 -0.1991  0.0631 -0.3762
   17CHTO  H116 6986   5.273   6.747   3.308 -0.5414  0.2931  0.5114
   17CHTO   C70 6987   5.431   6.727   3.450 -1.4370 -0.1932 -0.4237
   17CHTO   O46 6988   5.486   6.847   3.396 -0.4211  0.1271 -0.1666
   17CHTO  H103 6989   5.570   6.865   3.434 -1.4183  2.0608  1.2228
   17CHTO   O39 6990   5.042   6.452   3.444  0.2140  0.3047 -0.3662
   17CHTO   C60 6991   4.928   6.531   3.482 -0.4730  0.6357  0.0174
   17CHTO  H117 6992   4.970   6.626   3.514 -0.8099 -0.1906  3.0921
   17CHTO   C62 6993   4.823   6.557   3.371 -0.0169 -0.5303  0.7938
   17CHTO  H119 6994   4.864   6.621   3.291 -0.4528  2.9563  3.2472
   17CHTO   O43 6995   4.793   6.430   3.308  0.5492  1.0220  0.0070
   17CHTO  H101 6996   4.747   6.448   3.228  0.9492 -0.9291 -0.6782
   17CHTO   C66 6997   4.694   6.640   3.429  0.6077  0.5633  0.4607
   17CHTO  H123 6998   4.721   6.731   3.482  1.0486  0.1901  0.8775
   17CHTO   N12 6999   4.597   6.680   3.320 -0.6998 -0.2370 -0.2723
   17CHTO  H110 7000   4.656   6.688   3.230 -0.2035 -2.5668 -0.1834
   17CHTO  H111 7001   4.570   6.782   3.342  0.5328 -0.3019  1.7631
   17CHTO   C69 7002   4.626   6.549   3.527 -0.2701 -0.4759  0.5610
   17CHTO  H126 7003   4.608   6.452   3.476 -0.0331 -0.3515  0.2382
   17CHTO   O41 7004   4.726   6.538   3.654 -0.0923  0.4307 -0.3669
   17CHTO   C64 7005   4.848   6.466   3.608  0.3275 -0.2000 -1.0327
   17CHTO  H121 7006   4.825   6.362   3.577 -1.5875 -0.4446  1.1565
   17CHTO   C71 7007   4.945   6.460   3.725  0.3583  0.4371 -0.2384
   17CHTO   O47 7008   4.904   6.367   3.822 -0.0263  0.2795  0.2216
   17CHTO  H104 7009   4.859   6.396   3.899 -0.4170  0.2782 -0.0031
   17CHTO   O34 7010   4.490   6.599   3.589  0.1854  0.2764  0.0813
   17CHTO   C49 7011   4.378   6.714   3.632 -0.9950 -0.5801 -0.3229
   17CHTO   H91 7012   4.422   6.812   3.650  0.7378 -1.0952 -1.7111
   17CHTO   C47 7013   4.294   6.653   3.745 -0.1149  0.0431 -0.2097
   17CHTO   H89 7014   4.220   6.735   3.760  1.1290  0.8661  1.6595
   17CHTO   O33 7015   4.366   6.629   3.868  0.0387 -0.7116  0.3518
   17CHTO   H70 7016   4.446   6.589   3.837 -0.6255 -0.5025 -1.7065
   17CHTO   C45 7017   4.206   6.524   3.701 -0.7029  0.3402 -0.1493
   17CHTO   H87 7018   4.265   6.435   3.727 -2.1174 -0.8962 -1.0432
   17CHTO    N8 7019   4.086   6.513   3.785 -0.3611  0.1298  0.9129
   17CHTO   H75 7020   3.996   6.470   3.744  0.3832 -0.5077 -0.0683
   17CHTO   H76 7021   4.101   6.472   3.884 -0.9730  0.7076  1.2534
   17CHTO   C43 7022   4.188   6.516   3.538 -0.4048 -0.0942 -0.4746
   17CHTO   H85 7023   4.279   6.478   3.493  0.0122  0.9861 -0.5613
   17CHTO   O29 7024   4.160   6.653   3.493  0.3204 -0.0250 -0.1948
   17CHTO   C50 7025   4.272   6.736   3.512 -0.8342 -0.3417  0.0264
   17CHTO   H92 7026   4.332   6.714   3.422  1.2384  1.9748  0.7521
   17CHTO   C54 7027   4.229   6.877   3.502 -0.6788  0.0728 -0.0623
   17CHTO   O36 7028   4.116   6.916   3.583 -0.0388 -0.4900 -0.2763
   17CHTO   H72 7029   4.140   6.978   3.650 -0.4449 -0.2692 -0.3318
   17CHTO   O27 7030   4.083   6.425   3.491  0.5051 -0.0735 -0.5926
   17CHTO   C37 7031   4.079   6.336   3.376  0.1680  0.3074  0.1487
   17CHTO   H79 7032   3.977   6.306   3.351  0.3601 -1.8341  1.7357
   17CHTO   C38 7033   4.132   6.405   3.246 -0.1379  0.1149  0.3905
   17CHTO   H80 7034   4.220   6.463   3.278  1.4498 -2.0942  0.0697
   17CHTO   O31 7035   4.031   6.490   3.191  0.4545 -0.2422 -0.1537
   17CHTO   H68 7036   3.971   6.440   3.140 -0.0054 -0.0064  0.1531
   17CHTO   C39 7037   4.182   6.288   3.145  0.1664  0.2140 -0.4539
   17CHTO   H81 7038   4.087   6.243   3.119  0.6827 -1.7136  0.9447
   17CHTO    N7 7039   4.247   6.344   3.027 -0.2006 -0.6259 -0.0352
   17CHTO   H73 7040   4.352   6.364   3.046 -0.7040  1.5502  0.5985
   17CHTO   H74 7041   4.221   6.284   2.941 -0.9662 -1.5170  0.8081
   17CHTO   C40 7042   4.274   6.183   3.227  0.1004 -0.2306 -0.3317
   17CHTO   H82 7043   4.367   6.220   3.271  0.2049  0.1209 -0.8311
   17CHTO   O26 7044   4.188   6.121   3.319  0.1334 -0.1073  0.6719
   17CHTO   C41 7045   4.161   6.212   3.424 -0.3859  0.8582 -0.1233
   17CHTO   H83 7046   4.257   6.248   3.464 -0.4162 -2.3352  3.1049
   17CHTO   C52 7047   4.086   6.140   3.534  0.2379 -0.5779 -0.0713
   17CHTO   O35 7048   4.194   6.102   3.647 -0.0256  0.0734  0.4230
   17CHTO   H71 7049   4.257   6.041   3.613 -0.0912  0.5377 -0.5432
   17CHTO   O28 7050   4.320   6.075   3.142 -0.1519 -0.3579  0.0807
   17CHTO   C42 7051   4.423   5.964   3.157 -0.5038  0.3039  0.6147
   17CHTO   H84 7052   4.448   5.947   3.052 -1.6106  0.6036  0.2934
   17CHTO   C44 7053   4.373   5.828   3.216  0.2240 -0.2801 -0.8422
   17CHTO   H86 7054   4.361   5.836   3.324 -0.3039  0.4981 -0.9575
   17CHTO   O32 7055   4.258   5.801   3.136 -0.1594  0.1494 -0.0650
   17CHTO   H69 7056   4.181   5.800   3.188  0.5548  0.8469  1.0267
   17CHTO   C48 7057   4.480   5.715   3.187  0.1409  0.3636 -0.8414
   17CHTO   H90 7058   4.489   5.702   3.079  0.3941  2.3086 -1.0569
   17CHTO    N9 7059   4.440   5.582   3.237 -0.5635  0.1989 -0.5490
   17CHTO   H77 7060   4.357   5.541   3.182 -1.1669  0.3427  0.2620
   17CHTO   H78 7061   4.421   5.587   3.343 -3.0647 -0.2898 -0.9544
   17CHTO   C51 7062   4.620   5.762   3.234 -0.3319 -0.1106 -0.2112
   17CHTO   H93 7063   4.639   5.726   3.335 -1.2761  1.5881  0.5888
   17CHTO   O30 7064   4.650   5.902   3.221  0.4376  0.4439  0.2964
   17CHTO   C46 7065   4.551   6.009   3.242 -0.1349  0.0047  0.6589
   17CHTO   H88 7066   4.520   6.020   3.346  0.3544 -0.1518  0.8196
   17CHTO   C53 7067   4.618   6.142   3.196 -0.2503  0.2476 -0.0452
   17CHTO   O72 7068   4.641   6.144   3.059  0.0337 -0.0087 -0.0074
   17CHTO  H199 7069   4.716   6.088   3.048 -0.5743 -1.0658  1.0744
   17CHTO   O22 7070   4.727   5.703   3.158 -0.1587 -0.5131  0.2303
   17CHTO   C31 7071   4.785   5.737   3.022 -1.1083  0.0529 -0.2870
   17CHTO   H59 7072   4.846   5.648   2.995 -0.3557  0.8894 -1.4298
   17CHTO   C29 7073   4.679   5.757   2.911 -0.6620  0.2558  0.2957
   17CHTO   H57 7074   4.626   5.841   2.958  0.3107  0.9750  0.1305
   17CHTO   O21 7075   4.597   5.633   2.895  0.5452 -0.5570  0.5967
   17CHTO   H37 7076   4.645   5.571   2.844  2.6292  1.0050  0.5983
   17CHTO   C27 7077   4.740   5.814   2.772 -0.3986  0.6862 -0.6407
   17CHTO   H55 7078   4.807   5.737   2.730 -0.9519 -0.9759  1.3929
   17CHTO    N5 7079   4.633   5.848   2.676 -0.6265  0.3656  0.1697
   17CHTO   H43 7080   4.604   5.950   2.693 -2.4514 -0.2797  1.0583
   17CHTO   H44 7081   4.672   5.832   2.576  0.4108  0.1076  0.6034
   17CHTO   C25 7082   4.830   5.936   2.818  0.0327 -0.1255  0.9798
   17CHTO   H53 7083   4.773   6.004   2.883 -1.6225  0.0554 -0.6054
   17CHTO   O17 7084   4.937   5.893   2.900 -0.4859  0.2978 -0.3763
   17CHTO   C32 7085   4.886   5.859   3.032 -1.3075  0.0165  0.1383
   17CHTO   H60 7086   4.827   5.944   3.067 -1.4277  1.1295 -2.6045
   17CHTO   C36 7087   5.012   5.832   3.126 -0.2520  0.5363  0.2217
   17CHTO   O25 7088   5.070   5.706   3.093  1.3052  0.2695  0.1595
   17CHTO   H40 7089   5.118   5.719   3.013 -2.3487  0.8276 -2.0693
   17CHTO   O15 7090   4.902   6.020   2.701 -0.0287  0.1474 -0.8150
   17CHTO   C19 7091   4.907   6.164   2.703 -0.7102  0.3745 -0.1041
   17CHTO   H47 7092   4.932   6.200   2.602  0.5633  1.6104  0.6336
   17CHTO   C20 7093   4.774   6.232   2.743  0.2355 -0.0097  0.2469
   17CHTO   H48 7094   4.739   6.206   2.844  0.4811  2.2307  0.9548
   17CHTO   O19 7095   4.669   6.181   2.655 -0.0253 -0.2570 -0.2539
   17CHTO   H35 7096   4.687   6.208   2.567  1.7725  1.6983  0.6807
   17CHTO   C21 7097   4.785   6.388   2.725  0.0438 -0.4358 -0.3850
   17CHTO   H49 7098   4.787   6.413   2.619  0.9865  1.8252  0.1444
   17CHTO    N4 7099   4.667   6.454   2.788 -0.1847  0.5089 -0.0263
   17CHTO   H41 7100   4.645   6.403   2.880 -0.7929 -0.9050 -0.9349
   17CHTO   H42 7101   4.579   6.454   2.725 -0.8461  0.3894  0.8851
   17CHTO   C22 7102   4.906   6.438   2.803  0.4577  0.1002 -0.5361
   17CHTO   H50 7103   4.884   6.430   2.910  0.6610 -0.2868 -0.5225
   17CHTO   O14 7104   5.028   6.359   2.780 -0.0798  0.0257 -0.9362
   17CHTO   C23 7105   5.023   6.220   2.798  0.2403 -0.6243 -0.1861
   17CHTO   H51 7106   4.998   6.215   2.905 -2.0464 -0.4117 -0.6902
   17CHTO   C34 7107   5.163   6.154   2.772  0.2531  0.3757  0.0835
   17CHTO   O23 7108   5.241   6.179   2.895  0.3646  0.0116 -0.1207
   17CHTO   H38 7109   5.291   6.257   2.886  0.8946 -0.1899  0.9772
   17CHTO   O16 7110   4.945   6.572   2.765 -0.2081  0.1283  0.7695
   17CHTO   C24 7111   5.043   6.646   2.881  0.4549 -0.1021 -0.0842
   17CHTO   H52 7112   5.095   6.578   2.949 -0.5117 -1.6166 -0.8528
   17CHTO   C26 7113   4.955   6.733   2.969 -0.4058  0.5740 -0.4937
   17CHTO   H54 7114   4.910   6.813   2.907  2.3679  1.6781 -1.1633
   17CHTO   O20 7115   4.871   6.639   3.041 -0.2151 -0.2840  0.0322
   17CHTO   H36 7116   4.795   6.623   2.990  0.2603 -0.5313 -0.5981
   17CHTO   C30 7117   5.046   6.804   3.074 -0.8499 -0.0909  1.0810
   17CHTO   H58 7118   5.101   6.734   3.139  3.5367 -0.1188 -2.4198
   17CHTO    N6 7119   4.961   6.887   3.160  0.1045 -0.0557 -0.0671
   17CHTO   H45 7120   4.886   6.942   3.106  0.0090 -1.5105 -1.4547
   17CHTO   H46 7121   5.024   6.959   3.211  1.1206 -1.6797  1.0114
   17CHTO   C33 7122   5.159   6.877   3.004 -0.1535 -0.3042  0.1652
   17CHTO   H61 7123   5.116   6.957   2.943  1.4147  0.7902  0.4777
   17CHTO   O18 7124   5.231   6.785   2.918 -0.2486 -0.9241 -0.6844
   17CHTO   C28 7125   5.155   6.728   2.808  0.5916 -0.0352 -0.4147
   17CHTO   H56 7126   5.102   6.798   2.744 -0.7547 -0.4014  0.2788
   17CHTO   C35 7127   5.241   6.631   2.734 -0.0511 -0.3256 -0.0633
   17CHTO   O24 7128   5.288   6.513   2.807  0.4815 -0.6446  0.3990
   17CHTO   H39 7129   5.217   6.452   2.809 -0.3304  0.2875  0.4415
   17CHTO    O9 7130   5.248   6.941   3.099  0.9337  0.0994 -0.1371
   17CHTO   C13 7131   5.327   7.069   3.035  0.2121 -1.8224  0.5661
   17CHTO   H26 7132   5.379   7.036   2.943  0.4648 -1.6081  0.6301
   17CHTO   C11 7133   5.433   7.114   3.146  0.0259 -0.6337 -0.1967
   17CHTO   H24 7134   5.503   7.030   3.155  1.3884  0.5432  0.5058
   17CHTO    O8 7135   5.373   7.137   3.273  0.0663 -0.2304 -0.6732
   17CHTO    H3 7136   5.338   7.053   3.297 -0.2174  0.1457  0.2744
   17CHTO    C9 7137   5.518   7.228   3.080  0.1242  0.0058  1.2774
   17CHTO   H22 7138   5.545   7.196   2.978  0.6370  3.0218  0.4267
   17CHTO    N2 7139   5.653   7.244   3.145 -0.5655  0.0188  0.0485
   17CHTO   H10 7140   5.721   7.248   3.062  2.4544 -2.4355  2.2759
   17CHTO   H11 7141   5.686   7.157   3.201 -1.1373 -0.5543 -0.4855
   17CHTO    C7 7142   5.433   7.356   3.060  0.0855  0.3208  0.1350
   17CHTO   H20 7143   5.509   7.423   3.015  1.0529 -0.8467  0.0061
   17CHTO    O4 7144   5.308   7.329   2.995 -0.7830 -0.1605 -0.4327
   17CHTO   C14 7145   5.239   7.203   2.996 -1.0868 -0.1171  0.0525
   17CHTO   H27 7146   5.203   7.173   2.896 -0.4519 -0.7420  0.0074
   17CHTO   C18 7147   5.107   7.212   3.090 -0.2202  0.2852 -0.5038
   17CHTO   O13 7148   5.007   7.306   3.041 -0.0551  0.8577  0.4693
   17CHTO    H7 7149   4.941   7.312   3.107 -1.3460 -1.5919 -0.5386
   17CHTO    O2 7150   5.394   7.420   3.192  0.3462 -0.3353  0.1110
   17CHTO    C1 7151   5.345   7.555   3.183  0.0108  0.6904  0.0963
   17CHTO   H14 7152   5.275   7.553   3.097  0.4724 -2.1965 -0.2547
   17CHTO    C2 7153   5.462   7.671   3.160  0.0005 -0.1362 -0.1060
   17CHTO   H15 7154   5.538   7.647   3.236 -1.0478  0.9552  1.3291
   17CHTO    O6 7155   5.514   7.655   3.023  0.3913  0.0645 -0.0916
   17CHTO    H1 7156   5.571   7.580   3.022  1.9794  1.2431  0.3632
   17CHTO    C3 7157   5.400   7.818   3.181 -0.1161  0.8700  0.0362
   17CHTO   H16 7158   5.321   7.823   3.105  0.0932 -0.9610 -0.3086
   17CHTO    N1 7159   5.503   7.924   3.161 -0.2109  0.1057  0.2065
   17CHTO    H8 7160   5.591   7.893   3.217  1.0681 -0.5070 -2.0719
   17CHTO    H9 7161   5.520   7.952   3.058  0.8014  0.6154  0.4946
   17CHTO    C4 7162   5.326   7.832   3.312 -0.0131  0.4020 -0.0453
   17CHTO   H17 7163   5.397   7.831   3.394  1.5182 -1.8268 -1.3269
   17CHTO    O1 7164   5.230   7.737   3.321  0.1675 -0.4074  0.4118
   17CHTO    C5 7165   5.271   7.603   3.315  0.0438 -0.0606 -0.2271
   17CHTO   H18 7166   5.339   7.600   3.400  0.8354  1.4792 -0.7878
   17CHTO   C16 7167   5.143   7.518   3.347 -0.1713 -0.0375 -0.5060
   17CHTO   O11 7168   5.078   7.538   3.474  0.4772 -0.3744 -0.2766
   17CHTO    H5 7169   4.992   7.501   3.473  0.0232  0.5958 -2.7469
   17CHTO    O3 7170   5.251   7.960   3.318  0.0287 -0.2546  0.2399
   17CHTO    C6 7171   5.220   8.034   3.438  0.2914 -0.3200  0.1620
   17CHTO   H19 7172   5.126   8.088   3.427  0.1467 -0.5282  0.3755
   17CHTO    C8 7173   5.201   7.948   3.568  0.3500  0.5821 -0.0288
   17CHTO   H21 7174   5.282   7.875   3.568 -0.6391 -0.5503 -0.8980
   17CHTO    O7 7175   5.071   7.883   3.556 -0.0248 -0.2962  0.1034
   17CHTO    H2 7176   5.075   7.850   3.469 -1.9327 -0.7564  0.1675
   17CHTO   C12 7177   5.214   8.021   3.709  0.7022  0.2522 -0.3179
   17CHTO   H25 7178   5.109   8.053   3.724  0.7634 -0.5885  1.9673
   17CHTO    N3 7179   5.238   7.921   3.820 -0.4121  0.7675 -0.3256
   17CHTO   H12 7180   5.287   7.832   3.784  1.8981  0.5428  3.1700
   17CHTO   H13 7181   5.285   7.954   3.912  0.5944  0.7465 -0.8184
   17CHTO   C15 7182   5.311   8.142   3.704  0.2379 -0.0773 -1.1565
   17CHTO   H28 7183   5.414   8.108   3.711  0.0060 -0.7099 -0.7117
   17CHTO   O10 7184   5.280   8.247   3.798 -0.7361 -0.1825  0.2876
   17CHTO    H4 7185   5.294   8.211   3.883 -0.0840  0.0730  0.2905
   17CHTO    O5 7186   5.301   8.219   3.582 -0.0441 -0.5534 -0.0308
   17CHTO   C10 7187   5.330   8.144   3.463 -0.1041 -0.6779 -0.1491
   17CHTO   H23 7188   5.425   8.091   3.476  0.1399  0.2027  1.7827
   17CHTO   C17 7189   5.334   8.243   3.349  0.2659 -0.0086 -0.1892
   17CHTO   O12 7190   5.434   8.334   3.364 -0.2700 -0.3854  0.2361
   17CHTO    H6 7191   5.404   8.423   3.355  1.4895  0.3419  1.3245
   18CHTO  H203 7192   6.515   7.819   1.405 -2.4246 -0.4972 -4.0806
   18CHTO   O82 7193   6.536   7.908   1.387 -0.7241 -0.0061 -0.1016
   18CHTO  C123 7194   6.471   7.944   1.259 -0.2333 -0.2572 -0.1868
   18CHTO  H227 7195   6.363   7.950   1.276  0.0231  1.3896  0.9916
   18CHTO   O77 7196   6.523   8.074   1.222  0.0835 -0.1345  0.6173
   18CHTO  C118 7197   6.468   8.131   1.102 -0.1954 -0.0420  0.5382
   18CHTO  H222 7198   6.358   8.131   1.101 -0.1910  0.4985 -0.5855
   18CHTO  C125 7199   6.510   8.283   1.101  0.5971 -0.8774  0.7367
   18CHTO   O84 7200   6.483   8.357   1.218  0.3988 -0.0628  0.1159
   18CHTO  H205 7201   6.449   8.439   1.188  2.1401  0.3449 -0.8286
   18CHTO  C114 7202   6.517   8.050   0.982 -0.0248 -0.9888 -1.0011
   18CHTO  H218 7203   6.626   8.053   0.981 -0.0240 -1.1978 -3.1405
   18CHTO  C116 7204   6.478   7.903   0.998 -1.0006 -0.2168  0.1796
   18CHTO  H220 7205   6.370   7.895   0.973 -0.8977  2.0003 -1.0945
   18CHTO   O79 7206   6.554   7.828   0.899 -0.1279  0.2941 -0.3965
   18CHTO  H201 7207   6.643   7.857   0.896  0.3522 -0.7136  2.3644
   18CHTO  C120 7208   6.502   7.842   1.143 -0.1169  0.9929 -0.6877
   18CHTO  H224 7209   6.611   7.822   1.148 -0.5935 -1.9696 -1.2689
   18CHTO   N21 7210   6.431   7.713   1.163 -0.2167 -0.7310 -0.0438
   18CHTO  H211 7211   6.427   7.695   1.269 -0.4820  2.1870  0.4935
   18CHTO  H212 7212   6.330   7.719   1.126 -0.2820 -1.8435 -0.0647
   18CHTO   O75 7213   6.468   8.124   0.870 -0.1561  0.6880 -0.4757
   18CHTO  C112 7214   6.581   8.156   0.752  0.2506  0.5137  0.5087
   18CHTO  H216 7215   6.678   8.111   0.781 -0.6225 -0.6991  1.6031
   18CHTO   O73 7216   6.589   8.298   0.731  0.6254  0.3044  0.1940
   18CHTO  C113 7217   6.715   8.332   0.675 -0.4232  0.1575 -0.0187
   18CHTO  H217 7218   6.810   8.304   0.723  0.1871  0.2486 -1.1493
   18CHTO  C124 7219   6.717   8.485   0.679 -0.3116 -0.2116 -0.8288
   18CHTO   O83 7220   6.849   8.544   0.663 -0.0003 -0.5211  0.3385
   18CHTO  H204 7221   6.899   8.514   0.590 -1.1629 -0.0258 -0.6777
   18CHTO  C109 7222   6.708   8.283   0.519  0.4188 -0.1662 -0.5308
   18CHTO  H213 7223   6.625   8.335   0.469 -0.7627 -2.6837 -1.2737
   18CHTO  C110 7224   6.660   8.133   0.521  0.0291  0.5643 -0.4090
   18CHTO  H214 7225   6.745   8.073   0.555  0.8416  2.1322  0.3776
   18CHTO   O78 7226   6.644   8.078   0.391 -0.9224  0.3246 -0.5579
   18CHTO  H200 7227   6.708   8.108   0.330  0.7823  0.3025  1.1735
   18CHTO  C111 7228   6.538   8.107   0.614 -0.1165 -0.1582  0.1816
   18CHTO  H215 7229   6.453   8.165   0.576 -0.3015 -1.5901 -1.6518
   18CHTO   N19 7230   6.494   7.968   0.618 -0.1875  0.0105 -0.2728
   18CHTO  H207 7231   6.542   7.902   0.547 -1.2703  0.2421 -1.2309
   18CHTO  H208 7232   6.388   7.974   0.598 -0.2035 -0.5642 -0.3538
   18CHTO   O74 7233   6.831   8.309   0.449  0.3390  0.3622  0.5350
   18CHTO  C115 7234   6.830   8.292   0.283 -0.0294  0.0745 -0.5027
   18CHTO  H219 7235   6.828   8.187   0.253 -0.7999 -0.1035  0.1663
   18CHTO   O76 7236   6.709   8.356   0.215 -0.1436 -0.3717 -0.0542
   18CHTO  C122 7237   6.718   8.501   0.205  0.0163 -0.3220  0.6849
   18CHTO  H226 7238   6.715   8.540   0.307 -1.0544  0.5386  0.3281
   18CHTO  C126 7239   6.591   8.555   0.130 -0.1370  0.0507  0.9554
   18CHTO   O85 7240   6.591   8.527  -0.011 -0.6456  0.3407 -0.5300
   18CHTO  H206 7241   6.553   8.445  -0.037  3.2920 -1.1099 -1.9835
   18CHTO  C121 7242   6.852   8.551   0.141  0.3694 -0.6466  0.4187
   18CHTO  H225 7243   6.837   8.606   0.046  1.5984  0.5716  0.9019
   18CHTO   O81 7244   6.908   8.656   0.214  0.4306  0.4490  0.0297
   18CHTO  H202 7245   6.844   8.717   0.244 -0.3414  0.4098 -1.4969
   18CHTO  C119 7246   6.949   8.432   0.110  0.2655 -0.8479  0.5561
   18CHTO  H223 7247   6.889   8.372   0.041  1.5073 -1.1990 -0.2271
   18CHTO  C117 7248   6.976   8.341   0.239  0.1137  0.0517 -0.2545
   18CHTO  H221 7249   7.022   8.390   0.325 -0.1148 -0.5647  0.2281
   18CHTO   N20 7250   7.070   8.230   0.207  0.3998 -0.2888 -0.0835
   18CHTO  H209 7251   7.076   8.147   0.276 -1.6370 -2.2414 -2.1297
   18CHTO  H210 7252   7.043   8.177   0.116  0.8541 -1.4113  0.4259
   18CHTO   O80 7253   7.078   8.466   0.016  0.3336  0.0756 -0.3112
   18CHTO  C103 7254   7.082   8.403  -0.137  0.2827 -0.0325 -0.7664
   18CHTO  H190 7255   7.177   8.419  -0.188  0.2001 -0.4303 -1.0486
   18CHTO  C101 7256   7.049   8.250  -0.154  0.4919  0.0631 -0.0308
   18CHTO  H188 7257   6.974   8.212  -0.085  1.8890 -3.1263 -0.1660
   18CHTO   O68 7258   7.182   8.175  -0.134  0.8080  0.2980 -0.3774
   18CHTO  H168 7259   7.197   8.103  -0.192 -1.7086 -1.8241  1.4671
   18CHTO   C99 7260   6.994   8.217  -0.300 -0.1145 -0.5931  0.2990
   18CHTO  H186 7261   7.073   8.244  -0.373 -2.4221  1.1436 -1.6618
   18CHTO   N17 7262   6.970   8.071  -0.325 -0.2559  0.5395 -0.2048
   18CHTO  H174 7263   7.043   8.038  -0.397  1.1096  1.3380  0.7875
   18CHTO  H175 7264   6.984   8.013  -0.234  1.5642  0.0280 -0.7905
   18CHTO   C97 7265   6.871   8.312  -0.330  0.1816 -0.6846 -0.0263
   18CHTO  H184 7266   6.801   8.305  -0.247 -0.7268  1.4546 -0.5931
   18CHTO   O64 7267   6.931   8.449  -0.339 -0.2597 -0.0795 -0.5759
   18CHTO  C104 7268   6.973   8.494  -0.208 -0.5843  0.3026 -0.1654
   18CHTO  H191 7269   6.884   8.509  -0.146 -0.1240  2.0771  0.0930
   18CHTO  C108 7270   7.037   8.634  -0.224  0.5396  0.4819  0.3391
   18CHTO   O71 7271   6.928   8.720  -0.238 -0.2033  0.3679  0.1651
   18CHTO  H171 7272   6.899   8.725  -0.327  0.5708 -2.2380 -0.2763
   18CHTO   O62 7273   6.806   8.279  -0.460  0.5811 -0.1286 -0.6577
   18CHTO   C91 7274   6.667   8.322  -0.467  0.0222  0.2706  0.6387
   18CHTO  H178 7275   6.643   8.358  -0.367 -0.7591  1.4442  0.0348
   18CHTO   C92 7276   6.584   8.193  -0.490 -0.0575 -0.2025  0.0866
   18CHTO  H179 7277   6.609   8.154  -0.590  0.5654  1.0324 -0.2470
   18CHTO   O66 7278   6.611   8.086  -0.394 -0.0498  0.1069  0.3132
   18CHTO  H166 7279   6.700   8.054  -0.394  1.1940  3.3378 -0.7280
   18CHTO   C93 7280   6.434   8.227  -0.491  0.2157  0.7255  0.1319
   18CHTO  H180 7281   6.415   8.232  -0.383  1.2739  1.4861  0.2848
   18CHTO   N16 7282   6.342   8.127  -0.550  0.0571 -0.4875 -0.0077
   18CHTO  H172 7283   6.238   8.150  -0.530  0.4364 -0.2616  1.7854
   18CHTO  H173 7284   6.367   8.125  -0.655  0.7593  1.1635  0.1156
   18CHTO   C94 7285   6.394   8.362  -0.554  0.5284  0.4555  0.4018
   18CHTO  H181 7286   6.384   8.356  -0.662  1.0664 -0.7187  0.4054
   18CHTO   O61 7287   6.488   8.468  -0.540  0.0640 -0.0062  0.2135
   18CHTO   C95 7288   6.622   8.433  -0.577 -0.6441  0.8501  0.0050
   18CHTO  H182 7289   6.621   8.389  -0.677  1.9645  1.2358 -0.2231
   18CHTO  C106 7290   6.720   8.547  -0.581 -0.2097  0.2023 -0.1100
   18CHTO   O69 7291   6.707   8.635  -0.471 -0.1458 -0.3386 -0.6003
   18CHTO  H169 7292   6.696   8.726  -0.493  0.8894 -0.3560 -1.2383
   18CHTO   O63 7293   6.251   8.423  -0.476  0.4452 -0.7139  0.2397
   18CHTO   C96 7294   6.203   8.561  -0.543  0.1230  0.1593  0.6108
   18CHTO  H183 7295   6.254   8.569  -0.639 -0.1901  0.7845  0.4915
   18CHTO   C98 7296   6.220   8.691  -0.455  0.1437 -0.0064  0.0710
   18CHTO  H185 7297   6.173   8.678  -0.357  1.3494  0.3781  0.7181
   18CHTO   O67 7298   6.359   8.707  -0.430 -0.0408 -0.3890 -0.3876
   18CHTO  H167 7299   6.401   8.623  -0.419  2.0478  0.8534  1.6274
   18CHTO  C102 7300   6.153   8.814  -0.526 -0.2744  0.3755  1.0593
   18CHTO  H189 7301   6.215   8.829  -0.615 -1.1516  0.4473  0.4610
   18CHTO   N18 7302   6.166   8.943  -0.446 -0.5133 -0.3190  0.0068
   18CHTO  H176 7303   6.106   9.026  -0.479  0.5983  0.5986  0.2559
   18CHTO  H177 7304   6.272   8.962  -0.458 -0.5070  0.4253  1.1583
   18CHTO  C105 7305   6.005   8.780  -0.570 -0.2874  0.0026  0.1432
   18CHTO  H192 7306   5.950   8.769  -0.477  1.0739 -0.9232  0.8463
   18CHTO   O65 7307   5.995   8.652  -0.642  0.0007 -0.4676  0.4028
   18CHTO  C100 7308   6.051   8.538  -0.579 -0.5535 -0.0612 -0.0776
   18CHTO  H187 7309   5.997   8.516  -0.486 -0.5077  0.6619  0.1273
   18CHTO  C107 7310   6.033   8.430  -0.685  0.0197 -0.9671 -0.6965
   18CHTO   O70 7311   6.054   8.302  -0.625 -0.2904 -0.2853  0.0815
   18CHTO  H170 7312   6.115   8.254  -0.677  0.5424  0.1370  0.6526
   18CHTO   O57 7313   5.959   8.909  -0.654 -0.1875 -0.3888 -0.2818
   18CHTO   C85 7314   5.826   8.928  -0.707  0.1820  0.7338 -0.3207
   18CHTO  H157 7315   5.830   9.030  -0.752  1.4426  1.6941  1.8845
   18CHTO   C83 7316   5.713   8.939  -0.599  0.7470  0.0530  0.0328
   18CHTO  H155 7317   5.740   9.011  -0.522 -1.2270  0.4635  0.3762
   18CHTO   O56 7318   5.685   8.815  -0.529  0.2130 -0.1502 -0.2807
   18CHTO  H135 7319   5.636   8.766  -0.592  0.7189 -1.3811  0.2639
   18CHTO   C81 7320   5.590   8.991  -0.678 -0.0189  0.9038  0.7940
   18CHTO  H153 7321   5.620   9.081  -0.732  0.5196 -1.2639 -2.6812
   18CHTO   N14 7322   5.473   9.047  -0.596  0.1156  0.2494 -0.1725
   18CHTO  H141 7323   5.511   9.120  -0.527 -2.3557  0.1326  1.3929
   18CHTO  H142 7324   5.400   9.098  -0.656  0.2043  0.6395  0.0477
   18CHTO   C79 7325   5.546   8.885  -0.786  0.6922 -0.2249 -0.2955
   18CHTO  H151 7326   5.471   8.932  -0.849 -0.1800 -0.1169  0.8204
   18CHTO   O52 7327   5.651   8.847  -0.881 -0.2768 -0.0041  0.2510
   18CHTO   C86 7328   5.777   8.810  -0.814 -0.0236  0.0015  0.1393
   18CHTO  H158 7329   5.757   8.712  -0.766  1.6278 -1.5963 -2.3054
   18CHTO   C90 7330   5.893   8.781  -0.916  0.3312 -1.3467 -0.1757
   18CHTO   O60 7331   5.903   8.887  -1.013 -0.2812 -0.1697 -0.2201
   18CHTO  H138 7332   5.990   8.904  -1.042 -0.4822  1.4376  0.0212
   18CHTO   O50 7333   5.490   8.770  -0.721  0.4243 -0.7858 -0.2480
   18CHTO   C73 7334   5.401   8.668  -0.765 -0.1645  0.4828  0.5680
   18CHTO  H145 7335   5.442   8.621  -0.856  1.3647  1.4396  0.7543
   18CHTO   C74 7336   5.258   8.716  -0.800 -0.0313 -0.3101 -0.0844
   18CHTO  H146 7337   5.272   8.793  -0.877 -1.2422  1.9217  1.8559
   18CHTO   O54 7338   5.180   8.604  -0.854  0.4104 -1.2791 -0.4789
   18CHTO  H133 7339   5.097   8.644  -0.872  0.6047  0.3075  2.0044
   18CHTO   C75 7340   5.190   8.777  -0.668 -0.1540 -1.1356  0.1917
   18CHTO  H147 7341   5.248   8.866  -0.642 -1.5336 -0.2291  0.2212
   18CHTO   N13 7342   5.049   8.816  -0.684 -0.1704  0.2758  0.0151
   18CHTO  H139 7343   5.039   8.922  -0.671  1.7060  0.2402  2.0370
   18CHTO  H140 7344   5.008   8.769  -0.772  2.4348 -3.1706  0.5054
   18CHTO   C76 7345   5.206   8.683  -0.545 -0.3085  0.5439  0.4337
   18CHTO  H148 7346   5.133   8.604  -0.563  2.2935 -2.2562  1.6661
   18CHTO   O49 7347   5.340   8.614  -0.537  0.0997  0.2729  0.4129
   18CHTO   C77 7348   5.392   8.563  -0.657  0.0590  1.4672  0.1250
   18CHTO  H149 7349   5.334   8.479  -0.695 -0.1422  1.9827 -0.7174
   18CHTO   C88 7350   5.535   8.510  -0.630 -0.2961  0.1770 -0.1121
   18CHTO   O58 7351   5.536   8.383  -0.583  0.6372  0.1083 -0.0080
   18CHTO  H136 7352   5.620   8.345  -0.566  0.8185  0.9972  1.0855
   18CHTO   O51 7353   5.196   8.771  -0.416 -0.1724  0.2888  0.5015
   18CHTO   C78 7354   5.192   8.702  -0.272  0.1383 -0.5133  0.5506
   18CHTO  H150 7355   5.229   8.597  -0.272  0.4605 -0.3996  0.2512
   18CHTO   C80 7356   5.053   8.710  -0.200  0.7956  0.4086  0.2332
   18CHTO  H152 7357   5.017   8.814  -0.216 -0.4984  0.1888  1.6523
   18CHTO   O55 7358   4.959   8.628  -0.267 -0.1541 -0.9529 -0.1862
   18CHTO  H134 7359   4.878   8.674  -0.261  0.1159 -0.6120  0.9976
   18CHTO   C84 7360   5.062   8.658  -0.054  0.1530  0.0762  0.3920
   18CHTO  H156 7361   5.091   8.553  -0.061  0.4034  0.1149  0.9058
   18CHTO   N15 7362   4.938   8.657   0.023  0.2180  0.0991 -0.2736
   18CHTO  H143 7363   4.849   8.662  -0.036  1.1572 -0.0924 -1.7598
   18CHTO  H144 7364   4.937   8.564   0.076 -0.6461 -1.1195 -2.3708
   18CHTO   C87 7365   5.174   8.729   0.034 -0.2807 -0.2911  0.5463
   18CHTO  H159 7366   5.150   8.833   0.056 -3.2806 -0.7118 -0.4486
   18CHTO   O53 7367   5.296   8.722  -0.046  0.1461 -0.0247  0.4080
   18CHTO   C82 7368   5.289   8.782  -0.177  0.1005 -0.2004  0.0190
   18CHTO  H154 7369   5.257   8.885  -0.163 -0.9017 -0.5069  0.0496
   18CHTO   C89 7370   5.431   8.788  -0.237 -0.1013  0.0425 -0.2792
   18CHTO   O59 7371   5.492   8.656  -0.240 -0.2020  0.1829  0.3773
   18CHTO  H137 7372   5.549   8.658  -0.314 -0.3863 -1.9728  0.1460
   18CHTO   O45 7373   5.213   8.653   0.190  0.3888  0.2290  0.3233
   18CHTO   C67 7374   5.353   8.664   0.218 -0.3237 -0.0995 -0.5306
   18CHTO  H124 7375   5.407   8.632   0.130 -0.7712 -3.1360  0.2319
   18CHTO   C65 7376   5.392   8.812   0.262  0.1957 -0.3604  0.2425
   18CHTO  H122 7377   5.307   8.873   0.290  1.0977  0.5175  1.0868
   18CHTO   O44 7378   5.449   8.876   0.144 -0.3613 -0.1821 -0.1906
   18CHTO  H102 7379   5.475   8.965   0.159 -0.5478 -0.2365  0.4736
   18CHTO   C63 7380   5.488   8.805   0.391  0.3599 -0.3498 -0.4961
   18CHTO  H120 7381   5.432   8.765   0.475  1.9631 -0.4891  0.5338
   18CHTO   N11 7382   5.530   8.938   0.437  0.0204 -0.5718 -0.1657
   18CHTO  H108 7383   5.529   9.012   0.359  0.6092 -0.8584 -0.4523
   18CHTO  H109 7384   5.624   8.927   0.486 -1.1439 -2.9369  1.5935
   18CHTO   C61 7385   5.594   8.697   0.375  0.3880 -0.3480 -0.0403
   18CHTO  H118 7386   5.643   8.704   0.474  0.6300 -0.1314 -0.1735
   18CHTO   O40 7387   5.543   8.562   0.359 -0.1951 -0.1666 -0.1546
   18CHTO   C68 7388   5.396   8.547   0.329  0.3566  0.2488 -1.0005
   18CHTO  H125 7389   5.339   8.561   0.423  1.2281 -2.0746 -0.1065
   18CHTO   C72 7390   5.365   8.403   0.293  0.5700  0.1657 -0.1293
   18CHTO   O48 7391   5.439   8.367   0.173 -0.6636 -0.1735  0.2788
   18CHTO  H105 7392   5.428   8.436   0.110 -0.4067 -0.6167 -0.2456
   18CHTO   O38 7393   5.680   8.725   0.267  0.0289 -0.5946 -0.5726
   18CHTO   C55 7394   5.811   8.671   0.277  0.3846  0.0203  0.4937
   18CHTO  H112 7395   5.806   8.575   0.329 -1.9701 -2.0121 -3.2683
   18CHTO   C56 7396   5.914   8.777   0.345 -0.3337  0.1577  0.0410
   18CHTO  H113 7397   5.914   8.867   0.281  2.0341 -0.9175 -1.5767
   18CHTO   O42 7398   5.874   8.823   0.476 -0.1287  0.4947  0.2640
   18CHTO  H100 7399   5.848   8.765   0.546 -1.4699  2.2251  1.2517
   18CHTO   C57 7400   6.059   8.718   0.345 -0.6574 -0.1784 -0.3746
   18CHTO  H114 7401   6.059   8.638   0.419  0.7361  0.6075  0.4978
   18CHTO   N10 7402   6.167   8.815   0.385 -0.5557  0.0137  0.0258
   18CHTO  H106 7403   6.123   8.886   0.453  0.7888  1.1917 -0.2961
   18CHTO  H107 7404   6.207   8.871   0.301  0.8404 -1.7139 -0.4924
   18CHTO   C58 7405   6.088   8.665   0.209  0.3268  0.2309 -0.1665
   18CHTO  H115 7406   6.090   8.751   0.139 -0.2237  0.0077 -0.4641
   18CHTO   O37 7407   5.989   8.574   0.147  1.0191 -0.3721  0.4973
   18CHTO   C59 7408   5.862   8.638   0.133 -0.0917 -0.5441  0.2011
   18CHTO  H116 7409   5.862   8.728   0.073 -0.0548  0.9714  2.3922
   18CHTO   C70 7410   5.769   8.546   0.060  0.1662  0.2729  0.7766
   18CHTO   O46 7411   5.662   8.621   0.001 -0.0470 -0.0403  0.1154
   18CHTO  H103 7412   5.682   8.637  -0.089  2.8169 -2.6845  0.2135
   18CHTO   O39 7413   6.238   8.581   0.214 -0.0206 -0.2832 -0.0258
   18CHTO   C60 7414   6.225   8.454   0.281 -0.3701  0.3338  0.2721
   18CHTO  H117 7415   6.133   8.461   0.339 -2.1269 -2.7073 -2.0040
   18CHTO   C62 7416   6.213   8.344   0.174  0.5473  0.0610 -0.5995
   18CHTO  H119 7417   6.135   8.378   0.104 -1.1559  2.9530  2.5488
   18CHTO   O43 7418   6.345   8.337   0.112 -0.9734 -0.2035  0.1808
   18CHTO  H101 7419   6.361   8.252   0.077 -0.8291 -1.1948  2.5745
   18CHTO   C66 7420   6.165   8.208   0.246  0.4570 -1.0021 -0.2031
   18CHTO  H123 7421   6.060   8.224   0.273  0.5337  1.0831 -1.0303
   18CHTO   N12 7422   6.156   8.088   0.157 -0.2895 -0.5489 -0.0491
   18CHTO  H110 7423   6.213   8.091   0.064  1.1311 -1.8451  0.7528
   18CHTO  H111 7424   6.058   8.045   0.146 -1.2780  0.3251  4.7128
   18CHTO   C69 7425   6.251   8.170   0.368 -0.0103  0.3697 -0.5321
   18CHTO  H126 7426   6.336   8.107   0.333  0.1416  0.2732  0.0067
   18CHTO   O41 7427   6.299   8.303   0.450 -0.0329 -0.1918  0.2952
   18CHTO   C64 7428   6.330   8.426   0.384  0.5895 -0.3868 -0.4289
   18CHTO  H121 7429   6.435   8.413   0.348  1.0541 -2.0477  1.4044
   18CHTO   C71 7430   6.346   8.526   0.508  0.2161 -0.1583 -0.1074
   18CHTO   O47 7431   6.426   8.646   0.482  0.6969  0.6004 -0.1322
   18CHTO  H104 7432   6.439   8.649   0.389 -0.4263 -0.6740 -0.3417
   18CHTO   O34 7433   6.185   8.089   0.467 -0.4508  0.4108 -0.5433
   18CHTO   C49 7434   6.096   8.105   0.617  0.2718 -0.3617 -0.0757
   18CHTO   H91 7435   6.098   8.009   0.668  1.9211 -0.3825 -0.1579
   18CHTO   C47 7436   5.949   8.127   0.581 -0.2737  0.2137 -0.0722
   18CHTO   H89 7437   5.898   8.122   0.679 -0.0054  2.7962  0.2356
   18CHTO   O33 7438   5.911   8.020   0.493  0.4278  0.4863  0.0413
   18CHTO   H70 7439   5.968   8.012   0.419  1.2378  1.1261  0.5836
   18CHTO   C45 7440   5.929   8.270   0.515 -0.1607  0.2142  0.4571
   18CHTO   H87 7441   6.003   8.289   0.436  2.0735 -2.1571  1.9335
   18CHTO    N8 7442   5.793   8.284   0.462 -0.7407  0.0178  0.1542
   18CHTO   H75 7443   5.781   8.380   0.414 -0.5960  0.7440  1.5491
   18CHTO   H76 7444   5.717   8.276   0.537  1.3493  1.1105  2.4571
   18CHTO   C43 7445   5.974   8.383   0.619  0.1361  0.1660  0.4638
   18CHTO   H85 7446   5.975   8.479   0.567  1.0637  0.6200  1.3185
   18CHTO   O29 7447   6.102   8.356   0.674  0.0285  0.2934 -0.0277
   18CHTO   C50 7448   6.134   8.221   0.715  0.0301  0.0549  0.5087
   18CHTO   H92 7449   6.243   8.209   0.730  0.0827  0.5594  0.5520
   18CHTO   C54 7450   6.087   8.201   0.864  1.0502 -0.8031  0.2114
   18CHTO   O36 7451   6.117   8.067   0.909  0.1693  0.3936  0.7163
   18CHTO   H72 7452   6.118   7.998   0.845  1.1777  0.3953  0.7119
   18CHTO   O27 7453   5.876   8.397   0.731  0.2349 -0.1731 -0.1448
   18CHTO   C37 7454   5.805   8.489   0.814  0.2414 -0.4214  0.2186
   18CHTO   H79 7455   5.868   8.502   0.904  1.0636  1.9457 -0.6478
   18CHTO   C38 7456   5.791   8.628   0.756  0.0907 -1.0397  0.1548
   18CHTO   H80 7457   5.758   8.616   0.652  1.6838  1.0089 -0.6104
   18CHTO   O31 7458   5.924   8.690   0.751  0.5270  0.2880  0.0132
   18CHTO   H68 7459   5.936   8.722   0.839  2.5559 -0.3152 -0.0292
   18CHTO   C39 7460   5.692   8.719   0.844  0.1264  0.9296 -0.5112
   18CHTO   H81 7461   5.732   8.737   0.943 -1.3959  2.7790 -0.1932
   18CHTO    N7 7462   5.674   8.857   0.784 -0.0473 -0.3689  0.8474
   18CHTO   H73 7463   5.774   8.883   0.751 -0.1850 -1.6624 -0.6599
   18CHTO   H74 7464   5.615   8.926   0.843  0.6311  0.6725  0.3220
   18CHTO   C40 7465   5.560   8.625   0.860 -0.1714 -0.2661 -0.2419
   18CHTO   H82 7466   5.536   8.606   0.756  1.1488  0.2514 -0.6499
   18CHTO   O26 7467   5.590   8.505   0.930  0.2001 -0.2322 -0.6864
   18CHTO   C41 7468   5.678   8.419   0.857  1.3533 -0.5676 -0.3053
   18CHTO   H83 7469   5.625   8.377   0.771 -0.9306 -0.7907  1.1709
   18CHTO   C52 7470   5.710   8.315   0.965  0.0463  0.4609  0.2145
   18CHTO   O35 7471   5.776   8.196   0.915 -0.0726  0.0568  0.7943
   18CHTO   H71 7472   5.771   8.123   0.973 -1.5957  0.6631  1.4609
   18CHTO   O28 7473   5.454   8.706   0.914 -0.2901 -0.5052  0.1618
   18CHTO   C42 7474   5.316   8.681   0.945 -0.1295 -0.1553  0.5363
   18CHTO   H84 7475   5.285   8.785   0.952 -1.7707 -0.6958  1.6108
   18CHTO   C44 7476   5.297   8.618   1.080 -0.2050 -0.0901 -0.6367
   18CHTO   H86 7477   5.351   8.524   1.087 -1.9156 -1.0156  0.5170
   18CHTO   O32 7478   5.350   8.708   1.178  0.4133 -0.2001 -0.1190
   18CHTO   H69 7479   5.422   8.760   1.146 -0.1391  0.7732  0.2055
   18CHTO   C48 7480   5.149   8.589   1.110 -0.1465 -0.1149 -0.0959
   18CHTO   H90 7481   5.092   8.675   1.145  0.5911  0.5690 -0.5461
   18CHTO    N9 7482   5.130   8.504   1.235  0.4062 -0.8040  0.0142
   18CHTO   H77 7483   5.223   8.515   1.288 -0.2170  0.9455  0.8014
   18CHTO   H78 7484   5.116   8.399   1.216 -0.2313 -1.6320  4.4916
   18CHTO   C51 7485   5.072   8.528   0.985 -0.6796 -0.0350  0.6642
   18CHTO   H93 7486   5.114   8.431   0.958  0.9827  0.8941 -0.1681
   18CHTO   O30 7487   5.089   8.624   0.882  0.3731  0.1476 -0.1701
   18CHTO   C46 7488   5.236   8.608   0.829  0.3760 -0.6127 -0.0826
   18CHTO   H88 7489   5.266   8.503   0.824 -0.4193 -0.8303 -0.3533
   18CHTO   C53 7490   5.248   8.687   0.695 -0.6801  0.1160 -0.6356
   18CHTO   O72 7491   5.152   8.622   0.608 -0.1308 -0.6827  0.0416
   18CHTO  H199 7492   5.204   8.583   0.541 -2.0990 -0.5296 -1.6063
   18CHTO   O22 7493   4.928   8.518   0.990 -0.4895 -0.5187 -0.0801
   18CHTO   C31 7494   4.847   8.477   0.871 -0.5089  0.2764 -0.8861
   18CHTO   H59 7495   4.755   8.430   0.913 -0.9106  0.0815 -1.9725
   18CHTO   C29 7496   4.802   8.600   0.794  0.1667  0.2964 -0.0369
   18CHTO   H57 7497   4.889   8.666   0.782  1.2582 -1.0801  0.2110
   18CHTO   O21 7498   4.716   8.672   0.876  0.4624  0.7981  0.4797
   18CHTO   H37 7499   4.684   8.740   0.819  0.1079  1.0233  0.9441
   18CHTO   C27 7500   4.741   8.552   0.653  0.3549  0.0602  0.1258
   18CHTO   H55 7501   4.643   8.506   0.675 -0.0600  1.5376  1.5200
   18CHTO    N5 7502   4.727   8.679   0.566  0.2998 -0.3352  0.1250
   18CHTO   H43 7503   4.652   8.655   0.492  1.2643 -0.9428 -0.6698
   18CHTO   H44 7504   4.824   8.704   0.524  1.8158 -1.6575  2.7288
   18CHTO   C25 7505   4.837   8.453   0.585 -0.5591  0.2152 -0.5378
   18CHTO   H53 7506   4.940   8.490   0.582  0.4173 -2.2418  0.7645
   18CHTO   O17 7507   4.835   8.338   0.665 -0.2105  0.2541 -0.5328
   18CHTO   C32 7508   4.908   8.365   0.787 -0.5624  0.0528  0.3827
   18CHTO   H60 7509   5.015   8.376   0.770 -0.8463  0.7665 -0.9924
   18CHTO   C36 7510   4.898   8.226   0.859  0.2805 -0.1043 -0.3968
   18CHTO   O25 7511   4.956   8.242   0.991  0.2417  0.3263 -0.3651
   18CHTO   H40 7512   4.901   8.226   1.065  0.6449 -3.4979 -0.7872
   18CHTO   O15 7513   4.787   8.411   0.428 -0.0635  0.0076  0.2339
   18CHTO   C19 7514   4.821   8.307   0.333  0.2413  0.4437  0.0475
   18CHTO   H47 7515   4.789   8.218   0.390 -1.3146  1.7353  1.2642
   18CHTO   C20 7516   4.736   8.323   0.200 -0.2784  0.1448 -0.3805
   18CHTO   H48 7517   4.758   8.421   0.154  1.2859  0.1090  0.2730
   18CHTO   O19 7518   4.600   8.319   0.236  0.4740  0.4200 -0.2110
   18CHTO   H35 7519   4.553   8.354   0.163 -0.4396  0.5647  0.4305
   18CHTO   C21 7520   4.774   8.224   0.085 -0.2305 -0.4468 -0.2056
   18CHTO   H49 7521   4.732   8.127   0.111  0.9137 -0.9189 -0.0963
   18CHTO    N4 7522   4.705   8.247  -0.045  0.1316 -0.0135 -0.7623
   18CHTO   H41 7523   4.705   8.355  -0.052 -2.3070  0.0094 -1.0266
   18CHTO   H42 7524   4.762   8.206  -0.127  1.8200  2.2441 -0.7480
   18CHTO   C22 7525   4.925   8.226   0.072 -0.5794 -0.3238 -1.1126
   18CHTO   H50 7526   4.953   8.329   0.054 -1.1101  0.3567  1.6571
   18CHTO   O14 7527   4.976   8.186   0.199 -0.1929  0.2925  0.4543
   18CHTO   C23 7528   4.970   8.287   0.295 -0.2068  0.2189 -0.9146
   18CHTO   H51 7529   5.015   8.379   0.254  1.9020 -1.3405 -2.2358
   18CHTO   C34 7530   5.050   8.267   0.425 -0.2814  0.2340  0.2224
   18CHTO   O23 7531   5.014   8.149   0.501 -0.2625 -0.6177  0.2342
   18CHTO   H38 7532   4.983   8.173   0.587  0.1842  1.4035 -0.1588
   18CHTO   O16 7533   4.983   8.138  -0.025  0.0331 -0.0491 -0.2504
   18CHTO   C24 7534   5.130   8.203  -0.090  0.5589  0.2739  0.2512
   18CHTO   H52 7535   5.154   8.300  -0.046 -1.9826  0.3757  1.5084
   18CHTO   C26 7536   5.103   8.215  -0.244  0.8192  0.5339 -0.1563
   18CHTO   H54 7537   5.090   8.113  -0.285  2.5098 -0.9499  2.8808
   18CHTO   O20 7538   4.985   8.287  -0.278 -0.0896  0.1640 -0.4047
   18CHTO   H36 7539   4.971   8.362  -0.223 -2.0059 -2.3061  2.7117
   18CHTO   C30 7540   5.237   8.263  -0.319 -0.5023 -0.2078  0.6465
   18CHTO   H58 7541   5.262   8.365  -0.285 -1.3501  0.0526  0.4988
   18CHTO    N6 7542   5.225   8.259  -0.469 -0.0291 -0.3125 -0.6792
   18CHTO   H45 7543   5.278   8.344  -0.510  0.8108 -0.3739  0.2598
   18CHTO   H46 7544   5.265   8.170  -0.514 -0.4818 -0.2729 -1.1573
   18CHTO   C33 7545   5.366   8.181  -0.271 -0.0300 -0.1926 -0.0100
   18CHTO   H61 7546   5.358   8.079  -0.310 -0.8346  0.1429 -0.7407
   18CHTO   O18 7547   5.367   8.178  -0.128 -0.0817 -0.0929 -0.5303
   18CHTO   C28 7548   5.252   8.112  -0.069  0.5821 -0.2204  0.3862
   18CHTO   H56 7549   5.229   8.021  -0.125  1.7393  0.6525 -1.5556
   18CHTO   C35 7550   5.278   8.082   0.077 -0.1217  0.0734  0.2804
   18CHTO   O24 7551   5.399   8.005   0.099  0.3878  0.3646 -0.2253
   18CHTO   H39 7552   5.382   7.933   0.157  2.4930 -0.5609 -0.7187
   18CHTO    O9 7553   5.487   8.241  -0.326 -0.0214  0.2027  0.8777
   18CHTO   C13 7554   5.594   8.124  -0.405 -0.2410  0.1314 -0.8005
   18CHTO   H26 7555   5.558   8.100  -0.507  1.8926  1.0042 -1.7859
   18CHTO   C11 7556   5.606   7.995  -0.309  0.4180 -0.4358  0.5451
   18CHTO   H24 7557   5.511   7.940  -0.316  0.7475 -0.9269 -0.0977
   18CHTO    O8 7558   5.629   8.020  -0.167  0.0632  0.6045 -0.1919
   18CHTO    H3 7559   5.695   8.082  -0.143  2.4627 -0.8427 -2.7473
   18CHTO    C9 7560   5.703   7.906  -0.390 -0.5239 -0.4698 -0.1502
   18CHTO   H22 7561   5.661   7.896  -0.491  1.0765  1.2486 -0.9998
   18CHTO    N2 7562   5.711   7.772  -0.335 -0.2989  0.0480 -0.0997
   18CHTO   H10 7563   5.751   7.706  -0.410  0.2759  1.3398 -0.9484
   18CHTO   H11 7564   5.759   7.762  -0.238  1.0292 -1.3403 -0.8785
   18CHTO    C7 7565   5.845   7.978  -0.397  0.6243  0.5442  0.1653
   18CHTO   H20 7566   5.886   7.916  -0.479 -1.9591 -0.3259 -0.5406
   18CHTO    O4 7567   5.844   8.115  -0.442  0.2845 -0.0568  0.1626
   18CHTO   C14 7568   5.730   8.199  -0.415  0.2950 -0.0677  0.1163
   18CHTO   H27 7569   5.724   8.263  -0.505 -0.7506  0.1034  0.2992
   18CHTO   C18 7570   5.762   8.294  -0.300  0.0315 -0.5768  0.0870
   18CHTO   O13 7571   5.879   8.368  -0.328 -0.0532  0.0700  0.5419
   18CHTO    H7 7572   5.932   8.394  -0.254  2.7977  0.5521 -1.5745
   18CHTO    O2 7573   5.927   7.968  -0.260 -0.2364  0.7110 -0.0468
   18CHTO    C1 7574   6.070   7.950  -0.289  0.7127 -0.5266 -0.1610
   18CHTO   H14 7575   6.093   7.983  -0.392 -1.3176  0.2045 -0.3884
   18CHTO    C2 7576   6.120   7.798  -0.270 -0.4552  0.6367  0.3336
   18CHTO   H15 7577   6.114   7.764  -0.165  1.1256 -1.3611 -0.1966
   18CHTO    O6 7578   6.041   7.708  -0.354  0.1576 -1.0256 -0.0468
   18CHTO    H1 7579   6.033   7.747  -0.439  1.4324  1.1427  0.7860
   18CHTO    C3 7580   6.278   7.792  -0.305 -0.1778  0.2334 -0.6800
   18CHTO   H16 7581   6.296   7.845  -0.400  2.0245  0.7323 -0.0188
   18CHTO    N1 7582   6.331   7.652  -0.317 -0.5425 -0.6814 -0.6920
   18CHTO    H8 7583   6.256   7.590  -0.365 -1.1193 -1.0893  0.7158
   18CHTO    H9 7584   6.358   7.604  -0.224  0.7191 -2.5410 -1.9721
   18CHTO    C4 7585   6.339   7.887  -0.188  0.3323 -1.0121 -0.1396
   18CHTO   H17 7586   6.309   7.848  -0.091 -2.0202  0.2123 -0.3258
   18CHTO    O1 7587   6.298   8.022  -0.211 -0.4576  0.2954  0.3322
   18CHTO    C5 7588   6.155   8.048  -0.203  0.2291  0.8267  0.5305
   18CHTO   H18 7589   6.121   8.028  -0.101  2.1705 -0.1151  1.0189
   18CHTO   C16 7590   6.139   8.204  -0.235  0.4385  0.5829 -0.2140
   18CHTO   O11 7591   6.219   8.273  -0.137  0.2095 -0.0706  0.0684
   18CHTO    H5 7592   6.233   8.365  -0.150  1.5090 -0.3866 -0.9682
   18CHTO    O3 7593   6.482   7.897  -0.209  0.1336  0.0682  0.1975
   18CHTO    C6 7594   6.556   7.889  -0.086 -0.3340 -0.5226 -0.1966
   18CHTO   H19 7595   6.497   7.885   0.005 -1.2719  0.4042 -0.7601
   18CHTO    C8 7596   6.635   7.757  -0.077 -0.0706  0.2397  0.1701
   18CHTO   H21 7597   6.680   7.743  -0.175  2.5080 -4.0460  1.8457
   18CHTO    O7 7598   6.543   7.650  -0.050 -0.0597  0.0586 -0.5317
   18CHTO    H2 7599   6.553   7.586  -0.118  1.4291  0.0872 -0.3707
   18CHTO   C12 7600   6.756   7.757   0.027  0.2050 -0.3241 -0.0876
   18CHTO   H25 7601   6.702   7.753   0.125 -0.4589 -1.3707 -0.4871
   18CHTO    N3 7602   6.837   7.633   0.005  0.3217  0.6274 -0.5165
   18CHTO   H12 7603   6.912   7.640   0.083 -1.7423  1.1546  1.4865
   18CHTO   H13 7604   6.779   7.548   0.036  2.0521 -0.2670  0.3345
   18CHTO   C15 7605   6.835   7.890   0.019 -0.1239  0.4004  0.4970
   18CHTO   H28 7606   6.896   7.914  -0.069  1.4993  0.7614  1.6974
   18CHTO   O10 7607   6.920   7.924   0.129  0.7820 -0.3437 -0.5300
   18CHTO    H4 7608   6.983   7.985   0.095  1.6843 -1.2438 -0.4982
   18CHTO    O5 7609   6.741   7.994   0.039 -0.4207 -0.1751 -0.4414
   18CHTO   C10 7610   6.651   8.012  -0.072 -0.7474  0.2525 -0.0789
   18CHTO   H23 7611   6.704   8.020  -0.167 -0.9540 -0.1281 -0.2308
   18CHTO   C17 7612   6.571   8.141  -0.045 -0.0297 -0.3393  0.1461
   18CHTO   O12 7613   6.657   8.252  -0.058 -0.1550  0.0712  0.6738
   18CHTO    H6 7614   6.688   8.271  -0.145 -2.5088  0.7951 -0.0368
   19CHTO  H203 7615   4.685   9.645   1.918 -0.4895 -0.3125 -1.3326
   19CHTO   O82 7616   4.766   9.652   1.872  0.3205 -0.5876  0.0042
   19CHTO  C123 7617   4.802   9.528   1.808  0.0398 -0.3995  0.4980
   19CHTO  H227 7618   4.717   9.491   1.749  1.9078 -1.5542 -1.5840
   19CHTO   O77 7619   4.905   9.564   1.704  0.3259 -0.4799 -0.5169
   19CHTO  C118 7620   4.941   9.461   1.614  0.0369 -0.2127  0.4026
   19CHTO  H222 7621   4.850   9.421   1.567 -1.3620  2.1935  0.9753
   19CHTO  C125 7622   5.022   9.534   1.498 -0.1683 -0.0205  0.4518
   19CHTO   O84 7623   5.142   9.592   1.548  0.0035  0.2288  0.5594
   19CHTO  H205 7624   5.213   9.574   1.490 -0.4997  0.1304 -0.0440
   19CHTO  C114 7625   5.013   9.346   1.681 -0.6059  0.3521 -0.5490
   19CHTO  H218 7626   5.115   9.379   1.701 -1.4235  3.1079 -0.6618
   19CHTO  C116 7627   4.937   9.299   1.807 -0.5327 -0.4477 -0.1989
   19CHTO  H220 7628   4.856   9.230   1.775 -2.8135  1.5499  1.0892
   19CHTO   O79 7629   5.016   9.215   1.888  0.1471  0.0638 -0.5506
   19CHTO  H201 7630   4.961   9.152   1.929 -1.2731 -0.7012 -3.4696
   19CHTO  C120 7631   4.878   9.424   1.895  0.2667 -0.4104 -0.2290
   19CHTO  H224 7632   4.969   9.472   1.936 -0.3825  1.1892 -0.5940
   19CHTO   N21 7633   4.797   9.371   2.009 -0.1653 -0.0785 -0.3696
   19CHTO  H211 7634   4.857   9.339   2.093 -0.3672  1.0274  0.1943
   19CHTO  H212 7635   4.752   9.280   1.973  0.3632 -2.0576  3.6660
   19CHTO   O75 7636   5.015   9.249   1.586 -0.1113 -0.4937 -0.2138
   19CHTO  C112 7637   5.117   9.117   1.614  0.0210 -0.6483  0.2280
   19CHTO  H216 7638   5.114   9.096   1.722  1.7243 -1.4276  0.1326
   19CHTO   O73 7639   5.246   9.160   1.569 -0.3100  0.2033  0.7941
   19CHTO  C113 7640   5.348   9.080   1.623 -0.0540 -0.0543 -0.5371
   19CHTO  H217 7641   5.334   9.073   1.733  0.8970 -0.3569 -0.4341
   19CHTO  C124 7642   5.473   9.147   1.582 -1.0743  0.0423  0.3142
   19CHTO   O83 7643   5.583   9.086   1.661  0.2906  0.4843 -0.4890
   19CHTO  H204 7644   5.577   8.994   1.649 -0.0882  0.5735 -0.9596
   19CHTO  C109 7645   5.333   8.935   1.575 -0.4358  0.4438  0.2113
   19CHTO  H213 7646   5.354   8.936   1.467  3.1783 -1.6069  0.8310
   19CHTO  C110 7647   5.181   8.884   1.588 -0.5785  0.3012  0.0739
   19CHTO  H214 7648   5.164   8.856   1.692  0.1988 -1.7860 -0.3336
   19CHTO   O78 7649   5.167   8.762   1.506 -0.3020 -0.3239  0.2336
   19CHTO  H200 7650   5.218   8.762   1.427 -1.3724  1.7058 -0.4817
   19CHTO  C111 7651   5.076   8.989   1.544  0.3643  0.4765  0.2246
   19CHTO  H215 7652   5.080   9.010   1.436  1.2848 -0.1806  0.1273
   19CHTO   N19 7653   4.937   8.953   1.578  0.0565 -0.4714 -0.2518
   19CHTO  H207 7654   4.866   9.033   1.563  0.5139 -0.1504 -0.7206
   19CHTO  H208 7655   4.904   8.872   1.514 -0.2202 -0.5605  0.0056
   19CHTO   O74 7656   5.432   8.847   1.634 -0.3174  0.4330  0.7765
   19CHTO  C115 7657   5.520   8.773   1.521 -1.0498 -0.0928  0.4691
   19CHTO  H219 7658   5.465   8.766   1.427 -0.3185 -2.2436  0.1696
   19CHTO   O76 7659   5.646   8.847   1.492  0.6525 -0.0096  0.5109
   19CHTO  C122 7660   5.740   8.799   1.392 -0.2954 -0.2048 -0.2045
   19CHTO  H226 7661   5.837   8.848   1.398  0.4015 -1.6133  0.3121
   19CHTO  C126 7662   5.684   8.825   1.251  0.4657 -0.5621 -0.8800
   19CHTO   O85 7663   5.648   8.963   1.230  0.1595 -0.2760 -0.0158
   19CHTO  H206 7664   5.692   9.003   1.157 -0.6612 -1.5530 -1.2433
   19CHTO  C121 7665   5.779   8.645   1.403 -0.6886 -0.1110  0.3083
   19CHTO  H225 7666   5.813   8.616   1.301 -0.2562  1.8843 -0.1277
   19CHTO   O81 7667   5.894   8.624   1.490 -0.0947  0.5632  0.8634
   19CHTO  H202 7668   5.930   8.537   1.487  0.9171  1.0321 -1.9583
   19CHTO  C119 7669   5.655   8.552   1.443  0.4664  0.0696  0.4625
   19CHTO  H223 7670   5.590   8.543   1.356 -0.3784  3.4430  0.6552
   19CHTO  C117 7671   5.557   8.617   1.555 -0.4675 -0.2577 -0.0107
   19CHTO  H221 7672   5.598   8.624   1.656 -1.1453 -1.8804  0.4036
   19CHTO   N20 7673   5.432   8.538   1.573  0.7412  0.1190 -0.1502
   19CHTO  H209 7674   5.357   8.597   1.622  0.8438  1.7724 -1.8954
   19CHTO  H210 7675   5.446   8.435   1.602 -0.9250  0.4683  1.9733
   19CHTO   O80 7676   5.688   8.396   1.468  0.0609  0.1281 -0.2130
   19CHTO  C103 7677   5.772   8.320   1.360 -0.0595  0.0531  0.9663
   19CHTO  H190 7678   5.766   8.382   1.271 -0.5215  1.4578  1.9516
   19CHTO  C101 7679   5.918   8.268   1.391 -0.0863 -0.1961  0.6332
   19CHTO  H188 7680   5.918   8.211   1.483  0.4329  0.3750  0.9941
   19CHTO   O68 7681   6.016   8.387   1.419  0.2838 -0.3414  0.1428
   19CHTO  H168 7682   6.108   8.369   1.412  1.1243  2.8806  2.0088
   19CHTO   C99 7683   5.975   8.181   1.269 -0.8256 -0.1884  0.2033
   19CHTO  H186 7684   5.970   8.249   1.182 -0.5224 -2.2658 -1.5068
   19CHTO   N17 7685   6.113   8.140   1.283 -1.0310  0.2143  0.2710
   19CHTO  H174 7686   6.165   8.223   1.328 -0.0857 -0.7470  0.9785
   19CHTO  H175 7687   6.136   8.132   1.178 -0.9803 -0.1514  0.3092
   19CHTO   C97 7688   5.873   8.059   1.246 -0.8499 -0.5107  0.3862
   19CHTO  H184 7689   5.875   7.990   1.332  3.2711 -2.2353 -0.9582
   19CHTO   O64 7690   5.743   8.120   1.222  0.1368  0.1410 -0.2860
   19CHTO  C104 7691   5.681   8.188   1.330 -0.8498  0.2144  0.1956
   19CHTO  H191 7692   5.686   8.125   1.419 -0.5617  1.6468  1.2110
   19CHTO  C108 7693   5.536   8.215   1.291 -0.6035 -0.4831  0.1552
   19CHTO   O71 7694   5.451   8.221   1.408  0.2808 -0.2648  0.7240
   19CHTO  H171 7695   5.481   8.294   1.458  0.5496  0.9462 -1.1374
   19CHTO   O62 7696   5.895   7.993   1.123 -0.0357 -0.4359 -0.4234
   19CHTO   C91 7697   5.852   7.856   1.118 -0.3200 -0.5778  0.6236
   19CHTO  H178 7698   5.805   7.836   1.214  0.9814  2.2015  1.9196
   19CHTO   C92 7699   5.976   7.765   1.104 -0.0531 -0.4206 -0.2974
   19CHTO  H179 7700   6.031   7.785   1.010  0.5883 -1.2481 -0.1048
   19CHTO   O66 7701   6.067   7.796   1.212 -0.6585  0.4373  0.2319
   19CHTO  H166 7702   6.110   7.723   1.253 -0.0718  2.7915  4.0364
   19CHTO   C93 7703   5.933   7.606   1.096  0.1507 -0.2407 -0.3344
   19CHTO  H180 7704   5.909   7.574   1.198  1.1978  0.8324  0.2670
   19CHTO   N16 7705   6.043   7.508   1.066  0.0161  0.5168  0.7870
   19CHTO  H172 7706   6.140   7.526   1.110 -0.5690  0.3884  2.1302
   19CHTO  H173 7707   6.043   7.515   0.958 -0.2155  2.4954  0.8970
   19CHTO   C94 7708   5.804   7.583   1.004 -0.0107  0.5279 -0.1957
   19CHTO  H181 7709   5.829   7.577   0.898  1.9826 -0.5204  0.3042
   19CHTO   O61 7710   5.704   7.682   1.029  0.0490  0.2906 -0.5584
   19CHTO   C95 7711   5.749   7.820   1.009 -0.3838 -0.5245 -0.4299
   19CHTO  H182 7712   5.801   7.827   0.913 -0.6206 -5.5099 -1.0274
   19CHTO  C106 7713   5.626   7.915   1.004  0.4788  0.0953  0.7784
   19CHTO   O69 7714   5.552   7.893   0.885  0.1330  0.1685  0.4148
   19CHTO  H169 7715   5.620   7.901   0.821  0.6364  2.5053  1.1759
   19CHTO   O63 7716   5.735   7.440   1.050 -0.2546  0.4285  0.2682
   19CHTO   C96 7717   5.666   7.366   0.929 -0.5786  0.1317 -0.2879
   19CHTO  H183 7718   5.743   7.345   0.854  0.0295  2.1025 -0.2297
   19CHTO   C98 7719   5.557   7.445   0.853 -0.0185 -0.0762 -0.5469
   19CHTO  H185 7720   5.596   7.547   0.839  0.2715 -0.1187 -0.0601
   19CHTO   O67 7721   5.542   7.385   0.721 -0.3751 -0.3908  0.7201
   19CHTO  H167 7722   5.505   7.300   0.729 -2.8413  0.4611 -1.2815
   19CHTO  C102 7723   5.414   7.437   0.928 -0.0646 -0.1282 -0.5967
   19CHTO  H189 7724   5.335   7.451   0.852 -2.7300 -0.1973  2.0939
   19CHTO   N18 7725   5.389   7.550   1.031  0.3125  0.1471 -0.1619
   19CHTO  H176 7726   5.294   7.532   1.079 -0.8698 -1.9064 -3.1360
   19CHTO  H177 7727   5.472   7.565   1.098  0.5174  0.6410 -0.5206
   19CHTO  C105 7728   5.396   7.296   0.998 -0.5688  0.0567 -0.6222
   19CHTO  H192 7729   5.402   7.305   1.106  1.1090  0.0316 -0.7144
   19CHTO   O65 7730   5.482   7.193   0.959  0.0570 -0.2440  0.0484
   19CHTO  C100 7731   5.620   7.223   0.979  0.5245 -0.7705 -0.2871
   19CHTO  H187 7732   5.621   7.223   1.089  0.5844  0.9563 -0.2731
   19CHTO  C107 7733   5.707   7.104   0.933  0.1411  0.0089  0.2220
   19CHTO   O70 7734   5.842   7.143   0.927  0.4229  0.5186  0.6044
   19CHTO  H170 7735   5.885   7.079   0.874 -1.4363 -0.1516 -0.1368
   19CHTO   O57 7736   5.248   7.265   0.966 -0.0867 -0.2455 -0.2373
   19CHTO   C85 7737   5.162   7.184   1.038  0.6427 -0.5368  0.2608
   19CHTO  H157 7738   5.211   7.168   1.136  1.5609  0.7910  0.0373
   19CHTO   C83 7739   5.151   7.054   0.960 -0.5665 -0.5457 -0.0359
   19CHTO  H155 7740   5.251   7.012   0.949  1.0301  3.3873 -1.5699
   19CHTO   O56 7741   5.099   7.068   0.827  0.4875 -0.5124 -0.0875
   19CHTO  H135 7742   5.094   7.159   0.803  0.8124 -0.3142  0.6014
   19CHTO   C81 7743   5.070   6.957   1.049 -0.0707  0.3146 -0.3782
   19CHTO  H153 7744   5.120   6.939   1.144  1.6700  0.7760 -1.1862
   19CHTO   N14 7745   5.059   6.817   0.989 -0.2288 -0.7605 -0.1347
   19CHTO  H141 7746   5.030   6.827   0.886  1.1912  0.1818 -0.4657
   19CHTO  H142 7747   4.994   6.753   1.045 -0.3594 -0.4665  0.0504
   19CHTO   C79 7748   4.927   7.016   1.071  0.9463 -0.3331 -0.4378
   19CHTO  H151 7749   4.876   6.948   1.140  0.5546  0.2408 -0.1572
   19CHTO   O52 7750   4.941   7.139   1.137  0.0711 -0.9651 -0.4915
   19CHTO   C86 7751   5.015   7.235   1.056  0.1649 -0.0209  0.3953
   19CHTO  H158 7752   4.953   7.242   0.964  0.4984 -2.2866 -0.0383
   19CHTO   C90 7753   5.008   7.374   1.117 -0.1620 -0.6348 -0.4720
   19CHTO   O60 7754   5.062   7.475   1.026 -0.0095 -0.4116  0.1861
   19CHTO  H138 7755   5.019   7.488   0.944 -1.1640  0.2756  0.8767
   19CHTO   O50 7756   4.848   7.039   0.947 -0.2318 -0.4717 -0.2522
   19CHTO   C73 7757   4.710   7.021   0.888  0.2574 -0.3337 -0.5073
   19CHTO  H145 7758   4.659   6.925   0.897 -0.7279  0.2111 -0.1782
   19CHTO   C74 7759   4.723   7.063   0.735  0.0545 -0.1355  1.3048
   19CHTO  H146 7760   4.789   6.984   0.697  0.4957  0.6072  0.5355
   19CHTO   O54 7761   4.596   7.041   0.664 -0.0579  0.0662  0.2221
   19CHTO  H133 7762   4.540   7.112   0.688 -0.4629 -0.2907  0.3360
   19CHTO   C75 7763   4.784   7.204   0.718 -0.0901 -0.3034  0.8401
   19CHTO  H147 7764   4.887   7.206   0.755  0.4157  0.2303 -0.5616
   19CHTO   N13 7765   4.795   7.257   0.579 -0.0975  0.0389  0.0420
   19CHTO  H139 7766   4.699   7.254   0.529 -0.0485  2.9583 -0.3128
   19CHTO  H140 7767   4.825   7.361   0.587  1.0259 -0.2604 -0.1158
   19CHTO   C76 7768   4.694   7.308   0.806 -0.4159  0.1890 -0.6124
   19CHTO  H148 7769   4.596   7.325   0.762 -0.9435 -1.7551 -0.2271
   19CHTO   O49 7770   4.671   7.260   0.942  0.0792 -0.6175  0.1277
   19CHTO   C77 7771   4.618   7.127   0.964  0.3162  0.0944  0.7100
   19CHTO  H149 7772   4.519   7.117   0.919  1.9554 -0.3108 -2.9884
   19CHTO   C88 7773   4.602   7.119   1.112  0.4017  0.1537  0.2666
   19CHTO   O58 7774   4.519   6.993   1.158  0.2988 -0.0069  0.1649
   19CHTO  H136 7775   4.484   7.007   1.244  0.2647 -1.4473  0.3953
   19CHTO   O51 7776   4.781   7.465   0.816  0.3090  0.4358 -0.0920
   19CHTO   C78 7777   4.691   7.589   0.801  0.8885  0.4762 -0.5245
   19CHTO  H150 7778   4.589   7.561   0.766 -0.7003 -1.1483  4.9805
   19CHTO   C80 7779   4.761   7.681   0.702 -0.5743  0.0893  0.1554
   19CHTO  H152 7780   4.866   7.696   0.733 -0.9016  0.8016  0.9584
   19CHTO   O55 7781   4.774   7.618   0.576  0.1745  0.2460 -0.5989
   19CHTO  H134 7782   4.799   7.690   0.522  2.2465  1.6248  2.0714
   19CHTO   C84 7783   4.699   7.829   0.690 -0.1352  0.0854 -0.2775
   19CHTO  H156 7784   4.619   7.810   0.619  0.3773 -0.0934 -0.8123
   19CHTO   N15 7785   4.791   7.927   0.615 -0.2375  0.6738 -0.8731
   19CHTO  H143 7786   4.777   7.909   0.510  0.8071 -0.2921 -0.8617
   19CHTO  H144 7787   4.895   7.912   0.634 -0.5730 -0.7876 -0.1506
   19CHTO   C87 7788   4.649   7.874   0.824  0.5903  0.3131  0.0235
   19CHTO  H159 7789   4.730   7.912   0.887  0.2591  0.6879  0.2208
   19CHTO   O53 7790   4.576   7.767   0.909 -0.2976  0.0790 -0.0280
   19CHTO   C82 7791   4.662   7.655   0.934  0.3463 -0.1734 -0.0786
   19CHTO  H154 7792   4.754   7.693   0.978  0.3307  1.2351 -1.1977
   19CHTO   C89 7793   4.592   7.564   1.045  0.1941  0.1814 -0.5147
   19CHTO   O59 7794   4.471   7.516   0.983  0.0203 -0.2246  0.2327
   19CHTO  H137 7795   4.432   7.577   0.923  2.0671 -0.4051 -1.3570
   19CHTO   O45 7796   4.550   7.997   0.790  0.2586 -0.0093  0.3237
   19CHTO   C67 7797   4.484   8.065   0.899  0.7530 -0.6107 -0.2751
   19CHTO  H124 7798   4.474   7.986   0.973  1.2532 -1.1524 -0.7743
   19CHTO   C65 7799   4.567   8.187   0.974 -0.1582 -0.6903 -0.2089
   19CHTO  H122 7800   4.627   8.240   0.900 -0.3525  0.4123  0.4065
   19CHTO   O44 7801   4.652   8.119   1.068 -0.6398  0.3416  0.0867
   19CHTO  H102 7802   4.724   8.171   1.098  0.3677 -0.6759 -0.5364
   19CHTO   C63 7803   4.465   8.289   1.038  0.3787  0.3244  0.9771
   19CHTO  H120 7804   4.441   8.357   0.956  0.1232 -1.9380 -0.8867
   19CHTO   N11 7805   4.536   8.380   1.137 -0.6163 -0.5399 -0.2632
   19CHTO  H108 7806   4.533   8.482   1.105 -0.1796 -0.7160 -0.8759
   19CHTO  H109 7807   4.641   8.365   1.142 -0.4062  0.9997  0.0421
   19CHTO   C61 7808   4.334   8.221   1.086 -0.4505 -0.9404  0.1205
   19CHTO  H118 7809   4.267   8.301   1.122 -1.4311 -1.8136  0.2653
   19CHTO   O40 7810   4.260   8.152   0.985  0.2634  0.6969 -0.3733
   19CHTO   C68 7811   4.336   8.114   0.861  0.0020 -0.6714 -0.8109
   19CHTO  H125 7812   4.353   8.204   0.797  3.7455  0.7332  1.9899
   19CHTO   C72 7813   4.258   8.003   0.781  0.0630 -0.0203 -0.0009
   19CHTO   O48 7814   4.125   8.041   0.743 -0.0913 -0.2949  0.5778
   19CHTO  H105 7815   4.061   8.046   0.811 -1.8227 -1.5648 -0.9306
   19CHTO   O38 7816   4.358   8.120   1.187  0.5262 -0.0604 -0.0295
   19CHTO   C55 7817   4.248   8.078   1.260  0.3555  0.9265 -0.2566
   19CHTO  H112 7818   4.154   8.088   1.203  0.1563 -1.3854 -0.4121
   19CHTO   C56 7819   4.242   8.140   1.401  0.6525  0.2368  0.5748
   19CHTO  H113 7820   4.336   8.122   1.455  0.9123  0.5557  0.2333
   19CHTO   O42 7821   4.233   8.282   1.383  0.1873  0.2043  0.5425
   19CHTO  H100 7822   4.162   8.306   1.327 -1.1896 -2.7872  0.8647
   19CHTO   C57 7823   4.124   8.075   1.486  0.0972 -0.2786  0.9720
   19CHTO  H114 7824   4.028   8.111   1.448  1.1382  2.7496  1.1410
   19CHTO   N10 7825   4.124   8.111   1.627 -0.0697  0.2385 -0.3970
   19CHTO  H106 7826   4.064   8.043   1.685  0.0218  0.2326 -0.3090
   19CHTO  H107 7827   4.093   8.213   1.641 -0.8169 -0.2231  1.5155
   19CHTO   C58 7828   4.124   7.920   1.471 -0.4530 -0.0759 -0.6716
   19CHTO  H115 7829   4.210   7.878   1.528 -1.0381 -0.3868 -0.0067
   19CHTO   O37 7830   4.128   7.889   1.332 -0.5907  0.4695 -0.7027
   19CHTO   C59 7831   4.252   7.924   1.278 -0.0761  0.3165  0.3117
   19CHTO  H116 7832   4.336   7.909   1.346 -0.1591 -2.6660 -0.1910
   19CHTO   C70 7833   4.265   7.830   1.159 -0.1245  0.7490  0.4877
   19CHTO   O46 7834   4.288   7.698   1.209 -0.2635 -0.7751 -0.5898
   19CHTO  H103 7835   4.344   7.647   1.155  1.4056 -1.0741  1.3754
   19CHTO   O39 7836   3.985   7.846   1.531 -0.2190  0.3582  0.1970
   19CHTO   C60 7837   3.968   7.711   1.475  0.1421  0.0924 -0.1413
   19CHTO  H117 7838   4.018   7.698   1.379  0.4850  1.0105 -0.0901
   19CHTO   C62 7839   4.035   7.595   1.572  0.4205 -0.5699  0.3672
   19CHTO  H119 7840   4.143   7.622   1.578  0.8212 -2.0154 -0.1434
   19CHTO   O43 7841   3.976   7.600   1.698  0.0322  0.6939  0.1694
   19CHTO  H101 7842   3.999   7.677   1.745  0.3744  1.1695 -0.7675
   19CHTO   C66 7843   4.015   7.456   1.501 -0.1604  0.2525 -0.3039
   19CHTO  H123 7844   4.064   7.464   1.404  0.5143 -1.6592 -0.1451
   19CHTO   N12 7845   4.068   7.332   1.574 -0.0771  0.3251 -0.4763
   19CHTO  H110 7846   4.129   7.355   1.660 -1.7771 -0.5180  1.0021
   19CHTO  H111 7847   4.005   7.246   1.589  0.1879  0.0028 -1.2119
   19CHTO   C69 7848   3.865   7.435   1.465 -0.9714  0.5349 -0.2639
   19CHTO  H126 7849   3.804   7.402   1.552 -0.8634  0.0575 -0.3696
   19CHTO   O41 7850   3.816   7.574   1.381 -0.3088  0.3369  0.6875
   19CHTO   C64 7851   3.818   7.692   1.451 -0.8308  0.1361  0.1319
   19CHTO  H121 7852   3.769   7.684   1.551 -1.4483  4.2002  0.2474
   19CHTO   C71 7853   3.749   7.811   1.374 -0.0124  0.1157  0.8841
   19CHTO   O47 7854   3.741   7.944   1.435 -0.3375  0.6972  0.3961
   19CHTO  H104 7855   3.692   7.940   1.515  0.1543  0.6031  0.6943
   19CHTO   O34 7856   3.851   7.317   1.357 -0.2023 -0.5696 -0.0026
   19CHTO   C49 7857   3.842   7.268   1.201  0.0886 -0.1844 -0.2182
   19CHTO   H91 7858   3.770   7.187   1.188  2.7781 -2.6557 -0.2687
   19CHTO   C47 7859   3.977   7.214   1.140  0.1436  0.4365  0.4188
   19CHTO   H89 7860   3.953   7.183   1.036  0.6554 -1.9496  0.9643
   19CHTO   O33 7861   4.009   7.097   1.226  1.2515  0.5805 -0.0018
   19CHTO   H70 7862   4.085   7.114   1.278  3.8066 -0.1054 -3.2910
   19CHTO   C45 7863   4.089   7.332   1.136  0.0007  0.0492  0.4305
   19CHTO   H87 7864   4.083   7.397   1.224 -1.7267 -0.5852  0.8003
   19CHTO    N8 7865   4.230   7.284   1.125 -0.6721 -0.1976 -0.0388
   19CHTO   H75 7866   4.255   7.235   1.218  2.6245  0.7966 -0.3534
   19CHTO   H76 7867   4.243   7.215   1.042 -1.4286 -0.8840  0.4042
   19CHTO   C43 7868   4.034   7.430   1.019  1.1815 -0.0153  0.3916
   19CHTO   H85 7869   4.109   7.509   1.011 -0.1585  1.2406 -0.1066
   19CHTO   O29 7870   3.902   7.480   1.050 -0.4021 -0.0757 -0.8446
   19CHTO   C50 7871   3.806   7.385   1.098 -0.2319  0.8395 -0.4593
   19CHTO   H92 7872   3.728   7.436   1.156 -1.3006 -2.3634  1.0317
   19CHTO   C54 7873   3.716   7.342   0.982  0.0914 -0.5873  0.2539
   19CHTO   O36 7874   3.780   7.260   0.880  0.3328  0.0995 -0.2413
   19CHTO   H72 7875   3.867   7.275   0.848  1.4392 -3.9589  0.5237
   19CHTO   O27 7876   4.045   7.366   0.891 -0.4075  0.7262  0.5492
   19CHTO   C37 7877   4.069   7.418   0.757 -0.4251  0.8427 -0.5793
   19CHTO   H79 7878   4.024   7.353   0.680 -3.8169  1.0112  1.1395
   19CHTO   C38 7879   4.018   7.565   0.739  0.2259 -0.5690  0.0498
   19CHTO   H80 7880   4.063   7.633   0.814 -0.6881 -0.6073  0.6437
   19CHTO   O31 7881   3.878   7.563   0.757 -0.1203 -0.1759  0.5580
   19CHTO   H68 7882   3.848   7.559   0.846  1.1021 -1.0002  0.9392
   19CHTO   C39 7883   4.058   7.623   0.594 -0.9407  0.5637 -0.3074
   19CHTO   H81 7884   4.020   7.549   0.523 -1.1834  0.2043  0.1946
   19CHTO    N7 7885   4.010   7.765   0.566 -0.1664  0.6986  0.1024
   19CHTO   H73 7886   4.053   7.794   0.471 -1.9169  0.0415 -0.9174
   19CHTO   H74 7887   3.903   7.778   0.563 -0.1740  0.4113 -1.0196
   19CHTO   C40 7888   4.215   7.611   0.583  0.2469 -0.3723  0.3538
   19CHTO   H82 7889   4.266   7.681   0.650 -0.7549 -0.9601  1.7342
   19CHTO   O26 7890   4.256   7.480   0.603 -0.0771 -0.1958 -0.2165
   19CHTO   C41 7891   4.223   7.418   0.731 -0.1378 -0.0907 -0.4196
   19CHTO   H83 7892   4.267   7.474   0.816  1.4350 -0.2389 -1.1200
   19CHTO   C52 7893   4.274   7.271   0.722 -0.3472 -0.4410 -0.0260
   19CHTO   O35 7894   4.394   7.245   0.694 -0.6154 -0.2312  0.5214
   19CHTO   H71 7895   4.456   7.270   0.760 -1.5326 -1.5992  1.9398
   19CHTO   O28 7896   4.260   7.624   0.443 -0.4465  0.2569 -0.2838
   19CHTO   C42 7897   4.378   7.698   0.407  0.6806 -0.4831  0.6484
   19CHTO   H84 7898   4.427   7.714   0.502  0.5584 -1.2918  0.8516
   19CHTO   C44 7899   4.345   7.835   0.345 -0.4582  0.5397  0.2216
   19CHTO   H86 7900   4.271   7.821   0.266  1.7248 -1.5120 -1.5261
   19CHTO   O32 7901   4.276   7.917   0.439  0.4532  0.2400 -0.0465
   19CHTO   H69 7902   4.195   7.942   0.400 -0.8549 -2.2570  0.9718
   19CHTO   C48 7903   4.476   7.906   0.285  0.5582 -0.0658 -0.3531
   19CHTO   H90 7904   4.530   7.959   0.364  1.4303  0.1040 -1.0619
   19CHTO    N9 7905   4.431   8.027   0.197  0.2165 -0.4491 -0.3276
   19CHTO   H77 7906   4.368   8.093   0.254  0.5588 -0.2185 -0.2120
   19CHTO   H78 7907   4.521   8.072   0.157  0.7097 -2.9513 -2.1595
   19CHTO   C51 7908   4.574   7.809   0.211  0.7931 -0.4112  0.2789
   19CHTO   H93 7909   4.528   7.778   0.118 -1.0053  2.9207 -0.0369
   19CHTO   O30 7910   4.594   7.699   0.303  0.1148  0.2361  0.5602
   19CHTO   C46 7911   4.482   7.612   0.322  0.0758 -0.0703 -0.1166
   19CHTO   H88 7912   4.444   7.592   0.222  0.3042 -0.5282 -0.1176
   19CHTO   C53 7913   4.511   7.477   0.392  0.8628  0.3229  0.6458
   19CHTO   O72 7914   4.592   7.392   0.306 -0.4697 -0.6385 -0.3966
   19CHTO  H199 7915   4.610   7.319   0.363 -2.3898  0.2912  1.4741
   19CHTO   O22 7916   4.705   7.869   0.202  0.2461 -0.3528  0.2961
   19CHTO   C31 7917   4.804   7.806   0.128 -0.2436 -0.2192  0.0763
   19CHTO   H59 7918   4.784   7.697   0.132  0.9597 -0.4518 -0.1249
   19CHTO   C29 7919   4.801   7.849  -0.026 -0.6237  0.1435 -0.0677
   19CHTO   H57 7920   4.815   7.958  -0.018  0.0259  0.1096 -0.6036
   19CHTO   O21 7921   4.668   7.831  -0.072 -0.2612 -0.1796  0.3988
   19CHTO   H37 7922   4.661   7.858  -0.162 -3.0248 -1.5464  0.1318
   19CHTO   C27 7923   4.918   7.785  -0.110 -0.0233 -0.2085  0.0601
   19CHTO   H55 7924   4.901   7.677  -0.105 -1.7801  0.0565  0.2191
   19CHTO    N5 7925   4.930   7.833  -0.246  0.1808 -0.3687 -0.5096
   19CHTO   H43 7926   4.862   7.779  -0.311  0.8888 -1.5483 -0.2746
   19CHTO   H44 7927   4.892   7.934  -0.250 -1.9410 -1.1421 -0.8128
   19CHTO   C25 7928   5.051   7.807  -0.036  0.0968 -0.0904  0.8624
   19CHTO   H53 7929   5.086   7.911  -0.043 -0.0022 -0.1192 -0.0566
   19CHTO   O17 7930   5.050   7.767   0.103  0.1780 -0.0908 -0.8005
   19CHTO   C32 7931   4.945   7.828   0.183  0.3445  0.1595 -0.0298
   19CHTO   H60 7932   4.960   7.934   0.165 -1.6103  0.0933 -2.3583
   19CHTO   C36 7933   4.968   7.794   0.336 -0.7398  0.1039 -0.4576
   19CHTO   O25 7934   4.982   7.654   0.340  0.5363 -0.0362 -0.0399
   19CHTO   H40 7935   5.001   7.625   0.426  1.2502  0.2971 -0.0854
   19CHTO   O15 7936   5.160   7.713  -0.093 -0.2802 -0.2411  0.5262
   19CHTO   C19 7937   5.214   7.586  -0.154 -0.1120 -0.0389  0.0027
   19CHTO   H47 7938   5.136   7.573  -0.231  0.8294  1.4993 -1.2548
   19CHTO   C20 7939   5.350   7.596  -0.222 -0.6882 -0.6442  0.3235
   19CHTO   H48 7940   5.431   7.620  -0.152 -0.1074  0.8608 -0.8451
   19CHTO   O19 7941   5.332   7.706  -0.311 -0.0819 -0.6691  0.1809
   19CHTO   H35 7942   5.417   7.722  -0.347  0.2724  0.5534  1.5091
   19CHTO   C21 7943   5.387   7.473  -0.313  0.2547  0.4626 -0.0588
   19CHTO   H49 7944   5.309   7.465  -0.389  0.2958 -1.2622  0.0525
   19CHTO    N4 7945   5.510   7.474  -0.388  0.2133 -0.0800 -0.6484
   19CHTO   H41 7946   5.516   7.394  -0.461  0.8793 -0.7267  0.1049
   19CHTO   H42 7947   5.595   7.460  -0.322 -1.7622 -1.0902  1.7294
   19CHTO   C22 7948   5.365   7.349  -0.221  0.7971 -0.6409 -0.0698
   19CHTO   H50 7949   5.455   7.333  -0.161  0.4525 -2.5170  0.0006
   19CHTO   O14 7950   5.246   7.351  -0.136  0.2906  0.4492 -0.3933
   19CHTO   C23 7951   5.211   7.464  -0.062  0.4168 -0.3263  0.0926
   19CHTO   H51 7952   5.280   7.475   0.023  0.2226  0.1533  0.1923
   19CHTO   C34 7953   5.068   7.437  -0.010 -0.8363 -0.7528 -0.4444
   19CHTO   O23 7954   4.973   7.417  -0.114  0.1262  0.2606 -0.2795
   19CHTO   H38 7955   4.903   7.360  -0.090  0.5185 -0.0941  0.0251
   19CHTO   O16 7956   5.336   7.232  -0.301 -0.6740 -0.5819  0.1016
   19CHTO   C24 7957   5.425   7.111  -0.311  0.4572  0.8692  0.2924
   19CHTO   H52 7958   5.526   7.125  -0.274  0.9534 -1.5050 -0.1300
   19CHTO   C26 7959   5.420   7.073  -0.458 -0.1721  0.0512 -0.0155
   19CHTO   H54 7960   5.318   7.086  -0.501 -0.4580 -1.9027  0.0395
   19CHTO   O20 7961   5.523   7.154  -0.510 -0.0182 -0.4337 -0.0841
   19CHTO   H36 7962   5.533   7.139  -0.602 -0.0180  0.0480 -0.1673
   19CHTO   C30 7963   5.466   6.927  -0.487 -0.3110 -0.1739  0.5507
   19CHTO   H58 7964   5.572   6.915  -0.462 -0.2992 -0.0497  0.5584
   19CHTO    N6 7965   5.456   6.897  -0.636  0.0834 -0.0173  0.1878
   19CHTO   H45 7966   5.359   6.860  -0.667 -0.9773  1.5968  1.4326
   19CHTO   H46 7967   5.474   6.984  -0.697  3.0317 -0.9273 -0.3250
   19CHTO   C33 7968   5.385   6.829  -0.398  0.4249 -0.4895 -0.3187
   19CHTO   H61 7969   5.276   6.836  -0.409  0.2211 -0.4568  1.5380
   19CHTO   O18 7970   5.415   6.868  -0.266 -0.3949 -0.2462  0.0291
   19CHTO   C28 7971   5.360   6.995  -0.227 -0.7823  0.3876  0.9568
   19CHTO   H56 7972   5.252   6.998  -0.236 -0.7829 -1.2961  0.1817
   19CHTO   C35 7973   5.373   7.025  -0.079 -0.9778 -0.0545  0.3459
   19CHTO   O24 7974   5.518   7.038  -0.048  0.1306  0.2287  0.3464
   19CHTO   H39 7975   5.540   7.120  -0.087  1.6427  0.6553  2.0597
   19CHTO    O9 7976   5.423   6.691  -0.418 -0.0217 -0.5083  0.1432
   19CHTO   C13 7977   5.315   6.596  -0.464  0.1081  0.6694 -0.1474
   19CHTO   H26 7978   5.248   6.651  -0.533 -0.8280  0.1558  0.3377
   19CHTO   C11 7979   5.239   6.537  -0.343 -0.2771 -0.6836  0.1946
   19CHTO   H24 7980   5.199   6.631  -0.301  0.8712 -0.3720  0.6151
   19CHTO    O8 7981   5.317   6.460  -0.251 -0.2420  0.5040 -0.2291
   19CHTO    H3 7982   5.277   6.469  -0.166  1.6477  1.2351  0.6022
   19CHTO    C9 7983   5.120   6.460  -0.408 -0.4203  0.1466 -0.2142
   19CHTO   H22 7984   5.063   6.534  -0.466 -0.8272 -0.1458 -0.1899
   19CHTO    N2 7985   5.016   6.411  -0.312 -0.1889  0.0977  0.2883
   19CHTO   H10 7986   4.917   6.426  -0.353 -0.0213  3.1128  0.8242
   19CHTO   H11 7987   5.041   6.320  -0.260  2.5032  0.1630 -0.8520
   19CHTO    C7 7988   5.173   6.348  -0.503  0.2409  0.0625  0.1199
   19CHTO   H20 7989   5.088   6.309  -0.563  0.4452 -2.6290  1.4764
   19CHTO    O4 7990   5.266   6.395  -0.604 -0.2865 -0.1792  0.2455
   19CHTO   C14 7991   5.378   6.481  -0.558  0.0065 -0.4115 -0.5830
   19CHTO   H27 7992   5.423   6.525  -0.649 -0.9692  1.1546 -0.3246
   19CHTO   C18 7993   5.487   6.397  -0.478 -0.4499 -0.1664 -0.2037
   19CHTO   O13 7994   5.548   6.288  -0.555  0.3369 -0.4534 -0.2047
   19CHTO    H7 7995   5.618   6.248  -0.506  0.0982  0.2695  0.7340
   19CHTO    O2 7996   5.241   6.218  -0.407 -0.4127 -0.1011 -0.2325
   19CHTO    C1 7997   5.207   6.085  -0.410  0.3392  0.8671 -0.2437
   19CHTO   H14 7998   5.245   6.045  -0.507 -2.2379 -1.0852 -0.4953
   19CHTO    C2 7999   5.053   6.061  -0.415  0.4767 -0.0417  0.0769
   19CHTO   H15 8000   5.004   6.124  -0.339 -0.1196 -0.9515  0.4525
   19CHTO    O6 8001   4.991   6.087  -0.541  0.4798  0.2728 -0.1675
   19CHTO    H1 8002   4.998   6.178  -0.562  1.3462  0.6118  1.4676
   19CHTO    C3 8003   5.005   5.918  -0.374 -0.7267 -0.4047  0.1716
   19CHTO   H16 8004   5.013   5.850  -0.460 -3.6974 -1.1057  0.4098
   19CHTO    N1 8005   4.860   5.910  -0.340  0.4112  0.4288 -0.0049
   19CHTO    H8 8006   4.848   5.889  -0.235  3.8643  1.7558  0.6927
   19CHTO    H9 8007   4.816   5.833  -0.401 -1.8566 -1.8357  4.2411
   19CHTO    C4 8008   5.093   5.858  -0.256 -0.6946  0.2233 -0.1426
   19CHTO   H17 8009   5.064   5.902  -0.161 -1.4938 -2.2013  0.7848
   19CHTO    O1 8010   5.227   5.867  -0.290  0.2339 -0.3564 -0.4120
   19CHTO    C5 8011   5.271   6.001  -0.287  0.4020  0.0957 -0.0484
   19CHTO   H18 8012   5.238   6.042  -0.191  2.2244 -0.8117  0.9917
   19CHTO   C16 8013   5.429   6.001  -0.293 -0.2947 -0.2634  0.3011
   19CHTO   O11 8014   5.470   6.130  -0.228  0.4680  0.3392  0.3409
   19CHTO    H5 8015   5.414   6.195  -0.264 -0.7998 -0.1677  1.3468
   19CHTO    O3 8016   5.084   5.712  -0.247  0.2629 -0.3180 -0.9213
   19CHTO    C6 8017   5.030   5.658  -0.125 -0.3222 -0.0045  0.0703
   19CHTO   H19 8018   4.996   5.736  -0.057 -1.4110 -1.4155  1.1718
   19CHTO    C8 8019   4.918   5.543  -0.155  0.2620 -0.2907  0.4085
   19CHTO   H21 8020   4.963   5.468  -0.221 -0.0455  0.6075 -0.8347
   19CHTO    O7 8021   4.813   5.608  -0.225 -0.6438  0.6650  0.5536
   19CHTO    H2 8022   4.740   5.549  -0.236 -0.5816  1.1209 -2.5612
   19CHTO   C12 8023   4.882   5.460  -0.031  0.5004  0.4623  0.2439
   19CHTO   H25 8024   4.807   5.515   0.028 -3.1117 -2.6539 -1.1881
   19CHTO    N3 8025   4.804   5.337  -0.066 -0.3516  0.2684 -0.1062
   19CHTO   H12 8026   4.864   5.256  -0.107 -0.6027  0.1333 -0.2101
   19CHTO   H13 8027   4.735   5.311   0.013 -0.5576  1.9068  0.2731
   19CHTO   C15 8028   4.999   5.427   0.061 -0.1564  0.5148  0.6483
   19CHTO   H28 8029   5.065   5.349   0.024 -1.0195  0.7999 -1.5240
   19CHTO   O10 8030   4.937   5.398   0.220 -0.0785  0.3119  0.5314
   19CHTO    H4 8031   4.944   5.310   0.253  0.6192  0.6616  1.3256
   19CHTO    O5 8032   5.085   5.542   0.075 -0.2741  0.6064  0.6719
   19CHTO   C10 8033   5.147   5.577  -0.048 -0.5305 -0.3043  0.3218
   19CHTO   H23 8034   5.172   5.489  -0.106  1.0107  1.2021 -1.3667
   19CHTO   C17 8035   5.277   5.650  -0.025  0.2881 -0.6121  0.3023
   19CHTO   O12 8036   5.368   5.622  -0.132  0.2653 -0.1671  0.1644
   19CHTO    H6 8037   5.444   5.676  -0.133  0.1278  0.0225 -1.4689
   20CHTO  H203 8038   4.813   1.223   1.434 -1.3568  1.0694 -1.3118
   20CHTO   O82 8039   4.777   1.283   1.497  0.5352  0.5695  0.3017
   20CHTO  C123 8040   4.773   1.412   1.433  0.3974  0.4193 -0.7972
   20CHTO  H227 8041   4.706   1.478   1.491  0.3026 -0.6463  0.3352
   20CHTO   O77 8042   4.908   1.460   1.455 -0.2813  0.1067  0.6716
   20CHTO  C118 8043   4.936   1.580   1.384 -0.1750  0.1063  0.0621
   20CHTO  H222 8044   4.857   1.656   1.391 -1.2892 -0.9959 -0.3642
   20CHTO  C125 8045   5.070   1.645   1.443  0.1551 -0.4186  0.1887
   20CHTO   O84 8046   5.040   1.697   1.581 -0.2751  0.1463  0.2852
   20CHTO  H205 8047   5.120   1.721   1.624 -0.9226  1.3291  0.8594
   20CHTO  C114 8048   4.946   1.548   1.234  0.4360  0.1089 -0.4594
   20CHTO  H218 8049   5.008   1.459   1.225 -0.2861 -0.3716 -0.6234
   20CHTO  C116 8050   4.802   1.505   1.183  0.1833 -0.2411  0.5630
   20CHTO  H220 8051   4.735   1.594   1.182 -0.1965 -0.5116  1.6559
   20CHTO   O79 8052   4.808   1.456   1.050  0.1325 -0.0543 -0.7030
   20CHTO  H201 8053   4.855   1.515   0.995  2.9116 -0.9376  0.6303
   20CHTO  C120 8054   4.745   1.394   1.282  0.3903  0.8321  0.3208
   20CHTO  H224 8055   4.783   1.297   1.243 -1.0243  0.4800 -0.2043
   20CHTO   N21 8056   4.595   1.380   1.270  0.0632 -0.4827 -0.4601
   20CHTO  H211 8057   4.561   1.475   1.233  0.2194 -0.0143  0.5841
   20CHTO  H212 8058   4.546   1.364   1.365  1.0412 -1.5085 -0.1125
   20CHTO   O75 8059   4.994   1.667   1.162 -0.0514  0.1242 -0.0485
   20CHTO  C112 8060   5.103   1.631   1.059  0.5183  0.4088  0.7949
   20CHTO  H216 8061   5.079   1.533   1.015 -0.2069  0.5187  0.9326
   20CHTO   O73 8062   5.228   1.629   1.129 -0.5485 -0.5492  0.0388
   20CHTO  C113 8063   5.344   1.602   1.056 -0.0913  0.0335 -0.3294
   20CHTO  H217 8064   5.330   1.515   0.989 -0.1263 -1.6982  1.8993
   20CHTO  C124 8065   5.466   1.587   1.144  0.1321  0.0969 -0.7677
   20CHTO   O83 8066   5.583   1.545   1.076  0.4695 -0.1780  0.0079
   20CHTO  H204 8067   5.661   1.560   1.126  1.4472  1.0000 -1.8367
   20CHTO  C109 8068   5.364   1.730   0.970  0.0857  0.3056  0.2284
   20CHTO  H213 8069   5.385   1.815   1.036  1.3195 -0.1745  0.4599
   20CHTO  C110 8070   5.243   1.750   0.879  0.2534 -0.3522  0.0075
   20CHTO  H214 8071   5.246   1.680   0.795  1.3176  1.9137 -1.8853
   20CHTO   O78 8072   5.257   1.885   0.826  0.5242  0.2241 -0.1169
   20CHTO  H200 8073   5.184   1.916   0.777 -0.3430 -0.1852  0.9128
   20CHTO  C111 8074   5.105   1.748   0.953  0.6071  1.0501  0.4703
   20CHTO  H215 8075   5.097   1.844   1.005  1.5393  1.5582 -0.3059
   20CHTO   N19 8076   4.991   1.744   0.853 -0.6006 -0.0573  0.2776
   20CHTO  H207 8077   4.990   1.671   0.773  2.1450 -0.7564  0.8146
   20CHTO  H208 8078   4.981   1.843   0.810 -0.1271 -0.0214  0.2487
   20CHTO   O74 8079   5.471   1.716   0.876 -0.2097  0.4501  0.7304
   20CHTO  C115 8080   5.551   1.830   0.855  0.7288  0.5501 -0.1720
   20CHTO  H219 8081   5.520   1.914   0.917  1.4830  0.5167  0.2459
   20CHTO   O76 8082   5.724   1.804   0.896 -0.4909  0.7565  0.5239
   20CHTO  C122 8083   5.770   1.679   0.836  0.3251  0.3330  0.6106
   20CHTO  H226 8084   5.724   1.591   0.879 -0.9483  0.5102 -0.3737
   20CHTO  C126 8085   5.920   1.658   0.862 -0.4101 -0.0799 -0.3239
   20CHTO   O85 8086   6.006   1.767   0.817  0.1938  0.4267  0.0205
   20CHTO  H206 8087   6.093   1.743   0.842 -0.2195  1.1390  2.2750
   20CHTO  C121 8088   5.734   1.682   0.673 -0.2916 -0.2300  0.1093
   20CHTO  H225 8089   5.832   1.666   0.622  0.6960 -2.9100  2.7649
   20CHTO   O81 8090   5.644   1.578   0.639 -0.3380 -0.9372 -0.1449
   20CHTO  H202 8091   5.686   1.495   0.653 -3.1310 -2.5060 -0.6700
   20CHTO  C119 8092   5.678   1.823   0.626  0.7338 -0.0450 -0.1936
   20CHTO  H223 8093   5.751   1.899   0.653 -0.2831  0.7694  0.3035
   20CHTO  C117 8094   5.545   1.860   0.697  0.2737 -0.2011 -0.8261
   20CHTO  H221 8095   5.469   1.794   0.656  2.3258 -1.9298 -1.9311
   20CHTO   N20 8096   5.500   1.999   0.674 -0.0008  0.6794 -0.0033
   20CHTO  H209 8097   5.506   2.017   0.567 -0.5160  2.4895  0.2635
   20CHTO  H210 8098   5.395   2.019   0.689  0.2497  2.0166  0.0217
   20CHTO   O80 8099   5.676   1.834   0.465  0.1185 -0.3404  0.3605
   20CHTO  C103 8100   5.810   1.840   0.378  0.0145  0.1576  0.5080
   20CHTO  H190 8101   5.889   1.812   0.448  1.5801 -2.6571 -2.2547
   20CHTO  C101 8102   5.806   1.749   0.250 -0.6098 -0.0442 -0.1985
   20CHTO  H188 8103   5.700   1.748   0.222 -0.6059  3.8685 -0.6103
   20CHTO   O68 8104   5.858   1.598   0.293  0.2004  0.1046 -0.5357
   20CHTO  H168 8105   5.948   1.599   0.318  0.0682 -1.5570  0.0509
   20CHTO   C99 8106   5.876   1.811   0.119 -0.1873  0.2130  0.1904
   20CHTO  H186 8107   5.985   1.801   0.140 -0.5034 -0.4954  1.5593
   20CHTO   N17 8108   5.852   1.741  -0.020 -0.1195  0.9772 -0.1885
   20CHTO  H174 8109   5.751   1.705  -0.032  0.9190 -1.8290 -0.7957
   20CHTO  H175 8110   5.914   1.654  -0.030  1.1686  1.9307 -0.5467
   20CHTO   C97 8111   5.849   1.968   0.103 -1.0023 -0.5303  0.3563
   20CHTO  H184 8112   5.741   1.985   0.091 -0.9364  0.0218  0.5099
   20CHTO   O64 8113   5.897   2.025   0.224 -0.6044 -0.1260 -0.0337
   20CHTO  C104 8114   5.817   1.993   0.345 -0.0525 -0.5459 -0.1652
   20CHTO  H191 8115   5.714   2.027   0.333 -0.3623 -1.8668 -1.4064
   20CHTO  C108 8116   5.876   2.067   0.466  0.3200  0.2731 -0.2356
   20CHTO   O71 8117   6.016   2.042   0.498 -1.1974  0.1015 -0.8812
   20CHTO  H171 8118   6.023   1.997   0.579  0.0445  2.3283  0.2914
   20CHTO   O62 8119   5.926   2.017  -0.006 -0.2266  0.1904  0.3759
   20CHTO   C91 8120   5.873   2.138  -0.069 -0.5846  0.2387 -0.2798
   20CHTO  H178 8121   5.818   2.195   0.006  1.0154  1.2544  0.1349
   20CHTO   C92 8122   5.766   2.115  -0.186  0.4189 -0.0060  0.0329
   20CHTO  H179 8123   5.825   2.056  -0.258  0.2581 -0.0616 -0.0521
   20CHTO   O66 8124   5.660   2.028  -0.146  0.2501 -0.0884 -0.5199
   20CHTO  H166 8125   5.617   2.061  -0.070  0.3824  2.1304 -1.3707
   20CHTO   C93 8126   5.716   2.256  -0.247  0.0087  0.2991 -0.1867
   20CHTO  H180 8127   5.645   2.287  -0.170 -1.2370  1.0084 -1.5955
   20CHTO   N16 8128   5.632   2.245  -0.373 -0.1247  0.3198  0.1669
   20CHTO  H172 8129   5.645   2.147  -0.415  3.0775  1.3726 -1.5268
   20CHTO  H173 8130   5.532   2.280  -0.354 -0.0278  0.8608 -0.2768
   20CHTO   C94 8131   5.827   2.363  -0.263  0.4237  0.6229  0.5985
   20CHTO  H181 8132   5.887   2.340  -0.352 -0.8411 -2.8848  0.5993
   20CHTO   O61 8133   5.913   2.360  -0.146 -0.6636  0.6336 -0.2760
   20CHTO   C95 8134   5.988   2.238  -0.118  0.6035 -0.0074  0.0698
   20CHTO  H182 8135   6.020   2.201  -0.215 -3.1972  0.6124 -1.5039
   20CHTO  C106 8136   6.118   2.264  -0.030 -0.1652 -0.5561 -0.4247
   20CHTO   O69 8137   6.190   2.143  -0.002 -0.3432  0.6048 -0.3554
   20CHTO  H169 8138   6.162   2.084   0.065 -0.9166 -0.2914 -1.3851
   20CHTO   O63 8139   5.769   2.525  -0.262 -0.4497  0.0774 -0.8219
   20CHTO   C96 8140   5.723   2.585  -0.392  0.2214 -0.1614 -0.5793
   20CHTO  H183 8141   5.650   2.522  -0.442 -1.2488  0.6490  0.4990
   20CHTO   C98 8142   5.843   2.596  -0.492 -0.3598 -0.8768  0.2148
   20CHTO  H185 8143   5.937   2.617  -0.439 -0.2059 -1.1273  0.0434
   20CHTO   O67 8144   5.856   2.466  -0.550  0.2159  0.4566  1.0944
   20CHTO  H167 8145   5.912   2.466  -0.625 -1.9767  1.9449 -0.6509
   20CHTO  C102 8146   5.826   2.698  -0.613  0.4644 -0.7387  0.0608
   20CHTO  H189 8147   5.768   2.650  -0.693 -0.1061  1.8241 -1.0875
   20CHTO   N18 8148   5.949   2.737  -0.682 -0.3207 -0.0547 -0.4373
   20CHTO  H176 8149   5.993   2.647  -0.723 -1.9696 -0.6878 -0.8388
   20CHTO  H177 8150   5.936   2.811  -0.759  2.3391  1.1642  0.2434
   20CHTO  C105 8151   5.752   2.826  -0.580 -0.4705  0.4395  0.6126
   20CHTO  H192 8152   5.821   2.888  -0.523  1.1023 -1.1140  0.4203
   20CHTO   O65 8153   5.637   2.799  -0.503  0.4133 -0.4841  0.6213
   20CHTO  C100 8154   5.674   2.735  -0.375  0.1361  0.2555 -0.2834
   20CHTO  H187 8155   5.756   2.798  -0.339 -0.1330  0.2026  0.4442
   20CHTO  C107 8156   5.552   2.751  -0.281 -0.2447  0.1968  0.4491
   20CHTO   O70 8157   5.577   2.679  -0.161  0.6059 -0.3876 -0.4940
   20CHTO  H170 8158   5.615   2.741  -0.101  0.3115 -0.2369 -0.4609
   20CHTO   O57 8159   5.700   2.902  -0.725  0.8997  0.5488  0.2470
   20CHTO   C85 8160   5.692   3.044  -0.722  0.3846  0.4139 -0.2256
   20CHTO  H157 8161   5.675   3.064  -0.614 -2.5785 -1.4694 -0.2718
   20CHTO   C83 8162   5.558   3.095  -0.781 -0.5067  0.3794  0.5240
   20CHTO  H155 8163   5.483   3.062  -0.709  0.9203 -1.1219  1.3533
   20CHTO   O56 8164   5.538   3.030  -0.907  0.1983 -0.1370  0.4922
   20CHTO  H135 8165   5.447   3.012  -0.920 -0.2654  0.6230  2.4414
   20CHTO   C81 8166   5.552   3.250  -0.786  0.0657  0.0850 -0.4787
   20CHTO  H153 8167   5.566   3.288  -0.685  1.2833 -1.3798 -0.0684
   20CHTO   N14 8168   5.422   3.305  -0.829  0.3302  0.1087  0.1584
   20CHTO  H141 8169   5.336   3.258  -0.786  0.1750  0.6960  0.4959
   20CHTO  H142 8170   5.422   3.408  -0.800  0.7239 -0.4822  2.4012
   20CHTO   C79 8171   5.679   3.299  -0.872  0.3145  0.4091  0.3893
   20CHTO  H151 8172   5.674   3.408  -0.869 -0.9804  0.3463  1.1121
   20CHTO   O52 8173   5.802   3.266  -0.796  0.4318 -0.1640 -0.6194
   20CHTO   C86 8174   5.821   3.123  -0.775  0.8767  0.1359 -0.2693
   20CHTO  H158 8175   5.857   3.077  -0.870 -1.1361  0.8719 -1.4247
   20CHTO   C90 8176   5.931   3.098  -0.672  0.0627 -0.1849  0.3739
   20CHTO   O60 8177   6.054   3.129  -0.735  0.0360 -0.3273 -0.0343
   20CHTO  H138 8178   6.123   3.100  -0.679  0.7696  1.3818 -0.0065
   20CHTO   O50 8179   5.689   3.256  -1.010 -0.3028  0.3313  0.2808
   20CHTO   C73 8180   5.767   3.243  -1.126 -0.2762  0.1392 -0.2105
   20CHTO  H145 8181   5.844   3.165  -1.114 -0.7989 -0.1817  1.0951
   20CHTO   C74 8182   5.843   3.380  -1.153 -0.1242  0.1303 -0.1043
   20CHTO  H146 8183   5.895   3.404  -1.058 -1.0793  1.0936  0.1862
   20CHTO   O54 8184   5.949   3.357  -1.244  0.2452 -0.0382  0.2109
   20CHTO  H133 8185   6.002   3.434  -1.247 -0.0048  0.3332  3.6356
   20CHTO   C75 8186   5.742   3.493  -1.200 -0.5621 -0.6213 -0.3224
   20CHTO  H147 8187   5.676   3.529  -1.120  1.6520  1.0667  0.7798
   20CHTO   N13 8188   5.808   3.618  -1.243  0.0666  0.2514  0.2381
   20CHTO  H139 8189   5.805   3.626  -1.351  0.0604  3.5456  0.4278
   20CHTO  H140 8190   5.750   3.699  -1.202 -1.6639 -1.9949  2.3539
   20CHTO   C76 8191   5.632   3.450  -1.313 -0.1384  0.2335 -0.5526
   20CHTO  H148 8192   5.674   3.439  -1.413 -2.1009  1.0131 -1.4948
   20CHTO   O49 8193   5.580   3.316  -1.275 -0.8478  0.1365  0.1676
   20CHTO   C77 8194   5.676   3.209  -1.249  0.0735 -0.0946  0.6795
   20CHTO  H149 8195   5.738   3.189  -1.336 -1.4779  1.2912 -0.7774
   20CHTO   C88 8196   5.602   3.081  -1.227  0.4255 -0.3895  0.4086
   20CHTO   O58 8197   5.528   3.053  -1.345 -0.6490 -0.0124 -0.0521
   20CHTO  H136 8198   5.446   3.012  -1.327  0.4347 -1.5754  1.5376
   20CHTO   O51 8199   5.499   3.530  -1.330  0.3051 -0.9553 -0.0404
   20CHTO   C78 8200   5.403   3.554  -1.203  0.4271 -0.6166 -0.5203
   20CHTO  H150 8201   5.459   3.529  -1.111 -0.0744  0.1185 -0.0058
   20CHTO   C80 8202   5.270   3.476  -1.202  0.0924 -0.4479 -0.3556
   20CHTO  H152 8203   5.217   3.489  -1.299  0.7891 -0.0887 -0.6950
   20CHTO   O55 8204   5.314   3.339  -1.207  0.2165 -0.0993  0.8386
   20CHTO  H134 8205   5.327   3.312  -1.296  0.9234 -0.2004  0.9712
   20CHTO   C84 8206   5.177   3.500  -1.080 -0.1628 -0.2623 -0.6072
   20CHTO  H156 8207   5.237   3.462  -0.997 -0.8687 -1.4569 -0.6279
   20CHTO   N15 8208   5.050   3.418  -1.075  0.3851 -0.1838 -0.6292
   20CHTO  H143 8209   4.984   3.446  -0.995  0.8721  3.4962 -1.4478
   20CHTO  H144 8210   5.000   3.428  -1.169  2.0017 -1.6705 -1.6608
   20CHTO   C87 8211   5.158   3.646  -1.054 -0.5997 -0.2189 -0.5935
   20CHTO  H159 8212   5.097   3.688  -1.134 -1.0678 -0.0436 -0.1504
   20CHTO   O53 8213   5.300   3.723  -1.062  0.1641 -0.0270 -0.6661
   20CHTO   C82 8214   5.369   3.705  -1.190  0.3726  0.6533 -0.5135
   20CHTO  H154 8215   5.305   3.736  -1.272 -1.0054 -0.6880  0.0288
   20CHTO   C89 8216   5.489   3.793  -1.188  0.1408  0.1623  0.7000
   20CHTO   O59 8217   5.571   3.787  -1.072  0.1940 -0.0072 -0.0645
   20CHTO  H137 8218   5.608   3.872  -1.056 -1.1897  0.2329  2.1525
   20CHTO   O45 8219   5.086   3.690  -0.909 -0.5109 -0.2969 -0.0089
   20CHTO   C67 8220   5.153   3.645  -0.789  0.2839  0.6008  0.2216
   20CHTO  H124 8221   5.187   3.544  -0.811 -0.3227  0.4525 -0.0369
   20CHTO   C65 8222   5.276   3.736  -0.752 -0.2653 -0.5577  0.1611
   20CHTO  H122 8223   5.270   3.826  -0.813  1.5963 -1.2202 -1.0403
   20CHTO   O44 8224   5.394   3.662  -0.785  0.0239 -0.4356  0.0992
   20CHTO  H102 8225   5.419   3.601  -0.718  1.8477  0.3329  0.1537
   20CHTO   C63 8226   5.261   3.792  -0.603  0.3322 -0.0405  0.2681
   20CHTO  H120 8227   5.182   3.866  -0.600  0.5107  0.1392  0.5266
   20CHTO   N11 8228   5.375   3.878  -0.568  0.7265 -0.3431 -0.0213
   20CHTO  H108 8229   5.352   3.935  -0.479 -2.3614 -0.9066 -0.3916
   20CHTO  H109 8230   5.400   3.938  -0.652 -4.6565  1.4583 -0.5761
   20CHTO   C61 8231   5.234   3.680  -0.499 -0.0791 -0.7253 -0.1143
   20CHTO  H118 8232   5.204   3.736  -0.409  1.5088  1.4910 -0.8997
   20CHTO   O40 8233   5.118   3.597  -0.544  0.4811  0.1069  0.3091
   20CHTO   C68 8234   5.046   3.634  -0.670 -0.1966 -0.3671 -0.5464
   20CHTO  H125 8235   4.992   3.729  -0.653  0.0793 -0.0914 -1.2031
   20CHTO   C72 8236   4.937   3.528  -0.677 -0.6175  0.0804  0.4243
   20CHTO   O48 8237   4.979   3.393  -0.699  0.2227  0.0405  0.0390
   20CHTO  H105 8238   5.042   3.375  -0.766  0.2642  0.8717 -0.1471
   20CHTO   O38 8239   5.344   3.587  -0.475  0.0860 -0.3512  0.4186
   20CHTO   C55 8240   5.343   3.525  -0.348  0.0064  0.4827 -0.1953
   20CHTO  H112 8241   5.236   3.528  -0.324  0.3125  1.2351  1.1202
   20CHTO   C56 8242   5.430   3.590  -0.235  0.5434 -0.8193 -0.3522
   20CHTO  H113 8243   5.531   3.599  -0.278 -0.0655  0.9724 -1.4486
   20CHTO   O42 8244   5.391   3.725  -0.210  0.0690  0.1750  0.8288
   20CHTO  H100 8245   5.304   3.729  -0.244  0.0601 -2.3519  0.4980
   20CHTO   C57 8246   5.431   3.509  -0.101  0.4147 -0.5958 -0.0123
   20CHTO  H114 8247   5.335   3.512  -0.048  1.0197  1.1078  1.0405
   20CHTO   N10 8248   5.532   3.562   0.003  0.5176  0.4493 -0.6908
   20CHTO  H106 8249   5.629   3.545  -0.039  0.5687  0.3297 -0.5221
   20CHTO  H107 8250   5.519   3.499   0.090 -0.8039 -0.3218 -1.4322
   20CHTO   C58 8251   5.454   3.360  -0.140 -0.2638  0.3134  0.4464
   20CHTO  H115 8252   5.562   3.345  -0.163  0.1404  2.9923  0.4262
   20CHTO   O37 8253   5.373   3.312  -0.246 -0.0009 -0.0869  0.1860
   20CHTO   C59 8254   5.377   3.378  -0.372 -0.3771  0.7405 -0.8386
   20CHTO  H116 8255   5.468   3.360  -0.429  0.6992  0.4439  0.9514
   20CHTO   C70 8256   5.270   3.310  -0.462  0.1436  0.8556  0.0633
   20CHTO   O46 8257   5.290   3.170  -0.465  0.1151  0.3741 -0.0208
   20CHTO  H103 8258   5.306   3.142  -0.553 -1.0682 -2.6795  0.6396
   20CHTO   O39 8259   5.403   3.270  -0.019  0.8466 -0.4440  0.2148
   20CHTO   C60 8260   5.466   3.142   0.002 -0.1440  0.2443 -0.2437
   20CHTO  H117 8261   5.523   3.118  -0.088  0.2599  1.1550 -0.2391
   20CHTO   C62 8262   5.570   3.155   0.120  0.2448 -0.6974 -0.0106
   20CHTO  H119 8263   5.637   3.237   0.087 -0.6073  0.4486  1.0687
   20CHTO   O43 8264   5.501   3.199   0.240 -0.3925  0.2581 -0.0305
   20CHTO  H101 8265   5.505   3.292   0.244  1.3524  0.2301 -0.3767
   20CHTO   C66 8266   5.660   3.025   0.132  0.0330 -0.8153  0.2478
   20CHTO  H123 8267   5.695   3.004   0.031 -1.1330  0.4926 -0.4630
   20CHTO   N12 8268   5.778   3.045   0.220 -0.4635 -0.3502 -0.3736
   20CHTO  H110 8269   5.759   3.121   0.294  1.8856 -0.4516  0.3712
   20CHTO  H111 8270   5.865   3.071   0.161 -0.5284 -0.2235 -0.4147
   20CHTO   C69 8271   5.563   2.915   0.176 -0.1407  0.4334 -0.2705
   20CHTO  H126 8272   5.515   2.933   0.274 -0.8137  2.2333 -0.9204
   20CHTO   O41 8273   5.447   2.899   0.058  0.3112  0.5249  0.3806
   20CHTO   C64 8274   5.368   3.031   0.033  0.7118 -0.5326  0.1580
   20CHTO  H121 8275   5.307   3.058   0.122  1.0933  1.0475 -0.0384
   20CHTO   C71 8276   5.275   3.023  -0.086  0.2563 -0.3646  0.6871
   20CHTO   O47 8277   5.191   2.913  -0.049  0.0265  0.1084  0.6020
   20CHTO  H104 8278   5.175   2.847  -0.114 -0.2383 -0.4177  1.2003
   20CHTO   O34 8279   5.626   2.781   0.192 -0.1469  0.5398  0.2365
   20CHTO   C49 8280   5.582   2.632   0.245  0.3900  0.5132 -0.2726
   20CHTO   H91 8281   5.508   2.602   0.171  1.2463  0.4687 -1.1074
   20CHTO   C47 8282   5.507   2.660   0.379  0.1223  0.2374  0.3694
   20CHTO   H89 8283   5.417   2.717   0.346 -0.3615 -0.1463  1.0239
   20CHTO   O33 8284   5.592   2.734   0.470  0.2758 -0.0329  0.3942
   20CHTO   H70 8285   5.623   2.818   0.441  2.7588 -0.4342  1.7911
   20CHTO   C45 8286   5.456   2.529   0.462  0.4221  0.2797 -0.3641
   20CHTO   H87 8287   5.504   2.527   0.561  0.9152  1.0776 -0.5790
   20CHTO    N8 8288   5.311   2.518   0.481  0.6359  0.0702  0.0406
   20CHTO   H75 8289   5.282   2.571   0.570  0.6383  1.1180 -0.5766
   20CHTO   H76 8290   5.260   2.567   0.400 -0.8914 -1.6404 -0.0498
   20CHTO   C43 8291   5.519   2.409   0.379  0.4007  0.6069 -0.0684
   20CHTO   H85 8292   5.498   2.323   0.443  0.3423  0.3843 -0.3867
   20CHTO   O29 8293   5.658   2.419   0.346 -0.7096 -0.0436 -0.1851
   20CHTO   C50 8294   5.694   2.531   0.273  0.2862 -0.1695  0.4619
   20CHTO   H92 8295   5.783   2.576   0.318  1.6136 -3.4380  1.2840
   20CHTO   C54 8296   5.741   2.474   0.135  0.1967  0.0112  0.1660
   20CHTO   O36 8297   5.787   2.581   0.043  0.1871 -0.0182  0.2674
   20CHTO   H72 8298   5.705   2.625   0.030  0.7071  0.4482 -1.5942
   20CHTO   O27 8299   5.460   2.380   0.257 -0.2628 -0.1335  0.2185
   20CHTO   C37 8300   5.356   2.331   0.174  0.4559  0.3154 -0.7698
   20CHTO   H79 8301   5.266   2.337   0.235 -0.0018 -0.5918 -1.3539
   20CHTO   C38 8302   5.334   2.412   0.044 -0.5682  0.0789  0.7913
   20CHTO   H80 8303   5.431   2.425  -0.006 -1.1598  0.7551 -0.1899
   20CHTO   O31 8304   5.277   2.541   0.084  0.8843 -0.2409  0.2497
   20CHTO   H68 8305   5.257   2.592   0.008 -1.4628 -0.2249  0.8402
   20CHTO   C39 8306   5.244   2.332  -0.051  0.0327 -0.4404 -0.4582
   20CHTO   H81 8307   5.143   2.330  -0.010  0.2296 -0.9133 -0.0038
   20CHTO    N7 8308   5.225   2.397  -0.179 -0.1971  0.4457 -0.2187
   20CHTO   H73 8309   5.255   2.323  -0.252  1.5400 -0.8209  1.7192
   20CHTO   H74 8310   5.122   2.426  -0.195 -0.0668  0.4830 -1.0110
   20CHTO   C40 8311   5.293   2.182  -0.075 -0.6947  0.0912  0.2690
   20CHTO   H82 8312   5.392   2.179  -0.120 -0.6765 -0.0157  0.3173
   20CHTO   O26 8313   5.291   2.117   0.051  0.0057  0.3445 -0.7254
   20CHTO   C41 8314   5.390   2.175   0.145 -0.1044  0.3151  0.1176
   20CHTO   H83 8315   5.494   2.168   0.109 -1.2562 -1.1372 -3.1945
   20CHTO   C52 8316   5.379   2.084   0.277 -0.6280 -0.7813  0.2653
   20CHTO   O35 8317   5.434   1.931   0.262  0.1853  0.2763  0.2221
   20CHTO   H71 8318   5.366   1.878   0.297  0.4671  1.1845  2.2070
   20CHTO   O28 8319   5.204   2.104  -0.151 -0.3285 -0.3177 -0.1698
   20CHTO   C42 8320   5.254   1.989  -0.234 -0.8124  0.2009  0.1451
   20CHTO   H84 8321   5.163   1.936  -0.263 -0.5001 -0.9401  1.1772
   20CHTO   C44 8322   5.332   1.875  -0.153 -0.2333 -0.2150  0.6702
   20CHTO   H86 8323   5.413   1.922  -0.097  0.5025  2.4288 -2.4278
   20CHTO   O32 8324   5.233   1.834  -0.060 -0.1676  0.6597  0.6044
   20CHTO   H69 8325   5.258   1.758  -0.010  0.6595  0.2743 -0.3812
   20CHTO   C48 8326   5.394   1.758  -0.246  0.2063 -0.3184 -0.0621
   20CHTO   H90 8327   5.312   1.696  -0.282 -1.2487  0.5251  1.6602
   20CHTO    N9 8328   5.487   1.672  -0.161  0.3279 -0.4518  0.1931
   20CHTO   H77 8329   5.528   1.586  -0.212  0.2779 -2.6729  3.7869
   20CHTO   H78 8330   5.440   1.643  -0.068  1.3956 -0.3324  0.7744
   20CHTO   C51 8331   5.469   1.820  -0.372 -0.1334 -0.5143 -0.2047
   20CHTO   H93 8332   5.548   1.880  -0.328 -1.1460  1.5974 -1.2394
   20CHTO   O30 8333   5.377   1.906  -0.448  0.4617 -0.1957  0.5553
   20CHTO   C46 8334   5.326   2.034  -0.367 -0.8364 -0.2435 -0.6177
   20CHTO   H88 8335   5.415   2.090  -0.339 -1.2892 -0.4375  1.3128
   20CHTO   C53 8336   5.233   2.124  -0.457 -0.3477 -0.1377  0.5644
   20CHTO   O72 8337   5.313   2.148  -0.576  0.4836  0.2986  0.0815
   20CHTO  H199 8338   5.368   2.222  -0.559  1.0478 -0.1931  0.4440
   20CHTO   O22 8339   5.525   1.721  -0.460  0.3369  0.0751 -0.2462
   20CHTO   C31 8340   5.668   1.726  -0.508 -0.0672 -0.3135 -0.0448
   20CHTO   H59 8341   5.666   1.717  -0.619  1.3449 -1.7244  0.0382
   20CHTO   C29 8342   5.749   1.855  -0.480  1.0074 -0.1332 -0.0366
   20CHTO   H57 8343   5.768   1.863  -0.372  1.8822 -0.3678 -0.1705
   20CHTO   O21 8344   5.674   1.973  -0.519  0.1070  0.0955  0.1834
   20CHTO   H37 8345   5.587   1.964  -0.483  1.1819 -1.0609  2.5908
   20CHTO   C27 8346   5.887   1.853  -0.559 -1.7885  0.4094  0.4111
   20CHTO   H55 8347   5.872   1.841  -0.668 -0.1983  1.8466 -0.0015
   20CHTO    N5 8348   5.970   1.975  -0.542 -0.0894 -0.3829  0.7098
   20CHTO   H43 8349   5.942   2.040  -0.461  1.6873  0.6437  0.5299
   20CHTO   H44 8350   5.969   2.032  -0.634 -0.7356 -1.4177  0.0640
   20CHTO   C25 8351   5.965   1.722  -0.514  0.5486 -0.2618  0.4601
   20CHTO   H53 8352   5.993   1.747  -0.410  2.3121  1.2168 -0.3449
   20CHTO   O17 8353   5.881   1.603  -0.519 -0.0526  0.3675 -0.0040
   20CHTO   C32 8354   5.754   1.610  -0.455  0.1651  0.3959 -0.6164
   20CHTO   H60 8355   5.763   1.624  -0.348  2.0589 -3.4721 -0.1907
   20CHTO   C36 8356   5.681   1.477  -0.477 -0.1877 -0.6934 -0.4417
   20CHTO   O25 8357   5.663   1.440  -0.616  0.1398 -0.3179  0.1816
   20CHTO   H40 8358   5.712   1.363  -0.639  0.1375  0.1675 -1.4404
   20CHTO   O15 8359   6.091   1.693  -0.609 -0.2697  0.0310  0.2194
   20CHTO   C19 8360   6.225   1.674  -0.667  0.3390 -0.6215  0.1793
   20CHTO   H47 8361   6.220   1.686  -0.776  2.1067  0.1619  0.1747
   20CHTO   C20 8362   6.320   1.787  -0.617  0.5719  0.2490  0.1054
   20CHTO   H48 8363   6.304   1.803  -0.509 -0.7374  0.1842 -0.0719
   20CHTO   O19 8364   6.269   1.912  -0.670  0.0161 -0.2607 -0.2661
   20CHTO   H35 8365   6.267   1.911  -0.763 -2.4352  2.0331 -0.2637
   20CHTO   C21 8366   6.477   1.760  -0.653  0.6875 -0.7995  0.3904
   20CHTO   H49 8367   6.490   1.779  -0.760  0.9414 -1.6206  0.2762
   20CHTO    N4 8368   6.558   1.854  -0.573  0.4555  0.0301  0.1897
   20CHTO   H41 8369   6.629   1.789  -0.522 -0.8153 -0.3964  1.4620
   20CHTO   H42 8370   6.614   1.919  -0.638  0.6954  0.3850  0.7442
   20CHTO   C22 8371   6.514   1.612  -0.652 -0.1988 -0.4104 -0.0880
   20CHTO   H50 8372   6.521   1.587  -0.547 -0.1650  1.0810  0.2859
   20CHTO   O14 8373   6.414   1.534  -0.723 -0.0504  0.1733 -0.0133
   20CHTO   C23 8374   6.294   1.538  -0.640  0.0910 -0.1286  0.0697
   20CHTO   H51 8375   6.334   1.533  -0.538  0.7430 -0.1443 -0.1885
   20CHTO   C34 8376   6.198   1.425  -0.668  0.2586  0.0529  0.2395
   20CHTO   O23 8377   6.258   1.296  -0.656 -0.2621 -0.1311  0.6254
   20CHTO   H38 8378   6.183   1.242  -0.641 -1.2352  1.6818  2.4389
   20CHTO   O16 8379   6.638   1.592  -0.719 -0.3914 -0.3426  0.4003
   20CHTO   C24 8380   6.680   1.438  -0.736 -0.0035  0.0067  0.2646
   20CHTO   H52 8381   6.596   1.374  -0.762  1.6341 -1.5837 -1.3312
   20CHTO   C26 8382   6.762   1.385  -0.609  0.2579 -0.1410  0.7229
   20CHTO   H54 8383   6.853   1.447  -0.597  0.3181 -0.2817  0.9820
   20CHTO   O20 8384   6.680   1.391  -0.493  0.2468 -0.3291 -0.3791
   20CHTO   H36 8385   6.594   1.355  -0.507  0.3191 -1.1774  1.2489
   20CHTO   C30 8386   6.811   1.237  -0.626 -0.0936 -0.1679  0.1337
   20CHTO   H58 8387   6.726   1.168  -0.614  1.5315 -2.2623  0.0142
   20CHTO    N6 8388   6.905   1.200  -0.516 -0.2541  0.1513  0.6717
   20CHTO   H45 8389   6.900   1.287  -0.451 -1.3117  0.7746 -0.2150
   20CHTO   H46 8390   6.852   1.119  -0.467  0.1080 -0.6211 -0.2127
   20CHTO   C33 8391   6.874   1.220  -0.769  0.2406  0.3847  0.1454
   20CHTO   H61 8392   6.975   1.262  -0.763  0.1108  0.3637  2.9594
   20CHTO   O18 8393   6.804   1.287  -0.875 -0.5805  0.4843  0.1214
   20CHTO   C28 8394   6.775   1.428  -0.857 -0.2807  0.1262  0.9065
   20CHTO   H56 8395   6.863   1.489  -0.838  3.3567 -3.5540 -2.9507
   20CHTO   C35 8396   6.705   1.478  -0.985  0.6058  0.0905 -0.5635
   20CHTO   O24 8397   6.786   1.468  -1.099  0.7346  0.2383  0.3859
   20CHTO   H39 8398   6.768   1.534  -1.163 -1.0632  0.6096  1.2370
   20CHTO    O9 8399   6.894   1.074  -0.796 -0.0405 -0.2142  0.0293
   20CHTO   C13 8400   6.771   0.971  -0.878  0.6606  0.1525  0.0230
   20CHTO   H26 8401   6.808   0.937  -0.977 -1.4263 -0.9189 -0.4100
   20CHTO   C11 8402   6.618   1.031  -0.896 -0.6708  0.3402 -0.3083
   20CHTO   H24 8403   6.621   1.111  -0.971 -0.0077  0.4787 -0.1385
   20CHTO    O8 8404   6.575   1.084  -0.777 -0.0942  0.1629  0.1859
   20CHTO    H3 8405   6.482   1.099  -0.778 -0.5636 -2.4108 -1.6945
   20CHTO    C9 8406   6.533   0.912  -0.950  0.1073  0.2403 -0.0395
   20CHTO   H22 8407   6.586   0.870  -1.037 -1.2344 -0.5186 -0.5078
   20CHTO    N2 8408   6.404   0.958  -1.006  0.9892  0.0852  0.3006
   20CHTO   H10 8409   6.322   0.905  -0.960  1.0178  0.3855  0.6982
   20CHTO   H11 8410   6.379   1.063  -1.000 -0.5847 -0.3722  2.1067
   20CHTO    C7 8411   6.520   0.802  -0.846 -0.1017  0.7256 -0.7323
   20CHTO   H20 8412   6.452   0.725  -0.888 -0.9627  0.3275  1.3296
   20CHTO    O4 8413   6.651   0.746  -0.820  0.4928 -0.1941  0.3098
   20CHTO   C14 8414   6.766   0.824  -0.807  0.3088  0.5510 -1.6192
   20CHTO   H27 8415   6.844   0.762  -0.856  1.0081 -2.2042  2.7280
   20CHTO   C18 8416   6.815   0.839  -0.659  0.1633  0.8556  0.2733
   20CHTO   O13 8417   6.730   0.908  -0.567  0.1430 -0.4940  0.7639
   20CHTO    H7 8418   6.645   0.873  -0.581  0.0295  1.1321 -3.2767
   20CHTO    O2 8419   6.447   0.856  -0.701 -0.0470  0.3218 -0.0932
   20CHTO    C1 8420   6.352   0.764  -0.642 -0.0303  0.0484 -0.4369
   20CHTO   H14 8421   6.332   0.800  -0.539  0.7866 -0.4969 -0.0829
   20CHTO    C2 8422   6.405   0.611  -0.632  0.2820 -0.9184 -0.1451
   20CHTO   H15 8423   6.464   0.593  -0.723  1.0184  0.8988 -0.0509
   20CHTO    O6 8424   6.491   0.601  -0.521 -0.5752  0.0947  0.0543
   20CHTO    H1 8425   6.513   0.511  -0.503 -1.2655 -0.2717 -0.9067
   20CHTO    C3 8426   6.298   0.502  -0.610  0.1891 -0.8204 -0.0650
   20CHTO   H16 8427   6.282   0.478  -0.504  1.5853 -1.7273 -0.0465
   20CHTO    N1 8428   6.330   0.367  -0.672 -0.4005 -0.4137  0.0478
   20CHTO    H8 8429   6.239   0.310  -0.664 -1.4509  0.7425 -2.9538
   20CHTO    H9 8430   6.362   0.373  -0.775 -0.4508 -3.9519 -0.2159
   20CHTO    C4 8431   6.160   0.545  -0.667 -0.5771  0.7714  0.5607
   20CHTO   H17 8432   6.155   0.528  -0.775 -0.0874 -0.1119  0.6803
   20CHTO    O1 8433   6.131   0.680  -0.641  0.0451 -0.3972 -0.2401
   20CHTO    C5 8434   6.220   0.774  -0.711 -0.0759 -0.5404 -0.4866
   20CHTO   H18 8435   6.226   0.745  -0.816 -2.2440 -0.5501 -0.6381
   20CHTO   C16 8436   6.166   0.922  -0.714  0.1984  0.8255 -0.5997
   20CHTO   O11 8437   6.034   0.905  -0.767 -0.6663  0.1550 -0.0231
   20CHTO    H5 8438   6.031   0.969  -0.836  1.6519  1.2773  0.8628
   20CHTO    O3 8439   6.054   0.475  -0.596  0.5323  0.1413  0.0464
   20CHTO    C6 8440   5.929   0.478  -0.662  0.6772 -0.1982 -0.4699
   20CHTO   H19 8441   5.921   0.555  -0.738 -1.3012  0.7201  0.6293
   20CHTO    C8 8442   5.889   0.341  -0.720  0.4407 -0.0587 -0.9303
   20CHTO   H21 8443   5.888   0.269  -0.638  1.8029  0.4063 -0.4911
   20CHTO    O7 8444   5.990   0.296  -0.813 -0.0415 -0.0298  0.4727
   20CHTO    H2 8445   5.960   0.312  -0.900  0.8620  1.3351  0.4067
   20CHTO   C12 8446   5.749   0.337  -0.782 -0.2928  0.5019  0.1689
   20CHTO   H25 8447   5.763   0.404  -0.869 -1.5145 -0.2567 -0.6171
   20CHTO    N3 8448   5.703   0.207  -0.836 -0.3763 -0.3840 -0.2766
   20CHTO   H12 8449   5.684   0.137  -0.756  1.4797 -1.1267 -0.4505
   20CHTO   H13 8450   5.619   0.222  -0.902 -1.1637 -0.3992  0.7074
   20CHTO   C15 8451   5.639   0.394  -0.692  1.1477 -0.3870  0.3515
   20CHTO   H28 8452   5.610   0.323  -0.615  1.1102  0.2915  0.9707
   20CHTO   O10 8453   5.515   0.435  -0.773  0.1853  0.1376 -0.0723
   20CHTO    H4 8454   5.438   0.416  -0.723  0.6608 -1.0638  0.2085
   20CHTO    O5 8455   5.690   0.514  -0.631 -0.2420  0.1664 -0.0855
   20CHTO   C10 8456   5.813   0.506  -0.556  0.1433  0.2236  0.3648
   20CHTO   H23 8457   5.812   0.437  -0.471 -1.5403 -0.8158 -0.4763
   20CHTO   C17 8458   5.841   0.644  -0.492  0.1001 -0.1303 -0.0473
   20CHTO   O12 8459   5.745   0.688  -0.392  1.4656  0.0080 -0.3092
   20CHTO    H6 8460   5.794   0.697  -0.313  0.1107 -1.7796  0.7695
   21GLOH   H03 8461   3.725   9.020   0.293 -0.6846 -1.0162  0.1011
   21GLOH    O1 8462   3.656   9.054   0.353 -0.1678  0.4278 -0.0956
   21GLOH    C1 8463   3.701   9.034   0.487  0.1545 -0.2679  0.1481
   21GLOH   H02 8464   3.801   9.076   0.499 -0.8156  1.8053  1.2699
   21GLOH   H08 8465   3.699   8.934   0.532 -0.3662 -0.2891  0.0761
   21GLOH    C2 8466   3.615   9.104   0.590  0.6959 -0.2504 -0.2596
   21GLOH   H04 8467   3.651   9.082   0.692 -1.6541 -0.8184  0.4940
   21GLOH    O2 8468   3.625   9.251   0.577  1.1274  0.5878  0.6443
   21GLOH   H05 8469   3.588   9.284   0.660 -0.1930  1.0234 -0.1009
   21GLOH    C3 8470   3.466   9.063   0.584 -0.7285  0.2462  0.3558
   21GLOH   H06 8471   3.428   9.104   0.490  0.1428 -0.4834 -0.3302
   21GLOH   H07 8472   3.416   9.121   0.661 -2.1507 -1.3140  0.6550
   21GLOH    O3 8473   3.436   8.923   0.601 -0.6175 -0.4025 -0.0489
   21GLOH   H01 8474   3.498   8.883   0.664  1.4836  2.2134 -0.3764
   22GLOH   H03 8475   3.670   0.511   2.450 -1.8882  0.9754 -0.6334
   22GLOH    O1 8476   3.732   0.581   2.423 -0.3809 -0.0610  0.0681
   22GLOH    C1 8477   3.687   0.698   2.496  0.8859 -0.8205  0.4849
   22GLOH   H02 8478   3.693   0.675   2.602 -1.5417 -2.6644  0.2569
   22GLOH   H08 8479   3.581   0.715   2.478  0.1939 -4.1561  1.0955
   22GLOH    C2 8480   3.773   0.826   2.464  0.0821  0.4685  0.5740
   22GLOH   H04 8481   3.796   0.810   2.358 -0.4937 -0.7683  0.6207
   22GLOH    O2 8482   3.702   0.948   2.483  0.0214 -0.2937 -0.7253
   22GLOH   H05 8483   3.759   1.013   2.439 -0.3023  0.5211  0.0359
   22GLOH    C3 8484   3.909   0.827   2.538 -0.1085 -0.0163 -0.3496
   22GLOH   H06 8485   3.956   0.729   2.535  0.4356  0.1527  1.7201
   22GLOH   H07 8486   3.892   0.839   2.645 -1.3768  1.5561 -0.7131
   22GLOH    O3 8487   3.999   0.931   2.501 -0.2241 -0.5310 -0.1850
   22GLOH   H01 8488   4.072   0.939   2.564 -0.9767  0.8238  0.5387
   23GLOH   H03 8489   2.033   6.131   2.021 -1.8379  0.2329  1.4711
   23GLOH    O1 8490   2.017   6.200   1.955 -0.3103 -0.2026  0.6113
   23GLOH    C1 8491   1.906   6.278   2.002 -0.0376  0.3095  0.1608
   23GLOH   H02 8492   1.826   6.212   2.034  1.1995 -0.8453  0.8983
   23GLOH   H08 8493   1.856   6.327   1.918  2.3840  0.4885 -1.2301
   23GLOH    C2 8494   1.934   6.370   2.123 -0.5441  0.1767 -0.1340
   23GLOH   H04 8495   1.845   6.424   2.159 -1.3073 -1.7989  1.0267
   23GLOH    O2 8496   1.981   6.286   2.231 -0.0142 -0.1014  0.0275
   23GLOH   H05 8497   2.013   6.208   2.183 -0.0673  0.4770 -0.9628
   23GLOH    C3 8498   2.044   6.469   2.087  0.4621 -0.4556 -0.3708
   23GLOH   H06 8499   2.128   6.406   2.055  0.7321 -0.9082  1.2023
   23GLOH   H07 8500   2.081   6.529   2.171  0.9020 -2.1276  0.6541
   23GLOH    O3 8501   2.012   6.545   1.970  0.8811  0.8566  0.2783
   23GLOH   H01 8502   2.056   6.631   1.985 -1.2240  2.0855 -0.4565
   24GLOH   H03 8503   4.726   1.812   2.027  0.1444 -0.5309 -0.3899
   24GLOH    O1 8504   4.771   1.827   2.113  0.2595  0.1713 -0.5710
   24GLOH    C1 8505   4.828   1.698   2.151 -0.1864 -0.1214 -0.2895
   24GLOH   H02 8506   4.930   1.689   2.114 -0.5023  1.1828 -1.5128
   24GLOH   H08 8507   4.764   1.617   2.116  1.1013 -1.9773  1.5435
   24GLOH    C2 8508   4.846   1.672   2.298  0.3586 -0.0289  0.3004
   24GLOH   H04 8509   4.754   1.695   2.355  0.1989  0.4647 -0.1512
   24GLOH    O2 8510   4.885   1.535   2.326  0.2304 -0.4029  0.2673
   24GLOH   H05 8511   4.924   1.533   2.414  0.0162 -1.0238  0.3490
   24GLOH    C3 8512   4.952   1.767   2.345  0.1452  0.7548 -0.3585
   24GLOH   H06 8513   5.045   1.747   2.293 -0.6099 -1.2836 -0.9663
   24GLOH   H07 8514   4.965   1.743   2.451 -1.9603  2.2585  0.2837
   24GLOH    O3 8515   4.911   1.904   2.328  0.2329  0.2131  0.3857
   24GLOH   H01 8516   4.874   1.919   2.239 -0.4049  1.0911  0.7840
   25GLOH   H03 8517   4.131   1.277   0.933  0.0233 -0.2171 -0.4499
   25GLOH    O1 8518   4.118   1.368   0.966  0.4881 -0.3701  0.1668
   25GLOH    C1 8519   4.194   1.470   0.898  0.4983 -0.6429  0.3177
   25GLOH   H02 8520   4.193   1.461   0.790 -0.5614 -0.8185  0.3418
   25GLOH   H08 8521   4.299   1.452   0.922  1.7537  1.8693 -3.0288
   25GLOH    C2 8522   4.146   1.614   0.929 -0.4581 -0.4273 -0.3934
   25GLOH   H04 8523   4.205   1.675   0.860  1.4360  0.9989  2.3852
   25GLOH    O2 8524   4.005   1.641   0.916 -0.0678  0.2487 -0.5532
   25GLOH   H05 8525   3.955   1.581   0.974  0.2365  1.3814  0.8902
   25GLOH    C3 8526   4.192   1.643   1.073 -0.1795  0.6353  0.8399
   25GLOH   H06 8527   4.156   1.739   1.110 -2.3104  1.8168 -3.8210
   25GLOH   H07 8528   4.299   1.655   1.058 -0.1698 -0.4587 -0.0442
   25GLOH    O3 8529   4.153   1.538   1.160 -0.2280  0.2164  0.0540
   25GLOH   H01 8530   4.108   1.469   1.109 -1.7594  0.3208  1.2363
   26GLOH   H03 8531   4.848   4.074   2.062 -0.5674 -0.9599 -1.0029
   26GLOH    O1 8532   4.916   4.007   2.082  0.6700  0.6240  0.2742
   26GLOH    C1 8533   4.915   3.966   2.226  0.2762 -0.1955  0.3451
   26GLOH   H02 8534   4.926   4.049   2.295  0.3402 -1.7421  2.2450
   26GLOH   H08 8535   4.999   3.898   2.239  0.9724  0.4544 -0.6823
   26GLOH    C2 8536   4.788   3.889   2.278 -0.2149 -0.0895  0.0749
   26GLOH   H04 8537   4.699   3.953   2.288 -0.0071 -0.0582  1.7930
   26GLOH    O2 8538   4.755   3.787   2.177 -0.2941  0.3743  0.0355
   26GLOH   H05 8539   4.798   3.822   2.097  0.9586  0.5456  0.7659
   26GLOH    C3 8540   4.820   3.824   2.411 -0.2038  0.4938 -0.3572
   26GLOH   H06 8541   4.909   3.761   2.406 -0.0177  0.6385  0.9069
   26GLOH   H07 8542   4.734   3.762   2.435 -0.3891  0.6642 -0.5810
   26GLOH    O3 8543   4.839   3.927   2.503  0.3265 -0.1010  0.0157
   26GLOH   H01 8544   4.883   3.897   2.585  1.7478  0.5392 -0.4865
   27GLOH   H03 8545   4.131   4.877   2.286  2.2059 -2.5364  1.5155
   27GLOH    O1 8546   4.132   4.812   2.213  0.1504 -0.4068 -0.5044
   27GLOH    C1 8547   4.218   4.859   2.110  0.5138 -0.0946 -0.1323
   27GLOH   H02 8548   4.229   4.782   2.033  1.2260 -0.4243  0.2923
   27GLOH   H08 8549   4.316   4.880   2.152 -0.8083 -1.0365  3.7048
   27GLOH    C2 8550   4.166   4.995   2.060  0.2822  0.0991 -0.0278
   27GLOH   H04 8551   4.073   4.978   2.003  0.3305  0.3189 -0.1743
   27GLOH    O2 8552   4.124   5.082   2.167 -0.1088 -0.2861  0.1491
   27GLOH   H05 8553   4.125   5.169   2.123 -0.7683 -2.0190 -3.5290
   27GLOH    C3 8554   4.276   5.060   1.969  0.4351 -0.3937  0.1700
   27GLOH   H06 8555   4.363   5.080   2.031  0.8326 -1.2600 -0.1041
   27GLOH   H07 8556   4.240   5.156   1.932  2.1438 -0.0823 -0.7067
   27GLOH    O3 8557   4.306   4.976   1.858 -0.7709 -0.3679  0.1823
   27GLOH   H01 8558   4.381   4.919   1.886 -0.1703  2.0169  3.7459
   28GLOH   H03 8559   3.832   9.834   0.452 -3.1077 -1.7836  0.7358
   28GLOH    O1 8560   3.789   9.886   0.382  0.1596 -0.3980 -0.3327
   28GLOH    C1 8561   3.720   9.993   0.443 -0.0858 -0.5880 -0.2072
   28GLOH   H02 8562   3.663  10.041   0.363  0.4472 -1.2719 -1.0051
   28GLOH   H08 8563   3.786  10.065   0.490 -2.3360 -0.3404  2.7234
   28GLOH    C2 8564   3.629   9.948   0.560 -0.2973 -0.1751 -0.0054
   28GLOH   H04 8565   3.700   9.897   0.626 -1.9675 -0.8028  1.3122
   28GLOH    O2 8566   3.570  10.065   0.631 -0.1438 -0.1525  0.1645
   28GLOH   H05 8567   3.521  10.111   0.562  0.7010  1.8152  0.8365
   28GLOH    C3 8568   3.526   9.850   0.502 -0.5542  0.4362  0.6285
   28GLOH   H06 8569   3.581   9.768   0.457 -0.9193  1.2188 -1.3224
   28GLOH   H07 8570   3.471   9.901   0.423  1.0607 -0.0715 -0.8405
   28GLOH    O3 8571   3.441   9.802   0.613  0.6559 -0.2566  0.1822
   28GLOH   H01 8572   3.498   9.777   0.688  3.4799 -1.6350 -2.2976
   29GLOH   H03 8573   3.540   1.770   0.327 -1.2055 -0.3618 -0.6886
   29GLOH    O1 8574   3.512   1.790   0.418  0.0247 -0.5427 -0.2765
   29GLOH    C1 8575   3.366   1.810   0.413 -0.5447 -0.3183 -0.3004
   29GLOH   H02 8576   3.337   1.857   0.507 -3.5633  2.4473 -2.5377
   29GLOH   H08 8577   3.308   1.718   0.411 -1.9570  0.4948  1.3297
   29GLOH    C2 8578   3.327   1.895   0.293  0.2385  0.0755 -0.4193
   29GLOH   H04 8579   3.377   1.844   0.209 -0.9355  0.4551 -1.3666
   29GLOH    O2 8580   3.184   1.899   0.272 -0.2411  0.3670 -0.0656
   29GLOH   H05 8581   3.151   1.881   0.182 -0.4082 -0.5455  0.1720
   29GLOH    C3 8582   3.389   2.040   0.298 -0.7468  0.3890 -0.1464
   29GLOH   H06 8583   3.372   2.087   0.395 -0.3181 -0.5900  0.4040
   29GLOH   H07 8584   3.343   2.116   0.234 -1.2026  1.2408  1.1604
   29GLOH    O3 8585   3.531   2.035   0.275 -0.0154 -0.2086  0.0021
   29GLOH   H01 8586   3.563   1.951   0.313 -0.9655 -0.5010  0.1643
   30GLOH   H03 8587   4.610   4.073   1.023  1.6216 -0.8830 -0.5270
   30GLOH    O1 8588   4.614   4.069   1.120  0.2139  0.6110 -0.3953
   30GLOH    C1 8589   4.492   4.002   1.169  0.3081  0.6402 -0.1663
   30GLOH   H02 8590   4.459   3.928   1.095  3.4689 -0.0916 -0.9116
   30GLOH   H08 8591   4.412   4.076   1.171 -0.0270  0.2379  3.3397
   30GLOH    C2 8592   4.502   3.943   1.308 -0.5359 -0.0241 -0.0150
   30GLOH   H04 8593   4.409   3.894   1.340 -0.6814 -0.0284 -0.4364
   30GLOH    O2 8594   4.600   3.846   1.316 -0.3867  0.0590  0.1879
   30GLOH   H05 8595   4.677   3.884   1.360 -1.2403  1.9542  0.0771
   30GLOH    C3 8596   4.522   4.058   1.407 -0.0046 -0.4596  0.2812
   30GLOH   H06 8597   4.546   4.008   1.501  1.6939  1.9479  1.1830
   30GLOH   H07 8598   4.425   4.107   1.412 -0.1834 -0.9661  1.8429
   30GLOH    O3 8599   4.626   4.144   1.359 -0.1339 -0.4717 -0.0221
   30GLOH   H01 8600   4.646   4.125   1.266 -1.2218 -0.1376 -0.3366
   31GLOH   H03 8601   4.936   1.967   2.475 -1.9027 -0.0030 -0.5076
   31GLOH    O1 8602   4.902   1.969   2.566 -0.5180 -0.7174  0.0402
   31GLOH    C1 8603   4.767   1.909   2.572 -0.1711 -0.9888 -0.7365
   31GLOH   H02 8604   4.765   1.808   2.533 -0.7227 -0.8401 -1.0946
   31GLOH   H08 8605   4.705   1.974   2.510  0.6036  0.7349  0.2552
   31GLOH    C2 8606   4.702   1.917   2.710 -0.3640  0.2350 -0.1554
   31GLOH   H04 8607   4.699   2.022   2.746  0.0465  0.9901 -2.2611
   31GLOH    O2 8608   4.557   1.898   2.707 -0.1608  0.0006 -0.3900
   31GLOH   H05 8609   4.516   1.981   2.676 -0.2937 -0.6433 -1.9695
   31GLOH    C3 8610   4.773   1.820   2.807 -0.0052  0.2028  0.5749
   31GLOH   H06 8611   4.748   1.716   2.786 -0.8700  0.7035 -0.9686
   31GLOH   H07 8612   4.727   1.839   2.904 -0.8448 -0.1682  0.2587
   31GLOH    O3 8613   4.917   1.840   2.813  0.4785  0.5765  0.0779
   31GLOH   H01 8614   4.934   1.917   2.756  1.8716 -0.4156 -0.8674
   32GLOH   H03 8615   2.716   0.670   0.080  1.1622 -1.4356  2.6673
   32GLOH    O1 8616   2.806   0.701   0.060 -0.1669  0.9775 -0.0435
   32GLOH    C1 8617   2.873   0.638   0.174 -0.3773  0.2958  0.7387
   32GLOH   H02 8618   2.883   0.531   0.157 -0.9480 -0.0049  2.2506
   32GLOH   H08 8619   2.821   0.661   0.267 -1.4533 -0.2037  0.2647
   32GLOH    C2 8620   3.017   0.683   0.191 -0.2124 -0.3097  0.3288
   32GLOH   H04 8621   3.010   0.793   0.197 -2.0140 -0.4558  1.3496
   32GLOH    O2 8622   3.064   0.628   0.315 -0.2307 -0.2013  0.2323
   32GLOH   H05 8623   3.139   0.684   0.343 -0.5064 -0.7770  2.1674
   32GLOH    C3 8624   3.122   0.663   0.083  0.3461  0.7954 -0.6162
   32GLOH   H06 8625   3.216   0.691   0.129  2.4370 -2.3413 -2.7550
   32GLOH   H07 8626   3.110   0.743   0.010 -0.5337  1.4336  0.2133
   32GLOH    O3 8627   3.136   0.537   0.025  0.0308  0.5572 -0.1950
   32GLOH   H01 8628   3.051   0.501  -0.007  0.3839  0.1815 -0.7053
   33GLOH   H03 8629   3.454   5.752   0.026  3.1230 -0.9059  0.4303
   33GLOH    O1 8630   3.468   5.746  -0.070 -0.2102 -0.5072 -0.1386
   33GLOH    C1 8631   3.337   5.751  -0.140 -0.1256 -0.4058 -0.1600
   33GLOH   H02 8632   3.267   5.677  -0.101 -2.0562  0.5395 -1.7157
   33GLOH   H08 8633   3.350   5.742  -0.248 -0.5797 -1.0723 -0.1621
   33GLOH    C2 8634   3.264   5.882  -0.116  0.0501  0.3897  0.3847
   33GLOH   H04 8635   3.331   5.968  -0.118  0.7864 -0.1969 -0.5754
   33GLOH    O2 8636   3.163   5.890  -0.215 -0.2741  0.3681 -0.1216
   33GLOH   H05 8637   3.098   5.819  -0.202  0.8869 -0.5514  0.6900
   33GLOH    C3 8638   3.198   5.876   0.023 -0.5107 -0.0180 -0.4593
   33GLOH   H06 8639   3.124   5.797   0.040 -1.0456  0.7276  0.7150
   33GLOH   H07 8640   3.144   5.967   0.049 -0.8442 -0.6727  1.1857
   33GLOH    O3 8641   3.298   5.849   0.122 -0.0409 -0.1989 -0.1237
   33GLOH   H01 8642   3.246   5.835   0.204 -0.4808  1.6694 -0.0607
   34GLOH   H03 8643   2.892   0.516   2.210  0.3843  0.6930 -0.6128
   34GLOH    O1 8644   2.804   0.553   2.233  0.2225 -0.0657  0.0088
   34GLOH    C1 8645   2.819   0.685   2.283  0.0997 -0.3490 -0.3290
   34GLOH   H02 8646   2.897   0.741   2.233 -0.1530  1.3654  1.1430
   34GLOH   H08 8647   2.855   0.682   2.386 -0.2615  3.4284 -0.0244
   34GLOH    C2 8648   2.689   0.774   2.295  0.3497 -0.2318  0.2774
   34GLOH   H04 8649   2.717   0.865   2.351 -0.5955  0.1370  0.1544
   34GLOH    O2 8650   2.633   0.806   2.163  0.2395 -0.1549 -0.3817
   34GLOH   H05 8651   2.624   0.902   2.149 -1.3388 -0.4870 -1.8597
   34GLOH    C3 8652   2.590   0.692   2.385 -0.6592 -0.0687  0.4553
   34GLOH   H06 8653   2.599   0.587   2.358  1.8990  0.3640 -0.5233
   34GLOH   H07 8654   2.485   0.711   2.360 -0.7435 -1.0986  0.0123
   34GLOH    O3 8655   2.617   0.708   2.522  0.6350 -0.2374 -0.4834
   34GLOH   H01 8656   2.570   0.791   2.539  1.6323  0.0018  1.3552
   35GLOH   H03 8657   3.130   4.942   0.972  0.2905  0.1072  0.5288
   35GLOH    O1 8658   3.120   5.038   0.980  0.1066  0.1082  0.2869
   35GLOH    C1 8659   3.231   5.088   0.903 -0.1313 -0.4712  0.3864
   35GLOH   H02 8660   3.256   5.018   0.822  0.6780 -0.2727  0.4642
   35GLOH   H08 8661   3.320   5.091   0.966 -0.3249 -0.0992  0.6377
   35GLOH    C2 8662   3.199   5.223   0.839  0.3665 -0.0945  0.0701
   35GLOH   H04 8663   3.176   5.293   0.920  1.5210  0.7383 -0.3076
   35GLOH    O2 8664   3.308   5.281   0.766  0.6340 -0.2420 -0.4462
   35GLOH   H05 8665   3.358   5.217   0.713  2.5270 -0.3684  1.4286
   35GLOH    C3 8666   3.073   5.219   0.753 -0.6449  0.4065 -0.1319
   35GLOH   H06 8667   3.066   5.311   0.695 -0.9032 -0.5554 -1.6388
   35GLOH   H07 8668   2.988   5.218   0.821  0.9442 -0.9290  1.9045
   35GLOH    O3 8669   3.058   5.099   0.667 -0.9333 -0.2981  0.1834
   35GLOH   H01 8670   3.103   5.125   0.584 -0.8185 -0.3682  0.2231
   36GLOH   H03 8671   2.991   7.335  -0.062  0.6420 -0.7877 -0.3545
   36GLOH    O1 8672   3.021   7.310   0.027 -0.3542  0.3066  0.2986
   36GLOH    C1 8673   3.074   7.174   0.015 -0.9493  0.2726 -0.1884
   36GLOH   H02 8674   3.153   7.162   0.089 -2.3343  1.2768  1.4915
   36GLOH   H08 8675   3.122   7.160  -0.082  2.2156  1.4300  1.1530
   36GLOH    C2 8676   2.967   7.061   0.024 -0.3520  0.3534 -0.4664
   36GLOH   H04 8677   2.919   7.064   0.123  0.6867  1.1703  0.0240
   36GLOH    O2 8678   2.857   7.091  -0.064 -0.2686 -0.1127  0.1116
   36GLOH   H05 8679   2.892   7.135  -0.143 -0.1545 -0.1171  0.1597
   36GLOH    C3 8680   3.022   6.919  -0.016 -0.2890  0.1798 -0.1660
   36GLOH   H06 8681   3.037   6.923  -0.124  0.8974 -1.0731 -0.0609
   36GLOH   H07 8682   2.943   6.845  -0.003  0.3125 -0.1569  1.5515
   36GLOH    O3 8683   3.140   6.879   0.059 -0.3599  0.2730  0.0152
   36GLOH   H01 8684   3.176   6.796   0.021 -0.3481  0.5408 -0.5561
   37GLOH   H03 8685   4.247   3.840   1.697  0.3162 -2.2712  1.2216
   37GLOH    O1 8686   4.316   3.877   1.755 -0.0217  0.0239  0.2243
   37GLOH    C1 8687   4.437   3.797   1.735  0.3058 -0.2977 -0.4608
   37GLOH   H02 8688   4.500   3.841   1.657 -0.9443  0.8802 -0.8171
   37GLOH   H08 8689   4.409   3.697   1.700 -0.1835 -0.9508  1.7108
   37GLOH    C2 8690   4.517   3.775   1.866 -0.1231  0.8178 -0.5064
   37GLOH   H04 8691   4.466   3.724   1.949 -0.0460 -0.0481 -0.9844
   37GLOH    O2 8692   4.636   3.704   1.833  0.0180  0.6445 -0.3622
   37GLOH   H05 8693   4.630   3.635   1.901  3.4511  1.0615  0.4485
   37GLOH    C3 8694   4.554   3.910   1.926 -0.3302 -0.1105 -0.1576
   37GLOH   H06 8695   4.643   3.943   1.872  1.0148 -0.3135  1.9020
   37GLOH   H07 8696   4.589   3.893   2.028 -1.2075  2.8314  0.6751
   37GLOH    O3 8697   4.444   4.004   1.923  0.0486 -0.7124  0.0043
   37GLOH   H01 8698   4.384   3.964   1.857  0.1293 -0.8727  0.0302
   38GLOH   H03 8699   2.803   5.846   0.875 -1.0842  0.5486  0.1643
   38GLOH    O1 8700   2.840   5.921   0.926 -0.1967  0.1094  0.1818
   38GLOH    C1 8701   2.964   5.957   0.871  0.2390 -0.1941 -0.2106
   38GLOH   H02 8702   2.943   6.003   0.774 -1.6623 -0.5412  0.0031
   38GLOH   H08 8703   3.031   5.875   0.849 -0.8038 -0.8636 -0.9439
   38GLOH    C2 8704   3.034   6.063   0.963  0.1259  0.0957 -0.3132
   38GLOH   H04 8705   2.973   6.151   0.986  1.1190  0.6542  0.2366
   38GLOH    O2 8706   3.073   5.999   1.080  0.0450 -0.5228 -0.1982
   38GLOH   H05 8707   3.120   5.915   1.065  1.4793  0.4592 -1.2198
   38GLOH    C3 8708   3.162   6.115   0.879  0.3623 -0.3659 -0.4806
   38GLOH   H06 8709   3.238   6.038   0.878  1.5195  0.6328  2.7702
   38GLOH   H07 8710   3.208   6.187   0.946 -2.3086  1.3367 -0.3656
   38GLOH    O3 8711   3.133   6.161   0.744  0.1887 -0.3360  0.7630
   38GLOH   H01 8712   3.076   6.239   0.750 -1.1054 -1.3044  1.3303
   39GLOH   H03 8713   2.939   3.675  -0.071 -0.9687 -1.4512  2.4284
   39GLOH    O1 8714   2.862   3.735  -0.070  0.0902 -0.0072  0.7196
   39GLOH    C1 8715   2.839   3.780   0.068  0.1770  0.2646  0.1610
   39GLOH   H02 8716   2.744   3.834   0.072  0.5759  0.8352  2.6023
   39GLOH   H08 8717   2.914   3.853   0.099  0.7784 -0.2051 -0.1702
   39GLOH    C2 8718   2.835   3.667   0.174  0.2903 -0.4591 -0.0585
   39GLOH   H04 8719   2.747   3.602   0.163 -0.4815  0.4907  0.4173
   39GLOH    O2 8720   2.952   3.581   0.161  0.1298 -0.5253  0.2147
   39GLOH   H05 8721   3.032   3.636   0.159  0.9218 -1.5843  1.7325
   39GLOH    C3 8722   2.828   3.719   0.320 -0.3439  0.2813 -0.4534
   39GLOH   H06 8723   2.907   3.793   0.334  0.1571 -0.5445  1.1495
   39GLOH   H07 8724   2.842   3.650   0.403 -0.0934  2.3585  1.2553
   39GLOH    O3 8725   2.701   3.782   0.343  0.5150  0.4507  0.5908
   39GLOH   H01 8726   2.682   3.777   0.438  1.0174 -1.1941  0.6282
   40GLOH   H03 8727   3.976   9.613   0.881 -2.3505 -1.0477  1.0637
   40GLOH    O1 8728   3.945   9.616   0.788  0.5732 -0.0080  0.0509
   40GLOH    C1 8729   3.943   9.479   0.744  0.0828  0.0682  0.0360
   40GLOH   H02 8730   3.891   9.414   0.814  0.7464 -0.9357 -0.3821
   40GLOH   H08 8731   4.047   9.445   0.752  0.5073  1.1740 -0.6503
   40GLOH    C2 8732   3.892   9.454   0.599  0.2940 -1.3810  0.0218
   40GLOH   H04 8733   3.972   9.481   0.529  1.0795  0.1826  1.4969
   40GLOH    O2 8734   3.856   9.323   0.568  0.0249 -0.2953 -0.7244
   40GLOH   H05 8735   3.760   9.315   0.554 -0.1087  0.9148 -0.5864
   40GLOH    C3 8736   3.772   9.545   0.565  0.1168  0.4545 -0.0439
   40GLOH   H06 8737   3.683   9.501   0.610 -0.9272  2.4010 -0.1660
   40GLOH   H07 8738   3.763   9.545   0.456 -0.4248 -2.0787 -0.0236
   40GLOH    O3 8739   3.794   9.685   0.605 -0.0176 -0.1250 -0.1193
   40GLOH   H01 8740   3.858   9.696   0.677  3.1802 -1.4991 -2.5965
   41GLOH   H03 8741   4.041   9.165   1.904  0.1050 -2.3325 -0.3604
   41GLOH    O1 8742   4.048   9.170   1.807  0.6186 -0.7098 -0.2644
   41GLOH    C1 8743   4.031   9.037   1.763  0.3493  0.1592 -0.6956
   41GLOH   H02 8744   3.923   9.019   1.761  0.2114  0.9975 -1.5655
   41GLOH   H08 8745   4.077   8.966   1.831  0.8998  1.3716  0.2192
   41GLOH    C2 8746   4.080   9.014   1.625 -0.3831  0.2511 -0.1536
   41GLOH   H04 8747   4.184   9.048   1.620 -0.6779  1.2137  0.2273
   41GLOH    O2 8748   4.065   8.877   1.589  0.0994 -0.2565  0.3932
   41GLOH   H05 8749   4.078   8.865   1.493  0.0485  0.8154  0.2409
   41GLOH    C3 8750   3.988   9.098   1.539 -0.5098  0.6755  0.4346
   41GLOH   H06 8751   4.005   9.199   1.576 -1.3812  0.9386  0.1241
   41GLOH   H07 8752   3.884   9.074   1.558 -0.9754  0.8333 -1.7729
   41GLOH    O3 8753   4.013   9.100   1.393 -0.2207  0.2929 -0.3775
   41GLOH   H01 8754   4.035   9.006   1.378  0.3760 -0.1611  2.9169
   42GLOH   H03 8755   2.745   7.396   1.340  0.2560  0.3505  0.5901
   42GLOH    O1 8756   2.778   7.352   1.420  0.3368 -0.7707 -0.0461
   42GLOH    C1 8757   2.878   7.436   1.482 -0.3817  0.0510 -0.4560
   42GLOH   H02 8758   2.862   7.534   1.435  2.4219  2.0203  2.4692
   42GLOH   H08 8759   2.979   7.406   1.457  0.6845  2.1252  1.2297
   42GLOH    C2 8760   2.862   7.464   1.636 -0.7122  0.7178 -0.1064
   42GLOH   H04 8761   2.756   7.475   1.663  0.0047  1.0701  2.7970
   42GLOH    O2 8762   2.921   7.352   1.707  0.3561  0.2473 -0.0254
   42GLOH   H05 8763   2.870   7.272   1.686  0.8161  0.0782 -0.4802
   42GLOH    C3 8764   2.934   7.589   1.693  0.2700 -0.4343 -0.4110
   42GLOH   H06 8765   3.039   7.578   1.666  0.8695 -1.2640  2.0378
   42GLOH   H07 8766   2.932   7.602   1.802  1.7245  0.0127 -0.4305
   42GLOH    O3 8767   2.890   7.712   1.642 -0.1346 -0.4723  0.5174
   42GLOH   H01 8768   2.972   7.762   1.628 -1.3880  1.8616  1.3310
   43GLOH   H03 8769   3.678   0.359   2.152 -0.5462 -0.0477  0.4762
   43GLOH    O1 8770   3.754   0.300   2.140  0.0041  0.5977  0.7121
   43GLOH    C1 8771   3.739   0.199   2.239 -0.3244  0.3775 -0.3589
   43GLOH   H02 8772   3.651   0.138   2.223 -0.4988  0.6606 -0.4787
   43GLOH   H08 8773   3.717   0.254   2.330  1.1659  2.5193 -1.2310
   43GLOH    C2 8774   3.867   0.109   2.270  0.2244  0.3920  0.1427
   43GLOH   H04 8775   3.954   0.167   2.305 -0.2771  1.3751 -0.2199
   43GLOH    O2 8776   3.843   0.017   2.389  0.5432 -0.3381 -0.2590
   43GLOH   H05 8777   3.842  -0.076   2.360 -0.0159  1.1604 -5.6417
   43GLOH    C3 8778   3.901   0.038   2.137  0.5927  0.1578 -0.2628
   43GLOH   H06 8779   3.818  -0.026   2.105 -2.3790  3.5018  0.5015
   43GLOH   H07 8780   3.980  -0.032   2.162  2.7855  2.8900  0.6428
   43GLOH    O3 8781   3.939   0.130   2.034 -0.7326  0.0221 -0.1082
   43GLOH   H01 8782   3.894   0.216   2.039  1.5688  1.2736 -0.0251
   44GLOH   H03 8783   3.507   4.746   2.277  2.5827  2.9936 -1.3224
   44GLOH    O1 8784   3.437   4.809   2.251 -0.9756 -0.1740  0.1142
   44GLOH    C1 8785   3.455   4.843   2.110 -0.1581 -0.3432  0.3442
   44GLOH   H02 8786   3.555   4.836   2.066 -0.1073  2.4374 -0.0791
   44GLOH   H08 8787   3.433   4.950   2.112 -2.6426 -0.8468  0.6065
   44GLOH    C2 8788   3.361   4.784   2.007 -0.1343  0.6878  0.0972
   44GLOH   H04 8789   3.261   4.795   2.051  0.6807 -0.8565  2.4847
   44GLOH    O2 8790   3.369   4.842   1.875 -0.0261 -0.1801 -0.0575
   44GLOH   H05 8791   3.430   4.917   1.877  0.9031 -0.8855 -1.2868
   44GLOH    C3 8792   3.388   4.634   1.998 -0.7564  0.6604 -0.2928
   44GLOH   H06 8793   3.479   4.612   1.942 -1.7289 -1.0555 -1.2422
   44GLOH   H07 8794   3.316   4.596   1.926  0.7560 -0.0742 -1.4421
   44GLOH    O3 8795   3.386   4.566   2.119 -0.7545 -0.2036  0.2120
   44GLOH   H01 8796   3.418   4.474   2.111 -0.8010 -0.3498  1.6574
   45GLOH   H03 8797   4.500   1.608   0.862  1.5419  1.6254 -1.1278
   45GLOH    O1 8798   4.526   1.528   0.812 -0.0359  0.3069  0.1062
   45GLOH    C1 8799   4.555   1.590   0.686 -0.1674  0.3539 -0.2068
   45GLOH   H02 8800   4.463   1.584   0.629 -0.9405  1.7569  0.8647
   45GLOH   H08 8801   4.632   1.529   0.638 -1.2109 -1.6488  0.6111
   45GLOH    C2 8802   4.582   1.742   0.700 -0.3742 -0.5476  0.1118
   45GLOH   H04 8803   4.671   1.750   0.765  0.1209 -1.4948 -0.4411
   45GLOH    O2 8804   4.620   1.793   0.566 -0.5525  0.2137 -0.4061
   45GLOH   H05 8805   4.716   1.790   0.551 -0.7666 -0.5082 -1.7253
   45GLOH    C3 8806   4.479   1.823   0.764  0.4802  0.3687  0.5410
   45GLOH   H06 8807   4.402   1.845   0.690 -1.5982 -3.3627  1.4882
   45GLOH   H07 8808   4.530   1.917   0.786 -2.0342  1.6222  1.1855
   45GLOH    O3 8809   4.422   1.766   0.878  0.7670  0.0647 -0.1401
   45GLOH   H01 8810   4.403   1.843   0.933  1.0110 -1.5442  2.2751
   46GLOH   H03 8811   2.613   9.821   0.075  0.5296 -0.7721 -0.2253
   46GLOH    O1 8812   2.630   9.808  -0.020 -0.9578 -0.4713 -0.5426
   46GLOH    C1 8813   2.636   9.663  -0.047  0.2676 -0.2786  0.0123
   46GLOH   H02 8814   2.536   9.619  -0.039  0.2785 -0.7815 -2.2065
   46GLOH   H08 8815   2.699   9.613   0.026  0.8187  0.0806 -0.2146
   46GLOH    C2 8816   2.683   9.630  -0.194  0.1964 -0.3334 -0.2191
   46GLOH   H04 8817   2.782   9.676  -0.210  0.2218 -0.4233 -0.3248
   46GLOH    O2 8818   2.694   9.492  -0.227 -0.3191 -0.1156 -0.7026
   46GLOH   H05 8819   2.752   9.456  -0.159 -0.9498  2.6177  1.3442
   46GLOH    C3 8820   2.574   9.689  -0.292  0.2520 -0.8209  0.1103
   46GLOH   H06 8821   2.475   9.649  -0.269 -0.1580 -0.6867 -1.4201
   46GLOH   H07 8822   2.608   9.656  -0.390 -2.4070 -2.2192 -0.3826
   46GLOH    O3 8823   2.560   9.830  -0.286  0.4087  0.1669 -0.2428
   46GLOH   H01 8824   2.521   9.852  -0.200 -0.5730  0.2498 -0.7076
   47GLOH   H03 8825   2.680   6.384   1.561  0.1879  1.0273 -0.4293
   47GLOH    O1 8826   2.694   6.418   1.651 -0.3774  0.2040 -0.0216
   47GLOH    C1 8827   2.705   6.562   1.650  0.1458 -0.0667 -0.0285
   47GLOH   H02 8828   2.764   6.584   1.739  2.4387  1.8941 -1.9469
   47GLOH   H08 8829   2.607   6.605   1.670  0.5208  0.0540  1.6467
   47GLOH    C2 8830   2.765   6.634   1.526  0.2360  0.5313 -1.0552
   47GLOH   H04 8831   2.874   6.626   1.528  0.1655 -0.2309 -0.2292
   47GLOH    O2 8832   2.710   6.587   1.403  0.2852  0.0965 -0.2286
   47GLOH   H05 8833   2.671   6.499   1.413  2.6173 -1.0297 -0.6284
   47GLOH    C3 8834   2.727   6.782   1.541  0.5548 -0.5563  0.3740
   47GLOH   H06 8835   2.621   6.792   1.565  0.9510  0.1234  1.9119
   47GLOH   H07 8836   2.756   6.832   1.449 -0.0419 -0.3704  0.2850
   47GLOH    O3 8837   2.804   6.834   1.649 -0.5057 -0.5343  0.3837
   47GLOH   H01 8838   2.755   6.909   1.687 -1.5054 -1.5922  1.2023
   48GLOH   H03 8839   3.587   9.239   2.354 -0.2617 -0.0682  0.5563
   48GLOH    O1 8840   3.525   9.190   2.296 -0.0429  0.0216  0.2430
   48GLOH    C1 8841   3.539   9.255   2.170  0.3822  0.1905  0.4628
   48GLOH   H02 8842   3.516   9.191   2.085 -1.2026  0.7353  0.4691
   48GLOH   H08 8843   3.644   9.282   2.155  0.7961 -1.5545  0.1257
   48GLOH    C2 8844   3.451   9.377   2.152  0.0029 -0.5991 -0.1395
   48GLOH   H04 8845   3.483   9.433   2.063  1.0894  0.4942  0.9094
   48GLOH    O2 8846   3.313   9.348   2.136  0.0371 -0.5466  0.1262
   48GLOH   H05 8847   3.285   9.273   2.191  1.0197 -0.2166  1.0999
   48GLOH    C3 8848   3.458   9.465   2.273 -0.7564  0.0213 -0.3190
   48GLOH   H06 8849   3.426   9.412   2.363 -0.4613 -1.7029 -1.2020
   48GLOH   H07 8850   3.387   9.547   2.270  0.4633  1.0630 -1.2692
   48GLOH    O3 8851   3.593   9.523   2.298  0.3965 -0.1040 -0.5618
   48GLOH   H01 8852   3.620   9.584   2.227  2.5492 -0.8454 -0.4406
   49GLOH   H03 8853   4.884   3.698   1.317  3.3538 -0.6740  1.8512
   49GLOH    O1 8854   4.920   3.754   1.246 -0.5618  0.0551  0.2781
   49GLOH    C1 8855   5.057   3.710   1.229 -0.2588  0.0495  0.0308
   49GLOH   H02 8856   5.110   3.669   1.315 -1.1970  0.1351  0.6513
   49GLOH   H08 8857   5.115   3.803   1.219 -0.7481  0.3052 -0.4645
   49GLOH    C2 8858   5.088   3.619   1.100  0.6011  0.0413  0.6891
   49GLOH   H04 8859   5.058   3.661   1.002  0.7280 -2.4090 -0.4282
   49GLOH    O2 8860   5.223   3.592   1.090  0.4446  0.1504  0.2076
   49GLOH   H05 8861   5.237   3.497   1.077  0.1628  0.4578 -2.6400
   49GLOH    C3 8862   5.007   3.488   1.110 -0.1223 -0.5354 -0.4024
   49GLOH   H06 8863   4.909   3.534   1.100  0.6538  1.2687 -0.0291
   49GLOH   H07 8864   5.012   3.443   1.209  1.0855 -3.0945 -1.5934
   49GLOH    O3 8865   5.028   3.399   1.001  0.4205 -0.5018 -0.0908
   49GLOH   H01 8866   4.942   3.375   0.961 -0.3875 -1.2738  2.0242
   50GLOH   H03 8867   4.101   5.618   1.115  0.4662 -2.0269  3.0111
   50GLOH    O1 8868   4.155   5.696   1.136 -0.2161 -0.6166 -0.1215
   50GLOH    C1 8869   4.123   5.726   1.270 -0.0399  0.5568 -0.3831
   50GLOH   H02 8870   4.162   5.827   1.286  0.9533  0.3491 -1.4592
   50GLOH   H08 8871   4.169   5.657   1.340 -0.9069  0.0459 -0.3153
   50GLOH    C2 8872   3.969   5.740   1.296 -0.8334  0.2583 -0.3837
   50GLOH   H04 8873   3.918   5.643   1.285  1.0626 -0.9104  0.7443
   50GLOH    O2 8874   3.961   5.771   1.433 -0.1746 -0.4097 -0.0469
   50GLOH   H05 8875   3.867   5.769   1.458  0.1799 -0.8639  1.3450
   50GLOH    C3 8876   3.909   5.840   1.200  0.8332  0.3483  0.6164
   50GLOH   H06 8877   3.937   5.813   1.098  2.7762 -0.7793  1.4233
   50GLOH   H07 8878   3.952   5.937   1.222 -1.1514  1.2130  0.7792
   50GLOH    O3 8879   3.767   5.860   1.210 -0.3191  0.1577  0.1445
   50GLOH   H01 8880   3.755   5.916   1.289  0.3655  1.5559 -0.7278
   51GLOH   H03 8881   2.840   4.663   2.536 -0.0550  0.2643 -0.7613
   51GLOH    O1 8882   2.754   4.708   2.544  0.0156  0.2758 -0.0894
   51GLOH    C1 8883   2.708   4.769   2.428 -0.2017  0.5257 -0.0352
   51GLOH   H02 8884   2.783   4.843   2.399  1.5521 -0.9305  0.6739
   51GLOH   H08 8885   2.613   4.810   2.463 -2.6750 -2.9605 -2.4007
   51GLOH    C2 8886   2.671   4.675   2.309 -0.3147 -0.9014  0.4329
   51GLOH   H04 8887   2.571   4.633   2.330 -1.1920  1.4573  1.2023
   51GLOH    O2 8888   2.646   4.757   2.188 -0.1484 -0.0918  0.7360
   51GLOH   H05 8889   2.725   4.783   2.137 -0.5155 -1.7154 -0.7220
   51GLOH    C3 8890   2.776   4.575   2.277  0.5495 -0.4218 -1.0341
   51GLOH   H06 8891   2.739   4.524   2.188 -0.5663  0.0818 -0.8600
   51GLOH   H07 8892   2.775   4.498   2.354  0.7886  0.9696  0.3818
   51GLOH    O3 8893   2.903   4.633   2.246  0.2241  0.1909 -0.0286
   51GLOH   H01 8894   2.898   4.703   2.178 -0.7386 -1.3613 -1.5916
   52GLOH   H03 8895   3.460   1.546   0.777  0.0741 -0.9477  0.5713
   52GLOH    O1 8896   3.426   1.476   0.718 -0.4775 -0.0289 -0.2043
   52GLOH    C1 8897   3.496   1.351   0.727 -0.3389  0.5356  0.6092
   52GLOH   H02 8898   3.459   1.291   0.644 -0.3346  0.6040  0.5581
   52GLOH   H08 8899   3.468   1.304   0.821  3.5226  1.1263  2.1543
   52GLOH    C2 8900   3.653   1.360   0.728 -0.3651  0.2327  0.4272
   52GLOH   H04 8901   3.672   1.422   0.817  0.7489  1.7765 -0.8562
   52GLOH    O2 8902   3.713   1.228   0.738 -0.5830  0.3033 -0.0019
   52GLOH   H05 8903   3.791   1.237   0.794 -0.5489 -2.2510  0.4119
   52GLOH    C3 8904   3.712   1.439   0.606 -0.2364  0.3839 -0.5832
   52GLOH   H06 8905   3.668   1.537   0.592  1.0726  1.1192  0.2751
   52GLOH   H07 8906   3.680   1.385   0.517 -0.4589 -0.2274 -0.1322
   52GLOH    O3 8907   3.850   1.447   0.614  0.6048  0.5719  0.3358
   52GLOH   H01 8908   3.875   1.537   0.642 -1.3990  0.9000  1.1480
   53GLOH   H03 8909   3.771   2.363   1.907 -2.5512  0.5820 -2.0700
   53GLOH    O1 8910   3.840   2.408   1.855  0.4004 -1.1779  0.1507
   53GLOH    C1 8911   3.925   2.474   1.942  0.6655 -0.3049 -0.2495
   53GLOH   H02 8912   3.940   2.418   2.035  3.0429  2.2506  0.9851
   53GLOH   H08 8913   3.891   2.575   1.963  2.3944 -0.0569  1.5690
   53GLOH    C2 8914   4.064   2.505   1.886 -0.1791  0.5059  0.1325
   53GLOH   H04 8915   4.123   2.413   1.898 -2.6186 -1.1920 -0.5792
   53GLOH    O2 8916   4.060   2.526   1.741 -0.2715 -0.2230 -0.5259
   53GLOH   H05 8917   4.041   2.447   1.688 -0.9695 -0.5450  0.1957
   53GLOH    C3 8918   4.133   2.625   1.956  0.1442 -0.0425 -0.7866
   53GLOH   H06 8919   4.072   2.714   1.937  1.5877  1.1482  0.0026
   53GLOH   H07 8920   4.223   2.646   1.898 -0.5751 -2.3229 -2.7856
   53GLOH    O3 8921   4.141   2.614   2.099  0.1611  0.2866  0.3201
   53GLOH   H01 8922   4.189   2.532   2.122 -0.2458 -0.0576 -0.0554
   54GLOH   H03 8923   4.761   3.753   1.752 -0.3753 -0.4012 -0.2520
   54GLOH    O1 8924   4.828   3.777   1.685  0.1328 -0.0813  0.3648
   54GLOH    C1 8925   4.827   3.919   1.661 -0.0098  0.1693 -0.4639
   54GLOH   H02 8926   4.874   3.964   1.748  1.4896 -0.2041 -1.0677
   54GLOH   H08 8927   4.727   3.959   1.646  0.7539  2.1789 -0.2958
   54GLOH    C2 8928   4.902   3.963   1.530 -0.1203 -0.1646  0.2713
   54GLOH   H04 8929   4.999   3.911   1.522 -0.5554 -0.8342 -0.7840
   54GLOH    O2 8930   4.821   3.912   1.423  0.3967 -0.1703 -0.5139
   54GLOH   H05 8931   4.883   3.890   1.352  1.6930 -2.1793  1.1633
   54GLOH    C3 8932   4.920   4.115   1.515  0.5519  0.1724 -0.1014
   54GLOH   H06 8933   4.963   4.121   1.415 -1.2639 -1.4385 -0.9965
   54GLOH   H07 8934   5.003   4.144   1.580 -0.2087  1.8553  0.1590
   54GLOH    O3 8935   4.797   4.189   1.543 -0.4077 -0.6203 -0.5473
   54GLOH   H01 8936   4.739   4.175   1.466  0.1113 -0.8266 -0.9106
   55GLOH   H03 8937   2.813   6.289   2.429  0.3533 -1.1427 -1.4534
   55GLOH    O1 8938   2.789   6.198   2.453 -0.6790 -0.6814 -0.7007
   55GLOH    C1 8939   2.656   6.176   2.399  0.3530 -0.3666 -0.2483
   55GLOH   H02 8940   2.620   6.074   2.385  0.2081  0.0236 -3.0436
   55GLOH   H08 8941   2.649   6.225   2.302  0.2271  0.8001  0.3432
   55GLOH    C2 8942   2.547   6.245   2.492 -0.2073 -0.0756 -0.1252
   55GLOH   H04 8943   2.577   6.233   2.597  0.6262 -1.7502 -0.5313
   55GLOH    O2 8944   2.562   6.387   2.465  0.6228 -0.1744  0.2075
   55GLOH   H05 8945   2.538   6.395   2.371  3.5751 -0.0028 -0.5710
   55GLOH    C3 8946   2.397   6.210   2.484  0.6666  0.4878  0.0364
   55GLOH   H06 8947   2.341   6.254   2.403 -0.8589 -0.4714  0.5475
   55GLOH   H07 8948   2.351   6.254   2.573 -2.0290 -0.4041 -0.8620
   55GLOH    O3 8949   2.382   6.068   2.494 -0.2601 -0.1591  0.1500
   55GLOH   H01 8950   2.432   6.025   2.566 -2.4319  0.4484  2.1005
   56GLOH   H03 8951   4.858   2.790   0.125 -2.8664  0.6719  1.6035
   56GLOH    O1 8952   4.890   2.713   0.175 -0.5707  0.1730 -0.5558
   56GLOH    C1 8953   5.027   2.733   0.225 -0.1518 -0.5244  0.3331
   56GLOH   H02 8954   5.096   2.745   0.141  2.1658  1.7452  2.4985
   56GLOH   H08 8955   5.052   2.643   0.281 -1.1638  0.2390  2.0527
   56GLOH    C2 8956   5.051   2.869   0.292  0.1048  0.1868  0.0742
   56GLOH   H04 8957   5.159   2.859   0.311  0.5151  0.9991 -1.7325
   56GLOH    O2 8958   5.032   2.988   0.210  0.3858  0.4470 -1.1048
   56GLOH   H05 8959   4.959   2.966   0.150 -1.4487  0.3337  1.1514
   56GLOH    C3 8960   4.975   2.880   0.422 -0.0333  0.0604  0.6555
   56GLOH   H06 8961   4.871   2.868   0.389 -0.1780 -2.4915  1.8946
   56GLOH   H07 8962   4.983   2.979   0.466  2.3547  0.9035 -1.6286
   56GLOH    O3 8963   5.019   2.780   0.514  0.4151 -0.6834 -0.2257
   56GLOH   H01 8964   5.100   2.816   0.554 -1.9750  2.8307  1.6982
   57GLOH   H03 8965   3.479   5.700   0.525  1.2959 -1.5531 -1.1107
   57GLOH    O1 8966   3.553   5.722   0.584 -0.1438  0.4575  0.0185
   57GLOH    C1 8967   3.656   5.625   0.582 -0.3034  0.3282 -0.1647
   57GLOH   H02 8968   3.676   5.605   0.477  1.1952  0.9178 -0.0109
   57GLOH   H08 8969   3.636   5.536   0.642  0.9871  0.9506  1.2441
   57GLOH    C2 8970   3.785   5.688   0.637 -0.2239  0.4215 -0.5445
   57GLOH   H04 8971   3.787   5.721   0.742 -1.3009  1.6368 -0.8955
   57GLOH    O2 8972   3.890   5.593   0.624 -0.5275  0.3128 -0.1244
   57GLOH   H05 8973   3.965   5.631   0.674  0.2536  0.3452 -1.2841
   57GLOH    C3 8974   3.818   5.802   0.546  0.4762  0.3662 -0.2280
   57GLOH   H06 8975   3.734   5.871   0.548  1.4279  1.5335  0.5327
   57GLOH   H07 8976   3.838   5.768   0.444  0.8404 -1.4510  0.4225
   57GLOH    O3 8977   3.939   5.874   0.590 -0.0843  0.8329  0.1926
   57GLOH   H01 8978   3.964   5.922   0.509  1.0065  0.3921  0.2558
   58GLOH   H03 8979   1.947   6.675   2.582  1.3541 -0.9301  0.1415
   58GLOH    O1 8980   1.992   6.747   2.535 -0.0222 -0.5184 -0.5713
   58GLOH    C1 8981   1.967   6.729   2.395  0.8042  0.1311 -0.0486
   58GLOH   H02 8982   1.861   6.718   2.369  1.2829  0.6987 -2.4325
   58GLOH   H08 8983   2.024   6.641   2.366  1.3218  0.3369  0.3487
   58GLOH    C2 8984   2.007   6.846   2.302 -0.4472  0.2753  0.1978
   58GLOH   H04 8985   2.116   6.832   2.291 -0.4591 -1.0847  1.6347
   58GLOH    O2 8986   1.941   6.842   2.174  0.0447  0.7269  0.5848
   58GLOH   H05 8987   1.990   6.798   2.103 -0.0630 -2.3724  2.3566
   58GLOH    C3 8988   1.971   6.985   2.365 -0.6647 -0.0039  0.6223
   58GLOH   H06 8989   1.866   6.982   2.393 -0.8696  0.6243 -0.0578
   58GLOH   H07 8990   1.987   7.057   2.285  0.3303  0.0742  0.8768
   58GLOH    O3 8991   2.061   7.020   2.474  0.4043 -0.0661  0.2104
   58GLOH   H01 8992   2.043   6.959   2.548 -0.3969 -1.9780 -1.4849
   59GLOH   H03 8993   4.823   4.330   2.461 -0.2267  0.3719  0.1221
   59GLOH    O1 8994   4.876   4.377   2.393  0.0418 -0.4795 -0.2711
   59GLOH    C1 8995   4.959   4.479   2.453 -0.8889  0.7442  1.1851
   59GLOH   H02 8996   4.886   4.557   2.475 -1.6895  1.0743 -2.3627
   59GLOH   H08 8997   5.036   4.520   2.388 -0.8003 -1.1694  0.0662
   59GLOH    C2 8998   5.022   4.417   2.576  0.5287 -0.1367 -0.2082
   59GLOH   H04 8999   5.100   4.491   2.602  0.5708  0.3789 -1.7632
   59GLOH    O2 9000   4.925   4.422   2.687  0.5507  0.2425  0.0518
   59GLOH   H05 9001   4.973   4.410   2.771  1.7839  2.3353 -0.3163
   59GLOH    C3 9002   5.081   4.277   2.557 -0.1385 -0.2301 -0.3158
   59GLOH   H06 9003   5.008   4.212   2.509  2.3520 -3.2559 -0.1735
   59GLOH   H07 9004   5.108   4.235   2.654  0.9015  0.1413 -0.4410
   59GLOH    O3 9005   5.193   4.287   2.471 -0.1688  1.2710  0.3873
   59GLOH   H01 9006   5.168   4.257   2.381  0.1246  0.4379  0.5757
   60GLOH   H03 9007   4.157   4.202   1.164  1.4181 -2.5165  0.7871
   60GLOH    O1 9008   4.241   4.250   1.155 -0.2004  0.3306  0.3461
   60GLOH    C1 9009   4.241   4.358   1.250  0.5857  0.2166 -0.3375
   60GLOH   H02 9010   4.221   4.330   1.353 -2.6030 -1.6323 -1.4094
   60GLOH   H08 9011   4.166   4.432   1.224 -0.3930 -0.4161  0.6378
   60GLOH    C2 9012   4.378   4.428   1.247 -0.9136 -0.4121  0.9218
   60GLOH   H04 9013   4.454   4.354   1.276 -0.3536  0.0102  0.5597
   60GLOH    O2 9014   4.404   4.470   1.110  0.3538  0.1338 -0.0929
   60GLOH   H05 9015   4.425   4.390   1.059 -1.2788 -0.5071  0.2197
   60GLOH    C3 9016   4.398   4.534   1.354 -0.1626 -0.9727 -0.3253
   60GLOH   H06 9017   4.322   4.607   1.326  0.7865  0.8127  1.6189
   60GLOH   H07 9018   4.496   4.581   1.349  0.2051 -1.5734  1.1195
   60GLOH    O3 9019   4.375   4.482   1.488  0.1330  0.0705  0.7303
   60GLOH   H01 9020   4.442   4.416   1.513 -0.9163 -1.9721 -1.6853
   61GLOH   H03 9021   3.282   5.089   1.765 -0.1372  0.7876 -0.6952
   61GLOH    O1 9022   3.221   5.143   1.818  0.1895  0.4744 -0.0071
   61GLOH    C1 9023   3.134   5.068   1.900 -0.5916  0.3688 -0.0785
   61GLOH   H02 9024   3.053   5.122   1.948 -0.6641 -0.3124  0.5761
   61GLOH   H08 9025   3.186   5.018   1.982 -1.4968 -0.6589 -0.1099
   61GLOH    C2 9026   3.066   4.953   1.810  0.3083 -0.2706  0.5269
   61GLOH   H04 9027   3.139   4.908   1.740 -0.4871 -1.0601  0.1946
   61GLOH    O2 9028   2.991   4.851   1.887 -0.0156  0.3014 -0.5460
   61GLOH   H05 9029   2.974   4.781   1.822 -0.3744 -1.9044  1.8364
   61GLOH    C3 9030   2.959   5.025   1.732  0.0565 -0.0162 -0.0455
   61GLOH   H06 9031   2.877   5.054   1.798 -2.0501 -1.4922 -1.9423
   61GLOH   H07 9032   2.918   4.955   1.659 -0.8000  1.0435 -0.5910
   61GLOH    O3 9033   3.007   5.135   1.654  0.1577  0.0857 -0.0517
   61GLOH   H01 9034   2.983   5.217   1.700 -1.6038 -0.3319 -0.2049
   62GLOH   H03 9035   4.275   5.126   1.535 -2.7169  0.7805  0.8463
   62GLOH    O1 9036   4.250   5.127   1.441 -0.4606  0.3882  0.1909
   62GLOH    C1 9037   4.200   5.253   1.406  0.6854  0.7530  0.1402
   62GLOH   H02 9038   4.249   5.283   1.313  0.4748 -2.0259 -0.9343
   62GLOH   H08 9039   4.222   5.326   1.484  0.7187 -0.4874  1.3053
   62GLOH    C2 9040   4.048   5.247   1.392 -0.1691  0.2990 -0.0116
   62GLOH   H04 9041   4.008   5.198   1.482 -2.2634  3.7567  1.0205
   62GLOH    O2 9042   3.999   5.380   1.380  0.0042 -0.1551 -0.3891
   62GLOH   H05 9043   3.995   5.404   1.285 -2.8230  1.4166  0.0698
   62GLOH    C3 9044   4.003   5.164   1.270 -0.3081  0.2383  0.0446
   62GLOH   H06 9045   4.029   5.060   1.292 -0.4322  0.2581  0.2745
   62GLOH   H07 9046   4.063   5.181   1.180  1.1660 -2.3419  0.4829
   62GLOH    O3 9047   3.863   5.184   1.237 -0.2925  0.2541 -0.0287
   62GLOH   H01 9048   3.853   5.166   1.142  1.9237  0.4975 -0.3325
   63GLOH   H03 9049   4.456   4.170   1.923  0.5719  0.0224  0.8824
   63GLOH    O1 9050   4.468   4.260   1.887 -0.4864 -0.0576  0.3168
   63GLOH    C1 9051   4.561   4.321   1.972 -0.6581 -0.0903 -0.1477
   63GLOH   H02 9052   4.517   4.352   2.066  0.6190  0.7020  0.2083
   63GLOH   H08 9053   4.582   4.421   1.934 -0.0640 -0.4964 -0.9149
   63GLOH    C2 9054   4.702   4.256   1.979  0.3933 -0.2583 -0.4917
   63GLOH   H04 9055   4.766   4.327   2.034  0.3737 -1.3072  0.9157
   63GLOH    O2 9056   4.703   4.145   2.066 -0.1089 -0.2552  0.7979
   63GLOH   H05 9057   4.659   4.160   2.151 -1.3149 -0.8556  0.2923
   63GLOH    C3 9058   4.765   4.223   1.843  0.1740  0.1275 -0.4992
   63GLOH   H06 9059   4.706   4.144   1.797  1.5846 -2.0330  1.3071
   63GLOH   H07 9060   4.864   4.182   1.863 -0.7755 -2.2678 -0.5723
   63GLOH    O3 9061   4.779   4.342   1.761 -0.3868  0.0363  0.5998
   63GLOH   H01 9062   4.792   4.305   1.672 -1.5467  1.1986 -0.0685
   64GLOH   H03 9063   3.376   3.669   0.556  0.4359 -0.4244  0.3135
   64GLOH    O1 9064   3.454   3.668   0.497  0.1670 -0.1129 -0.0513
   64GLOH    C1 9065   3.520   3.538   0.513 -0.7054 -0.2733 -0.0004
   64GLOH   H02 9066   3.506   3.476   0.424  1.6330 -0.2680 -0.4208
   64GLOH   H08 9067   3.483   3.480   0.597  0.7079  0.2333  0.9938
   64GLOH    C2 9068   3.667   3.557   0.542  0.2552 -0.1093 -0.0417
   64GLOH   H04 9069   3.675   3.623   0.630  0.8841  1.1003 -0.9771
   64GLOH    O2 9070   3.728   3.430   0.565 -0.2143  0.4564 -0.3185
   64GLOH   H05 9071   3.705   3.410   0.657  0.9767  2.2374  0.3926
   64GLOH    C3 9072   3.727   3.642   0.433  0.1107  0.5066  0.1525
   64GLOH   H06 9073   3.730   3.593   0.336  0.1976 -0.9500  0.8814
   64GLOH   H07 9074   3.832   3.660   0.459 -0.4520  2.3717  1.2066
   64GLOH    O3 9075   3.664   3.765   0.416  1.2646  0.3634  0.1416
   64GLOH   H01 9076   3.581   3.763   0.467  2.3957 -0.0573  2.0024
   65GLOH   H03 9077   3.927   8.857   0.253 -0.9199 -0.2964 -2.0032
   65GLOH    O1 9078   3.962   8.766   0.248 -0.2971 -0.1686 -0.3680
   65GLOH    C1 9079   3.849   8.682   0.224 -0.7989  0.1581 -0.3509
   65GLOH   H02 9080   3.806   8.696   0.125  2.1560  1.3004 -1.5136
   65GLOH   H08 9081   3.768   8.713   0.290 -0.6563 -0.3216  0.0499
   65GLOH    C2 9082   3.886   8.534   0.236  0.3780  0.0978  0.6701
   65GLOH   H04 9083   3.922   8.514   0.338 -1.0655 -0.5907  1.0537
   65GLOH    O2 9084   3.755   8.464   0.220 -0.0124  0.0265 -0.8823
   65GLOH   H05 9085   3.685   8.502   0.275  0.1012  1.2453 -1.5589
   65GLOH    C3 9086   3.993   8.477   0.134 -0.4656  0.0992 -0.2066
   65GLOH   H06 9087   4.024   8.372   0.138  0.7409  0.4008 -1.1680
   65GLOH   H07 9088   4.082   8.537   0.153 -1.0114  1.6552 -2.4273
   65GLOH    O3 9089   3.959   8.503  -0.004 -0.2921  0.4812 -0.3483
   65GLOH   H01 9090   3.862   8.496  -0.009 -0.1563 -1.3080 -0.8974
   66GLOH   H03 9091   3.359   7.696   2.592  0.3426 -2.1631 -1.0259
   66GLOH    O1 9092   3.339   7.740   2.508  0.2751 -0.5601 -0.1822
   66GLOH    C1 9093   3.319   7.649   2.399  0.4202 -0.1759  0.2424
   66GLOH   H02 9094   3.388   7.565   2.409 -1.5505 -1.8316  0.2042
   66GLOH   H08 9095   3.342   7.702   2.307  1.5039 -2.3078 -0.7562
   66GLOH    C2 9096   3.168   7.600   2.391  0.0308 -0.0220 -0.4990
   66GLOH   H04 9097   3.099   7.683   2.415 -1.0352 -1.7741  2.7761
   66GLOH    O2 9098   3.141   7.545   2.263  0.1165 -0.2199 -0.3993
   66GLOH   H05 9099   3.052   7.567   2.230  0.4031 -0.7112 -1.5209
   66GLOH    C3 9100   3.140   7.499   2.506  0.3389  0.9091  0.2792
   66GLOH   H06 9101   3.175   7.547   2.597  0.6103  0.8890  0.1879
   66GLOH   H07 9102   3.199   7.410   2.481 -0.8430 -0.0823  0.9632
   66GLOH    O3 9103   2.998   7.468   2.525  0.2851 -0.0826  0.3589
   66GLOH   H01 9104   2.950   7.553   2.532  0.2008 -0.0654 -0.4327
   67GLOH   H03 9105   4.306   4.887   0.308  1.1282 -0.9716  0.5450
   67GLOH    O1 9106   4.379   4.950   0.323  0.1097  0.3915 -0.1403
   67GLOH    C1 9107   4.467   4.939   0.215  0.2519  0.4178 -0.4155
   67GLOH   H02 9108   4.429   4.868   0.142  0.8671  0.4439 -0.7643
   67GLOH   H08 9109   4.564   4.905   0.249  0.5049 -0.9395 -2.3926
   67GLOH    C2 9110   4.486   5.063   0.126 -0.7654 -0.2049  0.5168
   67GLOH   H04 9111   4.388   5.113   0.110  0.0870  2.8012  3.9349
   67GLOH    O2 9112   4.578   5.160   0.186  0.0719 -0.2532  0.9947
   67GLOH   H05 9113   4.620   5.122   0.266  1.4409  1.8101  1.2880
   67GLOH    C3 9114   4.544   5.019  -0.013  0.2975 -0.2165  0.1176
   67GLOH   H06 9115   4.634   4.962   0.010  0.9100  0.5025 -0.4867
   67GLOH   H07 9116   4.575   5.114  -0.057 -2.3425  1.3587  1.4459
   67GLOH    O3 9117   4.460   4.942  -0.102 -0.7728 -0.4836 -0.0976
   67GLOH   H01 9118   4.521   4.881  -0.146  1.7250  0.8781  1.3779
   68GLOH   H03 9119   3.075   6.914   1.453 -0.5655 -1.0304  0.2438
   68GLOH    O1 9120   3.101   6.868   1.372  0.0415  0.4695 -0.4295
   68GLOH    C1 9121   3.147   6.951   1.264  0.9016 -0.3572 -0.0022
   68GLOH   H02 9122   3.203   6.888   1.194 -1.3973 -2.0434 -0.3774
   68GLOH   H08 9123   3.215   7.026   1.304  1.4163 -2.3531  3.0890
   68GLOH    C2 9124   3.023   7.005   1.187  0.6830 -0.0767  0.0686
   68GLOH   H04 9125   3.061   7.087   1.124  1.3237 -2.6691 -3.0567
   68GLOH    O2 9126   2.961   6.907   1.098  0.0580  0.3341 -0.0895
   68GLOH   H05 9127   2.939   6.822   1.138 -0.1872  1.3237  1.9416
   68GLOH    C3 9128   2.913   7.057   1.283 -0.3149 -0.3821 -0.1704
   68GLOH   H06 9129   2.886   6.990   1.364 -0.6972 -0.4722 -0.3727
   68GLOH   H07 9130   2.827   7.076   1.219  0.3878  1.2985 -0.6588
   68GLOH    O3 9131   2.956   7.189   1.342 -0.0837 -0.2812 -0.3406
   68GLOH   H01 9132   2.888   7.224   1.404  1.8836  1.2275  1.0207
   69GLOH   H03 9133   2.821   4.265   2.532 -0.6261 -0.0719 -1.6306
   69GLOH    O1 9134   2.912   4.254   2.501 -0.2176 -0.8395 -0.2174
   69GLOH    C1 9135   2.907   4.194   2.370  0.2330 -0.2534  0.8097
   69GLOH   H02 9136   3.005   4.158   2.339  0.5501  1.1448  0.1553
   69GLOH   H08 9137   2.883   4.279   2.305 -0.8301 -0.0961  1.3956
   69GLOH    C2 9138   2.799   4.077   2.348 -0.1098 -0.3319  0.1839
   69GLOH   H04 9139   2.705   4.127   2.376  0.8734  1.6066  0.1705
   69GLOH    O2 9140   2.790   4.032   2.208  0.3595 -0.1581 -0.0018
   69GLOH   H05 9141   2.720   3.964   2.215  0.3032 -0.1806 -0.7768
   69GLOH    C3 9142   2.830   3.946   2.424 -0.2061 -0.0345 -0.4391
   69GLOH   H06 9143   2.935   3.928   2.402 -0.3041  0.0826 -1.0058
   69GLOH   H07 9144   2.773   3.861   2.388 -2.4827  2.1959 -2.3344
   69GLOH    O3 9145   2.801   3.959   2.562 -0.3179 -0.1532 -0.1895
   69GLOH   H01 9146   2.819   3.873   2.604  1.9138  0.5640  0.3940
   70GLOH   H03 9147   3.220   7.894   1.400 -0.9144 -0.5308 -1.8803
   70GLOH    O1 9148   3.261   7.807   1.418 -0.4057  0.0759 -0.0142
   70GLOH    C1 9149   3.382   7.782   1.345 -0.4496  0.5948  0.2088
   70GLOH   H02 9150   3.438   7.695   1.379 -0.2317  0.4510 -0.5087
   70GLOH   H08 9151   3.460   7.858   1.351  1.2221 -1.1267  0.7014
   70GLOH    C2 9152   3.350   7.767   1.196 -0.1137 -0.0569  0.6201
   70GLOH   H04 9153   3.295   7.853   1.157  1.0720  1.3566  2.0000
   70GLOH    O2 9154   3.475   7.750   1.125 -0.2900  0.9540 -0.4764
   70GLOH   H05 9155   3.455   7.724   1.034  0.2576 -0.6327 -0.1572
   70GLOH    C3 9156   3.272   7.638   1.171 -0.0463  0.1390 -0.6222
   70GLOH   H06 9157   3.321   7.543   1.192  1.5370  0.6533 -1.8860
   70GLOH   H07 9158   3.238   7.637   1.067 -1.9854 -3.9731 -0.0534
   70GLOH    O3 9159   3.151   7.647   1.245  0.1181  0.2498 -0.2592
   70GLOH   H01 9160   3.176   7.677   1.335 -0.0304 -1.5027  0.3832
   71GLOH   H03 9161   3.196   1.673   0.032  0.0509  0.1029 -0.4017
   71GLOH    O1 9162   3.135   1.610   0.075  0.2838  0.1360 -0.0188
   71GLOH    C1 9163   3.182   1.556   0.200 -0.3426  0.8591  0.7578
   71GLOH   H02 9164   3.132   1.602   0.285 -3.3111 -1.0916  0.1182
   71GLOH   H08 9165   3.283   1.588   0.224 -0.3337  1.4391 -0.0114
   71GLOH    C2 9166   3.161   1.403   0.218 -0.7805 -0.2854  0.6609
   71GLOH   H04 9167   3.064   1.374   0.176 -0.2517  0.1349 -0.8853
   71GLOH    O2 9168   3.250   1.329   0.131 -0.7995  0.7635 -0.1939
   71GLOH   H05 9169   3.219   1.365   0.046 -0.2329  2.1299  0.1569
   71GLOH    C3 9170   3.166   1.355   0.366 -0.5335  0.2433  0.3298
   71GLOH   H06 9171   3.265   1.378   0.403  0.0367 -1.3884 -0.1405
   71GLOH   H07 9172   3.148   1.248   0.369  1.7114 -0.1269  1.7620
   71GLOH    O3 9173   3.055   1.417   0.434 -0.1406 -0.0144 -0.1928
   71GLOH   H01 9174   2.976   1.368   0.403  0.1651 -0.8944  0.3837
   72GLOH   H03 9175   3.891   9.280   1.167  0.2272 -0.3985  0.2104
   72GLOH    O1 9176   3.855   9.235   1.089 -0.2609 -0.1915  0.3190
   72GLOH    C1 9177   3.732   9.300   1.054  0.6757 -0.0547 -0.4881
   72GLOH   H02 9178   3.725   9.299   0.945 -0.6959  1.4823 -0.4262
   72GLOH   H08 9179   3.726   9.404   1.086 -0.8364 -0.0810 -0.6451
   72GLOH    C2 9180   3.610   9.225   1.110  0.2347 -0.5502  0.3805
   72GLOH   H04 9181   3.522   9.291   1.111  0.1939 -0.5371 -1.8340
   72GLOH    O2 9182   3.593   9.109   1.024  0.0122  0.0314  0.8375
   72GLOH   H05 9183   3.575   9.027   1.071  0.4211 -0.6311 -0.1465
   72GLOH    C3 9184   3.635   9.192   1.260 -0.3394 -0.1513 -0.4511
   72GLOH   H06 9185   3.734   9.149   1.278 -2.4062 -4.4561  1.0595
   72GLOH   H07 9186   3.563   9.120   1.297 -0.5511  0.3408  0.0931
   72GLOH    O3 9187   3.624   9.306   1.348 -0.6241 -0.8216  0.4685
   72GLOH   H01 9188   3.702   9.363   1.364 -0.3973 -0.7396 -0.8709
   73GLOH   H03 9189   4.130   8.989   0.969  1.5736  0.3181  2.3923
   73GLOH    O1 9190   4.190   8.926   0.926 -0.1639  0.1606  0.1376
   73GLOH    C1 9191   4.145   8.894   0.786  0.9651 -0.2982 -0.2003
   73GLOH   H02 9192   4.096   8.797   0.783  1.7123 -0.7090  0.5941
   73GLOH   H08 9193   4.232   8.880   0.722 -0.2529 -1.4854 -1.6325
   73GLOH    C2 9194   4.054   9.004   0.727  0.2963 -0.0410  0.4814
   73GLOH   H04 9195   4.121   9.087   0.701 -1.9527  1.3351 -1.0610
   73GLOH    O2 9196   4.002   8.970   0.593  0.5615  0.1817 -0.2041
   73GLOH   H05 9197   4.030   9.039   0.531 -2.1905  0.8596 -0.7222
   73GLOH    C3 9198   3.954   9.068   0.830 -0.1325  0.4155  0.2060
   73GLOH   H06 9199   3.873   8.999   0.854 -0.9250  1.0068 -0.7450
   73GLOH   H07 9200   3.906   9.154   0.783  1.2932  1.5898  0.8698
   73GLOH    O3 9201   4.010   9.115   0.951  0.0222  0.2526 -0.1973
   73GLOH   H01 9202   3.945   9.167   1.002  0.7908  0.6399  0.3957
   74GLOH   H03 9203   3.916   1.695  -0.050 -0.2362  1.0215  0.9994
   74GLOH    O1 9204   3.874   1.765  -0.102 -0.3754  0.4998  0.3987
   74GLOH    C1 9205   3.962   1.817  -0.202  0.1398 -0.0891  0.1152
   74GLOH   H02 9206   3.896   1.853  -0.281 -0.1741  2.3639  1.4504
   74GLOH   H08 9207   4.023   1.743  -0.254 -1.1594  0.1953 -1.8859
   74GLOH    C2 9208   4.053   1.937  -0.151  0.4087 -0.7244 -0.1781
   74GLOH   H04 9209   4.110   1.903  -0.064  4.2800 -2.6419 -3.3269
   74GLOH    O2 9210   4.149   1.973  -0.253 -0.2865  0.2864 -0.0353
   74GLOH   H05 9211   4.211   2.029  -0.201 -1.4413  1.9366 -0.3819
   74GLOH    C3 9212   3.964   2.058  -0.109 -0.0190  0.4154  0.7975
   74GLOH   H06 9213   3.919   2.032  -0.014  1.2823  1.5684  1.7611
   74GLOH   H07 9214   3.880   2.060  -0.179 -0.5534  0.3006  1.4391
   74GLOH    O3 9215   4.041   2.182  -0.097  0.7405  0.1771 -0.1567
   74GLOH   H01 9216   4.014   2.220  -0.012  2.4385  1.9713 -0.3852
   75GLOH   H03 9217   3.056   5.042  -0.112  1.4101  1.2457 -0.4091
   75GLOH    O1 9218   3.121   4.970  -0.118 -0.5322 -0.5049 -1.2096
   75GLOH    C1 9219   3.233   5.023  -0.191  0.1524 -0.2438  1.0841
   75GLOH   H02 9220   3.321   4.960  -0.180 -0.2583 -0.7362  1.5513
   75GLOH   H08 9221   3.259   5.120  -0.149  0.4788 -1.1266  2.9590
   75GLOH    C2 9222   3.212   5.034  -0.344  0.2842  0.2647  0.1261
   75GLOH   H04 9223   3.147   5.121  -0.365  1.6937  0.9446 -1.5567
   75GLOH    O2 9224   3.344   5.060  -0.400  0.1157 -0.0982 -0.1523
   75GLOH   H05 9225   3.391   4.975  -0.400  0.0263 -0.1470 -0.2487
   75GLOH    C3 9226   3.132   4.910  -0.392  0.3828  0.1053  0.1380
   75GLOH   H06 9227   3.126   4.913  -0.501 -1.2592  1.1744  0.2381
   75GLOH   H07 9228   3.030   4.908  -0.354  0.1414 -1.2743 -0.5618
   75GLOH    O3 9229   3.205   4.793  -0.355 -0.4710  0.3120  0.1227
   75GLOH   H01 9230   3.290   4.799  -0.401 -0.8881 -1.3344 -0.9153
   76GLOH   H03 9231   2.341   7.830   2.472 -0.9289  0.2996  0.0013
   76GLOH    O1 9232   2.303   7.764   2.533 -0.4713 -0.2999 -0.3468
   76GLOH    C1 9233   2.263   7.646   2.454 -0.4091 -0.4188  0.5287
   76GLOH   H02 9234   2.181   7.677   2.389  1.0640  2.5383 -0.0015
   76GLOH   H08 9235   2.224   7.567   2.518  1.4911 -2.0898 -0.3142
   76GLOH    C2 9236   2.379   7.590   2.367 -0.2526 -0.3319  0.4500
   76GLOH   H04 9237   2.471   7.584   2.426 -1.1207  1.9569  2.1258
   76GLOH    O2 9238   2.350   7.459   2.319 -0.3158 -0.3056  0.2144
   76GLOH   H05 9239   2.253   7.455   2.311 -0.1836 -1.9227 -0.7351
   76GLOH    C3 9240   2.402   7.682   2.244  0.0066 -0.3579 -0.4213
   76GLOH   H06 9241   2.318   7.651   2.182 -0.1788  0.2733 -0.4904
   76GLOH   H07 9242   2.496   7.663   2.193  0.1086 -0.3331 -0.2438
   76GLOH    O3 9243   2.398   7.827   2.274  0.9218 -0.1105 -0.7660
   76GLOH   H01 9244   2.383   7.878   2.192 -1.3772  0.5033 -0.0076
   77GLOH   H03 9245   3.856   8.443   1.055  3.1976  2.1302  0.7570
   77GLOH    O1 9246   3.795   8.510   1.091  0.2823  0.0770 -0.1800
   77GLOH    C1 9247   3.819   8.544   1.225  0.4911  0.6969  0.3205
   77GLOH   H02 9248   3.726   8.582   1.268  0.4071 -0.3306  1.0807
   77GLOH   H08 9249   3.898   8.619   1.230  0.1839  1.1042 -0.8034
   77GLOH    C2 9250   3.867   8.425   1.312 -0.1984  0.0941  0.6556
   77GLOH   H04 9251   3.791   8.345   1.307 -0.4979  0.5491 -3.3272
   77GLOH    O2 9252   3.989   8.368   1.266 -0.3958 -0.2633 -0.1691
   77GLOH   H05 9253   3.983   8.340   1.173  2.5360  0.0042 -0.4879
   77GLOH    C3 9254   3.878   8.483   1.452  0.7433 -0.7655 -0.1704
   77GLOH   H06 9255   3.935   8.576   1.453  1.2133 -1.0566  1.1672
   77GLOH   H07 9256   3.945   8.416   1.507 -0.1619 -0.3521  1.4744
   77GLOH    O3 9257   3.746   8.484   1.513  0.3409 -0.1933 -0.1157
   77GLOH   H01 9258   3.720   8.572   1.545 -1.1579 -0.0250 -1.7808
   78GLOH   H03 9259   4.373   3.064   1.866  0.0877 -0.2728 -0.8345
   78GLOH    O1 9260   4.445   3.001   1.882  0.3187  0.0825 -0.4899
   78GLOH    C1 9261   4.560   3.085   1.906 -0.3243 -0.8289 -0.0329
   78GLOH   H02 9262   4.550   3.179   1.852 -0.4833  0.5402  2.3458
   78GLOH   H08 9263   4.653   3.034   1.880  1.4512  2.7144 -0.9644
   78GLOH    C2 9264   4.583   3.124   2.053 -0.4413 -0.0930  0.9677
   78GLOH   H04 9265   4.604   3.027   2.100 -1.6139 -0.3052  1.0695
   78GLOH    O2 9266   4.690   3.221   2.064  0.2060 -0.0271  0.2626
   78GLOH   H05 9267   4.723   3.216   2.156 -0.4442 -0.6398  0.4730
   78GLOH    C3 9268   4.449   3.182   2.104 -0.4268  0.2206  0.6690
   78GLOH   H06 9269   4.418   3.251   2.026 -2.7953  0.2415  1.5942
   78GLOH   H07 9270   4.467   3.240   2.195  1.2238  0.6839  0.0654
   78GLOH    O3 9271   4.346   3.095   2.130 -0.0831  0.0074 -0.3282
   78GLOH   H01 9272   4.285   3.115   2.057 -1.4172 -3.0393 -0.0947
   79GLOH   H03 9273   4.071   9.625   1.753  1.4720 -0.0516 -1.2035
   79GLOH    O1 9274   4.024   9.541   1.733  0.5468  0.0042  0.5661
   79GLOH    C1 9275   3.961   9.493   1.856 -0.1655  0.2481 -0.0758
   79GLOH   H02 9276   4.023   9.418   1.904  1.3987  2.4415  1.4104
   79GLOH   H08 9277   3.864   9.447   1.838 -0.5821  0.5789  1.2723
   79GLOH    C2 9278   3.928   9.609   1.956 -0.7171  0.9538  0.3390
   79GLOH   H04 9279   3.853   9.666   1.900 -2.1405 -1.2071 -0.0219
   79GLOH    O2 9280   3.861   9.558   2.077  0.8263  0.0478 -0.3548
   79GLOH   H05 9281   3.915   9.489   2.118 -1.8194 -1.1742  1.1729
   79GLOH    C3 9282   4.050   9.694   1.982 -0.0718 -0.7357 -0.7356
   79GLOH   H06 9283   4.130   9.637   2.029 -0.1778 -0.5007 -0.2646
   79GLOH   H07 9284   4.017   9.761   2.062 -0.6139 -2.4843  0.5430
   79GLOH    O3 9285   4.100   9.762   1.862 -0.3476  0.4327 -0.1845
   79GLOH   H01 9286   4.065   9.852   1.849  1.4933  1.0416 -1.1442
   80GLOH   H03 9287   3.107   9.717   2.521  0.4434  3.1471  1.3376
   80GLOH    O1 9288   3.038   9.761   2.469 -0.4066  0.2288 -0.1521
   80GLOH    C1 9289   3.042   9.901   2.501  0.2832  0.6683  0.1699
   80GLOH   H02 9290   3.124   9.947   2.446  0.1908  1.5139  0.7312
   80GLOH   H08 9291   3.042   9.933   2.605 -0.5928  2.1272 -0.2651
   80GLOH    C2 9292   2.914   9.971   2.454  0.0676 -0.2205  0.4315
   80GLOH   H04 9293   2.834   9.914   2.504  0.3508 -2.2387 -1.3503
   80GLOH    O2 9294   2.909  10.111   2.500  0.3163  0.1943 -0.2722
   80GLOH   H05 9295   2.875  10.174   2.434 -0.6966  1.4649  1.4262
   80GLOH    C3 9296   2.914   9.960   2.300 -0.5386  0.4580  0.2452
   80GLOH   H06 9297   2.996  10.022   2.265 -0.6290  0.0708 -0.6662
   80GLOH   H07 9298   2.826  10.005   2.254 -2.6628 -2.5339  1.2378
   80GLOH    O3 9299   2.923   9.823   2.258  0.3063  0.2056 -0.2367
   80GLOH   H01 9300   2.942   9.781   2.344  0.5378  0.4534 -0.1677
   81GLOH   H03 9301   2.390   5.860   0.640  1.1833 -0.2851 -1.7324
   81GLOH    O1 9302   2.345   5.943   0.613  0.7888  0.2212  0.3621
   81GLOH    C1 9303   2.263   5.924   0.497 -0.6372 -0.1043 -0.0226
   81GLOH   H02 9304   2.328   5.910   0.410  2.8565 -0.4797  2.5710
   81GLOH   H08 9305   2.201   6.010   0.471  0.6577  0.6923 -0.5342
   81GLOH    C2 9306   2.171   5.801   0.500  0.5352 -0.3629  0.1672
   81GLOH   H04 9307   2.106   5.820   0.587  0.3279 -3.0922  0.6272
   81GLOH    O2 9308   2.091   5.807   0.379  0.1771 -0.4190  0.5156
   81GLOH   H05 9309   2.041   5.890   0.378  3.5924  1.7411  1.7836
   81GLOH    C3 9310   2.239   5.666   0.511 -0.4856  0.1255  0.1141
   81GLOH   H06 9311   2.268   5.646   0.408 -2.3985 -0.1362 -0.4060
   81GLOH   H07 9312   2.168   5.587   0.536 -0.1305  0.2213  1.4689
   81GLOH    O3 9313   2.349   5.671   0.605  0.1147 -0.1727  0.0890
   81GLOH   H01 9314   2.346   5.600   0.672  0.9149 -0.8111 -0.5409
   82GLOH   H03 9315   3.825   9.770   0.039  0.6863  0.5488  0.4496
   82GLOH    O1 9316   3.877   9.687   0.035 -0.9115 -0.4370 -0.2228
   82GLOH    C1 9317   3.938   9.667   0.165 -0.4330 -0.4597 -0.1717
   82GLOH   H02 9318   3.871   9.675   0.251  1.9693  1.8235  1.5683
   82GLOH   H08 9319   4.017   9.737   0.191  1.0321 -2.2772  0.3367
   82GLOH    C2 9320   3.981   9.520   0.177 -0.0823 -0.3487  0.2625
   82GLOH   H04 9321   4.062   9.497   0.107  0.5521 -0.1413  0.9182
   82GLOH    O2 9322   4.040   9.498   0.307 -0.0508  0.2223  0.8858
   82GLOH   H05 9323   4.126   9.453   0.296  0.6561  2.2192 -2.1586
   82GLOH    C3 9324   3.859   9.427   0.160  0.3908  0.6962 -0.4210
   82GLOH   H06 9325   3.773   9.461   0.217  1.0335  0.6867  0.5578
   82GLOH   H07 9326   3.889   9.328   0.195 -3.0425 -0.1886  0.2042
   82GLOH    O3 9327   3.811   9.408   0.028  0.4929  0.7184 -0.4559
   82GLOH   H01 9328   3.757   9.483  -0.003  0.2923  0.9972  0.5690
   83GLOH   H03 9329   3.769   0.518   0.643  0.6237  1.4748  0.9282
   83GLOH    O1 9330   3.836   0.513   0.572 -0.1383 -0.0953  0.3046
   83GLOH    C1 9331   3.779   0.505   0.439 -0.0096 -0.7263  0.4205
   83GLOH   H02 9332   3.784   0.602   0.390  0.3618  0.5411  2.8611
   83GLOH   H08 9333   3.676   0.472   0.449  0.1742 -0.8880  2.0087
   83GLOH    C2 9334   3.859   0.407   0.345  0.0488  0.0268  0.2257
   83GLOH   H04 9335   3.857   0.303   0.381 -1.1200  0.0738  0.3301
   83GLOH    O2 9336   3.788   0.404   0.217  0.1162  0.3140  0.3576
   83GLOH   H05 9337   3.797   0.494   0.181 -2.0094  0.1662 -0.5812
   83GLOH    C3 9338   4.001   0.456   0.331 -0.4429  0.0078 -0.9735
   83GLOH   H06 9339   4.007   0.527   0.248  2.5383 -0.6378 -1.3597
   83GLOH   H07 9340   4.055   0.368   0.296  0.9500  0.9728 -1.2724
   83GLOH    O3 9341   4.063   0.500   0.454 -0.4592 -0.2443  0.3400
   83GLOH   H01 9342   3.993   0.482   0.520 -0.4135 -0.8675  0.2205
   84GLOH   H03 9343   3.618   2.646   2.548  1.0982  1.0937 -3.4640
   84GLOH    O1 9344   3.616   2.555   2.515 -0.4385  0.0681 -0.7008
   84GLOH    C1 9345   3.731   2.479   2.554 -0.3010  0.3485  0.5732
   84GLOH   H02 9346   3.717   2.431   2.651  1.5740 -2.7463 -0.6292
   84GLOH   H08 9347   3.823   2.538   2.553 -0.3616  0.4493  0.8872
   84GLOH    C2 9348   3.753   2.359   2.462  0.4255  0.1334  0.5922
   84GLOH   H04 9349   3.843   2.311   2.504 -0.7637 -1.2018  1.6781
   84GLOH    O2 9350   3.647   2.260   2.470 -0.0431  0.0997 -0.7073
   84GLOH   H05 9351   3.620   2.244   2.561 -2.8934 -2.0327 -1.8564
   84GLOH    C3 9352   3.797   2.387   2.315 -0.7720  0.2585 -0.1742
   84GLOH   H06 9353   3.743   2.473   2.276  1.6551  1.1783 -1.6138
   84GLOH   H07 9354   3.777   2.302   2.251  1.6706 -0.7522  0.3325
   84GLOH    O3 9355   3.940   2.417   2.303 -0.1657 -0.1322 -0.1352
   84GLOH   H01 9356   3.946   2.508   2.268 -2.3064 -0.5508 -1.6882
   85GLOH   H03 9357   3.868   4.634   0.708 -0.9527  1.0224  0.4244
   85GLOH    O1 9358   3.939   4.700   0.717 -0.3787  0.4065  0.4383
   85GLOH    C1 9359   3.885   4.802   0.807 -0.2172 -0.2418 -0.0764
   85GLOH   H02 9360   3.964   4.850   0.863  1.7500 -0.9048 -2.1705
   85GLOH   H08 9361   3.822   4.752   0.881 -0.3775  0.6319  0.3769
   85GLOH    C2 9362   3.803   4.899   0.728  0.6507  0.9427 -0.1789
   85GLOH   H04 9363   3.739   4.843   0.659 -0.5233 -1.0195  2.3853
   85GLOH    O2 9364   3.712   4.972   0.817  0.4550  0.2242  0.0350
   85GLOH   H05 9365   3.624   4.954   0.780  0.8709 -0.8202 -0.4609
   85GLOH    C3 9366   3.898   4.992   0.661 -0.1990  0.1169  1.1422
   85GLOH   H06 9367   3.963   5.046   0.730  0.3024  1.3240 -0.2464
   85GLOH   H07 9368   3.833   5.067   0.617  0.1772  0.5655  1.3555
   85GLOH    O3 9369   3.961   4.910   0.558  0.5341 -0.0577  0.1256
   85GLOH   H01 9370   3.984   4.829   0.608  0.6781 -0.9331 -1.3124
   86GLOH   H03 9371   3.313   7.784   0.485  1.0403 -0.3632  0.2647
   86GLOH    O1 9372   3.318   7.747   0.575 -0.1616 -0.1103  0.4468
   86GLOH    C1 9373   3.182   7.745   0.627  0.6291 -0.0017  0.2521
   86GLOH   H02 9374   3.112   7.697   0.560  1.0884  0.0288 -0.2485
   86GLOH   H08 9375   3.154   7.849   0.643 -0.5083 -0.2515 -0.1063
   86GLOH    C2 9376   3.178   7.680   0.770 -0.1510  0.1706  0.4650
   86GLOH   H04 9377   3.236   7.588   0.758  1.3667  1.3858 -1.8964
   86GLOH    O2 9378   3.249   7.773   0.854  0.5892 -0.2701  0.1367
   86GLOH   H05 9379   3.340   7.788   0.822  1.3924  1.0619  2.8591
   86GLOH    C3 9380   3.037   7.651   0.819 -0.0629 -0.4375 -0.4379
   86GLOH   H06 9381   2.991   7.745   0.851  1.3499  1.1513 -3.0020
   86GLOH   H07 9382   3.055   7.591   0.908  0.3499  1.0151  0.4827
   86GLOH    O3 9383   2.952   7.588   0.720  0.1271  0.2291 -0.2182
   86GLOH   H01 9384   2.861   7.584   0.756 -0.1418 -3.3458 -1.1036
   87GLOH   H03 9385   4.549   4.694   2.433  0.8712 -0.0649 -0.3204
   87GLOH    O1 9386   4.580   4.755   2.502 -0.2141 -0.2419  0.3274
   87GLOH    C1 9387   4.660   4.700   2.611 -0.5078  0.3905 -0.4522
   87GLOH   H02 9388   4.668   4.763   2.700  1.2134  0.0608 -0.3525
   87GLOH   H08 9389   4.762   4.695   2.571 -1.5560  0.1886 -3.1999
   87GLOH    C2 9390   4.615   4.558   2.651 -0.0905  0.2942 -0.4412
   87GLOH   H04 9391   4.623   4.495   2.561 -1.9929 -0.6637  0.0262
   87GLOH    O2 9392   4.705   4.502   2.753 -0.3460 -0.3951 -0.1817
   87GLOH   H05 9393   4.788   4.469   2.716  0.4150  1.1801  0.0636
   87GLOH    C3 9394   4.461   4.549   2.690 -0.3459 -0.8900 -0.0795
   87GLOH   H06 9395   4.441   4.443   2.707  1.5287 -1.2381  0.0609
   87GLOH   H07 9396   4.396   4.561   2.603  1.2394  2.3698 -0.8634
   87GLOH    O3 9397   4.415   4.616   2.811  0.4133  0.4524 -0.3383
   87GLOH   H01 9398   4.320   4.596   2.818  0.5697 -0.8853 -1.9347
   88GLOH   H03 9399   5.166   2.952   0.911 -2.5137  2.7699  1.3236
   88GLOH    O1 9400   5.151   2.977   0.818 -0.3352  0.4757  0.2894
   88GLOH    C1 9401   5.232   3.091   0.806 -0.1205  0.0606 -0.6786
   88GLOH   H02 9402   5.334   3.066   0.835  0.1106 -0.0673 -1.5713
   88GLOH   H08 9403   5.188   3.169   0.867 -1.1843  1.3434 -3.0174
   88GLOH    C2 9404   5.237   3.138   0.658 -0.7438 -0.5644 -0.2967
   88GLOH   H04 9405   5.136   3.159   0.617 -0.7489 -0.2730 -0.1336
   88GLOH    O2 9406   5.323   3.254   0.657 -0.5812 -0.3477  0.0203
   88GLOH   H05 9407   5.312   3.304   0.740 -0.7186 -0.0289 -0.1890
   88GLOH    C3 9408   5.283   3.019   0.574  0.4905 -0.0327  0.3177
   88GLOH   H06 9409   5.389   3.001   0.588 -0.0133 -1.2274  2.8206
   88GLOH   H07 9410   5.278   3.034   0.466  1.7965 -0.7789  0.1474
   88GLOH    O3 9411   5.222   2.889   0.603  0.4487  0.4592  0.2926
   88GLOH   H01 9412   5.197   2.889   0.697  1.2417  1.4687  0.5103
   89GLOH   H03 9413   2.337   6.588   2.309 -0.7227 -0.6516 -1.3311
   89GLOH    O1 9414   2.377   6.671   2.278 -0.2753 -0.3033  0.1585
   89GLOH    C1 9415   2.440   6.632   2.151  0.6937 -0.6090  0.2565
   89GLOH   H02 9416   2.487   6.721   2.110  0.6176 -0.2887  0.8642
   89GLOH   H08 9417   2.357   6.597   2.089  0.5345  0.4335 -0.1430
   89GLOH    C2 9418   2.539   6.518   2.169 -0.1422  0.4885 -0.7096
   89GLOH   H04 9419   2.606   6.546   2.251 -0.3064 -0.7712 -0.1307
   89GLOH    O2 9420   2.469   6.396   2.208  0.4973 -0.0704  0.5375
   89GLOH   H05 9421   2.428   6.367   2.125  2.3474  4.0790 -1.9622
   89GLOH    C3 9422   2.617   6.518   2.038 -0.0631  0.0410  0.9067
   89GLOH   H06 9423   2.544   6.503   1.959  1.5543  1.0301 -0.8100
   89GLOH   H07 9424   2.690   6.439   2.051  1.8884  1.6958  0.2579
   89GLOH    O3 9425   2.681   6.646   2.033 -0.6534  0.7548  0.3339
   89GLOH   H01 9426   2.651   6.678   1.946 -2.0300 -1.3776 -0.0091
   90GLOH   H03 9427   2.497   9.164   2.394  0.7505  0.1982 -1.1156
   90GLOH    O1 9428   2.500   9.068   2.378  0.2209 -0.0296  0.0824
   90GLOH    C1 9429   2.638   9.052   2.331  0.0656  0.5135  0.1073
   90GLOH   H02 9430   2.686   8.971   2.386  0.4853  0.4805 -0.3050
   90GLOH   H08 9431   2.693   9.143   2.354  0.5017  0.1668  0.4456
   90GLOH    C2 9432   2.644   9.025   2.180  0.5991  0.8131 -0.3010
   90GLOH   H04 9433   2.598   9.110   2.128  1.1911  2.0352  1.1322
   90GLOH    O2 9434   2.780   9.009   2.141 -0.2065 -0.4655 -0.3613
   90GLOH   H05 9435   2.816   9.098   2.125 -1.4513  0.2570  0.6931
   90GLOH    C3 9436   2.573   8.891   2.133 -0.5012  0.2184  0.0491
   90GLOH   H06 9437   2.641   8.809   2.155 -2.0522 -1.2322 -0.4061
   90GLOH   H07 9438   2.568   8.882   2.024  1.1960  0.0379 -0.0326
   90GLOH    O3 9439   2.453   8.874   2.210  0.1057  0.1731 -0.7556
   90GLOH   H01 9440   2.460   8.943   2.279  0.6571 -1.1717  0.5618
   91GLOH   H03 9441   3.774   8.406   2.493 -2.4451  0.2683  0.6475
   91GLOH    O1 9442   3.777   8.309   2.484  0.5996  0.3499  0.4277
   91GLOH    C1 9443   3.650   8.268   2.423 -0.1598 -0.2650  0.2116
   91GLOH   H02 9444   3.568   8.283   2.493  1.6101  0.4866  2.1955
   91GLOH   H08 9445   3.647   8.164   2.389 -1.6222 -0.2367  0.2100
   91GLOH    C2 9446   3.636   8.350   2.295 -0.3559 -0.5808  0.4316
   91GLOH   H04 9447   3.542   8.317   2.247 -0.6180  1.4828 -0.5465
   91GLOH    O2 9448   3.634   8.492   2.328 -0.3090 -0.5009  0.0545
   91GLOH   H05 9449   3.689   8.539   2.263 -0.8112  0.7874  0.5657
   91GLOH    C3 9450   3.751   8.322   2.190  0.2555  0.2425 -0.3577
   91GLOH   H06 9451   3.734   8.219   2.160  0.7546 -0.0690  0.4369
   91GLOH   H07 9452   3.849   8.330   2.236  0.4737  0.2412 -0.8158
   91GLOH    O3 9453   3.730   8.404   2.075  0.1915  0.4139  0.4452
   91GLOH   H01 9454   3.790   8.481   2.081  2.7755 -1.4363 -0.8362
   92GLOH   H03 9455   2.339   9.875  -0.003  2.1920 -1.1213  0.5107
   92GLOH    O1 9456   2.370   9.907  -0.090  0.1693  0.1241  0.2113
   92GLOH    C1 9457   2.292  10.021  -0.126  0.9248  0.3351  1.0115
   92GLOH   H02 9458   2.188   9.999  -0.099  1.1210 -1.3857  0.3954
   92GLOH   H08 9459   2.285  10.038  -0.233 -0.5118 -0.6079  0.9331
   92GLOH    C2 9460   2.336  10.149  -0.053  0.5843  0.1263 -0.1154
   92GLOH   H04 9461   2.273  10.232  -0.087 -0.4128 -0.5870 -0.0107
   92GLOH    O2 9462   2.310  10.137   0.084 -0.1838  0.2529 -1.1196
   92GLOH   H05 9463   2.391  10.100   0.123 -0.4068 -0.3139 -1.2043
   92GLOH    C3 9464   2.486  10.173  -0.079  0.1230 -0.1381  0.7310
   92GLOH   H06 9465   2.512  10.159  -0.184 -3.4505  1.9510 -0.5056
   92GLOH   H07 9466   2.549  10.102  -0.026  1.0213  0.2866  0.2430
   92GLOH    O3 9467   2.528  10.297  -0.021 -0.2004  0.3205 -0.4350
   92GLOH   H01 9468   2.574  10.349  -0.090 -0.0693 -0.9205 -1.2950
   93GLOH   H03 9469   4.331   5.398   0.215  0.1451 -0.2775 -1.9802
   93GLOH    O1 9470   4.237   5.401   0.241  0.6973 -1.0815  0.1611
   93GLOH    C1 9471   4.133   5.379   0.138 -0.2350  0.5995 -1.2710
   93GLOH   H02 9472   4.033   5.392   0.178  0.4923  1.1657  0.4320
   93GLOH   H08 9473   4.150   5.275   0.112  1.0228  0.4073  0.2275
   93GLOH    C2 9474   4.155   5.474   0.017  0.5747  0.1703  0.0229
   93GLOH   H04 9475   4.261   5.479  -0.011  0.5742  1.2799  0.1958
   93GLOH    O2 9476   4.068   5.445  -0.100  0.2854  0.5554  0.1054
   93GLOH   H05 9477   3.984   5.492  -0.090  0.8518  1.6969 -0.4561
   93GLOH    C3 9478   4.123   5.614   0.070  0.9583 -0.1181 -0.3439
   93GLOH   H06 9479   4.019   5.631   0.099  1.5051  1.6496  0.6945
   93GLOH   H07 9480   4.147   5.679  -0.014  0.7706  0.5753  0.1318
   93GLOH    O3 9481   4.209   5.648   0.189 -0.2645 -0.8991  0.4672
   93GLOH   H01 9482   4.222   5.560   0.230 -2.9960 -0.7916  1.7077
   94GLOH   H03 9483   3.057   6.947   1.941  0.0392  0.5068 -1.3134
   94GLOH    O1 9484   3.077   7.025   1.995  0.0261  0.0024 -0.5671
   94GLOH    C1 9485   3.103   7.125   1.898  0.3522  0.0033 -0.1649
   94GLOH   H02 9486   3.016   7.137   1.834  0.4939  1.8428 -0.0486
   94GLOH   H08 9487   3.194   7.102   1.843  0.0323 -0.3529 -0.5394
   94GLOH    C2 9488   3.123   7.258   1.977 -0.2475 -0.8074 -0.0978
   94GLOH   H04 9489   3.221   7.240   2.024  0.0950  0.8866 -0.1277
   94GLOH    O2 9490   3.124   7.370   1.885  0.1059 -0.2766 -0.3119
   94GLOH   H05 9491   3.052   7.362   1.821  1.7174 -1.6595 -2.0108
   94GLOH    C3 9492   3.013   7.282   2.081 -0.1529 -0.1558  0.1814
   94GLOH   H06 9493   2.918   7.292   2.029 -1.0760 -3.8244  1.0307
   94GLOH   H07 9494   3.025   7.378   2.132 -1.2829  0.2388 -0.2855
   94GLOH    O3 9495   3.018   7.185   2.187  0.0959 -0.4838 -0.3375
   94GLOH   H01 9496   3.060   7.107   2.144 -0.5207  0.4468 -2.7406
   95GLOH   H03 9497   2.409   7.700   1.085  0.7903  1.5682 -0.5930
   95GLOH    O1 9498   2.480   7.683   1.149 -0.0156  0.2412 -0.0332
   95GLOH    C1 9499   2.526   7.815   1.187 -0.2454 -0.1537 -0.2677
   95GLOH   H02 9500   2.444   7.887   1.189  0.0359  0.1558  0.5307
   95GLOH   H08 9501   2.595   7.858   1.115 -0.5566  0.9085  0.0560
   95GLOH    C2 9502   2.605   7.820   1.320  0.0993 -0.3509 -0.7675
   95GLOH   H04 9503   2.689   7.750   1.319  1.2000  0.9511 -1.5117
   95GLOH    O2 9504   2.656   7.952   1.341 -0.1271  0.2973  0.5456
   95GLOH   H05 9505   2.703   7.962   1.426 -0.2316  0.9858  0.5305
   95GLOH    C3 9506   2.509   7.774   1.429 -0.3409 -0.0729  0.0592
   95GLOH   H06 9507   2.550   7.788   1.529 -3.9388 -0.6932  1.6990
   95GLOH   H07 9508   2.494   7.667   1.421 -1.0656  0.0412 -0.1548
   95GLOH    O3 9509   2.380   7.838   1.431 -0.8073  0.2712  0.1345
   95GLOH   H01 9510   2.393   7.918   1.486 -0.2579 -0.2853  0.8272
   96GLOH   H03 9511   3.419   7.982   2.235  0.4889  1.1498 -0.1720
   96GLOH    O1 9512   3.372   8.008   2.155 -0.0508 -0.5044 -0.4135
   96GLOH    C1 9513   3.377   7.911   2.053 -0.5182  0.1380 -0.2232
   96GLOH   H02 9514   3.433   7.820   2.074 -0.5896  0.4484  1.3676
   96GLOH   H08 9515   3.450   7.954   1.983  1.3925 -0.2922  1.4670
   96GLOH    C2 9516   3.240   7.887   1.979 -0.7969  0.3152  0.0217
   96GLOH   H04 9517   3.226   7.972   1.911  0.8273  2.4080  2.2019
   96GLOH    O2 9518   3.228   7.772   1.892  0.7399 -0.5516 -0.1526
   96GLOH   H05 9519   3.235   7.693   1.948 -2.2149  0.7514  2.1801
   96GLOH    C3 9520   3.127   7.886   2.084  0.3532  0.0214 -0.8715
   96GLOH   H06 9521   3.123   7.982   2.136  0.5999 -0.5911  0.2950
   96GLOH   H07 9522   3.148   7.808   2.158 -0.5810 -0.1948 -0.8335
   96GLOH    O3 9523   2.995   7.855   2.022  0.3766 -0.2975 -0.4989
   96GLOH   H01 9524   2.971   7.930   1.964  1.7954  1.3068  0.9405
   97GLOH   H03 9525   3.679  10.140   0.730  0.0715 -1.0055  2.3604
   97GLOH    O1 9526   3.717  10.212   0.783  0.3939  0.4301  0.2242
   97GLOH    C1 9527   3.741  10.170   0.920 -0.1685  0.2814  0.2630
   97GLOH   H02 9528   3.738  10.061   0.916  0.4853  0.3169 -1.7703
   97GLOH   H08 9529   3.659  10.202   0.984 -0.3808  0.9821 -0.3501
   97GLOH    C2 9530   3.873  10.224   0.979  0.7161  0.6443 -0.7591
   97GLOH   H04 9531   3.872  10.334   0.977  1.1661  0.6284 -3.5010
   97GLOH    O2 9532   3.896  10.189   1.121  0.2863  0.3134  0.1771
   97GLOH   H05 9533   3.961  10.246   1.165  1.6096 -2.4590  1.9774
   97GLOH    C3 9534   3.990  10.182   0.891  0.0991 -0.0922 -0.2879
   97GLOH   H06 9535   3.958  10.193   0.787  0.1045 -2.8839 -0.6259
   97GLOH   H07 9536   4.012  10.078   0.914 -2.0283 -0.6971 -0.9006
   97GLOH    O3 9537   4.110  10.259   0.908  0.0912 -0.0699  0.4395
   97GLOH   H01 9538   4.099  10.351   0.876  0.1281 -0.2733 -0.1630
   98GLOH   H03 9539   2.802   1.556   1.911  0.5691  0.6457  0.9291
   98GLOH    O1 9540   2.869   1.485   1.907  0.3339  0.4609  0.0899
   98GLOH    C1 9541   2.969   1.537   1.824 -0.1993 -0.2685 -0.8828
   98GLOH   H02 9542   2.993   1.630   1.875 -4.4375  1.1107 -1.2418
   98GLOH   H08 9543   2.928   1.556   1.725 -3.2297 -0.1087  0.3735
   98GLOH    C2 9544   3.100   1.452   1.814  0.7576  0.7765  0.0230
   98GLOH   H04 9545   3.069   1.349   1.790  0.4884  0.8181  0.1824
   98GLOH    O2 9546   3.191   1.503   1.721  0.1632 -0.4416 -0.2070
   98GLOH   H05 9547   3.164   1.462   1.637 -0.3180 -1.1884  0.3043
   98GLOH    C3 9548   3.170   1.447   1.943 -0.0140 -0.4530 -0.0931
   98GLOH   H06 9549   3.186   1.552   1.970 -0.5499 -0.4187  0.0876
   98GLOH   H07 9550   3.259   1.385   1.936  1.9312  1.8907  2.5077
   98GLOH    O3 9551   3.084   1.401   2.046 -0.0659  0.2904  0.9555
   98GLOH   H01 9552   2.998   1.393   2.001  0.7609 -2.0571 -0.3104
   99GLOH   H03 9553   2.536   8.759   0.558  1.3978 -0.4310 -0.5304
   99GLOH    O1 9554   2.560   8.852   0.572 -0.4220 -0.0518  0.2362
   99GLOH    C1 9555   2.633   8.860   0.690 -0.1288 -0.3402 -0.8412
   99GLOH   H02 9556   2.738   8.868   0.661  0.0571  0.7740  0.0917
   99GLOH   H08 9557   2.616   8.774   0.754 -0.4597  0.9437  0.8636
   99GLOH    C2 9558   2.591   8.983   0.773  0.3205 -0.3219 -0.1866
   99GLOH   H04 9559   2.482   8.971   0.779  0.1165  1.4761 -0.1821
   99GLOH    O2 9560   2.653   8.998   0.907 -0.6698 -0.2041  0.0095
   99GLOH   H05 9561   2.750   9.004   0.902 -0.6169 -0.8607  0.1938
   99GLOH    C3 9562   2.604   9.114   0.687  0.0225 -0.9442  0.5541
   99GLOH   H06 9563   2.709   9.122   0.659  0.3208 -0.4123  1.7872
   99GLOH   H07 9564   2.573   9.204   0.740  1.6721  0.1057 -0.2027
   99GLOH    O3 9565   2.518   9.102   0.571 -0.4489 -0.3191 -0.1876
   99GLOH   H01 9566   2.526   9.007   0.550 -2.1548 -0.1367 -1.8479
  100GLOH   H03 9567   2.768   8.512   1.113 -0.9518 -0.6496  0.6470
  100GLOH    O1 9568   2.705   8.574   1.071 -0.0958  0.0414  0.3641
  100GLOH    C1 9569   2.628   8.640   1.170  0.3843 -0.0095  0.7649
  100GLOH   H02 9570   2.568   8.720   1.128 -2.0539 -1.2210  1.8822
  100GLOH   H08 9571   2.694   8.689   1.242  1.7589 -0.1142 -0.3912
  100GLOH    C2 9572   2.528   8.547   1.246 -0.1210 -0.1196 -0.4532
  100GLOH   H04 9573   2.589   8.467   1.292  0.4673  0.6876  0.1908
  100GLOH    O2 9574   2.475   8.625   1.357  0.4362 -0.6594 -0.1139
  100GLOH   H05 9575   2.388   8.592   1.385 -1.4253  3.5012 -0.4552
  100GLOH    C3 9576   2.420   8.483   1.160  0.0005  0.0972  0.0568
  100GLOH   H06 9577   2.455   8.472   1.057  0.4682 -1.8443  0.3932
  100GLOH   H07 9578   2.332   8.548   1.162 -0.5389 -0.6033 -0.4234
  100GLOH    O3 9579   2.383   8.360   1.219  0.2527  0.5182  0.4963
  100GLOH   H01 9580   2.463   8.306   1.205  0.1817  0.1837  1.3084
  101GLOH   H03 9581   4.536   4.666   0.206  0.6706  2.4788 -1.0501
  101GLOH    O1 9582   4.586   4.675   0.290 -0.0704 -0.2414 -0.2730
  101GLOH    C1 9583   4.563   4.559   0.374 -0.1563  0.4011  0.3131
  101GLOH   H02 9584   4.508   4.488   0.312 -1.6085  0.5159  1.4258
  101GLOH   H08 9585   4.487   4.587   0.447  0.8232  2.5105  0.5553
  101GLOH    C2 9586   4.686   4.497   0.448  0.0424 -0.9260 -0.0293
  101GLOH   H04 9587   4.730   4.572   0.517  1.5061 -1.7174 -0.0765
  101GLOH    O2 9588   4.654   4.381   0.527 -0.3877 -0.1829 -0.5292
  101GLOH   H05 9589   4.739   4.339   0.549  0.9474  2.1024 -1.1528
  101GLOH    C3 9590   4.797   4.463   0.345  0.6387  0.0608 -0.5127
  101GLOH   H06 9591   4.884   4.423   0.396  0.0329 -0.4083  0.1503
  101GLOH   H07 9592   4.826   4.558   0.300 -3.4441  1.3362 -0.6195
  101GLOH    O3 9593   4.763   4.373   0.245  0.0699  0.3548  0.1343
  101GLOH   H01 9594   4.729   4.422   0.168  0.9350 -2.8946 -2.4509
  102GLOH   H03 9595   3.968   5.673   1.722 -3.4920 -3.5117 -1.0164
  102GLOH    O1 9596   3.932   5.692   1.811  0.5486  0.3779 -0.0200
  102GLOH    C1 9597   3.807   5.622   1.832  0.2063  0.0084  0.1125
  102GLOH   H02 9598   3.821   5.524   1.785 -0.2300 -0.0159  0.0354
  102GLOH   H08 9599   3.723   5.669   1.781 -3.6221 -4.7980  1.5842
  102GLOH    C2 9600   3.756   5.625   1.977 -0.0728 -0.6284 -0.6492
  102GLOH   H04 9601   3.736   5.728   2.008 -1.0096 -0.9895 -0.0272
  102GLOH    O2 9602   3.633   5.552   1.995 -0.3567 -0.0727  0.1680
  102GLOH   H05 9603   3.605   5.571   2.086 -1.3948  0.0284 -0.1663
  102GLOH    C3 9604   3.863   5.566   2.071 -0.1538  0.4701 -0.3149
  102GLOH   H06 9605   3.860   5.457   2.064  2.7107  0.2156  1.4055
  102GLOH   H07 9606   3.830   5.600   2.170 -2.2071  1.3014 -1.2528
  102GLOH    O3 9607   3.998   5.608   2.040 -0.5591  0.1872 -0.3512
  102GLOH   H01 9608   3.989   5.648   1.952 -0.2845  0.5744 -0.2034
  103GLOH   H03 9609   3.259   0.787   0.464 -2.2687 -0.0559  0.8712
  103GLOH    O1 9610   3.229   0.824   0.379 -0.2916 -0.2292  0.0554
  103GLOH    C1 9611   3.329   0.919   0.331 -0.0866  0.6537  0.3793
  103GLOH   H02 9612   3.329   1.018   0.377 -1.4258  0.4864  0.7452
  103GLOH   H08 9613   3.308   0.938   0.226  1.6866 -1.8943 -0.4878
  103GLOH    C2 9614   3.471   0.860   0.352 -0.0586 -0.3243  0.3051
  103GLOH   H04 9615   3.535   0.928   0.295  0.4191  0.1741  1.4196
  103GLOH    O2 9616   3.517   0.871   0.490  0.0093  0.0967  0.6293
  103GLOH   H05 9617   3.563   0.956   0.501  0.7122  0.0803 -1.9087
  103GLOH    C3 9618   3.489   0.717   0.304 -1.0867  0.3626  1.1413
  103GLOH   H06 9619   3.397   0.664   0.327 -1.4931 -0.1397 -1.4627
  103GLOH   H07 9620   3.571   0.668   0.356 -0.8284 -1.4055 -0.8584
  103GLOH    O3 9621   3.508   0.714   0.159  0.4069 -0.2981 -0.2197
  103GLOH   H01 9622   3.478   0.624   0.138 -2.0504  0.4057  0.0226
  104GLOH   H03 9623   2.896   2.504   0.462  1.3787 -0.4013 -1.7886
  104GLOH    O1 9624   2.820   2.516   0.402  0.1936 -0.1016 -0.2419
  104GLOH    C1 9625   2.724   2.597   0.481 -0.4632  0.2528  0.3852
  104GLOH   H02 9626   2.765   2.685   0.531 -2.1962  0.6822  1.0646
  104GLOH   H08 9627   2.669   2.536   0.552  1.0241 -1.1369  0.3732
  104GLOH    C2 9628   2.614   2.655   0.384  0.1916  0.6551  0.2271
  104GLOH   H04 9629   2.546   2.569   0.367  1.9071 -0.6703 -0.0694
  104GLOH    O2 9630   2.537   2.756   0.451 -0.1176 -0.2982  0.0485
  104GLOH   H05 9631   2.564   2.774   0.543  1.1887  0.7028 -0.5154
  104GLOH    C3 9632   2.658   2.690   0.240 -0.0789  0.8955  0.6976
  104GLOH   H06 9633   2.718   2.781   0.245 -0.7295  1.3757  0.0071
  104GLOH   H07 9634   2.561   2.715   0.197  0.1164 -0.3788 -0.5061
  104GLOH    O3 9635   2.718   2.573   0.179  0.1937  0.3327 -0.5364
  104GLOH   H01 9636   2.770   2.529   0.249  0.3214 -0.0178 -0.8510
  105GLOH   H03 9637   3.403   2.032   0.685  0.0750  0.7723  0.4571
  105GLOH    O1 9638   3.430   2.125   0.672  0.8601  0.4532 -0.2684
  105GLOH    C1 9639   3.355   2.212   0.760 -0.5366 -0.1155 -0.4017
  105GLOH   H02 9640   3.402   2.310   0.759  1.1780 -0.9317 -0.9390
  105GLOH   H08 9641   3.365   2.174   0.862  0.7209  0.9348 -0.1119
  105GLOH    C2 9642   3.205   2.210   0.751  0.5578 -0.2736 -0.1468
  105GLOH   H04 9643   3.158   2.111   0.766  0.5168 -0.6238 -2.3681
  105GLOH    O2 9644   3.155   2.292   0.859  0.4363 -0.2711 -0.3158
  105GLOH   H05 9645   3.086   2.245   0.908  0.8323 -0.6141 -0.0896
  105GLOH    C3 9646   3.167   2.253   0.607 -0.3757  0.5672  0.6473
  105GLOH   H06 9647   3.218   2.184   0.540 -0.2053 -0.7707  2.1287
  105GLOH   H07 9648   3.195   2.357   0.591  0.9172 -0.2945 -3.2831
  105GLOH    O3 9649   3.028   2.233   0.584  0.9039  0.3686  0.6838
  105GLOH   H01 9650   3.016   2.146   0.542  1.5520  1.0440 -0.9436
  106GLOH   H03 9651   4.101   9.042   2.326  1.2437  0.4084  0.2012
  106GLOH    O1 9652   4.172   8.981   2.299  0.8346  0.0386 -0.0428
  106GLOH    C1 9653   4.120   8.847   2.289 -0.2588  0.1869 -0.3850
  106GLOH   H02 9654   4.097   8.816   2.187 -0.7917 -0.5490 -0.0432
  106GLOH   H08 9655   4.030   8.829   2.348  0.5710  0.1605  0.8731
  106GLOH    C2 9656   4.219   8.746   2.351  0.3616 -0.3016  0.0427
  106GLOH   H04 9657   4.317   8.771   2.310  0.4165  1.3096  1.1023
  106GLOH    O2 9658   4.214   8.756   2.497 -0.1828 -0.2355  0.0043
  106GLOH   H05 9659   4.125   8.735   2.530 -0.2466 -0.2551 -0.1868
  106GLOH    C3 9660   4.183   8.604   2.306  0.1039  0.1857 -0.0738
  106GLOH   H06 9661   4.251   8.530   2.347  0.6122 -0.1224 -1.4538
  106GLOH   H07 9662   4.207   8.600   2.200  1.2658 -0.5166  0.2045
  106GLOH    O3 9663   4.050   8.554   2.321 -0.1221 -0.1436  0.1384
  106GLOH   H01 9664   4.054   8.490   2.394 -0.0415  0.3798  0.5920
  107GLOH   H03 9665   2.916   2.326   0.648  0.7702  0.6908  0.8266
  107GLOH    O1 9666   2.845   2.361   0.704 -0.4637 -0.3424 -0.0438
  107GLOH    C1 9667   2.873   2.472   0.791 -0.7114  0.0310 -0.2154
  107GLOH   H02 9668   2.896   2.565   0.738  0.7762 -0.6570 -0.8192
  107GLOH   H08 9669   2.962   2.457   0.853  0.0240 -1.2258 -1.5509
  107GLOH    C2 9670   2.763   2.501   0.901 -0.6280 -0.6844 -0.0655
  107GLOH   H04 9671   2.661   2.516   0.862 -2.6086 -1.5977  4.5342
  107GLOH    O2 9672   2.754   2.405   1.002  0.0429 -0.2186  0.2634
  107GLOH   H05 9673   2.826   2.422   1.065  0.0497 -0.9601  0.4596
  107GLOH    C3 9674   2.808   2.633   0.967 -0.0737  0.6300 -0.0336
  107GLOH   H06 9675   2.910   2.624   1.003 -0.2504  3.6193  1.3622
  107GLOH   H07 9676   2.744   2.640   1.055 -1.3964 -0.0242 -0.9145
  107GLOH    O3 9677   2.792   2.749   0.884 -0.2012  0.4209  0.7168
  107GLOH   H01 9678   2.883   2.784   0.886  0.0462 -0.2662  2.3421
  108GLOH   H03 9679   2.370   5.053   1.775  0.6510  0.1743  0.1812
  108GLOH    O1 9680   2.443   5.062   1.839  0.6728  0.3823  0.1289
  108GLOH    C1 9681   2.489   4.928   1.857  0.3416 -0.1329 -0.4039
  108GLOH   H02 9682   2.423   4.876   1.926  1.7986 -3.0696 -1.1845
  108GLOH   H08 9683   2.590   4.927   1.897 -0.4447 -1.4847  1.6256
  108GLOH    C2 9684   2.488   4.849   1.725  0.3912 -0.5243  0.4589
  108GLOH   H04 9685   2.568   4.885   1.658 -1.7723  0.6584 -1.5695
  108GLOH    O2 9686   2.507   4.713   1.768 -0.1743 -0.1646 -0.1005
  108GLOH   H05 9687   2.501   4.659   1.688 -3.6342  0.8740 -0.6312
  108GLOH    C3 9688   2.354   4.866   1.649  0.2059 -0.0121  0.1920
  108GLOH   H06 9689   2.285   4.799   1.701 -0.0192  0.6337  0.7303
  108GLOH   H07 9690   2.363   4.828   1.547 -0.0432 -2.2929  0.9923
  108GLOH    O3 9691   2.311   5.001   1.639 -0.6192 -0.3927  0.1301
  108GLOH   H01 9692   2.279   5.004   1.547 -0.3916 -0.2131  0.0550
  109GLOH   H03 9693   3.253   2.667   0.320 -0.0668 -0.9312  0.3555
  109GLOH    O1 9694   3.245   2.656   0.224 -0.1638  0.5633  0.1886
  109GLOH    C1 9695   3.147   2.553   0.196  0.0666 -0.1068 -0.9777
  109GLOH   H02 9696   3.124   2.567   0.091  1.5307  0.7708 -1.1986
  109GLOH   H08 9697   3.055   2.558   0.254  0.5889 -1.5521  0.0129
  109GLOH    C2 9698   3.199   2.410   0.222 -0.1538  0.0313 -0.4627
  109GLOH   H04 9699   3.280   2.400   0.148  0.7225  0.1277  0.4777
  109GLOH    O2 9700   3.251   2.391   0.356 -0.1404 -0.2728 -0.1924
  109GLOH   H05 9701   3.342   2.356   0.352 -0.2904 -0.6063 -0.7161
  109GLOH    C3 9702   3.098   2.301   0.181 -0.1912 -0.6347  0.8706
  109GLOH   H06 9703   3.010   2.316   0.245 -0.5731  0.1973  0.1539
  109GLOH   H07 9704   3.143   2.206   0.211 -0.8588 -0.2369  3.2314
  109GLOH    O3 9705   3.070   2.298   0.037 -0.0106 -0.3991  0.1577
  109GLOH   H01 9706   3.041   2.383   0.001 -1.1564 -1.3783 -1.2469
  110GLOH   H03 9707   3.251   0.504   1.951  0.2929  0.0925  0.1062
  110GLOH    O1 9708   3.199   0.561   2.011  0.3780  0.7368 -0.4243
  110GLOH    C1 9709   3.061   0.516   1.979 -0.0374  0.0150  0.5102
  110GLOH   H02 9710   3.062   0.503   1.871  3.1354 -0.4776  0.5605
  110GLOH   H08 9711   2.993   0.600   1.993  1.1055  0.8632  1.0396
  110GLOH    C2 9712   3.018   0.390   2.062 -0.7333  0.1448  0.2073
  110GLOH   H04 9713   3.102   0.322   2.046 -2.1028 -1.6404  0.4578
  110GLOH    O2 9714   3.013   0.420   2.208  0.5241 -0.1580 -0.4812
  110GLOH   H05 9715   3.096   0.420   2.258 -0.0713 -0.0530  0.5131
  110GLOH    C3 9716   2.891   0.340   2.005 -0.2319  0.2501 -0.2190
  110GLOH   H06 9717   2.809   0.412   2.003  0.7227  1.5341  3.3942
  110GLOH   H07 9718   2.854   0.251   2.056  1.4239 -0.1415  0.3232
  110GLOH    O3 9719   2.911   0.325   1.863 -0.6515  0.4890  0.3335
  110GLOH   H01 9720   2.872   0.405   1.823 -0.5573  0.8843  1.0350
  111GLOH   H03 9721   2.846   6.696   2.086  0.2117 -1.0865  2.4667
  111GLOH    O1 9722   2.937   6.703   2.119  0.9403  0.3904  0.2321
  111GLOH    C1 9723   2.957   6.573   2.169 -0.6901  0.0874  0.2276
  111GLOH   H02 9724   3.058   6.535   2.157 -1.6143 -1.9553 -1.5348
  111GLOH   H08 9725   2.901   6.491   2.123  1.5360 -1.2886 -0.0870
  111GLOH    C2 9726   2.936   6.563   2.315 -0.4164 -0.1767  0.0824
  111GLOH   H04 9727   2.834   6.593   2.344 -0.7978 -1.4468  0.0928
  111GLOH    O2 9728   2.950   6.425   2.368 -0.1434 -0.3832 -0.2473
  111GLOH   H05 9729   2.948   6.429   2.466  1.1799  3.3676 -0.3042
  111GLOH    C3 9730   3.043   6.651   2.382 -0.7712 -0.5228 -0.0172
  111GLOH   H06 9731   3.057   6.743   2.325 -0.9312  0.4909  1.5510
  111GLOH   H07 9732   3.135   6.592   2.385 -0.6097 -0.2076  1.6298
  111GLOH    O3 9733   2.990   6.696   2.512 -0.6626 -0.5248  0.4904
  111GLOH   H01 9734   2.916   6.756   2.488 -2.0884 -2.8536 -1.1314
  112GLOH   H03 9735   2.786   8.191   2.359  0.9384  0.4654 -1.1827
  112GLOH    O1 9736   2.707   8.247   2.357  0.7927  0.3299  0.3028
  112GLOH    C1 9737   2.590   8.167   2.345 -0.1568  0.3489 -1.1459
  112GLOH   H02 9738   2.607   8.085   2.415 -0.2753 -0.1436 -1.6840
  112GLOH   H08 9739   2.586   8.121   2.246  2.1327 -0.6618 -0.7913
  112GLOH    C2 9740   2.459   8.236   2.371  0.0670 -0.0653 -0.2022
  112GLOH   H04 9741   2.471   8.287   2.467  0.3637  1.3011 -0.9500
  112GLOH    O2 9742   2.418   8.332   2.269 -0.2610  0.3519  0.1387
  112GLOH   H05 9743   2.370   8.280   2.202  1.0081 -1.3437  0.5223
  112GLOH    C3 9744   2.347   8.128   2.398  0.5558 -0.0062  0.9232
  112GLOH   H06 9745   2.322   8.069   2.310  1.1409 -0.9681  1.3939
  112GLOH   H07 9746   2.263   8.187   2.434  0.2009  0.0998 -0.0735
  112GLOH    O3 9747   2.368   8.039   2.509 -0.0593 -0.1953 -0.0380
  112GLOH   H01 9748   2.395   8.085   2.590 -1.9238  1.5150 -0.3530
  113GLOH   H03 9749   2.811   9.279   0.902 -0.6559 -4.1116  0.1652
  113GLOH    O1 9750   2.887   9.267   0.842  0.2586  0.3909  0.2907
  113GLOH    C1 9751   2.992   9.190   0.903 -0.3225 -0.6431  0.4862
  113GLOH   H02 9752   2.958   9.142   0.994 -0.4455  0.2223  0.9042
  113GLOH   H08 9753   3.071   9.253   0.943  1.9610 -3.9505  1.3967
  113GLOH    C2 9754   3.059   9.086   0.818  0.0401 -0.4798  0.0532
  113GLOH   H04 9755   3.067   9.137   0.721 -0.2822  2.2965  1.4364
  113GLOH    O2 9756   3.176   9.041   0.884 -0.2115  0.0936 -0.2234
  113GLOH   H05 9757   3.150   8.999   0.968  2.2931 -0.6175  0.2217
  113GLOH    C3 9758   2.968   8.970   0.781 -0.2074 -0.0499 -0.0770
  113GLOH   H06 9759   3.035   8.894   0.741  0.4934  0.1829  0.6232
  113GLOH   H07 9760   2.903   8.992   0.697  0.2489  2.1080  0.1153
  113GLOH    O3 9761   2.902   8.910   0.896 -0.3617 -0.4977 -0.2101
  113GLOH   H01 9762   2.865   8.825   0.866 -0.2595 -0.5340 -0.2283
  114GLOH   H03 9763   4.873   2.250   2.360  0.9899  2.3991  1.7441
  114GLOH    O1 9764   4.908   2.273   2.272 -0.1728  0.1266  0.6354
  114GLOH    C1 9765   4.895   2.177   2.164 -0.2986  0.5522  0.1381
  114GLOH   H02 9766   4.957   2.092   2.195 -1.0805 -0.3305 -0.6723
  114GLOH   H08 9767   4.945   2.207   2.072 -1.4831 -0.7393 -0.9504
  114GLOH    C2 9768   4.751   2.126   2.134 -0.2103 -0.4301 -0.2443
  114GLOH   H04 9769   4.755   2.053   2.052  2.2170 -0.9853  0.3360
  114GLOH    O2 9770   4.686   2.062   2.243 -0.3505  0.6439 -0.0834
  114GLOH   H05 9771   4.745   2.029   2.313 -0.1671  0.0968 -0.4931
  114GLOH    C3 9772   4.669   2.239   2.072 -0.6635 -0.1089  0.2438
  114GLOH   H06 9773   4.649   2.316   2.146 -0.0640  0.3281 -0.0313
  114GLOH   H07 9774   4.576   2.191   2.043 -1.9725  1.6324  1.5096
  114GLOH    O3 9775   4.731   2.294   1.956 -0.0875  0.2015 -0.2059
  114GLOH   H01 9776   4.699   2.253   1.873 -0.4867  0.0081  0.0396
  115GLOH   H03 9777   4.217   1.093   1.721 -3.4883 -0.5515 -0.7209
  115GLOH    O1 9778   4.190   1.153   1.793  0.3366  0.1269  0.2213
  115GLOH    C1 9779   4.259   1.277   1.783 -0.3879  0.2485  0.6974
  115GLOH   H02 9780   4.362   1.281   1.816  0.0427  1.5971 -0.7363
  115GLOH   H08 9781   4.216   1.353   1.849  1.1109 -0.2036  2.2229
  115GLOH    C2 9782   4.259   1.321   1.635 -0.1826  0.1695  0.2992
  115GLOH   H04 9783   4.157   1.330   1.593 -1.4118 -1.7162  2.7035
  115GLOH    O2 9784   4.328   1.451   1.614  0.6973  0.7173  0.3400
  115GLOH   H05 9785   4.338   1.469   1.519 -0.7548 -0.1668  0.0063
  115GLOH    C3 9786   4.331   1.213   1.551  0.4898 -0.1970 -0.1378
  115GLOH   H06 9787   4.422   1.177   1.599  0.6800 -1.8380 -1.7004
  115GLOH   H07 9788   4.358   1.261   1.457  4.3482 -1.5612  0.1771
  115GLOH    O3 9789   4.254   1.100   1.521 -0.3910 -0.4144  0.4780
  115GLOH   H01 9790   4.224   1.117   1.429 -1.6386  0.9983  1.1251
  116GLOH   H03 9791   4.767   3.114   2.335  0.2008 -0.0794  0.0088
  116GLOH    O1 9792   4.793   3.194   2.287 -0.0356  0.6285  1.0354
  116GLOH    C1 9793   4.787   3.308   2.370  0.2836 -0.1314 -0.6329
  116GLOH   H02 9794   4.716   3.291   2.450 -1.6831  2.0879 -1.8571
  116GLOH   H08 9795   4.747   3.384   2.303 -1.8621 -0.3980  0.3246
  116GLOH    C2 9796   4.922   3.359   2.416  0.3625  0.7896  0.5889
  116GLOH   H04 9797   4.963   3.392   2.319  1.4584 -0.5925  0.5619
  116GLOH    O2 9798   4.905   3.472   2.501  0.3853  0.5444 -0.1218
  116GLOH   H05 9799   4.840   3.446   2.568  0.6879 -0.6951 -0.2906
  116GLOH    C3 9800   5.006   3.243   2.472  0.1195  0.6113  0.0810
  116GLOH   H06 9801   5.098   3.278   2.519 -0.5468  0.6174  1.3941
  116GLOH   H07 9802   5.042   3.175   2.396  2.0861  0.2007  1.3446
  116GLOH    O3 9803   4.939   3.160   2.575 -0.7676 -1.0323  1.0492
  116GLOH   H01 9804   4.933   3.220   2.651 -1.3332 -0.1579  0.3221
  117GLOH   H03 9805   4.379   0.557   0.987  0.2190  0.3819  0.4535
  117GLOH    O1 9806   4.439   0.576   0.911 -0.2466 -0.2092 -0.0645
  117GLOH    C1 9807   4.425   0.484   0.810 -0.0642 -0.0729 -0.1719
  117GLOH   H02 9808   4.350   0.412   0.840 -1.1710  1.2791  0.3655
  117GLOH   H08 9809   4.521   0.438   0.786 -0.4158 -1.7550  1.5115
  117GLOH    C2 9810   4.374   0.560   0.684 -0.5212 -0.7698 -0.3405
  117GLOH   H04 9811   4.348   0.489   0.604  0.7703  1.4378 -2.8098
  117GLOH    O2 9812   4.251   0.634   0.712  0.1540  0.5658 -0.4460
  117GLOH   H05 9813   4.219   0.698   0.646  0.1771  0.8110 -0.2184
  117GLOH    C3 9814   4.483   0.662   0.638  0.3810  0.8720 -0.3859
  117GLOH   H06 9815   4.442   0.711   0.550  1.5446  0.9782 -0.8827
  117GLOH   H07 9816   4.568   0.598   0.611 -0.8594 -1.4467  1.0548
  117GLOH    O3 9817   4.517   0.751   0.744  0.0773 -0.3812 -0.4339
  117GLOH   H01 9818   4.498   0.717   0.834 -1.8539 -1.0512 -1.0676
  118GLOH   H03 9819   4.356   8.821   2.583 -0.3816 -3.3228  2.2320
  118GLOH    O1 9820   4.418   8.861   2.646  0.1381 -0.1215 -0.1902
  118GLOH    C1 9821   4.388   9.002   2.651  0.1930  0.6993  0.3353
  118GLOH   H02 9822   4.304   9.032   2.587 -0.0253  1.8494  1.1416
  118GLOH   H08 9823   4.478   9.055   2.622  1.0199 -1.1216 -0.5036
  118GLOH    C2 9824   4.352   9.056   2.789 -0.5099  1.0850 -0.6382
  118GLOH   H04 9825   4.438   9.115   2.824 -1.3383  1.4493  0.8280
  118GLOH    O2 9826   4.229   9.134   2.796 -0.1134  0.3715 -0.8673
  118GLOH   H05 9827   4.160   9.096   2.740  0.9003 -0.5265 -1.5211
  118GLOH    C3 9828   4.338   8.939   2.882 -0.7587  0.0968 -0.3017
  118GLOH   H06 9829   4.258   8.873   2.850 -0.6410 -0.6355  0.9006
  118GLOH   H07 9830   4.314   8.960   2.986 -0.7575 -0.9290 -0.0926
  118GLOH    O3 9831   4.453   8.858   2.892 -0.3251  0.4200  0.0378
  118GLOH   H01 9832   4.476   8.834   2.800  0.2447  0.8051  0.0785
  119GLOH   H03 9833   5.062   3.824  -0.057  0.1658  0.2718 -0.2081
  119GLOH    O1 9834   5.028   3.908  -0.021 -0.2537  0.0311 -0.0324
  119GLOH    C1 9835   5.103   3.972   0.084 -0.2020 -0.1011 -0.3512
  119GLOH   H02 9836   5.133   4.072   0.053  3.8136 -0.4679  1.9523
  119GLOH   H08 9837   5.196   3.917   0.098  0.3899  1.0537  0.3479
  119GLOH    C2 9838   5.022   3.993   0.211 -0.1235  0.2190  0.2879
  119GLOH   H04 9839   4.992   3.889   0.228 -0.8035 -0.3157 -3.8124
  119GLOH    O2 9840   5.103   4.042   0.320 -0.0875  0.2911  0.6015
  119GLOH   H05 9841   5.160   3.966   0.340 -2.5803 -2.0243 -0.7910
  119GLOH    C3 9842   4.905   4.084   0.169  0.9181 -0.8261  0.1176
  119GLOH   H06 9843   4.842   4.023   0.105 -2.0183  0.7051  1.4629
  119GLOH   H07 9844   4.933   4.160   0.096 -0.5364  0.7721  1.1831
  119GLOH    O3 9845   4.820   4.123   0.279  0.2275 -0.2347  0.1258
  119GLOH   H01 9846   4.787   4.214   0.271 -0.7990 -0.4269  1.9847
  120GLOH   H03 9847   5.060   3.149   0.265 -0.1910  0.4990 -2.4547
  120GLOH    O1 9848   5.048   3.243   0.287 -0.4096 -0.0320 -0.1559
  120GLOH    C1 9849   5.113   3.310   0.183  0.0699 -1.1455 -0.4740
  120GLOH   H02 9850   5.145   3.242   0.104  0.4279 -0.7787 -0.6534
  120GLOH   H08 9851   5.203   3.363   0.217  1.3381 -3.2301 -0.5068
  120GLOH    C2 9852   5.016   3.401   0.106  0.0018  0.9728  0.6579
  120GLOH   H04 9853   5.065   3.441   0.016  1.2116  2.9889  2.1842
  120GLOH    O2 9854   4.909   3.338   0.037 -0.1603  0.0054 -0.6614
  120GLOH   H05 9855   4.840   3.402   0.014 -0.6378 -0.2995 -0.0800
  120GLOH    C3 9856   4.965   3.519   0.193 -0.2676 -0.5292  0.1013
  120GLOH   H06 9857   4.882   3.484   0.254 -1.7673 -0.0082 -1.5918
  120GLOH   H07 9858   4.915   3.596   0.135  0.5805 -0.6748 -0.8466
  120GLOH    O3 9859   5.070   3.569   0.277 -0.2247  0.1714 -0.0834
  120GLOH   H01 9860   5.073   3.510   0.355  0.7827  0.5173  0.1355
  121ACOH    H4 9861   4.088   8.741   0.350 -0.1566 -1.0518  1.3362
  121ACOH    O2 9862   4.162   8.773   0.405  0.1438  0.5136  0.0544
  121ACOH    C2 9863   4.252   8.667   0.415  0.0291  0.8513 -0.2314
  121ACOH    O1 9864   4.240   8.552   0.369  0.5174 -0.3885 -0.0093
  121ACOH    C1 9865   4.382   8.720   0.460  0.0918  0.6627 -0.0966
  121ACOH    H1 9866   4.410   8.660   0.546 -0.1464 -0.7241 -0.9689
  121ACOH    H2 9867   4.390   8.828   0.472  0.7600  0.6003  0.0368
  121ACOH    H3 9868   4.453   8.686   0.385 -0.2303  1.6474 -0.8620
  122ACOH    H4 9869   2.460   4.281   2.289  0.4376  0.7366  0.8079
  122ACOH    O2 9870   2.371   4.307   2.320  0.1174  0.2221  0.3312
  122ACOH    C2 9871   2.387   4.415   2.398  0.5300  0.9186 -0.0453
  122ACOH    O1 9872   2.455   4.432   2.496 -0.5861  0.9860 -0.2035
  122ACOH    C1 9873   2.281   4.513   2.375 -0.5586 -0.0106 -0.1985
  122ACOH    H1 9874   2.306   4.618   2.390  0.6422 -0.0967 -1.5602
  122ACOH    H2 9875   2.204   4.473   2.441  0.2812 -0.4177  0.5425
  122ACOH    H3 9876   2.249   4.493   2.272  0.1551 -0.6827 -0.2919
  123ACOH    H4 9877   5.221   3.264   1.252  1.2091 -0.7696  0.7696
  123ACOH    O2 9878   5.293   3.313   1.208 -0.3451  0.5840 -0.3416
  123ACOH    C2 9879   5.379   3.225   1.155 -0.0834 -0.4228  0.2741
  123ACOH    O1 9880   5.356   3.109   1.123 -0.1524 -0.2284  0.2453
  123ACOH    C1 9881   5.508   3.288   1.105 -0.0487  0.2220  0.3938
  123ACOH    H1 9882   5.510   3.387   1.149 -0.5458 -0.1114  1.1749
  123ACOH    H2 9883   5.493   3.296   0.998 -1.9451  0.4879  0.6707
  123ACOH    H3 9884   5.591   3.223   1.136 -0.8253 -0.9648  0.0277
  124ACOH    H4 9885   3.896   8.222   2.550  0.0729 -1.1037 -2.4112
  124ACOH    O2 9886   3.974   8.177   2.586 -0.0543  0.4196 -0.1449
  124ACOH    C2 9887   3.934   8.068   2.660 -0.2407 -0.0089 -0.3961
  124ACOH    O1 9888   3.827   8.012   2.645 -0.0790  0.1229  0.2133
  124ACOH    C1 9889   4.059   8.001   2.703 -0.7308 -0.3171  0.5966
  124ACOH    H1 9890   4.043   7.941   2.792 -1.9546  0.2910  0.8041
  124ACOH    H2 9891   4.140   8.073   2.713  0.1239 -0.9478 -1.5641
  124ACOH    H3 9892   4.094   7.939   2.621  0.9266  1.7727 -0.3198
  125ACOH    H4 9893   3.390   0.915   1.283  0.8719  0.5303  0.3664
  125ACOH    O2 9894   3.457   0.858   1.242 -0.0346  0.0393 -0.4378
  125ACOH    C2 9895   3.572   0.880   1.310  0.7152  0.2593  0.2722
  125ACOH    O1 9896   3.606   0.942   1.410 -0.4626  0.2251  0.0180
  125ACOH    C1 9897   3.675   0.797   1.244 -0.3582  0.0023 -0.2193
  125ACOH    H1 9898   3.673   0.701   1.296 -3.7883 -0.2109 -0.6333
  125ACOH    H2 9899   3.769   0.851   1.250 -0.2652 -0.2770  1.0426
  125ACOH    H3 9900   3.648   0.783   1.139  1.8917  1.7093 -1.0521
  126ACOH    H4 9901   3.986   1.752   0.585 -1.3007 -0.6104 -1.6620
  126ACOH    O2 9902   4.047   1.786   0.517 -0.0504  0.5239 -0.0003
  126ACOH    C2 9903   3.981   1.825   0.406 -0.2170  0.0153  0.2174
  126ACOH    O1 9904   3.860   1.813   0.390  0.3714 -0.1113 -0.2568
  126ACOH    C1 9905   4.071   1.910   0.326  0.3342  0.0731 -0.8564
  126ACOH    H1 9906   4.171   1.866   0.316 -0.6452 -2.4595  0.0406
  126ACOH    H2 9907   4.065   2.009   0.372 -0.0377 -0.6863  0.7766
  126ACOH    H3 9908   4.027   1.917   0.227 -1.8892  0.6487  0.1505
  127ACOH    H4 9909   5.259   9.707   1.254  1.8735 -0.5762  0.0231
  127ACOH    O2 9910   5.239   9.622   1.211 -0.3356 -0.0723  0.0157
  127ACOH    C2 9911   5.143   9.632   1.122  0.5436 -0.4420  0.6521
  127ACOH    O1 9912   5.094   9.741   1.090 -0.1124  0.4009  0.3089
  127ACOH    C1 9913   5.116   9.504   1.046  0.0179  0.0015 -0.1660
  127ACOH    H1 9914   5.106   9.422   1.118  1.0626 -0.9764 -1.1163
  127ACOH    H2 9915   5.194   9.490   0.971  0.1378  0.6576 -0.1660
  127ACOH    H3 9916   5.020   9.514   0.995 -0.1028  1.1658  0.2986
  128ACOH    H4 9917   4.006   0.933   1.421  1.5481  1.4132  1.1309
  128ACOH    O2 9918   3.953   1.008   1.452  0.3167  1.0291  0.0209
  128ACOH    C2 9919   3.922   1.098   1.356 -0.8452 -0.3552 -0.1476
  128ACOH    O1 9920   3.942   1.085   1.235  0.5202  0.0057  0.1191
  128ACOH    C1 9921   3.884   1.228   1.421  0.4175 -0.2439 -0.6411
  128ACOH    H1 9922   3.862   1.304   1.346  1.2892 -2.0570 -2.7880
  128ACOH    H2 9923   3.969   1.255   1.484  0.4345 -0.9710 -0.3470
  128ACOH    H3 9924   3.798   1.206   1.483  2.3850 -0.9043  1.9448
  129ACOH    H4 9925   4.159  10.152   1.010  1.7762  0.4565 -0.8579
  129ACOH    O2 9926   4.203  10.097   1.078 -0.2114  0.6341  0.6105
  129ACOH    C2 9927   4.306  10.173   1.121 -0.0655 -0.3769 -0.4306
  129ACOH    O1 9928   4.312  10.296   1.140 -0.0192 -0.0499  0.3014
  129ACOH    C1 9929   4.408  10.075   1.167  0.0669 -0.3735 -0.0196
  129ACOH    H1 9930   4.428  10.111   1.268  0.3429  2.1124 -0.9388
  129ACOH    H2 9931   4.503  10.086   1.115 -0.1477  2.4660  0.1142
  129ACOH    H3 9932   4.380   9.970   1.168  1.9746 -0.9109  1.8413
  130ACOH    H4 9933   2.273   7.994   0.898 -1.0977  0.4667 -0.4095
  130ACOH    O2 9934   2.257   7.945   0.815  0.0855  0.4411 -0.6257
  130ACOH    C2 9935   2.272   7.809   0.838  0.3325 -0.0187  0.5384
  130ACOH    O1 9936   2.267   7.760   0.950 -0.8820 -0.1550 -0.9224
  130ACOH    C1 9937   2.242   7.724   0.718 -0.3496 -0.1789 -0.3710
  130ACOH    H1 9938   2.157   7.766   0.665  0.5887  2.0545 -0.1519
  130ACOH    H2 9939   2.223   7.620   0.744 -0.2599  0.0352  0.5846
  130ACOH    H3 9940   2.329   7.728   0.652  0.3943  1.6139  0.6779
  131ACOH    H4 9941   2.105   6.790   0.982 -2.0044 -2.3623  2.5512
  131ACOH    O2 9942   2.053   6.863   1.019 -0.2112  0.0539  0.4915
  131ACOH    C2 9943   2.130   6.974   1.016  0.2409 -0.3637  0.1973
  131ACOH    O1 9944   2.247   6.986   0.984 -0.5072 -0.2702 -0.2284
  131ACOH    C1 9945   2.066   7.091   1.093  0.0101  0.3323 -0.5394
  131ACOH    H1 9946   2.044   7.175   1.028  2.1848  0.5209 -1.0648
  131ACOH    H2 9947   2.144   7.123   1.162  0.5549 -2.5203  0.2330
  131ACOH    H3 9948   1.983   7.058   1.157  0.3421 -2.0786 -1.3067
  132ACOH    H4 9949   2.484   5.871  -0.021 -0.2321 -0.4087 -0.0031
  132ACOH    O2 9950   2.506   5.966  -0.022  0.2739 -0.5292 -1.1462
  132ACOH    C2 9951   2.522   6.004   0.109 -0.0733 -0.0627 -0.3885
  132ACOH    O1 9952   2.533   5.929   0.202  0.3304 -0.0308 -0.2227
  132ACOH    C1 9953   2.573   6.145   0.120  0.2370  0.4070  0.2292
  132ACOH    H1 9954   2.679   6.144   0.097  0.4816 -0.6474  1.3584
  132ACOH    H2 9955   2.561   6.178   0.223 -3.3528  0.2899 -0.0690
  132ACOH    H3 9956   2.524   6.218   0.055  0.2358  0.7866  0.6528
  133ACOH    H4 9957   3.633   8.416   1.460  0.8025 -0.8092  2.1783
  133ACOH    O2 9958   3.550   8.365   1.460  0.1701  0.1721 -0.1831
  133ACOH    C2 9959   3.444   8.419   1.394  0.1661  0.0820  0.1457
  133ACOH    O1 9960   3.443   8.521   1.332 -0.9929  0.3384  0.5064
  133ACOH    C1 9961   3.321   8.342   1.414  0.1896  0.6948  0.7541
  133ACOH    H1 9962   3.287   8.293   1.323 -2.9931  1.4999  1.4573
  133ACOH    H2 9963   3.244   8.413   1.444 -2.2388 -1.5270 -0.0050
  133ACOH    H3 9964   3.335   8.265   1.491 -0.1794 -0.2159 -0.0739
  134ACOH    H4 9965   4.290   5.787   0.132 -1.0391  0.1918 -0.3034
  134ACOH    O2 9966   4.340   5.853   0.082 -0.3103 -0.4663 -0.4613
  134ACOH    C2 9967   4.275   5.967   0.105  0.4115  0.2021  0.0408
  134ACOH    O1 9968   4.162   5.986   0.143 -0.0477 -0.2143 -1.0744
  134ACOH    C1 9969   4.360   6.083   0.071  0.3027 -0.1198  0.2123
  134ACOH    H1 9970   4.321   6.181   0.097  0.9315 -0.0372  0.8702
  134ACOH    H2 9971   4.377   6.078  -0.037 -0.9422 -2.2857  0.0930
  134ACOH    H3 9972   4.453   6.059   0.123  1.1722  1.4660 -0.5728
  135ACOH    H4 9973   5.541   3.552   0.747 -2.7024 -2.1829  2.2654
  135ACOH    O2 9974   5.532   3.509   0.661 -0.5851  0.0095  0.8732
  135ACOH    C2 9975   5.445   3.586   0.590  0.2111 -0.0693 -0.5867
  135ACOH    O1 9976   5.381   3.683   0.630 -0.2059  0.1265 -0.6799
  135ACOH    C1 9977   5.438   3.528   0.464 -0.2392  0.1042  0.0359
  135ACOH    H1 9978   5.376   3.593   0.402  0.3092 -1.2349 -2.0118
  135ACOH    H2 9979   5.396   3.427   0.468  0.8407 -0.3064  1.0834
  135ACOH    H3 9980   5.539   3.528   0.423  0.3385  6.0609  1.1199
  136ACOH    H4 9981   2.224   7.975   2.581  0.2491 -0.4764  0.5954
  136ACOH    O2 9982   2.130   7.968   2.601  0.0726  0.4942  0.1671
  136ACOH    C2 9983   2.112   7.953   2.730 -0.0117  0.3867 -0.4473
  136ACOH    O1 9984   2.189   7.973   2.824  0.2406  0.1275  0.5160
  136ACOH    C1 9985   1.966   7.938   2.753 -0.4157 -0.3259 -0.2270
  136ACOH    H1 9986   1.948   7.890   2.849 -0.3224 -0.5060 -0.2986
  136ACOH    H2 9987   1.926   7.861   2.687  1.7649 -1.8062  0.1219
  136ACOH    H3 9988   1.908   8.030   2.748 -0.5555 -0.2987  1.5702
  137ACOH    H4 9989   4.845   2.674   2.056 -2.2264  1.8924 -0.1236
  137ACOH    O2 9990   4.897   2.737   2.109 -0.3441 -0.2718  0.6764
  137ACOH    C2 9991   4.926   2.848   2.039  0.4415  0.1700 -0.0030
  137ACOH    O1 9992   4.935   2.880   1.921 -0.3044  0.0356  0.3453
  137ACOH    C1 9993   4.955   2.962   2.138  0.4286 -0.1908  0.2060
  137ACOH    H1 9994   5.030   3.035   2.109 -0.9690  1.3155  0.2685
  137ACOH    H2 9995   4.989   2.924   2.234 -0.8888  0.7443  1.0716
  137ACOH    H3 9996   4.866   3.022   2.160  1.6757  1.8861 -0.2973
  138ACOH    H4 9997   4.680   4.982   0.445  2.2221 -0.9942 -1.5550
  138ACOH    O2 9998   4.691   5.067   0.399 -0.5444  0.2104 -0.0486
  138ACOH    C2 9999   4.701   5.161   0.495  0.1231  0.5822 -0.2845
  138ACOH    O110000   4.694   5.146   0.613  0.3926  0.2023  0.0155
  138ACOH    C110001   4.705   5.296   0.436  0.0698 -0.0777  0.5893
  138ACOH    H110002   4.731   5.374   0.508 -0.3833 -0.2623  0.9559
  138ACOH    H210003   4.605   5.323   0.400 -0.9492 -5.2185 -0.7834
  138ACOH    H310004   4.772   5.301   0.351 -2.2260  0.3694 -1.2583
  139ACOH    H410005   3.066   6.507   1.846 -0.3171 -0.0997  0.2061
  139ACOH    O210006   3.136   6.574   1.856 -0.2555 -0.1757  0.2854
  139ACOH    C210007   3.208   6.585   1.740 -0.3558 -0.3369  0.3507
  139ACOH    O110008   3.194   6.504   1.654 -0.5335  0.1027  0.3907
  139ACOH    C110009   3.312   6.692   1.748 -0.4992 -0.1571  0.5937
  139ACOH    H110010   3.373   6.682   1.658  0.4064 -0.6964  1.2636
  139ACOH    H210011   3.376   6.701   1.836  1.6667 -2.7137 -0.6797
  139ACOH    H310012   3.254   6.783   1.730 -1.7468 -1.3262 -1.5662
  140ACOH    H410013   2.270   6.850   1.457 -0.3172 -0.1777  1.7348
  140ACOH    O210014   2.222   6.932   1.476 -0.4480 -0.0058  0.7232
  140ACOH    C210015   2.178   6.940   1.606 -0.1714 -0.0222 -0.3924
  140ACOH    O110016   2.189   6.853   1.689 -0.7001 -0.0839  0.3220
  140ACOH    C110017   2.125   7.076   1.639  0.4291  0.0230 -0.0088
  140ACOH    H110018   2.207   7.148   1.635  1.8561 -1.6186 -0.9947
  140ACOH    H210019   2.069   7.085   1.731  1.0749  1.6494  0.2546
  140ACOH    H310020   2.057   7.096   1.556  1.2866  4.1548  0.1701
  141ACOH    H410021   3.751   8.289   1.933  0.0193 -2.8615  1.8723
  141ACOH    O210022   3.769   8.246   1.848 -0.4591  0.2659  0.1143
  141ACOH    C210023   3.651   8.216   1.803 -0.7792 -0.1334 -0.0050
  141ACOH    O110024   3.554   8.207   1.876  0.2034 -0.0831  0.1866
  141ACOH    C110025   3.648   8.161   1.663 -0.3207  0.0810  0.3357
  141ACOH    H110026   3.716   8.214   1.596 -1.2982 -0.2926 -0.9891
  141ACOH    H210027   3.546   8.166   1.624 -0.5996  1.3810  1.2339
  141ACOH    H310028   3.687   8.059   1.665 -0.7314 -0.2068 -2.8986
  142ACOH    H410029   3.201   6.336   2.592  0.6176 -0.1090 -1.5292
  142ACOH    O210030   3.269   6.399   2.564 -0.1879  0.9535 -1.0930
  142ACOH    C210031   3.369   6.330   2.504  0.1340 -0.0860  0.4466
  142ACOH    O110032   3.356   6.264   2.404  0.3030  0.8276 -0.1503
  142ACOH    C110033   3.487   6.417   2.530  0.1161 -0.5663 -0.2644
  142ACOH    H110034   3.576   6.353   2.536  0.7515 -0.0399 -3.3958
  142ACOH    H210035   3.479   6.460   2.630  1.7707 -2.4585  0.7232
  142ACOH    H310036   3.506   6.501   2.463 -0.1718 -0.0179  0.3275
  143ACOH    H410037   4.145   0.626   0.467  0.3773 -0.0233  1.7723
  143ACOH    O210038   4.179   0.717   0.474  0.3498  0.1169  0.2924
  143ACOH    C210039   4.184   0.766   0.348  0.6110 -0.1081 -0.3605
  143ACOH    O110040   4.170   0.720   0.240 -0.6224  0.8705  0.1072
  143ACOH    C110041   4.238   0.906   0.359  0.4997  0.6515 -0.1649
  143ACOH    H110042   4.237   0.937   0.464 -1.1945  1.6830 -0.4635
  143ACOH    H210043   4.179   0.981   0.307 -0.6659  0.1865  0.4697
  143ACOH    H310044   4.337   0.906   0.313  0.8785 -0.0465  0.6179
  144ACOH    H410045   5.362   2.769   1.560 -2.0212 -0.9330  0.9703
  144ACOH    O210046   5.382   2.798   1.651  0.5827 -0.1597  0.1950
  144ACOH    C210047   5.267   2.810   1.723 -0.3806  0.0885 -0.0677
  144ACOH    O110048   5.154   2.788   1.691 -0.7644  0.4139  0.0439
  144ACOH    C110049   5.300   2.873   1.850  1.0324 -0.1886  0.1753
  144ACOH    H110050   5.397   2.847   1.893 -0.3633  2.1906  5.1758
  144ACOH    H210051   5.225   2.851   1.926  0.7995  0.6881  0.2017
  144ACOH    H310052   5.291   2.980   1.831  3.7042 -0.4267 -2.8744
  145ACOH    H410053   4.817   4.483   1.855  0.9950  1.2447 -1.1195
  145ACOH    O210054   4.883   4.499   1.925  0.1823  0.2592 -0.1080
  145ACOH    C210055   4.842   4.592   2.009 -0.3477 -0.1353  0.4226
  145ACOH    O110056   4.736   4.647   2.020 -0.5898  0.1375 -0.2243
  145ACOH    C110057   4.944   4.602   2.121 -0.1315 -0.0085  0.6103
  145ACOH    H110058   5.047   4.624   2.094  0.0172 -1.8532 -0.3752
  145ACOH    H210059   4.943   4.503   2.166 -2.4015  0.1974  1.0823
  145ACOH    H310060   4.910   4.679   2.191 -1.1673  0.9207 -0.9032
  146ACOH    H410061   2.363   6.813   2.290  0.2122  0.2559 -1.3591
  146ACOH    O210062   2.342   6.899   2.331  0.2040 -0.3254 -0.1007
  146ACOH    C210063   2.324   6.985   2.233 -0.2240  0.1974 -0.1418
  146ACOH    O110064   2.326   6.954   2.116 -0.4401  1.0513  0.5072
  146ACOH    C110065   2.297   7.123   2.282 -0.3241  0.2928 -0.1408
  146ACOH    H110066   2.379   7.195   2.284  1.8735 -2.1555  1.7541
  146ACOH    H210067   2.257   7.107   2.382  2.3730 -0.8708  0.7986
  146ACOH    H310068   2.211   7.162   2.228 -0.9648 -0.9354 -0.0097
  147ACOH    H410069   2.634   2.795   2.589  0.0186  0.2658  1.3046
  147ACOH    O210070   2.539   2.809   2.576  0.1992  0.1333 -0.2955
  147ACOH    C210071   2.514   2.941   2.595  0.0205 -0.3047 -0.1551
  147ACOH    O110072   2.609   3.025   2.595  1.0807 -0.3679 -0.6584
  147ACOH    C110073   2.366   2.963   2.578 -0.1486  0.1600  0.4866
  147ACOH    H110074   2.337   3.065   2.554  0.7128  0.0287 -1.1178
  147ACOH    H210075   2.311   2.928   2.666 -1.0524  2.4985  0.8844
  147ACOH    H310076   2.327   2.902   2.497  1.9743 -0.8714  0.2040
  148ACOH    H410077   4.554   2.864  -0.032  0.2554  0.3001 -0.8801
  148ACOH    O210078   4.581   2.950   0.006 -0.3582  0.0309  0.1812
  148ACOH    C210079   4.474   3.024  -0.001  0.5252 -0.1564 -0.5370
  148ACOH    O110080   4.361   2.989  -0.005 -0.4250 -0.4265 -0.1393
  148ACOH    C110081   4.501   3.166   0.024 -0.1720  0.0427 -0.6483
  148ACOH    H110082   4.491   3.187   0.131  0.2453  0.7467 -0.7441
  148ACOH    H210083   4.427   3.231  -0.023 -2.1409 -0.5226  1.5623
  148ACOH    H310084   4.601   3.190  -0.011 -0.0252 -1.6642 -1.4194
  149ACOH    H410085   4.194   9.252   1.771  0.2814 -0.3672 -1.8160
  149ACOH    O210086   4.272   9.309   1.758  0.1856  0.1824 -0.1005
  149ACOH    C210087   4.294   9.378   1.873 -0.0581  0.3694 -0.1149
  149ACOH    O110088   4.260   9.330   1.984 -0.6041  0.3821  0.4702
  149ACOH    C110089   4.375   9.498   1.859 -0.6821  0.1523 -0.2218
  149ACOH    H110090   4.467   9.473   1.805  1.1940  3.2422  1.4215
  149ACOH    H210091   4.400   9.549   1.952  1.7681 -0.6592 -0.4026
  149ACOH    H310092   4.317   9.577   1.811  0.0326  1.0858  0.4480
  150ACOH    H410093   4.855   2.033   0.337 -0.2508 -1.6376  1.8622
  150ACOH    O210094   4.946   2.030   0.369  0.6509  0.1403 -0.3737
  150ACOH    C210095   4.946   1.895   0.402 -0.5393  0.2155 -0.3492
  150ACOH    O110096   4.854   1.839   0.450  0.1796 -0.1239  0.0426
  150ACOH    C110097   5.086   1.846   0.418 -0.0238  0.4732 -0.5159
  150ACOH    H110098   5.143   1.910   0.486 -0.1680 -0.3673  0.3994
  150ACOH    H210099   5.147   1.841   0.328  1.5592 -0.3297  0.5823
  150ACOH    H310100   5.090   1.747   0.463  0.6579 -0.3978 -2.4131
  151ACOH    H410101   3.858   7.958   0.760  1.2489 -1.2833  0.0625
  151ACOH    O210102   3.857   7.882   0.820 -0.1699 -0.7742  0.6973
  151ACOH    C210103   3.895   7.927   0.938  0.0552  0.0616 -0.2413
  151ACOH    O110104   3.928   8.041   0.964  0.1546  1.1095  0.4063
  151ACOH    C110105   3.889   7.821   1.039  0.4171  0.5293 -0.2668
  151ACOH    H110106   3.985   7.770   1.045  0.3090  0.4603  1.0929
  151ACOH    H210107   3.803   7.761   1.011  0.4246 -0.4130  1.6421
  151ACOH    H310108   3.875   7.866   1.137  1.0458 -0.3118  0.2172
  152ACOH    H410109   3.612   7.583   0.342  0.7735  3.1044  1.5620
  152ACOH    O210110   3.707   7.562   0.349  0.2940  0.3443  0.1793
  152ACOH    C210111   3.746   7.596   0.226 -0.4506  0.4022 -0.6043
  152ACOH    O110112   3.685   7.628   0.130 -0.0312 -0.5817  0.0100
  152ACOH    C110113   3.896   7.571   0.209  0.4936 -0.3059  0.3884
  152ACOH    H110114   3.953   7.662   0.230 -0.2076  0.3021 -0.3090
  152ACOH    H210115   3.929   7.530   0.114 -0.1687 -1.1962  0.5298
  152ACOH    H310116   3.932   7.505   0.288 -1.7478 -0.3447  1.4249
  153ACOH    H410117   2.311   6.380   0.157 -0.0066 -0.1405 -0.0216
  153ACOH    O210118   2.366   6.364   0.236 -0.6307 -0.2800  0.3959
  153ACOH    C210119   2.287   6.275   0.301 -0.2939 -0.2225 -0.7504
  153ACOH    O110120   2.179   6.230   0.267 -0.3083 -0.2180  0.1985
  153ACOH    C110121   2.335   6.260   0.439 -0.8510  0.0914 -0.6092
  153ACOH    H110122   2.410   6.335   0.464  0.8139 -1.7873  0.2024
  153ACOH    H210123   2.381   6.164   0.462  1.1011  1.1525  0.0100
  153ACOH    H310124   2.250   6.271   0.506 -0.4235 -1.0244  0.1509
  154ACOH    H410125   2.241   8.345   1.282  0.6101 -1.2876 -0.1541
  154ACOH    O210126   2.181   8.308   1.349  0.2887 -0.4167  0.0478
  154ACOH    C210127   2.181   8.404   1.445 -0.4160  0.9665  0.4029
  154ACOH    O110128   2.243   8.508   1.439 -0.1096 -0.1285  0.4432
  154ACOH    C110129   2.092   8.356   1.551 -0.1528  0.1702  0.4968
  154ACOH    H110130   2.113   8.254   1.583 -0.4024 -0.2887 -0.7574
  154ACOH    H210131   1.998   8.366   1.496 -0.5702  1.5990  1.4468
  154ACOH    H310132   2.098   8.420   1.639 -1.4645  0.4728  0.3781
  155ACOH    H410133   3.079   1.373   0.586 -3.2158 -1.2561  0.2574
  155ACOH    O210134   3.096   1.350   0.679 -0.4932 -0.2794  0.0621
  155ACOH    C210135   2.986   1.397   0.745  0.4520  0.5148  0.2375
  155ACOH    O110136   2.891   1.457   0.704 -0.3855 -0.1617  0.1580
  155ACOH    C110137   3.000   1.386   0.892 -0.5968 -0.5717 -0.1031
  155ACOH    H110138   3.042   1.292   0.926  0.1048  0.5343  2.1368
  155ACOH    H210139   2.900   1.379   0.935 -2.2704 -0.5429 -3.7268
  155ACOH    H310140   3.048   1.474   0.935 -0.3215 -0.7682 -0.0115
  156ACOH    H410141   4.187   5.317   2.532  0.6277 -1.0435  1.3326
  156ACOH    O210142   4.217   5.266   2.454  0.0347  0.7338 -0.0791
  156ACOH    C210143   4.349   5.253   2.457  0.7668  0.3399 -0.5651
  156ACOH    O110144   4.428   5.308   2.526 -0.3292 -0.3077  0.2420
  156ACOH    C110145   4.390   5.158   2.355  0.0613 -0.2851 -0.6208
  156ACOH    H110146   4.496   5.132   2.357  0.1529  0.1323  1.3476
  156ACOH    H210147   4.370   5.204   2.259  2.6208 -0.3614 -1.2259
  156ACOH    H310148   4.338   5.062   2.364  0.6557 -0.6610 -1.1750
  157ACOH    H410149   2.117   7.530   1.940  0.2148 -1.2235  0.1650
  157ACOH    O210150   2.022   7.546   1.950  0.2311 -0.6753 -0.4320
  157ACOH    C210151   2.013   7.518   2.084 -0.0645 -0.2534  0.3061
  157ACOH    O110152   2.097   7.515   2.168 -0.4136  0.4613 -0.2842
  157ACOH    C110153   1.870   7.497   2.120 -0.7774  0.0982 -0.2326
  157ACOH    H110154   1.820   7.594   2.125  3.5223  2.3710  2.0144
  157ACOH    H210155   1.863   7.444   2.215  0.8309  1.5332  0.7131
  157ACOH    H310156   1.826   7.432   2.045 -1.8240  0.9296 -0.3548
  158ACOH    H410157   3.631   5.970   0.308 -0.6953 -0.0010  0.1826
  158ACOH    O210158   3.698   5.983   0.239 -0.3735 -0.0508  0.4868
  158ACOH    C210159   3.712   5.872   0.166 -0.0378  0.4045  0.9046
  158ACOH    O110160   3.656   5.766   0.192  0.0668 -0.0238 -0.4166
  158ACOH    C110161   3.821   5.881   0.063  0.3981 -0.2927  0.0908
  158ACOH    H110162   3.784   5.837  -0.029 -1.5219 -0.4139  0.8954
  158ACOH    H210163   3.914   5.832   0.095 -1.4536 -2.1088  2.9193
  158ACOH    H310164   3.835   5.988   0.049  1.9441 -0.4609  0.2155
  159ACOH    H410165   4.120   8.744   1.659  2.3111  0.6991 -1.0661
  159ACOH    O210166   4.143   8.651   1.677  0.3512  0.4670  0.3548
  159ACOH    C210167   4.034   8.594   1.733  0.6311 -0.5649  0.0490
  159ACOH    O110168   3.930   8.657   1.765 -0.2937  0.6312  0.2923
  159ACOH    C110169   4.054   8.455   1.777 -0.1576  0.0977  0.2763
  159ACOH    H110170   3.973   8.389   1.745 -0.3006  1.1500 -1.5641
  159ACOH    H210171   4.068   8.454   1.885  2.4514  0.0520 -0.0297
  159ACOH    H310172   4.146   8.421   1.728 -2.3386 -0.6362 -3.5229
  160ACOH    H410173   2.872   0.755  -0.065  0.0778  0.3893  0.8500
  160ACOH    O210174   2.921   0.804  -0.134 -0.4816 -0.5970 -0.2630
  160ACOH    C210175   2.924   0.934  -0.107  0.2437 -0.5153  0.1402
  160ACOH    O110176   2.866   0.999  -0.021 -0.0008  0.5651  0.2207
  160ACOH    C110177   3.000   0.994  -0.226  0.4520  0.6537 -0.0760
  160ACOH    H110178   2.992   1.103  -0.225 -2.4240  0.4833 -0.0219
  160ACOH    H210179   2.972   0.949  -0.321  0.1706  1.0917 -0.2067
  160ACOH    H310180   3.106   0.977  -0.211  0.1321 -1.1494  0.2184
  161ACOH    H410181   5.142   4.192   0.310 -0.2618  0.3378  0.0898
  161ACOH    O210182   5.172   4.278   0.343  0.1582  0.6177 -0.9888
  161ACOH    C210183   5.122   4.386   0.284 -0.4542 -0.8182  0.8338
  161ACOH    O110184   5.063   4.390   0.177 -0.1391  0.1976  0.3078
  161ACOH    C110185   5.149   4.507   0.364  0.4964 -0.4754  0.1494
  161ACOH    H110186   5.199   4.581   0.300  1.3290  0.2727  1.6329
  161ACOH    H210187   5.213   4.479   0.447 -0.6398  0.0048  1.2013
  161ACOH    H310188   5.056   4.545   0.407  1.2465  1.9148 -0.2454
  162ACOH    H410189   2.365   0.807   2.563 -1.6278  3.1265 -0.9977
  162ACOH    O210190   2.291   0.744   2.556  0.5473  0.3386 -0.0475
  162ACOH    C210191   2.265   0.707   2.685  0.6730  0.4456  0.3410
  162ACOH    O110192   2.288   0.759   2.792  0.1728 -0.1538  0.3510
  162ACOH    C110193   2.180   0.588   2.676 -0.3728  0.1473 -0.5582
  162ACOH    H110194   2.100   0.616   2.608 -1.4395 -0.1342  0.5552
  162ACOH    H210195   2.153   0.555   2.776  0.2892  0.9341 -0.1056
  162ACOH    H310196   2.243   0.511   2.632  1.2858  1.2449 -0.1706
  163ACOH    H410197   5.365   3.667   1.138 -1.1519  1.7340  1.7408
  163ACOH    O210198   5.455   3.678   1.172 -0.3153  0.0266  0.2085
  163ACOH    C210199   5.542   3.661   1.073  0.5008 -0.7463  0.1920
  163ACOH    O110200   5.533   3.578   0.981 -0.2059 -0.1033  0.0943
  163ACOH    C110201   5.680   3.695   1.113 -0.3049 -0.2920  0.0765
  163ACOH    H110202   5.689   3.803   1.117 -2.9751 -0.0995  2.1743
  163ACOH    H210203   5.752   3.645   1.049  0.5093 -2.6698  2.7689
  163ACOH    H310204   5.693   3.658   1.215 -2.3447  1.2602  0.9406
  164ACOH    H410205   4.233   5.761   1.027 -0.8291 -0.3902 -0.5819
  164ACOH    O210206   4.277   5.786   0.944  0.1315  0.0762  0.0560
  164ACOH    C210207   4.378   5.867   0.992 -0.6624  0.2451  0.3430
  164ACOH    O110208   4.396   5.901   1.108 -0.2058  0.0424 -0.3006
  164ACOH    C110209   4.452   5.926   0.883 -0.0229 -0.1725  0.1345
  164ACOH    H110210   4.517   6.003   0.925 -1.5098 -0.2285  2.6353
  164ACOH    H210211   4.377   5.962   0.813  1.3347 -1.6861 -2.2021
  164ACOH    H310212   4.511   5.850   0.830 -1.0449 -0.2233 -0.9379
  165ACOH    H410213   5.025   4.127   2.029  0.1625  0.2075 -0.2327
  165ACOH    O210214   5.085   4.193   1.990 -0.4313  0.7984 -0.1724
  165ACOH    C210215   5.129   4.260   2.099 -0.8124 -0.9445  0.1032
  165ACOH    O110216   5.106   4.245   2.216  0.4340  0.3537  0.2942
  165ACOH    C110217   5.217   4.373   2.051  0.1382  0.4051  0.6250
  165ACOH    H110218   5.271   4.418   2.133 -0.2042 -0.6207  1.4204
  165ACOH    H210219   5.165   4.456   2.002 -1.3529 -0.0056  1.4976
  165ACOH    H310220   5.289   4.323   1.987  0.9345 -0.6845  2.3524
  166ACOH    H410221   4.969   3.254   0.430 -0.0939 -1.4126  0.9676
  166ACOH    O210222   4.945   3.256   0.524 -0.8795  0.7810  0.7479
  166ACOH    C210223   5.018   3.365   0.573  0.0293  0.0046  0.3878
  166ACOH    O110224   5.107   3.430   0.520  0.4531  0.5940 -0.0361
  166ACOH    C110225   4.981   3.380   0.713  0.2722  0.6140 -0.5962
  166ACOH    H110226   5.030   3.468   0.756 -0.0786 -0.0058  1.0968
  166ACOH    H210227   5.023   3.300   0.773 -0.7044 -1.0657 -2.1174
  166ACOH    H310228   4.875   3.378   0.738  0.6420 -0.2779  0.9521
  167ACOH    H410229   5.012   2.390   2.235 -0.2819  0.3718  0.0997
  167ACOH    O210230   5.092   2.444   2.224 -0.2272  0.2702  0.0016
  167ACOH    C210231   5.067   2.566   2.272  0.2867 -0.7247  0.5423
  167ACOH    O110232   4.988   2.588   2.357 -0.1509  0.9144  0.9392
  167ACOH    C110233   5.176   2.662   2.226  0.0410  0.4160  0.3727
  167ACOH    H110234   5.186   2.752   2.286  1.1754 -0.3168  1.3020
  167ACOH    H210235   5.160   2.691   2.122  1.8593 -1.7512 -0.5794
  167ACOH    H310236   5.267   2.602   2.238  0.7463  1.1995 -0.8788
  168ACOH    H410237   2.842   6.127   1.974 -0.4032  0.0214 -0.1258
  168ACOH    O210238   2.924   6.177   1.988 -0.3374  0.0884 -0.7243
  168ACOH    C210239   3.018   6.106   2.054  0.2076  0.3037  0.0419
  168ACOH    O110240   3.026   5.988   2.052 -0.5518  0.7629 -0.1062
  168ACOH    C110241   3.121   6.197   2.111  0.2098  0.2058 -0.6566
  168ACOH    H110242   3.221   6.170   2.077  0.1040 -1.3480  0.2106
  168ACOH    H210243   3.110   6.189   2.219 -0.3050  1.4151 -0.6176
  168ACOH    H310244   3.099   6.300   2.084 -2.2383 -0.1457 -0.1462
  169ACOH    H410245   2.272   0.212   2.189  2.1837 -0.2471  0.3143
  169ACOH    O210246   2.271   0.308   2.180 -0.0045 -0.2953 -0.2951
  169ACOH    C210247   2.218   0.349   2.297 -0.0548 -0.2980  0.2481
  169ACOH    O110248   2.184   0.272   2.386 -0.3324  0.3524 -0.3933
  169ACOH    C110249   2.233   0.496   2.305 -0.0259 -0.0482 -0.5363
  169ACOH    H110250   2.152   0.540   2.246 -1.7512 -2.1364  0.2125
  169ACOH    H210251   2.329   0.526   2.262  0.7600  1.3062  2.0480
  169ACOH    H310252   2.228   0.529   2.409  1.1228 -1.1766 -0.1043
  170ACOH    H410253   3.389   4.792   0.271  0.4424  0.5061 -0.6708
  170ACOH    O210254   3.474   4.747   0.287 -0.1390 -0.4781 -0.3285
  170ACOH    C210255   3.538   4.815   0.376  0.2683 -0.3213 -0.4473
  170ACOH    O110256   3.501   4.922   0.416 -0.0467 -0.1819  0.0643
  170ACOH    C110257   3.646   4.741   0.443 -0.7619 -0.0991  0.1386
  170ACOH    H110258   3.683   4.656   0.386  0.7944 -0.7599  2.0757
  170ACOH    H210259   3.613   4.707   0.541 -0.3725  2.3022  1.1572
  170ACOH    H310260   3.729   4.810   0.459  0.7788 -1.1427 -3.0178
  171ACOH    H410261   4.115   0.640   0.094  0.2227  0.6483 -1.6862
  171ACOH    O210262   4.052   0.600   0.032 -0.7809  0.2062 -0.4245
  171ACOH    C210263   4.101   0.474   0.015 -1.4868  0.0704  0.6793
  171ACOH    O110264   4.206   0.431   0.058  0.2158 -0.4728 -0.1134
  171ACOH    C110265   4.019   0.396  -0.073 -0.1975 -0.3415 -0.0986
  171ACOH    H110266   3.978   0.462  -0.149 -0.5410 -2.8766 -2.1904
  171ACOH    H210267   3.930   0.361  -0.020  0.7750  0.9587  2.4848
  171ACOH    H310268   4.079   0.318  -0.121  3.4117  0.9606  2.0734
  172ACOH    H410269   5.456   4.579   0.054 -0.3796 -1.0813  0.4378
  172ACOH    O210270   5.469   4.608   0.145  0.1481 -0.4715  0.1707
  172ACOH    C210271   5.593   4.583   0.184  0.2794  0.1969 -0.2211
  172ACOH    O110272   5.686   4.599   0.109 -0.0105 -0.4853  0.4794
  172ACOH    C110273   5.597   4.519   0.315 -0.4085 -0.8766 -0.3952
  172ACOH    H110274   5.497   4.492   0.350  0.0358 -0.2967  1.3761
  172ACOH    H210275   5.639   4.591   0.385  1.4223 -1.1744 -1.1599
  172ACOH    H310276   5.661   4.430   0.316 -0.5228 -0.9525  0.4214
  173ACOH    H410277   3.538   7.900   1.091 -0.7393  0.4594 -0.2961
  173ACOH    O210278   3.594   7.979   1.085  0.7045 -0.5233 -0.1956
  173ACOH    C210279   3.527   8.081   1.149  0.2672  0.1642  0.3896
  173ACOH    O110280   3.416   8.072   1.204 -0.4461  0.2077 -0.1050
  173ACOH    C110281   3.623   8.191   1.155 -0.2745  0.4865  0.3575
  173ACOH    H110282   3.639   8.245   1.061 -1.5458 -0.3094 -0.3230
  173ACOH    H210283   3.720   8.153   1.186 -0.1215  0.5422 -0.0407
  173ACOH    H310284   3.586   8.270   1.221 -0.2322  1.2588 -0.5169
  174ACOH    H410285   4.316   1.178   0.044 -0.5102  0.9631 -0.7424
  174ACOH    O210286   4.360   1.161  -0.041 -0.4009 -0.0655 -0.4819
  174ACOH    C210287   4.290   1.066  -0.093  0.5910  0.0577 -0.1300
  174ACOH    O110288   4.197   1.003  -0.048 -0.0086 -0.0446  0.5270
  174ACOH    C110289   4.325   1.035  -0.229  0.5025 -0.0622  0.4307
  174ACOH    H110290   4.292   1.115  -0.296 -0.6424 -1.3352 -0.5696
  174ACOH    H210291   4.290   0.936  -0.259  0.2525  0.3228 -0.5688
  174ACOH    H310292   4.433   1.028  -0.239  0.3454 -0.9095 -0.8051
  175ACOH    H410293   4.341   1.415   2.565  0.8903 -0.3668  2.8556
  175ACOH    O210294   4.411   1.472   2.530 -0.7636 -0.0398 -0.0236
  175ACOH    C210295   4.499   1.483   2.635  0.2078 -0.1517 -0.0844
  175ACOH    O110296   4.470   1.469   2.751  0.3031  0.2054  0.4289
  175ACOH    C110297   4.611   1.570   2.590 -0.6576 -1.0403 -0.3973
  175ACOH    H110298   4.600   1.577   2.482 -1.8163 -0.7565 -0.2679
  175ACOH    H210299   4.707   1.530   2.620 -0.2284 -0.7007 -1.2929
  175ACOH    H310300   4.596   1.665   2.641  1.9705 -0.9415  0.2718
  176ACOH    H410301   4.549   8.884   0.286 -1.5389  0.7682  0.6107
  176ACOH    O210302   4.624   8.895   0.347 -0.9264 -0.4272  0.0976
  176ACOH    C210303   4.665   9.021   0.354  0.1250 -0.6276 -0.0589
  176ACOH    O110304   4.591   9.117   0.325 -0.5764  0.0854 -0.1514
  176ACOH    C110305   4.792   9.058   0.421 -0.0016 -0.1509 -0.3576
  176ACOH    H110306   4.774   9.087   0.524  1.4557 -0.1945 -0.0854
  176ACOH    H210307   4.826   9.145   0.365 -2.0208  0.0653 -1.2982
  176ACOH    H310308   4.860   8.976   0.400  0.0612 -0.2212  0.1347
  177ACOH    H410309   3.484   6.181   1.824  0.2646  0.7593 -0.4449
  177ACOH    O210310   3.578   6.163   1.804  0.2990  0.5002 -0.0564
  177ACOH    C210311   3.607   6.031   1.809  0.1498 -0.2098 -0.1411
  177ACOH    O110312   3.517   5.949   1.796  0.0662  0.3733  0.9250
  177ACOH    C110313   3.752   5.997   1.795 -0.1476  0.2124 -0.2838
  177ACOH    H110314   3.783   5.918   1.863  0.5180  1.0312  0.3814
  177ACOH    H210315   3.802   6.090   1.822  2.1492  0.4374 -4.7870
  177ACOH    H310316   3.779   5.963   1.695 -0.4532 -1.8992  0.3218
  178ACOH    H410317   2.276   7.593   1.782  0.0103  1.1350  0.7661
  178ACOH    O210318   2.222   7.629   1.710  0.1080 -0.8073 -0.3358
  178ACOH    C210319   2.169   7.736   1.766 -0.0406 -0.2507  0.1792
  178ACOH    O110320   2.226   7.809   1.842 -0.5856  0.0865 -0.0424
  178ACOH    C110321   2.050   7.771   1.693  0.0096 -0.0699  0.5886
  178ACOH    H110322   1.991   7.850   1.740 -2.3607 -1.9191  0.8598
  178ACOH    H210323   1.982   7.687   1.678  1.1004 -0.5078 -2.0969
  178ACOH    H310324   2.076   7.810   1.595 -1.7609  1.1238  0.5717
  179ACOH    H410325   5.314   4.258   2.553  1.5683 -2.6067 -3.0505
  179ACOH    O210326   5.383   4.231   2.617 -0.3611  0.1567  0.4225
  179ACOH    C210327   5.467   4.336   2.621 -0.5916  0.2122  0.3791
  179ACOH    O110328   5.431   4.451   2.633  0.3155  0.2486  0.2253
  179ACOH    C110329   5.597   4.288   2.673  0.3606  0.4667  0.8221
  179ACOH    H110330   5.592   4.293   2.782 -0.0528 -0.1793  0.8356
  179ACOH    H210331   5.682   4.344   2.634  0.8294 -1.9171 -1.7734
  179ACOH    H310332   5.614   4.186   2.638 -0.7688 -0.2598  2.3660
  180ACOH    H410333   2.558   4.018   1.241  0.2514 -1.4121  1.1599
  180ACOH    O210334   2.496   4.053   1.308 -0.0586  0.0453  0.1216
  180ACOH    C210335   2.477   4.183   1.282 -0.8209  0.1607 -0.0190
  180ACOH    O110336   2.540   4.243   1.200  0.0036 -0.0935  0.5596
  180ACOH    C110337   2.388   4.242   1.381  0.3219  0.1208  0.3913
  180ACOH    H110338   2.366   4.163   1.452 -0.3603 -0.2619 -0.2310
  180ACOH    H210339   2.293   4.277   1.339  1.1041  1.0563 -0.6102
  180ACOH    H310340   2.442   4.320   1.434 -0.3200 -0.2186  1.5631
  181ACOH    H410341   3.597   5.262   2.164  0.6253  2.1743 -0.4372
  181ACOH    O210342   3.690   5.259   2.192  0.4043 -0.0562  0.1646
  181ACOH    C210343   3.710   5.303   2.319 -0.0196  0.2996  0.1333
  181ACOH    O110344   3.637   5.313   2.417 -0.7695  0.0584 -0.5440
  181ACOH    C110345   3.862   5.301   2.333 -0.5906  0.5193 -0.0867
  181ACOH    H110346   3.888   5.268   2.433  1.4565  2.5811  0.1148
  181ACOH    H210347   3.903   5.400   2.309  0.8482 -0.8948 -3.8389
  181ACOH    H310348   3.908   5.230   2.265 -0.7989  1.2071 -0.9678
  182ACOH    H410349   5.007   1.683   0.111  1.1194  1.4416 -2.0004
  182ACOH    O210350   5.071   1.611   0.105 -0.1966  0.1019 -0.3111
  182ACOH    C210351   5.072   1.565  -0.017 -0.5682 -0.0082  0.0086
  182ACOH    O110352   4.991   1.583  -0.107  0.4948  0.1305  0.1833
  182ACOH    C110353   5.183   1.472  -0.035 -0.6675 -0.5741 -0.0750
  182ACOH    H110354   5.233   1.503  -0.127  0.3592 -1.0507  0.3109
  182ACOH    H210355   5.143   1.372  -0.050  1.4585 -0.9684 -3.7135
  182ACOH    H310356   5.255   1.471   0.048  1.2469  0.3685 -1.6903
  183ACOH    H410357   4.321   8.382   0.387  0.7852  0.8909  2.4683
  183ACOH    O210358   4.351   8.290   0.401  0.1683  0.3849  0.5550
  183ACOH    C210359   4.424   8.311   0.516 -0.1538 -0.1544  0.2320
  183ACOH    O110360   4.433   8.410   0.583  1.0800 -0.2702 -0.1581
  183ACOH    C110361   4.502   8.193   0.538  0.2533 -0.1537  0.1160
  183ACOH    H110362   4.556   8.154   0.452  0.0852  0.8103 -0.4331
  183ACOH    H210363   4.435   8.111   0.563  0.9109 -0.7061  0.0524
  183ACOH    H310364   4.575   8.201   0.619  1.9888  1.9005 -1.5883
  184SOL     OW10365   4.032   2.270   0.390  0.3125  0.1600 -0.5913
  184SOL    HW110366   4.040   2.212   0.471 -1.8153  1.9470  0.9688
  184SOL    HW210367   4.091   2.350   0.400  1.2144 -0.3688 -1.5354
  185SOL     OW10368   2.803   1.064   1.470  0.5065  0.8418 -0.4593
  185SOL    HW110369   2.714   1.108   1.482 -0.3294 -0.5856 -1.3734
  185SOL    HW210370   2.830   1.018   1.555 -0.9293 -1.0682 -1.0112
  186SOL     OW10371   3.742   4.953   1.287  0.0617  0.5117 -0.1534
  186SOL    HW110372   3.662   4.993   1.330 -2.7631 -1.2624 -3.4914
  186SOL    HW210373   3.811   5.024   1.271 -1.8663  2.5717  0.4832
  187SOL     OW10374   3.887   4.456   2.524 -0.0039 -0.0469 -0.4591
  187SOL    HW110375   3.795   4.450   2.563  0.6316 -0.0157  1.0962
  187SOL    HW210376   3.922   4.549   2.537  1.5823 -0.9629  2.0977
  188SOL     OW10377   2.563   0.630   0.140  0.2480 -0.7531 -0.4930
  188SOL    HW110378   2.524   0.538   0.127  0.0681 -0.8255  0.5301
  188SOL    HW210379   2.517   0.675   0.216  0.4651  0.1226 -0.8778
  189SOL     OW10380   2.818   0.275   2.329 -0.0517 -0.4331 -0.1063
  189SOL    HW110381   2.744   0.275   2.262  0.8688 -0.2323 -1.1324
  189SOL    HW210382   2.897   0.326   2.293  1.0851 -1.7814  0.4157
  190SOL     OW10383   3.209   5.380   2.519  0.1935 -0.0029 -0.4251
  190SOL    HW110384   3.269   5.438   2.464 -0.5778  2.5868  1.4063
  190SOL    HW210385   3.124   5.364   2.469  0.6056  0.0249 -1.1432
  191SOL     OW10386   4.360   5.161   0.494  0.2766 -0.3257  0.6086
  191SOL    HW110387   4.379   5.084   0.434 -0.3569 -1.7996  2.2674
  191SOL    HW210388   4.430   5.164   0.566 -0.7257 -0.4546  1.5960
  192SOL     OW10389   3.109   7.387   1.187 -0.5298 -0.0593 -0.7721
  192SOL    HW110390   3.089   7.480   1.218  1.2560 -0.6380  2.2686
  192SOL    HW210391   3.073   7.321   1.253 -1.1900 -1.5550 -2.5617
  193SOL     OW10392   4.194   4.635   0.736  0.9906  0.3743  0.2578
  193SOL    HW110393   4.096   4.650   0.745  1.3222  1.6733  1.8971
  193SOL    HW210394   4.241   4.721   0.718  1.9126 -0.1353  0.1349
  194SOL     OW10395   3.848   0.217   1.738 -0.1511  0.5562 -0.0946
  194SOL    HW110396   3.885   0.258   1.654 -0.1177 -0.8181 -0.7657
  194SOL    HW210397   3.895   0.256   1.817  0.5340  1.1318 -0.7694
  195SOL     OW10398   2.777   2.401   1.944  0.2302  0.6222 -0.3221
  195SOL    HW110399   2.803   2.482   1.997  0.4792 -0.1416  0.7545
  195SOL    HW210400   2.683   2.410   1.913  0.3260  1.4200 -0.3970
  196SOL     OW10401   3.464   8.849   0.334  0.3835 -0.3755 -0.1268
  196SOL    HW110402   3.530   8.922   0.316 -0.2551  0.6488  1.5759
  196SOL    HW210403   3.428   8.859   0.426 -0.4176 -2.3139 -0.2048
  197SOL     OW10404   2.244   7.499   1.186 -0.2625 -0.2234  0.5417
  197SOL    HW110405   2.239   7.572   1.255 -0.4485 -0.9345  1.2875
  197SOL    HW210406   2.199   7.530   1.103 -3.1420 -0.5951  1.8817
  198SOL     OW10407   4.893   3.007   0.844 -0.1055  0.2590  0.4497
  198SOL    HW110408   4.988   2.996   0.815  0.3768  0.8506  1.7850
  198SOL    HW210409   4.887   2.999   0.943 -1.6103 -0.8010  0.2984
  199SOL     OW10410   2.572   2.720   1.587  0.1494 -0.0253 -0.4699
  199SOL    HW110411   2.567   2.761   1.678  2.5060 -0.7275  0.0355
  199SOL    HW210412   2.508   2.644   1.581  0.4327 -0.3835  0.8401
  200SOL     OW10413   3.767   5.000   2.022 -0.1577  0.8223 -0.2249
  200SOL    HW110414   3.805   5.080   2.067 -2.7901  1.4577  0.9667
  200SOL    HW210415   3.826   4.921   2.038  0.7591  1.8072  1.3716
  201SOL     OW10416   3.738   4.583   0.145  0.0387  0.2074 -0.3332
  201SOL    HW110417   3.744   4.670   0.098  1.5381 -0.1010 -0.7519
  201SOL    HW210418   3.730   4.509   0.078 -0.1058 -0.0565 -0.0265
  202SOL     OW10419   2.350   7.036   0.288 -0.2044 -0.0360  0.4204
  202SOL    HW110420   2.424   7.012   0.351 -0.4677 -0.7451  0.4693
  202SOL    HW210421   2.310   6.953   0.251 -0.7495  0.3533  0.1273
  203SOL     OW10422   3.679   8.707   1.586 -0.3378  0.2886 -0.1438
  203SOL    HW110423   3.626   8.790   1.571 -0.3276  1.0011  3.3571
  203SOL    HW210424   3.735   8.717   1.668  1.3423 -2.3731 -0.8810
  204SOL     OW10425   2.892   0.717   1.341 -0.6686  0.5563  0.1680
  204SOL    HW110426   2.874   0.717   1.242 -1.5304  0.7316  0.3268
  204SOL    HW210427   2.828   0.655   1.386 -0.4882  0.7297  0.6625
  205SOL     OW10428   3.738   0.968   1.676 -0.2051  0.3065 -0.4755
  205SOL    HW110429   3.693   0.955   1.588 -2.6805  1.2862  0.6063
  205SOL    HW210430   3.802   1.045   1.670  0.2680 -0.1666 -1.6284
  206SOL     OW10431   4.354   3.829   2.149 -0.1688 -0.0215 -0.1676
  206SOL    HW110432   4.410   3.891   2.093 -0.3028 -0.5134 -0.8478
  206SOL    HW210433   4.258   3.849   2.135 -0.2317 -0.7895 -0.8581
  207SOL     OW10434   2.189   9.555   2.305 -0.3009 -0.1581 -0.2632
  207SOL    HW110435   2.213   9.607   2.387  0.2135  0.7804 -0.9993
  207SOL    HW210436   2.100   9.512   2.318 -0.7267  0.8921  0.3810
  208SOL     OW10437   5.101   3.684   2.570  0.1934  0.0089  0.2404
  208SOL    HW110438   5.164   3.624   2.619 -0.1527  1.2797  2.3120
  208SOL    HW210439   5.016   3.634   2.551  1.6602 -1.6381 -2.3651
  209SOL     OW10440   4.028   3.644   1.222 -0.1142 -0.1512  0.1059
  209SOL    HW110441   4.086   3.569   1.190  2.4408  1.9526 -0.4245
  209SOL    HW210442   4.017   3.638   1.321 -1.4495 -2.2196 -0.1453
  210SOL     OW10443   3.086   6.599   0.945 -0.5359 -0.0685  0.0843
  210SOL    HW110444   3.036   6.686   0.946  0.9505  0.8055  0.6559
  210SOL    HW210445   3.054   6.542   0.870  0.1843  2.0165 -1.8399
  211SOL     OW10446   2.261   8.783   2.043 -0.3855  0.1214 -0.1427
  211SOL    HW110447   2.323   8.814   2.114 -1.3634 -0.2133  0.8718
  211SOL    HW210448   2.217   8.862   1.999 -0.1568  0.3075 -0.0342
  212SOL     OW10449   3.602   1.722   0.180  0.0604 -0.5625  0.2327
  212SOL    HW110450   3.596   1.674   0.093  0.8211 -0.8753  0.3446
  212SOL    HW210451   3.668   1.675   0.239  0.6465  0.4907  0.4285
  213SOL     OW10452   2.572   5.578   2.451  0.3197 -0.3188 -0.0636
  213SOL    HW110453   2.601   5.633   2.529  1.4501  0.0665 -0.7395
  213SOL    HW210454   2.581   5.633   2.367 -1.7985 -0.3899 -0.3723
  214SOL     OW10455   3.269   0.297  -0.105 -0.1010 -0.0126  0.3570
  214SOL    HW110456   3.285   0.198  -0.106 -0.8330 -0.1354 -1.7832
  214SOL    HW210457   3.207   0.320  -0.030  0.6789 -1.0782  1.3358
  215SOL     OW10458   3.883   0.594   1.729 -0.0213 -0.2590 -0.4601
  215SOL    HW110459   3.793   0.555   1.748  0.2873 -0.3353  0.8986
  215SOL    HW210460   3.893   0.681   1.779  1.8214 -1.7916  1.9300
  216SOL     OW10461   3.244   0.692   2.254  0.2754 -0.0849 -0.1379
  216SOL    HW110462   3.206   0.609   2.213 -1.4230  0.8242 -0.4516
  216SOL    HW210463   3.284   0.670   2.343 -0.7060 -1.1277  0.0485
  217SOL     OW10464   3.633   2.508   0.215  0.2554 -0.3164  0.2606
  217SOL    HW110465   3.677   2.545   0.297 -1.9052  0.3556  1.1660
  217SOL    HW210466   3.574   2.577   0.175 -2.0837 -2.0060  0.6648
  218SOL     OW10467   3.316   7.823   0.324 -0.3412 -0.0936 -0.1123
  218SOL    HW110468   3.241   7.889   0.310  0.7414  1.0435 -0.6318
  218SOL    HW210469   3.382   7.831   0.250  0.1918 -1.2405  0.2346
  219SOL     OW10470   4.046   1.896   1.651 -0.4374  0.2228 -0.3573
  219SOL    HW110471   4.122   1.933   1.598 -1.2856  1.4072 -0.7640
  219SOL    HW210472   3.961   1.911   1.601 -1.0606 -0.1697  0.5704
  220SOL     OW10473   3.162   3.075   0.987  0.3801 -0.3567 -0.0431
  220SOL    HW110474   3.167   3.150   1.053  0.3953  0.0719 -0.5312
  220SOL    HW210475   3.073   3.075   0.941 -0.0690 -1.3561  0.7929
  221SOL     OW10476   4.045   3.216   2.248  0.0448  0.2901 -0.0036
  221SOL    HW110477   4.056   3.156   2.328 -0.6870 -0.9669 -0.8175
  221SOL    HW210478   4.122   3.279   2.243  0.3748  0.0147  1.3890
  222SOL     OW10479   3.087   3.639   2.152 -0.4978  0.1456  0.4440
  222SOL    HW110480   3.128   3.548   2.156 -0.3965  0.2044  0.7565
  222SOL    HW210481   3.098   3.677   2.060  0.2811  0.2202  0.5645
  223SOL     OW10482   3.399   2.412   0.985 -0.6523  0.1609 -0.0249
  223SOL    HW110483   3.312   2.445   1.023 -0.3416 -0.8051  1.5609
  223SOL    HW210484   3.451   2.490   0.949 -1.1996  1.0409  1.0458
  224SOL     OW10485   3.903   1.297  -0.083  0.0639  0.2311  0.0481
  224SOL    HW110486   3.873   1.215  -0.034  0.2270  1.0793  1.6075
  224SOL    HW210487   3.882   1.378  -0.028  1.7087  1.0987 -0.5786
  225SOL     OW10488   3.239   3.944   1.709 -0.1732 -0.6241 -0.0237
  225SOL    HW110489   3.308   3.873   1.697 -2.1031 -2.4088 -0.8474
  225SOL    HW210490   3.254   4.017   1.642  2.4180  0.3013  1.4700
  226SOL     OW10491   4.524   3.622   1.115 -0.2215  0.7117 -0.0826
  226SOL    HW110492   4.531   3.696   1.181 -0.1126  0.7034 -0.0840
  226SOL    HW210493   4.525   3.660   1.022 -1.9326  0.8394 -0.0589
  227SOL     OW10494   4.760   2.550   2.537 -0.5181 -0.2925 -0.4060
  227SOL    HW110495   4.853   2.549   2.500  0.0364  0.5827  0.9030
  227SOL    HW210496   4.698   2.504   2.473  0.5266  0.4944 -2.0299
  228SOL     OW10497   4.062   0.373   1.318 -0.5777 -0.1531 -0.2052
  228SOL    HW110498   4.159   0.388   1.300 -0.2798 -1.0376  0.6523
  228SOL    HW210499   4.008   0.439   1.265  0.4404 -0.3087 -1.4692
  229SOL     OW10500   4.417   2.183   2.291  0.2993  0.4782  0.2984
  229SOL    HW110501   4.342   2.120   2.271  0.4058  1.1620 -2.4456
  229SOL    HW210502   4.504   2.140   2.267  0.5039  0.9982  0.1021
  230SOL     OW10503   3.723   8.797   2.550 -0.3401 -0.0073 -0.1408
  230SOL    HW110504   3.694   8.855   2.626 -1.9482 -0.2088 -0.5925
  230SOL    HW210505   3.651   8.793   2.481  0.6734 -0.7049 -1.1815
  231SOL     OW10506   3.069   3.450   1.743  0.4370 -0.2313  0.3277
  231SOL    HW110507   3.093   3.498   1.827 -1.7735  0.5109  0.5776
  231SOL    HW210508   2.980   3.483   1.710  1.3900 -0.3033 -2.4478
  232SOL     OW10509   4.358   4.104   0.655 -0.6311 -0.0869  0.0999
  232SOL    HW110510   4.349   4.186   0.600 -0.2234  0.1089  0.3228
  232SOL    HW210511   4.355   4.023   0.596  0.4132  0.1435 -0.2833
  233SOL     OW10512   4.174   2.378   1.329 -0.5704  0.4152  0.0457
  233SOL    HW110513   4.238   2.346   1.399 -1.3055 -0.8790  0.1556
  233SOL    HW210514   4.225   2.399   1.245  0.0024 -0.7869  0.0692
  234SOL     OW10515   4.480   2.262   0.270 -0.5559 -0.2077 -0.2444
  234SOL    HW110516   4.409   2.319   0.229 -0.1919 -0.1252 -0.7655
  234SOL    HW210517   4.560   2.319   0.290  0.5698 -0.8842 -2.6091
  235SOL     OW10518   3.884   9.018   0.234  0.3066  0.3321 -0.1122
  235SOL    HW110519   3.938   9.023   0.150  1.0351  0.3206  0.3541
  235SOL    HW210520   3.937   9.055   0.310 -0.5754  0.9174  0.2382
  236SOL     OW10521   3.097   5.460   0.486  0.1678 -0.4861  0.7285
  236SOL    HW110522   3.168   5.496   0.426  0.1092 -0.8364  0.4467
  236SOL    HW210523   3.038   5.398   0.435 -1.9833  1.8668  0.2727
  237SOL     OW10524   3.139   8.723  -0.075 -0.5360  0.1923 -0.0867
  237SOL    HW110525   3.043   8.700  -0.061 -0.3428  0.7699  2.4026
  237SOL    HW210526   3.185   8.729   0.014  1.4968  1.2065 -1.1817
  238SOL     OW10527   4.681   4.519   2.274 -0.1945 -0.3092 -0.0759
  238SOL    HW110528   4.720   4.555   2.190 -0.2593 -0.9344 -0.3754
  238SOL    HW210529   4.746   4.457   2.317 -0.2742 -0.2090  0.1889
  239SOL     OW10530   2.439   6.574   0.399 -0.0770 -0.7605 -0.0232
  239SOL    HW110531   2.442   6.509   0.323 -2.1817 -1.5614  0.5627
  239SOL    HW210532   2.441   6.667   0.363  1.1953 -1.1174 -0.9424
  240SOL     OW10533   3.973   4.729   0.305 -0.4186  0.4975 -0.1962
  240SOL    HW110534   3.961   4.681   0.218 -2.4330 -1.1200  0.9420
  240SOL    HW210535   3.913   4.809   0.308 -2.2775 -0.9132  0.7321
  241SOL     OW10536   3.540   9.321   0.799 -0.4090  0.3752  0.4359
  241SOL    HW110537   3.507   9.406   0.839  0.2137  0.3825  0.9421
  241SOL    HW210538   3.546   9.251   0.871 -1.7078 -0.3264 -0.1273
  242SOL     OW10539   4.738   3.828   0.339  0.4746 -0.1732 -0.0515
  242SOL    HW110540   4.798   3.809   0.417 -0.0688  1.4549  0.8124
  242SOL    HW210541   4.706   3.923   0.345  0.1224 -0.1415 -2.0706
  243SOL     OW10542   2.789   5.079   0.670 -0.3218 -0.0006 -0.1457
  243SOL    HW110543   2.779   5.172   0.636 -1.7651 -0.0697  0.0707
  243SOL    HW210544   2.886   5.060   0.688  0.2361  0.6944 -2.3132
  244SOL     OW10545   3.179   5.616   1.396  0.1982 -0.4187  0.5202
  244SOL    HW110546   3.269   5.638   1.359 -0.1906  1.2958  0.5885
  244SOL    HW210547   3.129   5.560   1.329 -0.4837  2.6203 -1.6061
  245SOL     OW10548   2.531   5.709   1.574 -0.0803 -0.3079 -0.5419
  245SOL    HW110549   2.447   5.722   1.627  0.3335 -0.2667  0.1123
  245SOL    HW210550   2.526   5.763   1.490  0.2173  1.4889  0.5686
  246SOL     OW10551   3.872   4.727   2.353 -0.1104  0.3214 -0.4923
  246SOL    HW110552   3.919   4.796   2.409  0.0353  0.3803 -0.6870
  246SOL    HW210553   3.931   4.700   2.277 -0.1037 -0.1368 -0.3261
  247SOL     OW10554   4.183   0.816   1.829 -0.2913  0.2395 -0.2673
  247SOL    HW110555   4.224   0.847   1.914 -1.5606  0.7032  0.1842
  247SOL    HW210556   4.083   0.826   1.834 -0.3411  0.8328 -2.0164
  248SOL     OW10557   4.481   3.619   1.417  0.1922 -0.1242 -0.0354
  248SOL    HW110558   4.456   3.570   1.334  1.1733  0.4310 -0.6651
  248SOL    HW210559   4.504   3.714   1.395  1.5701 -0.2653  0.6974
  249SOL     OW10560   3.020   9.469   0.161 -0.4925 -0.6517 -0.4025
  249SOL    HW110561   3.030   9.569   0.159  1.6804 -0.8404 -3.8429
  249SOL    HW210562   3.030   9.436   0.255  2.0329  2.1201  0.3777
  250SOL     OW10563   4.338   3.474   2.591 -0.0628 -0.1388 -0.3193
  250SOL    HW110564   4.335   3.425   2.504  0.0145 -0.4564 -0.1458
  250SOL    HW210565   4.413   3.540   2.589  0.9926 -1.2862  0.0928
  251SOL     OW10566   2.264   7.468   1.930 -0.3896 -0.2249  0.1030
  251SOL    HW110567   2.257   7.412   2.013  0.5957  2.3362  1.9755
  251SOL    HW210568   2.360   7.475   1.904 -0.5413  0.2891 -0.3121
  252SOL     OW10569   2.965   5.973   1.406 -0.1797 -0.0620  0.1872
  252SOL    HW110570   2.968   6.070   1.382 -0.6886 -0.0220  0.2953
  252SOL    HW210571   2.917   5.922   1.334 -0.1878 -0.1885  0.2817
  253SOL     OW10572   4.258   3.871  -0.057  0.6019 -0.1524  0.0050
  253SOL    HW110573   4.273   3.969  -0.046  0.7822 -0.1811  0.0096
  253SOL    HW210574   4.265   3.847  -0.154  0.2903 -0.1159 -0.0272
  254SOL     OW10575   3.608   1.407   1.190 -0.0206 -0.3375 -0.2121
  254SOL    HW110576   3.611   1.322   1.137  0.7343  0.1850 -1.0310
  254SOL    HW210577   3.611   1.485   1.128 -1.2513  0.2949  0.5098
  255SOL     OW10578   2.507   8.536   0.817 -0.1340 -0.0586  0.4932
  255SOL    HW110579   2.574   8.538   0.891 -1.9079  0.5819  2.1575
  255SOL    HW210580   2.488   8.442   0.791 -0.9301 -0.4317  2.2787
  256SOL     OW10581   4.336   4.134  -0.102 -0.0248 -0.2309  0.3587
  256SOL    HW110582   4.336   4.198  -0.180  0.3746  0.2063  0.7198
  256SOL    HW210583   4.272   4.167  -0.032  0.9974  0.3498  1.0222
  257SOL     OW10584   4.299   1.842   1.402 -0.2351 -0.3492  0.3113
  257SOL    HW110585   4.336   1.917   1.457 -2.2515 -1.0633  2.7444
  257SOL    HW210586   4.216   1.873   1.356  0.1401 -0.4516 -0.4319
  258SOL     OW10587   2.753   5.763   2.070  0.4547 -0.3789 -0.0457
  258SOL    HW110588   2.739   5.670   2.035  0.1334 -0.1844 -0.4342
  258SOL    HW210589   2.839   5.767   2.120  1.3114 -0.4442 -1.4958
  259SOL     OW10590   4.755   2.570   1.975  0.0399 -0.4289 -0.5974
  259SOL    HW110591   4.675   2.604   1.926  0.8216  0.4334 -1.2923
  259SOL    HW210592   4.760   2.470   1.964 -1.7962 -0.6912  0.7694
  260SOL     OW10593   2.799   5.890   1.182 -0.0598  0.7784  0.2175
  260SOL    HW110594   2.843   5.926   1.100  1.5686 -0.4441  0.5303
  260SOL    HW210595   2.786   5.791   1.172  0.5259  0.5578  1.5940
  261SOL     OW10596   3.311   2.774   0.497  0.0543 -0.3127 -0.0350
  261SOL    HW110597   3.401   2.780   0.539 -0.2906 -0.1288  0.6912
  261SOL    HW210598   3.241   2.775   0.568 -0.5258 -0.3728 -0.5976
  262SOL     OW10599   2.666   8.340   0.056  0.0973 -0.5602  0.3850
  262SOL    HW110600   2.670   8.368   0.152  2.2299 -0.0552  0.1754
  262SOL    HW210601   2.656   8.421  -0.002  2.7082 -0.4833 -0.0172
  263SOL     OW10602   2.874   7.712   2.500 -0.1954  0.1902  0.2132
  263SOL    HW110603   2.797   7.723   2.437  0.5563  0.6410 -0.6397
  263SOL    HW210604   2.886   7.797   2.552 -1.0864 -0.3307  1.2833
  264SOL     OW10605   3.999   2.933   1.040  0.0073 -0.3080  0.3866
  264SOL    HW110606   4.094   2.945   1.069 -0.5649  1.8647  1.4718
  264SOL    HW210607   3.975   3.003   0.973 -0.6351 -1.2821 -0.4149
  265SOL     OW10608   4.707   2.061   0.732  0.5702 -0.1308  0.0795
  265SOL    HW110609   4.687   2.028   0.640 -0.5390 -0.9842  0.6201
  265SOL    HW210610   4.770   1.997   0.777  1.8529  0.7676 -0.3993
  266SOL     OW10611   3.452   2.911   1.411  0.0994  0.0101 -0.1363
  266SOL    HW110612   3.461   2.814   1.389 -2.6647 -0.0953 -0.8691
  266SOL    HW210613   3.388   2.922   1.488  1.4086  1.1782  0.8180
  267SOL     OW10614   2.739   7.201   2.193 -0.5528  0.2490  0.5529
  267SOL    HW110615   2.838   7.202   2.189 -0.6295  0.2718 -1.7106
  267SOL    HW210616   2.708   7.250   2.274  1.2593  0.5400  1.0798
  268SOL     OW10617   2.600   5.793   2.279  0.3332 -0.2717 -0.3429
  268SOL    HW110618   2.631   5.846   2.358  1.3222 -1.0392 -0.2110
  268SOL    HW210619   2.666   5.804   2.204 -0.1955 -0.1806 -0.7978
  269SOL     OW10620   2.706   7.839   0.821  0.2915 -0.1929 -0.3137
  269SOL    HW110621   2.690   7.740   0.821 -2.2739  0.1877  0.4996
  269SOL    HW210622   2.747   7.867   0.908  1.3917 -0.5707 -0.6978
  270SOL     OW10623   4.016   9.393   2.189 -0.0513  0.2888  0.2854
  270SOL    HW110624   4.050   9.323   2.127  0.0457 -1.5405  2.3298
  270SOL    HW210625   3.994   9.351   2.278 -0.9281  2.6756  1.2396
  271SOL     OW10626   3.410   0.432   0.578 -0.3381  0.0789  0.1170
  271SOL    HW110627   3.435   0.362   0.512  1.3394  1.8671 -1.2030
  271SOL    HW210628   3.436   0.403   0.670  0.2193 -1.0757 -0.4080
  272SOL     OW10629   4.183   5.020   0.858 -0.0695  0.4923  0.2280
  272SOL    HW110630   4.227   4.964   0.789 -0.8874  0.0413  0.0720
  272SOL    HW210631   4.183   5.116   0.828  0.2113  0.4028 -0.0639
  273SOL     OW10632   3.936   4.323   1.171 -0.3504 -0.1602 -0.2113
  273SOL    HW110633   3.891   4.360   1.253 -0.4153 -1.9598  0.5911
  273SOL    HW210634   3.961   4.398   1.110 -0.4818  1.2050  1.3692
  274SOL     OW10635   2.654   4.861   0.763 -0.2714  0.7050  0.3043
  274SOL    HW110636   2.689   4.944   0.718 -3.3284  1.4589 -0.7683
  274SOL    HW210637   2.632   4.793   0.694 -1.6054  0.5242  0.8979
  275SOL     OW10638   3.542   1.138   1.129 -0.1868 -0.1528 -0.3067
  275SOL    HW110639   3.617   1.132   1.063  0.4356  0.2124  0.3565
  275SOL    HW210640   3.455   1.127   1.081  0.2849 -0.5763 -1.0878
  276SOL     OW10641   3.075   6.246  -0.039 -0.0364 -0.4537  0.3286
  276SOL    HW110642   3.008   6.319  -0.045  0.9018  0.5152  1.4825
  276SOL    HW210643   3.029   6.157  -0.047 -1.4924  0.1909  1.5371
  277SOL     OW10644   3.578   4.937   2.551  0.1048 -0.0119  0.1397
  277SOL    HW110645   3.619   4.994   2.481  0.0961  1.0650  0.9915
  277SOL    HW210646   3.557   4.993   2.632  3.0239 -1.7665  2.2252
  278SOL     OW10647   2.741   6.956   2.052  0.0513 -0.3686  0.1486
  278SOL    HW110648   2.840   6.965   2.047 -0.0985  1.3796  0.1038
  278SOL    HW210649   2.702   7.037   2.097 -1.4553 -0.4317 -1.0102
  279SOL     OW10650   3.755   3.267   2.231  0.1099  0.3282  0.0178
  279SOL    HW110651   3.852   3.268   2.207 -0.1262 -0.1723 -1.0220
  279SOL    HW210652   3.740   3.204   2.307  0.8289  1.6527  1.2741
  280SOL     OW10653   2.648   9.980   1.853  0.3983 -0.6336  0.4893
  280SOL    HW110654   2.566  10.036   1.865  0.2338 -0.8069  0.1656
  280SOL    HW210655   2.640   9.897   1.908  0.5104 -0.4838  0.7325
  281SOL     OW10656   3.305   5.390   1.849 -0.7081 -0.0034 -0.4197
  281SOL    HW110657   3.276   5.296   1.835 -2.5245  0.4138  0.3411
  281SOL    HW210658   3.278   5.446   1.770  1.4430 -0.3310 -1.4210
  282SOL     OW10659   2.237   5.338   0.212 -0.2791 -0.0822 -0.3845
  282SOL    HW110660   2.263   5.325   0.116 -0.8412 -0.1494 -0.5287
  282SOL    HW210661   2.156   5.398   0.217 -1.6809 -1.9577 -0.0907
  283SOL     OW10662   3.919   0.844   1.862  0.5831 -0.2680 -0.4731
  283SOL    HW110663   3.874   0.832   1.950  1.9187  0.3616  0.3053
  283SOL    HW210664   3.859   0.895   1.801  0.5170  1.1769  0.7837
  284SOL     OW10665   4.473   1.897   0.361  0.5907  0.5339  0.4633
  284SOL    HW110666   4.463   1.850   0.273 -0.6892 -0.4248  1.1037
  284SOL    HW210667   4.529   1.841   0.422  0.2065  0.4816  0.7682
  285SOL     OW10668   3.340   3.847   1.409  0.0790 -0.2683 -0.0867
  285SOL    HW110669   3.291   3.775   1.458 -0.5151  0.4151  0.3348
  285SOL    HW210670   3.428   3.812   1.377 -0.0861 -1.0940  0.3555
  286SOL     OW10671   3.754   4.840   0.037  0.2030 -0.0234 -0.2961
  286SOL    HW110672   3.729   4.909   0.104 -1.0548  0.4363 -1.2193
  286SOL    HW210673   3.715   4.864  -0.052  3.2128  0.2655 -1.6085
  287SOL     OW10674   3.862   5.080   0.996 -0.6418 -0.4793 -0.0381
  287SOL    HW110675   3.956   5.047   0.990 -0.5613 -0.3835  0.6543
  287SOL    HW210676   3.807   5.037   0.924  0.1262  0.1523 -1.0081
  288SOL     OW10677   3.608   4.468  -0.080 -0.1251  0.3093 -0.4570
  288SOL    HW110678   3.545   4.391  -0.086  1.3085 -0.7325 -2.8132
  288SOL    HW210679   3.560   4.552  -0.104 -1.4298  0.0262  1.0779
  289SOL     OW10680   2.787   5.343   0.619  0.4993 -0.1687  0.6244
  289SOL    HW110681   2.863   5.327   0.556 -0.5336 -2.6340 -0.0523
  289SOL    HW210682   2.724   5.410   0.580  1.0671  0.0601  0.0992
  290SOL     OW10683   3.884   2.747   1.672 -0.4161  0.0973  0.4797
  290SOL    HW110684   3.790   2.729   1.704 -0.0161  0.8027  2.0937
  290SOL    HW210685   3.941   2.667   1.692 -0.8737 -0.7458 -1.4305
  291SOL     OW10686   3.170  10.032   1.849  0.3456  0.1669 -0.7208
  291SOL    HW110687   3.078  10.033   1.887 -0.1358 -2.2974 -1.7084
  291SOL    HW210688   3.184  10.113   1.792 -1.0671  0.7740 -0.2032
  292SOL     OW10689   3.640   2.637   1.749 -0.0532  0.2779  0.4573
  292SOL    HW110690   3.602   2.591   1.669  1.7799 -0.3385 -0.0846
  292SOL    HW210691   3.642   2.573   1.827 -0.1089  0.3052  0.4811
  293SOL     OW10692   3.444   4.312   2.143  0.1446 -0.3746 -0.1392
  293SOL    HW110693   3.496   4.259   2.209 -0.3651  0.0194  0.5857
  293SOL    HW210694   3.406   4.250   2.073 -0.4073 -0.9608  0.6690
  294SOL     OW10695   2.956   8.256   2.062 -0.2461 -0.2175 -0.3763
  294SOL    HW110696   2.901   8.339   2.050 -0.0374 -0.0784 -0.3580
  294SOL    HW210697   3.052   8.277   2.046  0.2098  0.2637  2.7392
  295SOL     OW10698   3.703   5.263   1.452  0.1266  0.3235  0.2662
  295SOL    HW110699   3.780   5.246   1.391  1.1118 -1.7194  2.0176
  295SOL    HW210700   3.735   5.263   1.547 -2.1879 -1.7251  1.0914
  296SOL     OW10701   3.107   3.728   1.878  0.4610 -0.6091  0.0015
  296SOL    HW110702   3.191   3.754   1.830  0.9943 -0.0567  1.2125
  296SOL    HW210703   3.058   3.810   1.907  0.1384 -0.9373  0.3915
  297SOL     OW10704   2.825   1.811   1.411  0.3282 -0.9603 -0.1957
  297SOL    HW110705   2.841   1.722   1.452  1.1007 -0.9250 -0.4095
  297SOL    HW210706   2.737   1.847   1.441 -0.4921 -2.2922 -0.9817
  298SOL     OW10707   2.691   1.661   1.904 -0.2613 -0.0771 -0.2831
  298SOL    HW110708   2.611   1.631   1.852  0.4614 -2.4031 -0.1287
  298SOL    HW210709   2.724   1.748   1.868 -1.4664 -0.2556 -1.8650
  299SOL     OW10710   2.615   4.242   1.645  0.2484 -0.4957 -0.5341
  299SOL    HW110711   2.587   4.148   1.665  2.8062 -1.4626 -1.3594
  299SOL    HW210712   2.670   4.244   1.562  2.4503  1.3712  0.8914
  300SOL     OW10713   2.698   1.068   2.159  0.0847 -0.2060 -0.0055
  300SOL    HW110714   2.774   1.020   2.116 -1.8472 -0.2034 -3.6929
  300SOL    HW210715   2.715   1.167   2.157  0.1711 -0.2292 -0.4751
  301SOL     OW10716   2.916   7.233   2.446 -0.2220  1.0570 -0.1005
  301SOL    HW110717   2.953   7.326   2.444  3.2667 -0.2662 -1.5661
  301SOL    HW210718   2.953   7.181   2.369 -1.4773 -1.7679  1.1388
  302SOL     OW10719   2.133  10.001   0.246 -0.2318 -0.3287 -0.0130
  302SOL    HW110720   2.144  10.074   0.313  0.9174  0.4495 -1.0327
  302SOL    HW210721   2.177  10.028   0.160 -1.6092 -1.3484 -1.0522
  303SOL     OW10722   4.168   4.477   0.095 -0.5009 -0.0601 -0.1785
  303SOL    HW110723   4.098   4.535   0.052  0.7078  1.5575 -0.0146
  303SOL    HW210724   4.157   4.383   0.062 -2.0387  0.3828 -1.0274
  304SOL     OW10725   4.110   3.944   2.165 -0.2219  0.4046 -0.1239
  304SOL    HW110726   4.080   3.938   2.069 -1.2794 -1.7168  0.2979
  304SOL    HW210727   4.032   3.964   2.223  0.1757  0.3555  0.4290
  305SOL     OW10728   2.321  10.064   2.208 -0.3253  0.2989 -0.8721
  305SOL    HW110729   2.252   9.992   2.211 -0.8711  0.8592  0.2504
  305SOL    HW210730   2.412  10.023   2.202 -0.6116 -0.4980  0.2000
  306SOL     OW10731   3.789   1.956   1.529 -0.8630 -0.1884  0.1818
  306SOL    HW110732   3.708   1.900   1.545 -1.1458  0.4085  0.8718
  306SOL    HW210733   3.790   2.032   1.594 -0.9886  1.1710 -1.3804
  307SOL     OW10734   2.820   3.655   2.222 -0.3723 -0.3366  0.2496
  307SOL    HW110735   2.919   3.638   2.218 -0.5110 -1.1109 -0.1070
  307SOL    HW210736   2.774   3.593   2.158 -0.8456  2.0900 -1.8185
  308SOL     OW10737   3.195   2.134   1.793 -0.2741  0.1059 -0.1127
  308SOL    HW110738   3.237   2.069   1.857  1.9832  0.9219 -0.6996
  308SOL    HW210739   3.136   2.085   1.730  0.0739 -1.1606  0.5247
  309SOL     OW10740   4.110   3.255   0.461 -0.0253  0.5903 -0.1393
  309SOL    HW110741   4.132   3.177   0.520  2.0113  0.8210 -0.5474
  309SOL    HW210742   4.189   3.276   0.403 -0.9219  2.3029 -0.7753
  310SOL     OW10743   4.767   2.564   0.730 -0.0269  0.7556 -0.1844
  310SOL    HW110744   4.855   2.538   0.690 -0.6179 -0.6509 -0.6004
  310SOL    HW210745   4.738   2.651   0.691  1.2716  1.3378  0.1057
  311SOL     OW10746   4.649   4.821   0.488  0.3860  0.4341  0.3204
  311SOL    HW110747   4.607   4.783   0.570 -0.0290 -0.8243 -0.4596
  311SOL    HW210748   4.614   4.772   0.407  1.8854  0.6785 -0.4879
  312SOL     OW10749   4.115   4.879   1.083  0.2421 -0.1077  0.0907
  312SOL    HW110750   4.134   4.780   1.079  0.5325 -0.0272 -0.5060
  312SOL    HW210751   4.163   4.925   1.009  0.9980  0.6272  1.0255
  313SOL     OW10752   3.193   6.858   0.323 -0.2141  0.3120  0.2696
  313SOL    HW110753   3.174   6.874   0.226 -0.2214  2.4274  0.5993
  313SOL    HW210754   3.169   6.763   0.346 -0.1000 -0.2576 -1.8071
  314SOL     OW10755   3.717   4.338   0.341  0.1187 -0.6312 -0.1666
  314SOL    HW110756   3.764   4.426   0.333  3.0271 -2.0571  0.5500
  314SOL    HW210757   3.714   4.311   0.438  0.2173 -1.8339 -0.4958
  315SOL     OW10758   2.230   6.438   0.019 -0.3007 -0.1277  0.2479
  315SOL    HW110759   2.166   6.418  -0.055  1.5789  0.7698 -1.6750
  315SOL    HW210760   2.250   6.536   0.020  2.1935 -0.5967 -0.1823
  316SOL     OW10761   2.710   3.972   1.794 -0.8342  0.4655 -0.5033
  316SOL    HW110762   2.709   3.897   1.728 -1.9059  0.4739 -0.5060
  316SOL    HW210763   2.796   4.022   1.787 -0.4222 -0.3120 -1.0112
  317SOL     OW10764   2.567   7.256   1.868  0.0007 -0.2226  0.5915
  317SOL    HW110765   2.568   7.270   1.967 -1.1606 -1.9151  0.8692
  317SOL    HW210766   2.513   7.328   1.825 -2.1161 -1.2135  1.5192
  318SOL     OW10767   3.855   8.620   2.148 -0.2930  0.2501  0.3416
  318SOL    HW110768   3.936   8.624   2.207  0.7814  0.2922 -1.1228
  318SOL    HW210769   3.845   8.706   2.099 -0.5766 -0.1694 -0.3430
  319SOL     OW10770   3.034   9.071   2.579  0.1089 -0.2073  0.1045
  319SOL    HW110771   2.983   8.986   2.564  2.1623 -1.6249  0.9666
  319SOL    HW210772   3.041   9.089   2.677  1.8428 -0.4204  0.0357
  320SOL     OW10773   3.018   4.330   1.224  0.5558 -0.3856  0.0855
  320SOL    HW110774   3.081   4.407   1.226 -0.8703  1.0110 -3.4485
  320SOL    HW210775   2.924   4.363   1.235  0.1071 -1.8982  0.8915
  321SOL     OW10776   4.223   3.053   1.161 -0.4893 -0.4040 -0.2064
  321SOL    HW110777   4.279   3.097   1.090  0.6787 -0.7398  0.4916
  321SOL    HW210778   4.148   3.114   1.186 -0.1200  0.2966 -0.7618
  322SOL     OW10779   4.086   2.696   0.818 -0.0944  0.8294  0.0499
  322SOL    HW110780   4.159   2.764   0.810  0.0132  0.5722 -1.2762
  322SOL    HW210781   4.113   2.613   0.770 -0.3328 -0.0688  1.4675
  323SOL     OW10782   2.069   6.601   0.277  0.4082 -0.0835 -0.4000
  323SOL    HW110783   2.121   6.621   0.360 -0.6698 -0.7141  0.4432
  323SOL    HW210784   1.973   6.621   0.292 -0.1004 -2.0753 -0.8221
  324SOL     OW10785   4.274   3.461   1.069 -0.0359 -0.1582 -0.2637
  324SOL    HW110786   4.227   3.513   0.998 -0.6041 -1.3594 -0.7822
  324SOL    HW210787   4.369   3.491   1.076 -0.0530  0.1444 -1.3395
  325SOL     OW10788   3.506   3.256   2.150  0.0230 -0.8880 -1.0428
  325SOL    HW110789   3.499   3.335   2.088 -0.9833 -0.6351 -0.6101
  325SOL    HW210790   3.598   3.252   2.188 -0.6159  1.5570  0.8709
  326SOL     OW10791   3.148   5.845   1.552  0.5105  0.4959 -0.1190
  326SOL    HW110792   3.168   5.764   1.498 -1.3287  0.7997 -1.3108
  326SOL    HW210793   3.075   5.898   1.507  0.1439  1.6439  1.7754
  327SOL     OW10794   3.643   1.402   2.367  0.5415 -0.4434 -0.0186
  327SOL    HW110795   3.548   1.387   2.337  0.3351  0.8124 -0.0473
  327SOL    HW210796   3.675   1.490   2.331  1.8889 -1.0733 -0.4035
  328SOL     OW10797   2.897   5.663   0.447  0.5209 -0.4798  0.0183
  328SOL    HW110798   2.811   5.654   0.497  1.3175  0.9580  1.7032
  328SOL    HW210799   2.969   5.613   0.496  1.3395  1.0468  0.4136
  329SOL     OW10800   2.847   9.624   1.813  0.6266 -0.0586 -0.3701
  329SOL    HW110801   2.824   9.666   1.725  1.9094  0.2924 -0.5391
  329SOL    HW210802   2.875   9.694   1.878  2.2738 -0.5746 -0.4962
  330SOL     OW10803   2.863   1.560   1.491 -0.2572 -0.1796 -0.0177
  330SOL    HW110804   2.959   1.533   1.492 -0.1233  0.2108  2.8900
  330SOL    HW210805   2.812   1.499   1.430  1.6010 -1.1659 -0.6379
  331SOL     OW10806   1.943   7.247   0.375 -0.1223 -0.7758  0.1326
  331SOL    HW110807   2.004   7.230   0.453  0.4639 -1.2399 -0.4288
  331SOL    HW210808   1.994   7.237   0.290 -0.8157 -0.4622 -0.3234
  332SOL     OW10809   3.711   8.546  -0.069  0.0256  0.3576 -0.6485
  332SOL    HW110810   3.687   8.641  -0.089 -1.3823  0.8891  3.2802
  332SOL    HW210811   3.630   8.496  -0.038  1.7598 -0.7378  2.3114
  333SOL     OW10812   2.608   8.493   2.212  0.6821 -0.0704 -0.1852
  333SOL    HW110813   2.591   8.570   2.274  1.9997 -0.1643  0.3088
  333SOL    HW210814   2.544   8.419   2.232 -0.1021  0.6029 -0.1620
  334SOL     OW10815   2.399   0.986   1.477  0.3273 -0.3902 -0.2556
  334SOL    HW110816   2.355   1.012   1.391 -0.3804  0.5729  0.3755
  334SOL    HW210817   2.471   1.052   1.499  0.8114 -0.8929 -0.3450
  335SOL     OW10818   3.584   5.164   1.006  0.2539 -0.0038 -0.4715
  335SOL    HW110819   3.670   5.119   1.029  0.9070 -0.1241 -2.9961
  335SOL    HW210820   3.594   5.212   0.918 -2.3327 -0.2778 -0.9553
  336SOL     OW10821   2.429   9.429   2.181  0.1458 -0.3588 -0.6818
  336SOL    HW110822   2.342   9.472   2.206  0.8569 -0.3505  1.8785
  336SOL    HW210823   2.497   9.500   2.163  0.0991 -0.3909 -0.9984
  337SOL     OW10824   3.183   4.511   0.963  0.0956 -0.3521  0.3333
  337SOL    HW110825   3.263   4.456   0.989  0.3916  0.0278  0.2329
  337SOL    HW210826   3.112   4.452   0.925  0.7903 -0.5322 -0.6758
  338SOL     OW10827   2.865   1.621   0.189 -0.7222 -0.7895  0.2635
  338SOL    HW110828   2.948   1.579   0.153 -1.0711 -1.2297 -0.0343
  338SOL    HW210829   2.786   1.564   0.166 -1.0439 -0.6619  1.0242
  339SOL     OW10830   4.016   9.127   2.073  0.2367  0.2616 -0.2181
  339SOL    HW110831   3.961   9.086   2.146 -0.7067  1.3051 -0.3304
  339SOL    HW210832   4.089   9.064   2.046  0.6585 -0.0999  1.6959
  340SOL     OW10833   3.480   1.003   0.833 -0.5083  0.1940  0.3107
  340SOL    HW110834   3.545   1.056   0.778 -0.2792 -1.2864 -0.8838
  340SOL    HW210835   3.387   1.036   0.815 -0.4481 -0.3622 -1.0909
  341SOL     OW10836   4.873   2.452   0.064  0.2936  0.3436 -0.0649
  341SOL    HW110837   4.896   2.528   0.125 -3.1730 -0.2189  2.1347
  341SOL    HW210838   4.824   2.486  -0.016  2.3930  0.7903 -1.1986
  342SOL     OW10839   4.494   2.665   1.897  0.6302  0.1237 -0.6816
  342SOL    HW110840   4.457   2.573   1.885 -1.2912  0.7384  0.2186
  342SOL    HW210841   4.503   2.709   1.808 -1.2549  0.0967 -0.9092
  343SOL     OW10842   4.344   2.742   2.430  0.0588 -0.5598  0.5264
  343SOL    HW110843   4.329   2.773   2.336 -1.2183  2.5229  1.6917
  343SOL    HW210844   4.275   2.673   2.453 -0.1977 -0.6565 -0.5018
  344SOL     OW10845   4.506   3.721   0.840  0.1776 -0.3144  0.0444
  344SOL    HW110846   4.562   3.684   0.766  3.0034  0.5482  1.7146
  344SOL    HW210847   4.415   3.743   0.804  1.4706  0.0593 -3.1764
  345SOL     OW10848   2.516   9.766   0.747 -0.1260  0.1467 -0.3383
  345SOL    HW110849   2.432   9.716   0.767  0.0221  1.1147  2.9084
  345SOL    HW210850   2.589   9.702   0.724 -0.1781 -1.1095  2.8473
  346SOL     OW10851   2.579   8.790   0.241  0.2549  0.1566 -0.5771
  346SOL    HW110852   2.533   8.798   0.330  2.0806  0.0069  0.4023
  346SOL    HW210853   2.567   8.876   0.191  3.8744  2.4281  2.1585
  347SOL     OW10854   2.247   6.708  -0.108 -0.0954 -0.5472 -0.3513
  347SOL    HW110855   2.171   6.754  -0.154 -0.0043  0.6094  0.6255
  347SOL    HW210856   2.324   6.771  -0.099  0.5919 -1.3769 -0.3789
  348SOL     OW10857   2.652  10.131   1.029 -0.1790 -0.1492 -0.0291
  348SOL    HW110858   2.724  10.200   1.040 -0.5683  0.2156  0.2408
  348SOL    HW210859   2.614  10.108   1.119 -1.6877  1.0337 -0.3418
  349SOL     OW10860   2.798   0.945   1.705 -0.0040 -0.7623  0.0172
  349SOL    HW110861   2.804   0.911   1.799 -0.6954  1.2666  0.8300
  349SOL    HW210862   2.707   0.984   1.690  0.2410 -0.7000 -1.3629
  350SOL     OW10863   3.019   2.465   2.306  0.3466  0.3656  0.4477
  350SOL    HW110864   3.091   2.529   2.278 -0.2257  0.4547 -0.8822
  350SOL    HW210865   2.991   2.410   2.227 -0.0598 -0.6487  1.2854
  351SOL     OW10866   2.946   6.865   0.844  0.3099  0.3245 -0.3624
  351SOL    HW110867   2.907   6.948   0.804  0.2078  0.5264  0.1521
  351SOL    HW210868   2.965   6.881   0.941 -0.3097 -0.4533 -0.1050
  352SOL     OW10869   2.380   3.581   1.508 -0.1333  0.2673  0.5306
  352SOL    HW110870   2.354   3.485   1.496 -1.6047  0.8452 -1.3333
  352SOL    HW210871   2.297   3.637   1.514  0.6895  1.6809 -0.9646
  353SOL     OW10872   2.619   0.657   1.043 -0.3483 -0.0772  0.4673
  353SOL    HW110873   2.710   0.694   1.060  0.1622 -0.9696 -0.3196
  353SOL    HW210874   2.624   0.558   1.031 -1.0444  0.1662 -2.1404
  354SOL     OW10875   2.519   9.075   0.104  0.0583  0.0162  0.3159
  354SOL    HW110876   2.492   9.130   0.183  0.5536  0.8061 -0.0644
  354SOL    HW210877   2.601   9.114   0.062 -0.8828  0.2909 -1.3001
  355SOL     OW10878   3.146   0.629   1.413 -0.8753  0.7418  0.1153
  355SOL    HW110879   3.066   0.663   1.364 -0.1501  2.8859  0.3547
  355SOL    HW210880   3.157   0.680   1.498  1.1252  0.9569 -0.2454
  356SOL     OW10881   2.824   2.590   2.106  0.3630  0.3666 -0.7031
  356SOL    HW110882   2.727   2.593   2.133  0.6131 -3.1465  0.8727
  356SOL    HW210883   2.881   2.607   2.186  1.0869  0.5925 -1.2646
  357SOL     OW10884   3.173   8.909   0.554 -0.2086 -0.3475  0.4188
  357SOL    HW110885   3.269   8.928   0.573  0.4445 -2.0398 -1.0378
  357SOL    HW210886   3.125   8.994   0.536  1.3494  0.3954 -0.3260
  358SOL     OW10887   4.451   2.209   0.972  0.0348 -0.0391  0.2704
  358SOL    HW110888   4.374   2.196   0.909  0.7179 -1.7226 -0.2524
  358SOL    HW210889   4.533   2.234   0.921  0.1879  0.2877  0.6709
  359SOL     OW10890   4.435   4.597   2.317 -0.1435  0.3699  0.3288
  359SOL    HW110891   4.521   4.570   2.275 -0.4149  0.2758 -0.1739
  359SOL    HW210892   4.373   4.633   2.247 -0.8837 -0.5067  0.5085
  360SOL     OW10893   3.505   2.073   1.313 -0.4063 -0.3900 -0.7202
  360SOL    HW110894   3.580   2.036   1.369 -1.0112  1.4036  1.3513
  360SOL    HW210895   3.511   2.173   1.311 -2.1857 -0.2773 -1.3346
  361SOL     OW10896   3.485   8.416   0.052 -0.6575 -0.1095  0.1579
  361SOL    HW110897   3.524   8.335   0.096  0.7981  0.2355 -0.4469
  361SOL    HW210898   3.489   8.493   0.115 -0.2163 -0.0420  0.0520
  362SOL     OW10899   2.909   8.577   0.368 -0.1867  0.0327  0.2273
  362SOL    HW110900   3.003   8.601   0.395  0.4253 -0.1957 -1.6504
  362SOL    HW210901   2.868   8.654   0.318 -1.0599  0.1743  1.1350
  363SOL     OW10902   2.736   0.286   0.674 -0.5179  0.1324  0.7443
  363SOL    HW110903   2.807   0.260   0.608 -0.6859  2.5581 -0.4518
  363SOL    HW210904   2.706   0.205   0.724  1.0323 -1.4281 -0.7660
  364SOL     OW10905   3.074   4.620   0.693 -0.1885 -1.1664 -0.1344
  364SOL    HW110906   3.014   4.626   0.773 -0.1015  2.3876 -0.2229
  364SOL    HW210907   3.024   4.582   0.616 -1.5870 -0.6168  0.4852
  365SOL     OW10908   2.395   6.714   1.444  0.2918  0.0344 -0.0156
  365SOL    HW110909   2.379   6.670   1.355  0.7345 -1.8299  0.8217
  365SOL    HW210910   2.360   6.656   1.517  1.0188  1.0042  1.1149
  366SOL     OW10911   3.629   9.723   0.807 -0.8980 -0.5576 -0.3688
  366SOL    HW110912   3.678   9.705   0.722 -0.2860 -0.3414 -0.0674
  366SOL    HW210913   3.694   9.729   0.883 -0.9825  3.3306 -0.5114
  367SOL     OW10914   2.607   7.345   2.371  0.3406 -0.0383 -0.6250
  367SOL    HW110915   2.636   7.301   2.456  2.2599  0.4648 -0.9827
  367SOL    HW210916   2.522   7.394   2.385  1.2371  0.9888  1.2981
  368SOL     OW10917   2.596   7.161  -0.075  0.2367 -0.0102 -0.1996
  368SOL    HW110918   2.542   7.184   0.006  1.0301 -1.2773  0.7155
  368SOL    HW210919   2.690   7.142  -0.047  0.9106  1.1116 -1.6319
  369SOL     OW10920   3.415   2.871   0.009 -0.1854 -0.3377 -1.0332
  369SOL    HW110921   3.326   2.908  -0.014 -0.8015 -2.2629 -1.8334
  369SOL    HW210922   3.425   2.866   0.109 -0.8430  0.1668 -0.9449
  370SOL     OW10923   4.792   2.784   1.219 -0.0291 -0.2510 -0.1929
  370SOL    HW110924   4.860   2.857   1.210 -1.1710  0.7122 -1.1140
  370SOL    HW210925   4.729   2.787   1.142 -1.0139 -1.2484  0.5528
  371SOL     OW10926   3.142   6.287   0.336 -0.1011  0.1952  0.0174
  371SOL    HW110927   3.081   6.251   0.265  1.5642 -1.0525 -0.8022
  371SOL    HW210928   3.189   6.212   0.382 -1.1416  0.9887  2.4897
  372SOL     OW10929   2.423   9.489   1.768 -0.2086 -0.7499  0.4871
  372SOL    HW110930   2.497   9.487   1.836 -1.5579 -0.4051  2.0056
  372SOL    HW210931   2.338   9.518   1.813 -1.6278 -2.6842 -0.8981
  373SOL     OW10932   2.685   8.462   2.515  0.3048  0.1000 -0.1257
  373SOL    HW110933   2.697   8.381   2.457 -0.2650 -2.9579  3.7936
  373SOL    HW210934   2.617   8.523   2.473 -1.1989 -2.7209 -1.9456
  374SOL     OW10935   2.703   0.927   1.239 -0.0094  0.0287  0.1231
  374SOL    HW110936   2.651   0.842   1.251 -0.8560  0.6401  0.7860
  374SOL    HW210937   2.747   0.951   1.326  0.1549  0.3226 -0.0432
  375SOL     OW10938   3.651   2.273   1.959  0.3233 -0.1139 -0.2550
  375SOL    HW110939   3.556   2.300   1.942 -0.1397 -0.4681  1.6238
  375SOL    HW210940   3.652   2.185   2.005  1.5620  0.0215 -0.0223
  376SOL     OW10941   2.498   9.532   1.509  0.5377 -0.1857  0.1945
  376SOL    HW110942   2.483   9.450   1.454  1.0799  0.1260 -0.4234
  376SOL    HW210943   2.471   9.514   1.604  2.5043 -1.7443  0.5087
  377SOL     OW10944   2.543   8.602   0.506 -0.1562  0.5140  0.2960
  377SOL    HW110945   2.547   8.537   0.583 -0.1715  0.5329  0.3123
  377SOL    HW210946   2.586   8.561   0.426  1.0579  1.0063  0.6862
  378SOL     OW10947   2.750   0.847   0.433  0.0573 -0.7710  0.3538
  378SOL    HW110948   2.662   0.893   0.443  0.3115 -0.5861  1.7653
  378SOL    HW210949   2.758   0.775   0.502  1.2795 -0.3549  0.6563
  379SOL     OW10950   3.324   5.628   0.414  0.5401 -0.1427 -0.1155
  379SOL    HW110951   3.272   5.711   0.434  1.2664  0.3484 -0.2324
  379SOL    HW210952   3.312   5.603   0.318 -0.1068 -0.4837  0.0485
  380SOL     OW10953   2.116   6.796   1.982 -0.4354  0.3728  0.0308
  380SOL    HW110954   2.147   6.784   1.888 -0.4821  0.5249 -0.0051
  380SOL    HW210955   2.191   6.829   2.039 -0.8496  2.0106 -0.3332
  381SOL     OW10956   2.998   9.813   1.983 -0.0090 -0.4064  0.2366
  381SOL    HW110957   2.975   9.900   1.939  0.6784 -0.1680  0.3501
  381SOL    HW210958   2.984   9.821   2.082 -0.9052 -0.7369  0.1420
  382SOL     OW10959   3.730   8.516   0.554  0.1654 -0.1205 -0.5732
  382SOL    HW110960   3.655   8.543   0.493 -1.4319  0.4919  1.6277
  382SOL    HW210961   3.783   8.597   0.579  0.3013 -0.2399 -0.4744
  383SOL     OW10962   3.282   0.663   0.569 -0.2526 -0.5114  0.5850
  383SOL    HW110963   3.187   0.659   0.601 -0.0982 -0.5339  1.0446
  383SOL    HW210964   3.322   0.572   0.570 -0.6223 -0.7016 -0.8400
  384SOL     OW10965   3.052   0.386   1.551 -0.4691 -0.9102 -0.3055
  384SOL    HW110966   3.090   0.464   1.501 -2.3109 -0.3148 -0.8338
  384SOL    HW210967   2.968   0.355   1.505 -1.2547 -1.4495  1.4550
  385SOL     OW10968   2.530   3.744   1.639 -0.6284  0.6085 -0.5798
  385SOL    HW110969   2.460   3.708   1.578  1.2761 -0.6516 -2.0838
  385SOL    HW210970   2.594   3.801   1.586  0.8777 -0.2538  0.2797
  386SOL     OW10971   4.596   3.515   2.001  0.1480  0.7522 -0.2223
  386SOL    HW110972   4.597   3.549   2.095 -2.4533 -1.8547  0.8187
  386SOL    HW210973   4.611   3.416   2.001  1.6465  0.9479 -2.6875
  387SOL     OW10974   3.279   0.284   1.653  0.1688  0.2116  0.1916
  387SOL    HW110975   3.304   0.194   1.618 -2.2625 -0.9607  1.2771
  387SOL    HW210976   3.201   0.320   1.601 -0.8120  0.2926  1.6692
  388SOL     OW10977   3.681   5.509   1.286  0.1312  0.0268  0.1458
  388SOL    HW110978   3.704   5.467   1.198 -0.5600  0.0154 -0.0333
  388SOL    HW210979   3.703   5.445   1.360  0.6844  0.0247 -0.0229
  389SOL     OW10980   3.737   1.237   2.039  0.3295 -0.1990 -1.2417
  389SOL    HW110981   3.760   1.209   1.946 -1.3530  0.0014 -1.7360
  389SOL    HW210982   3.800   1.309   2.068  1.0089 -0.4197 -2.1448
  390SOL     OW10983   4.486   4.798   1.910 -0.1727 -0.2515 -0.1313
  390SOL    HW110984   4.578   4.790   1.948  0.5068 -0.5156 -1.8188
  390SOL    HW210985   4.463   4.715   1.860 -0.6310  0.5412 -1.2492
  391SOL     OW10986   2.716   7.562   0.831  0.4180  0.1131  0.0324
  391SOL    HW110987   2.618   7.544   0.817  0.3393  0.7070 -0.1886
  391SOL    HW210988   2.763   7.476   0.851  0.0448 -0.3398 -1.0040
  392SOL     OW10989   2.415   4.251   0.094  0.4733  0.0416  0.4526
  392SOL    HW110990   2.396   4.221   0.000  0.7288  0.2126  0.3468
  392SOL    HW210991   2.457   4.175   0.144 -0.2106 -0.2464  0.6055
  393SOL     OW10992   4.553   4.081   0.030  0.2107 -0.0069 -0.0835
  393SOL    HW110993   4.510   4.084   0.120 -0.7804 -1.6202 -0.5017
  393SOL    HW210994   4.483   4.089  -0.041  0.9112  0.4817 -0.7258
  394SOL     OW10995   3.869   3.023  -0.054  0.5440  0.0189  0.1473
  394SOL    HW110996   3.918   2.973   0.017  0.6684  0.1785  0.1731
  394SOL    HW210997   3.910   3.113  -0.067  2.0867 -0.9302 -1.8641
  395SOL     OW10998   3.572   5.467   0.130  0.2455  0.2977 -0.5100
  395SOL    HW110999   3.519   5.549   0.154 -1.2096 -0.9758  0.7494
  395SOL    HW211000   3.541   5.432   0.042 -0.5252 -0.0161 -0.1226
  396SOL     OW11001   3.143   1.047   0.071  0.2018  0.3622 -0.5682
  396SOL    HW111002   3.050   1.057   0.034  0.3591  0.9029 -0.8169
  396SOL    HW211003   3.176   1.136   0.102  0.0263 -0.1064  0.9980
  397SOL     OW11004   4.614   2.328   0.765 -0.2673  0.6362  0.2388
  397SOL    HW111005   4.677   2.398   0.732  0.9005 -0.4287  0.2192
  397SOL    HW211006   4.659   2.239   0.766 -1.5007  0.0031  1.0167
  398SOL     OW11007   2.705   5.778  -0.121 -0.2358 -0.4795 -0.0124
  398SOL    HW111008   2.779   5.844  -0.115 -1.6204  1.0199  1.0781
  398SOL    HW211009   2.674   5.754  -0.029  0.0368 -2.4097 -0.4109
  399SOL     OW11010   3.924   4.782   2.048  0.6059  0.0458 -0.0630
  399SOL    HW111011   3.966   4.771   1.958 -0.1272  3.2506 -0.8847
  399SOL    HW211012   3.993   4.816   2.113  0.0942  2.2197 -0.6159
  400SOL     OW11013   3.772   9.172  -0.058 -0.2422  0.0217  0.5091
  400SOL    HW111014   3.774   9.271  -0.040  1.5344  0.2165 -0.7368
  400SOL    HW211015   3.724   9.155  -0.144 -0.0528 -0.1701  0.4428
  401SOL     OW11016   2.798   7.296   0.214  0.2028  0.7286 -0.6358
  401SOL    HW111017   2.870   7.311   0.146  0.1691 -3.7802 -1.8018
  401SOL    HW211018   2.709   7.312   0.172  0.2947  0.6366 -0.8668
  402SOL     OW11019   2.943   8.791   2.074 -0.3708  0.1977  0.2894
  402SOL    HW111020   2.932   8.849   2.155 -1.2401  0.2599  0.1271
  402SOL    HW211021   2.890   8.829   1.999 -0.8242 -0.7326  0.1364
  403SOL     OW11022   2.931   5.375   1.762 -0.1652 -0.3246  0.1478
  403SOL    HW111023   3.009   5.425   1.726  0.5934 -0.0804  2.0487
  403SOL    HW211024   2.848   5.430   1.751  0.1731  0.0514 -0.5213
  404SOL     OW11025   3.307   9.562   0.617  0.0697  0.5826  0.2771
  404SOL    HW111026   3.350   9.652   0.611  0.7520  0.2876  0.6607
  404SOL    HW211027   3.338   9.516   0.700 -1.4395  0.5952  0.8640
  405SOL     OW11028   2.610   3.978   0.834 -0.1729 -0.1115  0.5805
  405SOL    HW111029   2.657   3.971   0.922  0.3857 -1.1695  0.2024
  405SOL    HW211030   2.622   4.070   0.798 -0.4047  0.3335  1.6092
  406SOL     OW11031   3.090   8.885   1.114  0.0557 -0.4533 -0.1443
  406SOL    HW111032   2.991   8.886   1.100  0.3493 -0.2530 -2.5046
  406SOL    HW211033   3.129   8.807   1.066  1.1090 -0.1307  0.1839
  407SOL     OW11034   2.733   3.132   1.810 -0.0412 -0.4389 -0.9042
  407SOL    HW111035   2.761   3.037   1.804  0.4488 -0.5082  1.7180
  407SOL    HW211036   2.642   3.137   1.853  0.7497  0.3456  0.7197
  408SOL     OW11037   3.623   9.680   2.076  0.1988 -0.3907 -0.1596
  408SOL    HW111038   3.634   9.768   2.031  1.1992 -0.0874  0.6497
  408SOL    HW211039   3.702   9.621   2.053  0.2375 -0.5709  0.4195
  409SOL     OW11040   4.144   3.899   0.904 -0.2178  0.6842  0.0585
  409SOL    HW111041   4.165   3.888   1.001  1.5612 -0.5489 -0.4301
  409SOL    HW211042   4.086   3.979   0.890 -0.5639  0.8043  2.1449
  410SOL     OW11043   3.917   0.513   2.177  0.0604 -0.3280 -0.4192
  410SOL    HW111044   3.869   0.548   2.258 -1.1902  1.9243 -2.0621
  410SOL    HW211045   3.883   0.421   2.156 -2.6233  0.6846 -0.7536
  411SOL     OW11046   3.793   3.961   1.519 -0.4890 -0.1058 -0.9387
  411SOL    HW111047   3.824   3.965   1.424 -0.5309  0.0473 -0.9464
  411SOL    HW211048   3.854   4.017   1.576  1.4210 -2.6727 -0.3533
  412SOL     OW11049   3.109   1.145   1.607  0.1095  0.8220 -0.0502
  412SOL    HW111050   3.062   1.068   1.564 -0.1466  0.7550  0.3432
  412SOL    HW211051   3.207   1.125   1.613 -0.2198 -0.3312  1.8375
  413SOL     OW11052   2.450   5.798   0.965  0.2718  0.4246  0.0536
  413SOL    HW111053   2.444   5.747   1.051 -0.8874 -0.0780 -0.3113
  413SOL    HW211054   2.376   5.769   0.905  0.3964  1.6135 -0.6717
  414SOL     OW11055   2.705   1.878   0.945 -0.0687 -1.3285 -0.2122
  414SOL    HW111056   2.640   1.865   0.870  0.3604 -0.4424 -0.7453
  414SOL    HW211057   2.785   1.927   0.911 -1.0319  1.4538  1.4320
  415SOL     OW11058   2.764   9.457   2.180 -0.2572  0.0219 -0.0300
  415SOL    HW111059   2.769   9.518   2.258  0.5740 -0.9185  0.6692
  415SOL    HW211060   2.842   9.394   2.182  0.6812  1.0452 -2.5087
  416SOL     OW11061   4.627   3.373   0.373  0.0321 -0.4538  0.3830
  416SOL    HW111062   4.577   3.383   0.459 -1.1533  1.0422 -0.4673
  416SOL    HW211063   4.646   3.463   0.334 -1.8558 -1.1704 -2.2887
  417SOL     OW11064   4.143   8.661   1.027 -0.0937  0.4550 -0.2901
  417SOL    HW111065   4.164   8.636   1.122  0.3999  0.8508 -0.2965
  417SOL    HW211066   4.165   8.758   1.012  0.3123  0.2593 -0.9569
  418SOL     OW11067   2.189   3.792   1.506  0.6623  0.3789 -0.3182
  418SOL    HW111068   2.146   3.837   1.428  1.5610 -0.7131 -1.4499
  418SOL    HW211069   2.231   3.861   1.565 -3.3494  1.5675  1.3057
  419SOL     OW11070   2.453   7.481   0.760  0.4243  0.2822 -0.2371
  419SOL    HW111071   2.482   7.397   0.714  2.4046 -0.4962  2.3074
  419SOL    HW211072   2.395   7.457   0.838 -0.6449  1.4332 -0.6574
  420SOL     OW11073   2.905   2.307   1.649  0.1266  0.2317  0.7058
  420SOL    HW111074   2.883   2.403   1.633  1.0890  0.5551  1.3351
  420SOL    HW211075   2.820   2.255   1.657 -0.4390  1.4535  2.9340
  421SOL     OW11076   3.896   4.036   2.577 -0.1440 -0.4907 -0.5353
  421SOL    HW111077   3.816   4.050   2.635 -0.7159 -0.5632 -1.3021
  421SOL    HW211078   3.927   3.941   2.585  0.4589 -0.2241  0.4968
  422SOL     OW11079   3.505   9.238   1.832  0.2515  0.0120  0.2223
  422SOL    HW111080   3.476   9.334   1.830 -0.8704 -0.2864  1.4110
  422SOL    HW211081   3.428   9.180   1.859  0.7963 -1.2892 -0.9598
  423SOL     OW11082   2.517   2.371   2.188 -0.1144 -0.4070 -0.2933
  423SOL    HW111083   2.457   2.352   2.266  0.5542  1.1158  0.6251
  423SOL    HW211084   2.605   2.325   2.201  0.3638  0.6728  0.3704
  424SOL     OW11085   2.832   9.708   0.729 -0.3206 -0.3946 -0.3393
  424SOL    HW111086   2.828   9.635   0.798 -0.0708 -0.4911 -0.4276
  424SOL    HW211087   2.807   9.795   0.772 -3.4138 -0.9770 -0.8756
  425SOL     OW11088   4.045   4.752   1.795 -0.5418 -0.0829 -0.3892
  425SOL    HW111089   3.996   4.819   1.739  0.3887  0.2646 -0.7954
  425SOL    HW211090   4.126   4.720   1.745  0.1354  0.0165  0.6423
  426SOL     OW11091   2.905   4.932   0.392  0.1268 -0.0114  0.1496
  426SOL    HW111092   2.854   4.934   0.478  3.3129  1.6745  2.0623
  426SOL    HW211093   2.984   4.872   0.402 -0.4477 -1.2307 -2.2327
  427SOL     OW11094   3.124   7.823   1.649  0.3501 -0.8077  0.2047
  427SOL    HW111095   3.160   7.837   1.741  0.3928 -0.8795  0.1984
  427SOL    HW211096   3.197   7.834   1.582  0.3999 -1.1302  0.2036
  428SOL     OW11097   2.861   8.842   2.535 -0.1910 -0.4894  0.2157
  428SOL    HW111098   2.883   8.746   2.554 -0.3020 -0.8508 -1.4497
  428SOL    HW211099   2.766   8.860   2.564 -0.0214 -0.7495  0.9536
  429SOL     OW11100   2.767   5.603   1.130 -0.1297  0.4826  0.3598
  429SOL    HW111101   2.680   5.560   1.106  0.4574  0.2862 -1.4925
  429SOL    HW211102   2.792   5.578   1.224 -2.5040  1.3077  1.2540
  430SOL     OW11103   4.329   9.170   2.251 -0.4748  0.0834  0.7464
  430SOL    HW111104   4.269   9.095   2.276 -0.9495  0.5562  1.0393
  430SOL    HW211105   4.290   9.222   2.175 -0.8732  0.9109  1.5020
  431SOL     OW11106   3.520   1.367   0.183 -0.3031  0.1231 -0.0578
  431SOL    HW111107   3.544   1.410   0.097  0.3706 -0.0420  0.0453
  431SOL    HW211108   3.424   1.339   0.181 -0.7347  1.5800 -0.1387
  432SOL     OW11109   3.050   9.160   1.351 -0.1987 -0.4074  0.8007
  432SOL    HW111110   3.101   9.199   1.429 -1.1236  0.6792  0.8789
  432SOL    HW211111   3.104   9.172   1.268  0.4346 -0.8235  1.1479
  433SOL     OW11112   2.680   1.290   2.576  0.6350 -0.1234  0.1135
  433SOL    HW111113   2.665   1.193   2.556 -1.1050  0.4272 -1.4501
  433SOL    HW211114   2.623   1.345   2.514  0.0792  1.8454  2.3185
  434SOL     OW11115   3.609   3.489   0.061 -0.0111 -0.0933 -0.2978
  434SOL    HW111116   3.612   3.422   0.135 -1.6664  0.0058 -0.1129
  434SOL    HW211117   3.568   3.447  -0.020  0.3802  0.2418 -0.6667
  435SOL     OW11118   3.114   1.017   0.561  0.2488  0.0228  0.0162
  435SOL    HW111119   3.136   0.962   0.481  1.6150  0.7202 -0.1134
  435SOL    HW211120   3.026   1.062   0.547  0.6208  0.3966 -1.2474
  436SOL     OW11121   2.457   2.469   1.519  0.1612 -0.0163  0.0397
  436SOL    HW111122   2.391   2.399   1.547 -2.0623  1.1785 -1.9596
  436SOL    HW211123   2.495   2.445   1.429 -1.4865  1.8288 -1.1990
  437SOL     OW11124   2.390   7.294   1.290 -0.1533  0.1960 -0.1707
  437SOL    HW111125   2.325   7.361   1.254  0.6794  1.4266  0.5789
  437SOL    HW211126   2.477   7.302   1.240  0.0261 -0.1343  0.0899
  438SOL     OW11127   3.610   3.284   0.249 -0.5292  0.4932  0.2537
  438SOL    HW111128   3.701   3.290   0.291  0.2124  0.8871 -1.4018
  438SOL    HW211129   3.605   3.204   0.191 -0.5854  1.5199 -1.1838
  439SOL     OW11130   3.513   1.405   2.020  0.3328 -0.6001  0.2764
  439SOL    HW111131   3.597   1.353   2.005  0.1937 -0.5998 -0.5489
  439SOL    HW211132   3.481   1.442   1.933 -0.1268  0.0138  0.7020
  440SOL     OW11133   3.615  10.123   1.225  0.1923  0.1601 -0.7810
  440SOL    HW111134   3.574  10.206   1.264  1.0143 -0.4344  1.4579
  440SOL    HW211135   3.711  10.141   1.204  0.8624 -0.6842  1.3826
  441SOL     OW11136   2.773   6.692   0.691 -0.6065 -0.2261 -0.3104
  441SOL    HW111137   2.830   6.660   0.616 -1.2885 -0.4324 -0.7413
  441SOL    HW211138   2.831   6.734   0.761  0.1497 -1.1300 -0.3822
  442SOL     OW11139   4.376   2.539   0.919 -0.1164 -0.6247  0.1113
  442SOL    HW111140   4.359   2.445   0.887 -0.0830 -0.4711 -0.3566
  442SOL    HW211141   4.471   2.563   0.901 -0.2322 -0.3552 -0.1340
  443SOL     OW11142   3.606   2.543   0.872  0.3304  0.3952 -0.1519
  443SOL    HW111143   3.664   2.520   0.793 -2.3526 -2.0522 -1.5013
  443SOL    HW211144   3.546   2.619   0.849 -0.5844 -0.4406 -0.5816
  444SOL     OW11145   2.321   4.985  -0.110  0.7084  0.1325  0.4311
  444SOL    HW111146   2.257   5.018  -0.042  1.2352 -0.0791  1.0309
  444SOL    HW211147   2.317   4.885  -0.114 -0.3500  0.2060 -0.8601
  445SOL     OW11148   2.157   0.393   0.825 -0.2014 -0.4074 -0.0630
  445SOL    HW111149   2.185   0.487   0.843 -0.6679 -0.2159 -0.3235
  445SOL    HW211150   2.202   0.332   0.891  0.1516 -0.0125  0.0654
  446SOL     OW11151   3.179   9.803   0.497  0.7980 -0.3237 -0.3639
  446SOL    HW111152   3.261   9.810   0.554  0.5674 -2.2501  0.2475
  446SOL    HW211153   3.206   9.797   0.400  1.4786 -2.3286 -0.0782
  447SOL     OW11154   3.970   9.373   1.280 -0.0218 -0.2011 -0.5097
  447SOL    HW111155   4.012   9.284   1.298 -0.3492 -0.4843 -1.1171
  447SOL    HW211156   3.967   9.426   1.364  1.2211 -0.3151 -0.3795
  448SOL     OW11157   4.459   3.433   0.606  0.3370  0.4894  0.1023
  448SOL    HW111158   4.501   3.520   0.628  1.6457 -0.1189  0.0544
  448SOL    HW211159   4.362   3.436   0.630  0.5942  1.5907  1.0664
  449SOL     OW11160   4.114   4.371   0.821 -0.0383 -0.1706 -0.3788
  449SOL    HW111161   4.177   4.433   0.774 -1.5937  1.0047 -0.9460
  449SOL    HW211162   4.062   4.422   0.890 -0.4211 -1.1176  0.0438
  450SOL     OW11163   4.255   8.971   2.008 -0.1047  0.2091  0.1745
  450SOL    HW111164   4.272   8.915   2.089 -1.5823  0.2625  0.5274
  450SOL    HW211165   4.296   9.061   2.020  0.3194 -0.0321  0.5432
  451SOL     OW11166   2.679   2.160   0.623 -0.6600 -0.0929  0.1857
  451SOL    HW111167   2.680   2.255   0.652 -1.7198  0.3404 -1.1687
  451SOL    HW211168   2.743   2.108   0.679  0.7477  1.6224  0.2191
  452SOL     OW11169   4.409   1.655   1.767 -0.2966 -0.2340  0.3529
  452SOL    HW111170   4.400   1.579   1.703 -0.0376  1.2740 -1.5112
  452SOL    HW211171   4.338   1.647   1.837 -0.5553 -1.9293 -0.0723
  453SOL     OW11172   3.818   2.741   0.810  0.2173  0.3497  0.1732
  453SOL    HW111173   3.772   2.671   0.755  0.7109 -0.2994  0.5795
  453SOL    HW211174   3.911   2.710   0.832  1.0840  1.8892 -1.1479
  454SOL     OW11175   3.727   8.244   0.794 -0.0235  0.0605  0.6310
  454SOL    HW111176   3.775   8.174   0.740 -0.3845  0.7028 -0.5224
  454SOL    HW211177   3.789   8.321   0.812  0.1043 -0.1609  1.1743
  455SOL     OW11178   4.061   3.542   2.493  0.2483  0.3584 -0.2996
  455SOL    HW111179   4.158   3.527   2.475  0.2445  1.3337 -1.2056
  455SOL    HW211180   4.045   3.639   2.511 -0.2556 -0.1011  1.8284
  456SOL     OW11181   4.935   3.008   1.467 -0.2778  0.2111  0.1171
  456SOL    HW111182   4.902   2.934   1.526 -2.7296 -0.4054 -1.9041
  456SOL    HW211183   4.865   3.079   1.461  0.0895  0.4480 -1.6844
  457SOL     OW11184   3.000   2.802   0.354 -0.3551  0.2883  0.0235
  457SOL    HW111185   2.933   2.810   0.281  0.7573  2.1221 -0.8220
  457SOL    HW211186   3.078   2.862   0.335  1.0568 -1.0167  1.5045
  458SOL     OW11187   3.911   2.695   1.173 -0.3309  0.2923  0.0051
  458SOL    HW111188   3.977   2.621   1.179 -0.0874  0.3306 -1.8619
  458SOL    HW211189   3.938   2.758   1.099 -2.7297  0.0124 -1.1516
  459SOL     OW11190   2.840   4.263   0.624  0.6839  0.0007  0.1389
  459SOL    HW111191   2.745   4.243   0.601  0.5689 -1.0847  1.5195
  459SOL    HW211192   2.899   4.191   0.589  1.3283  1.9472 -2.9802
  460SOL     OW11193   2.470   9.267   0.351  0.3934 -0.0696  0.3681
  460SOL    HW111194   2.452   9.360   0.381  0.7138 -0.2956  1.2899
  460SOL    HW211195   2.462   9.205   0.429 -0.6641 -0.9255 -0.4055
  461SOL     OW11196   4.706   3.484  -0.032  0.2003  0.2804 -0.1076
  461SOL    HW111197   4.651   3.542  -0.092 -0.4359  0.7975  0.9541
  461SOL    HW211198   4.699   3.518   0.062  0.9320 -0.6992  0.3080
  462SOL     OW11199   2.572   9.743   1.993  0.2424 -0.2492  0.2047
  462SOL    HW111200   2.478   9.710   2.002  0.0122 -0.0777 -1.4689
  462SOL    HW211201   2.632   9.667   1.968  0.4883 -0.2739  0.8497
  463SOL     OW11202   3.883   4.007   2.300  0.3413 -0.4149  0.0552
  463SOL    HW111203   3.903   4.060   2.382 -0.1329  0.0306 -0.1099
  463SOL    HW211204   3.811   3.941   2.319  0.3604 -0.4374  0.0490
  464SOL     OW11205   2.741   2.032   2.472 -0.3247 -0.2574  0.6688
  464SOL    HW111206   2.679   2.075   2.537 -1.0826 -0.7823  0.2927
  464SOL    HW211207   2.835   2.064   2.490 -0.7598  0.9005  0.9150
  465SOL     OW11208   2.367   7.953   2.045  0.2454 -0.5439 -0.2412
  465SOL    HW111209   2.371   8.052   2.032  0.2762 -0.6842 -1.3174
  465SOL    HW211210   2.340   7.909   1.960 -1.5599 -1.3401  0.7145
  466SOL     OW11211   3.326   9.022   1.548  0.2388  0.0835 -0.0513
  466SOL    HW111212   3.264   9.088   1.590  0.7384 -0.3721  1.4412
  466SOL    HW211213   3.289   8.992   1.460 -0.2597  1.9349 -0.4859
  467SOL     OW11214   3.978   3.533   0.658  0.0416 -0.4197  0.3308
  467SOL    HW111215   3.937   3.612   0.702  1.0456 -0.0687  0.6586
  467SOL    HW211216   3.910   3.487   0.600 -0.7570  0.2163  0.7578
  468SOL     OW11217   2.160   0.268   0.385  0.1677 -0.1125 -0.2103
  468SOL    HW111218   2.070   0.299   0.415  0.1481 -0.4763  0.1113
  468SOL    HW211219   2.227   0.283   0.458  0.8518  2.3086 -1.2745
  469SOL     OW11220   2.937   6.466  -0.073 -0.4256 -0.0764  0.4472
  469SOL    HW111221   2.937   6.551  -0.127 -4.1487 -1.1851 -1.4579
  469SOL    HW211222   2.867   6.472  -0.002  0.6590 -0.8081  1.5899
  470SOL     OW11223   4.132   5.270   0.763  0.7782 -0.0294  0.0942
  470SOL    HW111224   4.174   5.356   0.789 -0.0425  0.2842  0.4131
  470SOL    HW211225   4.108   5.271   0.666 -1.2009  0.9600  0.5579
  471SOL     OW11226   2.478   7.245   0.603  0.0380  0.0680 -0.5601
  471SOL    HW111227   2.381   7.234   0.580 -0.2398 -0.8992  0.9633
  471SOL    HW211228   2.530   7.169   0.565  0.1368  0.3513 -0.9975
  472SOL     OW11229   3.504   9.363  -0.076 -0.2286 -0.1638  0.0742
  472SOL    HW111230   3.416   9.385  -0.035 -0.0611 -0.2857  0.5034
  472SOL    HW211231   3.505   9.267  -0.104 -0.3015 -0.1097 -0.1142
  473SOL     OW11232   2.896   4.508   0.503  0.6197  0.0683 -0.1802
  473SOL    HW111233   2.862   4.416   0.522  0.8103  0.1800  0.7139
  473SOL    HW211234   2.936   4.510   0.411 -3.2287  0.3206 -2.0024
  474SOL     OW11235   2.697   6.041   1.970  0.2566  0.2331 -0.6047
  474SOL    HW111236   2.714   5.946   1.946 -0.5637  0.2707 -1.3535
  474SOL    HW211237   2.651   6.087   1.895 -0.3668  0.9271  0.1857
  475SOL     OW11238   2.496   0.945   1.751  0.3886  0.0922  0.3381
  475SOL    HW111239   2.469   0.939   1.655  1.3926 -1.2736  0.1207
  475SOL    HW211240   2.439   1.013   1.798 -3.4828 -2.7108 -0.0604
  476SOL     OW11241   3.097   9.538   2.262 -0.1265  0.5577 -0.3974
  476SOL    HW111242   3.194   9.542   2.237  0.2215  0.3674  0.8961
  476SOL    HW211243   3.060   9.631   2.266  0.4530  0.7439  0.8174
  477SOL     OW11244   3.124   8.261   1.080 -0.2753  0.2549 -0.0346
  477SOL    HW111245   3.126   8.169   1.040 -0.7555 -0.4582  1.5091
  477SOL    HW211246   3.217   8.297   1.085  0.2149 -1.1396  1.4969
  478SOL     OW11247   3.257   4.035   2.387  0.5545  0.3767 -0.2226
  478SOL    HW111248   3.267   3.958   2.449  1.7597 -0.2294 -1.1511
  478SOL    HW211249   3.262   4.121   2.438 -2.1650 -0.1590  1.0048
  479SOL     OW11250   3.975   2.584   0.017  0.6259  0.1471  0.4559
  479SOL    HW111251   3.924   2.503   0.045 -0.5732  0.0464 -1.9406
  479SOL    HW211252   3.953   2.660   0.077 -1.3801 -0.2410  0.2257
  480SOL     OW11253   2.148   5.721   0.109 -0.0359 -0.1896  0.4423
  480SOL    HW111254   2.141   5.753   0.204 -0.7449  1.6474 -0.2231
  480SOL    HW211255   2.096   5.782   0.049  0.4980 -1.2835 -1.1588
  481SOL     OW11256   2.991   4.110   1.064 -0.0834 -0.4186 -0.3003
  481SOL    HW111257   2.997   4.195   1.117  0.6597 -1.4413  1.3143
  481SOL    HW211258   3.030   4.035   1.118 -1.9515 -2.0379 -1.1494
  482SOL     OW11259   2.389   4.449   1.659 -0.8115 -0.7220 -0.2410
  482SOL    HW111260   2.454   4.381   1.691  0.2432  1.4572  2.4568
  482SOL    HW211261   2.299   4.432   1.698 -1.1189 -1.8409 -1.3896
  483SOL     OW11262   2.621   7.262   1.072  0.1272 -0.3471 -0.0507
  483SOL    HW111263   2.612   7.163   1.058  1.1817 -0.3913 -0.3969
  483SOL    HW211264   2.658   7.304   0.989 -1.2097  0.4794 -0.2545
  484SOL     OW11265   4.234   1.709   2.218 -0.4850  0.1777 -0.7333
  484SOL    HW111266   4.328   1.726   2.251 -0.8069 -0.6342  0.6295
  484SOL    HW211267   4.193   1.635   2.270 -2.2995  1.2811 -0.5387
  485SOL     OW11268   2.716   5.414   0.867  0.3475 -0.3019 -0.4908
  485SOL    HW111269   2.761   5.396   0.779 -0.9746 -0.4172 -1.1565
  485SOL    HW211270   2.685   5.328   0.906  1.0036 -0.2582  0.1388
  486SOL     OW11271   3.508   2.504   1.548  0.0105  0.0880  0.3243
  486SOL    HW111272   3.515   2.524   1.450  0.9866  0.0802  0.3808
  486SOL    HW211273   3.463   2.417   1.561 -0.7689  0.4247 -0.0904
  487SOL     OW11274   3.759   3.995   0.514  0.0263  0.1948 -0.5397
  487SOL    HW111275   3.744   3.927   0.442 -2.6426 -0.3234  0.4510
  487SOL    HW211276   3.855   3.993   0.542 -0.0057 -3.3625 -0.3945
  488SOL     OW11277   3.376   4.107   1.926 -0.7452 -0.0492  0.0661
  488SOL    HW111278   3.307   4.067   1.866 -1.5392  1.2761  0.0807
  488SOL    HW211279   3.400   4.041   1.997 -3.5012  0.1602  1.2863
  489SOL     OW11280   2.483  10.100   0.281 -0.3620  0.1349 -0.7213
  489SOL    HW111281   2.543  10.165   0.327 -1.6880  0.4140  0.6802
  489SOL    HW211282   2.454  10.029   0.345  1.6046 -2.2718 -2.4106
  490SOL     OW11283   3.027  10.175   0.025  0.0140 -0.0608  0.2386
  490SOL    HW111284   2.983  10.155  -0.063 -0.1248  0.6958  0.1256
  490SOL    HW211285   2.960  10.217   0.086  0.5470  0.9862  0.1107
  491SOL     OW11286   3.546   9.563   1.158 -0.3223  0.2303 -0.2574
  491SOL    HW111287   3.503   9.542   1.070  0.3331  0.4247 -0.6232
  491SOL    HW211288   3.621   9.628   1.144 -1.6084  1.9629  0.7193
  492SOL     OW11289   2.579   1.201   1.577 -0.3754  0.1239 -0.1262
  492SOL    HW111290   2.567   1.284   1.521 -0.3353 -0.0020 -0.3222
  492SOL    HW211291   2.602   1.227   1.670 -1.7347  0.3802  0.1585
  493SOL     OW11292   3.469   5.397   1.543 -0.4374 -0.6404 -0.4630
  493SOL    HW111293   3.543   5.335   1.516  0.4181 -0.2872  0.9863
  493SOL    HW211294   3.506   5.489   1.558 -0.7273 -0.9569  2.4672
  494SOL     OW11295   2.962   3.182   1.414 -0.0157 -0.0845  0.1716
  494SOL    HW111296   2.864   3.203   1.423 -0.2817 -0.7231 -1.1137
  494SOL    HW211297   2.978   3.086   1.438  0.3382  0.0715  0.5747
  495SOL     OW11298   2.597   1.859   0.197  0.1647  0.2786  0.6111
  495SOL    HW111299   2.511   1.822   0.231  0.0657  0.1633  0.2433
  495SOL    HW211300   2.641   1.914   0.268  1.2013 -2.0464  1.8123
  496SOL     OW11301   4.327   1.560   1.379  0.1308  0.0255  0.1045
  496SOL    HW111302   4.329   1.660   1.386 -4.7168  0.0923  2.0735
  496SOL    HW211303   4.275   1.533   1.298 -1.8997 -0.8911  1.6988
  497SOL     OW11304   3.461   5.351  -0.085 -0.1293  0.3016 -0.2038
  497SOL    HW111305   3.369   5.332  -0.118 -0.5947  1.8130  0.1806
  497SOL    HW211306   3.527   5.337  -0.159 -0.9800  1.9983 -1.3279
  498SOL     OW11307   3.320   2.682   1.648  0.3818  0.2189 -0.1365
  498SOL    HW111308   3.399   2.628   1.619 -0.8205 -1.1648 -0.9205
  498SOL    HW211309   3.248   2.620   1.680 -0.2832  1.4773  0.8316
  499SOL     OW11310   3.277   5.034   1.246 -0.2264 -0.3634 -0.1832
  499SOL    HW111311   3.210   4.980   1.195 -1.6639  2.6130 -1.5587
  499SOL    HW211312   3.328   5.093   1.183 -0.4722  1.7313  1.4944
  500SOL     OW11313   3.732   5.425   1.033  0.0598  0.5307 -0.4003
  500SOL    HW111314   3.714   5.377   0.948 -0.8846 -2.0499  1.2074
  500SOL    HW211315   3.700   5.520   1.025 -2.1926 -0.3197 -2.0935
  501SOL     OW11316   2.962   1.916   2.083 -0.0453  0.1136  0.2553
  501SOL    HW111317   3.032   1.846   2.100  2.5071  2.5937  0.4528
  501SOL    HW211318   2.920   1.899   1.994  1.0099 -1.2961 -0.0028
  502SOL     OW11319   2.774   6.264   1.156  0.3232  0.2769  0.3800
  502SOL    HW111320   2.828   6.222   1.229  1.6655 -0.4575 -1.0146
  502SOL    HW211321   2.819   6.349   1.126  2.0293 -1.5312 -2.3875
  503SOL     OW11322   2.816   9.295   1.257 -0.2761  0.1005 -0.2129
  503SOL    HW111323   2.869   9.215   1.284 -0.0914  0.2002 -0.2788
  503SOL    HW211324   2.855   9.377   1.298 -2.1329 -0.1540  2.1582
  504SOL     OW11325   3.854   2.847   1.403  0.2251  0.3247 -0.0122
  504SOL    HW111326   3.883   2.803   1.318  0.4304  0.6484 -0.1129
  504SOL    HW211327   3.845   2.779   1.476 -2.8547 -0.4310 -1.0303
  505SOL     OW11328   2.205   9.733   2.500 -0.6730 -0.4292  0.4970
  505SOL    HW111329   2.136   9.781   2.554 -1.0792  0.5225 -0.8356
  505SOL    HW211330   2.295   9.771   2.520 -0.6981 -0.7732  1.2613
  506SOL     OW11331   3.819   5.516  -0.030 -0.3439 -0.5051 -0.2739
  506SOL    HW111332   3.749   5.515   0.042 -1.3838  1.3341 -1.2198
  506SOL    HW211333   3.777   5.546  -0.116  0.9113 -2.5923 -1.6384
  507SOL     OW11334   3.691   2.307   0.984 -0.5225  0.6378  0.3201
  507SOL    HW111335   3.610   2.248   0.979 -0.4468  0.6887 -3.0324
  507SOL    HW211336   3.664   2.402   0.965 -0.2532  1.3042  3.1336
  508SOL     OW11337   2.370   7.417   0.328 -0.3392 -0.7133 -0.3414
  508SOL    HW111338   2.285   7.413   0.381  0.0407  1.0860  0.4474
  508SOL    HW211339   2.384   7.510   0.295  0.5816 -1.3306 -1.7148
  509SOL     OW11340   2.650   7.711   0.505 -0.0225 -0.0856 -0.2655
  509SOL    HW111341   2.646   7.611   0.503 -0.3479 -0.0561 -1.2523
  509SOL    HW211342   2.669   7.742   0.598  1.1981 -1.1075 -0.1671
  510SOL     OW11343   4.112   3.343   0.790 -0.3903  0.1233  0.0788
  510SOL    HW111344   4.052   3.405   0.739 -0.2375 -1.7872 -2.5679
  510SOL    HW211345   4.063   3.258   0.810  1.2123 -1.2681 -1.6929
  511SOL     OW11346   2.710   8.795   1.817  0.1118 -0.3579 -0.2675
  511SOL    HW111347   2.616   8.829   1.809 -0.0048 -0.3871  0.9750
  511SOL    HW211348   2.714   8.702   1.779 -0.6661 -0.8792  0.8816
  512SOL     OW11349   3.614   3.799   1.344  0.1996  0.4241  0.1643
  512SOL    HW111350   3.616   3.851   1.258  0.7893 -0.9714 -0.6901
  512SOL    HW211351   3.687   3.832   1.404  3.3746 -2.1640 -2.0715
  513SOL     OW11352   4.008   5.442   1.106  0.8627 -0.4571 -0.7516
  513SOL    HW111353   3.912   5.433   1.079  0.5802 -1.7358  0.5900
  513SOL    HW211354   4.066   5.401   1.036  0.4066  0.1007 -1.4548
  514SOL     OW11355   2.581   8.074   1.729 -0.3293  0.2127  0.4528
  514SOL    HW111356   2.647   8.024   1.674 -1.3537 -1.7513  0.9404
  514SOL    HW211357   2.567   8.026   1.816 -2.7834  0.2421  0.1338
  515SOL     OW11358   4.091   2.944   1.702  0.5599 -0.0179  0.1232
  515SOL    HW111359   4.017   2.879   1.720  1.9456 -1.6690 -0.0241
  515SOL    HW211360   4.129   2.927   1.611  1.0908  0.8443  0.1761
  516SOL     OW11361   2.839   9.967   0.070 -0.1485  0.3292  0.0902
  516SOL    HW111362   2.762   9.930   0.018  0.5544  0.9843 -1.4741
  516SOL    HW211363   2.815  10.056   0.107 -0.0314  0.6922 -0.7010
  517SOL     OW11364   4.174   1.152   0.848  0.0228 -0.8447  0.6230
  517SOL    HW111365   4.179   1.053   0.853 -1.9415 -1.0210 -0.5782
  517SOL    HW211366   4.229   1.185   0.771 -0.8115 -1.1481 -0.1036
  518SOL     OW11367   3.496   5.037   1.397 -0.4648  0.3450 -0.7937
  518SOL    HW111368   3.497   5.137   1.398 -0.3650  0.3518 -1.5538
  518SOL    HW211369   3.425   5.005   1.334  0.0091 -0.0670 -1.1167
  519SOL     OW11370   3.605   2.215   0.007 -0.6553  0.3755  0.1424
  519SOL    HW111371   3.507   2.212   0.026 -0.6673 -2.0307 -0.0970
  519SOL    HW211372   3.638   2.122  -0.011  1.6315  1.1782  0.0274
  520SOL     OW11373   1.892   6.539  -0.047 -0.1676 -0.3232 -0.1828
  520SOL    HW111374   1.876   6.495   0.042  0.4933  0.5008  0.3509
  520SOL    HW211375   1.908   6.469  -0.116  0.3816 -0.9447  0.5593
  521SOL     OW11376   3.471   5.093   0.033 -0.2292 -0.5633  0.6138
  521SOL    HW111377   3.481   5.181  -0.014 -2.1984 -0.7720 -0.2907
  521SOL    HW211378   3.435   5.108   0.125  2.3300 -0.2441  1.5893
  522SOL     OW11379   2.339   8.067   1.050  0.0033  0.1489  0.0185
  522SOL    HW111380   2.334   8.028   1.142 -1.4132 -2.1715 -0.9772
  522SOL    HW211381   2.401   8.145   1.049  1.0727 -0.6385  2.6382
  523SOL     OW11382   2.570   1.256   0.440 -0.3051 -0.3910  0.5879
  523SOL    HW111383   2.598   1.338   0.490 -0.2165 -0.5763  0.8416
  523SOL    HW211384   2.542   1.282   0.347  1.7734 -0.3110 -0.0578
  524SOL     OW11385   3.220   3.196   2.390  0.2662  0.4094 -0.2533
  524SOL    HW111386   3.315   3.184   2.420 -0.9300 -1.7949  2.8979
  524SOL    HW211387   3.178   3.271   2.441 -0.1852  0.2558 -0.3941
  525SOL     OW11388   3.388   5.221   0.271  0.0288  0.2546 -0.2365
  525SOL    HW111389   3.466   5.273   0.309 -0.0061 -0.2866  0.5920
  525SOL    HW211390   3.328   5.194   0.346  0.4259 -1.6078 -0.5745
  526SOL     OW11391   2.588   0.953   0.071 -0.0159  0.1226 -0.1083
  526SOL    HW111392   2.542   0.875   0.114 -1.0509  0.8337  0.1018
  526SOL    HW211393   2.687   0.938   0.071 -0.2526 -1.4823 -0.6569
  527SOL     OW11394   3.022   8.322  -0.084  0.0214 -0.3131  0.8025
  527SOL    HW111395   2.955   8.269  -0.033  1.5861 -0.6013  2.6069
  527SOL    HW211396   3.111   8.278  -0.079  0.7756  1.0699  0.0635
  528SOL     OW11397   3.213   5.498   0.211 -0.4920  0.4763 -0.6816
  528SOL    HW111398   3.130   5.467   0.164 -0.6798  0.3095 -0.2391
  528SOL    HW211399   3.264   5.419   0.244 -0.0067  0.5682 -1.2116
  529SOL     OW11400   3.622   5.357   0.368 -0.2751 -0.2522 -0.0541
  529SOL    HW111401   3.720   5.360   0.386 -0.2611 -0.6658 -0.0519
  529SOL    HW211402   3.603   5.398   0.279 -0.1560  0.2668  0.1562
  530SOL     OW11403   2.537   4.507   0.810 -0.0797  0.3726  0.1047
  530SOL    HW111404   2.537   4.511   0.710 -1.2634  0.0626  0.0810
  530SOL    HW211405   2.448   4.539   0.844  0.1163 -0.0647  1.0290
  531SOL     OW11406   2.594   6.678   1.181 -0.3482  0.0485  0.4423
  531SOL    HW111407   2.592   6.776   1.201 -1.2680  0.0257  0.5033
  531SOL    HW211408   2.646   6.630   1.252  0.9512  0.6050 -0.1175
  532SOL     OW11409   3.099   1.894   2.445  0.3353 -0.0501 -0.1003
  532SOL    HW111410   3.046   1.828   2.498 -2.0005  0.9893 -1.1087
  532SOL    HW211411   3.065   1.986   2.463  1.2834  0.5601 -1.3636
  533SOL     OW11412   4.052   0.494   0.827 -0.0324  0.0751  0.3598
  533SOL    HW111413   3.969   0.551   0.826  0.6218  1.0058 -1.4336
  533SOL    HW211414   4.133   0.552   0.818  0.8456 -0.8339  2.0450
  534SOL     OW11415   4.231   4.496   0.498 -0.3530  0.4710 -0.2313
  534SOL    HW111416   4.132   4.503   0.487 -1.0536 -3.4090  2.6108
  534SOL    HW211417   4.259   4.546   0.580 -0.6381 -2.0778  1.4531
  535SOL     OW11418   3.118   1.875   1.225 -0.0354 -0.0144 -0.2885
  535SOL    HW111419   3.020   1.883   1.206  0.3580  1.1432 -1.9139
  535SOL    HW211420   3.144   1.941   1.295 -0.4417 -0.4653  0.2973
  536SOL     OW11421   5.120   3.169   1.337  0.5904  0.2853  0.2533
  536SOL    HW111422   5.028   3.136   1.355  0.5910 -0.4719 -1.1608
  536SOL    HW211423   5.183   3.130   1.404  0.1109 -0.2234  0.4059
  537SOL     OW11424   2.400   9.210   1.956 -0.0263 -0.0169 -0.4307
  537SOL    HW111425   2.395   9.289   2.016 -0.4775  0.6463 -1.3236
  537SOL    HW211426   2.491   9.206   1.913  0.2424 -0.4027  0.1740
  538SOL     OW11427   4.252   1.359   0.418 -0.5195  0.3397  0.2698
  538SOL    HW111428   4.250   1.458   0.411  1.0144  0.2889 -1.1056
  538SOL    HW211429   4.318   1.332   0.489  0.2824  0.2589 -0.5067
  539SOL     OW11430   3.348   4.166   0.212  0.2362  0.3348 -0.5655
  539SOL    HW111431   3.282   4.137   0.281  0.2329  1.5277 -0.0495
  539SOL    HW211432   3.404   4.240   0.249  0.2035  1.0198 -1.8638
  540SOL     OW11433   3.104   3.551   0.418 -0.3469 -0.6023 -0.0226
  540SOL    HW111434   3.026   3.539   0.357 -2.2868 -1.0156  2.4397
  540SOL    HW211435   3.157   3.466   0.422 -1.7044 -1.4216  0.8430
  541SOL     OW11436   4.195   2.200   0.900  0.5186 -0.4373  0.2449
  541SOL    HW111437   4.196   2.176   0.997 -1.4622  1.4461  0.7730
  541SOL    HW211438   4.144   2.130   0.849 -1.2896  0.2536  1.0716
  542SOL     OW11439   4.389   2.683   1.485  0.2062 -0.3705 -0.0541
  542SOL    HW111440   4.443   2.720   1.561  0.0442 -1.3585  0.5606
  542SOL    HW211441   4.421   2.721   1.399  0.2679  0.9126  0.5303
  543SOL     OW11442   2.412   0.836   0.341  0.2349 -0.2794  0.4335
  543SOL    HW111443   2.381   0.779   0.417  0.9012 -1.0035  0.1768
  543SOL    HW211444   2.335   0.857   0.282 -0.1012 -0.5506  0.7687
  544SOL     OW11445   2.944   0.228   1.015  0.0055 -0.0222 -0.0080
  544SOL    HW111446   2.966   0.134   1.041  0.0222  0.2890  1.1419
  544SOL    HW211447   3.025   0.273   0.979 -0.2504 -0.7643 -1.5482
  545SOL     OW11448   3.091   3.593  -0.114  0.9302 -0.3665  0.0163
  545SOL    HW111449   3.155   3.658  -0.154  0.9788 -0.7355 -0.5002
  545SOL    HW211450   3.142   3.515  -0.075  0.9423  0.3588  1.4834
  546SOL     OW11451   4.050   4.386   2.322 -0.4952  0.2792 -0.0175
  546SOL    HW111452   4.001   4.425   2.400 -0.0435 -0.5041  0.6818
  546SOL    HW211453   3.986   4.368   2.248 -0.9329  1.0513  0.1685
  547SOL     OW11454   4.228   4.173   2.140  0.2863 -0.2304  0.0741
  547SOL    HW111455   4.250   4.219   2.226 -0.7065  0.7072 -0.1679
  547SOL    HW211456   4.173   4.091   2.159  0.0197  0.0070  0.3224
  548SOL     OW11457   3.629   8.220   0.153 -0.5498 -0.0605  0.1130
  548SOL    HW111458   3.665   8.129   0.172  0.2756  0.5496  1.5660
  548SOL    HW211459   3.705   8.284   0.144 -1.1213  0.4790 -1.0288
  549SOL     OW11460   2.837   7.904   1.058  0.2020  0.2825  0.2881
  549SOL    HW111461   2.866   7.810   1.077  0.5323  0.2710 -0.2556
  549SOL    HW211462   2.815   7.950   1.144  1.0145  0.0234  0.6435
  550SOL     OW11463   3.380   1.089   1.644  0.6004  0.1365 -0.2747
  550SOL    HW111464   3.467   1.134   1.625 -0.5841  1.9636 -1.5663
  550SOL    HW211465   3.367   1.081   1.743  2.8245 -1.4159 -0.0658
  551SOL     OW11466   3.459   3.400   2.577 -0.8374 -0.1475 -0.3202
  551SOL    HW111467   3.473   3.305   2.548 -0.8244 -0.0940 -0.4857
  551SOL    HW211468   3.465   3.460   2.498  2.3057  0.3321  0.1927
  552SOL     OW11469   4.612   2.917   0.353  0.0468  0.6484  0.4924
  552SOL    HW111470   4.517   2.931   0.381 -0.6130 -1.9297 -0.2766
  552SOL    HW211471   4.657   3.005   0.341 -2.8533  1.9882 -1.1527
  553SOL     OW11472   3.201   7.094   0.449  0.1222 -1.0765  0.1037
  553SOL    HW111473   3.214   7.007   0.401 -0.9283  0.1592 -2.5372
  553SOL    HW211474   3.110   7.129   0.430  0.2712  0.2649  1.7496
  554SOL     OW11475   3.159   3.390   2.059 -0.2240  0.4682  0.5571
  554SOL    HW111476   3.202   3.314   2.107 -0.4556 -0.6559 -0.9539
  554SOL    HW211477   3.073   3.358   2.017 -0.5910  1.6987  0.3548
  555SOL     OW11478   2.862   4.722   1.123  0.3927 -0.4477 -0.1062
  555SOL    HW111479   2.827   4.645   1.068 -1.6534  0.9698 -0.8411
  555SOL    HW211480   2.847   4.703   1.220 -1.5400 -0.2809 -0.3687
  556SOL     OW11481   3.297   8.215   2.559 -0.5123  0.5635  0.1849
  556SOL    HW111482   3.386   8.176   2.582 -0.5531  1.2595  1.5728
  556SOL    HW211483   3.305   8.314   2.547 -0.3983  0.1595 -3.3981
  557SOL     OW11484   3.983   4.660  -0.038 -0.3553 -0.3931  0.5129
  557SOL    HW111485   3.913   4.716   0.007 -0.0183 -1.4135  2.3640
  557SOL    HW211486   4.059   4.718  -0.066 -1.9762  0.7503 -1.6366
  558SOL     OW11487   2.466   6.721   0.836  0.0798  0.2533 -0.1526
  558SOL    HW111488   2.533   6.771   0.890 -0.2650  2.7480 -1.9376
  558SOL    HW211489   2.514   6.658   0.774  0.5686 -0.8540  1.3313
  559SOL     OW11490   2.327   4.853   0.840  0.3547  0.1872 -0.0222
  559SOL    HW111491   2.383   4.857   0.758  0.7900  0.0833  0.2674
  559SOL    HW211492   2.288   4.943   0.858 -0.6417 -0.0593 -0.9633
  560SOL     OW11493   3.143   3.987   0.342 -0.1414 -0.0613 -0.3230
  560SOL    HW111494   3.195   3.951   0.419 -2.0475  0.8703  1.4273
  560SOL    HW211495   3.123   3.914   0.277 -0.4777 -1.3098  1.1819
  561SOL     OW11496   2.593   1.440   1.083  0.2067  0.0463  0.8089
  561SOL    HW111497   2.538   1.432   1.166 -0.2899  2.0355  0.6862
  561SOL    HW211498   2.688   1.459   1.108  0.0189  0.8456  0.9144
  562SOL     OW11499   4.385   2.113   2.582 -0.1898  0.1696 -0.8628
  562SOL    HW111500   4.405   2.128   2.485  0.8639 -0.7619 -0.7982
  562SOL    HW211501   4.384   2.201   2.629  1.2884  0.4568 -1.3489
  563SOL     OW11502   2.329   0.452   1.952 -0.1750 -0.1261  0.2108
  563SOL    HW111503   2.264   0.396   2.003  0.8410 -1.1755  0.3719
  563SOL    HW211504   2.416   0.455   2.002  0.3436  0.0923 -0.7020
  564SOL     OW11505   4.844   4.022   0.736 -0.0067 -0.0201 -0.2161
  564SOL    HW111506   4.862   3.959   0.811 -0.6188 -1.3567 -1.1874
  564SOL    HW211507   4.756   4.067   0.749 -0.2430 -0.4666 -0.2778
  565SOL     OW11508   2.680   2.983   1.064  0.3821  0.0868  0.3836
  565SOL    HW111509   2.658   2.933   1.148 -1.5884  1.7365  0.8830
  565SOL    HW211510   2.702   2.918   0.991 -0.0171 -1.4308  1.6039
  566SOL     OW11511   3.689   7.933   0.232 -0.0768  0.1383  0.8657
  566SOL    HW111512   3.768   7.918   0.171  0.3353  1.4545  1.0502
  566SOL    HW211513   3.605   7.915   0.181  0.2931  0.3266  0.1682
  567SOL     OW11514   3.023   0.249   0.455 -0.0991  0.1705 -0.1491
  567SOL    HW111515   3.022   0.175   0.388 -1.0438  0.2762 -0.2614
  567SOL    HW211516   2.961   0.322   0.426 -0.4417  0.2618  0.7813
  568SOL     OW11517   3.464   1.500   1.776  0.5195  0.3678 -0.5344
  568SOL    HW111518   3.378   1.516   1.728 -0.1764 -1.5772  0.0053
  568SOL    HW211519   3.502   1.411   1.750  2.0672  0.9417 -0.3179
  569SOL     OW11520   2.324   9.131   1.319 -0.3570 -0.2417  0.5581
  569SOL    HW111521   2.355   9.061   1.256 -3.0716 -0.0842 -1.0461
  569SOL    HW211522   2.294   9.088   1.404 -0.2790 -0.8408  0.2845
  570SOL     OW11523   3.048   8.334   0.327  0.1451 -0.8788 -0.0389
  570SOL    HW111524   3.132   8.341   0.380 -0.2140 -0.2127  0.4421
  570SOL    HW211525   2.997   8.419   0.334 -0.0625 -0.9048 -1.1940
  571SOL     OW11526   3.460   9.665   1.402  0.1020 -0.1994  0.2128
  571SOL    HW111527   3.542   9.698   1.449 -1.5399  1.0461  2.2960
  571SOL    HW211528   3.486   9.624   1.315  3.0166 -0.6063  1.2165
  572SOL     OW11529   2.539   6.974   1.021 -0.7569  0.1228 -0.3874
  572SOL    HW111530   2.441   6.990   1.017 -1.1531 -1.9781  0.3179
  572SOL    HW211531   2.565   6.948   1.114  0.3771  0.0818 -0.7000
  573SOL     OW11532   3.505   3.584   0.843  0.5854  0.3661 -0.1570
  573SOL    HW111533   3.553   3.647   0.782 -0.2341 -0.1424 -1.3296
  573SOL    HW211534   3.483   3.631   0.928 -0.3868  1.7912 -1.1802
  574SOL     OW11535   3.496   8.694   0.046  0.7373  0.3848 -0.1825
  574SOL    HW111536   3.525   8.789   0.044 -1.4102  1.0568 -0.7239
  574SOL    HW211537   3.414   8.685   0.103  0.7408 -1.0709 -0.3868
  575SOL     OW11538   3.486   4.915   0.729  0.2230 -0.0738  0.0988
  575SOL    HW111539   3.435   4.830   0.741  2.7019 -1.5380  0.7587
  575SOL    HW211540   3.457   4.961   0.645 -1.7873 -1.1068  0.2115
  576SOL     OW11541   2.716   6.297   0.708  0.2726 -0.1628 -0.1735
  576SOL    HW111542   2.644   6.358   0.677  0.9462  0.8708  0.2767
  576SOL    HW211543   2.685   6.246   0.788  0.8337  1.9782  1.4455
  577SOL     OW11544   3.895   1.513   1.922  0.3116  0.4399  0.2095
  577SOL    HW111545   3.921   1.544   2.013 -0.3768  0.5968  0.3519
  577SOL    HW211546   3.957   1.553   1.854  2.2413 -1.4307  0.7984
  578SOL     OW11547   4.450   2.279   1.248 -0.5954  0.1454 -0.0092
  578SOL    HW111548   4.541   2.317   1.262 -0.3906 -0.5204  0.4983
  578SOL    HW211549   4.441   2.245   1.155  0.3450 -1.5716  0.5066
  579SOL     OW11550   3.351   2.454  -0.117 -0.1871 -0.1527 -0.0882
  579SOL    HW111551   3.322   2.546  -0.090  0.3880 -1.2953  4.8634
  579SOL    HW211552   3.435   2.460  -0.170  0.2363  2.1645  0.7786
  580SOL     OW11553   5.266   3.401   0.868 -0.1971  0.8020 -0.0314
  580SOL    HW111554   5.295   3.495   0.887  1.0635  0.5613 -0.7718
  580SOL    HW211555   5.179   3.384   0.915 -0.0390  2.0794  0.7607
  581SOL     OW11556   2.769   2.410  -0.019  0.5112 -0.1914  0.2567
  581SOL    HW111557   2.704   2.337   0.002  0.4620 -0.0015  0.7786
  581SOL    HW211558   2.753   2.487   0.043 -0.0532  0.6393 -0.8983
  582SOL     OW11559   3.771   4.633   1.184 -0.1599  0.1556  0.1535
  582SOL    HW111560   3.780   4.582   1.269  3.0042  3.4200  1.8631
  582SOL    HW211561   3.692   4.694   1.190 -0.5999 -0.4239  0.2947
  583SOL     OW11562   2.364   0.284   0.573  0.1098 -0.4797 -0.1151
  583SOL    HW111563   2.352   0.285   0.672 -0.1049  0.7397 -0.1462
  583SOL    HW211564   2.447   0.234   0.550  0.2245 -0.6700  0.6873
  584SOL     OW11565   2.626   8.316   1.642  0.2220 -0.0865 -0.1084
  584SOL    HW111566   2.622   8.229   1.691  0.2791 -0.5886 -0.9997
  584SOL    HW211567   2.539   8.365   1.654 -0.2507 -0.8067 -0.6213
  585SOL     OW11568   4.254   3.066   0.709  0.2845  0.1015  0.1626
  585SOL    HW111569   4.324   3.004   0.744  1.4630  1.4963  0.3172
  585SOL    HW211570   4.224   3.128   0.781  0.3054  0.7953 -0.4141
  586SOL     OW11571   3.429   5.234   2.152 -0.3489 -0.6077  0.6632
  586SOL    HW111572   3.393   5.222   2.060  1.5342 -0.6246 -0.0830
  586SOL    HW211573   3.389   5.165   2.213 -1.3860 -0.7684 -0.1811
  587SOL     OW11574   3.981   8.723   2.576  0.5392 -0.1206 -0.3098
  587SOL    HW111575   3.887   8.735   2.544  0.7940  2.4729 -0.2248
  587SOL    HW211576   3.983   8.656   2.651 -1.4160  0.6260  0.4468
  588SOL     OW11577   4.013   5.556   1.571  0.4215 -0.4805  0.2063
  588SOL    HW111578   4.000   5.647   1.532 -1.8541 -0.8356  0.0986
  588SOL    HW211579   3.988   5.487   1.504  0.1950 -1.1527  0.9788
  589SOL     OW11580   2.651   7.434   0.433 -0.5378 -0.2958  0.4702
  589SOL    HW111581   2.730   7.385   0.396 -0.4567 -0.7965  1.3100
  589SOL    HW211582   2.573   7.372   0.442 -0.5169 -0.2053  1.2683
  590SOL     OW11583   2.808   0.538   1.772  0.3257 -0.3950 -0.4030
  590SOL    HW111584   2.770   0.619   1.817  0.6686 -0.7036  0.4472
  590SOL    HW211585   2.766   0.527   1.682 -1.6111 -0.7418  0.5199
  591SOL     OW11586   3.321   0.578   1.201  0.3001 -0.5294 -0.5313
  591SOL    HW111587   3.270   0.576   1.286 -0.4532  0.6789 -0.9437
  591SOL    HW211588   3.363   0.667   1.189  0.1292 -0.5809 -1.5823
  592SOL     OW11589   3.903   1.991   1.076  0.2307  0.1646 -0.0077
  592SOL    HW111590   3.894   1.965   1.172  2.9161 -1.0457 -0.0429
  592SOL    HW211591   3.898   2.090   1.067  0.7454  0.3316  1.4939
  593SOL     OW11592   2.848   7.067   0.681  0.3969 -0.2746  0.0748
  593SOL    HW111593   2.880   7.130   0.610  0.3034  0.5853  0.7862
  593SOL    HW211594   2.758   7.031   0.655  0.9985 -1.0897 -0.9293
  594SOL     OW11595   3.922   2.823   0.218  0.0111 -0.4905  0.7234
  594SOL    HW111596   3.930   2.918   0.249 -0.3756  0.0160 -0.7189
  594SOL    HW211597   4.012   2.789   0.191  0.0573 -0.3715  0.7277
  595SOL     OW11598   3.765   1.536   0.281  0.1065  0.1506 -0.5010
  595SOL    HW111599   3.804   1.603   0.344 -1.3359  0.2752  0.2627
  595SOL    HW211600   3.763   1.446   0.325 -0.2969  0.1078 -0.6073
  596SOL     OW11601   3.509   5.185   0.556 -0.5961  0.8360  0.2744
  596SOL    HW111602   3.528   5.097   0.513 -0.0209  0.5339  1.1242
  596SOL    HW211603   3.524   5.259   0.491  1.4185  0.4609  0.3032
  597SOL     OW11604   3.489   3.151   1.290 -0.1208 -0.1253  0.1356
  597SOL    HW111605   3.435   3.162   1.206 -2.6385 -0.5587  1.6344
  597SOL    HW211606   3.473   3.059   1.328  0.3087  0.3696  1.5339
  598SOL     OW11607   3.613   3.855   0.726  0.5550  0.0748  0.0285
  598SOL    HW111608   3.660   3.900   0.650  0.9180  1.5336  1.0942
  598SOL    HW211609   3.559   3.923   0.776  0.2096 -0.9079  0.9870
  599SOL     OW11610   2.804   3.577   1.709  0.3162  0.3636  0.4657
  599SOL    HW111611   2.832   3.650   1.646 -0.3256  1.0041  0.9245
  599SOL    HW211612   2.722   3.532   1.673  0.9191 -0.3836 -0.0027
  600SOL     OW11613   2.984   9.973   1.114  0.4103 -0.9519  0.0897
  600SOL    HW111614   2.895   9.930   1.129  0.7264 -1.4018  0.7000
  600SOL    HW211615   3.056   9.909   1.140  0.9036 -0.4398 -0.0202
  601SOL     OW11616   2.646   4.310   0.386 -0.1673 -0.4588  0.3205
  601SOL    HW111617   2.675   4.235   0.326  0.6427 -1.6593  2.1629
  601SOL    HW211618   2.646   4.396   0.335 -0.0854 -1.5451 -1.5437
  602SOL     OW11619   4.300   3.816   0.682 -0.5941  0.0832 -0.2566
  602SOL    HW111620   4.244   3.843   0.759 -0.0239 -0.4210  0.3393
  602SOL    HW211621   4.241   3.786   0.606 -1.1538  0.8167 -0.1097
  603SOL     OW11622   3.265   8.867   2.441  0.1216  0.3369 -0.5797
  603SOL    HW111623   3.215   8.820   2.514 -0.9232  0.5540 -1.1579
  603SOL    HW211624   3.328   8.803   2.397  1.6894  0.5142  1.3423
  604SOL     OW11625   4.335   4.338   2.393  1.0622 -0.6934  0.1247
  604SOL    HW111626   4.373   4.424   2.360  0.3443 -1.0062 -1.5479
  604SOL    HW211627   4.236   4.346   2.401  1.0741 -1.1150  0.7210
  605SOL     OW11628   2.781   5.726   0.209 -0.0667  0.5676 -0.0140
  605SOL    HW111629   2.840   5.700   0.285 -1.9757  0.4486  1.4407
  605SOL    HW211630   2.686   5.726   0.238 -0.6772  2.4198 -1.8832
  606SOL     OW11631   3.323   3.180   1.794  0.0783  0.6866 -0.0997
  606SOL    HW111632   3.314   3.104   1.730 -0.6502  0.6678  0.0186
  606SOL    HW211633   3.407   3.231   1.775  0.2375  0.2359 -0.5892
  607SOL     OW11634   2.450   7.670   0.311 -0.0354  0.0756  0.4788
  607SOL    HW111635   2.419   7.765   0.315  1.0487  0.4637 -0.2196
  607SOL    HW211636   2.511   7.651   0.388  0.5118  0.2202  0.0807
  608SOL     OW11637   4.815   3.627   1.451 -0.5927 -0.1651  0.0571
  608SOL    HW111638   4.851   3.662   1.538 -1.4865  2.6695 -0.6582
  608SOL    HW211639   4.720   3.600   1.464  0.1614 -2.5938  0.6611
  609SOL     OW11640   3.965   4.522   1.001  0.4902  0.1477  0.3889
  609SOL    HW111641   3.878   4.558   1.034  0.9913  0.1969  1.7078
  609SOL    HW211642   4.040   4.579   1.037  1.0284  0.4959 -1.2658
  610SOL     OW11643   2.459   4.095   1.880  0.5516 -0.0581 -0.2352
  610SOL    HW111644   2.481   4.028   1.952 -0.0953  0.3181  0.3273
  610SOL    HW211645   2.526   4.169   1.881  1.5437 -0.9348 -1.1732
  611SOL     OW11646   3.285   9.692   2.081  0.2710 -0.3843  0.3475
  611SOL    HW111647   3.196   9.650   2.063  1.0554 -2.3225  0.8863
  611SOL    HW211648   3.325   9.723   1.994  0.1392 -1.6705 -0.1777
  612SOL     OW11649   4.360   3.050   2.392 -0.1469  0.1521 -0.4141
  612SOL    HW111650   4.340   3.040   2.294  1.4936 -0.2141 -0.7260
  612SOL    HW211651   4.346   2.962   2.438 -4.6526  1.1731  0.4334
  613SOL     OW11652   3.206   4.532   1.266 -0.3672 -0.1693  0.4904
  613SOL    HW111653   3.299   4.568   1.267  0.0234 -1.1936  1.0331
  613SOL    HW211654   3.154   4.576   1.193  0.8436 -0.3875 -0.5076
  614SOL     OW11655   3.054   2.766   0.852  0.3111 -0.2973 -0.3086
  614SOL    HW111656   3.074   2.835   0.783 -0.1026 -0.9438 -1.0847
  614SOL    HW211657   3.125   2.696   0.850 -0.4174 -1.0343 -1.0311
  615SOL     OW11658   3.049   0.706   1.732  0.3178 -0.1625 -0.3680
  615SOL    HW111659   3.124   0.642   1.749 -0.1780 -1.2293 -2.0347
  615SOL    HW211660   2.970   0.656   1.695 -0.5061  1.2429 -0.5619
  616SOL     OW11661   4.215   0.901   0.767  0.8112  0.3840 -0.4317
  616SOL    HW111662   4.265   0.818   0.743  0.3262  0.1522 -0.6248
  616SOL    HW211663   4.127   0.903   0.720  0.6076  0.7686 -0.0424
  617SOL     OW11664   3.839   1.117   0.108  0.5416 -0.8549 -0.1105
  617SOL    HW111665   3.768   1.046   0.106 -0.1211 -0.2356  0.6299
  617SOL    HW211666   3.926   1.077   0.137  0.1169 -1.3218  0.5319
  618SOL     OW11667   4.143   3.828   0.407  0.4999 -0.6196  0.1163
  618SOL    HW111668   4.061   3.824   0.349  0.6720 -0.9306 -0.1102
  618SOL    HW211669   4.202   3.750   0.386  1.3972  0.2329 -0.5323
  619SOL     OW11670   2.604   6.753   2.470  0.2279 -0.3677 -0.3119
  619SOL    HW111671   2.549   6.751   2.386 -1.5613  0.6944  0.8206
  619SOL    HW211672   2.569   6.684   2.534 -0.6732  1.2657  0.9662
  620SOL     OW11673   3.521   2.376   1.280  0.1660 -0.1685  0.3471
  620SOL    HW111674   3.612   2.415   1.266 -0.2416  0.9883  0.8809
  620SOL    HW211675   3.471   2.378   1.193 -0.3730  1.8628  0.6849
  621SOL     OW11676   2.525   1.001   0.510 -0.5546 -0.1631  0.3706
  621SOL    HW111677   2.534   1.095   0.478  1.9286 -0.0997  1.1441
  621SOL    HW211678   2.472   0.947   0.444 -0.4239  1.3276 -0.9544
  622SOL     OW11679   4.154   1.282   0.155  0.1566 -0.4731 -0.0759
  622SOL    HW111680   4.056   1.265   0.140 -0.2644  0.6962  1.2961
  622SOL    HW211681   4.169   1.311   0.250  1.7660 -0.1045 -0.4292
  623SOL     OW11682   3.439   4.217   0.804 -0.4812 -0.3653  0.0334
  623SOL    HW111683   3.386   4.270   0.738  0.6237  0.6609 -0.0634
  623SOL    HW211684   3.389   4.135   0.830 -1.7922  0.2307 -0.5779
  624SOL     OW11685   3.710   2.250   1.643 -0.2391  0.1102  0.0588
  624SOL    HW111686   3.613   2.243   1.620  0.3392 -0.0047 -2.4749
  624SOL    HW211687   3.722   2.307   1.724 -2.4371 -0.1740  0.5956
  625SOL     OW11688   3.127   9.565   1.760 -0.3815  0.5064  0.4353
  625SOL    HW111689   3.027   9.563   1.761 -0.3623 -0.4853  0.4177
  625SOL    HW211690   3.162   9.493   1.820  0.3254  0.6774  0.2287
  626SOL     OW11691   4.641   3.849  -0.013 -0.3028  0.4505  0.3354
  626SOL    HW111692   4.661   3.809   0.076 -1.8640 -1.1490  0.0053
  626SOL    HW211693   4.619   3.946  -0.002  0.9497  0.6181  1.4887
  627SOL     OW11694   4.895   4.218   0.553  0.4133  0.4871  0.4328
  627SOL    HW111695   4.914   4.167   0.637  0.6909  0.5866  0.4322
  627SOL    HW211696   4.935   4.170   0.475 -0.4229  0.0524  0.2747
  628SOL     OW11697   3.746   9.339   2.421  0.0138  0.6418 -0.0340
  628SOL    HW111698   3.834   9.366   2.462 -0.9785  0.4090  2.3172
  628SOL    HW211699   3.712   9.413   2.364  1.8730  0.6218 -1.2084
  629SOL     OW11700   2.352   4.973   1.152  0.1846  0.1568 -0.2003
  629SOL    HW111701   2.341   5.002   1.057 -2.3244  0.3584  0.1372
  629SOL    HW211702   2.370   4.874   1.155  1.3966  0.3395 -0.9187
  630SOL     OW11703   2.972   6.458   1.151 -0.0858  0.2149  0.1962
  630SOL    HW111704   3.022   6.476   1.067 -0.3615  0.1020  0.0052
  630SOL    HW211705   2.966   6.541   1.206  1.0750  0.0100  0.6318
  631SOL     OW11706   3.585   4.024   2.578 -0.1323  0.0474  0.1437
  631SOL    HW111707   3.570   4.040   2.675 -0.0898 -1.0962  0.3442
  631SOL    HW211708   3.601   3.926   2.562  1.8400  0.4946 -0.7523
  632SOL     OW11709   2.556   4.220   0.682 -0.3577  0.1777 -0.0721
  632SOL    HW111710   2.503   4.204   0.599 -3.0545  1.3821  1.3282
  632SOL    HW211711   2.537   4.312   0.717  1.6595  0.1370  1.2099
  633SOL     OW11712   3.216   8.458   2.159 -0.8135  0.1851 -0.2872
  633SOL    HW111713   3.271   8.378   2.138  0.3843  0.4881  1.5722
  633SOL    HW211714   3.146   8.434   2.227  0.4935  1.0013  1.3990
  634SOL     OW11715   3.585   4.116   1.438 -0.2861 -0.3760  0.1194
  634SOL    HW111716   3.666   4.075   1.481 -0.4391 -0.5747  0.2152
  634SOL    HW211717   3.507   4.108   1.499  0.5832  3.7785  1.9934
  635SOL     OW11718   2.779   2.855   1.809  0.4552 -0.3639 -0.2530
  635SOL    HW111719   2.851   2.786   1.812  0.8045  0.0780  2.5596
  635SOL    HW211720   2.694   2.817   1.844 -0.2355 -0.3331 -1.8412
  636SOL     OW11721   3.558   8.920   1.505 -0.2405 -0.3938  0.0635
  636SOL    HW111722   3.468   8.950   1.538  0.7923  0.5636  2.1075
  636SOL    HW211723   3.558   8.919   1.405 -1.5421  2.6854 -0.0334
  637SOL     OW11724   3.757   3.110   1.452  0.2019  0.2684 -0.1095
  637SOL    HW111725   3.674   3.129   1.400 -0.3826 -0.6625  0.4651
  637SOL    HW211726   3.783   3.014   1.439 -0.4076 -0.1888  1.9633
  638SOL     OW11727   3.734   1.269   0.323 -0.1498 -0.0054 -0.5748
  638SOL    HW111728   3.790   1.236   0.247  0.5542  1.1933 -0.5764
  638SOL    HW211729   3.643   1.294   0.288 -0.1956 -0.5249 -0.8292
  639SOL     OW11730   3.819   4.186   0.102  0.4256  0.0641 -0.7525
  639SOL    HW111731   3.789   4.249   0.173  0.7438 -1.0331  0.3884
  639SOL    HW211732   3.918   4.194   0.090  0.3357  0.4335 -1.2627
  640SOL     OW11733   3.277   4.870   0.144  0.2217 -0.4820  0.8747
  640SOL    HW111734   3.210   4.803   0.114  0.3875 -0.1803 -0.1839
  640SOL    HW211735   3.274   4.950   0.084  0.1122  0.4077  2.0435
  641SOL     OW11736   2.162   6.347   1.598  0.7160  0.0523  0.9233
  641SOL    HW111737   2.204   6.261   1.627  0.8557 -0.0791  0.3398
  641SOL    HW211738   2.082   6.366   1.655  0.0649 -0.9986  0.3865
  642SOL     OW11739   3.765   3.098   0.549  0.4864 -0.1531 -0.1759
  642SOL    HW111740   3.851   3.048   0.554 -0.1371 -1.3203 -0.7798
  642SOL    HW211741   3.716   3.088   0.636  0.2732 -0.7690 -0.3639
  643SOL     OW11742   2.930   0.509   0.841  0.2020 -0.1559  0.0103
  643SOL    HW111743   2.871   0.428   0.843 -0.1675 -0.0222 -3.1418
  643SOL    HW211744   3.021   0.484   0.872  0.2435 -1.9284 -1.4872
  644SOL     OW11745   3.052   6.240   1.544 -0.0484  0.1468 -0.3560
  644SOL    HW111746   3.060   6.224   1.445 -2.3588  1.4162 -0.7859
  644SOL    HW211747   3.086   6.331   1.566 -2.5385  1.1413 -0.5018
  645SOL     OW11748   3.871   3.318   0.383 -0.0942  0.4036  0.2890
  645SOL    HW111749   3.962   3.296   0.416 -0.7048  0.2557  1.9370
  645SOL    HW211750   3.809   3.329   0.461 -1.2597  1.5070 -0.7637
  646SOL     OW11751   3.977   4.472   1.834  0.9755 -0.4785 -0.2135
  646SOL    HW111752   4.013   4.565   1.833  0.7473 -0.3539  1.6315
  646SOL    HW211753   3.879   4.475   1.811  0.3759  0.0462  2.2280
  647SOL     OW11754   3.377   3.609   0.217 -0.2644 -0.1803  0.5836
  647SOL    HW111755   3.439   3.635   0.144 -2.0847  3.2244  0.1531
  647SOL    HW211756   3.428   3.598   0.302  1.2535  0.1556 -0.2701
  648SOL     OW11757   2.574   6.084   1.710 -0.4917  0.3421 -0.1839
  648SOL    HW111758   2.524   6.111   1.628 -0.1030 -1.0421 -0.8839
  648SOL    HW211759   2.670   6.110   1.702 -0.1249 -1.1404 -0.8412
  649SOL     OW11760   3.671   1.954  -0.033 -0.2333  0.0336  0.4175
  649SOL    HW111761   3.734   1.878  -0.048  1.4026  1.6533 -0.9816
  649SOL    HW211762   3.599   1.924   0.031 -0.5303 -3.1707 -1.2666
  650SOL     OW11763   3.654   8.995   1.836 -0.1140  0.5965 -0.0438
  650SOL    HW111764   3.624   8.985   1.741 -1.7758  0.0913  0.5203
  650SOL    HW211765   3.596   9.061   1.883 -0.1701 -0.1922  1.0074
  651SOL     OW11766   3.025   7.932  -0.055  0.2469  0.3122  0.8192
  651SOL    HW111767   2.973   8.014  -0.031 -0.4402  0.0162  0.3395
  651SOL    HW211768   3.093   7.955  -0.124 -2.1975 -0.2003 -1.8371
  652SOL     OW11769   2.998   2.177   2.450  0.1582  0.4173  0.1044
  652SOL    HW111770   3.023   2.184   2.353 -0.5489 -1.5032 -0.2474
  652SOL    HW211771   2.960   2.263   2.481 -1.5755  0.4135 -1.9232
  653SOL     OW11772   4.096   2.618   1.464  0.3186 -0.0705 -0.7443
  653SOL    HW111773   4.108   2.629   1.562  0.8885  0.9619 -0.9171
  653SOL    HW211774   4.146   2.538   1.432  0.5971 -0.0777 -0.2843
  654SOL     OW11775   3.255   2.957   1.636 -0.5075 -0.4864  0.1474
  654SOL    HW111776   3.286   2.864   1.653 -0.0362 -0.0570  1.6889
  654SOL    HW211777   3.159   2.955   1.606 -0.3559 -1.4939 -0.2752
  655SOL     OW11778   2.254   9.239   1.707  0.5689  0.0230  0.2169
  655SOL    HW111779   2.241   9.313   1.642  3.0397  0.1236 -0.2224
  655SOL    HW211780   2.288   9.275   1.793  0.4285 -0.4530  0.4748
  656SOL     OW11781   3.159   8.058   1.350  0.1671 -0.1260  0.2239
  656SOL    HW111782   3.233   8.118   1.317 -0.9126  1.5850  0.8279
  656SOL    HW211783   3.075   8.081   1.302 -0.2714 -1.1931  0.4724
  657SOL     OW11784   1.993   0.400   0.563 -0.7400 -0.6868  0.1516
  657SOL    HW111785   2.060   0.446   0.621 -0.6931 -1.5984  0.8429
  657SOL    HW211786   1.921   0.361   0.621 -2.1323  0.6949 -0.6202
  658SOL     OW11787   3.301   2.151  -0.106 -0.0758 -0.1924 -0.4765
  658SOL    HW111788   3.219   2.114  -0.062  0.4079 -0.2518  0.3961
  658SOL    HW211789   3.295   2.251  -0.109  0.6985 -0.0629  1.4065
  659SOL     OW11790   4.481   5.379   0.110 -0.1886  0.0367  0.5916
  659SOL    HW111791   4.505   5.292   0.153 -1.2648 -0.5582 -0.0051
  659SOL    HW211792   4.502   5.375   0.012  0.1455  0.5993  0.6347
  660SOL     OW11793   4.758   4.175   2.531  0.3022 -0.3044 -0.1664
  660SOL    HW111794   4.806   4.088   2.519 -1.0261 -1.1457  0.4264
  660SOL    HW211795   4.722   4.180   2.624 -1.8961 -0.3098 -0.9890
  661SOL     OW11796   2.337   5.290  -0.073 -0.8846  0.2697  0.0097
  661SOL    HW111797   2.304   5.368  -0.126 -1.8363  0.5903  1.0542
  661SOL    HW211798   2.303   5.205  -0.113  1.7478  0.2356 -2.2875
  662SOL     OW11799   2.958   1.024   2.065 -0.5364  0.3885  0.0067
  662SOL    HW111800   3.016   1.084   2.119 -0.2344  0.4456 -0.3753
  662SOL    HW211801   3.015   0.956   2.018 -0.8872 -0.3133  0.5778
  663SOL     OW11802   3.541   8.879   1.156 -0.4285  0.0723 -0.8675
  663SOL    HW111803   3.553   8.792   1.107 -0.6108 -0.1182 -0.5775
  663SOL    HW211804   3.456   8.876   1.209 -0.1865  0.2373 -0.4611
  664SOL     OW11805   3.733   5.050   0.212  0.1308 -0.1157 -0.1623
  664SOL    HW111806   3.825   5.074   0.240 -0.4489 -1.4138  3.0880
  664SOL    HW211807   3.672   5.127   0.226  0.0151 -0.4778  1.3709
  665SOL     OW11808   2.879   3.396  -0.025  0.6743  0.3484  0.4569
  665SOL    HW111809   2.852   3.440  -0.110 -0.9119 -1.0280  0.2119
  665SOL    HW211810   2.929   3.461   0.032 -0.2967  1.9970 -0.5288
  666SOL     OW11811   4.251   3.138   0.215 -0.4236 -0.2947  0.8131
  666SOL    HW111812   4.303   3.222   0.232 -1.7567  1.6760 -3.8831
  666SOL    HW211813   4.303   3.078   0.155 -0.8855 -1.2650  1.3755
  667SOL     OW11814   4.493   1.066   0.724 -0.2200  0.0235  0.5174
  667SOL    HW111815   4.529   1.008   0.651  0.9173  1.0313  0.2634
  667SOL    HW211816   4.472   1.009   0.803  0.8752 -0.7509  0.2748
  668SOL     OW11817   3.139   6.053   1.742 -0.5411  0.1657  0.1561
  668SOL    HW111818   3.129   5.970   1.686 -1.4792 -0.0240  0.5942
  668SOL    HW211819   3.117   6.133   1.687 -1.2061 -0.0005  0.1751
  669SOL     OW11820   2.632   6.344   1.416 -0.3957 -0.6391  0.2878
  669SOL    HW111821   2.541   6.304   1.410  0.6858 -3.0118 -0.7844
  669SOL    HW211822   2.679   6.333   1.328  0.3086  2.1403  0.2732
  670SOL     OW11823   2.213   8.982   1.880 -0.8531 -0.1219 -0.2340
  670SOL    HW111824   2.172   9.021   1.798 -1.7811  1.1241  0.8060
  670SOL    HW211825   2.248   9.056   1.938  1.8995 -1.0854 -0.5761
  671SOL     OW11826   2.685   7.775   2.299  0.4487 -0.1923  0.3514
  671SOL    HW111827   2.589   7.790   2.322 -0.0400 -0.2883 -1.5241
  671SOL    HW211828   2.718   7.850   2.241  1.3966 -0.3554  0.6683
  672SOL     OW11829   2.330   1.354   2.360 -0.1111 -0.8494 -0.8542
  672SOL    HW111830   2.401   1.421   2.381 -0.1772  0.0811 -3.4166
  672SOL    HW211831   2.242   1.401   2.353 -0.5162 -1.5556 -0.5203
  673SOL     OW11832   2.495   0.943   0.773  0.1855  0.0708 -0.0807
  673SOL    HW111833   2.509   1.027   0.826 -0.0731 -1.1334  1.9504
  673SOL    HW211834   2.491   0.966   0.676  1.1991  2.2759  0.3497
  674SOL     OW11835   4.022   9.190   2.373  0.0102 -0.0402 -0.3260
  674SOL    HW111836   4.045   9.209   2.468  1.9387 -0.2013 -0.7322
  674SOL    HW211837   3.934   9.143   2.368 -0.1682  0.1103  1.3551
  675SOL     OW11838   4.084   8.190   0.495 -0.1933 -0.2493  0.1439
  675SOL    HW111839   4.164   8.218   0.442  1.3278 -0.4796  2.2502
  675SOL    HW211840   4.046   8.269   0.542 -0.4789 -0.3699  0.1173
  676SOL     OW11841   2.672   9.310   1.022 -0.3074  0.3340 -0.1359
  676SOL    HW111842   2.583   9.266   1.033 -0.7129  1.0571 -0.5100
  676SOL    HW211843   2.727   9.295   1.104 -1.0458  0.5150  0.3927
  677SOL     OW11844   2.704   2.195   2.223 -0.6330  0.1160 -0.9110
  677SOL    HW111845   2.804   2.201   2.220 -0.6199  1.0178  0.7718
  677SOL    HW211846   2.677   2.138   2.301 -1.4584  0.9760 -0.5692
  678SOL     OW11847   3.975   2.540   0.544  0.0542 -0.0193  0.2879
  678SOL    HW111848   4.026   2.520   0.460 -0.2038 -0.7047  0.2910
  678SOL    HW211849   4.022   2.498   0.622  0.8900  1.5388  0.6414
  679SOL     OW11850   5.228   3.809   0.373 -0.0374  0.2603 -0.0509
  679SOL    HW111851   5.204   3.724   0.326  0.8347  0.1129 -0.2289
  679SOL    HW211852   5.223   3.794   0.472 -0.9242  0.3053 -0.0787
  680SOL     OW11853   3.003   0.239   1.310  0.3932  0.5639 -0.7425
  680SOL    HW111854   3.094   0.222   1.349 -0.2540  0.8964  0.9542
  680SOL    HW211855   3.010   0.245   1.210  2.2221  0.5357 -0.6311
  681SOL     OW11856   3.905   5.222  -0.020  0.0147 -0.0870  0.7321
  681SOL    HW111857   3.818   5.174  -0.020  0.4583 -0.9179  0.1050
  681SOL    HW211858   3.889   5.321  -0.025 -0.9038 -0.1535  2.1990
  682SOL     OW11859   4.222   4.635   1.013 -0.1976  0.3422 -0.7884
  682SOL    HW111860   4.242   4.632   0.915 -1.4241 -0.4554 -1.0160
  682SOL    HW211861   4.287   4.578   1.063  0.4659  0.8023 -1.1217
  683SOL     OW11862   3.588   8.920   2.285 -0.0673 -0.2395 -0.0411
  683SOL    HW111863   3.559   9.015   2.273  0.7834 -0.3273 -3.3759
  683SOL    HW211864   3.508   8.860   2.280 -0.2233  0.0674 -1.5513
  684SOL     OW11865   3.420   2.740   0.802 -0.1915  0.1860 -0.0991
  684SOL    HW111866   3.340   2.680   0.802  1.0527 -1.5052 -0.0642
  684SOL    HW211867   3.463   2.736   0.712  0.3701  0.3927  0.1631
  685SOL     OW11868   3.884   1.423   1.051 -0.0548 -0.0114  0.2864
  685SOL    HW111869   3.972   1.384   1.022  1.3886  2.5738  0.9965
  685SOL    HW211870   3.822   1.349   1.076  0.9171 -2.0397 -2.8935
  686SOL     OW11871   2.709   9.163   1.594 -0.1157  0.2771 -0.2794
  686SOL    HW111872   2.643   9.197   1.528  0.8109  0.8229 -0.9408
  686SOL    HW211873   2.744   9.074   1.564  0.6272  0.7272 -0.7497
  687SOL     OW11874   3.511   3.119   2.466  0.3923  0.2714  0.8509
  687SOL    HW111875   3.576   3.077   2.403  1.5817  0.4274  1.9731
  687SOL    HW211876   3.509   3.067   2.552 -0.5052  0.6302  1.0618
  688SOL     OW11877   3.901   2.392   1.336 -0.3058  0.0824  0.4814
  688SOL    HW111878   4.001   2.397   1.342 -0.1491 -1.4875 -0.7639
  688SOL    HW211879   3.862   2.477   1.372  1.5000  1.0945  0.1182
  689SOL     OW11880   2.770   4.687   1.394 -0.6249 -0.0322 -0.1615
  689SOL    HW111881   2.690   4.706   1.452 -0.2208  2.5507 -0.3855
  689SOL    HW211882   2.853   4.715   1.441  0.1083 -1.9642 -0.2642
  690SOL     OW11883   3.190   2.660   2.223 -0.3862  0.7830  0.0614
  690SOL    HW111884   3.268   2.670   2.286 -0.0903  0.5697 -0.2716
  690SOL    HW211885   3.165   2.749   2.186  0.0177  0.7821 -0.2138
  691SOL     OW11886   3.050   4.261   1.505 -0.0394 -0.0791 -0.3286
  691SOL    HW111887   3.052   4.269   1.405 -0.6185 -1.6375 -0.4779
  691SOL    HW211888   3.140   4.285   1.542  0.1920  0.4612 -1.2202
  692SOL     OW11889   3.680  10.168   2.578 -0.4457  0.8640 -0.3720
  692SOL    HW111890   3.754  10.129   2.523  0.1429  1.5757 -0.0996
  692SOL    HW211891   3.705  10.165   2.675 -2.0389 -1.5833 -0.0066
  693SOL     OW11892   3.314   8.873   1.300  0.3302  0.0831  0.1819
  693SOL    HW111893   3.221   8.895   1.271  0.5249  0.7945  0.1089
  693SOL    HW211894   3.310   8.818   1.384 -0.2512 -2.1972 -1.2717
  694SOL     OW11895   3.018   4.327   0.855 -0.3717 -0.4376  0.5936
  694SOL    HW111896   3.001   4.241   0.903  0.0956 -0.5235  0.5992
  694SOL    HW211897   2.940   4.346   0.795 -0.4104 -0.9350  0.4814
  695SOL     OW11898   3.611   1.894   0.989 -0.1423 -0.1835 -0.4254
  695SOL    HW111899   3.656   1.884   0.900 -1.2272  1.3572 -1.1735
  695SOL    HW211900   3.679   1.884   1.061  1.1693  0.7470 -1.4957
  696SOL     OW11901   3.525   9.544   0.170 -0.2454  0.0802 -0.1676
  696SOL    HW111902   3.557   9.479   0.239  0.8205 -0.0963 -0.8117
  696SOL    HW211903   3.532   9.502   0.079  0.3298  1.0367 -0.5782
  697SOL     OW11904   2.500   1.153   2.395  0.1380 -0.2356  0.2228
  697SOL    HW111905   2.582   1.163   2.338  0.3486 -1.3146  0.3101
  697SOL    HW211906   2.436   1.227   2.376  0.4400 -0.2837 -1.0218
  698SOL     OW11907   2.668   4.249   2.592 -0.1994 -0.5927  0.5093
  698SOL    HW111908   2.683   4.169   2.650  0.1496 -1.1599 -0.3530
  698SOL    HW211909   2.575   4.248   2.557 -0.1133 -0.7627  0.2855
  699SOL     OW11910   4.287   2.816   2.168  0.1341  0.2693 -0.2109
  699SOL    HW111911   4.220   2.752   2.129 -1.1923  2.0502 -0.9748
  699SOL    HW211912   4.310   2.885   2.099  2.9419 -0.4028 -0.0212
  700SOL     OW11913   2.697   3.806   0.610 -0.0368  0.4503  0.7023
  700SOL    HW111914   2.629   3.857   0.662 -2.3205 -0.5837 -1.1951
  700SOL    HW211915   2.745   3.743   0.671 -2.0959 -0.1637  1.7269
  701SOL     OW11916   3.482   4.271   1.750 -0.5131  0.0030 -0.1672
  701SOL    HW111917   3.562   4.214   1.730  0.6424  0.5317  2.7259
  701SOL    HW211918   3.422   4.223   1.813 -0.8310  0.9650  0.2614
  702SOL     OW11919   3.436   1.655   2.154  0.1135 -0.0439 -0.2317
  702SOL    HW111920   3.525   1.698   2.169  0.5533 -0.5998 -1.2373
  702SOL    HW211921   3.448   1.573   2.099 -1.1398  0.3912 -1.1616
  703SOL     OW11922   2.353   8.717   0.950 -0.0608  0.0739 -0.5392
  703SOL    HW111923   2.286   8.762   0.891  0.8231 -0.5442 -2.0302
  703SOL    HW211924   2.380   8.630   0.910 -1.9986 -2.0328  2.4728
  704SOL     OW11925   3.969   0.404   1.921 -0.2279 -0.2542  0.2800
  704SOL    HW111926   3.943   0.461   1.843 -0.4605 -0.8020 -0.0460
  704SOL    HW211927   3.984   0.462   2.001  0.5477  0.3727 -0.3094
  705SOL     OW11928   3.731   4.150   1.726 -0.0191 -0.1904 -0.4144
  705SOL    HW111929   3.746   4.119   1.820  1.9052  0.1074 -0.5981
  705SOL    HW211930   3.791   4.228   1.707 -2.6928  1.8309 -0.8732
  706SOL     OW11931   3.238   1.882   1.885 -0.1626 -1.0699  0.3568
  706SOL    HW111932   3.206   1.863   1.978  0.3672 -1.6931  0.4145
  706SOL    HW211933   3.329   1.841   1.871 -0.4300 -1.3776 -0.5733
  707SOL     OW11934   4.778   2.224   2.478 -0.0433 -0.0234  0.5640
  707SOL    HW111935   4.782   2.201   2.576  0.6433  2.1967  1.0961
  707SOL    HW211936   4.699   2.282   2.460 -1.3011 -2.0512 -0.5999
  708SOL     OW11937   2.852   1.131   0.620  0.0706  0.1165  0.0095
  708SOL    HW111938   2.794   1.206   0.655  0.2733  0.5864 -0.6518
  708SOL    HW211939   2.819   1.104   0.529  0.3705 -0.1887 -0.0055
  709SOL     OW11940   3.917   3.333   1.271  0.0102 -0.1173 -0.0639
  709SOL    HW111941   3.853   3.410   1.275 -0.9012 -0.7980 -1.1203
  709SOL    HW211942   3.969   3.329   1.356 -1.4005  0.4011  0.8561
  710SOL     OW11943   4.020   1.953   0.805  0.1471  0.0956 -0.4146
  710SOL    HW111944   3.987   1.924   0.895 -2.0816 -1.1677 -1.5886
  710SOL    HW211945   3.963   2.027   0.770  1.1524  0.7507 -0.7107
  711SOL     OW11946   2.389   4.325   0.441 -0.4752  0.1693 -0.6020
  711SOL    HW111947   2.485   4.312   0.414  0.1301 -0.5308  1.7951
  711SOL    HW211948   2.331   4.312   0.361  1.3570 -0.3501 -1.8987
  712SOL     OW11949   3.495   2.294   0.303 -0.0146  0.1337  0.1463
  712SOL    HW111950   3.546   2.369   0.259  0.4839  0.2951  0.9729
  712SOL    HW211951   3.543   2.208   0.286  0.7932  0.3442  1.2953
  713SOL     OW11952   4.271   3.758   2.416  0.1561  0.0831  0.0895
  713SOL    HW111953   4.341   3.688   2.402 -0.9346 -1.0923  0.4356
  713SOL    HW211954   4.271   3.822   2.339  1.7072  0.1909  0.1651
  714SOL     OW11955   2.611  10.054   0.764  0.1865  0.3375 -0.0314
  714SOL    HW111956   2.564   9.967   0.750 -0.6691  0.7846  0.0234
  714SOL    HW211957   2.628  10.068   0.861  1.1287 -0.1748 -0.1118
  715SOL     OW11958   3.908   0.400   1.534  0.0568 -0.3994  0.9199
  715SOL    HW111959   3.968   0.390   1.454 -1.2382  0.5649 -0.1928
  715SOL    HW211960   3.918   0.491   1.573 -2.0653  0.4474 -0.4340
  716SOL     OW11961   4.524   1.930   1.693  0.3946 -0.3333 -0.0141
  716SOL    HW111962   4.470   1.980   1.625 -1.5528  1.2459  2.6351
  716SOL    HW211963   4.480   1.843   1.714  0.4313 -0.3425  0.0264
  717SOL     OW11964   3.677   1.766   2.258 -0.0495  0.2421  0.1493
  717SOL    HW111965   3.771   1.742   2.235 -0.1769 -1.4509  1.3052
  717SOL    HW211966   3.677   1.826   2.338 -0.0186 -1.9342  1.8507
  718SOL     OW11967   2.231   6.146   1.772  0.2276 -0.1649  0.4835
  718SOL    HW111968   2.249   6.048   1.783 -2.0229 -0.5604  0.7498
  718SOL    HW211969   2.149   6.171   1.824  0.3033  1.7017 -0.2666
  719SOL     OW11970   2.195   7.207  -0.106  0.0945  0.0413  0.2011
  719SOL    HW111971   2.139   7.160  -0.174  0.3180 -0.8895  0.6487
  719SOL    HW211972   2.280   7.155  -0.092 -0.1358  0.0093  1.4877
  720SOL     OW11973   4.150   3.761   1.583 -0.1064 -0.2856 -0.7390
  720SOL    HW111974   4.115   3.844   1.539  0.3228 -0.9948 -2.4417
  720SOL    HW211975   4.081   3.689   1.579  0.1962 -0.5688 -0.8747
  721SOL     OW11976   4.101   5.074   1.709 -0.3966 -0.1249 -0.0620
  721SOL    HW111977   4.173   5.024   1.756  0.5556  0.7854 -0.5222
  721SOL    HW211978   4.013   5.031   1.727 -0.2504  0.9623  3.5894
  722SOL     OW11979   3.116   1.169   2.206  0.0111  0.3970 -0.0743
  722SOL    HW111980   3.146   1.247   2.151  1.6361  0.1318  0.4179
  722SOL    HW211981   3.175   1.159   2.285 -0.1848 -1.3275 -0.1200
  723SOL     OW11982   1.894   6.390   0.197  0.9541  0.1796  0.1595
  723SOL    HW111983   1.867   6.332   0.274 -0.8218  0.9075  0.1183
  723SOL    HW211984   1.978   6.438   0.219  1.6564 -1.3036  0.7683
  724SOL     OW11985   2.452   5.669   1.201  0.2404  0.2811 -0.1090
  724SOL    HW111986   2.515   5.742   1.228  1.9074 -0.1934 -2.5249
  724SOL    HW211987   2.418   5.623   1.283  1.5620  1.7928  1.3327
  725SOL     OW11988   3.336   5.344   1.136  0.0902 -0.1159  0.5731
  725SOL    HW111989   3.402   5.351   1.062 -1.1054 -0.3446 -0.5245
  725SOL    HW211990   3.345   5.424   1.196  2.6554 -1.0658  1.5406
  726SOL     OW11991   4.240   4.732   0.305 -0.3960 -0.1014  0.0316
  726SOL    HW111992   4.268   4.640   0.334  0.6957 -0.0171 -0.7090
  726SOL    HW211993   4.141   4.741   0.316 -0.4535 -1.2030  0.5651
  727SOL     OW11994   3.207   1.974   0.969 -0.4280 -0.2128 -0.4266
  727SOL    HW111995   3.196   2.073   0.959  2.0882  0.3144  1.6339
  727SOL    HW211996   3.165   1.945   1.055  1.5623 -0.4113  0.4980
  728SOL     OW11997   3.244   5.544   0.793 -0.2350 -0.3859  0.6394
  728SOL    HW111998   3.289   5.458   0.816 -1.2311 -1.0313  0.2368
  728SOL    HW211999   3.195   5.533   0.706 -0.7378  0.4507  0.8131
  729SOL     OW12000   2.733   7.959   2.117 -0.0537  0.3974 -0.3608
  729SOL    HW112001   2.789   8.018   2.176  2.4055 -1.2742 -0.9678
  729SOL    HW212002   2.757   7.976   2.021  0.3734 -1.2865 -0.5615
  730SOL     OW12003   2.570   5.250   1.951  0.2897  0.2550  0.6249
  730SOL    HW112004   2.507   5.175   1.928 -0.2670  0.8380  0.2245
  730SOL    HW212005   2.622   5.275   1.870  1.1133 -0.2886  0.9807
  731SOL     OW12006   3.720   2.969   2.321 -0.2160  0.4900  0.0413
  731SOL    HW112007   3.783   2.959   2.398 -1.6224 -3.2005  0.8333
  731SOL    HW212008   3.748   2.908   2.247 -0.8847  1.4129 -0.9862
  732SOL     OW12009   4.113   5.275   0.475 -0.0308 -0.1698  0.3833
  732SOL    HW112010   4.203   5.233   0.485  0.2425  0.4240  0.3648
  732SOL    HW212011   4.118   5.355   0.416 -0.8130 -0.8990 -0.6947
  733SOL     OW12012   4.453   1.720   0.156  0.2808 -0.0390 -0.2298
  733SOL    HW112013   4.478   1.623   0.150  0.1950 -0.0331 -0.6618
  733SOL    HW212014   4.507   1.773   0.090 -0.5486  0.0377 -0.8530
  734SOL     OW12015   2.382   5.951   2.210 -0.3783 -0.4610 -0.3059
  734SOL    HW112016   2.408   5.957   2.306  1.9381  3.2562 -1.0655
  734SOL    HW212017   2.425   5.870   2.168  1.1120 -0.3992  1.0639
  735SOL     OW12018   3.576   4.044   0.126  0.0396  0.1402  0.3551
  735SOL    HW112019   3.646   4.111   0.152  0.4163 -0.9013  2.0786
  735SOL    HW212020   3.487   4.074   0.161 -0.1123  0.6294 -0.4247
  736SOL     OW12021   2.521   0.218   1.575 -0.1231 -0.6101 -0.1574
  736SOL    HW112022   2.602   0.246   1.627 -0.1472  0.5566 -0.7387
  736SOL    HW212023   2.456   0.293   1.572 -1.8108 -1.9555  1.3886
  737SOL     OW12024   2.701   7.919  -0.089  0.1190 -0.0085  0.7497
  737SOL    HW112025   2.611   7.962  -0.084 -0.7582 -1.6038 -0.7991
  737SOL    HW212026   2.701   7.834  -0.036 -0.1056 -1.3698 -1.3919
  738SOL     OW12027   3.299   1.879   1.588 -0.3008 -0.1407  0.3894
  738SOL    HW112028   3.387   1.861   1.545 -0.3915  0.9831 -0.2766
  738SOL    HW212029   3.313   1.907   1.683  0.1008  0.7192  0.0784
  739SOL     OW12030   3.024   3.987   1.422  0.1619 -0.3913 -0.2963
  739SOL    HW112031   3.063   4.069   1.463  0.3708 -0.3223 -0.6272
  739SOL    HW212032   3.082   3.958   1.346 -0.0151 -0.7355 -0.2995
  740SOL     OW12033   2.940   9.967   1.453 -0.4433  0.1414  0.2676
  740SOL    HW112034   2.947  10.060   1.417 -1.9835 -0.1061 -0.7268
  740SOL    HW212035   3.014   9.911   1.416  0.1292  0.8129  0.3868
  741SOL     OW12036   4.110   3.625   0.905 -0.3042  0.4684 -0.4154
  741SOL    HW112037   4.123   3.724   0.904 -0.2395  0.4670  0.1728
  741SOL    HW212038   4.062   3.597   0.821 -0.2435  0.9813 -0.6239
  742SOL     OW12039   2.854   3.524   2.471 -0.6457  0.3420 -0.0481
  742SOL    HW112040   2.805   3.588   2.412  0.7102  0.9867 -0.4950
  742SOL    HW212041   2.939   3.565   2.502 -0.2952 -0.8200  0.5741
  743SOL     OW12042   4.164   2.298   2.403 -0.2779 -0.0582 -0.0980
  743SOL    HW112043   4.143   2.255   2.490  0.2681  0.4837  0.3032
  743SOL    HW212044   4.079   2.325   2.358 -0.5478 -0.0798  0.3956
  744SOL     OW12045   2.627   0.566   0.525  0.2767 -0.2901  0.2908
  744SOL    HW112046   2.538   0.587   0.486  0.5219 -1.2494 -0.8092
  744SOL    HW212047   2.630   0.596   0.620 -1.0619  0.1512  0.1972
  745SOL     OW12048   2.696   9.508   0.313 -0.3250 -0.1170  0.0460
  745SOL    HW112049   2.721   9.598   0.349  0.4013 -0.1296 -0.4058
  745SOL    HW212050   2.767   9.442   0.336 -0.6292 -0.4712 -0.0305
  746SOL     OW12051   2.877   9.386  -0.054 -0.4399  0.1127 -0.3699
  746SOL    HW112052   2.918   9.404   0.035  1.6956 -0.5401 -1.1692
  746SOL    HW212053   2.946   9.401  -0.125 -1.8051 -0.4124 -1.8225
  747SOL     OW12054   3.250   8.934   2.162 -0.6346  0.3187 -0.1387
  747SOL    HW112055   3.234   8.922   2.260 -0.3767  1.0331 -0.0060
  747SOL    HW212056   3.311   8.862   2.129  0.9564  1.2893  0.6522
  748SOL     OW12057   4.658   3.600   0.217 -0.0214  0.6746 -0.3352
  748SOL    HW112058   4.567   3.629   0.190 -0.3139  0.9340  0.9087
  748SOL    HW212059   4.708   3.678   0.256  0.5754  0.4293 -0.5961
  749SOL     OW12060   4.898   3.062   1.123  0.7656  0.0455 -0.1965
  749SOL    HW112061   4.848   3.100   1.201  1.4189 -1.0038  0.7444
  749SOL    HW212062   4.991   3.098   1.121  0.6116  0.4224 -0.7623
  750SOL     OW12063   2.189   7.665   1.404  0.8579  0.0494 -0.2000
  750SOL    HW112064   2.175   7.622   1.493  1.7978  0.2211  0.0405
  750SOL    HW212065   2.258   7.738   1.413  0.8062  0.2045 -1.0199
  751SOL     OW12066   4.384   1.947   1.059 -0.0788 -0.3298 -0.8924
  751SOL    HW112067   4.452   2.020   1.066 -0.4029 -0.1339  0.2435
  751SOL    HW212068   4.315   1.958   1.130 -0.9821 -0.8668 -1.6736
  752SOL     OW12069   3.567   5.339   1.836 -0.0207 -0.0056 -0.4658
  752SOL    HW112070   3.602   5.405   1.902  1.7997 -2.9340  1.6691
  752SOL    HW212071   3.468   5.347   1.829  0.1675  2.9021 -0.2935
  753SOL     OW12072   4.363   2.348   0.646  0.4078 -0.0030  0.6314
  753SOL    HW112073   4.347   2.257   0.607  0.6563  0.3822 -0.3732
  753SOL    HW212074   4.457   2.354   0.678  0.7017  0.2473 -0.2609
  754SOL     OW12075   3.059   9.554   1.252 -0.1160  0.3414 -0.0359
  754SOL    HW112076   3.077   9.646   1.288 -0.2212  0.3819 -0.0843
  754SOL    HW212077   3.145   9.504   1.244 -0.0503  0.4576 -0.0683
  755SOL     OW12078   2.895   0.924   0.781  0.5678  0.3429 -0.1967
  755SOL    HW112079   2.877   0.981   0.700 -0.1955  1.1327  0.5243
  755SOL    HW212080   2.876   0.976   0.864  0.8630 -0.6326  0.4991
  756SOL     OW12081   2.846   8.533   1.750 -0.2372 -0.3191 -0.6893
  756SOL    HW112082   2.832   8.480   1.833 -1.2431 -0.2339 -0.8032
  756SOL    HW212083   2.795   8.493   1.675 -0.5803  0.5042 -0.8999
  757SOL     OW12084   3.006   4.609   0.260 -0.4245  0.4839 -0.1287
  757SOL    HW112085   2.968   4.661   0.184 -2.6899  0.3586  0.8741
  757SOL    HW212086   3.074   4.544   0.226  0.6190  2.3479 -1.6872
  758SOL     OW12087   3.308   5.457   2.252 -0.0808 -0.1006  0.3388
  758SOL    HW112088   3.355   5.370   2.243 -0.5589 -0.2692 -0.5413
  758SOL    HW212089   3.267   5.483   2.165 -0.7123  0.5670  0.8222
  759SOL     OW12090   4.361   2.422   1.546  0.2082  0.4171 -0.4621
  759SOL    HW112091   4.388   2.408   1.641  0.0382  0.5747 -0.3928
  759SOL    HW212092   4.351   2.519   1.527 -3.6700  0.2565  0.4234
  760SOL     OW12093   3.169   3.291   0.451  0.3738  0.0233  0.1373
  760SOL    HW112094   3.114   3.231   0.392 -0.0718 -1.3868  1.9438
  760SOL    HW212095   3.266   3.267   0.440  0.2135 -0.9165  0.7026
  761SOL     OW12096   3.020   2.813   2.477 -0.7341 -0.3423  0.3876
  761SOL    HW112097   3.101   2.799   2.533 -0.5207 -0.1705  0.1279
  761SOL    HW212098   3.048   2.849   2.388 -0.9152 -2.1646 -0.4367
  762SOL     OW12099   3.880   0.837   0.348 -0.2611  0.1941  0.1937
  762SOL    HW112100   3.812   0.900   0.386 -0.4934  0.5284 -0.7764
  762SOL    HW212101   3.836   0.773   0.286  0.1458 -0.2483  0.3609
  763SOL     OW12102   2.921   8.221   0.685 -0.1429  0.0920 -0.4891
  763SOL    HW112103   2.952   8.154   0.753 -0.6378 -0.5026 -0.8447
  763SOL    HW212104   2.910   8.176   0.597  0.6704  0.9033 -1.0185
  764SOL     OW12105   4.002   5.564   0.396  0.0091  0.6824  0.0276
  764SOL    HW112106   3.939   5.579   0.472 -1.2181  2.4898 -1.3132
  764SOL    HW212107   4.002   5.644   0.336  1.1614 -0.6009 -1.7313
  765SOL     OW12108   2.504   4.704   1.171 -0.1393 -0.5176 -0.0991
  765SOL    HW112109   2.453   4.680   1.089  0.7570  0.3065 -0.9092
  765SOL    HW212110   2.567   4.779   1.151  0.1990 -0.4010  1.3020
  766SOL     OW12111   2.856   2.582   1.629 -0.3984  0.0489  0.0146
  766SOL    HW112112   2.898   2.584   1.719 -1.2852  1.8077  0.4249
  766SOL    HW212113   2.757   2.596   1.638 -0.2450  2.2930 -1.3388
  767SOL     OW12114   2.578   9.970   2.188 -0.7572  0.1395 -0.6695
  767SOL    HW112115   2.605   9.910   2.263 -0.6157  1.2238  0.1593
  767SOL    HW212116   2.570   9.917   2.104  1.3284 -0.6741 -0.3672
  768SOL     OW12117   3.843   8.063   0.626  0.4643  0.1193 -0.4711
  768SOL    HW112118   3.768   8.048   0.561  1.3254 -0.1597 -1.4047
  768SOL    HW212119   3.918   8.110   0.580  0.7651  0.6349  0.5351
  769SOL     OW12120   2.988   5.710   2.469  0.0722 -0.4467 -0.4330
  769SOL    HW112121   2.980   5.610   2.480 -1.3430 -0.1282  1.6650
  769SOL    HW212122   2.971   5.734   2.373 -1.6150 -2.0544 -0.5729
  770SOL     OW12123   2.988   5.397   2.012  0.2723 -0.0270 -0.5583
  770SOL    HW112124   2.976   5.371   1.917  1.8107 -2.0171 -0.2540
  770SOL    HW212125   3.054   5.471   2.019 -0.0009  0.2633 -1.0479
  771SOL     OW12126   2.421  10.151   1.869  0.0387  0.4280  0.3367
  771SOL    HW112127   2.324  10.161   1.891  0.1573  1.6536  0.3295
  771SOL    HW212128   2.437  10.179   1.774  0.3029 -0.3768  0.1373
  772SOL     OW12129   4.948   2.279   0.471 -0.5223 -0.7562 -0.0553
  772SOL    HW112130   4.971   2.184   0.452  0.2226 -0.8589  1.2807
  772SOL    HW212131   4.912   2.322   0.389  0.7016 -1.7246 -1.1034
  773SOL     OW12132   2.968   3.969   2.024  0.6847  0.3056  0.3407
  773SOL    HW112133   2.969   4.026   1.942  1.5004  1.6845  1.2837
  773SOL    HW212134   2.896   4.000   2.086 -0.5557 -1.3350 -0.2571
  774SOL     OW12135   3.137   2.700   1.394  0.3029 -0.4261 -0.0986
  774SOL    HW112136   3.136   2.734   1.300  0.9286  1.3559  0.5158
  774SOL    HW212137   3.232   2.686   1.423  0.0962 -1.3221  0.1475
  775SOL     OW12138   3.712   9.732   1.506  0.2430 -0.1426  0.1671
  775SOL    HW112139   3.778   9.658   1.489  1.3068  0.8878 -0.2565
  775SOL    HW212140   3.671   9.719   1.596  1.0904 -0.7666  0.4737
  776SOL     OW12141   3.303   1.566   2.491 -0.1848 -0.7095 -0.1357
  776SOL    HW112142   3.333   1.656   2.460  1.6220 -1.2666 -0.0402
  776SOL    HW212143   3.308   1.502   2.414 -0.9516 -0.8569 -0.0668
  777SOL     OW12144   2.229   6.514   2.422 -0.0485  0.1495  0.2137
  777SOL    HW112145   2.244   6.584   2.491 -0.7213  1.8701 -1.3596
  777SOL    HW212146   2.137   6.475   2.434  1.3335 -2.5089  2.8396
  778SOL     OW12147   4.180   2.760   0.560 -0.5257  0.2001  0.3239
  778SOL    HW112148   4.104   2.696   0.552 -2.5213  2.6894 -1.3911
  778SOL    HW212149   4.266   2.710   0.550 -1.9995 -2.3176 -0.2235
  779SOL     OW12150   3.981   8.327   1.006  0.0482 -0.0581  0.4435
  779SOL    HW112151   3.959   8.230   0.999  1.7356 -0.2713 -3.0458
  779SOL    HW212152   4.065   8.346   0.954 -0.0708  3.2068  1.3407
  780SOL     OW12153   4.739   3.197   1.569 -0.0191  0.2384 -0.3616
  780SOL    HW112154   4.769   3.188   1.664 -0.8860  0.6608 -0.0330
  780SOL    HW212155   4.648   3.240   1.568 -1.4895 -2.7480 -1.1911
  781SOL     OW12156   3.005   5.591   0.988 -0.0297 -0.3280  0.0226
  781SOL    HW112157   2.913   5.616   1.016 -0.3631  0.6422 -1.8370
  781SOL    HW212158   3.008   5.494   0.963 -0.5026 -0.3910  0.2139
  782SOL     OW12159   2.476   1.873   1.827  0.3024  0.5042 -0.4230
  782SOL    HW112160   2.425   1.828   1.900  0.7768 -2.7665 -1.9889
  782SOL    HW212161   2.563   1.907   1.864  0.8158 -1.6524  0.4505
  783SOL     OW12162   2.751   5.368   2.514 -0.2966 -0.0476 -0.2900
  783SOL    HW112163   2.710   5.459   2.509  0.4154  0.2700 -0.4073
  783SOL    HW212164   2.679   5.298   2.506 -0.7928  0.5020 -0.6407
  784SOL     OW12165   3.118   3.258   1.198 -0.0140  0.2270 -0.2265
  784SOL    HW112166   3.124   3.352   1.230  0.5167  0.3771 -0.7737
  784SOL    HW212167   3.075   3.202   1.269  0.5485  0.6875  0.4837
  785SOL     OW12168   4.586   4.061   0.842  0.1753 -0.2118  0.2201
  785SOL    HW112169   4.529   4.140   0.863 -0.4704 -0.5275 -0.3374
  785SOL    HW212170   4.531   3.991   0.796  0.7910 -0.8980  0.5141
  786SOL     OW12171   3.055   0.706   0.713 -0.4247 -0.1831  0.3685
  786SOL    HW112172   3.006   0.793   0.708 -1.5770 -0.7571  1.4292
  786SOL    HW212173   2.991   0.634   0.739  1.0716 -0.8619  2.2803
  787SOL     OW12174   3.293   8.494   2.551  0.0048 -0.0278 -0.5704
  787SOL    HW112175   3.263   8.589   2.539  1.0267  0.2758 -0.7424
  787SOL    HW212176   3.349   8.488   2.634 -2.0727 -0.9592  0.8153
  788SOL     OW12177   3.677   5.654   2.486  0.2579 -0.0002 -0.4414
  788SOL    HW112178   3.619   5.630   2.408  0.6173  0.7089 -0.9404
  788SOL    HW212179   3.620   5.685   2.562 -0.0535  0.2402 -0.7682
  789SOL     OW12180   2.913   8.112   1.233  0.1230  0.4314 -0.1282
  789SOL    HW112181   2.846   8.133   1.304 -0.7618  2.1542 -1.4543
  789SOL    HW212182   2.905   8.178   1.159  4.5810  1.8757  0.5381
  790SOL     OW12183   5.014   2.466   0.638 -0.5623  0.5176 -0.7093
  790SOL    HW112184   4.998   2.389   0.577  1.0359  1.2162 -2.0613
  790SOL    HW212185   5.105   2.458   0.679 -0.1634  1.9485 -1.2918
  791SOL     OW12186   3.839   0.904   0.796 -0.1583 -0.5267  0.7488
  791SOL    HW112187   3.882   0.919   0.707  0.2801 -0.3417  0.9911
  791SOL    HW212188   3.751   0.859   0.783  1.0837 -2.8881  0.4057
  792SOL     OW12189   2.666   7.755   1.805  0.1960 -0.4701 -0.0979
  792SOL    HW112190   2.693   7.780   1.898  1.1478 -1.9806  0.0558
  792SOL    HW212191   2.747   7.735   1.751 -0.3318  0.7633 -1.3791
  793SOL     OW12192   3.249   1.123   0.768 -0.3048 -0.1966 -0.0406
  793SOL    HW112193   3.238   1.215   0.732 -0.4052  0.5707  1.8940
  793SOL    HW212194   3.198   1.058   0.712 -0.2944  0.9383 -1.3610
  794SOL     OW12195   2.916   1.007   0.294 -0.0170  0.1050 -0.0755
  794SOL    HW112196   2.959   0.980   0.208  0.8337  1.2490 -0.0151
  794SOL    HW212197   2.866   0.929   0.333 -0.8320 -0.2832 -1.8556
  795SOL     OW12198   3.676   0.464   0.832  0.2670  0.7168  0.5046
  795SOL    HW112199   3.597   0.488   0.889 -0.1188 -0.2765  0.3873
  795SOL    HW212200   3.684   0.365   0.824 -1.8647  0.7732 -4.1673
  796SOL     OW12201   2.396   5.368   0.419 -0.0752  0.1141  0.0379
  796SOL    HW112202   2.334   5.348   0.343 -0.1974 -0.3371  0.2533
  796SOL    HW212203   2.438   5.458   0.405 -0.9512  0.5221  0.0061
  797SOL     OW12204   4.257   4.618   1.677 -0.1919 -0.4102  0.2945
  797SOL    HW112205   4.332   4.593   1.616 -0.2087  0.4058 -0.0636
  797SOL    HW212206   4.277   4.586   1.769  1.3085  1.1403  0.5260
  798SOL     OW12207   3.654   0.899   0.075  0.2616 -0.1546 -0.1311
  798SOL    HW112208   3.654   0.922  -0.023  0.5917  0.8216  0.0915
  798SOL    HW212209   3.572   0.847   0.096  1.1143 -2.0277 -1.3037
  799SOL     OW12210   3.336   0.944  -0.113 -0.2903  0.0117 -0.0920
  799SOL    HW112211   3.325   0.845  -0.121 -1.1602 -0.0566  1.7458
  799SOL    HW212212   3.287   0.977  -0.033  0.7169  1.8224 -0.1861
  800SOL     OW12213   3.225   9.761   0.225 -0.0581  0.9418 -0.0019
  800SOL    HW112214   3.149   9.768   0.160 -0.8283  1.6057  0.9572
  800SOL    HW212215   3.312   9.767   0.175 -0.6186  0.0256 -1.1219
  801SOL     OW12216   2.974   5.439   2.371  0.1030 -0.2285 -0.6953
  801SOL    HW112217   2.894   5.415   2.426 -0.6887  1.4388 -1.0806
  801SOL    HW212218   2.946   5.448   2.275  0.0890  3.2395 -0.4311
  802SOL     OW12219   3.007   9.736   0.066 -0.0947  0.7713  0.1037
  802SOL    HW112220   2.947   9.816   0.078  0.1718  0.8658  0.8155
  802SOL    HW212221   2.968   9.676  -0.004 -0.4018  1.4269 -0.2932
  803SOL     OW12222   2.672   0.732   0.765 -0.1317 -0.0910  0.3354
  803SOL    HW112223   2.593   0.792   0.776  0.0367  0.0543  0.7786
  803SOL    HW212224   2.756   0.785   0.773  0.0207  0.0330 -1.7577
  804SOL     OW12225   2.999   8.117   1.656 -0.2386  0.5590 -0.2087
  804SOL    HW112226   3.062   8.150   1.725  0.5074  0.0288 -0.6266
  804SOL    HW212227   3.049   8.093   1.573 -0.9257 -0.3038 -0.3872
  805SOL     OW12228   4.609   2.180   1.751  0.4068  0.3371 -0.0089
  805SOL    HW112229   4.602   2.239   1.670 -0.4934 -0.3983 -0.4747
  805SOL    HW212230   4.588   2.086   1.726 -0.4166  0.1952  1.1835
  806SOL     OW12231   3.325   1.386   2.273 -0.2761  0.1569  0.4986
  806SOL    HW112232   3.366   1.376   2.183 -0.1177  1.5102  0.4021
  806SOL    HW212233   3.319   1.297   2.318  2.2131 -0.1577  0.2595
  807SOL     OW12234   3.541   0.420   2.529  0.0257 -0.5674  0.4899
  807SOL    HW112235   3.590   0.340   2.564  1.1166  0.2718  0.8875
  807SOL    HW212236   3.467   0.389   2.469  1.1616 -1.8540 -0.2845
  808SOL     OW12237   4.190   2.557   2.560 -0.1618  0.3613 -0.3058
  808SOL    HW112238   4.199   2.461   2.536  0.7917  0.5390 -0.6824
  808SOL    HW212239   4.137   2.566   2.644 -0.8358 -0.4492 -0.6402
  809SOL     OW12240   2.854   1.973   1.190 -0.5665  0.1837  0.4222
  809SOL    HW112241   2.785   1.949   1.121 -0.8105  0.5579  0.5356
  809SOL    HW212242   2.821   1.945   1.280 -0.0583 -0.7052  0.3436
  810SOL     OW12243   2.419   0.458   1.695  0.6226  0.2278 -0.1896
  810SOL    HW112244   2.396   0.544   1.650 -1.4428 -0.9002 -1.3606
  810SOL    HW212245   2.400   0.466   1.793 -0.5076  0.7818 -0.4476
  811SOL     OW12246   2.109   7.164   0.188  0.2773  0.2607  0.5680
  811SOL    HW112247   2.196   7.125   0.218  0.4851 -1.0703 -1.6571
  811SOL    HW212248   2.118   7.197   0.094 -1.7532 -0.3263  0.1477
  812SOL     OW12249   3.220   8.013   0.962 -0.1629  0.2242  0.2741
  812SOL    HW112250   3.318   8.033   0.957 -0.4751  1.7641  0.0488
  812SOL    HW212251   3.205   7.916   0.943  1.4310 -0.3107  1.6497
  813SOL     OW12252   3.275   4.526   2.357 -0.1894 -0.0899  0.4700
  813SOL    HW112253   3.240   4.617   2.380 -2.5545 -1.0106  0.6283
  813SOL    HW212254   3.294   4.522   2.258  1.2040  0.9790  0.6841
  814SOL     OW12255   3.737   1.541   1.416 -0.1580 -0.1345 -0.2556
  814SOL    HW112256   3.694   1.492   1.340 -0.2837 -0.9468  0.3237
  814SOL    HW212257   3.833   1.556   1.395 -0.1617 -0.4667 -0.5293
  815SOL     OW12258   2.212   3.366   1.457  0.4016 -0.0351  0.6447
  815SOL    HW112259   2.209   3.309   1.539 -0.0619 -0.8259  0.0822
  815SOL    HW212260   2.124   3.359   1.409  0.3999  1.0176  0.4805
  816SOL     OW12261   2.780   7.962   1.573  0.2476  0.3027  0.2748
  816SOL    HW112262   2.867   8.006   1.597  0.2201  0.2453  0.4826
  816SOL    HW212263   2.791   7.863   1.576  0.7196  0.2855 -1.6968
  817SOL     OW12264   3.107   3.225   0.076  0.0842 -0.2389 -0.1849
  817SOL    HW112265   3.172   3.301   0.072 -0.9865  0.6841 -0.5888
  817SOL    HW212266   3.017   3.257   0.045 -1.1079 -0.8904  2.4055
  818SOL     OW12267   4.153   2.567   1.063  0.3108  0.0457 -0.4866
  818SOL    HW112268   4.237   2.536   1.019 -0.1953 -1.2892 -0.5294
  818SOL    HW212269   4.099   2.621   0.998  1.1399  0.9511 -0.4426
  819SOL     OW12270   4.651   2.794   0.971 -1.0678  0.2551 -0.2579
  819SOL    HW112271   4.733   2.803   0.915  0.3033  0.9358  1.7869
  819SOL    HW212272   4.633   2.880   1.018 -2.7932  0.0138 -0.4475
  820SOL     OW12273   3.408   5.016   1.642  0.3093 -0.5359  0.2750
  820SOL    HW112274   3.486   5.011   1.704  0.5449 -1.5308 -0.0828
  820SOL    HW212275   3.440   5.005   1.548 -0.2700 -1.1190  0.1395
  821SOL     OW12276   4.744   3.309   0.956  0.0431  0.0784  0.5045
  821SOL    HW112277   4.687   3.289   0.876  1.5822  1.8188 -1.0827
  821SOL    HW212278   4.686   3.327   1.035 -1.5045 -2.0502 -0.0939
  822SOL     OW12279   3.082   4.734  -0.013 -0.5815  0.3649  0.0188
  822SOL    HW112280   3.063   4.671  -0.088  2.1449 -0.8030  0.2547
  822SOL    HW212281   3.072   4.829  -0.045 -1.4365 -0.1337 -1.2288
  823SOL     OW12282   3.999   2.259   1.578  0.0304 -0.2584  0.3767
  823SOL    HW112283   3.920   2.256   1.640 -0.9343 -2.3178 -0.8606
  823SOL    HW212284   3.970   2.296   1.490 -0.1394 -3.0905 -0.8058
  824SOL     OW12285   4.055   1.910   1.930 -0.4189  0.4135  0.1698
  824SOL    HW112286   4.069   2.003   1.967  3.0670  0.4918 -1.1902
  824SOL    HW212287   4.019   1.916   1.837 -0.5964  0.3720  0.2345
  825SOL     OW12288   3.523   8.433   0.835  0.0400 -0.0689  0.2022
  825SOL    HW112289   3.596   8.383   0.788  0.9008  0.7456  0.6606
  825SOL    HW212290   3.443   8.438   0.775  0.7961  0.1251 -0.7976
  826SOL     OW12291   2.783   9.554   0.962  0.1842 -0.0280  0.0097
  826SOL    HW112292   2.727   9.472   0.968 -2.8625  2.0397  1.1382
  826SOL    HW212293   2.823   9.575   1.052  0.9473 -0.2675 -0.2708
  827SOL     OW12294   2.500   9.322   2.422 -0.3795 -0.4358 -0.3383
  827SOL    HW112295   2.586   9.372   2.432 -1.4536  1.4246 -0.1638
  827SOL    HW212296   2.457   9.347   2.335 -0.7991 -1.2714 -0.3713
  828SOL     OW12297   2.306   6.561   1.648  0.0026 -0.0962 -0.3123
  828SOL    HW112298   2.255   6.624   1.707  0.8129  0.4651 -0.2137
  828SOL    HW212299   2.254   6.476   1.638 -1.7392  1.0614 -1.5228
  829SOL     OW12300   3.236   3.704   0.593  0.1453  0.4840 -0.5119
  829SOL    HW112301   3.182   3.686   0.676 -1.3232  0.8144 -1.3659
  829SOL    HW212302   3.189   3.665   0.514  1.3262  0.5340 -1.2479
  830SOL     OW12303   3.269   9.347   0.066  0.1736  0.7406 -0.5948
  830SOL    HW112304   3.171   9.339   0.047  0.1033 -1.0837  0.4699
  830SOL    HW212305   3.283   9.395   0.152  0.1279 -0.7160  0.2455
  831SOL     OW12306   2.998   4.077  -0.022  0.0173  0.1492 -0.2797
  831SOL    HW112307   2.980   4.166   0.021 -0.8051 -0.2624  0.2566
  831SOL    HW212308   2.921   4.052  -0.080 -0.8972 -1.3129  1.4818
  832SOL     OW12309   2.813   8.162   0.412 -0.3128  0.2683 -0.6320
  832SOL    HW112310   2.891   8.198   0.361  2.2438 -2.7827  0.8731
  832SOL    HW212311   2.777   8.081   0.366 -0.8796  0.1189  0.0552
  833SOL     OW12312   2.028   9.836  -0.023 -0.2911  0.0525 -0.5464
  833SOL    HW112313   2.101   9.831   0.045 -1.1703 -1.0102  0.3413
  833SOL    HW212314   1.952   9.890   0.013 -0.6910 -0.3785 -0.7358
  834SOL     OW12315   2.740   7.605   0.115  0.5960  0.6282  0.1196
  834SOL    HW112316   2.670   7.647   0.058 -0.6210 -3.0874 -1.3280
  834SOL    HW212317   2.696   7.556   0.191  1.5756 -1.1958 -0.4443
  835SOL     OW12318   2.471   1.179   0.117  0.2982  1.0646  0.4239
  835SOL    HW112319   2.382   1.138   0.139 -0.3448  1.3392 -1.5100
  835SOL    HW212320   2.533   1.107   0.085 -0.1010  1.2232 -0.7650
  836SOL     OW12321   2.686   2.896   1.372 -0.6287  0.0824  0.2540
  836SOL    HW112322   2.644   2.842   1.445  0.5638  1.1087  1.7326
  836SOL    HW212323   2.699   2.990   1.404 -2.6781  1.2860 -2.2855
  837SOL     OW12324   1.969   6.038   0.345  0.2444  0.1032 -0.5028
  837SOL    HW112325   2.034   6.109   0.318  0.9968 -0.4447 -0.1478
  837SOL    HW212326   1.886   6.081   0.380  0.2913  0.8110 -1.2491
  838SOL     OW12327   3.027   1.555   2.296  0.5718  0.4602 -0.0839
  838SOL    HW112328   3.031   1.513   2.206 -0.3611  1.7268 -0.7442
  838SOL    HW212329   3.113   1.600   2.317  0.4494  1.0068 -0.7659
  839SOL     OW12330   3.323   3.060   2.065 -0.0983  0.2190  0.2654
  839SOL    HW112331   3.286   3.103   1.982 -1.5327 -0.3814  0.5741
  839SOL    HW212332   3.407   3.107   2.092 -0.0924  0.9863 -1.0273
  840SOL     OW12333   4.323   3.205   0.952 -0.2095 -0.2319 -0.1261
  840SOL    HW112334   4.290   3.298   0.968  0.4464 -0.1739  0.9282
  840SOL    HW212335   4.397   3.208   0.885 -0.0586  0.0263  0.0503
  841SOL     OW12336   3.546   3.338   1.706 -0.0831 -0.0555  0.1346
  841SOL    HW112337   3.514   3.371   1.617  0.7516 -3.4069 -1.4816
  841SOL    HW212338   3.645   3.347   1.711 -0.0107 -0.8880  0.2584
  842SOL     OW12339   3.309   9.399   1.295 -0.6967  0.3689  0.1106
  842SOL    HW112340   3.408   9.414   1.290 -0.6100  0.6062  2.1342
  842SOL    HW212341   3.274   9.439   1.380 -2.0103 -2.5332  0.9714
  843SOL     OW12342   2.865   6.204   0.508  0.3419 -0.3175 -0.1701
  843SOL    HW112343   2.949   6.257   0.523 -0.1783  0.3309  0.4783
  843SOL    HW212344   2.807   6.209   0.589 -0.0630 -1.2505 -0.3953
  844SOL     OW12345   3.836   2.153   0.732 -0.7355 -0.0147 -0.2325
  844SOL    HW112346   3.809   2.184   0.641  0.1182 -0.2988 -0.5886
  844SOL    HW212347   3.774   2.192   0.801  0.0849  2.1798 -0.7037
  845SOL     OW12348   3.085   2.031   0.026 -0.4596 -0.0055  0.5622
  845SOL    HW112349   3.061   2.117  -0.019 -1.7324 -0.6726 -0.0615
  845SOL    HW212350   3.002   1.978   0.043  0.3162 -1.1259  0.9058
  846SOL     OW12351   3.114   1.599   1.218  0.1529 -0.2187  0.5951
  846SOL    HW112352   3.097   1.698   1.219  0.2131 -0.1370 -1.8612
  846SOL    HW212353   3.125   1.566   1.311  1.9681  2.4304  1.3806
  847SOL     OW12354   2.595   6.756   0.235 -0.4030 -0.1457 -0.2594
  847SOL    HW112355   2.578   6.736   0.139 -0.0299 -2.2865  0.0930
  847SOL    HW212356   2.678   6.708   0.265 -0.9231 -0.0905  1.3044
  848SOL     OW12357   3.548   0.798   1.823  0.0428 -0.5382 -0.2183
  848SOL    HW112358   3.606   0.849   1.759 -1.8096  0.1495 -1.3599
  848SOL    HW212359   3.478   0.859   1.860  0.1368 -1.3277  1.2968
  849SOL     OW12360   3.506   3.455   1.957 -0.1642  0.4654  0.3190
  849SOL    HW112361   3.445   3.532   1.937 -0.3306  0.1086 -0.5840
  849SOL    HW212362   3.504   3.390   1.880  2.2437  1.0238 -0.2555
  850SOL     OW12363   3.149   8.277   1.836 -0.2030  0.0338  0.0646
  850SOL    HW112364   3.209   8.256   1.913  0.3416  1.1888 -0.0424
  850SOL    HW212365   3.159   8.373   1.811 -2.0990  0.2501  0.0587
  851SOL     OW12366   3.617   8.940   0.057 -0.3903  0.1398 -0.1192
  851SOL    HW112367   3.687   9.005   0.087  0.1915 -0.1751 -0.7952
  851SOL    HW212368   3.529   8.987   0.052 -0.1517  0.6426  0.3149
  852SOL     OW12369   2.984   4.574   2.518 -0.1959 -0.0007  0.0595
  852SOL    HW112370   3.048   4.498   2.531 -1.0207 -0.5468  0.9734
  852SOL    HW212371   2.978   4.596   2.420 -0.0496 -1.1865 -0.2249
  853SOL     OW12372   3.591   1.029   2.165  0.2970 -0.0621  0.0036
  853SOL    HW112373   3.654   1.092   2.119 -1.7835  2.1869  0.1293
  853SOL    HW212374   3.613   1.025   2.262  0.9087 -0.0934 -0.1369
  854SOL     OW12375   3.068   9.391   2.476  0.1747 -0.1214 -0.1437
  854SOL    HW112376   3.075   9.292   2.459 -1.3429 -0.5729  1.6457
  854SOL    HW212377   3.069   9.440   2.389 -2.3178 -1.9695 -1.2947
  855SOL     OW12378   4.199   4.516   2.119  0.1356  0.8579  0.6771
  855SOL    HW112379   4.139   4.457   2.173  0.3395  3.1310  3.4760
  855SOL    HW212380   4.152   4.601   2.097  1.5640  1.7306  0.9415
  856SOL     OW12381   3.440   4.465   0.258 -0.0453  0.0381  0.5117
  856SOL    HW112382   3.537   4.447   0.242 -0.2499 -0.5536 -0.0659
  856SOL    HW212383   3.424   4.564   0.251  0.5237  0.1484  0.6745
  857SOL     OW12384   3.606   1.286   1.667  0.1834 -0.3889 -0.4912
  857SOL    HW112385   3.697   1.251   1.687  0.6675 -0.1480 -2.2086
  857SOL    HW212386   3.600   1.312   1.571 -1.2833  0.8845 -0.0823
  858SOL     OW12387   2.660   9.734   1.400  0.0145  0.4562 -0.0868
  858SOL    HW112388   2.600   9.660   1.430  1.1576 -0.7883 -0.8212
  858SOL    HW212389   2.718   9.763   1.476  0.6183 -0.4475 -0.1946
  859SOL     OW12390   3.963   8.380   0.625  0.6565  0.1118  0.3253
  859SOL    HW112391   4.027   8.408   0.696 -1.4817 -1.1379  2.8507
  859SOL    HW212392   3.884   8.441   0.625 -0.6887 -1.5770  1.0085
  860SOL     OW12393   3.873   3.751   0.772 -0.0334  0.0912  0.5096
  860SOL    HW112394   3.928   3.824   0.732  0.3658 -0.3858  0.1707
  860SOL    HW212395   3.776   3.772   0.762  0.0564 -0.0335 -0.7544
  861SOL     OW12396   2.469   8.903   1.807 -0.5414 -0.0887  0.5394
  861SOL    HW112397   2.510   8.993   1.823  0.2947 -0.4331  0.3385
  861SOL    HW212398   2.381   8.898   1.853  0.1677  0.2350  1.9602
  862SOL     OW12399   2.548   6.561  -0.034 -0.0844 -0.2509 -0.5417
  862SOL    HW112400   2.623   6.532   0.026 -0.4016 -1.9751 -0.9612
  862SOL    HW212401   2.554   6.512  -0.121 -1.4098 -0.0262 -0.7638
  863SOL     OW12402   2.546   6.905   1.312 -0.3653 -0.2515 -0.2126
  863SOL    HW112403   2.498   6.831   1.358 -0.6457  0.6041  0.8895
  863SOL    HW212404   2.537   6.989   1.366 -0.5683  0.7283 -1.7573
  864SOL     OW12405   3.858   8.995   2.250  0.5167  0.5425 -0.0467
  864SOL    HW112406   3.856   8.941   2.166  0.9498  0.3199  0.0829
  864SOL    HW212407   3.777   8.975   2.305  1.2142 -0.8338  0.5306
  865SOL     OW12408   2.492   4.529   0.150 -0.1528  1.0705 -0.4157
  865SOL    HW112409   2.427   4.461   0.115  0.4799  0.3127 -0.1205
  865SOL    HW212410   2.580   4.519   0.103 -0.3313  2.3025 -1.0393
  866SOL     OW12411   3.491   1.828   1.869 -0.2449  0.2301  0.0645
  866SOL    HW112412   3.511   1.763   1.795  1.1544 -0.6191  1.1674
  866SOL    HW212413   3.555   1.814   1.944 -0.1292  2.6774  0.4693
  867SOL     OW12414   3.098   2.572   0.521  0.3682  0.4537 -0.2933
  867SOL    HW112415   3.046   2.646   0.477  0.3583  0.9528  0.5377
  867SOL    HW212416   3.142   2.516   0.451 -1.2257  0.0610 -1.0273
  868SOL     OW12417   2.625   4.864   0.046 -0.4867  0.5808 -0.7546
  868SOL    HW112418   2.694   4.926   0.083  1.3043 -1.5291 -0.4368
  868SOL    HW212419   2.660   4.820  -0.036 -0.3457 -2.5211  0.8877
  869SOL     OW12420   1.873   7.001   0.290 -0.0609 -0.6096 -0.3453
  869SOL    HW112421   1.885   7.083   0.345 -0.6499 -0.0000 -1.1155
  869SOL    HW212422   1.922   7.012   0.203 -0.0397 -1.1193 -0.3994
  870SOL     OW12423   3.196   3.012  -0.089 -0.3008 -0.2895  0.3167
  870SOL    HW112424   3.173   3.023  -0.185 -0.0673  0.8209  0.3817
  870SOL    HW212425   3.177   3.097  -0.040 -0.2540 -0.7935  1.2159
  871SOL     OW12426   3.364   8.372   1.085 -0.0667  0.2483 -0.1382
  871SOL    HW112427   3.427   8.409   1.017  0.3891  0.9510  0.6578
  871SOL    HW212428   3.358   8.435   1.163 -1.1222 -0.2034  0.1588
  872SOL     OW12429   2.834   5.745   1.663 -0.0572 -0.0422  0.0951
  872SOL    HW112430   2.855   5.691   1.582 -1.6647 -0.3814 -0.1181
  872SOL    HW212431   2.744   5.786   1.653 -0.1920  0.0794  1.6285
  873SOL     OW12432   4.876   3.809   0.570  0.1314  0.3005 -0.2591
  873SOL    HW112433   4.962   3.761   0.586  0.6731  0.8136 -1.6051
  873SOL    HW212434   4.873   3.891   0.627  0.3601  0.0699  0.0845
  874SOL     OW12435   2.726   5.472   2.043 -0.3503  0.3615  0.1032
  874SOL    HW112436   2.658   5.409   2.007  0.4343  1.2172 -3.0263
  874SOL    HW212437   2.817   5.431   2.036 -0.2815 -0.0065  2.4935
  875SOL     OW12438   3.514   5.946   0.417  0.1899  0.4444  0.4034
  875SOL    HW112439   3.534   5.879   0.489 -0.3855 -0.3359 -0.1619
  875SOL    HW212440   3.432   5.997   0.442 -0.5335 -0.4554 -0.1399
  876SOL     OW12441   3.233   6.045   0.477 -0.1062  0.0939  0.5129
  876SOL    HW112442   3.200   6.095   0.557 -0.4303 -1.0234  1.0763
  876SOL    HW212443   3.162   5.983   0.444  0.2851  0.0188 -0.2067
  877SOL     OW12444   3.332   8.230   0.351 -0.1257  0.4578  0.2663
  877SOL    HW112445   3.415   8.217   0.297  0.0137  0.1242  0.5641
  877SOL    HW212446   3.274   8.148   0.343 -1.5601  1.6072 -1.9144
  878SOL     OW12447   3.980   5.072   0.353  0.2512  0.2687  0.0010
  878SOL    HW112448   3.970   5.008   0.429 -2.3963  0.6988  0.0676
  878SOL    HW212449   4.030   5.153   0.384  1.1664 -0.5344  0.6588
  879SOL     OW12450   3.137   8.851   1.751  0.0284  0.3146 -0.4434
  879SOL    HW112451   3.049   8.898   1.754 -0.8544 -1.3244 -0.1395
  879SOL    HW212452   3.150   8.798   1.835  0.7308 -0.4773 -1.0387
  880SOL     OW12453   3.390   0.399   1.886  0.4419 -0.7941 -0.4142
  880SOL    HW112454   3.345   0.376   1.800 -1.8782 -1.4333  0.9383
  880SOL    HW212455   3.426   0.316   1.928  0.1793 -0.7061 -0.0099
  881SOL     OW12456   2.842   8.518   2.054  0.1913 -0.0834 -0.1288
  881SOL    HW112457   2.866   8.605   2.012 -1.1689 -0.3263 -1.4577
  881SOL    HW212458   2.761   8.529   2.111  0.8973 -0.1687  0.9037
  882SOL     OW12459   2.650   9.482   1.933 -0.2635 -0.0236 -0.2114
  882SOL    HW112460   2.726   9.511   1.874  0.3930 -0.6273  0.3225
  882SOL    HW212461   2.686   9.457   2.023 -1.3363  1.3818  0.6102
  883SOL     OW12462   2.994   7.355   0.578  0.2141  0.3790 -0.4572
  883SOL    HW112463   3.088   7.361   0.545  0.8463 -1.1773  1.0104
  883SOL    HW212464   2.977   7.428   0.645  1.0615 -0.6568  0.9049
  884SOL     OW12465   3.490   9.534   1.803 -0.8375 -0.4934  0.8014
  884SOL    HW112466   3.506   9.584   1.888 -1.0759  0.5833  0.2265
  884SOL    HW212467   3.425   9.586   1.746 -1.0780 -1.4579  0.1919
  885SOL     OW12468   2.806   4.579   0.876  0.0844 -0.0782  0.3826
  885SOL    HW112469   2.803   4.657   0.814 -1.0731  0.4809  1.1308
  885SOL    HW212470   2.716   4.533   0.876  0.0920 -0.1132  1.5867
  886SOL     OW12471   2.419   9.939   0.477  0.0166  0.2891  0.3768
  886SOL    HW112472   2.360   9.976   0.548  0.6922 -0.5470  1.3809
  886SOL    HW212473   2.410   9.839   0.474  4.6530 -0.4009  3.6197
  887SOL     OW12474   2.603   4.274   2.194  0.6883 -0.7723 -0.0539
  887SOL    HW112475   2.701   4.258   2.210  1.0266  0.4615 -0.7753
  887SOL    HW212476   2.584   4.268   2.096 -0.5311 -3.9071  0.3350
  888SOL     OW12477   2.915   6.002   2.590  0.0555 -0.5289 -0.0412
  888SOL    HW112478   2.997   5.980   2.538  1.2947  0.7438  1.3427
  888SOL    HW212479   2.866   6.078   2.546 -0.0995 -0.9270 -0.5616
  889SOL     OW12480   2.862   9.323   0.555  0.4278  0.3303 -0.6311
  889SOL    HW112481   2.852   9.302   0.652 -2.1932  2.6333 -0.3318
  889SOL    HW212482   2.892   9.418   0.544 -0.6892  0.5382 -2.0803
  890SOL     OW12483   3.561   0.744   2.174 -0.1324  0.7824 -0.1213
  890SOL    HW112484   3.581   0.841   2.158  0.0705  1.0971  1.9088
  890SOL    HW212485   3.468   0.734   2.209 -0.4440  0.1529 -1.1118
  891SOL     OW12486   4.079   5.734   0.757  0.0645  0.2570 -0.3236
  891SOL    HW112487   4.164   5.770   0.795  1.0777 -0.8573 -1.4744
  891SOL    HW212488   4.040   5.801   0.692 -0.3266  1.0643  0.7279
  892SOL     OW12489   2.903   1.450   2.539 -0.2078 -0.0380  0.6850
  892SOL    HW112490   2.898   1.487   2.447  0.7575 -1.4201  0.0493
  892SOL    HW212491   2.853   1.363   2.543 -0.6533  0.2510  1.5897
  893SOL     OW12492   2.656   4.679   0.577 -0.1385 -0.0542  0.3061
  893SOL    HW112493   2.749   4.644   0.570 -0.6163 -1.3601  0.3078
  893SOL    HW212494   2.621   4.701   0.486 -0.6153 -1.6769  0.0920
  894SOL     OW12495   2.836   8.143  -0.011  0.4229 -0.0509  0.5246
  894SOL    HW112496   2.774   8.221  -0.001  2.7452  2.0407 -0.6009
  894SOL    HW212497   2.794   8.074  -0.070 -0.4484  1.7968 -1.0943
  895SOL     OW12498   3.539   8.575   0.354 -0.1266 -0.5718 -0.2478
  895SOL    HW112499   3.501   8.661   0.321 -0.9704 -1.2614 -1.1169
  895SOL    HW212500   3.471   8.526   0.409  0.3112 -0.7248  0.1619
  896SOL     OW12501   2.903   5.170  -0.068  0.3074  0.2024 -0.1405
  896SOL    HW112502   2.838   5.220  -0.125 -2.0360 -2.4064  0.1418
  896SOL    HW212503   2.857   5.140   0.016  1.8353 -1.7433  0.0254
  897SOL     OW12504   2.513   4.652   1.491  0.9841  0.5533  0.1527
  897SOL    HW112505   2.478   4.658   1.398  1.7885  0.5660 -0.1535
  897SOL    HW212506   2.467   4.579   1.540  0.4329  0.6629 -0.1984
  898SOL     OW12507   2.467   9.470   0.642 -0.4072  0.8526 -0.6232
  898SOL    HW112508   2.465   9.463   0.741 -1.0688 -0.1724 -0.6961
  898SOL    HW212509   2.461   9.378   0.602 -0.7703  1.2963 -1.6082
  899SOL     OW12510   3.439   3.502   2.319 -0.3013 -0.4954  0.2255
  899SOL    HW112511   3.452   3.418   2.267 -0.2700 -0.3955  0.0690
  899SOL    HW212512   3.400   3.572   2.259  0.3948 -0.1622  0.1499
  900SOL     OW12513   2.577   0.504   2.064 -0.0480 -0.2905  0.1912
  900SOL    HW112514   2.633   0.522   2.145 -0.0231 -0.0872  0.1291
  900SOL    HW212515   2.623   0.540   1.983  0.5692 -1.6915 -0.0913
  901SOL     OW12516   3.538   3.695   1.084  0.4687 -0.2807 -0.2705
  901SOL    HW112517   3.536   3.623   1.153  1.4247 -0.5400 -0.4907
  901SOL    HW212518   3.631   3.703   1.048  0.4353  1.2830 -0.0299
  902SOL     OW12519   3.125   8.542   1.718 -0.1435  0.0958  0.0763
  902SOL    HW112520   3.031   8.556   1.687 -0.0837  0.1576 -0.0767
  902SOL    HW212521   3.143   8.599   1.799 -0.1832  0.2189 -0.0008
  903SOL     OW12522   3.267   0.220   1.370 -0.4492  0.1792  0.3074
  903SOL    HW112523   3.348   0.278   1.372 -0.3089 -0.0444  3.4755
  903SOL    HW212524   3.282   0.145   1.304  2.1510 -0.1696  1.2143
  904SOL     OW12525   3.853   4.085   1.980 -0.3492 -0.1962 -0.5517
  904SOL    HW112526   3.936   4.036   1.954  0.0487 -0.5505  1.3203
  904SOL    HW212527   3.877   4.166   2.033 -1.2180 -0.7266  0.6884
  905SOL     OW12528   3.641   2.805   2.594  0.1597 -0.6545  1.2506
  905SOL    HW112529   3.562   2.825   2.651  0.5507  0.8094  1.3000
  905SOL    HW212530   3.713   2.872   2.611  0.6915 -0.8297 -0.1754
  906SOL     OW12531   2.353   0.572   0.432  0.4978 -0.0919 -0.3313
  906SOL    HW112532   2.333   0.494   0.491  0.2729  0.7209  0.6761
  906SOL    HW212533   2.350   0.542   0.336 -3.2425 -0.5464 -0.1593
  907SOL     OW12534   2.360   6.290   1.989 -0.0273 -0.3291  0.3235
  907SOL    HW112535   2.380   6.201   2.032  2.5538 -0.7847 -1.7022
  907SOL    HW212536   2.326   6.274   1.896 -2.3513  0.7579  0.9519
  908SOL     OW12537   2.443   9.498   0.918  0.0813 -0.6736  0.2006
  908SOL    HW112538   2.454   9.563   0.993 -1.1863  0.2268 -0.3880
  908SOL    HW212539   2.404   9.413   0.954 -1.7017  0.1981  0.3612
  909SOL     OW12540   2.587   1.478   1.491 -0.3110 -0.0538  0.0442
  909SOL    HW112541   2.563   1.568   1.456 -0.6877 -0.6959 -1.3777
  909SOL    HW212542   2.661   1.487   1.558  2.1013  1.0024 -2.6592
  910SOL     OW12543   3.701   3.001   0.811 -0.0483 -0.0453  0.2995
  910SOL    HW112544   3.614   3.032   0.849 -0.8452 -2.8238  0.8947
  910SOL    HW212545   3.728   2.916   0.856  2.9746  0.7605  0.0894
  911SOL     OW12546   4.075   3.985   1.431  0.3969 -0.0691 -0.0101
  911SOL    HW112547   4.004   4.008   1.364  0.5225  0.4796  0.0456
  911SOL    HW212548   4.103   4.067   1.480  0.1252 -0.5126  0.8991
  912SOL     OW12549   3.780   1.173   2.392  0.1049 -0.3671 -0.7919
  912SOL    HW112550   3.820   1.209   2.477 -2.1100 -0.3047  0.2500
  912SOL    HW212551   3.708   1.235   2.361 -0.5158 -1.4812 -1.5754
  913SOL     OW12552   3.485   0.373   1.298 -0.1543  0.3283 -0.0362
  913SOL    HW112553   3.451   0.463   1.269  0.3041  0.2456 -0.8472
  913SOL    HW212554   3.523   0.380   1.390 -3.5423  0.1392  1.4367
  914SOL     OW12555   3.393   7.614   0.031  0.0147 -0.2404 -0.2877
  914SOL    HW112556   3.326   7.566   0.088  0.3293 -0.7262 -0.3247
  914SOL    HW212557   3.484   7.606   0.073  0.2086 -0.4095 -0.7370
  915SOL     OW12558   2.811   2.757  -0.082  0.0335 -0.0187 -0.3163
  915SOL    HW112559   2.851   2.810  -0.007 -1.1781 -1.2245  1.2222
  915SOL    HW212560   2.877   2.749  -0.157  1.0253  1.7582  0.3440
  916SOL     OW12561   4.139   2.179   2.017  0.2403  0.0376  0.0584
  916SOL    HW112562   4.134   2.262   2.071 -0.6052 -0.5711  0.9460
  916SOL    HW212563   4.169   2.103   2.075 -0.3301 -0.5456 -0.3978
  917SOL     OW12564   2.897   4.043   0.488 -0.0445 -0.3135  0.1864
  917SOL    HW112565   2.849   3.956   0.499 -0.0280 -0.2598  0.7053
  917SOL    HW212566   2.985   4.027   0.443 -0.0736 -0.5564  0.2157
  918SOL     OW12567   2.844   3.392   0.901 -0.1727  0.3503 -0.1285
  918SOL    HW112568   2.779   3.352   0.965 -0.3623  0.3770 -0.3035
  918SOL    HW212569   2.919   3.329   0.885  0.0661  0.4975  0.4132
  919SOL     OW12570   3.316   9.854   0.999 -0.2383 -0.1423 -0.1623
  919SOL    HW112571   3.261   9.772   0.984  2.1090 -1.4369 -1.8890
  919SOL    HW212572   3.334   9.899   0.912  0.5783  0.8405  0.4994
  920SOL     OW12573   3.852   3.610   1.772 -0.0453  0.0265  0.3754
  920SOL    HW112574   3.921   3.632   1.841  0.2527 -2.1498  0.8071
  920SOL    HW212575   3.816   3.518   1.788 -0.8567 -0.0437 -1.6393
  921SOL     OW12576   3.918   4.354   2.075  0.1099 -0.8716  0.1516
  921SOL    HW112577   3.821   4.377   2.080  0.3871  0.4526 -0.3240
  921SOL    HW212578   3.958   4.397   1.994  0.9835 -1.8243  0.0680
  922SOL     OW12579   3.528   5.621   2.235 -0.1506 -0.5086 -0.6735
  922SOL    HW112580   3.455   5.559   2.263 -1.1684  0.3053 -1.5039
  922SOL    HW212581   3.489   5.705   2.197  1.2000  0.4586 -0.0206
  923SOL     OW12582   3.234   9.180   1.153  0.7938  0.0394  0.0317
  923SOL    HW112583   3.257   9.265   1.201  0.3307  0.7530 -0.9988
  923SOL    HW212584   3.297   9.167   1.077 -0.0507  0.2328 -0.7142
  924SOL     OW12585   2.320   9.803   0.145 -0.2334 -0.3850 -0.5616
  924SOL    HW112586   2.290   9.845   0.230 -0.6952  0.2622 -1.0377
  924SOL    HW212587   2.385   9.730   0.165  0.0923  0.1352  0.3157
  925SOL     OW12588   3.145   3.770   0.165 -0.0753  0.0400 -0.1993
  925SOL    HW112589   3.210   3.719   0.222  0.0140 -0.5335 -0.8147
  925SOL    HW212590   3.195   3.827   0.099 -0.1943 -0.0207 -0.3418
  926SOL     OW12591   3.434   7.955   2.388 -0.4623  0.1207  0.2555
  926SOL    HW112592   3.448   8.020   2.464  0.9840  0.8969 -0.6599
  926SOL    HW212593   3.408   7.866   2.425 -0.4817  0.6859  1.6317
  927SOL     OW12594   3.393   2.329   1.912  0.0499 -0.4422  0.1144
  927SOL    HW112595   3.344   2.272   1.979 -0.5302  0.1847  0.2193
  927SOL    HW212596   3.348   2.323   1.823  1.4806 -2.1835 -0.5224
  928SOL     OW12597   2.618   4.308   1.915  0.1891  0.0488 -0.4695
  928SOL    HW112598   2.643   4.303   1.818  3.4643 -0.6434  0.3187
  928SOL    HW212599   2.582   4.398   1.936  1.7594  1.0309 -1.8595
  929SOL     OW12600   2.496   5.600   0.266 -0.2425 -0.5347 -0.1302
  929SOL    HW112601   2.430   5.675   0.262 -0.7015 -0.9204  0.1062
  929SOL    HW212602   2.523   5.575   0.174  1.1737  1.0141 -0.1583
  930SOL     OW12603   3.858   0.659   0.933 -0.2890  0.7627 -0.1891
  930SOL    HW112604   3.785   0.595   0.908 -0.1023  0.6413 -0.4168
  930SOL    HW212605   3.853   0.739   0.874  0.8438 -0.0167 -1.3582
  931SOL     OW12606   3.074   2.996   2.245  0.2159  0.0278 -0.0383
  931SOL    HW112607   3.123   3.072   2.287  0.2088 -0.8163  1.5803
  931SOL    HW212608   3.115   2.973   2.157  1.0055  1.0834  0.0494
  932SOL     OW12609   3.189   3.335   1.511  0.1592 -0.1428 -0.3300
  932SOL    HW112610   3.120   3.270   1.478 -0.7300  0.3961  0.4412
  932SOL    HW212611   3.160   3.371   1.600 -0.0247  2.3243 -1.3730
  933SOL     OW12612   2.461   5.225   1.184 -0.7439  0.2218  0.4555
  933SOL    HW112613   2.560   5.240   1.179 -0.8852  0.4288 -2.3767
  933SOL    HW212614   2.443   5.129   1.204  0.0367 -0.2330 -0.9511
  934SOL     OW12615   3.798   5.283   1.709 -0.3328  0.0994  0.1811
  934SOL    HW112616   3.883   5.328   1.737 -0.6513  0.6054  0.3401
  934SOL    HW212617   3.729   5.295   1.781  0.0151 -1.8909  0.8899
  935SOL     OW12618   4.165   1.606   0.123 -0.2696  0.2342  0.1616
  935SOL    HW112619   4.199   1.586   0.215 -0.2263 -2.4204 -0.3992
  935SOL    HW212620   4.240   1.641   0.067 -0.3065  1.9005  1.1307
  936SOL     OW12621   3.444   1.742   1.242 -0.3159  0.3164  0.7518
  936SOL    HW112622   3.349   1.713   1.229  0.1719 -0.4633 -1.2921
  936SOL    HW212623   3.457   1.834   1.205 -0.0163 -0.0397 -0.0429
  937SOL     OW12624   1.984  10.039   2.387  0.0477  0.5516  0.2025
  937SOL    HW112625   2.054  10.110   2.376  0.2514  0.4408  0.7948
  937SOL    HW212626   1.901  10.080   2.424  0.0625  0.5345  0.2537
  938SOL     OW12627   4.435   2.437  -0.080 -0.1980 -0.1340  0.2193
  938SOL    HW112628   4.366   2.500  -0.115  0.5153  1.2345  1.2112
  938SOL    HW212629   4.494   2.406  -0.155  0.0617  1.1709 -0.1311
  939SOL     OW12630   4.651   2.998   2.391  0.2483  0.5774 -0.0984
  939SOL    HW112631   4.649   2.899   2.398  0.7181  0.6760  1.6086
  939SOL    HW212632   4.558   3.033   2.381 -0.0201  0.0574  0.6114
  940SOL     OW12633   3.132   6.850   0.649  0.3674  0.1364 -0.3599
  940SOL    HW112634   3.090   6.880   0.735 -1.7731  1.5515 -1.8527
  940SOL    HW212635   3.203   6.916   0.623 -1.3595  1.6377 -1.4087
  941SOL     OW12636   3.980   1.364   2.179 -0.2180 -0.0983 -0.4256
  941SOL    HW112637   3.917   1.304   2.229  0.9380 -1.4701 -0.5804
  941SOL    HW212638   4.017   1.314   2.101 -1.1117  1.6435 -2.0037
  942SOL     OW12639   2.590   6.823   1.864  0.0377  0.2689  0.3293
  942SOL    HW112640   2.627   6.881   1.936 -0.2790  2.0399 -0.8782
  942SOL    HW212641   2.502   6.861   1.833  0.7102  0.2183 -1.7431
  943SOL     OW12642   3.235   3.930   2.131  0.0211 -0.1056  0.2060
  943SOL    HW112643   3.236   3.978   2.219  1.5089 -0.4243  0.3821
  943SOL    HW212644   3.142   3.927   2.095 -0.3741  1.2929  1.0820
  944SOL     OW12645   3.310   5.953   2.296 -0.4521  0.2782  0.6215
  944SOL    HW112646   3.259   5.954   2.382  0.6860  1.0812  1.2992
  944SOL    HW212647   3.314   6.045   2.259  0.4753  0.2104  0.5513
  945SOL     OW12648   2.813   8.672   0.855 -0.5110 -1.3489 -0.0133
  945SOL    HW112649   2.780   8.624   0.937 -1.6129 -2.0811 -0.8752
  945SOL    HW212650   2.863   8.608   0.797  1.7459 -0.4371  0.8759
  946SOL     OW12651   3.689   3.823   1.723 -0.3819 -0.1124 -0.3831
  946SOL    HW112652   3.745   3.741   1.729  0.3474  0.4923  1.6222
  946SOL    HW212653   3.729   3.886   1.657  1.2517  0.2473  0.9193
  947SOL     OW12654   2.739   8.274   1.394 -0.1024  0.5039  0.4108
  947SOL    HW112655   2.702   8.307   1.481  0.5597 -0.2315  0.9813
  947SOL    HW212656   2.826   8.321   1.375 -0.2521  0.6715  0.1464
  948SOL     OW12657   2.678   3.128   1.519 -0.6285 -0.0116  0.2287
  948SOL    HW112658   2.625   3.185   1.457  2.5009  2.0119 -0.7294
  948SOL    HW212659   2.685   3.174   1.608  0.1020  0.0984  0.1188
  949SOL     OW12660   3.852   1.233   1.773 -0.0621 -0.0909  0.0007
  949SOL    HW112661   3.946   1.218   1.744 -0.3143 -0.6319 -0.5270
  949SOL    HW212662   3.847   1.318   1.826  0.3931  0.9314 -1.5602
  950SOL     OW12663   2.610   2.766   0.702  0.0479  0.1275 -0.0929
  950SOL    HW112664   2.670   2.752   0.780 -0.4060 -1.5589 -0.0217
  950SOL    HW212665   2.516   2.741   0.728 -0.1844  0.0330 -1.0180
  951SOL     OW12666   3.577   4.886   1.091 -0.5335 -0.5506  0.0149
  951SOL    HW112667   3.650   4.917   1.153  2.1535 -2.5887 -1.9929
  951SOL    HW212668   3.541   4.964   1.040  0.8716  0.3689  0.3947
  952SOL     OW12669   2.922   6.706   1.260  0.5769  0.0844 -0.0596
  952SOL    HW112670   2.834   6.704   1.308  1.1569  0.9326  1.0558
  952SOL    HW212671   2.992   6.744   1.320  1.5828 -0.0025 -1.1588
  953SOL     OW12672   2.749   6.479   0.119 -0.0769  0.2655  0.0076
  953SOL    HW112673   2.770   6.391   0.161 -2.3015 -0.5740 -0.5508
  953SOL    HW212674   2.788   6.553   0.175  1.1849 -1.0202  0.8675
  954SOL     OW12675   2.597   6.985   0.416  0.3445 -0.4402 -0.0754
  954SOL    HW112676   2.628   6.912   0.355 -1.2869  0.3687 -1.9493
  954SOL    HW212677   2.626   6.966   0.509  1.7447 -2.4052 -0.8890
  955SOL     OW12678   4.412   4.256   0.448 -0.4281 -0.0103  0.7018
  955SOL    HW112679   4.494   4.313   0.462 -0.0492 -0.5506  0.7003
  955SOL    HW212680   4.332   4.315   0.438  0.1457  0.5667 -0.5591
  956SOL     OW12681   2.492   8.292   0.693 -0.4563  0.1572  1.1263
  956SOL    HW112682   2.553   8.213   0.701  0.3767  0.6620 -0.0712
  956SOL    HW212683   2.422   8.273   0.625  0.1369  0.6835  0.3580
  957SOL     OW12684   2.655   7.475   2.069 -0.6382 -1.0248  0.1127
  957SOL    HW112685   2.625   7.434   2.156 -0.8609 -0.1849  0.4385
  957SOL    HW212686   2.737   7.530   2.085 -2.0120  1.0557  0.2703
  958SOL     OW12687   3.704   4.267   0.632  0.2622 -0.0560  0.8293
  958SOL    HW112688   3.605   4.266   0.645  0.2858  1.9173  1.3245
  958SOL    HW212689   3.734   4.177   0.599 -1.8277 -0.3252 -0.4572
  959SOL     OW12690   3.188   1.797   2.169 -0.3931 -0.5170  0.3993
  959SOL    HW112691   3.193   1.875   2.232  0.8163  1.0638 -1.6066
  959SOL    HW212692   3.255   1.728   2.197 -0.8492 -0.4740  1.6568
  960SOL     OW12693   3.096   2.936   0.629 -0.5530  0.7197  0.4166
  960SOL    HW112694   3.066   2.936   0.534  1.6813  1.2923 -0.3120
  960SOL    HW212695   3.095   3.029   0.664  0.0234  0.6954  0.4987
  961SOL     OW12696   3.633   0.724   0.713 -0.7489  0.3659  0.4081
  961SOL    HW112697   3.598   0.631   0.724 -1.3464  0.4732 -0.4909
  961SOL    HW212698   3.578   0.772   0.645 -1.3831  1.8642  1.9538
  962SOL     OW12699   2.396   9.392  -0.014  0.1556  0.3167 -0.6932
  962SOL    HW112700   2.347   9.312   0.021 -0.0818  1.0707  0.7402
  962SOL    HW212701   2.439   9.370  -0.101  0.7165 -1.6079  0.0523
  963SOL     OW12702   2.905   5.943   0.137 -0.1210  0.4167 -0.2173
  963SOL    HW112703   2.923   5.965   0.041  0.9732  0.6677  0.0387
  963SOL    HW212704   2.843   5.864   0.143 -1.3247  1.2811 -1.1282
  964SOL     OW12705   2.963   1.155   1.256  0.3821  0.0306  0.2248
  964SOL    HW112706   3.061   1.157   1.275  0.5011 -1.7289 -0.0724
  964SOL    HW212707   2.914   1.127   1.339  0.1336  0.8500  0.3559
  965SOL     OW12708   2.707   7.912   0.316  0.3576 -0.3275 -0.2488
  965SOL    HW112709   2.631   7.917   0.251  0.8482  0.4621 -0.7649
  965SOL    HW212710   2.693   7.834   0.377  1.0583 -2.4987 -2.7751
  966SOL     OW12711   2.790   3.647   0.824  0.1554 -0.4165  0.2265
  966SOL    HW112712   2.804   3.550   0.842 -2.0017 -0.5387  1.3782
  966SOL    HW212713   2.766   3.694   0.909 -0.2523  0.8533 -0.5738
  967SOL     OW12714   2.533   8.920   2.591  0.1927 -0.3726 -0.0880
  967SOL    HW112715   2.507   8.980   2.666 -1.0656 -1.6135  0.5164
  967SOL    HW212716   2.489   8.951   2.507  0.5743  0.2789 -0.0508
  968SOL     OW12717   4.119   2.448   0.736 -0.2237  0.1242  0.2483
  968SOL    HW112718   4.204   2.429   0.688 -1.3096 -0.6124 -1.4547
  968SOL    HW212719   4.107   2.384   0.811 -0.5176 -1.4756 -1.1408
  969SOL     OW12720   2.843   9.688   1.190 -0.4070 -0.3082  0.3924
  969SOL    HW112721   2.764   9.681   1.250  0.4664 -0.3532  1.5434
  969SOL    HW212722   2.918   9.633   1.226 -0.3698 -1.6040 -1.5533
  970SOL     OW12723   3.136   9.299   1.939 -0.3138  0.5104 -0.7948
  970SOL    HW112724   3.158   9.217   1.886  1.2749  0.8785 -0.7314
  970SOL    HW212725   3.212   9.320   2.001 -1.0017  1.6295 -0.3145
  971SOL     OW12726   2.771   3.364   2.234 -0.5679  0.2206  0.3603
  971SOL    HW112727   2.819   3.398   2.315  0.2194  0.9055 -0.3882
  971SOL    HW212728   2.801   3.271   2.214  1.1856  0.9820 -0.6597
  972SOL     OW12729   3.305   8.761   0.798 -0.0050  0.3439  0.3271
  972SOL    HW112730   3.276   8.844   0.844  1.8034  1.6795 -0.8499
  972SOL    HW212731   3.325   8.781   0.702 -2.9108 -2.2084 -0.9043
  973SOL     OW12732   3.874   1.850   1.290  0.5077 -0.3937 -0.0995
  973SOL    HW112733   3.901   1.755   1.278  1.6259 -0.1847  0.7056
  973SOL    HW212734   3.851   1.867   1.386 -3.5229 -0.8034 -0.8924
  974SOL     OW12735   3.228   4.317   0.610 -0.4267 -0.2282  0.1201
  974SOL    HW112736   3.179   4.240   0.568 -2.2545 -0.7525  3.0542
  974SOL    HW212737   3.162   4.376   0.657  1.3525  1.2548  0.7893
  975SOL     OW12738   2.668   5.480   1.623 -0.1210  0.0568 -0.6453
  975SOL    HW112739   2.637   5.575   1.620 -0.0390  0.0328 -2.9077
  975SOL    HW212740   2.598   5.421   1.584  0.8282 -0.5193 -1.4908
  976SOL     OW12741   2.891   4.328   0.107  0.1982  0.0473 -0.4849
  976SOL    HW112742   2.819   4.395   0.092 -1.1596 -1.4856 -1.0425
  976SOL    HW212743   2.978   4.374   0.127 -0.5099  1.9507 -1.7470
  977SOL     OW12744   3.848   3.632   0.113  0.1149  0.3201  0.3075
  977SOL    HW112745   3.766   3.606   0.063  0.9904  1.1707 -1.6270
  977SOL    HW212746   3.909   3.552   0.121 -0.6173 -0.1602  1.2375
  978SOL     OW12747   3.253   7.369   0.439  0.2840 -0.4949  0.8011
  978SOL    HW112748   3.247   7.269   0.450 -1.6679 -0.4327  0.4581
  978SOL    HW212749   3.260   7.391   0.342  0.0915 -0.2676  0.8404
  979SOL     OW12750   2.529   8.672   2.402 -0.2970  0.5228  0.2088
  979SOL    HW112751   2.489   8.737   2.338  0.1053  1.5670  1.0122
  979SOL    HW212752   2.520   8.706   2.496  1.4780  0.2753  0.5030
  980SOL     OW12753   2.480   1.267   2.074  0.0134  0.2616 -0.5996
  980SOL    HW112754   2.411   1.298   2.138  0.0429 -0.5610 -0.1580
  980SOL    HW212755   2.500   1.170   2.090  1.0173  0.3982 -0.9417
  981SOL     OW12756   2.579   3.358   1.342  0.6352 -0.4962  0.0729
  981SOL    HW112757   2.498   3.409   1.370  1.4380  0.0145  1.5201
  981SOL    HW212758   2.658   3.419   1.337  1.4812 -1.4551  1.2386
  982SOL     OW12759   2.379   0.397   0.172 -0.3347  0.1147  0.7685
  982SOL    HW112760   2.430   0.337   0.111 -2.6704 -0.1588 -0.9997
  982SOL    HW212761   2.285   0.363   0.182 -1.2987  2.6545  0.8835
  983SOL     OW12762   3.291   9.028   1.883 -0.2643  0.2302  0.3788
  983SOL    HW112763   3.251   8.989   1.800 -0.0971  0.0754  0.3716
  983SOL    HW212764   3.258   8.977   1.963 -0.3681  0.3341  0.4019
  984SOL     OW12765   3.023   5.388   0.020  0.3610  0.2260 -0.0672
  984SOL    HW112766   2.979   5.301   0.000 -1.5342  1.3054 -0.7419
  984SOL    HW212767   3.089   5.409  -0.051  1.7585 -1.2568  0.7706
  985SOL     OW12768   4.071   4.952   2.405 -0.2197 -0.2383  0.1870
  985SOL    HW112769   4.117   4.932   2.492 -1.3833  1.1119  1.1503
  985SOL    HW212770   4.074   5.051   2.389 -1.1668 -0.3386 -0.6464
  986SOL     OW12771   3.629   2.040   2.112 -0.1121 -0.3700 -0.3557
  986SOL    HW112772   3.674   1.955   2.086  2.1185  0.2877  1.2197
  986SOL    HW212773   3.551   2.020   2.172  0.0808 -1.3108 -0.4192
  987SOL     OW12774   2.348   8.069   1.597  0.4290  0.2955 -0.2592
  987SOL    HW112775   2.427   8.078   1.658 -0.9357 -1.1738  1.7937
  987SOL    HW212776   2.327   8.158   1.557  1.2197  1.3736  1.6194
  988SOL     OW12777   3.138   5.532   1.666 -0.0227 -0.4020  0.0273
  988SOL    HW112778   3.165   5.542   1.571  1.3079 -1.0159  0.3351
  988SOL    HW212779   3.125   5.623   1.706 -0.0102 -0.1311 -0.5814
  989SOL     OW12780   3.367   0.235   2.220  0.0317 -0.3304  0.3335
  989SOL    HW112781   3.394   0.193   2.133 -0.4273  0.8248 -0.3614
  989SOL    HW212782   3.407   0.181   2.296  0.0631 -1.5910 -0.5593
  990SOL     OW12783   3.330   6.241   1.834  0.8136 -0.2690  0.1420
  990SOL    HW112784   3.296   6.327   1.795  0.0037 -1.4513 -1.8496
  990SOL    HW212785   3.263   6.169   1.817  2.4317 -1.7424 -0.0655
  991SOL     OW12786   4.639   2.683   0.243  0.2939 -0.2796  0.1624
  991SOL    HW112787   4.725   2.680   0.192  0.6702  1.0536  0.6966
  991SOL    HW212788   4.623   2.776   0.277 -0.8474 -0.7436  0.9389
  992SOL     OW12789   3.530   1.512  -0.053  0.1549  0.2912 -0.1034
  992SOL    HW112790   3.565   1.479  -0.141  0.2267  2.0547 -0.7466
  992SOL    HW212791   3.439   1.553  -0.066 -0.7176 -1.2225  0.9938
  993SOL     OW12792   4.123   1.503   2.361 -0.2037 -0.7886  0.4458
  993SOL    HW112793   4.063   1.447   2.303  1.3537 -0.0669 -1.9192
  993SOL    HW212794   4.179   1.444   2.418 -1.5280 -1.5163  1.0286
  994SOL     OW12795   2.943   3.740   1.507  0.0426 -0.0162  0.2370
  994SOL    HW112796   2.953   3.839   1.497 -0.1083 -0.0421 -0.2242
  994SOL    HW212797   3.032   3.698   1.523  0.3155  0.0484 -1.0048
  995SOL     OW12798   3.865   1.693   0.671 -0.2054  0.0715 -0.2770
  995SOL    HW112799   3.790   1.758   0.675 -0.2310  0.0123  0.2857
  995SOL    HW212800   3.903   1.680   0.763  0.0110 -0.4546 -0.4374
  996SOL     OW12801   4.750   3.099   0.635  0.1312  0.2106 -0.5784
  996SOL    HW112802   4.795   3.163   0.573 -1.4748  1.6154 -0.3385
  996SOL    HW212803   4.812   3.078   0.711  1.3202  0.1108 -1.5520
  997SOL     OW12804   3.214   2.550   0.785 -0.4716 -0.1318  0.3741
  997SOL    HW112805   3.223   2.454   0.809 -2.3171 -1.0922 -2.5807
  997SOL    HW212806   3.180   2.559   0.691  1.4996  3.4221 -0.0948
  998SOL     OW12807   2.364   8.049   0.600 -0.0491 -0.7054  0.0072
  998SOL    HW112808   2.459   8.036   0.629  0.1097 -0.7494 -0.5325
  998SOL    HW212809   2.303   8.020   0.673  0.3646  2.2367  1.6209
  999SOL     OW12810   3.128   4.910   1.470 -0.0244  0.0365 -0.3462
  999SOL    HW112811   3.144   4.937   1.375  1.2223  0.5946  0.0078
  999SOL    HW212812   3.106   4.992   1.524 -0.3011 -0.2181 -0.0734
 1000SOL     OW12813   3.888   3.863   0.242 -0.6522 -0.4380 -0.4499
 1000SOL    HW112814   3.870   3.783   0.185 -1.5151 -0.0330 -0.7569
 1000SOL    HW212815   3.851   3.945   0.198  2.3751  0.5315 -1.3391
 1001SOL     OW12816   3.444   0.473   0.111  0.1450  0.4433 -0.3855
 1001SOL    HW112817   3.380   0.422   0.169  0.2847  0.1209 -0.5181
 1001SOL    HW212818   3.455   0.426   0.024  0.8375  0.3185 -0.2297
 1002SOL     OW12819   4.533   2.584   2.183 -0.3735  0.0375  0.1731
 1002SOL    HW112820   4.484   2.667   2.157  0.7687  1.1430  1.5147
 1002SOL    HW212821   4.615   2.574   2.127 -0.1827  0.1412  0.4339
 1003SOL     OW12822   2.794   1.306   2.212 -0.2922 -0.1924 -0.2343
 1003SOL    HW112823   2.760   1.398   2.192  1.5872  0.3641 -0.9137
 1003SOL    HW212824   2.894   1.306   2.213 -0.2400 -1.5260  3.0609
 1004SOL     OW12825   3.262   3.425   0.038  0.2259  0.0709  0.1975
 1004SOL    HW112826   3.277   3.486   0.115  2.2702 -0.5335  0.2959
 1004SOL    HW212827   3.344   3.422  -0.020 -0.1720 -1.8564 -0.3032
 1005SOL     OW12828   3.221   1.625   0.775  0.2209  0.0443 -0.1252
 1005SOL    HW112829   3.280   1.550   0.746 -0.2706 -0.4306  0.0932
 1005SOL    HW212830   3.220   1.631   0.875  1.2026  1.1104 -0.1596
 1006SOL     OW12831   4.270   2.417   2.182  0.9262  0.1581 -0.4847
 1006SOL    HW112832   4.238   2.374   2.266  2.2352 -0.3586 -0.2444
 1006SOL    HW212833   4.347   2.365   2.145  0.6698  0.6522 -1.7510
 1007SOL     OW12834   4.548   3.249   0.772 -0.3520 -0.1162 -0.2562
 1007SOL    HW112835   4.520   3.330   0.721  0.0574 -0.4879 -1.0861
 1007SOL    HW212836   4.580   3.179   0.708  1.5724 -0.0575  0.6253
 1008SOL     OW12837   3.363  10.033   0.812 -0.3826 -0.0103 -0.2264
 1008SOL    HW112838   3.452  10.020   0.769 -0.6872  2.1960 -1.5687
 1008SOL    HW212839   3.291  10.030   0.743 -1.3391 -1.3649  0.7949
 1009SOL     OW12840   2.531   5.472   0.027  0.2481 -0.0896 -0.0169
 1009SOL    HW112841   2.618   5.438  -0.009  0.1042 -0.1576 -0.3003
 1009SOL    HW212842   2.461   5.401   0.018  0.2103 -0.1088  0.3992
 1010SOL     OW12843   3.449   3.004   0.914 -0.2517  0.4815 -0.7642
 1010SOL    HW112844   3.356   3.026   0.945 -0.1744  0.2585 -0.3736
 1010SOL    HW212845   3.454   2.908   0.890 -0.2620  0.6150 -1.2917
 1011SOL     OW12846   2.334   1.034   1.218 -0.5411  0.3138  0.0230
 1011SOL    HW112847   2.344   1.112   1.157  1.4039  0.5833  0.6581
 1011SOL    HW212848   2.360   0.950   1.170 -0.8076  0.2933 -0.0851
 1012SOL     OW12849   3.811   3.676   1.047 -0.2187  0.2857 -0.2969
 1012SOL    HW112850   3.838   3.710   0.957 -0.1780  1.1393  0.0357
 1012SOL    HW212851   3.893   3.656   1.102 -0.2280  2.1391  0.4342
 1013SOL     OW12852   3.994   0.931   2.178 -0.1001  0.0685  0.5498
 1013SOL    HW112853   3.920   0.875   2.140 -0.2113 -0.7778  2.0010
 1013SOL    HW212854   3.996   0.921   2.277  0.1492  2.3100  0.8010
 1014SOL     OW12855   3.786   9.726   1.036  0.2540 -0.3699 -1.0076
 1014SOL    HW112856   3.881   9.699   1.056 -0.4151 -1.5931  0.6660
 1014SOL    HW212857   3.754   9.789   1.106 -1.1874 -2.4320  0.2447
 1015SOL     OW12858   4.706   2.077   0.283  0.2426 -0.1403  0.5446
 1015SOL    HW112859   4.609   2.056   0.277  0.2956  0.0671 -1.5160
 1015SOL    HW212860   4.721   2.173   0.258  1.0376 -0.3506  0.1833
 1016SOL     OW12861   4.376   3.343   0.328  0.1277 -0.2173 -0.1440
 1016SOL    HW112862   4.342   3.421   0.275  0.9618  1.4885  1.7442
 1016SOL    HW212863   4.475   3.338   0.320  0.2955  0.2585  1.4686
 1017SOL     OW12864   3.763   3.249   1.050 -0.2526  0.0826 -0.2741
 1017SOL    HW112865   3.833   3.264   1.120  1.5579 -1.0977 -1.7840
 1017SOL    HW212866   3.723   3.158   1.063 -0.2485  0.0522 -0.4839
 1018SOL     OW12867   2.863   0.457   0.409 -0.2149  0.3196 -0.1479
 1018SOL    HW112868   2.924   0.534   0.388 -2.6363  1.2376 -4.3718
 1018SOL    HW212869   2.778   0.492   0.449  0.6602 -0.6901  2.7197
 1019SOL     OW12870   3.433   7.555   0.353  0.3923  0.0712  0.2238
 1019SOL    HW112871   3.361   7.617   0.322  0.9121  0.7769  0.3986
 1019SOL    HW212872   3.402   7.505   0.433  0.1103  0.4121  0.3286
 1020SOL     OW12873   3.437   3.197   0.419  0.2865  0.1225 -0.1913
 1020SOL    HW112874   3.475   3.153   0.500 -0.7002  0.5290  0.5032
 1020SOL    HW212875   3.511   3.239   0.367  0.8745  0.3177  0.7806
 1021SOL     OW12876   3.073   5.383   1.278  0.3290  0.5071 -0.3712
 1021SOL    HW112877   3.114   5.358   1.191  0.8660 -0.0008  0.0254
 1021SOL    HW212878   3.121   5.336   1.353 -0.3693  0.6340  0.1662
 1022SOL     OW12879   3.019   7.710   0.135 -0.3435  0.2070 -0.6347
 1022SOL    HW112880   2.930   7.668   0.151  0.1492  0.1924  2.1648
 1022SOL    HW212881   3.011   7.774   0.058 -2.3608 -0.9605 -1.4558
 1023SOL     OW12882   2.613   1.706  -0.092 -0.0891  0.1876  0.3471
 1023SOL    HW112883   2.697   1.753  -0.117 -1.0106  1.7068  0.0580
 1023SOL    HW212884   2.593   1.722   0.004 -0.0829 -0.1251  0.4010
 1024SOL     OW12885   3.152   1.390  -0.100 -0.2334 -0.4207 -0.2186
 1024SOL    HW112886   3.054   1.408  -0.112 -0.0352 -0.1645 -1.6022
 1024SOL    HW212887   3.204   1.462  -0.146  0.6436  1.4587  3.5729
 1025SOL     OW12888   3.365   9.827   1.858 -0.3277 -0.3324 -0.9527
 1025SOL    HW112889   3.273   9.868   1.860 -0.2077  0.0068 -2.1316
 1025SOL    HW212890   3.423   9.878   1.795  0.9497  0.0054  0.4590
 1026SOL     OW12891   3.250   8.730   0.177  0.2313 -0.1093  0.1357
 1026SOL    HW112892   3.224   8.691   0.265  0.2099  0.6067  0.4559
 1026SOL    HW212893   3.253   8.830   0.185 -0.6976  0.0139 -0.9290
 1027SOL     OW12894   3.700   9.848   1.252  0.5049  0.3664 -0.1680
 1027SOL    HW112895   3.716   9.808   1.342  2.1923 -0.5646 -0.8467
 1027SOL    HW212896   3.662   9.940   1.262  2.4931  1.0391  1.5425
 1028SOL     OW12897   2.597   9.866   0.230 -0.5193 -0.2346  0.0318
 1028SOL    HW112898   2.550   9.952   0.209 -0.7366 -0.3292  0.1344
 1028SOL    HW212899   2.669   9.884   0.297  0.3171  0.1107 -0.9345
 1029SOL     OW12900   4.402   3.656   0.131 -0.3114 -0.0721  0.1923
 1029SOL    HW112901   4.354   3.731   0.086  0.3605  0.0827 -0.2788
 1029SOL    HW212902   4.357   3.569   0.108  0.8051 -0.1368 -1.8808
 1030SOL     OW12903   2.524   0.740   1.370  0.2409 -0.4829 -0.1094
 1030SOL    HW112904   2.462   0.709   1.299  1.0012 -1.0313 -0.5503
 1030SOL    HW212905   2.478   0.805   1.430  0.0376  1.1637 -2.0119
 1031SOL     OW12906   2.898   9.346   1.653 -0.3927 -0.3684 -0.0722
 1031SOL    HW112907   2.835   9.408   1.700  0.1725 -0.1268  0.3812
 1031SOL    HW212908   2.849   9.265   1.623 -1.0717  0.1471 -0.3743
 1032SOL     OW12909   4.269   9.265   0.311  0.2655 -0.0726 -0.7032
 1032SOL    HW112910   4.360   9.234   0.340  0.3720 -0.6362 -1.6203
 1032SOL    HW212911   4.245   9.222   0.224 -0.5271  0.7263 -0.8914
 1033SOL     OW12912   3.398  10.174   0.158 -0.2628 -0.4236 -0.1372
 1033SOL    HW112913   3.370  10.101   0.096  0.4087  0.6141 -1.7013
 1033SOL    HW212914   3.319  10.234   0.175 -1.2744 -2.3793  2.4818
 1034SOL     OW12915   2.236   6.814   0.185 -0.3736 -0.1949 -0.3309
 1034SOL    HW112916   2.238   6.814   0.085 -1.4456  0.6912 -0.3593
 1034SOL    HW212917   2.148   6.777   0.216 -0.1698 -0.1723  0.2771
 1035SOL     OW12918   2.740   8.959   1.187  0.7206 -0.1132 -0.0258
 1035SOL    HW112919   2.670   8.937   1.255  0.7787 -1.5373 -0.4094
 1035SOL    HW212920   2.697   8.976   1.099  0.7865 -0.1700 -0.0699
 1036SOL     OW12921   3.943   2.256   1.101 -0.0514  0.6359  0.2539
 1036SOL    HW112922   3.886   2.314   1.043 -1.6934 -0.7248  0.4382
 1036SOL    HW212923   3.938   2.288   1.195  0.6577  1.3964  0.0310
 1037SOL     OW12924   3.294   1.155   2.427  0.0440 -0.1513 -0.8509
 1037SOL    HW112925   3.312   1.068   2.473 -1.3546  0.3640  0.7304
 1037SOL    HW212926   3.292   1.229   2.495 -0.8560  0.8180 -1.9091
 1038SOL     OW12927   2.412   0.843   1.016  0.2243 -0.7829 -0.2296
 1038SOL    HW112928   2.486   0.777   1.026  0.1196 -0.7601  0.8249
 1038SOL    HW212929   2.427   0.900   0.935  0.5764 -1.7641 -0.8517
 1039SOL     OW12930   3.720   9.253   1.612  0.1942 -0.0837 -0.1769
 1039SOL    HW112931   3.650   9.232   1.544 -0.3249  0.3688  0.2107
 1039SOL    HW212932   3.680   9.252   1.703  1.2734 -2.4649  0.3069
 1040SOL     OW12933   3.044   5.752   1.823 -0.2655 -0.6996 -0.4037
 1040SOL    HW112934   2.949   5.760   1.792  0.0131 -1.1290 -1.3955
 1040SOL    HW212935   3.076   5.840   1.858 -1.5665 -0.9651  1.5338
 1041SOL     OW12936   2.884   7.644   2.163  0.2923  0.2061  0.5354
 1041SOL    HW112937   2.928   7.713   2.106  0.6057 -1.0462 -0.7686
 1041SOL    HW212938   2.827   7.688   2.232  2.3702  1.8245  1.2640
 1042SOL     OW12939   2.530   2.410   1.780  0.5861  0.4173 -0.8355
 1042SOL    HW112940   2.488   2.323   1.805  0.2831  0.8172  0.0488
 1042SOL    HW212941   2.519   2.424   1.681  0.3334 -0.3808 -0.9251
 1043SOL     OW12942   2.973   8.033   0.863  0.3552 -0.0792 -0.2238
 1043SOL    HW112943   2.929   7.956   0.910 -0.3999  0.3418 -0.2373
 1043SOL    HW212944   3.072   8.028   0.877  0.4905 -2.0273 -1.6676
 1044SOL     OW12945   4.212   4.852  -0.076 -0.1476 -0.2200 -0.1083
 1044SOL    HW112946   4.180   4.913  -0.004 -0.5577  0.3028 -0.7313
 1044SOL    HW212947   4.310   4.867  -0.091 -0.3747  0.7214 -0.6786
 1045SOL     OW12948   2.851   6.889   2.405 -0.0175 -0.1236  0.3471
 1045SOL    HW112949   2.837   6.907   2.307  0.5784 -0.0749  0.2729
 1045SOL    HW212950   2.762   6.885   2.450 -0.3646 -1.3780 -0.4159
 1046SOL     OW12951   2.396   2.153   1.790  0.5067  0.1734  0.5424
 1046SOL    HW112952   2.427   2.058   1.796 -1.6715 -0.4916  1.5523
 1046SOL    HW212953   2.346   2.177   1.873 -2.2285  1.0226 -1.2830
 1047SOL     OW12954   3.012   2.905   1.521 -0.2398  0.1958  0.4142
 1047SOL    HW112955   3.040   2.817   1.482 -0.7671  0.1654  0.1016
 1047SOL    HW212956   2.933   2.892   1.580 -0.1503  0.4190  0.5848
 1048SOL     OW12957   2.333   6.600   1.192  0.5041  0.2629 -0.1356
 1048SOL    HW112958   2.266   6.596   1.118 -0.1992 -4.2768  0.5681
 1048SOL    HW212959   2.420   6.635   1.158 -0.7768  1.3691 -2.2931
 1049SOL     OW12960   2.611   1.903   1.572 -0.4185  0.3916  0.1619
 1049SOL    HW112961   2.559   1.882   1.655 -1.6309 -2.0961 -1.1585
 1049SOL    HW212962   2.639   1.999   1.573 -2.5877  1.0457  2.2496
 1050SOL     OW12963   3.844   8.852   2.013  0.5801 -0.5764  0.1237
 1050SOL    HW112964   3.768   8.899   1.969  1.0847  0.6329  0.5298
 1050SOL    HW212965   3.907   8.816   1.943 -1.4837 -3.5608 -0.3053
 1051SOL     OW12966   2.970   2.667   1.884  0.4875  0.4267 -0.4892
 1051SOL    HW112967   3.036   2.724   1.933 -0.5634  0.9841  0.2952
 1051SOL    HW212968   2.897   2.638   1.947 -0.7677  0.9913 -1.6579
 1052SOL     OW12969   3.363   9.990   1.226  0.2550  0.1007 -0.0951
 1052SOL    HW112970   3.343   9.939   1.142  0.2525 -0.9588  0.5353
 1052SOL    HW212971   3.455  10.028   1.221  1.3836 -2.3815  0.5560
 1053SOL     OW12972   4.007   3.937   0.623  0.4691  0.0168 -0.3255
 1053SOL    HW112973   4.083   3.899   0.571 -0.0114  1.0520 -1.8136
 1053SOL    HW212974   4.030   4.030   0.653 -0.0608  0.2000 -0.4787
 1054SOL     OW12975   2.297   5.691   1.700  0.1133  0.0844  0.0847
 1054SOL    HW112976   2.326   5.740   1.782 -0.2706 -1.7666  1.3793
 1054SOL    HW212977   2.201   5.712   1.681 -0.1834 -0.4731  0.9062
 1055SOL     OW12978   4.038   1.166   1.997 -0.4267 -0.3535  0.1498
 1055SOL    HW112979   4.106   1.146   1.928 -1.8343 -0.9586 -1.0917
 1055SOL    HW212980   4.033   1.090   2.062 -0.1583 -0.4551  0.0521
 1056SOL     OW12981   3.614   3.101   0.053  0.2889 -0.5687 -0.3901
 1056SOL    HW112982   3.584   3.011   0.086  0.5560 -1.3743 -2.3293
 1056SOL    HW212983   3.701   3.092   0.005  0.8611  0.9095  0.3412
 1057SOL     OW12984   2.399   3.962   2.351 -0.0772  0.7223  0.0184
 1057SOL    HW112985   2.339   4.026   2.303  0.5165  0.3222 -1.2824
 1057SOL    HW212986   2.479   3.942   2.294  0.0531 -0.6848  0.6787
 1058SOL     OW12987   2.334   6.386   1.377 -0.0254  0.2015 -0.5450
 1058SOL    HW112988   2.330   6.454   1.304 -0.1788  0.7639 -0.0229
 1058SOL    HW212989   2.249   6.387   1.429  0.6239  0.8496  0.5479
 1059SOL     OW12990   4.409   2.615   0.541 -0.2595 -0.4576 -0.3211
 1059SOL    HW112991   4.478   2.640   0.474 -1.7795  2.2797 -0.9371
 1059SOL    HW212992   4.411   2.517   0.556  1.1871 -0.9031 -3.1587
 1060SOL     OW12993   2.871   1.907   0.154  0.0107 -0.3530  0.1531
 1060SOL    HW112994   2.859   1.808   0.145  0.3344 -0.4793  0.9932
 1060SOL    HW212995   2.789   1.954   0.124 -1.2548 -1.0184  2.4544
 1061SOL     OW12996   3.643   0.433   1.525  0.2272  0.5384 -0.1301
 1061SOL    HW112997   3.608   0.474   1.610 -1.0262  1.0635 -0.8855
 1061SOL    HW212998   3.743   0.431   1.527  0.1843 -1.4998  2.3458
 1062SOL     OW12999   3.504   7.846   0.814 -0.2956  0.4399 -0.6052
 1062SOL    HW113000   3.524   7.942   0.837 -0.2795  0.0339  1.1635
 1062SOL    HW213001   3.546   7.823   0.726  0.4452  1.8079 -0.6265
 1063SOL     OW13002   2.453   6.055   1.030  0.1152 -0.4347 -0.3115
 1063SOL    HW113003   2.533   6.098   0.990  0.5250 -0.5276  0.3886
 1063SOL    HW213004   2.460   5.956   1.021 -0.1569 -0.4201 -0.6851
 1064SOL     OW13005   2.600   0.228   2.147  0.0575 -0.0587 -0.0335
 1064SOL    HW113006   2.583   0.134   2.176 -1.1914  0.0002 -0.5528
 1064SOL    HW213007   2.532   0.255   2.078 -0.1897  1.5421  0.8075
 1065SOL     OW13008   3.057   9.495   0.811 -0.2490 -0.2464  0.3953
 1065SOL    HW113009   3.041   9.528   0.718  1.4236 -1.1085 -0.2301
 1065SOL    HW213010   3.008   9.409   0.825  0.3925 -0.6933 -0.0768
 1066SOL     OW13011   3.356   4.666   0.749 -0.5280  0.1379  0.6356
 1066SOL    HW113012   3.376   4.611   0.668 -2.1513  3.2553 -1.9575
 1066SOL    HW213013   3.257   4.674   0.760 -0.3611 -1.2779  3.7073
 1067SOL     OW13014   3.430  10.144   1.970 -0.4161 -1.1058 -0.3851
 1067SOL    HW113015   3.346  10.102   1.933  0.2863 -1.8760 -1.1229
 1067SOL    HW213016   3.509  10.105   1.924  0.3621 -0.4785  0.4185
 1068SOL     OW13017   3.942   3.177   1.620  0.0119 -0.4069 -0.0386
 1068SOL    HW113018   3.864   3.157   1.561 -0.8052 -0.1014  0.9147
 1068SOL    HW213019   3.975   3.092   1.661  0.6304 -0.6276 -0.9968
 1069SOL     OW13020   3.398   5.581   1.259  0.2764 -0.9378 -0.7439
 1069SOL    HW113021   3.497   5.563   1.260  0.2136 -1.2488  0.9859
 1069SOL    HW213022   3.382   5.670   1.216  1.5038  0.1703  1.0267
 1070SOL     OW13023   4.603   3.367   1.184  0.0517  0.5936  0.7750
 1070SOL    HW113024   4.606   3.459   1.145 -1.4853 -0.0303 -0.8751
 1070SOL    HW213025   4.527   3.360   1.248  0.7570  0.7285  1.6457
 1071SOL     OW13026   2.550   1.169   0.910 -0.1921  0.2773  0.0169
 1071SOL    HW113027   2.539   1.268   0.903 -0.2865  0.1644 -1.6147
 1071SOL    HW213028   2.629   1.148   0.967  0.7807  1.3303 -0.9234
 1072SOL     OW13029   3.406   2.724   2.391 -0.4979  0.3064  0.1134
 1072SOL    HW113030   3.474   2.790   2.422 -0.3891  1.7647 -3.0153
 1072SOL    HW213031   3.452   2.651   2.340 -0.9513 -0.4987  0.8494
 1073SOL     OW13032   2.576   3.449   1.668 -0.1853  0.1597  0.0695
 1073SOL    HW113033   2.535   3.539   1.653 -1.5321 -0.3135  0.8088
 1073SOL    HW213034   2.576   3.429   1.766  0.2550 -0.5720 -0.0782
 1074SOL     OW13035   2.784   8.236   0.976  0.0810  0.1358 -0.6004
 1074SOL    HW113036   2.809   8.300   0.903  0.1694  0.8282  0.0319
 1074SOL    HW213037   2.841   8.153   0.968  1.0025  0.7525 -0.5324
 1075SOL     OW13038   3.212   0.367   0.241 -0.1425 -0.3477  0.2623
 1075SOL    HW113039   3.162   0.343   0.324 -0.2319 -1.7620 -0.1872
 1075SOL    HW213040   3.178   0.454   0.205 -1.3509 -0.6398  0.6975
 1076SOL     OW13041   3.174   0.855   1.955 -0.1493  0.3091  0.5371
 1076SOL    HW113042   3.112   0.810   1.891 -0.1936  0.2806  0.5995
 1076SOL    HW213043   3.222   0.786   2.009  2.1227  0.1857 -1.5157
 1077SOL     OW13044   2.941   5.209   1.125  0.1557 -0.7631 -0.3911
 1077SOL    HW113045   3.024   5.176   1.081  0.4972  0.3417 -0.6035
 1077SOL    HW213046   2.965   5.265   1.204 -0.3025  1.1818 -1.5915
 1078SOL     OW13047   2.766   0.214   0.145 -0.2097 -1.1258 -0.4450
 1078SOL    HW113048   2.676   0.249   0.120 -0.5662 -0.8826  1.1265
 1078SOL    HW213049   2.790   0.247   0.236  1.7216 -0.7312 -1.0835
 1079SOL     OW13050   3.890   8.709   0.630 -0.2465  0.0254  0.3977
 1079SOL    HW113051   3.900   8.707   0.729  0.5786 -1.1166  0.2974
 1079SOL    HW213052   3.940   8.788   0.593 -1.7044  1.2613  0.9922
 1080SOL     OW13053   3.944   3.184   1.982 -0.0348  0.7882 -0.2737
 1080SOL    HW113054   3.988   3.166   2.071 -1.1318 -2.8440 -0.3760
 1080SOL    HW213055   3.869   3.119   1.969  0.6660  0.6537 -4.2493
 1081SOL     OW13056   3.305   0.655   1.638 -0.1755  0.1398 -0.3114
 1081SOL    HW113057   3.336   0.740   1.680  0.0400 -0.1744  0.1652
 1081SOL    HW213058   3.376   0.585   1.645  0.3041  0.4048 -2.1952
 1082SOL     OW13059   4.077   3.073   2.473 -0.2159 -0.0254 -0.2934
 1082SOL    HW113060   4.036   2.983   2.491  0.9686 -0.6652 -0.7311
 1082SOL    HW213061   4.176   3.064   2.472 -0.1104  1.1688 -1.0738
 1083SOL     OW13062   2.648   9.154   1.856 -0.1641 -0.1841  0.2058
 1083SOL    HW113063   2.737   9.121   1.889  0.3396  0.7031 -0.2516
 1083SOL    HW213064   2.659   9.190   1.763 -1.2162 -1.0520 -0.2674
 1084SOL     OW13065   2.666   3.943   1.485 -0.1040 -0.0303  0.1548
 1084SOL    HW113066   2.574   3.979   1.464  0.2620  1.3456  0.8145
 1084SOL    HW213067   2.735   4.005   1.447  0.5489 -1.2854 -0.6958
 1085SOL     OW13068   3.072  10.040   0.303 -0.0770 -0.3338  0.0610
 1085SOL    HW113069   3.128   9.958   0.310  0.7375 -0.0047 -2.1830
 1085SOL    HW213070   3.044  10.054   0.208 -2.8261  0.2690  0.9090
 1086SOL     OW13071   5.160   2.900   1.056  0.2055 -0.4156  0.5909
 1086SOL    HW113072   5.229   2.960   1.097  1.3164 -1.1117 -0.2331
 1086SOL    HW213073   5.143   2.822   1.116 -1.3621  0.7638  1.7444
 1087SOL     OW13074   2.904  10.062   1.857  0.5042 -0.0062  0.1478
 1087SOL    HW113075   2.904  10.161   1.865  2.1728 -0.0850  1.3479
 1087SOL    HW213076   2.810  10.028   1.859 -0.1482  1.6303 -1.5986
 1088SOL     OW13077   3.348   8.460   0.502  0.1371 -0.6616 -0.3226
 1088SOL    HW113078   3.330   8.448   0.600 -1.2768 -0.1379 -0.5026
 1088SOL    HW213079   3.334   8.374   0.455 -2.7461 -0.1143 -0.5609
 1089SOL     OW13080   4.085   3.997   1.880  0.0948  0.3308 -0.1400
 1089SOL    HW113081   4.118   4.089   1.859 -0.4586  1.0915  2.1808
 1089SOL    HW213082   4.135   3.930   1.824  0.8312  1.9843 -1.5058
 1090SOL     OW13083   3.723   4.472   1.769  0.5441  0.3331 -0.5275
 1090SOL    HW113084   3.657   4.414   1.816  1.5032 -0.8222 -0.5854
 1090SOL    HW213085   3.674   4.533   1.706 -0.5707  0.4649  0.4432
 1091SOL     OW13086   2.457   6.155   1.275 -0.7930 -0.4576  0.1703
 1091SOL    HW113087   2.399   6.234   1.293 -0.5612 -0.1091 -0.5797
 1091SOL    HW213088   2.439   6.120   1.184  0.2242 -0.2959 -0.1025
 1092SOL     OW13089   3.300   3.809   2.556  0.3843 -0.0988  0.1871
 1092SOL    HW113090   3.399   3.795   2.553  0.3000 -0.5166 -0.8264
 1092SOL    HW213091   3.277   3.870   2.632  1.3385 -0.6270  0.9092
 1093SOL     OW13092   2.637   2.099   0.040 -0.0870  0.2426 -0.2406
 1093SOL    HW113093   2.657   2.165   0.113 -0.6249  0.7155 -0.5186
 1093SOL    HW213094   2.592   2.018   0.080  1.2441 -0.2956  0.2098
 1094SOL     OW13095   3.183   2.836   1.992  0.0175  0.1044  0.0728
 1094SOL    HW113096   3.239   2.762   1.954 -0.1024 -0.0410  0.1755
 1094SOL    HW213097   3.242   2.911   2.023  0.1260  0.1506 -0.2440
 1095SOL     OW13098   2.894   8.996   1.821 -0.7469 -0.3395  0.4366
 1095SOL    HW113099   2.909   9.026   1.727  0.1328 -0.9516  0.3750
 1095SOL    HW213100   2.833   8.916   1.821 -0.6623 -0.4042  0.3738
 1096SOL     OW13101   4.181   2.776   0.113 -0.2118  0.2697  0.4081
 1096SOL    HW113102   4.219   2.860   0.074  0.9434 -0.7297 -0.6658
 1096SOL    HW213103   4.248   2.702   0.105 -1.8033 -1.1582 -0.0836
 1097SOL     OW13104   2.932   7.653   1.123 -0.2805  0.5922  0.3803
 1097SOL    HW113105   2.867   7.590   1.164 -0.3728 -0.3422 -1.1911
 1097SOL    HW213106   3.014   7.660   1.181 -1.8555  2.0132  2.5286
 1098SOL     OW13107   3.192   6.636  -0.021  0.5252 -0.6281 -0.2235
 1098SOL    HW113108   3.254   6.570  -0.064 -0.4497 -1.5740 -0.1831
 1098SOL    HW213109   3.118   6.658  -0.084  2.1026  2.2649 -1.1742
 1099SOL     OW13110   4.388   4.242   0.900 -0.0599 -0.5040 -0.3673
 1099SOL    HW113111   4.370   4.172   0.831  0.5916 -1.6920  0.6531
 1099SOL    HW213112   4.304   4.292   0.920 -0.2286 -0.0189 -2.1344
 1100SOL     OW13113   3.535   8.090  -0.094  0.0394 -0.5363 -0.5905
 1100SOL    HW113114   3.541   8.150  -0.014 -1.4696 -0.0544 -0.8159
 1100SOL    HW213115   3.621   8.041  -0.106  0.4500 -0.2392  1.0367
 1101SOL     OW13116   3.931   9.555   2.524 -0.1778 -0.1757  0.2148
 1101SOL    HW113117   4.019   9.511   2.545 -0.6299 -0.9878  0.4068
 1101SOL    HW213118   3.890   9.590   2.608 -1.1687 -1.9146  0.4855
 1102SOL     OW13119   3.609   4.048   1.185  0.2139  0.4354 -0.3304
 1102SOL    HW113120   3.596   4.099   1.270 -1.8641  2.2175 -1.6663
 1102SOL    HW213121   3.679   4.092   1.129  0.0030  0.5380 -0.5140
 1103SOL     OW13122   3.576   4.584   1.569  0.4514 -0.1253 -0.4572
 1103SOL    HW113123   3.494   4.638   1.588  0.8040  0.0259  0.6709
 1103SOL    HW213124   3.648   4.644   1.534  0.0325 -0.2838 -1.5985
 1104SOL     OW13125   2.500   2.884   2.232 -0.1292 -0.3035  0.4661
 1104SOL    HW113126   2.598   2.896   2.216 -0.4172  0.1377 -1.0470
 1104SOL    HW213127   2.482   2.887   2.330  1.6613 -2.7646  0.9146
 1105SOL     OW13128   3.429   2.663   1.297 -0.5639  0.3209 -0.1290
 1105SOL    HW113129   3.366   2.596   1.258 -1.4299  0.3894  1.1379
 1105SOL    HW213130   3.522   2.645   1.264 -0.9844 -0.7792 -0.7188
 1106SOL     OW13131   2.504   7.548   1.862  0.3265  0.7264 -0.3678
 1106SOL    HW113132   2.552   7.627   1.824  1.3123  1.0837  1.5172
 1106SOL    HW213133   2.558   7.510   1.937 -2.5307  1.3911  2.1253
 1107SOL     OW13134   4.018   4.222   0.567 -0.0469 -0.7249 -0.4485
 1107SOL    HW113135   3.989   4.304   0.519  4.0598  1.8164  1.1050
 1107SOL    HW213136   4.026   4.242   0.665  1.0402 -2.9844 -0.0404
 1108SOL     OW13137   3.279   4.413   1.601 -0.4875 -0.2669  0.7539
 1108SOL    HW113138   3.315   4.504   1.622 -0.9563  0.6420 -2.1515
 1108SOL    HW213139   3.343   4.344   1.633  0.7765  1.1391  1.3405
 1109SOL     OW13140   3.003   1.999   0.460 -0.4154 -0.3478 -0.3053
 1109SOL    HW113141   2.987   1.916   0.514  0.1832  0.0282  0.4692
 1109SOL    HW213142   3.055   1.977   0.378  1.4477 -0.4680  0.8706
 1110SOL     OW13143   2.668   4.890   1.030 -0.1465 -0.5378  0.2118
 1110SOL    HW113144   2.637   4.877   0.935  1.3812 -0.4236 -0.3293
 1110SOL    HW213145   2.752   4.836   1.044  1.6379  2.2084  0.4115
 1111SOL     OW13146   3.483   5.680   1.644  0.3294 -0.1673 -0.1003
 1111SOL    HW113147   3.505   5.736   1.724 -0.3779 -0.4520  0.2991
 1111SOL    HW213148   3.387   5.694   1.620  0.5069 -0.1835 -0.8214
 1112SOL     OW13149   3.038   3.628   1.112 -0.0914  0.0285  0.0915
 1112SOL    HW113150   3.115   3.565   1.119  1.5793  2.0734  0.9475
 1112SOL    HW213151   2.975   3.612   1.188  0.0590 -0.9468  0.0150
 1113SOL     OW13152   3.491   2.492   2.296 -0.3199 -0.0956  0.3885
 1113SOL    HW113153   3.547   2.494   2.378 -0.1121 -1.5485  0.2900
 1113SOL    HW213154   3.442   2.405   2.290 -0.1338 -0.1193 -1.1637
 1114SOL     OW13155   3.943   2.316   0.136  0.4293  0.0382 -0.4744
 1114SOL    HW113156   3.979   2.318   0.229  1.3981  0.2544 -0.8590
 1114SOL    HW213157   3.846   2.290   0.139  0.8007 -1.2783  0.4894
 1115SOL     OW13158   3.288   7.522   2.058  0.1706 -0.1021 -0.1547
 1115SOL    HW113159   3.232   7.535   2.140  0.1231  0.7199 -0.3095
 1115SOL    HW213160   3.255   7.443   2.006 -1.1082  0.6337 -0.4649
 1116SOL     OW13161   3.603   2.267   0.546  0.6653 -0.2558 -0.0595
 1116SOL    HW113162   3.580   2.292   0.451 -0.4537 -0.8297  0.0506
 1116SOL    HW213163   3.528   2.215   0.585  0.2189  1.7661  1.8449
 1117SOL     OW13164   3.776   0.666   0.149  0.1794  0.5341 -0.1434
 1117SOL    HW113165   3.692   0.714   0.122 -0.2197  0.0470  0.2095
 1117SOL    HW213166   3.855   0.719   0.122 -0.2599  2.4724  2.2178
 1118SOL     OW13167   3.139   2.498   1.700  0.2198 -0.6207  0.0887
 1118SOL    HW113168   3.072   2.501   1.774  1.0137 -0.3665  0.8054
 1118SOL    HW213169   3.095   2.525   1.615 -0.9450 -1.8847  0.2683
 1119SOL     OW13170   2.922   5.236   0.401 -0.4896 -0.2485 -0.1146
 1119SOL    HW113171   2.949   5.141   0.383 -0.1594 -0.1585 -0.1039
 1119SOL    HW213172   2.835   5.255   0.355  0.3965  0.0165 -1.7060
 1120SOL     OW13173   2.273   5.515   2.518  0.2092 -0.2516  0.7177
 1120SOL    HW113174   2.364   5.550   2.495  0.4609 -0.5217  1.2919
 1120SOL    HW213175   2.204   5.582   2.493  0.8238  1.6132  3.7686
 1121SOL     OW13176   4.314   2.765   1.199  0.0004  0.0048 -0.0321
 1121SOL    HW113177   4.246   2.695   1.177  0.2945  0.2069 -1.7021
 1121SOL    HW213178   4.277   2.855   1.177  0.2274  0.2444  0.5580
 1122SOL     OW13179   2.467   0.933   2.552 -0.8072 -0.3068  0.3694
 1122SOL    HW113180   2.495   0.963   2.643  0.1093  1.0124 -0.3261
 1122SOL    HW213181   2.471   1.010   2.489 -2.7117 -0.9053 -0.5130
 1123SOL     OW13182   3.181   2.808   1.103  0.3707  0.3007 -0.1748
 1123SOL    HW113183   3.092   2.808   1.058 -0.5357 -2.3068  1.4395
 1123SOL    HW213184   3.232   2.890   1.078 -2.1116  1.3895 -1.8543
 1124SOL     OW13185   2.931   9.039   0.157 -0.2255 -0.6390 -0.4208
 1124SOL    HW113186   2.884   8.951   0.159 -0.4225 -0.5243 -0.0672
 1124SOL    HW213187   2.872   9.110   0.195 -0.2923 -0.2453 -1.2632
 1125SOL     OW13188   2.513   3.354   2.055 -0.1334  0.0857  0.2016
 1125SOL    HW113189   2.497   3.450   2.031  0.2303  0.2117  0.4590
 1125SOL    HW213190   2.584   3.348   2.125 -2.1303 -0.2080  2.2215
 1126SOL     OW13191   3.745   4.597   2.101 -0.6212  0.6045  0.0362
 1126SOL    HW113192   3.704   4.620   2.189 -1.4959  1.0960 -0.4953
 1126SOL    HW213193   3.804   4.672   2.071 -0.6993  0.6428 -0.0227
 1127SOL     OW13194   3.247   2.054   1.381  1.2125 -0.3378 -0.1320
 1127SOL    HW113195   3.266   1.980   1.446  0.2442 -0.2867  0.2149
 1127SOL    HW213196   3.324   2.064   1.318  1.1886 -1.9034 -0.4260
 1128SOL     OW13197   4.658   3.649   0.589 -0.7318  0.0690  0.2346
 1128SOL    HW113198   4.749   3.690   0.590 -0.3195 -0.8122 -0.2014
 1128SOL    HW213199   4.600   3.698   0.525 -0.3088  0.1127 -0.1229
 1129SOL     OW13200   3.402   9.093   0.116 -0.0752 -0.0696  0.3840
 1129SOL    HW113201   3.339   9.055   0.183  0.1322  0.2507  0.7676
 1129SOL    HW213202   3.356   9.164   0.063 -0.3079 -0.4842  0.0253
 1130SOL     OW13203   3.740   3.553   2.134 -0.5555  0.2975  0.1375
 1130SOL    HW113204   3.688   3.522   2.055  1.6481 -2.9876 -0.1318
 1130SOL    HW213205   3.765   3.475   2.191  3.6047  1.7078  0.4806
 1131SOL     OW13206   1.888   6.484   0.533 -0.1233  0.0316 -0.8328
 1131SOL    HW113207   1.856   6.573   0.500  1.2220  0.7445 -0.2216
 1131SOL    HW213208   1.987   6.485   0.543 -0.0158 -1.7616 -1.4650
 1132SOL     OW13209   3.380   9.105   2.513 -0.3556  0.7109 -0.0276
 1132SOL    HW113210   3.320   9.026   2.504 -0.9648  0.9632  1.6876
 1132SOL    HW213211   3.441   9.110   2.434  0.4594 -2.1303  0.3906
 1133SOL     OW13212   3.547   1.806   1.473 -0.1286  0.7098  0.3288
 1133SOL    HW113213   3.520   1.766   1.385  0.7276  0.6335  0.0969
 1133SOL    HW213214   3.601   1.740   1.525 -0.4081  0.8517  0.8044
 1134SOL     OW13215   3.841   4.930   1.734  0.2258 -0.3350  0.6966
 1134SOL    HW113216   3.793   4.870   1.671 -0.7148 -0.5553  1.6070
 1134SOL    HW213217   3.774   4.986   1.784  1.0147  0.5559  0.7790
 1135SOL     OW13218   3.602  10.094   1.776 -0.1111 -0.0956  0.1068
 1135SOL    HW113219   3.549  10.072   1.694  0.8228 -1.3145 -0.1930
 1135SOL    HW213220   3.688  10.137   1.748 -0.5913  1.1603  0.5476
 1136SOL     OW13221   2.674   0.747   1.894 -0.2331  0.2763 -0.0260
 1136SOL    HW113222   2.663   0.752   1.993 -2.1786 -0.3545 -0.1840
 1136SOL    HW213223   2.601   0.798   1.850  1.1573  1.3331 -1.1394
 1137SOL     OW13224   4.160   8.566   1.320  0.0668 -0.4714 -0.4696
 1137SOL    HW113225   4.216   8.512   1.383  1.9479  0.3003 -1.4282
 1137SOL    HW213226   4.092   8.507   1.276  0.4014 -1.5270  0.4133
 1138SOL     OW13227   3.002   6.825   1.835 -0.0123 -0.0058 -0.5943
 1138SOL    HW113228   3.021   6.738   1.880  0.4530 -0.0141 -0.8084
 1138SOL    HW213229   2.937   6.811   1.761  0.2596 -0.2149 -0.7951
 1139SOL     OW13230   2.692   7.497   1.198  0.3357 -0.8980 -0.1690
 1139SOL    HW113231   2.616   7.561   1.184  2.0972  1.2668 -0.1607
 1139SOL    HW213232   2.679   7.417   1.139 -1.2613  0.0540 -1.1567
 1140SOL     OW13233   2.433   4.094  -0.120  0.0818  0.1391 -0.3770
 1140SOL    HW113234   2.466   4.020  -0.062 -0.0231 -0.4647 -1.0800
 1140SOL    HW213235   2.417   4.059  -0.213 -0.4360  0.9241 -0.5888
 1141SOL     OW13236   3.171   8.667   1.954 -0.0119 -0.2244  0.3499
 1141SOL    HW113237   3.096   8.707   2.006 -0.3010 -1.4045  0.8563
 1141SOL    HW213238   3.197   8.580   1.995 -0.1292 -1.0940 -1.3858
 1142SOL     OW13239   2.252   6.434   0.790  0.3684 -0.1654  0.1591
 1142SOL    HW113240   2.347   6.437   0.821 -0.5158 -0.2896  2.9621
 1142SOL    HW213241   2.220   6.340   0.788  0.4929 -0.1967 -1.5013
 1143SOL     OW13242   3.317   0.715   0.847 -1.0116 -0.5271 -0.2454
 1143SOL    HW113243   3.253   0.710   0.771 -0.1438  1.9765 -1.2134
 1143SOL    HW213244   3.389   0.781   0.825 -0.3976 -0.2213  2.4946
 1144SOL     OW13245   4.019   1.207   0.524  0.0980 -0.7688  0.0267
 1144SOL    HW113246   3.940   1.260   0.554  0.3779  0.0294 -0.6282
 1144SOL    HW213247   4.098   1.267   0.514  0.7224 -1.5159  0.4070
 1145SOL     OW13248   3.221   2.541   1.172 -0.0859  0.4620 -0.4197
 1145SOL    HW113249   3.133   2.502   1.198  0.5119 -0.0866  0.8085
 1145SOL    HW213250   3.207   2.615   1.106 -1.4243  0.0683 -0.5834
 1146SOL     OW13251   2.629   5.176   2.216  0.1989  0.4791 -0.0643
 1146SOL    HW113252   2.586   5.225   2.140  0.2176  1.6284  0.6653
 1146SOL    HW213253   2.563   5.113   2.256  0.4417 -0.7548 -1.5674
 1147SOL     OW13254   2.597   0.318   0.361  0.1269 -0.0604  0.8712
 1147SOL    HW113255   2.504   0.331   0.325  0.6671  0.1198 -0.4970
 1147SOL    HW213256   2.621   0.395   0.420 -0.7178 -0.2722  1.5012
 1148SOL     OW13257   2.839   6.080   1.646 -0.1811 -0.6061 -0.0026
 1148SOL    HW113258   2.908   6.145   1.613  1.2000 -1.6670  0.7612
 1148SOL    HW213259   2.855   5.990   1.605 -0.4183 -1.1446  1.0892
 1149SOL     OW13260   4.605   2.300   1.505 -0.3119  0.3372  0.2852
 1149SOL    HW113261   4.529   2.359   1.479  1.0866  1.5985 -1.0414
 1149SOL    HW213262   4.685   2.323   1.450  0.3284 -2.6476 -0.1184
 1150SOL     OW13263   3.189   5.567   2.021  0.1669 -0.3983 -0.6560
 1150SOL    HW113264   3.236   5.505   1.958  1.2851 -0.1577 -0.0776
 1150SOL    HW213265   3.228   5.659   2.012  0.5765 -0.4302  0.6240
 1151SOL     OW13266   2.104   6.052   2.514 -0.3623 -0.6134  0.0483
 1151SOL    HW113267   2.201   6.063   2.494 -0.0257  0.1581  1.9650
 1151SOL    HW213268   2.093   6.011   2.605 -1.8487  0.4644  0.3740
 1152SOL     OW13269   2.653   0.446   2.529 -0.2215  0.6315  0.5306
 1152SOL    HW113270   2.650   0.546   2.540  1.8441  0.6721  0.9749
 1152SOL    HW213271   2.704   0.424   2.446  0.2856 -0.0591  1.0147
 1153SOL     OW13272   2.548   8.919   1.376  0.3015 -0.2030  0.0634
 1153SOL    HW113273   2.479   8.962   1.434  0.5221 -0.3890  0.4612
 1153SOL    HW213274   2.532   8.820   1.372 -0.0159 -0.1267 -0.5954
 1154SOL     OW13275   3.519   4.378   1.021  0.3318  0.4563  0.0488
 1154SOL    HW113276   3.505   4.313   0.947 -2.2847  0.0304  0.8378
 1154SOL    HW213277   3.542   4.468   0.983  0.1982 -0.0323 -1.2170
 1155SOL     OW13278   2.098   6.056   2.168  0.0331  0.0367  0.1231
 1155SOL    HW113279   2.037   5.985   2.203 -2.6898  2.2642  0.0753
 1155SOL    HW213280   2.193   6.029   2.183 -0.9178 -3.7716 -0.3102
 1156SOL     OW13281   2.601   0.468   0.833 -0.2387  0.2241 -0.3693
 1156SOL    HW113282   2.656   0.414   0.769 -0.7394 -0.6435 -0.0679
 1156SOL    HW213283   2.614   0.565   0.813 -0.1039 -0.0268 -1.5577
 1157SOL     OW13284   2.653   5.621   0.599  0.5632 -0.1351  0.2922
 1157SOL    HW113285   2.687   5.649   0.689  2.0036  2.1187 -0.9136
 1157SOL    HW213286   2.558   5.653   0.588 -0.2708 -2.0477  1.7056
 1158SOL     OW13287   3.408   4.492   0.543 -0.0506  0.2353 -0.3010
 1158SOL    HW113288   3.355   4.412   0.573 -0.5947 -0.0498 -1.9719
 1158SOL    HW213289   3.419   4.489   0.444  2.4188  0.7302 -0.0701
 1159SOL     OW13290   3.605   0.542   1.775  0.2536 -0.3298 -0.2150
 1159SOL    HW113291   3.577   0.633   1.807 -1.3464 -0.5975 -0.8021
 1159SOL    HW213292   3.558   0.472   1.828  2.3629 -0.8614  1.0169
 1160SOL     OW13293   3.377   3.758   1.994 -0.3253  0.2622 -0.3287
 1160SOL    HW113294   3.471   3.776   2.022 -0.6186 -1.1165  1.6639
 1160SOL    HW213295   3.315   3.818   2.045 -0.8519 -2.0987  1.8544
 1161SOL     OW13296   4.874   3.151   1.839 -0.8303  0.4306 -0.8178
 1161SOL    HW113297   4.888   3.062   1.882 -3.7884  0.1415 -0.2948
 1161SOL    HW213298   4.852   3.219   1.909 -1.3434  0.9478 -1.4682
 1162SOL     OW13299   3.563   5.054   1.869  1.1096  0.0603 -0.2485
 1162SOL    HW113300   3.639   5.043   1.934 -0.0063 -0.7117  0.9406
 1162SOL    HW213301   3.566   5.146   1.830  2.5016  0.1306 -0.0165
 1163SOL     OW13302   2.253   0.649   0.869 -0.0494 -0.5309  0.2448
 1163SOL    HW113303   2.314   0.598   0.930 -3.0068 -3.1228  1.1692
 1163SOL    HW213304   2.256   0.746   0.892  1.0955 -1.0791  2.5892
 1164SOL     OW13305   4.202   5.506   0.845 -0.4141 -0.0706 -0.3479
 1164SOL    HW113306   4.139   5.576   0.814  0.3209  0.6571 -0.2149
 1164SOL    HW213307   4.281   5.549   0.889 -0.8437 -1.0379  1.4289
 1165SOL     OW13308   4.124   9.345   2.583  0.4507  0.1169  0.3826
 1165SOL    HW113309   4.218   9.358   2.552 -0.2227  0.1455 -1.6959
 1165SOL    HW213310   4.124   9.326   2.682  2.6253  0.0615  0.3945
 1166SOL     OW13311   4.164   4.261   1.897  0.4644  0.0689 -0.2228
 1166SOL    HW113312   4.098   4.336   1.889  1.1070  0.6041 -0.5893
 1166SOL    HW213313   4.180   4.242   1.994  0.2035  0.3188 -0.1286
 1167SOL     OW13314   4.490   3.382   1.621 -0.1470  0.5521 -0.0562
 1167SOL    HW113315   4.487   3.466   1.567 -0.0244  0.1487 -0.6881
 1167SOL    HW213316   4.400   3.339   1.621 -0.0938  0.4422 -0.1044
 1168SOL     OW13317   2.834   3.145   0.052  0.2700  0.0383  0.2480
 1168SOL    HW113318   2.763   3.103  -0.005  1.4402 -1.2162 -0.3004
 1168SOL    HW213319   2.855   3.237   0.017 -1.7332  0.8111  0.9791
 1169SOL     OW13320   3.589   2.793   0.582 -0.0693 -0.1008  0.5010
 1169SOL    HW113321   3.643   2.750   0.510  0.6433  0.5487  0.6328
 1169SOL    HW213322   3.642   2.868   0.623 -1.1957  0.7649  0.4105
 1170SOL     OW13323   2.256   8.538   1.938  0.3672 -0.9859  0.3783
 1170SOL    HW113324   2.159   8.540   1.917  0.5245 -0.8464 -0.3469
 1170SOL    HW213325   2.283   8.624   1.981  0.4788 -0.4216 -0.8135
 1171SOL     OW13326   3.151   9.158   2.288  0.5595  0.4670 -0.6258
 1171SOL    HW113327   3.158   9.066   2.249  3.4160  0.3610  0.0881
 1171SOL    HW213328   3.139   9.151   2.387 -2.5598  0.8362 -0.9234
 1172SOL     OW13329   3.737   1.698   1.674  0.7590  0.1767  0.1302
 1172SOL    HW113330   3.828   1.674   1.640  0.9887 -0.7973  1.4051
 1172SOL    HW213331   3.691   1.617   1.708 -0.2074  0.8307  0.4134
 1173SOL     OW13332   2.493   1.527   1.768 -0.4274  0.1328  0.5659
 1173SOL    HW113333   2.450   1.524   1.678 -0.2457 -1.6837  0.5225
 1173SOL    HW213334   2.520   1.434   1.796  0.5622  0.8193  1.9846
 1174SOL     OW13335   3.169   9.847   1.637  0.4968  0.7333 -0.3520
 1174SOL    HW113336   3.098   9.915   1.654  0.0454  0.2622 -0.3782
 1174SOL    HW213337   3.151   9.764   1.689 -0.6735 -0.5689 -2.7445
 1175SOL     OW13338   2.389   6.942  -0.109  0.2456  0.0544  0.0004
 1175SOL    HW113339   2.386   6.929  -0.208  0.4342  0.8416 -0.1186
 1175SOL    HW213340   2.462   7.008  -0.087  1.0816 -1.1221  0.7739
 1176SOL     OW13341   2.922   7.921   0.551  0.5037 -0.5149 -0.0570
 1176SOL    HW113342   2.846   7.881   0.500  0.3190 -0.7966  0.4372
 1176SOL    HW213343   2.920   7.889   0.646  1.5813 -0.9836 -0.1826
 1177SOL     OW13344   4.001   0.604   1.162  0.7647  0.2819 -0.2943
 1177SOL    HW113345   3.953   0.615   1.076 -0.4603  0.4415  0.3949
 1177SOL    HW213346   4.028   0.695   1.197 -1.5737  0.5042  1.0504
 1178SOL     OW13347   2.898   6.884   0.458 -0.2871  0.9397 -0.0005
 1178SOL    HW113348   2.886   6.982   0.449 -0.2634  0.9023 -0.4163
 1178SOL    HW213349   2.974   6.866   0.522  0.0878  1.1935 -0.3689
 1179SOL     OW13350   4.157   2.009   1.233 -0.3408  0.0177  0.2253
 1179SOL    HW113351   4.078   1.977   1.182 -0.8937 -1.0795  1.7332
 1179SOL    HW213352   4.140   2.101   1.268 -0.7711 -0.0422  0.1725
 1180SOL     OW13353   2.538   4.571   1.974 -0.0511 -0.3007  0.5887
 1180SOL    HW113354   2.519   4.633   1.898 -2.2509  0.0763  1.4011
 1180SOL    HW213355   2.543   4.623   2.059  1.8663 -0.7848  0.7937
 1181SOL     OW13356   3.658   3.772   2.282  0.1483 -0.2304 -0.3608
 1181SOL    HW113357   3.660   3.832   2.203 -0.1350 -1.1258 -1.0538
 1181SOL    HW213358   3.686   3.680   2.255 -0.9844 -0.7972  0.3510
 1182SOL     OW13359   3.843   9.745   2.329  0.3489  0.6187  0.1013
 1182SOL    HW113360   3.851   9.696   2.243 -1.3146  0.5834 -0.0450
 1182SOL    HW213361   3.867   9.684   2.405  3.1536  1.0307 -0.3738
 1183SOL     OW13362   3.672   2.598   1.164 -0.2669  0.0032 -0.0066
 1183SOL    HW113363   3.671   2.565   1.069  0.5272  0.7104 -0.2719
 1183SOL    HW213364   3.746   2.665   1.174  0.7440 -1.2924  1.5122
 1184SOL     OW13365   2.729   9.165  -0.051  0.4295 -0.1196  0.0431
 1184SOL    HW113366   2.790   9.243  -0.040 -0.0077  0.5454 -2.0045
 1184SOL    HW213367   2.771   9.098  -0.112  0.0715 -0.7189  0.4463
 1185SOL     OW13368   2.973   6.365   0.753  0.3425 -0.8591 -0.1279
 1185SOL    HW113369   2.875   6.364   0.735  0.5697  0.9559 -1.6378
 1185SOL    HW213370   3.016   6.437   0.699  2.7837 -2.7295 -0.7553
 1186SOL     OW13371   3.412   9.890   2.262 -0.5338  0.2979 -0.0291
 1186SOL    HW113372   3.333   9.853   2.214 -0.1711  0.3881 -0.7002
 1186SOL    HW213373   3.496   9.851   2.224 -0.0987  2.3554 -1.2561
 1187SOL     OW13374   4.240   3.446   0.104  0.0243  0.1449  0.8630
 1187SOL    HW113375   4.241   3.474   0.008 -0.3330 -0.6551  0.6254
 1187SOL    HW213376   4.151   3.406   0.126 -0.3585  1.5041  1.8696
 1188SOL     OW13377   4.111   1.608   1.591  0.3483 -0.8575  0.6606
 1188SOL    HW113378   4.104   1.697   1.636  0.6393 -2.3193  3.6947
 1188SOL    HW213379   4.203   1.572   1.602  0.6735 -0.9197 -1.8711
 1189SOL     OW13380   2.688   8.426   0.316 -0.5964 -0.3123  0.4154
 1189SOL    HW113381   2.687   8.328   0.338 -0.7772 -0.4346 -0.1237
 1189SOL    HW213382   2.765   8.470   0.362 -0.9248 -0.5783  1.2157
 1190SOL     OW13383   3.164   8.645   0.435  0.2142 -0.0112  0.5416
 1190SOL    HW113384   3.237   8.583   0.464  0.0526 -0.0739  0.8250
 1190SOL    HW213385   3.150   8.715   0.505  0.1420  0.1242  0.3930
 1191SOL     OW13386   4.252   4.865   1.317  0.4028 -0.2296 -0.3238
 1191SOL    HW113387   4.291   4.948   1.358 -0.5181 -0.6201  1.3735
 1191SOL    HW213388   4.201   4.890   1.235  1.3745  0.6910 -0.6752
 1192SOL     OW13389   2.575   8.209   1.160  0.3692 -0.0337 -0.1759
 1192SOL    HW113390   2.644   8.216   1.088  0.3135 -0.3816 -0.2630
 1192SOL    HW213391   2.618   8.193   1.248  0.4924  1.2083  0.0021
 1193SOL     OW13392   2.520   7.742   0.052  0.3956 -0.1360 -0.1371
 1193SOL    HW113393   2.486   7.716   0.142  0.0329  0.6507 -0.0451
 1193SOL    HW213394   2.443   7.752  -0.011  0.4717  1.3387 -0.0072
 1194SOL     OW13395   4.077   5.353   1.778 -0.0941  0.0490 -0.2165
 1194SOL    HW113396   4.105   5.414   1.704  0.3389  0.5338  0.3539
 1194SOL    HW213397   4.069   5.260   1.742  1.5708  0.0235 -0.5375
 1195SOL     OW13398   2.693   5.160   1.030 -0.1530 -0.3751  0.7709
 1195SOL    HW113399   2.788   5.174   1.060  0.4291  0.4170 -1.3428
 1195SOL    HW213400   2.680   5.064   1.006 -0.1320 -0.6513  1.8160
 1196SOL     OW13401   3.237   5.760   1.070 -0.3748 -0.0627  0.3196
 1196SOL    HW113402   3.184   5.677   1.056 -1.1194  0.1532  1.8390
 1196SOL    HW213403   3.318   5.758   1.010 -0.8060 -1.4889 -0.2392
 1197SOL     OW13404   3.323   8.250   2.048  0.3221  0.2150  0.3151
 1197SOL    HW113405   3.395   8.248   1.978 -0.4839 -2.1056 -0.5120
 1197SOL    HW213406   3.335   8.174   2.111 -1.6367 -0.4762 -0.0979
 1198SOL     OW13407   4.334   2.086   1.555  0.7730  0.1630  0.1131
 1198SOL    HW113408   4.376   2.152   1.493 -1.0756  0.2730 -1.0868
 1198SOL    HW213409   4.292   2.134   1.632 -1.5883  0.5387 -1.3638
 1199SOL     OW13410   3.636   9.591   2.587 -0.0388 -0.0835  0.1520
 1199SOL    HW113411   3.605   9.496   2.585  0.3696 -0.2021 -1.7735
 1199SOL    HW213412   3.700   9.607   2.512  0.5936  1.4872  0.9958
 1200SOL     OW13413   3.007   2.218   1.367  0.3468 -0.0629  0.0729
 1200SOL    HW113414   2.955   2.221   1.453 -0.6278 -0.3450 -0.5022
 1200SOL    HW213415   3.092   2.168   1.382  0.0277 -0.4024  0.8005
 1201SOL     OW13416   2.478   8.143  -0.009  0.4728 -0.2091 -0.4293
 1201SOL    HW113417   2.427   8.128   0.076 -1.2136 -0.8970 -1.5172
 1201SOL    HW213418   2.541   8.220   0.003 -0.3218  0.2264  1.1870
 1202SOL     OW13419   4.001   6.012   0.384 -0.1603  0.6295 -0.4119
 1202SOL    HW113420   3.925   6.074   0.366 -1.3765 -1.1175 -1.4843
 1202SOL    HW213421   4.060   6.008   0.304  0.4759  1.1756  0.0308
 1203SOL     OW13422   4.835   2.558   0.415  0.5455 -0.6182 -0.4994
 1203SOL    HW113423   4.902   2.598   0.478 -0.5187  0.0539  0.2205
 1203SOL    HW213424   4.776   2.630   0.379  0.0204 -1.2456 -0.9101
 1204SOL     OW13425   4.837   3.270   1.324 -0.2126 -0.6715  0.6280
 1204SOL    HW113426   4.758   3.288   1.265  0.4946  3.1320  0.7463
 1204SOL    HW213427   4.808   3.276   1.420  0.4028  1.7812  0.6779
 1205SOL     OW13428   2.376   9.230   1.061 -0.5946  0.3052 -0.3184
 1205SOL    HW113429   2.348   9.248   1.155 -1.7082 -1.2877 -0.3198
 1205SOL    HW213430   2.362   9.133   1.040  2.6949 -0.0844 -1.1035
 1206SOL     OW13431   4.042   4.243  -0.070  0.3671 -0.0106  0.4206
 1206SOL    HW113432   4.011   4.152  -0.099  0.0222 -0.1843  1.2871
 1206SOL    HW213433   3.975   4.312  -0.099  1.5112  0.2021 -1.8028
 1207SOL     OW13434   2.881   6.223   0.241 -0.0859 -0.2849  0.2743
 1207SOL    HW113435   2.876   6.216   0.340 -1.0973 -0.2308  0.2358
 1207SOL    HW213436   2.880   6.131   0.201  1.0780 -0.3293  0.3418
 1208SOL     OW13437   2.880   1.646   0.462  0.2965 -0.5115  0.2523
 1208SOL    HW113438   2.888   1.546   0.458  2.6539 -0.3547  0.8842
 1208SOL    HW213439   2.877   1.682   0.369 -2.0690 -1.2506 -0.0026
 1209SOL     OW13440   2.723   1.994   0.408 -0.0958  0.1235  0.1865
 1209SOL    HW113441   2.820   1.977   0.392  0.1295 -0.0155  1.6546
 1209SOL    HW213442   2.712   2.051   0.490 -1.1839  1.2907 -0.7510
 1210SOL     OW13443   4.551   2.410   2.396 -0.1903 -0.0433  0.2616
 1210SOL    HW113444   4.535   2.488   2.336  0.7199  0.0937  0.1853
 1210SOL    HW213445   4.503   2.330   2.360 -1.3585  0.5522  0.5017
 1211SOL     OW13446   1.949   5.930   0.066 -0.2680  0.1567  0.2623
 1211SOL    HW113447   1.935   5.948   0.163  0.0861  0.9100  0.1775
 1211SOL    HW213448   1.890   5.990   0.012 -1.7683 -1.4798  0.0369
 1212SOL     OW13449   2.484   1.720   1.405 -0.1826  0.1600  0.0697
 1212SOL    HW113450   2.491   1.807   1.455 -2.1463  1.4307 -1.7505
 1212SOL    HW213451   2.520   1.732   1.313  1.1933 -1.4952  0.3686
 1213SOL     OW13452   2.761   4.442   1.259 -0.1182  0.3488 -0.2206
 1213SOL    HW113453   2.763   4.539   1.283 -0.6872  1.0203 -2.7006
 1213SOL    HW213454   2.669   4.417   1.228  0.3401 -0.6649 -0.7955
 1214SOL     OW13455   3.422   2.952   0.278 -0.5073 -0.8540  0.2885
 1214SOL    HW113456   3.447   2.877   0.339  0.3063 -1.8587 -1.2470
 1214SOL    HW213457   3.454   3.039   0.316 -0.9129 -1.3441  1.7698
 1215SOL     OW13458   4.260   0.559   1.087 -0.0615  0.3396  0.1373
 1215SOL    HW113459   4.285   0.468   1.120  0.0240  1.5367  3.4780
 1215SOL    HW213460   4.163   0.575   1.100 -0.6326 -0.2261 -2.9487
 1216SOL     OW13461   2.925   7.168   0.413  0.2004 -0.2831  0.0655
 1216SOL    HW113462   2.944   7.245   0.474  0.0028 -0.1087 -0.0930
 1216SOL    HW213463   2.871   7.199   0.335 -0.5385 -0.7275  0.3920
 1217SOL     OW13464   3.601   2.608   2.027  0.6276  0.7189 -0.0828
 1217SOL    HW113465   3.603   2.566   2.118 -0.7298 -0.2717 -0.4847
 1217SOL    HW213466   3.509   2.598   1.988  0.9273  2.0085 -1.1654
 1218SOL     OW13467   4.386   1.326   0.692 -0.4415 -0.1210  0.4325
 1218SOL    HW113468   4.437   1.242   0.707  2.0191  0.9018 -1.7660
 1218SOL    HW213469   4.443   1.405   0.715 -1.3972  1.0401 -0.9782
 1219SOL     OW13470   3.310   9.969  -0.049 -0.0425  0.2467  0.4840
 1219SOL    HW113471   3.218   9.930  -0.040 -1.1428  2.4709 -0.6848
 1219SOL    HW213472   3.365   9.910  -0.108 -0.7890 -0.9783  0.9825
 1220SOL     OW13473   3.104   1.392   1.482 -0.1547  0.2639 -0.4469
 1220SOL    HW113474   3.138   1.371   1.391 -1.3074 -0.5473 -0.7033
 1220SOL    HW213475   3.110   1.310   1.539  0.2984  0.6900  0.1250
 1221SOL     OW13476   2.563   6.523   0.636 -0.3350 -0.1699 -0.0698
 1221SOL    HW113477   2.520   6.521   0.546 -0.9301 -1.0738  0.2288
 1221SOL    HW213478   2.637   6.590   0.636 -0.2532 -0.2484 -1.2628
 1222SOL     OW13479   3.043   6.998   1.589 -0.1593 -0.1740  0.1602
 1222SOL    HW113480   3.062   7.096   1.596 -1.2465  0.1225 -0.9857
 1222SOL    HW213481   2.963   6.975   1.644 -1.4509  0.0476 -1.5868
 1223SOL     OW13482   4.538   2.719  -0.105 -0.1203 -0.5507 -0.0658
 1223SOL    HW113483   4.474   2.725  -0.181  0.1786 -0.0426 -0.2767
 1223SOL    HW213484   4.618   2.666  -0.132  1.1731  1.7478 -0.9506
 1224SOL     OW13485   3.590   7.735   0.559 -0.3140  0.5169 -0.2727
 1224SOL    HW113486   3.495   7.720   0.531 -0.5251 -1.0774  1.2322
 1224SOL    HW213487   3.649   7.668   0.514 -0.6638 -2.1129  3.0001
 1225SOL     OW13488   3.886   8.668   0.891  0.2525 -0.4838  0.0238
 1225SOL    HW113489   3.970   8.637   0.935  0.2859 -1.2261 -0.5369
 1225SOL    HW213490   3.807   8.639   0.945  0.3581  0.2126  0.5513
 1226SOL     OW13491   3.264   1.001   1.379 -0.0288  0.7291 -0.4625
 1226SOL    HW113492   3.189   0.951   1.421 -0.9454  1.3288 -1.3497
 1226SOL    HW213493   3.285   1.082   1.435 -0.5014  0.9218 -0.5547
 1227SOL     OW13494   3.067   6.565   0.598  0.1867  0.0134  0.3385
 1227SOL    HW113495   3.095   6.654   0.634  1.8524 -0.4188  0.1314
 1227SOL    HW213496   3.103   6.554   0.506 -2.4907  0.3376 -0.8043
 1228SOL     OW13497   3.791   3.317   1.794  0.4780 -0.3179 -0.1751
 1228SOL    HW113498   3.827   3.257   1.722 -1.9079 -1.8506 -0.1727
 1228SOL    HW213499   3.822   3.285   1.883  1.0136 -0.2172 -0.3246
 1229SOL     OW13500   4.334   4.489   1.899  0.5833 -0.1076  0.0540
 1229SOL    HW113501   4.271   4.491   1.977  0.4779  1.1136 -0.0511
 1229SOL    HW213502   4.356   4.394   1.877 -1.1149 -0.5581  0.1752
 1230SOL     OW13503   3.228   8.721   1.532 -0.5135 -0.0143  0.2353
 1230SOL    HW113504   3.224   8.785   1.609  2.2203 -0.4027  0.7361
 1230SOL    HW213505   3.212   8.628   1.565  2.2247 -0.3718  0.6215
 1231SOL     OW13506   3.030   2.528  -0.112  0.1185  0.3174 -0.0615
 1231SOL    HW113507   2.934   2.556  -0.119  0.2512  1.4555  2.0821
 1231SOL    HW213508   3.065   2.505  -0.202 -2.0989  0.1286 -0.9140
 1232SOL     OW13509   3.921   3.599   1.502 -0.4352 -0.0756 -0.2988
 1232SOL    HW113510   3.891   3.616   1.596 -1.2473 -1.3812 -0.3034
 1232SOL    HW213511   3.843   3.602   1.440 -0.4547 -2.4660 -0.4534
 1233SOL     OW13512   3.249   1.297   1.275  0.1927  0.4348 -0.3241
 1233SOL    HW113513   3.264   1.241   1.194  0.4956  0.3509 -0.2123
 1233SOL    HW213514   3.336   1.340   1.303  0.2004  0.0574  0.2487
 1234SOL     OW13515   2.425   0.268   0.848  0.1123  0.1357  0.0307
 1234SOL    HW113516   2.470   0.355   0.865 -0.4042  0.6065 -0.9653
 1234SOL    HW213517   2.476   0.194   0.892 -0.2097  1.0930  2.0731
 1235SOL     OW13518   4.777   2.521   1.002  0.1611 -0.1322  0.2109
 1235SOL    HW113519   4.731   2.609   1.011  0.5476  0.3298 -1.9424
 1235SOL    HW213520   4.797   2.504   0.905  2.1846 -1.5004  0.8381
 1236SOL     OW13521   3.477   9.806   0.133  0.6806  0.4198  0.3573
 1236SOL    HW113522   3.543   9.854   0.075  1.7697  0.9046  1.9471
 1236SOL    HW213523   3.506   9.711   0.145 -0.3675 -0.0930 -1.1218
 1237SOL     OW13524   2.872   1.275   0.326  0.0555 -0.1460 -0.2324
 1237SOL    HW113525   2.901   1.179   0.320  1.2077  0.2036 -0.4272
 1237SOL    HW213526   2.806   1.295   0.254  0.7983 -0.4632 -1.0150
 1238SOL     OW13527   2.955   2.424   1.207 -0.3368 -0.8619  0.0096
 1238SOL    HW113528   2.968   2.340   1.261 -1.6220  0.0970  1.8340
 1238SOL    HW213529   2.899   2.489   1.258 -2.1372 -0.1589 -2.7622
 1239SOL     OW13530   2.754   7.143   1.672 -0.5298  0.7817 -0.1642
 1239SOL    HW113531   2.714   7.207   1.737  0.9485  3.3793 -1.7286
 1239SOL    HW213532   2.686   7.120   1.602 -0.8438  1.2158 -0.0029
 1240SOL     OW13533   2.545   4.028   0.187  0.2525  0.2458  0.2440
 1240SOL    HW113534   2.642   4.053   0.193  0.2579  0.5129 -0.9179
 1240SOL    HW213535   2.535   3.929   0.192  0.4850  0.2757  1.5709
 1241SOL     OW13536   4.866   3.911   0.999  0.4909  0.0564 -0.0315
 1241SOL    HW113537   4.903   3.860   1.077  2.2376  0.9055 -0.2734
 1241SOL    HW213538   4.785   3.961   1.027 -0.6795 -2.0395  0.4622
 1242SOL     OW13539   2.742   1.860   2.256 -0.1124 -0.6573  0.3438
 1242SOL    HW113540   2.836   1.880   2.231 -0.0166  0.2043  1.3101
 1242SOL    HW213541   2.718   1.913   2.338 -1.9555  0.4258 -0.8508
 1243SOL     OW13542   3.346   4.278   2.458 -0.4464 -0.3083  0.3493
 1243SOL    HW113543   3.326   4.369   2.421  1.6507 -0.1419 -0.4389
 1243SOL    HW213544   3.413   4.232   2.400 -0.1623 -1.6752  1.7188
 1244SOL     OW13545   2.475   5.462   1.051 -0.5295  0.5697  0.1042
 1244SOL    HW113546   2.461   5.539   1.114  0.9590 -0.4526  1.7182
 1244SOL    HW213547   2.465   5.376   1.101  2.8402 -0.2511 -0.5290
 1245SOL     OW13548   3.682   1.081   0.522  0.1510  0.0855 -0.1362
 1245SOL    HW113549   3.705   1.138   0.442 -1.6218  0.5937 -0.2894
 1245SOL    HW213550   3.708   1.129   0.605  4.7011 -1.6308 -0.4125
 1246SOL     OW13551   3.265   1.810  -0.018 -0.3306  0.1017 -0.1412
 1246SOL    HW113552   3.345   1.830  -0.074 -0.2910 -0.5108 -0.3137
 1246SOL    HW213553   3.201   1.887  -0.022  0.2275  0.5720 -0.0372
 1247SOL     OW13554   3.339   1.879   0.748 -0.0137  0.1731  0.2743
 1247SOL    HW113555   3.309   1.919   0.835 -1.0849 -0.7791  0.3485
 1247SOL    HW213556   3.287   1.796   0.730  1.7826 -0.8724 -0.1669
 1248SOL     OW13557   4.487   2.936   1.331 -0.1846 -0.4943 -0.2117
 1248SOL    HW113558   4.557   2.936   1.260 -0.6042 -0.5356 -0.6257
 1248SOL    HW213559   4.406   2.888   1.298 -0.8027  0.4793 -0.1129
 1249SOL     OW13560   3.964   3.122   0.852  0.2020  0.0235 -0.2333
 1249SOL    HW113561   3.879   3.156   0.893  0.6271  0.3088  0.4281
 1249SOL    HW213562   3.944   3.077   0.765 -0.6991 -0.4879  0.2373
 1250SOL     OW13563   3.385   3.928   1.084  0.3548  0.0677  0.1676
 1250SOL    HW113564   3.422   3.838   1.106 -0.9572 -0.3957  0.5313
 1250SOL    HW213565   3.441   3.998   1.128  0.4446 -0.6426  1.2069
 1251SOL     OW13566   3.451   9.552   0.880 -0.0393  0.1519  0.0109
 1251SOL    HW113567   3.492   9.633   0.837  1.3403 -0.6404 -0.2133
 1251SOL    HW213568   3.374   9.580   0.938 -0.8879  1.4021 -1.6842
 1252SOL     OW13569   1.953   6.464   1.724  0.1618 -0.1332  0.0072
 1252SOL    HW113570   1.965   6.488   1.820  0.1475 -2.1585  0.5417
 1252SOL    HW213571   1.889   6.527   1.681 -1.4155 -0.4443  1.8531
 1253SOL     OW13572   3.032   2.334   1.947 -0.2454  0.5833  0.5026
 1253SOL    HW113573   2.934   2.346   1.927 -0.1528  0.6149  0.0597
 1253SOL    HW213574   3.074   2.279   1.874 -0.0787 -0.0287  1.0557
 1254SOL     OW13575   2.866   3.118   2.143  1.0406  0.0875  0.3933
 1254SOL    HW113576   2.944   3.071   2.185  0.5683 -1.0732 -0.0044
 1254SOL    HW213577   2.890   3.147   2.051  0.6074 -1.3895 -0.1995
 1255SOL     OW13578   3.058   0.890   1.511  0.3216  1.0521 -0.2366
 1255SOL    HW113579   3.053   0.843   1.599  0.6211 -1.4497 -1.5181
 1255SOL    HW213580   2.992   0.850   1.448  1.6698  1.3320 -1.8429
 1256SOL     OW13581   3.549   3.413   1.160 -0.1556  0.4847 -0.6026
 1256SOL    HW113582   3.623   3.357   1.123 -0.1223  0.5621 -0.6515
 1256SOL    HW213583   3.538   3.392   1.257  1.3120  1.9687 -0.0852
 1257SOL     OW13584   3.693   3.047   1.951  0.3764  0.0959 -0.2630
 1257SOL    HW113585   3.630   3.095   2.013 -0.3073 -1.3365  0.1836
 1257SOL    HW213586   3.648   3.033   1.863  0.5759  0.2727 -0.3931
 1258SOL     OW13587   3.219   5.290   1.476  0.3280 -0.1931 -0.3679
 1258SOL    HW113588   3.305   5.337   1.497 -0.1884  1.1714 -1.2329
 1258SOL    HW213589   3.192   5.234   1.554  1.3035  0.4322  0.4352
 1259SOL     OW13590   2.800   9.835   1.627 -0.0871  0.2468 -0.3977
 1259SOL    HW113591   2.761   9.902   1.691  0.2412 -0.7343  0.8322
 1259SOL    HW213592   2.856   9.883   1.560  0.4269  1.1770  0.6878
 1260SOL     OW13593   2.660   2.106   1.941  0.3664  0.3750 -0.1674
 1260SOL    HW113594   2.717   2.076   2.018 -0.0479 -1.9831 -0.7152
 1260SOL    HW213595   2.594   2.173   1.972  2.1778  1.6945  0.8855
 1261SOL     OW13596   2.809   2.607   1.342  0.1634  0.0540  0.1532
 1261SOL    HW113597   2.834   2.587   1.436 -1.2900  1.0343  0.7657
 1261SOL    HW213598   2.773   2.701   1.336 -0.4282 -0.2469 -1.2283
 1262SOL     OW13599   4.074   8.855   1.337 -0.3050 -0.0074 -0.6528
 1262SOL    HW113600   4.012   8.869   1.260 -0.7758  0.8165 -0.1160
 1262SOL    HW213601   4.106   8.760   1.336 -3.7932 -1.2729  0.7305
 1263SOL     OW13602   3.321   0.652   2.584 -0.1423  0.3935  0.5238
 1263SOL    HW113603   3.400   0.591   2.589 -0.2819  0.2488  1.0035
 1263SOL    HW213604   3.250   0.620   2.647 -1.3325 -0.5488 -1.2659
 1264SOL     OW13605   3.949   4.465   0.470 -0.1083 -0.4972  0.2563
 1264SOL    HW113606   3.934   4.545   0.412  0.1936 -0.0142  0.8290
 1264SOL    HW213607   3.899   4.476   0.556 -0.8522 -1.3778 -0.0590
 1265SOL     OW13608   3.534   1.282   1.413  0.0396 -0.0067  0.3009
 1265SOL    HW113609   3.576   1.337   1.340  0.2540  0.9513  1.1398
 1265SOL    HW213610   3.515   1.190   1.378 -0.6376  0.6895 -1.2417
 1266SOL     OW13611   3.159   9.847   1.339  0.4487 -0.0763 -0.0308
 1266SOL    HW113612   3.177   9.833   1.436  0.1502 -1.2671 -0.1368
 1266SOL    HW213613   3.243   9.877   1.294  0.4245  1.1244  0.7043
 1267SOL     OW13614   3.737   9.898   0.111  0.3459  0.2789  0.1892
 1267SOL    HW113615   3.738   9.995   0.087 -0.1165  0.9788  2.8731
 1267SOL    HW213616   3.735   9.888   0.210  0.9585 -2.4978 -0.0323
 1268SOL     OW13617   4.212   1.999   2.211 -0.3684  0.0216 -0.4209
 1268SOL    HW113618   4.235   1.904   2.188  0.1651  0.2235 -0.7240
 1268SOL    HW213619   4.164   2.001   2.299 -1.9994 -0.7100 -1.2578
 1269SOL     OW13620   2.782   5.041   0.173  0.1528 -0.2491  0.5560
 1269SOL    HW113621   2.725   5.099   0.231  1.2799  2.5406 -1.0247
 1269SOL    HW213622   2.842   4.985   0.230  0.2656  1.4025  2.0978
 1270SOL     OW13623   3.023   1.951   1.589  0.3634 -0.3966 -0.1023
 1270SOL    HW113624   3.098   1.892   1.618 -0.2075 -1.1319 -0.1205
 1270SOL    HW213625   2.956   1.898   1.538  0.2369  0.4320 -0.8108
 1271SOL     OW13626   3.162   9.258   1.631  0.1954 -0.0408  0.2892
 1271SOL    HW113627   3.067   9.262   1.663  0.7420  0.6947  1.8826
 1271SOL    HW213628   3.189   9.346   1.593  0.9636  0.4997  2.0331
 1272SOL     OW13629   3.208   4.033   0.876  0.7407 -0.0764 -0.3517
 1272SOL    HW113630   3.115   4.067   0.884  1.9976  2.9371  2.1141
 1272SOL    HW213631   3.239   3.996   0.964  1.3072 -2.6769 -1.5871
 1273SOL     OW13632   3.508   4.084   2.312  0.0141  0.2340 -0.5718
 1273SOL    HW113633   3.565   4.075   2.394 -0.6976  2.6571  0.2565
 1273SOL    HW213634   3.421   4.037   2.327 -0.2125  0.8758  0.1770
 1274SOL     OW13635   3.224   3.629   1.505 -0.3267  0.2456  0.2517
 1274SOL    HW113636   3.228   3.538   1.464 -0.6886 -0.5259  1.8798
 1274SOL    HW213637   3.256   3.624   1.599  2.1346  2.3074 -0.4349
 1275SOL     OW13638   4.531   2.855   1.675  0.7870 -0.6647 -0.0486
 1275SOL    HW113639   4.494   2.901   1.756  0.6220 -0.3157 -0.3204
 1275SOL    HW213640   4.586   2.920   1.622  2.4668 -1.3937  0.7814
 1276SOL     OW13641   3.089   3.662   0.827 -0.2018 -0.0573  0.2609
 1276SOL    HW113642   2.995   3.632   0.812 -0.3495  0.9481 -0.9928
 1276SOL    HW213643   3.106   3.676   0.924 -0.9614 -1.4728  0.5963
 1277SOL     OW13644   2.409   5.722  -0.010 -0.3727 -0.2248 -0.3116
 1277SOL    HW113645   2.315   5.720   0.022 -0.4375 -0.3654 -0.5077
 1277SOL    HW213646   2.445   5.628  -0.013 -0.1674 -0.1547 -0.0605
 1278SOL     OW13647   2.593   3.839   2.176  0.6425  0.3238 -0.4081
 1278SOL    HW113648   2.629   3.838   2.083 -0.7945  0.4277 -0.9786
 1278SOL    HW213649   2.621   3.756   2.223 -0.8521 -1.0328 -1.8331
 1279SOL     OW13650   3.058   8.639   1.299  0.2157  0.1561  0.0139
 1279SOL    HW113651   3.060   8.716   1.235 -1.3030  1.7138  1.7446
 1279SOL    HW213652   3.117   8.659   1.377 -1.6909  0.4801  1.4114
 1280SOL     OW13653   3.572   4.611   0.891  0.1064 -0.1001 -0.4558
 1280SOL    HW113654   3.577   4.665   0.975  0.7122 -0.1376 -0.4670
 1280SOL    HW213655   3.492   4.638   0.838 -0.2002  0.0192  0.0703
 1281SOL     OW13656   2.212   5.048   1.412 -0.1810  0.5451  0.4250
 1281SOL    HW113657   2.243   5.014   1.323 -1.3234 -0.4867  0.4023
 1281SOL    HW213658   2.184   5.143   1.403  0.1850  0.5962 -0.2048
 1282SOL     OW13659   2.604   5.141   2.545 -0.2579 -0.0489  0.0566
 1282SOL    HW113660   2.569   5.091   2.466  0.9379 -1.3009  0.3200
 1282SOL    HW213661   2.561   5.106   2.628  0.5282 -0.6084  0.2335
 1283SOL     OW13662   4.207   1.673   1.945  0.2059  0.4884  0.0857
 1283SOL    HW113663   4.226   1.659   2.042 -1.9735 -0.6954  0.3587
 1283SOL    HW213664   4.158   1.760   1.933 -1.0239 -0.1711  0.2517
 1284SOL     OW13665   2.952   1.726  -0.093 -0.5018 -0.5639 -0.0060
 1284SOL    HW113666   2.917   1.641  -0.133 -1.0098 -0.2237 -0.2935
 1284SOL    HW213667   3.017   1.705  -0.020 -0.6093 -1.1976 -0.0947
 1285SOL     OW13668   3.395   2.242   1.586 -0.1054 -0.1279 -0.0253
 1285SOL    HW113669   3.331   2.210   1.657 -0.0888 -1.7022 -0.7056
 1285SOL    HW213670   3.369   2.202   1.498  0.8059  0.5916 -0.6228
 1286SOL     OW13671   2.715   2.248   0.252  0.3134 -0.2465 -0.0773
 1286SOL    HW113672   2.728   2.155   0.285  1.5568 -0.9617 -2.4265
 1286SOL    HW213673   2.706   2.311   0.329  0.3512 -2.1873  1.5291
 1287SOL     OW13674   3.171   8.026   2.420 -0.0090 -0.1055 -0.1266
 1287SOL    HW113675   3.201   8.102   2.477 -0.3477  0.0583 -0.1651
 1287SOL    HW213676   3.248   7.965   2.402  0.5150  0.8044 -1.0108
 1288SOL     OW13677   2.637   8.316   1.988  0.2678  0.3118  0.2532
 1288SOL    HW113678   2.716   8.258   2.007  1.2260  1.6480  0.4106
 1288SOL    HW213679   2.636   8.392   2.052 -0.9237  0.5318 -0.0218
 1289SOL     OW13680   2.930   8.109   2.295 -0.1632  0.1639  0.4257
 1289SOL    HW113681   2.964   8.161   2.217  0.8664 -0.1444  0.6606
 1289SOL    HW213682   3.006   8.088   2.357 -1.0195  0.6977  1.6888
 1290SOL     OW13683   2.591  10.045   1.300  0.1703 -0.1105  0.2685
 1290SOL    HW113684   2.586   9.946   1.299  1.7503 -0.2128  0.7837
 1290SOL    HW213685   2.583  10.079   1.394 -3.5248  0.4750 -0.1826
 1291SOL     OW13686   4.385   3.349   1.303 -0.2726  0.1539  0.5715
 1291SOL    HW113687   4.351   3.275   1.361  1.6129  0.0116  1.5408
 1291SOL    HW213688   4.309   3.392   1.255 -1.3083 -2.9686 -0.6952
 1292SOL     OW13689   3.099   9.190   0.478 -0.5816  0.0185 -0.1859
 1292SOL    HW113690   3.176   9.251   0.459 -0.4173  0.2473  1.1537
 1292SOL    HW213691   3.013   9.240   0.467 -0.4205  0.8654  2.0389
 1293SOL     OW13692   2.727   4.521   0.000 -0.2434  0.3208  0.2004
 1293SOL    HW113693   2.731   4.611  -0.043 -1.8888  0.0492 -0.5493
 1293SOL    HW213694   2.709   4.452  -0.070 -0.8265 -0.3764  1.0311
 1294SOL     OW13695   2.259   6.164   0.756  0.8703  0.2971 -0.6279
 1294SOL    HW113696   2.259   6.124   0.847  1.1149  1.0010 -0.3132
 1294SOL    HW213697   2.299   6.100   0.691  2.1029  0.4005  0.0251
 1295SOL     OW13698   3.036   4.664   1.545  0.0634  0.6290  0.1102
 1295SOL    HW113699   3.073   4.749   1.507  0.8838  0.9678  1.6301
 1295SOL    HW213700   3.085   4.586   1.508 -0.3736  0.8359 -0.9282
 1296SOL     OW13701   2.637   5.259   0.310  0.3475 -0.1825  0.1225
 1296SOL    HW113702   2.549   5.286   0.348  0.7468  0.0045  0.9050
 1296SOL    HW213703   2.680   5.338   0.267 -0.4684 -0.5672 -1.4677
 1297SOL     OW13704   2.846   1.924   1.832 -0.0335  0.1560  0.1152
 1297SOL    HW113705   2.796   2.007   1.857  0.3694  0.2246  0.7177
 1297SOL    HW213706   2.902   1.942   1.751 -2.8314 -0.6261 -2.0658
 1298SOL     OW13707   2.945   9.240   2.128 -0.2445 -0.0135  0.1344
 1298SOL    HW113708   3.005   9.251   2.049 -0.1632 -1.0865  0.0398
 1298SOL    HW213709   3.000   9.241   2.212 -0.1347 -0.6168  0.0705
 1299SOL     OW13710   3.451   7.874   0.106 -0.9176  0.5102  0.0780
 1299SOL    HW113711   3.408   7.791   0.070  0.6782 -0.3786  0.1748
 1299SOL    HW213712   3.433   7.950   0.044 -1.9055 -0.0416 -0.3195
 1300SOL     OW13713   3.683   3.352   0.812 -0.0337  0.1434 -0.2478
 1300SOL    HW113714   3.620   3.422   0.844  0.6115  1.3573 -1.6002
 1300SOL    HW213715   3.718   3.300   0.890 -2.4327 -0.3497  0.5521
 1301SOL     OW13716   2.578   3.631   1.961  0.2369 -0.0038  0.0039
 1301SOL    HW113717   2.665   3.596   1.927  0.3458  0.9152 -0.6965
 1301SOL    HW213718   2.541   3.698   1.896 -0.7715 -0.0524  0.5094
 1302SOL     OW13719   3.345   2.612   1.930  0.3017  0.7326  0.1274
 1302SOL    HW113720   3.343   2.616   1.830 -0.2822 -0.3050  0.1012
 1302SOL    HW213721   3.312   2.524   1.962  1.6973  0.5664  1.2044
 1303SOL     OW13722   3.607   4.659   2.342  0.3762 -0.0052 -0.5619
 1303SOL    HW113723   3.534   4.625   2.401  0.2938  0.8494 -0.1604
 1303SOL    HW213724   3.695   4.645   2.388  0.3912 -0.2599 -0.6716
 1304SOL     OW13725   2.659   3.277   1.080 -0.0482 -0.0501  0.5664
 1304SOL    HW113726   2.663   3.179   1.061 -1.7069  0.1365 -0.8794
 1304SOL    HW213727   2.629   3.291   1.174  2.6010 -0.9433  1.5653
 1305SOL     OW13728   3.344   5.785   2.073  0.0550 -0.1389  0.0521
 1305SOL    HW113729   3.315   5.826   2.159 -1.2783  1.3794 -1.0889
 1305SOL    HW213730   3.383   5.855   2.014 -1.4757 -0.6583 -1.6068
 1306SOL     OW13731   2.809   3.636   1.285 -0.3114 -0.0385  0.0244
 1306SOL    HW113732   2.841   3.672   1.372 -0.5380 -0.1574  0.1584
 1306SOL    HW213733   2.720   3.676   1.263  0.6053  1.4484 -1.0821
 1307SOL     OW13734   2.303   2.973   2.026 -0.3769  0.6759  0.2348
 1307SOL    HW113735   2.373   2.970   2.097  1.4416 -1.2771 -1.5858
 1307SOL    HW213736   2.229   2.910   2.049 -0.0735  0.4723  0.6482
 1308SOL     OW13737   3.977   3.400   0.149 -0.2683  0.1386 -0.5197
 1308SOL    HW113738   3.936   3.352   0.072  0.3834 -1.1343 -0.0951
 1308SOL    HW213739   3.930   3.373   0.233 -0.4906  0.9447 -0.3859
 1309SOL     OW13740   3.989   3.774  -0.080  0.2416 -0.1367  0.5153
 1309SOL    HW113741   4.086   3.792  -0.071  0.2003 -0.3385  1.3894
 1309SOL    HW213742   3.956   3.725   0.000 -0.0017 -2.5537 -0.9989
 1310SOL     OW13743   2.363   5.494   1.437  0.0472 -0.1021 -0.0834
 1310SOL    HW113744   2.399   5.558   1.505  0.0655  0.2505 -0.4183
 1310SOL    HW213745   2.376   5.400   1.468  0.3854  0.0497  0.2316
 1311SOL     OW13746   2.528   9.677   1.134 -0.1257 -0.0132  0.1762
 1311SOL    HW113747   2.541   9.698   1.231  0.0475 -0.7421  0.3145
 1311SOL    HW213748   2.613   9.693   1.084  0.0007 -0.3690  0.2779
 1312SOL     OW13749   2.552   7.144   1.479 -0.1828 -0.2584  0.3258
 1312SOL    HW113750   2.606   7.226   1.494  0.2019 -0.4586  0.0541
 1312SOL    HW213751   2.479   7.164   1.414  1.1717 -0.6474 -1.3467
 1313SOL     OW13752   2.963   9.583   0.523  0.5940 -0.1247 -0.0802
 1313SOL    HW113753   2.929   9.641   0.598  0.7525 -0.5904  0.3561
 1313SOL    HW213754   3.029   9.635   0.469 -0.2751  0.5540 -0.5148
 1314SOL     OW13755   3.601   8.658   0.999 -0.3295 -0.4194 -0.1162
 1314SOL    HW113756   3.652   8.592   1.054  0.5830  0.9654  0.7298
 1314SOL    HW213757   3.555   8.610   0.924  1.6038 -1.7826 -0.4605
 1315SOL     OW13758   4.037   9.172   0.414 -0.0306 -0.5350 -0.2637
 1315SOL    HW113759   3.983   9.239   0.465  1.2321  0.6755 -0.5219
 1315SOL    HW213760   4.129   9.207   0.398  0.8787 -2.6143  0.2078
 1316SOL     OW13761   2.476   3.145   1.885 -0.4412  0.1620  0.1625
 1316SOL    HW113762   2.432   3.077   1.943  1.6828 -1.2499  0.1997
 1316SOL    HW213763   2.500   3.225   1.940 -2.6775  0.8611  0.1820
 1317SOL     OW13764   4.360   2.110   0.496  0.9333  0.1186 -0.5141
 1317SOL    HW113765   4.414   2.162   0.430  1.8136 -0.1736 -0.0359
 1317SOL    HW213766   4.369   2.012   0.477  1.5062  0.0134  0.2660
 1318SOL     OW13767   2.696   5.705   0.855  0.0403  0.1485 -0.2750
 1318SOL    HW113768   2.620   5.750   0.902 -1.1434 -0.3797 -1.6700
 1318SOL    HW213769   2.694   5.607   0.875  1.2755  0.3478  0.9172
 1319SOL     OW13770   4.533   4.471   0.771  0.7849 -0.5517 -0.2479
 1319SOL    HW113771   4.521   4.389   0.827  1.5149 -0.3153  0.2566
 1319SOL    HW213772   4.550   4.443   0.676  0.2702 -0.9659 -0.2214
 1320SOL     OW13773   3.934   2.663   2.228  0.5397  0.1204  0.4733
 1320SOL    HW113774   4.019   2.656   2.175  0.5927  1.4712  0.3643
 1320SOL    HW213775   3.861   2.697   2.170  0.1233 -0.2529  0.7758
 1321SOL     OW13776   2.959   3.226   1.906 -0.4663 -0.0529 -0.0186
 1321SOL    HW113777   3.021   3.263   1.838 -0.6517  0.6764  0.1972
 1321SOL    HW213778   2.868   3.216   1.866 -0.9987  2.0609  0.6160
 1322SOL     OW13779   3.868   8.933   1.154  0.2102 -0.2438  0.2052
 1322SOL    HW113780   3.852   9.026   1.120  1.0989 -0.0015  0.4389
 1322SOL    HW213781   3.788   8.903   1.206  0.8978  1.3677  2.2750
 1323SOL     OW13782   3.676   4.405   1.386 -0.3481  0.2160  0.0020
 1323SOL    HW113783   3.626   4.320   1.370 -0.2599  0.2250 -0.3291
 1323SOL    HW213784   3.625   4.462   1.450 -0.3993 -0.0917  0.2343
 1324SOL     OW13785   3.227   0.410   2.355  0.0498  0.1322  0.0494
 1324SOL    HW113786   3.239   0.388   2.451 -0.9493  2.8311  0.8366
 1324SOL    HW213787   3.283   0.348   2.299  0.4364 -1.6164  2.3259
 1325SOL     OW13788   3.193   9.626   1.010  0.4043  0.1157  0.2713
 1325SOL    HW113789   3.139   9.594   0.932 -0.0450  1.3453  0.0798
 1325SOL    HW213790   3.140   9.615   1.094  0.0793  0.7934  0.1516
 1326SOL     OW13791   4.577   4.201   2.300  0.3811 -0.4169 -0.0466
 1326SOL    HW113792   4.636   4.186   2.380  1.6872  0.4687 -0.8192
 1326SOL    HW213793   4.503   4.263   2.325  1.5213  0.8824  0.1486
 1327SOL     OW13794   4.091   0.782   1.378 -0.0668  0.3110  0.1996
 1327SOL    HW113795   4.099   0.700   1.435  0.4197  1.6329  2.0808
 1327SOL    HW213796   4.183   0.815   1.355 -0.2042  1.8657  1.7630
 1328SOL     OW13797   3.780   2.688   0.426  0.4811  0.0623 -0.0252
 1328SOL    HW113798   3.830   2.722   0.346  0.2308 -1.4664 -0.8431
 1328SOL    HW213799   3.840   2.691   0.505  0.9746  0.8693 -0.4125
 1329SOL     OW13800   3.122   0.884   0.962 -0.1743 -0.5473 -0.1685
 1329SOL    HW113801   3.195   0.822   0.932  2.1043  1.4631  1.0269
 1329SOL    HW213802   3.077   0.923   0.882  0.4181 -1.3931 -0.9273
 1330SOL     OW13803   2.860   2.002   0.747  0.1627 -0.4098 -0.1780
 1330SOL    HW113804   2.899   1.911   0.731  0.1322 -0.1229 -1.8778
 1330SOL    HW213805   2.933   2.069   0.756  0.1538 -0.4522  0.2649
 1331SOL     OW13806   3.140   8.660   0.993 -0.2744 -0.0442  0.0525
 1331SOL    HW113807   3.149   8.561   1.003 -1.7513 -0.1375  0.5973
 1331SOL    HW213808   3.179   8.688   0.905  1.7930 -0.8499  0.6943
 1332SOL     OW13809   2.520   5.253   1.501  0.4431 -0.4090  0.1742
 1332SOL    HW113810   2.601   5.222   1.451 -0.0391  1.2753 -1.7238
 1332SOL    HW213811   2.479   5.175   1.549  0.7172 -2.2106 -2.3766
 1333SOL     OW13812   4.100   5.024   0.098 -0.7906 -0.2783 -0.1991
 1333SOL    HW113813   4.026   5.066   0.045 -0.2815  0.1910 -0.5342
 1333SOL    HW213814   4.079   5.032   0.195 -1.3607 -0.4674 -0.3057
 1334SOL     OW13815   4.844   2.808   1.640  0.0767 -0.5002 -0.1341
 1334SOL    HW113816   4.918   2.807   1.707 -0.5872 -1.3987  0.6044
 1334SOL    HW213817   4.756   2.801   1.687 -0.5580  1.7898 -0.9126
 1335SOL     OW13818   4.250   3.449   2.113 -0.8061  0.4577  0.4006
 1335SOL    HW113819   4.170   3.506   2.132 -0.0001  1.3862  1.0263
 1335SOL    HW213820   4.282   3.467   2.020 -1.0728  0.3915  0.2950
 1336SOL     OW13821   4.206   3.128   1.917  0.4471 -0.1809 -0.6131
 1336SOL    HW113822   4.163   3.048   1.874  1.1302 -0.2166 -1.2313
 1336SOL    HW213823   4.136   3.198   1.935 -0.4915 -1.6290  1.6240
 1337SOL     OW13824   4.245   1.121   1.259  0.8960  0.1082 -0.5962
 1337SOL    HW113825   4.169   1.073   1.214  0.6502 -0.3526  0.2962
 1337SOL    HW213826   4.325   1.120   1.199  0.7545 -1.0198 -0.7847
 1338SOL     OW13827   4.395   2.580   0.159 -0.4142  0.3359  0.7536
 1338SOL    HW113828   4.422   2.538   0.072 -0.0064  2.4624 -0.1869
 1338SOL    HW213829   4.471   2.633   0.195 -1.8518  2.7465  0.3396
 1339SOL     OW13830   3.753   4.522   0.698 -0.0095 -0.1578  0.7724
 1339SOL    HW113831   3.683   4.551   0.763 -0.3990 -0.4870  0.4986
 1339SOL    HW213832   3.741   4.425   0.677 -0.7376  0.2811 -0.8761
 1340SOL     OW13833   3.388   1.002   1.946 -0.3092  0.2752  0.5933
 1340SOL    HW113834   3.429   1.011   2.037  0.4176 -1.2102  0.4301
 1340SOL    HW213835   3.304   0.949   1.952 -0.4872  0.5375  0.4534
 1341SOL     OW13836   4.596   3.050   1.088 -0.0162 -0.8455  0.2286
 1341SOL    HW113837   4.666   3.107   1.043 -2.1358  0.6333 -1.3109
 1341SOL    HW213838   4.542   3.107   1.150  1.0711 -2.2967  2.5637
 1342SOL     OW13839   3.206   8.396   0.733 -0.4013  0.0752 -0.1606
 1342SOL    HW113840   3.198   8.312   0.787 -0.8244 -0.9292 -1.7363
 1342SOL    HW213841   3.115   8.437   0.721 -0.2228  0.6456  0.4312
 1343SOL     OW13842   4.000   9.018  -0.006  0.0662  0.1156  0.1422
 1343SOL    HW113843   3.999   8.925  -0.043  0.3166 -0.5551  1.7996
 1343SOL    HW213844   3.916   9.066  -0.033  0.3008 -0.3085 -1.3848
 1344SOL     OW13845   4.306   4.902   0.664 -0.0998  0.2436 -0.4969
 1344SOL    HW113846   4.386   4.842   0.659 -0.1730  0.3005 -3.3936
 1344SOL    HW213847   4.318   4.978   0.600 -1.7783  1.1026  0.1956
 1345SOL     OW13848   3.577   3.750   2.548 -0.1482  0.5605  0.0678
 1345SOL    HW113849   3.610   3.731   2.456  0.9792  1.8389  0.1830
 1345SOL    HW213850   3.611   3.681   2.611  2.1548  1.7043  0.1389
 1346SOL     OW13851   2.770   5.122   1.370  0.1467 -0.1370 -0.2754
 1346SOL    HW113852   2.764   5.043   1.310  0.7992 -0.6074  0.2696
 1346SOL    HW213853   2.865   5.135   1.399 -0.1967 -0.0469  0.8202
 1347SOL     OW13854   2.685   2.160   1.662 -0.0730 -0.0727 -0.5054
 1347SOL    HW113855   2.587   2.175   1.645  0.2758  1.9059 -0.9260
 1347SOL    HW213856   2.704   2.174   1.759  0.2273  2.2876 -0.8732
 1348SOL     OW13857   2.567   2.142   1.392 -0.1212 -0.4424  0.6008
 1348SOL    HW113858   2.572   2.121   1.294  1.1123  1.2571  0.2839
 1348SOL    HW213859   2.605   2.233   1.409 -1.2677 -0.2921  2.5354
 1349SOL     OW13860   3.044   6.208   1.286  0.1481 -0.4630 -0.5751
 1349SOL    HW113861   3.052   6.137   1.216 -2.0228  0.3530 -1.6963
 1349SOL    HW213862   3.056   6.298   1.244 -0.3755 -0.0064  0.2481
 1350SOL     OW13863   2.953   2.907   0.067 -0.2193  0.5310 -0.2720
 1350SOL    HW113864   3.045   2.924   0.033 -0.7025  0.6200 -1.5668
 1350SOL    HW213865   2.911   2.993   0.095 -0.2801  0.6236 -0.6453
 1351SOL     OW13866   3.751   4.173   0.943  0.1689  0.2023 -0.3418
 1351SOL    HW113867   3.743   4.243   1.014  0.9528  0.7946 -0.8284
 1351SOL    HW213868   3.669   4.175   0.885  0.2900  0.8858 -0.4988
 1352SOL     OW13869   3.103   6.555   0.267  0.0832  0.2426 -0.0314
 1352SOL    HW113870   3.167   6.568   0.192  1.2233  0.4254  0.9623
 1352SOL    HW213871   3.105   6.459   0.296 -1.0913 -0.0549 -0.8712
 1353SOL     OW13872   4.354   2.947   0.418 -0.1945  0.4142 -0.8392
 1353SOL    HW113873   4.302   2.919   0.499 -0.1517 -2.3377 -1.7155
 1353SOL    HW213874   4.299   3.008   0.362 -1.0731  0.5138  0.1198
 1354SOL     OW13875   2.560   1.497   2.428 -0.1385  0.2801 -0.3388
 1354SOL    HW113876   2.608   1.528   2.346 -2.4295  1.9447 -1.0809
 1354SOL    HW213877   2.591   1.550   2.507 -0.4065  1.0284 -0.7327
 1355SOL     OW13878   2.329   8.982   1.552 -0.0353 -0.1439  0.4924
 1355SOL    HW113879   2.378   8.921   1.614 -1.1303 -0.5859  0.9368
 1355SOL    HW213880   2.285   9.055   1.604 -0.7024 -0.3401  0.2142
 1356SOL     OW13881   2.693   1.574   2.205  0.3526  0.3187  0.3712
 1356SOL    HW113882   2.655   1.578   2.113  0.9758 -2.0351 -0.0326
 1356SOL    HW213883   2.738   1.660   2.227 -1.6602  1.6837 -0.6814
 1357SOL     OW13884   3.379   4.307   1.291  0.0547  0.8348 -0.0414
 1357SOL    HW113885   3.430   4.333   1.210 -0.0005 -0.7281 -0.5855
 1357SOL    HW213886   3.311   4.377   1.312  0.5454  1.5771 -0.9308
 1358SOL     OW13887   4.154   3.882   1.160  0.3856  0.5530 -0.1308
 1358SOL    HW113888   4.162   3.939   1.242  3.8063 -0.9542  0.6403
 1358SOL    HW213889   4.124   3.790   1.185 -0.1353  0.5359 -0.7845
 1359SOL     OW13890   3.707   4.969   2.284  0.0379  0.1110  0.1841
 1359SOL    HW113891   3.742   4.877   2.299  0.4052  0.1225 -0.5793
 1359SOL    HW213892   3.693   4.985   2.186 -2.5225 -0.0308  0.4917
 1360SOL     OW13893   2.959   8.495   0.653  0.6557 -0.2588  0.0171
 1360SOL    HW113894   2.948   8.397   0.637  1.7699 -0.1765 -1.3456
 1360SOL    HW213895   2.922   8.546   0.576 -0.7093  0.4507  1.1088
 1361SOL     OW13896   3.120   3.903   1.156  0.6041  0.4059  0.1513
 1361SOL    HW113897   3.220   3.897   1.157  0.5561 -0.5820 -0.5383
 1361SOL    HW213898   3.081   3.816   1.125 -0.4766  0.7461  0.5119
 1362SOL     OW13899   3.510   1.618   0.933  0.2990  0.3123 -0.1343
 1362SOL    HW113900   3.450   1.574   1.000 -0.8752  0.4970 -1.0620
 1362SOL    HW213901   3.520   1.715   0.956 -1.3701  0.7331 -1.0990
 1363SOL     OW13902   3.624   8.838   0.758 -0.0380 -0.1371 -0.1232
 1363SOL    HW113903   3.620   8.836   0.858  0.0356 -0.0399 -0.1185
 1363SOL    HW213904   3.698   8.779   0.727 -0.4831 -0.6862 -0.1467
 1364SOL     OW13905   4.156   2.888   1.459  0.1231 -0.5752 -0.3147
 1364SOL    HW113906   4.063   2.875   1.424  0.2817  1.5141 -1.6113
 1364SOL    HW213907   4.215   2.815   1.425 -1.0232 -1.9481  0.5611
 1365SOL     OW13908   3.950   1.753   2.132  0.6266  0.5172  0.2040
 1365SOL    HW113909   3.972   1.819   2.061  0.0456  0.2960 -0.1888
 1365SOL    HW213910   4.032   1.733   2.186  0.8878  1.2649  0.0815
 1366SOL     OW13911   2.941   2.174   0.942  0.0230  0.2962  0.0697
 1366SOL    HW113912   2.937   2.097   1.007 -0.1808  0.6245  0.4503
 1366SOL    HW213913   2.850   2.214   0.933  0.2281  0.7953  0.2346
 1367SOL     OW13914   2.845   1.395   1.228  0.5394 -0.3649  0.6298
 1367SOL    HW113915   2.928   1.449   1.211 -0.7628  1.2995 -0.6371
 1367SOL    HW213916   2.868   1.298   1.233  2.4017 -0.0080 -0.7018
 1368SOL     OW13917   3.682  10.168   0.133 -0.4522  0.5488  0.4502
 1368SOL    HW113918   3.715  10.255   0.170  0.2832  0.8140 -0.8185
 1368SOL    HW213919   3.582  10.168   0.133 -0.4556  1.5953 -0.0330
 1369SOL     OW13920   3.173   7.489   0.176  0.1970 -0.0912 -0.1202
 1369SOL    HW113921   3.133   7.421   0.115 -1.4275 -1.3449  2.2609
 1369SOL    HW213922   3.123   7.575   0.168 -0.3358 -0.4047 -0.2064
 1370SOL     OW13923   4.542   3.710   2.281  0.3203  0.3757  0.0733
 1370SOL    HW113924   4.461   3.756   2.243  0.2788 -0.8470 -1.3912
 1370SOL    HW213925   4.623   3.742   2.233  0.1381 -2.1249 -2.0588
 1371SOL     OW13926   3.685   1.901   0.684  0.0970 -0.4576  0.0464
 1371SOL    HW113927   3.722   1.994   0.692  1.2090 -0.9523  0.7001
 1371SOL    HW213928   3.629   1.895   0.601 -2.0873  1.5063  1.3010
 1372SOL     OW13929   2.227   7.156   0.521  0.0953 -0.0687  0.1371
 1372SOL    HW113930   2.195   7.076   0.572  0.4229  0.1558  0.6924
 1372SOL    HW213931   2.266   7.125   0.434  1.3678 -0.6331  0.8950
 1373SOL     OW13932   2.872   5.167   2.120 -0.0216  0.3651  0.2008
 1373SOL    HW113933   2.909   5.242   2.064 -2.2755 -0.2877 -2.2646
 1373SOL    HW213934   2.785   5.194   2.159 -0.6428 -0.8096 -0.3492
 1374SOL     OW13935   2.832   1.045   1.024 -0.0243 -0.0628 -0.2035
 1374SOL    HW113936   2.763   0.982   1.060 -1.8840  2.0065 -0.0151
 1374SOL    HW213937   2.885   1.083   1.100  1.7409 -2.0551 -0.3879
 1375SOL     OW13938   3.980   3.074   0.231  0.0581  0.0216 -0.3135
 1375SOL    HW113939   4.076   3.093   0.253 -0.3254  2.9461 -0.9299
 1375SOL    HW213940   3.922   3.146   0.270 -1.9069 -1.6709  0.0085
 1376SOL     OW13941   2.867   4.883   2.125  0.0009 -0.3452  0.0787
 1376SOL    HW113942   2.902   4.878   2.032 -1.0212  0.2048 -0.3439
 1376SOL    HW213943   2.866   4.979   2.155  0.0588 -0.4898  0.5418
 1377SOL     OW13944   2.373   4.721  -0.085 -0.2208 -0.2775 -0.1000
 1377SOL    HW113945   2.399   4.706   0.010  0.3292  1.3531  0.0167
 1377SOL    HW213946   2.382   4.636  -0.136  1.3424 -0.7180  0.8787
 1378SOL     OW13947   2.363   3.988   1.616  0.3627  0.4549 -0.2003
 1378SOL    HW113948   2.345   4.025   1.707  0.2044  0.6069 -0.2953
 1378SOL    HW213949   2.428   3.911   1.624  0.6499  0.7156 -0.0024
 1379SOL     OW13950   3.297   1.486   1.047 -0.4195  0.2543 -0.0214
 1379SOL    HW113951   3.227   1.514   1.114 -1.4799  0.0166 -1.0135
 1379SOL    HW213952   3.314   1.388   1.057 -0.3173  0.2897  0.1470
 1380SOL     OW13953   3.396   3.706   1.733  0.4939  0.3307  0.0390
 1380SOL    HW113954   3.367   3.713   1.829  0.8831 -0.9245  0.2533
 1380SOL    HW213955   3.489   3.741   1.723  0.3604  0.7000  0.0635
 1381SOL     OW13956   2.895   8.585  -0.080  0.0831 -0.2718  0.1802
 1381SOL    HW113957   2.807   8.551  -0.113  0.3933 -0.8517 -0.0650
 1381SOL    HW213958   2.966   8.516  -0.098  0.1910 -0.7854  2.4261
 1382SOL     OW13959   3.439   3.366   1.451  0.2530  0.7318 -0.1636
 1382SOL    HW113960   3.462   3.287   1.394 -2.0935 -0.1072 -0.0077
 1382SOL    HW213961   3.341   3.366   1.469  0.4650  2.8548  1.1174
 1383SOL     OW13962   4.199   2.205   1.769 -0.5201  0.1066  0.1821
 1383SOL    HW113963   4.173   2.207   1.865 -0.5701 -2.3605  0.2479
 1383SOL    HW213964   4.116   2.206   1.712 -0.4908  1.5582  0.1421
 1384SOL     OW13965   3.261   1.157   1.029  0.2242  0.0806  0.8795
 1384SOL    HW113966   3.254   1.173   0.931 -1.4960  0.2945  1.0236
 1384SOL    HW213967   3.235   1.063   1.050 -1.1962  0.5582  1.3159
 1385SOL     OW13968   2.991   4.077   1.768  0.0549 -0.3431  0.4733
 1385SOL    HW113969   3.068   4.016   1.750  0.1650  0.1173 -0.6595
 1385SOL    HW213970   2.996   4.156   1.707 -1.1315 -0.1371  0.6226
 1386SOL     OW13971   2.946   6.396   1.835  0.3478  0.2670 -0.6832
 1386SOL    HW113972   2.941   6.309   1.884  0.3375  1.2230  1.0785
 1386SOL    HW213973   2.881   6.396   1.759  0.4839 -1.3217 -0.8020
 1387SOL     OW13974   4.159   8.453   0.834 -0.4847  0.2719 -0.0442
 1387SOL    HW113975   4.242   8.453   0.778 -0.3414 -2.4789  0.0672
 1387SOL    HW213976   4.159   8.534   0.893  3.1975 -0.6692  1.4479
 1388SOL     OW13977   3.439   9.766   2.530 -0.1662  0.0686 -0.3003
 1388SOL    HW113978   3.509   9.696   2.543 -0.1257 -0.1736 -1.7252
 1388SOL    HW213979   3.432   9.789   2.433 -0.7269  1.4816  0.0556
 1389SOL     OW13980   4.325   3.436   1.858 -0.6056 -0.0224 -0.6405
 1389SOL    HW113981   4.422   3.433   1.833 -0.5736 -2.5593 -0.3258
 1389SOL    HW213982   4.273   3.380   1.793 -1.4466 -1.0878  0.9337
 1390SOL     OW13983   3.450   4.684   2.573  1.0082  0.3634 -0.5210
 1390SOL    HW113984   3.352   4.683   2.555  1.1689  1.3948 -1.5698
 1390SOL    HW213985   3.477   4.776   2.602  1.8625  0.3972 -1.4209
 1391SOL     OW13986   2.853   6.681   0.269 -0.1991 -0.0970  0.3138
 1391SOL    HW113987   2.934   6.623   0.276  0.1564  0.1480 -1.4887
 1391SOL    HW213988   2.868   6.766   0.319 -0.1189 -0.8612  1.6357
 1392SOL     OW13989   4.118   5.334   2.072  0.1371  0.2843  0.7003
 1392SOL    HW113990   4.113   5.342   1.973 -0.8029 -2.1038  0.5196
 1392SOL    HW213991   4.103   5.424   2.114  0.4141  1.2799 -1.2964
 1393SOL     OW13992   2.726   9.189   0.345  0.0332  0.1935  0.1083
 1393SOL    HW113993   2.776   9.227   0.423  1.2797  1.8900 -1.4664
 1393SOL    HW213994   2.632   9.222   0.346 -0.0695 -0.1273  1.1159
 1394SOL     OW13995   3.997   1.605   1.360 -0.7585  0.3663 -0.2192
 1394SOL    HW113996   4.046   1.612   1.447  1.4720 -0.1261 -1.3989
 1394SOL    HW213997   4.055   1.558   1.293 -0.7463  4.3673 -3.1968
 1395SOL     OW13998   3.275   3.473   1.095  0.2864  0.3624 -0.4240
 1395SOL    HW113999   3.254   3.441   1.003  1.9132  0.1245 -0.7137
 1395SOL    HW214000   3.370   3.452   1.118  0.8027  3.1711  0.1657
 1396SOL     OW14001   3.623   8.004   0.483 -0.2792 -0.0275  0.1281
 1396SOL    HW114002   3.613   7.911   0.517 -1.1346  0.0573  0.1100
 1396SOL    HW214003   3.642   8.003   0.385 -3.4673 -0.1001 -0.5459
 1397SOL     OW14004   4.166   2.525   0.332  0.0209  0.0072  0.0756
 1397SOL    HW114005   4.174   2.615   0.374 -1.0248  1.0480 -1.8530
 1397SOL    HW214006   4.231   2.517   0.257  0.2717 -0.9429  0.3847
 1398SOL     OW14007   3.612   2.962   1.709  0.1452  0.3214 -0.2952
 1398SOL    HW114008   3.571   2.874   1.731  1.4871 -0.5810 -1.3582
 1398SOL    HW214009   3.608   2.978   1.611  1.7317  0.5100 -0.3461
 1399SOL     OW14010   3.719   9.884   1.879  0.3017 -0.2973  0.2825
 1399SOL    HW114011   3.666   9.964   1.851  0.4276 -0.3656 -0.1566
 1399SOL    HW214012   3.815   9.895   1.851  0.4943 -0.2348  0.9517
 1400SOL     OW14013   3.541   9.323   0.316  0.6941  0.2373 -0.1440
 1400SOL    HW114014   3.519   9.261   0.239  2.4556 -0.5755 -0.0183
 1400SOL    HW214015   3.553   9.269   0.399  0.1139  0.9896  0.4354
 1401SOL     OW14016   4.184   1.394  -0.102 -0.2799  0.0529 -0.3042
 1401SOL    HW114017   4.213   1.398  -0.006 -2.3359  1.4745  0.3075
 1401SOL    HW214018   4.088   1.367  -0.106  0.0075 -0.7431 -2.0213
 1402SOL     OW14019   4.215   3.558   0.493 -0.5320 -0.1276  0.2126
 1402SOL    HW114020   4.138   3.552   0.557 -1.6219 -1.8392 -1.2096
 1402SOL    HW214021   4.222   3.473   0.442  1.2975  0.6404 -0.8463
 1403SOL     OW14022   3.709   5.702   1.479 -0.1161 -0.2034  0.1116
 1403SOL    HW114023   3.637   5.697   1.549 -0.3009  0.7102  0.0026
 1403SOL    HW214024   3.675   5.664   1.393  0.5015 -2.3975  0.8175
 1404SOL     OW14025   3.116   4.770   0.982 -0.4190 -0.1120 -0.2047
 1404SOL    HW114026   3.023   4.781   1.019  0.2978  0.4722  1.4643
 1404SOL    HW214027   3.137   4.672   0.974 -1.3360 -0.2581 -1.0538
 1405SOL     OW14028   3.832   0.755   2.116 -0.1077 -0.3026 -0.1646
 1405SOL    HW114029   3.734   0.761   2.135 -0.2861 -0.1036 -1.1590
 1405SOL    HW214030   3.862   0.660   2.122  0.1632 -0.0951  2.7041
 1406SOL     OW14031   2.629   8.037   0.677  0.2224 -0.2395  0.1567
 1406SOL    HW114032   2.709   8.086   0.642  1.6120 -3.2785 -1.2095
 1406SOL    HW214033   2.659   7.968   0.743 -1.3966 -0.5990  0.5235
 1407SOL     OW14034   2.907   8.971   1.504  0.1654 -0.4376 -0.0964
 1407SOL    HW114035   2.986   9.023   1.471  0.4135 -0.1764  0.8893
 1407SOL    HW214036   2.877   8.908   1.433  1.8244 -1.1610 -0.1806
 1408SOL     OW14037   3.457   5.715   0.857  0.0169 -0.0331  0.0622
 1408SOL    HW114038   3.381   5.650   0.850 -0.6922  0.5926  1.8237
 1408SOL    HW214039   3.506   5.717   0.769 -1.4202 -1.1261 -0.8008
 1409SOL     OW14040   2.269   3.187   1.683 -0.5442 -0.5800  0.1987
 1409SOL    HW114041   2.307   3.122   1.617 -1.4084 -0.9459  0.0610
 1409SOL    HW214042   2.327   3.189   1.765  0.6316  0.0055 -0.6315
 1410SOL     OW14043   2.538   9.278   1.384 -0.5053 -0.2112  0.1070
 1410SOL    HW114044   2.616   9.289   1.323 -0.6996  1.6776  0.1646
 1410SOL    HW214045   2.475   9.210   1.347 -0.1900  0.2897 -1.3465
 1411SOL     OW14046   3.367   1.905   2.453  0.0097  0.0250 -0.0509
 1411SOL    HW114047   3.395   2.001   2.455  1.1939 -0.2388 -1.8628
 1411SOL    HW214048   3.269   1.899   2.436 -0.2460  0.9193  1.0615
 1412SOL     OW14049   4.199   3.319   1.625 -0.1959 -0.6180  0.6146
 1412SOL    HW114050   4.231   3.247   1.562 -1.2113 -0.2076 -0.3936
 1412SOL    HW214051   4.107   3.298   1.656 -0.5106  0.2623  0.2915
 1413SOL     OW14052   4.657   2.811   0.615  0.2190 -0.1829  0.8869
 1413SOL    HW114053   4.700   2.897   0.642  1.0534 -0.1414 -0.5398
 1413SOL    HW214054   4.616   2.820   0.524 -3.4124 -0.0312  2.4228
 1414SOL     OW14055   2.677   6.143   0.932  0.4856  1.3145 -0.7834
 1414SOL    HW114056   2.704   6.179   1.021  1.3625 -1.2917  0.0747
 1414SOL    HW214057   2.741   6.071   0.905 -1.8909 -0.5290 -1.7428
 1415SOL     OW14058   3.416  10.197   0.423 -0.2833 -0.5394  0.3509
 1415SOL    HW114059   3.415  10.186   0.324  0.5548 -1.2820  0.4131
 1415SOL    HW214060   3.324  10.181   0.459 -0.3007 -1.6606 -0.1683
 1416SOL     OW14061   3.979   4.414   1.453 -0.2127  0.6171 -0.3851
 1416SOL    HW114062   4.019   4.506   1.460  0.9435  0.1258 -0.4672
 1416SOL    HW214063   3.881   4.422   1.435 -1.0516  1.9111  4.0294
 1417SOL     OW14064   2.945   0.448  -0.090  0.5913 -0.6387  0.2988
 1417SOL    HW114065   2.847   0.455  -0.108  0.4408  0.9908  1.6192
 1417SOL    HW214066   2.994   0.439  -0.176 -0.4965  1.3738 -0.5490
 1418SOL     OW14067   3.854   9.487   1.534 -0.3806  0.1612  0.1752
 1418SOL    HW114068   3.803   9.403   1.552 -0.9452 -0.0953 -2.3378
 1418SOL    HW214069   3.930   9.495   1.598 -0.2023 -2.3786  0.3291
 1419SOL     OW14070   4.734   3.155   0.280 -0.0649  0.1911 -0.1355
 1419SOL    HW114071   4.811   3.162   0.216  0.2680  0.4355  0.2912
 1419SOL    HW214072   4.712   3.245   0.316  0.1857 -0.0368  0.6059
 1420SOL     OW14073   2.344   7.909   0.375 -0.1557  0.1088 -0.1803
 1420SOL    HW114074   2.283   7.940   0.302 -0.8102  0.6117  0.5703
 1420SOL    HW214075   2.350   7.979   0.446 -0.6439 -0.9296  0.9127
 1421SOL     OW14076   3.794   1.139   1.003 -0.6183 -0.7487  0.3382
 1421SOL    HW114077   3.849   1.123   1.085 -0.3631 -1.0023  0.1176
 1421SOL    HW214078   3.808   1.064   0.938  1.7810  1.0980 -1.3631
 1422SOL     OW14079   3.739   2.467   0.660  0.5369  1.0190 -0.2532
 1422SOL    HW114080   3.837   2.471   0.637  0.8491 -1.0027  0.6098
 1422SOL    HW214081   3.693   2.404   0.598  0.0181  1.0278  0.1193
 1423SOL     OW14082   3.317   2.116   2.109 -0.2365 -0.1947  0.0389
 1423SOL    HW114083   3.398   2.080   2.062 -0.4160  0.2320 -0.6128
 1423SOL    HW214084   3.341   2.140   2.203  0.6385  0.7904 -0.4260
 1424SOL     OW14085   2.549   5.891   1.357 -0.1670  0.0227  0.5467
 1424SOL    HW114086   2.644   5.887   1.327 -0.5509 -0.5517 -0.6062
 1424SOL    HW214087   2.517   5.986   1.358  0.0375  0.0970 -0.2382
 1425SOL     OW14088   4.005   3.572   2.185 -0.0317 -0.1043  0.5314
 1425SOL    HW114089   3.909   3.585   2.162 -0.7825 -3.5793  1.3755
 1425SOL    HW214090   4.020   3.590   2.282 -0.3621 -1.8499  0.9282
 1426SOL     OW14091   3.675   5.275   0.762 -0.2945 -0.1736  0.2067
 1426SOL    HW114092   3.735   5.335   0.709 -0.2442  0.0705  0.5394
 1426SOL    HW214093   3.625   5.215   0.699  0.3848 -0.4649 -0.0664
 1427SOL     OW14094   3.020   1.786   0.636 -0.2921 -0.4853  0.1392
 1427SOL    HW114095   3.068   1.728   0.702  0.5317  0.5346  0.4478
 1427SOL    HW214096   2.972   1.729   0.569 -0.5700 -1.5273  1.2142
 1428SOL     OW14097   3.320   4.103   1.472 -0.1630  0.1602  0.5975
 1428SOL    HW114098   3.361   4.170   1.411 -0.1134 -0.1497  0.2856
 1428SOL    HW214099   3.338   4.011   1.437 -0.7252  0.0059  0.7036
 1429SOL     OW14100   3.257   9.415   0.374  0.4815 -0.0334 -0.2043
 1429SOL    HW114101   3.350   9.379   0.374  1.0065  1.2658  2.1296
 1429SOL    HW214102   3.253   9.499   0.428 -1.8625  0.4412 -1.0347
 1430SOL     OW14103   3.960   2.926   0.629 -0.4989  0.0089  0.0862
 1430SOL    HW114104   4.047   2.880   0.619  0.5132  2.1889 -1.5315
 1430SOL    HW214105   3.908   2.885   0.704  0.6969 -3.1282 -0.7560
 1431SOL     OW14106   2.932   0.687   1.056  0.0342  0.4255 -0.3403
 1431SOL    HW114107   2.986   0.765   1.024  0.1168 -0.2483 -1.8836
 1431SOL    HW214108   2.927   0.618   0.984 -1.3619 -0.3223  0.4485
 1432SOL     OW14109   2.530   2.771   1.847 -0.2117 -0.5689  0.4253
 1432SOL    HW114110   2.511   2.696   1.910 -1.7050 -1.4325 -1.0023
 1432SOL    HW214111   2.459   2.841   1.857 -1.0148 -1.1640 -0.9422
 1433SOL     OW14112   2.856   5.515   1.380 -0.7027  0.6243 -0.0144
 1433SOL    HW114113   2.808   5.458   1.447 -3.8405 -0.1976 -2.8426
 1433SOL    HW214114   2.938   5.467   1.348 -0.6202 -0.1188  1.2898
 1434SOL     OW14115   4.406   2.867   0.793  0.1297  0.4879 -0.3808
 1434SOL    HW114116   4.431   2.841   0.887 -0.3942  2.0389  0.1947
 1434SOL    HW214117   4.474   2.830   0.730 -0.5211 -2.1731  0.4102
 1435SOL     OW14118   3.891   1.547   0.052 -0.1660  0.4561 -0.1075
 1435SOL    HW114119   3.984   1.563   0.086 -0.2758 -0.4133  0.6161
 1435SOL    HW214120   3.832   1.521   0.128 -0.3423 -1.8505 -1.0055
 1436SOL     OW14121   2.203   6.673   0.932  0.4983 -0.1253  0.3108
 1436SOL    HW114122   2.162   6.618   0.859  0.2691 -1.2430  1.2804
 1436SOL    HW214123   2.299   6.693   0.908  0.2589  0.0192 -0.5630
 1437SOL     OW14124   2.535   2.614   2.086 -0.5135 -0.3989 -0.1627
 1437SOL    HW114125   2.504   2.679   2.154  0.5089 -1.0845  0.9747
 1437SOL    HW214126   2.530   2.521   2.123  0.4699 -0.7407 -0.8436
 1438SOL     OW14127   3.208   9.622  -0.116  0.0761  0.1489 -0.3275
 1438SOL    HW114128   3.186   9.525  -0.114 -0.1871  0.1825 -1.5528
 1438SOL    HW214129   3.307   9.633  -0.126  0.6063  0.0076  3.8341
 1439SOL     OW14130   4.318   3.115   1.490 -0.7310  0.1586  0.0435
 1439SOL    HW114131   4.239   3.054   1.496 -1.0422  0.5320 -0.2527
 1439SOL    HW214132   4.391   3.068   1.441 -0.3799 -0.5854  1.2442
 1440SOL     OW14133   2.372   9.679   0.431  0.6751  0.4321  0.3643
 1440SOL    HW114134   2.408   9.620   0.504  4.3846  2.2424  0.1293
 1440SOL    HW214135   2.374   9.629   0.344  1.5293  0.0757  0.5772
 1441SOL     OW14136   5.078   2.800   1.327  0.4814 -0.1947 -0.5115
 1441SOL    HW114137   5.010   2.728   1.309 -0.8177  0.8912 -0.0466
 1441SOL    HW214138   5.042   2.863   1.396  1.7096  0.7571 -0.7276
 1442SOL     OW14139   3.205   8.985   0.279  0.0007 -0.2967 -0.1565
 1442SOL    HW114140   3.120   9.022   0.242 -0.4319 -1.0006  0.1421
 1442SOL    HW214141   3.191   8.957   0.374  0.2049 -1.6520 -0.5151
 1443SOL     OW14142   3.237   5.036   0.425  0.1777  0.0465  0.5073
 1443SOL    HW114143   3.190   4.952   0.450  0.6726 -0.6072 -0.7045
 1443SOL    HW214144   3.319   5.014   0.372 -0.5627  1.3343 -1.2252
 1444SOL     OW14145   2.901   8.052   1.893  0.8257 -0.1279  0.1946
 1444SOL    HW114146   2.911   8.062   1.794 -2.2782  0.2387 -0.1339
 1444SOL    HW214147   2.924   8.138   1.939  2.7560 -0.4495 -0.1488
 1445SOL     OW14148   3.485   4.128   0.498  0.4751 -0.5289  0.0535
 1445SOL    HW114149   3.389   4.110   0.519  0.3763  1.1915  1.1576
 1445SOL    HW214150   3.530   4.043   0.471 -1.1255 -1.5063  0.4389
 1446SOL     OW14151   4.000   2.814   2.485 -0.3128  0.0803  0.0852
 1446SOL    HW114152   3.965   2.771   2.401  0.6165 -1.1788  0.3293
 1446SOL    HW214153   4.030   2.743   2.548  0.0800  1.0705  1.0168
 1447SOL     OW14154   5.101   3.704   0.636  0.6070 -0.6036  0.2327
 1447SOL    HW114155   5.183   3.755   0.662  0.7150  0.3946 -1.9338
 1447SOL    HW214156   5.127   3.616   0.596  0.6899  0.0446 -1.1802
 1448SOL     OW14157   3.245   9.523   1.517  0.3171  0.0022 -0.1672
 1448SOL    HW114158   3.303   9.601   1.492 -1.1630  1.5079  0.9699
 1448SOL    HW214159   3.219   9.532   1.613 -1.1449 -1.0790 -0.4589
 1449SOL     OW14160   3.436   0.497   0.959  0.2799  0.6671  0.0837
 1449SOL    HW114161   3.421   0.472   1.054  1.7910 -0.4881  0.0284
 1449SOL    HW214162   3.407   0.592   0.945 -1.3998  0.3611  1.3087
 1450SOL     OW14163   3.093   7.318   0.918 -0.0204 -0.0560  0.1493
 1450SOL    HW114164   3.137   7.328   1.007  1.7961 -0.6737 -0.6524
 1450SOL    HW214165   3.162   7.324   0.846 -0.5526 -5.1675 -0.9983
 1451SOL     OW14166   4.849   2.935   0.032  0.2953 -0.3878  0.1344
 1451SOL    HW114167   4.901   2.985  -0.037  1.5342 -0.6596  0.8513
 1451SOL    HW214168   4.752   2.953   0.021  0.5291 -0.0310 -1.3568
 1452SOL     OW14169   3.994   0.939   0.577  0.0494 -0.0514 -0.1026
 1452SOL    HW114170   3.972   0.889   0.494 -0.3188 -0.6845  0.3719
 1452SOL    HW214171   4.010   1.035   0.555 -0.9293 -0.0369 -0.7809
 1453SOL     OW14172   3.005   5.762   2.205  1.2311 -0.2790 -0.0273
 1453SOL    HW114173   3.061   5.701   2.149  2.5070  2.4758 -1.8549
 1453SOL    HW214174   3.022   5.857   2.178 -0.7315  0.9082  2.7099
 1454SOL     OW14175   2.773   2.898   2.334  0.1073 -0.1423 -0.3764
 1454SOL    HW114176   2.802   2.973   2.274  1.2004  0.6281  1.0672
 1454SOL    HW214177   2.841   2.887   2.407 -0.6588 -1.7656  0.1009
 1455SOL     OW14178   3.894   4.064   1.249  0.0779  0.1041  0.2819
 1455SOL    HW114179   3.907   4.157   1.216 -1.1153  0.4901  0.8448
 1455SOL    HW214180   3.876   4.003   1.172 -1.5406  0.7834  0.1025
 1456SOL     OW14181   2.502   7.232   0.182 -0.4821 -0.1364 -0.6348
 1456SOL    HW114182   2.487   7.147   0.232  3.1491 -0.1439  0.5774
 1456SOL    HW214183   2.457   7.308   0.229  0.6952 -0.5814  1.2771
 1457SOL     OW14184   3.667   5.693   1.042 -0.5950  0.4236 -0.1218
 1457SOL    HW114185   3.689   5.766   1.106  0.9798  0.4421 -0.6738
 1457SOL    HW214186   3.576   5.710   1.003 -1.0547  1.0459  1.1948
 1458SOL     OW14187   2.613   2.405   1.285  0.3081  0.0776  0.4913
 1458SOL    HW114188   2.657   2.494   1.299  1.1275 -0.3712  0.7722
 1458SOL    HW214189   2.614   2.383   1.187 -0.1704  0.5203  0.3878
 1459SOL     OW14190   3.472   8.119   0.787 -0.1325  0.1074  0.1935
 1459SOL    HW114191   3.542   8.189   0.794 -0.4337  0.8139 -3.0662
 1459SOL    HW214192   3.458   8.095   0.690 -2.2967 -2.1214  1.0053
 1460SOL     OW14193   2.406   2.324   2.426 -0.1513 -0.7120 -0.4966
 1460SOL    HW114194   2.339   2.303   2.497  0.6777  0.5604  0.6856
 1460SOL    HW214195   2.461   2.403   2.454  2.4604 -2.2925 -1.0234
 1461SOL     OW14196   1.999   6.321   2.490 -0.4602 -0.6477  0.0911
 1461SOL    HW114197   2.011   6.238   2.545 -0.0574 -1.4563 -1.1692
 1461SOL    HW214198   1.992   6.295   2.393  2.9795  1.0214 -0.6740
 1462SOL     OW14199   3.092   5.838   0.333  0.1276 -0.2787  0.0907
 1462SOL    HW114200   3.031   5.802   0.404 -0.5091  1.3043  0.3792
 1462SOL    HW214201   3.037   5.878   0.260  0.8069  1.4444  0.4982
 1463SOL     OW14202   2.208   6.607   0.580  0.1767  0.0238 -0.0645
 1463SOL    HW114203   2.288   6.621   0.522  0.5287  0.2332  0.4663
 1463SOL    HW214204   2.228   6.536   0.648  0.5304  1.3116  1.2088
 1464SOL     OW14205   4.107   8.401   2.526  0.1440 -0.4160  0.2186
 1464SOL    HW114206   4.064   8.424   2.613  1.0624 -1.0245  0.8426
 1464SOL    HW214207   4.151   8.312   2.534 -1.8162 -1.6087 -1.5990
 1465SOL     OW14208   3.974   3.304  -0.106  0.1303 -0.6061  0.4235
 1465SOL    HW114209   4.014   3.239  -0.171  1.1071 -0.8409  1.2370
 1465SOL    HW214210   3.979   3.396  -0.143 -0.7377 -0.9223 -0.4918
 1466SOL     OW14211   4.545   3.646   2.550 -0.2698  0.1601 -0.4803
 1466SOL    HW114212   4.571   3.663   2.455 -0.4835 -0.8063 -0.7185
 1466SOL    HW214213   4.562   3.728   2.605  0.7746  0.4004 -1.1561
 1467SOL     OW14214   3.256   3.988   0.017 -0.0701  0.1219 -0.2873
 1467SOL    HW114215   3.160   4.019   0.014 -0.2395 -0.1748  1.6290
 1467SOL    HW214216   3.310   4.052   0.071  0.6383 -0.1954 -0.6159
 1468SOL     OW14217   3.466  10.108   2.446  0.2880 -0.4246  0.1822
 1468SOL    HW114218   3.441  10.016   2.414  0.6945 -1.2083  2.0826
 1468SOL    HW214219   3.543  10.102   2.509 -0.9775  0.9863  1.9285
 1469SOL     OW14220   2.605   1.726   1.152  0.7797  0.0266  0.2006
 1469SOL    HW114221   2.632   1.632   1.132  1.5376  0.1162  0.8040
 1469SOL    HW214222   2.644   1.787   1.082  0.4102 -0.0836 -0.1062
 1470SOL     OW14223   3.423   4.675   1.176 -0.1307 -0.4038  0.0702
 1470SOL    HW114224   3.468   4.763   1.168  1.9605 -1.2421  2.1691
 1470SOL    HW214225   3.384   4.650   1.087  1.6604  1.3317 -1.2622
 1471SOL     OW14226   3.131   4.792   0.461 -0.2358  0.2186  0.0532
 1471SOL    HW114227   3.095   4.727   0.394 -0.8511  0.8584 -0.2488
 1471SOL    HW214228   3.122   4.754   0.553 -0.2721 -0.2718 -0.1509
 1472SOL     OW14229   2.147   9.868   2.264  0.1007 -0.1657  0.5767
 1472SOL    HW114230   2.070   9.924   2.295  0.6921  1.5906 -0.9711
 1472SOL    HW214231   2.172   9.803   2.335 -1.4146  0.7096  1.9567
 1473SOL     OW14232   1.956   5.881   2.364  0.2198 -0.1109 -0.3458
 1473SOL    HW114233   1.997   5.963   2.403  0.0265  0.2731 -0.9504
 1473SOL    HW214234   1.869   5.861   2.411  0.6513 -0.4234  0.3325
 1474SOL     OW14235   2.408   8.962   1.056  0.1911  0.1486  0.0700
 1474SOL    HW114236   2.483   8.985   0.994  1.1030 -3.2101 -0.2045
 1474SOL    HW214237   2.385   8.865   1.045 -1.1593  0.0392  3.3578
 1475SOL     OW14238   4.078   4.709   1.485 -0.5100  0.4500 -0.5041
 1475SOL    HW114239   4.118   4.771   1.418 -0.9088 -0.7739 -1.8979
 1475SOL    HW214240   4.150   4.670   1.542 -0.0479  0.6664 -0.9318
 1476SOL     OW14241   2.429   8.469   1.714  0.0464  0.1414  0.5114
 1476SOL    HW114242   2.381   8.525   1.647  0.3661  0.4586  0.5403
 1476SOL    HW214243   2.392   8.486   1.805  1.3590  1.7204  0.7883
 1477SOL     OW14244   2.638   1.301   1.844  0.8981  0.1022  0.3478
 1477SOL    HW114245   2.602   1.264   1.930  1.6581  0.1324  0.6826
 1477SOL    HW214246   2.733   1.331   1.857  0.6487  1.1608 -0.2110
 1478SOL     OW14247   2.560   2.516   2.520  0.7708 -0.2169  0.3589
 1478SOL    HW114248   2.568   2.615   2.535 -0.6945  0.3544 -2.3173
 1478SOL    HW214249   2.617   2.468   2.587  0.2104  2.3464  2.7906
 1479SOL     OW14250   2.989   2.186   2.172  0.2623 -0.2505 -0.1664
 1479SOL    HW114251   2.994   2.091   2.142  0.3717 -0.4444  0.4793
 1479SOL    HW214252   3.023   2.245   2.099  0.3699 -0.7167 -0.4946
 1480SOL     OW14253   4.283   3.325   2.370  0.1044 -0.6713 -0.3301
 1480SOL    HW114254   4.304   3.372   2.284 -1.2683  0.6158  0.0156
 1480SOL    HW214255   4.335   3.240   2.375  1.5968  0.1258 -1.6075
 1481SOL     OW14256   2.413   5.481   0.772 -0.2534  0.4337  0.0538
 1481SOL    HW114257   2.444   5.469   0.866  1.7586  1.7041 -0.4041
 1481SOL    HW214258   2.421   5.394   0.723 -0.7008 -0.0729  0.8722
 1482SOL     OW14259   2.830   7.305   0.837 -0.3317  0.5699 -0.1821
 1482SOL    HW114260   2.919   7.311   0.882 -0.3504  4.6523 -0.4907
 1482SOL    HW214261   2.828   7.225   0.777  3.3021  0.6712 -0.5138
 1483SOL     OW14262   2.782   4.113   0.227 -0.1154 -0.0280  0.1293
 1483SOL    HW114263   2.841   4.182   0.184 -0.2879  2.2869  3.4206
 1483SOL    HW214264   2.827   4.078   0.309 -1.8192 -0.7674  0.7592
 1484SOL     OW14265   2.790   4.209   1.441 -0.1573  0.4502  0.5786
 1484SOL    HW114266   2.767   4.260   1.358 -0.8126 -0.3238  0.2783
 1484SOL    HW214267   2.881   4.237   1.474 -0.1584  1.1983 -0.0488
 1485SOL     OW14268   4.001   4.109   0.851 -0.1473  0.1872 -0.0544
 1485SOL    HW114269   3.914   4.139   0.889 -0.6635 -0.0699 -1.0136
 1485SOL    HW214270   4.057   4.189   0.828 -0.5788  0.3782 -0.4550
 1486SOL     OW14271   3.342   4.708   1.644 -0.1317  0.0399  0.1794
 1486SOL    HW114272   3.362   4.756   1.729 -0.2668 -2.4612  1.6819
 1486SOL    HW214273   3.277   4.762   1.589  0.0015  1.6966  1.6192
 1487SOL     OW14274   2.621   6.935   0.692  0.5693  0.1008 -0.6115
 1487SOL    HW114275   2.597   6.960   0.786  0.4683 -1.1049 -0.3051
 1487SOL    HW214276   2.636   6.836   0.687 -1.6479 -0.2030 -2.3096
 1488SOL     OW14277   2.721   0.551   1.512 -0.4447 -0.3386  0.6085
 1488SOL    HW114278   2.652   0.609   1.470 -1.0642 -0.0836  1.9546
 1488SOL    HW214279   2.721   0.462   1.467  0.4275  0.6374 -1.3826
 1489SOL     OW14280   2.716   1.374   0.116 -0.1932 -0.0612  0.4868
 1489SOL    HW114281   2.638   1.313   0.128 -2.1525  2.3540  0.2034
 1489SOL    HW214282   2.749   1.369   0.022 -0.2859 -0.6953  0.4831
 1490SOL     OW14283   4.742   2.632   1.427 -0.5748 -0.4077  0.0847
 1490SOL    HW114284   4.782   2.689   1.499  1.4401 -1.6740 -0.0036
 1490SOL    HW214285   4.746   2.681   1.339 -0.6795  0.0978  0.3605
 1491SOL     OW14286   3.399   8.696   2.235  0.0308 -0.4344  0.3037
 1491SOL    HW114287   3.318   8.644   2.207  0.0259 -0.6660  0.7446
 1491SOL    HW214288   3.476   8.634   2.247 -0.4093 -0.6030  2.5258
 1492SOL     OW14289   3.404   2.190   2.360 -0.4676  0.1732 -0.3470
 1492SOL    HW114290   3.343   2.170   2.436 -1.8292  0.7697 -1.2587
 1492SOL    HW214291   3.491   2.224   2.395 -0.7655 -0.3712  0.9573
 1493SOL     OW14292   4.408   2.377   1.847 -0.1909  0.2797 -0.0160
 1493SOL    HW114293   4.473   2.302   1.830  0.5019  0.7545  0.5256
 1493SOL    HW214294   4.315   2.341   1.844  0.0993 -0.4442 -0.6279
 1494SOL     OW14295   4.697   2.403   1.273 -0.5041  0.4951  0.2175
 1494SOL    HW114296   4.738   2.432   1.187  0.0052 -1.1339 -0.1059
 1494SOL    HW214297   4.690   2.481   1.335 -0.1922  1.5165 -1.0256
 1495SOL     OW14298   3.641   3.896   2.010  0.1624  0.3433  0.3991
 1495SOL    HW114299   3.638   3.888   1.911  0.5588 -3.6479  0.6010
 1495SOL    HW214300   3.699   3.973   2.036 -0.1440  1.5764 -2.4435
 1496SOL     OW14301   2.456   9.556   0.197 -0.2514  0.6734 -0.0442
 1496SOL    HW114302   2.431   9.501   0.117 -0.4934  1.2953 -0.4044
 1496SOL    HW214303   2.556   9.559   0.206 -0.2358  0.2528 -0.0757
 1497SOL     OW14304   3.995   9.523   1.046 -0.3865 -0.2425  0.4268
 1497SOL    HW114305   4.075   9.464   1.059 -0.1589  0.2561  1.3441
 1497SOL    HW214306   3.931   9.509   1.122 -0.8147 -0.0814  0.0959
 1498SOL     OW14307   4.129   0.620   1.600 -0.1715 -0.0379  0.2085
 1498SOL    HW114308   4.052   0.582   1.651 -0.1712  1.2952  1.2169
 1498SOL    HW214309   4.177   0.687   1.656  0.6694  0.4337 -1.0442
 1499SOL     OW14310   2.256   2.202   2.019 -0.4915 -0.3020 -0.2967
 1499SOL    HW114311   2.331   2.244   2.069  0.5984 -1.7437 -0.6839
 1499SOL    HW214312   2.201   2.274   1.975  0.9333  0.7415 -0.4010
 1500SOL     OW14313   3.136   4.368  -0.110 -0.4031  0.2472 -0.0019
 1500SOL    HW114314   3.221   4.337  -0.152 -0.7767 -1.1780  0.2409
 1500SOL    HW214315   3.059   4.323  -0.156 -1.0404  1.7688 -0.4306
 1501SOL     OW14316   3.964   9.979   1.824 -0.3705 -0.1137 -0.3977
 1501SOL    HW114317   3.958  10.044   1.749  1.1865 -0.2957 -0.6810
 1501SOL    HW214318   3.967  10.027   1.911  0.1164  0.1730 -0.5735
 1502SOL     OW14319   2.755   0.329   1.341 -0.2328  0.2868 -0.0193
 1502SOL    HW114320   2.840   0.285   1.313 -0.8906  0.3738 -2.2231
 1502SOL    HW214321   2.677   0.274   1.311 -0.9828 -0.3624  2.9417
 1503SOL     OW14322   4.533   4.736   0.711 -0.0663 -0.3031  0.2955
 1503SOL    HW114323   4.597   4.784   0.771  0.7811 -0.7213 -0.2620
 1503SOL    HW214324   4.536   4.638   0.732 -0.5717 -0.3130  0.3115
 1504SOL     OW14325   4.077   4.211   1.597 -0.7972 -0.1974 -0.0760
 1504SOL    HW114326   4.041   4.291   1.550 -3.1139 -1.6028 -0.7489
 1504SOL    HW214327   4.143   4.240   1.667  0.8462  2.0599 -2.4949
 1505SOL     OW14328   2.366   5.883   1.878 -0.0429  0.2195  0.0256
 1505SOL    HW114329   2.335   5.885   1.973  0.3994 -1.5932  0.2378
 1505SOL    HW214330   2.460   5.917   1.872 -0.7680  2.2606 -0.0814
 1506SOL     OW14331   3.145   3.028   0.291 -0.0103 -0.0342 -0.1825
 1506SOL    HW114332   3.242   3.016   0.267  0.0829 -3.1673  1.4741
 1506SOL    HW214333   3.101   3.088   0.223  2.2840 -1.3075 -2.9212
 1507SOL     OW14334   3.152   4.394   0.164  0.1024  0.2278 -0.0321
 1507SOL    HW114335   3.163   4.389   0.064 -0.4455 -1.9606 -0.0116
 1507SOL    HW214336   3.236   4.361   0.208 -0.6820 -1.5191  0.1954
 1508SOL     OW14337   3.576   0.477   2.179  0.0009 -0.3100  0.3539
 1508SOL    HW114338   3.589   0.576   2.172  1.2488 -0.5859 -1.3992
 1508SOL    HW214339   3.487   0.459   2.220 -0.4863  1.5379  0.1760
 1509SOL     OW14340   3.388   9.972   1.549 -0.7132  0.3382 -0.2292
 1509SOL    HW114341   3.314   9.923   1.594 -1.0137 -0.2690 -1.3788
 1509SOL    HW214342   3.387   9.952   1.451  0.6119  0.7832 -0.3425
 1510SOL     OW14343   3.760   2.818   2.092  0.2215  0.3596 -0.0603
 1510SOL    HW114344   3.724   2.739   2.041  0.5810  0.5849 -0.6684
 1510SOL    HW214345   3.736   2.902   2.044  2.3524  0.4738 -0.9794
 1511SOL     OW14346   2.458   5.001   2.361 -0.3215  0.3178  0.7058
 1511SOL    HW114347   2.387   4.990   2.430 -1.0136  0.2608 -0.0133
 1511SOL    HW214348   2.482   4.911   2.324 -1.6206  0.5773 -0.7972
 1512SOL     OW14349   3.169   0.408   0.954  0.2760  0.6744 -0.3039
 1512SOL    HW114350   3.260   0.372   0.931 -0.0280 -1.3029  1.4055
 1512SOL    HW214351   3.179   0.484   1.018  0.8022  1.8138 -1.7177
 1513SOL     OW14352   2.473   5.231   0.651  0.2634 -0.3490  0.1525
 1513SOL    HW114353   2.571   5.214   0.663 -0.0925 -2.2628  0.3776
 1513SOL    HW214354   2.456   5.271   0.561  1.0087 -2.0515 -0.7489
 1514SOL     OW14355   5.335   2.701   1.426 -0.1511  0.9049  0.2902
 1514SOL    HW114356   5.304   2.612   1.459  2.3922  0.1631  0.7697
 1514SOL    HW214357   5.281   2.728   1.346 -0.8827 -1.0957  0.0995
 1515SOL     OW14358   4.257   1.623   0.377  0.3600 -0.3572  0.1551
 1515SOL    HW114359   4.303   1.704   0.340 -1.2817  0.7064  0.3996
 1515SOL    HW214360   4.175   1.651   0.427 -0.7131 -2.2459 -0.5092
 1516SOL     OW14361   4.604   1.815   1.913  0.5127  0.3140 -1.1080
 1516SOL    HW114362   4.597   1.882   1.838 -2.4336  1.8957  0.4955
 1516SOL    HW214363   4.552   1.733   1.889 -2.2225  1.6562 -0.0189
 1517SOL     OW14364   3.840   5.351   0.561 -0.0586  0.3924 -0.0135
 1517SOL    HW114365   3.919   5.290   0.551 -0.8910 -0.8227  0.7120
 1517SOL    HW214366   3.871   5.445   0.576  1.2526  0.4498 -2.6972
 1518SOL     OW14367   4.397   9.311   2.494 -0.0084  0.1878 -0.1058
 1518SOL    HW114368   4.384   9.250   2.415  0.7150 -0.3738  0.2062
 1518SOL    HW214369   4.490   9.347   2.492 -0.1610  0.5940  0.2017
 1519SOL     OW14370   3.800   4.748   1.465 -0.3872  0.4513  0.3943
 1519SOL    HW114371   3.893   4.717   1.487 -0.6668 -2.4646 -2.2996
 1519SOL    HW214372   3.805   4.827   1.404  0.3766 -1.8230 -2.5617
 1520SOL     OW14373   4.504   1.802   2.248  0.5434  0.0424  0.4734
 1520SOL    HW114374   4.534   1.839   2.336 -0.7635  0.1265  0.8914
 1520SOL    HW214375   4.566   1.832   2.176  0.1092  2.1952  0.9590
 1521SOL     OW14376   1.775   6.216   0.465  0.4612 -0.5727 -0.0510
 1521SOL    HW114377   1.678   6.198   0.478  0.3985 -0.1787  0.0511
 1521SOL    HW214378   1.799   6.301   0.513  0.6238 -0.0815 -0.9999
 1522SOL     OW14379   3.254   3.982   0.608  0.0524  0.2742 -0.0600
 1522SOL    HW114380   3.247   4.002   0.706 -0.3308  0.7885 -0.1948
 1522SOL    HW214381   3.247   3.883   0.594 -1.3798  0.3151  0.3030
 1523SOL     OW14382   3.265   3.446   0.810  0.0091  0.3620 -0.0033
 1523SOL    HW114383   3.352   3.495   0.807  0.0735  0.1679 -1.4385
 1523SOL    HW214384   3.190   3.512   0.813  0.2176  0.5508  3.0215
 1524SOL     OW14385   4.723   2.354   0.266  0.0652 -0.4805  0.0376
 1524SOL    HW114386   4.745   2.430   0.327 -0.2356 -0.3508 -0.0182
 1524SOL    HW214387   4.779   2.360   0.184  0.8817 -0.9669  0.5483
 1525SOL     OW14388   2.802   5.434   0.186  0.3781  0.0217 -0.1261
 1525SOL    HW114389   2.823   5.531   0.198  0.1578  0.1301 -0.5615
 1525SOL    HW214390   2.862   5.396   0.116 -0.1600  0.0788 -0.6258
 1526SOL     OW14391   2.726   4.012   1.092  0.2811 -0.2168  0.0402
 1526SOL    HW114392   2.821   3.986   1.075  0.5660 -0.0363  1.3074
 1526SOL    HW214393   2.721   4.110   1.112  0.0330 -0.4730  1.3337
 1527SOL     OW14394   2.316   9.679   2.055 -0.1051  0.1704 -0.2945
 1527SOL    HW114395   2.279   9.681   2.148  3.0885  4.8719  1.0825
 1527SOL    HW214396   2.248   9.716   1.992 -0.7736  1.0290  0.9005
 1528SOL     OW14397   2.372   8.232   2.017  0.4835 -0.1351 -0.8810
 1528SOL    HW114398   2.305   8.289   1.970 -0.3076  2.2107  2.9445
 1528SOL    HW214399   2.463   8.271   2.006  0.2243  0.7193 -0.0171
 1529SOL     OW14400   3.067   3.219   0.738 -0.4079  0.4783  0.0452
 1529SOL    HW114401   3.148   3.255   0.785  1.8225 -2.0200 -1.7419
 1529SOL    HW214402   3.063   3.257   0.646 -1.4745  0.7956  0.2124
 1530SOL     OW14403   3.136   8.031   0.227  0.3395 -0.5364 -0.6720
 1530SOL    HW114404   3.094   8.111   0.184 -1.1863 -0.8704  0.1844
 1530SOL    HW214405   3.094   7.947   0.192 -0.2340 -0.8459  0.7453
 1531SOL     OW14406   4.108   2.118   0.608 -0.0036  0.1897  0.3599
 1531SOL    HW114407   4.204   2.116   0.582 -0.1153 -0.1734 -0.0295
 1531SOL    HW214408   4.089   2.045   0.674 -0.3537 -0.7744 -0.7857
 1532SOL     OW14409   1.830   6.730   0.377  0.4318 -0.0692 -0.1907
 1532SOL    HW114410   1.858   6.826   0.371 -0.2592  0.0663 -1.4131
 1532SOL    HW214411   1.731   6.725   0.394  0.6449 -0.5675  0.9970
 1533SOL     OW14412   4.507   4.285   1.596  0.8020  0.8245  0.1095
 1533SOL    HW114413   4.578   4.221   1.565 -1.7134 -2.2510  0.3840
 1533SOL    HW214414   4.504   4.286   1.696 -1.2310 -1.1375  0.1135
 1534SOL     OW14415   2.648   1.492   0.538  0.1376 -0.0286 -0.1772
 1534SOL    HW114416   2.698   1.577   0.521 -1.1823  0.8336  0.0930
 1534SOL    HW214417   2.672   1.457   0.628  3.3520 -1.8872 -1.6664
 1535SOL     OW14418   2.300   5.150   0.848  0.6238 -0.0649 -0.0681
 1535SOL    HW114419   2.348   5.187   0.768 -0.4305 -0.5021 -0.9242
 1535SOL    HW214420   2.286   5.222   0.915  0.6684  0.5369 -0.6964
 1536SOL     OW14421   2.566   4.767   0.312  0.3234  0.1142  0.3432
 1536SOL    HW114422   2.542   4.837   0.245  0.4692 -0.1056  0.0594
 1536SOL    HW214423   2.549   4.677   0.273  0.1213 -0.0084  0.7133
 1537SOL     OW14424   2.957   8.432   2.351 -0.2326  0.2223  0.0778
 1537SOL    HW114425   2.860   8.414   2.334 -0.1790 -0.7130  0.6839
 1537SOL    HW214426   2.979   8.406   2.445  0.6445  0.2580 -0.1157
 1538SOL     OW14427   3.716   3.551   1.343  0.5849 -0.0733 -0.7309
 1538SOL    HW114428   3.674   3.642   1.346  1.0931  0.2801 -3.6308
 1538SOL    HW214429   3.660   3.490   1.287  2.0539 -0.5730 -1.6892
 1539SOL     OW14430   3.178  10.071   0.609 -0.2268  0.1187  0.9225
 1539SOL    HW114431   3.151   9.992   0.552  0.6461 -0.5774  1.4701
 1539SOL    HW214432   3.141  10.155   0.568 -0.0122 -0.4195 -0.4177
 1540SOL     OW14433   2.941   8.435   1.144  0.2762 -0.1048 -0.1625
 1540SOL    HW114434   3.003   8.506   1.177 -0.8835  1.2090 -0.7903
 1540SOL    HW214435   2.994   8.353   1.121  1.7884  1.0259 -0.7940
 1541SOL     OW14436   4.368   4.049   0.275  0.0452  0.4346 -0.7413
 1541SOL    HW114437   4.286   4.004   0.310  1.1630 -0.7300  0.4379
 1541SOL    HW214438   4.404   4.112   0.343  0.6956  0.1937 -0.8559
 1542SOL     OW14439   4.092   3.652   1.913 -0.6405  0.1689 -0.9561
 1542SOL    HW114440   4.057   3.636   2.005 -0.9838  1.2125 -0.8980
 1542SOL    HW214441   4.171   3.592   1.897 -0.9697 -0.4727 -0.2183
 1543SOL     OW14442   2.843   8.760   0.147 -0.8530 -0.2938  0.3459
 1543SOL    HW114443   2.751   8.742   0.181 -1.0679  0.3215  0.0998
 1543SOL    HW214444   2.874   8.684   0.090 -0.7181 -1.0664  1.4416
 1544SOL     OW14445   2.328   4.621   0.945  0.7544 -0.5868 -0.0425
 1544SOL    HW114446   2.237   4.580   0.939 -0.9283  2.9020  0.3715
 1544SOL    HW214447   2.325   4.716   0.913  4.0887 -0.1350  0.7139
  10.00000  10.00000   2.85800
