chitosan Film  in water:acetic acid 2%
10309
    1CHTO  H203    1   3.942   5.133   0.418 -1.6966 -1.5355 -3.0257
    1CHTO   O82    2   3.976   5.194   0.356 -0.2581  0.8124 -0.0596
    1CHTO  C123    3   4.073   5.284   0.419 -0.4429  0.4017  0.5140
    1CHTO  H227    4   4.028   5.329   0.508 -0.5860 -0.5178  0.9132
    1CHTO   O77    5   4.179   5.191   0.460 -0.2008 -0.1932  0.5979
    1CHTO  C118    6   4.303   5.242   0.512 -0.0809 -0.5192  0.1262
    1CHTO  H222    7   4.296   5.292   0.610  2.5460 -1.4577  0.8422
    1CHTO  C125    8   4.411   5.129   0.530 -0.2158  0.4056  0.2492
    1CHTO   O84    9   4.368   5.023   0.620  0.4167 -0.4935 -0.0156
    1CHTO  H205   10   4.441   4.972   0.649  2.4266  1.7887 -0.8813
    1CHTO  C114   11   4.355   5.345   0.404  0.1086 -0.3254 -0.1308
    1CHTO  H218   12   4.377   5.287   0.314 -3.6882 -0.3746 -1.1439
    1CHTO  C116   13   4.251   5.457   0.361  0.2699 -0.6878  0.2737
    1CHTO  H220   14   4.221   5.526   0.443 -1.3772 -1.2612  0.1687
    1CHTO   O79   15   4.319   5.545   0.267  0.4304 -0.6073 -0.4248
    1CHTO  H201   16   4.253   5.593   0.221  1.0009  0.5162 -0.0984
    1CHTO  C120   17   4.121   5.393   0.312  0.2887 -0.1477  0.4814
    1CHTO  H224   18   4.134   5.342   0.215  0.0058 -0.0888  0.4123
    1CHTO   N21   19   4.016   5.498   0.286  0.0724  0.0057  0.3643
    1CHTO  H211   20   3.968   5.521   0.381  2.6767  0.1558  1.6956
    1CHTO  H212   21   4.066   5.585   0.244  1.6584 -1.3744 -0.6696
    1CHTO   O75   22   4.465   5.403   0.464  0.4994  0.2461 -0.2357
    1CHTO  C112   23   4.628   5.366   0.382  0.4977 -0.2135  0.2920
    1CHTO  H216   24   4.619   5.411   0.282  0.8316  2.7009  1.4977
    1CHTO   O73   25   4.652   5.230   0.379 -0.4216  0.0629 -0.1495
    1CHTO  C113   26   4.776   5.190   0.312  0.7309 -0.0817  0.1757
    1CHTO  H217   27   4.789   5.227   0.208 -0.2790 -0.9786 -0.2727
    1CHTO  C124   28   4.767   5.035   0.323  0.1241 -0.2532  0.5397
    1CHTO   O83   29   4.686   4.976   0.223  0.0154  0.2299  0.2578
    1CHTO  H204   30   4.685   4.886   0.247  2.9104  0.7243  2.5048
    1CHTO  C109   31   4.887   5.240   0.401  0.4617 -0.3129 -0.1120
    1CHTO  H213   32   4.874   5.199   0.502  0.2607  0.4482  0.1780
    1CHTO  C110   33   4.880   5.396   0.408 -0.1120 -0.1611  0.1851
    1CHTO  H214   34   4.887   5.427   0.304  0.7414  0.4490  0.4208
    1CHTO   O78   35   4.993   5.452   0.469 -0.1275 -0.3657  0.4117
    1CHTO  H200   36   5.016   5.535   0.432  0.4232 -0.7254 -0.0650
    1CHTO  C111   37   4.745   5.437   0.459  0.4198  0.3785  0.7588
    1CHTO  H215   38   4.741   5.405   0.565 -0.4957  0.1015  0.6419
    1CHTO   N19   39   4.728   5.586   0.464 -0.3370 -0.0267  0.3395
    1CHTO  H207   40   4.623   5.609   0.474 -0.4053  0.4028 -1.1349
    1CHTO  H208   41   4.787   5.636   0.539 -0.6825  1.1358 -0.1470
    1CHTO   O74   42   5.016   5.196   0.346  0.1851 -0.0241 -0.2652
    1CHTO  C115   43   5.137   5.180   0.466 -0.4572 -0.0444 -0.9951
    1CHTO  H219   44   5.156   5.276   0.514  0.4572 -0.3254 -0.7749
    1CHTO   O76   45   5.097   5.091   0.579  0.1850 -0.4572 -1.0583
    1CHTO  C122   46   5.081   4.952   0.558 -0.0103 -0.2534  0.3013
    1CHTO  H226   47   4.975   4.929   0.544 -0.1707 -0.6583  1.9743
    1CHTO  C126   48   5.121   4.885   0.695 -0.0227 -0.4171 -0.2571
    1CHTO   O85   49   5.078   4.751   0.682  0.9265 -0.2108  0.1542
    1CHTO  H206   50   5.068   4.710   0.765  2.3856  0.4979  0.6961
    1CHTO  C121   51   5.174   4.894   0.443 -0.5070  0.0840  0.1477
    1CHTO  H225   52   5.207   4.790   0.460 -0.9217 -0.1355 -0.3842
    1CHTO   O81   53   5.084   4.881   0.328 -0.6207  0.2171 -0.7143
    1CHTO  H202   54   5.018   4.948   0.324 -1.6052 -0.8250 -4.6874
    1CHTO  C119   55   5.299   4.985   0.415 -0.0867 -0.5846 -0.0795
    1CHTO  H223   56   5.357   4.982   0.507 -0.0789  1.0912 -0.0043
    1CHTO  C117   57   5.272   5.143   0.393  0.8966 -0.0170 -0.2426
    1CHTO  H221   58   5.245   5.171   0.292 -2.0693  1.3646  0.8760
    1CHTO   N20   59   5.392   5.221   0.428 -0.3852 -0.9165 -0.1203
    1CHTO  H209   60   5.426   5.285   0.349  1.5723 -1.3622  0.3260
    1CHTO  H210   61   5.373   5.287   0.511 -0.6402 -0.4285 -0.5719
    1CHTO   O80   62   5.392   4.928   0.318  0.1494  0.1514 -0.1305
    1CHTO  C103   63   5.537   4.899   0.360 -0.2470  0.1188  0.2292
    1CHTO  H190   64   5.582   4.965   0.434  1.2968 -1.1804  0.4657
    1CHTO  C101   65   5.559   4.756   0.412  0.3561  0.1672  0.1819
    1CHTO  H188   66   5.520   4.687   0.337 -1.1549  0.0062  1.0833
    1CHTO   O68   67   5.465   4.737   0.575  0.6147  0.3687 -0.3291
    1CHTO  H168   68   5.453   4.647   0.598 -2.4160  1.5020  2.9765
    1CHTO   C99   69   5.716   4.731   0.428 -0.6250 -1.0381  0.1876
    1CHTO  H186   70   5.753   4.797   0.510 -2.0287  0.0751 -0.0434
    1CHTO   N17   71   5.751   4.601   0.489  0.1814  0.1862 -0.0100
    1CHTO  H174   72   5.663   4.539   0.489  0.3452 -0.0676  1.1928
    1CHTO  H175   73   5.771   4.622   0.594 -1.2597 -2.8288  0.9038
    1CHTO   C97   74   5.794   4.765   0.304 -0.1508  0.4018  0.7822
    1CHTO  H184   75   5.764   4.695   0.225 -0.3565  1.6240 -0.2492
    1CHTO   O64   76   5.762   4.900   0.266  0.8626 -0.1362 -0.1598
    1CHTO  C104   77   5.624   4.925   0.231  0.4132 -0.0021 -0.1761
    1CHTO  H191   78   5.593   4.860   0.150 -1.0487  1.1293 -0.5557
    1CHTO  C108   79   5.614   5.065   0.180  0.1466 -0.5977 -0.0739
    1CHTO   O71   80   5.507   5.090   0.088  0.8118 -0.4516 -0.0054
    1CHTO  H171   81   5.423   5.067   0.124  0.7489 -0.7047 -0.3191
    1CHTO   O62   82   5.939   4.760   0.328 -0.1208 -0.4622 -0.3315
    1CHTO   C91   83   6.039   4.706   0.239 -0.2238  0.3553 -0.5993
    1CHTO  H178   84   6.007   4.734   0.139  0.9306 -1.7531 -1.6012
    1CHTO   C92   85   6.046   4.553   0.243 -0.2564 -0.2111  0.8848
    1CHTO  H179   86   6.043   4.522   0.348 -0.4873 -1.5287  0.5054
    1CHTO   O66   87   5.924   4.508   0.181  0.1784  0.1451 -0.3187
    1CHTO  H166   88   5.925   4.528   0.089 -2.5118  1.5239 -0.0958
    1CHTO   C93   89   6.171   4.491   0.167 -0.3316  0.0139  0.2578
    1CHTO  H180   90   6.159   4.497   0.057  1.2216  0.3740  0.0992
    1CHTO   N16   91   6.201   4.348   0.194  0.4301 -0.5531  0.4177
    1CHTO  H172   92   6.115   4.290   0.163  0.7602 -1.3152  0.9091
    1CHTO  H173   93   6.207   4.348   0.302  0.4204  0.6356  0.4177
    1CHTO   C94   94   6.298   4.581   0.206  0.1803 -0.0184 -0.3678
    1CHTO  H181   95   6.336   4.562   0.306  1.4102  1.2431 -0.5880
    1CHTO   O61   96   6.272   4.717   0.166  0.0190  0.2699  0.7270
    1CHTO   C95   97   6.181   4.779   0.250 -0.5578  0.0226 -0.4245
    1CHTO  H182   98   6.210   4.760   0.353 -0.6335  0.1566 -0.3785
    1CHTO  C106   99   6.177   4.939   0.221 -0.2679 -0.8958 -0.2319
    1CHTO   O69  100   6.101   5.018   0.308  0.3721 -0.2341  0.4133
    1CHTO  H169  101   6.136   5.105   0.301 -1.6633  0.6250  0.4639
    1CHTO   O63  102   6.414   4.548   0.095 -0.6799  0.4254  0.3463
    1CHTO   C96  103   6.547   4.582   0.163 -0.2935  0.1971  0.1756
    1CHTO  H183  104   6.542   4.669   0.229  0.5191  0.3626  0.0218
    1CHTO   C98  105   6.655   4.630   0.058  0.0029  0.1798 -0.0846
    1CHTO  H185  106   6.619   4.720   0.006  2.3354  1.5952  0.6577
    1CHTO   O67  107   6.769   4.680   0.125  0.1724 -0.4159  0.4610
    1CHTO  H167  108   6.741   4.737   0.195  0.3298 -1.0024  1.0096
    1CHTO  C102  109   6.704   4.510  -0.035 -0.6682  0.9605 -0.4846
    1CHTO  H189  110   6.800   4.543  -0.078 -0.8833 -0.1301 -1.8352
    1CHTO   N18  111   6.612   4.476  -0.150  0.0528  0.2806 -0.7252
    1CHTO  H176  112   6.633   4.381  -0.198  0.2578 -1.1538  2.1009
    1CHTO  H177  113   6.508   4.477  -0.121  0.3129 -3.3378  0.6140
    1CHTO  C105  114   6.745   4.383   0.042  0.4931 -0.1239  0.3373
    1CHTO  H192  115   6.738   4.297  -0.025 -0.8033 -0.9085  1.4550
    1CHTO   O65  116   6.655   4.353   0.153 -0.1025 -0.0470  0.2040
    1CHTO  C100  117   6.598   4.454   0.243  0.8317 -0.4883  0.1593
    1CHTO  H187  118   6.513   4.398   0.285 -0.4241  1.5424  0.4368
    1CHTO  C107  119   6.688   4.489   0.359 -0.1907  0.2605 -0.0017
    1CHTO   O70  120   6.706   4.382   0.449 -0.2411  0.1704 -0.2048
    1CHTO  H170  121   6.622   4.366   0.489 -0.5886 -0.8941 -1.3457
    1CHTO   O57  122   6.887   4.407   0.089  0.1985  0.0734  0.5495
    1CHTO   C85  123   6.995   4.336   0.018  0.4825 -0.2792  0.6360
    1CHTO  H157  124   6.973   4.370  -0.085 -3.2045 -0.9168  1.1733
    1CHTO   C83  125   6.979   4.179   0.022 -0.3694 -0.8356 -0.2293
    1CHTO  H155  126   6.878   4.150  -0.008 -0.0877 -2.2247  0.0991
    1CHTO   O56  127   6.986   4.135   0.165  0.1012 -0.3118 -0.1123
    1CHTO  H135  128   6.907   4.093   0.194  0.0453 -0.6311 -0.7213
    1CHTO   C81  129   7.090   4.120  -0.071 -0.2493  0.0154  0.0779
    1CHTO  H153  130   7.062   4.152  -0.171  0.4804  1.1601  0.2255
    1CHTO   N14  131   7.081   3.969  -0.069 -0.3369 -0.3564 -0.1446
    1CHTO  H141  132   7.054   3.946   0.032  2.0288  1.6757  1.0145
    1CHTO  H142  133   7.014   3.922  -0.137 -0.4059 -2.0835  1.0976
    1CHTO   C79  134   7.239   4.168  -0.038 -1.1515 -0.0197 -0.4456
    1CHTO  H151  135   7.302   4.135  -0.120  0.2143  0.7154  0.3025
    1CHTO   O52  136   7.248   4.312  -0.035 -0.0466 -0.1350 -0.2827
    1CHTO   C86  137   7.150   4.365   0.064 -0.1004  0.7218  0.7760
    1CHTO  H158  138   7.183   4.308   0.154 -0.8440 -1.8879 -0.5538
    1CHTO   C90  139   7.193   4.510   0.082  0.5392 -0.3327 -0.0085
    1CHTO   O60  140   7.123   4.571   0.188  0.4024  0.1892 -0.2380
    1CHTO  H138  141   7.030   4.561   0.181  0.5231 -1.0549 -0.0470
    1CHTO   O50  142   7.289   4.112   0.079 -0.4167 -0.2504 -0.3060
    1CHTO   C73  143   7.416   4.061   0.136  0.9758 -0.2039 -0.1194
    1CHTO  H145  144   7.480   4.018   0.057  2.3135 -1.0878  1.4164
    1CHTO   C74  145   7.372   3.948   0.233 -0.0829  0.2536 -0.6587
    1CHTO  H146  146   7.325   3.863   0.182 -1.6364  1.5027 -1.3581
    1CHTO   O54  147   7.497   3.888   0.289 -0.0875 -0.2579 -0.1802
    1CHTO  H133  148   7.524   3.944   0.360 -0.9090  0.1533 -0.1826
    1CHTO   C75  149   7.275   4.002   0.348 -0.0669 -0.0329  0.4953
    1CHTO  H147  150   7.180   4.036   0.305 -0.4788 -1.2676  0.4154
    1CHTO   N13  151   7.242   3.896   0.443  0.4641  0.0185 -0.3841
    1CHTO  H139  152   7.172   3.833   0.390 -0.4523  1.6085 -1.1225
    1CHTO  H140  153   7.188   3.938   0.527  0.6209 -1.4154  0.4520
    1CHTO   C76  154   7.355   4.122   0.418 -0.5543 -0.3294 -0.3040
    1CHTO  H148  155   7.416   4.082   0.499 -1.6175  0.4162  0.8961
    1CHTO   O49  156   7.434   4.218   0.334 -0.4850  0.0939 -0.0127
    1CHTO   C77  157   7.500   4.174   0.213 -0.5099  0.1469 -0.5289
    1CHTO  H149  158   7.597   4.132   0.239 -0.0341  0.5298 -1.6272
    1CHTO   C88  159   7.530   4.304   0.141 -0.2950  0.0667 -0.3304
    1CHTO   O58  160   7.676   4.398   0.212 -0.2948 -0.3502  0.1024
    1CHTO  H136  161   7.756   4.349   0.204 -1.0316 -1.3795 -1.2953
    1CHTO   O51  162   7.251   4.208   0.465 -0.1434  0.1393  0.1910
    1CHTO   C78  163   7.287   4.295   0.609 -0.1300  0.0007 -0.5209
    1CHTO  H150  164   7.395   4.307   0.633 -0.4059  1.9208 -0.1180
    1CHTO   C80  165   7.222   4.224   0.729  0.4202 -0.0665 -0.1820
    1CHTO  H152  166   7.125   4.178   0.700  0.6498 -0.4632 -0.3284
    1CHTO   O55  167   7.305   4.110   0.746 -0.0540  0.1820 -0.0935
    1CHTO  H134  168   7.287   4.054   0.819  1.4631  1.6672  1.4728
    1CHTO   C84  169   7.208   4.312   0.859  0.0727  0.4044  0.2847
    1CHTO  H156  170   7.302   4.345   0.902 -0.0094 -0.2449  0.9725
    1CHTO   N15  171   7.129   4.239   0.963 -0.7812 -0.3091 -0.1683
    1CHTO  H143  172   7.171   4.140   0.971 -0.6237 -0.3073 -0.9975
    1CHTO  H144  173   7.136   4.292   1.056 -2.5289 -0.1633 -0.1042
    1CHTO   C87  174   7.140   4.441   0.820  0.4375 -0.3978  0.0428
    1CHTO  H159  175   7.039   4.426   0.782  0.7410  1.1393 -1.4556
    1CHTO   O53  176   7.236   4.510   0.713  0.8094  0.2439 -0.1060
    1CHTO   C82  177   7.232   4.441   0.584  0.4660  0.7209 -0.6822
    1CHTO  H154  178   7.136   4.438   0.533 -0.1365  0.3338  0.4576
    1CHTO   C89  179   7.324   4.522   0.490 -0.4770 -0.2498  0.5162
    1CHTO   O59  180   7.267   4.645   0.447  0.2433 -0.1057  0.0854
    1CHTO  H137  181   7.309   4.675   0.369  1.1350  0.4466  0.7612
    1CHTO   O45  182   7.133   4.540   0.947  0.0647  0.1882 -0.2817
    1CHTO   C67  183   7.130   4.682   0.922 -0.2102  0.3734 -0.4998
    1CHTO  H124  184   7.233   4.707   0.898  0.1600 -0.1414  0.5195
    1CHTO   C65  185   7.032   4.730   0.802  0.0607 -0.2314  0.2114
    1CHTO  H122  186   6.991   4.638   0.761 -2.1309  1.3524 -1.2232
    1CHTO   O44  187   7.115   4.792   0.704  0.1528 -0.2188 -0.2475
    1CHTO  H102  188   7.168   4.734   0.652  2.8481  2.4612 -0.6211
    1CHTO   C63  189   6.905   4.805   0.857 -0.3601  0.1929  0.0774
    1CHTO  H120  190   6.855   4.746   0.934  0.9039  0.4761  1.1414
    1CHTO   N11  191   6.800   4.832   0.759  0.0163 -0.0811 -0.4430
    1CHTO  H108  192   6.775   4.936   0.756 -1.1889 -0.3893 -1.9090
    1CHTO  H109  193   6.720   4.767   0.789 -0.1708 -0.6613 -2.1494
    1CHTO   C61  194   6.962   4.927   0.941 -0.3925 -0.0011 -0.0767
    1CHTO  H118  195   6.881   4.957   1.010  0.8793 -1.1911  1.9864
    1CHTO   O40  196   7.079   4.902   1.022 -0.4235 -0.1484 -0.2952
    1CHTO   C68  197   7.101   4.762   1.051  0.3970  0.0511 -0.2654
    1CHTO  H125  198   7.014   4.723   1.109 -0.3871  0.8288 -0.9087
    1CHTO   C72  199   7.220   4.770   1.152  0.4028 -0.0324 -0.0879
    1CHTO   O48  200   7.225   4.662   1.238  0.3433 -0.0182  0.0315
    1CHTO  H105  201   7.147   4.642   1.287  0.4271 -0.4827 -0.0236
    1CHTO   O38  202   6.994   5.041   0.858  0.3689  0.0489 -0.6318
    1CHTO   C55  203   6.952   5.163   0.904 -0.8683 -0.6926  0.9978
    1CHTO  H112  204   6.939   5.154   1.013 -0.5256  3.3554  1.4815
    1CHTO   C56  205   6.824   5.199   0.830  0.3782  0.4430  0.0686
    1CHTO  H113  206   6.831   5.165   0.726 -0.1235  0.8378 -0.0973
    1CHTO   O42  207   6.710   5.112   0.870  0.4595  0.7286  0.2027
    1CHTO  H100  208   6.718   5.021   0.849 -0.9705  0.7289 -0.3538
    1CHTO   C57  209   6.778   5.350   0.860  0.4668  0.8901  0.7645
    1CHTO  H114  210   6.734   5.349   0.960  1.0549 -0.3248  1.0174
    1CHTO   N10  211   6.664   5.403   0.778 -0.2311  0.0199  0.0408
    1CHTO  H106  212   6.602   5.320   0.746  0.6015 -0.4784 -0.2823
    1CHTO  H107  213   6.601   5.474   0.829 -1.8486  0.4232 -2.4209
    1CHTO   C58  214   6.897   5.451   0.849  0.3506  0.9190  0.7432
    1CHTO  H115  215   6.930   5.459   0.743  0.5613  2.3104  0.8936
    1CHTO   O37  216   7.004   5.400   0.933 -0.2539  0.5888  0.2100
    1CHTO   C59  217   7.057   5.277   0.887 -0.9612 -0.7831 -0.4493
    1CHTO  H116  218   7.077   5.294   0.781 -1.0473  1.8620 -0.0836
    1CHTO   C70  219   7.183   5.239   0.969 -0.9653  0.2631  0.0978
    1CHTO   O46  220   7.259   5.341   1.038  0.2069 -0.0388  0.8075
    1CHTO  H103  221   7.335   5.371   0.992 -0.6573 -0.2741 -0.8046
    1CHTO   O39  222   6.870   5.601   0.909 -0.0209 -0.4613  0.0046
    1CHTO   C60  223   6.907   5.703   0.813 -0.2318 -0.2660 -0.8839
    1CHTO  H117  224   6.966   5.655   0.735 -2.8776 -0.7264 -2.6775
    1CHTO   C62  225   6.780   5.760   0.743 -0.1756  0.0328 -0.0481
    1CHTO  H119  226   6.732   5.676   0.689 -0.9933 -0.3459  1.2570
    1CHTO   O43  227   6.688   5.808   0.843 -0.2533  0.1088 -0.0266
    1CHTO  H101  228   6.708   5.889   0.885  1.8537 -0.2108 -0.3715
    1CHTO   C66  229   6.820   5.883   0.632 -0.4819 -0.2793  0.1367
    1CHTO  H123  230   6.890   5.843   0.558  1.1356  0.7788  1.0780
    1CHTO   N12  231   6.706   5.949   0.576 -0.1586  0.3738  0.3892
    1CHTO  H110  232   6.756   6.019   0.511 -0.0002  0.0219  0.1321
    1CHTO  H111  233   6.651   5.880   0.514  1.0660  0.2002 -0.5202
    1CHTO   C69  234   6.906   5.991   0.711 -0.1189 -0.1571 -1.0001
    1CHTO  H126  235   6.846   6.012   0.802  1.7885 -2.7849  0.9230
    1CHTO   O41  236   7.027   5.925   0.763  0.1858 -0.2564  0.0304
    1CHTO   C64  237   6.992   5.819   0.878  0.4696  0.6449 -0.0404
    1CHTO  H121  238   6.931   5.874   0.953 -1.4073 -0.0145 -1.0366
    1CHTO   C71  239   7.123   5.773   0.941  0.1114  0.2817  0.1078
    1CHTO   O47  240   7.105   5.730   1.077  0.3196  0.3802  0.6419
    1CHTO  H104  241   7.055   5.796   1.121  1.6215  1.1613  0.9837
    1CHTO   O34  242   6.936   6.127   0.633 -0.2369 -0.0710 -0.4970
    1CHTO   C49  243   6.996   6.266   0.686  0.3283 -0.6291 -0.7736
    1CHTO   H91  244   6.947   6.348   0.634 -0.5537 -0.3217  0.5259
    1CHTO   C47  245   7.148   6.285   0.660 -0.1011  0.3207 -0.2370
    1CHTO   H89  246   7.163   6.359   0.579 -1.9092  1.7334  0.6804
    1CHTO   O33  247   7.202   6.160   0.611  0.2600 -0.4612  0.6514
    1CHTO   H70  248   7.126   6.113   0.582 -0.4723  0.3484  1.2285
    1CHTO   C45  249   7.228   6.342   0.785 -0.3574 -0.0125  0.4823
    1CHTO   H87  250   7.230   6.265   0.864 -1.5802 -0.4493  0.0917
    1CHTO    N8  251   7.369   6.367   0.752 -0.0108  0.1311 -0.0560
    1CHTO   H75  252   7.379   6.398   0.649  0.4205  0.2589  0.0262
    1CHTO   H76  253   7.429   6.277   0.752 -0.5568 -0.2365 -0.5706
    1CHTO   C43  254   7.149   6.458   0.848 -0.2170 -0.1846 -0.5298
    1CHTO   H85  255   7.210   6.510   0.922  0.7732 -2.9386  0.6581
    1CHTO   O29  256   7.034   6.392   0.912  0.5827 -0.1016  0.4335
    1CHTO   C50  257   6.954   6.296   0.835 -0.7317  0.1866  0.0658
    1CHTO   H92  258   6.961   6.199   0.886  0.9043  1.3877  2.2365
    1CHTO   C54  259   6.801   6.328   0.847  0.3395  0.7262  0.1054
    1CHTO   O36  260   6.780   6.451   0.779  0.2372 -0.3530  0.3278
    1CHTO   H72  261   6.765   6.511   0.849  0.1887 -1.9639  1.7546
    1CHTO   O27  262   7.111   6.563   0.759  0.0386  0.0747 -0.1377
    1CHTO   C37  263   7.136   6.694   0.701  0.2085  0.0059 -0.2621
    1CHTO   H79  264   7.083   6.765   0.766  0.0775 -1.0364  0.7930
    1CHTO   C38  265   7.284   6.730   0.687 -0.0057 -0.8252  0.2243
    1CHTO   H80  266   7.337   6.650   0.633  0.0492  0.0075 -0.9750
    1CHTO   O31  267   7.339   6.760   0.821 -0.1170 -0.0877  0.0943
    1CHTO   H68  268   7.305   6.845   0.845 -2.5605 -1.2572  0.9168
    1CHTO   C39  269   7.292   6.857   0.598 -0.3807 -0.6079  0.1380
    1CHTO   H81  270   7.260   6.947   0.651  0.9661  1.5885 -2.6593
    1CHTO    N7  271   7.428   6.898   0.561  0.1086  0.0395  1.0641
    1CHTO   H73  272   7.499   6.864   0.634  2.3867 -1.1120 -1.6174
    1CHTO   H74  273   7.435   7.006   0.560 -1.7757  0.1726 -0.7558
    1CHTO   C40  274   7.215   6.836   0.457  0.2574 -0.0241  0.1108
    1CHTO   H82  275   7.262   6.753   0.404  0.9367 -0.4334  1.3144
    1CHTO   O26  276   7.078   6.809   0.485  0.0021 -0.0791 -0.1236
    1CHTO   C41  277   7.056   6.684   0.566  0.5801 -0.0036  0.1590
    1CHTO   H83  278   7.084   6.597   0.504 -0.5971 -0.3976  0.1667
    1CHTO   C52  279   6.908   6.671   0.591 -0.0396 -0.0778 -0.2003
    1CHTO   O35  280   6.831   6.694   0.482  0.2494  0.8241 -0.6306
    1CHTO   H71  281   6.852   6.777   0.443 -0.2327  1.1347 -0.2359
    1CHTO   O28  282   7.209   6.954   0.370 -0.4490  0.0834 -0.1260
    1CHTO   C42  283   7.185   6.943   0.229 -0.3146  0.5325 -0.5163
    1CHTO   H84  284   7.146   6.841   0.226 -0.3139  0.5178 -0.0910
    1CHTO   C44  285   7.313   6.932   0.143 -0.1016  0.2773  0.1931
    1CHTO   H86  286   7.370   7.025   0.154  1.2170 -0.4573 -0.3351
    1CHTO   O32  287   7.396   6.827   0.194 -0.4128  0.2921 -0.4658
    1CHTO   H69  288   7.393   6.820   0.287  1.7065 -0.2085 -0.4107
    1CHTO   C48  289   7.280   6.901  -0.011  0.6110  0.2765 -0.2575
    1CHTO   H90  290   7.263   6.793   0.000 -0.3021  0.6521  2.6797
    1CHTO    N9  291   7.397   6.921  -0.102  0.5388  0.0174  0.6685
    1CHTO   H77  292   7.473   6.858  -0.059  0.5489  0.5004  1.3631
    1CHTO   H78  293   7.364   6.876  -0.195  1.8710 -1.1744  0.7618
    1CHTO   C51  294   7.159   6.990  -0.057  0.2826 -0.6649 -0.3614
    1CHTO   H93  295   7.200   7.091  -0.065 -0.7697  0.0363  2.4345
    1CHTO   O30  296   7.045   6.987   0.030 -0.3620 -0.3965 -1.0628
    1CHTO   C46  297   7.081   7.030   0.166 -0.0710  0.3176 -0.1049
    1CHTO   H88  298   7.115   7.133   0.174  1.1320 -0.1297  0.7151
    1CHTO   C53  299   6.949   7.009   0.247 -0.1438 -0.0734 -0.4835
    1CHTO   O72  300   6.953   7.070   0.376  0.1268  0.1778  0.3143
    1CHTO  H199  301   6.997   7.015   0.439 -2.5072 -1.3634  0.9044
    1CHTO   O22  302   7.121   6.943  -0.189 -0.3120 -0.0635 -0.1901
    1CHTO   C31  303   7.025   7.015  -0.273 -0.5796  0.0682 -0.0934
    1CHTO   H59  304   6.984   7.096  -0.209 -1.3918 -0.0382 -0.4806
    1CHTO   C29  305   7.094   7.077  -0.397  0.5650  0.6751  0.3502
    1CHTO   H57  306   7.120   6.981  -0.442 -3.2786 -0.5098  0.4112
    1CHTO   O21  307   7.210   7.150  -0.351  0.1905  0.4364  0.4420
    1CHTO   H37  308   7.202   7.239  -0.323  0.9723  0.9881 -1.0230
    1CHTO   C27  309   6.994   7.149  -0.495  0.0483 -0.6874  0.3406
    1CHTO   H55  310   6.948   7.238  -0.450 -1.3412 -1.9530  1.4904
    1CHTO    N5  311   7.062   7.194  -0.622 -0.6997 -0.0232 -0.1656
    1CHTO   H43  312   7.073   7.301  -0.614  1.5404 -0.3226  1.2178
    1CHTO   H44  313   6.998   7.157  -0.701 -2.5105  1.2257  0.6847
    1CHTO   C25  314   6.868   7.057  -0.517 -0.1026 -0.1316  0.0119
    1CHTO   H53  315   6.894   6.970  -0.580 -1.3560  0.3470 -1.2011
    1CHTO   O17  316   6.818   7.012  -0.386  0.3400 -0.4666  0.3777
    1CHTO   C32  317   6.909   6.928  -0.316  0.2133  0.8024  0.1808
    1CHTO   H60  318   6.940   6.845  -0.379 -2.5280 -0.4047  0.3547
    1CHTO   C36  319   6.839   6.867  -0.194  0.7768 -0.3356  0.3014
    1CHTO   O25  320   6.742   6.763  -0.218 -0.4295 -0.4218 -0.3229
    1CHTO   H40  321   6.738   6.751  -0.311  0.2718  0.6610 -0.4925
    1CHTO   O15  322   6.753   7.128  -0.609  0.0471  0.2065  0.0872
    1CHTO   C19  323   6.636   7.079  -0.693 -0.1169 -0.6216 -0.7653
    1CHTO   H47  324   6.558   7.156  -0.706 -2.7811 -2.4699  3.2474
    1CHTO   C20  325   6.689   7.028  -0.831  0.4298  0.2190  0.2178
    1CHTO   H48  326   6.780   6.966  -0.822  1.0446  1.0025 -0.5030
    1CHTO   O19  327   6.732   7.144  -0.897  0.1656  0.4067 -0.2317
    1CHTO   H35  328   6.812   7.180  -0.865  0.9534 -0.9997 -0.6000
    1CHTO   C21  329   6.574   6.946  -0.912  0.5126 -0.1121  0.2583
    1CHTO   H49  330   6.491   7.012  -0.939  1.0154 -0.2274 -1.6239
    1CHTO    N4  331   6.624   6.876  -1.033  0.1057  0.0888  0.1363
    1CHTO   H41  332   6.537   6.831  -1.080  1.6711  0.1258 -2.8586
    1CHTO   H42  333   6.689   6.797  -0.997  0.6811  0.7186  0.4836
    1CHTO   C22  334   6.510   6.842  -0.814 -0.1036  0.6350  0.2292
    1CHTO   H50  335   6.584   6.766  -0.789  1.9141  2.7248  0.7846
    1CHTO   O14  336   6.461   6.911  -0.701 -0.0442  0.3105 -0.4190
    1CHTO   C23  337   6.560   6.967  -0.619  0.6826 -0.0585 -0.0255
    1CHTO   H51  338   6.627   6.883  -0.594  1.0863  0.5606  0.9751
    1CHTO   C34  339   6.484   7.028  -0.500  0.2047 -0.0354  0.0731
    1CHTO   O23  340   6.440   6.921  -0.413  0.0579  0.5791  0.4267
    1CHTO   H38  341   6.481   6.936  -0.330 -0.6139  0.6457  0.7541
    1CHTO   O16  342   6.388   6.783  -0.862  0.2138  0.6711  0.2649
    1CHTO   C24  343   6.395   6.599  -0.846 -0.5465  0.3406  0.0122
    1CHTO   H52  344   6.493   6.557  -0.866  0.1266  0.3928  2.9558
    1CHTO   C26  345   6.306   6.540  -0.955 -0.5926  0.3214  0.3439
    1CHTO   H54  346   6.205   6.582  -0.936  0.1721  1.5258  1.7542
    1CHTO   O20  347   6.352   6.589  -1.080 -0.2236  0.3958  0.6026
    1CHTO   H36  348   6.312   6.544  -1.152 -3.7755  1.5297  1.7618
    1CHTO   C30  349   6.292   6.382  -0.954  0.6454  0.2801  0.2976
    1CHTO   H58  350   6.383   6.347  -1.004 -0.9918  0.5433 -2.9737
    1CHTO    N6  351   6.176   6.337  -1.037 -0.0745 -0.3390 -0.1767
    1CHTO   H45  352   6.080   6.377  -1.007 -1.3749 -1.5097 -2.6339
    1CHTO   H46  353   6.190   6.364  -1.141  1.3873 -3.5206 -0.8684
    1CHTO   C33  354   6.292   6.325  -0.813  0.3379 -0.3602 -0.2295
    1CHTO   H61  355   6.189   6.330  -0.775 -0.1958  1.4733 -1.8671
    1CHTO   O18  356   6.372   6.399  -0.724  0.0447 -0.3079  0.6175
    1CHTO   C28  357   6.346   6.536  -0.712 -0.4322 -0.9271 -0.0684
    1CHTO   H56  358   6.242   6.557  -0.688 -0.2948 -1.3187  0.8982
    1CHTO   C35  359   6.427   6.602  -0.599 -0.1631 -0.4523 -0.2001
    1CHTO   O24  360   6.561   6.555  -0.600  0.3154 -0.2044  0.2346
    1CHTO   H39  361   6.616   6.592  -0.534  0.9615 -0.4813 -0.1511
    1CHTO    O9  362   6.336   6.184  -0.817 -0.2388  0.2062 -0.0740
    1CHTO   C13  363   6.301   6.118  -0.679 -0.2787 -0.0633 -0.3724
    1CHTO   H26  364   6.212   6.159  -0.625 -1.0552 -3.2147  0.8454
    1CHTO   C11  365   6.426   6.125  -0.582 -0.1649  0.4697 -0.3171
    1CHTO   H24  366   6.445   6.232  -0.565  2.5308  0.2162 -1.5234
    1CHTO    O8  367   6.539   6.070  -0.651  0.6697  0.1452 -0.1091
    1CHTO    H3  368   6.621   6.114  -0.659  0.8817 -0.4108 -1.0565
    1CHTO    C9  369   6.377   6.055  -0.457 -0.6905 -0.7064 -0.0305
    1CHTO   H22  370   6.290   6.115  -0.426 -0.7188  0.2476 -1.9150
    1CHTO    N2  371   6.460   6.082  -0.343  0.1141  0.2653 -0.0638
    1CHTO   H10  372   6.411   6.034  -0.260  1.1696 -0.1177  0.3417
    1CHTO   H11  373   6.552   6.028  -0.359 -0.4728 -1.0613  0.9961
    1CHTO    C7  374   6.342   5.902  -0.486 -0.1034 -0.0557 -0.1486
    1CHTO   H20  375   6.319   5.864  -0.384 -2.7297  4.8087  1.2360
    1CHTO    O4  376   6.232   5.892  -0.578 -0.0281 -0.2203 -0.2507
    1CHTO   C14  377   6.243   5.970  -0.698  0.9487  0.3402 -0.1924
    1CHTO   H27  378   6.134   5.972  -0.721  0.7622 -0.5845  0.5554
    1CHTO   C18  379   6.314   5.881  -0.804 -0.1306  0.1240 -0.0031
    1CHTO   O13  380   6.245   5.767  -0.847  0.0742 -0.1082 -0.7596
    1CHTO    H7  381   6.261   5.722  -0.928 -0.3573 -1.9561  0.1477
    1CHTO    O2  382   6.477   5.825  -0.553  0.3344 -0.0109  0.0488
    1CHTO    C1  383   6.544   5.734  -0.466  0.1627 -0.0385 -0.4405
    1CHTO   H14  384   6.509   5.727  -0.361  0.5016 -2.2398 -0.4401
    1CHTO    C2  385   6.695   5.764  -0.465  0.3968  0.4213  0.6430
    1CHTO   H15  386   6.723   5.763  -0.571 -0.5143 -0.8713  0.3947
    1CHTO    O6  387   6.720   5.892  -0.410  0.2415 -0.4152  0.1944
    1CHTO    H1  388   6.690   5.887  -0.321 -1.4130  0.0887 -0.3121
    1CHTO    C3  389   6.781   5.647  -0.377 -0.2257 -0.2033 -0.3113
    1CHTO   H16  390   6.770   5.652  -0.267  0.9341  1.5965 -0.2667
    1CHTO    N1  391   6.924   5.658  -0.401  0.4601  0.4373  0.1787
    1CHTO    H8  392   6.977   5.629  -0.311  2.0434 -0.6730 -1.0939
    1CHTO    H9  393   6.960   5.753  -0.439 -1.0715  0.3113 -1.6984
    1CHTO    C4  394   6.728   5.505  -0.421  0.1960  0.4449  0.0820
    1CHTO   H17  395   6.772   5.487  -0.519 -1.1163  1.0467 -0.6258
    1CHTO    O1  396   6.588   5.501  -0.437  0.2668  0.3184  0.6370
    1CHTO    C5  397   6.524   5.591  -0.525 -0.6901  0.6061 -0.5247
    1CHTO   H18  398   6.573   5.584  -0.622 -0.9174 -2.0967 -0.4855
    1CHTO   C16  399   6.378   5.551  -0.541  0.1702  0.0736  0.0989
    1CHTO   O11  400   6.356   5.418  -0.596 -0.5295 -0.1026 -0.7652
    1CHTO    H5  401   6.263   5.405  -0.597 -0.3729 -1.2120 -1.7980
    1CHTO    O3  402   6.766   5.398  -0.330  0.0612  0.3049 -0.7870
    1CHTO    C6  403   6.726   5.262  -0.364  0.2499  0.0250  0.0600
    1CHTO   H19  404   6.639   5.258  -0.430 -0.5254  4.0005  0.6856
    1CHTO    C8  405   6.844   5.195  -0.443  1.0866 -0.6545 -0.0879
    1CHTO   H21  406   6.932   5.200  -0.378 -1.0473 -0.9283  2.9248
    1CHTO    O7  407   6.876   5.258  -0.570 -0.0910 -0.4158  0.1185
    1CHTO    H2  408   6.817   5.231  -0.638  2.1596 -0.2506 -1.9501
    1CHTO   C12  409   6.815   5.043  -0.465 -0.2361  1.1079 -0.5389
    1CHTO   H25  410   6.728   5.039  -0.534 -0.6931  2.3294 -0.0430
    1CHTO    N3  411   6.929   4.968  -0.535 -0.0476  0.7107  0.2165
    1CHTO   H12  412   6.885   4.925  -0.624 -0.4599 -0.8506  1.1561
    1CHTO   H13  413   6.974   4.888  -0.477 -1.3965  2.0776  3.2406
    1CHTO   C15  414   6.775   4.978  -0.331  0.5305 -0.1410 -0.4011
    1CHTO   H28  415   6.858   4.988  -0.260  0.5125  0.0121 -0.4004
    1CHTO   O10  416   6.747   4.813  -0.342 -0.5092 -0.0380  0.5619
    1CHTO    H4  417   6.740   4.779  -0.256 -0.4891 -1.5557 -0.0324
    1CHTO    O5  418   6.657   5.041  -0.287  0.4517 -0.3961  0.5968
    1CHTO   C10  419   6.692   5.175  -0.242 -0.0027 -0.3016  0.5577
    1CHTO   H23  420   6.771   5.174  -0.167 -0.6607 -1.4666  1.2484
    1CHTO   C17  421   6.572   5.223  -0.161 -0.7812 -0.1002 -0.1235
    1CHTO   O12  422   6.469   5.251  -0.253 -0.1371 -0.2686  0.5743
    1CHTO    H6  423   6.467   5.338  -0.289  2.7076 -1.3450 -2.4068
    2CHTO  H203  424   3.599   3.120   1.048 -0.1767 -0.2907  0.4651
    2CHTO   O82  425   3.550   3.199   1.045 -0.3105 -0.3717  0.5046
    2CHTO  C123  426   3.629   3.313   1.012 -0.3130 -0.4089 -0.3350
    2CHTO  H227  427   3.700   3.281   0.935  0.8923  1.0005  0.1651
    2CHTO   O77  428   3.522   3.399   0.957 -0.1617 -0.6535 -0.3490
    2CHTO  C118  429   3.580   3.522   0.903 -0.0231 -0.9333  0.1263
    2CHTO  H222  430   3.653   3.508   0.822 -0.2780  0.9672 -0.4580
    2CHTO  C125  431   3.454   3.593   0.847  0.5493  0.1577  0.5979
    2CHTO   O84  432   3.357   3.635   0.947  0.2428 -0.2667  0.7109
    2CHTO  H205  433   3.281   3.677   0.913 -0.4779 -0.2622  2.3020
    2CHTO  C114  434   3.642   3.602   1.017 -0.4429 -0.0793  0.3942
    2CHTO  H218  435   3.560   3.633   1.082  0.7955 -0.8657  2.3988
    2CHTO  C116  436   3.749   3.519   1.102  0.2794 -0.4132  0.3154
    2CHTO  H220  437   3.842   3.504   1.045  1.9544  0.6852  2.6704
    2CHTO   O79  438   3.791   3.589   1.220 -0.6923 -0.2200 -0.5625
    2CHTO  H201  439   3.745   3.670   1.226  0.0228  0.1150  0.6336
    2CHTO  C120  440   3.692   3.380   1.137 -0.0084  0.2012 -0.4147
    2CHTO  H224  441   3.618   3.394   1.218 -0.3872 -0.0651 -0.7173
    2CHTO   N21  442   3.802   3.289   1.194  1.3063 -0.4967 -0.2348
    2CHTO  H211  443   3.799   3.192   1.146 -2.5517 -0.3205 -0.5013
    2CHTO  H212  444   3.808   3.281   1.302  1.7514  0.2088 -0.2045
    2CHTO   O75  445   3.699   3.721   0.958  0.6694 -0.1201 -0.2716
    2CHTO  C112  446   3.637   3.872   1.020  1.0669 -0.0581  0.3115
    2CHTO  H216  447   3.609   3.870   1.126  0.2450 -1.3598  0.0900
    2CHTO   O73  448   3.527   3.905   0.934  0.1467  0.1117  0.8380
    2CHTO  C113  449   3.474   4.037   0.952  0.4227 -0.5039 -0.2826
    2CHTO  H217  450   3.443   4.046   1.058 -0.3570  1.5424 -0.6508
    2CHTO  C124  451   3.348   4.064   0.869 -0.4291  0.7498 -0.4762
    2CHTO   O83  452   3.256   3.959   0.886 -0.6959 -0.1937  0.2320
    2CHTO  H204  453   3.189   3.972   0.821  0.5885  0.5222 -0.9512
    2CHTO  C109  454   3.583   4.148   0.933 -0.0351  0.0632  0.0182
    2CHTO  H213  455   3.615   4.146   0.828  1.1062 -0.5482  0.3704
    2CHTO  C110  456   3.706   4.122   1.030  0.4084  0.8380 -0.3864
    2CHTO  H214  457   3.685   4.143   1.134  0.7796  1.5178 -0.4466
    2CHTO   O78  458   3.808   4.215   0.990 -0.1111 -0.1650 -0.6388
    2CHTO  H200  459   3.892   4.212   1.032 -0.3639 -3.0118 -0.2302
    2CHTO  C111  460   3.748   3.977   1.005  0.2229  0.0156 -0.3343
    2CHTO  H215  461   3.786   3.973   0.902 -0.8334  1.3100 -0.7884
    2CHTO   N19  462   3.865   3.941   1.095  0.2669  0.1230  0.5828
    2CHTO  H207  463   3.897   3.842   1.068  0.8752  0.4170  0.2201
    2CHTO  H208  464   3.826   3.954   1.195 -0.0872 -3.1773  0.9316
    2CHTO   O74  465   3.523   4.283   0.958 -0.0357 -0.1941  0.5241
    2CHTO  C115  466   3.566   4.399   0.864  0.2798  1.4146  0.7930
    2CHTO  H219  467   3.646   4.371   0.795 -0.5023  2.5761 -0.5866
    2CHTO   O76  468   3.443   4.443   0.769 -0.3231 -0.2649 -0.0805
    2CHTO  C122  469   3.328   4.491   0.826 -0.8742  0.7423  0.2835
    2CHTO  H226  470   3.259   4.411   0.853 -1.1055  1.0609  0.6426
    2CHTO  C126  471   3.255   4.573   0.718  0.2213  0.1354 -0.5559
    2CHTO   O85  472   3.174   4.493   0.633  0.3913  0.0889  0.6382
    2CHTO  H206  473   3.198   4.403   0.639  0.8456  0.1102 -0.6708
    2CHTO  C121  474   3.364   4.588   0.953  0.6341 -0.5952  0.4948
    2CHTO  H225  475   3.299   4.678   0.949  0.9360 -0.4077 -0.1786
    2CHTO   O81  476   3.346   4.515   1.071  0.1762  0.3368 -0.2625
    2CHTO  H202  477   3.412   4.533   1.135 -2.5912 -0.6294  3.0122
    2CHTO  C119  478   3.514   4.647   0.945 -0.4475  0.4021  0.1889
    2CHTO  H223  479   3.513   4.692   0.846 -0.1825  0.0405  0.0183
    2CHTO  C117  480   3.609   4.521   0.956 -0.2329  0.1701 -0.3691
    2CHTO  H221  481   3.616   4.485   1.058  3.0380  0.7502 -0.3365
    2CHTO   N20  482   3.751   4.553   0.927  0.8321  0.1646  0.2871
    2CHTO  H209  483   3.824   4.477   0.949  2.5174  1.9516  0.9345
    2CHTO  H210  484   3.768   4.617   0.842 -2.4399  1.3802  0.4489
    2CHTO   O80  485   3.543   4.775   1.038 -0.2396  0.1421  0.5677
    2CHTO  C103  486   3.563   4.911   0.973  0.9214  0.0919  0.4912
    2CHTO  H190  487   3.588   4.991   1.044  1.0099  0.5962 -0.1048
    2CHTO  C101  488   3.664   4.915   0.850  0.1623  0.0404 -0.1454
    2CHTO  H188  489   3.647   4.837   0.776  2.0696 -0.1903 -0.3853
    2CHTO   O68  490   3.797   4.880   0.898  0.0820 -0.0686 -0.2473
    2CHTO  H168  491   3.847   4.949   0.938  2.1260 -0.4445 -2.0813
    2CHTO   C99  492   3.657   5.053   0.769 -1.2509 -0.3411 -0.0144
    2CHTO  H186  493   3.669   5.136   0.842  1.0016  0.1242 -0.8811
    2CHTO   N17  494   3.757   5.073   0.661  0.1134  0.0937  0.3629
    2CHTO  H174  495   3.768   5.178   0.640 -1.0201  0.5601  2.0036
    2CHTO  H175  496   3.734   5.008   0.578 -3.3447  0.9545  0.5659
    2CHTO   C97  497   3.514   5.058   0.713 -0.8787 -0.4951  0.6424
    2CHTO  H184  498   3.503   4.975   0.642  1.8360 -0.2052 -0.1869
    2CHTO   O64  499   3.424   5.062   0.822  0.8023 -0.3997 -0.6223
    2CHTO  C104  500   3.417   4.944   0.907  0.2274 -0.2281  0.5228
    2CHTO  H191  501   3.385   4.854   0.854 -1.0586  0.5583 -0.0434
    2CHTO  C108  502   3.319   4.971   1.019  0.0613 -0.5531 -0.4129
    2CHTO   O71  503   3.182   4.970   0.990 -0.2824  0.2166  0.1703
    2CHTO  H171  504   3.150   4.882   0.999  2.2093 -0.5301  2.3694
    2CHTO   O62  505   3.482   5.175   0.636  0.2828 -0.6452  0.3915
    2CHTO   C91  506   3.343   5.198   0.592 -0.0043  0.3102  0.4092
    2CHTO  H178  507   3.272   5.131   0.641 -2.0666 -0.2232 -3.0859
    2CHTO   C92  508   3.337   5.166   0.441 -0.2412 -0.6114  0.4856
    2CHTO  H179  509   3.409   5.224   0.381 -2.5682  0.6454 -1.1790
    2CHTO   O66  510   3.369   5.023   0.428  0.1383  0.1107 -0.1860
    2CHTO  H166  511   3.290   4.977   0.410 -1.6080  3.7999 -2.6568
    2CHTO   C93  512   3.194   5.201   0.382  0.2913  0.3872 -0.2006
    2CHTO  H180  513   3.117   5.142   0.434  0.7521 -1.0861 -1.1686
    2CHTO   N16  514   3.179   5.166   0.240  1.1543 -0.0618 -0.0121
    2CHTO  H172  515   3.229   5.243   0.182 -1.4361  0.3591 -1.7420
    2CHTO  H173  516   3.224   5.070   0.218  0.7831  0.4183 -2.9805
    2CHTO   C94  517   3.172   5.355   0.408 -0.0418  0.3211 -0.3397
    2CHTO  H181  518   3.248   5.417   0.361  0.0694  1.6970  1.6140
    2CHTO   O61  519   3.168   5.387   0.548 -0.2950 -0.0609  0.7570
    2CHTO   C95  520   3.286   5.345   0.627  0.2014  0.2222  0.0029
    2CHTO  H182  521   3.366   5.412   0.598  0.1660  1.0891  1.8722
    2CHTO  C106  522   3.247   5.356   0.778  0.0501 -0.5608  0.2943
    2CHTO   O69  523   3.137   5.265   0.820  0.2506 -0.2157 -0.3454
    2CHTO  H169  524   3.065   5.322   0.841  0.0920 -0.4007 -0.3921
    2CHTO   O63  525   3.025   5.401   0.349  0.0086  0.3402  0.3886
    2CHTO   C96  526   3.036   5.521   0.276 -0.1103 -0.5327 -0.4707
    2CHTO  H183  527   3.131   5.522   0.223 -0.3706 -0.1539 -0.9334
    2CHTO   C98  528   3.029   5.648   0.361 -0.0518 -0.6686 -0.2101
    2CHTO  H185  529   2.948   5.641   0.436 -0.1146  0.7945 -0.1126
    2CHTO   O67  530   3.151   5.642   0.438  0.0937 -0.2111  0.1420
    2CHTO  H167  531   3.148   5.567   0.495 -1.2981 -0.1827  0.1407
    2CHTO  C102  532   3.029   5.787   0.278 -0.8666  0.0479  0.2234
    2CHTO  H189  533   3.136   5.803   0.255 -1.1102  0.0834 -0.9396
    2CHTO   N18  534   2.996   5.908   0.352 -0.5384  0.2863 -0.1168
    2CHTO  H176  535   2.892   5.909   0.379 -0.8596  1.7453 -1.3356
    2CHTO  H177  536   3.048   5.911   0.447 -0.2884  1.6332 -0.2821
    2CHTO  C105  537   2.946   5.775   0.149 -0.2637 -0.4014  0.3481
    2CHTO  H192  538   2.847   5.814   0.171 -0.1225 -0.4776  1.1289
    2CHTO   O65  539   2.939   5.646   0.088 -0.0870  0.0338  0.0041
    2CHTO  C100  540   2.922   5.529   0.169  0.9006 -0.1000 -0.6029
    2CHTO  H187  541   2.823   5.539   0.216  1.7772  1.3470  0.9920
    2CHTO  C107  542   2.907   5.401   0.084 -0.2617  0.4435  0.3089
    2CHTO   O70  543   2.813   5.306   0.147 -0.2893 -0.1419 -0.2058
    2CHTO  H170  544   2.802   5.226   0.100 -0.8868 -0.2223  0.0736
    2CHTO   O57  545   3.011   5.875   0.050  0.3750  0.3702 -0.5556
    2CHTO   C85  546   2.932   5.953  -0.034  0.1171  0.4000 -0.1018
    2CHTO  H157  547   2.872   6.012   0.038 -1.0037 -1.8457  0.8554
    2CHTO   C83  548   2.822   5.864  -0.120 -0.9522 -0.3201  0.3461
    2CHTO  H155  549   2.743   5.819  -0.060 -1.9944  1.0844  0.0697
    2CHTO   O56  550   2.893   5.755  -0.179 -0.3253  0.2723 -0.4257
    2CHTO  H135  551   2.910   5.693  -0.111  0.8063  0.9253 -0.0930
    2CHTO   C81  552   2.744   5.953  -0.223 -0.3458 -0.7733  0.3069
    2CHTO  H153  553   2.690   6.028  -0.165  0.5684 -2.0460  2.8942
    2CHTO   N14  554   2.639   5.870  -0.296 -0.2817  0.4867  0.0679
    2CHTO  H141  555   2.686   5.776  -0.318  0.4087  1.3484 -2.2289
    2CHTO  H142  556   2.617   5.919  -0.388  1.3159  1.3874  0.1453
    2CHTO   C79  557   2.846   6.027  -0.319  0.7051  0.0414  0.5612
    2CHTO  H151  558   2.787   6.097  -0.378 -0.5363 -0.1654  1.5446
    2CHTO   O52  559   2.939   6.103  -0.240 -0.4411  0.2753 -0.0208
    2CHTO   C86  560   3.014   6.044  -0.131 -0.6297 -0.3357  0.2095
    2CHTO  H158  561   3.087   5.979  -0.184  0.6179  0.9126  0.3912
    2CHTO   C90  562   3.094   6.153  -0.064  0.3397  0.0228 -0.0208
    2CHTO   O60  563   3.008   6.264  -0.030  0.0416 -0.1269 -0.0722
    2CHTO  H138  564   3.037   6.328   0.032  0.9567  1.4646 -2.0797
    2CHTO   O50  565   2.918   5.937  -0.409 -0.1256 -0.1223 -0.0919
    2CHTO   C73  566   2.957   5.927  -0.546  0.2101 -0.2745 -0.6114
    2CHTO  H145  567   2.948   6.024  -0.599  1.5446 -0.0891 -0.5290
    2CHTO   C74  568   2.874   5.824  -0.630 -0.3266 -0.2007  0.1651
    2CHTO  H146  569   2.769   5.855  -0.624  0.1965  1.3994  1.4674
    2CHTO   O54  570   2.919   5.837  -0.766  0.3827 -0.0027  0.5102
    2CHTO  H133  571   2.996   5.796  -0.802  2.7579  1.5099  3.5933
    2CHTO   C75  572   2.901   5.682  -0.569 -0.1674 -0.3679 -0.5978
    2CHTO  H147  573   2.868   5.685  -0.464 -0.9216 -0.3312 -0.8394
    2CHTO   N13  574   2.823   5.573  -0.627 -0.0583  0.0951  0.1978
    2CHTO  H139  575   2.842   5.556  -0.732 -1.9095 -0.0666 -0.1234
    2CHTO  H140  576   2.849   5.483  -0.574 -1.2150 -0.4199 -0.1079
    2CHTO   C76  577   3.059   5.648  -0.573  0.0670 -0.3252 -0.6261
    2CHTO  H148  578   3.097   5.636  -0.675  0.3874  0.3585 -0.5897
    2CHTO   O49  579   3.128   5.760  -0.506 -1.1939 -0.3641  0.9960
    2CHTO   C77  580   3.107   5.892  -0.553  0.2089 -0.1377  0.0268
    2CHTO  H149  581   3.139   5.893  -0.658 -0.7327 -0.8100 -0.2776
    2CHTO   C88  582   3.196   5.996  -0.488 -0.4202  0.4253 -0.9228
    2CHTO   O58  583   3.206   6.132  -0.582  0.0151  0.1675 -0.0881
    2CHTO  H136  584   3.230   6.102  -0.667  1.8306  1.5917 -0.1033
    2CHTO   O51  585   3.091   5.537  -0.482  0.5889 -0.0737 -0.1635
    2CHTO   C78  586   3.270   5.522  -0.430 -0.0571  0.1100 -1.2319
    2CHTO  H150  587   3.325   5.618  -0.424  0.6998 -0.3760 -0.3291
    2CHTO   C80  588   3.333   5.424  -0.528 -0.2251  0.0120 -0.0605
    2CHTO  H152  589   3.272   5.333  -0.547  2.0437 -1.7595  0.9316
    2CHTO   O55  590   3.340   5.504  -0.641 -0.0626 -0.2402  0.7384
    2CHTO  H134  591   3.288   5.470  -0.712 -0.6548  0.5979  0.7646
    2CHTO   C84  592   3.485   5.383  -0.485  0.6929 -0.6169  0.2267
    2CHTO  H156  593   3.552   5.469  -0.484 -0.4581  0.2965  0.1867
    2CHTO   N15  594   3.556   5.279  -0.564 -0.4657 -0.6262 -0.4551
    2CHTO  H143  595   3.483   5.207  -0.596 -0.5558 -0.4870 -0.5668
    2CHTO  H144  596   3.599   5.329  -0.648  1.5904 -1.2818  0.1942
    2CHTO   C87  597   3.494   5.346  -0.337  0.8599 -0.2161 -0.5412
    2CHTO  H159  598   3.449   5.249  -0.316 -0.9903  0.9957  1.2163
    2CHTO   O53  599   3.415   5.454  -0.249  0.0724  0.3016 -0.1937
    2CHTO   C82  600   3.273   5.458  -0.293  0.3072  0.8499 -0.7817
    2CHTO  H154  601   3.240   5.354  -0.298  1.3663  0.3966  1.0015
    2CHTO   C89  602   3.183   5.535  -0.182  0.1268 -0.4183  0.1265
    2CHTO   O59  603   3.176   5.480  -0.053  0.0242  0.2224  0.1755
    2CHTO  H137  604   3.167   5.387  -0.059  0.4735  0.1500  0.5513
    2CHTO   O45  605   3.668   5.359  -0.281 -0.2068 -0.1403 -0.4005
    2CHTO   C67  606   3.664   5.357  -0.137  0.3683  0.1891 -0.0801
    2CHTO  H124  607   3.600   5.434  -0.094  1.0350 -0.0932  1.4563
    2CHTO   C65  608   3.620   5.217  -0.082 -0.5760 -0.6169 -0.1965
    2CHTO  H122  609   3.649   5.133  -0.145 -1.6750 -1.0684 -0.0986
    2CHTO   O44  610   3.477   5.215  -0.081  0.0811 -0.3277 -0.1945
    2CHTO  H102  611   3.443   5.288  -0.033  3.0159 -0.1407  1.7699
    2CHTO   C63  612   3.692   5.184   0.059 -0.3511  0.4360  0.5079
    2CHTO  H120  613   3.787   5.136   0.036 -1.3530 -0.0191 -2.8554
    2CHTO   N11  614   3.632   5.075   0.142 -0.2658  0.2956  0.2067
    2CHTO  H108  615   3.569   5.124   0.213  0.7404 -0.5043  1.7106
    2CHTO  H109  616   3.704   5.033   0.210 -0.7523  0.9834  1.1702
    2CHTO   C61  617   3.720   5.319   0.142 -0.3283  0.6299  0.5787
    2CHTO  H118  618   3.791   5.291   0.221 -0.0892  1.8389  0.7951
    2CHTO   O40  619   3.791   5.416   0.064  0.0019 -0.4860  0.4743
    2CHTO   C68  620   3.808   5.398  -0.080 -0.3261  0.6257 -0.4665
    2CHTO  H125  621   3.881   5.315  -0.092 -0.0410  0.4876  2.0686
    2CHTO   C72  622   3.873   5.523  -0.131 -0.0827  0.2803  0.0644
    2CHTO   O48  623   3.945   5.496  -0.247 -0.8424 -0.4110  0.4275
    2CHTO  H105  624   3.989   5.413  -0.245  0.7758  0.4613  1.5073
    2CHTO   O38  625   3.597   5.376   0.203  0.9257  1.1006  0.1571
    2CHTO   C55  626   3.603   5.501   0.272 -0.4690  0.8609 -0.0900
    2CHTO  H112  627   3.680   5.571   0.238  0.6169  0.4325  1.4100
    2CHTO   C56  628   3.616   5.467   0.421 -0.2861 -0.0944  0.4960
    2CHTO  H113  629   3.525   5.410   0.446  0.3226 -0.0861  2.8494
    2CHTO   O42  630   3.736   5.391   0.434  0.0113  0.6343 -0.2239
    2CHTO  H100  631   3.757   5.369   0.523 -1.3790  1.3744  0.3140
    2CHTO   C57  632   3.609   5.602   0.507  0.1896  0.0584 -0.1579
    2CHTO  H114  633   3.690   5.657   0.459 -0.1373  1.5403  0.9100
    2CHTO   N10  634   3.618   5.586   0.655  0.0527 -0.1617 -0.2219
    2CHTO  H106  635   3.725   5.588   0.670  0.2333 -1.8769 -1.1888
    2CHTO  H107  636   3.565   5.658   0.716 -0.9819 -0.3054 -0.9309
    2CHTO   C58  637   3.480   5.681   0.475 -0.3919 -0.8379 -0.0198
    2CHTO  H115  638   3.394   5.621   0.512 -2.5828  2.2836  0.1474
    2CHTO   O37  639   3.469   5.693   0.328  0.0532 -0.3246 -0.0693
    2CHTO   C59  640   3.469   5.575   0.255 -0.7279 -0.5380 -0.4090
    2CHTO  H116  641   3.387   5.514   0.292 -0.1894 -0.4039  1.0398
    2CHTO   C70  642   3.447   5.607   0.107 -0.6244  0.9466  0.2741
    2CHTO   O46  643   3.333   5.692   0.079  0.0280 -0.4610 -0.3772
    2CHTO  H103  644   3.359   5.779   0.100  0.3291 -0.5123 -0.5273
    2CHTO   O39  645   3.479   5.849   0.552 -0.0851 -0.3902 -0.1838
    2CHTO   C60  646   3.348   5.912   0.579  0.0938 -0.0157  0.2725
    2CHTO  H117  647   3.271   5.850   0.533  0.6344  0.0095 -0.6965
    2CHTO   C62  648   3.312   5.924   0.735  0.4381  0.4400  0.7339
    2CHTO  H119  649   3.291   5.818   0.761  0.6602  0.2963  0.3234
    2CHTO   O43  650   3.421   5.973   0.817  0.2814 -0.3688  0.3167
    2CHTO  H101  651   3.459   5.900   0.863  0.3717  1.0175  2.5419
    2CHTO   C66  652   3.178   6.000   0.751  0.0739 -0.1754  0.6667
    2CHTO  H123  653   3.107   5.959   0.681  2.2285  0.1196 -1.7796
    2CHTO   N12  654   3.124   5.985   0.886  0.7589  0.1186  0.1487
    2CHTO  H110  655   3.049   6.059   0.908  0.5428 -0.3085  0.8871
    2CHTO  H111  656   3.094   5.883   0.905 -0.2322  0.8188  2.5059
    2CHTO   C69  657   3.200   6.144   0.702 -0.1477 -0.1911  1.3328
    2CHTO  H126  658   3.280   6.203   0.753 -1.5503  1.9554  1.0982
    2CHTO   O41  659   3.227   6.136   0.537  0.1829  0.5362 -0.0714
    2CHTO   C64  660   3.347   6.055   0.506  0.3443 -0.1062 -0.2697
    2CHTO  H121  661   3.437   6.103   0.549 -0.7578  1.7530  0.0017
    2CHTO   C71  662   3.371   6.042   0.353 -0.4174  0.1273 -0.0523
    2CHTO   O47  663   3.393   6.168   0.295  0.4755 -0.4499  0.6087
    2CHTO  H104  664   3.425   6.169   0.207 -1.5017  0.7060 -0.1192
    2CHTO   O34  665   3.099   6.226   0.710  0.2483  0.3477  0.1751
    2CHTO   C49  666   2.996   6.307   0.742 -0.0269  0.4623 -0.0613
    2CHTO   H91  667   2.910   6.254   0.782  1.1874 -1.7567 -0.3174
    2CHTO   C47  668   2.947   6.375   0.610 -0.2526  0.1832  0.4208
    2CHTO   H89  669   2.851   6.424   0.635  1.6813  2.5183  3.4992
    2CHTO   O33  670   2.911   6.259   0.519  0.3715 -0.2994 -0.2738
    2CHTO   H70  671   2.828   6.273   0.478 -0.1008 -1.4562  0.2552
    2CHTO   C45  672   3.047   6.488   0.556 -0.1945  0.1006  0.3952
    2CHTO   H87  673   3.138   6.428   0.538 -0.2604 -0.1419  0.8686
    2CHTO    N8  674   3.000   6.539   0.428  0.6602  0.0162 -0.0950
    2CHTO   H75  675   3.080   6.603   0.395 -1.0576  0.9809 -2.5424
    2CHTO   H76  676   2.910   6.593   0.452 -0.6202 -1.6159 -1.0830
    2CHTO   C43  677   3.082   6.598   0.670 -0.6882  0.7498  0.4695
    2CHTO   H85  678   3.169   6.651   0.631  0.7896 -1.5826  0.5191
    2CHTO   O29  679   3.113   6.532   0.793 -0.2056 -0.5758  0.1168
    2CHTO   C50  680   3.036   6.420   0.848  0.3589  0.0722  0.2119
    2CHTO   H92  681   3.102   6.376   0.925  0.3299  0.3945  0.4219
    2CHTO   C54  682   2.915   6.471   0.927 -0.4473  0.5724 -0.0961
    2CHTO   O36  683   2.868   6.380   1.026 -0.0969 -0.0475 -0.1987
    2CHTO   H72  684   2.944   6.359   1.076  1.5222 -2.0381 -3.3703
    2CHTO   O27  685   2.973   6.688   0.696 -0.1231  0.1126 -0.3975
    2CHTO   C37  686   2.912   6.816   0.679  0.9299 -0.3643 -0.4115
    2CHTO   H79  687   2.902   6.848   0.574 -2.8569  0.8384  0.2345
    2CHTO   C38  688   2.759   6.796   0.732 -0.4196  0.3098  0.1988
    2CHTO   H80  689   2.767   6.754   0.834 -0.2628  1.0604  0.5048
    2CHTO   O31  690   2.698   6.711   0.634  0.2743  0.3629  0.7518
    2CHTO   H68  691   2.733   6.624   0.637 -0.4650  0.0422  0.2614
    2CHTO   C39  692   2.685   6.928   0.732  0.1749  0.2584  0.2655
    2CHTO   H81  693   2.670   6.961   0.629  0.3931 -0.0791  0.1225
    2CHTO    N7  694   2.542   6.921   0.783 -0.8955  0.4706 -0.3916
    2CHTO   H73  695   2.468   6.927   0.705 -0.5858 -2.3495 -0.9616
    2CHTO   H74  696   2.524   6.838   0.851 -1.8249  1.5410  0.7024
    2CHTO   C40  697   2.772   7.039   0.812 -0.0543  0.4188  0.7595
    2CHTO   H82  698   2.768   7.017   0.919 -2.0226  0.8796  0.7927
    2CHTO   O26  699   2.906   7.048   0.761  0.1118 -0.1570 -0.7007
    2CHTO   C41  700   2.984   6.924   0.763  0.2554 -0.2560  0.1879
    2CHTO   H83  701   2.991   6.897   0.869 -1.0403  1.8240  0.8241
    2CHTO   C52  702   3.122   6.960   0.713 -0.1572  0.1110  0.3571
    2CHTO   O35  703   3.173   7.044   0.786 -0.9833 -1.2605 -0.5286
    2CHTO   H71  704   3.193   7.001   0.867 -1.9636  0.8413  0.8952
    2CHTO   O28  705   2.711   7.169   0.798  0.3969  0.1111  0.3196
    2CHTO   C42  706   2.722   7.268   0.902  0.4793  0.6624  1.1522
    2CHTO   H84  707   2.713   7.359   0.842  1.9625  1.0151  1.4344
    2CHTO   C44  708   2.867   7.281   0.973 -0.1012  0.2785  0.3075
    2CHTO   H86  709   2.894   7.183   1.014 -0.3485  1.1599  2.6529
    2CHTO   O32  710   2.957   7.309   0.862  0.3809 -0.4196 -0.2630
    2CHTO   H69  711   3.047   7.290   0.879  0.9128 -0.8109 -3.2277
    2CHTO   C48  712   2.862   7.386   1.089 -0.1478  0.2814 -0.2097
    2CHTO   H90  713   2.842   7.483   1.044 -1.0416 -0.5460 -1.6180
    2CHTO    N9  714   2.998   7.392   1.154 -0.2400 -0.1295 -0.0510
    2CHTO   H77  715   3.021   7.491   1.191  1.5904 -0.3872 -0.4848
    2CHTO   H78  716   3.073   7.352   1.088  0.0607  1.7384 -0.8703
    2CHTO   C51  717   2.746   7.351   1.188 -0.0002  0.6891 -0.2926
    2CHTO   H93  718   2.751   7.248   1.225 -0.2079  1.4159  1.8207
    2CHTO   O30  719   2.629   7.382   1.111 -0.3615  0.0087  0.0391
    2CHTO   C46  720   2.598   7.273   0.998 -0.0372  0.0574  0.1561
    2CHTO   H88  721   2.589   7.170   1.031  3.7470 -0.1992  0.5512
    2CHTO   C53  722   2.468   7.321   0.929  0.2353  0.3956  0.8196
    2CHTO   O72  723   2.426   7.216   0.843  0.3227  0.1332 -0.2431
    2CHTO  H199  724   2.362   7.162   0.885  0.1632  1.1665  0.8891
    2CHTO   O22  725   2.750   7.442   1.297  0.0388  0.6226 -0.5488
    2CHTO   C31  726   2.687   7.387   1.425 -0.0157  0.0840  0.0988
    2CHTO   H59  727   2.686   7.475   1.493  0.9551  2.4505 -2.8399
    2CHTO   C29  728   2.540   7.338   1.411 -0.2710 -0.1363  0.1907
    2CHTO   H57  729   2.516   7.272   1.326 -1.0432  0.2511  0.1117
    2CHTO   O21  730   2.462   7.455   1.385  1.0886  0.5165  0.4421
    2CHTO   H37  731   2.418   7.443   1.302 -0.1533  1.8621  0.8798
    2CHTO   C27  732   2.497   7.258   1.537  0.7412 -0.0852 -0.2826
    2CHTO   H55  733   2.490   7.326   1.623 -0.1433  1.3314 -1.4631
    2CHTO    N5  734   2.361   7.196   1.510 -0.0566  0.1346 -0.3436
    2CHTO   H43  735   2.370   7.090   1.488 -0.4041  0.2500 -1.0774
    2CHTO   H44  736   2.289   7.232   1.582 -0.5891 -1.5740  0.0021
    2CHTO   C25  737   2.602   7.159   1.598  0.0487 -0.8206  0.2006
    2CHTO   H53  738   2.621   7.073   1.532 -0.6342 -1.3839  0.7325
    2CHTO   O17  739   2.729   7.234   1.617 -0.3454 -0.3673 -0.0231
    2CHTO   C32  740   2.786   7.283   1.496  0.1061  0.2063  0.5352
    2CHTO   H60  741   2.800   7.193   1.436 -0.7179  1.4095 -1.5172
    2CHTO   C36  742   2.912   7.352   1.546 -0.1105 -0.3839  0.3394
    2CHTO   O25  743   2.883   7.464   1.627 -0.0146 -0.2671 -0.1222
    2CHTO   H40  744   2.882   7.433   1.716  0.9350 -1.1270 -0.3951
    2CHTO   O15  745   2.552   7.110   1.730 -0.0473  0.0912  0.1543
    2CHTO   C19  746   2.611   7.048   1.843 -0.2881  0.5138  0.5088
    2CHTO   H47  747   2.522   7.001   1.888 -0.6032  1.0132  0.4053
    2CHTO   C20  748   2.714   6.931   1.808  0.4850 -0.7278  0.0550
    2CHTO   H48  749   2.801   6.971   1.753 -0.5891  1.6886  0.0667
    2CHTO   O19  750   2.638   6.838   1.725 -0.2592 -0.3860 -0.2781
    2CHTO   H35  751   2.577   6.879   1.667  0.3803  1.9174  0.6058
    2CHTO   C21  752   2.750   6.861   1.946 -0.6919  0.0319 -0.1673
    2CHTO   H49  753   2.664   6.801   1.976 -0.9344  0.6054  0.3055
    2CHTO    N4  754   2.859   6.768   1.928 -0.2345  0.0309  0.3367
    2CHTO   H41  755   2.943   6.824   1.892 -0.7256 -0.3749 -1.4625
    2CHTO   H42  756   2.884   6.721   2.022 -1.5085 -2.3364 -0.4722
    2CHTO   C22  757   2.795   6.968   2.046  0.1179 -0.1276 -0.1437
    2CHTO   H50  758   2.887   7.019   2.015  0.6839 -1.4080 -0.6095
    2CHTO   O14  759   2.694   7.059   2.061 -0.3759 -0.4280  0.2053
    2CHTO   C23  760   2.675   7.138   1.951  0.1753  0.4612 -0.4139
    2CHTO   H51  761   2.775   7.174   1.925  1.8055 -2.3035  1.7126
    2CHTO   C34  762   2.586   7.255   2.001  0.3152  0.2070 -0.0372
    2CHTO   O23  763   2.551   7.352   1.902  0.1231  0.3246 -0.3470
    2CHTO   H38  764   2.517   7.426   1.948  0.8410  0.2418  0.3157
    2CHTO   O16  765   2.813   6.910   2.184  0.5635  0.0346  0.0087
    2CHTO   C24  766   2.845   7.004   2.296 -0.1434 -0.0987 -0.3338
    2CHTO   H52  767   2.807   7.105   2.278 -0.1644 -0.3235 -1.6011
    2CHTO   C26  768   2.997   7.004   2.322 -0.4737 -0.2757 -1.0924
    2CHTO   H54  769   3.031   6.905   2.362  1.3993  1.5370  2.0116
    2CHTO   O20  770   3.075   7.033   2.202  0.0736 -0.1228 -0.1556
    2CHTO   H36  771   3.166   7.046   2.217 -0.1353  0.5195  0.5836
    2CHTO   C30  772   3.015   7.098   2.445  0.7722  0.3406 -0.7706
    2CHTO   H58  773   2.973   7.198   2.430  1.7301  0.5178 -2.4780
    2CHTO    N6  774   3.155   7.126   2.480  0.0240 -0.4653  0.1474
    2CHTO   H45  775   3.166   7.218   2.536 -0.2292  1.0604 -2.2421
    2CHTO   H46  776   3.192   7.045   2.541  0.1591  0.6120  1.5332
    2CHTO   C33  777   2.937   7.034   2.569  0.5067  0.2832 -0.7068
    2CHTO   H61  778   2.980   6.935   2.592 -3.3551 -1.3969 -0.3660
    2CHTO   O18  779   2.798   7.011   2.542  0.0524 -0.2803  0.2504
    2CHTO   C28  780   2.767   6.948   2.415  0.0954  0.1471  0.2275
    2CHTO   H56  781   2.782   6.840   2.420  1.8352  0.3359 -0.3758
    2CHTO   C35  782   2.609   6.969   2.394 -0.5746 -0.3551  0.2361
    2CHTO   O24  783   2.550   6.882   2.294  0.4055 -0.3810 -0.0964
    2CHTO   H39  784   2.563   6.915   2.207 -1.9344  0.6578 -0.0757
    2CHTO    O9  785   2.958   7.110   2.689  0.3661 -0.4012  0.5101
    2CHTO   C13  786   2.941   7.018   2.816  0.2405  0.3185  0.2976
    2CHTO   H26  787   2.999   6.925   2.799  0.4756  0.6100 -0.4683
    2CHTO   C11  788   2.788   6.978   2.852 -0.1763 -0.9781 -0.4842
    2CHTO   H24  789   2.766   6.890   2.790 -0.5121  0.7110 -2.8259
    2CHTO    O8  790   2.712   7.091   2.799 -0.0937 -0.3632  0.2162
    2CHTO    H3  791   2.646   7.060   2.741 -1.1233 -1.0609  1.7129
    2CHTO    C9  792   2.754   6.954   3.004  0.0823 -0.3421  1.0115
    2CHTO   H22  793   2.827   6.876   3.031  0.8173 -0.1588 -0.4141
    2CHTO    N2  794   2.623   6.889   3.040 -0.5721 -0.5173 -0.1520
    2CHTO   H10  795   2.585   6.828   2.958  1.8413 -1.6676 -0.4456
    2CHTO   H11  796   2.630   6.830   3.130 -1.8989 -0.4770 -0.0123
    2CHTO    C7  797   2.789   7.092   3.077  0.3567 -0.2963 -0.2552
    2CHTO   H20  798   2.827   7.051   3.173 -0.9122 -0.9858 -0.0298
    2CHTO    O4  799   2.902   7.163   3.010 -0.5538 -0.1406  0.2014
    2CHTO   C14  800   3.004   7.085   2.937  1.1270 -0.5088  0.0329
    2CHTO   H27  801   3.046   7.011   3.009  0.9788 -1.8356 -1.2345
    2CHTO   C18  802   3.120   7.186   2.897  0.2095  0.2731 -0.4142
    2CHTO   O13  803   3.170   7.264   3.003  0.1456 -0.7612  0.4524
    2CHTO    H7  804   3.128   7.348   2.998  0.7231 -0.3526  2.0685
    2CHTO    O2  805   2.671   7.186   3.095 -0.1202  0.7142  0.6856
    2CHTO    C1  806   2.699   7.332   3.094  0.2702 -0.4574  0.3763
    2CHTO   H14  807   2.770   7.354   3.012 -0.0704 -0.7735 -0.0100
    2CHTO    C2  808   2.762   7.385   3.231 -0.0093  0.2233 -0.5072
    2CHTO   H15  809   2.690   7.353   3.308  0.1038 -1.2171 -0.9932
    2CHTO    O6  810   2.896   7.336   3.261  0.6304 -0.0829 -0.3267
    2CHTO    H1  811   2.944   7.311   3.184 -1.8296 -3.4846 -0.8368
    2CHTO    C3  812   2.760   7.545   3.232  0.3377 -0.7645  0.2242
    2CHTO   H16  813   2.834   7.568   3.154 -0.1883 -2.3144 -0.7581
    2CHTO    N1  814   2.807   7.620   3.356 -0.7528  0.5078  0.1052
    2CHTO    H8  815   2.808   7.726   3.334  2.5800  0.4304 -0.2822
    2CHTO    H9  816   2.746   7.604   3.445 -2.2358  1.2970 -0.7429
    2CHTO    C4  817   2.626   7.606   3.168  0.0338  0.2014 -0.2714
    2CHTO   H17  818   2.550   7.595   3.246  0.4092  0.2151  0.1031
    2CHTO    O1  819   2.587   7.540   3.046 -0.4238  0.1135  0.2863
    2CHTO    C5  820   2.560   7.403   3.065 -0.0438  0.0188  0.6726
    2CHTO   H18  821   2.505   7.391   3.158 -0.3633  1.6318  0.7154
    2CHTO   C16  822   2.481   7.351   2.943 -0.0817 -0.1155 -0.0819
    2CHTO   O11  823   2.340   7.388   2.939 -0.1727 -0.2054 -0.0219
    2CHTO    H5  824   2.306   7.407   3.025  0.2174  0.8076 -0.0798
    2CHTO    O3  825   2.641   7.749   3.142 -0.0976 -0.4478 -0.1343
    2CHTO    C6  826   2.515   7.825   3.128 -0.3342  0.4074 -0.6643
    2CHTO   H19  827   2.437   7.765   3.082  0.5961 -1.5146  0.1952
    2CHTO    C8  828   2.479   7.880   3.266 -0.4621  0.4965 -0.3755
    2CHTO   H21  829   2.559   7.945   3.300  0.5180 -0.9411  0.1145
    2CHTO    O7  830   2.457   7.777   3.363  0.3187 -1.0549  0.4231
    2CHTO    H2  831   2.423   7.822   3.437  1.9183  0.0557  0.5236
    2CHTO   C12  832   2.352   7.977   3.249  0.1818 -0.7600 -0.1880
    2CHTO   H25  833   2.268   7.911   3.220 -1.3263  1.3501 -0.7990
    2CHTO    N3  834   2.304   8.047   3.378 -0.1502  0.0301 -0.0840
    2CHTO   H12  835   2.364   8.037   3.467 -0.7245  1.2292  0.4512
    2CHTO   H13  836   2.299   8.152   3.353  1.1739  0.4898  1.5172
    2CHTO   C15  837   2.380   8.082   3.132  0.1823 -0.6471 -0.0827
    2CHTO   H28  838   2.441   8.168   3.160 -2.1768  1.0065  0.2239
    2CHTO   O10  839   2.265   8.147   3.087  0.6300 -0.4414 -0.3986
    2CHTO    H4  840   2.197   8.090   3.056  0.3276  0.6631 -1.8548
    2CHTO    O5  841   2.431   8.032   3.008 -0.4336  0.2623  0.4758
    2CHTO   C10  842   2.548   7.945   3.026 -0.7146 -0.0420  0.0258
    2CHTO   H23  843   2.618   8.012   3.077 -0.9556 -0.3268  0.7290
    2CHTO   C17  844   2.590   7.898   2.884 -0.1436 -0.2104 -0.1664
    2CHTO   O12  845   2.721   7.825   2.888 -0.7825 -0.3883  0.6163
    2CHTO    H6  846   2.725   7.767   2.961 -3.3546  0.1193  1.2154
    3CHTO  H203  847   6.882   2.243   1.957  0.4203 -1.2294 -0.9615
    3CHTO   O82  848   6.795   2.213   1.977  0.1376  0.0466 -0.1310
    3CHTO  C123  849   6.806   2.072   1.943 -0.0318 -1.4462 -0.1458
    3CHTO  H227  850   6.876   2.060   1.860 -1.9639 -0.1254 -2.0183
    3CHTO   O77  851   6.851   2.000   2.065 -0.1208  0.0770  0.0409
    3CHTO  C118  852   6.884   1.861   2.051 -0.1553  0.0459  0.1095
    3CHTO  H222  853   6.959   1.856   1.971 -0.2203 -0.0265  0.0520
    3CHTO  C125  854   6.943   1.813   2.186  0.2041  0.1774 -0.3420
    3CHTO   O84  855   7.085   1.836   2.197 -0.1678 -0.3778  0.3775
    3CHTO  H205  856   7.114   1.840   2.287  0.7476  0.0180  0.0697
    3CHTO  C114  857   6.757   1.796   1.997 -0.3505  0.4308 -0.2692
    3CHTO  H218  858   6.683   1.812   2.076 -0.6095 -4.5055  0.6356
    3CHTO  C116  859   6.692   1.857   1.874 -0.1956  0.1267  0.8371
    3CHTO  H220  860   6.769   1.848   1.794 -1.3130 -3.9298  0.1170
    3CHTO   O79  861   6.578   1.776   1.841 -0.0876 -0.5095  0.0597
    3CHTO  H201  862   6.605   1.689   1.819 -2.4490 -0.8962 -1.6399
    3CHTO  C120  863   6.666   2.009   1.917 -0.3928 -0.4442  0.0225
    3CHTO  H224  864   6.603   2.001   2.008  0.7198 -0.3784  0.8061
    3CHTO   N21  865   6.587   2.072   1.805  0.2462 -0.6124 -0.8395
    3CHTO  H211  866   6.517   2.006   1.756 -3.6681  2.5256  0.2839
    3CHTO  H212  867   6.537   2.164   1.829 -2.3118 -1.7108 -1.7359
    3CHTO   O75  868   6.797   1.657   1.990  0.4131  0.0130  0.6773
    3CHTO  C112  869   6.686   1.545   2.008  0.7203  0.4837  0.5959
    3CHTO  H216  870   6.606   1.554   1.932  1.2366 -1.9550 -0.2679
    3CHTO   O73  871   6.630   1.560   2.138  0.1525 -0.2037 -0.1803
    3CHTO  C113  872   6.518   1.470   2.172 -0.3487 -0.5159 -0.9410
    3CHTO  H217  873   6.435   1.484   2.100 -1.4184  2.2262  0.7211
    3CHTO  C124  874   6.448   1.493   2.301  1.0755 -0.6497 -0.3932
    3CHTO   O83  875   6.384   1.621   2.310  0.4186 -0.3260  0.4869
    3CHTO  H204  876   6.303   1.619   2.262 -0.2096 -1.6399  1.5332
    3CHTO  C109  877   6.564   1.318   2.175 -0.2633 -0.2506 -0.0053
    3CHTO  H213  878   6.627   1.308   2.265  0.7760  1.6049 -0.4828
    3CHTO  C110  879   6.649   1.287   2.041  0.0220 -0.1584  0.1988
    3CHTO  H214  880   6.575   1.283   1.961  2.9502 -1.2538 -2.5500
    3CHTO   O78  881   6.709   1.154   2.055 -0.0369 -0.4743  0.0255
    3CHTO  H200  882   6.765   1.130   1.983  0.7538 -2.1916  1.1817
    3CHTO  C111  883   6.753   1.402   2.007  0.9036  0.2797  0.0889
    3CHTO  H215  884   6.826   1.409   2.089 -0.3972 -1.3040  1.4163
    3CHTO   N19  885   6.825   1.380   1.880 -0.2295  0.5106 -0.2044
    3CHTO  H207  886   6.800   1.452   1.803  1.3664  0.6409 -0.6255
    3CHTO  H208  887   6.810   1.278   1.849 -2.5756 -0.1434  2.7908
    3CHTO   O74  888   6.451   1.230   2.177 -0.0136 -0.1364 -0.1638
    3CHTO  C115  889   6.455   1.133   2.295 -0.0426 -0.7612  0.3034
    3CHTO  H219  890   6.538   1.161   2.361  2.7223 -0.2265 -3.2112
    3CHTO   O76  891   6.326   1.137   2.381 -0.2200 -0.2048  0.3661
    3CHTO  C122  892   6.214   1.110   2.298  0.7315  0.3273  0.8266
    3CHTO  H226  893   6.204   1.174   2.209 -3.1633  1.0533  1.6764
    3CHTO  C126  894   6.077   1.130   2.373 -0.5882  0.3626  0.2056
    3CHTO   O85  895   5.963   1.112   2.295  0.2834 -0.5139 -0.2808
    3CHTO  H206  896   5.886   1.120   2.349  1.0713 -0.2930  0.8334
    3CHTO  C121  897   6.223   0.967   2.241  0.1765  0.2461  0.0538
    3CHTO  H225  898   6.141   0.917   2.297  0.8405 -0.6248  0.2700
    3CHTO   O81  899   6.183   0.969   2.106  0.3152  0.4173  0.3072
    3CHTO  H202  900   6.249   1.018   2.062 -0.0408  1.5951  1.0446
    3CHTO  C119  901   6.361   0.888   2.252 -0.0825  0.0559  0.4606
    3CHTO  H223  902   6.359   0.844   2.351  1.3638  2.1998  1.4672
    3CHTO  C117  903   6.487   0.988   2.236 -0.0459  0.1984 -0.5618
    3CHTO  H221  904   6.502   1.010   2.130 -0.1734  0.8718 -0.4419
    3CHTO   N20  905   6.616   0.935   2.281  0.2762 -0.0905 -0.5803
    3CHTO  H209  906   6.689   1.009   2.254  1.0154 -0.8783 -0.7610
    3CHTO  H210  907   6.606   0.956   2.387 -0.8961  1.8395 -1.0359
    3CHTO   O80  908   6.371   0.761   2.155 -0.0663  0.3946 -0.5739
    3CHTO  C103  909   6.303   0.619   2.205  0.2294 -0.7004  0.0938
    3CHTO  H190  910   6.283   0.616   2.312 -3.9527  2.2966 -0.4824
    3CHTO  C101  911   6.160   0.592   2.149 -0.0992  0.3480 -0.6680
    3CHTO  H188  912   6.158   0.601   2.041 -1.6345 -2.3864 -0.9158
    3CHTO   O68  913   6.061   0.710   2.199 -0.3254 -0.1741 -0.6852
    3CHTO  H168  914   6.115   0.785   2.180  0.0167 -0.4071 -0.6436
    3CHTO   C99  915   6.104   0.451   2.204  0.0345  0.2666 -0.3984
    3CHTO  H186  916   6.128   0.450   2.312 -1.9197 -0.7292  0.0400
    3CHTO   N17  917   5.960   0.419   2.167 -0.3672 -0.1840 -0.0012
    3CHTO  H174  918   5.897   0.506   2.171  0.5286  0.4342  0.9662
    3CHTO  H175  919   5.918   0.355   2.243  1.0142  0.5269  1.3922
    3CHTO   C97  920   6.200   0.342   2.147  0.1582  0.4290 -0.1841
    3CHTO  H184  921   6.193   0.351   2.037 -2.0498  0.0801 -0.1049
    3CHTO   O64  922   6.325   0.373   2.197  0.4673  0.4670 -0.1055
    3CHTO  C104  923   6.395   0.494   2.164  0.0551 -0.0763  0.3196
    3CHTO  H191  924   6.410   0.494   2.056 -1.0339 -0.8552  0.1543
    3CHTO  C108  925   6.535   0.506   2.231 -0.3329  0.3027 -0.1636
    3CHTO   O71  926   6.625   0.405   2.191 -0.8058 -0.1617  0.0347
    3CHTO  H171  927   6.711   0.419   2.227 -0.2377  0.7085 -1.6147
    3CHTO   O62  928   6.166   0.205   2.183 -0.6102 -0.2933 -0.1100
    3CHTO   C91  929   6.213   0.095   2.108 -0.1281 -0.7542 -0.0311
    3CHTO  H178  930   6.290   0.138   2.044 -0.1940 -0.5665  0.0148
    3CHTO   C92  931   6.093   0.044   2.015  0.9481  0.3775  0.1925
    3CHTO  H179  932   6.003   0.051   2.078  0.9576 -1.4531  0.4409
    3CHTO   O66  933   6.064   0.139   1.923  0.2362 -0.3699  0.3519
    3CHTO  H166  934   5.993   0.115   1.866 -0.2105  1.1158  0.2499
    3CHTO   C93  935   6.112  -0.099   1.949  0.5339  0.1084  0.4966
    3CHTO  H180  936   6.173  -0.078   1.860 -0.0576 -2.2279 -0.4925
    3CHTO   N16  937   5.987  -0.157   1.899 -0.0018 -0.5368  0.2428
    3CHTO  H172  938   5.932  -0.088   1.836  0.9799  0.1525  0.1287
    3CHTO  H173  939   5.930  -0.183   1.988 -0.0409 -0.0615  0.3577
    3CHTO   C94  940   6.191  -0.206   2.039 -0.0634 -0.1591  0.7120
    3CHTO  H181  941   6.131  -0.249   2.118  0.4988 -3.5639 -0.6303
    3CHTO   O61  942   6.307  -0.136   2.104 -0.0322 -0.2807 -0.1454
    3CHTO   C95  943   6.258  -0.028   2.187 -0.6422  0.1305 -0.1440
    3CHTO  H182  944   6.180  -0.066   2.253 -1.0160  0.1189 -0.5890
    3CHTO  C106  945   6.375   0.007   2.288  0.1644 -0.3436  0.0125
    3CHTO   O69  946   6.427  -0.109   2.358  0.2930 -0.2394 -0.2301
    3CHTO  H169  947   6.456  -0.092   2.446 -1.3370 -3.6671  1.0741
    3CHTO   O63  948   6.270  -0.325   1.949  0.0561 -0.5243  0.9108
    3CHTO   C96  949   6.207  -0.475   1.918  0.0540  0.0355 -0.2490
    3CHTO  H183  950   6.284  -0.532   1.867  2.6743  2.2646  1.0791
    3CHTO   C98  951   6.086  -0.483   1.827 -0.0977  0.3145  0.5042
    3CHTO  H185  952   6.003  -0.436   1.881  0.9648  2.0395  0.6469
    3CHTO   O67  953   6.112  -0.401   1.714  0.7805 -0.3709  0.0725
    3CHTO  H167  954   6.147  -0.450   1.642 -0.2318 -0.3372 -0.4555
    3CHTO  C102  955   6.045  -0.637   1.798 -0.4518 -0.4401 -0.4511
    3CHTO  H189  956   6.128  -0.696   1.755 -0.6749 -1.4320  0.4557
    3CHTO   N18  957   5.932  -0.653   1.711 -0.4680 -0.2052 -0.0917
    3CHTO  H176  958   5.854  -0.711   1.756 -0.2675  1.3037  2.2783
    3CHTO  H177  959   5.887  -0.565   1.668  0.2263 -0.6681 -1.8054
    3CHTO  C105  960   6.033  -0.716   1.934  0.0698 -0.1097 -0.3605
    3CHTO  H192  961   5.940  -0.684   1.981  0.8785  0.2081  1.0292
    3CHTO   O65  962   6.137  -0.685   2.027  0.0732 -0.4709 -0.0137
    3CHTO  C100  963   6.168  -0.550   2.049  0.2130 -0.6628  0.7297
    3CHTO  H187  964   6.082  -0.506   2.101  1.1167  1.5896  0.4114
    3CHTO  C107  965   6.290  -0.554   2.136  0.2505  0.2476 -0.4070
    3CHTO   O70  966   6.258  -0.585   2.274 -0.0132 -0.3254  0.4927
    3CHTO  H170  967   6.330  -0.555   2.327 -0.1825  0.3685  0.3380
    3CHTO   O57  968   6.022  -0.882   1.905 -0.0623  0.6661  0.3008
    3CHTO   C85  969   5.976  -0.979   2.003 -0.6886  0.0022  0.0772
    3CHTO  H157  970   5.983  -1.077   1.951 -0.2454  0.8804 -1.5438
    3CHTO   C83  971   5.825  -0.966   2.038  1.1118 -0.2379 -1.1530
    3CHTO  H155  972   5.759  -0.982   1.952  1.0256  2.0510 -1.5357
    3CHTO   O56  973   5.785  -0.835   2.081 -0.3791 -0.0839 -0.1796
    3CHTO  H135  974   5.827  -0.776   2.021  1.1039 -1.0691 -0.1412
    3CHTO   C81  975   5.798  -1.082   2.138  0.3327 -0.9228  0.1861
    3CHTO  H153  976   5.821  -1.178   2.093 -2.2494 -1.5456  0.1106
    3CHTO   N14  977   5.652  -1.098   2.148 -0.0392  0.2630 -0.6105
    3CHTO  H141  978   5.607  -1.001   2.144 -0.6331  0.0988  1.4202
    3CHTO  H142  979   5.618  -1.157   2.232  0.7469  0.6784  0.0019
    3CHTO   C79  980   5.878  -1.053   2.272  0.4806  0.0640  0.3785
    3CHTO  H151  981   5.852  -1.132   2.344 -2.0251  0.2687 -0.2621
    3CHTO   O52  982   6.028  -1.054   2.250 -0.2761  0.0606  0.0368
    3CHTO   C86  983   6.072  -0.969   2.135  0.1729 -0.2109 -0.4744
    3CHTO  H158  984   6.078  -0.870   2.185  0.2110  1.1870 -3.1617
    3CHTO   C90  985   6.220  -1.017   2.113  0.0687  0.5041 -1.2273
    3CHTO   O60  986   6.291  -0.912   2.047  0.2381 -0.2944  0.1072
    3CHTO  H138  987   6.350  -0.957   1.989  0.4776 -2.0139  1.6667
    3CHTO   O50  988   5.859  -0.929   2.337  0.8000  0.3661  0.5826
    3CHTO   C73  989   5.816  -0.869   2.457 -0.2496 -0.0588 -0.7694
    3CHTO  H145  990   5.891  -0.891   2.535 -1.0813  2.4741  0.8251
    3CHTO   C74  991   5.672  -0.913   2.510 -0.0154 -0.2856 -0.8957
    3CHTO  H146  992   5.670  -1.021   2.530 -2.5554  0.1272  1.3965
    3CHTO   O54  993   5.651  -0.859   2.642  0.2679  0.7426  0.3198
    3CHTO  H133  994   5.559  -0.855   2.658  0.1506  3.7046 -0.7806
    3CHTO   C75  995   5.572  -0.871   2.401 -0.7108  0.1148 -0.1223
    3CHTO  H147  996   5.598  -0.925   2.308  0.7859  1.1081 -0.3058
    3CHTO   N13  997   5.435  -0.921   2.416 -0.0310  0.2202  0.4389
    3CHTO  H139  998   5.422  -0.989   2.333 -0.0734  1.4975 -0.6258
    3CHTO  H140  999   5.359  -0.845   2.427 -0.3863  0.2371 -1.8327
    3CHTO   C76 1000   5.577  -0.708   2.383 -0.3279  0.1543  0.1619
    3CHTO  H148 1001   5.534  -0.657   2.469 -0.6485  0.8755 -0.4150
    3CHTO   O49 1002   5.709  -0.664   2.353 -0.0692  0.1185  0.3338
    3CHTO   C77 1003   5.810  -0.715   2.442 -0.1931 -0.4553  0.2128
    3CHTO  H149 1004   5.783  -0.673   2.539  0.7060  1.3228 -0.2845
    3CHTO   C88 1005   5.948  -0.654   2.393  0.5572 -0.5666 -0.0712
    3CHTO   O58 1006   6.054  -0.675   2.498  0.4060 -0.3328 -0.6859
    3CHTO  H136 1007   6.103  -0.750   2.469  2.0041  0.3963  0.0601
    3CHTO   O51 1008   5.490  -0.668   2.259  0.4601  0.2730  0.5507
    3CHTO   C78 1009   5.471  -0.510   2.239 -0.3963  0.1849 -0.1954
    3CHTO  H150 1010   5.537  -0.450   2.305 -1.4359 -0.5406  1.5357
    3CHTO   C80 1011   5.321  -0.477   2.263  0.1926  0.2159 -0.8439
    3CHTO  H152 1012   5.263  -0.551   2.204  0.1085 -0.9996  0.7234
    3CHTO   O55 1013   5.279  -0.504   2.402  0.5614  0.2596 -0.3400
    3CHTO  H134 1014   5.309  -0.444   2.467 -2.0334 -0.8390  2.0085
    3CHTO   C84 1015   5.275  -0.330   2.218 -0.1972 -0.0845  0.3155
    3CHTO  H156 1016   5.311  -0.257   2.291 -1.6757 -0.0666  1.0390
    3CHTO   N15 1017   5.129  -0.324   2.226 -0.1749 -0.0156 -0.1536
    3CHTO  H143 1018   5.083  -0.230   2.244  2.4466  1.1297  0.6871
    3CHTO  H144 1019   5.090  -0.369   2.136  1.2923  0.0567 -0.8400
    3CHTO   C87 1020   5.335  -0.293   2.083 -0.3369 -0.7287  0.1947
    3CHTO  H159 1021   5.287  -0.341   1.998 -2.6297 -0.3341  1.2230
    3CHTO   O53 1022   5.490  -0.333   2.081 -0.1465 -0.2811 -0.4463
    3CHTO   C82 1023   5.515  -0.476   2.095  0.4987  0.4947 -0.0698
    3CHTO  H154 1024   5.447  -0.526   2.027 -0.6733 -1.4691  2.4444
    3CHTO   C89 1025   5.660  -0.512   2.046 -0.0438 -0.5456 -0.4149
    3CHTO   O59 1026   5.659  -0.507   1.901 -0.0081 -0.3043 -0.1356
    3CHTO  H137 1027   5.744  -0.517   1.862 -0.3412 -1.8478 -0.4773
    3CHTO   O45 1028   5.324  -0.116   2.052 -0.0161  0.4068 -1.2350
    3CHTO   C67 1029   5.442  -0.049   2.112 -0.5529  0.7990 -0.3084
    3CHTO  H124 1030   5.494  -0.123   2.172 -0.9081  0.2979 -0.6202
    3CHTO   C65 1031   5.543   0.012   2.004  0.1634 -0.8700 -0.8740
    3CHTO  H122 1032   5.482   0.045   1.920 -1.9152 -0.1444  0.8799
    3CHTO   O44 1033   5.641  -0.096   1.977 -0.1389  0.1332 -0.5329
    3CHTO  H102 1034   5.592  -0.165   1.937 -0.8664  0.2446  0.1401
    3CHTO   C63 1035   5.614   0.149   2.038  0.3739  0.1661  0.8936
    3CHTO  H120 1036   5.537   0.226   2.031  0.7561  0.5262  0.6382
    3CHTO   N11 1037   5.723   0.201   1.950 -0.5839  0.4184  0.2448
    3CHTO  H108 1038   5.809   0.138   1.940 -0.6805  0.4243 -0.6793
    3CHTO  H109 1039   5.680   0.202   1.852  1.9658 -0.8908 -0.9537
    3CHTO   C61 1040   5.656   0.145   2.187  0.6648  0.3666  0.5693
    3CHTO  H118 1041   5.686   0.246   2.217  1.0519  0.7164 -0.9716
    3CHTO   O40 1042   5.539   0.112   2.273 -0.1050 -0.1877 -0.1251
    3CHTO   C68 1043   5.414   0.073   2.211  0.2566 -0.4943 -0.3471
    3CHTO  H125 1044   5.376   0.163   2.159  0.8639 -0.6180 -1.0165
    3CHTO   C72 1045   5.314   0.040   2.324  0.7054 -0.2090  0.2657
    3CHTO   O48 1046   5.181   0.041   2.272 -0.3163 -0.4229  0.2083
    3CHTO  H105 1047   5.162  -0.024   2.206 -1.7148  0.0319  0.1430
    3CHTO   O38 1048   5.763   0.053   2.210  0.1071 -0.0749 -0.0317
    3CHTO   C55 1049   5.796   0.017   2.346 -0.1277 -0.9756  0.3267
    3CHTO  H112 1050   5.715  -0.010   2.416 -1.4812 -0.3566 -0.9648
    3CHTO   C56 1051   5.885   0.136   2.401 -0.3304  0.3920 -0.0628
    3CHTO  H113 1052   5.966   0.155   2.329  1.0386  1.6016  1.7576
    3CHTO   O42 1053   5.804   0.252   2.420 -0.1146  0.0024 -0.2742
    3CHTO  H100 1054   5.854   0.324   2.387 -1.1871  0.5427 -0.7475
    3CHTO   C57 1055   5.953   0.093   2.538 -0.9609  0.1836 -0.8008
    3CHTO  H114 1056   5.869   0.093   2.607 -0.7397  2.2956 -0.4805
    3CHTO   N10 1057   6.063   0.180   2.595  0.2233  0.9848 -0.1363
    3CHTO  H106 1058   6.036   0.282   2.573 -3.4752  0.2967  0.9775
    3CHTO  H107 1059   6.080   0.160   2.700  1.8977 -0.5943 -0.6721
    3CHTO   C58 1060   6.011  -0.052   2.529  0.0659 -0.1692  0.3309
    3CHTO  H115 1061   6.109  -0.050   2.476  0.2130 -0.1883  0.5967
    3CHTO   O37 1062   5.922  -0.150   2.477  0.2868 -0.6987 -0.1546
    3CHTO   C59 1063   5.884  -0.112   2.344 -0.7542  0.8524  0.4028
    3CHTO  H116 1064   5.973  -0.091   2.285 -0.5398  0.3307  0.5457
    3CHTO   C70 1065   5.794  -0.217   2.271 -0.4524  0.3997 -0.5240
    3CHTO   O46 1066   5.862  -0.338   2.245 -0.4871  0.3784 -0.3489
    3CHTO  H103 1067   5.805  -0.402   2.208  0.7852 -0.6750 -0.5343
    3CHTO   O39 1068   6.048  -0.122   2.689  0.0357 -1.1929  0.2445
    3CHTO   C60 1069   6.137  -0.236   2.693  0.2613 -0.2832 -0.0276
    3CHTO  H117 1070   6.128  -0.277   2.592 -0.6329  0.6643 -0.3377
    3CHTO   C62 1071   6.287  -0.198   2.704 -0.6950 -0.0735  0.4199
    3CHTO  H119 1072   6.322  -0.138   2.618  3.1086  0.6908  2.3957
    3CHTO   O43 1073   6.309  -0.112   2.819 -0.4392  0.0834 -0.1574
    3CHTO  H101 1074   6.352  -0.031   2.803 -0.0544 -0.0885  0.0022
    3CHTO   C66 1075   6.377  -0.329   2.701 -0.0680  0.5292  0.6482
    3CHTO  H123 1076   6.353  -0.386   2.611 -2.2891  1.4209  0.6428
    3CHTO   N12 1077   6.523  -0.300   2.691  0.2430 -0.1969  0.3767
    3CHTO  H110 1078   6.551  -0.197   2.703  0.2726 -0.2793  1.0399
    3CHTO  H111 1079   6.574  -0.352   2.611 -0.1740  0.8756 -0.5945
    3CHTO   C69 1080   6.333  -0.421   2.821  0.0075 -0.7534  0.3870
    3CHTO  H126 1081   6.345  -0.374   2.921  1.7820 -0.7148  0.1555
    3CHTO   O41 1082   6.178  -0.461   2.800  0.0762 -0.5530 -0.3654
    3CHTO   C64 1083   6.087  -0.340   2.801  0.8329  1.2084  0.3257
    3CHTO  H121 1084   6.088  -0.294   2.902 -1.3997  1.7004  0.1466
    3CHTO   C71 1085   5.941  -0.375   2.781 -0.0334  0.0575 -0.3387
    3CHTO   O47 1086   5.923  -0.440   2.653  0.5783  0.3873  0.6887
    3CHTO  H104 1087   5.923  -0.374   2.587 -1.5407  0.2316  0.5025
    3CHTO   O34 1088   6.438  -0.560   2.825  0.7272 -0.2913 -0.4691
    3CHTO   C49 1089   6.480  -0.688   2.728  0.5360 -0.1212  0.8168
    3CHTO   H91 1090   6.540  -0.634   2.655  1.4997  0.6180  2.1410
    3CHTO   C47 1091   6.360  -0.755   2.654 -0.1982  0.1992 -0.2213
    3CHTO   H89 1092   6.340  -0.691   2.565  0.0783 -0.6846 -0.9341
    3CHTO   O33 1093   6.243  -0.759   2.737  0.0043 -0.4238  0.0885
    3CHTO   H70 1094   6.169  -0.741   2.682 -0.3578 -0.8093  0.4484
    3CHTO   C45 1095   6.393  -0.901   2.593  0.5383  0.3586 -0.0124
    3CHTO   H87 1096   6.358  -0.968   2.673 -1.8221  0.6552 -0.7804
    3CHTO    N8 1097   6.323  -0.939   2.467  0.3229  0.0385  0.1919
    3CHTO   H75 1098   6.291  -0.847   2.421  2.5800  0.5245 -0.4614
    3CHTO   H76 1099   6.233  -0.997   2.485  0.2809  0.4393  1.3258
    3CHTO   C43 1100   6.553  -0.924   2.598  0.1615  0.2332 -0.1400
    3CHTO   H85 1101   6.572  -1.023   2.557 -0.0934  0.1654 -0.1012
    3CHTO   O29 1102   6.604  -0.909   2.727 -0.3755  0.1215  0.1843
    3CHTO   C50 1103   6.558  -0.796   2.805 -0.3599  0.1235  0.3134
    3CHTO   H92 1104   6.481  -0.816   2.881  0.2064 -0.6128  0.6892
    3CHTO   C54 1105   6.678  -0.727   2.881 -0.5943  0.5172  0.1172
    3CHTO   O36 1106   6.775  -0.689   2.784 -0.6139 -0.5407 -0.0600
    3CHTO   H72 1107   6.808  -0.768   2.746  0.5765 -0.0037 -0.1636
    3CHTO   O27 1108   6.617  -0.829   2.518 -0.1198  0.3617  0.1783
    3CHTO   C37 1109   6.703  -0.794   2.407 -0.5752  0.3285  0.1777
    3CHTO   H79 1110   6.802  -0.843   2.414  0.1930  1.6894 -0.7995
    3CHTO   C38 1111   6.640  -0.845   2.273  0.3197 -0.0438 -0.1162
    3CHTO   H80 1112   6.540  -0.800   2.264 -0.3472 -1.6141 -0.8040
    3CHTO   O31 1113   6.629  -0.992   2.271 -0.3126  0.3717  0.2875
    3CHTO   H68 1114   6.704  -1.026   2.316 -0.7123  2.4931  2.6208
    3CHTO   C39 1115   6.710  -0.796   2.140 -0.5414 -0.0569 -0.3435
    3CHTO   H81 1116   6.806  -0.847   2.140  0.5713  2.0050 -0.9100
    3CHTO    N7 1117   6.651  -0.833   1.999  0.1756  0.3473  0.1893
    3CHTO   H73 1118   6.553  -0.878   2.000  0.6258 -0.7090 -1.2785
    3CHTO   H74 1119   6.716  -0.906   1.954  1.4382  0.8325  1.1942
    3CHTO   C40 1120   6.731  -0.642   2.152  0.1859  0.3860  0.5552
    3CHTO   H82 1121   6.641  -0.581   2.146  0.3349  0.4043 -1.8323
    3CHTO   O26 1122   6.807  -0.615   2.275  0.5451  0.4757 -0.2071
    3CHTO   C41 1123   6.729  -0.642   2.393  0.2436  0.1110 -0.7341
    3CHTO   H83 1124   6.633  -0.589   2.382  0.4993  0.4603 -1.2840
    3CHTO   C52 1125   6.806  -0.566   2.505 -0.2953  1.2121  0.6278
    3CHTO   O35 1126   6.819  -0.422   2.487 -0.3383  0.1849 -0.0540
    3CHTO   H71 1127   6.903  -0.390   2.515 -0.5166 -1.5257  2.6535
    3CHTO   O28 1128   6.816  -0.594   2.050 -0.1916  0.2529  0.1112
    3CHTO   C42 1129   6.835  -0.457   2.010  0.2934 -0.3612 -0.4644
    3CHTO   H84 1130   6.937  -0.453   1.970  0.9090  1.5633  1.1946
    3CHTO   C44 1131   6.831  -0.348   2.128  0.3804 -0.1695  0.0759
    3CHTO   H86 1132   6.739  -0.364   2.184 -0.8149  2.0412 -1.1784
    3CHTO   O32 1133   6.946  -0.360   2.210  0.0947 -0.3985  0.2057
    3CHTO   H69 1134   6.937  -0.425   2.277  0.2126 -0.7150 -0.0892
    3CHTO   C48 1135   6.824  -0.195   2.071 -0.1560 -0.3398  0.0004
    3CHTO   H90 1136   6.919  -0.159   2.033  0.7608 -2.2665  0.4009
    3CHTO    N9 1137   6.784  -0.106   2.182 -0.6143  0.2403 -0.4114
    3CHTO   H77 1138   6.690  -0.137   2.224 -1.4131  2.6693 -0.3090
    3CHTO   H78 1139   6.773  -0.001   2.157 -1.0543  0.1379 -0.6629
    3CHTO   C51 1140   6.719  -0.183   1.953  0.1623  0.1317 -0.1750
    3CHTO   H93 1141   6.619  -0.207   1.987  0.0348  1.8508  0.6500
    3CHTO   O30 1142   6.773  -0.278   1.856 -0.0555 -0.0965  0.0978
    3CHTO   C46 1143   6.743  -0.425   1.899 -0.5276 -0.1550 -0.8932
    3CHTO   H88 1144   6.642  -0.428   1.939  0.3936 -0.3410  1.4883
    3CHTO   C53 1145   6.743  -0.516   1.778 -0.5233 -0.2616 -0.0685
    3CHTO   O72 1146   6.878  -0.521   1.719 -0.4701 -0.1748  0.3683
    3CHTO  H199 1147   6.876  -0.441   1.671  0.2046 -1.1835 -1.3910
    3CHTO   O22 1148   6.725  -0.063   1.878  0.1915 -0.0174  0.4708
    3CHTO   C31 1149   6.595   0.013   1.866  0.1183  0.0232 -0.4465
    3CHTO   H59 1150   6.542  -0.011   1.960  2.2712 -0.7705  0.6170
    3CHTO   C29 1151   6.609   0.163   1.867 -0.0725 -0.3964 -0.3765
    3CHTO   H57 1152   6.691   0.188   1.799  1.8227  0.0368  1.9849
    3CHTO   O21 1153   6.665   0.198   1.995  0.2274  0.5153  0.5789
    3CHTO   H37 1154   6.756   0.185   2.013  0.5437  1.6190 -0.1429
    3CHTO   C27 1155   6.478   0.250   1.835 -1.0154 -0.2157  0.6083
    3CHTO   H55 1156   6.405   0.232   1.915  0.9259  0.1908  2.4905
    3CHTO    N5 1157   6.500   0.393   1.817  0.6664  0.1568 -0.1678
    3CHTO   H43 1158   6.553   0.415   1.908  1.0629 -2.1639  0.1948
    3CHTO   H44 1159   6.407   0.448   1.812  0.7745  0.6710  2.5006
    3CHTO   C25 1160   6.409   0.189   1.708  0.6835  0.4201 -0.5059
    3CHTO   H53 1161   6.482   0.193   1.626  1.6660  0.9088  0.3770
    3CHTO   O17 1162   6.386   0.049   1.747  0.2245 -0.9715 -0.4418
    3CHTO   C32 1163   6.506  -0.029   1.752 -0.3036  0.0219 -0.4268
    3CHTO   H60 1164   6.564  -0.031   1.660 -1.8189 -0.9580 -1.3753
    3CHTO   C36 1165   6.458  -0.169   1.762 -0.2447 -0.6087 -0.0495
    3CHTO   O25 1166   6.382  -0.206   1.648 -0.0076  0.1317  0.7032
    3CHTO   H40 1167   6.428  -0.283   1.618 -0.3636 -0.0876  0.7157
    3CHTO   O15 1168   6.258   0.244   1.674  0.0541 -0.3875 -0.3478
    3CHTO   C19 1169   6.178   0.295   1.566 -0.0544 -0.2612 -0.5732
    3CHTO   H47 1170   6.167   0.213   1.494 -1.2890 -1.0196  0.4631
    3CHTO   C20 1171   6.037   0.321   1.627 -0.5243 -0.1882 -0.3999
    3CHTO   H48 1172   6.045   0.384   1.717 -0.5217  0.3155 -0.7510
    3CHTO   O19 1173   5.976   0.196   1.664  0.1458  0.6047 -0.5644
    3CHTO   H35 1174   6.010   0.172   1.748  0.7730 -0.8595 -1.2286
    3CHTO   C21 1175   5.943   0.398   1.523  0.5166 -0.5330  0.1358
    3CHTO   H49 1176   5.918   0.332   1.440  0.7549  0.3215 -0.6265
    3CHTO    N4 1177   5.812   0.442   1.584 -0.1625  0.3488  0.1308
    3CHTO   H41 1178   5.784   0.546   1.579 -0.9300  0.1508  0.3039
    3CHTO   H42 1179   5.732   0.379   1.549  1.0192 -0.3622 -1.3085
    3CHTO   C22 1180   6.020   0.504   1.443 -0.1547 -0.3352 -0.1424
    3CHTO   H50 1181   6.039   0.589   1.508  2.3190 -2.7093  2.3869
    3CHTO   O14 1182   6.138   0.454   1.384  0.1773 -0.2048 -0.2890
    3CHTO   C23 1183   6.228   0.421   1.490 -0.0943  1.0046 -0.1848
    3CHTO   H51 1184   6.237   0.510   1.554  1.8251  0.6618  0.0488
    3CHTO   C34 1185   6.363   0.407   1.426  0.2585  0.0318 -0.0045
    3CHTO   O23 1186   6.364   0.294   1.343 -0.7053  0.2777  0.7299
    3CHTO   H38 1187   6.453   0.283   1.314 -1.0133  0.1412 -0.1879
    3CHTO   O16 1188   5.952   0.537   1.321  0.2153 -0.3204  0.2159
    3CHTO   C24 1189   5.978   0.675   1.269 -0.5392 -0.5074  0.1368
    3CHTO   H52 1190   6.068   0.716   1.316 -1.3100  0.5152  0.7185
    3CHTO   C26 1191   5.857   0.762   1.289  0.0358 -0.0018  0.5059
    3CHTO   H54 1192   5.776   0.726   1.223  0.7904 -1.0694  0.1649
    3CHTO   O20 1193   5.811   0.766   1.431 -0.6851 -0.7364  0.4313
    3CHTO   H36 1194   5.764   0.845   1.448 -0.7107 -1.1477  2.3923
    3CHTO   C30 1195   5.889   0.902   1.227 -0.7328  0.1016  0.4925
    3CHTO   H58 1196   5.986   0.934   1.267 -0.0844 -0.8456 -0.2992
    3CHTO    N6 1197   5.781   1.002   1.257 -0.4133 -0.0878  0.4431
    3CHTO   H45 1198   5.704   1.018   1.182 -0.6270  0.0942  0.7046
    3CHTO   H46 1199   5.828   1.097   1.275  4.0011 -1.9605 -0.4696
    3CHTO   C33 1200   5.923   0.894   1.072  0.0768 -0.7674 -0.2267
    3CHTO   H61 1201   5.837   0.846   1.022 -1.8951 -0.4600  2.7193
    3CHTO   O18 1202   6.040   0.802   1.066 -0.1537 -0.5854 -1.4007
    3CHTO   C28 1203   6.006   0.671   1.118  0.8752  0.2345 -0.1597
    3CHTO   H56 1204   5.919   0.634   1.063  1.0823 -0.8704  0.2559
    3CHTO   C35 1205   6.131   0.575   1.089 -0.5628 -0.2813  0.5773
    3CHTO   O24 1206   6.244   0.624   1.155  0.2964  0.2010  0.1702
    3CHTO   H39 1207   6.229   0.636   1.247  3.1083  1.3376  0.5397
    3CHTO    O9 1208   5.953   1.019   0.996 -0.5414 -0.5371 -0.2073
    3CHTO   C13 1209   6.128   1.040   0.942  0.0781 -0.8379 -0.0416
    3CHTO   H26 1210   6.165   0.955   0.881  0.5525  1.5263 -3.1381
    3CHTO   C11 1211   6.224   1.073   1.064  0.3556  0.8029  0.6649
    3CHTO   H24 1212   6.241   0.979   1.119  1.3626 -0.7145 -2.0995
    3CHTO    O8 1213   6.156   1.157   1.157  0.3978  0.0305 -0.1069
    3CHTO    H3 1214   6.071   1.120   1.172  0.5033 -0.4560 -0.6907
    3CHTO    C9 1215   6.356   1.129   1.013 -0.2496 -0.5840 -0.2653
    3CHTO   H22 1216   6.389   1.055   0.938 -0.2393  1.0667 -1.9339
    3CHTO    N2 1217   6.464   1.134   1.121 -0.6164  0.1461 -0.0457
    3CHTO   H10 1218   6.555   1.174   1.079 -0.7514  0.0485 -0.4412
    3CHTO   H11 1219   6.481   1.033   1.155  2.1450  0.7214  0.3850
    3CHTO    C7 1220   6.328   1.267   0.939  0.1048  0.5952 -0.0579
    3CHTO   H20 1221   6.398   1.285   0.856 -0.6742 -2.0000 -1.3307
    3CHTO    O4 1222   6.190   1.275   0.888  0.4497  0.5987  0.2161
    3CHTO   C14 1223   6.140   1.159   0.825 -0.7381 -0.0993 -0.4268
    3CHTO   H27 1224   6.200   1.108   0.747  0.1524 -0.7001  0.6335
    3CHTO   C18 1225   6.002   1.186   0.767  0.0016 -0.3600 -0.5608
    3CHTO   O13 1226   5.958   1.085   0.680 -0.3496 -0.1671 -0.2180
    3CHTO    H7 1227   5.865   1.093   0.676 -0.3165  0.9455  0.8971
    3CHTO    O2 1228   6.348   1.394   1.026 -0.2190 -0.2083  0.5312
    3CHTO    C1 1229   6.364   1.517   0.947 -0.0026 -0.5099  0.0036
    3CHTO   H14 1230   6.334   1.501   0.842 -1.2325 -0.4889  0.3481
    3CHTO    C2 1231   6.515   1.565   0.947 -0.5373 -0.3813  0.4313
    3CHTO   H15 1232   6.537   1.562   1.054  1.9204  0.5191 -0.0032
    3CHTO    O6 1233   6.585   1.464   0.871  0.3613 -0.0272  0.3240
    3CHTO    H1 1234   6.620   1.403   0.933 -2.6017 -1.0699  1.0258
    3CHTO    C3 1235   6.549   1.717   0.891 -0.1755  0.1952 -0.1015
    3CHTO   H16 1236   6.535   1.720   0.782 -0.8547  2.7781  0.0264
    3CHTO    N1 1237   6.683   1.781   0.907 -0.0180 -0.2745 -0.1775
    3CHTO    H8 1238   6.679   1.867   0.972  0.0298  0.2179 -0.8095
    3CHTO    H9 1239   6.754   1.706   0.939 -0.5025 -0.7737 -0.2715
    3CHTO    C4 1240   6.432   1.809   0.939 -0.2312  0.3229 -0.0856
    3CHTO   H17 1241   6.455   1.840   1.041 -0.4323  0.4565 -0.0825
    3CHTO    O1 1242   6.303   1.749   0.928  0.0623 -0.2467 -0.5755
    3CHTO    C5 1243   6.280   1.629   1.007 -0.1194 -1.0402  0.1866
    3CHTO   H18 1244   6.298   1.644   1.114 -1.1625  1.2336  0.0774
    3CHTO   C16 1245   6.127   1.603   0.989  0.1139 -0.3657  0.3810
    3CHTO   O11 1246   6.085   1.539   0.871 -0.0084 -0.1708 -0.1294
    3CHTO    H5 1247   6.145   1.471   0.848 -0.9665 -1.0809  0.0288
    3CHTO    O3 1248   6.415   1.930   0.861  0.4199 -0.3607  0.1217
    3CHTO    C6 1249   6.377   2.051   0.938 -0.7803  0.0178 -0.2318
    3CHTO   H19 1250   6.340   2.023   1.037 -2.8958 -0.8513 -1.2442
    3CHTO    C8 1251   6.496   2.149   0.958 -0.7284 -0.0753 -0.1773
    3CHTO   H21 1252   6.534   2.182   0.861 -1.7562  0.0890 -0.5379
    3CHTO    O7 1253   6.603   2.085   1.021  0.8949 -0.1917 -0.6420
    3CHTO    H2 1254   6.592   2.066   1.113  1.1308  2.7879  0.0520
    3CHTO   C12 1255   6.436   2.272   1.047 -0.1674  0.4258 -0.6228
    3CHTO   H25 1256   6.419   2.238   1.151 -0.0461  2.0111 -0.0670
    3CHTO    N3 1257   6.544   2.377   1.064 -0.2054  0.4241 -0.3210
    3CHTO   H12 1258   6.608   2.344   1.144 -0.2984 -0.2274 -0.5159
    3CHTO   H13 1259   6.603   2.407   0.978  0.6801  3.5014  1.2843
    3CHTO   C15 1260   6.303   2.325   0.982 -0.0475  0.9297 -0.3642
    3CHTO   H28 1261   6.312   2.380   0.888 -0.7144 -0.5197 -1.2953
    3CHTO   O10 1262   6.218   2.400   1.067 -0.0499 -0.6227  0.1738
    3CHTO    H4 1263   6.204   2.370   1.155  0.8084  0.9432  0.8608
    3CHTO    O5 1264   6.210   2.217   0.958  0.2163 -0.0419 -0.1082
    3CHTO   C10 1265   6.262   2.123   0.868 -0.0169  0.2015  0.2844
    3CHTO   H23 1266   6.309   2.165   0.778  1.5817 -0.3252  0.8733
    3CHTO   C17 1267   6.160   2.030   0.808  0.0960 -0.3849  0.3958
    3CHTO   O12 1268   6.090   1.958   0.915  0.1840  0.3026  0.0057
    3CHTO    H6 1269   6.137   1.878   0.922  2.8086  1.7587 -0.3859
    4CHTO  H203 1270   5.720   5.994   0.031  1.3179  1.3097  0.8672
    4CHTO   O82 1271   5.669   6.040  -0.033 -0.2191 -0.7311  0.5640
    4CHTO  C123 1272   5.640   6.178  -0.003 -0.0826 -0.2539 -0.2161
    4CHTO  H227 1273   5.547   6.191   0.055  0.0488 -0.3834  0.0255
    4CHTO   O77 1274   5.758   6.226   0.072 -0.2778 -0.0204 -0.7484
    4CHTO  C118 1275   5.764   6.365   0.100  0.1072 -0.5333 -0.2734
    4CHTO  H222 1276   5.671   6.391   0.153  0.4694 -1.0488  0.6319
    4CHTO  C125 1277   5.882   6.403   0.193  0.1261 -0.0633  0.0563
    4CHTO   O84 1278   5.902   6.326   0.313  0.2161 -0.4247  0.1715
    4CHTO  H205 1279   5.994   6.331   0.331  0.4753  1.5289 -1.5165
    4CHTO  C114 1280   5.761   6.446  -0.034  0.0842  0.3151 -0.0015
    4CHTO  H218 1281   5.848   6.415  -0.093 -0.9818  1.7457 -2.3789
    4CHTO  C116 1282   5.629   6.411  -0.105 -0.5296 -0.1667  0.4346
    4CHTO  H220 1283   5.540   6.435  -0.044  0.2605  0.8624  1.1885
    4CHTO   O79 1284   5.620   6.493  -0.228  0.5534  0.0510  0.5261
    4CHTO  H201 1285   5.532   6.492  -0.259  1.1222  1.0967 -1.2579
    4CHTO  C120 1286   5.630   6.255  -0.137 -0.5599 -0.0272 -0.2535
    4CHTO  H224 1287   5.723   6.233  -0.194 -0.2942 -0.8153  0.4728
    4CHTO   N21 1288   5.512   6.211  -0.213  1.0953 -0.0086  0.2215
    4CHTO  H211 1289   5.534   6.121  -0.268 -0.0703  0.3211 -0.8206
    4CHTO  H212 1290   5.462   6.295  -0.260  0.0482 -2.1400 -2.6184
    4CHTO   O75 1291   5.775   6.582   0.006 -0.4504 -0.0996 -0.4511
    4CHTO  C112 1292   5.888   6.675  -0.064  0.5563  0.1272  0.3949
    4CHTO  H216 1293   5.888   6.648  -0.171  1.4771 -0.6829  0.5924
    4CHTO   O73 1294   6.010   6.647  -0.009  0.7787  0.0032 -0.3091
    4CHTO  C113 1295   6.123   6.724  -0.058  0.0232  0.1305 -0.2562
    4CHTO  H217 1296   6.129   6.711  -0.168  0.8809  0.3658 -0.2374
    4CHTO  C124 1297   6.251   6.660   0.001 -0.1057  0.0922 -0.3982
    4CHTO   O83 1298   6.255   6.656   0.147 -0.3635 -0.3337  0.2114
    4CHTO  H204 1299   6.264   6.741   0.185 -1.3297 -0.9489  1.8616
    4CHTO  C109 1300   6.106   6.876  -0.031  0.1780  0.0783 -0.6849
    4CHTO  H213 1301   6.115   6.888   0.078 -2.5137 -1.5886 -0.2259
    4CHTO  C110 1302   5.961   6.922  -0.074 -0.9352 -0.3259 -0.1715
    4CHTO  H214 1303   5.961   6.935  -0.182 -0.6375 -2.2308 -0.4094
    4CHTO   O78 1304   5.946   7.047  -0.010 -0.2208 -0.4153 -0.5928
    4CHTO  H200 1305   5.955   7.049   0.083 -0.1701  1.0739 -0.6180
    4CHTO  C111 1306   5.854   6.823  -0.036  0.0801 -1.0517 -0.7263
    4CHTO  H215 1307   5.839   6.824   0.073  0.1894  1.2272 -0.7089
    4CHTO   N19 1308   5.727   6.868  -0.092  1.1567  0.0293  1.2615
    4CHTO  H207 1309   5.656   6.871  -0.011 -1.5969  1.9633 -1.1384
    4CHTO  H208 1310   5.696   6.802  -0.171  0.4217  1.0562  0.6790
    4CHTO   O74 1311   6.210   6.959  -0.091 -0.0785 -0.5049  0.3489
    4CHTO  C115 1312   6.248   7.090  -0.024  0.0070 -0.0218 -0.1144
    4CHTO  H219 1313   6.161   7.130   0.027  0.0537 -0.1813  0.0881
    4CHTO   O76 1314   6.347   7.069   0.087 -0.5577  0.0136  0.8243
    4CHTO  C122 1315   6.484   7.039   0.045 -0.3402  0.3690 -0.5129
    4CHTO  H226 1316   6.494   6.931   0.046  0.4887  0.4417  1.3682
    4CHTO  C126 1317   6.566   7.081   0.176 -0.1669 -0.2162  0.1323
    4CHTO   O85 1318   6.556   7.220   0.209 -0.4348  0.1569 -0.1115
    4CHTO  H206 1319   6.491   7.238   0.274  0.4114  1.5211  0.3660
    4CHTO  C121 1320   6.536   7.091  -0.094  0.1767 -0.3831  0.1129
    4CHTO  H225 1321   6.642   7.124  -0.098 -0.7149  2.5171 -1.6448
    4CHTO   O81 1322   6.528   6.973  -0.177  0.5244 -0.4112 -0.0665
    4CHTO  H202 1323   6.439   6.946  -0.186  0.4851 -0.8122  1.3735
    4CHTO  C119 1324   6.453   7.215  -0.133 -1.0946 -0.8117  0.6117
    4CHTO  H223 1325   6.478   7.297  -0.066 -1.2023 -0.7778  0.6112
    4CHTO  C117 1326   6.297   7.188  -0.132 -0.9927 -0.5576  0.8566
    4CHTO  H221 1327   6.261   7.154  -0.229  0.9478 -0.8705  0.2116
    4CHTO   N20 1328   6.223   7.322  -0.117  0.2680  0.6298  0.2007
    4CHTO  H209 1329   6.246   7.404  -0.183 -0.6883  0.9171  0.2189
    4CHTO  H210 1330   6.120   7.295  -0.136  0.1036  1.6079 -0.2871
    4CHTO   O80 1331   6.497   7.279  -0.272 -0.4423  0.2813  0.3043
    4CHTO  C103 1332   6.591   7.416  -0.262  0.4035 -0.1628 -0.2848
    4CHTO  H190 1333   6.566   7.468  -0.169 -1.1196 -1.8478  0.2888
    4CHTO  C101 1334   6.743   7.395  -0.259  0.3968  0.4497  0.3696
    4CHTO  H188 1335   6.777   7.333  -0.342 -1.0689 -1.3558  1.0786
    4CHTO   O68 1336   6.797   7.321  -0.099 -0.8145  0.1317  0.0848
    4CHTO  H168 1337   6.772   7.231  -0.093 -2.5106  0.6399  1.2541
    4CHTO   C99 1338   6.809   7.539  -0.278 -0.8162  0.4586 -0.0256
    4CHTO  H186 1339   6.762   7.600  -0.197 -3.8588 -1.9576  0.1147
    4CHTO   N17 1340   6.960   7.546  -0.262 -0.4644  0.2971  1.1239
    4CHTO  H174 1341   6.988   7.519  -0.161 -0.9587  1.8554  1.6974
    4CHTO  H175 1342   6.990   7.644  -0.298 -2.8934  0.1937 -1.3116
    4CHTO   C97 1343   6.759   7.600  -0.412  0.5406  0.3241 -0.4037
    4CHTO  H184 1344   6.778   7.530  -0.495  0.0021 -0.7383  0.3490
    4CHTO   O64 1345   6.620   7.629  -0.394 -0.2497 -0.0022  0.4341
    4CHTO  C104 1346   6.547   7.503  -0.387 -0.2952 -0.0363  0.0967
    4CHTO  H191 1347   6.565   7.444  -0.477  0.5209  0.7575 -0.2764
    4CHTO  C108 1348   6.400   7.545  -0.384 -0.1052  0.0782 -0.3010
    4CHTO   O71 1349   6.366   7.627  -0.271 -0.6583  0.7181  0.4120
    4CHTO  H171 1350   6.272   7.637  -0.269 -0.7299  0.0785  0.3840
    4CHTO   O62 1351   6.813   7.731  -0.442 -0.6518  0.0829 -0.0348
    4CHTO   C91 1352   6.857   7.751  -0.577 -0.1438 -0.3649  0.4561
    4CHTO  H178 1353   6.890   7.656  -0.619  2.3188 -0.2458  1.9946
    4CHTO   C92 1354   6.976   7.855  -0.580 -0.2541  0.2643  0.3096
    4CHTO  H179 1355   6.935   7.954  -0.557 -0.1994  0.3189  0.1671
    4CHTO   O66 1356   7.078   7.831  -0.478  0.0155 -0.4359  0.3167
    4CHTO  H166 1357   7.115   7.914  -0.453  1.4760 -0.5789 -1.2943
    4CHTO   C93 1358   7.049   7.864  -0.720 -0.8420  0.3304  1.1536
    4CHTO  H180 1359   7.126   7.786  -0.723 -1.7513 -0.4986 -1.8171
    4CHTO   N16 1360   7.122   7.995  -0.734 -0.1816  0.5067 -0.0389
    4CHTO  H172 1361   7.170   8.004  -0.831 -0.4562  0.3464 -0.1904
    4CHTO  H173 1362   7.046   8.072  -0.730 -2.2476 -1.5268  0.8321
    4CHTO   C94 1363   6.944   7.846  -0.842 -0.5775 -0.1496  0.0985
    4CHTO  H181 1364   6.950   7.927  -0.914  1.0512  3.1469  3.7480
    4CHTO   O61 1365   6.807   7.869  -0.804  0.2641  0.0642  0.1672
    4CHTO   C95 1366   6.753   7.816  -0.680 -0.9839 -0.3138 -0.0672
    4CHTO  H182 1367   6.702   7.897  -0.629  0.0666 -0.1551  0.7473
    4CHTO  C106 1368   6.648   7.706  -0.720 -0.0775 -0.0376  0.1277
    4CHTO   O69 1369   6.562   7.757  -0.822 -0.0525 -0.1059  0.6352
    4CHTO  H169 1370   6.509   7.681  -0.841 -0.7218  0.0121  1.9758
    4CHTO   O63 1371   6.959   7.709  -0.898 -0.0045  0.3684 -0.6572
    4CHTO   C96 1372   7.016   7.710  -1.045  0.2354  0.6000  0.3708
    4CHTO  H183 1373   7.027   7.604  -1.070  0.7983  0.0031  2.9751
    4CHTO   C98 1374   7.153   7.791  -1.065 -0.1779  0.5509 -0.4253
    4CHTO  H185 1375   7.134   7.898  -1.049 -2.3130 -0.3583  3.7091
    4CHTO   O67 1376   7.238   7.748  -0.954  0.2039 -0.2169  0.2004
    4CHTO  H167 1377   7.301   7.817  -0.943  0.4022 -0.5898  1.5064
    4CHTO  C102 1378   7.208   7.756  -1.210 -0.8267  0.4677  0.6539
    4CHTO  H189 1379   7.232   7.649  -1.206  1.1583  0.9179  1.0727
    4CHTO   N18 1380   7.336   7.823  -1.243 -0.3374  0.0681  0.9546
    4CHTO  H176 1381   7.370   7.800  -1.343  1.7529  2.4071  1.0792
    4CHTO  H177 1382   7.326   7.931  -1.240 -0.0144  0.0963  1.0463
    4CHTO  C105 1383   7.094   7.786  -1.307 -0.6857 -0.1972  0.1513
    4CHTO  H192 1384   7.078   7.893  -1.317  0.2852 -0.0687 -0.1328
    4CHTO   O65 1385   6.961   7.748  -1.268 -0.3157 -0.1054  0.2120
    4CHTO  C100 1386   6.915   7.768  -1.136  0.3925 -0.4217  0.1699
    4CHTO  H187 1387   6.915   7.878  -1.132  0.5788 -0.4538  1.1960
    4CHTO  C107 1388   6.780   7.699  -1.110 -0.6102 -0.3793  0.8111
    4CHTO   O70 1389   6.699   7.726  -1.218 -0.1794  0.0955 -0.5649
    4CHTO  H170 1390   6.616   7.684  -1.204 -0.9384  1.5060 -0.7807
    4CHTO   O57 1391   7.143   7.728  -1.447 -0.3209 -0.2000 -0.3083
    4CHTO   C85 1392   7.046   7.680  -1.535 -0.4939  0.0012 -0.0262
    4CHTO  H157 1393   6.954   7.739  -1.516 -1.9879 -2.5525  0.8651
    4CHTO   C83 1394   7.001   7.536  -1.504  0.6602 -0.2842  0.6758
    4CHTO  H155 1395   6.960   7.533  -1.403  0.3541  0.4450  0.5788
    4CHTO   O56 1396   7.115   7.448  -1.506 -0.1844  0.3479 -0.4300
    4CHTO  H135 1397   7.170   7.469  -1.579  1.9227 -0.4602  0.8718
    4CHTO   C81 1398   6.885   7.501  -1.604  0.1967  0.3424  0.9107
    4CHTO  H153 1399   6.803   7.571  -1.588 -0.1363  0.0621  0.3985
    4CHTO   N14 1400   6.824   7.373  -1.585  0.6027  0.5366 -0.5433
    4CHTO  H141 1401   6.882   7.287  -1.609 -0.9367 -0.6258 -0.1781
    4CHTO  H142 1402   6.768   7.363  -1.494 -0.8476  0.2831 -1.4318
    4CHTO   C79 1403   6.946   7.518  -1.755 -0.1242  0.5687  0.3619
    4CHTO  H151 1404   6.867   7.503  -1.828  1.4401  1.6030 -1.6170
    4CHTO   O52 1405   6.986   7.651  -1.776  0.2879 -0.4712  0.3934
    4CHTO   C86 1406   7.091   7.694  -1.687  0.3462 -0.8258 -0.4754
    4CHTO  H158 1407   7.173   7.625  -1.716  0.4046  0.3276 -3.2287
    4CHTO   C90 1408   7.134   7.836  -1.719 -0.2142  0.0094  0.0075
    4CHTO   O60 1409   7.022   7.922  -1.723 -0.8780  0.5254  0.1573
    4CHTO  H138 1410   6.977   7.923  -1.641 -0.8862  1.7058  0.1480
    4CHTO   O50 1411   7.046   7.419  -1.779  0.2554  0.0730  0.8625
    4CHTO   C73 1412   7.119   7.353  -1.885  0.4515  0.2321  0.1365
    4CHTO  H145 1413   7.161   7.424  -1.957  1.0744 -0.1236  0.1461
    4CHTO   C74 1414   7.023   7.240  -1.953 -0.1055  0.1154  0.2165
    4CHTO  H146 1415   6.947   7.305  -1.999  0.8258 -0.2449 -1.8965
    4CHTO   O54 1416   7.086   7.169  -2.059 -0.3740 -0.0978 -0.5164
    4CHTO  H133 1417   7.146   7.110  -2.017 -1.3845  0.5621  1.9932
    4CHTO   C75 1418   6.965   7.143  -1.848  0.7680  0.2477  0.2139
    4CHTO  H147 1419   6.900   7.202  -1.782  0.0217 -0.2243 -0.0916
    4CHTO   N13 1420   6.870   7.029  -1.900 -0.0139  0.4188  1.1476
    4CHTO  H139 1421   6.775   7.029  -1.851 -0.8797  0.2954 -0.4823
    4CHTO  H140 1422   6.922   6.935  -1.882  0.4887  0.4488 -0.0769
    4CHTO   C76 1423   7.088   7.088  -1.752  0.4664 -0.2593  0.4318
    4CHTO  H148 1424   7.151   7.016  -1.805  1.9094  1.2772  0.0319
    4CHTO   O49 1425   7.182   7.196  -1.711  0.8049 -0.3053  0.4318
    4CHTO   C77 1426   7.232   7.271  -1.824 -0.4490 -0.1000 -0.3627
    4CHTO  H149 1427   7.286   7.213  -1.899  1.8595  0.7722  0.5645
    4CHTO   C88 1428   7.342   7.367  -1.783 -0.5687 -0.0267 -0.7290
    4CHTO   O58 1429   7.452   7.323  -1.763 -0.8074 -0.0453 -0.1005
    4CHTO  H136 1430   7.489   7.363  -1.686  2.8655 -1.9107 -0.7798
    4CHTO   O51 1431   7.027   7.029  -1.610  0.2313 -0.1790  0.0251
    4CHTO   C78 1432   7.114   6.871  -1.543  1.0864  0.7212  0.1056
    4CHTO  H150 1433   7.088   6.857  -1.436  0.0903  1.9614  0.0430
    4CHTO   C80 1434   7.267   6.878  -1.550  0.2046 -0.1398 -0.3391
    4CHTO  H152 1435   7.301   6.883  -1.656 -0.7999  0.6148 -0.6358
    4CHTO   O55 1436   7.303   6.995  -1.484  0.1992  0.0658  0.1095
    4CHTO  H134 1437   7.394   7.005  -1.464  0.3278 -2.3832  0.8800
    4CHTO   C84 1438   7.328   6.752  -1.480 -0.3630  0.0392  0.5850
    4CHTO  H156 1439   7.292   6.763  -1.378 -0.1636 -0.5266  0.7182
    4CHTO   N15 1440   7.480   6.758  -1.464 -0.1354 -0.4012 -0.2708
    4CHTO  H143 1441   7.512   6.856  -1.433  1.2703 -0.5879 -1.1306
    4CHTO  H144 1442   7.533   6.729  -1.552 -0.5044  0.2545 -0.7165
    4CHTO   C87 1443   7.274   6.622  -1.544 -0.1244  0.1566  0.4085
    4CHTO  H159 1444   7.324   6.594  -1.636 -0.6353  1.5386 -0.3025
    4CHTO   O53 1445   7.110   6.627  -1.564 -0.9026 -0.3904  0.6245
    4CHTO   C82 1446   7.070   6.749  -1.625 -0.3630 -0.0479 -0.4141
    4CHTO  H154 1447   7.109   6.757  -1.727  2.1201  0.6236  0.5677
    4CHTO   C89 1448   6.913   6.760  -1.633  0.4317  0.5787 -0.3178
    4CHTO   O59 1449   6.850   6.691  -1.746  0.6120  0.1064  0.8761
    4CHTO  H137 1450   6.782   6.742  -1.785 -0.1281 -0.2882  1.6488
    4CHTO   O45 1451   7.297   6.510  -1.437 -0.8361  0.1556  0.2512
    4CHTO   C67 1452   7.288   6.372  -1.488  0.0240  0.3839 -0.0030
    4CHTO  H124 1453   7.314   6.373  -1.594  0.7974  0.8142  0.1864
    4CHTO   C65 1454   7.403   6.295  -1.415 -0.0670 -0.0460 -0.4040
    4CHTO  H122 1455   7.495   6.351  -1.428  1.0143 -1.7817 -0.3688
    4CHTO   O44 1456   7.423   6.165  -1.476  0.2285 -0.2917 -0.6000
    4CHTO  H102 1457   7.413   6.176  -1.568  0.4954 -1.0688 -0.7225
    4CHTO   C63 1458   7.366   6.290  -1.260 -0.1573 -0.3468  0.3772
    4CHTO  H120 1459   7.360   6.393  -1.225  1.3279  0.1704 -0.8568
    4CHTO   N11 1460   7.477   6.243  -1.178 -0.3846 -0.6501  0.5510
    4CHTO  H108 1461   7.503   6.141  -1.199 -0.9143 -0.7601  0.4333
    4CHTO  H109 1462   7.560   6.306  -1.201 -0.5690  0.2350  2.2642
    4CHTO   C61 1463   7.226   6.230  -1.238 -0.4041 -0.1947 -0.6576
    4CHTO  H118 1464   7.201   6.266  -1.137  0.7132  1.4077 -0.9285
    4CHTO   O40 1465   7.121   6.268  -1.326  0.5097  0.0321 -0.1719
    4CHTO   C68 1466   7.145   6.298  -1.469  0.6376  0.0210  0.0755
    4CHTO  H125 1467   7.060   6.363  -1.498  0.2937  0.1067  1.2502
    4CHTO   C72 1468   7.123   6.164  -1.539 -0.2613  0.2424  0.2039
    4CHTO   O48 1469   6.982   6.143  -1.559 -0.3888 -0.0168 -0.4320
    4CHTO  H105 1470   6.941   6.127  -1.476 -0.3635 -0.4749 -0.5047
    4CHTO   O38 1471   7.225   6.084  -1.231  0.7447 -0.2742 -0.1004
    4CHTO   C55 1472   7.156   6.021  -1.126 -0.1253  0.5935  0.1508
    4CHTO  H112 1473   7.095   6.089  -1.065 -1.6198 -0.7146  0.1519
    4CHTO   C56 1474   7.264   5.949  -1.033  0.1954 -0.3066 -0.1031
    4CHTO  H113 1475   7.327   5.884  -1.096 -1.4360 -3.3000  1.2776
    4CHTO   O42 1476   7.346   6.044  -0.969  0.6900  0.1979  0.3862
    4CHTO  H100 1477   7.435   6.014  -0.975  0.5906  0.2505 -1.4387
    4CHTO   C57 1478   7.180   5.868  -0.927 -0.8344  0.2085  0.1679
    4CHTO  H114 1479   7.122   5.938  -0.867 -2.0256  0.2995 -1.0626
    4CHTO   N10 1480   7.256   5.796  -0.817  0.0606  0.2667 -0.4297
    4CHTO  H106 1481   7.180   5.782  -0.742  0.1139 -0.5779 -0.5258
    4CHTO  H107 1482   7.340   5.844  -0.770 -0.3697 -0.0355  0.6469
    4CHTO   C58 1483   7.077   5.770  -0.992 -0.6946  0.1696 -0.7125
    4CHTO  H115 1484   7.132   5.689  -1.043 -0.9898  1.7140 -3.5995
    4CHTO   O37 1485   7.000   5.833  -1.094  0.4432 -0.1999 -0.8630
    4CHTO   C59 1486   7.056   5.922  -1.185  0.3086 -0.1811 -0.2797
    4CHTO  H116 1487   7.115   5.867  -1.258  0.9723  0.8341 -0.5094
    4CHTO   C70 1488   6.942   6.001  -1.252  0.0430 -0.5562 -0.1967
    4CHTO   O46 1489   6.861   6.080  -1.162  0.4481  0.6869 -0.2943
    4CHTO  H103 1490   6.830   6.026  -1.092 -0.1484  0.8637 -0.4249
    4CHTO   O39 1491   6.965   5.722  -0.877 -1.1968 -0.7134 -0.3580
    4CHTO   C60 1492   6.856   5.642  -0.933 -0.4946  0.4480  0.1170
    4CHTO  H117 1493   6.849   5.659  -1.041  0.4895 -2.1611 -0.4042
    4CHTO   C62 1494   6.888   5.496  -0.903  0.1927  0.0514  0.1674
    4CHTO  H119 1495   6.988   5.478  -0.949 -0.6554 -2.8315 -0.6694
    4CHTO   O43 1496   6.897   5.476  -0.759  0.3038 -0.2952  0.4943
    4CHTO  H101 1497   6.942   5.396  -0.742  0.5748  0.2330  2.4053
    4CHTO   C66 1498   6.765   5.411  -0.980 -0.8181 -0.1951  0.1914
    4CHTO  H123 1499   6.751   5.453  -1.080  0.4595 -1.2509 -0.4534
    4CHTO   N12 1500   6.802   5.266  -0.992 -0.2929  0.3537 -0.1826
    4CHTO  H110 1501   6.893   5.249  -1.047  1.2148  2.9654  1.4143
    4CHTO  H111 1502   6.718   5.208  -1.028  0.1189 -1.9602  2.4034
    4CHTO   C69 1503   6.641   5.437  -0.896  0.6565  0.4860  0.4679
    4CHTO  H126 1504   6.651   5.408  -0.790  0.5160  1.1940  0.6708
    4CHTO   O41 1505   6.610   5.594  -0.913  1.1388  0.2784  0.4842
    4CHTO   C64 1506   6.727   5.687  -0.870  0.3697  0.1493 -0.2451
    4CHTO  H121 1507   6.738   5.678  -0.760 -0.9362 -0.8558 -0.1838
    4CHTO   C71 1508   6.694   5.833  -0.901  0.2702  0.0908  0.1478
    4CHTO   O47 1509   6.767   5.925  -0.814 -0.2090  0.5399 -0.2975
    4CHTO  H104 1510   6.739   6.014  -0.821 -1.7494  0.2087  1.1289
    4CHTO   O34 1511   6.511   5.350  -0.952 -0.4454  0.0954 -0.3983
    4CHTO   C49 1512   6.362   5.370  -1.002 -0.4304  0.0826  0.8282
    4CHTO   H91 1513   6.313   5.398  -0.909  2.9015  0.3699  2.5624
    4CHTO   C47 1514   6.313   5.227  -1.049 -0.3153 -0.5754  0.1088
    4CHTO   H89 1515   6.204   5.247  -1.043  0.3515  3.4190 -0.0472
    4CHTO   O33 1516   6.347   5.119  -0.962  0.0993 -0.3175  0.0081
    4CHTO   H70 1517   6.329   5.120  -0.869 -1.9293 -0.0070 -0.3657
    4CHTO   C45 1518   6.366   5.188  -1.199 -0.0443 -0.3828  0.5775
    4CHTO   H87 1519   6.435   5.103  -1.183 -0.2580 -0.6992 -0.1464
    4CHTO    N8 1520   6.253   5.135  -1.274  0.8907  0.6063  0.5725
    4CHTO   H75 1521   6.215   5.210  -1.341 -1.5103  0.0208  1.2293
    4CHTO   H76 1522   6.272   5.034  -1.309 -1.0325  0.7437 -0.9687
    4CHTO   C43 1523   6.451   5.316  -1.258 -0.5385  0.2093  0.1040
    4CHTO   H85 1524   6.545   5.318  -1.204  0.3371 -1.0834 -1.3265
    4CHTO   O29 1525   6.372   5.441  -1.242 -0.6114 -0.0426  0.1088
    4CHTO   C50 1526   6.338   5.482  -1.104 -0.6658 -0.1149  0.2704
    4CHTO   H92 1527   6.399   5.566  -1.067 -0.9685 -0.7147  2.1640
    4CHTO   C54 1528   6.192   5.529  -1.097 -1.0369  0.2927  0.5990
    4CHTO   O36 1529   6.145   5.611  -1.201  0.7620 -0.0422 -0.3635
    4CHTO   H72 1530   6.132   5.689  -1.151 -1.4733 -0.6386  0.0191
    4CHTO   O27 1531   6.495   5.294  -1.391  0.1262 -0.4495 -0.1019
    4CHTO   C37 1532   6.623   5.339  -1.445  0.2328  0.0344  0.2651
    4CHTO   H79 1533   6.608   5.330  -1.554  0.5464 -0.5981  0.2704
    4CHTO   C38 1534   6.661   5.488  -1.407  0.2977 -0.2303 -0.2909
    4CHTO   H80 1535   6.648   5.505  -1.299  2.5548  1.5581 -0.2476
    4CHTO   O31 1536   6.559   5.570  -1.465 -0.1598  0.0271 -0.3099
    4CHTO   H68 1537   6.519   5.637  -1.414  1.3111  1.1657 -0.5986
    4CHTO   C39 1538   6.813   5.524  -1.457  0.2709  0.1975 -0.4530
    4CHTO   H81 1539   6.828   5.517  -1.565  0.1770  1.6508 -0.5720
    4CHTO    N7 1540   6.846   5.671  -1.420 -0.7431 -1.0136  0.4130
    4CHTO   H73 1541   6.848   5.731  -1.510 -1.2780 -1.8413 -0.1530
    4CHTO   H74 1542   6.945   5.680  -1.377 -2.0904 -0.2353  3.4844
    4CHTO   C40 1543   6.903   5.412  -1.402  0.4983  0.1282  0.3014
    4CHTO   H82 1544   6.886   5.405  -1.294  1.9056 -2.6904  0.4021
    4CHTO   O26 1545   6.855   5.290  -1.466  0.3626 -0.1384  0.3133
    4CHTO   C41 1546   6.731   5.240  -1.406 -0.7908  1.0547 -0.0468
    4CHTO   H83 1547   6.754   5.248  -1.299  0.9975 -1.4605 -0.2097
    4CHTO   C52 1548   6.698   5.094  -1.448  0.1814 -0.2982  0.5075
    4CHTO   O35 1549   6.779   5.020  -1.413  0.6621 -0.3059  0.1209
    4CHTO   H71 1550   6.742   4.945  -1.372  0.3102 -0.9061 -1.2869
    4CHTO   O28 1551   7.044   5.425  -1.424 -0.1158 -0.5010 -0.1589
    4CHTO   C42 1552   7.152   5.355  -1.353 -0.2124  0.0056 -0.1016
    4CHTO   H84 1553   7.228   5.350  -1.431  2.0243 -0.8022  2.0579
    4CHTO   C44 1554   7.123   5.206  -1.309 -0.0393 -0.6182 -0.3813
    4CHTO   H86 1555   7.032   5.205  -1.248  1.2333 -0.5600  1.5573
    4CHTO   O32 1556   7.115   5.131  -1.428 -0.1740 -0.4690  0.2464
    4CHTO   H69 1557   7.030   5.149  -1.465 -0.2005  0.9054  0.9500
    4CHTO   C48 1558   7.234   5.142  -1.219  0.2303  0.0693  0.2610
    4CHTO   H90 1559   7.325   5.120  -1.274  0.0626 -4.3408  1.5283
    4CHTO    N9 1560   7.182   5.013  -1.160 -0.2171 -0.2290  0.0979
    4CHTO   H77 1561   7.193   5.017  -1.052  0.2219 -1.6641  0.1178
    4CHTO   H78 1562   7.082   4.994  -1.195 -0.3754 -1.6554  1.2687
    4CHTO   C51 1563   7.271   5.245  -1.103  0.2712 -0.5404 -0.2099
    4CHTO   H93 1564   7.182   5.271  -1.045  1.7819  0.1776  1.8601
    4CHTO   O30 1565   7.319   5.361  -1.169 -0.4152 -0.0133  0.3920
    4CHTO   C46 1566   7.213   5.442  -1.236  1.3640  0.6797  0.2510
    4CHTO   H88 1567   7.139   5.461  -1.159  0.5466  2.1885 -0.8911
    4CHTO   C53 1568   7.288   5.570  -1.268 -0.4369 -0.3197  0.7770
    4CHTO   O72 1569   7.202   5.651  -1.349  0.0954 -0.3156  0.3375
    4CHTO  H199 1570   7.252   5.690  -1.417 -0.4124 -2.3030 -1.2147
    4CHTO   O22 1571   7.378   5.205  -1.016  0.6124 -0.5982 -0.0239
    4CHTO   C31 1572   7.377   5.215  -0.873  0.4771 -0.5778  0.2194
    4CHTO   H59 1573   7.478   5.180  -0.842 -0.3072 -1.2090  2.1414
    4CHTO   C29 1574   7.362   5.363  -0.820 -0.8419  0.4221  0.3217
    4CHTO   H57 1575   7.273   5.399  -0.875 -2.0641 -0.6638  1.5506
    4CHTO   O21 1576   7.471   5.449  -0.857 -0.7776 -0.4456  0.2248
    4CHTO   H37 1577   7.543   5.413  -0.810 -0.8646 -1.0010 -0.0695
    4CHTO   C27 1578   7.337   5.366  -0.657  0.4061  0.3915 -0.3538
    4CHTO   H55 1579   7.426   5.333  -0.602  1.6060  0.5433 -2.1650
    4CHTO    N5 1580   7.286   5.499  -0.606 -0.6820  0.1021 -0.9371
    4CHTO   H43 1581   7.352   5.539  -0.531 -0.1440 -0.2160 -1.2395
    4CHTO   H44 1582   7.183   5.493  -0.574 -0.8860  0.9476 -1.4466
    4CHTO   C25 1583   7.225   5.260  -0.618  0.2519 -0.1835 -0.1910
    4CHTO   H53 1584   7.130   5.269  -0.674  0.7961 -2.1786 -1.4833
    4CHTO   O17 1585   7.266   5.135  -0.661  0.1098  0.0269  0.2515
    4CHTO   C32 1586   7.279   5.116  -0.804 -0.0991  0.3693 -0.2364
    4CHTO   H60 1587   7.180   5.138  -0.842 -0.8812  0.4996  1.8241
    4CHTO   C36 1588   7.323   4.964  -0.831 -0.2123 -0.6641  0.1367
    4CHTO   O25 1589   7.455   4.932  -0.791 -0.0171  0.1126 -0.6484
    4CHTO   H40 1590   7.514   4.984  -0.842 -0.1328  2.4382  1.4984
    4CHTO   O15 1591   7.214   5.243  -0.451 -0.0504  0.2169  0.2407
    4CHTO   C19 1592   7.277   5.197  -0.334  0.1983  0.0978  0.7821
    4CHTO   H47 1593   7.226   5.112  -0.286  1.1930 -0.3653  1.0432
    4CHTO   C20 1594   7.424   5.156  -0.358 -0.0137  0.4561 -0.0684
    4CHTO   H48 1595   7.483   5.234  -0.408  1.0255  0.8800  1.7857
    4CHTO   O19 1596   7.420   5.040  -0.446 -0.2697 -0.7233  0.2245
    4CHTO   H35 1597   7.510   5.015  -0.451  0.0036  0.2012  0.5683
    4CHTO   C21 1598   7.504   5.130  -0.226  0.3295  0.0612 -0.0602
    4CHTO   H49 1599   7.448   5.054  -0.171 -3.4115  1.5962 -1.5778
    4CHTO    N4 1600   7.648   5.090  -0.251  0.5594 -0.1491 -0.6129
    4CHTO   H41 1601   7.717   5.170  -0.229 -1.2786  1.6399 -1.2855
    4CHTO   H42 1602   7.678   4.997  -0.205  1.1396 -0.7341 -2.1340
    4CHTO   C22 1603   7.493   5.262  -0.145  0.4349  0.0290 -0.1454
    4CHTO   H50 1604   7.530   5.342  -0.211  1.1198  1.5482  2.0155
    4CHTO   O14 1605   7.351   5.273  -0.113 -0.2832 -0.6185  0.3926
    4CHTO   C23 1606   7.273   5.316  -0.227 -0.0461 -0.1804 -0.7231
    4CHTO   H51 1607   7.319   5.409  -0.264  1.3321 -0.4198  0.3627
    4CHTO   C34 1608   7.127   5.357  -0.181 -0.5973  0.0531  0.1762
    4CHTO   O23 1609   7.054   5.248  -0.116 -0.6703  0.0471 -0.1137
    4CHTO   H38 1610   7.018   5.277  -0.035  0.6531 -1.7161  1.1233
    4CHTO   O16 1611   7.565   5.254  -0.019 -0.1951 -0.0081  0.0176
    4CHTO   C24 1612   7.579   5.413   0.048 -0.3964 -0.2860 -0.4969
    4CHTO   H52 1613   7.552   5.488  -0.025 -1.1047  0.3106  0.3673
    4CHTO   C26 1614   7.723   5.440   0.098  0.0846 -0.3484  0.2707
    4CHTO   H54 1615   7.788   5.411   0.012 -1.6673 -1.5340 -0.6783
    4CHTO   O20 1616   7.768   5.575   0.133  0.4406  0.2584  0.5138
    4CHTO   H36 1617   7.861   5.585   0.119  0.3684 -0.0414 -0.2109
    4CHTO   C30 1618   7.761   5.345   0.217  0.7490  0.4747 -0.4613
    4CHTO   H58 1619   7.843   5.397   0.268 -1.1125  2.8939  0.1461
    4CHTO    N6 1620   7.812   5.213   0.177 -0.0854  0.9250 -0.7417
    4CHTO   H45 1621   7.894   5.229   0.109  0.5702 -0.1509 -0.2145
    4CHTO   H46 1622   7.849   5.160   0.263 -2.4040 -0.3439 -0.4770
    4CHTO   C33 1623   7.643   5.331   0.320 -0.2069  0.2072  0.4811
    4CHTO   H61 1624   7.595   5.232   0.317 -0.4713  0.3022  1.2479
    4CHTO   O18 1625   7.541   5.429   0.292  0.8906 -0.1950  0.0764
    4CHTO   C28 1626   7.473   5.424   0.167 -0.0814  0.5642  0.5974
    4CHTO   H56 1627   7.402   5.341   0.160 -0.5032  1.0159 -0.6200
    4CHTO   C35 1628   7.388   5.551   0.145  0.1522 -0.1524  0.1577
    4CHTO   O24 1629   7.305   5.553   0.027  0.0010 -0.2267 -0.0377
    4CHTO   H39 1630   7.219   5.573   0.059 -0.4855 -0.4195 -1.1719
    4CHTO    O9 1631   7.697   5.345   0.451 -0.1849  0.7954 -0.2688
    4CHTO   C13 1632   7.687   5.217   0.529  0.9635 -0.0303 -0.8513
    4CHTO   H26 1633   7.714   5.135   0.458  2.9800 -1.2964  1.3283
    4CHTO   C11 1634   7.541   5.199   0.585  0.1200 -0.6006 -0.0891
    4CHTO   H24 1635   7.479   5.158   0.503 -0.3472 -1.6352  0.7550
    4CHTO    O8 1636   7.507   5.332   0.639  0.2517 -0.1946  0.6294
    4CHTO    H3 1637   7.544   5.341   0.724  0.9850 -1.0953  0.4026
    4CHTO    C9 1638   7.547   5.088   0.696  0.6966  0.8931 -0.2065
    4CHTO   H22 1639   7.588   4.998   0.648 -1.8416  0.2705 -1.3103
    4CHTO    N2 1640   7.408   5.048   0.738  0.1803 -0.2382  0.4655
    4CHTO   H10 1641   7.343   5.129   0.767 -1.4196 -0.8746 -1.2250
    4CHTO   H11 1642   7.365   4.982   0.664  1.4177  2.3965 -2.7439
    4CHTO    C7 1643   7.641   5.140   0.817  0.0055 -0.0168 -0.0041
    4CHTO   H20 1644   7.696   5.047   0.842  0.5790  0.3379  0.0808
    4CHTO    O4 1645   7.734   5.246   0.777  0.3086  0.5583  0.3140
    4CHTO   C14 1646   7.798   5.224   0.649 -1.2603 -0.5451 -0.1713
    4CHTO   H27 1647   7.847   5.124   0.646 -0.9423 -0.4853  2.2285
    4CHTO   C18 1648   7.910   5.331   0.633  0.4049 -0.0246 -0.1251
    4CHTO   O13 1649   8.008   5.308   0.531 -0.9744  0.0527  0.1943
    4CHTO    H7 1650   8.087   5.349   0.559  0.6644 -0.5089 -3.3871
    4CHTO    O2 1651   7.559   5.187   0.952  0.1468  0.4648 -0.5544
    4CHTO    C1 1652   7.628   5.183   1.079 -0.2077 -0.0600  0.4519
    4CHTO   H14 1653   7.736   5.206   1.070 -0.7631  2.9360  0.7276
    4CHTO    C2 1654   7.611   5.045   1.167 -0.0541  0.7288 -0.1564
    4CHTO   H15 1655   7.504   5.036   1.190  0.2487  0.2462  1.1234
    4CHTO    O6 1656   7.658   4.943   1.085  0.7421  0.4420  0.2585
    4CHTO    H1 1657   7.616   4.945   1.001  1.6945 -0.3715 -0.2495
    4CHTO    C3 1658   7.694   5.062   1.306  0.2533 -0.4047 -0.6156
    4CHTO   H16 1659   7.803   5.066   1.292  0.3444  0.0515  0.1918
    4CHTO    N1 1660   7.664   4.940   1.389 -0.4912 -0.7028 -0.1829
    4CHTO    H8 1661   7.592   4.969   1.464 -0.0629  1.7754 -0.6735
    4CHTO    H9 1662   7.754   4.919   1.444 -0.5449 -0.2825  0.0678
    4CHTO    C4 1663   7.651   5.203   1.375 -0.1750  0.2224 -0.6790
    4CHTO   H17 1664   7.552   5.192   1.419  0.3824 -1.5896  0.1637
    4CHTO    O1 1665   7.650   5.320   1.285 -0.7871 -0.0524  0.4196
    4CHTO    C5 1666   7.576   5.301   1.165 -0.5278  0.6811  0.2093
    4CHTO   H18 1667   7.469   5.284   1.174 -0.6686  0.5794 -1.3761
    4CHTO   C16 1668   7.595   5.430   1.076 -0.4304  0.1556  0.7581
    4CHTO   O11 1669   7.722   5.439   1.008  0.4382  0.4751  0.6492
    4CHTO    H5 1670   7.701   5.448   0.917 -0.4410  0.3001  0.8357
    4CHTO    O3 1671   7.752   5.225   1.474 -0.1641 -0.0316  0.0165
    4CHTO    C6 1672   7.710   5.269   1.602 -0.0069  0.3492 -0.0039
    4CHTO   H19 1673   7.602   5.287   1.609 -0.5146 -2.5311  0.2789
    4CHTO    C8 1674   7.755   5.164   1.704 -0.0899 -0.1701  0.0050
    4CHTO   H21 1675   7.851   5.124   1.672 -0.7596 -0.7801 -1.2889
    4CHTO    O7 1676   7.658   5.060   1.684  0.2163  0.1233  0.8625
    4CHTO    H2 1677   7.692   4.973   1.690 -0.1140  0.0121  1.1495
    4CHTO   C12 1678   7.760   5.229   1.853 -0.0865 -0.3210  0.0208
    4CHTO   H25 1679   7.659   5.265   1.882 -0.5329  0.6223 -2.6092
    4CHTO    N3 1680   7.797   5.120   1.950  0.3032 -0.3024  0.0850
    4CHTO   H12 1681   7.733   5.035   1.934 -0.8319  0.5918 -0.1425
    4CHTO   H13 1682   7.793   5.144   2.055  3.9140  1.2614 -0.0536
    4CHTO   C15 1683   7.854   5.347   1.857  0.6239 -0.7255  0.4330
    4CHTO   H28 1684   7.955   5.329   1.820  0.9816 -0.0765  1.0844
    4CHTO   O10 1685   7.872   5.422   1.999 -0.1976  0.3097 -0.4856
    4CHTO    H4 1686   7.783   5.427   2.030 -0.6523 -1.0434 -1.5691
    4CHTO    O5 1687   7.804   5.446   1.764  0.6866 -0.4275 -0.4111
    4CHTO   C10 1688   7.778   5.404   1.629  0.1784 -0.2610 -0.1722
    4CHTO   H23 1689   7.875   5.405   1.580  0.2296 -1.0386 -0.0829
    4CHTO   C17 1690   7.702   5.514   1.552 -0.1521  1.0894  0.4241
    4CHTO   O12 1691   7.586   5.570   1.622 -0.3619  0.0241  0.4597
    4CHTO    H6 1692   7.540   5.602   1.547  1.4035  0.0516 -0.6503
    5CHTO  H203 1693   6.749   3.210   2.539 -1.1478 -1.4850  2.1773
    5CHTO   O82 1694   6.672   3.240   2.496  0.5643 -0.3400 -0.2534
    5CHTO  C123 1695   6.556   3.203   2.579 -0.5564 -0.0273 -0.1762
    5CHTO  H227 1696   6.540   3.286   2.650  0.1402  0.0409 -0.0941
    5CHTO   O77 1697   6.448   3.207   2.486  0.1499  0.1040  0.1961
    5CHTO  C118 1698   6.317   3.213   2.547 -0.0779 -0.4007 -0.2249
    5CHTO  H222 1699   6.309   3.306   2.605  0.4177 -0.7243  0.3717
    5CHTO  C125 1700   6.214   3.220   2.431 -0.2991  0.1357  0.9966
    5CHTO   O84 1701   6.076   3.236   2.460  1.1831 -0.1671  0.1029
    5CHTO  H205 1702   6.036   3.178   2.522 -0.0308  0.8485  0.2839
    5CHTO  C114 1703   6.308   3.084   2.629 -0.0355  0.7272 -1.4311
    5CHTO  H218 1704   6.314   2.998   2.562  0.9085 -1.8863  1.8642
    5CHTO  C116 1705   6.426   3.059   2.735  0.5067  0.7351  0.3500
    5CHTO  H220 1706   6.433   3.144   2.807 -0.2703  1.0408  0.0767
    5CHTO   O79 1707   6.405   2.941   2.812 -0.1387 -0.4262  0.0633
    5CHTO  H201 1708   6.477   2.932   2.872  0.4696  1.3876 -0.3550
    5CHTO  C120 1709   6.555   3.061   2.646 -0.3509 -0.2039 -0.1181
    5CHTO  H224 1710   6.536   2.987   2.565  3.9244 -0.7001 -0.7630
    5CHTO   N21 1711   6.678   3.015   2.716  0.1174 -0.2561  0.9616
    5CHTO  H211 1712   6.760   3.072   2.674  0.8101 -0.7784  1.6010
    5CHTO  H212 1713   6.691   2.910   2.698 -0.3119  0.0579 -1.4552
    5CHTO   O75 1714   6.180   3.093   2.693 -0.5119 -0.1079  0.6545
    5CHTO  C112 1715   6.090   2.955   2.679  0.2359 -0.4389  0.1747
    5CHTO  H216 1716   6.157   2.868   2.680  0.2018 -0.4580  1.8600
    5CHTO   O73 1717   6.027   2.969   2.552 -0.7353 -0.0495  0.1119
    5CHTO  C113 1718   5.929   2.878   2.517 -0.1835  0.3329 -0.1339
    5CHTO  H217 1719   5.964   2.772   2.516  1.6274  0.9172 -2.6866
    5CHTO  C124 1720   5.886   2.922   2.378  0.2717 -0.0641 -0.4657
    5CHTO   O83 1721   5.804   2.823   2.311 -0.5175  0.0550  0.2448
    5CHTO  H204 1722   5.850   2.758   2.262  1.5748  0.8536  1.0853
    5CHTO  C109 1723   5.805   2.883   2.624 -0.7460 -0.7462 -0.4899
    5CHTO  H213 1724   5.762   2.984   2.622  0.4916 -0.0995  2.6281
    5CHTO  C110 1725   5.867   2.864   2.772  0.4188 -0.7706  0.1189
    5CHTO  H214 1726   5.911   2.764   2.776 -2.3365 -2.0300  0.2408
    5CHTO   O78 1727   5.754   2.883   2.861 -0.3386 -0.1442 -0.3809
    5CHTO  H200 1728   5.732   2.974   2.865 -0.1488 -0.0556 -1.2814
    5CHTO  C111 1729   5.980   2.968   2.794 -0.2372 -1.2208  0.0517
    5CHTO  H215 1730   5.939   3.070   2.788  0.1211 -1.0851 -0.0781
    5CHTO   N19 1731   6.045   2.963   2.926  0.2394 -0.3529 -0.8424
    5CHTO  H207 1732   6.084   3.063   2.939 -1.0076 -0.0931  0.9869
    5CHTO  H208 1733   6.119   2.884   2.921  0.1027 -0.5466  0.0851
    5CHTO   O74 1734   5.699   2.792   2.594 -0.5438  0.4597 -0.3326
    5CHTO  C115 1735   5.544   2.844   2.569 -0.3355 -0.7493 -0.0696
    5CHTO  H219 1736   5.521   2.933   2.627 -2.9917 -1.5017  0.0985
    5CHTO   O76 1737   5.524   2.886   2.434 -0.1220 -0.1668 -0.0868
    5CHTO  C122 1738   5.484   2.782   2.340  0.2525  0.3948  0.0493
    5CHTO  H226 1739   5.571   2.716   2.337 -0.8624 -1.2352  1.9930
    5CHTO  C126 1740   5.462   2.843   2.190 -0.2966 -0.2519  0.0518
    5CHTO   O85 1741   5.572   2.921   2.142  0.0269 -0.1289  0.6305
    5CHTO  H206 1742   5.562   3.009   2.173 -1.4020 -0.0041 -0.1520
    5CHTO  C121 1743   5.359   2.701   2.374  0.3600  0.0542 -0.2578
    5CHTO  H225 1744   5.281   2.715   2.296  1.0053 -0.2471 -0.9619
    5CHTO   O81 1745   5.395   2.562   2.363 -0.0851  0.4958 -0.0318
    5CHTO  H202 1746   5.467   2.551   2.421 -0.5612 -0.5334  0.3735
    5CHTO  C119 1747   5.301   2.739   2.517  0.1363  0.0903  0.0378
    5CHTO  H223 1748   5.272   2.843   2.510  0.3990  0.2003  0.5307
    5CHTO  C117 1749   5.429   2.741   2.615  0.5453  0.3969 -0.2274
    5CHTO  H221 1750   5.479   2.645   2.627  0.1125  0.1310 -0.5281
    5CHTO   N20 1751   5.374   2.774   2.750 -0.8086 -0.7044  0.2259
    5CHTO  H209 1752   5.451   2.784   2.826 -1.7547  0.6634  1.0427
    5CHTO  H210 1753   5.313   2.862   2.736  2.6729  1.6169 -1.1754
    5CHTO   O80 1754   5.170   2.669   2.546 -0.7180  0.0074  0.4323
    5CHTO  C103 1755   5.164   2.506   2.551  0.3569 -0.2138  0.1850
    5CHTO  H190 1756   5.182   2.461   2.453 -1.0321  0.9239 -0.6168
    5CHTO  C101 1757   5.249   2.423   2.655  0.1315  0.0681 -0.3709
    5CHTO  H188 1758   5.243   2.480   2.748  0.1890  2.0927 -1.5701
    5CHTO   O68 1759   5.386   2.426   2.604  0.0400 -0.4690  0.2253
    5CHTO  H168 1760   5.443   2.367   2.650 -1.3367 -1.5036  0.6198
    5CHTO   C99 1761   5.201   2.264   2.674 -0.8464 -0.2895  0.1333
    5CHTO  H186 1762   5.211   2.207   2.579  1.4438 -1.5147  1.0575
    5CHTO   N17 1763   5.271   2.181   2.771  0.3931  0.1944 -0.4548
    5CHTO  H174 1764   5.206   2.101   2.805 -0.8031  1.2130 -0.3246
    5CHTO  H175 1765   5.316   2.239   2.850  1.1538 -0.0186 -0.7244
    5CHTO   C97 1766   5.047   2.264   2.694 -0.7101 -0.2947  0.5275
    5CHTO  H184 1767   5.027   2.312   2.790 -0.2513 -1.0941  1.0309
    5CHTO   O64 1768   4.987   2.340   2.584 -0.1882  0.2283 -0.3345
    5CHTO  C104 1769   5.009   2.485   2.586 -0.0843 -0.6875 -0.5219
    5CHTO  H191 1770   4.989   2.535   2.680  1.2475 -0.3574 -0.4059
    5CHTO  C108 1771   4.912   2.543   2.484 -0.3854 -0.3745  0.7152
    5CHTO   O71 1772   4.777   2.508   2.519 -0.4735 -0.0659  0.5254
    5CHTO  H171 1773   4.728   2.584   2.496  1.3294  1.2585  0.8923
    5CHTO   O62 1774   4.985   2.135   2.681  0.0691 -0.2356  0.2866
    5CHTO   C91 1775   4.875   2.127   2.780 -0.4173  0.1768  0.4665
    5CHTO  H178 1776   4.911   2.164   2.876 -1.2077 -0.9156  1.1937
    5CHTO   C92 1777   4.847   1.981   2.820  0.2932 -0.1932  0.0735
    5CHTO  H179 1778   4.937   1.923   2.846  0.1318 -1.1377 -1.4030
    5CHTO   O66 1779   4.775   1.985   2.943  0.7293 -0.0218  0.1048
    5CHTO  H166 1780   4.818   2.040   3.006  1.9102  0.7275 -1.3217
    5CHTO   C93 1781   4.771   1.902   2.710  0.2920 -0.1056 -0.0450
    5CHTO  H180 1782   4.704   1.827   2.753  1.1046 -0.2932  0.9077
    5CHTO   N16 1783   4.855   1.819   2.621  0.5023  0.1173 -0.1175
    5CHTO  H172 1784   4.952   1.786   2.656  0.2526 -0.5278 -0.0323
    5CHTO  H173 1785   4.796   1.737   2.584 -0.7948  1.1579 -0.3792
    5CHTO   C94 1786   4.678   1.995   2.620 -0.7423  0.2749 -0.2951
    5CHTO  H181 1787   4.734   2.026   2.532  0.7017  1.0608  0.8669
    5CHTO   O61 1788   4.637   2.111   2.692  0.2443  0.3352  0.2268
    5CHTO   C95 1789   4.739   2.203   2.737  0.1930 -0.1282  0.4184
    5CHTO  H182 1790   4.755   2.270   2.653 -1.1622  1.6423  1.5458
    5CHTO  C106 1791   4.682   2.285   2.848  0.3918 -0.1509  0.1744
    5CHTO   O69 1792   4.735   2.418   2.842 -0.1136  0.2392 -0.2734
    5CHTO  H169 1793   4.706   2.468   2.915 -0.3066  0.1516 -0.2885
    5CHTO   O63 1794   4.531   1.906   2.578 -0.2924  0.6731  0.2922
    5CHTO   C96 1795   4.498   1.898   2.430 -0.5165 -0.7180  0.1263
    5CHTO  H183 1796   4.586   1.927   2.373 -0.1821 -0.2231  0.8855
    5CHTO   C98 1797   4.380   1.992   2.392  0.0935 -0.1317  0.6726
    5CHTO  H185 1798   4.294   1.967   2.456 -1.2476 -0.9889 -1.3693
    5CHTO   O67 1799   4.415   2.131   2.420  0.2188  0.3743 -0.4903
    5CHTO  H167 1800   4.494   2.154   2.375 -0.2324  0.1923 -1.3797
    5CHTO  C102 1801   4.332   1.966   2.240 -0.1635 -0.0508  1.1613
    5CHTO  H189 1802   4.397   2.027   2.175  0.6225 -2.3641 -0.2705
    5CHTO   N18 1803   4.191   2.023   2.219 -0.1246  0.2843  0.4051
    5CHTO  H176 1804   4.186   2.131   2.209  1.5263  0.4071  0.6556
    5CHTO  H177 1805   4.127   1.968   2.152 -0.8745 -1.1701  2.2488
    5CHTO  C105 1806   4.333   1.815   2.204 -1.1229  0.1260 -0.5036
    5CHTO  H192 1807   4.241   1.766   2.236  0.1469 -0.8817  1.6721
    5CHTO   O65 1808   4.442   1.738   2.255  0.0167  0.2972  0.0754
    5CHTO  C100 1809   4.459   1.747   2.396 -0.1489 -0.0836  0.0635
    5CHTO  H187 1810   4.364   1.715   2.442 -0.9233  0.2105 -1.2777
    5CHTO  C107 1811   4.560   1.643   2.428  0.5855 -0.0875 -0.0195
    5CHTO   O70 1812   4.678   1.640   2.344 -0.0255 -0.0454  0.0827
    5CHTO  H170 1813   4.741   1.693   2.391 -0.3094 -1.3416  1.9968
    5CHTO   O57 1814   4.342   1.822   2.040 -0.0833 -0.2892 -0.4622
    5CHTO   C85 1815   4.271   1.729   1.955  0.0387 -0.5198  0.2823
    5CHTO  H157 1816   4.164   1.722   1.982 -0.1782 -1.8395 -0.8413
    5CHTO   C83 1817   4.331   1.590   1.979 -0.3441  0.1661  0.2852
    5CHTO  H155 1818   4.300   1.559   2.078  0.4130  0.3966  0.5967
    5CHTO   O56 1819   4.475   1.600   1.970 -0.0471  0.2496  0.2120
    5CHTO  H135 1820   4.500   1.561   1.888 -0.6469  0.5656 -0.1162
    5CHTO   C81 1821   4.268   1.499   1.872 -0.0693 -0.5827  0.1430
    5CHTO  H153 1822   4.161   1.512   1.880  0.1108  0.8437  0.4484
    5CHTO   N14 1823   4.282   1.354   1.895 -0.4020 -0.1541  0.3313
    5CHTO  H141 1824   4.382   1.321   1.875 -0.5233 -0.2047 -0.2134
    5CHTO  H142 1825   4.217   1.299   1.830  2.0396 -1.9583 -0.6590
    5CHTO   C79 1826   4.307   1.543   1.721  0.6492 -0.5113  0.5396
    5CHTO  H151 1827   4.261   1.469   1.654  1.9251  0.6019 -1.6153
    5CHTO   O52 1828   4.248   1.678   1.704 -0.6486 -0.1234 -0.1566
    5CHTO   C86 1829   4.286   1.773   1.804  0.5211  0.6733  0.1442
    5CHTO  H158 1830   4.393   1.798   1.789  0.7452 -0.4454 -0.1574
    5CHTO   C90 1831   4.202   1.908   1.779 -0.1936  0.3638  0.5395
    5CHTO   O60 1832   4.063   1.891   1.783  0.2322  0.5764  0.7628
    5CHTO  H138 1833   4.022   1.902   1.699  2.4376 -2.1842 -0.7939
    5CHTO   O50 1834   4.448   1.532   1.705 -0.0906  0.1824  0.4488
    5CHTO   C73 1835   4.545   1.530   1.605  0.7802  0.5819 -0.3226
    5CHTO  H145 1836   4.499   1.539   1.505 -0.1381 -0.9773 -0.0459
    5CHTO   C74 1837   4.613   1.395   1.618  0.4900  0.2060  0.2018
    5CHTO  H146 1838   4.533   1.320   1.609 -0.6114  1.3929  0.0003
    5CHTO   O54 1839   4.706   1.377   1.511  0.8378  0.2920 -0.0722
    5CHTO  H133 1840   4.790   1.412   1.534  1.8702 -1.3575 -1.1419
    5CHTO   C75 1841   4.676   1.395   1.759 -1.0022  0.1076  0.2366
    5CHTO  H147 1842   4.600   1.410   1.837 -1.8713  1.1789 -0.8019
    5CHTO   N13 1843   4.726   1.259   1.792  0.1976 -0.3384 -0.3431
    5CHTO  H139 1844   4.820   1.246   1.741 -1.0926  0.3984 -2.9945
    5CHTO  H140 1845   4.732   1.253   1.899 -2.4275  0.7002 -0.0974
    5CHTO   C76 1846   4.779   1.520   1.778  0.1964  0.7296 -0.3753
    5CHTO  H148 1847   4.856   1.506   1.702 -0.6028 -0.3281 -1.0098
    5CHTO   O49 1848   4.710   1.645   1.751  0.2705  0.0091 -0.4818
    5CHTO   C77 1849   4.647   1.651   1.621  0.1433  0.4803  0.0509
    5CHTO  H149 1850   4.722   1.638   1.542 -2.7423 -2.3089 -2.3573
    5CHTO   C88 1851   4.589   1.787   1.592 -0.0027 -0.1514 -0.0573
    5CHTO   O58 1852   4.706   1.895   1.606 -0.5713 -0.1923  0.4708
    5CHTO  H136 1853   4.717   1.942   1.686  0.7154  0.3025  0.0157
    5CHTO   O51 1854   4.831   1.528   1.926 -0.3296 -0.2284 -0.4098
    5CHTO   C78 1855   4.958   1.621   1.923  0.3304 -0.1836 -1.1874
    5CHTO  H150 1856   4.975   1.675   1.827 -0.6726  0.7228 -0.8703
    5CHTO   C80 1857   5.086   1.540   1.959  0.3309 -0.1108 -0.1898
    5CHTO  H152 1858   5.061   1.487   2.054 -1.6838 -0.8445 -1.1119
    5CHTO   O55 1859   5.112   1.445   1.861  0.0448 -0.0024  0.0239
    5CHTO  H134 1860   5.051   1.410   1.799 -2.0176 -0.0227  2.0332
    5CHTO   C84 1861   5.211   1.634   1.982  0.0140  0.1685  1.0750
    5CHTO  H156 1862   5.234   1.691   1.892  0.3091  0.9194  1.6092
    5CHTO   N15 1863   5.335   1.570   2.013 -0.2602  1.0507 -0.1645
    5CHTO  H143 1864   5.361   1.546   2.114  0.9571 -0.0427 -0.7279
    5CHTO  H144 1865   5.416   1.611   1.956 -0.0255  0.5490 -0.1976
    5CHTO   C87 1866   5.169   1.747   2.083  0.3302  0.5307 -0.2457
    5CHTO  H159 1867   5.161   1.703   2.182  1.3949  0.5780 -0.1262
    5CHTO   O53 1868   5.045   1.826   2.037  0.4754 -0.0649 -0.4925
    5CHTO   C82 1869   4.937   1.732   2.028 -0.2814  0.2071 -0.4086
    5CHTO  H154 1870   4.932   1.687   2.127 -0.0340  1.3871  0.1459
    5CHTO   C89 1871   4.802   1.808   2.006 -0.0002  0.4843  0.3785
    5CHTO   O59 1872   4.739   1.859   2.124  0.4666 -0.8093 -0.0436
    5CHTO  H137 1873   4.800   1.906   2.178 -0.0908  2.1299 -1.8887
    5CHTO   O45 1874   5.291   1.883   2.086  0.2887  0.1680  0.6112
    5CHTO   C67 1875   5.368   1.899   2.202 -0.1561  0.4831  0.1608
    5CHTO  H124 1876   5.354   1.810   2.262  0.2832  0.7933  0.7312
    5CHTO   C65 1877   5.519   1.913   2.180 -0.9069  0.2681  0.1992
    5CHTO  H122 1878   5.518   1.882   2.075 -0.5672  2.0009 -0.3229
    5CHTO   O44 1879   5.597   1.823   2.258  0.4433 -0.0918 -0.5952
    5CHTO  H102 1880   5.575   1.734   2.237 -1.6797 -0.0344  1.2713
    5CHTO   C63 1881   5.567   2.063   2.188  0.1285 -0.2474 -0.1296
    5CHTO  H120 1882   5.505   2.122   2.121 -0.7088  1.7578  2.3170
    5CHTO   N11 1883   5.709   2.087   2.135 -0.5436  0.6992  0.0056
    5CHTO  H108 1884   5.731   2.191   2.119  1.1716  0.4831  0.8377
    5CHTO  H109 1885   5.716   2.029   2.045  0.0178  1.1093 -0.2244
    5CHTO   C61 1886   5.542   2.122   2.327 -0.4456  0.2599  0.0113
    5CHTO  H118 1887   5.528   2.231   2.325  0.5516  0.3771 -1.1301
    5CHTO   O40 1888   5.413   2.066   2.383  0.2134 -0.2522 -0.3889
    5CHTO   C68 1889   5.308   2.020   2.291  0.2441  1.0798  0.4646
    5CHTO  H125 1890   5.260   2.097   2.227 -1.2604  0.3484  0.6883
    5CHTO   C72 1891   5.198   1.967   2.381  0.3570 -0.4771  0.2119
    5CHTO   O48 1892   5.075   1.949   2.310  0.2647 -0.6643  0.0365
    5CHTO  H105 1893   5.004   1.968   2.370  1.1039  2.8063  0.0042
    5CHTO   O38 1894   5.645   2.091   2.422 -0.3119 -0.0406 -0.0726
    5CHTO   C55 1895   5.663   2.170   2.538 -0.1377  0.7479 -0.1031
    5CHTO  H112 1896   5.563   2.195   2.576 -1.0935 -1.0318 -1.3688
    5CHTO   C56 1897   5.759   2.286   2.530  0.6031  0.7751  0.3526
    5CHTO  H113 1898   5.845   2.254   2.469 -0.7664 -1.0628 -0.6776
    5CHTO   O42 1899   5.696   2.400   2.459 -0.3857  0.3437  0.1048
    5CHTO  H100 1900   5.754   2.472   2.446 -0.0486  0.1787  0.6785
    5CHTO   C57 1901   5.794   2.351   2.666 -0.5908 -0.2714 -0.5228
    5CHTO  H114 1902   5.705   2.408   2.693  0.1242  0.0373  1.2546
    5CHTO   N10 1903   5.907   2.445   2.664 -0.1894 -0.0156  0.6321
    5CHTO  H106 1904   5.882   2.504   2.751  0.3519  1.8436 -0.4374
    5CHTO  H107 1905   5.909   2.514   2.581  1.0492 -0.3310  0.3989
    5CHTO   C58 1906   5.815   2.247   2.783  0.4105 -0.1232  0.1391
    5CHTO  H115 1907   5.913   2.196   2.777  0.4535  0.2426 -2.5155
    5CHTO   O37 1908   5.711   2.143   2.777 -0.3792 -0.7189  0.0618
    5CHTO   C59 1909   5.696   2.066   2.654 -0.1811 -0.1920  0.0379
    5CHTO  H116 1910   5.780   2.005   2.620  0.3655  0.5954 -0.0389
    5CHTO   C70 1911   5.584   1.959   2.668  0.6731 -0.2910  0.2426
    5CHTO   O46 1912   5.630   1.870   2.771  0.1465  0.4578  0.9557
    5CHTO  H103 1913   5.579   1.881   2.850 -1.8711  0.4174 -0.3104
    5CHTO   O39 1914   5.795   2.322   2.932  0.1480 -0.4774  0.1929
    5CHTO   C60 1915   5.678   2.299   3.009 -0.0898 -0.1115 -0.5850
    5CHTO  H117 1916   5.601   2.261   2.941 -0.5513  0.0949 -0.1832
    5CHTO   C62 1917   5.705   2.185   3.121 -0.2394 -0.1885  0.1080
    5CHTO  H119 1918   5.728   2.095   3.061  0.1652 -0.3476  0.4995
    5CHTO   O43 1919   5.820   2.229   3.208 -0.0603  0.0570 -0.2254
    5CHTO  H101 1920   5.850   2.159   3.263 -1.2473  0.7267  1.3434
    5CHTO   C66 1921   5.573   2.158   3.209 -0.3382 -0.1383 -0.4124
    5CHTO  H123 1922   5.498   2.119   3.140  1.2551 -1.4413 -1.4401
    5CHTO   N12 1923   5.593   2.047   3.306  0.3246 -0.7259 -0.3299
    5CHTO  H110 1924   5.530   2.054   3.393 -1.9247 -1.2078 -1.8805
    5CHTO  H111 1925   5.697   2.043   3.334 -0.4356  0.4649  2.8646
    5CHTO   C69 1926   5.530   2.290   3.274  0.0968  0.5512 -0.1900
    5CHTO  H126 1927   5.604   2.327   3.348 -0.5996  0.0905  0.7534
    5CHTO   O41 1928   5.507   2.411   3.179 -0.3765 -0.3008 -0.1315
    5CHTO   C64 1929   5.625   2.429   3.069  0.5407 -0.5289 -0.1897
    5CHTO  H121 1930   5.713   2.474   3.120  0.6159  0.9368 -1.5850
    5CHTO   C71 1931   5.568   2.525   2.964 -0.6622 -0.0430  0.0702
    5CHTO   O47 1932   5.500   2.631   3.028 -0.0790  0.0289 -0.1295
    5CHTO  H104 1933   5.561   2.684   3.075 -0.1185  0.2379 -0.3139
    5CHTO   O34 1934   5.391   2.269   3.355 -0.0782  0.5502 -0.3897
    5CHTO   C49 1935   5.257   2.248   3.356  0.2873 -0.9125  0.6915
    5CHTO   H91 1936   5.239   2.141   3.348  0.7845 -0.9603  0.2397
    5CHTO   C47 1937   5.180   2.309   3.237 -0.2469  0.1932  0.1837
    5CHTO   H89 1938   5.077   2.271   3.252 -0.2635 -0.1963 -0.9061
    5CHTO   O33 1939   5.232   2.251   3.116 -0.0050 -0.5869  0.2282
    5CHTO   H70 1940   5.206   2.300   3.040 -0.7954 -1.4975 -0.0955
    5CHTO   C45 1941   5.190   2.468   3.249 -0.3550  0.7001 -0.2105
    5CHTO   H87 1942   5.297   2.493   3.259 -0.2605  0.1840  0.1400
    5CHTO    N8 1943   5.137   2.533   3.128 -0.3022  0.3650  0.3339
    5CHTO   H75 1944   5.211   2.598   3.084  2.0268 -1.4760  1.4129
    5CHTO   H76 1945   5.104   2.467   3.049 -1.8479  0.1033  1.1923
    5CHTO   C43 1946   5.111   2.506   3.383  0.5088 -1.0837  1.5233
    5CHTO   H85 1947   5.116   2.615   3.388  0.3984 -1.1304  2.7096
    5CHTO   O29 1948   5.157   2.445   3.505  0.6138 -0.4624 -0.0845
    5CHTO   C50 1949   5.190   2.304   3.486  0.6657 -0.2433 -0.0726
    5CHTO   H92 1950   5.265   2.278   3.562 -1.0777 -1.7799  1.1625
    5CHTO   C54 1951   5.079   2.216   3.542  0.3494 -0.0683  0.4429
    5CHTO   O36 1952   5.025   2.274   3.656  0.0244  0.2242  0.3214
    5CHTO   H72 1953   5.094   2.304   3.711  0.7479 -0.5286 -0.1649
    5CHTO   O27 1954   4.974   2.471   3.361  0.0535 -0.1067 -0.4154
    5CHTO   C37 1955   4.845   2.481   3.416 -0.2785 -0.4581 -0.2684
    5CHTO   H79 1956   4.832   2.429   3.512 -0.0040 -4.0500 -2.1081
    5CHTO   C38 1957   4.813   2.628   3.453 -0.6859 -0.3167 -0.2376
    5CHTO   H80 1958   4.832   2.692   3.366 -1.3116  0.8955  0.5031
    5CHTO   O31 1959   4.898   2.670   3.568  0.0920  0.1969 -0.3425
    5CHTO   H68 1960   4.975   2.710   3.533 -0.1696 -0.4762 -1.7442
    5CHTO   C39 1961   4.664   2.642   3.481 -0.1636 -0.0066  0.2014
    5CHTO   H81 1962   4.643   2.581   3.569  2.5202 -1.8608 -0.3766
    5CHTO    N7 1963   4.614   2.778   3.521  0.2489 -0.1175 -0.2857
    5CHTO   H73 1964   4.549   2.775   3.606  0.9138 -2.0932  0.1886
    5CHTO   H74 1965   4.563   2.823   3.437 -2.4182  0.4710  1.5751
    5CHTO   C40 1966   4.581   2.581   3.358  0.4342 -0.4671 -0.7593
    5CHTO   H82 1967   4.604   2.640   3.269 -0.5628  2.0742  0.6082
    5CHTO   O26 1968   4.614   2.446   3.345 -0.0822  0.0026 -0.5040
    5CHTO   C41 1969   4.749   2.426   3.304  0.7756 -0.5292  0.4699
    5CHTO   H83 1970   4.778   2.480   3.213  0.0514  1.4516  1.3713
    5CHTO   C52 1971   4.769   2.271   3.291  0.0271 -0.1263  0.4634
    5CHTO   O35 1972   4.688   2.216   3.188 -0.1968 -0.2440  0.4733
    5CHTO   H71 1973   4.598   2.224   3.212 -0.5754 -2.2241 -0.1614
    5CHTO   O28 1974   4.434   2.585   3.370  0.3299 -0.0669 -0.7183
    5CHTO   C42 1975   4.350   2.475   3.416 -0.2065  0.0378  0.0611
    5CHTO   H84 1976   4.251   2.521   3.419 -0.9198 -1.2685 -2.0202
    5CHTO   C44 1977   4.387   2.423   3.553  0.0688 -0.0076  0.2089
    5CHTO   H86 1978   4.491   2.390   3.553 -0.7705 -2.7672 -0.9675
    5CHTO   O32 1979   4.360   2.530   3.637 -0.0392 -0.2203  0.4323
    5CHTO   H69 1980   4.432   2.590   3.637 -2.1301  2.4115  0.8811
    5CHTO   C48 1981   4.296   2.307   3.600 -0.1178  0.0711  0.1607
    5CHTO   H90 1982   4.199   2.355   3.616  0.1801  0.7486 -0.0595
    5CHTO    N9 1983   4.337   2.246   3.733  0.3264 -0.0497  0.1335
    5CHTO   H77 1984   4.256   2.202   3.789 -2.8296  2.5589 -2.2437
    5CHTO   H78 1985   4.394   2.317   3.791 -0.1958 -1.1228  1.9831
    5CHTO   C51 1986   4.300   2.207   3.481  1.0470  0.1338  0.6509
    5CHTO   H93 1987   4.406   2.186   3.471  0.9631  0.6028 -1.5444
    5CHTO   O30 1988   4.250   2.265   3.365 -0.7572 -0.0960  0.6609
    5CHTO   C46 1989   4.331   2.365   3.308  0.1629 -0.2043 -0.8181
    5CHTO   H88 1990   4.428   2.325   3.278  2.2736  2.8385  1.6608
    5CHTO   C53 1991   4.264   2.422   3.174  0.1128  0.0220 -1.1044
    5CHTO   O72 1992   4.340   2.514   3.096  0.0408  0.1409 -0.3966
    5CHTO  H199 1993   4.304   2.523   3.010 -1.8275  0.6735  0.4221
    5CHTO   O22 1994   4.219   2.086   3.500 -0.4408 -0.7060  0.4314
    5CHTO   C31 1995   4.283   1.956   3.482 -0.6279 -0.2022  0.2787
    5CHTO   H59 1996   4.200   1.882   3.484 -0.3462 -0.5285 -0.1102
    5CHTO   C29 1997   4.362   1.937   3.350  0.3881 -0.0327 -0.0797
    5CHTO   H57 1998   4.417   2.029   3.322 -1.5608  1.0848 -0.3748
    5CHTO   O21 1999   4.259   1.935   3.248  0.1757 -0.3722  0.1423
    5CHTO   H37 2000   4.229   2.023   3.239 -0.7966 -0.9119 -2.1902
    5CHTO   C27 2001   4.457   1.814   3.355  0.6991  0.1451 -0.3390
    5CHTO   H55 2002   4.395   1.723   3.350 -3.3015  2.6476  1.5722
    5CHTO    N5 2003   4.539   1.821   3.233  0.0855  0.6850  0.3199
    5CHTO   H43 2004   4.491   1.811   3.137 -1.8038  3.8603  0.8540
    5CHTO   H44 2005   4.628   1.759   3.234  0.8025  1.6183 -2.0817
    5CHTO   C25 2006   4.538   1.812   3.481 -0.4465 -0.3658  0.1894
    5CHTO   H53 2007   4.605   1.898   3.495 -1.1485  0.2768 -0.3876
    5CHTO   O17 2008   4.446   1.801   3.587 -0.5778  0.6902  0.4313
    5CHTO   C32 2009   4.365   1.918   3.606  0.0300 -0.1099  0.5854
    5CHTO   H60 2010   4.435   1.994   3.640  0.3632 -0.1039 -0.1047
    5CHTO   C36 2011   4.272   1.884   3.721 -0.1571 -0.5356  0.3115
    5CHTO   O25 2012   4.347   1.896   3.840 -0.1501  0.1855  0.0921
    5CHTO   H40 2013   4.392   1.978   3.834 -2.1975  1.2647 -1.6371
    5CHTO   O15 2014   4.641   1.665   3.472 -0.2498 -0.1858 -0.2730
    5CHTO   C19 2015   4.769   1.662   3.547  0.8193 -0.0530 -0.1618
    5CHTO   H47 2016   4.758   1.751   3.610 -2.2434 -0.5235  0.0360
    5CHTO   C20 2017   4.798   1.533   3.627 -0.0246  0.1788  0.1580
    5CHTO   H48 2018   4.809   1.444   3.564  1.1756 -2.0264  3.3629
    5CHTO   O19 2019   4.697   1.523   3.721  0.1006  0.3517 -0.4275
    5CHTO   H35 2020   4.734   1.514   3.807  0.5189 -1.8877 -0.7858
    5CHTO   C21 2021   4.938   1.541   3.709 -0.3785  0.0521 -0.4060
    5CHTO   H49 2022   4.927   1.617   3.785 -0.6319  1.5577 -1.9151
    5CHTO    N4 2023   4.978   1.417   3.781 -0.1849  0.4350  0.2517
    5CHTO   H41 2024   4.899   1.395   3.851  0.6831 -1.2843  0.7060
    5CHTO   H42 2025   4.978   1.341   3.705 -2.1124 -1.3047  1.9146
    5CHTO   C22 2026   5.050   1.586   3.607 -0.5729  0.7193  0.4803
    5CHTO   H50 2027   5.069   1.507   3.535  4.7686  1.9863  0.2605
    5CHTO   O14 2028   5.000   1.703   3.539 -0.3159  0.3157 -0.6943
    5CHTO   C23 2029   4.887   1.694   3.455  0.3365  0.1298  0.0987
    5CHTO   H51 2030   4.907   1.611   3.386  2.0479  0.7504 -0.1674
    5CHTO   C34 2031   4.873   1.821   3.371 -0.4600 -0.7713  0.1368
    5CHTO   O23 2032   4.882   1.946   3.448 -0.3757 -0.7171 -0.2857
    5CHTO   H38 2033   4.845   2.013   3.394 -1.0094 -0.3101  0.6186
    5CHTO   O16 2034   5.172   1.617   3.668  0.0499 -0.6530 -0.3605
    5CHTO   C24 2035   5.304   1.575   3.594 -0.0052  0.1905  0.3899
    5CHTO   H52 2036   5.284   1.555   3.488 -2.1037 -0.6341  0.9255
    5CHTO   C26 2037   5.390   1.473   3.666 -0.6028  1.0637 -0.9087
    5CHTO   H54 2038   5.414   1.508   3.768 -1.0231 -0.6131 -0.2199
    5CHTO   O20 2039   5.315   1.356   3.684  0.2692 -0.2403 -0.1301
    5CHTO   H36 2040   5.372   1.284   3.703  1.4112  1.0290  1.4440
    5CHTO   C30 2041   5.524   1.450   3.587 -0.1346 -0.1147 -0.5065
    5CHTO   H58 2042   5.498   1.413   3.487 -0.1960  1.4789 -1.0916
    5CHTO    N6 2043   5.621   1.356   3.654 -0.0618 -0.5504 -0.6582
    5CHTO   H45 2044   5.582   1.322   3.749  3.1769 -2.2658  0.1240
    5CHTO   H46 2045   5.634   1.271   3.588  1.9081 -1.7994  1.2894
    5CHTO   C33 2046   5.595   1.588   3.567  0.6676  0.5715  0.0904
    5CHTO   H61 2047   5.633   1.625   3.663 -2.7937  1.5500  1.1300
    5CHTO   O18 2048   5.500   1.685   3.521 -0.4125  0.1380 -0.2913
    5CHTO   C28 2049   5.382   1.706   3.598 -0.6027  0.0152  0.4920
    5CHTO   H56 2050   5.405   1.731   3.702  0.2566 -0.0539  0.3250
    5CHTO   C35 2051   5.301   1.823   3.535 -0.1185  0.0150  0.1445
    5CHTO   O24 2052   5.348   1.960   3.531  0.5557  0.4932  0.2126
    5CHTO   H39 2053   5.436   1.961   3.500  0.3080 -0.1076 -0.5236
    5CHTO    O9 2054   5.714   1.580   3.485 -0.1246  0.2287  0.3397
    5CHTO   C13 2055   5.687   1.560   3.343  0.2981  0.5173 -0.5511
    5CHTO   H26 2056   5.578   1.552   3.323  0.2801  0.5142 -0.4517
    5CHTO   C11 2057   5.766   1.433   3.285 -0.1331 -0.2790 -0.2422
    5CHTO   H24 2058   5.736   1.343   3.341  0.2148 -0.5155 -0.4389
    5CHTO    O8 2059   5.907   1.453   3.313  0.6359 -0.0247  0.2581
    5CHTO    H3 2060   5.952   1.530   3.286  0.9650 -0.1703  0.3798
    5CHTO    C9 2061   5.736   1.411   3.134 -0.0570 -0.1328  0.3945
    5CHTO   H22 2062   5.628   1.394   3.125 -0.1655 -0.7091  2.4625
    5CHTO    N2 2063   5.787   1.280   3.077 -0.9702  0.3360 -0.1337
    5CHTO   H10 2064   5.713   1.205   3.051  0.1710 -0.4048 -1.3197
    5CHTO   H11 2065   5.866   1.307   3.009 -1.7162 -1.0811 -1.5787
    5CHTO    C7 2066   5.771   1.541   3.059 -0.0115  0.4655 -0.0263
    5CHTO   H20 2067   5.717   1.525   2.963 -1.6337 -1.9212  1.2360
    5CHTO    O4 2068   5.716   1.662   3.118  0.3964 -0.0394  0.0580
    5CHTO   C14 2069   5.723   1.690   3.254 -0.0210 -0.1153 -0.1482
    5CHTO   H27 2070   5.649   1.768   3.284 -1.1384 -0.8283 -1.0295
    5CHTO   C18 2071   5.863   1.743   3.294  0.3757 -0.0664  0.0892
    5CHTO   O13 2072   5.905   1.869   3.233 -0.2501  0.3562 -0.6415
    5CHTO    H7 2073   5.857   1.936   3.278  2.3789  0.7099  1.7455
    5CHTO    O2 2074   5.934   1.566   3.034 -0.1817  0.2696 -0.3851
    5CHTO    C1 2075   5.960   1.586   2.893  0.5083 -0.0786  0.3580
    5CHTO   H14 2076   5.871   1.601   2.828  3.6342  1.7010 -3.6714
    5CHTO    C2 2077   6.054   1.476   2.831 -0.9255 -0.4699  0.7326
    5CHTO   H15 2078   6.142   1.475   2.896  0.4214  3.0722 -0.9394
    5CHTO    O6 2079   6.001   1.346   2.821 -0.6042  0.6301 -0.3724
    5CHTO    H1 2080   6.063   1.287   2.784 -1.3687  0.2102 -1.0040
    5CHTO    C3 2081   6.107   1.530   2.686 -0.5966 -1.0345 -0.1435
    5CHTO   H16 2082   6.028   1.536   2.610  1.6588  0.0300 -2.4807
    5CHTO    N1 2083   6.214   1.436   2.632  0.4570  0.1685  0.2741
    5CHTO    H8 2084   6.291   1.436   2.707  0.8168 -1.1773 -0.0738
    5CHTO    H9 2085   6.236   1.463   2.530  1.3870 -0.5056  0.2915
    5CHTO    C4 2086   6.164   1.676   2.703  0.7207 -0.1549  0.2568
    5CHTO   H17 2087   6.242   1.675   2.779  2.1996  1.6510 -1.1804
    5CHTO    O1 2088   6.051   1.757   2.738  0.2908 -0.3609  0.0253
    5CHTO    C5 2089   6.025   1.730   2.875  1.4318  0.5568 -0.1182
    5CHTO   H18 2090   6.112   1.744   2.939  0.1442  2.9219  1.1641
    5CHTO   C16 2091   5.918   1.836   2.913  0.0796 -0.1991  0.3135
    5CHTO   O11 2092   5.960   1.974   2.933  0.2164 -0.1438 -0.3286
    5CHTO    H5 2093   5.995   2.037   2.874  0.2490 -0.8107 -1.0315
    5CHTO    O3 2094   6.213   1.737   2.582  0.8542  0.5217  0.0473
    5CHTO    C6 2095   6.316   1.832   2.618  0.2117 -0.0104  0.0010
    5CHTO   H19 2096   6.323   1.868   2.721 -1.4860 -0.6011  0.3264
    5CHTO    C8 2097   6.460   1.778   2.588 -0.2968 -0.7413 -0.1198
    5CHTO   H21 2098   6.463   1.738   2.487  0.1123 -1.2029  0.0685
    5CHTO    O7 2099   6.494   1.663   2.669 -0.0986  0.1574  0.2861
    5CHTO    H2 2100   6.587   1.667   2.685 -0.3335 -0.9599  2.1074
    5CHTO   C12 2101   6.566   1.895   2.598 -0.2911  0.2558  0.0627
    5CHTO   H25 2102   6.584   1.917   2.705  0.3090  0.2948 -0.0457
    5CHTO    N3 2103   6.699   1.859   2.540  0.1417  0.3350  0.1347
    5CHTO   H12 2104   6.693   1.856   2.432 -0.2268 -0.3661  0.1748
    5CHTO   H13 2105   6.765   1.941   2.566  0.2387  0.6169 -0.9993
    5CHTO   C15 2106   6.520   2.022   2.529  0.1715  0.4653  0.5839
    5CHTO   H28 2107   6.521   2.006   2.421 -1.8427  1.9846  0.3176
    5CHTO   O10 2108   6.600   2.151   2.563  0.0782  0.5351 -0.5063
    5CHTO    H4 2109   6.681   2.121   2.600 -0.9579 -1.3605  0.2745
    5CHTO    O5 2110   6.389   2.064   2.561  0.2229 -0.3542  0.4753
    5CHTO   C10 2111   6.293   1.958   2.530 -0.2202  0.4234 -0.1159
    5CHTO   H23 2112   6.299   1.924   2.426 -0.3227  0.9318 -0.2897
    5CHTO   C17 2113   6.159   2.023   2.556 -0.5684  0.3482 -0.0691
    5CHTO   O12 2114   6.046   1.951   2.508  0.4341 -0.3977 -1.0983
    5CHTO    H6 2115   6.053   1.859   2.523  3.2653 -0.0352  0.0885
    6CHTO  H203 2116   3.616   3.823   0.367 -2.0204  1.1538  2.2504
    6CHTO   O82 2117   3.684   3.877   0.403  0.0771 -0.2362  0.4821
    6CHTO  C123 2118   3.805   3.803   0.428  0.1361 -0.2282 -1.1425
    6CHTO  H227 2119   3.819   3.734   0.343 -0.1774 -0.7001 -0.8128
    6CHTO   O77 2120   3.902   3.908   0.428 -0.4468  0.0039 -0.2607
    6CHTO  C118 2121   4.035   3.869   0.460 -0.1388 -0.1986 -0.5662
    6CHTO  H222 2122   4.062   3.793   0.385 -1.9691 -1.6894  0.2603
    6CHTO  C125 2123   4.127   3.997   0.448 -0.1207  0.1252 -0.2151
    6CHTO   O84 2124   4.116   4.064   0.318  0.1889 -0.3933 -0.7187
    6CHTO  H205 2125   4.190   4.119   0.307  0.3195 -0.1565  1.2397
    6CHTO  C114 2126   4.050   3.814   0.602 -0.1617 -0.7836  0.9600
    6CHTO  H218 2127   4.007   3.883   0.675 -1.9468 -0.1870 -0.6215
    6CHTO  C116 2128   3.948   3.691   0.626 -0.0446  0.3009 -0.0008
    6CHTO  H220 2129   3.986   3.597   0.582 -2.3724 -1.0990  0.9250
    6CHTO   O79 2130   3.954   3.662   0.770 -0.3668  0.4685 -0.1233
    6CHTO  H201 2131   4.041   3.663   0.805  1.1500  2.8019 -3.6020
    6CHTO  C120 2132   3.802   3.734   0.573  0.0837 -0.2294 -0.5345
    6CHTO  H224 2133   3.757   3.796   0.654 -1.0006 -0.3017 -1.0792
    6CHTO   N21 2134   3.707   3.621   0.563  0.0021 -0.1260 -0.4871
    6CHTO  H211 2135   3.762   3.535   0.528  0.8959  0.0501  0.4817
    6CHTO  H212 2136   3.658   3.592   0.655 -1.7431  0.7423 -1.1158
    6CHTO   O75 2137   4.194   3.796   0.621  0.4595  0.1932 -0.1259
    6CHTO  C112 2138   4.249   3.851   0.774 -0.0915 -0.2514  0.3443
    6CHTO  H216 2139   4.188   3.820   0.860 -0.2472  0.0167  0.3321
    6CHTO   O73 2140   4.257   4.000   0.766  0.4253 -0.6383 -0.9113
    6CHTO  C113 2141   4.290   4.052   0.898 -0.2457 -0.1101 -0.3836
    6CHTO  H217 2142   4.209   4.018   0.967  0.2400  0.3954  0.4435
    6CHTO  C124 2143   4.275   4.209   0.903 -0.0929 -0.3612 -0.7307
    6CHTO   O83 2144   4.142   4.242   0.875 -0.6401  0.1523 -0.6034
    6CHTO  H204 2145   4.116   4.327   0.906  0.4270  0.1001  0.4688
    6CHTO  C109 2146   4.431   3.994   0.952 -0.5432 -0.6256 -0.4191
    6CHTO  H213 2147   4.514   4.044   0.899 -0.1897 -1.6711 -0.8769
    6CHTO  C110 2148   4.446   3.840   0.941  0.3178  0.2909 -0.0925
    6CHTO  H214 2149   4.381   3.794   1.015  0.5533  1.5744  0.9346
    6CHTO   O78 2150   4.586   3.806   0.968 -0.3529 -0.1875 -0.1898
    6CHTO  H200 2151   4.603   3.716   0.987  1.6307  0.5094  1.6464
    6CHTO  C111 2152   4.395   3.798   0.801 -0.6576 -0.6411  0.4249
    6CHTO  H215 2153   4.465   3.843   0.729 -0.2678 -0.8805  0.6566
    6CHTO   N19 2154   4.397   3.651   0.783  0.1168 -0.1453 -0.2943
    6CHTO  H207 2155   4.378   3.617   0.682 -0.5362 -2.5934  0.6059
    6CHTO  H208 2156   4.330   3.610   0.857  0.9409 -1.0452 -0.0310
    6CHTO   O74 2157   4.448   4.024   1.090 -0.0029  0.2733 -0.2621
    6CHTO  C115 2158   4.594   4.077   1.122  0.0474  0.0051 -0.0612
    6CHTO  H219 2159   4.665   4.026   1.056 -2.4314 -2.3034 -1.0327
    6CHTO   O76 2160   4.609   4.223   1.087 -0.3985 -0.9545 -0.0961
    6CHTO  C122 2161   4.520   4.306   1.166  0.0656  0.0116  0.1330
    6CHTO  H226 2162   4.418   4.285   1.135 -0.1894 -0.4109  1.2397
    6CHTO  C126 2163   4.546   4.452   1.128  0.0971 -0.0737  0.4760
    6CHTO   O85 2164   4.549   4.473   0.994  0.3796 -0.4217 -0.2599
    6CHTO  H206 2165   4.552   4.564   0.973 -0.6827 -0.5137 -0.8268
    6CHTO  C121 2166   4.523   4.285   1.322 -0.6764 -0.5964 -0.1512
    6CHTO  H225 2167   4.547   4.382   1.370 -1.1709 -1.1026  1.1433
    6CHTO   O81 2168   4.388   4.244   1.351  0.0524 -0.1488 -0.0559
    6CHTO  H202 2169   4.367   4.224   1.440  2.4187 -1.4676  0.2643
    6CHTO  C119 2170   4.630   4.179   1.367  0.0009 -0.0982  0.2454
    6CHTO  H223 2171   4.730   4.224   1.366  0.9048 -1.9600  3.3182
    6CHTO  C117 2172   4.631   4.047   1.276  0.2284  0.1758  0.2915
    6CHTO  H221 2173   4.553   3.977   1.304 -0.2749 -0.0735 -1.6785
    6CHTO   N20 2174   4.763   3.974   1.280 -0.5619  0.1950  0.4700
    6CHTO  H209 2175   4.831   4.034   1.221  0.0341  0.9395  1.9073
    6CHTO  H210 2176   4.795   3.972   1.383 -2.0629  0.9364  0.9540
    6CHTO   O80 2177   4.611   4.162   1.533  0.0244 -0.2489  0.2221
    6CHTO  C103 2178   4.723   4.127   1.608 -0.2710 -1.1802  0.6714
    6CHTO  H190 2179   4.779   4.041   1.572  1.1953  0.3108 -0.6965
    6CHTO  C101 2180   4.833   4.240   1.638 -0.5108  0.1013  0.1444
    6CHTO  H188 2181   4.774   4.332   1.635  1.2541  1.2864  1.3071
    6CHTO   O68 2182   4.943   4.257   1.523 -0.4429  0.0529  0.3408
    6CHTO  H168 2183   4.934   4.346   1.496 -0.6051 -0.5795 -1.7760
    6CHTO   C99 2184   4.910   4.238   1.769  0.3811 -0.4558 -0.0652
    6CHTO  H186 2185   4.982   4.154   1.772 -1.0727 -1.7414 -0.4412
    6CHTO   N17 2186   4.996   4.360   1.789  0.2882  0.2953  0.0131
    6CHTO  H174 2187   5.081   4.324   1.847 -0.7552 -2.3815 -0.0492
    6CHTO  H175 2188   4.933   4.426   1.845 -0.7556 -0.0239 -0.7830
    6CHTO   C97 2189   4.807   4.216   1.882  0.2390 -0.6748  0.0445
    6CHTO  H184 2190   4.747   4.309   1.889  1.4870  0.1563 -0.1539
    6CHTO   O64 2191   4.730   4.095   1.865 -0.1893 -0.2730 -0.2025
    6CHTO  C104 2192   4.645   4.085   1.750 -0.0187 -0.1719  0.2641
    6CHTO  H191 2193   4.557   4.149   1.757  0.5711  0.6185  0.5335
    6CHTO  C108 2194   4.597   3.941   1.744 -0.5709 -0.5725  0.3084
    6CHTO   O71 2195   4.489   3.933   1.655 -0.4457  0.9635  0.2617
    6CHTO  H171 2196   4.506   3.960   1.567  0.3809  0.1124  0.1556
    6CHTO   O62 2197   4.872   4.189   2.011 -0.4012  0.0349 -0.0285
    6CHTO   C91 2198   4.827   4.264   2.121 -0.1396 -0.3916 -0.3586
    6CHTO  H178 2199   4.866   4.365   2.120  0.6670 -0.6961  0.0938
    6CHTO   C92 2200   4.899   4.196   2.237 -0.5424  0.4462 -0.5313
    6CHTO  H179 2201   5.006   4.194   2.208 -0.1273  0.9045  0.9629
    6CHTO   O66 2202   4.892   4.280   2.354 -0.5061 -0.1946  0.3845
    6CHTO  H166 2203   4.815   4.256   2.402 -1.7119  0.3932 -1.1716
    6CHTO   C93 2204   4.846   4.046   2.264 -0.4472 -0.3402 -0.2210
    6CHTO  H180 2205   4.844   4.025   2.371  0.2367  0.3829 -0.0620
    6CHTO   N16 2206   4.944   3.944   2.210  0.3322 -0.1991 -0.1251
    6CHTO  H172 2207   4.916   3.900   2.116 -0.7777  0.1164  0.0522
    6CHTO  H173 2208   5.049   3.964   2.226  0.5861 -1.4248 -0.2534
    6CHTO   C94 2209   4.697   4.024   2.206 -0.1851  0.0282  0.2357
    6CHTO  H181 2210   4.700   3.992   2.102  0.9474 -1.8633  0.8384
    6CHTO   O61 2211   4.625   4.152   2.222 -0.0719 -0.5115 -0.0295
    6CHTO   C95 2212   4.666   4.261   2.140 -0.1170 -0.4837  0.1248
    6CHTO  H182 2213   4.626   4.240   2.041  0.8884  0.4073 -0.4923
    6CHTO  C106 2214   4.604   4.395   2.193  0.2476  0.2377 -0.0541
    6CHTO   O69 2215   4.631   4.504   2.109  0.0032 -0.2424 -0.4533
    6CHTO  H169 2216   4.560   4.563   2.122 -0.4820 -0.8033 -0.5372
    6CHTO   O63 2217   4.616   3.914   2.288  0.2045 -0.2198 -0.1292
    6CHTO   C96 2218   4.506   3.844   2.200  0.6132  0.1976  0.0311
    6CHTO  H183 2219   4.501   3.886   2.099  0.3715  0.3134  0.0905
    6CHTO   C98 2220   4.368   3.847   2.272 -0.1259  0.0596  0.2254
    6CHTO  H185 2221   4.382   3.797   2.369 -0.3834 -2.1866 -0.8496
    6CHTO   O67 2222   4.322   3.982   2.291  0.3355  0.5463  0.0994
    6CHTO  H167 2223   4.394   4.026   2.334  0.3220  0.7695 -0.1081
    6CHTO  C102 2224   4.256   3.768   2.183 -0.6916  0.6186 -1.0496
    6CHTO  H189 2225   4.206   3.844   2.122 -2.4850  0.3603  0.0536
    6CHTO   N18 2226   4.148   3.708   2.270 -0.7949 -0.4606  0.4177
    6CHTO  H176 2227   4.181   3.717   2.372  2.2984 -0.8431 -0.4895
    6CHTO  H177 2228   4.052   3.756   2.260 -0.2510  0.5069 -0.3248
    6CHTO  C105 2229   4.310   3.657   2.087  0.2511 -0.4033 -0.4179
    6CHTO  H192 2230   4.245   3.571   2.090  0.0907 -0.3383 -1.7637
    6CHTO   O65 2231   4.439   3.611   2.128  0.6791  0.3056 -0.2441
    6CHTO  C100 2232   4.541   3.690   2.189  0.3234 -0.6439  0.0851
    6CHTO  H187 2233   4.550   3.645   2.289 -0.0531  0.8292  0.7989
    6CHTO  C107 2234   4.672   3.647   2.110  0.3257 -0.8744 -0.0610
    6CHTO   O70 2235   4.683   3.694   1.976 -0.4499  0.5165  0.0997
    6CHTO  H170 2236   4.643   3.643   1.908 -0.9550  1.6991 -0.5043
    6CHTO   O57 2237   4.311   3.713   1.943 -0.0611 -0.0139  0.0590
    6CHTO   C85 2238   4.186   3.725   1.867  0.7641  0.3054  0.0220
    6CHTO  H157 2239   4.110   3.754   1.943 -0.7415 -1.8744 -0.6115
    6CHTO   C83 2240   4.150   3.583   1.806 -0.2319  0.3549  0.2049
    6CHTO  H155 2241   4.141   3.516   1.892  1.2677  0.8927  0.8031
    6CHTO   O56 2242   4.268   3.533   1.739 -0.3181  0.1702  0.0864
    6CHTO  H135 2243   4.284   3.443   1.764 -1.1658  0.0302  0.1232
    6CHTO   C81 2244   4.018   3.593   1.727  0.5575 -0.0667  0.5228
    6CHTO  H153 2245   3.941   3.628   1.796 -0.2200 -1.5649  0.4189
    6CHTO   N14 2246   3.962   3.455   1.694  0.4661  0.5213 -0.1554
    6CHTO  H141 2247   3.906   3.450   1.603  0.5023  0.7816 -0.1919
    6CHTO  H142 2248   3.896   3.425   1.773  2.3036 -4.7903 -0.4088
    6CHTO   C79 2249   4.032   3.691   1.609  0.3617 -0.3151  0.4525
    6CHTO  H151 2250   3.934   3.696   1.561  1.3093  2.7235 -1.3115
    6CHTO   O52 2251   4.069   3.824   1.652 -0.6363  0.0699  0.4373
    6CHTO   C86 2252   4.186   3.825   1.743  0.2075  0.1326  0.0282
    6CHTO  H158 2253   4.273   3.810   1.676 -0.9383  0.6314 -1.5856
    6CHTO   C90 2254   4.206   3.973   1.790  0.2035  0.3255  0.2406
    6CHTO   O60 2255   4.318   3.985   1.889 -0.3821  1.0584  0.3647
    6CHTO  H138 2256   4.284   3.959   1.972  1.2229 -3.1827 -0.1974
    6CHTO   O50 2257   4.122   3.648   1.508 -0.4344  0.1279 -0.1449
    6CHTO   C73 2258   4.124   3.653   1.362 -0.1704 -0.6859  0.5756
    6CHTO  H145 2259   4.032   3.704   1.330  0.5773  1.6904  2.0633
    6CHTO   C74 2260   4.115   3.514   1.297 -0.4721 -0.4640 -0.3341
    6CHTO  H146 2261   4.030   3.460   1.341 -1.0015  0.3506 -0.3611
    6CHTO   O54 2262   4.088   3.530   1.158 -0.0046  0.4469 -0.0803
    6CHTO  H133 2263   4.002   3.504   1.133  0.0200 -1.5108  1.7359
    6CHTO   C75 2264   4.246   3.435   1.318 -0.4489  0.2842 -0.2015
    6CHTO  H147 2265   4.260   3.434   1.427  2.2739 -1.7658 -0.5145
    6CHTO   N13 2266   4.248   3.292   1.279  0.3144 -0.1607 -0.0299
    6CHTO  H139 2267   4.236   3.275   1.173 -0.8559 -0.2337  0.1045
    6CHTO  H140 2268   4.319   3.228   1.330  0.6168  0.7188  0.6728
    6CHTO   C76 2269   4.368   3.528   1.269 -0.3643  0.3808  0.2316
    6CHTO  H148 2270   4.372   3.535   1.160  1.0144  2.7853  0.4006
    6CHTO   O49 2271   4.359   3.661   1.327  0.9342 -0.0352  0.1732
    6CHTO   C77 2272   4.242   3.732   1.307  0.9110 -0.5632  0.5445
    6CHTO  H149 2273   4.230   3.743   1.200 -2.0969 -0.3146  0.8492
    6CHTO   C88 2274   4.254   3.873   1.372 -0.0810  0.2127  0.1927
    6CHTO   O58 2275   4.183   3.957   1.312  0.4933  0.3578 -0.5652
    6CHTO  H136 2276   4.236   4.004   1.250  2.3224 -1.5126 -0.4752
    6CHTO   O51 2277   4.519   3.477   1.325 -0.0782  0.3520 -0.7045
    6CHTO   C78 2278   4.634   3.548   1.275 -0.0649  0.2254 -0.3383
    6CHTO  H150 2279   4.613   3.656   1.261  0.4161  0.3125 -0.3895
    6CHTO   C80 2280   4.686   3.494   1.141 -0.7985 -0.1744 -0.0048
    6CHTO  H152 2281   4.726   3.391   1.157  0.2370  0.6751  3.1614
    6CHTO   O55 2282   4.582   3.505   1.038  0.1431 -0.8658 -0.8529
    6CHTO  H134 2283   4.502   3.455   1.046 -1.1274  1.1079 -1.0353
    6CHTO   C84 2284   4.816   3.576   1.098  0.1382 -0.5273  0.4926
    6CHTO  H156 2285   4.785   3.679   1.079  1.4729 -0.5200 -1.8176
    6CHTO   N15 2286   4.876   3.536   0.966 -0.1591 -0.1753 -0.0623
    6CHTO  H143 2287   4.828   3.445   0.935 -1.2143 -0.5432  2.5291
    6CHTO  H144 2288   4.981   3.521   0.982  0.0790  1.7735  0.3450
    6CHTO   C87 2289   4.916   3.596   1.216  0.4314 -0.4095  0.1014
    6CHTO  H159 2290   4.966   3.500   1.228 -0.0309 -0.6383  0.1791
    6CHTO   O53 2291   4.848   3.640   1.350  0.3423  0.4724 -0.4246
    6CHTO   C82 2292   4.742   3.550   1.388  0.5588  0.0810 -0.1317
    6CHTO  H154 2293   4.785   3.450   1.400  0.9477  0.4737  1.9503
    6CHTO   C89 2294   4.685   3.594   1.520 -0.1191 -0.3724 -0.3210
    6CHTO   O59 2295   4.613   3.717   1.500  0.2776 -0.3417  0.2740
    6CHTO  H137 2296   4.604   3.760   1.583 -0.1639 -1.8899  1.0562
    6CHTO   O45 2297   5.010   3.701   1.184  0.0951  0.1293  0.0526
    6CHTO   C67 2298   5.153   3.679   1.194 -0.5836 -0.6657  0.3044
    6CHTO  H124 2299   5.174   3.572   1.187  1.6417 -0.4372  2.4452
    6CHTO   C65 2300   5.236   3.766   1.087  0.4250  0.5331  0.5172
    6CHTO  H122 2301   5.181   3.739   0.996  0.2299 -0.8520  1.0322
    6CHTO   O44 2302   5.370   3.718   1.075 -0.2452 -0.3913 -0.0459
    6CHTO  H102 2303   5.427   3.744   1.144  2.2574 -0.0889 -2.1623
    6CHTO   C63 2304   5.213   3.915   1.109  0.4448 -0.7325  0.4423
    6CHTO  H120 2305   5.107   3.939   1.093  0.0284 -2.4876  0.4699
    6CHTO   N11 2306   5.275   3.995   1.008 -0.3400 -0.1131 -0.1079
    6CHTO  H108 2307   5.209   4.011   0.925  0.2964 -1.8954 -0.9816
    6CHTO  H109 2308   5.337   4.077   1.037 -0.8394  0.6482 -1.1519
    6CHTO   C61 2309   5.245   3.953   1.256 -0.1345  0.1927  0.1427
    6CHTO  H118 2310   5.181   4.040   1.277 -0.0858  0.5112 -0.9992
    6CHTO   O40 2311   5.217   3.853   1.359  0.1571 -0.7962 -0.3212
    6CHTO   C68 2312   5.215   3.714   1.335 -0.0316 -0.2075 -0.3090
    6CHTO  H125 2313   5.152   3.664   1.412 -0.0256  1.1907  0.6233
    6CHTO   C72 2314   5.356   3.660   1.354 -0.2304 -0.7776  0.5794
    6CHTO   O48 2315   5.363   3.517   1.356 -0.1226 -0.3640  0.1889
    6CHTO  H105 2316   5.285   3.467   1.373  0.6628 -1.4107  0.7862
    6CHTO   O38 2317   5.379   3.993   1.279 -0.2491  0.7007 -0.0991
    6CHTO   C55 2318   5.396   4.111   1.364  0.5384 -0.2338  0.4540
    6CHTO  H112 2319   5.300   4.130   1.415  0.6851 -0.2359  0.7331
    6CHTO   C56 2320   5.438   4.233   1.270 -0.0120 -0.0407  0.3073
    6CHTO  H113 2321   5.503   4.205   1.186 -1.4332  1.8341 -1.4540
    6CHTO   O42 2322   5.320   4.282   1.218 -0.7511 -0.6648  1.3325
    6CHTO  H100 2323   5.284   4.219   1.158 -1.6664  1.4647 -0.4546
    6CHTO   C57 2324   5.516   4.350   1.352 -0.3541  0.8443  0.2960
    6CHTO  H114 2325   5.444   4.409   1.408 -1.9604 -0.8317  0.0499
    6CHTO   N10 2326   5.588   4.443   1.262 -0.8105  0.5036  0.9220
    6CHTO  H106 2327   5.545   4.465   1.165 -1.3193 -0.9110  0.8130
    6CHTO  H107 2328   5.593   4.532   1.322  4.2546  1.0587 -0.1373
    6CHTO   C58 2329   5.619   4.287   1.448 -0.0078  0.3214  0.1587
    6CHTO  H115 2330   5.695   4.232   1.388  1.1155  1.0744  0.8777
    6CHTO   O37 2331   5.552   4.196   1.534  0.3402 -0.2541  0.6372
    6CHTO   C59 2332   5.509   4.075   1.465 -0.0862 -0.1042  0.4840
    6CHTO  H116 2333   5.602   4.045   1.417  0.1007 -0.3425  0.9885
    6CHTO   C70 2334   5.451   3.978   1.571 -0.3491  0.5595  0.8560
    6CHTO   O46 2335   5.541   3.932   1.675  0.5783  0.1036 -0.1534
    6CHTO  H103 2336   5.621   3.896   1.642  1.0163  1.0873 -0.1765
    6CHTO   O39 2337   5.694   4.411   1.543  0.4688 -0.2617  0.3176
    6CHTO   C60 2338   5.835   4.422   1.531  0.5910  0.6454  0.4509
    6CHTO  H117 2339   5.868   4.350   1.456 -1.3575  0.6992 -0.4874
    6CHTO   C62 2340   5.877   4.571   1.498 -0.1345 -0.1688  0.2484
    6CHTO  H119 2341   5.821   4.591   1.405  0.5821 -1.9709 -0.5854
    6CHTO   O43 2342   5.831   4.670   1.597 -0.0411 -0.2748 -0.2282
    6CHTO  H101 2343   5.836   4.755   1.557  4.4101 -1.2731 -2.1422
    6CHTO   C66 2344   6.031   4.567   1.455 -0.7408  0.0578  0.4352
    6CHTO  H123 2345   6.037   4.485   1.383 -2.1411 -0.2353  0.6314
    6CHTO   N12 2346   6.078   4.692   1.391 -0.1517  0.7020  0.2205
    6CHTO  H110 2347   6.183   4.716   1.400 -0.4481  1.6904  1.0741
    6CHTO  H111 2348   6.062   4.671   1.286 -3.6293 -1.2256  1.0731
    6CHTO   C69 2349   6.109   4.526   1.586 -0.0802 -0.6167 -0.9793
    6CHTO  H126 2350   6.095   4.603   1.665 -0.4441 -1.2172 -0.4627
    6CHTO   O41 2351   6.060   4.379   1.635 -0.0771 -0.0112  0.3742
    6CHTO   C64 2352   5.909   4.386   1.660  0.5462 -0.0433 -0.4576
    6CHTO  H121 2353   5.894   4.463   1.739  0.8606  0.1222 -0.5578
    6CHTO   C71 2354   5.875   4.245   1.711 -0.3470  0.6850  0.4977
    6CHTO   O47 2355   5.914   4.223   1.851 -0.2516  0.0929  0.2743
    6CHTO  H104 2356   5.840   4.220   1.909 -0.2310  1.4678  0.3966
    6CHTO   O34 2357   6.244   4.520   1.564 -0.6370  0.1194  0.1246
    6CHTO   C49 2358   6.386   4.605   1.575  0.0072 -0.3870  0.8147
    6CHTO   H91 2359   6.386   4.697   1.515 -0.9509 -0.8798  0.0449
    6CHTO   C47 2360   6.494   4.510   1.524  0.4751  0.2106  0.2166
    6CHTO   H89 2361   6.581   4.577   1.510  1.4868 -0.8581  1.2938
    6CHTO   O33 2362   6.451   4.461   1.394  0.1072  0.0863  0.3403
    6CHTO   H70 2363   6.508   4.503   1.332 -0.2215 -1.6676 -1.2019
    6CHTO   C45 2364   6.521   4.390   1.619  0.9590  0.6161  0.0269
    6CHTO   H87 2365   6.425   4.342   1.641 -0.2915  1.9570 -2.2240
    6CHTO    N8 2366   6.612   4.291   1.569  0.6885  0.5785 -0.2454
    6CHTO   H75 2367   6.712   4.329   1.552  0.6728  0.5761 -0.3437
    6CHTO   H76 2368   6.616   4.208   1.638 -4.2899 -0.6977 -1.3228
    6CHTO   C43 2369   6.567   4.448   1.764  0.4943  0.4240  0.3304
    6CHTO   H85 2370   6.574   4.363   1.832 -1.2404 -0.3416 -0.4150
    6CHTO   O29 2371   6.467   4.547   1.810  0.0488  0.5192 -0.0487
    6CHTO   C50 2372   6.410   4.646   1.719  0.1914 -0.0543  0.7734
    6CHTO   H92 2373   6.311   4.674   1.760  0.5171 -0.2953  1.7301
    6CHTO   C54 2374   6.475   4.783   1.737  0.5983 -0.1856 -1.0660
    6CHTO   O36 2375   6.595   4.803   1.659 -0.3952  0.4596  0.0940
    6CHTO   H72 2376   6.609   4.733   1.598 -0.4505  0.1158  0.4779
    6CHTO   O27 2377   6.701   4.506   1.755  0.1488  0.4918 -0.6977
    6CHTO   C37 2378   6.798   4.474   1.860 -0.4532 -0.1505  0.5789
    6CHTO   H79 2379   6.770   4.387   1.921 -0.0834 -0.2714  0.5764
    6CHTO   C38 2380   6.939   4.446   1.813 -0.5470  0.4358  0.4474
    6CHTO   H80 2381   6.977   4.538   1.766 -1.5258  0.5317 -0.1562
    6CHTO   O31 2382   6.925   4.338   1.715 -0.0875  0.4293 -0.0154
    6CHTO   H68 2383   6.911   4.255   1.754 -0.2207 -0.5746 -2.1182
    6CHTO   C39 2384   7.045   4.403   1.927 -0.6459  0.0660 -0.1056
    6CHTO   H81 2385   7.000   4.322   1.985  0.8287 -1.1003 -0.5607
    6CHTO    N7 2386   7.179   4.356   1.873  0.4530  0.2581 -0.5620
    6CHTO   H73 2387   7.170   4.318   1.772 -1.8227  0.8314 -0.6029
    6CHTO   H74 2388   7.224   4.286   1.942 -0.5404 -0.7820 -0.9428
    6CHTO   C40 2389   7.053   4.528   2.027  0.3042 -0.1544  0.3763
    6CHTO   H82 2390   7.107   4.604   1.971 -2.3540  0.9270 -0.8276
    6CHTO   O26 2391   6.918   4.578   2.066 -0.0645 -0.2575 -0.4794
    6CHTO   C41 2392   6.817   4.598   1.956  0.5638 -0.3406 -0.0312
    6CHTO   H83 2393   6.840   4.687   1.896 -1.8050  2.4795  3.0275
    6CHTO   C52 2394   6.692   4.630   2.030  0.5436 -0.7493 -0.1413
    6CHTO   O35 2395   6.622   4.484   2.103 -0.0771 -0.3926  0.0430
    6CHTO   H71 2396   6.692   4.423   2.116  1.0023  0.7002 -0.6466
    6CHTO   O28 2397   7.113   4.488   2.152 -0.2538  0.0190 -0.7900
    6CHTO   C42 2398   7.179   4.585   2.241  0.2174 -0.3487  0.0731
    6CHTO   H84 2399   7.143   4.682   2.206  1.8461 -0.2243 -1.3282
    6CHTO   C44 2400   7.335   4.592   2.229  0.1254 -0.1120  0.6018
    6CHTO   H86 2401   7.372   4.501   2.276 -3.0531 -2.1422 -0.7014
    6CHTO   O32 2402   7.369   4.598   2.090 -0.5364  0.2000  0.2497
    6CHTO   H69 2403   7.440   4.659   2.085 -0.1629 -0.2618 -0.1276
    6CHTO   C48 2404   7.383   4.709   2.322 -0.3228  0.4638  0.0390
    6CHTO   H90 2405   7.342   4.795   2.269  0.3691 -0.0638 -1.3805
    6CHTO    N9 2406   7.536   4.723   2.324  0.4071  0.7178 -0.7963
    6CHTO   H77 2407   7.571   4.622   2.338  0.0128  0.6029 -0.6360
    6CHTO   H78 2408   7.572   4.763   2.230  0.1278  0.7391 -0.8938
    6CHTO   C51 2409   7.321   4.699   2.469 -0.0211 -0.0960 -0.0703
    6CHTO   H93 2410   7.370   4.613   2.516  1.7480  1.0113  0.1461
    6CHTO   O30 2411   7.180   4.680   2.453 -0.2215  0.0730  0.0192
    6CHTO   C46 2412   7.135   4.571   2.384  0.1927 -0.3944 -0.5518
    6CHTO   H88 2413   7.167   4.475   2.425 -1.9883 -0.2874  1.5300
    6CHTO   C53 2414   6.981   4.577   2.394 -0.4099  0.0798 -0.8165
    6CHTO   O72 2415   6.912   4.468   2.339  0.0611  0.0214  0.1109
    6CHTO  H199 2416   6.941   4.392   2.386  0.4732 -0.6572 -1.2036
    6CHTO   O22 2417   7.349   4.823   2.538  0.2508 -0.1148  0.5975
    6CHTO   C31 2418   7.308   4.852   2.680 -0.7079  0.4696  0.3651
    6CHTO   H59 2419   7.255   4.761   2.714 -1.3463 -0.6192 -3.2746
    6CHTO   C29 2420   7.426   4.880   2.773  0.7442  0.6840  0.4109
    6CHTO   H57 2421   7.490   4.960   2.733  0.4923 -0.0769 -1.5816
    6CHTO   O21 2422   7.520   4.768   2.776 -0.0622 -0.1172 -0.3150
    6CHTO   H37 2423   7.564   4.765   2.694  0.1188 -0.3155 -0.2127
    6CHTO   C27 2424   7.382   4.913   2.921 -0.5693 -0.1208  0.3504
    6CHTO   H55 2425   7.325   4.830   2.966  0.3664 -0.8530  0.1944
    6CHTO    N5 2426   7.496   4.944   3.008  0.5848 -0.2748  0.5229
    6CHTO   H43 2427   7.525   5.047   3.016  1.4641 -0.3187 -1.9012
    6CHTO   H44 2428   7.490   4.902   3.108 -4.8449 -0.2685  0.3687
    6CHTO   C25 2429   7.275   5.028   2.918  0.7063  0.0075 -0.0752
    6CHTO   H53 2430   7.320   5.124   2.887 -0.8841  1.2251  1.2984
    6CHTO   O17 2431   7.163   4.992   2.835  0.4318 -0.5067 -0.0290
    6CHTO   C32 2432   7.207   4.967   2.696  0.1470  0.2872  0.3723
    6CHTO   H60 2433   7.252   5.055   2.650 -0.4231  0.4699  0.1519
    6CHTO   C36 2434   7.081   4.938   2.611  0.0275  0.8757  0.1531
    6CHTO   O25 2435   6.978   4.865   2.677 -0.2371  0.0643  0.0337
    6CHTO   H40 2436   6.945   4.912   2.751  4.2739 -0.6765  2.7350
    6CHTO   O15 2437   7.203   5.042   3.089  0.4240 -0.1062  0.1648
    6CHTO   C19 2438   7.091   5.126   3.109  0.7646 -0.2741  0.5656
    6CHTO   H47 2439   7.062   5.105   3.213 -1.5026 -0.7206 -0.1325
    6CHTO   C20 2440   7.131   5.282   3.085  0.0445 -0.0416 -0.7506
    6CHTO   H48 2441   7.147   5.308   2.979 -1.9919  0.5369 -0.9543
    6CHTO   O19 2442   7.239   5.306   3.179 -0.1483  0.5920 -0.2981
    6CHTO   H35 2443   7.210   5.265   3.258 -1.8886  3.2202  0.5034
    6CHTO   C21 2444   7.013   5.375   3.119  0.5714 -0.5241 -0.4669
    6CHTO   H49 2445   6.995   5.362   3.226 -0.4630 -0.3361 -0.6123
    6CHTO    N4 2446   7.041   5.524   3.115 -0.5492  0.5371 -0.6046
    6CHTO   H41 2447   7.123   5.540   3.184 -1.8758  0.1421  1.1056
    6CHTO   H42 2448   7.070   5.560   3.018  0.5909 -0.9922 -0.8521
    6CHTO   C22 2449   6.884   5.336   3.033  0.1679  0.0008 -0.1623
    6CHTO   H50 2450   6.921   5.347   2.931 -0.5464  0.2040 -0.4015
    6CHTO   O14 2451   6.859   5.200   3.055 -0.3145  0.4591  0.3710
    6CHTO   C23 2452   6.963   5.112   3.023 -0.0576  0.7982 -0.4482
    6CHTO   H51 2453   6.981   5.121   2.915  4.0379  0.6167  0.1672
    6CHTO   C34 2454   6.906   4.965   3.025  0.0869 -0.3991  0.4076
    6CHTO   O23 2455   6.820   4.933   3.132 -0.0730  0.2467  0.3581
    6CHTO   H38 2456   6.837   4.979   3.212  3.0912  1.3478 -0.8661
    6CHTO   O16 2457   6.768   5.425   3.051  0.4277 -0.0523 -0.7858
    6CHTO   C24 2458   6.670   5.419   2.941 -0.4666  0.5949  0.4284
    6CHTO   H52 2459   6.690   5.337   2.872 -1.0884  0.3671  0.5131
    6CHTO   C26 2460   6.691   5.540   2.853  0.2392 -0.5386  0.3888
    6CHTO   H54 2461   6.707   5.634   2.910 -1.0746  0.3104 -0.6038
    6CHTO   O20 2462   6.811   5.511   2.772  0.1343 -0.2046 -0.0559
    6CHTO   H36 2463   6.895   5.505   2.812  0.5298 -1.1610 -1.0165
    6CHTO   C30 2464   6.573   5.567   2.754  0.4097 -0.6188 -0.4168
    6CHTO   H58 2465   6.584   5.491   2.675  0.5036 -1.1410  0.0921
    6CHTO    N6 2466   6.582   5.698   2.685  0.1044 -0.4023  0.2108
    6CHTO   H45 2467   6.575   5.682   2.579 -3.2663  2.1594 -0.0398
    6CHTO   H46 2468   6.669   5.757   2.708 -1.8725  2.8260 -0.3121
    6CHTO   C33 2469   6.431   5.539   2.817 -0.7312 -0.4885  0.2114
    6CHTO   H61 2470   6.398   5.618   2.886 -0.7861  0.7649 -1.2147
    6CHTO   O18 2471   6.431   5.414   2.889 -0.4526  0.3995 -0.1797
    6CHTO   C28 2472   6.527   5.400   2.999  0.1494  0.5288 -0.6587
    6CHTO   H56 2473   6.510   5.484   3.067  2.5454  0.1332  0.5063
    6CHTO   C35 2474   6.506   5.259   3.069  0.5006 -0.2642  0.0427
    6CHTO   O24 2475   6.575   5.234   3.189  0.7397  0.0288  0.3370
    6CHTO   H39 2476   6.546   5.148   3.210 -0.7037  0.1209 -1.1302
    6CHTO    O9 2477   6.335   5.539   2.711  0.1755  0.0713  0.4873
    6CHTO   C13 2478   6.174   5.555   2.740  0.2576  0.1858  0.1458
    6CHTO   H26 2479   6.156   5.645   2.802  0.4706  1.1182 -1.1106
    6CHTO   C11 2480   6.116   5.424   2.807 -0.6314  0.4988  0.2304
    6CHTO   H24 2481   6.174   5.423   2.901  0.1677  1.7014 -0.2283
    6CHTO    O8 2482   6.150   5.314   2.728  0.1762 -0.8665 -0.5570
    6CHTO    H3 2483   6.204   5.265   2.786  0.5650 -1.7637 -1.6705
    6CHTO    C9 2484   5.966   5.433   2.834  0.0384 -0.1051  0.4324
    6CHTO   H22 2485   5.955   5.499   2.921 -1.0235  0.3600 -0.0371
    6CHTO    N2 2486   5.901   5.309   2.887  0.0633  0.5242 -0.6327
    6CHTO   H10 2487   5.962   5.220   2.883  0.3366  0.7740 -2.1722
    6CHTO   H11 2488   5.807   5.294   2.836  1.2579 -1.0754 -2.4231
    6CHTO    C7 2489   5.894   5.499   2.712  0.1819 -1.0574 -0.4614
    6CHTO   H20 2490   5.870   5.603   2.743 -0.2447 -1.5172  0.8021
    6CHTO    O4 2491   5.984   5.504   2.594 -0.3981  0.1532 -0.3523
    6CHTO   C14 2492   6.096   5.586   2.616  0.2220  0.4531  0.4179
    6CHTO   H27 2493   6.063   5.692   2.626  0.4430  0.3255  2.8563
    6CHTO   C18 2494   6.171   5.579   2.487 -0.2437  0.7139  0.3282
    6CHTO   O13 2495   6.230   5.449   2.472 -0.5976 -0.0693  0.9649
    6CHTO    H7 2496   6.182   5.412   2.400  0.5409  1.1158 -0.4477
    6CHTO    O2 2497   5.754   5.435   2.662 -0.5606 -0.3825 -0.1538
    6CHTO    C1 2498   5.641   5.529   2.677  0.3136  0.1131 -0.5107
    6CHTO   H14 2499   5.673   5.619   2.733 -1.7149  1.8565 -2.0882
    6CHTO    C2 2500   5.527   5.461   2.752 -0.2359  0.5868  0.0052
    6CHTO   H15 2501   5.505   5.363   2.707 -0.0796  0.0508  1.0612
    6CHTO    O6 2502   5.561   5.430   2.888 -0.1427  0.4643  0.7866
    6CHTO    H1 2503   5.592   5.507   2.931  0.1552  1.8690 -1.8545
    6CHTO    C3 2504   5.394   5.549   2.756 -0.4480 -0.0054 -0.4445
    6CHTO   H16 2505   5.432   5.639   2.807 -0.6059  0.4458 -1.1100
    6CHTO    N1 2506   5.285   5.478   2.824 -0.0163 -0.1644 -0.8644
    6CHTO    H8 2507   5.189   5.526   2.811  0.9281  2.4238  1.1700
    6CHTO    H9 2508   5.302   5.460   2.929 -1.7870  1.9575 -0.1806
    6CHTO    C4 2509   5.353   5.599   2.614  0.8446  0.0046 -0.4597
    6CHTO   H17 2510   5.306   5.515   2.561 -0.2629 -0.1153  0.6801
    6CHTO    O1 2511   5.464   5.649   2.541  0.0002 -0.2446 -0.4178
    6CHTO    C5 2512   5.589   5.574   2.539  0.3245  0.0493 -0.3603
    6CHTO   H18 2513   5.580   5.491   2.469 -0.3537 -0.6847  0.5963
    6CHTO   C16 2514   5.697   5.667   2.482 -0.1263 -0.4240 -0.0036
    6CHTO   O11 2515   5.675   5.721   2.359  0.4613  0.4742  0.3906
    6CHTO    H5 2516   5.681   5.654   2.294 -1.4109 -0.8844  1.5718
    6CHTO    O3 2517   5.273   5.718   2.628 -0.4365  0.3615 -0.1144
    6CHTO    C6 2518   5.167   5.750   2.543 -0.2417 -0.1696  0.3567
    6CHTO   H19 2519   5.124   5.844   2.577 -1.7902 -1.0756  0.9190
    6CHTO    C8 2520   5.221   5.781   2.399 -0.0654  0.0062 -0.2211
    6CHTO   H21 2521   5.283   5.698   2.365 -1.3294 -1.1232  0.2511
    6CHTO    O7 2522   5.306   5.902   2.404 -0.4452 -0.3222  0.2272
    6CHTO    H2 2523   5.382   5.886   2.458 -0.7530  1.1600  1.1231
    6CHTO   C12 2524   5.106   5.802   2.292  0.2239 -0.4294 -0.4137
    6CHTO   H25 2525   5.058   5.902   2.302 -1.3352 -1.1174 -0.8302
    6CHTO    N3 2526   5.164   5.810   2.151 -0.4810  0.1997 -0.5836
    6CHTO   H12 2527   5.185   5.911   2.121  1.8845 -0.2688 -0.5725
    6CHTO   H13 2528   5.084   5.779   2.085  0.3339 -2.0526 -0.5667
    6CHTO   C15 2529   4.997   5.686   2.310  0.1125  0.5661 -0.0532
    6CHTO   H28 2530   5.024   5.586   2.277 -1.5891 -0.5955  1.9174
    6CHTO   O10 2531   4.854   5.700   2.231 -0.2552 -0.1491 -0.0211
    6CHTO    H4 2532   4.870   5.715   2.140 -1.9267 -3.6326 -1.0103
    6CHTO    O5 2533   4.952   5.689   2.450  0.0783  0.3798  0.2942
    6CHTO   C10 2534   5.052   5.646   2.546  0.6243 -0.4735 -0.5440
    6CHTO   H23 2535   5.077   5.543   2.523  1.2173 -0.1380 -1.4137
    6CHTO   C17 2536   4.978   5.640   2.679 -0.7729 -0.3466 -0.2306
    6CHTO   O12 2537   4.920   5.766   2.715  0.1873 -0.6329 -0.1677
    6CHTO    H6 2538   4.853   5.808   2.664  1.2359 -0.2417 -1.2329
    7CHTO  H203 2539   4.148   0.938   0.250  2.2447 -1.3927 -0.9801
    7CHTO   O82 2540   4.181   1.022   0.225  0.0537 -0.2422 -0.1500
    7CHTO  C123 2541   4.291   1.005   0.132 -0.3427  0.1402 -0.3487
    7CHTO  H227 2542   4.250   0.963   0.039 -1.6285  2.4591 -0.8646
    7CHTO   O77 2543   4.338   1.134   0.124 -0.9718  0.0470 -0.5914
    7CHTO  C118 2544   4.450   1.160   0.037 -0.0910 -0.0619  0.2031
    7CHTO  H222 2545   4.423   1.150  -0.069 -3.8698  1.8194  0.8888
    7CHTO  C125 2546   4.476   1.310   0.068  0.2297  0.2103  0.6252
    7CHTO   O84 2547   4.554   1.375  -0.036 -0.0118  0.4529 -0.2458
    7CHTO  H205 2548   4.623   1.427   0.000 -1.0451 -1.4446  4.9202
    7CHTO  C114 2549   4.572   1.075   0.086  0.2997 -0.0411 -0.5038
    7CHTO  H218 2550   4.602   1.113   0.183 -2.7959  2.2233 -0.3496
    7CHTO  C116 2551   4.540   0.931   0.114 -0.8570  0.5645 -0.4460
    7CHTO  H220 2552   4.539   0.870   0.021  0.9686  1.6211 -1.2033
    7CHTO   O79 2553   4.647   0.873   0.192  0.2655  0.7691  0.3760
    7CHTO  H201 2554   4.699   0.808   0.148  0.6499  0.0511  1.8427
    7CHTO  C120 2555   4.407   0.920   0.197  0.2247  0.4500 -0.7515
    7CHTO  H224 2556   4.434   0.948   0.301  0.5031 -1.0426 -0.4110
    7CHTO   N21 2557   4.369   0.775   0.203 -0.4110  0.3264  0.1444
    7CHTO  H211 2558   4.303   0.759   0.286 -2.6719  0.5238 -1.5569
    7CHTO  H212 2559   4.328   0.747   0.107  0.4055  1.1380 -0.4548
    7CHTO   O75 2560   4.682   1.089  -0.002  0.3922  0.1158  0.2782
    7CHTO  C112 2561   4.818   1.162   0.078  0.0718  0.2203  0.4508
    7CHTO  H216 2562   4.850   1.081   0.145 -0.8080 -1.4490 -1.0955
    7CHTO   O73 2563   4.775   1.272   0.156  0.3536 -0.4834 -0.2976
    7CHTO  C113 2564   4.884   1.329   0.231  0.0728 -0.4280 -0.9590
    7CHTO  H217 2565   4.941   1.255   0.292  1.5596  1.2592 -0.2542
    7CHTO  C124 2566   4.831   1.431   0.331  0.3031 -0.2203  0.2146
    7CHTO   O83 2567   4.766   1.537   0.271  0.7642  0.3313  0.4739
    7CHTO  H204 2568   4.744   1.598   0.339  0.1566  0.5885  0.0590
    7CHTO  C109 2569   4.982   1.394   0.131 -0.2534  0.2810  1.0535
    7CHTO  H213 2570   4.925   1.462   0.066 -0.8171  0.1234  1.3711
    7CHTO  C110 2571   5.049   1.283   0.046  0.0507  0.2509 -0.1548
    7CHTO  H214 2572   5.109   1.216   0.109 -0.6820 -1.4783 -1.2514
    7CHTO   O78 2573   5.134   1.347  -0.049  1.0717  0.1538  0.3631
    7CHTO  H200 2574   5.178   1.285  -0.104  2.5428  0.8595  0.7113
    7CHTO  C111 2575   4.931   1.205  -0.021 -0.2615 -0.5340 -0.5259
    7CHTO  H215 2576   4.885   1.272  -0.095 -2.9641 -2.6140 -0.8288
    7CHTO   N19 2577   4.970   1.085  -0.098  0.4018 -0.0753  0.3115
    7CHTO  H207 2578   5.066   1.094  -0.147 -0.5779 -1.1864 -1.8756
    7CHTO  H208 2579   4.898   1.078  -0.178 -1.9434  0.8899  2.2834
    7CHTO   O74 2580   5.082   1.479   0.201 -0.0215 -0.3872  0.1398
    7CHTO  C115 2581   5.109   1.620   0.139 -0.5856  0.5478  0.1460
    7CHTO  H219 2582   5.032   1.647   0.067  0.6860  0.7773 -1.1396
    7CHTO   O76 2583   5.090   1.728   0.247 -0.1910  0.0099 -0.1539
    7CHTO  C122 2584   5.190   1.733   0.358 -0.1076  0.1505 -0.5098
    7CHTO  H226 2585   5.177   1.645   0.421 -1.2811 -0.0745 -1.0556
    7CHTO  C126 2586   5.165   1.858   0.448 -0.1505  0.0956  0.2104
    7CHTO   O85 2587   5.166   1.990   0.398  0.0778 -0.7463 -0.0179
    7CHTO  H206 2588   5.250   2.012   0.363  0.8579 -0.6191  1.9130
    7CHTO  C121 2589   5.335   1.744   0.297 -0.1662 -0.4447 -0.4890
    7CHTO  H225 2590   5.347   1.838   0.238 -1.8131  1.5486  2.2262
    7CHTO   O81 2591   5.424   1.750   0.411  0.2144 -0.0797  0.3126
    7CHTO  H202 2592   5.427   1.836   0.448 -0.4184  1.3411 -2.7401
    7CHTO  C119 2593   5.361   1.619   0.207 -0.0725  0.7849  0.0142
    7CHTO  H223 2594   5.466   1.618   0.176  0.3413  0.0416  1.3724
    7CHTO  C117 2595   5.259   1.619   0.085  0.6638  0.3795  0.3101
    7CHTO  H221 2596   5.259   1.529   0.023 -2.1881 -0.0198  0.8011
    7CHTO   N20 2597   5.268   1.741  -0.002 -0.1615  0.0672  0.4444
    7CHTO  H209 2598   5.347   1.809   0.028  1.2836 -2.1464  1.8713
    7CHTO  H210 2599   5.291   1.713  -0.104  0.9133  3.2179 -0.2238
    7CHTO   O80 2600   5.353   1.493   0.274 -0.6552 -0.4139 -0.1900
    7CHTO  C103 2601   5.402   1.347   0.191 -0.0518 -0.9695 -0.6384
    7CHTO  H190 2602   5.322   1.316   0.125  0.7278  1.2034 -2.6367
    7CHTO  C101 2603   5.538   1.352   0.109 -0.5406  0.5018 -0.8603
    7CHTO  H188 2604   5.621   1.369   0.178 -0.1578 -0.4911 -1.0790
    7CHTO   O68 2605   5.541   1.480   0.011 -0.8297 -0.0929 -0.3086
    7CHTO  H168 2606   5.630   1.507  -0.003 -0.3017 -1.8680 -0.4412
    7CHTO   C99 2607   5.570   1.222   0.036  0.0050  0.2476  1.1189
    7CHTO  H186 2608   5.490   1.209  -0.040  0.5938  3.2982 -0.0761
    7CHTO   N17 2609   5.699   1.217  -0.034 -0.4011  0.5907 -0.4279
    7CHTO  H174 2610   5.776   1.196   0.038 -0.3857  0.2734 -0.5370
    7CHTO  H175 2611   5.714   1.310  -0.088  2.6886  0.0051 -0.6458
    7CHTO   C97 2612   5.561   1.102   0.130 -0.2597  0.8168 -0.2648
    7CHTO  H184 2613   5.649   1.098   0.196 -0.3089 -1.2825 -0.2922
    7CHTO   O64 2614   5.434   1.112   0.204 -0.4817 -0.1607  0.2632
    7CHTO  C104 2615   5.425   1.224   0.296 -0.0924  0.6490  0.4044
    7CHTO  H191 2616   5.511   1.249   0.359 -0.4307 -1.6052  1.8010
    7CHTO  C108 2617   5.305   1.209   0.390  0.8226  0.4624  0.4237
    7CHTO   O71 2618   5.305   1.288   0.506 -0.3523  0.4859  0.1112
    7CHTO  H171 2619   5.219   1.276   0.542 -0.0014 -0.1951  0.7547
    7CHTO   O62 2620   5.546   0.974   0.066  0.3025 -0.1044  0.0443
    7CHTO   C91 2621   5.491   0.940  -0.062 -1.0252 -0.7284 -0.0314
    7CHTO  H178 2622   5.524   1.007  -0.142 -1.6615  1.9002  1.8541
    7CHTO   C92 2623   5.337   0.949  -0.061  0.5374 -0.0160  0.2753
    7CHTO  H179 2624   5.316   1.048  -0.017  4.1917  1.0666 -0.2636
    7CHTO   O66 2625   5.295   0.959  -0.199  0.1099 -0.0743  0.0759
    7CHTO  H166 2626   5.202   0.962  -0.209  0.1309 -1.2519 -0.6574
    7CHTO   C93 2627   5.270   0.824   0.009 -1.1210  0.3410 -0.3217
    7CHTO  H180 2628   5.176   0.817  -0.048 -1.1071 -0.2103 -0.2809
    7CHTO   N16 2629   5.239   0.845   0.151  0.1497 -0.1681 -0.9087
    7CHTO  H172 2630   5.149   0.903   0.162 -0.3880 -1.4101  1.8069
    7CHTO  H173 2631   5.322   0.894   0.200  0.4691 -0.9411 -0.6660
    7CHTO   C94 2632   5.354   0.694  -0.014  0.0780 -0.1838  0.0582
    7CHTO  H181 2633   5.430   0.679   0.063  0.7313 -3.3168 -1.1455
    7CHTO   O61 2634   5.422   0.709  -0.136  0.0778  0.2059 -0.8784
    7CHTO   C95 2635   5.534   0.796  -0.112  0.0841  0.4181  0.1502
    7CHTO  H182 2636   5.602   0.750  -0.041  2.8571  1.5329 -1.6875
    7CHTO  C106 2637   5.622   0.804  -0.238  0.0739  0.0323 -0.7036
    7CHTO   O69 2638   5.725   0.901  -0.225  0.4592  0.2286  0.1627
    7CHTO  H169 2639   5.695   0.978  -0.270 -2.8465 -0.6196  0.8397
    7CHTO   O63 2640   5.262   0.563  -0.018 -0.1619 -0.4592 -0.0791
    7CHTO   C96 2641   5.291   0.460   0.090 -0.0702  0.1006  0.7976
    7CHTO  H183 2642   5.299   0.520   0.181  0.0833 -0.1886  0.9729
    7CHTO   C98 2643   5.430   0.389   0.081  0.0387  0.1319  0.6024
    7CHTO  H185 2644   5.503   0.469   0.063 -0.1413  0.0461 -0.5674
    7CHTO   O67 2645   5.467   0.329   0.203 -0.3908 -0.1390 -0.1237
    7CHTO  H167 2646   5.479   0.390   0.273  0.7848 -1.0328  0.4687
    7CHTO  C102 2647   5.422   0.276  -0.029 -0.0425 -0.2131 -0.9793
    7CHTO  H189 2648   5.509   0.213  -0.008  1.2651  1.7019 -0.4973
    7CHTO   N18 2649   5.439   0.311  -0.172  0.3050  0.6874 -0.2867
    7CHTO  H176 2650   5.453   0.414  -0.202  1.9574 -0.0483 -2.0841
    7CHTO  H177 2651   5.372   0.257  -0.238 -2.0380  0.8781  1.8583
    7CHTO  C105 2652   5.299   0.191   0.009 -0.5200 -0.7943 -0.5189
    7CHTO  H192 2653   5.240   0.185  -0.082 -0.2304  0.3516 -0.7868
    7CHTO   O65 2654   5.212   0.234   0.119  0.1911  0.2128  0.3369
    7CHTO  C100 2655   5.167   0.366   0.102 -0.0178 -0.6808 -0.0310
    7CHTO  H187 2656   5.109   0.370   0.009 -0.5376 -1.3679  0.2589
    7CHTO  C107 2657   5.086   0.409   0.223  0.1545  0.1548  0.2520
    7CHTO   O70 2658   5.018   0.529   0.195  0.0466 -0.7290 -0.0457
    7CHTO  H170 2659   4.929   0.526   0.223 -0.1278 -0.8715 -0.6192
    7CHTO   O57 2660   5.367   0.029   0.037 -0.3347 -0.0155  0.4191
    7CHTO   C85 2661   5.292  -0.085  -0.008 -0.0597  0.5204 -0.0518
    7CHTO  H157 2662   5.230  -0.040  -0.089 -2.0024  0.2666  1.2709
    7CHTO   C83 2663   5.193  -0.139   0.103 -0.1312 -0.6395  0.0042
    7CHTO  H155 2664   5.130  -0.056   0.133 -2.4546 -1.4780 -2.3760
    7CHTO   O56 2665   5.266  -0.183   0.219  0.0574 -0.4867  0.0058
    7CHTO  H135 2666   5.267  -0.114   0.282 -0.4195 -0.6878  0.2360
    7CHTO   C81 2667   5.107  -0.254   0.035  1.1676  0.0086 -0.9146
    7CHTO  H153 2668   5.044  -0.206  -0.041 -1.8212 -1.0029  0.8597
    7CHTO   N14 2669   5.006  -0.320   0.123 -0.0692  0.2972 -0.1126
    7CHTO  H141 2670   4.955  -0.255   0.189  0.9049  1.1817 -0.2177
    7CHTO  H142 2671   4.932  -0.357   0.055 -1.2793  1.9034  0.3147
    7CHTO   C79 2672   5.196  -0.362  -0.037  0.1510 -0.2223 -0.0596
    7CHTO  H151 2673   5.132  -0.422  -0.101  1.1896  0.0515 -1.3840
    7CHTO   O52 2674   5.289  -0.297  -0.126  0.6862 -0.1333 -0.4064
    7CHTO   C86 2675   5.382  -0.204  -0.062  0.1945 -0.0387 -0.2506
    7CHTO  H158 2676   5.433  -0.258   0.021 -0.4883 -2.0950 -1.1471
    7CHTO   C90 2677   5.495  -0.152  -0.151  0.3631  0.2396 -0.0623
    7CHTO   O60 2678   5.584  -0.252  -0.190 -0.1162  0.4947 -0.1172
    7CHTO  H138 2679   5.655  -0.226  -0.245  1.2606  0.0005  1.3727
    7CHTO   O50 2680   5.270  -0.453   0.042 -0.0387 -0.4139  0.0890
    7CHTO   C73 2681   5.327  -0.590   0.022  0.1362 -0.2806  0.2645
    7CHTO  H145 2682   5.386  -0.602  -0.070 -0.7416  0.9807 -0.4699
    7CHTO   C74 2683   5.213  -0.694   0.015 -0.9180 -0.3031  0.3113
    7CHTO  H146 2684   5.147  -0.683  -0.072 -2.6445 -0.3790  1.5815
    7CHTO   O54 2685   5.284  -0.822  -0.012 -0.1871  0.1447  0.4359
    7CHTO  H133 2686   5.279  -0.851  -0.101  1.6906  1.6568 -0.1857
    7CHTO   C75 2687   5.127  -0.691   0.148  0.0786  0.8139 -0.0646
    7CHTO  H147 2688   5.058  -0.606   0.146  0.4189  1.0643 -1.9243
    7CHTO   N13 2689   5.037  -0.807   0.167 -0.2646  0.1146  0.4940
    7CHTO  H139 2690   4.942  -0.781   0.124 -0.2957  1.0968  1.1482
    7CHTO  H140 2691   5.086  -0.891   0.120  0.8728  0.5240  0.9181
    7CHTO   C76 2692   5.222  -0.681   0.275  0.5128 -0.0293 -0.5698
    7CHTO  H148 2693   5.258  -0.781   0.300 -2.2228 -0.3460  2.5137
    7CHTO   O49 2694   5.332  -0.595   0.265 -0.4350 -0.1167 -0.5238
    7CHTO   C77 2695   5.411  -0.619   0.144 -0.5262 -0.0806  0.0209
    7CHTO  H149 2696   5.448  -0.721   0.137 -1.3669 -0.4055  0.2215
    7CHTO   C88 2697   5.532  -0.528   0.137  0.0471  0.2749 -0.2237
    7CHTO   O58 2698   5.644  -0.551   0.246 -0.2760  0.0088  0.6123
    7CHTO  H136 2699   5.615  -0.511   0.325 -1.5417  1.3580 -0.5150
    7CHTO   O51 2700   5.126  -0.618   0.400 -0.2393  1.3104 -0.0768
    7CHTO   C78 2701   5.172  -0.679   0.539 -0.2735  0.2333 -0.2486
    7CHTO  H150 2702   5.265  -0.737   0.525  0.5674  1.8526 -1.4572
    7CHTO   C80 2703   5.059  -0.772   0.603  0.0915 -0.9545 -0.6054
    7CHTO  H152 2704   4.963  -0.717   0.601 -0.5334 -1.8950  2.3465
    7CHTO   O55 2705   5.039  -0.886   0.524 -0.1201 -0.0502  0.4378
    7CHTO  H134 2706   4.954  -0.923   0.538  1.0529 -2.8509  0.6189
    7CHTO   C84 2707   5.084  -0.811   0.752 -0.5018  0.2037  0.1414
    7CHTO  H156 2708   5.179  -0.864   0.752  1.0938  2.9331  0.3936
    7CHTO   N15 2709   4.972  -0.885   0.823  0.5090  0.4856  0.1250
    7CHTO  H143 2710   4.880  -0.831   0.833  0.0661  0.0602 -1.5386
    7CHTO  H144 2711   5.000  -0.928   0.917  0.4811 -0.9987 -0.5498
    7CHTO   C87 2712   5.116  -0.677   0.827  0.2787  0.5107  0.2778
    7CHTO  H159 2713   5.029  -0.611   0.829 -0.0756  0.0479  2.7399
    7CHTO   O53 2714   5.241  -0.604   0.755  0.5850  0.2145  0.0297
    7CHTO   C82 2715   5.189  -0.560   0.631 -0.0919 -0.0987  0.1909
    7CHTO  H154 2716   5.096  -0.505   0.636  1.1264  1.9779  0.5263
    7CHTO   C89 2717   5.294  -0.454   0.581 -0.1627  0.2419  0.3382
    7CHTO   O59 2718   5.432  -0.488   0.605  0.0971 -0.1871  0.2407
    7CHTO  H137 2719   5.486  -0.414   0.626  1.6035 -0.9568 -0.8648
    7CHTO   O45 2720   5.153  -0.701   0.999  0.1742  0.4380  0.8023
    7CHTO   C67 2721   5.159  -0.574   1.064 -0.6481 -0.0238  0.0030
    7CHTO  H124 2722   5.201  -0.501   0.995 -1.2353 -0.2817 -0.6321
    7CHTO   C65 2723   5.019  -0.533   1.113  0.2499 -0.6835  0.4164
    7CHTO  H122 2724   4.964  -0.626   1.126 -0.3901 -0.3479  0.1189
    7CHTO   O44 2725   4.955  -0.460   1.011 -0.6994 -0.5184 -0.2921
    7CHTO  H102 2726   4.979  -0.369   1.005 -1.1489 -0.1835  2.6377
    7CHTO   C63 2727   5.022  -0.475   1.255 -0.3032 -0.1218 -0.0560
    7CHTO  H120 2728   5.035  -0.560   1.322 -0.7792  0.0663  0.2743
    7CHTO   N11 2729   4.890  -0.408   1.299 -0.2687  0.2937 -0.8620
    7CHTO  H108 2730   4.890  -0.306   1.267 -2.9037  0.3320 -0.8598
    7CHTO  H109 2731   4.883  -0.410   1.406  1.6375  1.5262 -0.6979
    7CHTO   C61 2732   5.159  -0.392   1.280  0.0596 -0.5760  0.5482
    7CHTO  H118 2733   5.162  -0.343   1.378 -0.9592  0.9144 -0.1335
    7CHTO   O40 2734   5.287  -0.467   1.262  0.2535  0.4925 -0.1553
    7CHTO   C68 2735   5.265  -0.594   1.187 -0.1803 -0.1710  0.7978
    7CHTO  H125 2736   5.223  -0.677   1.247  1.3360  0.3023  2.5519
    7CHTO   C72 2737   5.399  -0.644   1.146 -0.6114 -0.2269  0.0060
    7CHTO   O48 2738   5.487  -0.693   1.252 -0.0500 -0.4624  0.2626
    7CHTO  H105 2739   5.564  -0.745   1.240  0.7952  0.8176  0.0702
    7CHTO   O38 2740   5.163  -0.282   1.191 -0.2719 -0.8588  0.0720
    7CHTO   C55 2741   5.233  -0.167   1.229 -0.7677 -0.0594 -0.0227
    7CHTO  H112 2742   5.272  -0.169   1.332  1.5657  1.4749 -0.8292
    7CHTO   C56 2743   5.120  -0.054   1.209 -0.2099 -0.1558 -0.4931
    7CHTO  H113 2744   5.085  -0.066   1.105 -0.1769  0.6010 -0.5915
    7CHTO   O42 2745   5.007  -0.072   1.291 -0.3810  0.4563  0.1730
    7CHTO  H100 2746   4.935  -0.101   1.238  1.5517 -2.9963 -0.6850
    7CHTO   C57 2747   5.177   0.096   1.240  0.0772  0.4008  0.6364
    7CHTO  H114 2748   5.217   0.105   1.341 -0.6420  1.3315  0.8380
    7CHTO   N10 2749   5.088   0.212   1.235  0.1719 -0.5618 -0.2582
    7CHTO  H106 2750   5.034   0.233   1.326 -0.3738  1.5748 -1.0460
    7CHTO  H107 2751   5.014   0.196   1.157  0.1462  1.1016 -0.5802
    7CHTO   C58 2752   5.292   0.109   1.136 -0.0684  0.5569 -0.2286
    7CHTO  H115 2753   5.245   0.097   1.037  1.2312 -0.1679 -0.7709
    7CHTO   O37 2754   5.392   0.009   1.162 -0.2470 -0.1382  0.1683
    7CHTO   C59 2755   5.354  -0.129   1.134 -0.1576 -0.2025  0.3563
    7CHTO  H116 2756   5.330  -0.150   1.030  0.8643 -0.1232  0.1023
    7CHTO   C70 2757   5.479  -0.219   1.151 -0.2402  1.3177  0.6907
    7CHTO   O46 2758   5.586  -0.188   1.064 -0.1462 -0.0274  0.1020
    7CHTO  H103 2759   5.630  -0.112   1.096  3.3907 -1.7612 -0.3165
    7CHTO   O39 2760   5.372   0.246   1.143 -0.1866  0.5081  0.0663
    7CHTO   C60 2761   5.498   0.258   1.076  0.6207 -0.2258  0.2270
    7CHTO  H117 2762   5.544   0.159   1.070  2.2685  0.5196  0.3566
    7CHTO   C62 2763   5.475   0.323   0.938 -0.1540  0.4749 -0.0806
    7CHTO  H119 2764   5.396   0.263   0.888  0.2667  1.0522 -1.4660
    7CHTO   O43 2765   5.414   0.454   0.946  0.4768 -0.1299 -0.3469
    7CHTO  H101 2766   5.434   0.505   1.022 -0.9210  0.7119 -0.5158
    7CHTO   C66 2767   5.622   0.321   0.868  0.2745  0.1043 -0.0048
    7CHTO  H123 2768   5.657   0.218   0.874 -0.0385 -0.2177 -3.1009
    7CHTO   N12 2769   5.624   0.359   0.727 -0.4874  0.0643  0.3995
    7CHTO  H110 2770   5.707   0.306   0.682  0.4412  2.1500 -0.3847
    7CHTO  H111 2771   5.629   0.462   0.694  2.5041 -0.3848 -0.6908
    7CHTO   C69 2772   5.730   0.404   0.948  0.7105 -0.2414 -0.7078
    7CHTO  H126 2773   5.705   0.512   0.943 -1.3946 -0.5683  1.8732
    7CHTO   O41 2774   5.736   0.360   1.123  0.2957 -0.0929 -0.1926
    7CHTO   C64 2775   5.586   0.340   1.176 -0.1956  0.2312  0.5163
    7CHTO  H121 2776   5.544   0.439   1.202  0.3164  0.6131 -0.1024
    7CHTO   C71 2777   5.599   0.270   1.314 -0.3363  0.3621 -0.4538
    7CHTO   O47 2778   5.651   0.129   1.318  0.1398  0.1877 -0.1163
    7CHTO  H104 2779   5.590   0.068   1.282 -1.9327  0.9426  1.9776
    7CHTO   O34 2780   5.880   0.341   0.894  0.4469 -0.1489  0.7101
    7CHTO   C49 2781   5.954   0.224   0.853 -0.4172  1.2970  0.4286
    7CHTO   H91 2782   5.898   0.168   0.778  0.6962  0.3053  0.3218
    7CHTO   C47 2783   5.976   0.136   0.976 -0.6991 -0.8178 -0.0625
    7CHTO   H89 2784   6.028   0.047   0.936 -0.1477  0.1682 -1.5640
    7CHTO   O33 2785   5.845   0.094   1.017 -0.3255 -0.0927  0.0133
    7CHTO   H70 2786   5.822   0.004   1.005 -2.0508  0.5335 -1.5808
    7CHTO   C45 2787   6.076   0.203   1.080 -0.5348  0.1214 -0.9340
    7CHTO   H87 2788   6.036   0.304   1.098 -2.0974 -0.3238 -1.8159
    7CHTO    N8 2789   6.091   0.134   1.210  0.2145 -0.3887 -0.3536
    7CHTO   H75 2790   5.990   0.130   1.247  0.3391  1.6446  0.2680
    7CHTO   H76 2791   6.158   0.186   1.277 -0.1176 -0.3156 -0.0784
    7CHTO   C43 2792   6.213   0.235   1.003  0.0254  0.1650 -0.5146
    7CHTO   H85 2793   6.261   0.298   1.078 -0.6246  0.2084 -0.1280
    7CHTO   O29 2794   6.192   0.313   0.886 -0.3240 -0.1655  0.0025
    7CHTO   C50 2795   6.093   0.269   0.796 -0.4310  0.7365  0.8913
    7CHTO   H92 2796   6.076   0.355   0.730  0.1345  0.8716  0.9200
    7CHTO   C54 2797   6.141   0.153   0.701 -0.2301 -0.1217 -0.2377
    7CHTO   O36 2798   6.264   0.177   0.624 -0.0824 -0.3489 -0.2912
    7CHTO   H72 2799   6.332   0.211   0.679  0.0145 -1.7875  0.5141
    7CHTO   O27 2800   6.299   0.124   0.984 -0.4733 -0.1711 -0.2065
    7CHTO   C37 2801   6.425   0.047   0.957  0.2306  0.3033 -0.2818
    7CHTO   H79 2802   6.479   0.026   1.051 -0.0108 -0.5532 -0.3254
    7CHTO   C38 2803   6.391  -0.104   0.917  0.2957 -0.1451 -0.4866
    7CHTO   H80 2804   6.328  -0.107   0.826  0.5867  1.2656 -0.7539
    7CHTO   O31 2805   6.326  -0.156   1.029 -0.5639 -0.2501  0.2923
    7CHTO   H68 2806   6.274  -0.233   1.021  0.9925 -1.2795 -0.2420
    7CHTO   C39 2807   6.532  -0.175   0.881 -0.5468 -0.2133 -0.5851
    7CHTO   H81 2808   6.589  -0.173   0.974  0.4929  0.4133 -1.2307
    7CHTO    N7 2809   6.519  -0.320   0.840 -0.4714 -0.2268 -0.1161
    7CHTO   H73 2810   6.469  -0.321   0.745 -1.3001  0.4772  0.3075
    7CHTO   H74 2811   6.606  -0.382   0.855 -0.6162 -0.2939  0.4741
    7CHTO   C40 2812   6.602  -0.086   0.774 -0.5169 -0.4046  0.6085
    7CHTO   H82 2813   6.542  -0.077   0.684 -0.0525 -2.2223  0.0953
    7CHTO   O26 2814   6.638   0.041   0.833 -0.0396  0.0079 -0.0605
    7CHTO   C41 2815   6.523   0.126   0.860 -0.0302 -0.5340  0.4901
    7CHTO   H83 2816   6.473   0.142   0.763  2.4596 -1.5980 -1.0215
    7CHTO   C52 2817   6.572   0.258   0.918  0.1963  0.4632  0.2937
    7CHTO   O35 2818   6.656   0.240   1.047  0.0573  1.2939 -0.1933
    7CHTO   H71 2819   6.594   0.218   1.114  0.9925 -0.0126  0.2556
    7CHTO   O28 2820   6.726  -0.137   0.719 -0.2582 -0.3018  0.5292
    7CHTO   C42 2821   6.791  -0.073   0.609 -1.4739  0.3610  0.4617
    7CHTO   H84 2822   6.877  -0.140   0.602 -1.9096  0.0559 -2.2082
    7CHTO   C44 2823   6.846   0.069   0.631 -0.4568 -0.4171  0.1550
    7CHTO   H86 2824   6.761   0.138   0.633 -0.5405 -0.3472 -3.1130
    7CHTO   O32 2825   6.920   0.065   0.758 -0.1515 -0.1257 -0.3522
    7CHTO   H69 2826   6.973   0.141   0.772 -1.2970  0.9222 -1.6205
    7CHTO   C48 2827   6.923   0.124   0.509  0.3724  0.3330  0.3743
    7CHTO   H90 2828   7.014   0.066   0.500 -0.3124 -0.4154 -2.0563
    7CHTO    N9 2829   6.964   0.269   0.541 -0.2431  0.3391  0.0599
    7CHTO   H77 2830   6.879   0.326   0.578  0.6816 -0.0472  2.9591
    7CHTO   H78 2831   7.031   0.265   0.626  0.2650  0.6907 -0.3299
    7CHTO   C51 2832   6.837   0.114   0.376 -0.1489 -0.3816 -0.1579
    7CHTO   H93 2833   6.752   0.180   0.390  0.4199  0.2807  0.2163
    7CHTO   O30 2834   6.794  -0.022   0.352 -0.2619 -0.5430 -0.1678
    7CHTO   C46 2835   6.716  -0.086   0.470  0.5787  0.2110  0.3044
    7CHTO   H88 2836   6.624  -0.028   0.473  1.2635  1.4041 -1.0036
    7CHTO   C53 2837   6.698  -0.235   0.426 -0.0097 -0.3256  0.0732
    7CHTO   O72 2838   6.586  -0.297   0.493  0.0799 -0.0879 -1.0480
    7CHTO  H199 2839   6.557  -0.363   0.432  3.1456 -1.2824 -1.2865
    7CHTO   O22 2840   6.912   0.135   0.258  0.7752 -0.7415 -0.1390
    7CHTO   C31 2841   6.850   0.188   0.132  0.0618  0.2354 -0.2710
    7CHTO   H59 2842   6.931   0.189   0.055 -0.7146  0.0368 -1.1035
    7CHTO   C29 2843   6.736   0.107   0.068 -0.4746  0.5142 -0.9269
    7CHTO   H57 2844   6.657   0.095   0.145  1.1666  1.1183  0.8879
    7CHTO   O21 2845   6.787  -0.023   0.030  0.4877 -0.1493 -0.2239
    7CHTO   H37 2846   6.844  -0.029  -0.045 -1.7321  0.9415 -2.0473
    7CHTO   C27 2847   6.661   0.182  -0.053 -0.3968  0.3954  0.5096
    7CHTO   H55 2848   6.732   0.176  -0.137 -3.1853 -1.7505 -1.8157
    7CHTO    N5 2849   6.537   0.118  -0.094 -0.1849 -0.0445  0.0843
    7CHTO   H43 2850   6.524   0.096  -0.199  0.1461 -0.0988  0.0559
    7CHTO   H44 2851   6.531   0.026  -0.037  1.5359 -1.4740 -1.9450
    7CHTO   C25 2852   6.631   0.326  -0.006  0.0372  0.2888  0.1106
    7CHTO   H53 2853   6.568   0.308   0.083  1.4017 -0.5790  0.9291
    7CHTO   O17 2854   6.752   0.392   0.031  0.0186 -0.4524  0.6292
    7CHTO   C32 2855   6.806   0.335   0.151 -0.7963 -0.3500 -0.7547
    7CHTO   H60 2856   6.729   0.337   0.229  1.0359  3.2480  1.0696
    7CHTO   C36 2857   6.931   0.416   0.191  0.2348  0.0700 -0.2614
    7CHTO   O25 2858   6.900   0.520   0.282  0.5914  0.1844  0.8755
    7CHTO   H40 2859   6.897   0.489   0.371  0.0074  0.2837  0.8954
    7CHTO   O15 2860   6.545   0.413  -0.097  0.3919 -0.3078 -0.0987
    7CHTO   C19 2861   6.472   0.536  -0.109  0.0061  0.6788  0.0169
    7CHTO   H47 2862   6.471   0.560  -0.217 -1.0483  1.8464  0.2573
    7CHTO   C20 2863   6.323   0.545  -0.064 -0.3787 -0.0929  0.0404
    7CHTO   H48 2864   6.312   0.501   0.036 -0.0185  2.0468  1.0530
    7CHTO   O19 2865   6.252   0.461  -0.160  0.1701 -0.2497  0.2485
    7CHTO   H35 2866   6.299   0.382  -0.179  3.1011  1.4479  0.1643
    7CHTO   C21 2867   6.254   0.690  -0.070  0.2858 -0.1329 -0.4588
    7CHTO   H49 2868   6.243   0.723  -0.173 -0.5314 -0.2672 -0.4145
    7CHTO    N4 2869   6.120   0.706  -0.006 -0.3002 -0.1410 -0.0006
    7CHTO   H41 2870   6.051   0.640  -0.056 -0.4569  0.0105  0.0147
    7CHTO   H42 2871   6.126   0.672   0.096 -1.0653 -2.0051 -0.5573
    7CHTO   C22 2872   6.357   0.790  -0.003 -0.4469 -0.1661 -0.0411
    7CHTO   H50 2873   6.367   0.758   0.101  0.6596  3.3091  1.0068
    7CHTO   O14 2874   6.488   0.783  -0.068 -0.1538 -0.4622  0.0184
    7CHTO   C23 2875   6.551   0.658  -0.045  0.5454 -0.1554 -0.2694
    7CHTO   H51 2876   6.561   0.647   0.064  0.2816  1.2852 -0.0908
    7CHTO   C34 2877   6.688   0.661  -0.119 -0.9314 -0.1388  0.2996
    7CHTO   O23 2878   6.761   0.774  -0.065  0.9319 -0.0603 -0.1466
    7CHTO   H38 2879   6.843   0.775  -0.110  1.8563  1.4165  1.5124
    7CHTO   O16 2880   6.329   0.933  -0.011 -0.6167  0.5388 -0.2676
    7CHTO   C24 2881   6.384   1.024   0.141 -0.4373 -0.2141  0.1196
    7CHTO   H52 2882   6.448   0.963   0.204  0.2146 -0.4385 -0.7468
    7CHTO   C26 2883   6.258   1.065   0.217 -0.3601  0.0906 -0.0234
    7CHTO   H54 2884   6.189   1.117   0.148 -1.2837 -1.4830 -0.3019
    7CHTO   O20 2885   6.185   0.944   0.246 -0.0651 -0.2843 -0.3804
    7CHTO   H36 2886   6.115   0.954   0.309 -0.5527  2.5901 -1.2955
    7CHTO   C30 2887   6.303   1.151   0.339  0.2871 -0.0591  0.2852
    7CHTO   H58 2888   6.363   1.093   0.410  1.4604  0.3133 -0.3955
    7CHTO    N6 2889   6.183   1.197   0.409 -0.5531  0.3030  0.1499
    7CHTO   H45 2890   6.181   1.150   0.506 -0.6464  2.3059  1.1581
    7CHTO   H46 2891   6.185   1.304   0.422 -0.5103  0.8826 -3.8507
    7CHTO   C33 2892   6.394   1.262   0.288  0.8215  0.0024  0.1414
    7CHTO   H61 2893   6.334   1.325   0.220  1.3394 -1.0213 -1.2712
    7CHTO   O18 2894   6.513   1.219   0.218  1.1323  0.2841  0.5179
    7CHTO   C28 2895   6.466   1.148   0.101  1.2659  0.1215  0.2316
    7CHTO   H56 2896   6.408   1.223   0.047  1.2936  2.1591  2.9184
    7CHTO   C35 2897   6.584   1.096   0.013  0.0912  0.5466  0.4319
    7CHTO   O24 2898   6.658   1.213  -0.036  0.2162  0.1001 -0.1535
    7CHTO   H39 2899   6.741   1.187  -0.072 -0.2626  0.4138 -1.5100
    7CHTO    O9 2900   6.429   1.349   0.401 -0.1769 -0.8421 -0.1754
    7CHTO   C13 2901   6.462   1.504   0.335  0.0249 -0.2883 -0.6034
    7CHTO   H26 2902   6.430   1.513   0.229 -0.0267  1.7437 -0.4279
    7CHTO   C11 2903   6.612   1.529   0.352 -0.2244 -0.0154  0.7592
    7CHTO   H24 2904   6.672   1.455   0.297 -0.1589  2.0177 -2.0041
    7CHTO    O8 2905   6.646   1.518   0.493 -0.5219  0.2692 -0.0363
    7CHTO    H3 2906   6.647   1.429   0.522  0.7472  0.5959  0.9721
    7CHTO    C9 2907   6.635   1.679   0.298  0.1469 -0.2395 -0.4310
    7CHTO   H22 2908   6.600   1.676   0.194  0.1451 -2.0571 -0.3958
    7CHTO    N2 2909   6.774   1.711   0.294  0.0938  0.0376 -0.2836
    7CHTO   H10 2910   6.830   1.637   0.239  1.8315  1.4637 -0.4770
    7CHTO   H11 2911   6.798   1.811   0.263  0.9990  0.1930  0.9105
    7CHTO    C7 2912   6.533   1.782   0.372  0.6238  0.5849  0.9306
    7CHTO   H20 2913   6.473   1.818   0.285 -1.6080  0.5460  2.4246
    7CHTO    O4 2914   6.451   1.717   0.464  0.4670 -0.0380  0.1424
    7CHTO   C14 2915   6.370   1.615   0.414 -0.4088 -0.2580  0.5076
    7CHTO   H27 2916   6.299   1.669   0.348  1.7998 -0.8968 -2.4448
    7CHTO   C18 2917   6.285   1.566   0.536 -0.2605 -0.2321 -0.3985
    7CHTO   O13 2918   6.184   1.663   0.574  0.1607 -0.2817  0.3596
    7CHTO    H7 2919   6.208   1.746   0.536 -1.2546  0.7681  1.7269
    7CHTO    O2 2920   6.595   1.926   0.441  0.2542 -0.3795 -0.1559
    7CHTO    C1 2921   6.547   2.061   0.413  0.4928  0.0495  0.0463
    7CHTO   H14 2922   6.570   2.128   0.499 -0.0799  0.7475 -0.3373
    7CHTO    C2 2923   6.387   2.057   0.377  0.0982  0.2176  0.2890
    7CHTO   H15 2924   6.387   1.990   0.289  1.3350  0.9596 -0.2939
    7CHTO    O6 2925   6.317   2.003   0.490 -0.0651  0.4565  0.6607
    7CHTO    H1 2926   6.224   2.007   0.485 -0.0253  0.0143 -0.5318
    7CHTO    C3 2927   6.340   2.207   0.323  0.3159  0.0180  0.4921
    7CHTO   H16 2928   6.337   2.273   0.411 -1.1844  0.4897  0.1012
    7CHTO    N1 2929   6.197   2.202   0.271  0.6794  0.5304  0.5903
    7CHTO    H8 2930   6.137   2.284   0.307 -0.0608  0.8567 -1.3210
    7CHTO    H9 2931   6.144   2.112   0.300  2.6718 -0.6366  0.7324
    7CHTO    C4 2932   6.451   2.266   0.223 -0.0817  1.0169 -0.1418
    7CHTO   H17 2933   6.457   2.199   0.137  2.6268 -0.1111  0.8667
    7CHTO    O1 2934   6.579   2.263   0.287 -0.7512  0.3376 -0.5418
    7CHTO    C5 2935   6.628   2.126   0.305  0.3199  0.0572  0.5595
    7CHTO   H18 2936   6.603   2.076   0.212  0.7937  0.8393 -0.0026
    7CHTO   C16 2937   6.783   2.127   0.332 -0.4656 -0.1073  0.3816
    7CHTO   O11 2938   6.842   2.151   0.198 -0.1107  0.1143 -0.5907
    7CHTO    H5 2939   6.827   2.084   0.134 -0.6185 -1.3206  1.0065
    7CHTO    O3 2940   6.414   2.394   0.184  0.1800 -0.3020 -0.2321
    7CHTO    C6 2941   6.455   2.450   0.059 -0.2921 -0.1093  0.2269
    7CHTO   H19 2942   6.511   2.381  -0.004  0.1701  0.0080  0.5102
    7CHTO    C8 2943   6.324   2.479  -0.020 -0.3887 -0.9401 -0.1486
    7CHTO   H21 2944   6.259   2.535   0.048 -0.9184 -1.3950 -0.2757
    7CHTO    O7 2945   6.258   2.355  -0.045  0.1961 -0.9255 -0.1129
    7CHTO    H2 2946   6.231   2.308   0.031  3.0165 -4.5408 -1.2177
    7CHTO   C12 2947   6.354   2.568  -0.152 -0.3087  0.1449  0.2533
    7CHTO   H25 2948   6.406   2.492  -0.215  0.1872  0.8579 -0.2002
    7CHTO    N3 2949   6.229   2.610  -0.222  0.7402 -0.8551  0.2138
    7CHTO   H12 2950   6.211   2.546  -0.307 -0.0195  0.1241 -0.3675
    7CHTO   H13 2951   6.244   2.707  -0.266 -3.5493  0.1302  0.6821
    7CHTO   C15 2952   6.459   2.677  -0.128 -0.1423 -1.0464  0.3002
    7CHTO   H28 2953   6.406   2.753  -0.072 -1.5882 -0.3042 -2.0133
    7CHTO   O10 2954   6.516   2.734  -0.272  0.0281 -0.4249  0.2619
    7CHTO    H4 2955   6.582   2.801  -0.262  1.1154 -1.1356 -1.9608
    7CHTO    O5 2956   6.575   2.634  -0.057 -0.4725 -0.3419  0.0437
    7CHTO   C10 2957   6.539   2.578   0.070  0.1084  0.9108  0.4170
    7CHTO   H23 2958   6.489   2.650   0.135  0.1713  0.5671  0.8506
    7CHTO   C17 2959   6.665   2.547   0.151  0.1198 -0.4541  0.0013
    7CHTO   O12 2960   6.760   2.452   0.106 -0.4804 -0.1822 -0.3581
    7CHTO    H6 2961   6.850   2.475   0.117 -0.3870  0.7812 -2.7369
    8CHTO  H203 2962   7.251   7.076   1.516  0.0601  0.4638 -2.3791
    8CHTO   O82 2963   7.176   7.030   1.484 -0.0754 -0.8275 -0.2860
    8CHTO  C123 2964   7.077   7.126   1.432 -0.1442  0.3861 -0.3474
    8CHTO  H227 2965   7.113   7.175   1.340  0.1843  0.8408  0.0234
    8CHTO   O77 2966   6.971   7.037   1.407  0.4113 -0.5391 -0.6773
    8CHTO  C118 2967   6.850   7.094   1.358 -0.4261  0.9040  0.1258
    8CHTO  H222 2968   6.875   7.152   1.268  2.9713 -0.6366  0.0009
    8CHTO  C125 2969   6.768   6.962   1.325 -0.8557 -1.0630 -0.3210
    8CHTO   O84 2970   6.633   6.999   1.285  0.4197  0.1102 -0.4429
    8CHTO  H205 2971   6.570   6.937   1.317  0.3899  1.0803  1.4418
    8CHTO  C114 2972   6.789   7.184   1.469  0.3689 -0.3029 -0.3929
    8CHTO  H218 2973   6.758   7.123   1.555  2.0945  0.6570  0.9256
    8CHTO  C116 2974   6.897   7.290   1.520  0.1351  0.0872  0.6393
    8CHTO  H220 2975   6.889   7.366   1.440 -2.1073 -0.6106  0.1494
    8CHTO   O79 2976   6.850   7.352   1.642  0.3393 -0.1377  0.0667
    8CHTO  H201 2977   6.769   7.398   1.628 -0.6166 -2.4439 -2.5165
    8CHTO  C120 2978   7.042   7.223   1.542 -0.4198  0.1067  0.4843
    8CHTO  H224 2979   7.027   7.160   1.632  1.7572 -1.2841 -0.0889
    8CHTO   N21 2980   7.143   7.326   1.562 -0.2068 -0.6215  0.0023
    8CHTO  H211 2981   7.156   7.342   1.668 -2.4232  0.8236  0.1111
    8CHTO  H212 2982   7.233   7.316   1.504  0.2427 -1.3062  0.7989
    8CHTO   O75 2983   6.671   7.239   1.414  0.1234  0.0138  0.1080
    8CHTO  C112 2984   6.598   7.374   1.499 -0.4160 -0.1264  0.2353
    8CHTO  H216 2985   6.670   7.456   1.502 -1.9098  1.2322 -0.3649
    8CHTO   O73 2986   6.564   7.326   1.631 -0.6032  0.2007  0.5178
    8CHTO  C113 2987   6.502   7.424   1.715  0.9695  0.1050  0.2665
    8CHTO  H217 2988   6.568   7.511   1.735 -0.0472  0.9522 -0.0209
    8CHTO  C124 2989   6.479   7.357   1.854 -0.6846 -0.4832  0.1897
    8CHTO   O83 2990   6.453   7.447   1.964  0.3136 -0.1970  0.0926
    8CHTO  H204 2991   6.463   7.409   2.049 -0.1983 -2.0592 -0.6463
    8CHTO  C109 2992   6.375   7.493   1.663 -0.3592  0.6347  0.0797
    8CHTO  H213 2993   6.294   7.421   1.677  0.6008 -0.6666 -0.9713
    8CHTO  C110 2994   6.398   7.529   1.515  0.9481 -0.4612  0.4921
    8CHTO  H214 2995   6.459   7.619   1.514  1.2999 -0.7045 -0.7853
    8CHTO   O78 2996   6.273   7.557   1.455  0.6024  0.0988  0.4512
    8CHTO  H200 2997   6.236   7.631   1.497  0.9809 -0.5040  1.8905
    8CHTO  C111 2998   6.472   7.431   1.424  0.2140  0.3938  0.1941
    8CHTO  H215 2999   6.406   7.345   1.407 -2.0136  2.1064 -0.1133
    8CHTO   N19 3000   6.513   7.487   1.291 -0.3543 -0.3946 -0.4945
    8CHTO  H207 3001   6.444   7.562   1.256 -0.1875  0.0839  0.2002
    8CHTO  H208 3002   6.520   7.408   1.218 -0.2006 -0.3338 -0.5452
    8CHTO   O74 3003   6.348   7.618   1.733 -0.2630 -0.1188  0.6456
    8CHTO  C115 3004   6.192   7.649   1.774 -0.2598 -0.3628  0.5014
    8CHTO  H219 3005   6.129   7.563   1.749  0.1164  0.2974 -3.0027
    8CHTO   O76 3006   6.173   7.675   1.920 -0.4267 -0.1896 -0.3673
    8CHTO  C122 3007   6.238   7.789   1.973  0.3608 -0.5126 -0.3714
    8CHTO  H226 3008   6.345   7.770   1.984  0.2734  0.4711  2.7679
    8CHTO  C126 3009   6.188   7.801   2.119  1.1347 -0.0039  0.7521
    8CHTO   O85 3010   6.039   7.783   2.126  0.0680  0.7518 -0.5511
    8CHTO  H206 3011   6.029   7.716   2.191 -1.2882  1.4014 -0.0580
    8CHTO  C121 3012   6.215   7.917   1.886 -0.0182 -0.3270 -0.8593
    8CHTO  H225 3013   6.110   7.949   1.904  0.4060 -0.2917  1.7422
    8CHTO   O81 3014   6.307   8.028   1.918 -0.4011  0.0225  0.1891
    8CHTO  H202 3015   6.285   8.101   1.863 -0.7301  0.2105  0.5676
    8CHTO  C119 3016   6.236   7.894   1.734 -0.3495  0.3199  0.2168
    8CHTO  H223 3017   6.200   7.989   1.695  1.5937  0.9472 -0.0686
    8CHTO  C117 3018   6.151   7.777   1.682 -0.1154 -0.9006 -0.2286
    8CHTO  H221 3019   6.183   7.751   1.581  1.1486 -0.6750  0.1123
    8CHTO   N20 3020   6.003   7.802   1.679  0.0568  0.2574 -0.0307
    8CHTO  H209 3021   5.953   7.712   1.645 -0.1002 -0.1468  1.2321
    8CHTO  H210 3022   5.978   7.811   1.784  0.3668 -0.4579  0.1042
    8CHTO   O80 3023   6.397   7.902   1.700 -0.2291 -0.1001  0.6950
    8CHTO  C103 3024   6.466   8.034   1.654  0.2863 -0.1478 -0.3219
    8CHTO  H190 3025   6.409   8.122   1.685  0.1283 -1.1698  2.4959
    8CHTO  C101 3026   6.617   8.053   1.712  0.3300 -0.3246  0.1822
    8CHTO  H188 3027   6.676   7.965   1.689 -0.9209 -0.6177 -2.0401
    8CHTO   O68 3028   6.612   8.082   1.867 -0.3399 -0.1620 -0.3021
    8CHTO  H168 3029   6.651   8.013   1.917  0.0006  0.0266 -0.3109
    8CHTO   C99 3030   6.695   8.160   1.611  0.0101 -0.2055  0.5309
    8CHTO  H186 3031   6.646   8.258   1.626 -1.3190 -0.7193 -0.3627
    8CHTO   N17 3032   6.840   8.173   1.652  0.2213  0.0539  0.2158
    8CHTO  H174 3033   6.883   8.080   1.684  1.5831  0.7986  0.6158
    8CHTO  H175 3034   6.895   8.214   1.568  0.6867  1.0980  1.0089
    8CHTO   C97 3035   6.666   8.128   1.463 -0.4477  0.7098  0.0332
    8CHTO  H184 3036   6.707   8.026   1.455 -1.8807  0.1724 -0.6917
    8CHTO   O64 3037   6.525   8.136   1.434 -0.0228  0.2675 -0.0330
    8CHTO  C104 3038   6.454   8.027   1.495 -0.0342 -0.2427 -0.3087
    8CHTO  H191 3039   6.503   7.935   1.461 -0.1238 -0.4490  0.1131
    8CHTO  C108 3040   6.311   8.028   1.444  0.4489 -0.0322  0.3189
    8CHTO   O71 3041   6.291   7.976   1.313 -0.5998 -0.3773 -0.1460
    8CHTO  H171 3042   6.292   7.885   1.335 -1.3487 -0.4246 -0.2895
    8CHTO   O62 3043   6.728   8.228   1.374  0.1185  0.1906  0.0093
    8CHTO   C91 3044   6.835   8.184   1.284 -0.6517 -0.1238 -0.1934
    8CHTO  H178 3045   6.874   8.100   1.343  2.4300  2.2980  1.3642
    8CHTO   C92 3046   6.949   8.284   1.285  0.4193  0.3443 -0.0972
    8CHTO  H179 3047   6.967   8.320   1.387 -0.1706  1.0170 -0.2278
    8CHTO   O66 3048   7.065   8.212   1.247  0.3812  0.2414  0.0043
    8CHTO  H166 3049   7.081   8.145   1.310  0.8807  1.0522  0.7416
    8CHTO   C93 3050   6.922   8.394   1.172 -0.1381  0.3676 -1.1565
    8CHTO  H180 3051   7.026   8.428   1.158 -0.0299  0.0347 -1.1815
    8CHTO   N16 3052   6.838   8.507   1.230  0.7891  0.2219  0.2894
    8CHTO  H172 3053   6.796   8.573   1.156 -1.3877  0.6863  1.8721
    8CHTO  H173 3054   6.892   8.567   1.302 -0.2596  1.7693 -0.1757
    8CHTO   C94 3055   6.868   8.338   1.036  0.4016  0.7139  0.9329
    8CHTO  H181 3056   6.764   8.366   1.018 -0.0895  0.0374  2.5655
    8CHTO   O61 3057   6.869   8.191   1.033  0.2592 -0.1387  1.1604
    8CHTO   C95 3058   6.780   8.141   1.139 -0.2224 -0.0488 -0.9097
    8CHTO  H182 3059   6.685   8.195   1.141  0.0634  0.4485  3.1286
    8CHTO  C106 3060   6.759   7.992   1.122  0.0080  0.1427 -0.0121
    8CHTO   O69 3061   6.695   7.937   1.003 -0.7001  0.0404  0.3405
    8CHTO  H169 3062   6.725   7.961   0.918 -0.3782 -0.2550  0.3725
    8CHTO   O63 3063   6.963   8.391   0.909  0.4776  0.5049  0.1815
    8CHTO   C96 3064   6.908   8.380   0.770  1.1147  0.3924  0.3531
    8CHTO  H183 3065   6.815   8.324   0.781 -1.1125  3.8333 -0.3516
    8CHTO   C98 3066   6.995   8.297   0.675 -0.3288 -0.3309  0.1240
    8CHTO  H185 3067   7.091   8.349   0.671 -0.0612 -0.7074  1.2722
    8CHTO   O67 3068   7.024   8.160   0.717 -0.2944 -0.1343  0.0395
    8CHTO  H167 3069   7.062   8.166   0.802 -2.0874 -1.2633  0.9527
    8CHTO  C102 3070   6.938   8.288   0.523 -0.4841  0.5632  0.0801
    8CHTO  H189 3071   6.858   8.212   0.524  0.5411 -0.5385  0.9149
    8CHTO   N18 3072   7.029   8.233   0.421  0.1186 -0.7487  0.1179
    8CHTO  H176 3073   7.129   8.206   0.452  1.6165  0.9573 -3.1208
    8CHTO  H177 3074   7.043   8.303   0.341 -0.5721  2.1584  2.4746
    8CHTO  C105 3075   6.874   8.428   0.479 -0.7394 -0.3202  0.4843
    8CHTO  H192 3076   6.951   8.484   0.426 -1.8560 -0.7150 -1.6546
    8CHTO   O65 3077   6.815   8.509   0.586  0.0395  0.0133  0.2861
    8CHTO  C100 3078   6.893   8.519   0.708  0.1400  0.7698  0.0556
    8CHTO  H187 3079   6.994   8.556   0.687  0.9785 -1.4816  0.0272
    8CHTO  C107 3080   6.817   8.637   0.785 -0.5018 -0.0089  0.1220
    8CHTO   O70 3081   6.899   8.660   0.898  0.2374 -0.0782  0.7173
    8CHTO  H170 3082   6.846   8.690   0.969  2.3137 -0.1980  2.3683
    8CHTO   O57 3083   6.763   8.372   0.371  1.3080 -0.4514 -0.2734
    8CHTO   C85 3084   6.731   8.451   0.256  0.9287 -0.1962  0.4078
    8CHTO  H157 3085   6.826   8.457   0.199  0.6204  1.9855  0.1090
    8CHTO   C83 3086   6.694   8.594   0.300  0.9729 -0.0012  0.1387
    8CHTO  H155 3087   6.782   8.641   0.344  1.5622  0.1726 -1.1668
    8CHTO   O56 3088   6.598   8.583   0.403 -0.5824 -0.4893 -0.0181
    8CHTO  H135 3089   6.586   8.670   0.434  1.1459  0.2992 -1.4154
    8CHTO   C81 3090   6.653   8.674   0.179  0.7428 -0.9465 -0.5578
    8CHTO  H153 3091   6.729   8.665   0.102  0.6740  3.1882 -1.2427
    8CHTO   N14 3092   6.644   8.819   0.199  0.0213 -0.2262  0.0722
    8CHTO  H141 3093   6.553   8.848   0.246 -0.1881 -1.5279  0.4768
    8CHTO  H142 3094   6.722   8.863   0.258 -0.2508  2.0225 -1.1679
    8CHTO   C79 3095   6.514   8.606   0.132  0.6485 -0.1675 -0.3474
    8CHTO  H151 3096   6.478   8.658   0.043 -1.5881  1.4249  1.4356
    8CHTO   O52 3097   6.525   8.466   0.084 -0.0324 -0.3860 -0.2687
    8CHTO   C86 3098   6.606   8.383   0.165 -0.4274  0.1689 -0.0573
    8CHTO  H158 3099   6.521   8.334   0.217  0.6432 -1.0957  0.5372
    8CHTO   C90 3100   6.661   8.283   0.071  0.2795  0.0677 -0.5965
    8CHTO   O60 3101   6.745   8.343  -0.030 -0.1780  0.1793 -0.3668
    8CHTO  H138 3102   6.807   8.279  -0.059  0.5291  0.0799  1.3274
    8CHTO   O50 3103   6.406   8.618   0.227 -0.1713 -0.3382 -0.4753
    8CHTO   C73 3104   6.286   8.662   0.173  0.5366 -0.4177 -0.1362
    8CHTO  H145 3105   6.266   8.622   0.073 -2.7301  0.1258  0.2381
    8CHTO   C74 3106   6.280   8.816   0.157 -0.8634 -0.4796  0.0665
    8CHTO  H146 3107   6.369   8.835   0.094  0.2084 -1.3792  1.2786
    8CHTO   O54 3108   6.169   8.857   0.084 -0.7202 -0.2787  0.6964
    8CHTO  H133 3109   6.084   8.841   0.119 -0.2299 -0.1267  1.9538
    8CHTO   C75 3110   6.289   8.885   0.299  0.0339  0.4834  0.4489
    8CHTO  H147 3111   6.386   8.858   0.344 -0.3954 -1.0527  0.4623
    8CHTO   N13 3112   6.282   9.032   0.292  0.2515  0.2217  0.2034
    8CHTO  H139 3113   6.359   9.062   0.221  0.0808  1.5071  0.5382
    8CHTO  H140 3114   6.301   9.071   0.391 -2.0403 -1.9831  1.5623
    8CHTO   C76 3115   6.174   8.825   0.397 -0.2185  0.2610 -0.1113
    8CHTO  H148 3116   6.077   8.865   0.369 -0.3199  1.6111  2.0060
    8CHTO   O49 3117   6.171   8.683   0.399  0.2794  0.5834 -0.2562
    8CHTO   C77 3118   6.169   8.615   0.270 -0.1870  0.0031 -0.0006
    8CHTO  H149 3119   6.073   8.646   0.228 -0.4008 -0.5595  0.0738
    8CHTO   C88 3120   6.163   8.467   0.307  0.0097  0.7629  0.0405
    8CHTO   O58 3121   6.160   8.396   0.197  0.6922 -0.6073  0.0203
    8CHTO  H136 3122   6.218   8.325   0.216  0.8350 -0.5884 -0.3409
    8CHTO   O51 3123   6.215   8.870   0.542 -0.0912 -0.2481 -0.5503
    8CHTO   C78 3124   6.139   8.813   0.668  0.3094 -0.7684 -0.4439
    8CHTO  H150 3125   6.078   8.722   0.650  1.0211 -0.9023 -2.2560
    8CHTO   C80 3126   6.050   8.930   0.720 -0.1813 -0.1615  0.1457
    8CHTO  H152 3127   6.110   9.023   0.715  0.7635 -0.7787 -0.1949
    8CHTO   O55 3128   5.940   8.932   0.625 -0.2836 -0.2940 -0.1775
    8CHTO  H134 3129   5.878   9.002   0.632 -1.0787 -1.1031  1.0217
    8CHTO   C84 3130   5.985   8.913   0.864 -0.6898 -0.3382 -0.0654
    8CHTO  H156 3131   5.922   8.825   0.861 -0.7811 -0.3887  2.2805
    8CHTO   N15 3132   5.898   9.026   0.918  0.1061  0.0340  0.1800
    8CHTO  H143 3133   5.831   9.066   0.844  2.2248 -1.4859 -2.6338
    8CHTO  H144 3134   5.837   8.998   1.001 -1.6134  0.6847 -0.8259
    8CHTO   C87 3135   6.106   8.879   0.962 -0.3189 -0.0460 -0.4484
    8CHTO  H159 3136   6.173   8.965   0.955  1.2465 -1.2175 -0.1526
    8CHTO   O53 3137   6.177   8.741   0.892  0.3346  0.5276 -0.2246
    8CHTO   C82 3138   6.246   8.774   0.771 -0.2286  0.2157  0.4395
    8CHTO  H154 3139   6.309   8.862   0.787  0.1355  0.0759 -0.2107
    8CHTO   C89 3140   6.332   8.662   0.714  0.0924 -0.4781 -0.3788
    8CHTO   O59 3141   6.441   8.618   0.799 -0.2853  0.4886  0.0118
    8CHTO  H137 3142   6.415   8.538   0.842 -1.3393  1.9448  2.1428
    8CHTO   O45 3143   6.054   8.852   1.117  0.2474  0.1288  0.0260
    8CHTO   C67 3144   6.147   8.873   1.230  0.2844  0.2298  0.1362
    8CHTO  H124 3145   6.098   8.831   1.317  0.5066 -0.7898 -0.2232
    8CHTO   C65 3146   6.289   8.804   1.203 -0.0790  0.0429 -0.0288
    8CHTO  H122 3147   6.279   8.740   1.114  2.3924 -2.4630  1.4122
    8CHTO   O44 3148   6.311   8.721   1.324  0.5780 -0.0216  0.0019
    8CHTO  H102 3149   6.370   8.654   1.294 -0.6094 -0.5021 -1.3078
    8CHTO   C63 3150   6.397   8.910   1.162 -0.3654  0.2696  0.5684
    8CHTO  H120 3151   6.354   8.969   1.081 -2.6100 -1.1729  0.6683
    8CHTO   N11 3152   6.526   8.861   1.108 -0.2246 -0.3115  0.4982
    8CHTO  H108 3153   6.554   8.776   1.166  0.2519 -0.0697  0.6264
    8CHTO  H109 3154   6.586   8.950   1.099 -2.6269  1.3126 -0.0775
    8CHTO   C61 3155   6.410   9.010   1.281 -0.3784  0.0262 -0.3548
    8CHTO  H118 3156   6.459   9.097   1.235 -1.0679  1.5305  1.6591
    8CHTO   O40 3157   6.287   9.058   1.329 -0.1175 -0.2504  0.4357
    8CHTO   C68 3158   6.165   9.032   1.251 -0.0224 -0.0004 -0.1216
    8CHTO  H125 3159   6.160   9.086   1.154 -0.0656 -0.0594 -0.1513
    8CHTO   C72 3160   6.048   9.090   1.341  0.0556  0.4956 -0.0309
    8CHTO   O48 3161   6.011   9.031   1.469  0.8137  0.2911 -0.0909
    8CHTO  H105 3162   6.003   8.937   1.469  1.0076  0.2671  1.1803
    8CHTO   O38 3163   6.484   8.954   1.398 -0.1613  0.2273 -0.1929
    8CHTO   C55 3164   6.536   9.058   1.487  0.3673 -0.0285 -0.6374
    8CHTO  H112 3165   6.512   9.152   1.436  4.0379  1.4828  0.3342
    8CHTO   C56 3166   6.690   9.038   1.505  0.6353 -0.6343 -0.3092
    8CHTO  H113 3167   6.728   9.045   1.402  0.5713  1.1276 -0.2323
    8CHTO   O42 3168   6.744   9.152   1.579  0.5443  0.0815  0.2996
    8CHTO  H100 3169   6.689   9.158   1.655  0.2427  2.1319 -0.0458
    8CHTO   C57 3170   6.729   8.899   1.580  0.2701  1.0791  0.5386
    8CHTO  H114 3171   6.807   8.920   1.652  0.1418  1.5014  0.5545
    8CHTO   N10 3172   6.795   8.797   1.493  0.3087 -0.9007  0.3608
    8CHTO  H106 3173   6.790   8.819   1.388 -0.3255 -1.6381  0.2340
    8CHTO  H107 3174   6.899   8.781   1.518  0.3132 -0.4242  0.6673
    8CHTO   C58 3175   6.603   8.854   1.658  0.1751  0.4333 -0.0123
    8CHTO  H115 3176   6.529   8.816   1.585  0.2983  0.0283  0.0698
    8CHTO   O37 3177   6.531   8.973   1.725  0.1752 -0.6021 -0.4987
    8CHTO   C59 3178   6.466   9.057   1.633 -0.1301 -0.4020  0.2984
    8CHTO  H116 3179   6.364   9.020   1.618 -0.4675  0.6985 -0.2120
    8CHTO   C70 3180   6.448   9.204   1.690 -0.5733 -0.0975 -0.0618
    8CHTO   O46 3181   6.346   9.274   1.620 -0.4344  0.7314  0.0046
    8CHTO  H103 3182   6.259   9.266   1.656 -0.3025  0.8157  0.3422
    8CHTO   O39 3183   6.622   8.752   1.757 -0.4121  0.1038  0.3453
    8CHTO   C60 3184   6.512   8.657   1.767  0.1841 -0.3609 -0.4962
    8CHTO  H117 3185   6.424   8.716   1.793 -0.5885 -2.1763  1.1437
    8CHTO   C62 3186   6.483   8.570   1.639  0.4594  0.3888  0.4003
    8CHTO  H119 3187   6.464   8.645   1.559 -1.5580  2.6181  2.8656
    8CHTO   O43 3188   6.605   8.515   1.591  0.6164  0.6394 -0.1382
    8CHTO  H101 3189   6.673   8.579   1.582  2.0359 -0.7759  0.2898
    8CHTO   C66 3190   6.358   8.479   1.677 -0.5324  0.5317 -0.7720
    8CHTO  H123 3191   6.275   8.547   1.696 -0.2785  1.6378 -3.4300
    8CHTO   N12 3192   6.306   8.410   1.559  0.2540 -0.2666  0.1093
    8CHTO  H110 3193   6.371   8.343   1.505  2.6998  0.6994  1.7537
    8CHTO  H111 3194   6.206   8.378   1.582 -0.2477  2.7188  2.4076
    8CHTO   C69 3195   6.384   8.395   1.807 -0.4347  0.0898  0.2918
    8CHTO  H126 3196   6.466   8.322   1.790 -1.0169 -0.0706 -2.0211
    8CHTO   O41 3197   6.411   8.475   1.911  0.7011 -0.3107  0.3284
    8CHTO   C64 3198   6.539   8.561   1.889  0.0282  0.1013  0.0729
    8CHTO  H121 3199   6.620   8.489   1.863  0.0606  0.2794 -0.3214
    8CHTO   C71 3200   6.576   8.640   2.013 -0.2045  0.3205  0.1356
    8CHTO   O47 3201   6.716   8.678   2.008 -0.1268  0.2945  0.5038
    8CHTO  H104 3202   6.745   8.725   2.084  1.3186 -0.6067  0.5198
    8CHTO   O34 3203   6.230   8.293   1.849 -0.3285  0.3005 -0.5276
    8CHTO   C49 3204   6.132   8.365   1.981 -0.0433  0.2390  0.5622
    8CHTO   H91 3205   6.189   8.352   2.074  1.9790  0.4567 -0.6088
    8CHTO   C47 3206   6.004   8.273   1.991  0.5686 -0.8082 -0.8612
    8CHTO   H89 3207   5.945   8.322   2.071 -0.4915 -1.5989 -1.1545
    8CHTO   O33 3208   6.033   8.145   2.039 -0.0433  0.7117 -0.2764
    8CHTO   H70 3209   5.985   8.138   2.120  0.7387 -0.7992  0.0843
    8CHTO   C45 3210   5.932   8.276   1.848  0.1371  0.1318 -0.6216
    8CHTO   H87 3211   5.991   8.203   1.791 -0.4202  0.1998 -1.2978
    8CHTO    N8 3212   5.791   8.222   1.864  0.3519  0.2768 -0.1372
    8CHTO   H75 3213   5.786   8.130   1.808  0.8336 -0.2143  0.6252
    8CHTO   H76 3214   5.722   8.291   1.817 -0.0047  1.0690  1.5368
    8CHTO   C43 3215   5.948   8.424   1.782 -0.5738 -0.2470  0.0034
    8CHTO   H85 3216   6.039   8.415   1.722  0.3027  1.0872  1.0775
    8CHTO   O29 3217   5.970   8.524   1.888  0.0589  0.5756  1.0080
    8CHTO   C50 3218   6.096   8.511   1.951 -0.0010  0.3225  0.0389
    8CHTO   H92 3219   6.168   8.551   1.879  1.0572  0.5865  1.2139
    8CHTO   C54 3220   6.097   8.604   2.067 -0.2405  0.0788 -0.0027
    8CHTO   O36 3221   5.993   8.578   2.158  0.2837 -0.0339 -0.4113
    8CHTO   H72 3222   5.998   8.645   2.224  0.6127 -1.1423  0.7060
    8CHTO   O27 3223   5.859   8.458   1.676  0.1050 -0.1672  0.1217
    8CHTO   C37 3224   5.788   8.576   1.625  0.0893 -0.1430  0.3707
    8CHTO   H79 3225   5.740   8.554   1.528 -0.4429 -1.2291  0.8652
    8CHTO   C38 3226   5.667   8.601   1.718  0.0543 -0.4283 -0.5820
    8CHTO   H80 3227   5.703   8.609   1.822 -0.6609  0.6936 -0.4057
    8CHTO   O31 3228   5.595   8.482   1.705 -0.0878 -0.3322 -0.4225
    8CHTO   H68 3229   5.524   8.495   1.765  1.5150  2.9739  0.8842
    8CHTO   C39 3230   5.583   8.729   1.667 -0.1767 -0.7844  0.3148
    8CHTO   H81 3231   5.536   8.706   1.571 -1.0826  0.2647  0.4958
    8CHTO    N7 3232   5.478   8.767   1.763  0.2521  0.3021 -0.3717
    8CHTO   H73 3233   5.388   8.809   1.721 -0.4088 -0.5690  0.1384
    8CHTO   H74 3234   5.440   8.677   1.810  0.0965  1.1646  1.2096
    8CHTO   C40 3235   5.680   8.855   1.640  0.1000 -0.6367  0.1164
    8CHTO   H82 3236   5.716   8.889   1.737  0.3791  0.2650 -0.2936
    8CHTO   O26 3237   5.791   8.813   1.555 -0.0056  0.7385  0.1340
    8CHTO   C41 3238   5.869   8.705   1.612  0.2539  0.1809 -0.1293
    8CHTO   H83 3239   5.890   8.726   1.718 -0.9479 -2.1893  0.6300
    8CHTO   C52 3240   6.005   8.681   1.539 -0.5580  0.9659  0.3132
    8CHTO   O35 3241   6.117   8.790   1.578 -0.2039  0.3188 -0.2342
    8CHTO   H71 3242   6.100   8.863   1.520  0.2120  1.2419  0.7937
    8CHTO   O28 3243   5.611   8.969   1.583  0.4151 -0.0610 -0.6953
    8CHTO   C42 3244   5.516   8.988   1.470  0.2869 -0.1522  0.1344
    8CHTO   H84 3245   5.523   9.094   1.443 -0.0416 -0.7834 -2.5832
    8CHTO   C44 3246   5.366   8.963   1.497 -0.4213  0.6177  0.9214
    8CHTO   H86 3247   5.351   8.855   1.503  0.4412  0.4883  0.9021
    8CHTO   O32 3248   5.316   9.016   1.618 -0.4857 -0.5601 -0.1017
    8CHTO   H69 3249   5.358   8.988   1.697  1.2008  0.1833 -0.7141
    8CHTO   C48 3250   5.286   9.022   1.367 -0.1048  0.1960  0.0854
    8CHTO   H90 3251   5.311   9.126   1.345 -1.0633  0.5848  0.8082
    8CHTO    N9 3252   5.134   9.016   1.389  0.2143  0.1077  0.5592
    8CHTO   H77 3253   5.110   8.998   1.492 -0.1400  1.6315  0.7645
    8CHTO   H78 3254   5.092   9.113   1.367 -0.3736 -0.5671 -1.4388
    8CHTO   C51 3255   5.324   8.940   1.243 -0.1683  0.6835  0.4390
    8CHTO   H93 3256   5.288   8.839   1.263 -1.2875  0.8707 -0.6334
    8CHTO   O30 3257   5.465   8.946   1.230 -0.0802 -0.2141  0.2898
    8CHTO   C46 3258   5.555   8.909   1.342  0.0511 -0.0899 -0.0020
    8CHTO   H88 3259   5.552   8.802   1.363 -1.9697 -0.4978 -2.1321
    8CHTO   C53 3260   5.704   8.930   1.290 -0.8417  0.0720  0.3750
    8CHTO   O72 3261   5.727   9.064   1.252  0.0120  0.5290  0.5871
    8CHTO  H199 3262   5.698   9.130   1.312 -1.4755 -0.6508  1.2000
    8CHTO   O22 3263   5.264   9.000   1.127  0.4454  0.3259 -0.9196
    8CHTO   C31 3264   5.283   8.939   1.000 -0.8609 -0.5264 -0.0895
    8CHTO   H59 3265   5.210   8.985   0.930  0.9377 -0.9812 -2.3491
    8CHTO   C29 3266   5.420   8.957   0.937 -0.6564  0.0238  0.1152
    8CHTO   H57 3267   5.501   8.920   1.001 -2.1926 -1.2172  1.3767
    8CHTO   O21 3268   5.441   9.101   0.923  0.2794  0.0528  0.0239
    8CHTO   H37 3269   5.528   9.123   0.896  0.5660  0.1664  1.0150
    8CHTO   C27 3270   5.432   8.887   0.797 -0.8720  0.3649 -0.5177
    8CHTO   H55 3271   5.367   8.948   0.733 -1.5129 -0.5444 -0.7400
    8CHTO    N5 3272   5.574   8.898   0.748  0.0035 -0.1204 -0.7333
    8CHTO   H43 3273   5.654   8.884   0.818  1.2481  2.8516 -1.5024
    8CHTO   H44 3274   5.592   8.955   0.658  0.2860 -1.3372 -1.4710
    8CHTO   C25 3275   5.388   8.737   0.805 -0.2574  1.1611  0.3871
    8CHTO   H53 3276   5.467   8.679   0.855  0.4323  1.0044 -0.8677
    8CHTO   O17 3277   5.266   8.730   0.876  0.1505  0.5726  0.5763
    8CHTO   C32 3278   5.253   8.790   1.003  0.0546 -0.4206 -0.3066
    8CHTO   H60 3279   5.330   8.737   1.058 -0.5979 -0.2367  0.7828
    8CHTO   C36 3280   5.108   8.760   1.048  0.1961  0.0877  0.3044
    8CHTO   O25 3281   5.018   8.809   0.955  0.2501 -0.1417 -0.6056
    8CHTO   H40 3282   4.986   8.894   0.980 -0.1273 -0.5029  0.1562
    8CHTO   O15 3283   5.369   8.676   0.668  0.0149 -0.9529  0.0712
    8CHTO   C19 3284   5.398   8.655   0.526 -0.4371 -0.0311  0.3102
    8CHTO   H47 3285   5.338   8.566   0.505  1.2219 -1.1152  0.0607
    8CHTO   C20 3286   5.348   8.771   0.426  0.2690 -0.1975 -0.8959
    8CHTO   H48 3287   5.394   8.868   0.449 -0.2776  0.1447 -1.2551
    8CHTO   O19 3288   5.200   8.780   0.447  0.7615  0.2883 -0.0426
    8CHTO   H35 3289   5.155   8.716   0.394  2.1182 -0.2757 -0.5656
    8CHTO   C21 3290   5.378   8.742   0.271 -0.2251 -0.6999  0.6063
    8CHTO   H49 3291   5.310   8.666   0.232  0.0845 -0.5854 -0.1656
    8CHTO    N4 3292   5.355   8.854   0.175 -0.5310 -0.5273 -0.0188
    8CHTO   H41 3293   5.347   8.819   0.073 -1.5878  0.1764 -0.1925
    8CHTO   H42 3294   5.260   8.901   0.197 -0.9493 -1.2989 -0.1612
    8CHTO   C22 3295   5.522   8.686   0.264 -0.3908  0.0846  0.6539
    8CHTO   H50 3296   5.599   8.762   0.275  1.1203 -1.4861  1.0606
    8CHTO   O14 3297   5.537   8.578   0.358  0.4313  0.3296  0.0141
    8CHTO   C23 3298   5.547   8.613   0.493  0.5227  0.0042  0.3660
    8CHTO   H51 3299   5.614   8.701   0.497 -0.1170  0.4783  0.7426
    8CHTO   C34 3300   5.589   8.493   0.572  0.1909 -0.1639  0.3857
    8CHTO   O23 3301   5.715   8.449   0.529 -0.3006 -0.0146  0.2370
    8CHTO   H38 3302   5.721   8.364   0.567 -0.1428  0.7103  1.8586
    8CHTO   O16 3303   5.552   8.639   0.128 -0.0960  0.1951 -0.0464
    8CHTO   C24 3304   5.700   8.586   0.105 -0.7275 -0.1580  0.3983
    8CHTO   H52 3305   5.758   8.580   0.197  2.2344  1.2286 -1.3006
    8CHTO   C26 3306   5.766   8.682   0.005  0.2029 -0.0108 -0.4479
    8CHTO   H54 3307   5.707   8.684  -0.089  0.2475 -0.2520 -0.4830
    8CHTO   O20 3308   5.772   8.813   0.071  0.1808 -0.3590 -0.0325
    8CHTO   H36 3309   5.695   8.862   0.048  1.3910  1.5073 -0.1874
    8CHTO   C30 3310   5.908   8.622  -0.029  0.3258  0.1357  0.1199
    8CHTO   H58 3311   5.967   8.624   0.064 -0.8509 -0.4042  0.9063
    8CHTO    N6 3312   5.968   8.711  -0.138 -0.4887  0.7648  0.1812
    8CHTO   H45 3313   5.976   8.814  -0.108 -0.3610  0.0687  2.6338
    8CHTO   H46 3314   5.916   8.698  -0.231 -0.7827 -0.6429  0.5302
    8CHTO   C33 3315   5.896   8.472  -0.082 -0.2606 -0.6057  0.0598
    8CHTO   H61 3316   5.837   8.469  -0.175 -2.1023  3.0285  1.0167
    8CHTO   O18 3317   5.823   8.395   0.018 -0.1393  0.2003  0.5768
    8CHTO   C28 3318   5.688   8.448   0.045  0.6722 -0.8684 -0.3273
    8CHTO   H56 3319   5.638   8.463  -0.051 -0.3287 -0.0638  0.3034
    8CHTO   C35 3320   5.618   8.349   0.142 -1.0304  0.1947  0.3450
    8CHTO   O24 3321   5.475   8.367   0.144 -0.5895  0.1708  0.5590
    8CHTO   H39 3322   5.448   8.374   0.054 -0.2795 -2.0221  0.2728
    8CHTO    O9 3323   6.026   8.409  -0.106 -0.5618 -0.7639  0.1161
    8CHTO   C13 3324   6.028   8.306  -0.214  0.5764 -0.3137 -0.3871
    8CHTO   H26 3325   5.934   8.312  -0.274 -0.0492 -2.0578  0.3621
    8CHTO   C11 3326   6.048   8.156  -0.155 -0.0725  0.2105 -0.5761
    8CHTO   H24 3327   5.959   8.122  -0.101  0.1404  0.5211 -0.0255
    8CHTO    O8 3328   6.162   8.155  -0.063 -0.1196  0.0394  0.3653
    8CHTO    H3 3329   6.129   8.113   0.014  2.4186 -1.4879  0.6806
    8CHTO    C9 3330   6.068   8.059  -0.273  0.0465 -0.5882  0.1421
    8CHTO   H22 3331   5.981   8.077  -0.338 -0.1121  2.2381  1.0804
    8CHTO    N2 3332   6.061   7.912  -0.248 -0.3013  0.8647  0.1027
    8CHTO   H10 3333   6.047   7.882  -0.145 -0.1833  3.4700  0.8926
    8CHTO   H11 3334   6.001   7.861  -0.323 -0.1515 -1.2289  1.3525
    8CHTO    C7 3335   6.197   8.103  -0.356 -0.2511  0.5829 -0.1191
    8CHTO   H20 3336   6.171   8.095  -0.463 -0.4916  0.6695 -0.0679
    8CHTO    O4 3337   6.240   8.239  -0.308  0.7738 -0.1987  0.0964
    8CHTO   C14 3338   6.144   8.342  -0.320 -0.1771 -0.5816 -0.0321
    8CHTO   H27 3339   6.097   8.351  -0.420 -1.9606 -2.4355  0.6173
    8CHTO   C18 3340   6.211   8.480  -0.299  0.2161 -0.4816  0.0613
    8CHTO   O13 3341   6.329   8.499  -0.381 -0.1058 -0.0260 -0.2107
    8CHTO    H7 3342   6.302   8.521  -0.468 -1.0125  1.4699  0.4252
    8CHTO    O2 3343   6.330   7.997  -0.339  0.2237 -0.3233 -0.0244
    8CHTO    C1 3344   6.458   8.061  -0.336 -0.3841 -0.1779 -0.9192
    8CHTO   H14 3345   6.456   8.162  -0.290  3.6595 -0.9339  1.1095
    8CHTO    C2 3346   6.515   8.080  -0.480 -0.6960  0.2461  0.3745
    8CHTO   H15 3347   6.519   7.983  -0.531  0.3601  0.7733 -0.5764
    8CHTO    O6 3348   6.426   8.166  -0.547 -0.2200  0.1309 -0.1097
    8CHTO    H1 3349   6.462   8.206  -0.624 -1.0174  1.4380  0.1672
    8CHTO    C3 3350   6.661   8.142  -0.452  0.3857 -0.1566  0.0327
    8CHTO   H16 3351   6.657   8.236  -0.396 -0.5730 -1.0593  1.5186
    8CHTO    N1 3352   6.736   8.182  -0.578  0.5460  0.4456 -0.3023
    8CHTO    H8 3353   6.662   8.174  -0.656 -1.7623 -0.6644  1.9349
    8CHTO    H9 3354   6.816   8.111  -0.592  0.2848  0.0059  0.4131
    8CHTO    C4 3355   6.747   8.040  -0.365 -0.2307  0.2524 -0.4014
    8CHTO   H17 3356   6.765   7.948  -0.420  0.7973 -0.3194  0.8517
    8CHTO    O1 3357   6.683   8.022  -0.239 -0.3079  0.8133 -0.1490
    8CHTO    C5 3358   6.553   7.968  -0.263 -0.3155  0.0023 -0.4060
    8CHTO   H18 3359   6.578   7.876  -0.317  3.0848  1.2939 -1.1504
    8CHTO   C16 3360   6.490   7.937  -0.131  0.0098  0.4861 -0.2314
    8CHTO   O11 3361   6.564   7.821  -0.068  0.4918 -0.5414  0.1629
    8CHTO    H5 3362   6.655   7.839  -0.059  0.2098 -0.3398  3.2685
    8CHTO    O3 3363   6.885   8.089  -0.346 -0.0405  0.5641 -0.0589
    8CHTO    C6 3364   6.932   8.115  -0.213  0.3478 -0.1568 -0.2928
    8CHTO   H19 3365   6.850   8.137  -0.146  0.5238  1.9115 -0.7264
    8CHTO    C8 3366   7.017   7.989  -0.158 -0.6106 -0.4264  0.2634
    8CHTO   H21 3367   7.105   7.984  -0.222 -0.4792 -3.3391  0.5831
    8CHTO    O7 3368   6.929   7.870  -0.165  0.0501 -0.3326  0.0983
    8CHTO    H2 3369   6.882   7.857  -0.085 -0.8068  0.8190 -0.2120
    8CHTO   C12 3370   7.069   8.028  -0.007 -0.0399 -0.1907  0.7251
    8CHTO   H25 3371   6.979   8.033   0.058  0.4188  1.4990  1.2591
    8CHTO    N3 3372   7.152   7.914   0.050 -0.2511  0.2769  0.2082
    8CHTO   H12 3373   7.091   7.826   0.062 -1.2682  0.6610 -1.9282
    8CHTO   H13 3374   7.230   7.893  -0.022 -1.2480 -0.4592 -0.6745
    8CHTO   C15 3375   7.150   8.157  -0.006  0.4774 -0.1880 -0.5569
    8CHTO   H28 3376   7.254   8.151  -0.036  0.9928  2.3123  0.5772
    8CHTO   O10 3377   7.148   8.215   0.123  1.1915 -0.0087 -0.1295
    8CHTO    H4 3378   7.237   8.235   0.145  1.3578  0.7383 -1.4259
    8CHTO    O5 3379   7.079   8.268  -0.077  0.8401  0.4790  0.3221
    8CHTO   C10 3380   7.030   8.238  -0.209  0.1624 -0.2883 -0.1361
    8CHTO   H23 3381   7.117   8.213  -0.270 -0.5441 -2.5918 -0.2316
    8CHTO   C17 3382   6.970   8.373  -0.248  0.1801  0.5397 -0.1968
    8CHTO   O12 3383   6.928   8.381  -0.383 -0.4319  0.1282 -0.3991
    8CHTO    H6 3384   7.002   8.388  -0.441 -0.7019 -0.8711 -0.8607
    9CHTO  H203 3385   6.486   3.110   1.682  0.4969 -0.7263 -0.5836
    9CHTO   O82 3386   6.415   3.065   1.724  1.0548 -0.3135  0.8394
    9CHTO  C123 3387   6.341   2.995   1.623 -0.8298 -0.3963 -0.3591
    9CHTO  H227 3388   6.254   2.940   1.662  0.8127 -2.2484  0.7368
    9CHTO   O77 3389   6.287   3.104   1.540 -0.3868 -0.1770  0.7961
    9CHTO  C118 3390   6.187   3.046   1.456  0.2519 -0.1399 -0.3706
    9CHTO  H222 3391   6.122   2.979   1.514 -0.7537  0.4398 -0.8294
    9CHTO  C125 3392   6.096   3.158   1.380  0.0992  0.2926 -0.0657
    9CHTO   O84 3393   5.998   3.212   1.466  0.1873  0.0272  0.2552
    9CHTO  H205 3394   5.958   3.285   1.422  1.7556  1.3075  0.8820
    9CHTO  C114 3395   6.256   2.962   1.350  0.4749 -0.0364  0.0495
    9CHTO  H218 3396   6.319   3.025   1.288 -0.5410  0.8424 -0.0936
    9CHTO  C116 3397   6.339   2.842   1.405  0.4223 -0.0906  0.1447
    9CHTO  H220 3398   6.268   2.765   1.441  0.2553  0.8666  1.8863
    9CHTO   O79 3399   6.426   2.783   1.305  0.0840 -0.5488 -0.2291
    9CHTO  H201 3400   6.381   2.716   1.257 -2.3028 -0.5934  1.9403
    9CHTO  C120 3401   6.425   2.902   1.526  0.1175 -0.4671  0.6374
    9CHTO  H224 3402   6.502   2.966   1.478 -0.5743 -0.1332 -0.0483
    9CHTO   N21 3403   6.491   2.789   1.603  0.4697 -0.0638 -0.2500
    9CHTO  H211 3404   6.561   2.837   1.670  0.2431  0.4234 -0.3581
    9CHTO  H212 3405   6.423   2.727   1.659 -1.0538  1.0478 -0.8504
    9CHTO   O75 3406   6.142   2.922   1.262 -0.4682  0.7556 -0.7276
    9CHTO  C112 3407   6.181   2.839   1.132 -0.0610 -0.1056  0.0134
    9CHTO  H216 3408   6.206   2.735   1.160 -0.7161 -0.4191 -0.5561
    9CHTO   O73 3409   6.290   2.901   1.074  0.1462 -0.5019 -0.1556
    9CHTO  C113 3410   6.330   2.849   0.941 -0.5618  0.4579  0.1571
    9CHTO  H217 3411   6.355   2.744   0.966 -3.6139 -0.3340  0.0326
    9CHTO  C124 3412   6.453   2.931   0.908  0.2003 -0.3471 -0.2881
    9CHTO   O83 3413   6.562   2.873   0.985  0.9430  0.1789 -0.4754
    9CHTO  H204 3414   6.564   2.905   1.073 -0.8375  1.0946 -0.7449
    9CHTO  C109 3415   6.225   2.857   0.835  0.3021 -0.4706 -0.3855
    9CHTO  H213 3416   6.198   2.963   0.826 -1.5210 -0.8510  0.2646
    9CHTO  C110 3417   6.100   2.785   0.899 -0.3130 -0.1306  0.5668
    9CHTO  H214 3418   6.134   2.681   0.903 -0.3201 -0.1560  0.0023
    9CHTO   O78 3419   5.992   2.796   0.804 -0.6155  0.0392 -0.1567
    9CHTO  H200 3420   5.976   2.884   0.778 -1.0326  0.1410  0.4254
    9CHTO  C111 3421   6.063   2.843   1.032 -0.6280  0.3978 -0.2983
    9CHTO  H215 3422   6.033   2.948   1.020 -0.6743  0.3933 -0.2235
    9CHTO   N19 3423   5.943   2.781   1.092 -0.3708  0.8746  0.5472
    9CHTO  H207 3424   5.936   2.674   1.100 -2.6560  1.0542  1.2123
    9CHTO  H208 3425   5.860   2.805   1.028  0.4897  0.2318 -0.8298
    9CHTO   O74 3426   6.260   2.804   0.701 -0.0018  0.3596 -0.2130
    9CHTO  C115 3427   6.294   2.645   0.693  0.5252  0.2752 -0.0316
    9CHTO  H219 3428   6.310   2.606   0.794  2.2179  2.8461  0.7585
    9CHTO   O76 3429   6.182   2.563   0.633  0.3550 -0.5757 -0.6526
    9CHTO  C122 3430   6.141   2.611   0.506 -0.1464  0.6273  0.1361
    9CHTO  H226 3431   6.111   2.716   0.509 -1.0278  0.4057 -0.6507
    9CHTO  C126 3432   6.012   2.531   0.473  0.5649 -0.3216  0.1684
    9CHTO   O85 3433   5.939   2.601   0.370 -0.4636  0.1804  0.0988
    9CHTO  H206 3434   5.849   2.602   0.397  0.3893 -1.8974  3.3381
    9CHTO  C121 3435   6.263   2.590   0.409 -0.3088  0.2664  0.0191
    9CHTO  H225 3436   6.280   2.482   0.392 -3.0813 -0.1389 -0.3715
    9CHTO   O81 3437   6.220   2.641   0.283  0.3230  1.0340  0.3504
    9CHTO  H202 3438   6.191   2.730   0.295  0.5742  0.8430  2.4898
    9CHTO  C119 3439   6.395   2.661   0.469  0.0905  0.5455  0.4898
    9CHTO  H223 3440   6.478   2.626   0.408  1.5018  3.6320  0.5181
    9CHTO  C117 3441   6.431   2.621   0.619  0.3954 -0.3892  0.4876
    9CHTO  H221 3442   6.505   2.684   0.668  0.2330 -1.2695  1.9013
    9CHTO   N20 3443   6.480   2.479   0.640 -0.0732  0.6619  0.3873
    9CHTO  H209 3444   6.523   2.431   0.554  0.7828  0.4324  0.9257
    9CHTO  H210 3445   6.420   2.421   0.708  3.0837  0.4565  3.1500
    9CHTO   O80 3446   6.397   2.819   0.430 -0.5977  0.4591 -0.3090
    9CHTO  C103 3447   6.502   2.924   0.513  0.4072 -0.4627 -0.1021
    9CHTO  H190 3448   6.496   2.903   0.620  1.4278 -5.9719 -0.9588
    9CHTO  C101 3449   6.650   2.902   0.474  0.1668 -0.8041 -0.1539
    9CHTO  H188 3450   6.653   2.896   0.365 -0.5814  2.2473 -0.3872
    9CHTO   O68 3451   6.701   2.756   0.521 -0.2632 -0.1440 -0.4046
    9CHTO  H168 3452   6.783   2.744   0.477  0.3489 -0.5980  0.8347
    9CHTO   C99 3453   6.743   3.031   0.522 -0.1878 -0.1541 -0.3124
    9CHTO  H186 3454   6.744   3.022   0.633 -1.4970  0.8222 -0.2072
    9CHTO   N17 3455   6.874   3.029   0.456  0.3248  0.0043  0.8258
    9CHTO  H174 3456   6.869   3.008   0.350 -1.7834 -0.0175  0.9195
    9CHTO  H175 3457   6.931   3.119   0.478  1.5605 -0.9635  1.6407
    9CHTO   C97 3458   6.673   3.163   0.492 -0.2856 -0.0207  0.1162
    9CHTO  H184 3459   6.667   3.171   0.382  1.4781  2.2891  0.1738
    9CHTO   O64 3460   6.545   3.161   0.553  0.3863 -0.0138  0.3148
    9CHTO  C104 3461   6.459   3.077   0.483  0.2363 -0.1401 -0.2597
    9CHTO  H191 3462   6.453   3.087   0.374 -1.1578 -3.1734 -0.5161
    9CHTO  C108 3463   6.316   3.093   0.537  0.6940  0.6076  0.4419
    9CHTO   O71 3464   6.277   3.230   0.528 -0.5320  0.0596  0.9670
    9CHTO  H171 3465   6.244   3.248   0.442  2.6752  1.2138 -0.0664
    9CHTO   O62 3466   6.741   3.283   0.536  0.3821 -0.5292 -0.2439
    9CHTO   C91 3467   6.803   3.376   0.448  0.3824 -0.4447  0.1453
    9CHTO  H178 3468   6.871   3.331   0.376  0.3672  0.2805 -0.3264
    9CHTO   C92 3469   6.885   3.462   0.543  0.8551  0.4261 -0.5313
    9CHTO  H179 3470   6.837   3.467   0.642  1.2539  2.0551 -0.4138
    9CHTO   O66 3471   6.998   3.386   0.574  0.3216 -0.3087  0.0218
    9CHTO  H166 3472   7.079   3.422   0.543 -0.9468  1.9622 -0.7971
    9CHTO   C93 3473   6.921   3.609   0.509  0.4593  1.0001  0.0846
    9CHTO  H180 3474   7.002   3.605   0.434  1.6099  2.1856  1.2347
    9CHTO   N16 3475   6.984   3.688   0.619 -0.0913  0.2758  0.1218
    9CHTO  H172 3476   6.910   3.735   0.682  0.2939 -1.3162  1.7943
    9CHTO  H173 3477   7.057   3.754   0.575 -0.1808 -2.8916 -5.1685
    9CHTO   C94 3478   6.789   3.672   0.459  0.5273 -0.7549 -0.1481
    9CHTO  H181 3479   6.704   3.644   0.521  2.6205 -0.6307  2.8706
    9CHTO   O61 3480   6.753   3.602   0.338  0.2298  0.0704 -0.3734
    9CHTO   C95 3481   6.708   3.463   0.357 -0.3729 -0.1337  0.3573
    9CHTO  H182 3482   6.608   3.466   0.400 -1.3649  2.3763 -2.0130
    9CHTO  C106 3483   6.693   3.401   0.207 -0.8566 -0.4529 -0.0589
    9CHTO   O69 3484   6.604   3.478   0.135 -0.1303 -0.2189 -0.1796
    9CHTO  H169 3485   6.610   3.463   0.043  0.6447 -0.5432 -0.0821
    9CHTO   O63 3486   6.799   3.845   0.426 -0.0029 -0.3420 -0.3725
    9CHTO   C96 3487   6.664   3.921   0.491 -0.3369  0.1234  0.1026
    9CHTO  H183 3488   6.643   3.885   0.592 -0.1278  0.1905  0.1701
    9CHTO   C98 3489   6.537   3.925   0.404 -0.8113  0.8815  0.2048
    9CHTO  H185 3490   6.559   3.971   0.307 -0.5290  1.1447  0.3939
    9CHTO   O67 3491   6.502   3.786   0.384 -0.5055 -0.5468 -0.0874
    9CHTO  H167 3492   6.422   3.777   0.337  0.5486  0.9397 -2.2179
    9CHTO  C102 3493   6.423   3.994   0.481 -0.0225  0.3418  0.0348
    9CHTO  H189 3494   6.406   3.939   0.575  0.3216  1.4342  0.7515
    9CHTO   N18 3495   6.298   3.997   0.408  0.1103  0.2799  0.2493
    9CHTO  H176 3496   6.309   4.055   0.317 -1.7547 -0.3471 -0.3874
    9CHTO  H177 3497   6.276   3.895   0.382 -0.9768  0.7745 -0.8306
    9CHTO  C105 3498   6.462   4.134   0.529  0.3036  0.0084 -0.0216
    9CHTO  H192 3499   6.472   4.198   0.441  0.4496  1.5643  1.1145
    9CHTO   O65 3500   6.590   4.134   0.590  0.0138 -0.3380  0.1891
    9CHTO  C100 3501   6.700   4.068   0.524  0.1584 -0.8908  0.1935
    9CHTO  H187 3502   6.726   4.127   0.435  1.0443  1.1245  1.7392
    9CHTO  C107 3503   6.829   4.076   0.613  0.0745  0.0904  0.2299
    9CHTO   O70 3504   6.849   4.203   0.668 -0.0480 -0.2744 -0.0696
    9CHTO  H170 3505   6.827   4.192   0.759 -1.3188 -1.7357 -0.5319
    9CHTO   O57 3506   6.354   4.195   0.626 -0.3649 -0.1210  0.5865
    9CHTO   C85 3507   6.286   4.320   0.597  0.4008 -0.6784  0.0738
    9CHTO  H157 3508   6.269   4.305   0.489  2.0905 -0.6194 -0.2215
    9CHTO   C83 3509   6.390   4.444   0.605 -0.2825 -0.2903 -0.1095
    9CHTO  H155 3510   6.455   4.431   0.519  1.5747  2.5338  0.7931
    9CHTO   O56 3511   6.473   4.422   0.719 -0.0829  1.1866  0.0300
    9CHTO  H135 3512   6.504   4.335   0.708  0.0478  1.1747  0.4915
    9CHTO   C81 3513   6.314   4.582   0.597  0.5320 -0.5383 -0.7768
    9CHTO  H153 3514   6.260   4.577   0.502 -1.7840 -1.4970  0.5597
    9CHTO   N14 3515   6.404   4.699   0.593  0.8415 -0.1590  0.4261
    9CHTO  H141 3516   6.508   4.674   0.596  0.5237 -1.9514 -1.8148
    9CHTO  H142 3517   6.384   4.750   0.501 -0.4497 -1.2258  0.0975
    9CHTO   C79 3518   6.203   4.591   0.702 -0.5396 -0.1185 -0.6245
    9CHTO  H151 3519   6.160   4.692   0.699  2.0663  1.0285 -0.1971
    9CHTO   O52 3520   6.101   4.484   0.673 -0.4146  0.3615  0.0484
    9CHTO   C86 3521   6.149   4.343   0.680 -0.4758  0.3894  0.7236
    9CHTO  H158 3522   6.165   4.312   0.785 -2.1385 -0.6543  0.6937
    9CHTO   C90 3523   6.038   4.247   0.633 -0.4409 -0.8239  0.1293
    9CHTO   O60 3524   5.924   4.237   0.719  0.8996 -0.4405 -0.2607
    9CHTO  H138 3525   5.943   4.236   0.811  1.5659  0.6328 -0.3897
    9CHTO   O50 3526   6.254   4.571   0.836  0.0443  0.3265 -0.0216
    9CHTO   C73 3527   6.208   4.613   0.966  0.9219  0.0476  0.0644
    9CHTO  H145 3528   6.100   4.595   0.971  0.9390 -0.5682 -1.2652
    9CHTO   C74 3529   6.243   4.759   0.994 -0.2755  0.4959 -0.5580
    9CHTO  H146 3530   6.196   4.818   0.914 -2.5006  0.2296  0.5336
    9CHTO   O54 3531   6.170   4.797   1.117 -0.6116 -0.0873  0.1759
    9CHTO  H133 3532   6.199   4.883   1.143  0.1620  0.1081 -1.2401
    9CHTO   C75 3533   6.402   4.772   0.989  0.0187 -0.1461  0.7411
    9CHTO  H147 3534   6.436   4.729   0.893  0.4605 -1.0929  1.3086
    9CHTO   N13 3535   6.455   4.908   1.015  0.1553 -0.0094  0.5166
    9CHTO  H139 3536   6.538   4.910   1.085 -0.9432 -3.3362  2.0290
    9CHTO  H140 3537   6.376   4.962   1.065  0.3550 -0.3355  1.1989
    9CHTO   C76 3538   6.473   4.663   1.086 -0.0470  0.0704 -0.3855
    9CHTO  H148 3539   6.448   4.687   1.190  0.2568 -0.8780 -0.0865
    9CHTO   O49 3540   6.420   4.519   1.062 -0.0798 -0.3130 -0.1113
    9CHTO   C77 3541   6.280   4.517   1.071  0.3519 -0.6432 -0.7541
    9CHTO  H149 3542   6.256   4.555   1.171  2.7410  2.1062 -1.1497
    9CHTO   C88 3543   6.230   4.371   1.055 -0.3167  0.1300 -0.4258
    9CHTO   O58 3544   6.099   4.369   1.121  0.4877 -0.3116 -0.5839
    9CHTO  H136 3545   6.032   4.349   1.059 -0.5233 -0.6858  0.5988
    9CHTO   O51 3546   6.621   4.660   1.055 -0.0315  0.2663  0.2060
    9CHTO   C78 3547   6.687   4.568   1.154  0.3109 -0.8667 -0.4454
    9CHTO  H150 3548   6.613   4.511   1.213 -2.0687  3.1080  0.5436
    9CHTO   C80 3549   6.762   4.661   1.252  0.3951  0.0742  0.4221
    9CHTO  H152 3550   6.837   4.723   1.199 -1.1597 -0.3629 -2.4258
    9CHTO   O55 3551   6.658   4.753   1.310  0.1729 -0.0631  0.0523
    9CHTO  H134 3552   6.635   4.746   1.400 -2.0730  0.5662 -0.4424
    9CHTO   C84 3553   6.840   4.582   1.369 -0.2388  0.6199  0.2971
    9CHTO  H156 3554   6.765   4.537   1.434  1.1994 -0.8451  0.9558
    9CHTO   N15 3555   6.925   4.678   1.451  0.1262  0.1449 -0.3898
    9CHTO  H143 3556   7.028   4.656   1.432 -0.3721  0.3846 -3.5777
    9CHTO  H144 3557   6.908   4.666   1.556  1.2640 -2.1493 -0.4492
    9CHTO   C87 3558   6.929   4.475   1.301 -0.6692  0.1955  0.0962
    9CHTO  H159 3559   7.017   4.518   1.252 -1.0409  0.6238 -0.1984
    9CHTO   O53 3560   6.850   4.391   1.177  0.1678  0.3860 -0.8219
    9CHTO   C82 3561   6.788   4.478   1.079 -0.6086 -0.0751  0.2541
    9CHTO  H154 3562   6.869   4.535   1.033  0.7477 -3.1473 -1.2841
    9CHTO   C89 3563   6.741   4.386   0.971  0.5373  0.1061  0.0614
    9CHTO   O59 3564   6.715   4.440   0.840 -0.0856 -0.2569 -0.4574
    9CHTO  H137 3565   6.624   4.426   0.823 -0.0654  0.5325 -1.2699
    9CHTO   O45 3566   6.982   4.376   1.419  0.4844 -0.0043 -0.2560
    9CHTO   C67 3567   7.048   4.256   1.370 -0.0775 -0.0049 -0.5271
    9CHTO  H124 3568   7.018   4.233   1.267  2.8580  2.8980 -2.1217
    9CHTO   C65 3569   7.204   4.294   1.358  0.0493 -0.1550  0.9128
    9CHTO  H122 3570   7.201   4.392   1.311  2.9741  0.7522  2.4896
    9CHTO   O44 3571   7.260   4.207   1.260 -0.3527 -0.3156  0.2194
    9CHTO  H102 3572   7.354   4.210   1.257 -0.3511 -1.7582 -1.4919
    9CHTO   C63 3573   7.268   4.289   1.496 -0.4699 -0.5478 -0.7556
    9CHTO  H120 3574   7.206   4.348   1.563 -3.3680 -3.1059 -1.0862
    9CHTO   N11 3575   7.415   4.334   1.488  0.0213  0.5923  0.2888
    9CHTO  H108 3576   7.439   4.430   1.528  0.8803 -0.0465  1.3662
    9CHTO  H109 3577   7.482   4.256   1.520  0.0110  0.2695 -0.4771
    9CHTO   C61 3578   7.241   4.151   1.562 -0.2856 -0.8981 -0.0051
    9CHTO  H118 3579   7.284   4.154   1.663  0.4532  0.4718 -0.3497
    9CHTO   O40 3580   7.103   4.118   1.574 -0.9179 -0.5201 -0.1003
    9CHTO   C68 3581   7.016   4.128   1.456  0.2084 -0.7977 -0.4067
    9CHTO  H125 3582   6.915   4.144   1.498  1.1086 -0.1200  1.5436
    9CHTO   C72 3583   7.017   3.991   1.380 -0.7404 -0.3650 -0.5408
    9CHTO   O48 3584   6.917   3.993   1.277 -0.0971  0.4444 -0.0275
    9CHTO  H105 3585   6.942   4.043   1.202 -1.1525 -0.0108 -0.6948
    9CHTO   O38 3586   7.299   4.042   1.491 -0.2352  0.2338 -0.2761
    9CHTO   C55 3587   7.391   3.949   1.563 -0.0205  0.3091 -0.2562
    9CHTO  H112 3588   7.410   3.980   1.667 -0.1164  3.3319 -1.1166
    9CHTO   C56 3589   7.528   3.931   1.486  0.4336 -0.0120 -0.1537
    9CHTO  H113 3590   7.557   4.031   1.450 -0.7447  0.0976 -0.8141
    9CHTO   O42 3591   7.645   3.883   1.558  1.0173  0.3251 -0.6239
    9CHTO  H100 3592   7.669   3.944   1.626 -1.6067  0.2656  0.4115
    9CHTO   C57 3593   7.518   3.826   1.369  0.0820 -0.2263  0.2735
    9CHTO  H114 3594   7.584   3.742   1.392 -0.8390 -1.1688 -0.4824
    9CHTO   N10 3595   7.565   3.876   1.237  0.6475  0.1363 -0.2536
    9CHTO  H106 3596   7.672   3.863   1.239  0.7692  0.1418 -3.4877
    9CHTO  H107 3597   7.519   3.842   1.145  1.2590  2.3035 -1.3822
    9CHTO   C58 3598   7.373   3.768   1.354  0.2176 -0.3350  0.4291
    9CHTO  H115 3599   7.304   3.848   1.320  0.7511  0.1804  0.5306
    9CHTO   O37 3600   7.334   3.712   1.487  0.7771  0.7758  0.2982
    9CHTO   C59 3601   7.323   3.811   1.589 -0.0274  0.1697  0.3345
    9CHTO  H116 3602   7.217   3.818   1.612  0.3003  1.1435  1.6265
    9CHTO   C70 3603   7.388   3.749   1.713  0.1245 -0.0497  0.4528
    9CHTO   O46 3604   7.324   3.637   1.771  0.7611 -0.3324  0.7106
    9CHTO  H103 3605   7.232   3.645   1.751  0.8432  2.0649  1.0475
    9CHTO   O39 3606   7.378   3.648   1.260  0.2207 -0.6125  0.0144
    9CHTO   C60 3607   7.259   3.598   1.183 -0.6390 -0.4069 -0.7452
    9CHTO  H117 3608   7.211   3.530   1.254 -1.3350  0.8511  0.0062
    9CHTO   C62 3609   7.153   3.700   1.136 -0.2660 -0.8249  0.2122
    9CHTO  H119 3610   7.118   3.751   1.228 -0.4993  2.1078 -1.4135
    9CHTO   O43 3611   7.213   3.806   1.056  0.8615  0.5242 -0.0053
    9CHTO  H101 3612   7.144   3.869   1.044  2.1358  2.2950  1.7609
    9CHTO   C66 3613   7.032   3.615   1.072  0.1090  0.6299 -0.2682
    9CHTO  H123 3614   6.991   3.552   1.152 -1.2001  1.3707 -0.3410
    9CHTO   N12 3615   6.917   3.709   1.043  0.1808 -0.0389  0.0558
    9CHTO  H110 3616   6.894   3.698   0.938  0.5008  0.4567 -0.0672
    9CHTO  H111 3617   6.832   3.681   1.103 -0.5746  0.2359 -0.8827
    9CHTO   C69 3618   7.075   3.539   0.952 -0.7525  0.3212 -0.5906
    9CHTO  H126 3619   7.110   3.616   0.880  0.2095 -0.6327 -1.1653
    9CHTO   O41 3620   7.201   3.444   0.980  0.1059 -0.6427  0.5463
    9CHTO   C64 3621   7.307   3.510   1.066 -0.1008  0.0369  0.2438
    9CHTO  H121 3622   7.360   3.576   0.995  0.8241 -0.7182  0.2200
    9CHTO   C71 3623   7.410   3.401   1.106  0.3878  0.5104  0.0269
    9CHTO   O47 3624   7.340   3.274   1.122  0.7193 -0.0282  0.0679
    9CHTO  H104 3625   7.404   3.206   1.117 -0.0242 -0.8566  1.3972
    9CHTO   O34 3626   6.948   3.439   0.872  0.0885  0.2695 -0.7754
    9CHTO   C49 3627   6.928   3.284   0.929 -0.0234 -0.3217 -0.0665
    9CHTO   H91 3628   6.915   3.302   1.036 -1.4933  2.8084 -0.7216
    9CHTO   C47 3629   7.048   3.191   0.897  0.7956 -0.6375 -0.2757
    9CHTO   H89 3630   7.115   3.216   0.982  0.2014 -0.1959  0.0602
    9CHTO   O33 3631   7.105   3.232   0.771  0.0195  0.3792 -0.2969
    9CHTO   H70 3632   7.195   3.258   0.776  0.4716 -1.2466  0.1672
    9CHTO   C45 3633   7.010   3.037   0.882 -0.5471  0.0149  0.3005
    9CHTO   H87 3634   6.986   3.025   0.776  1.5496 -1.4359 -0.0401
    9CHTO    N8 3635   7.121   2.946   0.909  0.0633 -0.0039 -0.9985
    9CHTO   H75 3636   7.091   2.878   0.987  2.2409 -2.0987 -1.9123
    9CHTO   H76 3637   7.151   2.882   0.827 -0.0849 -1.7538  0.2637
    9CHTO   C43 3638   6.873   3.002   0.962  0.5806  0.3717  0.3368
    9CHTO   H85 3639   6.851   2.897   0.938  1.4592  0.8911 -2.9906
    9CHTO   O29 3640   6.770   3.083   0.907  0.0240 -0.0892 -0.1794
    9CHTO   C50 3641   6.800   3.219   0.878 -0.7764  0.0136  0.0626
    9CHTO   H92 3642   6.798   3.223   0.768  1.0583 -0.8598 -0.0113
    9CHTO   C54 3643   6.684   3.313   0.916 -0.4768  0.3137  0.8913
    9CHTO   O36 3644   6.571   3.290   0.825 -0.4137  0.1051  0.0622
    9CHTO   H72 3645   6.538   3.205   0.845  3.4761 -1.0143  2.2724
    9CHTO   O27 3646   6.871   3.016   1.103 -0.3114 -0.0842  0.0029
    9CHTO   C37 3647   6.874   3.052   1.241 -0.6563 -0.3670  0.3381
    9CHTO   H79 3648   6.857   2.966   1.307 -0.0007 -0.9651 -0.2651
    9CHTO   C38 3649   7.016   3.113   1.269  0.4561  0.3428 -0.1275
    9CHTO   H80 3650   7.045   3.163   1.175 -1.5034 -1.3036 -1.6828
    9CHTO   O31 3651   7.114   3.006   1.272  0.5660  0.1693 -0.2538
    9CHTO   H68 3652   7.120   2.957   1.193 -1.7326 -0.8469  0.1638
    9CHTO   C39 3653   7.027   3.192   1.401 -0.5762  0.0629 -0.1883
    9CHTO   H81 3654   7.040   3.114   1.476 -3.1549  1.1176  1.4096
    9CHTO    N7 3655   7.154   3.279   1.402  0.2380 -0.2422  0.3839
    9CHTO   H73 3656   7.215   3.266   1.490  1.2435  2.5708  0.1600
    9CHTO   H74 3657   7.141   3.386   1.393  0.7536 -0.3046 -1.2842
    9CHTO   C40 3658   6.900   3.272   1.434 -0.2356 -0.9889 -0.1196
    9CHTO   H82 3659   6.897   3.351   1.358  1.4768 -0.2434  0.5617
    9CHTO   O26 3660   6.789   3.185   1.420 -0.0074  0.2411 -0.4535
    9CHTO   C41 3661   6.768   3.158   1.278 -0.0010 -0.8068  0.1685
    9CHTO   H83 3662   6.782   3.246   1.214  0.1136 -0.6666  0.3860
    9CHTO   C52 3663   6.628   3.103   1.272 -0.4619 -0.4179  0.3929
    9CHTO   O35 3664   6.525   3.223   1.330 -0.3306  0.2008  0.1814
    9CHTO   H71 3665   6.552   3.242   1.418  0.5606 -3.2775  0.7255
    9CHTO   O28 3666   6.894   3.332   1.568  0.2326 -0.0232  0.4553
    9CHTO   C42 3667   6.795   3.442   1.607 -0.3209  0.3096 -0.4989
    9CHTO   H84 3668   6.826   3.463   1.709  0.3544  0.9850 -0.8417
    9CHTO   C44 3669   6.644   3.386   1.618 -0.4734 -0.4116 -0.0738
    9CHTO   H86 3670   6.627   3.322   1.531 -0.7516 -0.5039  0.0507
    9CHTO   O32 3671   6.660   3.295   1.738  0.0839 -0.5802  0.2331
    9CHTO   H69 3672   6.606   3.219   1.728 -1.0048  0.2264 -0.1427
    9CHTO   C48 3673   6.533   3.493   1.627 -0.7226  0.5231  0.7399
    9CHTO   H90 3674   6.555   3.538   1.725 -0.2651  1.7883  0.0723
    9CHTO    N9 3675   6.397   3.422   1.624  0.1932  0.0733  0.1133
    9CHTO   H77 3676   6.381   3.401   1.729  4.9174  0.1848  0.9863
    9CHTO   H78 3677   6.327   3.494   1.585  0.9567 -0.0021 -1.4235
    9CHTO   C51 3678   6.558   3.604   1.514 -1.1556 -0.0420 -0.5072
    9CHTO   H93 3679   6.561   3.550   1.420 -3.0874  1.2012 -1.2979
    9CHTO   O30 3680   6.681   3.667   1.539 -0.0274 -0.3123 -0.4546
    9CHTO   C46 3681   6.802   3.574   1.523 -0.5368  0.4203 -0.1677
    9CHTO   H88 3682   6.808   3.549   1.417 -0.2844 -2.2594  0.4398
    9CHTO   C53 3683   6.926   3.665   1.566  0.0802  0.2783 -0.6855
    9CHTO   O72 3684   7.049   3.594   1.552  0.5230  0.1852  0.3471
    9CHTO  H199 3685   7.030   3.503   1.564 -0.5825 -0.2307 -3.7618
    9CHTO   O22 3686   6.449   3.698   1.523  0.7820 -0.1980  0.0271
    9CHTO   C31 3687   6.419   3.783   1.405 -0.5787 -0.1068 -0.1434
    9CHTO   H59 3688   6.333   3.847   1.434 -1.2678 -1.3136  0.5048
    9CHTO   C29 3689   6.537   3.880   1.365  0.2115  0.8996 -0.0340
    9CHTO   H57 3690   6.628   3.821   1.347  0.8237  2.0705 -0.8875
    9CHTO   O21 3691   6.547   3.965   1.478 -0.7782  0.0672 -0.8796
    9CHTO   H37 3692   6.583   3.916   1.550  0.5799  1.3361 -0.6759
    9CHTO   C27 3693   6.500   3.969   1.242  0.3851 -0.4375  0.3543
    9CHTO   H55 3694   6.413   4.031   1.268  2.4508  2.5994  0.3008
    9CHTO    N5 3695   6.608   4.073   1.203 -0.1541 -0.2040 -0.0822
    9CHTO   H43 3696   6.708   4.031   1.193  0.3203  0.2783  2.2818
    9CHTO   H44 3697   6.600   4.156   1.271 -1.3964  0.0916 -0.5817
    9CHTO   C25 3698   6.465   3.874   1.126  0.1414 -0.4414  0.5131
    9CHTO   H53 3699   6.547   3.807   1.096  1.2183  1.0870  0.0169
    9CHTO   O17 3700   6.347   3.805   1.173  0.0249 -0.2918 -0.2738
    9CHTO   C32 3701   6.365   3.715   1.279 -0.6293 -0.0103 -0.8189
    9CHTO   H60 3702   6.433   3.638   1.243 -0.4349 -0.4508  0.4497
    9CHTO   C36 3703   6.228   3.646   1.303 -0.2868 -1.0834 -0.4499
    9CHTO   O25 3704   6.216   3.522   1.228  0.4853 -0.2005 -0.4140
    9CHTO   H40 3705   6.172   3.451   1.271  0.9690 -0.2886 -0.0522
    9CHTO   O15 3706   6.416   3.942   1.008  0.8675 -0.1007  0.3010
    9CHTO   C19 3707   6.391   3.867   0.883  0.3582  0.6821 -0.1589
    9CHTO   H47 3708   6.421   3.938   0.804 -1.5996 -0.4987 -2.0428
    9CHTO   C20 3709   6.473   3.738   0.839  0.2310  0.2897 -0.1743
    9CHTO   H48 3710   6.457   3.653   0.907 -0.1545 -0.1499 -0.7973
    9CHTO   O19 3711   6.611   3.775   0.851  0.2156 -0.0990 -0.6147
    9CHTO   H35 3712   6.631   3.864   0.830  2.1046 -0.1536  0.8413
    9CHTO   C21 3713   6.426   3.679   0.697  0.5241  0.0976  0.0232
    9CHTO   H49 3714   6.458   3.747   0.619  0.4431 -0.7721 -0.7819
    9CHTO    N4 3715   6.487   3.549   0.662  0.1939  0.1566  0.1128
    9CHTO   H41 3716   6.439   3.514   0.573 -0.6262 -2.8810  1.7004
    9CHTO   H42 3717   6.476   3.475   0.740 -1.2097 -0.1525 -0.3695
    9CHTO   C22 3718   6.273   3.685   0.680  0.1683  0.3568  0.1243
    9CHTO   H50 3719   6.230   3.597   0.727  0.3438 -0.5863 -1.4388
    9CHTO   O14 3720   6.214   3.805   0.727 -0.2515 -0.1598 -0.2452
    9CHTO   C23 3721   6.237   3.841   0.865 -1.1947 -0.0421 -0.3523
    9CHTO   H51 3722   6.199   3.764   0.933  0.3188 -0.6423 -0.1884
    9CHTO   C34 3723   6.164   3.970   0.907 -0.0051  0.1339 -0.4504
    9CHTO   O23 3724   6.025   3.943   0.887  0.2778  0.1503 -0.4172
    9CHTO   H38 3725   6.000   3.885   0.819 -2.4105 -1.4442  1.8218
    9CHTO   O16 3726   6.230   3.684   0.542 -0.1072  0.0697 -0.0883
    9CHTO   C24 3727   6.161   3.563   0.484 -0.0429  0.0618 -0.2737
    9CHTO   H52 3728   6.188   3.471   0.537  2.3083  0.2323 -1.1222
    9CHTO   C26 3729   6.210   3.549   0.341 -0.4673 -0.3402 -0.1172
    9CHTO   H54 3730   6.219   3.650   0.296  2.5847 -0.6186 -0.2249
    9CHTO   O20 3731   6.340   3.499   0.337  0.1920 -0.0706 -0.5115
    9CHTO   H36 3732   6.359   3.450   0.259  0.2586 -1.5387  0.4063
    9CHTO   C30 3733   6.120   3.458   0.255  0.6954  0.1717 -0.8702
    9CHTO   H58 3734   6.128   3.354   0.292 -0.7075 -0.4281 -2.1899
    9CHTO    N6 3735   6.164   3.467   0.111  0.3429  0.0174  0.2342
    9CHTO   H45 3736   6.227   3.554   0.106 -0.5396  0.7301  1.4370
    9CHTO   H46 3737   6.224   3.381   0.084  1.7089  0.6972  1.0775
    9CHTO   C33 3738   5.967   3.496   0.280 -0.1425 -0.1187  0.6184
    9CHTO   H61 3739   5.957   3.599   0.243 -0.4135 -0.4718 -0.3202
    9CHTO   O18 3740   5.931   3.487   0.418  0.5064  0.2374 -0.3490
    9CHTO   C28 3741   6.001   3.580   0.498 -0.5739 -0.1658 -0.7281
    9CHTO   H56 3742   5.973   3.682   0.474 -1.1314 -0.2377 -0.3998
    9CHTO   C35 3743   5.958   3.556   0.641  0.0398  0.0301  0.4836
    9CHTO   O24 3744   5.829   3.611   0.661  0.2142 -0.2399 -0.3640
    9CHTO   H39 3745   5.817   3.629   0.752  0.8862 -1.3981 -0.0402
    9CHTO    O9 3746   5.877   3.416   0.198  0.2033  0.2172  0.4969
    9CHTO   C13 3747   5.735   3.480   0.135 -0.6479 -0.3644 -0.4277
    9CHTO   H26 3748   5.766   3.550   0.055 -0.2569 -2.4341 -2.1319
    9CHTO   C11 3749   5.648   3.547   0.245  0.5976 -0.1976  0.2730
    9CHTO   H24 3750   5.698   3.642   0.272  0.1888  0.7039 -2.0421
    9CHTO    O8 3751   5.641   3.460   0.359  0.4830  0.1010  0.3152
    9CHTO    H3 3752   5.599   3.377   0.345 -1.8242  1.3341 -0.2290
    9CHTO    C9 3753   5.512   3.584   0.187 -0.3510 -0.2558 -0.5611
    9CHTO   H22 3754   5.533   3.663   0.113  0.6904 -0.2944 -0.3084
    9CHTO    N2 3755   5.424   3.655   0.284 -0.1305  0.7543 -0.4152
    9CHTO   H10 3756   5.478   3.733   0.336  0.9100 -0.7949  0.8794
    9CHTO   H11 3757   5.382   3.578   0.348 -2.1356  2.6225  0.5787
    9CHTO    C7 3758   5.441   3.453   0.126  0.3238  0.1308 -0.1891
    9CHTO   H20 3759   5.366   3.501   0.059  0.5364  1.8613  0.7624
    9CHTO    O4 3760   5.523   3.375   0.039  0.1488 -0.3531 -0.0457
    9CHTO   C14 3761   5.666   3.365   0.056  0.1826  0.1747 -0.1213
    9CHTO   H27 3762   5.709   3.365  -0.047  0.7032  2.3963  0.0761
    9CHTO   C18 3763   5.694   3.217   0.118 -0.2744 -0.0659 -0.3388
    9CHTO   O13 3764   5.639   3.199   0.240  0.3798  0.2600  0.1384
    9CHTO    H7 3765   5.546   3.195   0.230  0.3683  2.1659 -0.8104
    9CHTO    O2 3766   5.378   3.356   0.251  0.0690 -0.6324  0.6944
    9CHTO    C1 3767   5.251   3.295   0.211  0.3366 -0.4682  0.2483
    9CHTO   H14 3768   5.260   3.266   0.104 -0.7682  2.2437 -0.6412
    9CHTO    C2 3769   5.132   3.391   0.237 -0.1480  0.3661 -0.6308
    9CHTO   H15 3770   5.149   3.435   0.336  0.5497 -1.6800  0.1742
    9CHTO    O6 3771   5.138   3.493   0.135 -0.5343  0.4368  0.1440
    9CHTO    H1 3772   5.121   3.577   0.173 -2.5765  0.4030 -0.6541
    9CHTO    C3 3773   4.983   3.326   0.238  0.2360  0.2413  0.6688
    9CHTO   H16 3774   4.969   3.309   0.130 -1.6641  1.9778  0.5893
    9CHTO    N1 3775   4.871   3.416   0.282 -0.4837 -0.2209  0.1019
    9CHTO    H8 3776   4.889   3.438   0.386  1.3625 -1.9626  0.1833
    9CHTO    H9 3777   4.875   3.509   0.228  2.3802 -0.8192 -0.7985
    9CHTO    C4 3778   4.977   3.186   0.306  0.0190 -0.1097 -0.2772
    9CHTO   H17 3779   4.964   3.199   0.413  1.3947  0.0657 -0.1338
    9CHTO    O1 3780   5.099   3.107   0.281  0.0963  0.3281  0.0557
    9CHTO    C5 3781   5.222   3.169   0.298  0.1227 -1.2079 -0.2157
    9CHTO   H18 3782   5.212   3.200   0.402 -3.4838 -0.6568 -0.6743
    9CHTO   C16 3783   5.337   3.060   0.288 -0.1658 -0.0215 -0.9567
    9CHTO   O11 3784   5.330   2.970   0.400 -0.2542  0.2048  0.0040
    9CHTO    H5 3785   5.417   2.944   0.422 -0.5727 -0.3187  0.6589
    9CHTO    O3 3786   4.875   3.104   0.243 -0.4852  0.2608 -0.5223
    9CHTO    C6 3787   4.747   3.076   0.304 -0.6034 -0.0364  0.7077
    9CHTO   H19 3788   4.730   3.134   0.395 -0.1599 -1.1795  1.5186
    9CHTO    C8 3789   4.630   3.109   0.199 -0.2421  0.0482 -0.4215
    9CHTO   H21 3790   4.649   3.066   0.101 -1.5858  1.8021 -1.4982
    9CHTO    O7 3791   4.630   3.250   0.179 -0.7719  0.4929 -0.3706
    9CHTO    H2 3792   4.630   3.300   0.258 -1.6587 -0.9628  0.5884
    9CHTO   C12 3793   4.482   3.056   0.232  0.4898  0.4837 -0.2078
    9CHTO   H25 3794   4.447   3.125   0.312  0.0792 -1.5202  1.3869
    9CHTO    N3 3795   4.383   3.070   0.117  0.5058  0.3614  0.3155
    9CHTO   H12 3796   4.284   3.030   0.135  0.7234  0.6921  2.3206
    9CHTO   H13 3797   4.430   3.034   0.026  2.5517 -2.8873  2.5189
    9CHTO   C15 3798   4.492   2.913   0.293 -0.5026  0.4211 -0.2788
    9CHTO   H28 3799   4.515   2.845   0.210 -0.6657  2.3517 -1.9402
    9CHTO   O10 3800   4.363   2.862   0.369  0.7043  0.1977 -0.3522
    9CHTO    H4 3801   4.288   2.864   0.313  0.4978 -1.3995 -0.1545
    9CHTO    O5 3802   4.592   2.902   0.393 -0.2952 -0.1058 -0.0169
    9CHTO   C10 3803   4.722   2.923   0.343  0.0941 -0.3242 -0.5809
    9CHTO   H23 3804   4.742   2.871   0.249  5.1389  1.0617 -0.4069
    9CHTO   C17 3805   4.816   2.869   0.457 -0.1995  0.2898  0.1842
    9CHTO   O12 3806   4.816   2.964   0.561  0.0328 -0.2227  0.5281
    9CHTO    H6 3807   4.890   2.949   0.616 -1.8664  1.2952  3.6505
   10CHTO  H203 3808   3.714   6.201   1.827 -1.4857  2.8474  0.9486
   10CHTO   O82 3809   3.726   6.167   1.914 -0.2389  0.1518 -0.2215
   10CHTO  C123 3810   3.757   6.264   2.015 -0.2454 -0.3187  0.1652
   10CHTO  H227 3811   3.740   6.365   1.977 -1.1182  0.1222  1.6992
   10CHTO   O77 3812   3.658   6.229   2.120  0.3056 -0.1714 -0.1835
   10CHTO  C118 3813   3.642   6.314   2.233  0.4498  0.8698  0.0230
   10CHTO  H222 3814   3.622   6.414   2.194  0.5313  0.3810 -1.3145
   10CHTO  C125 3815   3.532   6.265   2.331  0.4380  0.8550  0.3843
   10CHTO   O84 3816   3.570   6.147   2.407 -0.6323  0.1403  0.8775
   10CHTO  H205 3817   3.578   6.073   2.351  1.5582  0.8544  0.1847
   10CHTO  C114 3818   3.779   6.317   2.308  0.7789  0.3644  0.3891
   10CHTO  H218 3819   3.796   6.224   2.363 -0.0829 -0.0965 -0.1250
   10CHTO  C116 3820   3.904   6.336   2.211 -0.0870 -0.6910 -0.1740
   10CHTO  H220 3821   3.902   6.442   2.177  0.5195 -0.4695  0.4608
   10CHTO   O79 3822   4.019   6.314   2.292  0.3387 -0.3192  0.2083
   10CHTO  H201 3823   4.054   6.393   2.328 -0.0892 -0.7005  1.4851
   10CHTO  C120 3824   3.904   6.244   2.083 -0.3451 -0.4642  0.3181
   10CHTO  H224 3825   3.925   6.141   2.121  0.2453  0.5247  2.8039
   10CHTO   N21 3826   4.014   6.283   1.988  0.3235 -0.5281  0.0346
   10CHTO  H211 3827   3.991   6.264   1.884 -2.1609 -0.4394  0.5299
   10CHTO  H212 3828   4.104   6.240   2.030 -0.0053  0.0219  1.3184
   10CHTO   O75 3829   3.772   6.425   2.399 -0.0539 -0.2989  0.1969
   10CHTO  C112 3830   3.769   6.394   2.550  0.4867 -0.1452  0.1960
   10CHTO  H216 3831   3.807   6.293   2.571 -0.2362 -0.8190 -1.6038
   10CHTO   O73 3832   3.634   6.411   2.600 -0.0023  0.1840 -0.0427
   10CHTO  C113 3833   3.621   6.353   2.733  0.6184 -0.5419 -0.4240
   10CHTO  H217 3834   3.655   6.248   2.730 -1.4173 -1.2276 -0.6172
   10CHTO  C124 3835   3.471   6.343   2.765  0.4794  0.2756  0.1575
   10CHTO   O83 3836   3.407   6.463   2.751  0.0011 -0.2682 -0.1493
   10CHTO  H204 3837   3.403   6.513   2.830  0.2209  1.1203 -1.0056
   10CHTO  C109 3838   3.699   6.448   2.828 -0.5305 -0.0190  0.0041
   10CHTO  H213 3839   3.653   6.547   2.818  1.1266  0.9412  1.5281
   10CHTO  C110 3840   3.850   6.450   2.787 -0.4265  0.2867  0.2464
   10CHTO  H214 3841   3.890   6.350   2.804 -1.6341 -0.3609 -0.6822
   10CHTO   O78 3842   3.916   6.535   2.876  0.1788  0.6236 -0.7058
   10CHTO  H200 3843   3.876   6.620   2.871 -0.3766  0.3327 -1.2198
   10CHTO  C111 3844   3.862   6.489   2.638  0.5908  0.1922  0.4016
   10CHTO  H215 3845   3.818   6.589   2.625  3.2810  1.0134 -3.6022
   10CHTO   N19 3846   4.002   6.502   2.589 -0.3810 -0.2972 -0.5715
   10CHTO  H207 3847   4.060   6.411   2.591 -0.8805 -0.5804  2.9551
   10CHTO  H208 3848   4.047   6.575   2.654  0.3878 -0.6416 -0.7134
   10CHTO   O74 3849   3.681   6.402   2.965 -0.4816 -0.0055 -0.3210
   10CHTO  C115 3850   3.635   6.513   3.070 -0.1558  0.2325  0.4268
   10CHTO  H219 3851   3.689   6.606   3.053  2.1477 -0.7985  1.9288
   10CHTO   O76 3852   3.480   6.551   3.051 -0.3835 -0.3439 -0.3282
   10CHTO  C122 3853   3.426   6.626   3.159  0.3999  0.1353  0.1010
   10CHTO  H226 3854   3.321   6.640   3.135  0.9785  1.6803 -1.6538
   10CHTO  C126 3855   3.476   6.780   3.154  0.6458  0.0903  0.0610
   10CHTO   O85 3856   3.444   6.855   3.274  0.2528  0.2552 -0.0349
   10CHTO  H206 3857   3.486   6.815   3.348 -0.0030  1.8789  1.0321
   10CHTO  C121 3858   3.448   6.557   3.302 -0.2934  0.1766  0.1408
   10CHTO  H225 3859   3.398   6.626   3.373 -2.2014  0.6527 -1.6109
   10CHTO   O81 3860   3.393   6.425   3.304  0.7261  0.1788  0.0802
   10CHTO  H202 3861   3.437   6.360   3.253 -1.1329 -0.0345 -1.2728
   10CHTO  C119 3862   3.598   6.551   3.334 -0.0395 -0.1633  0.4263
   10CHTO  H223 3863   3.644   6.650   3.334  0.0446 -0.1953  1.8278
   10CHTO  C117 3864   3.678   6.468   3.219  0.3127 -0.1446 -0.5886
   10CHTO  H221 3865   3.656   6.361   3.214  0.3388 -0.3096  2.1496
   10CHTO   N20 3866   3.831   6.468   3.239  0.0203 -0.0427  0.1562
   10CHTO  H209 3867   3.871   6.546   3.176 -2.7886  1.9851  0.7527
   10CHTO  H210 3868   3.847   6.487   3.344  1.3752  0.4511 -0.1354
   10CHTO   O80 3869   3.638   6.491   3.487 -0.0724  0.8023 -0.2583
   10CHTO  C103 3870   3.585   6.569   3.624  0.2575 -0.0072  0.0496
   10CHTO  H190 3871   3.650   6.546   3.709  0.7387 -0.5871 -0.4695
   10CHTO  C101 3872   3.562   6.727   3.604  0.1187  0.2324  0.4386
   10CHTO  H188 3873   3.513   6.752   3.510  0.8708  1.8912  0.4840
   10CHTO   O68 3874   3.712   6.795   3.598 -0.8061 -0.5160  0.4373
   10CHTO  H168 3875   3.718   6.853   3.524  1.6806 -0.9716  0.2377
   10CHTO   C99 3876   3.478   6.797   3.722  0.1286 -0.0027 -0.1431
   10CHTO  H186 3877   3.540   6.794   3.815  0.9046  1.8974 -0.5637
   10CHTO   N17 3878   3.456   6.946   3.707  0.0986  0.3790  1.0497
   10CHTO  H174 3879   3.377   6.979   3.640 -0.0602 -0.6664  0.7128
   10CHTO  H175 3880   3.549   6.994   3.683  0.6502 -1.9453 -1.7075
   10CHTO   C97 3881   3.348   6.720   3.751 -0.3782 -0.6458  0.3609
   10CHTO  H184 3882   3.281   6.735   3.665 -0.5641 -0.9386  0.4523
   10CHTO   O64 3883   3.375   6.583   3.773  0.6000  0.2585 -0.2677
   10CHTO  C104 3884   3.435   6.509   3.659 -0.2478 -1.1419 -0.2249
   10CHTO  H191 3885   3.373   6.511   3.569 -1.3001 -0.8061  0.4924
   10CHTO  C108 3886   3.440   6.368   3.695  0.0309  0.3875 -0.0704
   10CHTO   O71 3887   3.534   6.333   3.805  1.0627 -0.2524  0.3736
   10CHTO  H171 3888   3.621   6.324   3.772  0.8250  1.4189 -0.7968
   10CHTO   O62 3889   3.282   6.754   3.874  0.0640 -0.1341 -0.3506
   10CHTO   C91 3890   3.142   6.736   3.880 -1.2809 -0.4515 -0.0674
   10CHTO  H178 3891   3.117   6.678   3.791 -1.2648  0.4873 -0.6892
   10CHTO   C92 3892   3.068   6.873   3.888 -0.8279 -0.1813  0.1399
   10CHTO  H179 3893   3.110   6.923   3.976  3.1085  0.5365 -2.0320
   10CHTO   O66 3894   3.098   6.957   3.774  0.2615  0.1672 -0.3845
   10CHTO  H166 3895   3.145   6.915   3.705 -1.4875 -2.2512 -0.1526
   10CHTO   C93 3896   2.915   6.851   3.889 -0.0730 -0.6697  0.3869
   10CHTO  H180 3897   2.885   6.820   3.788 -1.1192  0.8422  0.2032
   10CHTO   N16 3898   2.830   6.972   3.910  0.1923 -0.4198 -0.1182
   10CHTO  H172 3899   2.801   6.990   4.013  0.5103 -1.6939  0.2104
   10CHTO  H173 3900   2.869   7.066   3.875 -0.0145  0.6356  2.3458
   10CHTO   C94 3901   2.872   6.742   3.994 -0.3281 -0.1742  0.2034
   10CHTO  H181 3902   2.892   6.772   4.098 -0.4395 -1.4645  0.6031
   10CHTO   O61 3903   2.947   6.619   3.972  0.3163  0.0362 -0.1054
   10CHTO   C95 3904   3.089   6.642   3.991  0.2108 -0.2029  0.5251
   10CHTO  H182 3905   3.105   6.693   4.086  1.2101  3.1700 -1.3456
   10CHTO  C106 3906   3.158   6.502   4.000 -0.1949  0.4977 -0.5889
   10CHTO   O69 3907   3.096   6.403   4.074 -0.6503 -0.4093 -0.0484
   10CHTO  H169 3908   3.017   6.376   4.030 -1.2443  0.1296  0.6632
   10CHTO   O63 3909   2.724   6.696   3.978 -0.3900  0.1672  0.0117
   10CHTO   C96 3910   2.664   6.660   4.116  0.1289  0.5032 -0.0798
   10CHTO  H183 3911   2.677   6.753   4.172 -1.4561  0.7140 -0.0391
   10CHTO   C98 3912   2.727   6.542   4.202 -0.5162 -0.4515  0.3408
   10CHTO  H185 3913   2.837   6.538   4.197 -0.5010  0.5676 -0.3482
   10CHTO   O67 3914   2.701   6.584   4.336  0.0096  0.3014  0.1121
   10CHTO  H167 3915   2.725   6.509   4.386 -0.0315 -1.5701 -2.5736
   10CHTO  C102 3916   2.655   6.393   4.180 -0.1131  0.3314 -0.2808
   10CHTO  H189 3917   2.702   6.323   4.251 -0.9716 -0.6010 -0.6162
   10CHTO   N18 3918   2.682   6.335   4.046  0.3748 -0.1622 -0.5163
   10CHTO  H176 3919   2.635   6.240   4.025  0.5392 -0.6392  1.1538
   10CHTO  H177 3920   2.669   6.401   3.962 -0.7107  1.2904  0.7488
   10CHTO  C105 3921   2.502   6.409   4.210  0.2627 -0.6007 -0.9551
   10CHTO  H192 3922   2.449   6.330   4.156  0.7173 -1.4596 -0.1684
   10CHTO   O65 3923   2.447   6.546   4.190 -0.0673 -0.5478 -0.0031
   10CHTO  C100 3924   2.503   6.632   4.089 -0.6843  0.7255  0.2573
   10CHTO  H187 3925   2.472   6.580   3.997  0.8130  0.5777 -0.1660
   10CHTO  C107 3926   2.420   6.765   4.079 -0.0576 -0.3301 -0.3783
   10CHTO   O70 3927   2.475   6.855   3.994  0.5525  0.0870 -0.1990
   10CHTO  H170 3928   2.453   6.832   3.905  0.3254 -2.5273  0.5038
   10CHTO   O57 3929   2.490   6.353   4.363 -0.2264 -0.1630 -0.1664
   10CHTO   C85 3930   2.388   6.392   4.452  0.1401  0.0465  0.0880
   10CHTO  H157 3931   2.297   6.426   4.399 -0.0179  0.8149  0.8334
   10CHTO   C83 3932   2.448   6.511   4.538 -0.0113 -0.1664  0.7599
   10CHTO  H155 3933   2.468   6.595   4.471 -1.6285  0.0122  0.4967
   10CHTO   O56 3934   2.572   6.472   4.605  0.2779 -0.6344 -0.4005
   10CHTO  H135 3935   2.640   6.468   4.541  0.1149  2.0718 -0.7844
   10CHTO   C81 3936   2.347   6.549   4.643  0.5294 -0.0644  0.8345
   10CHTO  H153 3937   2.253   6.573   4.594  1.5255  1.9234 -0.1700
   10CHTO   N14 3938   2.384   6.681   4.709  0.1375  0.5098 -0.3699
   10CHTO  H141 3939   2.298   6.729   4.752 -1.2263 -0.9911 -1.3145
   10CHTO  H142 3940   2.461   6.675   4.782  1.0569 -1.2536 -1.4566
   10CHTO   C79 3941   2.312   6.427   4.740  0.2044 -0.7096  0.6403
   10CHTO  H151 3942   2.228   6.458   4.801  0.6243  0.1432  0.7993
   10CHTO   O52 3943   2.257   6.314   4.655 -0.1255 -0.4166 -0.1102
   10CHTO   C86 3944   2.350   6.273   4.547 -0.0244 -0.2298 -0.4150
   10CHTO  H158 3945   2.435   6.227   4.602  0.5055  0.3304 -0.7711
   10CHTO   C90 3946   2.281   6.163   4.461 -0.2977 -0.0273 -0.0213
   10CHTO   O60 3947   2.365   6.089   4.370 -0.1535  0.1206  0.4736
   10CHTO  H138 3948   2.335   6.102   4.282 -1.7076 -0.3221  0.9265
   10CHTO   O50 3949   2.418   6.381   4.823  0.4775  0.2558 -0.1192
   10CHTO   C73 3950   2.433   6.298   4.941  0.0314  0.6968  0.3462
   10CHTO  H145 3951   2.367   6.211   4.933  0.6436  0.2677 -0.0831
   10CHTO   C74 3952   2.396   6.379   5.068 -0.1086  0.4382 -0.0735
   10CHTO  H146 3953   2.295   6.419   5.052  0.4090  0.8189 -2.5601
   10CHTO   O54 3954   2.395   6.282   5.176  0.1092 -0.5524 -0.2537
   10CHTO  H133 3955   2.349   6.312   5.252 -1.0156  0.0118 -1.1460
   10CHTO   C75 3956   2.497   6.490   5.091 -0.0962 -0.3950  0.1008
   10CHTO  H147 3957   2.482   6.566   5.013 -0.6380  1.3581  1.8530
   10CHTO   N13 3958   2.475   6.582   5.205 -0.3968  0.7343  0.1328
   10CHTO  H139 3959   2.372   6.616   5.209 -1.1160 -1.4739  0.9254
   10CHTO  H140 3960   2.498   6.534   5.299 -0.0229  1.5244  0.4507
   10CHTO   C76 3961   2.649   6.434   5.094  0.7947 -0.2455 -0.1361
   10CHTO  H148 3962   2.669   6.374   5.184  2.4944  0.5812  0.0582
   10CHTO   O49 3963   2.669   6.355   4.975 -0.3701  0.2183 -0.2679
   10CHTO   C77 3964   2.580   6.243   4.952  0.9261  0.0415 -0.6496
   10CHTO  H149 3965   2.578   6.172   5.034 -0.9033 -0.8273 -1.4191
   10CHTO   C88 3966   2.618   6.166   4.825  0.1978 -0.2674 -0.9944
   10CHTO   O58 3967   2.686   6.235   4.732  0.8424  0.6919 -0.4732
   10CHTO  H136 3968   2.658   6.323   4.744  0.2289  0.1080  2.9843
   10CHTO   O51 3969   2.750   6.553   5.073 -0.0770 -0.2104  0.1201
   10CHTO   C78 3970   2.901   6.523   5.115 -0.4880  0.1109  0.4867
   10CHTO  H150 3971   2.904   6.412   5.121 -2.5237  0.0441  0.5136
   10CHTO   C80 3972   2.945   6.583   5.256  0.8620 -0.6058  1.0979
   10CHTO  H152 3973   2.907   6.688   5.259 -1.4062 -1.4324  2.3165
   10CHTO   O55 3974   2.873   6.524   5.358  0.8833  0.7075  0.7011
   10CHTO  H134 3975   2.932   6.498   5.426  1.1671  1.9187  0.9368
   10CHTO   C84 3976   3.098   6.583   5.290 -0.6438  0.9067  1.0585
   10CHTO  H156 3977   3.128   6.480   5.309  0.3577  1.3801  2.0575
   10CHTO   N15 3978   3.140   6.658   5.415  0.0028  0.1014 -0.1834
   10CHTO  H143 3979   3.073   6.620   5.489  0.7038  2.2166  1.5974
   10CHTO  H144 3980   3.118   6.762   5.401 -1.7650 -0.3618 -1.0683
   10CHTO   C87 3981   3.170   6.629   5.160  0.3221  0.2036  0.1722
   10CHTO  H159 3982   3.148   6.734   5.137  0.4713 -0.1719 -1.8413
   10CHTO   O53 3983   3.132   6.546   5.050  0.3602  0.0866 -0.4561
   10CHTO   C82 3984   2.998   6.572   5.003 -0.1775 -0.6232 -0.2169
   10CHTO  H154 3985   2.982   6.677   4.978  0.0765 -0.8768 -1.4737
   10CHTO   C89 3986   2.970   6.491   4.872  0.5303  0.5573 -0.4986
   10CHTO   O59 3987   2.974   6.351   4.886 -0.0942  0.3591 -0.4513
   10CHTO  H137 3988   2.918   6.301   4.828 -0.1085 -1.7709  1.3282
   10CHTO   O45 3989   3.332   6.613   5.171  0.4585  0.4690  0.0237
   10CHTO   C67 3990   3.411   6.720   5.115 -1.0412  0.3075 -0.4884
   10CHTO  H124 3991   3.370   6.741   5.016 -2.3231  0.1255 -0.0104
   10CHTO   C65 3992   3.406   6.849   5.199 -0.1896  0.2644  0.1943
   10CHTO  H122 3993   3.301   6.862   5.223 -0.7147 -1.5890 -1.0740
   10CHTO   O44 3994   3.453   6.958   5.114  0.5648 -0.0935 -0.6407
   10CHTO  H102 3995   3.403   6.961   5.036 -1.2026 -3.1898  0.3000
   10CHTO   C63 3996   3.474   6.829   5.335 -0.5537  0.6852 -0.3005
   10CHTO  H120 3997   3.434   6.743   5.387  1.1001  0.1857  0.1979
   10CHTO   N11 3998   3.430   6.934   5.436  0.0263  0.5511 -0.1150
   10CHTO  H108 3999   3.384   7.023   5.399 -0.8253 -0.3211 -1.1711
   10CHTO  H109 4000   3.514   6.963   5.496 -1.2023  0.8849  1.4997
   10CHTO   C61 4001   3.628   6.796   5.314 -0.0959 -0.6796  0.0142
   10CHTO  H118 4002   3.657   6.748   5.408 -0.5709  0.6468  0.8518
   10CHTO   O40 4003   3.650   6.699   5.207 -0.2322 -0.4058  0.1855
   10CHTO   C68 4004   3.563   6.678   5.090  0.2574 -0.3165  0.0533
   10CHTO  H125 4005   3.561   6.571   5.061 -3.6475 -0.2277 -0.2383
   10CHTO   C72 4006   3.623   6.748   4.970  0.0284 -0.0716  0.8237
   10CHTO   O48 4007   3.739   6.683   4.936  0.4261 -0.2922  0.4875
   10CHTO  H105 4008   3.785   6.732   4.870  1.2298  0.3228  1.5034
   10CHTO   O38 4009   3.711   6.909   5.291 -0.2765 -0.0912 -0.3630
   10CHTO   C55 4010   3.848   6.898   5.320 -0.1695 -1.0714 -0.0332
   10CHTO  H112 4011   3.881   6.799   5.285  0.1763 -0.5413 -1.2368
   10CHTO   C56 4012   3.887   6.914   5.475  0.0046 -0.2918  0.2195
   10CHTO  H113 4013   3.841   7.008   5.508  2.4171  0.9323  0.1973
   10CHTO   O42 4014   3.824   6.800   5.540 -0.1105  0.3282 -0.1673
   10CHTO  H100 4015   3.744   6.820   5.584 -0.2356  0.0407 -0.2615
   10CHTO   C57 4016   4.043   6.912   5.498  0.5766 -0.2381  0.3647
   10CHTO  H114 4017   4.089   6.813   5.495  0.3732 -0.3149 -0.3612
   10CHTO   N10 4018   4.075   6.954   5.637  0.0063 -0.3253  0.1488
   10CHTO  H106 4019   4.169   6.905   5.659  0.4510  1.4638  2.4314
   10CHTO  H107 4020   4.093   7.060   5.645  0.4592 -0.4689  1.1170
   10CHTO   C58 4021   4.113   7.008   5.396 -0.1140  0.2792  0.5904
   10CHTO  H115 4022   4.086   7.111   5.427 -0.5534  0.1001  0.8084
   10CHTO   O37 4023   4.064   6.992   5.264 -0.0840  0.3327  0.2575
   10CHTO   C59 4024   3.923   7.011   5.247  0.5483 -0.2916  0.0616
   10CHTO  H116 4025   3.897   7.113   5.275  2.6459 -0.2103  1.7952
   10CHTO   C70 4026   3.886   7.007   5.093 -0.9035 -0.6120 -0.4020
   10CHTO   O46 4027   3.938   7.126   5.031 -0.4246 -0.0013 -0.5123
   10CHTO  H103 4028   3.981   7.098   4.953  0.2524  1.8126 -0.8231
   10CHTO   O39 4029   4.299   6.990   5.402  0.1081 -0.2638  0.6081
   10CHTO   C60 4030   4.377   7.104   5.429 -0.3660 -0.2725  0.3051
   10CHTO  H117 4031   4.317   7.191   5.405 -1.2894 -0.6446  1.2181
   10CHTO   C62 4032   4.416   7.101   5.579  0.4322 -0.7176 -0.2097
   10CHTO  H119 4033   4.323   7.117   5.636 -1.5673 -3.8946 -2.4192
   10CHTO   O43 4034   4.469   6.973   5.618 -0.4114 -0.0128  0.5094
   10CHTO  H101 4035   4.463   6.956   5.710  0.3803 -2.8820  0.0926
   10CHTO   C66 4036   4.515   7.227   5.601  0.3479  0.1058 -0.2373
   10CHTO  H123 4037   4.459   7.317   5.576  0.7795  0.7246  0.9762
   10CHTO   N12 4038   4.556   7.240   5.747 -0.2370  0.2724 -0.2047
   10CHTO  H110 4039   4.469   7.238   5.813  0.4645  0.8100  0.7567
   10CHTO  H111 4040   4.611   7.331   5.768  1.4868 -0.5386 -1.1722
   10CHTO   C69 4041   4.641   7.209   5.512 -0.0380  0.8115  0.0820
   10CHTO  H126 4042   4.683   7.108   5.532  1.0372  0.9776 -1.3245
   10CHTO   O41 4043   4.591   7.204   5.364 -0.8395 -0.3159  0.3394
   10CHTO   C64 4044   4.500   7.097   5.334  0.6713  0.3964  0.3805
   10CHTO  H121 4045   4.550   6.999   5.353  2.0641  1.0096 -0.0144
   10CHTO   C71 4046   4.448   7.098   5.184  0.6573  0.9101 -0.1541
   10CHTO   O47 4047   4.405   7.230   5.161  0.3094 -0.4171 -0.1677
   10CHTO  H104 4048   4.311   7.227   5.162  0.2263  0.4097 -2.5506
   10CHTO   O34 4049   4.762   7.299   5.536  0.6193 -0.4595  0.1981
   10CHTO   C49 4050   4.821   7.422   5.509 -0.1318 -0.5090 -0.5913
   10CHTO   H91 4051   4.927   7.396   5.518  0.0325  0.3178 -0.0464
   10CHTO   C47 4052   4.781   7.523   5.613 -0.6020 -0.5892 -1.0435
   10CHTO   H89 4053   4.843   7.612   5.592 -1.7505  0.1934 -1.1501
   10CHTO   O33 4054   4.818   7.462   5.742  0.2024 -0.8170  0.6109
   10CHTO   H70 4055   4.746   7.411   5.774  0.2416 -2.1835 -1.3359
   10CHTO   C45 4056   4.633   7.572   5.592 -0.0928 -0.0668 -0.0254
   10CHTO   H87 4057   4.566   7.487   5.611  1.1597 -1.3722 -1.3797
   10CHTO    N8 4058   4.602   7.676   5.696 -0.3882 -0.1488 -0.2434
   10CHTO   H75 4059   4.660   7.659   5.786  1.0985  1.9257 -0.7849
   10CHTO   H76 4060   4.617   7.773   5.652 -2.3279  0.3491  0.1445
   10CHTO   C43 4061   4.605   7.614   5.441  0.6490  0.1368 -0.8649
   10CHTO   H85 4062   4.496   7.617   5.433  0.7960  2.0662 -2.7578
   10CHTO   O29 4063   4.658   7.525   5.344  0.2023  0.2494 -0.1192
   10CHTO   C50 4064   4.785   7.466   5.367  0.4387 -0.1069  0.6646
   10CHTO   H92 4065   4.792   7.384   5.294 -1.0089  0.0499  0.3247
   10CHTO   C54 4066   4.882   7.570   5.303  0.2697  0.4993  0.9736
   10CHTO   O36 4067   5.004   7.501   5.267 -0.1272  0.1050 -0.6596
   10CHTO   H72 4068   5.051   7.559   5.210 -0.7290  0.8434 -0.4058
   10CHTO   O27 4069   4.658   7.742   5.405 -0.1765  0.4871 -0.1311
   10CHTO   C37 4070   4.680   7.837   5.301  0.2158 -0.5527 -0.0854
   10CHTO   H79 4071   4.759   7.804   5.232  1.0106 -3.7482  2.2246
   10CHTO   C38 4072   4.556   7.857   5.208 -0.3157  0.0258 -0.1806
   10CHTO   H80 4073   4.462   7.874   5.264  0.2005  1.1255  0.3623
   10CHTO   O31 4074   4.538   7.732   5.145  0.1550 -0.4944 -0.2804
   10CHTO   H68 4075   4.451   7.727   5.110 -0.2955  0.1728  0.7085
   10CHTO   C39 4076   4.584   7.972   5.107  0.4054  0.7372  0.0394
   10CHTO   H81 4077   4.645   7.930   5.028 -1.2287 -2.4423  0.3749
   10CHTO    N7 4078   4.461   8.008   5.031  0.6119  0.0883 -0.0948
   10CHTO   H73 4079   4.471   8.102   4.979 -1.7585 -1.3813 -3.4059
   10CHTO   H74 4080   4.365   7.996   5.080  2.1258 -0.8852  2.7471
   10CHTO   C40 4081   4.654   8.100   5.172 -0.0711  0.9939  0.7036
   10CHTO   H82 4082   4.582   8.156   5.232 -0.7328  0.0393  0.8197
   10CHTO   O26 4083   4.764   8.062   5.249  0.2592 -1.0184 -0.7671
   10CHTO   C41 4084   4.728   7.972   5.360  0.3951 -0.5258 -0.0832
   10CHTO   H83 4085   4.641   8.012   5.414  1.6798 -0.4494  2.0146
   10CHTO   C52 4086   4.845   7.971   5.454  0.1707  0.3671  0.5478
   10CHTO   O35 4087   4.813   7.910   5.599 -0.2462 -0.3446 -0.2038
   10CHTO   H71 4088   4.823   7.817   5.592 -0.0181 -0.5660  2.5678
   10CHTO   O28 4089   4.710   8.186   5.067  0.4018  0.4063 -0.7265
   10CHTO   C42 4090   4.761   8.324   5.085  0.5112  0.0944 -0.4706
   10CHTO   H84 4091   4.820   8.325   5.177  0.5091 -1.3035 -0.4424
   10CHTO   C44 4092   4.646   8.429   5.111 -0.1337 -0.7150 -0.4957
   10CHTO   H86 4093   4.580   8.428   5.025  1.6825 -0.2644 -1.9212
   10CHTO   O32 4094   4.586   8.399   5.240 -0.8134 -0.6728 -0.8974
   10CHTO   H69 4095   4.659   8.393   5.299 -1.5114 -1.7271 -0.1212
   10CHTO   C48 4096   4.710   8.579   5.126  1.1803  0.4309 -0.4217
   10CHTO   H90 4097   4.750   8.581   5.228 -0.2439 -1.1142  0.1945
   10CHTO    N9 4098   4.599   8.678   5.120  0.4372 -0.3121  0.0062
   10CHTO   H77 4099   4.615   8.739   5.208  0.9281 -0.1639 -0.1841
   10CHTO   H78 4100   4.606   8.747   5.036  2.3383  0.2594  0.5955
   10CHTO   C51 4101   4.829   8.602   5.030  0.0287  0.7799  0.1223
   10CHTO   H93 4102   4.784   8.632   4.936 -1.5528 -0.9959  0.2900
   10CHTO   O30 4103   4.919   8.486   5.016 -0.3173 -0.1403 -0.3573
   10CHTO   C46 4104   4.857   8.375   4.977 -0.2542  0.0584  0.4136
   10CHTO   H88 4105   4.803   8.383   4.882 -2.6014 -1.5782  1.5600
   10CHTO   C53 4106   4.966   8.262   4.957 -0.6932  0.1935 -0.0755
   10CHTO   O72 4107   5.052   8.290   4.840 -0.4885 -0.4225 -0.0986
   10CHTO  H199 4108   5.143   8.274   4.858  0.0247  3.2034  0.9343
   10CHTO   O22 4109   4.915   8.706   5.075  0.2877  0.1965 -0.1207
   10CHTO   C31 4110   4.934   8.816   4.987 -0.3684  0.4457 -0.2468
   10CHTO   H59 4111   4.840   8.824   4.928 -2.2214 -2.5958  2.1613
   10CHTO   C29 4112   4.957   8.953   5.064  0.4222 -0.1867  0.4361
   10CHTO   H57 4113   5.044   8.950   5.132  0.6215  1.8060  0.2831
   10CHTO   O21 4114   4.837   8.973   5.148 -0.2680  0.2457  1.1115
   10CHTO   H37 4115   4.842   9.053   5.197 -2.5136  0.8496  0.4122
   10CHTO   C27 4116   4.964   9.081   4.964 -0.5828 -0.2097  0.1853
   10CHTO   H55 4117   4.873   9.090   4.903 -0.7857  0.9578  0.6472
   10CHTO    N5 4118   4.988   9.213   5.027  0.4556  0.2217  0.2802
   10CHTO   H43 4119   5.066   9.266   4.973 -0.6627  2.0054  0.3685
   10CHTO   H44 4120   4.891   9.253   5.050  0.0166  1.0066 -2.7573
   10CHTO   C25 4121   5.060   9.050   4.844 -0.1469 -0.1562  0.2058
   10CHTO   H53 4122   5.160   9.043   4.889  0.1218 -2.9104 -0.7854
   10CHTO   O17 4123   5.027   8.920   4.790 -0.3321 -0.0857  0.5262
   10CHTO   C32 4124   5.047   8.810   4.879 -0.3188  0.4777  1.0616
   10CHTO   H60 4125   5.141   8.831   4.931  1.1782  0.9272 -1.7638
   10CHTO   C36 4126   5.059   8.679   4.788  0.8799  0.1277  0.4674
   10CHTO   O25 4127   4.938   8.664   4.709  0.2419 -0.7090  0.0363
   10CHTO   H40 4128   4.859   8.656   4.760  0.0390  0.0660 -0.1499
   10CHTO   O15 4129   5.061   9.169   4.748 -0.0551  0.2081  0.0457
   10CHTO   C19 4130   5.096   9.232   4.618  0.5187 -0.0342 -0.4961
   10CHTO   H47 4131   5.084   9.156   4.539 -0.0133 -0.2844 -0.1730
   10CHTO   C20 4132   5.008   9.359   4.589 -0.8524  0.1995 -0.4390
   10CHTO   H48 4133   5.010   9.429   4.675  2.5834 -2.4681  1.7947
   10CHTO   O19 4134   4.877   9.309   4.571 -0.1583 -0.0344  0.0781
   10CHTO   H35 4135   4.865   9.270   4.487 -2.0762 -2.2469  1.3176
   10CHTO   C21 4136   5.048   9.438   4.460 -0.7036 -0.2656  0.7071
   10CHTO   H49 4137   5.029   9.370   4.377  0.4738  2.1317 -1.5927
   10CHTO    N4 4138   4.971   9.558   4.419 -0.2029  0.0732  0.1441
   10CHTO   H41 4139   4.949   9.607   4.512  1.4144  0.7419  0.1804
   10CHTO   H42 4140   4.875   9.529   4.379 -0.8025  1.7168  0.3681
   10CHTO   C22 4141   5.201   9.456   4.457  0.1200  0.1162 -0.5684
   10CHTO   H50 4142   5.228   9.529   4.533  2.6084  0.8017 -2.0736
   10CHTO   O14 4143   5.274   9.335   4.487 -0.1495 -0.0537  0.2338
   10CHTO   C23 4144   5.249   9.275   4.612 -0.0589 -0.2372  0.3330
   10CHTO   H51 4145   5.277   9.352   4.684 -0.1218  1.1591 -1.1121
   10CHTO   C34 4146   5.332   9.146   4.628  0.3854 -0.9643  0.0979
   10CHTO   O23 4147   5.461   9.185   4.671  0.2377 -0.4576  0.2900
   10CHTO   H38 4148   5.518   9.113   4.690 -1.6298 -1.7153  1.1861
   10CHTO   O16 4149   5.249   9.506   4.331 -0.5521  0.3005 -0.1448
   10CHTO   C24 4150   5.396   9.568   4.346 -0.6128 -0.9075 -0.6676
   10CHTO   H52 4151   5.435   9.553   4.446  0.9937  1.2160 -0.9164
   10CHTO   C26 4152   5.395   9.721   4.327 -0.9877 -0.0861 -0.4707
   10CHTO   H54 4153   5.328   9.746   4.242 -0.9520 -1.5107 -0.9333
   10CHTO   O20 4154   5.316   9.778   4.439 -0.2014  0.3330 -0.5472
   10CHTO   H36 4155   5.326   9.871   4.449  4.2064  0.3023 -3.3750
   10CHTO   C30 4156   5.533   9.794   4.299  0.5631 -0.2681  0.1525
   10CHTO   H58 4157   5.589   9.814   4.392  1.1483  1.3962 -0.5431
   10CHTO    N6 4158   5.506   9.932   4.262  0.1560  0.4725 -0.5110
   10CHTO   H45 4159   5.446   9.936   4.172 -1.1510 -0.3394  0.3031
   10CHTO   H46 4160   5.602   9.980   4.247  2.0161 -2.6413  1.0197
   10CHTO   C33 4161   5.624   9.712   4.204 -0.0279  0.3753  0.0448
   10CHTO   H61 4162   5.578   9.711   4.104  1.4920 -0.7306 -0.6708
   10CHTO   O18 4163   5.625   9.575   4.257 -0.2471 -0.0918  0.7999
   10CHTO   C28 4164   5.499   9.503   4.244  0.4752 -0.6403  0.1984
   10CHTO   H56 4165   5.460   9.517   4.144  3.6638  0.8378 -0.8749
   10CHTO   C35 4166   5.517   9.351   4.264  0.1191  0.7431  0.3683
   10CHTO   O24 4167   5.568   9.301   4.387 -0.1770 -0.5705  0.0770
   10CHTO   H39 4168   5.638   9.354   4.419 -1.6961  1.7536 -0.3347
   10CHTO    O9 4169   5.760   9.760   4.175 -0.0155 -0.1558 -0.1084
   10CHTO   C13 4170   5.812   9.719   4.040  0.0574  0.6309 -0.3408
   10CHTO   H26 4171   5.760   9.786   3.968 -2.6960 -1.1663 -0.0735
   10CHTO   C11 4172   5.791   9.557   4.002 -0.0018 -0.7492 -1.0510
   10CHTO   H24 4173   5.682   9.547   3.990 -0.0873 -2.3239  0.7831
   10CHTO    O8 4174   5.833   9.462   4.103 -0.0672 -0.3714 -0.0793
   10CHTO    H3 4175   5.923   9.476   4.124 -1.0352  2.5408  2.5303
   10CHTO    C9 4176   5.859   9.533   3.866  0.0397 -0.8253 -0.0349
   10CHTO   H22 4177   5.818   9.611   3.800 -0.1016 -1.9583 -1.3013
   10CHTO    N2 4178   5.810   9.415   3.795 -0.2718  0.8205  0.7916
   10CHTO   H10 4179   5.843   9.323   3.842  0.1748  0.5719  0.0022
   10CHTO   H11 4180   5.852   9.415   3.696 -0.2330 -1.0598  0.7775
   10CHTO    C7 4181   6.013   9.554   3.898 -0.9811 -0.1243 -0.0010
   10CHTO   H20 4182   6.046   9.612   3.809  0.6913 -0.3297  0.4805
   10CHTO    O4 4183   6.056   9.627   4.012  0.5051  0.5869 -0.1229
   10CHTO   C14 4184   5.972   9.748   4.033 -0.7961 -0.0238 -0.1621
   10CHTO   H27 4185   5.984   9.804   3.938  1.8231 -1.8184 -0.9351
   10CHTO   C18 4186   6.030   9.834   4.145 -0.2541  0.2116  0.3851
   10CHTO   O13 4187   6.172   9.855   4.123 -0.5821 -0.0917 -0.1331
   10CHTO    H7 4188   6.181   9.932   4.071 -0.6865  0.4869  0.7099
   10CHTO    O2 4189   6.096   9.404   3.889  0.0840 -0.0876  0.2153
   10CHTO    C1 4190   6.209   9.415   3.799  0.1843  0.0966 -0.1066
   10CHTO   H14 4191   6.224   9.523   3.779 -1.6227  0.4728  0.4897
   10CHTO    C2 4192   6.186   9.337   3.668  0.5542  0.7689 -0.1193
   10CHTO   H15 4193   6.158   9.240   3.712 -0.7701  0.1391 -2.2552
   10CHTO    O6 4194   6.077   9.386   3.591  0.3345  0.1403  0.0801
   10CHTO    H1 4195   5.997   9.366   3.635 -0.7265  1.7605 -1.0337
   10CHTO    C3 4196   6.317   9.310   3.580  0.1412 -0.5397 -0.1752
   10CHTO   H16 4197   6.337   9.406   3.529 -1.2259 -0.6294 -0.9131
   10CHTO    N1 4198   6.307   9.202   3.474  0.5445 -0.2251  0.0636
   10CHTO    H8 4199   6.404   9.195   3.426 -0.9010 -2.5828 -2.6203
   10CHTO    H9 4200   6.281   9.106   3.516  0.0155 -0.0982  0.0221
   10CHTO    C4 4201   6.447   9.284   3.669 -0.2829 -0.0692  0.5449
   10CHTO   H17 4202   6.437   9.183   3.709 -0.4677 -0.3485 -0.1799
   10CHTO    O1 4203   6.450   9.374   3.781 -0.7857 -0.4576 -0.1039
   10CHTO    C5 4204   6.336   9.368   3.869 -0.1928  0.2161  0.0259
   10CHTO   H18 4205   6.327   9.263   3.896 -1.2089  0.2787 -0.0604
   10CHTO   C16 4206   6.368   9.451   3.998  0.8322  0.4868 -0.1959
   10CHTO   O11 4207   6.449   9.379   4.092  0.2722 -0.0013 -0.3198
   10CHTO    H5 4208   6.409   9.295   4.103  1.7441 -1.0159 -2.3141
   10CHTO    O3 4209   6.572   9.303   3.598  0.1448 -0.4777 -0.2303
   10CHTO    C6 4210   6.678   9.200   3.622 -1.2569 -0.3027 -0.6200
   10CHTO   H19 4211   6.651   9.130   3.701 -1.5127  1.9081  1.2999
   10CHTO    C8 4212   6.697   9.127   3.485  0.2609  0.9567  0.2633
   10CHTO   H21 4213   6.707   9.204   3.409 -1.7981  0.8453 -0.1385
   10CHTO    O7 4214   6.581   9.047   3.471 -0.0836 -0.1329  0.1401
   10CHTO    H2 4215   6.594   8.986   3.401 -1.0448 -0.4663  0.2499
   10CHTO   C12 4216   6.829   9.033   3.492 -0.5836  0.2807 -0.7066
   10CHTO   H25 4217   6.807   8.952   3.564  2.1773 -2.2437 -2.5849
   10CHTO    N3 4218   6.868   8.964   3.359 -0.3473 -0.3361  0.2236
   10CHTO   H12 4219   6.873   9.039   3.282  1.5433 -0.5337  0.1246
   10CHTO   H13 4220   6.954   8.898   3.364  1.3864  1.8558  0.1275
   10CHTO   C15 4221   6.949   9.119   3.549 -0.5684  0.0461 -0.5035
   10CHTO   H28 4222   6.985   9.195   3.479 -1.3088 -0.3913 -1.3761
   10CHTO   O10 4223   7.070   9.023   3.601 -0.3030  0.2380  0.2964
   10CHTO    H4 4224   7.147   9.075   3.616 -1.1746  1.2388  1.3518
   10CHTO    O5 4225   6.909   9.179   3.676  0.0459 -0.2578  0.4581
   10CHTO   C10 4226   6.802   9.280   3.669 -0.3299  0.2504 -0.0852
   10CHTO   H23 4227   6.837   9.356   3.600  2.4712 -1.1547 -0.2763
   10CHTO   C17 4228   6.769   9.348   3.801 -0.6645  0.0276  0.0063
   10CHTO   O12 4229   6.747   9.259   3.910  0.5771  0.1735 -0.3313
   10CHTO    H6 4230   6.744   9.301   3.995  0.2205  0.4439 -0.4772
   11CHTO  H203 4231   4.738   4.489   1.378 -0.4916  1.0509 -0.2618
   11CHTO   O82 4232   4.742   4.516   1.467 -0.1695  0.2532 -0.0251
   11CHTO  C123 4233   4.834   4.628   1.483 -0.0301 -0.0463  0.2879
   11CHTO  H227 4234   4.818   4.674   1.581 -0.0278 -1.7930  1.1249
   11CHTO   O77 4235   4.960   4.564   1.475 -0.1576 -0.3359 -0.8756
   11CHTO  C118 4236   5.077   4.637   1.457 -0.1505  0.0651  0.4373
   11CHTO  H222 4237   5.098   4.699   1.546 -3.0745  1.6074  0.1365
   11CHTO  C125 4238   5.193   4.538   1.425 -0.6042 -0.4350 -0.4139
   11CHTO   O84 4239   5.223   4.454   1.541 -0.1215 -0.1369  0.1294
   11CHTO  H205 4240   5.281   4.483   1.610  1.8647  3.3941 -2.8125
   11CHTO  C114 4241   5.056   4.728   1.334  0.0657  0.2028  0.4080
   11CHTO  H218 4242   5.034   4.666   1.247  0.2632  0.2983  0.2916
   11CHTO  C116 4243   4.927   4.820   1.346  0.1074  0.6313  0.8217
   11CHTO  H220 4244   4.947   4.889   1.430  0.0560  2.9710 -1.0260
   11CHTO   O79 4245   4.918   4.897   1.219 -0.2361 -0.3592  0.0337
   11CHTO  H201 4246   4.987   4.959   1.210 -0.2522 -0.1026  1.5225
   11CHTO  C120 4247   4.805   4.731   1.366 -0.0875 -0.2968  0.3309
   11CHTO  H224 4248   4.797   4.675   1.270  0.3866 -2.2399  1.3829
   11CHTO   N21 4249   4.684   4.808   1.373 -0.0684  0.2646 -0.3961
   11CHTO  H211 4250   4.683   4.902   1.321 -1.0017  0.0709 -0.7322
   11CHTO  H212 4251   4.602   4.744   1.345 -0.6362  1.0171 -0.4677
   11CHTO   O75 4252   5.180   4.802   1.310 -0.1517  0.2019 -0.2618
   11CHTO  C112 4253   5.252   4.899   1.445 -0.0358 -0.2819  0.2012
   11CHTO  H216 4254   5.245   4.845   1.540  0.0826 -1.3732 -0.4042
   11CHTO   O73 4255   5.178   5.023   1.448  0.5601 -0.1942 -0.6129
   11CHTO  C113 4256   5.227   5.122   1.535 -0.4768 -0.1232 -0.0082
   11CHTO  H217 4257   5.214   5.076   1.636  0.0303 -0.2172  0.0169
   11CHTO  C124 4258   5.124   5.239   1.533 -0.1495 -0.2305  0.1476
   11CHTO   O83 4259   4.993   5.207   1.582 -0.5845 -0.3620  0.1265
   11CHTO  H204 4260   4.934   5.279   1.573  1.2462  0.9396 -1.7471
   11CHTO  C109 4261   5.374   5.168   1.515 -0.0997  0.0237 -0.1121
   11CHTO  H213 4262   5.379   5.216   1.416 -2.1775 -2.4525 -1.4590
   11CHTO  C110 4263   5.463   5.035   1.515 -0.1463  0.1338 -0.0627
   11CHTO  H214 4264   5.475   4.989   1.613  0.4661 -0.1455 -0.2636
   11CHTO   O78 4265   5.600   5.067   1.478  0.3132  0.0156 -0.4481
   11CHTO  H200 4266   5.663   4.999   1.488 -1.7296 -1.7742  0.8303
   11CHTO  C111 4267   5.402   4.928   1.418 -0.4136  0.3365 -0.3969
   11CHTO  H215 4268   5.413   4.958   1.313 -1.5128  0.1778 -0.5651
   11CHTO   N19 4269   5.479   4.795   1.437  0.8153  0.9853 -0.9711
   11CHTO  H207 4270   5.577   4.806   1.393  1.1080  1.1345 -0.2839
   11CHTO  H208 4271   5.439   4.722   1.368  1.0587 -0.0688 -0.0037
   11CHTO   O74 4272   5.409   5.263   1.619  0.1738 -0.3630 -0.8947
   11CHTO  C115 4273   5.486   5.393   1.558  0.2635 -0.4907 -0.0991
   11CHTO  H219 4274   5.501   5.385   1.451 -1.0973 -0.7619 -0.2774
   11CHTO   O76 4275   5.397   5.524   1.575  0.2157  0.9221 -0.6902
   11CHTO  C122 4276   5.399   5.590   1.703  0.4695 -0.6012  0.4883
   11CHTO  H226 4277   5.342   5.528   1.773  0.6449 -0.4331  0.7807
   11CHTO  C126 4278   5.321   5.723   1.705  0.1435 -0.0474 -0.0880
   11CHTO   O85 4279   5.360   5.797   1.589  0.0016  0.7246  0.2490
   11CHTO  H206 4280   5.446   5.828   1.610 -0.1856  1.8246 -0.5382
   11CHTO  C121 4281   5.546   5.601   1.764 -0.3712 -0.4128  0.3106
   11CHTO  H225 4282   5.556   5.710   1.780 -0.2228 -0.0449 -2.0857
   11CHTO   O81 4283   5.563   5.543   1.896  0.0071 -0.2928  0.1502
   11CHTO  H202 4284   5.570   5.450   1.882 -2.4170 -0.5052  0.1164
   11CHTO  C119 4285   5.660   5.550   1.667  0.0827 -0.1816  0.0972
   11CHTO  H223 4286   5.656   5.614   1.579  0.0611  0.6164  0.6721
   11CHTO  C117 4287   5.621   5.407   1.625  0.2908  0.2226  0.5019
   11CHTO  H221 4288   5.609   5.336   1.707 -0.8614 -0.6991 -0.4432
   11CHTO   N20 4289   5.735   5.363   1.548 -0.1589  0.0901 -0.2804
   11CHTO  H209 4290   5.712   5.371   1.442  1.2658 -3.4334 -0.9053
   11CHTO  H210 4291   5.746   5.256   1.555 -1.2762 -0.1448 -1.7486
   11CHTO   O80 4292   5.816   5.576   1.727  0.0278 -0.1166 -0.0678
   11CHTO  C103 4293   5.868   5.721   1.742  0.3367  0.0807  0.5295
   11CHTO  H190 4294   5.975   5.704   1.735  0.0333 -2.3560  1.1698
   11CHTO  C101 4295   5.822   5.838   1.643  0.0776  0.0591  0.0615
   11CHTO  H188 4296   5.713   5.836   1.638 -0.0965  3.0258  1.6692
   11CHTO   O68 4297   5.876   5.812   1.494  0.1921 -0.1851  0.2915
   11CHTO  H168 4298   5.844   5.728   1.467  0.3176 -0.4876  1.0525
   11CHTO   C99 4299   5.863   5.979   1.696 -0.0634 -0.1100  0.2294
   11CHTO  H186 4300   5.973   5.973   1.709  0.0282 -2.1058 -1.2946
   11CHTO   N17 4301   5.830   6.096   1.607  0.0044 -0.5845  0.0225
   11CHTO  H174 4302   5.889   6.080   1.519  1.1792  1.0238  0.4861
   11CHTO  H175 4303   5.862   6.185   1.660 -0.4887  0.2706 -1.0713
   11CHTO   C97 4304   5.799   5.982   1.838 -0.4916 -0.2948 -0.2200
   11CHTO  H184 4305   5.691   5.964   1.829 -0.3960 -1.1110  0.2171
   11CHTO   O64 4306   5.866   5.884   1.919 -0.0872  0.8527 -0.3946
   11CHTO  C104 4307   5.831   5.756   1.892  0.0025 -0.1099 -0.7414
   11CHTO  H191 4308   5.724   5.747   1.912 -0.1965  0.9727 -1.3248
   11CHTO  C108 4309   5.902   5.663   1.997 -0.1425 -0.4877  0.3254
   11CHTO   O71 4310   5.885   5.686   2.138 -0.2962  0.1989 -0.1881
   11CHTO  H171 4311   5.953   5.634   2.177 -0.0727  0.1734 -0.6010
   11CHTO   O62 4312   5.825   6.106   1.901 -0.0901  0.2822  0.5674
   11CHTO   C91 4313   5.728   6.151   1.998  0.4297  0.0267 -0.4570
   11CHTO  H178 4314   5.627   6.135   1.960  1.9157 -5.9450 -2.4775
   11CHTO   C92 4315   5.731   6.305   2.040  0.2367 -0.2257 -0.0883
   11CHTO  H179 4316   5.713   6.369   1.953 -0.5183 -0.9840 -0.4920
   11CHTO   O66 4317   5.614   6.341   2.119 -0.4901  1.0055 -0.1533
   11CHTO  H166 4318   5.535   6.327   2.072 -1.7232  0.8041  1.9134
   11CHTO   C93 4319   5.857   6.340   2.132 -0.4703 -0.1389 -0.0843
   11CHTO  H180 4320   5.824   6.428   2.189 -0.9754 -1.1311  1.1892
   11CHTO   N16 4321   5.977   6.375   2.058  0.2693  0.3132  0.0273
   11CHTO  H172 4322   6.004   6.303   1.981 -1.5351 -0.0986 -0.2348
   11CHTO  H173 4323   6.054   6.372   2.133  1.8940 -0.9759 -1.6465
   11CHTO   C94 4324   5.881   6.226   2.236  0.1872 -0.8541  0.2782
   11CHTO  H181 4325   5.959   6.157   2.202  3.0923  1.8844  1.0664
   11CHTO   O61 4326   5.769   6.135   2.255  0.7939 -0.0044  0.2000
   11CHTO   C95 4327   5.731   6.061   2.134  0.5409  0.1436  0.4433
   11CHTO  H182 4328   5.801   5.979   2.120  2.9798  2.1378  0.5219
   11CHTO  C106 4329   5.584   5.989   2.166 -0.0202 -0.3369  0.2084
   11CHTO   O69 4330   5.528   5.926   2.054  0.7524 -0.0174  0.2611
   11CHTO  H169 4331   5.485   5.988   1.998 -0.0947 -1.1514 -0.3559
   11CHTO   O63 4332   5.912   6.285   2.370 -0.4774  0.0880  0.3069
   11CHTO   C96 4333   6.029   6.220   2.437 -0.7145  0.4856  0.5620
   11CHTO  H183 4334   6.093   6.179   2.359  2.1642  4.2779  0.8050
   11CHTO   C98 4335   5.995   6.101   2.529  0.9919  0.3435  0.2055
   11CHTO  H185 4336   5.900   6.124   2.579  0.9651 -3.5455  2.0960
   11CHTO   O67 4337   5.965   5.982   2.447  0.0148 -0.4157 -0.1014
   11CHTO  H167 4338   6.042   5.964   2.395  1.7300  2.2857  1.3954
   11CHTO  C102 4339   6.101   6.078   2.647  0.1705  0.1458  0.6158
   11CHTO  H189 4340   6.170   6.005   2.602  1.4821  2.7554 -1.7958
   11CHTO   N18 4341   6.041   6.011   2.769 -0.1290 -0.0043 -0.4521
   11CHTO  H176 4342   5.965   6.068   2.820 -3.1728 -1.1569 -3.5315
   11CHTO  H177 4343   6.001   5.915   2.738 -1.4306  1.2074 -2.6041
   11CHTO  C105 4344   6.187   6.200   2.693 -0.6647 -0.4795 -0.8038
   11CHTO  H192 4345   6.130   6.262   2.761  1.5716 -1.5477  2.1671
   11CHTO   O65 4346   6.232   6.273   2.584 -0.1536  0.0379  0.2676
   11CHTO  C100 4347   6.134   6.335   2.505  0.9286 -0.1383  0.0058
   11CHTO  H187 4348   6.076   6.408   2.564  1.5921 -1.0832  1.8809
   11CHTO  C107 4349   6.204   6.418   2.390  0.3252  0.1132 -0.5932
   11CHTO   O70 4350   6.278   6.532   2.428 -0.6264  0.4230  0.2034
   11CHTO  H170 4351   6.343   6.510   2.492 -0.2605  0.4320 -0.1666
   11CHTO   O57 4352   6.310   6.134   2.776  0.2552  0.7515 -0.1532
   11CHTO   C85 4353   6.353   6.189   2.902 -0.2229 -0.1494  0.0063
   11CHTO  H157 4354   6.265   6.204   2.968 -0.2181 -1.0404  0.2240
   11CHTO   C83 4355   6.424   6.325   2.885  0.3521 -0.1653  0.8754
   11CHTO  H155 4356   6.344   6.395   2.860  0.6634 -0.5448 -1.2512
   11CHTO   O56 4357   6.525   6.321   2.785  0.0519 -0.0515  0.5465
   11CHTO  H135 4358   6.541   6.405   2.746  3.3528 -1.1347 -0.5958
   11CHTO   C81 4359   6.493   6.365   3.017  0.3943 -0.4139  0.3199
   11CHTO  H153 4360   6.416   6.366   3.093 -0.3503  1.1806 -0.4370
   11CHTO   N14 4361   6.537   6.507   3.015  1.1375  0.2672  0.2087
   11CHTO  H141 4362   6.465   6.570   2.967  1.3565  0.4011  0.0530
   11CHTO  H142 4363   6.635   6.516   2.972  0.2393 -0.7226 -2.1285
   11CHTO   C79 4364   6.600   6.256   3.063  0.2165  0.0858  0.8146
   11CHTO  H151 4365   6.644   6.283   3.158  0.1565 -0.9761  1.1569
   11CHTO   O52 4366   6.543   6.127   3.087 -0.2622 -0.1626 -0.2362
   11CHTO   C86 4367   6.457   6.081   2.966  0.2023  0.4943  0.6303
   11CHTO  H158 4368   6.533   6.052   2.891  0.4469 -0.5126  1.2624
   11CHTO   C90 4369   6.384   5.945   2.999  0.2598 -1.0001 -0.0673
   11CHTO   O60 4370   6.344   5.881   2.877 -0.1703 -0.4988 -0.3880
   11CHTO  H138 4371   6.270   5.930   2.844 -1.4261 -1.8281  0.3979
   11CHTO   O50 4372   6.713   6.245   2.973 -0.2655  0.3635 -0.6683
   11CHTO   C73 4373   6.844   6.201   2.979 -0.7683  0.5345  0.1143
   11CHTO  H145 4374   6.862   6.116   3.046 -0.4113  0.7226  0.2570
   11CHTO   C74 4375   6.945   6.311   3.018 -0.5871 -0.2697 -0.3779
   11CHTO  H146 4376   6.905   6.345   3.114 -1.2851  1.0381 -1.1172
   11CHTO   O54 4377   7.075   6.243   3.030  0.1652  0.1177 -0.2655
   11CHTO  H133 4378   7.093   6.206   2.945  1.1635 -1.3846  0.5744
   11CHTO   C75 4379   6.955   6.426   2.912 -0.3411 -0.0047 -0.3140
   11CHTO  H147 4380   6.860   6.481   2.911 -0.0756  0.4528 -0.2258
   11CHTO   N13 4381   7.057   6.531   2.929  0.4841 -0.4438  0.4607
   11CHTO  H139 4382   7.017   6.608   2.995  1.3397 -0.6657  1.2550
   11CHTO  H140 4383   7.090   6.579   2.839  0.0228 -0.3716  0.3296
   11CHTO   C76 4384   6.964   6.367   2.763 -0.3524  0.1985  0.0324
   11CHTO  H148 4385   7.063   6.327   2.740 -0.2465 -0.1086  1.0219
   11CHTO   O49 4386   6.873   6.256   2.743 -0.2918 -0.3430  0.1196
   11CHTO   C77 4387   6.880   6.149   2.837 -1.1111 -0.7289  0.4781
   11CHTO  H149 4388   6.981   6.108   2.838 -1.5031 -1.8140 -1.4279
   11CHTO   C88 4389   6.795   6.036   2.791 -0.8672 -0.0055 -0.0234
   11CHTO   O58 4390   6.790   5.909   2.871  0.2310 -0.3431 -0.0677
   11CHTO  H136 4391   6.800   5.926   2.963  0.3280 -0.5375 -0.0415
   11CHTO   O51 4392   6.927   6.474   2.659 -0.2058 -0.1361 -0.2853
   11CHTO   C78 4393   7.032   6.446   2.518  1.1903  1.0881  0.1442
   11CHTO  H150 4394   7.053   6.337   2.516 -0.5142  0.7336  1.3006
   11CHTO   C80 4395   7.162   6.531   2.530 -0.1229  0.1781 -0.3785
   11CHTO  H152 4396   7.131   6.633   2.563 -0.7811  0.1903 -1.0044
   11CHTO   O55 4397   7.242   6.471   2.631 -0.5369 -0.2585 -0.6353
   11CHTO  H134 4398   7.197   6.479   2.712  0.1091 -0.4419 -0.2558
   11CHTO   C84 4399   7.243   6.545   2.392 -0.1130 -0.5558  0.0248
   11CHTO  H156 4400   7.278   6.443   2.375 -0.3044 -0.4477 -1.0550
   11CHTO   N15 4401   7.372   6.631   2.401 -0.3069  0.0887 -0.0617
   11CHTO  H143 4402   7.457   6.574   2.433 -2.1634 -2.2693  0.8779
   11CHTO  H144 4403   7.390   6.687   2.311 -0.4954  0.4659  0.1375
   11CHTO   C87 4404   7.142   6.588   2.283 -0.3189 -0.3028 -0.4255
   11CHTO  H159 4405   7.117   6.694   2.286  0.3361 -0.1772  0.8704
   11CHTO   O53 4406   7.011   6.501   2.276 -0.3108 -0.4617 -0.0690
   11CHTO   C82 4407   6.942   6.492   2.401  0.5539  0.4699 -0.1425
   11CHTO  H154 4408   6.903   6.588   2.436  1.3184  1.3866 -1.7102
   11CHTO   C89 4409   6.819   6.394   2.389 -0.0242  0.0727  0.5805
   11CHTO   O59 4410   6.863   6.277   2.316 -0.1976 -0.7356 -0.4857
   11CHTO  H137 4411   6.800   6.208   2.322 -0.4374 -0.3166  2.5428
   11CHTO   O45 4412   7.214   6.559   2.142  0.0592  0.4681  0.4148
   11CHTO   C67 4413   7.121   6.550   2.031  0.5963 -0.3055  0.6430
   11CHTO  H124 4414   7.036   6.486   2.053 -1.5870  2.0293 -0.7064
   11CHTO   C65 4415   7.066   6.690   1.988 -0.3480 -0.5565 -0.6681
   11CHTO  H122 4416   7.130   6.753   2.049 -0.7205 -0.2010 -0.6369
   11CHTO   O44 4417   6.934   6.698   2.042  0.0957 -0.1840 -0.9043
   11CHTO  H102 4418   6.871   6.685   1.974 -1.1094  0.0061  0.1479
   11CHTO   C63 4419   7.095   6.722   1.838 -0.0705  0.2593  0.2242
   11CHTO  H120 4420   7.201   6.739   1.823 -0.3836  1.4647 -0.6553
   11CHTO   N11 4421   7.030   6.849   1.788 -0.2305 -0.0937  0.5082
   11CHTO  H108 4422   6.925   6.845   1.770 -0.0012  1.4997 -1.4481
   11CHTO  H109 4423   7.053   6.928   1.856  2.3140 -1.2112  0.9949
   11CHTO   C61 4424   7.059   6.595   1.751  0.0250  0.4202 -0.1960
   11CHTO  H118 4425   7.089   6.611   1.647  1.0945 -0.8719 -0.0977
   11CHTO   O40 4426   7.120   6.472   1.791 -0.2307 -0.1352 -0.0090
   11CHTO   C68 4427   7.195   6.483   1.910 -0.3126 -0.0898  0.2879
   11CHTO  H125 4428   7.285   6.539   1.874 -1.2667  0.4122 -1.3903
   11CHTO   C72 4429   7.239   6.342   1.939  0.1015  0.0159 -0.2295
   11CHTO   O48 4430   7.127   6.251   1.957 -0.3821 -0.1318  0.3893
   11CHTO  H105 4431   7.067   6.252   1.884 -1.8023 -0.5223  1.5258
   11CHTO   O38 4432   6.916   6.575   1.741  0.0084 -0.0529 -0.4730
   11CHTO   C55 4433   6.868   6.476   1.645 -0.5135 -0.1221  0.4374
   11CHTO  H112 4434   6.939   6.392   1.641  0.0702  0.4054 -0.5382
   11CHTO   C56 4435   6.847   6.540   1.503  0.0840  0.0102 -0.1917
   11CHTO  H113 4436   6.788   6.631   1.520 -1.3954 -0.7609 -1.0352
   11CHTO   O42 4437   6.966   6.579   1.437  0.3223  0.0608  0.2910
   11CHTO  H100 4438   6.962   6.672   1.425 -0.6795  0.4140  3.0500
   11CHTO   C57 4439   6.772   6.443   1.398  0.2533 -0.1436 -0.0167
   11CHTO  H114 4440   6.851   6.373   1.368  0.0713 -0.4467  0.2087
   11CHTO   N10 4441   6.717   6.499   1.274  0.0962  0.4390  0.2970
   11CHTO  H106 4442   6.781   6.477   1.190  1.5179 -0.0716  1.5066
   11CHTO  H107 4443   6.696   6.605   1.277 -0.3986  0.3409  0.4031
   11CHTO   C58 4444   6.658   6.368   1.472 -0.1710 -0.4752 -0.2017
   11CHTO  H115 4445   6.573   6.439   1.477  1.5146  1.6429 -1.0192
   11CHTO   O37 4446   6.688   6.321   1.607  0.6386  0.2611 -0.5286
   11CHTO   C59 4447   6.741   6.414   1.704 -0.4653 -0.6232 -0.5160
   11CHTO  H116 4448   6.663   6.490   1.715 -1.4328 -1.5469 -0.9620
   11CHTO   C70 4449   6.773   6.343   1.835  0.2143  0.0555 -0.3870
   11CHTO   O46 4450   6.653   6.307   1.905  0.1180 -0.2510  0.6731
   11CHTO  H103 4451   6.649   6.366   1.977  1.8967  1.5802 -0.6778
   11CHTO   O39 4452   6.628   6.224   1.378  0.2828  0.0229 -0.1138
   11CHTO   C60 4453   6.488   6.187   1.374 -0.0698 -0.0310 -0.4267
   11CHTO  H117 4454   6.455   6.190   1.478 -0.7584 -1.1796 -0.6083
   11CHTO   C62 4455   6.407   6.298   1.289 -0.6722  0.0619  0.6832
   11CHTO  H119 4456   6.418   6.397   1.338  1.3588  1.1751 -1.9343
   11CHTO   O43 4457   6.462   6.295   1.154 -0.2221  0.3699 -0.0798
   11CHTO  H101 4458   6.432   6.214   1.118  3.5416 -0.5893 -1.3388
   11CHTO   C66 4459   6.255   6.261   1.299 -0.0103 -0.3819  0.2922
   11CHTO  H123 4460   6.222   6.261   1.403 -2.9863  2.9901 -0.5900
   11CHTO   N12 4461   6.168   6.361   1.225 -0.1936 -0.1020  0.1773
   11CHTO  H110 4462   6.126   6.438   1.289 -0.7079 -1.5698  1.6436
   11CHTO  H111 4463   6.218   6.397   1.136 -1.2245 -1.5242 -0.9882
   11CHTO   C69 4464   6.232   6.120   1.241  0.2648  0.1285 -0.3024
   11CHTO  H126 4465   6.249   6.136   1.133 -2.8532  0.2699 -0.8441
   11CHTO   O41 4466   6.346   6.011   1.317  0.1785 -0.0674  0.3684
   11CHTO   C64 4467   6.457   6.047   1.316 -0.5332  0.4390 -0.1581
   11CHTO  H121 4468   6.476   6.054   1.207  0.9477 -1.9475 -0.0833
   11CHTO   C71 4469   6.550   5.930   1.372  0.3445  0.2730  0.2095
   11CHTO   O47 4470   6.516   5.877   1.500 -0.3901  0.1633  0.1597
   11CHTO  H104 4471   6.511   5.950   1.558 -1.4003 -0.0325  0.3444
   11CHTO   O34 4472   6.103   6.069   1.263 -0.3933  0.1533  0.0854
   11CHTO   C49 4473   6.006   5.963   1.205 -0.6463 -0.8811 -0.2318
   11CHTO   H91 4474   5.919   5.967   1.271 -1.5567 -1.1285 -1.4053
   11CHTO   C47 4475   6.072   5.822   1.198 -0.3473 -0.5569  0.1096
   11CHTO   H89 4476   6.083   5.788   1.303  1.4204 -0.5353 -0.0690
   11CHTO   O33 4477   6.201   5.833   1.139  0.0342  0.0870 -0.4659
   11CHTO   H70 4478   6.239   5.748   1.151  3.0610  1.2723 -1.1322
   11CHTO   C45 4479   5.982   5.722   1.102  0.4656  0.3622 -0.1769
   11CHTO   H87 4480   6.037   5.712   1.007 -1.1255  0.9820 -1.1724
   11CHTO    N8 4481   5.969   5.588   1.172 -0.2814 -0.2352  0.1341
   11CHTO   H75 4482   5.953   5.595   1.278 -0.6292 -1.1842  0.1503
   11CHTO   H76 4483   6.044   5.518   1.137  2.8921  0.9943  4.0679
   11CHTO   C43 4484   5.840   5.800   1.063  0.3429  0.5419  0.6997
   11CHTO   H85 4485   5.796   5.729   0.993 -0.5130 -0.4174  2.1832
   11CHTO   O29 4486   5.859   5.924   1.001 -0.6479  0.4891 -0.0123
   11CHTO   C50 4487   5.960   6.000   1.064 -0.3005 -0.1278 -0.1244
   11CHTO   H92 4488   6.056   5.994   1.011  0.4771  0.3642  1.2010
   11CHTO   C54 4489   5.931   6.154   1.054  0.0726 -0.0175 -0.4609
   11CHTO   O36 4490   5.811   6.195   1.111  0.2420  0.3166 -0.7885
   11CHTO   H72 4491   5.833   6.205   1.202 -0.4018  0.0468 -0.6038
   11CHTO   O27 4492   5.752   5.809   1.174  0.0334 -0.1680 -0.0611
   11CHTO   C37 4493   5.623   5.816   1.236  0.3229 -0.2989 -0.2373
   11CHTO   H79 4494   5.636   5.793   1.343  4.5493  0.5374 -0.4738
   11CHTO   C38 4495   5.561   5.955   1.223 -0.3622 -0.4362  0.0465
   11CHTO   H80 4496   5.561   5.979   1.115  0.3417 -0.5646  0.0217
   11CHTO   O31 4497   5.654   6.049   1.290  0.3898 -0.3456 -0.1660
   11CHTO   H68 4498   5.675   6.118   1.230  2.9959  0.7594  1.9469
   11CHTO   C39 4499   5.417   5.971   1.282  0.1010  0.1055 -0.3636
   11CHTO   H81 4500   5.414   5.945   1.388 -1.8091 -2.3438 -0.9788
   11CHTO    N7 4501   5.347   6.104   1.274 -0.8081  0.4295  0.1162
   11CHTO   H73 4502   5.243   6.092   1.251 -0.7988 -0.0012  0.3083
   11CHTO   H74 4503   5.353   6.156   1.368 -0.8568  1.4800 -0.4551
   11CHTO   C40 4504   5.328   5.857   1.223 -0.2419 -0.6434  0.2570
   11CHTO   H82 4505   5.295   5.879   1.121  2.2404  0.2149 -0.4045
   11CHTO   O26 4506   5.396   5.729   1.227 -0.0778 -0.2081  0.4678
   11CHTO   C41 4507   5.529   5.718   1.166  0.0640 -0.3005 -0.4048
   11CHTO   H83 4508   5.532   5.745   1.060 -0.5827 -2.5661 -1.0132
   11CHTO   C52 4509   5.568   5.565   1.173  0.6858 -0.4148 -0.8375
   11CHTO   O35 4510   5.481   5.488   1.082 -0.0593 -0.2403  0.0299
   11CHTO   H71 4511   5.512   5.400   1.069  0.8210 -0.1254  1.2532
   11CHTO   O28 4512   5.206   5.842   1.306  0.4624 -0.2109 -0.0330
   11CHTO   C42 4513   5.083   5.773   1.281 -0.1002  0.4628  0.9985
   11CHTO   H84 4514   5.097   5.733   1.180 -0.4439  2.4460  0.1585
   11CHTO   C44 4515   4.961   5.872   1.269 -0.5462 -0.3597  0.5685
   11CHTO   H86 4516   4.962   5.940   1.354 -0.8487  0.7230 -0.2791
   11CHTO   O32 4517   4.981   5.952   1.148  0.2438 -0.0739 -0.3539
   11CHTO   H69 4518   4.945   6.037   1.163  4.0566  1.2260  2.2647
   11CHTO   C48 4519   4.817   5.797   1.261  0.0197 -0.4327  0.7723
   11CHTO   H90 4520   4.815   5.757   1.159  0.8396 -0.1207  0.6278
   11CHTO    N9 4521   4.701   5.892   1.270 -0.4117  0.4739  0.1407
   11CHTO   H77 4522   4.717   5.969   1.196 -1.6492 -0.0460 -0.6818
   11CHTO   H78 4523   4.701   5.931   1.371 -2.0953  1.0785 -0.0738
   11CHTO   C51 4524   4.814   5.670   1.360  0.8522  0.4403 -0.1226
   11CHTO   H93 4525   4.821   5.719   1.458  1.1929 -0.7863  0.4781
   11CHTO   O30 4526   4.935   5.592   1.330  0.4858 -0.6727  0.0906
   11CHTO   C46 4527   5.056   5.649   1.375 -0.3400  0.3573  0.8612
   11CHTO   H88 4528   5.039   5.677   1.479  1.4123 -0.6659  1.4358
   11CHTO   C53 4529   5.166   5.547   1.364 -0.0809 -0.6769  0.6239
   11CHTO   O72 4530   5.211   5.528   1.230 -0.2102 -0.3944  0.3179
   11CHTO  H199 4531   5.214   5.610   1.186 -0.9775 -0.9297 -0.7665
   11CHTO   O22 4532   4.709   5.576   1.335 -0.3328 -0.9839  0.4268
   11CHTO   C31 4533   4.669   5.476   1.441  0.0170 -0.3311  0.1805
   11CHTO   H59 4534   4.759   5.469   1.506 -0.0885 -0.6239  0.2942
   11CHTO   C29 4535   4.554   5.530   1.528  0.4361  0.3281  0.0098
   11CHTO   H57 4536   4.470   5.543   1.459  1.0081  0.9985 -0.5728
   11CHTO   O21 4537   4.596   5.656   1.585 -0.2719 -0.0370  0.7740
   11CHTO   H37 4538   4.675   5.646   1.635  2.1269 -1.8512 -3.1241
   11CHTO   C27 4539   4.512   5.423   1.639  0.0870 -0.0485  0.0826
   11CHTO   H55 4540   4.597   5.412   1.709  0.5081  0.4198 -0.3486
   11CHTO    N5 4541   4.396   5.465   1.717 -0.1201 -0.4612  0.4051
   11CHTO   H43 4542   4.436   5.515   1.803 -1.1851 -2.0084  1.8403
   11CHTO   H44 4543   4.352   5.374   1.756 -2.0624  0.0937 -0.4380
   11CHTO   C25 4544   4.492   5.275   1.583  0.3267 -0.1776  0.0542
   11CHTO   H53 4545   4.400   5.281   1.523  1.3119 -0.0326 -1.4608
   11CHTO   O17 4546   4.609   5.244   1.503 -0.0475 -0.0818  0.3277
   11CHTO   C32 4547   4.628   5.331   1.391 -0.2200  0.6874  0.3063
   11CHTO   H60 4548   4.537   5.345   1.333  0.6971  1.0744 -1.0664
   11CHTO   C36 4549   4.731   5.264   1.296 -0.4147  0.0512  0.5056
   11CHTO   O25 4550   4.701   5.144   1.225  0.0855  0.5797  0.3526
   11CHTO   H40 4551   4.689   5.066   1.276 -0.0629  0.9183  0.8395
   11CHTO   O15 4552   4.474   5.157   1.695 -0.0561 -0.0453 -0.1277
   11CHTO   C19 4553   4.451   5.012   1.708  0.2708 -0.0787 -0.1512
   11CHTO   H47 4554   4.435   4.975   1.606  0.8939 -0.8760  0.0316
   11CHTO   C20 4555   4.576   4.924   1.760  0.6553  0.0713  0.2056
   11CHTO   H48 4556   4.606   4.950   1.863 -2.1279  1.1060  0.7859
   11CHTO   O19 4557   4.685   4.950   1.675  0.4378 -0.0387 -0.1342
   11CHTO   H35 4558   4.737   4.872   1.671 -2.7287 -2.3489  1.3652
   11CHTO   C21 4559   4.537   4.767   1.760 -0.4678 -0.4894  0.7285
   11CHTO   H49 4560   4.527   4.731   1.658  0.0289 -0.3802  0.6422
   11CHTO    N4 4561   4.646   4.679   1.811 -0.3126  0.2444  0.4700
   11CHTO   H41 4562   4.664   4.596   1.743  0.0732 -0.4513  1.4067
   11CHTO   H42 4563   4.739   4.732   1.828  0.4942 -1.3151  1.0953
   11CHTO   C22 4564   4.400   4.737   1.834 -0.6238  0.9743  0.1050
   11CHTO   H50 4565   4.413   4.742   1.942  4.2993 -0.4534 -0.2880
   11CHTO   O14 4566   4.299   4.831   1.790 -0.4383 -0.1784 -0.0432
   11CHTO   C23 4567   4.325   4.969   1.795 -0.8357 -0.3555 -0.8141
   11CHTO   H51 4568   4.338   4.988   1.903 -1.9790  2.1996 -1.0890
   11CHTO   C34 4569   4.202   5.043   1.740  0.5355  0.4627 -0.0986
   11CHTO   O23 4570   4.079   5.014   1.807  0.0805 -0.0892  0.0332
   11CHTO   H38 4571   4.005   5.070   1.791  0.6348  0.2022 -1.6223
   11CHTO   O16 4572   4.350   4.604   1.797  0.1065 -0.0382 -0.1932
   11CHTO   C24 4573   4.217   4.546   1.858  0.1360  0.3013  0.4492
   11CHTO   H52 4574   4.159   4.622   1.911 -0.0342 -0.3194  1.1716
   11CHTO   C26 4575   4.234   4.441   1.967 -0.2800  0.5338  0.6283
   11CHTO   H54 4576   4.296   4.360   1.923 -1.4541  1.2536 -2.5002
   11CHTO   O20 4577   4.319   4.503   2.064 -0.1361  0.2423  0.3036
   11CHTO   H36 4578   4.366   4.445   2.120 -0.5575 -0.6864 -0.2995
   11CHTO   C30 4579   4.102   4.380   2.009 -0.6511 -0.6181  0.2438
   11CHTO   H58 4580   4.033   4.455   2.049  1.2543  0.9408  0.7199
   11CHTO    N6 4581   4.116   4.270   2.116  0.1900 -0.2256  0.5134
   11CHTO   H45 4582   4.193   4.207   2.074 -1.1883 -0.9369 -1.0259
   11CHTO   H46 4583   4.148   4.318   2.207 -0.1479  1.3019 -0.1445
   11CHTO   C33 4584   4.024   4.330   1.886  1.0065  0.1160  0.3984
   11CHTO   H61 4585   4.079   4.250   1.834  0.2261  0.7852 -1.5051
   11CHTO   O18 4586   4.011   4.446   1.799  0.9014  0.1963 -0.4755
   11CHTO   C28 4587   4.130   4.489   1.745  0.1145 -0.4274  0.3442
   11CHTO   H56 4588   4.182   4.413   1.686 -0.4206 -0.8828  0.4514
   11CHTO   C35 4589   4.092   4.599   1.638  0.1784 -0.2837  0.0753
   11CHTO   O24 4590   4.025   4.712   1.685  0.4809  0.0418 -0.3861
   11CHTO   H39 4591   3.963   4.681   1.749  0.2475 -0.0170 -0.6409
   11CHTO    O9 4592   3.893   4.270   1.913  0.4167 -0.5601  0.1985
   11CHTO   C13 4593   3.813   4.176   1.796  0.2324 -0.0489 -0.3701
   11CHTO   H26 4594   3.837   4.071   1.822  0.4192 -0.0439 -0.5216
   11CHTO   C11 4595   3.847   4.209   1.650  0.2392  0.4787  0.3692
   11CHTO   H24 4596   3.955   4.196   1.630 -0.2974 -0.6008 -1.9404
   11CHTO    O8 4597   3.818   4.348   1.629 -0.2957  0.4527  0.3113
   11CHTO    H3 4598   3.729   4.358   1.601 -0.2781 -2.2433 -0.8498
   11CHTO    C9 4599   3.771   4.106   1.560 -0.2343 -0.4306 -0.7024
   11CHTO   H22 4600   3.798   4.006   1.596  0.9955  0.0657 -0.1999
   11CHTO    N2 4601   3.812   4.118   1.418  0.1423 -0.5210 -0.2034
   11CHTO   H10 4602   3.772   4.209   1.377  1.2284 -0.0648 -0.2682
   11CHTO   H11 4603   3.918   4.103   1.405  0.2217  0.7892 -1.1165
   11CHTO    C7 4604   3.613   4.117   1.587 -0.3875 -0.7980 -0.0353
   11CHTO   H20 4605   3.599   4.013   1.623  0.0363 -0.5958  0.7062
   11CHTO    O4 4606   3.581   4.207   1.688 -0.5097  0.5694  0.4975
   11CHTO   C14 4607   3.652   4.184   1.817  0.7013 -0.1366 -0.2124
   11CHTO   H27 4608   3.615   4.089   1.862 -0.6137 -1.1092 -3.2015
   11CHTO   C18 4609   3.607   4.302   1.912 -0.0421  0.1550  0.2886
   11CHTO   O13 4610   3.464   4.329   1.907 -0.0199 -0.0159 -0.1839
   11CHTO    H7 4611   3.428   4.313   1.992  2.0499 -2.0740  0.3441
   11CHTO    O2 4612   3.506   4.136   1.450  0.1208  0.2923  0.5908
   11CHTO    C1 4613   3.400   4.039   1.441  0.1026  0.1588 -0.8662
   11CHTO   H14 4614   3.368   4.021   1.545 -0.5345  0.3476 -1.0227
   11CHTO    C2 4615   3.431   3.902   1.382 -0.6436  0.5171  0.0062
   11CHTO   H15 4616   3.479   3.907   1.283  0.1741 -0.6605  0.3317
   11CHTO    O6 4617   3.527   3.838   1.472 -0.0599 -0.3407  0.3236
   11CHTO    H1 4618   3.580   3.781   1.418 -1.0891 -0.9718 -0.0250
   11CHTO    C3 4619   3.304   3.806   1.366  0.0254 -0.4107  0.6124
   11CHTO   H16 4620   3.267   3.768   1.462 -1.6063 -0.0641  0.1327
   11CHTO    N1 4621   3.348   3.686   1.288  0.0300 -0.1695 -0.3890
   11CHTO    H8 4622   3.257   3.628   1.278 -0.2089 -0.4833  2.8538
   11CHTO    H9 4623   3.396   3.720   1.198 -0.4083  0.5043 -0.3743
   11CHTO    C4 4624   3.186   3.882   1.302  0.1211 -0.0674  0.8211
   11CHTO   H17 4625   3.209   3.892   1.196  1.2939 -1.5231  0.9251
   11CHTO    O1 4626   3.161   4.006   1.363 -0.3249 -0.8148 -0.1488
   11CHTO    C5 4627   3.273   4.098   1.367 -0.6517  0.6648 -0.2783
   11CHTO   H18 4628   3.297   4.115   1.262  1.7995  0.0896  0.1596
   11CHTO   C16 4629   3.217   4.232   1.423 -0.0231  0.2149 -0.2004
   11CHTO   O11 4630   3.316   4.333   1.409  0.0997 -0.2665 -0.1117
   11CHTO    H5 4631   3.280   4.402   1.461  1.2279  0.1011  0.1872
   11CHTO    O3 4632   3.061   3.812   1.320  0.2968 -0.0264  0.4365
   11CHTO    C6 4633   2.942   3.842   1.238  0.0654 -0.0667 -0.3248
   11CHTO   H19 4634   2.954   3.932   1.178 -1.3262 -1.4966 -2.8178
   11CHTO    C8 4635   2.928   3.720   1.141  0.9012  0.2142  0.6627
   11CHTO   H21 4636   2.933   3.628   1.200 -2.8626 -0.8664 -0.5724
   11CHTO    O7 4637   3.042   3.723   1.052 -0.4032  0.1257  0.3166
   11CHTO    H2 4638   3.055   3.811   1.022 -2.1156  1.1544  2.4727
   11CHTO   C12 4639   2.792   3.726   1.067 -0.4297  0.6143  0.3410
   11CHTO   H25 4640   2.815   3.802   0.989 -0.7618  1.4690  1.0670
   11CHTO    N3 4641   2.761   3.605   0.986 -0.2153 -0.2636 -0.7739
   11CHTO   H12 4642   2.663   3.613   0.940 -0.8688 -0.0860  0.6136
   11CHTO   H13 4643   2.752   3.519   1.051 -0.7306  1.5982  1.6910
   11CHTO   C15 4644   2.668   3.776   1.150 -0.2659  0.2490 -0.5937
   11CHTO   H28 4645   2.629   3.688   1.201  1.0388 -0.2786 -0.4781
   11CHTO   O10 4646   2.564   3.845   1.064  0.3744 -0.7030 -0.1699
   11CHTO    H4 4647   2.495   3.884   1.115 -0.3408 -0.9642 -0.9331
   11CHTO    O5 4648   2.701   3.882   1.241 -0.1817  0.3178 -0.3712
   11CHTO   C10 4649   2.819   3.857   1.321  0.1130  0.2798 -0.1846
   11CHTO   H23 4650   2.808   3.773   1.389 -0.9755  0.6045  0.0437
   11CHTO   C17 4651   2.841   3.974   1.412 -0.1218  0.3384 -0.4041
   11CHTO   O12 4652   2.763   3.973   1.530  0.3570 -0.1411 -0.1431
   11CHTO    H6 4653   2.743   4.048   1.583 -2.7624 -0.3860 -0.8574
   12CHTO  H203 4654   5.195   0.864   2.163  0.2584 -0.9184 -0.2194
   12CHTO   O82 4655   5.236   0.848   2.246  0.4278 -0.2709 -0.1814
   12CHTO  C123 4656   5.202   0.726   2.306 -0.2095 -0.0683  0.4917
   12CHTO  H227 4657   5.267   0.710   2.393  0.7154 -0.4471 -0.2549
   12CHTO   O77 4658   5.059   0.742   2.348 -0.7952 -0.1208 -0.3326
   12CHTO  C118 4659   5.015   0.632   2.426 -0.0399 -0.2098  0.0185
   12CHTO  H222 4660   5.077   0.608   2.514 -0.3919 -0.5967  0.1596
   12CHTO  C125 4661   4.871   0.673   2.479 -0.6242 -0.0561 -0.1281
   12CHTO   O84 4662   4.864   0.792   2.559  0.2092 -0.0453 -0.4036
   12CHTO  H205 4663   4.789   0.846   2.540 -0.2006  0.1058  1.4715
   12CHTO  C114 4664   5.002   0.510   2.342 -0.1993  0.2516 -0.0584
   12CHTO  H218 4665   4.934   0.526   2.259 -1.0860 -0.6607  0.4786
   12CHTO  C116 4666   5.147   0.484   2.282  0.4889 -0.1993 -0.7286
   12CHTO  H220 4667   5.217   0.457   2.365  1.9435 -0.9696 -2.1793
   12CHTO   O79 4668   5.128   0.369   2.200  0.3632  0.5571 -0.1003
   12CHTO  H201 4669   5.191   0.304   2.224  0.1979 -0.8712 -3.2994
   12CHTO  C120 4670   5.204   0.606   2.211  0.0905  0.4287  0.6884
   12CHTO  H224 4671   5.144   0.627   2.120 -0.2922  0.6741  0.9942
   12CHTO   N21 4672   5.338   0.575   2.161 -0.7188 -0.0199 -0.6806
   12CHTO  H211 4673   5.390   0.666   2.132  1.7246 -1.4508 -0.9551
   12CHTO  H212 4674   5.331   0.502   2.082 -1.6173 -0.0432 -0.5772
   12CHTO   O75 4675   4.953   0.414   2.434 -0.1975 -0.1175  0.2844
   12CHTO  C112 4676   4.927   0.246   2.364 -0.3436  0.4725  0.0309
   12CHTO  H216 4677   5.016   0.190   2.331 -1.1020 -0.0737 -1.1215
   12CHTO   O73 4678   4.840   0.256   2.257 -0.5148  0.2747 -0.2644
   12CHTO  C113 4679   4.818   0.132   2.189 -0.4561  0.0068 -0.0914
   12CHTO  H217 4680   4.919   0.099   2.156 -0.8345 -0.0853 -1.1723
   12CHTO  C124 4681   4.734   0.151   2.062 -0.2494 -0.4392  0.0490
   12CHTO   O83 4682   4.680   0.281   2.048 -0.4628  0.1962 -0.9120
   12CHTO  H204 4683   4.665   0.298   1.957 -3.2651 -2.8596 -1.1201
   12CHTO  C109 4684   4.747   0.031   2.274 -0.9785  0.3857  0.4125
   12CHTO  H213 4685   4.644   0.067   2.286 -0.8029  0.7578  0.7890
   12CHTO  C110 4686   4.824   0.016   2.407 -0.2561 -0.4072  0.5832
   12CHTO  H214 4687   4.915  -0.037   2.381 -0.2228 -0.5169  0.9259
   12CHTO   O78 4688   4.766  -0.077   2.500  0.5978  0.2160  0.3295
   12CHTO  H200 4689   4.691  -0.034   2.536  1.8918  2.1411  0.7557
   12CHTO  C111 4690   4.863   0.154   2.477 -0.2228 -0.2872  0.1260
   12CHTO  H215 4691   4.773   0.211   2.502  1.6678  3.0166 -0.3634
   12CHTO   N19 4692   4.941   0.154   2.601  0.1818  0.2651  0.4385
   12CHTO  H207 4693   5.036   0.107   2.582  0.7641  1.8397 -0.6592
   12CHTO  H208 4694   4.958   0.252   2.644 -0.0076  0.2888  0.4636
   12CHTO   O74 4695   4.739  -0.101   2.202 -0.3826 -0.0281 -0.1567
   12CHTO  C115 4696   4.592  -0.191   2.236 -0.4593 -0.1430 -0.2478
   12CHTO  H219 4697   4.515  -0.127   2.279  0.3667  0.0634  0.9466
   12CHTO   O76 4698   4.525  -0.251   2.106  0.0845  0.1870 -0.6080
   12CHTO  C122 4699   4.614  -0.338   2.032 -0.3861  0.1234 -0.1063
   12CHTO  H226 4700   4.697  -0.278   1.995  0.9604 -0.6778  1.5357
   12CHTO  C126 4701   4.534  -0.382   1.910  0.7626 -0.5277  0.3218
   12CHTO   O85 4702   4.612  -0.466   1.818  0.0525 -0.3748 -0.4757
   12CHTO  H206 4703   4.648  -0.542   1.860 -0.4028  0.0548  0.6997
   12CHTO  C121 4704   4.673  -0.462   2.115 -0.0688  0.1043  0.0544
   12CHTO  H225 4705   4.621  -0.549   2.069 -0.8722 -0.3801  1.8421
   12CHTO   O81 4706   4.813  -0.477   2.102 -0.0571 -0.6698  0.7085
   12CHTO  H202 4707   4.845  -0.538   2.165 -0.6281  0.6333  2.2727
   12CHTO  C119 4708   4.626  -0.455   2.264  0.0016 -0.2053 -0.1078
   12CHTO  H223 4709   4.521  -0.485   2.262  0.0371 -0.3378  0.0152
   12CHTO  C117 4710   4.627  -0.307   2.336  0.3443  0.5897 -0.2038
   12CHTO  H221 4711   4.724  -0.291   2.383  0.9196 -1.0928 -0.7942
   12CHTO   N20 4712   4.529  -0.313   2.451  0.1811  0.3939 -0.6116
   12CHTO  H209 4713   4.556  -0.229   2.514 -0.5273 -1.7067  2.5992
   12CHTO  H210 4714   4.433  -0.317   2.402 -2.2273  1.3714  3.7354
   12CHTO   O80 4715   4.692  -0.576   2.363  0.3748  0.4291  0.0295
   12CHTO  C103 4716   4.593  -0.678   2.433  0.0168  0.3720  0.3018
   12CHTO  H190 4717   4.505  -0.628   2.474  0.0853  0.5798  0.1992
   12CHTO  C101 4718   4.539  -0.784   2.341  0.2385 -0.3485 -0.2352
   12CHTO  H188 4719   4.620  -0.842   2.297  1.2045  0.9273 -0.1470
   12CHTO   O68 4720   4.450  -0.729   2.237 -0.0296 -0.0458  0.0451
   12CHTO  H168 4721   4.469  -0.764   2.152 -1.2917 -1.0824  0.1780
   12CHTO   C99 4722   4.449  -0.882   2.433 -0.0931  0.3577 -0.8593
   12CHTO  H186 4723   4.359  -0.830   2.470 -0.2599 -0.2300 -0.4277
   12CHTO   N17 4724   4.392  -1.000   2.369 -0.4111  0.0747  0.1268
   12CHTO  H174 4725   4.472  -1.072   2.367  1.9474  2.4113  3.9756
   12CHTO  H175 4726   4.303  -1.033   2.420  0.4607 -0.6936  1.1510
   12CHTO   C97 4727   4.524  -0.924   2.560 -0.4940  0.3804  0.1614
   12CHTO  H184 4728   4.611  -0.984   2.532 -1.9244  0.1843 -4.1579
   12CHTO   O64 4729   4.565  -0.801   2.631 -0.1835 -0.1710  0.2101
   12CHTO  C104 4730   4.667  -0.732   2.552 -0.3338 -0.0095  0.7540
   12CHTO  H191 4731   4.737  -0.807   2.515 -0.4091  1.4111 -2.3701
   12CHTO  C108 4732   4.742  -0.636   2.644 -0.1803 -0.0506 -0.6193
   12CHTO   O71 4733   4.654  -0.554   2.713  0.2494 -0.3582 -0.2802
   12CHTO  H171 4734   4.624  -0.605   2.786 -0.6266  0.2614 -0.1976
   12CHTO   O62 4735   4.449  -0.991   2.663  0.0954  0.3350  0.3146
   12CHTO   C91 4736   4.517  -1.103   2.725  0.0373  0.2263 -0.7208
   12CHTO  H178 4737   4.540  -1.171   2.643 -1.1817  4.0525 -4.4792
   12CHTO   C92 4738   4.404  -1.167   2.820  0.2970 -0.3614 -0.1232
   12CHTO  H179 4739   4.312  -1.183   2.761  0.3914  0.0286 -0.3767
   12CHTO   O66 4740   4.433  -1.306   2.858 -0.1983 -0.3316  0.5949
   12CHTO  H166 4741   4.490  -1.316   2.932  1.5496  0.7420 -0.5523
   12CHTO   C93 4742   4.378  -1.085   2.948 -0.6746 -0.0848  0.3813
   12CHTO  H180 4743   4.348  -1.150   3.032  1.8925 -1.7115  0.1245
   12CHTO   N16 4744   4.265  -0.991   2.930  0.5032  0.1579  0.1930
   12CHTO  H172 4745   4.282  -0.902   2.990  1.4132 -0.2644  0.5764
   12CHTO  H173 4746   4.176  -1.046   2.957 -0.7654  2.9102  1.8688
   12CHTO   C94 4747   4.508  -1.003   2.995 -0.1194 -0.5787  0.1654
   12CHTO  H181 4748   4.523  -0.905   2.949  1.0317  0.5337  2.7841
   12CHTO   O61 4749   4.623  -1.074   2.942  0.3650 -0.8782 -0.1396
   12CHTO   C95 4750   4.646  -1.055   2.803  0.1755  0.9607  0.3905
   12CHTO  H182 4751   4.676  -0.952   2.787  0.4528  0.9093  0.5696
   12CHTO  C106 4752   4.768  -1.144   2.775 -0.3616 -0.4425 -0.1025
   12CHTO   O69 4753   4.892  -1.110   2.843 -0.0940 -0.3771  0.4608
   12CHTO  H169 4754   4.882  -1.104   2.936  2.1990  1.4885  0.6499
   12CHTO   O63 4755   4.502  -0.968   3.156  0.0211 -0.4468  0.2760
   12CHTO   C96 4756   4.560  -1.078   3.242  0.1194  0.1819  0.5476
   12CHTO  H183 4757   4.580  -1.164   3.177 -1.6027 -0.6312  1.0673
   12CHTO   C98 4758   4.463  -1.124   3.347  0.3919 -0.0520  0.1265
   12CHTO  H185 4759   4.367  -1.147   3.299 -0.0788  1.5040  0.3097
   12CHTO   O67 4760   4.504  -1.245   3.407  0.1191  0.5093  0.5912
   12CHTO  H167 4761   4.576  -1.227   3.463 -0.7948  0.9468  1.6426
   12CHTO  C102 4762   4.438  -1.025   3.468 -0.0291 -0.3118  0.0603
   12CHTO  H189 4763   4.378  -1.082   3.541  0.4760  2.8191  3.0330
   12CHTO   N18 4764   4.356  -0.906   3.442 -0.5588  1.2134  0.2135
   12CHTO  H176 4765   4.255  -0.923   3.478 -0.0481 -1.1763  0.6556
   12CHTO  H177 4766   4.412  -0.821   3.478  1.6804 -0.2517  0.2806
   12CHTO  C105 4767   4.581  -0.991   3.530  0.5893 -0.2393  0.7568
   12CHTO  H192 4768   4.599  -0.884   3.539 -1.2290  0.1906 -0.3248
   12CHTO   O65 4769   4.690  -1.046   3.452  0.1727  0.3778 -0.2268
   12CHTO  C100 4770   4.688  -1.028   3.308  0.2511  0.1926  0.6520
   12CHTO  H187 4771   4.698  -0.923   3.279 -3.4448  1.4352  3.4492
   12CHTO  C107 4772   4.803  -1.115   3.250 -0.0559 -0.0875 -0.0203
   12CHTO   O70 4773   4.841  -1.069   3.118  0.0721  0.6359 -0.3695
   12CHTO  H170 4774   4.932  -1.089   3.104 -0.0046 -0.9548  1.3023
   12CHTO   O57 4775   4.562  -1.047   3.663  0.5673  0.8120 -0.2089
   12CHTO   C85 4776   4.663  -1.116   3.726  0.3429  0.1069  0.3048
   12CHTO  H157 4777   4.750  -1.115   3.657 -0.2996  0.2055 -0.5108
   12CHTO   C83 4778   4.629  -1.272   3.727  0.4640  0.0313  0.4008
   12CHTO  H155 4779   4.622  -1.313   3.626  0.1614  0.6287  0.1762
   12CHTO   O56 4780   4.497  -1.301   3.786  0.6404 -0.4000  0.1436
   12CHTO  H135 4781   4.479  -1.391   3.765  1.5334 -0.6836  0.5339
   12CHTO   C81 4782   4.748  -1.342   3.797 -0.6154  0.1900  0.4126
   12CHTO  H153 4783   4.836  -1.322   3.735 -1.1935 -4.3250 -2.0759
   12CHTO   N14 4784   4.743  -1.491   3.797  0.1042 -0.3056  0.2872
   12CHTO  H141 4785   4.747  -1.530   3.897 -0.6888 -3.4430 -0.8599
   12CHTO  H142 4786   4.655  -1.525   3.746  0.1825  1.6464 -1.1923
   12CHTO   C79 4787   4.770  -1.290   3.944 -0.8832  0.3368 -0.1119
   12CHTO  H151 4788   4.865  -1.330   3.979 -1.0049 -0.1265 -0.3068
   12CHTO   O52 4789   4.799  -1.140   3.949 -0.2192  0.4430  0.2654
   12CHTO   C86 4790   4.698  -1.057   3.874 -0.5803 -0.1415  0.6450
   12CHTO  H158 4791   4.610  -1.047   3.941 -0.7037  1.2448  0.2694
   12CHTO   C90 4792   4.763  -0.918   3.859 -0.2713 -0.2346  0.3124
   12CHTO   O60 4793   4.807  -0.871   3.984 -0.3359  0.2374 -0.4714
   12CHTO  H138 4794   4.844  -0.939   4.036 -0.9259 -0.9978 -1.6446
   12CHTO   O50 4795   4.664  -1.315   4.037 -0.3293  0.2377 -0.2570
   12CHTO   C73 4796   4.601  -1.295   4.168 -0.0123  0.2602  0.0789
   12CHTO  H145 4797   4.501  -1.250   4.154  1.1429  2.1095 -2.6580
   12CHTO   C74 4798   4.688  -1.188   4.240  0.3404  0.0459  0.2752
   12CHTO  H146 4799   4.693  -1.096   4.179 -1.8215  2.4157  3.5132
   12CHTO   O54 4800   4.612  -1.146   4.357 -0.1044 -0.2112 -0.3032
   12CHTO  H133 4801   4.546  -1.085   4.331  0.8452  0.3401 -1.4778
   12CHTO   C75 4802   4.828  -1.255   4.268 -0.1464 -0.4341  0.9110
   12CHTO  H147 4803   4.875  -1.284   4.173 -0.2236 -1.9563  1.3201
   12CHTO   N13 4804   4.921  -1.157   4.336 -0.2791  0.2770 -0.1457
   12CHTO  H139 4805   4.941  -1.078   4.265  1.9629 -0.1260  0.0015
   12CHTO  H140 4806   4.874  -1.131   4.430  0.7514 -2.7490  1.2914
   12CHTO   C76 4807   4.811  -1.388   4.353 -0.2523  0.3268 -0.0688
   12CHTO  H148 4808   4.775  -1.361   4.453  0.5724 -2.1266  0.9140
   12CHTO   O49 4809   4.712  -1.478   4.295  0.0046 -0.1066 -0.4404
   12CHTO   C77 4810   4.588  -1.419   4.252 -0.7656 -0.4277  0.7764
   12CHTO  H149 4811   4.529  -1.391   4.340 -2.0519 -0.2078 -0.1463
   12CHTO   C88 4812   4.511  -1.523   4.175  0.1600 -0.2450 -0.1374
   12CHTO   O58 4813   4.498  -1.626   4.252  0.5091  0.0293 -0.0344
   12CHTO  H136 4814   4.449  -1.602   4.328 -0.5943 -0.7865 -0.4626
   12CHTO   O51 4815   4.945  -1.500   4.353  0.0519 -0.4186  0.5864
   12CHTO   C78 4816   5.069  -1.496   4.269 -0.2420  0.3372  0.1737
   12CHTO  H150 4817   5.094  -1.392   4.237 -0.0029  0.3866  0.5239
   12CHTO   C80 4818   5.057  -1.585   4.142  0.2318  0.3542 -0.4142
   12CHTO  H152 4819   5.039  -1.689   4.176 -2.1798  0.8008 -0.2529
   12CHTO   O55 4820   4.931  -1.545   4.071  0.1705  0.2941 -0.4822
   12CHTO  H134 4821   4.930  -1.584   3.986  0.6287  0.8530 -0.7474
   12CHTO   C84 4822   5.185  -1.566   4.048 -0.1683 -0.0573  0.8336
   12CHTO  H156 4823   5.182  -1.464   4.012  1.2454 -0.5966 -0.8923
   12CHTO   N15 4824   5.175  -1.649   3.926  0.5919 -0.2392 -0.3229
   12CHTO  H143 4825   5.091  -1.613   3.870  0.8114  3.5343  1.6440
   12CHTO  H144 4826   5.150  -1.749   3.955 -0.4263  0.7590  2.3138
   12CHTO   C87 4827   5.320  -1.576   4.122  0.2880 -0.2349  0.1476
   12CHTO  H159 4828   5.345  -1.678   4.150 -2.5949 -0.6257  1.4765
   12CHTO   O53 4829   5.304  -1.491   4.264  0.1715  0.2226 -0.1404
   12CHTO   C82 4830   5.195  -1.546   4.343 -0.0174 -0.6056 -0.0990
   12CHTO  H154 4831   5.190  -1.654   4.351 -1.5898 -0.4487  1.2406
   12CHTO   C89 4832   5.202  -1.498   4.490 -0.1044  0.0868 -0.0079
   12CHTO   O59 4833   5.325  -1.540   4.548  0.5219 -0.6983  0.0594
   12CHTO  H137 4834   5.335  -1.495   4.630  0.0021 -0.8405  0.2056
   12CHTO   O45 4835   5.450  -1.512   4.034  0.1632 -0.1833 -0.0232
   12CHTO   C67 4836   5.527  -1.600   3.951 -0.3842 -0.9492 -0.0033
   12CHTO  H124 4837   5.467  -1.688   3.930  0.0040 -1.2027 -0.0622
   12CHTO   C65 4838   5.564  -1.537   3.813  0.1525  0.5482 -0.1034
   12CHTO  H122 4839   5.477  -1.487   3.772 -1.5945 -0.5093  2.1803
   12CHTO   O44 4840   5.593  -1.644   3.721 -0.0816 -0.8427  0.1695
   12CHTO  H102 4841   5.515  -1.697   3.718 -0.1806 -0.7664  1.1877
   12CHTO   C63 4842   5.676  -1.431   3.834  0.0542  0.8467 -0.3752
   12CHTO  H120 4843   5.650  -1.369   3.920 -1.0540  1.3746 -1.0778
   12CHTO   N11 4844   5.698  -1.334   3.727  0.1890  0.3042  0.0001
   12CHTO  H108 4845   5.759  -1.257   3.768  1.1937 -0.1750 -0.5620
   12CHTO  H109 4846   5.598  -1.298   3.716  0.2242  0.2548 -0.5235
   12CHTO   C61 4847   5.804  -1.511   3.882 -0.2963 -0.7438 -0.1743
   12CHTO  H118 4848   5.874  -1.427   3.897  0.2687 -1.1868 -0.2829
   12CHTO   O40 4849   5.788  -1.574   4.003  0.3161 -0.2092 -0.5513
   12CHTO   C68 4850   5.664  -1.658   4.016  0.0002 -0.0721  0.2018
   12CHTO  H125 4851   5.648  -1.666   4.126  0.3877  0.6842  0.3151
   12CHTO   C72 4852   5.692  -1.800   3.963 -0.0915  0.2770 -0.1987
   12CHTO   O48 4853   5.783  -1.870   4.040 -0.3419  0.4755 -0.4167
   12CHTO  H105 4854   5.814  -1.953   4.009  1.3326  0.1735  1.8708
   12CHTO   O38 4855   5.859  -1.604   3.787  0.1185 -0.2293 -0.2808
   12CHTO   C55 4856   5.971  -1.567   3.711 -0.5140  0.4026  0.1036
   12CHTO  H112 4857   6.002  -1.461   3.721  1.7965 -0.3974  1.8337
   12CHTO   C56 4858   5.939  -1.604   3.559  0.2523 -0.3627  0.8912
   12CHTO  H113 4859   5.911  -1.710   3.557 -0.5854 -0.1259 -2.8333
   12CHTO   O42 4860   5.827  -1.529   3.511  0.2103 -0.1777  0.3325
   12CHTO  H100 4861   5.807  -1.527   3.419 -0.6226 -1.8159  0.4693
   12CHTO   C57 4862   6.065  -1.586   3.474 -0.1966  1.2078  0.1795
   12CHTO  H114 4863   6.099  -1.482   3.481 -1.5553  1.6853 -0.2370
   12CHTO   N10 4864   6.049  -1.611   3.332 -0.6798  0.5035 -0.2590
   12CHTO  H106 4865   6.023  -1.519   3.283 -0.1978  1.0821  0.5538
   12CHTO  H107 4866   5.972  -1.686   3.326  1.8994 -2.3565  1.1308
   12CHTO   C58 4867   6.174  -1.675   3.528  0.4132  0.0879  0.7465
   12CHTO  H115 4868   6.144  -1.781   3.512 -0.2599  0.4790 -0.6998
   12CHTO   O37 4869   6.200  -1.645   3.663  0.0032 -0.1156 -0.3434
   12CHTO   C59 4870   6.093  -1.658   3.758  0.0796 -0.3287  0.2432
   12CHTO  H116 4871   6.066  -1.764   3.758  0.2793 -0.3932  2.6707
   12CHTO   C70 4872   6.147  -1.609   3.887  0.2908 -0.2560 -0.2370
   12CHTO   O46 4873   6.290  -1.619   3.903  0.1431  0.4693  0.0971
   12CHTO  H103 4874   6.312  -1.651   3.988 -1.1588 -1.3627 -0.2149
   12CHTO   O39 4875   6.308  -1.650   3.449 -0.2739  0.3199 -0.1235
   12CHTO   C60 4876   6.377  -1.771   3.405  0.5089  0.6196  0.1873
   12CHTO  H117 4877   6.337  -1.861   3.452 -1.1020 -0.7038 -3.4825
   12CHTO   C62 4878   6.362  -1.784   3.248 -0.3188  0.2755 -0.4798
   12CHTO  H119 4879   6.253  -1.789   3.228 -0.3443  0.3432 -0.3608
   12CHTO   O43 4880   6.403  -1.664   3.183  0.1964  0.1301  0.1811
   12CHTO  H101 4881   6.491  -1.641   3.159 -0.0295  0.9436  0.1163
   12CHTO   C66 4882   6.436  -1.920   3.194  0.8562 -0.0285 -0.1203
   12CHTO  H123 4883   6.404  -2.009   3.248 -1.0839 -0.6863 -2.2716
   12CHTO   N12 4884   6.412  -1.945   3.049 -0.1719  0.7946  0.2779
   12CHTO  H110 4885   6.419  -1.852   2.995 -0.9313 -0.2565 -1.6953
   12CHTO  H111 4886   6.311  -1.977   3.032 -0.0516 -0.7587  2.2718
   12CHTO   C69 4887   6.588  -1.907   3.222  0.0835 -0.3817 -0.8286
   12CHTO  H126 4888   6.632  -1.816   3.176  2.3207 -0.3913  1.2175
   12CHTO   O41 4889   6.606  -1.891   3.378  0.3445  0.2457 -0.2782
   12CHTO   C64 4890   6.527  -1.768   3.442  0.3735 -0.5391 -0.4599
   12CHTO  H121 4891   6.585  -1.680   3.408 -0.2252  0.8024  1.8801
   12CHTO   C71 4892   6.550  -1.770   3.598  0.4570  0.2727  0.3789
   12CHTO   O47 4893   6.458  -1.855   3.667 -0.1376  0.1895 -0.2110
   12CHTO  H104 4894   6.384  -1.811   3.705  0.4360 -0.6133  1.9251
   12CHTO   O34 4895   6.673  -2.032   3.162  0.1685 -0.3479 -0.0505
   12CHTO   C49 4896   6.820  -2.085   3.128  0.3914 -1.2595 -0.5442
   12CHTO   H91 4897   6.884  -1.997   3.128  0.5483 -1.3383  1.5705
   12CHTO   C47 4898   6.821  -2.144   2.984  0.0911  0.0584  0.0004
   12CHTO   H89 4899   6.930  -2.162   2.974 -0.2886 -1.9929 -0.5764
   12CHTO   O33 4900   6.775  -2.036   2.897 -0.0548 -0.2220 -0.0205
   12CHTO   H70 4901   6.756  -2.070   2.812  0.5975 -0.1108 -0.2147
   12CHTO   C45 4902   6.730  -2.274   2.963 -0.0886 -0.7189  0.0886
   12CHTO   H87 4903   6.640  -2.241   2.909  0.6776  1.8207  0.3058
   12CHTO    N8 4904   6.804  -2.365   2.872  0.2252  0.1418 -0.4613
   12CHTO   H75 4905   6.899  -2.333   2.833 -0.9182  1.4178 -2.2882
   12CHTO   H76 4906   6.807  -2.465   2.911 -0.3166  0.7661  1.2064
   12CHTO   C43 4907   6.695  -2.334   3.112 -0.7201  0.5511 -0.3073
   12CHTO   H85 4908   6.618  -2.271   3.156 -0.0479  0.8567  0.4482
   12CHTO   O29 4909   6.817  -2.327   3.187 -0.3395 -0.3357  0.0010
   12CHTO   C50 4910   6.862  -2.202   3.228 -0.4122  0.6105 -0.5908
   12CHTO   H92 4911   6.818  -2.184   3.327 -0.5076 -1.3124 -0.2717
   12CHTO   C54 4912   7.012  -2.193   3.260 -0.8858 -0.1067  0.0341
   12CHTO   O36 4913   7.094  -2.220   3.147 -0.0927 -1.1705  0.3187
   12CHTO   H72 4914   7.127  -2.136   3.121  1.5588 -1.6695  0.7407
   12CHTO   O27 4915   6.637  -2.467   3.108  0.3124 -0.3849 -0.1972
   12CHTO   C37 4916   6.541  -2.529   3.191 -0.3703 -0.2355  0.5141
   12CHTO   H79 4917   6.535  -2.636   3.167  1.3830 -0.1426 -0.3989
   12CHTO   C38 4918   6.573  -2.513   3.344  0.1667 -0.4919  0.1554
   12CHTO   H80 4919   6.610  -2.411   3.364 -0.2494 -0.8475  2.9627
   12CHTO   O31 4920   6.691  -2.592   3.381 -0.5459  0.5994 -0.3214
   12CHTO   H68 4921   6.758  -2.527   3.381 -1.2201  1.3108  1.1358
   12CHTO   C39 4922   6.452  -2.542   3.434  0.1272 -0.3860  0.1636
   12CHTO   H81 4923   6.430  -2.647   3.419 -0.7247 -0.3194  0.8918
   12CHTO    N7 4924   6.472  -2.509   3.580  0.2776  0.2448 -0.0879
   12CHTO   H73 4925   6.523  -2.414   3.587 -2.1043  1.3546  3.0938
   12CHTO   H74 4926   6.532  -2.590   3.621  0.8530 -1.6480 -4.3934
   12CHTO   C40 4927   6.326  -2.462   3.372  0.2791  0.0607  0.0022
   12CHTO   H82 4928   6.354  -2.357   3.368  0.2968  0.0717  0.3565
   12CHTO   O26 4929   6.300  -2.525   3.240  0.4954  0.1663 -0.2588
   12CHTO   C41 4930   6.401  -2.465   3.150  0.0204  0.0474  0.4162
   12CHTO   H83 4931   6.408  -2.356   3.165  1.2282 -0.1930  1.7133
   12CHTO   C52 4932   6.368  -2.502   2.997  0.7903  0.0200  0.2011
   12CHTO   O35 4933   6.212  -2.438   2.958 -0.8191 -0.1197  0.1734
   12CHTO   H71 4934   6.138  -2.492   2.978  0.5808 -2.0133  0.3241
   12CHTO   O28 4935   6.201  -2.476   3.445 -0.3265 -0.0169  0.0977
   12CHTO   C42 4936   6.116  -2.352   3.466 -0.4946 -0.3949  0.9996
   12CHTO   H84 4937   6.121  -2.306   3.367  1.3264 -2.3699  0.1291
   12CHTO   C44 4938   6.172  -2.247   3.572  0.0805  0.1652 -0.2739
   12CHTO   H86 4939   6.148  -2.295   3.667 -0.0726 -1.3489 -1.0596
   12CHTO   O32 4940   6.309  -2.211   3.555  0.1198  0.0746  0.0292
   12CHTO   H69 4941   6.302  -2.149   3.485 -0.8854  0.9027  0.8457
   12CHTO   C48 4942   6.090  -2.117   3.574  0.1354 -0.1483  0.5830
   12CHTO   H90 4943   6.127  -2.067   3.485  1.3959  3.0480  2.8130
   12CHTO    N9 4944   6.129  -2.019   3.682  0.2915 -0.1594  0.9561
   12CHTO   H77 4945   6.192  -1.939   3.648 -0.0811  0.4345  1.6332
   12CHTO   H78 4946   6.174  -2.077   3.761 -0.4504 -1.7040  0.2720
   12CHTO   C51 4947   5.929  -2.144   3.573 -0.7034  0.3611 -0.5018
   12CHTO   H93 4948   5.891  -2.164   3.673 -1.3381  0.6779 -0.6755
   12CHTO   O30 4949   5.898  -2.248   3.475 -0.1659 -0.0564 -0.2978
   12CHTO   C46 4950   5.968  -2.378   3.502  0.0591  0.5194 -0.5912
   12CHTO   H88 4951   5.972  -2.416   3.604  0.4383 -2.0714 -1.5601
   12CHTO   C53 4952   5.910  -2.480   3.405 -0.1944  0.0244 -0.4766
   12CHTO   O72 4953   5.779  -2.521   3.441  0.2547  0.0073  0.1953
   12CHTO  H199 4954   5.750  -2.584   3.378  1.9620  0.7657 -1.3943
   12CHTO   O22 4955   5.869  -2.024   3.519 -0.1304 -0.4661 -0.4763
   12CHTO   C31 4956   5.729  -1.993   3.503  0.0687  0.4855 -0.0766
   12CHTO   H59 4957   5.685  -2.087   3.465  2.5213 -0.1996 -1.2956
   12CHTO   C29 4958   5.658  -1.957   3.635 -0.4156 -0.0119 -0.0425
   12CHTO   H57 4959   5.689  -1.857   3.668  0.2116 -0.3607  0.4336
   12CHTO   O21 4960   5.698  -2.051   3.737  0.9874 -0.4724 -0.0056
   12CHTO   H37 4961   5.699  -2.015   3.823 -1.2384  0.6043 -0.3883
   12CHTO   C27 4962   5.507  -1.955   3.607 -0.2798 -0.2888  0.2111
   12CHTO   H55 4963   5.482  -2.053   3.562 -0.5851 -1.2598  2.4225
   12CHTO    N5 4964   5.417  -1.927   3.718 -0.6019  0.1614 -1.4716
   12CHTO   H43 4965   5.413  -1.825   3.753  0.6225  0.3739 -1.9473
   12CHTO   H44 4966   5.319  -1.964   3.690  0.1888 -3.3986  0.1381
   12CHTO   C25 4967   5.471  -1.863   3.490 -0.5420 -0.0849  1.0171
   12CHTO   H53 4968   5.505  -1.764   3.524  1.9691  0.0186 -1.6475
   12CHTO   O17 4969   5.552  -1.898   3.375 -0.3573  0.1499 -0.0041
   12CHTO   C32 4970   5.696  -1.891   3.394  0.2594  0.3322 -0.4088
   12CHTO   H60 4971   5.730  -1.792   3.424  2.7591 -0.0878 -1.7207
   12CHTO   C36 4972   5.745  -1.947   3.255 -0.4503 -0.1811  0.2478
   12CHTO   O25 4973   5.881  -1.990   3.243  0.1032  0.2290  0.1563
   12CHTO   H40 4974   5.924  -2.008   3.325  0.8703 -0.2511 -0.3455
   12CHTO   O15 4975   5.313  -1.856   3.441  0.3231  0.2310  0.3696
   12CHTO   C19 4976   5.264  -1.751   3.346 -0.4434  0.8894  0.6002
   12CHTO   H47 4977   5.341  -1.673   3.349 -1.3815  1.7777  2.1937
   12CHTO   C20 4978   5.244  -1.796   3.201 -0.1906 -0.4850  1.3299
   12CHTO   H48 4979   5.179  -1.885   3.195 -0.3068 -0.2537 -1.6996
   12CHTO   O19 4980   5.374  -1.833   3.149  0.0406 -0.2190  0.2191
   12CHTO   H35 4981   5.417  -1.888   3.212  0.2978  1.0979  1.2134
   12CHTO   C21 4982   5.182  -1.684   3.099  0.6706 -0.5835  0.4250
   12CHTO   H49 4983   5.256  -1.605   3.086  1.5062 -1.0364  2.3000
   12CHTO    N4 4984   5.151  -1.738   2.964  0.3707 -0.4917  0.0895
   12CHTO   H41 4985   5.232  -1.739   2.894  0.0336  2.4532 -0.3766
   12CHTO   H42 4986   5.110  -1.838   2.970  1.8652 -0.9823  3.4203
   12CHTO   C22 4987   5.050  -1.642   3.170 -0.4512 -0.1453  0.4418
   12CHTO   H50 4988   4.981  -1.726   3.183  0.5081 -1.6882 -3.5716
   12CHTO   O14 4989   5.074  -1.597   3.303  0.5735 -0.0317 -0.4519
   12CHTO   C23 4990   5.136  -1.687   3.392 -0.1528 -0.0690 -0.4108
   12CHTO   H51 4991   5.062  -1.763   3.424  0.7171 -0.4295  0.7981
   12CHTO   C34 4992   5.158  -1.602   3.521  0.2777 -0.2177  0.0893
   12CHTO   O23 4993   5.028  -1.570   3.582 -0.2529  0.2036 -0.0086
   12CHTO   H38 4994   4.998  -1.640   3.637  1.2051  0.6375  1.3729
   12CHTO   O16 4995   4.981  -1.526   3.107 -0.2831  0.3573  0.1162
   12CHTO   C24 4996   4.827  -1.531   3.069  0.2720 -0.2552  0.0024
   12CHTO   H52 4997   4.790  -1.436   3.029 -2.9008 -1.6822 -0.5816
   12CHTO   C26 4998   4.756  -1.563   3.202  0.1992 -0.6053  0.2110
   12CHTO   H54 4999   4.806  -1.651   3.246  2.3720  0.4221 -0.1004
   12CHTO   O20 5000   4.756  -1.443   3.283  0.2758 -0.4871  0.0218
   12CHTO   H36 5001   4.847  -1.421   3.287 -0.0449  1.1865 -1.2411
   12CHTO   C30 5002   4.609  -1.611   3.182  0.0384 -0.2233 -0.0733
   12CHTO   H58 5003   4.553  -1.526   3.141  1.2533  1.0954  0.9295
   12CHTO    N6 5004   4.543  -1.660   3.306 -0.4468  0.5324 -0.2263
   12CHTO   H45 5005   4.541  -1.586   3.385  1.2513 -1.0885  1.3679
   12CHTO   H46 5006   4.589  -1.747   3.351  0.2985  2.2549  2.4476
   12CHTO   C33 5007   4.593  -1.720   3.067 -0.7907  0.0065 -1.1493
   12CHTO   H61 5008   4.643  -1.814   3.095  0.2549  0.6280 -0.8960
   12CHTO   O18 5009   4.654  -1.668   2.946  0.3459 -0.2317  0.1591
   12CHTO   C28 5010   4.796  -1.643   2.957 -0.5843  0.2489 -1.2469
   12CHTO   H56 5011   4.851  -1.735   2.974 -2.0324 -0.5263 -0.6545
   12CHTO   C35 5012   4.844  -1.593   2.824 -0.2024 -0.1140 -0.1119
   12CHTO   O24 5013   4.813  -1.676   2.713  0.4307  0.4016  0.3718
   12CHTO   H39 5014   4.762  -1.620   2.657  0.6241  1.4200  1.1831
   12CHTO    O9 5015   4.459  -1.759   3.046 -0.5715  0.1081 -0.6524
   12CHTO   C13 5016   4.424  -1.902   2.983 -0.1976 -0.2813  0.6657
   12CHTO   H26 5017   4.512  -1.935   2.924  1.2262  1.2179  1.9178
   12CHTO   C11 5018   4.294  -1.885   2.898  0.1270  0.0326  0.2303
   12CHTO   H24 5019   4.318  -1.836   2.803 -0.6488  0.3659  0.1959
   12CHTO    O8 5020   4.190  -1.806   2.963  0.6822  0.7838  0.8932
   12CHTO    H3 5021   4.163  -1.845   3.044 -1.6668 -1.0147 -0.6841
   12CHTO    C9 5022   4.245  -2.021   2.846  0.0132 -0.0249  0.4072
   12CHTO   H22 5023   4.327  -2.060   2.784  1.6324  2.0876  1.1780
   12CHTO    N2 5024   4.140  -2.020   2.746  0.0286  0.0823  0.7336
   12CHTO   H10 5025   4.187  -2.027   2.650 -0.3544  0.2605  0.5319
   12CHTO   H11 5026   4.075  -1.933   2.745  0.1786  0.2082  1.2702
   12CHTO    C7 5027   4.227  -2.126   2.954  0.2803 -0.0977 -0.2714
   12CHTO   H20 5028   4.215  -2.221   2.898  0.2058  0.7453 -1.7292
   12CHTO    O4 5029   4.343  -2.133   3.048  0.1338 -0.1295  0.0286
   12CHTO   C14 5030   4.401  -2.013   3.094  0.4074 -0.4293 -0.8936
   12CHTO   H27 5031   4.500  -2.040   3.137  0.0916 -0.9119 -0.4604
   12CHTO   C18 5032   4.321  -1.952   3.218 -0.2352  0.7344  0.2502
   12CHTO   O13 5033   4.337  -2.031   3.338  0.0346  0.0051  0.6277
   12CHTO    H7 5034   4.282  -2.105   3.324 -0.2521  0.2324  0.5436
   12CHTO    O2 5035   4.082  -2.089   3.042 -0.2223 -0.5446  0.3314
   12CHTO    C1 5036   3.985  -2.193   3.029  0.2659  0.0680 -0.0697
   12CHTO   H14 5037   4.013  -2.255   2.941 -0.2421  0.9637 -0.8695
   12CHTO    C2 5038   3.835  -2.141   3.012  0.1861 -0.3605  0.2148
   12CHTO   H15 5039   3.801  -2.079   3.095 -0.2565 -1.7163  1.0574
   12CHTO    O6 5040   3.829  -2.057   2.891  0.0042 -0.2809 -0.0956
   12CHTO    H1 5041   3.809  -2.116   2.820 -0.5678 -0.9434  0.6019
   12CHTO    C3 5042   3.729  -2.260   3.011  0.6475  0.2485  0.0219
   12CHTO   H16 5043   3.757  -2.318   2.922  2.6139 -2.3430  2.2174
   12CHTO    N1 5044   3.586  -2.216   3.001  0.1198  0.0455 -0.0595
   12CHTO    H8 5045   3.578  -2.110   2.986  1.0936  0.1924  0.3914
   12CHTO    H9 5046   3.540  -2.277   2.925  1.7015 -1.4282  0.1171
   12CHTO    C4 5047   3.747  -2.364   3.129 -0.8043 -0.6404 -0.4904
   12CHTO   H17 5048   3.711  -2.321   3.223  2.5309  1.2876  0.0169
   12CHTO    O1 5049   3.889  -2.391   3.145  0.3022 -0.6374 -0.7835
   12CHTO    C5 5050   3.986  -2.293   3.154  0.2618  0.1138 -0.1453
   12CHTO   H18 5051   3.959  -2.239   3.244 -0.7552  0.0288 -0.4008
   12CHTO   C16 5052   4.117  -2.361   3.179 -0.0372 -0.2454  0.2444
   12CHTO   O11 5053   4.151  -2.470   3.094 -0.4548 -0.1396  0.1623
   12CHTO    H5 5054   4.222  -2.451   3.036 -0.0922  3.3830  1.6325
   12CHTO    O3 5055   3.674  -2.488   3.100 -0.4507  0.3450 -0.0542
   12CHTO    C6 5056   3.642  -2.571   3.206 -0.0981  0.6616 -0.3844
   12CHTO   H19 5057   3.673  -2.539   3.305 -0.1748  1.3482 -0.5778
   12CHTO    C8 5058   3.479  -2.576   3.209  0.1694 -0.2014  0.2652
   12CHTO   H21 5059   3.443  -2.617   3.115  0.5778 -0.2481  0.1314
   12CHTO    O7 5060   3.442  -2.436   3.217  0.0524  0.7172 -0.3703
   12CHTO    H2 5061   3.469  -2.385   3.291 -0.9226  0.3847  0.2218
   12CHTO   C12 5062   3.417  -2.667   3.322 -0.0164  0.4143  0.2194
   12CHTO   H25 5063   3.453  -2.619   3.415 -2.5470  1.8337  0.5165
   12CHTO    N3 5064   3.266  -2.663   3.329 -0.3734  0.3012 -0.3519
   12CHTO   H12 5065   3.233  -2.600   3.247  0.5790  0.3879 -0.6737
   12CHTO   H13 5066   3.231  -2.765   3.322 -0.3074  0.2079  0.6812
   12CHTO   C15 5067   3.489  -2.806   3.300 -0.0078 -0.7041 -0.6544
   12CHTO   H28 5068   3.454  -2.855   3.209  2.4379  0.1306 -2.1140
   12CHTO   O10 5069   3.460  -2.912   3.425 -0.5509 -0.6695 -0.1650
   12CHTO    H4 5070   3.458  -2.999   3.390  0.0851 -0.5828 -0.4203
   12CHTO    O5 5071   3.638  -2.795   3.301 -0.2721  0.0733 -0.9447
   12CHTO   C10 5072   3.688  -2.719   3.190  0.1297 -0.5536  0.0005
   12CHTO   H23 5073   3.649  -2.762   3.097 -0.6376 -0.8842  0.4772
   12CHTO   C17 5074   3.846  -2.737   3.185  0.0923  0.3023 -0.2546
   12CHTO   O12 5075   3.910  -2.679   3.069  0.2006  0.0198 -0.7898
   12CHTO    H6 5076   3.852  -2.701   2.998  2.0490 -2.8085 -1.5301
   13CHTO  H203 5077   7.205   3.321   2.252  0.3094  0.0622  0.7839
   13CHTO   O82 5078   7.129   3.366   2.218  0.4811 -0.2173  0.0245
   13CHTO  C123 5079   7.074   3.473   2.291 -0.0773  0.6030  0.5989
   13CHTO  H227 5080   7.143   3.559   2.297  0.8714 -0.1634  0.7174
   13CHTO   O77 5081   6.957   3.505   2.206  0.7703 -0.1618 -0.9967
   13CHTO  C118 5082   6.889   3.626   2.250  0.0959  0.0378 -0.4356
   13CHTO  H222 5083   6.962   3.707   2.242  0.2067 -0.0813 -0.6400
   13CHTO  C125 5084   6.765   3.654   2.159  0.6417 -0.6489  0.3467
   13CHTO   O84 5085   6.801   3.672   2.025 -0.3758 -0.2783  0.2731
   13CHTO  H205 5086   6.754   3.748   1.995 -1.2028 -0.8784  0.0264
   13CHTO  C114 5087   6.839   3.615   2.396  0.6636  0.5595 -0.4269
   13CHTO  H218 5088   6.759   3.543   2.405  0.2349  0.9621 -0.9710
   13CHTO  C116 5089   6.949   3.551   2.492 -0.4738 -0.6626 -0.4475
   13CHTO  H220 5090   7.022   3.633   2.511 -1.1360  0.0475 -0.9089
   13CHTO   O79 5091   6.881   3.518   2.618 -0.2474  0.4971 -0.2698
   13CHTO  H201 5092   6.792   3.491   2.607 -0.4598  0.7229  0.7828
   13CHTO  C120 5093   7.023   3.429   2.434  0.1566 -0.8926 -0.3362
   13CHTO  H224 5094   6.951   3.345   2.426  0.0130 -0.8161  0.1602
   13CHTO   N21 5095   7.135   3.383   2.525  0.4692  0.8515  0.0951
   13CHTO  H211 5096   7.107   3.391   2.629 -0.7111  0.8001 -0.2077
   13CHTO  H212 5097   7.222   3.446   2.517  1.5459 -0.8427 -2.1296
   13CHTO   O75 5098   6.794   3.745   2.438  0.2269 -0.0781 -0.4183
   13CHTO  C112 5099   6.649   3.734   2.536  0.3368  0.2197  0.2374
   13CHTO  H216 5100   6.658   3.646   2.602 -0.8371 -0.5321 -0.5874
   13CHTO   O73 5101   6.533   3.719   2.452  0.2037  0.2739 -0.5618
   13CHTO  C113 5102   6.402   3.724   2.516 -0.1074  0.4039 -0.6479
   13CHTO  H217 5103   6.401   3.645   2.594  1.4633 -1.9836 -2.9928
   13CHTO  C124 5104   6.299   3.688   2.405 -0.6914 -0.3798  0.0257
   13CHTO   O83 5105   6.308   3.772   2.288 -0.4379 -0.1631 -0.0811
   13CHTO  H204 5106   6.375   3.738   2.232 -0.0756  1.8400 -0.8967
   13CHTO  C109 5107   6.382   3.865   2.574 -0.1750 -0.4366 -0.1290
   13CHTO  H213 5108   6.387   3.937   2.490 -0.3858  1.1673  1.2201
   13CHTO  C110 5109   6.495   3.887   2.684 -0.2298 -0.0292 -0.1146
   13CHTO  H214 5110   6.481   3.814   2.763  1.6215 -0.0195  0.2523
   13CHTO   O78 5111   6.491   4.021   2.747 -0.6965 -0.6276 -0.0355
   13CHTO  H200 5112   6.505   4.022   2.840  1.8919  1.0351 -0.4175
   13CHTO  C111 5113   6.641   3.864   2.633  1.2521 -0.4415  0.8884
   13CHTO  H215 5114   6.671   3.950   2.571  0.0227  0.4340  1.4894
   13CHTO   N19 5115   6.744   3.856   2.740  0.1426  0.3019 -0.0054
   13CHTO  H207 5116   6.727   3.776   2.811 -0.4681  0.2510 -0.2062
   13CHTO  H208 5117   6.749   3.948   2.797  1.2761 -0.4537  1.1423
   13CHTO   O74 5118   6.252   3.881   2.627 -0.0555  0.0991  0.0945
   13CHTO  C115 5119   6.193   4.014   2.648  0.2959 -0.2001  0.3024
   13CHTO  H219 5120   6.204   4.050   2.750 -0.2259  2.4849 -0.5568
   13CHTO   O76 5121   6.262   4.135   2.543  0.1869  0.4451 -0.1958
   13CHTO  C122 5122   6.193   4.163   2.421  0.3236  0.9912  0.5401
   13CHTO  H226 5123   6.216   4.080   2.354 -0.4339  1.4532 -0.3103
   13CHTO  C126 5124   6.248   4.294   2.357  0.5174 -0.3545 -0.3852
   13CHTO   O85 5125   6.250   4.396   2.455  0.1847 -0.2824  0.5819
   13CHTO  H206 5126   6.304   4.367   2.526 -0.6955 -1.6587  0.7115
   13CHTO  C121 5127   6.033   4.174   2.434 -0.4575  0.1397 -1.3241
   13CHTO  H225 5128   5.999   4.277   2.411 -0.6089  0.3324 -0.2972
   13CHTO   O81 5129   5.974   4.083   2.342 -0.0495  0.5819 -0.6446
   13CHTO  H202 5130   5.904   4.123   2.295  0.5694 -0.0230 -2.1108
   13CHTO  C119 5131   5.989   4.142   2.582 -0.3358 -0.3842 -0.1374
   13CHTO  H223 5132   6.010   4.228   2.645  1.1533 -1.2201  0.5449
   13CHTO  C117 5133   6.039   4.004   2.638  0.1784 -0.8759 -0.6530
   13CHTO  H221 5134   6.025   3.917   2.573  1.6834 -0.0576 -2.0982
   13CHTO   N20 5135   5.979   3.969   2.776 -0.0628 -0.3522 -0.0804
   13CHTO  H209 5136   6.036   3.882   2.807  1.4971  0.2020 -1.3326
   13CHTO  H210 5137   5.873   3.951   2.782  0.0483 -0.7114  1.1187
   13CHTO   O80 5138   5.818   4.148   2.569 -0.4952  0.3219  0.4683
   13CHTO  C103 5139   5.734   4.236   2.650 -0.1252 -0.3038  0.0767
   13CHTO  H190 5140   5.755   4.226   2.756 -1.6876  1.4850  0.5729
   13CHTO  C101 5141   5.725   4.386   2.609 -0.4418 -0.5272 -0.4318
   13CHTO  H188 5142   5.695   4.393   2.505  1.5599 -0.1633 -1.0130
   13CHTO   O68 5143   5.851   4.438   2.620  0.2136 -0.2588  0.0929
   13CHTO  H168 5144   5.867   4.471   2.706 -2.1369 -0.2516  0.5578
   13CHTO   C99 5145   5.614   4.456   2.714 -0.5394  0.6184  0.1914
   13CHTO  H186 5146   5.638   4.430   2.820  1.8404 -0.0384 -0.4920
   13CHTO   N17 5147   5.601   4.606   2.701  0.4760  0.3176 -0.0195
   13CHTO  H174 5148   5.551   4.647   2.787 -0.1922 -1.2106  0.3381
   13CHTO  H175 5149   5.566   4.642   2.606  0.2869 -1.7601 -0.7646
   13CHTO   C97 5150   5.478   4.381   2.682  0.7571  0.3850 -0.2902
   13CHTO  H184 5151   5.440   4.395   2.580  2.2309 -0.3527 -0.9633
   13CHTO   O64 5152   5.495   4.243   2.710  0.5630  0.0116 -0.0920
   13CHTO  C104 5153   5.588   4.176   2.631  0.2592  0.3396  0.6616
   13CHTO  H191 5154   5.566   4.172   2.524  1.4323  0.2684  0.4086
   13CHTO  C108 5155   5.576   4.030   2.678  0.8473 -0.2858  0.1931
   13CHTO   O71 5156   5.435   3.988   2.662  0.1778  0.3080 -0.0108
   13CHTO  H171 5157   5.381   4.049   2.709 -1.0645 -0.4053 -0.4597
   13CHTO   O62 5158   5.368   4.418   2.770 -0.2466  0.2140  0.2613
   13CHTO   C91 5159   5.248   4.455   2.715  0.7817 -0.0927 -0.0237
   13CHTO  H178 5160   5.251   4.510   2.621 -1.9899 -1.4249 -0.9547
   13CHTO   C92 5161   5.162   4.539   2.820  0.1070 -1.2090 -0.2095
   13CHTO  H179 5162   5.146   4.470   2.905  1.6566 -0.0435  1.0557
   13CHTO   O66 5163   5.234   4.658   2.858  0.7179  0.1306  0.2345
   13CHTO  H166 5164   5.325   4.651   2.877  1.0060  2.8387  0.0464
   13CHTO   C93 5165   5.021   4.577   2.770 -0.1971  0.0471  0.5147
   13CHTO  H180 5166   5.035   4.649   2.688 -1.7694  0.4736  0.5994
   13CHTO   N16 5167   4.931   4.638   2.871  0.4385 -0.3985 -0.2544
   13CHTO  H172 5168   4.842   4.686   2.830  0.0823  0.4470  1.4676
   13CHTO  H173 5169   4.991   4.708   2.928  2.0197 -2.0056  0.0861
   13CHTO   C94 5170   4.950   4.454   2.706 -0.4055  0.1312  0.0269
   13CHTO  H181 5171   4.927   4.373   2.776  1.9097 -0.1574  0.5001
   13CHTO   O61 5172   5.038   4.402   2.603  0.4113 -0.3561  0.1701
   13CHTO   C95 5173   5.152   4.341   2.663  0.8347 -0.2382  0.0100
   13CHTO  H182 5174   5.118   4.275   2.743 -0.0087  0.5230  0.2960
   13CHTO  C106 5175   5.209   4.258   2.547  0.1316 -0.0863 -0.1020
   13CHTO   O69 5176   5.136   4.142   2.520  0.4869  0.4788  0.7070
   13CHTO  H169 5177   5.185   4.102   2.450  0.1479 -0.2464  0.8758
   13CHTO   O63 5178   4.802   4.508   2.633 -0.1125 -0.1938 -0.5849
   13CHTO   C96 5179   4.667   4.431   2.699  0.4539  0.2932  0.3143
   13CHTO  H183 5180   4.691   4.402   2.802 -1.6928 -0.1360  0.7200
   13CHTO   C98 5181   4.639   4.300   2.619 -0.0879 -0.3252  0.0040
   13CHTO  H185 5182   4.636   4.313   2.509 -2.4294  0.5927  0.1330
   13CHTO   O67 5183   4.748   4.209   2.651  0.6049 -0.0632 -0.5183
   13CHTO  H167 5184   4.724   4.119   2.647 -0.8698  0.0871  3.4444
   13CHTO  C102 5185   4.505   4.242   2.661  0.1535  0.6846  0.3509
   13CHTO  H189 5186   4.514   4.213   2.767 -0.5301  0.0146  0.2320
   13CHTO   N18 5187   4.461   4.116   2.595 -0.3957  0.3527  0.0675
   13CHTO  H176 5188   4.355   4.108   2.616 -0.3650  0.8792  0.4187
   13CHTO  H177 5189   4.473   4.130   2.489  0.4942 -0.2566  0.0903
   13CHTO  C105 5190   4.392   4.343   2.660 -0.1992  0.7343  0.0404
   13CHTO  H192 5191   4.393   4.388   2.561  1.6788  1.4337  0.3503
   13CHTO   O65 5192   4.432   4.446   2.751 -0.1078 -0.4732  0.0040
   13CHTO  C100 5193   4.543   4.527   2.704 -0.4071 -0.0214  0.3992
   13CHTO  H187 5194   4.527   4.564   2.602 -0.9526 -2.1267 -0.3060
   13CHTO  C107 5195   4.564   4.657   2.785 -0.4164  0.0687  0.7290
   13CHTO   O70 5196   4.456   4.745   2.784  0.0121  0.1396 -0.2603
   13CHTO  H170 5197   4.459   4.800   2.708  0.4424  0.7390  0.1887
   13CHTO   O57 5198   4.245   4.288   2.693 -0.1683 -0.1081  0.1178
   13CHTO   C85 5199   4.133   4.353   2.642  0.2107 -0.6171  0.5786
   13CHTO  H157 5200   4.172   4.401   2.549  1.7923  0.2842  1.6916
   13CHTO   C83 5201   4.067   4.460   2.741 -0.4110  0.5079 -0.2373
   13CHTO  H155 5202   4.134   4.540   2.771 -2.0219  1.2883  1.3629
   13CHTO   O56 5203   4.021   4.392   2.865  0.2359  0.2734 -0.3796
   13CHTO  H135 5204   4.083   4.334   2.906 -0.1579  0.3215  0.2879
   13CHTO   C81 5205   3.950   4.526   2.668 -0.0054  0.0655  0.1652
   13CHTO  H153 5206   3.989   4.563   2.573  1.1462 -1.1157  0.1586
   13CHTO   N14 5207   3.901   4.653   2.736  0.4045  0.4347 -0.0242
   13CHTO  H141 5208   3.796   4.655   2.756  0.4373 -2.9821  0.6831
   13CHTO  H142 5209   3.952   4.660   2.830  1.1277 -0.4489 -0.3456
   13CHTO   C79 5210   3.836   4.426   2.636  0.0230  0.1975  0.0499
   13CHTO  H151 5211   3.764   4.476   2.572 -1.4197 -1.4840  0.3097
   13CHTO   O52 5212   3.892   4.321   2.551  0.4188 -0.2378 -0.1512
   13CHTO   C86 5213   4.013   4.254   2.608  0.0459  0.3231 -0.4982
   13CHTO  H158 5214   3.973   4.201   2.697 -0.6819 -1.5934 -1.9484
   13CHTO   C90 5215   4.063   4.141   2.511  0.1866  0.0928  0.0629
   13CHTO   O60 5216   3.961   4.043   2.497 -0.4047 -0.2920  0.7121
   13CHTO  H138 5217   3.934   4.033   2.407 -0.1139 -0.2386  0.6193
   13CHTO   O50 5218   3.760   4.390   2.754 -0.0615  0.0561 -0.2497
   13CHTO   C73 5219   3.634   4.326   2.786  0.3668 -0.3791 -0.2307
   13CHTO  H145 5220   3.585   4.284   2.697  0.8388  1.5339 -1.4237
   13CHTO   C74 5221   3.540   4.433   2.846 -0.3863  0.0756 -0.1773
   13CHTO  H146 5222   3.529   4.515   2.773 -1.2993 -0.6938 -0.9038
   13CHTO   O54 5223   3.408   4.382   2.866 -0.7312  0.2525  0.0828
   13CHTO  H133 5224   3.363   4.443   2.922  1.9027  2.8567 -0.4604
   13CHTO   C75 5225   3.594   4.488   2.987 -0.3721 -0.0463  0.3362
   13CHTO  H147 5226   3.690   4.540   2.971 -0.6015  0.0851 -0.6535
   13CHTO   N13 5227   3.500   4.587   3.048  0.3771  0.2990 -0.2731
   13CHTO  H139 5228   3.399   4.548   3.050 -0.2504  1.9019  0.0563
   13CHTO  H140 5229   3.489   4.679   2.993 -0.9156 -0.0842 -0.6795
   13CHTO   C76 5230   3.622   4.365   3.085 -0.4811  0.1587 -0.8973
   13CHTO  H148 5231   3.530   4.307   3.093 -0.4331  0.2574  0.6012
   13CHTO   O49 5232   3.725   4.287   3.014  0.1868  0.0446 -0.2694
   13CHTO   C77 5233   3.666   4.223   2.896 -0.2749  0.2261 -0.0915
   13CHTO  H149 5234   3.575   4.169   2.922 -0.2432 -0.1325 -0.7233
   13CHTO   C88 5235   3.760   4.112   2.848  0.0023  0.1600  0.0542
   13CHTO   O58 5236   3.743   4.049   2.722  0.0057 -0.0263  0.2002
   13CHTO  H136 5237   3.657   4.021   2.697  0.1899  1.3324 -2.1216
   13CHTO   O51 5238   3.679   4.423   3.237 -0.1038 -0.0057 -0.3104
   13CHTO   C78 5239   3.836   4.459   3.252 -0.2442 -0.7864 -0.6184
   13CHTO  H150 5240   3.853   4.509   3.350 -1.5362  0.5788 -1.0632
   13CHTO   C80 5241   3.892   4.556   3.143  0.5074 -0.3727  0.1136
   13CHTO  H152 5242   3.895   4.505   3.045  1.0151  2.1963 -1.2577
   13CHTO   O55 5243   3.813   4.677   3.151 -0.6891 -0.0979  0.3249
   13CHTO  H134 5244   3.726   4.665   3.117 -0.6258 -0.2264  0.2101
   13CHTO   C84 5245   4.047   4.591   3.175  0.3416  0.5992 -0.0245
   13CHTO  H156 5246   4.048   4.640   3.272 -1.7354 -0.9081  0.7843
   13CHTO   N15 5247   4.110   4.686   3.074  0.4183  0.3883  0.8027
   13CHTO  H143 5248   4.057   4.775   3.048 -2.3897 -1.3973  0.2559
   13CHTO  H144 5249   4.129   4.628   2.986  1.3837 -1.3109  2.1119
   13CHTO   C87 5250   4.125   4.456   3.185 -0.3695  0.1348 -0.4860
   13CHTO  H159 5251   4.128   4.417   3.083  0.4185 -0.6139 -0.1768
   13CHTO   O53 5252   4.052   4.352   3.293  0.3702 -0.4188 -0.0312
   13CHTO   C82 5253   3.915   4.330   3.257 -0.5954  0.1426  0.8172
   13CHTO  H154 5254   3.905   4.283   3.159 -0.5384  2.3596 -0.2832
   13CHTO   C89 5255   3.851   4.237   3.371 -0.3465 -0.1121  0.4121
   13CHTO   O59 5256   3.860   4.101   3.335  0.6887 -0.4202 -0.0848
   13CHTO  H137 5257   3.793   4.098   3.269 -1.4654 -1.9083  2.0548
   13CHTO   O45 5258   4.261   4.473   3.235  0.0634  0.3325 -0.1792
   13CHTO   C67 5259   4.364   4.388   3.181  0.4284 -0.0307  0.0567
   13CHTO  H124 5260   4.321   4.316   3.112  0.9088 -0.1229 -0.1473
   13CHTO   C65 5261   4.488   4.466   3.120 -0.3876 -0.1548  0.6374
   13CHTO  H122 5262   4.450   4.545   3.055 -0.3231 -0.2311  0.5055
   13CHTO   O44 5263   4.571   4.387   3.035 -0.3626 -0.1029  0.3950
   13CHTO  H102 5264   4.527   4.341   2.966 -1.6603  1.7698 -0.0441
   13CHTO   C63 5265   4.556   4.543   3.237 -0.1349 -0.2085  0.5822
   13CHTO  H120 5266   4.486   4.610   3.285  0.2622  1.2402 -0.8011
   13CHTO   N11 5267   4.653   4.653   3.192 -0.0820 -0.1138  0.2693
   13CHTO  H108 5268   4.606   4.710   3.115 -0.4507  1.5499  1.6889
   13CHTO  H109 5269   4.745   4.618   3.150  0.0310 -1.9969  2.0298
   13CHTO   C61 5270   4.615   4.453   3.347 -0.0123 -0.1633  0.3381
   13CHTO  H118 5271   4.652   4.515   3.430 -0.8047  1.3005 -0.3736
   13CHTO   O40 5272   4.516   4.366   3.396 -0.3522 -0.2207  0.0542
   13CHTO   C68 5273   4.417   4.297   3.302  0.8332  0.3670 -1.2090
   13CHTO  H125 5274   4.322   4.265   3.349  0.6054  0.9905 -1.2444
   13CHTO   C72 5275   4.478   4.171   3.244  0.0694  0.0566 -0.2200
   13CHTO   O48 5276   4.534   4.069   3.332  0.0416  0.4522 -0.1200
   13CHTO  H105 5277   4.548   3.991   3.282  1.1161 -0.0599  0.9530
   13CHTO   O38 5278   4.715   4.368   3.288  0.3041 -0.2268  0.2112
   13CHTO   C55 5279   4.838   4.338   3.355 -0.1720 -0.6538 -0.6159
   13CHTO  H112 5280   4.890   4.255   3.305 -0.8982 -1.0141 -0.7815
   13CHTO   C56 5281   4.813   4.308   3.511 -0.0279  0.9518 -0.5279
   13CHTO  H113 5282   4.736   4.381   3.542  0.7545  2.0356 -1.0757
   13CHTO   O42 5283   4.748   4.178   3.514 -0.0779 -0.6221 -0.1018
   13CHTO  H100 5284   4.743   4.162   3.606  0.5258  0.9833  0.2243
   13CHTO   C57 5285   4.937   4.312   3.600  0.9468 -0.4569  0.4504
   13CHTO  H114 5286   4.980   4.213   3.582  0.4018 -0.3823 -1.3852
   13CHTO   N10 5287   4.912   4.317   3.747  0.1011 -0.0715 -0.1453
   13CHTO  H106 5288   4.990   4.266   3.801  0.2345  0.3877  0.0916
   13CHTO  H107 5289   4.817   4.270   3.769  0.7411 -1.9014 -1.1049
   13CHTO   C58 5290   5.041   4.422   3.561  0.1097 -0.3133 -0.2754
   13CHTO  H115 5291   5.011   4.516   3.612  4.4762  0.3475  1.2360
   13CHTO   O37 5292   5.055   4.438   3.420  0.0780  0.0238  0.1697
   13CHTO   C59 5293   4.939   4.454   3.339  0.3305 -0.2388 -1.0559
   13CHTO  H116 5294   4.885   4.545   3.365  0.2668 -0.5295 -0.1360
   13CHTO   C70 5295   4.985   4.467   3.191 -0.1173 -0.3141  0.6549
   13CHTO   O46 5296   5.086   4.567   3.175  0.6202 -0.2553 -0.1493
   13CHTO  H103 5297   5.163   4.538   3.220 -0.3984 -2.5955  0.1567
   13CHTO   O39 5298   5.199   4.392   3.610 -0.3289 -0.4083  0.5471
   13CHTO   C60 5299   5.299   4.491   3.577 -0.6703 -0.2255  0.0148
   13CHTO  H117 5300   5.280   4.509   3.471 -0.7421  3.8605  0.6182
   13CHTO   C62 5301   5.289   4.621   3.661 -0.0381 -0.2590  0.1016
   13CHTO  H119 5302   5.187   4.664   3.647  0.9795  1.5870 -1.7949
   13CHTO   O43 5303   5.293   4.590   3.801  0.0655 -0.0226  0.4637
   13CHTO  H101 5304   5.233   4.639   3.854 -0.6304  0.6106 -0.8898
   13CHTO   C66 5305   5.394   4.730   3.616 -0.2174 -0.1820  0.4056
   13CHTO  H123 5306   5.374   4.753   3.511  0.1547 -5.9355 -1.0733
   13CHTO   N12 5307   5.377   4.865   3.683 -0.0507 -0.3927  0.1900
   13CHTO  H110 5308   5.451   4.934   3.647 -2.8123  1.6169 -1.8583
   13CHTO  H111 5309   5.378   4.839   3.788  1.2690 -2.6454 -0.3456
   13CHTO   C69 5310   5.538   4.668   3.628 -0.5231  0.0386 -0.1120
   13CHTO  H126 5311   5.565   4.641   3.733 -1.2762 -3.2345 -0.6966
   13CHTO   O41 5312   5.553   4.540   3.548  0.5037  0.0017  0.6230
   13CHTO   C64 5313   5.443   4.436   3.588  0.1699  0.2400 -0.1938
   13CHTO  H121 5314   5.457   4.396   3.691  1.0776 -2.2891 -1.2418
   13CHTO   C71 5315   5.464   4.318   3.494 -0.2654  0.3566  0.2261
   13CHTO   O47 5316   5.588   4.248   3.496  0.0855 -0.1297  0.1847
   13CHTO  H104 5317   5.578   4.172   3.442 -1.8348  1.5403 -1.8915
   13CHTO   O34 5318   5.652   4.777   3.584  0.8716 -0.0090  1.0231
   13CHTO   C49 5319   5.781   4.827   3.556  0.1723  0.0235  0.3879
   13CHTO   H91 5320   5.820   4.740   3.503  0.5915  0.1090  0.5540
   13CHTO   C47 5321   5.853   4.852   3.688 -0.9604  0.0282 -0.3562
   13CHTO   H89 5322   5.951   4.896   3.662 -0.7647  0.5401  1.2171
   13CHTO   O33 5323   5.872   4.724   3.754  0.4978  0.0727  0.1744
   13CHTO   H70 5324   5.789   4.689   3.782  1.4367 -3.2110 -0.8626
   13CHTO   C45 5325   5.767   4.958   3.771  0.3327  0.7003  0.2709
   13CHTO   H87 5326   5.663   4.923   3.781  1.0308 -2.3210 -2.2783
   13CHTO    N8 5327   5.815   4.993   3.908 -0.1542 -0.3300  0.3691
   13CHTO   H75 5328   5.913   5.038   3.912  1.0811 -2.6828 -1.9915
   13CHTO   H76 5329   5.822   4.904   3.969  1.0408  0.1631  0.9630
   13CHTO   C43 5330   5.759   5.088   3.667 -0.6833  0.5917 -0.0771
   13CHTO   H85 5331   5.697   5.159   3.721 -2.2464  0.7187 -1.9822
   13CHTO   O29 5332   5.700   5.060   3.539  0.5692  0.1017 -0.1913
   13CHTO   C50 5333   5.760   4.950   3.463  0.2880  0.5407 -0.1583
   13CHTO   H92 5334   5.702   4.932   3.372 -0.2270 -0.3775  0.3414
   13CHTO   C54 5335   5.894   4.999   3.394  0.2572  0.3000 -0.4057
   13CHTO   O36 5336   5.856   5.122   3.324 -0.4007  0.0835  0.2932
   13CHTO   H72 5337   5.828   5.190   3.382 -1.9045  3.0837 -3.7477
   13CHTO   O27 5338   5.882   5.155   3.654  0.2600 -0.0725  0.0506
   13CHTO   C37 5339   5.972   5.259   3.672 -0.3807  0.3000 -0.0881
   13CHTO   H79 5340   5.953   5.312   3.767 -1.0494  3.6947 -2.0415
   13CHTO   C38 5341   6.118   5.206   3.685  0.8596  0.2111 -0.8031
   13CHTO   H80 5342   6.148   5.152   3.594  0.1025 -1.8834  0.1618
   13CHTO   O31 5343   6.132   5.121   3.799  0.4786 -0.5375  0.4982
   13CHTO   H68 5344   6.142   5.035   3.763 -1.9965 -0.6375 -0.0724
   13CHTO   C39 5345   6.219   5.330   3.703  0.1136  0.2027  0.1974
   13CHTO   H81 5346   6.203   5.379   3.799  3.1085 -0.0425  0.8585
   13CHTO    N7 5347   6.362   5.285   3.702 -0.7562  0.2873  0.0284
   13CHTO   H73 5348   6.432   5.363   3.729 -0.4387  0.1110 -0.2835
   13CHTO   H74 5349   6.369   5.216   3.784  2.9150  3.1073  2.2648
   13CHTO   C40 5350   6.193   5.426   3.577 -0.3040 -0.4885 -0.1731
   13CHTO   H82 5351   6.211   5.361   3.491 -1.6227  0.2840 -1.0431
   13CHTO   O26 5352   6.053   5.464   3.587 -0.0336 -0.1727  0.3095
   13CHTO   C41 5353   5.957   5.363   3.560 -0.7295  0.0702 -0.5637
   13CHTO   H83 5354   5.982   5.317   3.463  2.0113 -2.0125  1.0472
   13CHTO   C52 5355   5.819   5.431   3.552  0.3703  0.8992 -0.1669
   13CHTO   O35 5356   5.801   5.487   3.422  0.3762  0.3354 -0.2071
   13CHTO   H71 5357   5.857   5.561   3.408  0.6665  0.1730  0.1162
   13CHTO   O28 5358   6.275   5.543   3.569  0.2664  0.0335  0.7825
   13CHTO   C42 5359   6.281   5.654   3.479  0.1607 -0.0555 -0.3878
   13CHTO   H84 5360   6.380   5.633   3.439  0.6058 -0.8921  1.0924
   13CHTO   C44 5361   6.291   5.800   3.532 -0.2835 -0.2494 -0.2094
   13CHTO   H86 5362   6.214   5.820   3.607 -1.1329 -1.5327 -0.7193
   13CHTO   O32 5363   6.416   5.815   3.605  0.3683  0.2297 -0.1262
   13CHTO   H69 5364   6.427   5.905   3.627  0.6090 -0.0283  0.8218
   13CHTO   C48 5365   6.281   5.912   3.420 -0.4666 -0.1398 -0.4919
   13CHTO   H90 5366   6.366   5.894   3.355  0.0989  1.9046 -0.3599
   13CHTO    N9 5367   6.281   6.056   3.475  0.7110 -0.6146  0.3304
   13CHTO   H77 5368   6.358   6.065   3.549  0.6092 -2.4528  0.6903
   13CHTO   H78 5369   6.291   6.120   3.389 -1.5962  1.2461  1.4199
   13CHTO   C51 5370   6.152   5.882   3.341  0.2612 -0.0818  0.0644
   13CHTO   H93 5371   6.066   5.865   3.405  1.2411  2.2325  2.0674
   13CHTO   O30 5372   6.193   5.761   3.271  0.7603 -0.0527  0.3187
   13CHTO   C46 5373   6.185   5.644   3.355  0.1588  0.3563  0.2188
   13CHTO   H88 5374   6.082   5.636   3.392 -0.3889  2.1456 -0.8789
   13CHTO   C53 5375   6.228   5.527   3.263  0.3703  0.2009 -0.2882
   13CHTO   O72 5376   6.137   5.522   3.147  0.4485  0.1832  0.0102
   13CHTO  H199 5377   6.176   5.479   3.074 -1.3718 -3.2577  0.9778
   13CHTO   O22 5378   6.120   5.959   3.225 -0.0701  0.7613  0.3677
   13CHTO   C31 5379   5.986   5.983   3.164 -0.3984 -0.1902 -0.2980
   13CHTO   H59 5380   6.005   6.050   3.077 -0.4053 -0.9291 -0.8763
   13CHTO   C29 5381   5.912   5.860   3.103 -0.1615  0.1878 -0.8463
   13CHTO   H57 5382   5.891   5.787   3.182 -0.4249  0.1448 -0.9582
   13CHTO   O21 5383   6.001   5.792   3.016  0.4738 -0.0204  0.1332
   13CHTO   H37 5384   6.056   5.735   3.066 -0.5843 -1.1139  0.0480
   13CHTO   C27 5385   5.777   5.905   3.031 -0.4147 -0.2269 -0.1978
   13CHTO   H55 5386   5.800   5.977   2.951  0.0357  0.1318  0.2488
   13CHTO    N5 5387   5.695   5.795   2.977 -0.2975  0.1289  0.3682
   13CHTO   H43 5388   5.746   5.706   2.942  0.5119  1.6944 -2.5780
   13CHTO   H44 5389   5.606   5.808   2.918 -0.7860 -1.4744  0.7261
   13CHTO   C25 5390   5.697   5.993   3.130 -0.0757 -0.8729 -0.5748
   13CHTO   H53 5391   5.659   5.919   3.203  3.4724 -1.1091  1.1104
   13CHTO   O17 5392   5.771   6.097   3.205 -0.6567  0.4866  0.5057
   13CHTO   C32 5393   5.895   6.059   3.266  0.7498  0.5052  0.6225
   13CHTO   H60 5394   5.867   5.993   3.349  2.0410  1.1958  1.6216
   13CHTO   C36 5395   5.965   6.191   3.307  0.3551 -0.0001  0.3416
   13CHTO   O25 5396   5.897   6.271   3.400 -0.1528  0.1372 -0.1977
   13CHTO   H40 5397   5.948   6.349   3.410  0.6574 -0.5943  1.3649
   13CHTO   O15 5398   5.575   6.067   3.054 -0.8209 -0.3008  0.2606
   13CHTO   C19 5399   5.466   6.150   3.097  0.5762  0.4885 -0.1383
   13CHTO   H47 5400   5.455   6.117   3.201  0.5478 -2.3057 -0.9796
   13CHTO   C20 5401   5.482   6.304   3.084  0.3389  0.0181  0.2744
   13CHTO   H48 5402   5.488   6.334   2.979 -1.4061 -2.4009 -0.5435
   13CHTO   O19 5403   5.608   6.331   3.145 -0.2521 -0.2135  0.2571
   13CHTO   H35 5404   5.668   6.307   3.077  0.0619  1.6932 -0.1593
   13CHTO   C21 5405   5.365   6.388   3.143  0.4171  0.6687  0.8373
   13CHTO   H49 5406   5.367   6.392   3.252 -2.1667 -2.8150  1.1135
   13CHTO    N4 5407   5.369   6.537   3.118  0.1906  0.4955 -0.1036
   13CHTO   H41 5408   5.462   6.554   3.067 -0.5306 -3.0475 -2.7849
   13CHTO   H42 5409   5.366   6.597   3.208  1.6768  1.6653 -0.8162
   13CHTO   C22 5410   5.230   6.322   3.090  0.0233 -0.6198  0.4073
   13CHTO   H50 5411   5.220   6.342   2.983  1.8342  0.7562  0.4640
   13CHTO   O14 5412   5.233   6.183   3.112  0.2347 -0.7659 -0.2790
   13CHTO   C23 5413   5.331   6.105   3.036 -0.0054  0.0014  1.0653
   13CHTO   H51 5414   5.317   6.139   2.932  1.8833 -2.2536  0.0188
   13CHTO   C34 5415   5.289   5.958   3.034  0.6551 -0.2792  0.1604
   13CHTO   O23 5416   5.171   5.930   2.952 -0.1628  0.4024 -0.2586
   13CHTO   H38 5417   5.110   5.874   2.997  1.4607  0.5262  2.1679
   13CHTO   O16 5418   5.112   6.364   3.162  0.1731  0.1314  0.3423
   13CHTO   C24 5419   4.974   6.378   3.070  0.4123 -0.5168 -0.0727
   13CHTO   H52 5420   4.988   6.345   2.968  1.1894 -1.0141  0.1924
   13CHTO   C26 5421   4.929   6.530   3.057 -0.4412  0.1974 -0.3876
   13CHTO   H54 5422   4.903   6.568   3.158 -0.8091 -1.7122  0.2688
   13CHTO   O20 5423   5.042   6.605   3.001 -0.9900  0.0238 -0.1887
   13CHTO   H36 5424   5.050   6.681   3.057  0.0836  0.3262 -0.7457
   13CHTO   C30 5425   4.802   6.547   2.967  0.6240  0.3067  0.1808
   13CHTO   H58 5426   4.827   6.506   2.868 -1.4256  1.2202 -0.7331
   13CHTO    N6 5427   4.762   6.693   2.960  0.3913 -0.0563 -0.0616
   13CHTO   H45 5428   4.687   6.707   2.883 -1.4837  0.3818  1.7895
   13CHTO   H46 5429   4.717   6.718   3.055  0.6895  0.9034 -0.1689
   13CHTO   C33 5430   4.691   6.452   3.020  1.0008  0.7736 -0.1034
   13CHTO   H61 5431   4.642   6.494   3.109  1.0789  0.3146  0.1586
   13CHTO   O18 5432   4.732   6.317   3.062 -0.2222  0.1382  0.2796
   13CHTO   C28 5433   4.860   6.297   3.133 -0.1606  0.4026  0.0392
   13CHTO   H56 5434   4.848   6.334   3.234 -0.9886 -0.0154  0.0922
   13CHTO   C35 5435   4.890   6.146   3.135  0.3590 -0.6877 -0.6505
   13CHTO   O24 5436   4.807   6.078   3.228 -0.2678  0.1829  0.2418
   13CHTO   H39 5437   4.715   6.097   3.227 -0.4318 -0.5658 -0.0164
   13CHTO    O9 5438   4.585   6.439   2.922 -0.1164  0.7247 -0.0211
   13CHTO   C13 5439   4.425   6.414   2.976 -0.1875 -0.6257 -0.7626
   13CHTO   H26 5440   4.412   6.467   3.073 -1.4414  2.2529 -2.4307
   13CHTO   C11 5441   4.400   6.259   2.995  0.4105 -0.2407  0.1762
   13CHTO   H24 5442   4.447   6.235   3.091 -0.8614  1.3628  1.2292
   13CHTO    O8 5443   4.485   6.191   2.897 -0.1994 -0.2900 -0.0180
   13CHTO    H3 5444   4.481   6.097   2.901 -0.8442 -0.3623 -1.9274
   13CHTO    C9 5445   4.248   6.229   2.983 -1.6842  0.6999  0.0438
   13CHTO   H22 5446   4.199   6.298   3.053 -0.1310  1.3477  0.5046
   13CHTO    N2 5447   4.207   6.098   3.040  0.6533  0.2295  0.2549
   13CHTO   H10 5448   4.250   6.015   2.986  3.7050  2.7718 -1.3859
   13CHTO   H11 5449   4.100   6.087   3.031  0.4631  3.1838 -1.8306
   13CHTO    C7 5450   4.206   6.263   2.833 -0.0948  0.0391  0.1840
   13CHTO   H20 5451   4.099   6.293   2.829  0.2494  1.2282 -0.5412
   13CHTO    O4 5452   4.271   6.376   2.772  0.0773  0.2017 -0.8123
   13CHTO   C14 5453   4.325   6.476   2.868 -0.2789  0.9600  0.3249
   13CHTO   H27 5454   4.228   6.510   2.911 -1.1664 -0.6076 -0.3804
   13CHTO   C18 5455   4.387   6.597   2.787 -0.2300  0.4718 -0.3815
   13CHTO   O13 5456   4.288   6.691   2.745  0.2089  0.6048 -0.3840
   13CHTO    H7 5457   4.271   6.749   2.818 -2.3213  0.4999 -0.8626
   13CHTO    O2 5458   4.214   6.132   2.730 -0.3604  0.3714  0.0176
   13CHTO    C1 5459   4.101   6.110   2.644 -0.4407 -0.2560  0.5085
   13CHTO   H14 5460   4.057   6.208   2.616  1.7252  0.4194 -0.7253
   13CHTO    C2 5461   3.982   6.020   2.694 -0.3236 -0.3881 -0.0973
   13CHTO   H15 5462   4.025   5.923   2.723 -0.2033 -0.5097 -0.6852
   13CHTO    O6 5463   3.925   6.084   2.806 -0.4803 -0.2689  0.1422
   13CHTO    H1 5464   3.926   6.177   2.797 -0.1627 -0.2283  0.5787
   13CHTO    C3 5465   3.866   5.996   2.576 -0.6767 -0.0732  0.5648
   13CHTO   H16 5466   3.812   6.087   2.544  1.3482  0.7256 -0.6585
   13CHTO    N1 5467   3.755   5.903   2.617 -0.2270 -0.4782 -0.2160
   13CHTO    H8 5468   3.663   5.929   2.566  0.3651  0.7109 -0.6903
   13CHTO    H9 5469   3.783   5.799   2.603  1.0119 -0.1162 -0.4622
   13CHTO    C4 5470   3.939   5.946   2.445  0.2578 -0.9983  0.6474
   13CHTO   H17 5471   3.975   5.844   2.457  1.3453 -0.8810 -1.4250
   13CHTO    O1 5472   4.042   6.040   2.414 -0.0575  0.0370  0.2751
   13CHTO    C5 5473   4.153   6.045   2.506 -1.2960 -0.5675  0.3977
   13CHTO   H18 5474   4.191   5.947   2.533  2.1635  0.6352  0.1518
   13CHTO   C16 5475   4.277   6.124   2.446 -0.6431  0.3256 -0.5769
   13CHTO   O11 5476   4.328   6.058   2.331  0.4976 -0.2626  0.3343
   13CHTO    H5 5477   4.279   6.061   2.251  0.8648  2.3921  0.1786
   13CHTO    O3 5478   3.846   5.956   2.335  0.0238 -0.2754  0.1393
   13CHTO    C6 5479   3.842   5.864   2.217 -0.9710  0.0467 -0.2516
   13CHTO   H19 5480   3.813   5.917   2.126  0.8501  2.1134  0.3467
   13CHTO    C8 5481   3.975   5.806   2.167 -0.2724 -0.1369 -0.0303
   13CHTO   H21 5482   4.028   5.757   2.248  0.6396  0.1386 -0.4490
   13CHTO    O7 5483   4.052   5.915   2.121  0.1936 -0.2184  0.0756
   13CHTO    H2 5484   4.141   5.891   2.104  0.6696  1.5143 -0.0134
   13CHTO   C12 5485   3.963   5.692   2.060 -0.7431  0.6607  0.1312
   13CHTO   H25 5486   3.929   5.751   1.972  1.2443  0.0486 -1.0925
   13CHTO    N3 5487   4.098   5.635   2.023  0.2312 -0.5485  0.1197
   13CHTO   H12 5488   4.076   5.544   1.970  0.9170 -0.9813  0.5748
   13CHTO   H13 5489   4.170   5.627   2.103 -0.4759 -0.5559  0.7633
   13CHTO   C15 5490   3.854   5.592   2.096 -0.0860  0.2451 -0.1514
   13CHTO   H28 5491   3.888   5.523   2.173  0.1077  0.5728  0.0566
   13CHTO   O10 5492   3.812   5.511   1.969 -0.3924 -0.6148 -0.3538
   13CHTO    H4 5493   3.873   5.444   1.947 -0.2478 -0.4192 -0.5425
   13CHTO    O5 5494   3.728   5.652   2.130  0.2253  0.1168 -0.5686
   13CHTO   C10 5495   3.735   5.756   2.236 -0.2219  0.8904  0.4681
   13CHTO   H23 5496   3.762   5.699   2.325  0.4349  1.6726  0.7804
   13CHTO   C17 5497   3.591   5.822   2.254  0.2210  0.3903  0.9310
   13CHTO   O12 5498   3.519   5.728   2.338  0.0918  0.3866 -0.3596
   13CHTO    H6 5499   3.446   5.776   2.373 -0.7171 -1.5378  0.6569
   14CHTO  H203 5500   5.742   4.253   0.248  0.0174 -1.2822 -2.6843
   14CHTO   O82 5501   5.764   4.168   0.280 -0.1037 -0.4212 -0.1943
   14CHTO  C123 5502   5.682   4.144   0.388  0.2637  0.6269 -0.1592
   14CHTO  H227 5503   5.725   4.194   0.476 -1.2009 -0.5179  1.2395
   14CHTO   O77 5504   5.553   4.204   0.346  0.7784  0.3783  0.0496
   14CHTO  C118 5505   5.456   4.198   0.446  0.0599 -0.4159  0.1678
   14CHTO  H222 5506   5.495   4.242   0.539 -0.5864 -2.4653  1.4292
   14CHTO  C125 5507   5.329   4.279   0.401  0.5121  0.2836  0.4945
   14CHTO   O84 5508   5.347   4.423   0.418 -0.2300  0.3891 -0.4553
   14CHTO  H205 5509   5.400   4.435   0.494  0.2447  0.1551 -0.7516
   14CHTO  C114 5510   5.423   4.048   0.465 -0.1737  0.3754 -0.6857
   14CHTO  H218 5511   5.403   4.005   0.367  1.8900  1.9636 -1.8407
   14CHTO  C116 5512   5.545   3.985   0.530 -0.3594 -0.0078 -0.7788
   14CHTO  H220 5513   5.576   4.037   0.623 -0.3831 -0.4362 -0.5294
   14CHTO   O79 5514   5.502   3.845   0.572  0.0671 -0.3785 -0.1908
   14CHTO  H201 5515   5.508   3.788   0.498  1.4368 -1.2162  0.5460
   14CHTO  C120 5516   5.658   3.990   0.420  0.2086  0.2485 -0.2238
   14CHTO  H224 5517   5.616   3.935   0.333  0.1315 -0.8013  0.4570
   14CHTO   N21 5518   5.775   3.915   0.461  0.8190  0.6738 -0.1772
   14CHTO  H211 5519   5.854   3.974   0.505 -0.3010  1.3107  1.0086
   14CHTO  H212 5520   5.817   3.840   0.395  1.1523  1.3328 -0.7159
   14CHTO   O75 5521   5.304   4.044   0.555  0.1159 -0.1578 -1.0697
   14CHTO  C112 5522   5.183   3.926   0.510 -1.0773 -0.1016  0.4025
   14CHTO  H216 5523   5.214   3.823   0.534 -0.4046 -0.5232 -2.1890
   14CHTO   O73 5524   5.163   3.943   0.367 -1.0408  0.3507  0.1362
   14CHTO  C113 5525   5.072   3.850   0.310 -0.1389  0.3946 -0.1603
   14CHTO  H217 5526   5.107   3.748   0.337 -0.2779  0.1527 -0.8792
   14CHTO  C124 5527   5.091   3.875   0.158  0.7118 -0.0959  0.7190
   14CHTO   O83 5528   5.221   3.829   0.106  0.2972  0.4619  0.0652
   14CHTO  H204 5529   5.203   3.767   0.038 -0.6889 -0.2313  0.9513
   14CHTO  C109 5530   4.925   3.874   0.357  0.5820  0.5906 -0.1394
   14CHTO  H213 5531   4.889   3.973   0.324 -1.8287 -0.1492  0.2028
   14CHTO  C110 5532   4.921   3.870   0.522 -0.4989  0.6676  0.1854
   14CHTO  H214 5533   4.938   3.772   0.566  1.2460  0.5134 -0.7538
   14CHTO   O78 5534   4.787   3.913   0.561  0.0505  0.6220  0.0046
   14CHTO  H200 5535   4.782   3.945   0.649 -0.4657  3.6405 -1.0367
   14CHTO  C111 5536   5.040   3.962   0.581  0.0678 -0.1957 -0.2535
   14CHTO  H215 5537   5.023   4.068   0.554  2.7544  0.0190 -1.3059
   14CHTO   N19 5538   5.057   3.959   0.729 -0.3400 -0.4975 -0.0506
   14CHTO  H207 5539   4.962   3.980   0.775 -0.5894  0.3791 -0.9233
   14CHTO  H208 5540   5.119   4.038   0.771 -1.2671  0.5102 -0.5374
   14CHTO   O74 5541   4.834   3.777   0.303 -0.1684 -0.1505  0.2397
   14CHTO  C115 5542   4.700   3.847   0.248  0.2383  0.0324  0.4424
   14CHTO  H219 5543   4.682   3.943   0.296 -0.5282  0.6490 -1.0433
   14CHTO   O76 5544   4.717   3.888   0.083 -0.0389  0.1366  0.3672
   14CHTO  C122 5545   4.712   3.763   0.009  0.1617 -0.3650 -0.3770
   14CHTO  H226 5546   4.790   3.706   0.059  0.1428  1.7084  2.1369
   14CHTO  C126 5547   4.757   3.794  -0.141 -0.7070  0.3517  1.0350
   14CHTO   O85 5548   4.896   3.770  -0.171  0.4641 -0.1470 -0.3328
   14CHTO  H206 5549   4.928   3.685  -0.146 -1.3130 -0.7507 -0.0162
   14CHTO  C121 5550   4.581   3.690   0.027 -0.0264 -0.3611 -0.0154
   14CHTO  H225 5551   4.524   3.701  -0.068 -0.3755 -0.2451  0.2033
   14CHTO   O81 5552   4.618   3.554   0.049  1.0757  0.1954 -0.4885
   14CHTO  H202 5553   4.540   3.502   0.056 -0.3346  2.3919  0.3838
   14CHTO  C119 5554   4.485   3.736   0.149 -0.2226  0.3295  0.0964
   14CHTO  H223 5555   4.453   3.833   0.111  2.5079  0.7130 -1.3370
   14CHTO  C117 5556   4.572   3.757   0.279  0.4464 -0.0659  0.5068
   14CHTO  H221 5557   4.623   3.671   0.322 -2.6701 -0.7071  3.0912
   14CHTO   N20 5558   4.486   3.805   0.392 -0.3738 -0.0600  0.0331
   14CHTO  H209 5559   4.380   3.814   0.370 -0.3862 -0.2617  0.0110
   14CHTO  H210 5560   4.520   3.889   0.450 -1.9171  0.6194 -0.0057
   14CHTO   O80 5561   4.358   3.646   0.154  0.4578 -0.1255 -0.4279
   14CHTO  C103 5562   4.279   3.609   0.022  0.4720 -0.3052 -0.6395
   14CHTO  H190 5563   4.336   3.633  -0.068  1.3260  1.4248  0.3365
   14CHTO  C101 5564   4.236   3.460   0.010  0.1451  1.0571  0.0111
   14CHTO  H188 5565   4.187   3.422   0.099  0.4622 -1.3450 -0.8056
   14CHTO   O68 5566   4.355   3.373  -0.020 -0.2487 -0.3514 -0.2142
   14CHTO  H168 5567   4.375   3.334   0.063 -1.2867 -0.8962 -0.2042
   14CHTO   C99 5568   4.126   3.444  -0.098  0.0253  0.3047  0.1599
   14CHTO  H186 5569   4.174   3.468  -0.196  0.0802  0.1141  0.1386
   14CHTO   N17 5570   4.078   3.299  -0.112 -0.1709  0.5646 -0.3954
   14CHTO  H174 5571   4.038   3.287  -0.211 -2.2453  0.6319  0.4176
   14CHTO  H175 5572   4.159   3.228  -0.097 -1.3844 -0.7826 -0.0212
   14CHTO   C97 5573   4.006   3.542  -0.074 -0.0134 -0.3344  0.1967
   14CHTO  H184 5574   3.956   3.525   0.023  0.7881  1.9545  1.0553
   14CHTO   O64 5575   4.061   3.672  -0.081  0.4194 -0.1700 -0.2023
   14CHTO  C104 5576   4.149   3.707   0.026  0.2902  0.0045  0.0309
   14CHTO  H191 5577   4.097   3.693   0.121 -1.0889  2.2987 -0.3475
   14CHTO  C108 5578   4.176   3.853   0.022  0.3365  0.0590 -0.1366
   14CHTO   O71 5579   4.060   3.922   0.063 -0.3036  0.0485  0.0818
   14CHTO  H171 5580   4.076   3.929   0.155  2.3745  0.4362 -0.3784
   14CHTO   O62 5581   3.910   3.543  -0.182  0.6196  0.2881 -0.1370
   14CHTO   C91 5582   3.770   3.541  -0.150  0.4502 -0.5619  0.1528
   14CHTO  H178 5583   3.764   3.473  -0.066 -0.7466  0.7302  1.1386
   14CHTO   C92 5584   3.688   3.481  -0.265 -0.5496 -0.5792  0.1350
   14CHTO  H179 5585   3.747   3.406  -0.319  1.6534  1.5684 -0.5622
   14CHTO   O66 5586   3.564   3.432  -0.214 -0.1583 -0.3004  0.0728
   14CHTO  H166 5587   3.566   3.339  -0.226 -1.2657 -0.0363 -2.5477
   14CHTO   C93 5588   3.658   3.592  -0.375 -0.4074  0.2445  0.1919
   14CHTO  H180 5589   3.552   3.573  -0.398  0.0681  1.2038 -3.0237
   14CHTO   N16 5590   3.720   3.576  -0.514 -0.2652 -0.5691 -0.0807
   14CHTO  H172 5591   3.794   3.499  -0.498 -0.4403 -0.4820  1.2453
   14CHTO  H173 5592   3.766   3.662  -0.561 -0.6331 -0.9336 -1.1182
   14CHTO   C94 5593   3.679   3.741  -0.328 -0.3923  0.3767  0.0395
   14CHTO  H181 5594   3.785   3.767  -0.329  0.1939 -1.8592 -1.2461
   14CHTO   O61 5595   3.626   3.750  -0.197  0.5973 -0.5050  0.0078
   14CHTO   C95 5596   3.709   3.683  -0.104  0.7859  0.1684 -0.9495
   14CHTO  H182 5597   3.795   3.747  -0.083  1.1324 -0.9081  1.1245
   14CHTO  C106 5598   3.634   3.669   0.028  0.2887  0.0199 -0.7815
   14CHTO   O69 5599   3.594   3.794   0.077 -0.2068  0.3977 -0.0675
   14CHTO  H169 5600   3.528   3.785   0.143 -2.5131  2.6986 -1.9813
   14CHTO   O63 5601   3.612   3.849  -0.419  0.2798  0.2748  0.4733
   14CHTO   C96 5602   3.633   3.990  -0.378 -0.3813  0.1014 -0.3123
   14CHTO  H183 5603   3.702   3.989  -0.293 -0.2842  1.0308 -0.3745
   14CHTO   C98 5604   3.506   4.067  -0.342 -0.2687 -0.1010  0.1368
   14CHTO  H185 5605   3.443   4.058  -0.431 -0.9743  0.9128  0.5270
   14CHTO   O67 5606   3.441   3.990  -0.239 -0.4207 -0.0570  0.0529
   14CHTO  H167 5607   3.471   4.016  -0.155 -0.8668 -2.9652  1.1850
   14CHTO  C102 5608   3.537   4.225  -0.299 -0.5462  0.5908  0.1393
   14CHTO  H189 5609   3.584   4.219  -0.200  3.1476  1.0165 -1.5147
   14CHTO   N18 5610   3.417   4.309  -0.283  0.1936  0.4286 -0.5509
   14CHTO  H176 5611   3.412   4.342  -0.180  0.7327  2.3431 -1.1157
   14CHTO  H177 5612   3.331   4.260  -0.325  0.8898  0.7635 -2.4398
   14CHTO  C105 5613   3.637   4.276  -0.402 -0.2580 -0.4905  0.1646
   14CHTO  H192 5614   3.581   4.292  -0.494  1.8960 -1.5906 -1.3914
   14CHTO   O65 5615   3.752   4.197  -0.438 -0.1630 -0.0578 -0.3062
   14CHTO  C100 5616   3.715   4.069  -0.494 -0.2789 -0.4937 -0.1857
   14CHTO  H187 5617   3.667   4.083  -0.592  2.6844 -0.8433 -1.7429
   14CHTO  C107 5618   3.848   4.002  -0.537 -0.3213 -0.4548  0.0349
   14CHTO   O70 5619   3.832   3.889  -0.626 -0.2179 -0.0048  0.3398
   14CHTO  H170 5620   3.742   3.871  -0.644  0.2777 -3.0343  0.7110
   14CHTO   O57 5621   3.698   4.427  -0.349  0.5884  0.6023  0.0055
   14CHTO   C85 5622   3.671   4.553  -0.403  0.4021  0.2009  0.4325
   14CHTO  H157 5623   3.572   4.538  -0.451  1.2933 -0.6625 -1.1619
   14CHTO   C83 5624   3.764   4.577  -0.525 -0.3586  0.4706 -1.1513
   14CHTO  H155 5625   3.741   4.506  -0.604 -1.5705 -0.4552  0.0173
   14CHTO   O56 5626   3.901   4.559  -0.473  0.3174 -0.0827  0.4499
   14CHTO  H135 5627   3.953   4.527  -0.544  1.1320  1.9756  0.1067
   14CHTO   C81 5628   3.737   4.718  -0.578  0.0689 -0.4750  0.1448
   14CHTO  H153 5629   3.632   4.718  -0.604  0.0358 -0.0669  0.2729
   14CHTO   N14 5630   3.796   4.743  -0.712  0.3887  0.0713  0.0572
   14CHTO  H141 5631   3.730   4.805  -0.768 -0.3553 -1.8871 -1.2959
   14CHTO  H142 5632   3.815   4.655  -0.769 -1.4145 -0.9802  1.0286
   14CHTO   C79 5633   3.768   4.836  -0.476  0.7108  0.2306  0.7754
   14CHTO  H151 5634   3.721   4.924  -0.520  0.6579  0.6704  1.6907
   14CHTO   O52 5635   3.693   4.812  -0.348 -0.0697  0.0194 -0.1946
   14CHTO   C86 5636   3.676   4.673  -0.299 -0.4950 -0.5067 -0.3046
   14CHTO  H158 5637   3.759   4.675  -0.224 -1.2956 -0.3647  0.5900
   14CHTO   C90 5638   3.542   4.668  -0.210  0.4464  0.2352 -0.0668
   14CHTO   O60 5639   3.556   4.753  -0.091 -0.2402 -0.0606  0.2326
   14CHTO  H138 5640   3.574   4.843  -0.108 -0.9593  0.4001  1.8677
   14CHTO   O50 5641   3.906   4.853  -0.448 -0.4553  0.3592 -0.1779
   14CHTO   C73 5642   3.951   4.943  -0.343  0.4125 -0.0793 -0.1282
   14CHTO  H145 5643   3.893   4.942  -0.250 -0.5184 -2.4397 -0.6981
   14CHTO   C74 5644   3.930   5.089  -0.392  0.2840 -0.2849 -0.9368
   14CHTO  H146 5645   3.826   5.110  -0.419 -0.3575  1.3521  2.6303
   14CHTO   O54 5646   3.962   5.177  -0.283  0.5530  0.1356  0.2974
   14CHTO  H133 5647   3.991   5.264  -0.304  1.2687  0.3081  1.8968
   14CHTO   C75 5648   4.028   5.121  -0.513 -0.5774 -0.1195 -0.0640
   14CHTO  H147 5649   4.014   5.041  -0.588  1.9886 -1.1062  0.4376
   14CHTO   N13 5650   4.010   5.252  -0.575 -0.0683 -0.2159 -0.0195
   14CHTO  H139 5651   4.071   5.259  -0.664  0.1646  0.0737  0.1630
   14CHTO  H140 5652   4.024   5.334  -0.507 -0.5538 -0.3218  0.2103
   14CHTO   C76 5653   4.183   5.101  -0.458  0.0230  0.1671  0.0992
   14CHTO  H148 5654   4.215   5.174  -0.384  0.3027  0.9096 -0.7446
   14CHTO   O49 5655   4.188   4.960  -0.421 -0.5034 -0.0324 -0.3984
   14CHTO   C77 5656   4.099   4.925  -0.314  0.4087  0.0305 -0.0434
   14CHTO  H149 5657   4.129   4.993  -0.234  2.7383 -1.1089  0.0920
   14CHTO   C88 5658   4.125   4.780  -0.269  0.6748  0.2989 -0.2615
   14CHTO   O58 5659   4.275   4.756  -0.195  0.2398 -0.2332 -0.2379
   14CHTO  H136 5660   4.314   4.674  -0.218 -0.2539  0.0296 -2.1050
   14CHTO   O51 5661   4.289   5.102  -0.583  0.4278 -0.2216 -0.1455
   14CHTO   C78 5662   4.428   5.174  -0.533  0.2377 -0.6963 -0.3451
   14CHTO  H150 5663   4.435   5.175  -0.422 -0.0427 -0.8510 -0.3264
   14CHTO   C80 5664   4.441   5.321  -0.591  1.5472 -0.8120 -0.3177
   14CHTO  H152 5665   4.415   5.321  -0.699  2.4816  2.8134 -0.6225
   14CHTO   O55 5666   4.346   5.407  -0.525  0.5090 -0.0578 -0.6771
   14CHTO  H134 5667   4.301   5.457  -0.591  0.0058 -0.8001 -0.9142
   14CHTO   C84 5668   4.589   5.378  -0.581  0.1928  0.2982 -0.8536
   14CHTO  H156 5669   4.617   5.418  -0.484  3.2918 -1.4027 -1.0160
   14CHTO   N15 5670   4.607   5.495  -0.673  0.8028  0.2798  0.9004
   14CHTO  H143 5671   4.524   5.517  -0.736  1.0442  2.7149  1.4131
   14CHTO  H144 5672   4.627   5.580  -0.612 -1.2969  1.3774  0.0946
   14CHTO   C87 5673   4.696   5.275  -0.619  0.7521  0.5604  0.4123
   14CHTO  H159 5674   4.699   5.250  -0.725 -0.0168  0.7051  0.3526
   14CHTO   O53 5675   4.677   5.164  -0.541 -0.2073 -0.0183 -0.3096
   14CHTO   C82 5676   4.555   5.092  -0.586 -0.1322 -0.4089 -0.5294
   14CHTO  H154 5677   4.549   5.084  -0.695  0.3517 -0.4473 -0.5564
   14CHTO   C89 5678   4.538   4.953  -0.529 -0.0735 -0.1259 -0.6975
   14CHTO   O59 5679   4.647   4.871  -0.580 -0.1074 -0.2504 -0.5890
   14CHTO  H137 5680   4.698   4.816  -0.524  0.8744 -2.1465 -3.2087
   14CHTO   O45 5681   4.872   5.350  -0.579 -0.5973 -0.4655  0.6580
   14CHTO   C67 5682   4.989   5.291  -0.627  0.0804  0.0108  0.4160
   14CHTO  H124 5683   5.072   5.334  -0.570 -0.6599  1.5059  0.3744
   14CHTO   C65 5684   4.995   5.131  -0.599 -0.0146  0.1055 -0.2904
   14CHTO  H122 5685   4.905   5.109  -0.543  0.4167  0.0961  0.4024
   14CHTO   O44 5686   5.110   5.098  -0.520 -0.0655 -0.5141 -0.2428
   14CHTO  H102 5687   5.146   5.012  -0.533  0.5430 -0.6701  2.2488
   14CHTO   C63 5688   4.979   5.044  -0.729 -1.0215 -0.8652 -0.4165
   14CHTO  H120 5689   4.892   5.077  -0.785 -2.1366  0.1690  1.8766
   14CHTO   N11 5690   4.954   4.894  -0.710 -0.8761  0.5527 -0.2511
   14CHTO  H108 5691   5.041   4.834  -0.728 -1.3420 -0.6796  1.4549
   14CHTO  H109 5692   4.881   4.858  -0.780 -0.9115 -0.5493  0.3487
   14CHTO   C61 5693   5.110   5.080  -0.806  0.6887  0.0984  0.8890
   14CHTO  H118 5694   5.102   5.033  -0.904  3.0389 -0.6241  1.0044
   14CHTO   O40 5695   5.135   5.220  -0.826 -0.5296  0.6685 -0.9083
   14CHTO   C68 5696   5.030   5.317  -0.785  0.6300  0.0574 -0.0797
   14CHTO  H125 5697   4.944   5.297  -0.853 -0.6938  0.4945  1.4436
   14CHTO   C72 5698   5.079   5.451  -0.815 -0.7547 -0.0400 -0.0735
   14CHTO   O48 5699   4.991   5.561  -0.764  0.2795 -0.4294  0.4703
   14CHTO  H105 5700   4.922   5.575  -0.826  0.7553 -0.5558 -0.1044
   14CHTO   O38 5701   5.226   5.032  -0.739 -0.4325  0.0447  0.1212
   14CHTO   C55 5702   5.356   5.000  -0.800 -0.9223 -0.3855  0.2312
   14CHTO  H112 5703   5.357   5.045  -0.901 -1.4903 -1.6690 -0.3725
   14CHTO   C56 5704   5.363   4.841  -0.811 -0.5775  0.2411  0.0107
   14CHTO  H113 5705   5.342   4.811  -0.707 -0.8567 -1.4828 -0.5282
   14CHTO   O42 5706   5.262   4.791  -0.890  0.0770  0.3836 -0.1589
   14CHTO  H100 5707   5.287   4.798  -0.980  1.8759  0.2825  0.3223
   14CHTO   C57 5708   5.502   4.789  -0.852  0.3049  0.3408  0.2344
   14CHTO  H114 5709   5.505   4.812  -0.959 -1.7390  0.4519  0.1867
   14CHTO   N10 5710   5.523   4.643  -0.834 -0.1538 -0.0507 -0.1676
   14CHTO  H106 5711   5.470   4.590  -0.913  1.2058 -0.0951 -1.0590
   14CHTO  H107 5712   5.477   4.622  -0.739 -0.3200 -0.1912 -0.2777
   14CHTO   C58 5713   5.613   4.880  -0.776 -0.3851  0.7547 -0.0016
   14CHTO  H115 5714   5.619   4.844  -0.671  0.7781  1.6907  0.2631
   14CHTO   O37 5715   5.592   5.022  -0.785  0.1153 -0.3175 -0.0877
   14CHTO   C59 5716   5.476   5.067  -0.715 -0.2812  0.1134  0.0885
   14CHTO  H116 5717   5.473   5.030  -0.613  0.0254  1.2878  0.5344
   14CHTO   C70 5718   5.476   5.219  -0.729 -0.1041  0.0386 -0.3419
   14CHTO   O46 5719   5.363   5.267  -0.659 -0.1571 -0.9435 -0.4796
   14CHTO  H103 5720   5.326   5.333  -0.715 -2.5779 -1.3836  0.5507
   14CHTO   O39 5721   5.758   4.849  -0.836  0.1918 -0.0633 -0.2723
   14CHTO   C60 5722   5.858   4.847  -0.739  0.1390  0.2559 -0.2234
   14CHTO  H117 5723   5.868   4.942  -0.686  0.5493  0.3026 -0.3853
   14CHTO   C62 5724   5.849   4.740  -0.630  0.0452  0.1294  0.4104
   14CHTO  H119 5725   5.769   4.763  -0.557  1.9108 -2.9749  3.6545
   14CHTO   O43 5726   5.803   4.619  -0.707  0.0009 -0.5514 -0.3795
   14CHTO  H101 5727   5.851   4.540  -0.692  1.8723  0.9264  1.7550
   14CHTO   C66 5728   5.991   4.720  -0.550 -0.1926 -0.1994 -0.4541
   14CHTO  H123 5729   6.010   4.810  -0.491 -0.7201  0.4404 -1.2441
   14CHTO   N12 5730   5.981   4.611  -0.448  0.0938  0.0693 -0.4867
   14CHTO  H110 5731   5.903   4.622  -0.374 -1.0953 -0.3530 -1.6806
   14CHTO  H111 5732   5.977   4.510  -0.487  1.9046  0.2227 -1.1495
   14CHTO   C69 5733   6.112   4.709  -0.644  0.1928 -0.1845 -0.1790
   14CHTO  H126 5734   6.115   4.614  -0.703 -0.1529  0.3779 -1.1129
   14CHTO   O41 5735   6.110   4.820  -0.737 -0.6036 -0.5448 -0.1569
   14CHTO   C64 5736   5.988   4.831  -0.822  0.2338 -0.0894 -0.2498
   14CHTO  H121 5737   5.978   4.733  -0.873 -1.1049  0.3567 -0.8515
   14CHTO   C71 5738   6.001   4.944  -0.929  0.2483  0.1837  0.4381
   14CHTO   O47 5739   6.109   4.916  -1.021  0.0805  0.6177  0.7822
   14CHTO  H104 5740   6.082   4.929  -1.111  3.2770 -0.5562 -0.3968
   14CHTO   O34 5741   6.242   4.727  -0.555 -0.3885 -0.3682 -0.4183
   14CHTO   C49 5742   6.384   4.804  -0.522  0.1605  0.7407 -0.0256
   14CHTO   H91 5743   6.461   4.758  -0.583 -0.0001  0.4140  0.0184
   14CHTO   C47 5744   6.421   4.786  -0.377 -0.5252  0.5446 -0.0818
   14CHTO   H89 5745   6.522   4.834  -0.376 -0.7008  0.9569 -1.3910
   14CHTO   O33 5746   6.451   4.639  -0.358 -0.0783 -0.2513  0.1112
   14CHTO   H70 5747   6.528   4.635  -0.305  0.1706  1.2916 -0.1189
   14CHTO   C45 5748   6.315   4.848  -0.277  0.8564 -0.3013 -0.3328
   14CHTO   H87 5749   6.233   4.775  -0.266  0.3678  0.1215 -1.0717
   14CHTO    N8 5750   6.390   4.865  -0.150  0.2661 -0.2334  0.1799
   14CHTO   H75 5751   6.456   4.951  -0.154 -1.6431  1.3038  0.8531
   14CHTO   H76 5752   6.332   4.890  -0.063  0.9611 -1.4011  0.9869
   14CHTO   C43 5753   6.248   4.980  -0.343 -0.1576 -0.4559  0.1044
   14CHTO   H85 5754   6.162   4.932  -0.390  0.4023 -0.6193 -0.7586
   14CHTO   O29 5755   6.329   5.041  -0.441  0.5958 -0.2552 -0.6239
   14CHTO   C50 5756   6.361   4.956  -0.550 -0.2908  0.2592 -0.8959
   14CHTO   H92 5757   6.280   4.976  -0.621 -0.2001  1.2046 -0.7393
   14CHTO   C54 5758   6.485   5.005  -0.627 -0.3906 -0.2019  0.2588
   14CHTO   O36 5759   6.459   5.134  -0.685  0.4105  0.1435  0.3097
   14CHTO   H72 5760   6.542   5.178  -0.688  2.9576 -4.3370 -0.9891
   14CHTO   O27 5761   6.191   5.074  -0.258  0.1962  0.2007 -0.0371
   14CHTO   C37 5762   6.051   5.123  -0.269  0.2023  0.2799  0.4565
   14CHTO   H79 5763   6.034   5.205  -0.197 -1.1167  1.1386 -0.8179
   14CHTO   C38 5764   6.025   5.173  -0.411  0.7580  0.9270  0.3315
   14CHTO   H80 5765   6.056   5.095  -0.483 -0.0856  0.0687  0.8898
   14CHTO   O31 5766   6.115   5.288  -0.425 -0.0963  0.1572  1.0576
   14CHTO   H68 5767   6.073   5.369  -0.443 -1.8978 -0.8385  0.6268
   14CHTO   C39 5768   5.878   5.206  -0.449 -0.4753 -0.0491 -0.6204
   14CHTO   H81 5769   5.842   5.295  -0.398 -1.0369 -0.1178 -0.8936
   14CHTO    N7 5770   5.854   5.235  -0.595 -0.6725 -0.4426  1.0035
   14CHTO   H73 5771   5.915   5.169  -0.654 -1.5051  1.2382 -1.8114
   14CHTO   H74 5772   5.885   5.333  -0.625 -0.6860 -0.4016  1.1262
   14CHTO   C40 5773   5.776   5.093  -0.393 -0.1749 -0.6803 -0.1675
   14CHTO   H82 5774   5.769   5.000  -0.449 -1.1101 -0.7254  0.0156
   14CHTO   O26 5775   5.817   5.066  -0.255  0.4645 -0.0640  0.1939
   14CHTO   C41 5776   5.949   5.015  -0.231  0.0867  0.2399 -0.0624
   14CHTO   H83 5777   5.964   4.924  -0.291  1.9030  1.0524 -0.8539
   14CHTO   C52 5778   5.941   4.982  -0.079  0.2221  0.0113  0.1801
   14CHTO   O35 5779   5.883   4.872  -0.050  0.5689 -0.2913  0.2998
   14CHTO   H71 5780   5.915   4.840   0.033 -2.7976 -0.9343  1.4084
   14CHTO   O28 5781   5.643   5.140  -0.368  0.0295  0.5152 -0.5162
   14CHTO   C42 5782   5.542   5.056  -0.304 -0.8114  0.0842  0.0997
   14CHTO   H84 5783   5.565   5.047  -0.198 -0.0645  1.7935  0.1019
   14CHTO   C44 5784   5.526   4.904  -0.352 -0.0378 -0.5183 -0.1993
   14CHTO   H86 5785   5.514   4.901  -0.460  1.9724  0.5043 -0.4754
   14CHTO   O32 5786   5.645   4.826  -0.330  0.0418 -0.7270 -0.1840
   14CHTO   H69 5787   5.634   4.741  -0.367 -1.5293 -0.8875  0.5928
   14CHTO   C48 5788   5.404   4.830  -0.278  0.6113 -0.1682  0.0951
   14CHTO   H90 5789   5.432   4.802  -0.177 -0.2375 -1.2486  0.0507
   14CHTO    N9 5790   5.359   4.698  -0.341  0.1248 -0.1472  0.0776
   14CHTO   H77 5791   5.414   4.620  -0.290  0.0590 -0.1601  0.1291
   14CHTO   H78 5792   5.372   4.692  -0.448  0.5034  0.1675  0.1026
   14CHTO   C51 5793   5.276   4.927  -0.273  0.9200 -0.1696  0.1593
   14CHTO   H93 5794   5.224   4.933  -0.369  1.5631  0.7553 -0.1346
   14CHTO   O30 5795   5.321   5.057  -0.230 -0.0174 -0.3221 -0.6590
   14CHTO   C46 5796   5.403   5.117  -0.325 -0.0154 -0.1304  0.2440
   14CHTO   H88 5797   5.373   5.106  -0.429 -0.6756  0.6662  0.3477
   14CHTO   C53 5798   5.392   5.262  -0.275 -0.0397 -0.8140  0.0496
   14CHTO   O72 5799   5.274   5.324  -0.323  0.4196 -0.6931  0.4582
   14CHTO  H199 5800   5.303   5.406  -0.357  0.4063 -0.9838 -0.2650
   14CHTO   O22 5801   5.188   4.891  -0.161  0.0801 -0.0374  0.1594
   14CHTO   C31 5802   5.049   4.939  -0.173 -0.2501  0.4189 -0.0931
   14CHTO   H59 5803   5.051   5.031  -0.236 -1.7326  0.9202  0.5603
   14CHTO   C29 5804   4.946   4.836  -0.236  0.5574 -0.9994  0.0737
   14CHTO   H57 5805   4.949   4.739  -0.183 -1.1428 -1.4187 -0.5592
   14CHTO   O21 5806   4.996   4.794  -0.368  0.8550  0.1393  0.0499
   14CHTO   H37 5807   4.943   4.818  -0.441  1.5199  1.6118  0.0401
   14CHTO   C27 5808   4.796   4.879  -0.242 -0.5171  0.7734  0.0337
   14CHTO   H55 5809   4.777   4.945  -0.328 -1.0829  0.7251  0.1212
   14CHTO    N5 5810   4.707   4.761  -0.270 -0.1715 -0.3046  0.1750
   14CHTO   H43 5811   4.723   4.709  -0.363 -1.7066 -1.8492  0.7683
   14CHTO   H44 5812   4.694   4.700  -0.182 -0.8761 -1.5760 -0.8048
   14CHTO   C25 5813   4.763   4.938  -0.097  1.1352  0.5540  0.4175
   14CHTO   H53 5814   4.748   4.849  -0.035 -0.2215  1.4066  1.3312
   14CHTO   O17 5815   4.862   5.042  -0.047 -0.6526 -0.1793  0.1526
   14CHTO   C32 5816   4.996   4.989  -0.039 -0.2666  0.1986  0.3863
   14CHTO   H60 5817   5.008   4.905   0.030  0.1909  0.4029  0.5560
   14CHTO   C36 5818   5.079   5.104   0.022 -0.0243  0.4486  0.6750
   14CHTO   O25 5819   5.123   5.197  -0.079 -0.0834  0.8300 -0.5113
   14CHTO   H40 5820   5.063   5.268  -0.090 -0.5635  0.9053  2.2587
   14CHTO   O15 5821   4.644   5.013  -0.089 -0.3669  0.2465  0.2773
   14CHTO   C19 5822   4.563   5.122  -0.144 -0.1261  0.0084 -0.0810
   14CHTO   H47 5823   4.558   5.087  -0.248  1.7724 -1.7043  0.3758
   14CHTO   C20 5824   4.425   5.131  -0.075 -0.1896  0.4453 -0.3392
   14CHTO   H48 5825   4.434   5.139   0.034 -0.4567  1.0693 -0.3582
   14CHTO   O19 5826   4.357   5.009  -0.102 -0.6896  0.4654  0.1787
   14CHTO   H35 5827   4.394   4.942  -0.047 -2.1645 -0.5724 -0.0436
   14CHTO   C21 5828   4.348   5.259  -0.127  0.2025  0.0050  0.8793
   14CHTO   H49 5829   4.329   5.251  -0.234 -0.7778  2.6319  0.7999
   14CHTO    N4 5830   4.209   5.275  -0.069 -0.1643 -0.6212  0.6095
   14CHTO   H41 5831   4.138   5.194  -0.081  0.4315 -1.2573  1.2914
   14CHTO   H42 5832   4.201   5.304   0.035 -1.4118  0.9337  0.0845
   14CHTO   C22 5833   4.438   5.379  -0.095  0.0380  0.9472 -0.3482
   14CHTO   H50 5834   4.467   5.371   0.010  2.6924 -1.4049 -1.1874
   14CHTO   O14 5835   4.560   5.370  -0.180  0.4105 -0.0190  0.2107
   14CHTO   C23 5836   4.646   5.260  -0.148  0.1652 -0.1375 -0.1272
   14CHTO   H51 5837   4.680   5.287  -0.046 -3.3627 -0.2996  1.1536
   14CHTO   C34 5838   4.765   5.268  -0.246  0.0605 -0.3407  0.4584
   14CHTO   O23 5839   4.859   5.374  -0.204  0.3038  0.2183 -0.4778
   14CHTO   H38 5840   4.813   5.442  -0.160 -0.2547 -0.0165 -0.6923
   14CHTO   O16 5841   4.382   5.499  -0.141 -0.0882 -0.5679  0.0149
   14CHTO   C24 5842   4.476   5.633  -0.132  0.2313  0.9483 -0.4273
   14CHTO   H52 5843   4.574   5.618  -0.177  0.1516  0.3304 -0.3958
   14CHTO   C26 5844   4.506   5.670   0.017  0.3191 -0.1252 -0.1217
   14CHTO   H54 5845   4.415   5.659   0.079  0.4616  0.0790  0.1259
   14CHTO   O20 5846   4.590   5.573   0.072 -0.2852  0.1132  0.2294
   14CHTO   H36 5847   4.554   5.487   0.082  0.0499  0.1341  1.7019
   14CHTO   C30 5848   4.576   5.815   0.031 -0.2911 -0.0073 -0.3407
   14CHTO   H58 5849   4.681   5.816  -0.002  0.0196  0.5146  0.6764
   14CHTO    N6 5850   4.593   5.859   0.171 -0.4865 -0.2729 -0.0453
   14CHTO   H45 5851   4.628   5.784   0.241  0.2514 -1.0232 -1.1963
   14CHTO   H46 5852   4.498   5.897   0.203  0.3500  0.7230  1.3007
   14CHTO   C33 5853   4.491   5.920  -0.049  0.0746 -0.2315  0.3374
   14CHTO   H61 5854   4.388   5.928  -0.011 -0.0206  1.5286 -0.2605
   14CHTO   O18 5855   4.490   5.867  -0.184  0.1380  0.0547 -0.4565
   14CHTO   C28 5856   4.408   5.756  -0.200  0.7925  0.8776  0.5167
   14CHTO   H56 5857   4.315   5.776  -0.147  0.9068 -1.2850  1.5812
   14CHTO   C35 5858   4.379   5.729  -0.343 -0.1370 -0.3216  0.3706
   14CHTO   O24 5859   4.494   5.721  -0.425 -0.0690 -0.2312 -0.3850
   14CHTO   H39 5860   4.475   5.666  -0.499 -2.9572 -0.1254  0.2359
   14CHTO    O9 5861   4.548   6.056  -0.048 -0.0305  0.7628 -0.1870
   14CHTO   C13 5862   4.703   6.077  -0.140  0.0407 -0.2456 -0.5136
   14CHTO   H26 5863   4.724   5.988  -0.203 -1.0410 -0.6064 -0.3830
   14CHTO   C11 5864   4.807   6.101  -0.038  0.2855  0.5761 -0.1576
   14CHTO   H24 5865   4.812   6.009   0.021  0.2089  1.6530  1.5549
   14CHTO    O8 5866   4.750   6.203   0.054  0.1079  0.4160  0.3126
   14CHTO    H3 5867   4.819   6.234   0.110 -0.8717  0.6342  1.3963
   14CHTO    C9 5868   4.943   6.143  -0.096 -0.2592  0.7332 -0.1643
   14CHTO   H22 5869   4.966   6.068  -0.174 -0.4400  0.4112  0.0922
   14CHTO    N2 5870   5.053   6.126   0.001 -0.4632  0.0481 -0.1670
   14CHTO   H10 5871   5.107   6.218   0.016 -0.9918  0.3141  0.1526
   14CHTO   H11 5872   5.114   6.043  -0.031  0.8212  0.8823  0.0749
   14CHTO    C7 5873   4.932   6.277  -0.171 -0.1118 -0.6032 -0.4938
   14CHTO   H20 5874   5.024   6.277  -0.232 -0.2975  1.1357 -0.7947
   14CHTO    O4 5875   4.813   6.279  -0.251 -0.1891 -0.1360  0.0004
   14CHTO   C14 5876   4.687   6.212  -0.232  0.6470  0.1390 -0.6107
   14CHTO   H27 5877   4.651   6.177  -0.331 -0.0885 -0.2098 -0.2334
   14CHTO   C18 5878   4.578   6.306  -0.177 -0.1743  0.1072  0.2894
   14CHTO   O13 5879   4.551   6.420  -0.257  0.3680 -0.2725  0.2733
   14CHTO    H7 5880   4.566   6.496  -0.205  1.4596  0.4450 -1.0525
   14CHTO    O2 5881   4.932   6.407  -0.072  0.2792 -0.4284 -0.9339
   14CHTO    C1 5882   5.007   6.522  -0.119 -0.1988  0.3417  0.1262
   14CHTO   H14 5883   5.011   6.510  -0.230  1.6298  0.0443  0.2182
   14CHTO    C2 5884   5.151   6.533  -0.056  0.0020 -0.7378  0.0859
   14CHTO   H15 5885   5.132   6.510   0.050 -0.4648  0.7356  0.3312
   14CHTO    O6 5886   5.228   6.431  -0.116  0.2257  0.4986 -0.9753
   14CHTO    H1 5887   5.239   6.363  -0.052 -1.0374 -0.0248 -1.3046
   14CHTO    C3 5888   5.223   6.673  -0.066 -0.3069  0.2784 -0.0166
   14CHTO   H16 5889   5.255   6.687  -0.170 -1.4088  0.4719 -0.3324
   14CHTO    N1 5890   5.352   6.672   0.021 -0.3511  0.2056  0.4348
   14CHTO    H8 5891   5.334   6.688   0.126 -0.7602  0.1611  0.3701
   14CHTO    H9 5892   5.400   6.577   0.006  0.1493  0.3166  1.2849
   14CHTO    C4 5893   5.120   6.791  -0.037 -0.0666  0.1012  0.2008
   14CHTO   H17 5894   5.093   6.786   0.068  1.5425 -1.8506  0.5419
   14CHTO    O1 5895   5.001   6.778  -0.116  0.3572 -0.1579 -0.1332
   14CHTO    C5 5896   4.928   6.653  -0.090  0.3137 -0.9698 -0.0473
   14CHTO   H18 5897   4.911   6.647   0.018  0.6684  1.7169  0.1912
   14CHTO   C16 5898   4.793   6.653  -0.160 -0.3549  0.2324 -0.2759
   14CHTO   O11 5899   4.695   6.739  -0.100 -0.0796 -0.2108 -0.1016
   14CHTO    H5 5900   4.707   6.826  -0.134 -2.3499 -0.4502 -1.6080
   14CHTO    O3 5901   5.160   6.920  -0.076 -0.0913  0.3689 -0.2000
   14CHTO    C6 5902   5.188   7.021   0.030  0.5887  0.0190 -0.0108
   14CHTO   H19 5903   5.207   6.972   0.125  0.5821  2.3309  1.2315
   14CHTO    C8 5904   5.315   7.100  -0.001  0.5041 -0.3696 -0.0642
   14CHTO   H21 5905   5.303   7.156  -0.093  1.0311  1.2910  0.8604
   14CHTO    O7 5906   5.423   7.004  -0.015 -0.2384  0.5890 -0.1647
   14CHTO    H2 5907   5.431   6.936   0.050 -2.7024  1.6547  1.3228
   14CHTO   C12 5908   5.338   7.204   0.108 -1.2520 -0.0177  0.1229
   14CHTO   H25 5909   5.363   7.143   0.198 -3.2474 -0.4800  0.4003
   14CHTO    N3 5910   5.459   7.288   0.070 -0.1592 -0.0496  0.0485
   14CHTO   H12 5911   5.427   7.369   0.006  1.4048  1.7258  1.4695
   14CHTO   H13 5912   5.508   7.327   0.158  1.0009 -2.7707  0.6512
   14CHTO   C15 5913   5.215   7.290   0.141 -0.2333 -0.4089 -0.5940
   14CHTO   H28 5914   5.187   7.363   0.066 -0.4755 -0.5178 -0.6107
   14CHTO   O10 5915   5.227   7.371   0.276 -0.8486  0.1874  0.9153
   14CHTO    H4 5916   5.316   7.378   0.305 -0.7138  0.7389  0.3797
   14CHTO    O5 5917   5.100   7.209   0.163 -0.4572  0.7885 -0.0036
   14CHTO   C10 5918   5.073   7.123   0.050 -0.0943  0.5567 -1.1071
   14CHTO   H23 5919   5.057   7.177  -0.043 -0.1248  1.9017 -0.3502
   14CHTO   C17 5920   4.949   7.040   0.079  0.0688 -0.6169 -0.4729
   14CHTO   O12 5921   4.932   6.997   0.217 -0.4435 -0.1609  0.5988
   14CHTO    H6 5922   4.912   7.069   0.274  0.7971 -0.1698  1.0873
   15CHTO  H203 5923   5.647   4.161   2.340 -0.1319 -0.1756 -0.8578
   15CHTO   O82 5924   5.652   4.074   2.304 -0.1315 -0.3926 -0.3334
   15CHTO  C123 5925   5.589   4.073   2.173  0.2404  0.9119  0.7052
   15CHTO  H227 5926   5.652   4.127   2.101 -0.0487 -0.0196 -0.2738
   15CHTO   O77 5927   5.587   3.924   2.129 -0.3203 -0.2791  0.4659
   15CHTO  C118 5928   5.518   3.893   2.012 -0.2683 -0.2444 -0.9272
   15CHTO  H222 5929   5.570   3.941   1.927 -0.4178  1.0882 -0.2808
   15CHTO  C125 5930   5.546   3.737   2.002  0.5686  0.6039  0.0883
   15CHTO   O84 5931   5.478   3.688   1.886 -0.7673 -0.4403 -0.3731
   15CHTO  H205 5932   5.492   3.596   1.891 -3.7735 -0.9731 -0.7927
   15CHTO  C114 5933   5.368   3.945   2.012 -0.0978 -0.3582 -0.2965
   15CHTO  H218 5934   5.307   3.905   2.093 -0.4568  0.9071  0.0808
   15CHTO  C116 5935   5.370   4.098   2.036  0.1230  0.2344  0.2164
   15CHTO  H220 5936   5.425   4.152   1.956  0.1926  0.3191  0.3205
   15CHTO   O79 5937   5.238   4.136   2.028 -0.2451  0.4011 -0.0809
   15CHTO  H201 5938   5.225   4.213   2.081 -0.4181 -0.0067  0.4711
   15CHTO  C120 5939   5.435   4.131   2.173 -0.6825  0.3985  0.1979
   15CHTO  H224 5940   5.380   4.070   2.248  0.2386 -0.5823  0.0922
   15CHTO   N21 5941   5.429   4.276   2.213 -0.8001 -0.1358  0.3948
   15CHTO  H211 5942   5.350   4.331   2.164  2.3709  0.8322 -3.9995
   15CHTO  H212 5943   5.440   4.288   2.319  0.2110 -2.0734  0.5413
   15CHTO   O75 5944   5.320   3.910   1.886  0.3851  0.2190  0.6165
   15CHTO  C112 5945   5.162   3.835   1.891 -0.4566 -0.1296  0.1668
   15CHTO  H216 5946   5.080   3.896   1.934 -1.3906 -0.9763 -0.3948
   15CHTO   O73 5947   5.176   3.708   1.951  0.1601  0.3746  0.1938
   15CHTO  C113 5948   5.056   3.629   1.957  0.1120  0.1793  0.5577
   15CHTO  H217 5949   4.974   3.694   1.994  0.9282  0.8584  1.1976
   15CHTO  C124 5950   5.091   3.524   2.065  0.8029 -0.0171  0.3616
   15CHTO   O83 5951   4.979   3.451   2.104 -0.1175 -0.3513  0.5430
   15CHTO  H204 5952   4.943   3.411   2.028 -0.0602 -2.1081  1.4244
   15CHTO  C109 5953   5.017   3.581   1.818  0.7895 -0.2343  0.5033
   15CHTO  H213 5954   5.100   3.520   1.779  1.6710  1.1127  0.2549
   15CHTO  C110 5955   5.004   3.708   1.730 -0.2764  0.1571  0.0608
   15CHTO  H214 5956   4.912   3.753   1.765 -0.8665 -0.8290 -0.2018
   15CHTO   O78 5957   4.997   3.655   1.591  0.3863  0.2755 -0.5824
   15CHTO  H200 5958   4.909   3.642   1.561 -0.0406  0.0587  0.7362
   15CHTO  C111 5959   5.122   3.813   1.739  0.4171  0.1859 -0.1253
   15CHTO  H215 5960   5.211   3.769   1.691 -0.3626  0.5526 -1.9359
   15CHTO   N19 5961   5.091   3.940   1.668 -0.1700  0.0112 -0.0483
   15CHTO  H207 5962   5.006   3.934   1.601 -0.4710 -0.7504  0.3989
   15CHTO  H208 5963   5.169   3.993   1.615 -1.7506 -0.6467 -3.1944
   15CHTO   O74 5964   4.886   3.512   1.819 -0.0888  0.4483 -0.4686
   15CHTO  C115 5965   4.907   3.351   1.822 -0.5518 -0.3743 -0.4145
   15CHTO  H219 5966   5.007   3.324   1.856  0.3662  1.7111 -1.3795
   15CHTO   O76 5967   4.816   3.282   1.931 -0.0743  0.6245  0.5881
   15CHTO  C122 5968   4.676   3.295   1.899  0.4665 -0.0975  0.0913
   15CHTO  H226 5969   4.646   3.400   1.890  0.1853 -0.3590 -2.6866
   15CHTO  C126 5970   4.586   3.242   2.023 -0.1789  0.1193  0.1819
   15CHTO   O85 5971   4.449   3.295   2.023 -0.4860  1.1761 -0.0267
   15CHTO  H206 5972   4.386   3.235   2.058  0.3336 -0.4083 -1.2278
   15CHTO  C121 5973   4.640   3.223   1.759  0.2367 -1.2255 -0.3289
   15CHTO  H225 5974   4.588   3.127   1.778 -0.0419 -0.8257  0.9571
   15CHTO   O81 5975   4.540   3.302   1.688  0.2338  0.4265  0.4653
   15CHTO  H202 5976   4.475   3.245   1.652  0.0370  1.0811 -0.2189
   15CHTO  C119 5977   4.766   3.187   1.682 -0.6399  0.0210  0.1793
   15CHTO  H223 5978   4.819   3.115   1.745  0.3034  0.0077 -0.6136
   15CHTO  C117 5979   4.873   3.305   1.674  0.2617 -0.4027 -0.0038
   15CHTO  H221 5980   4.830   3.394   1.628 -0.3487 -0.8212 -0.2543
   15CHTO   N20 5981   4.996   3.278   1.592  0.0203 -0.5337 -0.0601
   15CHTO  H209 5982   5.006   3.356   1.519 -0.4912 -0.0732  0.3560
   15CHTO  H210 5983   5.083   3.258   1.652 -1.2874 -1.0663  1.7037
   15CHTO   O80 5984   4.745   3.104   1.557  0.2098 -0.0035  0.2037
   15CHTO  C103 5985   4.672   2.961   1.559  0.4484  0.8223 -0.1698
   15CHTO  H190 5986   4.659   2.924   1.661  0.8306 -1.5569 -0.9414
   15CHTO  C101 5987   4.536   2.962   1.478 -0.7252  0.7894  0.5487
   15CHTO  H188 5988   4.549   3.022   1.388  0.2239 -0.1975  0.0242
   15CHTO   O68 5989   4.425   3.046   1.560 -0.6531 -0.0093 -0.3956
   15CHTO  H168 5990   4.478   3.110   1.603  1.8970 -3.4283  1.8238
   15CHTO   C99 5991   4.505   2.808   1.435 -0.1415 -0.4238  1.1569
   15CHTO  H186 5992   4.489   2.748   1.527  0.0845 -2.5848 -0.1717
   15CHTO   N17 5993   4.378   2.797   1.351 -0.6565 -0.3517 -0.2055
   15CHTO  H174 5994   4.292   2.789   1.415 -0.9653  1.5883 -0.3533
   15CHTO  H175 5995   4.376   2.722   1.273 -2.3241 -0.2185 -0.2948
   15CHTO   C97 5996   4.629   2.742   1.371  0.2626 -0.2554 -0.0930
   15CHTO  H184 5997   4.664   2.790   1.279 -1.0681  2.3652  0.7092
   15CHTO   O64 5998   4.731   2.738   1.474  0.4303  0.6280 -0.0656
   15CHTO  C104 5999   4.782   2.866   1.501 -0.6264  0.3957  0.2757
   15CHTO  H191 6000   4.815   2.912   1.408 -1.4855 -0.3661 -0.4159
   15CHTO  C108 6001   4.905   2.848   1.593  0.0725 -0.0373  0.3417
   15CHTO   O71 6002   4.882   2.796   1.721 -0.6850 -0.3817  0.1508
   15CHTO  H171 6003   4.819   2.855   1.758 -1.3890 -0.5148 -0.8166
   15CHTO   O62 6004   4.608   2.599   1.339 -0.0443 -0.6625  0.2340
   15CHTO   C91 6005   4.690   2.538   1.235 -0.4382 -0.0286  0.1006
   15CHTO  H178 6006   4.695   2.606   1.149  0.5675  0.4040  0.4907
   15CHTO   C92 6007   4.628   2.412   1.175  0.2595 -0.2031 -0.6760
   15CHTO  H179 6008   4.519   2.428   1.176  0.3458  0.4957  1.3849
   15CHTO   O66 6009   4.672   2.388   1.033 -0.3346  0.1780  0.2095
   15CHTO  H166 6010   4.624   2.314   1.000 -0.4022 -0.4300  1.6476
   15CHTO   C93 6011   4.654   2.284   1.260 -0.8459 -0.6475 -0.3252
   15CHTO  H180 6012   4.611   2.199   1.205 -1.5748 -0.7109  0.3296
   15CHTO   N16 6013   4.570   2.272   1.382  0.0863  0.0323 -0.2903
   15CHTO  H172 6014   4.595   2.333   1.467 -3.8987 -0.0524  1.0572
   15CHTO  H173 6015   4.468   2.261   1.347  0.4971  1.9333 -2.2114
   15CHTO   C94 6016   4.803   2.255   1.287 -0.6760 -0.0292 -0.4023
   15CHTO  H181 6017   4.817   2.175   1.360  2.2693  1.3099  0.5413
   15CHTO   O61 6018   4.870   2.375   1.337 -0.5586  0.1766  0.6010
   15CHTO   C95 6019   4.837   2.508   1.281  0.1879  1.0888  0.4126
   15CHTO  H182 6020   4.859   2.582   1.358  2.9182 -0.8859  1.6054
   15CHTO  C106 6021   4.937   2.539   1.165  0.1372 -0.4813  0.2020
   15CHTO   O69 6022   5.068   2.569   1.209 -0.1347  0.5836 -0.0474
   15CHTO  H169 6023   5.081   2.661   1.196  0.1104  0.4044 -1.1584
   15CHTO   O63 6024   4.877   2.193   1.155  0.4222  0.2252 -0.4228
   15CHTO   C96 6025   4.999   2.085   1.215  0.1550 -0.2444 -0.5802
   15CHTO  H183 6026   4.987   2.063   1.321  1.5082 -3.6154 -1.0667
   15CHTO   C98 6027   5.153   2.119   1.209 -0.6524 -0.5988 -0.9512
   15CHTO  H185 6028   5.189   2.139   1.108  0.5967 -0.4752 -0.4836
   15CHTO   O67 6029   5.181   2.239   1.279  0.3515 -0.4039  0.5262
   15CHTO  H167 6030   5.254   2.284   1.242 -0.2572  0.1922  0.0332
   15CHTO  C102 6031   5.238   1.997   1.274 -0.5654  0.4704 -0.6204
   15CHTO  H189 6032   5.197   1.984   1.375  1.2055  0.7431  0.1468
   15CHTO   N18 6033   5.381   2.013   1.290  0.2051  0.8333 -0.8497
   15CHTO  H176 6034   5.424   2.074   1.211  1.3708 -0.5661 -1.3148
   15CHTO  H177 6035   5.430   1.918   1.303 -0.5139  0.1491 -2.8636
   15CHTO  C105 6036   5.201   1.872   1.188  0.5180 -0.6968 -0.4189
   15CHTO  H192 6037   5.227   1.887   1.083 -1.0302 -0.3327 -0.7651
   15CHTO   O65 6038   5.057   1.853   1.196 -0.2695  0.3685  0.1827
   15CHTO  C100 6039   4.969   1.953   1.140 -0.5834 -0.1690 -0.3963
   15CHTO  H187 6040   4.994   1.951   1.033 -1.3286 -0.1655 -0.5773
   15CHTO  C107 6041   4.826   1.900   1.168 -0.6086 -0.0460 -0.3259
   15CHTO   O70 6042   4.725   1.975   1.107  0.5567 -0.5840  0.0663
   15CHTO  H170 6043   4.710   1.934   1.023  3.2166  1.4677 -1.4929
   15CHTO   O57 6044   5.280   1.726   1.250  0.0124  0.3469  0.0805
   15CHTO   C85 6045   5.278   1.687   1.387  0.4670 -0.0353 -0.4421
   15CHTO  H157 6046   5.253   1.775   1.450  3.0522 -1.1593  2.3011
   15CHTO   C83 6047   5.420   1.653   1.433  0.3433 -0.6134 -0.2827
   15CHTO  H155 6048   5.479   1.742   1.410  0.8152 -0.3892  1.6968
   15CHTO   O56 6049   5.483   1.545   1.359 -0.2217 -0.0892  0.0007
   15CHTO  H135 6050   5.573   1.532   1.379  0.0767  0.8272 -0.6812
   15CHTO   C81 6051   5.422   1.632   1.585 -0.2538 -0.2475  0.1705
   15CHTO  H153 6052   5.372   1.713   1.638  0.3993  0.9169 -0.9491
   15CHTO   N14 6053   5.563   1.638   1.633 -0.0496  0.0556  0.3676
   15CHTO  H141 6054   5.613   1.723   1.590 -3.0421  1.0892 -1.1535
   15CHTO  H142 6055   5.621   1.552   1.608 -0.2488  0.0853 -0.1929
   15CHTO   C79 6056   5.341   1.494   1.608 -0.1018 -0.2263 -0.3874
   15CHTO  H151 6057   5.341   1.481   1.716  1.7976 -2.3540 -0.5944
   15CHTO   O52 6058   5.203   1.522   1.561 -0.0847  0.0410  0.1027
   15CHTO   C86 6059   5.196   1.559   1.421 -0.2677  0.0654  0.2168
   15CHTO  H158 6060   5.237   1.473   1.365  0.2375  1.3655 -1.4552
   15CHTO   C90 6061   5.048   1.576   1.381 -0.6738  0.8837 -0.7180
   15CHTO   O60 6062   4.972   1.671   1.461  0.2578 -0.1596  0.5468
   15CHTO  H138 6063   4.942   1.638   1.543  0.6844  1.9177  1.5844
   15CHTO   O50 6064   5.390   1.374   1.546 -0.3345  0.1344  0.5101
   15CHTO   C73 6065   5.339   1.245   1.532  0.7284 -0.3201 -0.6327
   15CHTO  H145 6066   5.249   1.240   1.469  0.6580  2.2656 -0.8192
   15CHTO   C74 6067   5.297   1.181   1.668  0.7920  0.3716  0.0024
   15CHTO  H146 6068   5.220   1.247   1.710 -1.0184 -0.8159 -1.3732
   15CHTO   O54 6069   5.234   1.056   1.655  0.2081  0.7870 -0.4070
   15CHTO  H133 6070   5.193   1.019   1.731  2.2793  0.3266  0.4931
   15CHTO   C75 6071   5.429   1.174   1.765  0.4973 -0.4265 -0.2475
   15CHTO  H147 6072   5.463   1.277   1.783  0.5483 -0.7695  1.7091
   15CHTO   N13 6073   5.405   1.122   1.897  1.0242 -0.0915  0.2042
   15CHTO  H139 6074   5.395   1.205   1.965 -0.3271  0.3057 -0.4757
   15CHTO  H140 6075   5.315   1.063   1.893  0.0959  1.2489  1.1144
   15CHTO   C76 6076   5.541   1.086   1.686 -0.7788 -0.7151 -0.1501
   15CHTO  H148 6077   5.518   0.980   1.690  1.0658 -1.1006  0.3370
   15CHTO   O49 6078   5.555   1.128   1.551 -0.4989 -0.1994  0.1042
   15CHTO   C77 6079   5.446   1.153   1.465  0.3860  0.3319  0.1975
   15CHTO  H149 6080   5.405   1.054   1.445  0.5552  0.6068 -1.5339
   15CHTO   C88 6081   5.495   1.204   1.327  0.5695 -0.0221 -0.2100
   15CHTO   O58 6082   5.363   1.263   1.253  0.4050 -0.1147  0.7723
   15CHTO  H136 6083   5.323   1.329   1.306  0.0193 -0.8344  1.3869
   15CHTO   O51 6084   5.669   1.102   1.751 -0.1937 -0.7337 -0.1248
   15CHTO   C78 6085   5.792   1.015   1.692  0.2324  0.5314 -0.4973
   15CHTO  H150 6086   5.771   0.990   1.586  0.6793  0.3549 -0.5417
   15CHTO   C80 6087   5.799   0.881   1.764 -0.5849  0.0554 -0.3353
   15CHTO  H152 6088   5.780   0.903   1.871 -2.3036 -0.8578 -0.4388
   15CHTO   O55 6089   5.689   0.791   1.730  1.0816  0.0035 -0.1159
   15CHTO  H134 6090   5.689   0.763   1.641 -0.4488 -1.3044  0.2817
   15CHTO   C84 6091   5.938   0.804   1.748  0.2080  0.2732 -0.1321
   15CHTO  H156 6092   5.926   0.763   1.648  0.0537 -0.6546  0.2568
   15CHTO   N15 6093   5.953   0.687   1.846 -0.2724 -0.2017  0.1046
   15CHTO  H143 6094   5.932   0.704   1.950 -0.9742  0.3587 -0.1181
   15CHTO  H144 6095   5.896   0.602   1.816  0.0354  0.8522 -3.7557
   15CHTO   C87 6096   6.055   0.901   1.750 -0.2913 -0.1906 -0.1246
   15CHTO  H159 6097   6.058   0.941   1.852 -1.4864 -1.3560  0.3803
   15CHTO   O53 6098   6.027   1.008   1.652 -0.3701  0.1846  0.0261
   15CHTO   C82 6099   5.922   1.100   1.694 -0.1558 -0.3298 -0.7711
   15CHTO  H154 6100   5.943   1.155   1.786  2.4009 -0.8766 -0.9744
   15CHTO   C89 6101   5.895   1.207   1.587  0.4141  0.1060  0.4691
   15CHTO   O59 6102   5.982   1.315   1.617  0.1555  0.5659 -0.3206
   15CHTO  H137 6103   6.044   1.328   1.548  0.3514  0.7847 -0.1094
   15CHTO   O45 6104   6.202   0.828   1.718 -0.0802  0.7259 -0.1239
   15CHTO   C67 6105   6.304   0.923   1.679 -0.4663 -0.2977  0.4475
   15CHTO  H124 6106   6.268   1.026   1.690  0.7650 -0.0299  2.3299
   15CHTO   C65 6107   6.431   0.912   1.772 -0.4991 -0.1760 -0.1786
   15CHTO  H122 6108   6.427   0.812   1.816 -0.3581  0.1693  0.6272
   15CHTO   O44 6109   6.419   1.005   1.884  0.0083  0.0614 -0.3958
   15CHTO  H102 6110   6.472   0.991   1.960 -4.3331 -1.0366  2.5993
   15CHTO   C63 6111   6.567   0.910   1.693  0.4763  1.0414 -0.9003
   15CHTO  H120 6112   6.570   0.819   1.632 -2.5705 -0.2345  0.7660
   15CHTO   N11 6113   6.690   0.887   1.778 -0.6403 -0.2042 -0.0983
   15CHTO  H108 6114   6.765   0.963   1.768 -0.7120 -0.4434 -3.1717
   15CHTO  H109 6115   6.725   0.787   1.763  1.1368  0.2829  0.5932
   15CHTO   C61 6116   6.566   1.025   1.590 -0.2044  0.2111  0.4394
   15CHTO  H118 6117   6.660   1.015   1.534  1.1773  1.4715  2.4860
   15CHTO   O40 6118   6.458   1.008   1.495 -0.2958 -0.3727 -0.2535
   15CHTO   C68 6119   6.356   0.906   1.528 -0.1094 -0.2672 -0.3480
   15CHTO  H125 6120   6.400   0.805   1.516 -0.3758 -0.6486  1.7364
   15CHTO   C72 6121   6.241   0.920   1.421  0.3784  0.0168  0.0711
   15CHTO   O48 6122   6.183   1.052   1.426  0.3963  0.2945 -0.2295
   15CHTO  H105 6123   6.092   1.047   1.403 -0.0444  3.4996  0.6086
   15CHTO   O38 6124   6.573   1.160   1.643 -0.0572  0.2131 -0.3082
   15CHTO   C55 6125   6.535   1.281   1.578  0.0050  1.0164  0.6416
   15CHTO  H112 6126   6.452   1.264   1.508  1.0914  2.1434 -0.9661
   15CHTO   C56 6127   6.658   1.350   1.509  0.2147  0.5231  0.3583
   15CHTO  H113 6128   6.734   1.358   1.588  1.6304  3.4314 -1.2185
   15CHTO   O42 6129   6.706   1.259   1.406  0.2339  0.3222  0.1236
   15CHTO  H100 6130   6.785   1.294   1.370  0.4542  0.0503  0.3432
   15CHTO   C57 6131   6.614   1.491   1.454 -0.1070 -0.0631 -0.2846
   15CHTO  H114 6132   6.536   1.480   1.379  1.3060 -0.1834 -1.7508
   15CHTO   N10 6133   6.729   1.564   1.403  0.0563 -0.2428 -0.7691
   15CHTO  H106 6134   6.701   1.628   1.320 -1.2765  0.3404  0.1202
   15CHTO  H107 6135   6.823   1.516   1.380 -0.1490  0.0500 -2.2848
   15CHTO   C58 6136   6.556   1.574   1.568 -0.3308  0.4536  0.1428
   15CHTO  H115 6137   6.631   1.584   1.649 -0.1687 -0.8002  0.1699
   15CHTO   O37 6138   6.444   1.505   1.632 -1.1140 -0.6688  0.4474
   15CHTO   C59 6139   6.477   1.376   1.684  0.1412 -0.0196  0.4562
   15CHTO  H116 6140   6.550   1.393   1.762  0.3356 -1.6846  0.6730
   15CHTO   C70 6141   6.354   1.313   1.741 -0.0547 -0.2735  0.1569
   15CHTO   O46 6142   6.241   1.286   1.650  0.3347 -0.1444  0.1942
   15CHTO  H103 6143   6.173   1.245   1.700 -1.6483  2.2423 -0.4896
   15CHTO   O39 6144   6.518   1.727   1.537  0.3925 -0.4883  0.1812
   15CHTO   C60 6145   6.408   1.756   1.443 -0.1762  0.5766  0.5433
   15CHTO  H117 6146   6.451   1.731   1.345  0.0060  0.0660  0.7548
   15CHTO   C62 6147   6.277   1.678   1.469  0.1139 -0.5474  0.4772
   15CHTO  H119 6148   6.291   1.577   1.424  0.4561  0.5025 -1.8752
   15CHTO   O43 6149   6.254   1.680   1.610  0.1646  0.3271  0.1508
   15CHTO  H101 6150   6.175   1.639   1.639 -2.1723  2.8608 -2.3569
   15CHTO   C66 6151   6.161   1.748   1.387 -0.2840 -0.6651  0.6484
   15CHTO  H123 6152   6.186   1.749   1.281 -1.1909 -1.1943  0.4246
   15CHTO   N12 6153   6.035   1.673   1.399  0.5084  0.5574  0.4214
   15CHTO  H110 6154   6.038   1.588   1.467  0.6274  1.7796  1.9706
   15CHTO  H111 6155   5.983   1.666   1.305  1.2788 -0.0938  0.0385
   15CHTO   C69 6156   6.142   1.898   1.423 -0.4067  0.4004  0.1828
   15CHTO  H126 6157   6.130   1.909   1.533 -0.8535 -1.1115  0.3062
   15CHTO   O41 6158   6.260   1.963   1.381  0.3039 -0.4265 -0.5938
   15CHTO   C64 6159   6.389   1.918   1.445 -0.1810 -0.7653 -0.4947
   15CHTO  H121 6160   6.380   1.951   1.551  0.0041 -0.4171 -0.5873
   15CHTO   C71 6161   6.504   1.989   1.378 -0.4078  0.0089 -0.1890
   15CHTO   O47 6162   6.514   2.123   1.435  0.0121  0.4926  0.2536
   15CHTO  H104 6163   6.603   2.149   1.439 -0.2492  1.5601 -0.6957
   15CHTO   O34 6164   6.019   1.963   1.369 -0.3350 -0.3067 -0.5033
   15CHTO   C49 6165   5.975   1.994   1.242  0.7311  0.0148 -0.1991
   15CHTO   H91 6166   6.025   1.921   1.179  2.5591  1.2630 -0.2178
   15CHTO   C47 6167   6.020   2.139   1.207 -0.4159  0.2844 -0.1858
   15CHTO   H89 6168   6.013   2.163   1.099 -1.6392 -0.2694 -0.2408
   15CHTO   O33 6169   6.161   2.156   1.236  0.6078 -0.2853 -0.0083
   15CHTO   H70 6170   6.178   2.181   1.325  0.4445  0.1450 -0.0965
   15CHTO   C45 6171   5.924   2.237   1.288 -0.0512 -0.3811 -0.3647
   15CHTO   H87 6172   5.919   2.217   1.396 -0.1600 -0.3022 -0.3549
   15CHTO    N8 6173   5.959   2.380   1.264 -0.7003  0.3082 -0.3520
   15CHTO   H75 6174   5.926   2.410   1.166  1.3392  1.0822 -0.8225
   15CHTO   H76 6175   5.900   2.444   1.328 -2.4071 -0.8082 -0.7482
   15CHTO   C43 6176   5.769   2.216   1.253 -0.9417  0.3232  0.0599
   15CHTO   H85 6177   5.706   2.279   1.316 -2.0335 -0.2188 -0.4731
   15CHTO   O29 6178   5.731   2.078   1.272 -0.2967  0.3927 -0.1766
   15CHTO   C50 6179   5.825   1.972   1.245  0.2103  0.1810 -0.2485
   15CHTO   H92 6180   5.798   1.887   1.310  1.3148  0.0279  0.0168
   15CHTO   C54 6181   5.773   1.924   1.107  0.2177  0.6767  0.1468
   15CHTO   O36 6182   5.651   1.855   1.121 -0.0800 -0.2039  0.2448
   15CHTO   H72 6183   5.592   1.928   1.116 -0.9176 -0.9430 -0.7257
   15CHTO   O27 6184   5.738   2.244   1.118  0.3707  0.5521 -0.5206
   15CHTO   C37 6185   5.638   2.312   1.034 -0.0268  0.7951  0.4420
   15CHTO   H79 6186   5.587   2.227   0.985  2.1174 -1.3538  1.8312
   15CHTO   C38 6187   5.531   2.391   1.114  0.6012  0.0583 -0.3881
   15CHTO   H80 6188   5.584   2.454   1.188  0.9841  0.1208 -0.7107
   15CHTO   O31 6189   5.443   2.301   1.183  0.1288 -0.2680 -0.3082
   15CHTO   H68 6190   5.361   2.347   1.188 -0.0101 -0.4802 -0.6037
   15CHTO   C39 6191   5.443   2.489   1.021  0.3725  0.0655  0.3481
   15CHTO   H81 6192   5.366   2.422   0.985 -1.9057  2.3395  0.8423
   15CHTO    N7 6193   5.376   2.595   1.110  0.0580 -1.0518  0.5719
   15CHTO   H73 6194   5.422   2.597   1.207  0.4166  2.5285  0.3710
   15CHTO   H74 6195   5.269   2.586   1.120 -0.1864  1.3137  0.3432
   15CHTO   C40 6196   5.519   2.560   0.905  0.5183 -0.1428  0.8021
   15CHTO   H82 6197   5.575   2.646   0.941  0.7101  0.2120 -0.3050
   15CHTO   O26 6198   5.603   2.464   0.843 -0.2302 -0.0854 -0.7376
   15CHTO   C41 6199   5.703   2.407   0.931 -0.8712 -0.2505 -0.1595
   15CHTO   H83 6200   5.746   2.492   0.986 -0.5465 -0.7160  0.3218
   15CHTO   C52 6201   5.823   2.334   0.855  0.6516 -0.1292 -1.0839
   15CHTO   O35 6202   5.846   2.373   0.737 -0.3463  0.3445  0.2085
   15CHTO   H71 6203   5.797   2.326   0.673 -0.5671  1.6779 -0.6341
   15CHTO   O28 6204   5.434   2.601   0.795  0.3290 -0.1727  0.5341
   15CHTO   C42 6205   5.470   2.711   0.705  0.2646 -0.3234  0.1024
   15CHTO   H84 6206   5.416   2.690   0.613  0.6770  1.4255 -0.5604
   15CHTO   C44 6207   5.611   2.720   0.662  0.4574 -0.6114 -0.2986
   15CHTO   H86 6208   5.678   2.729   0.747  1.6605 -2.2933 -1.0379
   15CHTO   O32 6209   5.658   2.598   0.606 -0.0747 -0.5116  0.9710
   15CHTO   H69 6210   5.752   2.604   0.611  0.0662 -1.4678 -0.4061
   15CHTO   C48 6211   5.644   2.850   0.570 -0.0823  0.3861  0.4830
   15CHTO   H90 6212   5.596   2.839   0.473  1.3381 -1.4056 -0.0389
   15CHTO    N9 6213   5.786   2.871   0.529 -0.0963  0.3521  0.1152
   15CHTO   H77 6214   5.793   2.963   0.472  0.8165 -0.5845 -1.3355
   15CHTO   H78 6215   5.815   2.790   0.464 -1.1961 -1.1487  1.4537
   15CHTO   C51 6216   5.581   2.978   0.645 -0.3187  0.1359  0.1565
   15CHTO   H93 6217   5.630   2.988   0.741 -0.1782 -0.4079  0.1409
   15CHTO   O30 6218   5.443   2.949   0.655 -0.0122  1.0918 -0.7943
   15CHTO   C46 6219   5.416   2.853   0.756  0.5013  0.0572  0.0609
   15CHTO   H88 6220   5.457   2.883   0.853  1.3228 -0.5193 -0.1017
   15CHTO   C53 6221   5.268   2.852   0.755  0.0973 -0.0594 -0.2667
   15CHTO   O72 6222   5.214   2.765   0.852  0.0375 -0.5329  1.2622
   15CHTO  H199 6223   5.130   2.738   0.819  1.5803 -3.2036 -0.6990
   15CHTO   O22 6224   5.598   3.099   0.564 -0.2257  0.0928  0.1807
   15CHTO   C31 6225   5.613   3.238   0.628  0.8438  0.7971 -0.9101
   15CHTO   H59 6226   5.667   3.301   0.554  0.1285  1.8223 -0.5716
   15CHTO   C29 6227   5.479   3.307   0.654  0.5718 -0.5286 -0.1050
   15CHTO   H57 6228   5.431   3.243   0.730  0.2117 -0.9645 -0.6944
   15CHTO   O21 6229   5.406   3.297   0.527  0.0067 -0.2756 -0.1945
   15CHTO   H37 6230   5.383   3.207   0.514  0.6749 -0.4004 -0.5382
   15CHTO   C27 6231   5.499   3.451   0.705 -0.1889  0.0251 -0.1924
   15CHTO   H55 6232   5.564   3.502   0.632 -0.5959 -1.6953 -1.7948
   15CHTO    N5 6233   5.377   3.534   0.721 -0.1102  0.2941  0.2654
   15CHTO   H43 6234   5.316   3.510   0.635  0.6500  0.0893 -0.2232
   15CHTO   H44 6235   5.337   3.513   0.819  1.0625 -0.8888  0.5015
   15CHTO   C25 6236   5.591   3.440   0.838 -0.1459 -0.0564  0.7697
   15CHTO   H53 6237   5.534   3.381   0.910  0.1561 -1.4358 -0.1082
   15CHTO   O17 6238   5.712   3.365   0.813  0.6290 -0.3888 -0.1613
   15CHTO   C32 6239   5.704   3.241   0.753  0.2203  1.2433  0.1358
   15CHTO   H60 6240   5.660   3.174   0.828  0.3383  0.4834 -0.4650
   15CHTO   C36 6241   5.850   3.197   0.711  0.2816 -0.0817  0.1071
   15CHTO   O25 6242   5.937   3.190   0.822  0.4112  0.4397  0.6374
   15CHTO   H40 6243   5.905   3.231   0.900  1.3838  2.9459 -0.2472
   15CHTO   O15 6244   5.623   3.567   0.895  0.3991  0.3482 -0.3417
   15CHTO   C19 6245   5.693   3.654   0.983 -0.0847  0.5885 -0.5050
   15CHTO   H47 6246   5.801   3.640   0.967  0.5714  3.2548  1.2522
   15CHTO   C20 6247   5.667   3.799   0.955  0.2639 -0.4061  0.5813
   15CHTO   H48 6248   5.559   3.820   0.956  0.2403 -0.5211  0.4810
   15CHTO   O19 6249   5.717   3.823   0.824 -0.1374 -0.3324  0.6652
   15CHTO   H35 6250   5.681   3.898   0.780  0.1859 -0.1163  0.7667
   15CHTO   C21 6251   5.741   3.894   1.063  0.3060 -0.5415 -1.0179
   15CHTO   H49 6252   5.848   3.873   1.062  0.3842 -0.2691  0.1606
   15CHTO    N4 6253   5.709   4.038   1.050 -0.3049 -0.4878 -0.2134
   15CHTO   H41 6254   5.644   4.072   1.129 -2.2409 -1.9738 -1.1241
   15CHTO   H42 6255   5.797   4.101   1.045 -1.6623  1.6601  1.9850
   15CHTO   C22 6256   5.702   3.847   1.205 -0.1017  0.1568  0.0151
   15CHTO   H50 6257   5.594   3.858   1.218  0.1002  0.2630  1.7031
   15CHTO   O14 6258   5.741   3.712   1.214 -0.1891  0.4189  0.2601
   15CHTO   C23 6259   5.667   3.619   1.133  0.0788 -0.9765  0.1492
   15CHTO   H51 6260   5.560   3.630   1.156  0.0411  0.9658 -0.9379
   15CHTO   C34 6261   5.721   3.485   1.177  0.2018  0.3919 -0.0093
   15CHTO   O23 6262   5.640   3.369   1.144  0.2627 -0.1094  0.0940
   15CHTO   H38 6263   5.576   3.351   1.209 -1.0552  2.3085 -0.4350
   15CHTO   O16 6264   5.776   3.928   1.307  1.1958 -0.0413 -0.0784
   15CHTO   C24 6265   5.886   3.867   1.385 -0.8384  0.3958 -0.0574
   15CHTO   H52 6266   5.957   3.814   1.320 -0.8112 -0.2052  0.4597
   15CHTO   C26 6267   5.832   3.787   1.505 -0.5614 -0.2570  0.2581
   15CHTO   H54 6268   5.766   3.853   1.565  0.1503  1.4337 -0.7732
   15CHTO   O20 6269   5.756   3.673   1.452  0.9100 -0.1231  0.0135
   15CHTO   H36 6270   5.772   3.594   1.499 -0.9056 -1.9550 -2.3206
   15CHTO   C30 6271   5.958   3.739   1.586  0.0182  0.2426  0.3036
   15CHTO   H58 6272   6.024   3.686   1.515 -0.4267 -2.4656  1.8578
   15CHTO    N6 6273   5.927   3.653   1.702  0.5366  0.0159 -1.2510
   15CHTO   H45 6274   6.001   3.663   1.781  0.1183  3.7861 -1.2506
   15CHTO   H46 6275   5.836   3.697   1.738  1.4120 -0.3194  1.5466
   15CHTO   C33 6276   6.035   3.871   1.623 -0.0400 -0.6965 -0.3040
   15CHTO   H61 6277   5.968   3.939   1.678  0.3930  0.2598 -0.9503
   15CHTO   O18 6278   6.077   3.939   1.509 -0.0893 -0.7096  0.4137
   15CHTO   C28 6279   5.960   3.987   1.439  0.3579 -0.5602  0.3243
   15CHTO   H56 6280   5.892   4.044   1.502  2.0657 -0.6786  2.3029
   15CHTO   C35 6281   6.016   4.089   1.328 -0.2795 -0.1460 -0.0555
   15CHTO   O24 6282   6.129   4.050   1.252  0.2107 -0.2069 -0.1796
   15CHTO   H39 6283   6.164   4.129   1.215 -1.0363  0.6986  0.5503
   15CHTO    O9 6284   6.149   3.841   1.709 -0.1559  0.6798  0.3539
   15CHTO   C13 6285   6.159   3.930   1.822 -0.6657 -0.4838 -0.0003
   15CHTO   H26 6286   6.061   3.929   1.874  0.2094  2.0786  1.7953
   15CHTO   C11 6287   6.217   4.076   1.789  0.2599  0.4254 -0.1934
   15CHTO   H24 6288   6.145   4.127   1.722  1.4519  0.6890 -1.2850
   15CHTO    O8 6289   6.338   4.072   1.719 -0.8970  0.7024  0.2236
   15CHTO    H3 6290   6.332   4.113   1.635  3.6905  2.2672  0.5121
   15CHTO    C9 6291   6.230   4.155   1.924  0.4081  0.0326 -0.1415
   15CHTO   H22 6292   6.134   4.139   1.974  0.0988 -0.2107 -0.7976
   15CHTO    N2 6293   6.248   4.308   1.921  0.1369  0.1676  0.4131
   15CHTO   H10 6294   6.344   4.325   1.874 -0.1478  0.7155  0.0251
   15CHTO   H11 6295   6.167   4.340   1.858 -0.2422  0.3104  0.9762
   15CHTO    C7 6296   6.338   4.090   2.011 -0.0107  0.0258 -0.3182
   15CHTO   H20 6297   6.333   4.139   2.111  0.8575 -3.6889  1.6750
   15CHTO    O4 6298   6.312   3.950   2.030 -0.1666 -0.0020  0.0208
   15CHTO   C14 6299   6.264   3.863   1.925  0.2372 -0.1650 -0.5534
   15CHTO   H27 6300   6.206   3.780   1.970 -0.9874  1.7249  1.4599
   15CHTO   C18 6301   6.379   3.795   1.840  0.0916  0.3230  0.3065
   15CHTO   O13 6302   6.475   3.730   1.921 -0.0366  0.2106  0.1972
   15CHTO    H7 6303   6.526   3.793   1.969  1.7825  0.5438 -2.0822
   15CHTO    O2 6304   6.481   4.102   1.956 -0.3561 -0.7300 -0.2644
   15CHTO    C1 6305   6.587   4.038   2.026 -0.3693  0.5324  0.1111
   15CHTO   H14 6306   6.555   3.932   2.030  0.8032  0.1755  0.1476
   15CHTO    C2 6307   6.610   4.093   2.171  0.3920  0.1546  0.6292
   15CHTO   H15 6308   6.610   4.203   2.166  1.4040  0.1520  0.5539
   15CHTO    O6 6309   6.503   4.035   2.255 -0.6106  0.0237  0.0186
   15CHTO    H1 6310   6.516   3.942   2.254  1.7974  0.3153  0.8537
   15CHTO    C3 6311   6.752   4.045   2.244 -0.6878 -0.2951 -0.6154
   15CHTO   H16 6312   6.756   3.939   2.274  2.5781 -0.3051 -0.9241
   15CHTO    N1 6313   6.774   4.121   2.375 -0.3125  0.6227  0.2096
   15CHTO    H8 6314   6.732   4.218   2.355  0.2011  1.6520  3.8162
   15CHTO    H9 6315   6.877   4.136   2.402 -0.1622 -2.1870  1.3983
   15CHTO    C4 6316   6.866   4.063   2.145 -0.3559  0.2388 -0.0800
   15CHTO   H17 6317   6.886   4.171   2.140 -0.0195  0.2659  1.6443
   15CHTO    O1 6318   6.824   4.001   2.025 -0.1543 -0.2895  0.4510
   15CHTO    C5 6319   6.720   4.060   1.949  0.1614  0.0675  0.1285
   15CHTO   H18 6320   6.721   4.165   1.922  2.0195 -0.3238 -1.4028
   15CHTO   C16 6321   6.713   3.981   1.809  0.1436  0.0608  0.3820
   15CHTO   O11 6322   6.812   4.022   1.716 -0.4076  0.4097  0.7139
   15CHTO    H5 6323   6.788   4.030   1.626  1.3135  2.5591  0.4146
   15CHTO    O3 6324   6.977   3.983   2.184 -0.1213 -0.5790  0.4185
   15CHTO    C6 6325   7.108   4.032   2.132  0.2968  0.3082  0.9419
   15CHTO   H19 6326   7.091   4.098   2.046  0.1206 -2.3809 -1.1270
   15CHTO    C8 6327   7.197   4.097   2.236 -0.3066  0.3871 -0.1941
   15CHTO   H21 6328   7.205   4.031   2.323 -0.5013  3.5147  2.3115
   15CHTO    O7 6329   7.132   4.214   2.288 -0.0867  0.1600 -0.5405
   15CHTO    H2 6330   7.186   4.289   2.307 -1.4173  1.3166 -1.1833
   15CHTO   C12 6331   7.340   4.122   2.189 -0.1517  0.3878  0.2042
   15CHTO   H25 6332   7.332   4.198   2.109 -1.5265  0.5091  0.4476
   15CHTO    N3 6333   7.424   4.175   2.297 -0.5175 -0.1425 -0.0543
   15CHTO   H12 6334   7.376   4.267   2.328 -2.0462 -0.1553 -2.2612
   15CHTO   H13 6335   7.524   4.199   2.264 -0.7187  0.9165  0.1046
   15CHTO   C15 6336   7.397   3.990   2.123  0.6073  0.2997 -0.2439
   15CHTO   H28 6337   7.416   3.922   2.206  1.1751  1.1606  0.3368
   15CHTO   O10 6338   7.539   4.006   2.065  0.5956 -0.3195  0.2708
   15CHTO    H4 6339   7.545   3.971   1.978 -0.1368  0.7719 -0.2284
   15CHTO    O5 6340   7.307   3.943   2.019 -0.1592 -0.5595 -0.5188
   15CHTO   C10 6341   7.178   3.905   2.074 -0.0392 -0.8105  0.2676
   15CHTO   H23 6342   7.189   3.822   2.143  2.7063 -0.8684 -0.2054
   15CHTO   C17 6343   7.098   3.838   1.957  0.0045  0.1072  0.4401
   15CHTO   O12 6344   7.089   3.909   1.835 -0.1531  0.5551  0.0006
   15CHTO    H6 6345   7.045   3.992   1.832 -0.0193  0.6129 -0.3900
   16CHTO  H203 6346   3.925   3.491   0.217  0.9788 -2.2932 -4.3299
   16CHTO   O82 6347   3.876   3.423   0.260  0.5360  0.4524 -0.1284
   16CHTO  C123 6348   3.953   3.323   0.334  0.3017 -1.5108 -0.0534
   16CHTO  H227 6349   3.958   3.229   0.277  1.7597 -0.8064 -1.1231
   16CHTO   O77 6350   4.079   3.388   0.351  0.1198 -0.5472  0.0712
   16CHTO  C118 6351   4.182   3.311   0.405 -0.5691  0.0009 -0.7626
   16CHTO  H222 6352   4.179   3.219   0.346 -4.0529 -0.0781 -0.5343
   16CHTO  C125 6353   4.323   3.380   0.391  0.6999 -0.8164 -0.0648
   16CHTO   O84 6354   4.313   3.510   0.448 -0.1356  0.5187 -0.1143
   16CHTO  H205 6355   4.398   3.524   0.485 -0.4608  1.3448  0.3205
   16CHTO  C114 6356   4.148   3.278   0.554 -1.7135 -0.0852  0.5773
   16CHTO  H218 6357   4.151   3.371   0.609 -0.2061 -0.3283  0.9231
   16CHTO  C116 6358   4.001   3.227   0.571 -0.5718 -0.1428  0.3496
   16CHTO  H220 6359   4.002   3.117   0.556 -1.6317  0.1506 -2.1660
   16CHTO   O79 6360   3.957   3.248   0.709  0.1070  0.0635  0.5772
   16CHTO  H201 6361   3.865   3.240   0.723 -0.1889  0.7208 -0.9394
   16CHTO  C120 6362   3.891   3.293   0.473  0.7430  0.3173 -0.2676
   16CHTO  H224 6363   3.858   3.385   0.527 -2.9566 -1.6960  1.1205
   16CHTO   N21 6364   3.768   3.213   0.461  1.0150  0.6547  0.0850
   16CHTO  H211 6365   3.697   3.239   0.539 -0.3884 -0.4821 -0.7790
   16CHTO  H212 6366   3.719   3.232   0.366 -0.6967 -0.1241  0.7791
   16CHTO   O75 6367   4.235   3.179   0.605  0.4167  0.6577  0.0608
   16CHTO  C112 6368   4.338   3.231   0.731 -0.0305 -0.3366  0.7917
   16CHTO  H216 6369   4.287   3.317   0.778 -1.6787 -1.8376  1.8041
   16CHTO   O73 6370   4.467   3.268   0.676  0.4815  0.3254 -0.0885
   16CHTO  C113 6371   4.567   3.325   0.765 -0.5003 -0.4285  1.5166
   16CHTO  H217 6372   4.529   3.408   0.828  0.2582  1.7860 -0.8371
   16CHTO  C124 6373   4.670   3.397   0.673  0.3374  0.6309 -0.2869
   16CHTO   O83 6374   4.772   3.319   0.616 -0.0452  0.2225  0.3739
   16CHTO  H204 6375   4.787   3.338   0.525 -0.1865  0.6960  0.4495
   16CHTO  C109 6376   4.614   3.204   0.853  0.2472 -0.1684  0.0760
   16CHTO  H213 6377   4.654   3.127   0.785 -1.4571 -2.3187  1.4262
   16CHTO  C110 6378   4.481   3.151   0.925  0.2944 -0.1784  0.0280
   16CHTO  H214 6379   4.444   3.231   0.988  0.8270 -1.0938  1.5306
   16CHTO   O78 6380   4.521   3.046   1.015 -1.1568  0.3334  0.1330
   16CHTO  H200 6381   4.504   2.962   0.976 -1.4222  0.3142  0.2913
   16CHTO  C111 6382   4.368   3.108   0.826 -0.7122  0.0606  0.0506
   16CHTO  H215 6383   4.405   3.020   0.770 -0.3756 -1.4920  2.6542
   16CHTO   N19 6384   4.243   3.059   0.896 -0.3174 -0.0683  0.2281
   16CHTO  H207 6385   4.168   3.049   0.818  1.2413  0.0902 -1.3374
   16CHTO  H208 6386   4.262   2.963   0.942  1.4409  0.1210 -0.0677
   16CHTO   O74 6387   4.718   3.245   0.942 -0.1582  0.0126  0.0479
   16CHTO  C115 6388   4.832   3.133   0.941  0.4709 -0.3045 -0.1147
   16CHTO  H219 6389   4.792   3.032   0.952 -1.4155  0.2312 -1.7876
   16CHTO   O76 6390   4.909   3.129   0.815 -0.0651  0.4810  0.2371
   16CHTO  C122 6391   5.016   3.226   0.803  0.3181  0.3467 -0.0159
   16CHTO  H226 6392   4.965   3.323   0.804  0.7106  0.5774 -1.5652
   16CHTO  C126 6393   5.083   3.218   0.661 -0.5220  0.5365  0.2011
   16CHTO   O85 6394   5.104   3.085   0.612  0.8978  0.0191  0.1917
   16CHTO  H206 6395   5.195   3.066   0.607  1.0007  0.7098 -0.7388
   16CHTO  C121 6396   5.123   3.207   0.915 -0.2548  0.3861  0.7183
   16CHTO  H225 6397   5.207   3.145   0.877  1.1398  2.9458 -0.4812
   16CHTO   O81 6398   5.173   3.338   0.951 -0.4897  0.4370  0.2966
   16CHTO  H202 6399   5.117   3.408   0.923  0.0170  1.2788  1.3345
   16CHTO  C119 6400   5.068   3.131   1.041 -0.2348  0.2427 -0.0856
   16CHTO  H223 6401   5.067   3.025   1.018  0.1081  0.1204  0.4700
   16CHTO  C117 6402   4.923   3.171   1.066  0.6487 -0.3335  0.7101
   16CHTO  H221 6403   4.904   3.279   1.074 -1.7002 -0.2666 -3.8822
   16CHTO   N20 6404   4.868   3.101   1.193 -0.4830  0.3140 -0.2771
   16CHTO  H209 6405   4.934   3.046   1.259  0.6856  0.6666 -1.1419
   16CHTO  H210 6406   4.809   3.177   1.241  0.8006  0.9133  0.3869
   16CHTO   O80 6407   5.168   3.132   1.153  0.2997  0.1257  0.2249
   16CHTO  C103 6408   5.294   3.046   1.142 -0.6018  0.2436  0.0752
   16CHTO  H190 6409   5.271   2.967   1.070 -0.1584  1.3536 -1.2997
   16CHTO  C101 6410   5.436   3.105   1.124 -0.3151  0.8567 -0.6275
   16CHTO  H188 6411   5.462   3.187   1.190 -2.1499 -0.9017  2.3710
   16CHTO   O68 6412   5.446   3.158   0.985 -0.6426  0.1950 -0.1822
   16CHTO  H168 6413   5.531   3.183   0.955 -0.7643 -0.1451 -0.8183
   16CHTO   C99 6414   5.558   2.994   1.143 -0.9683 -0.3121 -0.2353
   16CHTO  H186 6415   5.554   2.905   1.076 -1.8673 -0.1541 -0.4079
   16CHTO   N17 6416   5.693   3.056   1.125  0.6098 -0.5848  0.4502
   16CHTO  H174 6417   5.781   2.995   1.107  0.6002 -0.2677 -0.7072
   16CHTO  H175 6418   5.694   3.151   1.074 -3.4142  0.0425  1.3905
   16CHTO   C97 6419   5.542   2.930   1.285 -0.0814 -0.8647 -0.4326
   16CHTO  H184 6420   5.564   3.008   1.359  1.7778  0.5131 -2.3989
   16CHTO   O64 6421   5.406   2.878   1.302 -0.1610 -0.2047  0.3321
   16CHTO  C104 6422   5.299   2.975   1.286 -0.0681 -0.7713 -0.0294
   16CHTO  H191 6423   5.291   3.047   1.368 -0.1768 -1.2795  0.4086
   16CHTO  C108 6424   5.170   2.893   1.292  0.4120  0.5860 -0.2986
   16CHTO   O71 6425   5.165   2.812   1.411 -0.3354 -0.6559  0.3839
   16CHTO  H171 6426   5.093   2.753   1.406 -0.7510 -0.2910  1.7075
   16CHTO   O62 6427   5.630   2.814   1.299 -0.5452 -0.4207  0.4903
   16CHTO   C91 6428   5.652   2.768   1.436 -0.4415  0.1709 -0.1275
   16CHTO  H178 6429   5.612   2.837   1.510 -0.1270  0.2552 -0.0356
   16CHTO   C92 6430   5.803   2.774   1.453  0.8639  0.1526 -0.3996
   16CHTO  H179 6431   5.851   2.725   1.368 -0.5260 -1.2155 -0.3994
   16CHTO   O66 6432   5.844   2.912   1.441 -0.1734 -0.0304 -0.4644
   16CHTO  H166 6433   5.827   2.948   1.357 -0.7583 -0.4962 -0.5490
   16CHTO   C93 6434   5.851   2.724   1.590 -0.9917  0.1115 -0.0841
   16CHTO  H180 6435   5.815   2.800   1.661  0.1249  1.8176 -1.3124
   16CHTO   N16 6436   5.999   2.710   1.597 -0.0348 -0.0938 -0.7500
   16CHTO  H172 6437   6.023   2.656   1.688 -1.3603 -3.0087 -2.0808
   16CHTO  H173 6438   6.049   2.684   1.505  0.3865 -0.5436 -0.4005
   16CHTO   C94 6439   5.794   2.577   1.629 -0.2521  0.4710  0.2260
   16CHTO  H181 6440   5.836   2.500   1.565  0.9608  0.0475  1.5103
   16CHTO   O61 6441   5.650   2.575   1.595  0.7240 -0.1510 -0.3336
   16CHTO   C95 6442   5.601   2.624   1.467  0.2805  1.1437  0.3644
   16CHTO  H182 6443   5.635   2.557   1.389 -1.2191  0.6206  0.1396
   16CHTO  C106 6444   5.452   2.604   1.483 -0.1413 -0.4076  0.1462
   16CHTO   O69 6445   5.399   2.691   1.583 -0.3378 -0.0467  0.7609
   16CHTO  H169 6446   5.322   2.658   1.624 -1.3185  0.5111 -0.6093
   16CHTO   O63 6447   5.812   2.538   1.776 -0.3099  0.2253 -0.0048
   16CHTO   C96 6448   5.752   2.396   1.819 -0.1412 -0.0723 -0.6195
   16CHTO  H183 6449   5.824   2.359   1.892 -0.0389  1.2846 -0.0155
   16CHTO   C98 6450   5.742   2.288   1.707  0.0763  0.0491 -0.2954
   16CHTO  H185 6451   5.717   2.325   1.607  0.7494  0.4136 -0.3261
   16CHTO   O67 6452   5.872   2.230   1.701  0.2589  0.0441  0.0255
   16CHTO  H167 6453   5.860   2.149   1.656 -0.0450  0.1620 -0.1053
   16CHTO  C102 6454   5.632   2.175   1.744  1.5661 -0.4539  0.1177
   16CHTO  H189 6455   5.667   2.129   1.837 -1.3651 -1.9255  0.5644
   16CHTO   N18 6456   5.614   2.059   1.650  0.2042  0.2371 -0.1881
   16CHTO  H176 6457   5.690   2.073   1.574  0.4409  1.4386  0.2483
   16CHTO  H177 6458   5.630   1.961   1.691 -3.2356 -0.8022 -1.2352
   16CHTO  C105 6459   5.505   2.260   1.775 -0.3033  0.9664  0.1047
   16CHTO  H192 6460   5.484   2.331   1.695 -4.0627  1.4483  1.3969
   16CHTO   O65 6461   5.512   2.323   1.904  0.3917  0.1312  0.2897
   16CHTO  C100 6462   5.613   2.427   1.895 -0.2308 -0.1998 -0.0273
   16CHTO  H187 6463   5.577   2.516   1.842  0.4664  0.1328  0.0496
   16CHTO  C107 6464   5.646   2.477   2.041 -0.6777  0.0652  0.5771
   16CHTO   O70 6465   5.536   2.522   2.116 -0.6563 -0.3858 -0.3097
   16CHTO  H170 6466   5.492   2.448   2.152  2.3143 -1.9531  0.2254
   16CHTO   O57 6467   5.363   2.149   1.783 -0.1563 -0.7222  0.5260
   16CHTO   C85 6468   5.243   2.181   1.707 -0.2216  0.3612  0.0961
   16CHTO  H157 6469   5.281   2.203   1.605  1.5293  2.5383  1.1692
   16CHTO   C83 6470   5.177   2.320   1.750  0.0348  0.4105  0.2175
   16CHTO  H155 6471   5.249   2.402   1.744 -1.0799  1.6184  2.7895
   16CHTO   O56 6472   5.159   2.314   1.892 -0.0944  0.2713 -0.8901
   16CHTO  H135 6473   5.183   2.399   1.924  0.5414 -0.2164 -0.0629
   16CHTO   C81 6474   5.058   2.353   1.655 -0.5150 -0.0120  0.0353
   16CHTO  H153 6475   5.102   2.357   1.556  0.4864  1.0243  0.5053
   16CHTO   N14 6476   5.007   2.492   1.679  0.0228 -0.3994 -0.3147
   16CHTO  H141 6477   4.950   2.485   1.769  0.3759 -0.6618 -0.1100
   16CHTO  H142 6478   5.084   2.565   1.693  2.5404 -3.0338  0.0793
   16CHTO   C79 6479   4.956   2.235   1.651  0.4518 -0.5022 -0.1716
   16CHTO  H151 6480   4.881   2.259   1.576 -0.9195  0.1898  1.3855
   16CHTO   O52 6481   5.004   2.098   1.625  0.2379 -0.4656  0.8095
   16CHTO   C86 6482   5.125   2.073   1.711  0.2268 -0.1548 -0.0937
   16CHTO  H158 6483   5.086   2.068   1.814  3.5030  0.8529  1.2492
   16CHTO   C90 6484   5.198   1.939   1.686  0.0986  0.2742 -0.1469
   16CHTO   O60 6485   5.102   1.838   1.714  0.0318  0.6483 -0.2796
   16CHTO  H138 6486   5.140   1.756   1.688  0.8791  1.1560 -0.6930
   16CHTO   O50 6487   4.876   2.224   1.772 -0.2311  0.3058 -0.1301
   16CHTO   C73 6488   4.767   2.179   1.844  0.3031 -0.7975  0.4200
   16CHTO  H145 6489   4.761   2.069   1.850  1.2029 -0.8463  0.4755
   16CHTO   C74 6490   4.637   2.240   1.787  0.2161  0.2042 -0.0802
   16CHTO  H146 6491   4.621   2.210   1.683 -0.4592 -1.0065  0.3725
   16CHTO   O54 6492   4.532   2.184   1.863  0.5182  0.0539 -0.3302
   16CHTO  H133 6493   4.468   2.252   1.870 -0.2239 -0.5257 -1.3777
   16CHTO   C75 6494   4.638   2.403   1.802 -0.1932 -0.3023  0.2952
   16CHTO  H147 6495   4.716   2.445   1.737  2.0671 -1.0898  2.4186
   16CHTO   N13 6496   4.519   2.477   1.748  0.2589 -0.1413  0.4589
   16CHTO  H139 6497   4.427   2.450   1.798 -0.8898  3.0856  0.1789
   16CHTO  H140 6498   4.539   2.583   1.756  0.3140 -0.0235 -1.0666
   16CHTO   C76 6499   4.676   2.450   1.948  0.3454 -0.1667  0.0705
   16CHTO  H148 6500   4.589   2.418   2.006  0.3227  0.7018  0.5277
   16CHTO   O49 6501   4.804   2.382   1.980  0.2578 -0.5389 -0.0772
   16CHTO   C77 6502   4.790   2.239   1.984 -0.0889  0.7329  0.2141
   16CHTO  H149 6503   4.703   2.211   2.043  0.5252 -2.2209 -0.1691
   16CHTO   C88 6504   4.914   2.180   2.065 -0.0945  0.2716  0.2872
   16CHTO   O58 6505   4.903   2.218   2.196 -0.3386  0.0032  0.1718
   16CHTO  H136 6506   4.977   2.216   2.253  0.1784  1.5841 -0.4277
   16CHTO   O51 6507   4.712   2.605   1.967 -0.0820 -0.4732 -0.1285
   16CHTO   C78 6508   4.747   2.655   2.116  0.1912  0.1379  0.0832
   16CHTO  H150 6509   4.781   2.580   2.191 -1.5107 -2.3141 -1.5277
   16CHTO   C80 6510   4.613   2.715   2.162  0.4097  0.1015  0.2188
   16CHTO  H152 6511   4.588   2.794   2.089 -2.5996 -1.4965 -0.5666
   16CHTO   O55 6512   4.499   2.625   2.139  0.2821 -0.2091 -0.2418
   16CHTO  H134 6513   4.468   2.604   2.053 -1.5630  0.9407  0.1013
   16CHTO   C84 6514   4.621   2.766   2.314 -0.2959 -0.3142  0.6107
   16CHTO  H156 6515   4.654   2.684   2.378  0.6134 -0.4868 -0.0711
   16CHTO   N15 6516   4.490   2.822   2.360 -0.5852 -0.0349 -0.1153
   16CHTO  H143 6517   4.458   2.759   2.440 -0.7173  0.7743  0.4839
   16CHTO  H144 6518   4.507   2.921   2.398  1.9312 -0.5229  0.1376
   16CHTO   C87 6519   4.738   2.872   2.312  0.2099  0.5877 -0.1663
   16CHTO  H159 6520   4.709   2.957   2.250 -1.0026  1.2171  1.2230
   16CHTO   O53 6521   4.873   2.803   2.244 -0.1076 -0.6160  0.3353
   16CHTO   C82 6522   4.854   2.760   2.108  0.4997 -0.3958 -0.1725
   16CHTO  H154 6523   4.829   2.847   2.047 -0.6917 -0.9592 -0.4983
   16CHTO   C89 6524   4.988   2.698   2.047 -0.0807 -0.3030 -0.0880
   16CHTO   O59 6525   5.045   2.585   2.105 -0.5261 -0.0621 -0.3694
   16CHTO  H137 6526   5.028   2.506   2.059  0.1285  0.5633 -1.7372
   16CHTO   O45 6527   4.782   2.917   2.453  0.4748  0.0655 -0.6868
   16CHTO   C67 6528   4.871   3.034   2.457  0.1640 -0.4213 -0.4351
   16CHTO  H124 6529   4.959   2.995   2.405  1.4286 -2.7006  3.2147
   16CHTO   C65 6530   4.814   3.160   2.380  0.2429  0.4033  0.2856
   16CHTO  H122 6531   4.708   3.144   2.363  0.6117 -1.2371 -0.5403
   16CHTO   O44 6532   4.874   3.161   2.244 -0.1644 -0.0282  0.4816
   16CHTO  H102 6533   4.829   3.105   2.184  0.3499  1.5719 -1.4322
   16CHTO   C63 6534   4.821   3.293   2.470 -0.7193  0.1511 -0.0050
   16CHTO  H120 6535   4.762   3.283   2.561 -0.3405  0.1558  0.2399
   16CHTO   N11 6536   4.764   3.422   2.409 -0.6343 -0.2446  0.2976
   16CHTO  H108 6537   4.791   3.438   2.306 -0.9778  2.4366  0.5716
   16CHTO  H109 6538   4.666   3.453   2.440 -1.4725  0.3816 -2.7953
   16CHTO   C61 6539   4.973   3.303   2.523 -0.3659 -0.2039  0.5941
   16CHTO  H118 6540   4.979   3.386   2.596 -1.2783 -0.4598  0.9710
   16CHTO   O40 6541   5.010   3.186   2.599  0.0729  0.0738 -0.9290
   16CHTO   C68 6542   4.920   3.072   2.606 -0.4149  0.1416 -0.2540
   16CHTO  H125 6543   4.837   3.095   2.676 -0.6624 -0.6872 -0.2726
   16CHTO   C72 6544   4.995   2.961   2.668 -0.4272  0.1973  0.0804
   16CHTO   O48 6545   4.913   2.857   2.726 -0.3359  0.3496  0.0441
   16CHTO  H105 6546   4.858   2.812   2.665  0.0608  0.8393 -0.6912
   16CHTO   O38 6547   5.067   3.320   2.415  0.0487 -0.0966  0.1283
   16CHTO   C55 6548   5.198   3.367   2.467 -0.1214 -0.3335  0.0205
   16CHTO  H112 6549   5.202   3.359   2.577  1.0672 -0.7361 -0.0469
   16CHTO   C56 6550   5.219   3.520   2.418 -0.0868  0.3448 -0.2637
   16CHTO  H113 6551   5.195   3.522   2.311  0.1697 -2.0996 -0.4085
   16CHTO   O42 6552   5.123   3.606   2.487  0.0700  0.3107 -0.0139
   16CHTO  H100 6553   5.133   3.694   2.455  0.1413  0.4912  0.4998
   16CHTO   C57 6554   5.369   3.564   2.435  0.2805  0.4195  0.3149
   16CHTO  H114 6555   5.389   3.582   2.541  2.6203  0.1542 -0.0497
   16CHTO   N10 6556   5.399   3.698   2.366 -0.3063  0.4042  0.6449
   16CHTO  H106 6557   5.474   3.757   2.416 -0.4894 -0.4935  2.0017
   16CHTO  H107 6558   5.306   3.754   2.368  0.4128  1.6171  0.7742
   16CHTO   C58 6559   5.471   3.458   2.384  0.0699 -0.7954  0.5608
   16CHTO  H115 6560   5.462   3.444   2.274  0.3082 -0.6921  0.5284
   16CHTO   O37 6561   5.437   3.334   2.443  0.1141 -0.3223 -0.9600
   16CHTO   C59 6562   5.310   3.285   2.411  0.2730 -0.6546 -0.7306
   16CHTO  H116 6563   5.299   3.277   2.303  0.6861 -0.3358 -0.8005
   16CHTO   C70 6564   5.308   3.141   2.463  0.4908  0.2957  0.1598
   16CHTO   O46 6565   5.315   3.123   2.606 -0.3794  0.2802 -0.5852
   16CHTO  H103 6566   5.246   3.062   2.623 -3.1541  3.5053  0.3508
   16CHTO   O39 6567   5.634   3.499   2.426 -0.5569 -0.2874 -0.1541
   16CHTO   C60 6568   5.715   3.502   2.310  0.0352 -0.2946  0.0138
   16CHTO  H117 6569   5.663   3.503   2.214 -0.8723 -1.1544  0.4984
   16CHTO   C62 6570   5.795   3.640   2.317 -0.3711 -0.9094 -0.0321
   16CHTO  H119 6571   5.729   3.730   2.314  1.0367  0.1235 -0.7685
   16CHTO   O43 6572   5.866   3.654   2.443  0.1725  0.4738  0.2078
   16CHTO  H101 6573   5.926   3.726   2.447 -1.0621  1.5252 -0.0507
   16CHTO   C66 6574   5.889   3.641   2.188 -0.0120  0.2570 -0.6925
   16CHTO  H123 6575   5.829   3.635   2.097 -1.6265 -2.6778  0.5043
   16CHTO   N12 6576   5.957   3.773   2.180  0.2835  0.0120  0.2501
   16CHTO  H110 6577   5.910   3.847   2.244 -0.5981  0.7481 -1.2189
   16CHTO  H111 6578   5.969   3.806   2.078  1.6150 -0.1703  0.3414
   16CHTO   C69 6579   5.990   3.524   2.209  0.0346  0.8296  0.8912
   16CHTO  H126 6580   6.040   3.527   2.308 -0.5196  1.8511  1.1508
   16CHTO   O41 6581   5.906   3.397   2.194 -0.2368  0.5863  0.1679
   16CHTO   C64 6582   5.811   3.379   2.308 -0.8268  0.5027  0.5163
   16CHTO  H121 6583   5.861   3.395   2.405  0.6494  0.6669 -0.2550
   16CHTO   C71 6584   5.734   3.247   2.289 -0.4495  0.2810 -0.1561
   16CHTO   O47 6585   5.698   3.191   2.413 -0.5189  0.2085 -0.1743
   16CHTO  H104 6586   5.778   3.169   2.457 -2.5422 -2.6773  2.1800
   16CHTO   O34 6587   6.118   3.521   2.114 -0.4794 -0.3389 -0.0696
   16CHTO   C49 6588   6.216   3.409   2.096  0.3637 -0.1472 -0.0789
   16CHTO   H91 6589   6.165   3.335   2.158  1.1726  1.0194  2.0274
   16CHTO   C47 6590   6.361   3.429   2.147 -0.0789  0.5786 -0.5451
   16CHTO   H89 6591   6.357   3.414   2.256  3.2176  0.1626 -0.4318
   16CHTO   O33 6592   6.404   3.554   2.120  0.0191 -0.2395  0.2317
   16CHTO   H70 6593   6.495   3.566   2.142 -0.0856  0.7811  0.1252
   16CHTO   C45 6594   6.461   3.324   2.077 -0.4370  0.0864  0.3494
   16CHTO   H87 6595   6.504   3.381   1.994  1.8141 -0.1688  1.3075
   16CHTO    N8 6596   6.574   3.293   2.169 -0.1631 -0.5482  0.0955
   16CHTO   H75 6597   6.611   3.377   2.225  0.5742 -0.8778  0.1105
   16CHTO   H76 6598   6.544   3.214   2.236  1.2443 -0.4509  0.8628
   16CHTO   C43 6599   6.383   3.198   2.014 -0.1571  0.0079 -0.6477
   16CHTO   H85 6600   6.460   3.143   1.959 -1.1001 -0.7054 -1.2785
   16CHTO   O29 6601   6.279   3.243   1.930  0.1334  0.5872  0.0134
   16CHTO   C50 6602   6.219   3.367   1.950 -0.6531  0.2271 -0.3605
   16CHTO   H92 6603   6.272   3.451   1.901  0.2882 -0.3268 -0.3120
   16CHTO   C54 6604   6.076   3.352   1.884 -0.3059  0.4436 -0.0999
   16CHTO   O36 6605   6.093   3.352   1.740  0.1782 -0.2652  0.7170
   16CHTO   H72 6606   6.143   3.426   1.711  1.7467 -1.0685  1.3128
   16CHTO   O27 6607   6.322   3.114   2.115 -0.1224 -0.3107  0.2534
   16CHTO   C37 6608   6.258   2.986   2.101 -0.7284 -0.5567 -0.0795
   16CHTO   H79 6609   6.243   2.945   2.202  2.0963  1.2444  1.1420
   16CHTO   C38 6610   6.122   3.000   2.035  0.0474  0.5500  0.3065
   16CHTO   H80 6611   6.130   3.047   1.936 -1.8496 -0.5542 -0.3860
   16CHTO   O31 6612   6.038   3.085   2.115  0.0033 -0.1483  0.5631
   16CHTO   H68 6613   6.065   3.175   2.116  0.2508 -0.1152 -2.5838
   16CHTO   C39 6614   6.056   2.856   2.012  0.5343  0.0196  0.4350
   16CHTO   H81 6615   6.043   2.814   2.112  1.6233  0.4787  0.7871
   16CHTO    N7 6616   5.918   2.872   1.951 -0.3324 -0.0353  0.1300
   16CHTO   H73 6617   5.917   2.959   1.887  0.4367 -1.3313 -1.6867
   16CHTO   H74 6618   5.843   2.894   2.026 -0.9267  1.0842 -0.7850
   16CHTO   C40 6619   6.149   2.754   1.943 -0.2066 -0.0176  0.5013
   16CHTO   H82 6620   6.165   2.774   1.837  2.9234 -0.1979  0.9014
   16CHTO   O26 6621   6.268   2.756   2.018  0.3145 -0.1892  0.2540
   16CHTO   C41 6622   6.337   2.885   2.022 -0.0023 -0.0418 -0.2816
   16CHTO   H83 6623   6.349   2.923   1.919  2.1760 -0.8726 -0.3634
   16CHTO   C52 6624   6.483   2.874   2.087  0.4398 -0.0264  0.0441
   16CHTO   O35 6625   6.546   2.762   2.036  0.4725  0.3410 -0.7247
   16CHTO   H71 6626   6.581   2.792   1.954 -1.3722 -0.9260 -2.0425
   16CHTO   O28 6627   6.097   2.619   1.948 -0.5614  0.8212 -0.6833
   16CHTO   C42 6628   6.167   2.487   1.933  0.2217 -0.4005 -0.5099
   16CHTO   H84 6629   6.267   2.507   1.973  0.1681  2.0394 -1.4778
   16CHTO   C44 6630   6.195   2.442   1.784  0.2331  0.7428 -0.3657
   16CHTO   H86 6631   6.099   2.444   1.733 -1.9550  2.2906  3.5600
   16CHTO   O32 6632   6.272   2.545   1.724  0.6150 -1.0904 -0.1744
   16CHTO   H69 6633   6.356   2.564   1.759 -0.3004  0.8889  1.0011
   16CHTO   C48 6634   6.261   2.298   1.772  0.1550 -0.4689 -0.5307
   16CHTO   H90 6635   6.365   2.290   1.805  0.7864  1.4602 -1.9571
   16CHTO    N9 6636   6.272   2.270   1.621 -0.7198  0.4129  0.0677
   16CHTO   H77 6637   6.243   2.168   1.599 -2.3147  0.9146 -0.2583
   16CHTO   H78 6638   6.370   2.296   1.586 -0.7125  2.4913  1.5011
   16CHTO   C51 6639   6.175   2.200   1.850  0.7770 -0.2896  0.1384
   16CHTO   H93 6640   6.075   2.200   1.805  0.1422  0.0175  1.5088
   16CHTO   O30 6641   6.171   2.240   1.987 -0.1734  0.0302  0.3686
   16CHTO   C46 6642   6.107   2.371   2.021  0.0649 -1.1198 -0.0816
   16CHTO   H88 6643   5.998   2.365   2.019  0.0521 -1.4291  1.1198
   16CHTO   C53 6644   6.140   2.405   2.169  0.2280  0.2563 -0.0242
   16CHTO   O72 6645   6.275   2.390   2.213 -0.6155  0.3387 -0.5729
   16CHTO  H199 6646   6.302   2.445   2.284  1.3194 -1.6062  0.2549
   16CHTO   O22 6647   6.231   2.070   1.861 -0.2794 -0.2345 -0.5766
   16CHTO   C31 6648   6.150   1.960   1.924 -0.5225  0.1675 -0.6568
   16CHTO   H59 6649   6.076   2.009   1.989 -0.3284 -0.0396 -0.2803
   16CHTO   C29 6650   6.071   1.869   1.833  0.9612 -0.1911  0.8826
   16CHTO   H57 6651   6.153   1.841   1.765 -0.6979 -0.0133 -1.2156
   16CHTO   O21 6652   5.986   1.959   1.757 -0.4350 -0.5461  0.3967
   16CHTO   H37 6653   5.928   1.907   1.703 -0.0546 -0.0483 -0.4990
   16CHTO   C27 6654   6.008   1.734   1.895  0.0017  0.0087 -0.0835
   16CHTO   H55 6655   5.919   1.754   1.957 -1.1027 -4.4935 -0.0844
   16CHTO    N5 6656   5.964   1.636   1.789  0.0075 -0.1015 -0.5278
   16CHTO   H43 6657   6.055   1.612   1.736 -0.9979 -2.6590 -1.1365
   16CHTO   H44 6658   5.917   1.556   1.845  1.3892 -0.1925  0.5478
   16CHTO   C25 6659   6.102   1.678   2.005 -0.2223 -0.6402  0.3267
   16CHTO   H53 6660   6.188   1.624   1.963  1.7859  1.7424  1.2362
   16CHTO   O17 6661   6.148   1.789   2.090  0.0312 -0.5061  0.3093
   16CHTO   C32 6662   6.241   1.877   2.024  0.0788 -0.3549  0.8109
   16CHTO   H60 6663   6.317   1.824   1.966  0.3771  2.0940 -1.1462
   16CHTO   C36 6664   6.300   1.956   2.148 -0.2843  0.1286  0.8850
   16CHTO   O25 6665   6.422   1.900   2.206 -0.2056 -0.3530 -0.2967
   16CHTO   H40 6666   6.461   1.838   2.146  2.5558  1.6563 -0.6687
   16CHTO   O15 6667   6.019   1.570   2.086 -0.3217 -0.3448 -0.1582
   16CHTO   C19 6668   5.939   1.525   2.199  0.3642 -0.1003 -0.1877
   16CHTO   H47 6669   5.997   1.441   2.239  0.3829 -0.5174 -1.0643
   16CHTO   C20 6670   5.896   1.631   2.305  0.1201  0.2325 -1.0235
   16CHTO   H48 6671   5.831   1.709   2.262  0.3684  1.3445  0.5508
   16CHTO   O19 6672   6.020   1.686   2.356  0.2721 -0.4112 -0.2405
   16CHTO   H35 6673   6.047   1.757   2.301  0.1880  0.0872  0.3571
   16CHTO   C21 6674   5.812   1.567   2.421 -0.7756 -0.4334  0.2945
   16CHTO   H49 6675   5.867   1.482   2.460  0.6754 -0.8072 -2.4565
   16CHTO    N4 6676   5.764   1.656   2.533  0.3757  0.4052  0.3257
   16CHTO   H41 6677   5.843   1.720   2.570  0.7471 -1.2943  2.5372
   16CHTO   H42 6678   5.681   1.713   2.494  0.3142  0.8510  1.0988
   16CHTO   C22 6679   5.698   1.491   2.355 -0.3413 -0.7417  0.3790
   16CHTO   H50 6680   5.634   1.566   2.308  2.3856  0.5500 -1.4422
   16CHTO   O14 6681   5.752   1.399   2.262  0.0715 -0.7632 -0.3986
   16CHTO   C23 6682   5.807   1.457   2.143  0.1506  0.4961  0.0584
   16CHTO   H51 6683   5.740   1.531   2.096  1.4096  1.1971 -0.6389
   16CHTO   C34 6684   5.839   1.348   2.040 -0.2480 -0.3125  0.1431
   16CHTO   O23 6685   5.732   1.290   1.968  0.2273  0.4409  0.1842
   16CHTO   H38 6686   5.767   1.220   1.917  1.5559  0.7913  0.5966
   16CHTO   O16 6687   5.608   1.411   2.441 -0.4246  0.1091  0.0030
   16CHTO   C24 6688   5.469   1.394   2.366  0.5946  0.3078 -0.1403
   16CHTO   H52 6689   5.473   1.435   2.265  0.5502  1.1060  0.1780
   16CHTO   C26 6690   5.359   1.482   2.442 -0.2224  0.1182  0.0109
   16CHTO   H54 6691   5.351   1.440   2.545  0.8313 -0.7876 -0.2636
   16CHTO   O20 6692   5.412   1.609   2.433 -0.6722 -0.8634  0.1183
   16CHTO   H36 6693   5.486   1.634   2.485 -0.7246  1.7191 -0.9630
   16CHTO   C30 6694   5.226   1.482   2.361 -0.1534 -0.1053  0.2280
   16CHTO   H58 6695   5.237   1.532   2.264 -0.3370 -1.4114 -0.4816
   16CHTO    N6 6696   5.117   1.566   2.424  0.7343 -0.1884  0.0870
   16CHTO   H45 6697   5.129   1.573   2.531 -2.7827  1.7744  0.4327
   16CHTO   H46 6698   5.124   1.663   2.376  0.4244 -0.5665 -0.7350
   16CHTO   C33 6699   5.184   1.337   2.324 -0.2563  0.1378  0.3407
   16CHTO   H61 6700   5.142   1.288   2.414 -0.6802  2.3498  1.3773
   16CHTO   O18 6701   5.296   1.259   2.285 -0.0274  0.0901  0.3314
   16CHTO   C28 6702   5.422   1.255   2.356 -0.0365 -0.5695 -0.1442
   16CHTO   H56 6703   5.405   1.214   2.456 -1.9084 -2.8330 -1.3158
   16CHTO   C35 6704   5.528   1.174   2.275 -0.2560 -0.7971  0.5058
   16CHTO   O24 6705   5.498   1.033   2.243 -0.1067  0.0204  0.0113
   16CHTO   H39 6706   5.498   0.988   2.326 -0.4580 -1.3256 -0.7156
   16CHTO    O9 6707   5.073   1.330   2.230  0.0506  0.4321  0.1941
   16CHTO   C13 6708   5.011   1.173   2.211 -0.4454  0.7144 -0.1462
   16CHTO   H26 6709   5.063   1.112   2.287 -1.8227 -0.9641 -0.5225
   16CHTO   C11 6710   5.033   1.118   2.063 -0.0391  0.4885 -0.0217
   16CHTO   H24 6711   5.141   1.100   2.048 -0.0477 -0.4592  0.9883
   16CHTO    O8 6712   4.976   1.217   1.976  0.7801 -0.4691 -0.0981
   16CHTO    H3 6713   4.897   1.257   2.008  0.2389 -1.8266  0.3196
   16CHTO    C9 6714   4.968   0.978   2.051  0.6832 -0.2950  0.1243
   16CHTO   H22 6715   5.037   0.906   2.096 -0.2320 -0.4815  1.2321
   16CHTO    N2 6716   4.958   0.936   1.909 -0.9277 -0.0248  0.0504
   16CHTO   H10 6717   4.981   1.017   1.841 -3.0688  0.8288  0.3066
   16CHTO   H11 6718   4.871   0.873   1.898  0.5604 -2.1982  0.3137
   16CHTO    C7 6719   4.830   0.960   2.123 -0.1405 -0.1140 -0.4818
   16CHTO   H20 6720   4.850   0.904   2.217  0.4575 -2.2491 -1.8338
   16CHTO    O4 6721   4.782   1.086   2.147 -0.1237 -0.4103  0.3957
   16CHTO   C14 6722   4.851   1.148   2.259  0.1167  0.2273 -0.1389
   16CHTO   H27 6723   4.830   1.091   2.352 -2.8793  0.4989 -0.6297
   16CHTO   C18 6724   4.773   1.284   2.276  0.7745  0.5853 -0.7241
   16CHTO   O13 6725   4.780   1.347   2.400 -0.2844 -0.0016  0.1549
   16CHTO    H7 6726   4.866   1.381   2.417  0.1554 -1.8340  1.7020
   16CHTO    O2 6727   4.698   0.872   2.032  0.0257  0.6827  0.1723
   16CHTO    C1 6728   4.604   0.804   2.111 -0.6583 -0.4215 -0.1088
   16CHTO   H14 6729   4.527   0.770   2.038 -0.7704  0.7513 -0.5486
   16CHTO    C2 6730   4.531   0.893   2.220  0.2200  0.3592 -1.1702
   16CHTO   H15 6731   4.609   0.920   2.292 -0.8988  0.2565  0.1093
   16CHTO    O6 6732   4.469   1.012   2.157 -0.2128 -0.1891  0.3334
   16CHTO    H1 6733   4.431   1.065   2.225 -2.4600 -0.7817 -0.4302
   16CHTO    C3 6734   4.426   0.801   2.298  0.0547 -0.4996 -0.6743
   16CHTO   H16 6735   4.338   0.764   2.243 -1.1204  0.2390  0.6388
   16CHTO    N1 6736   4.363   0.880   2.410 -0.2064  0.0095 -0.1121
   16CHTO    H8 6737   4.335   0.974   2.364 -1.1664 -0.6795 -0.9473
   16CHTO    H9 6738   4.287   0.837   2.473 -0.7336 -1.0203 -1.4422
   16CHTO    C4 6739   4.503   0.672   2.350 -0.0235 -0.9141 -0.3968
   16CHTO   H17 6740   4.574   0.699   2.427  1.7214 -1.7489 -1.6738
   16CHTO    O1 6741   4.558   0.601   2.240 -0.0575 -0.0228  0.4121
   16CHTO    C5 6742   4.664   0.675   2.169 -0.5279  0.1599  0.2575
   16CHTO   H18 6743   4.738   0.698   2.246 -0.1872  0.5236 -0.1817
   16CHTO   C16 6744   4.736   0.588   2.056  0.2278 -0.0894 -0.3388
   16CHTO   O11 6745   4.870   0.634   2.025 -0.6171 -0.3990  0.1899
   16CHTO    H5 6746   4.930   0.612   2.094  1.1643 -0.6649 -1.4094
   16CHTO    O3 6747   4.422   0.581   2.422  0.4878  0.3315  0.9190
   16CHTO    C6 6748   4.500   0.485   2.499  0.5333 -0.6803 -0.2380
   16CHTO   H19 6749   4.595   0.468   2.449  0.3953 -0.3824 -0.6065
   16CHTO    C8 6750   4.532   0.520   2.643 -0.5559 -0.6150  0.2700
   16CHTO   H21 6751   4.438   0.540   2.694 -0.7220 -0.7238  0.0064
   16CHTO    O7 6752   4.615   0.641   2.641 -0.1267  0.0477 -0.0719
   16CHTO    H2 6753   4.560   0.715   2.627 -1.3295 -0.6244  0.9926
   16CHTO   C12 6754   4.614   0.410   2.709 -0.0251 -0.0335 -0.5113
   16CHTO   H25 6755   4.705   0.403   2.646  0.5285  3.0762 -0.1145
   16CHTO    N3 6756   4.652   0.444   2.851 -0.2765  0.4854 -0.2006
   16CHTO   H12 6757   4.705   0.359   2.893  0.6314 -0.1321 -2.5084
   16CHTO   H13 6758   4.562   0.472   2.903 -0.0038 -0.3465  0.7330
   16CHTO   C15 6759   4.527   0.275   2.694  0.7920 -0.5146  0.2092
   16CHTO   H28 6760   4.435   0.279   2.752  0.5596 -0.1318 -0.1792
   16CHTO   O10 6761   4.620   0.146   2.728 -0.3788 -0.3777  0.0606
   16CHTO    H4 6762   4.632   0.149   2.821  0.7325  0.5219 -0.1111
   16CHTO    O5 6763   4.501   0.244   2.551  0.1938 -0.4366 -0.1167
   16CHTO   C10 6764   4.423   0.353   2.497 -0.3311 -0.5938  0.6852
   16CHTO   H23 6765   4.330   0.371   2.552 -0.1342  0.1942  0.7656
   16CHTO   C17 6766   4.370   0.300   2.355 -0.2300  1.1424 -0.0316
   16CHTO   O12 6767   4.472   0.283   2.254  0.4238  0.4797  0.0456
   16CHTO    H6 6768   4.467   0.366   2.210  1.0274 -0.1395 -1.1818
   17CHTO  H203 6769   3.542   4.412   1.196  1.0374  1.0285 -0.5526
   17CHTO   O82 6770   3.564   4.388   1.284  0.6321 -0.7495 -0.9194
   17CHTO  C123 6771   3.678   4.464   1.332  0.4593  0.4255 -0.6202
   17CHTO  H227 6772   3.685   4.438   1.438 -4.7470  1.2617  0.0315
   17CHTO   O77 6773   3.783   4.410   1.245  0.3659 -0.0594  0.0748
   17CHTO  C118 6774   3.909   4.472   1.271  0.4952 -0.0945 -0.6295
   17CHTO  H222 6775   3.944   4.459   1.374  0.2783 -1.0635 -0.6690
   17CHTO  C125 6776   4.018   4.407   1.177  0.0096  0.1966 -0.5527
   17CHTO   O84 6777   4.037   4.268   1.214 -0.0711 -0.6961 -0.6742
   17CHTO  H205 6778   3.964   4.218   1.245  0.3863 -2.8081 -2.9010
   17CHTO  C114 6779   3.906   4.620   1.245  0.1356 -0.6129  0.1461
   17CHTO  H218 6780   3.899   4.641   1.138 -0.5465  1.4277  0.5706
   17CHTO  C116 6781   3.792   4.697   1.316  0.1011 -0.2880 -0.2446
   17CHTO  H220 6782   3.819   4.722   1.420  1.4345 -0.6386 -0.4960
   17CHTO   O79 6783   3.782   4.830   1.250 -0.1381 -0.2085  0.5506
   17CHTO  H201 6784   3.867   4.870   1.245 -0.5894  0.6253 -0.5550
   17CHTO  C120 6785   3.659   4.616   1.302  0.1083  0.1529 -0.1898
   17CHTO  H224 6786   3.639   4.639   1.195  1.1744  1.4817 -0.1108
   17CHTO   N21 6787   3.544   4.674   1.381 -0.3182 -0.1764 -0.3619
   17CHTO  H211 6788   3.572   4.744   1.458 -1.4188  1.8804 -1.7682
   17CHTO  H212 6789   3.464   4.711   1.318 -1.0205  0.8234  1.0809
   17CHTO   O75 6790   4.037   4.656   1.288 -0.0852 -0.1446  0.3652
   17CHTO  C112 6791   4.108   4.762   1.209  0.2667 -0.3492 -1.9643
   17CHTO  H216 6792   4.037   4.845   1.192  0.6431  0.4703  0.1975
   17CHTO   O73 6793   4.155   4.704   1.087  0.4090  0.3566  0.0159
   17CHTO  C113 6794   4.200   4.799   0.987  0.0056  0.0381  0.5129
   17CHTO  H217 6795   4.115   4.865   0.963  1.7506  2.6843  1.3447
   17CHTO  C124 6796   4.238   4.734   0.855 -0.0398 -0.0100 -0.2279
   17CHTO   O83 6797   4.353   4.647   0.849 -0.0688  0.7591 -0.3526
   17CHTO  H204 6798   4.339   4.573   0.905 -0.4805  2.3666  1.7220
   17CHTO  C109 6799   4.323   4.880   1.044 -0.1450  0.9059 -0.1518
   17CHTO  H213 6800   4.409   4.811   1.047 -0.0564  0.9599 -1.3162
   17CHTO  C110 6801   4.282   4.937   1.184 -1.2515  0.0460  0.5502
   17CHTO  H214 6802   4.203   5.012   1.171 -3.1622 -1.8034  1.2264
   17CHTO   O78 6803   4.398   4.997   1.227  0.1270 -0.3773  0.3283
   17CHTO  H200 6804   4.458   4.931   1.255  0.9625  0.3925  0.4007
   17CHTO  C111 6805   4.231   4.829   1.284 -0.0992  0.3548  0.1752
   17CHTO  H215 6806   4.312   4.756   1.302 -1.3189 -0.7088  1.5551
   17CHTO   N19 6807   4.192   4.887   1.417 -0.4273  0.5392  0.1378
   17CHTO  H207 6808   4.167   4.801   1.477 -1.3703  0.4722 -0.3498
   17CHTO  H208 6809   4.276   4.937   1.463  1.0676  0.0245 -1.9481
   17CHTO   O74 6810   4.349   4.993   0.964 -0.4159 -0.0771 -0.7574
   17CHTO  C115 6811   4.512   5.001   0.935 -0.2950  0.0710 -0.1245
   17CHTO  H219 6812   4.572   4.989   1.026  1.7782  1.4186 -1.2937
   17CHTO   O76 6813   4.553   4.883   0.842 -0.3946 -0.1935 -0.1589
   17CHTO  C122 6814   4.697   4.883   0.826  0.1612 -0.3264 -0.5828
   17CHTO  H226 6815   4.714   4.807   0.750  2.5414 -1.0657  0.6046
   17CHTO  C126 6816   4.757   4.821   0.959 -0.4391  0.1261 -0.2790
   17CHTO   O85 6817   4.740   4.675   0.949  0.3608 -0.5541  0.3700
   17CHTO  H206 6818   4.723   4.636   1.033 -2.0630 -2.4616 -0.9294
   17CHTO  C121 6819   4.757   5.015   0.780  0.2099 -0.3843 -0.3060
   17CHTO  H225 6820   4.866   4.995   0.786  0.0666 -1.4337 -1.0971
   17CHTO   O81 6821   4.732   5.032   0.642  0.4670  0.2430  0.1550
   17CHTO  H202 6822   4.766   5.114   0.613 -3.9538  2.7242  1.4137
   17CHTO  C119 6823   4.714   5.141   0.867  0.6489 -0.4048 -0.3988
   17CHTO  H223 6824   4.759   5.132   0.966 -1.4420  0.7770  0.6911
   17CHTO  C117 6825   4.557   5.141   0.878  0.0010 -0.3735 -1.3510
   17CHTO  H221 6826   4.504   5.157   0.784  0.6395  0.1538 -1.6254
   17CHTO   N20 6827   4.517   5.257   0.966  0.2556 -0.5314 -0.2333
   17CHTO  H209 6828   4.558   5.349   0.928 -1.5729  0.7556  0.8330
   17CHTO  H210 6829   4.536   5.253   1.072 -1.1209 -1.7998 -0.0192
   17CHTO   O80 6830   4.776   5.285   0.823  0.2328  0.1209 -1.1875
   17CHTO  C103 6831   4.893   5.344   0.893 -0.4664  0.6695 -0.5315
   17CHTO  H190 6832   4.889   5.346   1.002 -3.0769  0.6936 -0.6027
   17CHTO  C101 6833   5.037   5.269   0.861 -0.4186  0.0461  0.2695
   17CHTO  H188 6834   5.036   5.258   0.753 -0.5302 -0.2037  0.2943
   17CHTO   O68 6835   5.040   5.135   0.922 -0.3317 -0.3409 -0.3235
   17CHTO  H168 6836   4.949   5.116   0.938 -0.2750  0.2300  0.7190
   17CHTO   C99 6837   5.159   5.360   0.906 -0.0229 -0.1523 -0.4241
   17CHTO  H186 6838   5.154   5.381   1.015 -1.3154  0.9427 -0.6783
   17CHTO   N17 6839   5.293   5.306   0.882 -1.1005  0.8857 -0.3205
   17CHTO  H174 6840   5.299   5.200   0.903  1.0912  1.0237 -0.1564
   17CHTO  H175 6841   5.366   5.350   0.947  0.5599 -2.3916  0.1623
   17CHTO   C97 6842   5.130   5.498   0.843 -0.4561  0.2999  0.0838
   17CHTO  H184 6843   5.126   5.484   0.734 -1.0757  1.5254 -0.0648
   17CHTO   O64 6844   5.004   5.553   0.896 -0.2280 -0.3805 -0.2559
   17CHTO  C104 6845   4.887   5.492   0.842  0.0627 -0.0274 -0.4480
   17CHTO  H191 6846   4.879   5.489   0.733 -0.0053  1.5427 -0.4974
   17CHTO  C108 6847   4.768   5.574   0.887  0.4866 -0.0661 -0.8696
   17CHTO   O71 6848   4.641   5.535   0.828 -0.1924 -0.0527 -0.1678
   17CHTO  H171 6849   4.651   5.522   0.735  0.6920 -0.0147 -0.0903
   17CHTO   O62 6850   5.235   5.593   0.873  0.0497  0.0682 -0.1538
   17CHTO   C91 6851   5.267   5.692   0.768  0.2393  0.0383  0.2998
   17CHTO  H178 6852   5.279   5.633   0.677 -3.2117 -4.2986  2.4338
   17CHTO   C92 6853   5.411   5.759   0.798  0.2923  0.9956 -0.4255
   17CHTO  H179 6854   5.431   5.745   0.905 -1.9434 -0.5867 -0.1857
   17CHTO   O66 6855   5.506   5.669   0.740  0.4830  0.1768  0.2606
   17CHTO  H166 6856   5.534   5.597   0.793 -0.2609  0.1806  0.6698
   17CHTO   C93 6857   5.432   5.910   0.753  0.4573  0.4401  0.2724
   17CHTO  H180 6858   5.444   5.919   0.644 -1.9711 -2.4639 -0.3158
   17CHTO   N16 6859   5.560   5.968   0.801 -0.8400 -0.1182 -0.7923
   17CHTO  H172 6860   5.645   5.912   0.765 -1.2832  0.4028 -2.7419
   17CHTO  H173 6861   5.564   5.985   0.907 -0.8884  0.3231 -0.8624
   17CHTO   C94 6862   5.303   5.988   0.798 -0.1420 -0.7476 -0.4579
   17CHTO  H181 6863   5.285   5.976   0.905  0.8259  2.5483  0.1282
   17CHTO   O61 6864   5.206   5.933   0.711  0.1521 -0.0656 -0.0283
   17CHTO   C95 6865   5.164   5.802   0.749  0.2170  0.4478  0.1930
   17CHTO  H182 6866   5.098   5.810   0.835 -0.6500 -0.7754 -0.3483
   17CHTO  C106 6867   5.061   5.764   0.635 -0.6529 -0.4872 -0.6049
   17CHTO   O69 6868   4.938   5.837   0.620 -0.0707  0.5288 -0.0642
   17CHTO  H169 6869   4.869   5.780   0.646  0.1627 -0.7776 -2.1524
   17CHTO   O63 6870   5.307   6.140   0.752 -0.2603  0.2327 -0.4049
   17CHTO   C96 6871   5.285   6.232   0.862  1.0565  0.1523  1.4778
   17CHTO  H183 6872   5.334   6.187   0.948  1.3047 -0.2855  1.1093
   17CHTO   C98 6873   5.135   6.258   0.900  0.0111 -0.3176  0.4332
   17CHTO  H185 6874   5.076   6.302   0.819 -0.8346  0.5676  1.5130
   17CHTO   O67 6875   5.065   6.136   0.931 -0.5754  0.0556 -0.4959
   17CHTO  H167 6876   5.010   6.108   0.859  2.0036 -0.0730 -2.4969
   17CHTO  C102 6877   5.135   6.361   1.022 -0.8744 -0.6900  0.1957
   17CHTO  H189 6878   5.184   6.311   1.106  0.4381  0.0108 -0.1442
   17CHTO   N18 6879   4.999   6.397   1.067  0.5423  0.6850  0.1665
   17CHTO  H176 6880   4.937   6.448   0.995  2.0285  1.8894 -0.2939
   17CHTO  H177 6881   5.009   6.465   1.151  3.5111  2.0057 -1.1912
   17CHTO  C105 6882   5.216   6.486   0.982  0.3954 -0.1189  0.8011
   17CHTO  H192 6883   5.166   6.531   0.896 -3.9980 -2.5775  1.9350
   17CHTO   O65 6884   5.350   6.461   0.936 -0.7811 -0.4057  0.3069
   17CHTO  C100 6885   5.360   6.374   0.823 -0.1995 -0.7851 -0.2197
   17CHTO  H187 6886   5.307   6.413   0.735  1.3587 -0.2862 -0.9539
   17CHTO  C107 6887   5.510   6.354   0.795  0.0801  0.4137 -0.4495
   17CHTO   O70 6888   5.579   6.457   0.720  0.6938 -0.4788  0.1658
   17CHTO  H170 6889   5.531   6.472   0.641  0.3340 -3.1330 -0.1664
   17CHTO   O57 6890   5.216   6.575   1.121 -0.1430  0.6590 -0.7778
   17CHTO   C85 6891   5.320   6.653   1.186  0.3895  0.1965 -0.1188
   17CHTO  H157 6892   5.365   6.714   1.105 -1.2396  0.6228 -0.7337
   17CHTO   C83 6893   5.423   6.550   1.240  0.5087 -0.1113  0.2542
   17CHTO  H155 6894   5.467   6.495   1.157  1.3766 -1.4899  1.6111
   17CHTO   O56 6895   5.348   6.455   1.314  0.3885 -0.3356 -0.1571
   17CHTO  H135 6896   5.350   6.472   1.406 -2.8179 -0.7945  0.0584
   17CHTO   C81 6897   5.536   6.611   1.322 -0.0565  0.6094  0.1101
   17CHTO  H153 6898   5.596   6.678   1.261 -0.8474 -0.2212 -1.5939
   17CHTO   N14 6899   5.634   6.506   1.369  0.3645 -0.8092 -0.1362
   17CHTO  H141 6900   5.606   6.430   1.439  1.6005  0.7330  2.0948
   17CHTO  H142 6901   5.676   6.458   1.283 -1.9460 -1.3440 -1.0094
   17CHTO   C79 6902   5.476   6.696   1.441  0.0155 -0.2422  0.8358
   17CHTO  H151 6903   5.561   6.745   1.489  0.7737  1.3670 -2.0162
   17CHTO   O52 6904   5.383   6.799   1.390 -0.3520 -0.4841 -0.7012
   17CHTO   C86 6905   5.272   6.741   1.316  0.1959 -0.6722  0.9147
   17CHTO  H158 6906   5.216   6.672   1.382  0.1536 -1.8551 -0.3135
   17CHTO   C90 6907   5.181   6.849   1.271 -0.2875  0.0231 -0.0254
   17CHTO   O60 6908   5.058   6.800   1.214  0.3122 -0.8164  0.2469
   17CHTO  H138 6909   5.062   6.814   1.121 -0.1308  1.0415  0.4830
   17CHTO   O50 6910   5.412   6.613   1.542  0.3093  0.3288 -0.2831
   17CHTO   C73 6911   5.373   6.621   1.681 -0.2734  0.1839  0.0900
   17CHTO  H145 6912   5.415   6.713   1.723 -1.5481  1.0098 -0.3972
   17CHTO   C74 6913   5.447   6.504   1.749  0.1060  0.4983 -0.3922
   17CHTO  H146 6914   5.555   6.515   1.732  0.0088  1.2395 -0.5544
   17CHTO   O54 6915   5.420   6.514   1.897 -0.0632  0.0626  0.3135
   17CHTO  H133 6916   5.485   6.574   1.927  0.6397 -0.6800  0.2953
   17CHTO   C75 6917   5.388   6.366   1.692 -0.5183 -0.8064 -0.7923
   17CHTO  H147 6918   5.394   6.367   1.582  1.5097  2.6678 -0.7449
   17CHTO   N13 6919   5.463   6.250   1.744  0.4865  0.0908  0.0311
   17CHTO  H139 6920   5.416   6.164   1.698 -0.1574  0.2044  0.4673
   17CHTO  H140 6921   5.468   6.244   1.852 -3.5439  0.0672  0.2707
   17CHTO   C76 6922   5.230   6.368   1.718  0.1227 -0.8064 -0.8499
   17CHTO  H148 6923   5.200   6.365   1.823  0.2311 -1.7998 -0.8364
   17CHTO   O49 6924   5.171   6.490   1.653 -0.1493  1.0464 -0.2879
   17CHTO   C77 6925   5.219   6.613   1.703  0.1514 -0.1040 -0.1175
   17CHTO  H149 6926   5.200   6.621   1.810 -0.8356  1.3614 -0.3861
   17CHTO   C88 6927   5.144   6.740   1.656  0.4433  0.0284 -0.1964
   17CHTO   O58 6928   5.004   6.735   1.706 -0.2304 -0.5609 -0.0795
   17CHTO  H136 6929   4.945   6.771   1.644 -0.0395 -0.5699 -0.2653
   17CHTO   O51 6930   5.166   6.246   1.642 -0.1813  0.3512 -0.1642
   17CHTO   C78 6931   5.026   6.209   1.692  0.3795  0.2232  0.0678
   17CHTO  H150 6932   4.968   6.290   1.743 -2.5022 -1.6152 -0.1295
   17CHTO   C80 6933   5.022   6.086   1.782  0.0816  0.0567 -0.3263
   17CHTO  H152 6934   5.075   6.002   1.733  1.6060  1.3166 -0.8818
   17CHTO   O55 6935   5.096   6.108   1.900 -0.5012  0.0726  0.6184
   17CHTO  H134 6936   5.090   6.195   1.934  1.1701  0.0058  1.1160
   17CHTO   C84 6937   4.871   6.046   1.810 -0.4141 -0.2300  0.4897
   17CHTO  H156 6938   4.833   6.130   1.869 -0.9274 -0.5006  0.5524
   17CHTO   N15 6939   4.857   5.922   1.899 -0.2352  0.0759  0.1211
   17CHTO  H143 6940   4.900   5.833   1.858 -1.4029 -0.4958  0.1051
   17CHTO  H144 6941   4.752   5.906   1.915  0.1665 -1.0526  1.7796
   17CHTO   C87 6942   4.786   6.037   1.676 -0.2311  0.1863 -0.1420
   17CHTO  H159 6943   4.823   5.950   1.621  2.2863  1.4062 -0.4686
   17CHTO   O53 6944   4.811   6.158   1.593 -0.6138  0.3942 -0.3062
   17CHTO   C82 6945   4.950   6.185   1.564  0.1533  1.1617  0.4122
   17CHTO  H154 6946   4.987   6.097   1.513  0.3681  0.3503  1.9317
   17CHTO   C89 6947   4.950   6.304   1.469 -0.4837 -0.2929 -0.2433
   17CHTO   O59 6948   4.891   6.417   1.535  0.2163  0.0229 -0.0425
   17CHTO  H137 6949   4.955   6.461   1.588 -1.1374  1.9297  0.0593
   17CHTO   O45 6950   4.631   6.015   1.710 -0.4598  0.1150  0.1032
   17CHTO   C67 6951   4.541   6.059   1.609  0.2869 -0.5010  0.9941
   17CHTO  H124 6952   4.596   6.058   1.515 -2.3696  3.4212 -0.7370
   17CHTO   C65 6953   4.416   5.963   1.596 -0.3764  0.3688 -0.0385
   17CHTO  H122 6954   4.446   5.860   1.610 -0.6773 -0.0385 -2.1914
   17CHTO   O44 6955   4.366   5.976   1.467  0.1816  0.4115 -0.2091
   17CHTO  H102 6956   4.274   5.959   1.465  0.3202 -0.7688  2.0484
   17CHTO   C63 6957   4.322   5.987   1.714 -0.1475  0.8470 -0.5559
   17CHTO  H120 6958   4.378   5.965   1.804 -1.3119  0.7266  0.1497
   17CHTO   N11 6959   4.211   5.883   1.736 -0.1382  0.0451 -0.3959
   17CHTO  H108 6960   4.221   5.817   1.819 -0.5976 -1.5482 -1.5752
   17CHTO  H109 6961   4.190   5.830   1.645 -1.0591 -0.5095  0.1291
   17CHTO   C61 6962   4.275   6.137   1.714  0.4369  0.0355 -0.2376
   17CHTO  H118 6963   4.219   6.157   1.806  0.9651 -0.3447  0.1728
   17CHTO   O40 6964   4.394   6.225   1.725 -0.4134  0.3273  0.5337
   17CHTO   C68 6965   4.501   6.207   1.632 -0.3389  0.6518 -0.6822
   17CHTO  H125 6966   4.580   6.263   1.686 -0.4602  1.4803 -1.3384
   17CHTO   C72 6967   4.466   6.289   1.505 -0.8910  0.1039 -0.0958
   17CHTO   O48 6968   4.493   6.433   1.518 -0.0892  0.4609 -0.4907
   17CHTO  H105 6969   4.407   6.469   1.529  0.2802  1.5102 -1.0347
   17CHTO   O38 6970   4.208   6.185   1.599  0.0921  0.1173  0.2176
   17CHTO   C55 6971   4.088   6.249   1.610 -0.0112 -0.2791  0.5813
   17CHTO  H112 6972   4.090   6.314   1.698  0.8481 -0.7678  0.9341
   17CHTO   C56 6973   3.968   6.141   1.607 -0.5892 -0.4567  0.7999
   17CHTO  H113 6974   3.996   6.059   1.539 -2.1817 -1.9772  1.9185
   17CHTO   O42 6975   3.968   6.072   1.736 -0.8273  0.2013  0.4341
   17CHTO  H100 6976   3.945   6.129   1.807 -1.8176  1.5759 -0.9459
   17CHTO   C57 6977   3.825   6.199   1.566 -0.0700  0.0610  0.2046
   17CHTO  H114 6978   3.795   6.270   1.643 -0.8401 -0.1676  0.1185
   17CHTO   N10 6979   3.736   6.083   1.537  0.4323  0.4491  0.1157
   17CHTO  H106 6980   3.744   5.991   1.594 -1.2083  0.1725 -0.0612
   17CHTO  H107 6981   3.733   6.058   1.432 -2.8503 -0.9500  0.4639
   17CHTO   C58 6982   3.849   6.285   1.439  0.0245  0.6014  0.3769
   17CHTO  H115 6983   3.900   6.229   1.358 -2.4515  1.5416 -1.9267
   17CHTO   O37 6984   3.945   6.391   1.468  0.6263 -0.6402  0.1721
   17CHTO   C59 6985   4.082   6.347   1.489  0.5697 -1.2941  0.7512
   17CHTO  H116 6986   4.124   6.307   1.397 -1.0624  1.2904 -1.1743
   17CHTO   C70 6987   4.159   6.480   1.519  0.2473  0.0797 -0.0596
   17CHTO   O46 6988   4.150   6.581   1.423 -0.8308  0.3616 -0.1856
   17CHTO  H103 6989   4.069   6.628   1.433 -0.6415  0.9091 -1.1755
   17CHTO   O39 6990   3.712   6.342   1.377  0.6312 -0.0641 -0.1960
   17CHTO   C60 6991   3.655   6.455   1.442  1.0744 -0.2417  0.0270
   17CHTO  H117 6992   3.685   6.447   1.546 -0.6594 -3.4945  0.3490
   17CHTO   C62 6993   3.701   6.589   1.376  0.1393 -0.2315  0.4409
   17CHTO  H119 6994   3.811   6.599   1.379  0.0904  0.7823 -0.9300
   17CHTO   O43 6995   3.670   6.585   1.235  0.5687 -0.1236 -0.0163
   17CHTO  H101 6996   3.735   6.530   1.195 -0.1708 -0.4548 -0.7930
   17CHTO   C66 6997   3.632   6.707   1.459  0.2137 -0.1666  0.3841
   17CHTO  H123 6998   3.677   6.714   1.558  0.8985  2.0322 -0.0432
   17CHTO   N12 6999   3.672   6.842   1.406 -1.0365  0.2591  1.0702
   17CHTO  H110 7000   3.753   6.846   1.335  0.6861 -2.0308  2.8108
   17CHTO  H111 7001   3.698   6.899   1.494  0.5556 -0.5770  1.1531
   17CHTO   C69 7002   3.478   6.695   1.477 -0.0571  0.7593 -0.5369
   17CHTO  H126 7003   3.424   6.693   1.379  0.9426  0.2397 -1.0876
   17CHTO   O41 7004   3.449   6.559   1.532  0.5128  0.1750  0.0929
   17CHTO   C64 7005   3.498   6.449   1.433  0.3588  0.1201  0.1128
   17CHTO  H121 7006   3.466   6.476   1.330 -0.4462 -3.2470 -0.5839
   17CHTO   C71 7007   3.430   6.320   1.479  0.2462 -0.2246 -0.2585
   17CHTO   O47 7008   3.451   6.217   1.383  0.2787  0.1338  0.2962
   17CHTO  H104 7009   3.432   6.134   1.423 -1.0909  1.5925  2.7707
   17CHTO   O34 7010   3.441   6.821   1.581 -0.0701 -0.5308  0.1013
   17CHTO   C49 7011   3.326   6.926   1.635  0.2837  0.3760  0.7911
   17CHTO   H91 7012   3.345   7.009   1.568 -1.4010 -0.0182 -0.2026
   17CHTO   C47 7013   3.346   6.960   1.784 -0.0643  0.1655  0.2737
   17CHTO   H89 7014   3.272   7.037   1.812 -1.2352 -0.1157 -1.9263
   17CHTO   O33 7015   3.481   7.013   1.803  0.0632 -0.0501  0.4421
   17CHTO   H70 7016   3.483   7.088   1.746 -2.1917  0.4934  1.0418
   17CHTO   C45 7017   3.325   6.829   1.871 -0.1542 -0.4090 -0.4036
   17CHTO   H87 7018   3.426   6.784   1.876 -0.8499 -2.2420 -2.0661
   17CHTO    N8 7019   3.289   6.869   2.011  0.6013 -0.3777  0.3239
   17CHTO   H75 7020   3.227   6.791   2.053  0.3872 -1.0011 -1.1387
   17CHTO   H76 7021   3.239   6.962   2.034  1.1547 -0.9425  4.1726
   17CHTO   C43 7022   3.234   6.722   1.791  0.0544  0.8857  0.0256
   17CHTO   H85 7023   3.307   6.669   1.729  2.5947  0.1701  3.4911
   17CHTO   O29 7024   3.134   6.776   1.716 -0.4548  0.4113  0.8853
   17CHTO   C50 7025   3.182   6.871   1.616  0.8328  0.1857 -0.0269
   17CHTO   H92 7026   3.167   6.822   1.518  1.3604 -0.4159  0.1895
   17CHTO   C54 7027   3.085   6.995   1.607  0.9645 -0.1889 -0.3080
   17CHTO   O36 7028   2.955   6.942   1.555 -0.3064  0.0429 -0.5494
   17CHTO   H72 7029   2.898   6.928   1.627  0.4056 -0.8195 -0.1306
   17CHTO   O27 7030   3.180   6.623   1.876 -0.3538  0.2979 -0.7686
   17CHTO   C37 7031   3.176   6.476   1.874 -0.3222  0.0149  0.5371
   17CHTO   H79 7032   3.147   6.435   1.972 -2.2350 -1.7744 -0.7356
   17CHTO   C38 7033   3.071   6.438   1.769  0.3741  0.4125  0.4391
   17CHTO   H80 7034   3.101   6.467   1.667 -0.0946  1.3856  0.5730
   17CHTO   O31 7035   2.951   6.505   1.807  0.4471  0.2367  0.0244
   17CHTO   H68 7036   2.873   6.467   1.772  1.1310 -0.7802 -0.4132
   17CHTO   C39 7037   3.064   6.281   1.767  0.5860 -0.2997 -0.1223
   17CHTO   H81 7038   3.029   6.246   1.863  1.1142 -2.0456 -0.5403
   17CHTO    N7 7039   2.969   6.226   1.669  0.1907  0.3588 -0.6371
   17CHTO   H73 7040   2.996   6.249   1.567  0.6475  2.4319 -0.0635
   17CHTO   H74 7041   2.974   6.118   1.680 -0.0889  0.3116 -0.9542
   17CHTO   C40 7042   3.201   6.205   1.759 -0.9359 -0.3068  0.2894
   17CHTO   H82 7043   3.230   6.194   1.655  0.1588  0.0767  0.5379
   17CHTO   O26 7044   3.303   6.273   1.835  0.6758 -0.0994  0.2532
   17CHTO   C41 7045   3.320   6.422   1.837  0.2503  0.2207  0.5515
   17CHTO   H83 7046   3.363   6.456   1.742  0.4226 -2.2950 -0.3044
   17CHTO   C52 7047   3.425   6.453   1.944  0.4305 -0.9543  0.1308
   17CHTO   O35 7048   3.376   6.395   2.065  0.1851 -0.7898 -0.5642
   17CHTO   H71 7049   3.369   6.457   2.135  2.8850 -0.7625 -0.2604
   17CHTO   O28 7050   3.198   6.073   1.817 -0.2944 -0.6609 -0.2113
   17CHTO   C42 7051   3.278   5.959   1.774 -0.3063  0.0069  0.2035
   17CHTO   H84 7052   3.228   5.875   1.821 -0.9558  2.0529  3.2791
   17CHTO   C44 7053   3.423   5.951   1.826  0.5784  0.1098 -0.0124
   17CHTO   H86 7054   3.477   6.036   1.785 -0.5423  1.1037  0.5497
   17CHTO   O32 7055   3.416   5.975   1.972 -0.3109  0.4292 -0.0622
   17CHTO   H69 7056   3.492   5.999   2.022 -1.2314 -0.3964  1.7667
   17CHTO   C48 7057   3.498   5.805   1.795  0.2683  0.2499 -0.9339
   17CHTO   H90 7058   3.440   5.729   1.847  0.6718  2.2345  2.5732
   17CHTO    N9 7059   3.641   5.800   1.832 -0.2312  0.1369 -0.5565
   17CHTO   H77 7060   3.705   5.858   1.768  0.1547 -1.1584 -1.3749
   17CHTO   H78 7061   3.679   5.702   1.858  1.8551  1.6813  2.5633
   17CHTO   C51 7062   3.484   5.777   1.642 -0.2725 -0.4116 -0.3717
   17CHTO   H93 7063   3.547   5.852   1.595 -3.2581  2.5516  0.2033
   17CHTO   O30 7064   3.343   5.791   1.603  0.6826 -0.2777  0.4554
   17CHTO   C46 7065   3.292   5.924   1.622  1.1600 -0.2705  0.0048
   17CHTO   H88 7066   3.365   5.987   1.571  1.2541 -0.3951 -0.0148
   17CHTO   C53 7067   3.154   5.944   1.548 -0.4591 -0.0442  0.2133
   17CHTO   O72 7068   3.155   5.954   1.405 -0.6302 -0.1714  0.4463
   17CHTO  H199 7069   3.201   5.883   1.364 -3.7915 -0.6858 -2.3754
   17CHTO   O22 7070   3.526   5.643   1.610  0.3729  0.0770 -0.1925
   17CHTO   C31 7071   3.602   5.623   1.485  0.3613  0.3832 -0.4229
   17CHTO   H59 7072   3.601   5.513   1.469  0.4868  0.3176  0.0408
   17CHTO   C29 7073   3.541   5.686   1.357  0.0798 -0.3157 -0.2512
   17CHTO   H57 7074   3.537   5.794   1.377 -2.0777 -0.4193  0.0366
   17CHTO   O21 7075   3.407   5.631   1.341 -0.0529 -0.0420  0.1543
   17CHTO   H37 7076   3.357   5.664   1.412 -1.1251 -0.5427 -0.3532
   17CHTO   C27 7077   3.622   5.663   1.232 -0.8268 -0.0116 -0.3634
   17CHTO   H55 7078   3.623   5.554   1.219 -2.4032  0.1741 -2.2475
   17CHTO    N5 7079   3.572   5.723   1.108 -0.0146  0.0542 -0.2938
   17CHTO   H43 7080   3.533   5.644   1.046 -0.8715  2.3216 -2.7383
   17CHTO   H44 7081   3.657   5.771   1.062  0.3434 -1.3216 -1.1084
   17CHTO   C25 7082   3.764   5.725   1.266 -0.5438 -0.0488  0.9748
   17CHTO   H53 7083   3.745   5.831   1.288  1.0250  0.5918 -0.6336
   17CHTO   O17 7084   3.824   5.651   1.376 -0.6662 -0.6692 -0.1301
   17CHTO   C32 7085   3.747   5.664   1.503 -0.5248 -0.7840  0.7319
   17CHTO   H60 7086   3.752   5.766   1.542  0.5775 -0.1758 -0.9593
   17CHTO   C36 7087   3.809   5.555   1.603 -0.6887  0.3426  0.1749
   17CHTO   O25 7088   3.930   5.588   1.666  0.0412  0.2955  0.4183
   17CHTO   H40 7089   3.931   5.553   1.754  0.2221 -0.0515  0.2797
   17CHTO   O15 7090   3.882   5.728   1.130  0.2318  0.2224 -0.2588
   17CHTO   C19 7091   3.934   5.847   1.070 -0.0607 -0.0658 -0.7227
   17CHTO   H47 7092   4.023   5.805   1.020 -1.5121 -1.0024 -2.5973
   17CHTO   C20 7093   3.853   5.912   0.954  0.0286  0.4979  0.6998
   17CHTO   H48 7094   3.750   5.935   0.985 -0.4016 -0.4869  0.0182
   17CHTO   O19 7095   3.820   5.812   0.851  0.3893 -0.0244 -0.9119
   17CHTO   H35 7096   3.812   5.730   0.897 -1.1174  0.7165  0.1777
   17CHTO   C21 7097   3.931   6.035   0.895  0.0685  0.1898  1.3152
   17CHTO   H49 7098   4.032   6.004   0.867 -0.0934 -0.4866  1.4603
   17CHTO    N4 7099   3.867   6.092   0.773 -0.0111 -0.1397  0.5680
   17CHTO   H41 7100   3.919   6.183   0.746 -0.7748  0.2677  0.4808
   17CHTO   H42 7101   3.885   6.015   0.699  3.0518 -1.3174  2.4401
   17CHTO   C22 7102   3.960   6.140   1.004 -0.0726  0.9760  0.1567
   17CHTO   H50 7103   3.873   6.191   1.044 -0.9706  0.2768 -0.8707
   17CHTO   O14 7104   4.035   6.076   1.111 -0.4344 -0.0261  0.0673
   17CHTO   C23 7105   3.981   5.954   1.175 -0.2804  0.3937 -0.2814
   17CHTO   H51 7106   3.893   5.998   1.225 -0.8395 -1.1185  0.0984
   17CHTO   C34 7107   4.091   5.912   1.274 -0.5114 -0.2687  0.5901
   17CHTO   O23 7108   4.047   5.823   1.380 -0.5382 -0.5433 -0.5082
   17CHTO   H38 7109   4.121   5.796   1.431 -0.2065 -0.5034 -0.9686
   17CHTO   O16 7110   4.055   6.235   0.949  0.5872  0.0338  0.8716
   17CHTO   C24 7111   4.091   6.344   1.049  0.3952 -0.4778  0.2281
   17CHTO   H52 7112   4.070   6.313   1.152  2.2356  0.5417  0.9275
   17CHTO   C26 7113   3.998   6.462   1.037 -0.0723  0.0922 -0.0283
   17CHTO   H54 7114   3.997   6.491   0.929  3.2253  0.5094 -0.0075
   17CHTO   O20 7115   3.864   6.430   1.070 -0.6237 -0.0856 -0.7578
   17CHTO   H36 7116   3.825   6.351   1.036  2.5261 -0.8045 -2.9607
   17CHTO   C30 7117   4.041   6.590   1.116  0.2519 -0.3870  0.1253
   17CHTO   H58 7118   4.028   6.568   1.223  0.4662  0.9328  0.4213
   17CHTO    N6 7119   3.969   6.712   1.079 -0.0365  0.6273 -0.2890
   17CHTO   H45 7120   3.866   6.710   1.109 -0.6458 -0.3181 -2.3483
   17CHTO   H46 7121   4.017   6.795   1.129 -0.8691  0.0911  1.4109
   17CHTO   C33 7122   4.197   6.606   1.097 -0.1269  0.3311  0.4356
   17CHTO   H61 7123   4.223   6.610   0.990 -0.6904  0.1308  0.2873
   17CHTO   O18 7124   4.251   6.481   1.150  0.4659  0.3812  0.5386
   17CHTO   C28 7125   4.241   6.381   1.051  0.0825  0.0607 -0.1432
   17CHTO   H56 7126   4.282   6.411   0.954  1.4454 -2.4053 -0.3964
   17CHTO   C35 7127   4.318   6.264   1.111 -0.4292  0.3473  0.1431
   17CHTO   O24 7128   4.455   6.280   1.128 -0.2414 -0.6811  0.1966
   17CHTO   H39 7129   4.473   6.365   1.165 -2.6702  0.1405 -0.4405
   17CHTO    O9 7130   4.259   6.716   1.163 -0.1032  0.2997  0.1428
   17CHTO   C13 7131   4.403   6.751   1.134 -0.0262  0.6770  0.4111
   17CHTO   H26 7132   4.423   6.723   1.029  1.0697 -0.8875  1.0151
   17CHTO   C11 7133   4.488   6.666   1.236 -0.2902  0.4542  0.0734
   17CHTO   H24 7134   4.483   6.559   1.211  0.6809  0.2629  0.6906
   17CHTO    O8 7135   4.430   6.683   1.371  0.1196 -0.0907 -0.7092
   17CHTO    H3 7136   4.344   6.647   1.377 -0.7882  2.1429  0.5606
   17CHTO    C9 7137   4.632   6.721   1.227 -0.3491 -0.3348 -0.5181
   17CHTO   H22 7138   4.648   6.737   1.119 -1.6659 -0.0854 -0.6813
   17CHTO    N2 7139   4.735   6.625   1.270 -0.4595 -0.6647  0.1808
   17CHTO   H10 7140   4.832   6.672   1.260 -0.5029 -0.2161  1.7612
   17CHTO   H11 7141   4.723   6.597   1.373 -1.8583  2.8673  1.0434
   17CHTO    C7 7142   4.636   6.867   1.286  0.1079  0.3759  0.6370
   17CHTO   H20 7143   4.727   6.910   1.239 -0.1484 -1.7180 -1.9034
   17CHTO    O4 7144   4.521   6.947   1.251  0.0100 -0.2140 -0.5009
   17CHTO   C14 7145   4.446   6.910   1.133  0.6822 -0.1373 -0.6967
   17CHTO   H27 7146   4.505   6.945   1.046  1.8620 -0.1441  0.0805
   17CHTO   C18 7147   4.327   7.003   1.148  0.1608 -0.5062 -0.1196
   17CHTO   O13 7148   4.236   7.014   1.035  0.0183  0.4194 -0.0806
   17CHTO    H7 7149   4.259   7.087   0.981 -1.2364  2.1815  1.6667
   17CHTO    O2 7150   4.651   6.867   1.454  0.0589 -0.2551 -0.6240
   17CHTO    C1 7151   4.690   6.992   1.513 -0.5297 -0.2945  0.6083
   17CHTO   H14 7152   4.646   7.068   1.446  1.4654 -0.6435 -1.1407
   17CHTO    C2 7153   4.849   7.002   1.526  0.2047  0.0908  0.7228
   17CHTO   H15 7154   4.887   6.909   1.569 -0.0950 -0.6667 -0.6162
   17CHTO    O6 7155   4.901   7.011   1.394  0.1855 -0.3959 -0.5536
   17CHTO    H1 7156   4.923   6.930   1.353 -0.7246 -0.5601 -0.7380
   17CHTO    C3 7157   4.889   7.131   1.621  0.2784  0.3764 -0.3554
   17CHTO   H16 7158   4.877   7.225   1.565  0.6987  1.1638  0.8617
   17CHTO    N1 7159   5.024   7.122   1.675 -0.3065  0.3184  0.5041
   17CHTO    H8 7160   5.038   7.208   1.739  1.2589  0.1535  0.4168
   17CHTO    H9 7161   5.095   7.123   1.593 -0.3838  1.1268  0.4392
   17CHTO    C4 7162   4.789   7.137   1.745  0.1884  0.2669 -0.1530
   17CHTO   H17 7163   4.811   7.057   1.815  1.1934  1.2628  0.6768
   17CHTO    O1 7164   4.647   7.131   1.704  0.1407 -0.3174  0.0229
   17CHTO    C5 7165   4.617   6.999   1.652  0.2026 -0.8373  0.3302
   17CHTO   H18 7166   4.646   6.920   1.721 -0.6923  0.8441  2.7041
   17CHTO   C16 7167   4.462   6.992   1.642 -0.0724 -0.1877  0.1640
   17CHTO   O11 7168   4.387   7.092   1.565 -0.1059  0.8314 -0.5458
   17CHTO    H5 7169   4.310   7.056   1.525  0.7501 -0.1000 -1.4003
   17CHTO    O3 7170   4.805   7.259   1.823 -0.7782  0.0150 -0.9036
   17CHTO    C6 7171   4.713   7.271   1.929  0.7102  0.1430 -0.6244
   17CHTO   H19 7172   4.634   7.196   1.923  0.5714  0.3804 -2.1641
   17CHTO    C8 7173   4.785   7.254   2.063  0.0965  0.2783 -0.0681
   17CHTO   H21 7174   4.875   7.315   2.053  1.7954 -1.5922  3.1751
   17CHTO    O7 7175   4.812   7.114   2.086  0.1436 -0.2434  0.0258
   17CHTO    H2 7176   4.876   7.113   2.154 -1.5860  0.0768  1.7068
   17CHTO   C12 7177   4.692   7.325   2.177 -0.1379 -0.3950  0.5720
   17CHTO   H25 7178   4.608   7.254   2.196 -0.4019 -0.3980 -0.5889
   17CHTO    N3 7179   4.775   7.325   2.301  0.2326 -0.0862  0.5415
   17CHTO   H12 7180   4.881   7.313   2.285  0.3810  0.7254  0.8684
   17CHTO   H13 7181   4.764   7.415   2.360 -1.8462  0.3486 -0.4795
   17CHTO   C15 7182   4.624   7.459   2.151  0.0440 -0.4391  0.1707
   17CHTO   H28 7183   4.694   7.541   2.147  0.5077 -0.9055 -1.5306
   17CHTO   O10 7184   4.479   7.477   2.247  0.6354 -0.3456 -0.5037
   17CHTO    H4 7185   4.416   7.539   2.216  1.0854  0.1061 -0.5190
   17CHTO    O5 7186   4.566   7.442   2.025 -0.1625 -0.0433 -0.2178
   17CHTO   C10 7187   4.644   7.415   1.911  0.3622 -0.1486 -0.5080
   17CHTO   H23 7188   4.717   7.496   1.901  1.5353 -1.2243 -0.7533
   17CHTO   C17 7189   4.540   7.422   1.792 -0.1837  0.4647 -0.1125
   17CHTO   O12 7190   4.417   7.349   1.810  0.1037 -0.1105 -0.1663
   17CHTO    H6 7191   4.420   7.277   1.750 -0.6349 -0.9293  0.7701
   18CHTO  H203 7192   6.031   7.062   2.361  0.5046  1.5950 -0.1638
   18CHTO   O82 7193   6.086   7.080   2.288  0.2562  0.7559 -0.5616
   18CHTO  C123 7194   6.022   7.024   2.170 -0.6058 -0.1693  0.6491
   18CHTO  H227 7195   5.913   7.041   2.176 -0.6405  0.7614 -1.9569
   18CHTO   O77 7196   6.069   7.111   2.064  0.0256 -0.5057 -0.3643
   18CHTO  C118 7197   6.026   7.067   1.932 -0.1527 -0.1615 -0.1148
   18CHTO  H222 7198   5.917   7.079   1.931 -0.2181 -0.6029  1.6179
   18CHTO  C125 7199   6.089   7.169   1.819 -0.5507 -0.0089 -0.5667
   18CHTO   O84 7200   6.227   7.195   1.864 -0.6292  0.5140 -0.4203
   18CHTO  H205 7201   6.278   7.238   1.798 -1.1075 -1.3186 -2.0686
   18CHTO  C114 7202   6.058   6.927   1.897 -0.4647 -0.4480  0.8766
   18CHTO  H218 7203   6.167   6.918   1.895 -0.4062  0.1087  1.4049
   18CHTO  C116 7204   5.990   6.831   1.993  0.5812  0.2530 -0.0991
   18CHTO  H220 7205   5.880   6.843   1.996  0.6207  0.3867  2.3197
   18CHTO   O79 7206   6.013   6.699   1.943 -0.0701 -0.0167  0.3374
   18CHTO  H201 7207   5.994   6.646   2.018  0.3499 -1.4983 -0.5729
   18CHTO  C120 7208   6.052   6.872   2.137 -0.4293  0.1976  0.5613
   18CHTO  H224 7209   6.162   6.855   2.136 -0.7165 -2.1876  2.8480
   18CHTO   N21 7210   6.005   6.780   2.239  0.2274 -0.5897  0.0033
   18CHTO  H211 7211   6.055   6.684   2.243 -0.2832 -0.8900 -0.6216
   18CHTO  H212 7212   6.013   6.823   2.338  0.4563  0.2997 -0.4018
   18CHTO   O75 7213   5.997   6.914   1.762 -0.1377  0.1717 -0.0175
   18CHTO  C112 7214   6.096   6.842   1.661 -0.0565 -0.1942 -0.2725
   18CHTO  H216 7215   6.157   6.762   1.706  1.2619  0.8934 -0.0952
   18CHTO   O73 7216   6.175   6.944   1.600  0.6668 -0.2926 -0.1676
   18CHTO  C113 7217   6.258   6.922   1.491 -0.4510 -0.8534 -0.2443
   18CHTO  H217 7218   6.347   6.864   1.525 -0.5250 -0.1402  1.2471
   18CHTO  C124 7219   6.300   7.061   1.445 -0.1001  0.1955  0.1003
   18CHTO   O83 7220   6.381   7.125   1.542  0.0446 -0.3775  0.2260
   18CHTO  H204 7221   6.376   7.218   1.530 -0.1086 -0.2212  1.3669
   18CHTO  C109 7222   6.188   6.843   1.381  0.4902 -0.2529  0.7977
   18CHTO  H213 7223   6.123   6.912   1.325  0.4112 -1.9788 -1.3452
   18CHTO  C110 7224   6.093   6.727   1.431  0.0313 -0.1096  0.2274
   18CHTO  H214 7225   6.150   6.638   1.459  1.4937  0.0172 -2.2025
   18CHTO   O78 7226   6.009   6.678   1.324  0.0988  0.3788 -0.4271
   18CHTO  H200 7227   6.067   6.641   1.260  0.3900 -0.3338  0.2359
   18CHTO  C111 7228   6.006   6.768   1.552  0.6889  0.8091  0.3453
   18CHTO  H215 7229   5.931   6.841   1.521 -1.4302 -0.7736  1.6005
   18CHTO   N19 7230   5.932   6.661   1.624 -0.4548  0.7697 -0.1910
   18CHTO  H207 7231   5.832   6.654   1.584  0.1421 -0.7678 -1.4634
   18CHTO  H208 7232   5.931   6.686   1.729 -0.4893  2.1027 -0.4988
   18CHTO   O74 7233   6.292   6.800   1.284 -0.1798  0.5765  0.1040
   18CHTO  C115 7234   6.297   6.854   1.139  0.3133 -0.1851 -0.2390
   18CHTO  H219 7235   6.214   6.825   1.076  0.9764 -3.2725  0.2149
   18CHTO   O76 7236   6.299   7.032   1.145  0.2351 -0.0444  0.0961
   18CHTO  C122 7237   6.330   7.095   1.022 -0.0949  0.0206 -0.2423
   18CHTO  H226 7238   6.363   7.197   1.039  2.5620 -0.8303 -0.0702
   18CHTO  C126 7239   6.187   7.111   0.946  0.1079 -0.4008 -0.6058
   18CHTO   O85 7240   6.180   7.181   0.824  0.0249 -0.3160 -0.2399
   18CHTO  H206 7241   6.141   7.266   0.837 -1.2402 -1.2219  2.2523
   18CHTO  C121 7242   6.436   7.021   0.940  0.1373  0.2086 -0.1692
   18CHTO  H225 7243   6.433   7.058   0.835  2.0221 -2.0920 -1.0857
   18CHTO   O81 7244   6.559   7.050   1.002  0.1051 -0.7919  0.5804
   18CHTO  H202 7245   6.601   7.128   0.970 -3.0792  0.6724 -0.2362
   18CHTO  C119 7246   6.428   6.859   0.929  0.7592 -0.3897  0.2093
   18CHTO  H223 7247   6.332   6.840   0.882  0.8502  0.8535 -0.4949
   18CHTO  C117 7248   6.430   6.805   1.074  0.2263  0.9605  0.9763
   18CHTO  H221 7249   6.512   6.834   1.140  1.1694  0.8294 -0.1251
   18CHTO   N20 7250   6.432   6.652   1.067 -0.4156 -0.8312 -0.2267
   18CHTO  H209 7251   6.418   6.607   1.164  0.9546 -0.6292  0.0738
   18CHTO  H210 7252   6.354   6.604   1.010 -1.1436  1.1678 -0.9754
   18CHTO   O80 7253   6.547   6.781   0.817  0.0208  0.5793 -0.6805
   18CHTO  C103 7254   6.498   6.717   0.679  0.0986 -1.1856 -0.2882
   18CHTO  H190 7255   6.578   6.685   0.612 -0.5174 -0.7447 -1.2539
   18CHTO  C101 7256   6.401   6.597   0.709 -0.3711  0.1560  0.5595
   18CHTO  H188 7257   6.359   6.613   0.809  0.6385 -2.5277  1.4459
   18CHTO   O68 7258   6.493   6.462   0.705 -0.2311  0.0105 -0.3051
   18CHTO  H168 7259   6.544   6.450   0.626 -1.7432 -2.1021 -1.0086
   18CHTO   C99 7260   6.285   6.579   0.599  0.2365 -0.3155 -0.1715
   18CHTO  H186 7261   6.316   6.525   0.508 -2.1342  0.2153 -1.3318
   18CHTO   N17 7262   6.168   6.492   0.650  0.0946  0.1772 -0.2810
   18CHTO  H174 7263   6.170   6.440   0.745  1.5616 -1.4977 -1.1893
   18CHTO  H175 7264   6.126   6.436   0.568 -1.5667 -0.3908  0.9417
   18CHTO   C97 7265   6.236   6.723   0.551  0.2012  0.4481 -0.5256
   18CHTO  H184 7266   6.195   6.777   0.638 -0.8929 -1.2922  0.0647
   18CHTO   O64 7267   6.352   6.789   0.496  0.4856  0.4847 -0.4121
   18CHTO  C104 7268   6.430   6.838   0.607 -0.0753  0.3780  0.6167
   18CHTO  H191 7269   6.368   6.900   0.672 -1.7775  0.2272 -0.8111
   18CHTO  C108 7270   6.542   6.927   0.544 -0.1872  0.8494 -0.4870
   18CHTO   O71 7271   6.485   7.052   0.503 -0.2649  0.2987 -0.3083
   18CHTO  H171 7272   6.557   7.102   0.469 -1.5234  1.0233 -1.9906
   18CHTO   O62 7273   6.135   6.703   0.451 -0.0236 -0.3105 -0.6355
   18CHTO   C91 7274   6.020   6.789   0.453 -0.7990 -0.5267 -0.2596
   18CHTO  H178 7275   6.003   6.815   0.558  4.4316  0.0580  0.5731
   18CHTO   C92 7276   5.898   6.715   0.402 -0.4133  0.2856  0.0385
   18CHTO  H179 7277   5.934   6.676   0.306 -0.1762 -0.5532  0.4622
   18CHTO   O66 7278   5.879   6.609   0.498  0.3331  0.3021  0.3990
   18CHTO  H166 7279   5.791   6.613   0.532  0.0492 -1.9441 -0.0165
   18CHTO   C93 7280   5.762   6.800   0.391  0.5299  0.1278  0.0198
   18CHTO  H180 7281   5.732   6.809   0.496  0.5518 -0.5653  0.0902
   18CHTO   N16 7282   5.659   6.727   0.319  0.5818 -0.4200 -0.0623
   18CHTO  H172 7283   5.619   6.637   0.363  0.5568  0.2132  1.2326
   18CHTO  H173 7284   5.576   6.793   0.297  1.2329  1.2306  2.2863
   18CHTO   C94 7285   5.791   6.938   0.330  0.4892 -0.0072  0.6794
   18CHTO  H181 7286   5.724   6.959   0.246  1.8283 -1.2198 -0.7384
   18CHTO   O61 7287   5.922   6.945   0.273  0.3090 -0.2498 -0.0941
   18CHTO   C95 7288   6.033   6.912   0.358 -0.0394  0.6193 -0.7419
   18CHTO  H182 7289   6.118   6.887   0.294  0.7036 -1.5460  0.9913
   18CHTO  C106 7290   6.103   7.032   0.425  0.1384 -0.4849  0.0221
   18CHTO   O69 7291   6.173   7.110   0.327  0.3499  0.2138 -0.1751
   18CHTO  H169 7292   6.120   7.181   0.297 -2.5118 -1.5099  0.5302
   18CHTO   O63 7293   5.782   7.039   0.443  0.3497  0.5684  0.5805
   18CHTO   C96 7294   5.721   7.189   0.374 -0.2772 -0.4466 -0.1854
   18CHTO  H183 7295   5.658   7.170   0.287  1.2346  0.5240 -1.5206
   18CHTO   C98 7296   5.815   7.301   0.317 -0.4460  0.8022  0.1373
   18CHTO  H185 7297   5.896   7.315   0.390 -0.9548  1.0471  0.6625
   18CHTO   O67 7298   5.866   7.231   0.204  0.6785 -0.9188  0.2522
   18CHTO  H167 7299   5.948   7.267   0.175  1.3469 -1.5154  1.3512
   18CHTO  C102 7300   5.752   7.440   0.276 -0.3293  0.1177  0.1820
   18CHTO  H189 7301   5.695   7.423   0.183  1.1388 -0.4973 -0.6355
   18CHTO   N18 7302   5.851   7.543   0.230 -0.1213 -0.4690  0.2344
   18CHTO  H176 7303   5.794   7.632   0.206  0.4024 -0.1730  0.0925
   18CHTO  H177 7304   5.905   7.499   0.149  0.1110 -1.1912  0.7730
   18CHTO  C105 7305   5.648   7.474   0.392 -1.2698 -0.2524 -0.4694
   18CHTO  H192 7306   5.702   7.517   0.476 -0.4620 -0.6648 -0.7619
   18CHTO   O65 7307   5.567   7.364   0.420 -0.5610 -0.5315 -0.2428
   18CHTO  C100 7308   5.633   7.250   0.480  0.5990 -0.2446  0.7262
   18CHTO  H187 7309   5.701   7.281   0.560  0.3064 -2.4720  1.8809
   18CHTO  C107 7310   5.532   7.153   0.540 -0.1991 -0.3737 -0.1647
   18CHTO   O70 7311   5.456   7.228   0.633 -0.0850 -0.5854 -0.3203
   18CHTO  H170 7312   5.377   7.243   0.584 -0.8227  1.2888  1.3649
   18CHTO   O57 7313   5.559   7.586   0.343 -0.3817  0.3969 -0.3207
   18CHTO   C85 7314   5.521   7.687   0.443 -0.0974 -0.2498  0.1366
   18CHTO  H157 7315   5.614   7.743   0.467 -0.2901  0.9707 -1.8088
   18CHTO   C83 7316   5.473   7.622   0.577 -0.1812 -0.6585  0.2371
   18CHTO  H155 7317   5.555   7.564   0.619 -0.5781 -0.5752  1.1538
   18CHTO   O56 7318   5.363   7.533   0.550 -0.0249  0.1560 -0.2435
   18CHTO  H135 7319   5.292   7.566   0.499  0.3802 -2.4230 -2.5762
   18CHTO   C81 7320   5.449   7.735   0.682  0.2663 -0.7721  0.2991
   18CHTO  H153 7321   5.538   7.796   0.697  0.8462 -1.7211  0.7562
   18CHTO   N14 7322   5.412   7.683   0.814  0.1065 -0.1837  0.2439
   18CHTO  H141 7323   5.331   7.615   0.800 -1.2245  1.4310 -0.1315
   18CHTO  H142 7324   5.371   7.758   0.879 -2.4093 -1.2080 -0.0852
   18CHTO   C79 7325   5.332   7.826   0.624 -0.3869 -0.1242 -0.1187
   18CHTO  H151 7326   5.327   7.910   0.694  0.2545 -1.0308  1.0384
   18CHTO   O52 7327   5.365   7.878   0.493 -0.3715  0.1174  0.1807
   18CHTO   C86 7328   5.413   7.779   0.397  0.7901  0.0678 -0.2502
   18CHTO  H158 7329   5.322   7.719   0.379  0.6297  0.4585 -0.7461
   18CHTO   C90 7330   5.437   7.858   0.270 -0.2340  0.1882 -0.2073
   18CHTO   O60 7331   5.317   7.913   0.225  0.0944  0.4249  0.4787
   18CHTO  H138 7332   5.250   7.849   0.210  0.8997  0.1525 -2.3157
   18CHTO   O50 7333   5.198   7.768   0.620  0.3059 -0.2880  0.0387
   18CHTO   C73 7334   5.078   7.718   0.555  0.6664  0.2304 -0.3115
   18CHTO  H145 7335   5.111   7.661   0.467  1.7896  0.0960  0.1909
   18CHTO   C74 7336   4.988   7.840   0.501 -0.1353  0.1644  0.0218
   18CHTO  H146 7337   5.057   7.899   0.438  1.3739  0.1245  1.6076
   18CHTO   O54 7338   4.892   7.781   0.416  0.1657 -0.7836 -0.3002
   18CHTO  H133 7339   4.804   7.807   0.437  1.0239  1.7959  0.3331
   18CHTO   C75 7340   4.930   7.921   0.627 -0.5309  0.3076 -0.4331
   18CHTO  H147 7341   5.013   7.971   0.679 -0.6642  0.1643 -0.0841
   18CHTO   N13 7342   4.828   8.028   0.601 -0.2550  0.2966  0.8791
   18CHTO  H139 7343   4.779   8.069   0.688 -0.1137  1.9363  0.1965
   18CHTO  H140 7344   4.758   8.002   0.523 -0.2052 -0.1440  0.9766
   18CHTO   C76 7345   4.861   7.818   0.733  0.0914  0.3458  0.0519
   18CHTO  H148 7346   4.783   7.764   0.679  0.1366 -0.2729  0.5953
   18CHTO   O49 7347   4.950   7.714   0.764  0.8464  0.5686  0.4252
   18CHTO   C77 7348   4.979   7.633   0.646 -0.5574  0.1734  0.1142
   18CHTO  H149 7349   4.892   7.603   0.587  1.7095 -2.4947 -1.9902
   18CHTO   C88 7350   5.029   7.494   0.683 -0.2352  0.1003  0.0618
   18CHTO   O58 7351   5.154   7.505   0.773  0.5692  0.8240 -0.1974
   18CHTO  H136 7352   5.216   7.437   0.753 -1.0491 -1.2805  1.5477
   18CHTO   O51 7353   4.798   7.889   0.876  0.2269 -0.4757 -0.2285
   18CHTO   C78 7354   4.888   7.869   1.026 -0.0889 -0.3988 -1.0652
   18CHTO  H150 7355   4.993   7.838   1.010 -0.3671 -0.8621 -2.0149
   18CHTO   C80 7356   4.825   7.758   1.103  0.2754 -0.2152 -0.2199
   18CHTO  H152 7357   4.716   7.781   1.107 -0.4265 -3.1745 -1.2828
   18CHTO   O55 7358   4.832   7.639   1.025 -0.1034  0.5915 -0.4400
   18CHTO  H134 7359   4.754   7.589   1.015 -0.9182  1.4028  1.5977
   18CHTO   C84 7360   4.871   7.727   1.248  0.5137  0.3338  0.2015
   18CHTO  H156 7361   4.970   7.682   1.250 -0.2879 -1.4534  0.6147
   18CHTO   N15 7362   4.793   7.629   1.328 -0.8790  0.1731  0.1189
   18CHTO  H143 7363   4.849   7.556   1.382 -1.9174 -0.3529  0.5066
   18CHTO  H144 7364   4.712   7.576   1.282 -1.4109 -0.9679  2.3112
   18CHTO   C87 7365   4.896   7.867   1.321  0.5623  0.2677 -0.0897
   18CHTO  H159 7366   4.793   7.892   1.346  0.6256  2.5538 -1.9383
   18CHTO   O53 7367   4.945   7.989   1.240  0.2496 -0.5842 -0.5489
   18CHTO   C82 7368   4.874   7.994   1.118  0.0315 -0.2416 -0.1595
   18CHTO  H154 7369   4.770   8.019   1.139 -0.1599 -0.4143 -0.9154
   18CHTO   C89 7370   4.937   8.113   1.037 -1.1092 -0.1287 -0.0864
   18CHTO   O59 7371   4.888   8.240   1.098  0.1527  0.0338  0.1368
   18CHTO  H137 7372   4.844   8.294   1.035  0.5605  0.8902  0.5806
   18CHTO   O45 7373   4.989   7.838   1.461 -0.4018  0.5222 -0.6659
   18CHTO   C67 7374   5.133   7.815   1.446  0.3184  0.4625 -0.3486
   18CHTO  H124 7375   5.136   7.765   1.349 -0.2429  0.9366 -0.6150
   18CHTO   C65 7376   5.217   7.950   1.446  0.4011  0.0640  0.2037
   18CHTO  H122 7377   5.155   8.035   1.474  2.5066  1.2699  1.3970
   18CHTO   O44 7378   5.243   7.968   1.305 -0.6325 -0.3719 -0.6079
   18CHTO  H102 7379   5.172   8.015   1.264  0.7765  2.2402 -0.1261
   18CHTO   C63 7380   5.335   7.946   1.544 -0.7149 -0.2661 -0.0542
   18CHTO  H120 7381   5.294   7.944   1.645 -0.4695 -1.1737  0.0376
   18CHTO   N11 7382   5.430   8.066   1.541 -0.0751  0.1139  0.4150
   18CHTO  H108 7383   5.429   8.107   1.640 -2.6672 -0.2830  0.5910
   18CHTO  H109 7384   5.393   8.145   1.479  2.4707  0.5294 -0.6275
   18CHTO   C61 7385   5.410   7.803   1.515 -0.3432  0.0376 -0.4110
   18CHTO  H118 7386   5.482   7.793   1.598  0.4003 -0.5100 -1.1169
   18CHTO   O40 7387   5.329   7.689   1.521  0.1892 -0.1316 -0.4475
   18CHTO   C68 7388   5.189   7.710   1.549  0.6414  0.8957 -0.5440
   18CHTO  H125 7389   5.170   7.745   1.652  3.7151  1.0977  0.0192
   18CHTO   C72 7390   5.103   7.591   1.527 -0.3489 -0.0512 -0.3397
   18CHTO   O48 7391   5.135   7.500   1.629  0.1389  0.7450  0.5421
   18CHTO  H105 7392   5.068   7.435   1.626 -0.5807  1.4140  1.7262
   18CHTO   O38 7393   5.482   7.803   1.390  0.3416  0.4274 -0.4336
   18CHTO   C55 7394   5.579   7.696   1.365  0.2458 -0.2006 -0.8573
   18CHTO  H112 7395   5.576   7.628   1.451  0.3432 -2.3809 -2.5485
   18CHTO   C56 7396   5.724   7.761   1.350 -0.3516  0.0566  0.5559
   18CHTO  H113 7397   5.738   7.811   1.253 -2.3648 -0.6895 -0.1350
   18CHTO   O42 7398   5.752   7.852   1.458  0.3022  0.0085 -0.3396
   18CHTO  H100 7399   5.833   7.897   1.446 -1.4362  2.9936 -1.3765
   18CHTO   C57 7400   5.834   7.645   1.341  0.4948 -0.0779 -0.6091
   18CHTO  H114 7401   5.832   7.577   1.426  1.1568  1.6512  0.8133
   18CHTO   N10 7402   5.968   7.687   1.330  0.3228  0.5249 -0.1877
   18CHTO  H106 7403   6.027   7.613   1.278 -0.5827  0.6611 -1.4266
   18CHTO  H107 7404   5.980   7.782   1.282  3.1138  0.4743  0.3243
   18CHTO   C58 7405   5.791   7.561   1.218 -0.4243  0.3261 -0.6798
   18CHTO  H115 7406   5.803   7.618   1.124 -0.5590  0.1914 -0.7799
   18CHTO   O37 7407   5.654   7.515   1.214 -0.0177 -0.0300 -0.2297
   18CHTO   C59 7408   5.553   7.609   1.236  0.9133 -0.0929  0.1845
   18CHTO  H116 7409   5.547   7.677   1.152 -2.6919 -2.7441 -1.8430
   18CHTO   C70 7410   5.424   7.527   1.250  0.6540  0.3200 -0.5002
   18CHTO   O46 7411   5.310   7.614   1.254 -0.1109  0.2787  0.3993
   18CHTO  H103 7412   5.232   7.561   1.254 -1.0250  1.5963  1.0672
   18CHTO   O39 7413   5.899   7.415   1.224  0.1118  0.1668 -0.3167
   18CHTO   C60 7414   5.833   7.309   1.301 -0.4656 -0.3827 -0.2921
   18CHTO  H117 7415   5.759   7.353   1.367 -0.3883  0.4521 -0.7530
   18CHTO   C62 7416   5.760   7.207   1.203  0.6072  0.1903 -0.0878
   18CHTO  H119 7417   5.688   7.268   1.146 -1.8723 -2.2057  0.3470
   18CHTO   O43 7418   5.845   7.147   1.111  0.4845 -0.0746  0.1158
   18CHTO  H101 7419   5.797   7.115   1.037  0.5360  2.8027 -1.1945
   18CHTO   C66 7420   5.670   7.106   1.301 -0.6098  0.5264 -1.0919
   18CHTO  H123 7421   5.591   7.165   1.348  0.4866 -1.2477  3.2272
   18CHTO   N12 7422   5.583   7.011   1.228  0.5048 -0.4463  0.0000
   18CHTO  H110 7423   5.513   7.070   1.170 -1.2890 -2.8115 -0.2969
   18CHTO  H111 7424   5.541   6.926   1.280 -0.3158 -0.1703 -0.1994
   18CHTO   C69 7425   5.750   7.035   1.412  0.3143 -0.5317  0.5497
   18CHTO  H126 7426   5.798   6.948   1.362  0.3041  1.3555 -2.8554
   18CHTO   O41 7427   5.852   7.132   1.479  0.2747 -0.0138  0.2855
   18CHTO   C64 7428   5.925   7.217   1.389  0.3269 -0.6488 -0.5912
   18CHTO  H121 7429   5.995   7.161   1.324  0.0315  1.4754 -2.7908
   18CHTO   C71 7430   6.017   7.304   1.482  0.6272 -0.3155 -0.6068
   18CHTO   O47 7431   5.925   7.366   1.572 -0.3458 -0.2704  0.5511
   18CHTO  H104 7432   5.950   7.342   1.659  2.1100  0.5092  0.1000
   18CHTO   O34 7433   5.668   6.985   1.529  0.6813 -0.0216  0.0100
   18CHTO   C49 7434   5.589   7.005   1.648 -0.1520 -0.3968 -0.2221
   18CHTO   H91 7435   5.536   6.915   1.679 -1.6108  0.2503 -0.7996
   18CHTO   C47 7436   5.483   7.117   1.624  0.1202  0.4792  0.1221
   18CHTO   H89 7437   5.421   7.120   1.715  0.7207 -0.0610  0.5555
   18CHTO   O33 7438   5.407   7.071   1.507 -0.0940  0.1217 -0.5303
   18CHTO   H70 7439   5.341   7.131   1.480 -2.6368 -2.8405 -1.1839
   18CHTO   C45 7440   5.568   7.250   1.617  0.1403 -0.4155 -0.4142
   18CHTO   H87 7441   5.643   7.247   1.537  0.0398  0.6971 -0.5586
   18CHTO    N8 7442   5.484   7.369   1.581 -0.0503  0.1233 -0.2911
   18CHTO   H75 7443   5.395   7.386   1.640  1.3357 -0.4020  2.0414
   18CHTO   H76 7444   5.539   7.455   1.546 -2.2287  0.6871 -2.4338
   18CHTO   C43 7445   5.652   7.277   1.748 -0.9996  0.1724 -0.6337
   18CHTO   H85 7446   5.713   7.363   1.719  0.2490  0.1314  1.7449
   18CHTO   O29 7447   5.742   7.162   1.775 -0.5727  0.3959  0.0262
   18CHTO   C50 7448   5.684   7.030   1.772  0.0287  0.2511 -0.5385
   18CHTO   H92 7449   5.760   6.951   1.774 -0.5510 -0.3107 -0.5229
   18CHTO   C54 7450   5.611   7.010   1.903  0.2890  0.2516 -0.5720
   18CHTO   O36 7451   5.706   7.031   2.013 -0.1665  0.3479  0.2111
   18CHTO   H72 7452   5.674   6.998   2.095  0.1317  0.4817  0.3806
   18CHTO   O27 7453   5.580   7.311   1.864  0.0437  0.2827 -0.8143
   18CHTO   C37 7454   5.554   7.431   1.939 -0.6553  0.7175  0.6130
   18CHTO   H79 7455   5.597   7.419   2.039  0.5546  1.9993  0.2605
   18CHTO   C38 7456   5.626   7.558   1.877 -0.2275 -0.1757 -0.2546
   18CHTO   H80 7457   5.592   7.568   1.773 -1.5854  0.8929  0.2735
   18CHTO   O31 7458   5.768   7.536   1.888  0.8727  0.2266  0.0378
   18CHTO   H68 7459   5.795   7.542   1.978 -0.2824 -1.9623  0.5777
   18CHTO   C39 7460   5.584   7.685   1.955 -0.1926 -0.0477  0.7129
   18CHTO   H81 7461   5.620   7.684   2.058 -3.2018  1.4917  1.8495
   18CHTO    N7 7462   5.639   7.816   1.903  0.1317 -0.0228 -0.3956
   18CHTO   H73 7463   5.590   7.899   1.953 -1.1699 -0.7250 -0.4856
   18CHTO   H74 7464   5.603   7.821   1.802 -1.0631 -1.9812 -0.1047
   18CHTO   C40 7465   5.425   7.694   1.976  0.5901  1.1011 -0.5088
   18CHTO   H82 7466   5.377   7.719   1.881 -0.3905 -0.3011 -0.4044
   18CHTO   O26 7467   5.378   7.571   2.027  0.0564 -0.3302 -0.2931
   18CHTO   C41 7468   5.399   7.456   1.944 -0.0015  0.6061 -0.0785
   18CHTO   H83 7469   5.359   7.456   1.841  0.2477  0.2153 -0.1789
   18CHTO   C52 7470   5.327   7.334   2.010 -0.2092 -0.2368 -0.6330
   18CHTO   O35 7471   5.196   7.330   1.980  0.3326  0.7491  0.0009
   18CHTO   H71 7472   5.188   7.303   1.890 -1.5466 -1.6514  0.8307
   18CHTO   O28 7473   5.385   7.803   2.061 -0.2843 -0.4420  0.4519
   18CHTO   C42 7474   5.246   7.858   2.082 -0.1793  0.1504 -0.1728
   18CHTO   H84 7475   5.264   7.920   2.170  2.8622  0.6402 -1.0540
   18CHTO   C44 7476   5.129   7.755   2.113  0.1424 -0.3247 -0.4731
   18CHTO   H86 7477   5.119   7.685   2.030  0.2149  2.0413 -2.5387
   18CHTO   O32 7478   5.167   7.680   2.233  0.2124  0.1593  0.1476
   18CHTO   H69 7479   5.219   7.604   2.215 -0.7324 -0.2657 -0.8336
   18CHTO   C48 7480   5.004   7.840   2.140  0.2317 -0.0806  0.3544
   18CHTO   H90 7481   5.031   7.909   2.219 -1.0738 -1.2609  1.8533
   18CHTO    N9 7482   4.887   7.756   2.189  0.5236  0.5045  0.2597
   18CHTO   H77 7483   4.914   7.684   2.265 -3.1703  0.1020  1.3047
   18CHTO   H78 7484   4.816   7.828   2.226  0.2600  0.5105 -0.2509
   18CHTO   C51 7485   4.968   7.920   2.008  0.7621 -0.0128  0.5117
   18CHTO   H93 7486   4.960   7.847   1.927  2.2919  0.4149 -0.0399
   18CHTO   O30 7487   5.068   8.014   1.979  0.6138  0.1271  0.0047
   18CHTO   C46 7488   5.213   7.948   1.967 -0.8245  0.6203  0.0912
   18CHTO   H88 7489   5.219   7.891   1.874  1.6153 -0.4095  0.8323
   18CHTO   C53 7490   5.307   8.061   1.957  0.4277  0.1657 -0.5784
   18CHTO   O72 7491   5.304   8.134   1.835  0.7302 -0.3914  0.5934
   18CHTO  H199 7492   5.356   8.097   1.766  0.5259 -0.8487  0.6816
   18CHTO   O22 7493   4.843   7.989   2.014 -0.3711  0.1112 -0.1158
   18CHTO   C31 7494   4.754   8.033   1.899 -0.5869  0.6427  0.6845
   18CHTO   H59 7495   4.680   8.107   1.936 -1.3036  0.5746 -0.5564
   18CHTO   C29 7496   4.831   8.096   1.782  0.0553 -0.2377 -0.0820
   18CHTO   H57 7497   4.902   8.017   1.752  0.3773  0.4449 -1.1315
   18CHTO   O21 7498   4.908   8.206   1.826  0.0582 -0.5880  0.3494
   18CHTO   H37 7499   4.982   8.210   1.769 -1.7697  0.2895 -2.0871
   18CHTO   C27 7500   4.729   8.125   1.660  1.0969  0.3248 -0.3150
   18CHTO   H55 7501   4.661   8.206   1.691  0.7410  0.2269 -0.8398
   18CHTO    N5 7502   4.802   8.161   1.540 -0.3160  0.2737  0.2496
   18CHTO   H43 7503   4.750   8.208   1.458  0.9504  1.3676  0.0521
   18CHTO   H44 7504   4.851   8.068   1.515 -1.2075 -0.2186  0.2972
   18CHTO   C25 7505   4.635   8.001   1.631 -0.1812  0.5961  0.5604
   18CHTO   H53 7506   4.693   7.923   1.580 -0.8445 -1.0207  2.2123
   18CHTO   O17 7507   4.578   7.946   1.756  0.3039 -0.1698  0.4062
   18CHTO   C32 7508   4.677   7.906   1.848 -0.3044 -0.3051  0.2480
   18CHTO   H60 7509   4.750   7.840   1.800  0.0215 -0.1663  0.5542
   18CHTO   C36 7510   4.607   7.831   1.960  0.3169  0.3786  0.0512
   18CHTO   O25 7511   4.555   7.708   1.908  0.6918  0.1345 -0.0952
   18CHTO   H40 7512   4.619   7.642   1.894  0.6003  0.1392 -0.5444
   18CHTO   O15 7513   4.518   8.050   1.537  0.3084 -0.6588 -0.0903
   18CHTO   C19 7514   4.434   7.984   1.434  0.4201  0.1416  0.0180
   18CHTO   H47 7515   4.334   8.023   1.458  2.0071  2.8101  2.6002
   18CHTO   C20 7516   4.483   8.022   1.288 -0.7312  0.2664  0.5174
   18CHTO   H48 7517   4.591   8.011   1.273 -1.2825 -0.9369 -3.3038
   18CHTO   O19 7518   4.429   8.155   1.267 -0.1602 -0.2966 -0.9989
   18CHTO   H35 7519   4.499   8.219   1.261  0.2512 -0.4853  1.4056
   18CHTO   C21 7520   4.417   7.929   1.181 -0.1900 -0.0399 -0.0181
   18CHTO   H49 7521   4.311   7.955   1.178  0.0860  1.0865 -0.1180
   18CHTO    N4 7522   4.471   7.947   1.045  0.5653 -0.0111  0.1702
   18CHTO   H41 7523   4.558   7.884   1.036 -0.1916 -0.7639 -2.1288
   18CHTO   H42 7524   4.507   8.049   1.036 -0.5334  0.3336 -0.3859
   18CHTO   C22 7525   4.427   7.779   1.222  0.0187  0.7088  0.0572
   18CHTO   H50 7526   4.534   7.759   1.217  0.1974  1.4430  0.7861
   18CHTO   O14 7527   4.366   7.757   1.351  0.7607 -0.1259 -0.1638
   18CHTO   C23 7528   4.430   7.828   1.455 -1.1023 -0.1344 -0.0862
   18CHTO   H51 7529   4.530   7.783   1.461 -1.4167 -1.0383 -1.5008
   18CHTO   C34 7530   4.357   7.792   1.586  0.5734  0.1506 -0.2873
   18CHTO   O23 7531   4.351   7.653   1.622  0.3568 -0.4347  0.4453
   18CHTO   H38 7532   4.436   7.614   1.611  1.0665  1.5217 -1.2297
   18CHTO   O16 7533   4.352   7.688   1.129  0.0865 -0.6777 -0.7348
   18CHTO   C24 7534   4.453   7.570   1.069  0.4021  0.0918 -0.0319
   18CHTO   H52 7535   4.554   7.576   1.109  0.7445  2.2250 -1.1560
   18CHTO   C26 7536   4.468   7.578   0.916  0.0955  0.3202 -0.2954
   18CHTO   H54 7537   4.365   7.580   0.874 -0.1667 -0.5827  0.2815
   18CHTO   O20 7538   4.525   7.706   0.880  0.0207  0.8557 -0.1380
   18CHTO   H36 7539   4.461   7.774   0.889  0.2169  1.3704 -2.2685
   18CHTO   C30 7540   4.555   7.466   0.860 -0.6593  0.7995 -0.7770
   18CHTO   H58 7541   4.655   7.490   0.899 -0.0111 -0.9520 -1.3343
   18CHTO    N6 7542   4.565   7.455   0.711  0.2767 -0.1185 -0.1833
   18CHTO   H45 7543   4.671   7.447   0.691 -0.1587 -2.5101 -1.8464
   18CHTO   H46 7544   4.510   7.365   0.685  1.5131 -0.9875  0.1452
   18CHTO   C33 7545   4.512   7.328   0.921 -0.1196 -0.0198  1.1154
   18CHTO   H61 7546   4.416   7.301   0.873  0.7376  0.8911 -1.1732
   18CHTO   O18 7547   4.496   7.334   1.066  0.3123  0.2061  0.2343
   18CHTO   C28 7548   4.400   7.437   1.110  0.9016 -0.0927 -1.0201
   18CHTO   H56 7549   4.302   7.428   1.063 -0.0898  0.5604  0.8800
   18CHTO   C35 7550   4.378   7.412   1.257 -0.2139 -0.4035 -0.1067
   18CHTO   O24 7551   4.481   7.470   1.336  0.1499 -0.1884 -0.3146
   18CHTO   H39 7552   4.529   7.398   1.371  0.0578 -0.5037 -0.8345
   18CHTO    O9 7553   4.606   7.222   0.887 -0.1942  0.5149 -0.0637
   18CHTO   C13 7554   4.720   7.168   1.019  0.0772  0.4607 -0.1593
   18CHTO   H26 7555   4.659   7.147   1.109  0.5429 -1.4798 -0.2882
   18CHTO   C11 7556   4.818   7.290   1.044 -0.1458 -0.1844  0.0984
   18CHTO   H24 7557   4.764   7.367   1.101  1.0968 -1.1478  2.6360
   18CHTO    O8 7558   4.859   7.342   0.918  0.4014  0.6069 -0.6621
   18CHTO    H3 7559   4.836   7.433   0.916  1.0527  0.7666 -0.9224
   18CHTO    C9 7560   4.937   7.234   1.128  0.0367 -0.1605  0.0870
   18CHTO   H22 7561   4.887   7.178   1.208 -3.2056  2.8006  0.2513
   18CHTO    N2 7562   5.025   7.338   1.181  0.3088  0.4426  0.2168
   18CHTO   H10 7563   4.989   7.439   1.194 -1.5848  0.0403 -1.7736
   18CHTO   H11 7564   5.077   7.302   1.269 -0.4400 -1.0071  0.0724
   18CHTO    C7 7565   5.015   7.129   1.044  0.1812  0.2658  0.0684
   18CHTO   H20 7566   5.088   7.095   1.120  0.2299  1.0701  0.3891
   18CHTO    O4 7567   4.933   7.017   1.020  0.0613  0.1236 -0.0861
   18CHTO   C14 7568   4.796   7.032   0.981  0.6200  0.5606  0.5560
   18CHTO   H27 7569   4.745   6.951   1.037 -1.2120  1.0066 -0.4036
   18CHTO   C18 7570   4.772   7.000   0.836  0.7513 -0.2043 -0.2250
   18CHTO   O13 7571   4.836   7.085   0.745  0.1518  0.2083 -0.6411
   18CHTO    H7 7572   4.799   7.171   0.743  0.2591  0.2470 -1.1794
   18CHTO    O2 7573   5.082   7.186   0.902  0.2347 -0.4871 -0.8949
   18CHTO    C1 7574   5.186   7.101   0.837 -0.4353 -0.0949 -0.3273
   18CHTO   H14 7575   5.208   7.157   0.744 -2.7310  0.1784 -0.7360
   18CHTO    C2 7576   5.163   6.951   0.801 -0.2970 -0.0953 -0.4782
   18CHTO   H15 7577   5.120   6.899   0.887 -0.7982 -1.3261 -1.4508
   18CHTO    O6 7578   5.062   6.957   0.705 -0.5167  0.2725 -0.0176
   18CHTO    H1 7579   5.070   7.014   0.630 -0.5736  0.1747 -0.0978
   18CHTO    C3 7580   5.297   6.890   0.749  0.0748  0.3499 -0.2854
   18CHTO   H16 7581   5.331   6.923   0.649 -0.5535 -1.3678 -1.0857
   18CHTO    N1 7582   5.280   6.739   0.728 -0.0793 -0.3192 -0.2366
   18CHTO    H8 7583   5.233   6.713   0.634 -1.3380  0.1806  0.2553
   18CHTO    H9 7584   5.227   6.692   0.809 -0.9915 -0.8793 -1.1418
   18CHTO    C4 7585   5.416   6.923   0.849  0.6979  1.3986  0.1511
   18CHTO   H17 7586   5.404   6.864   0.940 -0.3405  0.0709 -0.8178
   18CHTO    O1 7587   5.420   7.066   0.869 -0.1771 -0.5153  0.1753
   18CHTO    C5 7588   5.308   7.109   0.936  0.0653  0.7740 -0.2820
   18CHTO   H18 7589   5.287   7.038   1.017  3.0634 -0.4838 -0.5536
   18CHTO   C16 7590   5.346   7.242   1.002  0.0714 -0.7291 -1.0551
   18CHTO   O11 7591   5.364   7.347   0.914  0.2446 -0.5165  0.2626
   18CHTO    H5 7592   5.277   7.368   0.883  1.1275 -0.8291 -2.5575
   18CHTO    O3 7593   5.544   6.902   0.775  0.2593 -0.2223 -0.2215
   18CHTO    C6 7594   5.659   6.878   0.856 -0.0998  0.0197  0.3342
   18CHTO   H19 7595   5.645   6.922   0.955 -1.6523  2.6817 -1.0261
   18CHTO    C8 7596   5.678   6.729   0.870  1.1223  0.1788  0.9318
   18CHTO   H21 7597   5.669   6.692   0.768  0.3342  0.1024  1.0262
   18CHTO    O7 7598   5.573   6.672   0.954 -0.4098  0.4032 -0.0389
   18CHTO    H2 7599   5.580   6.579   0.951 -0.7968  0.4289 -2.3468
   18CHTO   C12 7600   5.821   6.699   0.934 -0.8381  0.8590 -0.6476
   18CHTO   H25 7601   5.824   6.746   1.034  0.0308 -0.5043 -0.0225
   18CHTO    N3 7602   5.850   6.551   0.965  0.2175 -0.3630  0.4065
   18CHTO   H12 7603   5.821   6.534   1.068  2.6655  0.4616  1.2747
   18CHTO   H13 7604   5.955   6.524   0.970  0.2914 -0.0669  0.4771
   18CHTO   C15 7605   5.928   6.770   0.845 -0.0745  0.9611 -0.6448
   18CHTO   H28 7606   5.924   6.733   0.743 -2.1028 -2.3172  0.5369
   18CHTO   O10 7607   6.063   6.756   0.909  0.4113 -0.0121 -0.0794
   18CHTO    H4 7608   6.065   6.766   1.002 -2.0521  0.5464 -0.0596
   18CHTO    O5 7609   5.900   6.910   0.844 -0.0004  0.0351  0.4169
   18CHTO   C10 7610   5.779   6.948   0.780 -0.7222  0.0796 -0.0006
   18CHTO   H23 7611   5.779   6.926   0.673  0.8570  0.0281  0.0060
   18CHTO   C17 7612   5.772   7.098   0.789 -0.4749 -0.2800 -0.8067
   18CHTO   O12 7613   5.867   7.169   0.716  0.2995 -0.6589 -0.1189
   18CHTO    H6 7614   5.836   7.257   0.716 -0.6727 -0.8771 -4.2654
   19CHTO  H203 7615   5.523   8.808   2.414 -3.2871  1.7300 -0.8725
   19CHTO   O82 7616   5.474   8.760   2.478 -0.1656 -0.3656  0.0349
   19CHTO  C123 7617   5.412   8.639   2.430  0.3084 -0.1133 -0.3041
   19CHTO  H227 7618   5.366   8.663   2.333 -2.1459  0.0336  0.8424
   19CHTO   O77 7619   5.523   8.557   2.393  0.1590 -0.7403 -0.3617
   19CHTO  C118 7620   5.484   8.425   2.341  0.0537 -0.3848  0.3911
   19CHTO  H222 7621   5.427   8.454   2.252  0.0480  1.9052  1.1158
   19CHTO  C125 7622   5.610   8.340   2.311 -0.3011 -0.2222  0.8349
   19CHTO   O84 7623   5.676   8.393   2.200 -0.2272  0.5786  1.0819
   19CHTO  H205 7624   5.770   8.390   2.208 -0.0167  0.0685 -1.2519
   19CHTO  C114 7625   5.388   8.356   2.447  0.0687 -0.4744 -0.3473
   19CHTO  H218 7626   5.452   8.338   2.534 -2.0759  2.6016  2.0021
   19CHTO  C116 7627   5.270   8.439   2.488  0.3462  0.2479  0.3770
   19CHTO  H220 7628   5.198   8.437   2.404  0.1889  2.2448  0.4500
   19CHTO   O79 7629   5.196   8.380   2.600 -0.1109 -0.4845  0.2430
   19CHTO  H201 7630   5.124   8.341   2.555 -0.5581  1.8551 -1.1403
   19CHTO  C120 7631   5.312   8.589   2.530  0.0277 -0.1714 -0.2413
   19CHTO  H224 7632   5.353   8.586   2.633  0.2465 -2.1914 -0.3609
   19CHTO   N21 7633   5.195   8.675   2.543  0.0948  0.0124 -0.7551
   19CHTO  H211 7634   5.113   8.648   2.478  0.3209  0.0891 -1.0744
   19CHTO  H212 7635   5.222   8.779   2.528  1.6795  0.0992  2.3933
   19CHTO   O75 7636   5.354   8.232   2.385 -0.1160  0.4136  0.3238
   19CHTO  C112 7637   5.407   8.089   2.432 -0.0280  0.0476  0.0343
   19CHTO  H216 7638   5.477   8.116   2.513 -0.3141 -0.1267  0.3368
   19CHTO   O73 7639   5.481   8.030   2.319  0.6430  0.3034 -0.4586
   19CHTO  C113 7640   5.556   7.919   2.359 -0.1036  0.2169 -0.4394
   19CHTO  H217 7641   5.620   7.946   2.446 -1.1241  0.8130  0.1320
   19CHTO  C124 7642   5.655   7.885   2.247 -0.0812  0.2007  0.9512
   19CHTO   O83 7643   5.747   7.998   2.236  0.3622  0.6168  0.1329
   19CHTO  H204 7644   5.804   8.001   2.311  1.9630 -0.5134 -1.0248
   19CHTO  C109 7645   5.455   7.801   2.404  0.2580 -0.0221 -0.1266
   19CHTO  H213 7646   5.392   7.776   2.317 -1.1635  0.2739  0.7935
   19CHTO  C110 7647   5.362   7.854   2.526 -0.1464  0.6298 -0.4424
   19CHTO  H214 7648   5.435   7.877   2.604  0.3624  0.5531 -0.8949
   19CHTO   O78 7649   5.278   7.740   2.563  0.1258 -0.8318  0.4912
   19CHTO  H200 7650   5.324   7.681   2.619  0.4794  0.5687  1.7298
   19CHTO  C111 7651   5.294   7.991   2.484 -0.4191  0.0109  0.4846
   19CHTO  H215 7652   5.222   7.975   2.402 -0.0543  1.2255 -0.0796
   19CHTO   N19 7653   5.217   8.052   2.596  0.3533 -0.3637 -0.0146
   19CHTO  H207 7654   5.155   8.131   2.557 -0.4056 -1.0959 -0.3059
   19CHTO  H208 7655   5.149   7.983   2.645 -0.2793  0.7387  0.6790
   19CHTO   O74 7656   5.530   7.679   2.444 -0.2000 -0.5286 -0.6774
   19CHTO  C115 7657   5.527   7.549   2.343  0.3386 -0.7739 -0.4453
   19CHTO  H219 7658   5.454   7.565   2.265 -0.5110  0.0945  0.5137
   19CHTO   O76 7659   5.660   7.530   2.273 -0.8285  0.6054  0.0934
   19CHTO  C122 7660   5.747   7.437   2.345  0.2922 -0.2564 -1.0012
   19CHTO  H226 7661   5.776   7.474   2.443 -0.3795  0.1994 -0.9733
   19CHTO  C126 7662   5.877   7.428   2.266 -0.8893 -0.4010 -0.6637
   19CHTO   O85 7663   5.857   7.377   2.133  0.8991 -0.2211 -0.2891
   19CHTO  H206 7664   5.834   7.446   2.073  0.7941 -0.7188 -0.8267
   19CHTO  C121 7665   5.687   7.295   2.373 -0.4009 -0.1929  0.3738
   19CHTO  H225 7666   5.730   7.231   2.293 -1.0550 -0.4587  0.2274
   19CHTO   O81 7667   5.752   7.253   2.498  0.1544  0.0155 -0.0308
   19CHTO  H202 7668   5.787   7.167   2.485  3.2109  1.3781 -1.3248
   19CHTO  C119 7669   5.532   7.287   2.359  0.1073 -0.3841  0.6684
   19CHTO  H223 7670   5.501   7.304   2.256  0.1156  1.3373  0.9460
   19CHTO  C117 7671   5.479   7.421   2.431 -0.8903  0.2070  0.1526
   19CHTO  H221 7672   5.513   7.441   2.533 -0.3746  1.0632 -0.1812
   19CHTO   N20 7673   5.328   7.419   2.447 -0.5957 -0.0858 -0.7105
   19CHTO  H209 7674   5.302   7.518   2.483 -2.5815 -0.3884 -1.2750
   19CHTO  H210 7675   5.295   7.348   2.522 -2.9888 -0.0017 -1.6700
   19CHTO   O80 7676   5.473   7.148   2.395 -0.2942 -0.4534 -0.0564
   19CHTO  C103 7677   5.437   7.039   2.288  0.0047 -0.7261 -0.8422
   19CHTO  H190 7678   5.452   7.088   2.191 -2.2413  2.3204  0.2541
   19CHTO  C101 7679   5.516   6.903   2.305  0.2012  0.2197  0.4229
   19CHTO  H188 7680   5.496   6.865   2.406  1.8184  1.1923  1.1335
   19CHTO   O68 7681   5.667   6.919   2.272 -0.1914  0.1394  0.3492
   19CHTO  H168 7682   5.679   6.895   2.182 -1.2809  1.2075 -0.0942
   19CHTO   C99 7683   5.458   6.792   2.200  0.5410 -0.8763  0.1834
   19CHTO  H186 7684   5.467   6.823   2.094 -0.7179  0.1800  0.3747
   19CHTO   N17 7685   5.519   6.658   2.210  0.0286 -0.7224 -0.1302
   19CHTO  H174 7686   5.626   6.666   2.214 -0.1283  2.3810 -0.9410
   19CHTO  H175 7687   5.486   6.598   2.127  2.0400 -1.9928 -0.0436
   19CHTO   C97 7688   5.300   6.786   2.213  0.1964  0.1643  0.6412
   19CHTO  H184 7689   5.270   6.737   2.307 -1.0909 -1.5691 -0.6514
   19CHTO   O64 7690   5.243   6.918   2.200  0.2936  0.4349 -0.1480
   19CHTO  C104 7691   5.281   7.010   2.303 -0.6057  0.3275 -0.6322
   19CHTO  H191 7692   5.263   6.956   2.396  1.0483  0.7950 -0.0164
   19CHTO  C108 7693   5.185   7.132   2.305  0.1726  0.7362 -0.1323
   19CHTO   O71 7694   5.059   7.108   2.368  0.1533 -0.2288 -0.2433
   19CHTO  H171 7695   5.007   7.186   2.367  2.0451  1.0568 -1.2730
   19CHTO   O62 7696   5.246   6.716   2.097 -0.0152 -0.2783  0.0154
   19CHTO   C91 7697   5.123   6.654   2.137  0.5673 -0.6982 -0.0480
   19CHTO  H178 7698   5.087   6.693   2.232  2.3832  1.4378 -0.2023
   19CHTO   C92 7699   5.141   6.494   2.148 -0.0924  0.0168 -0.3215
   19CHTO  H179 7700   5.188   6.459   2.054 -2.0200  0.2331 -1.3960
   19CHTO   O66 7701   5.230   6.467   2.251  0.1275 -0.2054  0.0187
   19CHTO  H166 7702   5.247   6.375   2.261  1.4348 -0.1737 -1.6482
   19CHTO   C93 7703   5.001   6.416   2.163 -0.3867 -0.4410 -0.5677
   19CHTO  H180 7704   4.980   6.457   2.263  1.8589 -2.2194  0.6867
   19CHTO   N16 7705   5.003   6.265   2.156 -0.3375 -0.3109  0.2465
   19CHTO  H172 7706   5.045   6.246   2.058 -0.7377  2.3250 -0.4645
   19CHTO  H173 7707   5.072   6.236   2.234 -0.8522 -0.1433  0.7670
   19CHTO   C94 7708   4.893   6.464   2.070  0.1015 -0.0122  0.8998
   19CHTO  H181 7709   4.920   6.450   1.965  1.0388  1.7380  0.8924
   19CHTO   O61 7710   4.894   6.609   2.088 -0.3156  0.1823  0.1811
   19CHTO   C95 7711   5.003   6.678   2.041  0.0711 -0.1283  0.4596
   19CHTO  H182 7712   5.026   6.653   1.938 -0.9492  2.2748 -0.3919
   19CHTO  C106 7713   4.949   6.826   2.048 -0.4217  0.3577 -0.8510
   19CHTO   O69 7714   5.044   6.920   1.999  0.2441 -0.4220  0.1272
   19CHTO  H169 7715   5.082   6.973   2.066 -0.6100  0.4805 -0.1092
   19CHTO   O63 7716   4.744   6.417   2.108 -0.4348 -0.3570 -0.0904
   19CHTO   C96 7717   4.643   6.428   1.966 -0.6928  0.1515 -0.0013
   19CHTO  H183 7718   4.700   6.366   1.897 -0.3806 -0.0129  0.3991
   19CHTO   C98 7719   4.625   6.562   1.901 -0.2374 -0.4000 -0.4700
   19CHTO  H185 7720   4.716   6.624   1.904  0.4834 -1.4956  1.5018
   19CHTO   O67 7721   4.594   6.536   1.764  0.1342  0.6376 -0.0816
   19CHTO  H167 7722   4.676   6.524   1.719 -0.9529  0.1032 -1.9762
   19CHTO  C102 7723   4.505   6.648   1.966 -0.2056  0.0982 -0.4607
   19CHTO  H189 7724   4.489   6.727   1.891 -0.0028 -0.5340 -1.1617
   19CHTO   N18 7725   4.535   6.720   2.101 -0.1082  0.4280 -0.4331
   19CHTO  H176 7726   4.457   6.695   2.172  1.5415 -2.3203  0.4880
   19CHTO  H177 7727   4.622   6.681   2.151 -1.2819  0.7165  1.9055
   19CHTO  C105 7728   4.376   6.561   1.971  0.1606  0.1390 -0.2356
   19CHTO  H192 7729   4.336   6.554   2.073 -1.4356  0.4522 -0.8276
   19CHTO   O65 7730   4.388   6.420   1.934  0.2401 -0.6802  0.1625
   19CHTO  C100 7731   4.503   6.365   2.006  0.2080 -0.1243  0.1660
   19CHTO  H187 7732   4.498   6.397   2.111  2.2179 -0.9064  0.5245
   19CHTO  C107 7733   4.519   6.206   2.001 -0.6088  0.4787 -0.1531
   19CHTO   O70 7734   4.414   6.146   2.078  0.1792 -0.0486  0.2083
   19CHTO  H170 7735   4.431   6.168   2.168  0.9010  0.8761 -0.1471
   19CHTO   O57 7736   4.271   6.644   1.871  0.0619  0.1231  0.0092
   19CHTO   C85 7737   4.142   6.654   1.937  0.6801 -0.1683  0.1608
   19CHTO  H157 7738   4.135   6.559   1.994  1.7030 -1.5666 -1.9786
   19CHTO   C83 7739   4.035   6.657   1.824 -0.6559  0.3590  0.8075
   19CHTO  H155 7740   4.035   6.556   1.782 -0.3473  0.6602  0.0922
   19CHTO   O56 7741   4.079   6.743   1.718 -0.5761 -0.0350 -0.0133
   19CHTO  H135 7742   4.112   6.693   1.645  0.9792 -0.1355  0.7522
   19CHTO   C81 7743   3.899   6.676   1.890 -1.2346 -0.1897  0.5007
   19CHTO  H153 7744   3.894   6.609   1.976  1.3153 -1.7038 -0.4773
   19CHTO   N14 7745   3.782   6.644   1.798  0.1999 -0.1652 -1.0788
   19CHTO  H141 7746   3.771   6.538   1.801 -0.3367 -0.0858  0.7239
   19CHTO  H142 7747   3.695   6.684   1.847 -0.3165 -2.3154 -0.1723
   19CHTO   C79 7748   3.888   6.824   1.939  0.5543 -0.3008 -0.9010
   19CHTO  H151 7749   3.797   6.832   1.998 -0.4616  1.5370 -2.6738
   19CHTO   O52 7750   3.996   6.851   2.036  0.1973 -0.2414  0.2751
   19CHTO   C86 7751   4.125   6.784   2.032  0.3657 -0.2337 -0.2442
   19CHTO  H158 7752   4.192   6.866   1.998  2.1102 -2.1749 -1.6390
   19CHTO   C90 7753   4.169   6.749   2.170  0.0970  0.3874  0.0093
   19CHTO   O60 7754   4.182   6.865   2.254  0.0724  0.8843  0.1145
   19CHTO  H138 7755   4.227   6.938   2.214  1.8709  0.3974  1.1815
   19CHTO   O50 7756   3.897   6.925   1.843 -0.2917 -0.4101  0.0828
   19CHTO   C73 7757   3.804   7.019   1.784 -0.3653  0.7155  0.0799
   19CHTO  H145 7758   3.708   6.967   1.771 -0.1428 -0.2058  1.9438
   19CHTO   C74 7759   3.877   7.058   1.644 -0.5854  0.2730 -0.1455
   19CHTO  H146 7760   3.900   6.964   1.591  0.6695  0.7491 -0.4556
   19CHTO   O54 7761   3.783   7.133   1.564  0.2548 -0.3056  0.0593
   19CHTO  H133 7762   3.822   7.142   1.479 -2.4878 -0.3925 -1.2722
   19CHTO   C75 7763   4.004   7.137   1.676 -0.0530  0.2503  0.4669
   19CHTO  H147 7764   4.066   7.067   1.735  0.0776 -1.5285 -1.7240
   19CHTO   N13 7765   4.082   7.167   1.559  0.1196  0.0662  0.3373
   19CHTO  H139 7766   4.100   7.274   1.553  0.3098 -0.0234 -0.8118
   19CHTO  H140 7767   4.175   7.112   1.559 -0.6273 -1.2091  0.0541
   19CHTO   C76 7768   3.971   7.267   1.764 -0.1941 -0.6353 -1.0083
   19CHTO  H148 7769   3.923   7.343   1.702 -0.4150 -1.6950 -2.1557
   19CHTO   O49 7770   3.892   7.237   1.887  0.0656  0.4689 -0.1984
   19CHTO   C77 7771   3.778   7.147   1.871 -0.0659  0.3281  0.2779
   19CHTO  H149 7772   3.710   7.213   1.818 -0.5536 -0.3880  0.0156
   19CHTO   C88 7773   3.709   7.107   2.002 -0.0334  0.1359  0.0736
   19CHTO   O58 7774   3.695   7.224   2.094 -0.2555 -0.0742  0.7912
   19CHTO  H136 7775   3.760   7.239   2.161 -0.4786  1.4790  0.6685
   19CHTO   O51 7776   4.130   7.307   1.830 -0.5857  0.3600  0.0129
   19CHTO   C78 7777   4.130   7.410   1.942 -0.2271 -0.6824  0.5425
   19CHTO  H150 7778   4.028   7.411   1.987 -0.6941  1.1790 -0.4950
   19CHTO   C80 7779   4.150   7.556   1.892  0.1317  0.4037  0.4532
   19CHTO  H152 7780   4.241   7.559   1.829  0.8473 -0.7514  1.3923
   19CHTO   O55 7781   4.035   7.570   1.801 -0.4258 -0.1613  0.4187
   19CHTO  H134 7782   3.998   7.656   1.810  0.2943 -0.0341  2.3160
   19CHTO   C84 7783   4.145   7.655   2.020 -0.3589 -0.6720  0.0515
   19CHTO  H156 7784   4.044   7.665   2.059 -0.0803  0.3348  0.5434
   19CHTO   N15 7785   4.179   7.797   1.971  0.0424  0.0922  0.0338
   19CHTO  H143 7786   4.154   7.878   2.037  1.1347 -0.2352  0.8637
   19CHTO  H144 7787   4.285   7.800   1.959  0.2952 -1.2532  1.7746
   19CHTO   C87 7788   4.245   7.604   2.135  0.7503 -0.4005 -0.0501
   19CHTO  H159 7789   4.349   7.611   2.103  0.6997 -0.0098 -0.1271
   19CHTO   O53 7790   4.202   7.463   2.163 -0.0619 -0.0270 -0.1477
   19CHTO   C82 7791   4.221   7.366   2.064  0.1613  0.0792 -0.6714
   19CHTO  H154 7792   4.326   7.359   2.036  1.3721 -2.0557  3.9927
   19CHTO   C89 7793   4.180   7.228   2.118  0.1821 -0.6562  0.1071
   19CHTO   O59 7794   4.281   7.176   2.200  0.3131  0.0218  0.1724
   19CHTO  H137 7795   4.255   7.107   2.258 -2.7365  0.6335 -0.4304
   19CHTO   O45 7796   4.248   7.690   2.291  0.7387  0.7874  0.0067
   19CHTO   C67 7797   4.138   7.647   2.374  0.6360  0.2735 -0.4375
   19CHTO  H124 7798   4.051   7.612   2.319  0.8495 -0.2627 -0.4420
   19CHTO   C65 7799   4.186   7.530   2.475 -0.0356 -0.4226 -0.5263
   19CHTO  H122 7800   4.294   7.541   2.472 -0.1423  0.2972 -2.1713
   19CHTO   O44 7801   4.139   7.402   2.435 -0.4434  0.3696 -0.6291
   19CHTO  H102 7802   4.061   7.372   2.477  1.6647 -2.1342  1.6737
   19CHTO   C63 7803   4.157   7.571   2.621 -0.0727 -0.2291  0.3376
   19CHTO  H120 7804   4.218   7.658   2.645 -0.5942  0.0065  0.8226
   19CHTO   N11 7805   4.193   7.474   2.733  0.7221  0.4944  0.4694
   19CHTO  H108 7806   4.110   7.425   2.779  0.7782 -0.3508 -0.3306
   19CHTO  H109 7807   4.255   7.396   2.695 -2.1077 -1.3327 -0.5159
   19CHTO   C61 7808   4.005   7.622   2.626 -0.1945  0.5567  0.4507
   19CHTO  H118 7809   3.986   7.640   2.733  2.3805  0.1227  1.0309
   19CHTO   O40 7810   3.997   7.747   2.561  0.6891 -0.0781 -0.0935
   19CHTO   C68 7811   4.089   7.779   2.450 -0.1314 -0.2825 -0.6456
   19CHTO  H125 7812   4.169   7.838   2.500  0.9386 -1.6835 -0.6572
   19CHTO   C72 7813   4.021   7.883   2.351  0.0527  0.2943 -0.3311
   19CHTO   O48 7814   4.125   7.945   2.285 -0.2582 -0.5032  0.1614
   19CHTO  H105 7815   4.137   7.911   2.199  1.6070 -0.1640  0.2736
   19CHTO   O38 7816   3.907   7.538   2.558 -0.2739 -0.7038  0.3000
   19CHTO   C55 7817   3.771   7.552   2.598  0.2244 -0.9715  0.1426
   19CHTO  H112 7818   3.759   7.652   2.643 -0.3621 -0.9709 -0.0095
   19CHTO   C56 7819   3.744   7.444   2.703  0.2297  0.0190  0.5695
   19CHTO  H113 7820   3.759   7.348   2.652  1.7090 -0.9625  2.7710
   19CHTO   O42 7821   3.836   7.437   2.806 -0.3252 -0.7396  0.1591
   19CHTO  H100 7822   3.868   7.523   2.825 -2.5991  0.1802  0.0069
   19CHTO   C57 7823   3.589   7.463   2.760 -0.2361  0.0999 -0.5786
   19CHTO  H114 7824   3.576   7.555   2.816 -0.2050 -0.3369  0.1611
   19CHTO   N10 7825   3.555   7.350   2.846  0.2772 -0.0800  0.4287
   19CHTO  H106 7826   3.587   7.368   2.948  1.6713  1.6917 -0.2882
   19CHTO  H107 7827   3.454   7.313   2.845  0.4802 -0.6171 -0.4900
   19CHTO   C58 7828   3.488   7.468   2.639  0.1972 -0.3153  0.7750
   19CHTO  H115 7829   3.484   7.369   2.589  0.7490  1.6009 -3.2587
   19CHTO   O37 7830   3.535   7.570   2.544 -0.1548  0.0512  0.5688
   19CHTO   C59 7831   3.662   7.542   2.488  0.0617 -0.4518  0.1595
   19CHTO  H116 7832   3.674   7.445   2.441 -0.7897 -0.8658  0.7691
   19CHTO   C70 7833   3.686   7.651   2.388  0.3708  0.2102  0.3239
   19CHTO   O46 7834   3.784   7.614   2.286 -0.1532 -0.0687 -0.1214
   19CHTO  H103 7835   3.742   7.612   2.201 -2.4459 -0.6925  0.9789
   19CHTO   O39 7836   3.330   7.527   2.711 -0.1277 -0.4914 -0.1405
   19CHTO   C60 7837   3.212   7.555   2.633  0.4383  0.9921  0.1119
   19CHTO  H117 7838   3.225   7.521   2.530  0.5190  0.2342  0.3702
   19CHTO   C62 7839   3.082   7.487   2.694  0.7007  0.3833  0.2861
   19CHTO  H119 7840   3.110   7.380   2.689  0.5746  0.3865 -0.6674
   19CHTO   O43 7841   3.060   7.519   2.830 -0.3945  0.1491  0.0189
   19CHTO  H101 7842   2.993   7.464   2.864  0.4696 -1.3803 -0.6741
   19CHTO   C66 7843   2.965   7.512   2.603 -0.1185  0.1333 -0.1731
   19CHTO  H123 7844   2.984   7.465   2.506 -0.5945  1.6916 -1.0374
   19CHTO   N12 7845   2.838   7.440   2.643  0.4136 -0.8683  0.4924
   19CHTO  H110 7846   2.799   7.491   2.730 -0.8220  0.0882 -0.5937
   19CHTO  H111 7847   2.766   7.457   2.564  0.8552 -0.4066  0.1890
   19CHTO   C69 7848   2.937   7.659   2.567  0.1653 -0.5034  0.0205
   19CHTO  H126 7849   2.880   7.711   2.647 -0.9368 -1.1039 -0.3699
   19CHTO   O41 7850   3.074   7.742   2.533 -0.0172 -0.0941  0.1127
   19CHTO   C64 7851   3.185   7.705   2.623 -0.3125  1.0939  0.1088
   19CHTO  H121 7852   3.168   7.733   2.729  1.6954  0.9668  0.4813
   19CHTO   C71 7853   3.304   7.788   2.568  0.3039 -0.2266  0.2156
   19CHTO   O47 7854   3.324   7.752   2.428 -0.1757 -0.3222 -0.8337
   19CHTO  H104 7855   3.250   7.722   2.379 -1.3295  0.1833  0.5547
   19CHTO   O34 7856   2.843   7.661   2.426 -0.3255  0.2688 -0.4235
   19CHTO   C49 7857   2.841   7.655   2.266 -0.1495 -0.0552  0.8315
   19CHTO   H91 7858   2.735   7.649   2.241  0.3510 -1.7754 -1.0151
   19CHTO   C47 7859   2.909   7.528   2.218  0.1735 -0.5553 -0.2501
   19CHTO   H89 7860   2.891   7.526   2.109  1.8988  1.1353 -0.6088
   19CHTO   O33 7861   2.848   7.410   2.273  0.3613 -0.1738 -0.4278
   19CHTO   H70 7862   2.871   7.329   2.231 -0.2029 -0.3435 -0.4187
   19CHTO   C45 7863   3.070   7.531   2.240 -0.2445  0.7785  0.5018
   19CHTO   H87 7864   3.097   7.556   2.344 -0.4878  0.8142  0.5551
   19CHTO    N8 7865   3.131   7.400   2.211 -0.0656 -0.1633  0.0491
   19CHTO   H75 7866   3.052   7.328   2.196 -2.9567  2.4529  2.1090
   19CHTO   H76 7867   3.200   7.402   2.127  1.1627 -0.8031  1.0195
   19CHTO   C43 7868   3.136   7.660   2.164 -0.4843  0.1570 -0.1568
   19CHTO   H85 7869   3.238   7.665   2.203 -0.2123  2.0428 -1.0368
   19CHTO   O29 7870   3.059   7.778   2.203 -0.0419 -0.4387  0.1935
   19CHTO   C50 7871   2.915   7.774   2.191 -0.0306  0.7437 -0.9138
   19CHTO   H92 7872   2.884   7.873   2.226 -0.2499  0.8321 -1.3529
   19CHTO   C54 7873   2.871   7.783   2.042  0.1939 -0.1535  0.2046
   19CHTO   O36 7874   2.730   7.787   2.025 -0.3081  0.3630 -0.3628
   19CHTO   H72 7875   2.706   7.878   2.030  0.9553  0.8859 -3.2577
   19CHTO   O27 7876   3.145   7.639   2.023 -0.5940 -0.3613 -0.0441
   19CHTO   C37 7877   3.255   7.669   1.934  0.3016 -0.0605 -0.3390
   19CHTO   H79 7878   3.277   7.776   1.938  2.0698 -0.4426  0.5965
   19CHTO   C38 7879   3.384   7.599   1.981 -0.9991 -0.0207 -0.1283
   19CHTO   H80 7880   3.355   7.497   2.010 -0.8806 -0.2569 -0.8180
   19CHTO   O31 7881   3.426   7.662   2.106  0.4363  0.7014  0.0733
   19CHTO   H68 7882   3.477   7.606   2.161  0.8463  1.6909  0.7125
   19CHTO   C39 7883   3.504   7.598   1.878  0.2258  0.4014 -0.0614
   19CHTO   H81 7884   3.535   7.701   1.863 -0.8497  0.4236 -2.4769
   19CHTO    N7 7885   3.610   7.493   1.909  0.2116 -0.4299 -0.0033
   19CHTO   H73 7886   3.686   7.553   1.956  0.7160  0.3829 -1.8227
   19CHTO   H74 7887   3.560   7.418   1.969  0.1780  0.2545  0.8318
   19CHTO   C40 7888   3.452   7.567   1.732  0.4669  0.5258  0.4839
   19CHTO   H82 7889   3.437   7.460   1.722 -0.8479  0.6938  0.5796
   19CHTO   O26 7890   3.332   7.642   1.703 -0.0762 -0.4347 -0.2619
   19CHTO   C41 7891   3.219   7.628   1.788  0.7716 -0.4360 -0.2531
   19CHTO   H83 7892   3.172   7.528   1.783  2.3836 -1.2260 -0.0964
   19CHTO   C52 7893   3.111   7.722   1.739 -0.1157  0.8977  0.1045
   19CHTO   O35 7894   3.142   7.852   1.763  0.5921  0.1130 -0.0995
   19CHTO   H71 7895   3.225   7.871   1.724  0.6795 -2.4232 -1.2719
   19CHTO   O28 7896   3.525   7.611   1.618  0.3821 -0.6082  0.2694
   19CHTO   C42 7897   3.635   7.526   1.566  0.3887 -0.0637  0.4203
   19CHTO   H84 7898   3.662   7.453   1.642  1.1887  1.1841  1.3456
   19CHTO   C44 7899   3.766   7.612   1.535  0.4294  0.1709 -0.6871
   19CHTO   H86 7900   3.739   7.697   1.473  0.3709 -0.1276 -1.0699
   19CHTO   O32 7901   3.802   7.667   1.664  0.1168 -0.0353 -0.1670
   19CHTO   H69 7902   3.840   7.753   1.657 -0.0152 -0.0011 -0.4918
   19CHTO   C48 7903   3.883   7.536   1.467  0.3412  0.1696  0.0559
   19CHTO   H90 7904   3.915   7.455   1.533  1.7290  1.0567  0.5012
   19CHTO    N9 7905   4.006   7.617   1.448  0.7586 -0.6703  0.4029
   19CHTO   H77 7906   4.054   7.629   1.544  1.4574 -0.8150  0.0748
   19CHTO   H78 7907   4.074   7.570   1.378  1.0688  1.9059 -1.0758
   19CHTO   C51 7908   3.820   7.466   1.341  0.1884 -0.4207 -0.5384
   19CHTO   H93 7909   3.792   7.542   1.268 -0.0416  0.8911  0.8868
   19CHTO   O30 7910   3.706   7.390   1.382 -0.6817  0.0982 -0.4444
   19CHTO   C46 7911   3.585   7.454   1.439  0.9385 -0.0440  0.3894
   19CHTO   H88 7912   3.539   7.528   1.373 -1.2391 -2.4967 -0.9455
   19CHTO   C53 7913   3.478   7.337   1.454  0.3932  0.4265 -0.2623
   19CHTO   O72 7914   3.353   7.394   1.505 -0.4093 -0.5349 -0.2641
   19CHTO  H199 7915   3.279   7.349   1.468 -1.4448 -0.0789  1.2483
   19CHTO   O22 7916   3.915   7.379   1.285  0.0703 -0.0398  0.0551
   19CHTO   C31 7917   3.918   7.345   1.146  0.4162 -0.0605 -0.0042
   19CHTO   H59 7918   3.814   7.330   1.113 -0.0232 -1.4474  1.8914
   19CHTO   C29 7919   3.983   7.448   1.051 -0.8445 -0.2346  0.1039
   19CHTO   H57 7920   4.079   7.473   1.098 -0.2882 -1.6671 -0.2522
   19CHTO   O21 7921   3.912   7.572   1.057  0.1964  0.7429  0.2335
   19CHTO   H37 7922   3.940   7.618   1.135  1.1742 -2.2093  1.7177
   19CHTO   C27 7923   4.004   7.391   0.905 -0.8230 -0.5599  0.3835
   19CHTO   H55 7924   3.907   7.364   0.860 -1.4303 -0.3957  1.5730
   19CHTO    N5 7925   4.082   7.483   0.817  0.1755 -0.2549 -0.1170
   19CHTO   H43 7926   4.053   7.461   0.716  0.7579 -0.4131 -0.2515
   19CHTO   H44 7927   4.051   7.585   0.837 -2.0096 -1.2030  1.4470
   19CHTO   C25 7928   4.074   7.247   0.908  0.8125  0.4684 -0.4530
   19CHTO   H53 7929   4.179   7.255   0.941  0.4645  1.1416  0.5232
   19CHTO   O17 7930   3.991   7.158   0.987 -0.0093 -0.1292  0.8543
   19CHTO   C32 7931   3.988   7.199   1.124 -0.2126  0.0100 -0.1176
   19CHTO   H60 7932   4.089   7.208   1.163  0.1682 -1.7136 -0.6464
   19CHTO   C36 7933   3.933   7.080   1.202  0.4341  0.1785 -0.0288
   19CHTO   O25 7934   3.792   7.049   1.170 -0.1487 -0.2953 -0.1083
   19CHTO   H40 7935   3.752   6.999   1.239 -0.9457  1.5039  0.7675
   19CHTO   O15 7936   4.088   7.191   0.783  0.7548  0.0207  0.2067
   19CHTO   C19 7937   4.138   7.079   0.704  0.5349  0.3095 -0.4476
   19CHTO   H47 7938   4.099   7.094   0.602 -0.8212 -2.3412 -0.3615
   19CHTO   C20 7939   4.292   7.084   0.705 -0.4269  0.0047  0.3355
   19CHTO   H48 7940   4.330   7.094   0.807  0.3059 -1.4180  0.2104
   19CHTO   O19 7941   4.332   7.204   0.635 -0.0155 -0.0184 -0.1099
   19CHTO   H35 7942   4.411   7.240   0.670  0.4867  0.2046 -1.4478
   19CHTO   C21 7943   4.357   6.956   0.628 -0.5429 -0.5029 -0.2079
   19CHTO   H49 7944   4.316   6.949   0.527 -0.1566 -1.1760 -0.3182
   19CHTO    N4 7945   4.504   6.975   0.622 -0.4895 -0.4106  0.4232
   19CHTO   H41 7946   4.546   6.913   0.545 -3.6526 -1.0027 -0.9272
   19CHTO   H42 7947   4.518   7.078   0.594  0.5188 -0.4809  0.6700
   19CHTO   C22 7948   4.316   6.829   0.701 -0.6560 -0.1663 -0.2529
   19CHTO   H50 7949   4.347   6.834   0.805  1.6777 -0.6209 -0.8839
   19CHTO   O14 7950   4.170   6.816   0.696 -0.0317  0.3692  0.1500
   19CHTO   C23 7951   4.095   6.929   0.745 -0.1499 -1.0004  0.4251
   19CHTO   H51 7952   4.079   6.920   0.854 -0.4877 -1.6407  0.3209
   19CHTO   C34 7953   3.949   6.890   0.702  0.1496 -0.0317 -0.4641
   19CHTO   O23 7954   3.856   6.993   0.731 -0.2701  0.8623  0.3373
   19CHTO   H38 7955   3.814   6.986   0.815 -1.7885 -0.7279 -0.5516
   19CHTO   O16 7956   4.354   6.708   0.630 -0.0407 -0.1315 -0.1449
   19CHTO   C24 7957   4.391   6.588   0.721  0.2487  0.6441  0.1157
   19CHTO   H52 7958   4.354   6.599   0.823 -1.4518 -0.5602 -0.3567
   19CHTO   C26 7959   4.547   6.571   0.722  0.5923  0.3677 -0.0784
   19CHTO   H54 7960   4.581   6.552   0.618  1.5053 -2.4750  0.7028
   19CHTO   O20 7961   4.595   6.689   0.779 -0.6547  0.1227  0.1280
   19CHTO   H36 7962   4.661   6.736   0.732 -0.1747  1.4851  2.1466
   19CHTO   C30 7963   4.587   6.446   0.799  0.1394 -0.2975  0.8577
   19CHTO   H58 7964   4.556   6.462   0.904 -0.5162  1.5156  0.4021
   19CHTO    N6 7965   4.732   6.424   0.810 -0.5018  0.9172 -0.4640
   19CHTO   H45 7966   4.767   6.432   0.912 -1.7698 -2.1594  0.2540
   19CHTO   H46 7967   4.778   6.337   0.766  0.4389  0.7059  0.9115
   19CHTO   C33 7968   4.506   6.326   0.727  0.1809  0.3474  0.4732
   19CHTO   H61 7969   4.525   6.328   0.619  1.6420  3.4568  0.7426
   19CHTO   O18 7970   4.368   6.348   0.747 -0.1964  0.6683 -0.0674
   19CHTO   C28 7971   4.317   6.460   0.670  0.2024  0.2724  0.1031
   19CHTO   H56 7972   4.330   6.455   0.562  0.5266 -0.1517  0.1571
   19CHTO   C35 7973   4.170   6.466   0.698  0.1908 -0.2691  0.7142
   19CHTO   O24 7974   4.108   6.347   0.659  0.1634  0.0383 -0.0987
   19CHTO   H39 7975   4.014   6.343   0.663  0.1108  0.0480 -1.1778
   19CHTO    O9 7976   4.549   6.202   0.784 -0.2986 -0.4962  0.2717
   19CHTO   C13 7977   4.517   6.053   0.695 -0.6295 -0.0002  0.5260
   19CHTO   H26 7978   4.541   6.070   0.588 -0.6520  0.4887  0.5961
   19CHTO   C11 7979   4.358   6.028   0.711 -0.5957  0.1550  0.3039
   19CHTO   H24 7980   4.307   6.107   0.655  2.4042  0.6613 -1.8471
   19CHTO    O8 7981   4.318   6.043   0.846 -0.1939 -0.0357 -0.2283
   19CHTO    H3 7982   4.327   6.131   0.877  1.4503 -0.3600  0.2770
   19CHTO    C9 7983   4.326   5.893   0.651  0.1586 -0.3292 -0.3393
   19CHTO   H22 7984   4.363   5.894   0.547 -1.7335 -0.4032 -1.0210
   19CHTO    N2 7985   4.177   5.874   0.637 -0.3551 -0.1902 -0.0744
   19CHTO   H10 7986   4.137   5.838   0.731 -0.7052  1.8165  0.5654
   19CHTO   H11 7987   4.151   5.811   0.553  0.8071  0.3345 -0.8416
   19CHTO    C7 7988   4.393   5.778   0.740 -0.1327  0.9551 -0.1409
   19CHTO   H20 7989   4.405   5.689   0.675 -0.4207 -0.0528  1.1674
   19CHTO    O4 7990   4.522   5.806   0.782 -0.1736 -0.0328  0.4579
   19CHTO   C14 7991   4.603   5.929   0.745  0.0540 -0.2932 -0.3085
   19CHTO   H27 7992   4.667   5.898   0.660 -0.0615 -1.0960 -0.1057
   19CHTO   C18 7993   4.695   5.980   0.855  0.0927  0.7409  0.3349
   19CHTO   O13 7994   4.808   5.894   0.876 -0.3395 -0.4343  0.2411
   19CHTO    H7 7995   4.775   5.817   0.919  2.2141 -1.5819  0.2525
   19CHTO    O2 7996   4.303   5.748   0.860 -0.4144  0.5433 -0.4629
   19CHTO    C1 7997   4.269   5.615   0.892  0.2899  0.3203 -0.0209
   19CHTO   H14 7998   4.349   5.542   0.869  0.2432 -0.6260  2.6008
   19CHTO    C2 7999   4.140   5.573   0.819 -0.7777  0.1499  0.3937
   19CHTO   H15 8000   4.072   5.659   0.829 -0.2239  0.6255  0.1007
   19CHTO    O6 8001   4.179   5.551   0.683 -1.1047  0.1067 -0.4908
   19CHTO    H1 8002   4.134   5.473   0.656 -0.8629 -0.3445  0.3968
   19CHTO    C3 8003   4.070   5.440   0.874  0.1020 -0.2134 -0.0856
   19CHTO   H16 8004   4.130   5.353   0.845 -0.9373 -0.5817 -1.1713
   19CHTO    N1 8005   3.931   5.405   0.816 -0.9932  0.0174  0.0668
   19CHTO    H8 8006   3.889   5.492   0.767  0.0433  0.9429  0.8030
   19CHTO    H9 8007   3.864   5.380   0.897 -1.5428 -1.3421 -0.7974
   19CHTO    C4 8008   4.069   5.446   1.025  0.4404  0.1391  0.1936
   19CHTO   H17 8009   4.008   5.531   1.055 -0.4010  0.2670 -1.8027
   19CHTO    O1 8010   4.201   5.474   1.081  0.2346  0.4357 -0.2657
   19CHTO    C5 8011   4.250   5.606   1.053 -0.1329 -0.0199  0.0049
   19CHTO   H18 8012   4.171   5.677   1.078  2.2765  2.8983 -0.3821
   19CHTO   C16 8013   4.372   5.627   1.138  0.3100  0.0478  0.3139
   19CHTO   O11 8014   4.434   5.751   1.108 -0.6943  0.2040  0.1917
   19CHTO    H5 8015   4.524   5.748   1.085 -0.4085 -0.3484  1.3503
   19CHTO    O3 8016   4.029   5.320   1.079  0.0974  0.4233 -0.4899
   19CHTO    C6 8017   3.953   5.319   1.203 -0.4441  0.1384  0.1165
   19CHTO   H19 8018   3.924   5.418   1.238 -0.8046  0.6733 -1.6361
   19CHTO    C8 8019   3.816   5.241   1.185  0.2740 -0.0559 -0.0329
   19CHTO   H21 8020   3.832   5.141   1.146 -0.6639 -0.3064  0.2234
   19CHTO    O7 8021   3.745   5.320   1.087 -0.5960  0.2367 -0.4330
   19CHTO    H2 8022   3.792   5.330   1.006 -0.2252  3.7365  0.1387
   19CHTO   C12 8023   3.736   5.248   1.323 -0.0335 -0.7950 -0.0801
   19CHTO   H25 8024   3.724   5.356   1.346  0.5499 -1.2098  2.3040
   19CHTO    N3 8025   3.592   5.202   1.318 -0.3458 -0.4195 -0.4201
   19CHTO   H12 8026   3.550   5.234   1.412 -0.5486 -0.9242 -0.3378
   19CHTO   H13 8027   3.582   5.096   1.302  1.1044 -0.7198  0.5654
   19CHTO   C15 8028   3.823   5.181   1.439 -0.2552 -0.5004  0.6347
   19CHTO   H28 8029   3.842   5.073   1.438 -2.9630 -0.9972 -0.4688
   19CHTO   O10 8030   3.772   5.220   1.584  0.3617 -0.4696 -0.1792
   19CHTO    H4 8031   3.702   5.168   1.617 -0.2165 -0.8533 -1.9591
   19CHTO    O5 8032   3.951   5.252   1.445  0.0477  0.0561 -0.4401
   19CHTO   C10 8033   4.030   5.246   1.324  0.0683  0.2324 -0.5184
   19CHTO   H23 8034   4.061   5.145   1.296 -0.6444 -0.6826  1.8561
   19CHTO   C17 8035   4.167   5.310   1.368  0.0165  0.0798 -0.3875
   19CHTO   O12 8036   4.277   5.279   1.277 -0.4956 -0.1911 -0.5021
   19CHTO    H6 8037   4.301   5.360   1.235 -1.4364 -1.3287 -3.3624
   20CHTO  H203 8038   5.098   9.816   1.906  0.7681 -0.3616 -0.2148
   20CHTO   O82 8039   5.064   9.850   1.825  0.5810  0.0067  0.0168
   20CHTO  C123 8040   5.016   9.981   1.841  0.0672 -0.2270 -0.2970
   20CHTO  H227 8041   4.961   9.985   1.936 -0.1929 -1.1112 -0.4093
   20CHTO   O77 8042   5.140  10.062   1.841 -0.1406  0.3193  0.3622
   20CHTO  C118 8043   5.105  10.195   1.874  0.7441  0.1836  0.1810
   20CHTO  H222 8044   5.035  10.205   1.958 -0.2356 -0.3443 -0.5725
   20CHTO  C125 8045   5.243  10.265   1.920 -0.3423 -0.3007  0.0637
   20CHTO   O84 8046   5.359  10.235   1.840  0.1229  0.5981 -0.2941
   20CHTO  H205 8047   5.431  10.282   1.876  0.7227 -1.0860  0.7752
   20CHTO  C114 8048   5.043  10.245   1.745  0.8996 -0.2760 -0.1118
   20CHTO  H218 8049   5.114  10.234   1.663  2.1167  2.1148  0.5620
   20CHTO  C116 8050   4.904  10.171   1.712 -0.1125 -1.0799 -0.3810
   20CHTO  H220 8051   4.838  10.217   1.788 -0.4363  0.3904 -1.5207
   20CHTO   O79 8052   4.854  10.214   1.580 -0.1616  0.6270 -0.1511
   20CHTO  H201 8053   4.876  10.151   1.514 -1.6483 -1.3137  1.1771
   20CHTO  C120 8054   4.919  10.017   1.721  0.7326 -0.7888 -0.0028
   20CHTO  H224 8055   4.967   9.992   1.625  1.7217  0.3192  0.1996
   20CHTO   N21 8056   4.786   9.949   1.727  0.1121 -0.0664 -0.1439
   20CHTO  H211 8057   4.765   9.911   1.629  0.2606  1.0675 -0.6215
   20CHTO  H212 8058   4.711  10.024   1.749  0.7866  0.5273  0.1562
   20CHTO   O75 8059   5.021  10.391   1.768 -0.0043 -0.2808 -0.1458
   20CHTO  C112 8060   5.022  10.475   1.622 -0.1828  0.9755  0.0389
   20CHTO  H216 8061   4.989  10.411   1.539  2.1644 -1.3631  0.8661
   20CHTO   O73 8062   5.161  10.511   1.606 -0.5680  0.0758 -0.1287
   20CHTO  C113 8063   5.181  10.568   1.480 -0.0035  0.2572 -0.7410
   20CHTO  H217 8064   5.134  10.507   1.399 -0.6276  3.2654 -2.7219
   20CHTO  C124 8065   5.332  10.570   1.443  0.1975 -0.1518 -0.3797
   20CHTO   O83 8066   5.412  10.669   1.512  0.0430  0.2277 -0.0182
   20CHTO  H204 8067   5.496  10.672   1.472  0.3041  1.2049  0.5899
   20CHTO  C109 8068   5.106  10.700   1.476 -0.3020 -0.4790  0.1736
   20CHTO  H213 8069   5.161  10.769   1.542 -0.4209 -1.6527  1.5209
   20CHTO  C110 8070   4.952  10.685   1.517  0.1863 -0.2953 -0.0054
   20CHTO  H214 8071   4.898  10.647   1.431 -0.6889 -0.4959  0.6339
   20CHTO   O78 8072   4.897  10.822   1.537  0.4243  0.9870  0.2114
   20CHTO  H200 8073   4.803  10.819   1.548  0.5444 -1.9510  0.8462
   20CHTO  C111 8074   4.928  10.601   1.641  0.3642 -0.2723 -0.5164
   20CHTO  H215 8075   4.962  10.650   1.734 -1.5153  1.8200 -0.8850
   20CHTO   N19 8076   4.784  10.564   1.671 -0.0038  0.4373  0.2991
   20CHTO  H207 8077   4.761  10.461   1.695 -2.0782  1.0891  1.2167
   20CHTO  H208 8078   4.720  10.605   1.595 -2.7034  0.2238  2.3740
   20CHTO   O74 8079   5.111  10.744   1.334  0.2970 -0.6653  0.2161
   20CHTO  C115 8080   5.183  10.878   1.313 -0.2053 -0.0404  0.4761
   20CHTO  H219 8081   5.200  10.930   1.407  0.9469 -0.1143  0.3146
   20CHTO   O76 8082   5.330  10.861   1.255 -0.0510  0.1581  0.5153
   20CHTO  C122 8083   5.330  10.804   1.125  0.0444  0.0924 -0.2643
   20CHTO  H226 8084   5.313  10.697   1.136 -0.7266  0.0587 -1.6515
   20CHTO  C126 8085   5.475  10.821   1.067  0.0023  0.5066 -0.0479
   20CHTO   O85 8086   5.502  10.960   1.043  0.3972 -0.1513 -0.2969
   20CHTO  H206 8087   5.587  10.984   1.074 -1.4149  2.5034  3.1090
   20CHTO  C121 8088   5.214  10.852   1.030  0.1551  0.0667  0.2044
   20CHTO  H225 8089   5.271  10.870   0.936 -1.1178  2.9810 -0.0910
   20CHTO   O81 8090   5.110  10.755   1.011 -0.1786 -0.0409 -0.7850
   20CHTO  H202 8091   5.046  10.776   0.946 -1.0507 -0.2391 -0.0065
   20CHTO  C119 8092   5.162  10.985   1.078  0.7940  0.2775  0.2936
   20CHTO  H223 8093   5.250  11.048   1.095  0.3110  1.4237 -1.3591
   20CHTO  C117 8094   5.096  10.976   1.218 -0.5512  0.2910 -1.4115
   20CHTO  H221 8095   4.998  10.931   1.229  0.5921 -1.7389  1.1581
   20CHTO   N20 8096   5.087  11.116   1.288  0.0788  0.9999  0.3127
   20CHTO  H209 8097   4.982  11.134   1.302  0.2326  0.3579  2.5697
   20CHTO  H210 8098   5.131  11.124   1.386 -0.3574  2.4466  0.3979
   20CHTO   O80 8099   5.089  11.058   0.982 -0.2575  0.0622 -0.1414
   20CHTO  C103 8100   4.945  11.005   0.915  0.0232 -0.0411 -0.1197
   20CHTO  H190 8101   4.965  10.910   0.865  0.5003 -0.3399  0.6143
   20CHTO  C101 8102   4.823  10.966   1.011  0.0692 -0.3851 -0.3095
   20CHTO  H188 8103   4.797  11.042   1.085 -1.4244 -0.9553 -0.2133
   20CHTO   O68 8104   4.847  10.842   1.091  0.4108 -0.0329  0.3389
   20CHTO  H168 8105   4.792  10.828   1.166 -0.2887 -0.0136 -0.1758
   20CHTO   C99 8106   4.681  10.952   0.932  0.8867  0.4148  0.2615
   20CHTO  H186 8107   4.684  10.868   0.860 -1.3944  0.6751 -0.1670
   20CHTO   N17 8108   4.562  10.931   1.027  0.7082 -0.3665  0.0558
   20CHTO  H174 8109   4.477  10.944   0.963  0.5327  0.1004  0.3792
   20CHTO  H175 8110   4.573  10.830   1.065  0.3767  0.3333  2.0503
   20CHTO   C97 8111   4.670  11.078   0.845  0.1661 -0.3181 -0.1855
   20CHTO  H184 8112   4.685  11.158   0.919 -0.2875  0.0020 -0.4385
   20CHTO   O64 8113   4.775  11.070   0.751 -0.3684 -0.0829 -0.2359
   20CHTO  C104 8114   4.896  11.119   0.808 -0.0914  0.3411  0.3063
   20CHTO  H191 8115   4.875  11.210   0.864 -0.3224 -1.1515  2.6913
   20CHTO  C108 8116   4.999  11.151   0.701  0.4420 -0.0867 -0.0586
   20CHTO   O71 8117   4.955  11.262   0.622 -0.2639  0.2154  0.1808
   20CHTO  H171 8118   4.991  11.339   0.661  0.5173  0.3248 -0.7373
   20CHTO   O62 8119   4.550  11.091   0.772  0.5279 -0.7294  0.2177
   20CHTO   C91 8120   4.515  11.216   0.708 -0.3318  0.5377 -0.8549
   20CHTO  H178 8121   4.597  11.285   0.690 -1.6614  1.3844 -3.9309
   20CHTO   C92 8122   4.427  11.301   0.807  0.3581  0.2617 -0.1245
   20CHTO  H179 8123   4.353  11.227   0.841  0.2754  0.6227  0.4724
   20CHTO   O66 8124   4.501  11.334   0.924  0.6554 -0.1700 -0.5219
   20CHTO  H166 8125   4.452  11.332   1.004  0.7120  2.1654 -0.3687
   20CHTO   C93 8126   4.367  11.427   0.729 -0.5645  0.5528  0.1504
   20CHTO  H180 8127   4.447  11.501   0.718  0.6359 -0.5590  1.1559
   20CHTO   N16 8128   4.263  11.500   0.808  0.4309  0.3047 -0.0746
   20CHTO  H172 8129   4.265  11.605   0.783 -0.3050  0.9879  2.6232
   20CHTO  H173 8130   4.165  11.459   0.787 -0.8822  2.6057  1.2614
   20CHTO   C94 8131   4.310  11.388   0.593 -0.2052 -0.3251 -0.5735
   20CHTO  H181 8132   4.234  11.311   0.605  1.0383 -1.1524  2.4055
   20CHTO   O61 8133   4.419  11.335   0.516 -0.8345  0.7411  0.1225
   20CHTO   C95 8134   4.459  11.203   0.561 -0.0659  0.2542 -0.0047
   20CHTO  H182 8135   4.380  11.129   0.549  0.2952  0.0253 -1.0370
   20CHTO  C106 8136   4.564  11.151   0.458  0.0807 -0.1052 -0.4523
   20CHTO   O69 8137   4.635  11.032   0.498 -0.6298  0.5685  0.4586
   20CHTO  H169 8138   4.603  10.948   0.471  0.9273  0.0761  0.1378
   20CHTO   O63 8139   4.246  11.530   0.508 -0.5563 -0.0547 -0.2211
   20CHTO   C96 8140   4.227  11.498   0.354 -0.1827  0.4146 -0.4197
   20CHTO  H183 8141   4.282  11.405   0.337  1.8077  1.2379  1.3714
   20CHTO   C98 8142   4.292  11.607   0.268 -1.0453  0.0980 -0.3553
   20CHTO  H185 8143   4.278  11.708   0.310  1.1794  0.0589  0.5627
   20CHTO   O67 8144   4.435  11.586   0.288 -0.0328  0.0105  0.4526
   20CHTO  H167 8145   4.478  11.629   0.216 -0.8631 -1.2316 -0.8019
   20CHTO  C102 8146   4.245  11.604   0.113  0.1322  0.5680 -0.0176
   20CHTO  H189 8147   4.309  11.532   0.060  0.0735 -0.4027  1.2232
   20CHTO   N18 8148   4.273  11.735   0.052 -0.6535  0.1264  0.0818
   20CHTO  H176 8149   4.188  11.796   0.027  0.3747  1.3879 -0.3529
   20CHTO  H177 8150   4.333  11.717  -0.036 -2.0382 -0.3995 -0.7742
   20CHTO  C105 8151   4.094  11.560   0.104  0.0354  0.0424 -0.2701
   20CHTO  H192 8152   4.027  11.642   0.130  0.5611  0.1083  0.9191
   20CHTO   O65 8153   4.061  11.448   0.188 -0.4317 -0.4596 -0.7899
   20CHTO  C100 8154   4.077  11.485   0.322  0.3054 -1.2674  0.6178
   20CHTO  H187 8155   4.022  11.578   0.342 -0.8466 -1.7798 -0.1079
   20CHTO  C107 8156   4.020  11.371   0.411  0.8459  0.4048 -1.1096
   20CHTO   O70 8157   3.879  11.337   0.380 -0.1066  0.5733 -0.4678
   20CHTO  H170 8158   3.831  11.333   0.461 -0.2690  0.6630 -0.5600
   20CHTO   O57 8159   4.072  11.519  -0.048  0.7639 -0.3520  0.3475
   20CHTO   C85 8160   4.127  11.397  -0.105  0.1242  0.1396  0.3884
   20CHTO  H157 8161   4.180  11.356  -0.017 -1.4980  2.1040  2.3277
   20CHTO   C83 8162   4.228  11.429  -0.215 -0.1930  0.7912  0.4604
   20CHTO  H155 8163   4.323  11.465  -0.175 -0.2920  2.0347 -0.3778
   20CHTO   O56 8164   4.181  11.544  -0.286  0.1481 -0.4259  0.1682
   20CHTO  H135 8165   4.136  11.604  -0.229  1.4728 -1.0403  1.8959
   20CHTO   C81 8166   4.253  11.302  -0.304  0.0102 -0.1955  0.3633
   20CHTO  H153 8167   4.304  11.231  -0.239  0.9709  1.6596  1.6833
   20CHTO   N14 8168   4.361  11.329  -0.399  0.5636  0.2244  0.2237
   20CHTO  H141 8169   4.341  11.402  -0.475 -0.3718  0.7277  0.9354
   20CHTO  H142 8170   4.400  11.239  -0.440 -0.0905  0.0188  0.0516
   20CHTO   C79 8171   4.125  11.241  -0.367  0.4937  0.2755  0.6912
   20CHTO  H151 8172   4.152  11.156  -0.430 -2.0137 -0.2544  0.2816
   20CHTO   O52 8173   4.038  11.201  -0.258  0.4722  0.2054 -0.0486
   20CHTO   C86 8174   4.010  11.303  -0.151  0.2440 -0.1838  0.5875
   20CHTO  H158 8175   3.927  11.357  -0.201 -2.3115 -2.5475  2.0915
   20CHTO   C90 8176   3.946  11.232  -0.026  0.0748  0.4281  0.7337
   20CHTO   O60 8177   3.831  11.165  -0.075 -0.0440  0.1558  0.2890
   20CHTO  H138 8178   3.838  11.078  -0.039  2.1749  0.3896  0.4915
   20CHTO   O50 8179   4.050  11.334  -0.460 -1.0390 -0.1686 -0.2840
   20CHTO   C73 8180   3.963  11.361  -0.570 -0.2026 -0.4066  0.3053
   20CHTO  H145 8181   4.007  11.317  -0.661 -1.9341 -0.5962 -0.4449
   20CHTO   C74 8182   3.954  11.515  -0.579  0.0528  0.1639  0.7548
   20CHTO  H146 8183   4.056  11.555  -0.583 -0.8632  2.4518 -1.1848
   20CHTO   O54 8184   3.900  11.543  -0.716 -0.1822 -0.7099 -0.9322
   20CHTO  H133 8185   3.955  11.520  -0.788 -0.7122 -1.4859 -1.0886
   20CHTO   C75 8186   3.869  11.574  -0.457 -0.1596  0.2266 -0.3344
   20CHTO  H147 8187   3.923  11.549  -0.364  1.3583  2.2786 -0.6151
   20CHTO   N13 8188   3.859  11.720  -0.459  0.0065 -0.0541 -0.1812
   20CHTO  H139 8189   3.764  11.758  -0.423  0.6142  2.3098 -0.9811
   20CHTO  H140 8190   3.937  11.756  -0.395  0.2484  1.4498 -1.3038
   20CHTO   C76 8191   3.726  11.496  -0.453 -0.4141  0.1151  0.4159
   20CHTO  H148 8192   3.671  11.507  -0.546  0.4739 -0.3208 -0.1790
   20CHTO   O49 8193   3.753  11.350  -0.446 -0.0836 -0.1251  0.0616
   20CHTO   C77 8194   3.821  11.291  -0.552  0.1450  0.1104 -0.3071
   20CHTO  H149 8195   3.757  11.304  -0.640  0.2191 -1.8480 -0.6754
   20CHTO   C88 8196   3.831  11.138  -0.525 -0.5095 -0.2405  0.6120
   20CHTO   O58 8197   3.704  11.065  -0.511  0.7347  0.7562 -0.4799
   20CHTO  H136 8198   3.665  11.055  -0.596 -0.4509 -3.2704  0.4422
   20CHTO   O51 8199   3.647  11.539  -0.330  0.2323 -0.1095 -0.9595
   20CHTO   C78 8200   3.620  11.439  -0.212 -0.3088 -0.3710  0.2136
   20CHTO  H150 8201   3.703  11.366  -0.212 -1.1443 -1.3436 -1.0477
   20CHTO   C80 8202   3.491  11.369  -0.232 -0.0715  0.5534  0.1732
   20CHTO  H152 8203   3.411  11.443  -0.253  0.9575  1.4777 -0.5193
   20CHTO   O55 8204   3.508  11.299  -0.358 -0.0984 -0.8024 -0.5050
   20CHTO  H134 8205   3.429  11.265  -0.393 -0.9446  1.1555 -0.5874
   20CHTO   C84 8206   3.454  11.264  -0.122  0.1372 -0.4854 -0.1785
   20CHTO  H156 8207   3.535  11.192  -0.113  0.6184  0.1008  0.1612
   20CHTO   N15 8208   3.320  11.197  -0.138  0.4897  0.6663  0.8102
   20CHTO  H143 8209   3.249  11.274  -0.157  0.0802  0.0766 -0.0818
   20CHTO  H144 8210   3.328  11.138  -0.227  0.0792 -0.2130  1.3520
   20CHTO   C87 8211   3.469  11.325   0.025 -0.2626 -0.0061 -0.2392
   20CHTO  H159 8212   3.376  11.379   0.042 -0.3508 -0.7020  1.5779
   20CHTO   O53 8213   3.604  11.421   0.035  0.0409  0.1764 -0.7447
   20CHTO   C82 8214   3.619  11.509  -0.079  0.1617 -0.8210 -0.6220
   20CHTO  H154 8215   3.540  11.584  -0.089 -1.7075 -2.7124 -0.2244
   20CHTO   C89 8216   3.750  11.587  -0.059 -0.0400  0.0322 -0.5074
   20CHTO   O59 8217   3.739  11.685   0.044 -0.6000 -0.0017 -0.2247
   20CHTO  H137 8218   3.691  11.641   0.111  1.8328 -2.1985  0.1587
   20CHTO   O45 8219   3.493  11.190   0.141 -0.1934  0.1632  0.3886
   20CHTO   C67 8220   3.577  11.212   0.256  0.3007  0.5620 -0.5188
   20CHTO  H124 8221   3.662  11.275   0.231  0.4522  0.9332  0.8458
   20CHTO   C65 8222   3.494  11.288   0.369  0.2592  0.1544  0.1159
   20CHTO  H122 8223   3.390  11.291   0.337  0.4918  2.4448 -0.4549
   20CHTO   O44 8224   3.538  11.420   0.391  0.9040  0.0405  0.2046
   20CHTO  H102 8225   3.492  11.473   0.329 -1.8945  1.0034  2.9746
   20CHTO   C63 8226   3.478  11.194   0.501  0.1232 -0.3453 -0.5707
   20CHTO  H120 8227   3.422  11.104   0.477 -0.8248 -0.4705  1.9771
   20CHTO   N11 8228   3.403  11.249   0.616 -0.2974  1.1279  0.2145
   20CHTO  H108 8229   3.302  11.277   0.596 -0.5128  1.7005  1.9837
   20CHTO  H109 8230   3.406  11.203   0.713 -1.3172 -0.4383 -0.4702
   20CHTO   C61 8231   3.624  11.151   0.551 -0.4717  0.1514  0.4592
   20CHTO  H118 8232   3.612  11.069   0.624  2.0332 -0.1733  0.5418
   20CHTO   O40 8233   3.701  11.096   0.442 -0.4399  0.1401 -0.2758
   20CHTO   C68 8234   3.638  11.073   0.306 -0.0496 -0.5915 -0.0484
   20CHTO  H125 8235   3.546  11.014   0.326 -0.3436  0.4856  1.8982
   20CHTO   C72 8236   3.730  11.002   0.201 -0.0179 -0.1680 -0.0439
   20CHTO   O48 8237   3.664  10.968   0.073 -0.0166 -0.5367 -0.2439
   20CHTO  H105 8238   3.737  10.946   0.018  0.4320 -0.5735  0.3611
   20CHTO   O38 8239   3.716  11.254   0.601  0.0184  0.1439 -0.1851
   20CHTO   C55 8240   3.728  11.271   0.745 -0.1910  1.0431 -0.2715
   20CHTO  H112 8241   3.636  11.229   0.789  0.2623  2.1206  1.7611
   20CHTO   C56 8242   3.733  11.425   0.776  0.0683  0.0003 -0.7148
   20CHTO  H113 8243   3.809  11.455   0.703  1.9921 -0.5641  1.0157
   20CHTO   O42 8244   3.608  11.488   0.743  0.2757  0.4448 -0.4078
   20CHTO  H100 8245   3.612  11.581   0.741 -0.2306  0.4519 -1.1914
   20CHTO   C57 8246   3.780  11.464   0.919 -0.4382  0.9605 -0.3404
   20CHTO  H114 8247   3.704  11.459   0.997 -0.0345  1.3894  0.0881
   20CHTO   N10 8248   3.826  11.602   0.930  0.4214  0.2436 -0.4415
   20CHTO  H106 8249   3.739  11.663   0.948  1.2498  1.0248  1.0850
   20CHTO  H107 8250   3.907  11.631   0.996  0.3107  2.3204 -1.1870
   20CHTO   C58 8251   3.896  11.372   0.961  0.2355  0.3798 -0.2362
   20CHTO  H115 8252   3.992  11.401   0.914  0.0575 -0.4677 -1.1474
   20CHTO   O37 8253   3.878  11.235   0.932  0.6950  0.3066  0.0121
   20CHTO   C59 8254   3.844  11.192   0.799  0.5314  0.0443  0.1944
   20CHTO  H116 8255   3.927  11.208   0.730 -0.3949 -0.1629 -0.9996
   20CHTO   C70 8256   3.816  11.042   0.820  0.6348 -0.1434  0.6817
   20CHTO   O46 8257   3.825  10.970   0.694  0.5408 -0.4585 -0.0603
   20CHTO  H103 8258   3.907  10.964   0.649 -0.6784 -4.3151 -1.9985
   20CHTO   O39 8259   3.908  11.367   1.133 -0.7130 -0.1072 -0.2221
   20CHTO   C60 8260   4.021  11.295   1.188  0.1321  0.2784 -0.8135
   20CHTO  H117 8261   4.038  11.206   1.127  0.3183  0.1828 -0.6215
   20CHTO   C62 8262   4.147  11.381   1.180 -0.9480 -0.1516 -0.0763
   20CHTO  H119 8263   4.182  11.394   1.075 -0.0595 -0.3947  0.1855
   20CHTO   O43 8264   4.126  11.512   1.234  0.3586 -0.7464 -0.5812
   20CHTO  H101 8265   4.101  11.566   1.161  1.4553 -1.5780 -1.5852
   20CHTO   C66 8266   4.270  11.304   1.256  0.4891  0.1605 -0.4552
   20CHTO  H123 8267   4.288  11.209   1.206  0.3268  0.6047 -1.3683
   20CHTO   N12 8268   4.403  11.377   1.252  0.6225 -0.5607 -0.4382
   20CHTO  H110 8269   4.485  11.338   1.310  0.2391 -0.6926  0.0239
   20CHTO  H111 8270   4.426  11.422   1.157  0.3627 -0.1018 -0.2881
   20CHTO   C69 8271   4.227  11.266   1.401 -0.3657 -0.1043  0.0151
   20CHTO  H126 8272   4.205  11.345   1.476 -0.1773  0.4031 -0.4592
   20CHTO   O41 8273   4.103  11.175   1.389  0.3042 -0.6433  0.2296
   20CHTO   C64 8274   3.989  11.251   1.332 -0.3132  0.6147  0.4719
   20CHTO  H121 8275   3.963  11.335   1.400 -0.1366  1.8292 -0.9227
   20CHTO   C71 8276   3.873  11.148   1.332  0.3248 -0.6333 -0.5762
   20CHTO   O47 8277   3.754  11.177   1.255  0.1933  0.1595 -0.0915
   20CHTO  H104 8278   3.675  11.145   1.294 -0.3902 -1.0525 -2.2010
   20CHTO   O34 8279   4.341  11.183   1.461 -0.1417  0.4041  0.2090
   20CHTO   C49 8280   4.359  11.028   1.494 -0.5446 -0.0878 -0.3550
   20CHTO   H91 8281   4.347  10.987   1.393  1.2122 -3.2123  0.6093
   20CHTO   C47 8282   4.250  10.973   1.588 -0.3024 -0.2561  0.3266
   20CHTO   H89 8283   4.162  10.971   1.520 -0.2281 -1.6917  0.2570
   20CHTO   O33 8284   4.227  11.072   1.687 -0.0302 -0.1438  0.3096
   20CHTO   H70 8285   4.136  11.077   1.706 -0.0371 -3.6445  1.6084
   20CHTO   C45 8286   4.303  10.839   1.662  0.8411  0.5412  0.0012
   20CHTO   H87 8287   4.359  10.874   1.750 -1.1354  1.9240  0.7329
   20CHTO    N8 8288   4.183  10.765   1.705  0.6636  0.2313 -1.0149
   20CHTO   H75 8289   4.217  10.678   1.759  1.4881 -0.6594 -2.9454
   20CHTO   H76 8290   4.110  10.821   1.761  1.2934 -1.3131  1.4145
   20CHTO   C43 8291   4.407  10.761   1.568 -0.1706 -0.0666 -0.2246
   20CHTO   H85 8292   4.426  10.670   1.626 -3.4524  0.0581  1.1348
   20CHTO   O29 8293   4.529  10.844   1.555  0.2791 -0.2805 -0.2745
   20CHTO   C50 8294   4.501  10.986   1.544  0.3011  0.1785  1.3023
   20CHTO   H92 8295   4.511  11.033   1.642  0.3326  1.5728  0.6352
   20CHTO   C54 8296   4.613  11.053   1.467  0.7678 -0.4303 -0.4642
   20CHTO   O36 8297   4.622  11.021   1.328  0.2677 -0.3136  0.2481
   20CHTO   H72 8298   4.705  11.038   1.287 -0.0393 -1.0926 -0.7292
   20CHTO   O27 8299   4.363  10.709   1.445 -0.4277  0.3046 -0.0445
   20CHTO   C37 8300   4.335  10.660   1.313 -0.1013  0.5085 -0.2599
   20CHTO   H79 8301   4.279  10.566   1.320  1.0023 -0.1099  0.3890
   20CHTO   C38 8302   4.251  10.754   1.224  0.5805 -0.2343 -0.2908
   20CHTO   H80 8303   4.318  10.838   1.205  0.6955 -0.5024 -1.0878
   20CHTO   O31 8304   4.132  10.799   1.296 -0.2401  0.3592 -0.4345
   20CHTO   H68 8305   4.078  10.725   1.314 -0.2128  0.6092  0.6912
   20CHTO   C39 8306   4.221  10.692   1.084  0.2286 -0.2982  0.7540
   20CHTO   H81 8307   4.152  10.608   1.100  0.6141 -0.5261  1.2679
   20CHTO    N7 8308   4.159  10.783   0.986  0.1745 -0.1653 -0.2676
   20CHTO   H73 8309   4.216  10.875   0.986  1.3801 -0.8836  0.4486
   20CHTO   H74 8310   4.156  10.731   0.892  0.5301 -2.9624  1.2135
   20CHTO   C40 8311   4.357  10.635   1.020  0.1306 -0.7219  0.1512
   20CHTO   H82 8312   4.411  10.724   0.985  0.4110 -1.0319 -0.1991
   20CHTO   O26 8313   4.437  10.556   1.107  0.8794  0.2650  0.1135
   20CHTO   C41 8314   4.464  10.621   1.236  0.1636  0.0673  0.1813
   20CHTO   H83 8315   4.523  10.710   1.211 -0.4391  0.3901 -0.0854
   20CHTO   C52 8316   4.551  10.521   1.323 -0.2735  0.4000 -0.1163
   20CHTO   O35 8317   4.693  10.529   1.299  1.2210  0.4379  0.1978
   20CHTO   H71 8318   4.728  10.604   1.344 -0.0278  0.4030  1.2607
   20CHTO   O28 8319   4.334  10.548   0.908 -0.4225  0.0725 -0.0347
   20CHTO   C42 8320   4.437  10.477   0.824  0.3299  0.0421  0.5179
   20CHTO   H84 8321   4.382  10.422   0.747 -3.2221  0.6826  2.4830
   20CHTO   C44 8322   4.531  10.373   0.893 -0.6543  0.5719  0.3256
   20CHTO   H86 8323   4.584  10.422   0.975 -2.6936 -0.0758  2.0583
   20CHTO   O32 8324   4.438  10.278   0.947  0.1938 -0.0251  0.4386
   20CHTO   H69 8325   4.444  10.262   1.039  3.0213 -0.5298  0.1995
   20CHTO   C48 8326   4.638  10.305   0.803 -0.4535  0.4590  0.3202
   20CHTO   H90 8327   4.591  10.244   0.726  0.8526 -0.0529 -0.0924
   20CHTO    N9 8328   4.725  10.214   0.875 -0.3165  0.2022  0.0956
   20CHTO   H77 8329   4.758  10.247   0.973 -0.3165  0.4184  0.0227
   20CHTO   H78 8330   4.818  10.183   0.828  0.4333  1.2633  0.8444
   20CHTO   C51 8331   4.714  10.425   0.735 -0.6607 -0.1968  0.0193
   20CHTO   H93 8332   4.758  10.488   0.812 -0.8215 -1.7007  1.3641
   20CHTO   O30 8333   4.620  10.500   0.654 -0.3916  0.0406  0.2629
   20CHTO   C46 8334   4.527  10.579   0.753  0.6519  0.6899 -0.6592
   20CHTO   H88 8335   4.591  10.629   0.825  0.5208  0.7222 -0.5641
   20CHTO   C53 8336   4.443  10.690   0.681  0.0146 -0.1820  0.1052
   20CHTO   O72 8337   4.540  10.788   0.646  0.0346  0.6351 -0.0036
   20CHTO  H199 8338   4.492  10.868   0.658 -0.1580  0.4879  0.2058
   20CHTO   O22 8339   4.818  10.393   0.641 -0.1753  0.3216 -0.4815
   20CHTO   C31 8340   4.931  10.478   0.612  0.2578 -0.3890 -0.4754
   20CHTO   H59 8341   4.990  10.417   0.540  0.5330  1.1106 -1.5491
   20CHTO   C29 8342   4.898  10.618   0.546  1.1289  0.6331  0.7082
   20CHTO   H57 8343   4.833  10.666   0.622  3.4694 -0.5942  3.5863
   20CHTO   O21 8344   4.820  10.601   0.428  0.4331  0.0838  0.1982
   20CHTO   H37 8345   4.730  10.574   0.434 -0.4074  2.1967 -2.0437
   20CHTO   C27 8346   5.024  10.708   0.521  0.8294  0.3305 -0.0167
   20CHTO   H55 8347   5.084  10.652   0.448  1.9682  1.3429  0.1372
   20CHTO    N5 8348   4.985  10.841   0.464 -0.8792 -0.2890 -0.7678
   20CHTO   H43 8349   4.898  10.835   0.401 -1.5321  0.6545  0.0289
   20CHTO   H44 8350   4.972  10.920   0.537  0.4669  1.7119 -2.6274
   20CHTO   C25 8351   5.098  10.726   0.656 -0.3074  0.1028 -0.3100
   20CHTO   H53 8352   5.027  10.776   0.725 -2.9089 -0.5001 -2.4738
   20CHTO   O17 8353   5.137  10.591   0.714 -0.2127 -0.1497  1.1113
   20CHTO   C32 8354   5.025  10.505   0.738 -0.7458  0.1322  0.2507
   20CHTO   H60 8355   4.965  10.543   0.820 -1.7732 -1.5978  0.3256
   20CHTO   C36 8356   5.090  10.370   0.782  0.7355  0.5153  0.1105
   20CHTO   O25 8357   5.115  10.379   0.925  0.2044  0.1283  0.2954
   20CHTO   H40 8358   5.119  10.294   0.966  2.1753 -0.6932 -1.4591
   20CHTO   O15 8359   5.224  10.808   0.648  0.1761  0.3961 -0.6904
   20CHTO   C19 8360   5.346  10.845   0.583  0.5024 -0.9926  0.0585
   20CHTO   H47 8361   5.311  10.889   0.489  1.2028 -1.6125 -0.4973
   20CHTO   C20 8362   5.426  10.943   0.674  0.0186 -0.3283  0.8792
   20CHTO   H48 8363   5.455  10.898   0.770  1.5188  1.5888  1.3619
   20CHTO   O19 8364   5.340  11.057   0.700  1.0497 -0.2661 -0.0607
   20CHTO   H35 8365   5.367  11.139   0.661 -2.6646  0.6454 -0.8830
   20CHTO   C21 8366   5.568  10.976   0.591 -0.3994 -0.2817  0.0437
   20CHTO   H49 8367   5.544  11.025   0.497 -1.7868  1.9423  1.5228
   20CHTO    N4 8368   5.655  11.063   0.669  0.2830  0.3943 -0.1744
   20CHTO   H41 8369   5.616  11.163   0.669 -1.4033 -0.2311  1.2920
   20CHTO   H42 8370   5.755  11.064   0.628  0.4506  1.6681  0.2456
   20CHTO   C22 8371   5.637  10.838   0.560 -0.5708 -0.0538 -0.4483
   20CHTO   H50 8372   5.650  10.798   0.661 -0.4481 -1.8762 -1.1571
   20CHTO   O14 8373   5.551  10.755   0.485 -0.2704  0.6416  0.1090
   20CHTO   C23 8374   5.427  10.717   0.549 -0.1416  0.1176  0.1354
   20CHTO   H51 8375   5.445  10.658   0.640  0.4802  2.6638  1.7022
   20CHTO   C34 8376   5.352  10.625   0.453 -0.0174 -0.2551  0.5839
   20CHTO   O23 8377   5.399  10.482   0.446 -0.7052  0.6445 -0.2967
   20CHTO   H38 8378   5.337  10.433   0.396 -2.6271  3.4808 -0.8157
   20CHTO   O16 8379   5.756  10.850   0.483 -0.0377 -0.2239 -0.2247
   20CHTO   C24 8380   5.842  10.710   0.479 -0.2406 -0.3022 -0.7059
   20CHTO   H52 8381   5.787  10.625   0.522  0.8002 -0.7363 -0.2084
   20CHTO   C26 8382   5.973  10.731   0.554 -0.2105  0.4133 -0.0936
   20CHTO   H54 8383   6.016  10.821   0.505 -1.2145  0.1474 -1.5224
   20CHTO   O20 8384   5.931  10.747   0.692  0.8127 -0.9455 -0.2355
   20CHTO   H36 8385   5.901  10.673   0.740 -0.2902 -1.5950 -1.8661
   20CHTO   C30 8386   6.069  10.608   0.543 -0.2099  0.6623  0.6148
   20CHTO   H58 8387   6.027  10.525   0.601  0.0228 -1.2179 -1.8719
   20CHTO    N6 8388   6.199  10.647   0.597  0.2230 -0.2864 -0.2606
   20CHTO   H45 8389   6.225  10.746   0.562 -2.4361  0.5053 -0.0913
   20CHTO   H46 8390   6.186  10.654   0.704  0.1777  2.8562 -0.4354
   20CHTO   C33 8391   6.072  10.550   0.398  0.1882 -0.5330  0.1922
   20CHTO   H61 8392   6.146  10.603   0.336 -0.3372  0.1016  0.0967
   20CHTO   O18 8393   5.944  10.549   0.332 -0.0344  0.3201 -0.3390
   20CHTO   C28 8394   5.880  10.677   0.338  0.5413  0.1427 -0.3481
   20CHTO   H56 8395   5.948  10.753   0.298 -1.2860  1.0269 -1.8617
   20CHTO   C35 8396   5.762  10.693   0.241 -0.1742  0.4949  0.2834
   20CHTO   O24 8397   5.654  10.605   0.246  1.5858 -0.6322 -0.2491
   20CHTO   H39 8398   5.693  10.520   0.236  1.6995 -0.4055 -1.9507
   20CHTO    O9 8399   6.123  10.411   0.415  0.5198 -0.2701 -0.0888
   20CHTO   C13 8400   6.081  10.310   0.303 -0.2516  0.3357  0.4348
   20CHTO   H26 8401   6.089  10.370   0.211 -0.0952  1.6253  1.2741
   20CHTO   C11 8402   5.936  10.253   0.328  0.4043 -0.3020 -0.3801
   20CHTO   H24 8403   5.860  10.318   0.281 -0.3980 -0.0561  1.2441
   20CHTO    O8 8404   5.899  10.262   0.465 -0.3918  0.6058  0.0095
   20CHTO    H3 8405   5.947  10.204   0.521 -1.3578 -1.5111 -1.2876
   20CHTO    C9 8406   5.921  10.106   0.278 -0.8824  0.2246  0.1980
   20CHTO   H22 8407   5.940  10.112   0.170 -2.7482  3.1922 -0.0167
   20CHTO    N2 8408   5.782  10.050   0.277  0.1588  0.0105 -0.6912
   20CHTO   H10 8409   5.715  10.115   0.221 -0.5025  0.0899  0.1884
   20CHTO   H11 8410   5.787   9.953   0.230  1.1670 -1.3896  2.2485
   20CHTO    C7 8411   6.027  10.009   0.336  0.4441 -0.0805  0.2042
   20CHTO   H20 8412   6.042   9.926   0.264  1.8031  0.2628  0.0800
   20CHTO    O4 8413   6.156  10.071   0.354 -0.6252 -0.4114 -0.6485
   20CHTO   C14 8414   6.187  10.190   0.284 -0.1721 -0.2489  0.2534
   20CHTO   H27 8415   6.188  10.156   0.178  3.1622 -0.5442  0.3178
   20CHTO   C18 8416   6.334  10.241   0.310 -0.3875 -0.3134  0.9767
   20CHTO   O13 8417   6.430  10.151   0.259  0.0956  0.2057  0.2863
   20CHTO    H7 8418   6.444  10.081   0.319 -1.0165  0.8867  1.3662
   20CHTO    O2 8419   5.973   9.974   0.487 -0.1173 -0.1252 -0.5382
   20CHTO    C1 8420   5.980   9.840   0.528 -0.4526 -0.4778 -0.0681
   20CHTO   H14 8421   5.955   9.838   0.636 -2.5269  0.8092 -0.5012
   20CHTO    C2 8422   6.119   9.771   0.497 -0.0962 -0.2286 -0.6044
   20CHTO   H15 8423   6.119   9.777   0.388  3.4364  4.4659 -0.5311
   20CHTO    O6 8424   6.227   9.854   0.552 -0.9493 -0.7029 -0.8128
   20CHTO    H1 8425   6.313   9.826   0.529 -0.1796  0.3538  0.6825
   20CHTO    C3 8426   6.130   9.617   0.541 -0.7754 -0.8257 -0.3062
   20CHTO   H16 8427   6.119   9.613   0.651 -1.7383 -1.2413 -0.4127
   20CHTO    N1 8428   6.258   9.555   0.512 -0.5309  0.2049  0.9390
   20CHTO    H8 8429   6.254   9.530   0.407  1.6537 -1.0399  1.1206
   20CHTO    H9 8430   6.290   9.479   0.581  1.0137  0.2365  0.2647
   20CHTO    C4 8431   6.002   9.551   0.479  0.0116 -0.0828 -0.0174
   20CHTO   H17 8432   6.008   9.545   0.370 -2.0810 -0.8559 -0.0995
   20CHTO    O1 8433   5.878   9.614   0.520 -0.1906 -0.2004  0.4157
   20CHTO    C5 8434   5.870   9.753   0.464  0.0673 -0.1404  0.3891
   20CHTO   H18 8435   5.873   9.764   0.355 -0.5271 -1.2627  0.2507
   20CHTO   C16 8436   5.735   9.799   0.507 -0.9702 -0.3098 -0.7510
   20CHTO   O11 8437   5.641   9.726   0.428  0.3135 -0.1853 -0.0412
   20CHTO    H5 8438   5.551   9.753   0.436  0.4593  0.8102 -1.6315
   20CHTO    O3 8439   5.983   9.417   0.529  0.0542  0.3430 -0.7291
   20CHTO    C6 8440   5.890   9.335   0.446  0.5339  0.3052 -0.4626
   20CHTO   H19 8441   5.815   9.391   0.389  0.3134 -1.2783 -1.7425
   20CHTO    C8 8442   5.965   9.242   0.346  0.2698  0.1433 -0.5277
   20CHTO   H21 8443   6.020   9.167   0.403 -0.7233  0.5918  1.0499
   20CHTO    O7 8444   6.051   9.320   0.262 -0.1127 -0.8344 -0.1047
   20CHTO    H2 8445   6.121   9.362   0.308 -2.0563  1.4413  0.8865
   20CHTO   C12 8446   5.859   9.151   0.273  0.5741  0.4245  0.5786
   20CHTO   H25 8447   5.798   9.222   0.214  0.0956 -0.9062 -0.5692
   20CHTO    N3 8448   5.927   9.056   0.175  0.2646  0.1610 -0.1241
   20CHTO   H12 8449   5.899   9.090   0.077 -0.3058  0.3085  0.0897
   20CHTO   H13 8450   5.894   8.956   0.200  0.6589  0.5295  2.0194
   20CHTO   C15 8451   5.762   9.081   0.374  1.2049  0.0095  0.1335
   20CHTO   H28 8452   5.814   8.997   0.420  1.8284 -0.6636 -1.7465
   20CHTO   O10 8453   5.629   9.023   0.315  0.0093  0.2901  0.3377
   20CHTO    H4 8454   5.643   8.940   0.274  0.7991  0.0455  1.0857
   20CHTO    O5 8455   5.706   9.167   0.468 -0.3269  0.6716  0.0622
   20CHTO   C10 8456   5.804   9.244   0.541 -0.2862  0.8365  0.1855
   20CHTO   H23 8457   5.871   9.172   0.589  1.6066  1.7212 -1.0721
   20CHTO   C17 8458   5.733   9.326   0.643 -0.0963 -0.7240  0.1558
   20CHTO   O12 8459   5.657   9.239   0.734  0.3624 -0.1326  0.5995
   20CHTO    H6 8460   5.588   9.192   0.692  1.8159 -2.5756  0.8792
   21GLOH   H03 8461   3.228   8.092   0.652  0.2899 -0.9019 -1.1734
   21GLOH    O1 8462   3.267   8.035   0.721  0.5305 -0.0082 -0.5628
   21GLOH    C1 8463   3.367   7.949   0.671  0.0665  0.5108 -0.1868
   21GLOH   H02 8464   3.360   7.961   0.563 -1.4584  1.6966  0.0279
   21GLOH   H08 8465   3.353   7.842   0.687 -3.9573  0.8529 -0.7892
   21GLOH    C2 8466   3.512   7.974   0.714 -1.1823  0.8761  0.3833
   21GLOH   H04 8467   3.566   7.889   0.670 -0.0088  2.2401 -0.8596
   21GLOH    O2 8468   3.558   8.100   0.665  0.0078 -0.1789  0.4996
   21GLOH   H05 8469   3.645   8.121   0.702  1.0702 -0.1145 -1.9845
   21GLOH    C3 8470   3.531   7.957   0.866 -0.4751 -0.3121  0.1079
   21GLOH   H06 8471   3.516   7.852   0.891 -2.3324  0.1542  1.0350
   21GLOH   H07 8472   3.452   8.010   0.920 -0.8695 -1.2472  0.4581
   21GLOH    O3 8473   3.664   7.985   0.905  0.4247 -0.1199 -0.5251
   21GLOH   H01 8474   3.691   7.948   0.991  0.3314  0.4453 -0.2488
   22GLOH   H03 8475   3.489   8.597   2.187 -1.2371 -1.1732  0.4138
   22GLOH    O1 8476   3.538   8.539   2.249 -0.2322 -0.5407  0.2347
   22GLOH    C1 8477   3.598   8.613   2.358 -0.2511 -0.4071  0.1380
   22GLOH   H02 8478   3.569   8.718   2.368  1.4122  0.1047 -0.3005
   22GLOH   H08 8479   3.705   8.610   2.341 -0.8108 -1.1585 -3.6829
   22GLOH    C2 8480   3.575   8.557   2.498  0.1266  0.0146 -0.0743
   22GLOH   H04 8481   3.642   8.471   2.505  1.7692  1.1158 -1.6446
   22GLOH    O2 8482   3.625   8.656   2.589 -0.0138  0.1691 -0.2436
   22GLOH   H05 8483   3.718   8.669   2.566  0.4478 -1.6812  0.5197
   22GLOH    C3 8484   3.426   8.528   2.518  0.0447  0.8685  0.0947
   22GLOH   H06 8485   3.382   8.458   2.447  0.1483 -1.0338  1.8579
   22GLOH   H07 8486   3.375   8.624   2.503  1.3742  1.5442 -0.1945
   22GLOH    O3 8487   3.403   8.462   2.651 -0.1994  0.3481  0.3096
   22GLOH   H01 8488   3.412   8.519   2.730  1.1395 -2.0572  1.9465
   23GLOH   H03 8489   3.218   8.921   0.507 -0.3111 -0.3436 -0.2594
   23GLOH    O1 8490   3.256   8.880   0.586 -0.1963 -0.0337 -0.1526
   23GLOH    C1 8491   3.147   8.839   0.667  0.3783  0.1957 -0.4836
   23GLOH   H02 8492   3.150   8.730   0.667 -0.6412  0.1661 -0.7435
   23GLOH   H08 8493   3.054   8.875   0.623  0.0463 -0.4946 -0.3546
   23GLOH    C2 8494   3.162   8.879   0.815 -0.5623 -0.0073  0.5215
   23GLOH   H04 8495   3.064   8.867   0.863 -0.9657 -1.0121 -0.5442
   23GLOH    O2 8496   3.265   8.801   0.888  0.8546 -0.2257  0.0244
   23GLOH   H05 8497   3.229   8.715   0.916 -1.5517  0.6064 -0.3929
   23GLOH    C3 8498   3.193   9.028   0.823  0.2747 -0.2858  0.4519
   23GLOH   H06 8499   3.287   9.046   0.772  0.7867 -0.0655  1.4691
   23GLOH   H07 8500   3.203   9.066   0.924 -2.4700  1.5057  0.1157
   23GLOH    O3 8501   3.088   9.109   0.769  0.3465  0.6994  0.7585
   23GLOH   H01 8502   3.004   9.087   0.814  0.7813 -0.9046  0.7824
   24GLOH   H03 8503   2.862   9.430   1.260  0.4458  1.2500  3.1395
   24GLOH    O1 8504   2.950   9.390   1.257  0.1798  0.8366 -0.5644
   24GLOH    C1 8505   2.992   9.402   1.119 -0.3125  0.0098 -0.0798
   24GLOH   H02 8506   3.042   9.309   1.094 -1.2119  0.0019 -1.9162
   24GLOH   H08 8507   3.059   9.486   1.098  0.3199 -0.3290  0.5566
   24GLOH    C2 8508   2.876   9.399   1.017 -0.7066 -0.3064 -0.7984
   24GLOH   H04 8509   2.831   9.299   1.018 -0.8206 -0.2553 -0.7721
   24GLOH    O2 8510   2.776   9.497   1.041 -0.1567  0.0967  0.0082
   24GLOH   H05 8511   2.690   9.452   1.051  0.6302 -1.3845  0.2498
   24GLOH    C3 8512   2.937   9.422   0.878 -0.4504 -0.0010  0.4058
   24GLOH   H06 8513   3.020   9.352   0.872  0.2116  0.5473  2.8833
   24GLOH   H07 8514   2.986   9.519   0.882 -0.8812  0.1783  1.4022
   24GLOH    O3 8515   2.840   9.405   0.772 -0.0489  0.8639 -0.0901
   24GLOH   H01 8516   2.865   9.467   0.701  1.7796  1.0775  0.6996
   25GLOH   H03 8517   3.878   8.309   0.026  1.2755  0.6026 -0.1027
   25GLOH    O1 8518   3.863   8.362   0.106 -0.1877 -0.4554  0.3509
   25GLOH    C1 8519   3.723   8.361   0.131  0.1013 -0.2942  0.1509
   25GLOH   H02 8520   3.664   8.350   0.040 -2.3026 -0.7747  1.7332
   25GLOH   H08 8521   3.687   8.455   0.173  1.7117 -1.1156  3.5395
   25GLOH    C2 8522   3.681   8.244   0.225 -0.3517 -0.1635  0.3795
   25GLOH   H04 8523   3.640   8.158   0.169 -0.8468  0.5816 -0.4263
   25GLOH    O2 8524   3.786   8.199   0.310 -0.6356 -0.1234 -0.0596
   25GLOH   H05 8525   3.868   8.213   0.259  0.1086  2.2202  1.6729
   25GLOH    C3 8526   3.570   8.287   0.319  0.1506 -1.1339  0.2185
   25GLOH   H06 8527   3.609   8.369   0.380  0.6870 -1.1863 -0.0478
   25GLOH   H07 8528   3.537   8.204   0.382 -1.0575 -1.4212 -0.7776
   25GLOH    O3 8529   3.449   8.336   0.263 -0.3025  0.0739 -0.0426
   25GLOH   H01 8530   3.389   8.262   0.243  0.8616 -1.0083  0.3701
   26GLOH   H03 8531   4.527   9.516   0.843  0.2176 -0.1699  0.7960
   26GLOH    O1 8532   4.606   9.477   0.885  0.5192 -0.6390 -0.1866
   26GLOH    C1 8533   4.559   9.377   0.980  0.3127  0.1511 -0.1144
   26GLOH   H02 8534   4.642   9.327   1.030 -0.2876 -0.1938  0.5328
   26GLOH   H08 8535   4.513   9.302   0.915  1.3653 -0.7374  0.1457
   26GLOH    C2 8536   4.471   9.439   1.086  0.1693 -0.4243  0.3871
   26GLOH   H04 8537   4.386   9.488   1.038  1.0196  1.4712  0.7929
   26GLOH    O2 8538   4.420   9.336   1.174  0.2423 -0.7202  0.2231
   26GLOH   H05 8539   4.348   9.290   1.127  0.5462  0.5963 -1.5788
   26GLOH    C3 8540   4.555   9.543   1.164 -0.0467  0.1364 -0.2810
   26GLOH   H06 8541   4.609   9.596   1.086  2.0545 -0.3867  0.7791
   26GLOH   H07 8542   4.625   9.483   1.222 -0.2047  0.4125  0.1987
   26GLOH    O3 8543   4.474   9.627   1.248 -0.3046  0.1055  0.0390
   26GLOH   H01 8544   4.432   9.571   1.315  0.2652 -2.6326 -1.7868
   27GLOH   H03 8545   3.492   8.376   0.960 -0.5499  0.3823  2.3222
   27GLOH    O1 8546   3.548   8.318   1.013  0.4906 -0.3588  0.4530
   27GLOH    C1 8547   3.665   8.293   0.938 -0.3763  0.1794  0.0402
   27GLOH   H02 8548   3.646   8.229   0.853 -0.9452 -0.0731  0.3543
   27GLOH   H08 8549   3.742   8.247   1.001  0.0860 -0.1714 -0.7725
   27GLOH    C2 8550   3.724   8.426   0.885 -0.1358  0.1413  0.2508
   27GLOH   H04 8551   3.828   8.401   0.859 -0.2064 -0.2588  0.3409
   27GLOH    O2 8552   3.661   8.472   0.760 -0.4986 -0.5464  0.1797
   27GLOH   H05 8553   3.697   8.561   0.743 -1.3606 -0.1628  0.3189
   27GLOH    C3 8554   3.714   8.539   0.980  0.1756 -0.2514  0.1555
   27GLOH   H06 8555   3.618   8.531   1.031  0.5792 -2.6733  0.6019
   27GLOH   H07 8556   3.715   8.638   0.935  2.4530 -0.4796 -0.3351
   27GLOH    O3 8557   3.819   8.534   1.074 -0.9513  0.7733  0.5953
   27GLOH   H01 8558   3.801   8.605   1.139 -3.2361 -0.8844  1.8402
   28GLOH   H03 8559   4.046   0.061   1.598 -2.6495 -1.0460  1.3908
   28GLOH    O1 8560   4.094  -0.022   1.582 -0.2377  0.5469 -0.0673
   28GLOH    C1 8561   4.017  -0.124   1.520  0.8631  0.7496 -0.4444
   28GLOH   H02 8562   4.014  -0.105   1.412 -0.4067 -3.3193 -1.2086
   28GLOH   H08 8563   3.915  -0.132   1.559  0.7942 -2.0538 -1.0575
   28GLOH    C2 8564   4.057  -0.273   1.532 -0.6589  0.1676 -0.0517
   28GLOH   H04 8565   4.027  -0.301   1.634  1.6614 -0.7816  0.4041
   28GLOH    O2 8566   3.990  -0.348   1.422 -0.1422  0.5007 -0.6891
   28GLOH   H05 8567   4.035  -0.328   1.338  1.6116  0.3359  0.1829
   28GLOH    C3 8568   4.211  -0.300   1.528 -0.0686  0.1295 -0.0002
   28GLOH   H06 8569   4.246  -0.221   1.594  1.0460  1.0756 -1.6714
   28GLOH   H07 8570   4.248  -0.291   1.426  0.7508  0.5492  0.3272
   28GLOH    O3 8571   4.262  -0.423   1.581 -0.2687  0.0259  0.8526
   28GLOH   H01 8572   4.241  -0.487   1.511 -2.6963  1.4289  0.2719
   29GLOH   H03 8573   3.876   0.462   0.827  0.8187  1.3137 -0.0830
   29GLOH    O1 8574   3.953   0.407   0.802 -0.3019 -0.1150 -0.4243
   29GLOH    C1 8575   3.928   0.270   0.843 -0.6718  0.1924 -0.7104
   29GLOH   H02 8576   3.824   0.244   0.824 -0.8910  2.2736 -2.4713
   29GLOH   H08 8577   3.936   0.266   0.952 -2.4218 -2.1025 -0.6143
   29GLOH    C2 8578   4.029   0.179   0.771  0.2297 -0.2964  0.6539
   29GLOH   H04 8579   4.130   0.222   0.765 -0.1242  0.6071  1.2538
   29GLOH    O2 8580   4.054   0.051   0.841  0.1053  0.1573  0.1633
   29GLOH   H05 8581   4.126   0.007   0.794  0.4312 -1.7507  2.3657
   29GLOH    C3 8582   3.985   0.151   0.628  0.6828  0.8005  0.3082
   29GLOH   H06 8583   4.049   0.072   0.589 -1.2963 -0.4774 -0.4451
   29GLOH   H07 8584   3.991   0.236   0.560  1.3637 -1.1968 -2.2012
   29GLOH    O3 8585   3.851   0.107   0.631  0.3195  0.0856 -0.0527
   29GLOH   H01 8586   3.851   0.021   0.586 -0.9922  1.3696 -2.6675
   30GLOH   H03 8587   3.350   8.670   0.206 -0.4747 -1.3067  1.1012
   30GLOH    O1 8588   3.262   8.682   0.165  0.5109  0.6776 -0.5237
   30GLOH    C1 8589   3.177   8.713   0.280 -0.5946  0.1427  0.8961
   30GLOH   H02 8590   3.171   8.822   0.291 -1.4495  0.2673 -0.5541
   30GLOH   H08 8591   3.223   8.675   0.370 -1.0668  2.4231  2.1477
   30GLOH    C2 8592   3.038   8.648   0.276  0.5854 -0.2312  0.2510
   30GLOH   H04 8593   3.012   8.625   0.381  1.3879  0.2347  0.5587
   30GLOH    O2 8594   2.932   8.719   0.205  0.1665 -0.5433  0.7546
   30GLOH   H05 8595   2.879   8.649   0.161 -0.4775 -0.1259  0.8604
   30GLOH    C3 8596   3.051   8.504   0.218  0.2815 -0.1435 -0.0267
   30GLOH   H06 8597   2.952   8.459   0.223 -0.6784  1.5361 -2.7073
   30GLOH   H07 8598   3.115   8.455   0.291 -0.5980 -0.0598  0.8141
   30GLOH    O3 8599   3.100   8.489   0.089 -0.1865  0.1785  0.5485
   30GLOH   H01 8600   3.166   8.558   0.070 -1.3963  1.5360  1.2010
   31GLOH   H03 8601   3.275   0.760  -0.139  2.0266 -0.0368  0.4733
   31GLOH    O1 8602   3.256   0.811  -0.057  0.0747 -0.2024  0.1433
   31GLOH    C1 8603   3.376   0.829   0.019  0.1917 -0.2740  0.4194
   31GLOH   H02 8604   3.394   0.936   0.026 -1.9310  0.1137  0.3271
   31GLOH   H08 8605   3.460   0.779  -0.031  1.4424  1.0170  1.2088
   31GLOH    C2 8606   3.364   0.756   0.156  0.0516 -0.8479 -0.1023
   31GLOH   H04 8607   3.314   0.660   0.134  0.0398 -1.3429  1.9931
   31GLOH    O2 8608   3.496   0.730   0.216 -0.0360  0.1586 -0.4011
   31GLOH   H05 8609   3.490   0.720   0.312  0.1688 -2.8367 -0.6379
   31GLOH    C3 8610   3.280   0.846   0.241  0.3976 -0.0679  0.0151
   31GLOH   H06 8611   3.193   0.895   0.196  1.4564  2.6436  0.8672
   31GLOH   H07 8612   3.335   0.934   0.273 -0.7279 -0.0653  2.0486
   31GLOH    O3 8613   3.246   0.782   0.368 -0.7964 -0.5730  0.6822
   31GLOH   H01 8614   3.315   0.782   0.437  0.0059  1.0636 -0.0950
   32GLOH   H03 8615   2.837   9.554  -0.046  1.1067  1.0395 -0.8000
   32GLOH    O1 8616   2.760   9.576  -0.101  0.4130  0.7680  0.0456
   32GLOH    C1 8617   2.783   9.516  -0.231  0.1448  0.3393  0.8857
   32GLOH   H02 8618   2.690   9.535  -0.285  1.2967 -0.4022 -1.4176
   32GLOH   H08 8619   2.793   9.408  -0.220 -1.9201  0.0535  0.3558
   32GLOH    C2 8620   2.886   9.576  -0.316 -0.3941 -0.0348 -0.0083
   32GLOH   H04 8621   2.977   9.568  -0.253 -0.7045  2.9626  0.8974
   32GLOH    O2 8622   2.900   9.500  -0.438 -0.0828  0.8097  0.0863
   32GLOH   H05 8623   2.821   9.500  -0.493 -0.3087 -1.2075  0.3784
   32GLOH    C3 8624   2.850   9.728  -0.336 -0.8142 -0.4597  0.3292
   32GLOH   H06 8625   2.844   9.788  -0.245 -1.7707  0.0285 -0.0423
   32GLOH   H07 8626   2.755   9.733  -0.390  0.3071 -0.2048 -1.6703
   32GLOH    O3 8627   2.945   9.789  -0.431  0.2401 -0.1003  0.1030
   32GLOH   H01 8628   2.895   9.860  -0.476  0.1193 -0.4889 -0.3840
   33GLOH   H03 8629   3.750   9.001   2.187 -1.1016  0.2146  0.2998
   33GLOH    O1 8630   3.722   8.912   2.156 -0.5980  0.0949  0.1774
   33GLOH    C1 8631   3.583   8.924   2.123  0.1523  0.0654  0.7745
   33GLOH   H02 8632   3.523   8.916   2.214 -1.5223  0.7801 -0.2400
   33GLOH   H08 8633   3.556   8.841   2.057 -0.5599  0.0175  1.1154
   33GLOH    C2 8634   3.558   9.060   2.066  0.4866  0.6693  0.2744
   33GLOH   H04 8635   3.626   9.080   1.983  0.4387  1.9241  0.5174
   33GLOH    O2 8636   3.416   9.069   2.027 -0.0651  0.2255  0.1682
   33GLOH   H05 8637   3.379   9.150   2.067 -0.6653  0.3760 -0.6729
   33GLOH    C3 8638   3.602   9.148   2.183  0.8053  0.0340 -0.6539
   33GLOH   H06 8639   3.548   9.122   2.274 -0.0145  1.9484 -0.5675
   33GLOH   H07 8640   3.566   9.249   2.160 -1.8631 -1.0221 -1.3633
   33GLOH    O3 8641   3.740   9.147   2.193  0.1989 -0.3373 -0.0376
   33GLOH   H01 8642   3.782   9.207   2.128 -0.3355  1.0426  0.8687
   34GLOH   H03 8643   3.904   9.585   2.476 -1.3503  0.3774 -0.7150
   34GLOH    O1 8644   3.936   9.677   2.473 -0.2968  0.0572  0.2288
   34GLOH    C1 8645   3.825   9.771   2.478  0.2919  0.9321  0.0340
   34GLOH   H02 8646   3.749   9.732   2.409  0.1853  1.1261  0.0401
   34GLOH   H08 8647   3.854   9.870   2.444  0.1140  0.2654 -2.1292
   34GLOH    C2 8648   3.768   9.782   2.620 -0.2266  0.0472 -0.5372
   34GLOH   H04 8649   3.846   9.842   2.671 -0.2836 -1.1122  0.9517
   34GLOH    O2 8650   3.646   9.858   2.618 -0.0449 -0.0614  0.3280
   34GLOH   H05 8651   3.574   9.811   2.573  1.6050 -1.9210 -0.4702
   34GLOH    C3 8652   3.731   9.652   2.697 -0.0567  0.5777 -0.9815
   34GLOH   H06 8653   3.815   9.583   2.697 -1.9926 -1.8730 -0.8500
   34GLOH   H07 8654   3.656   9.599   2.638 -0.1492 -1.2327  0.6875
   34GLOH    O3 8655   3.672   9.669   2.831  0.2096  0.0138  0.1744
   34GLOH   H01 8656   3.617   9.592   2.853  0.9530 -1.5300 -3.0351
   35GLOH   H03 8657   4.231   0.448   0.530  0.6311 -0.5481  1.2647
   35GLOH    O1 8658   4.292   0.399   0.472 -0.0383 -0.3024  0.3477
   35GLOH    C1 8659   4.280   0.433   0.333  0.0786  0.4897  0.0466
   35GLOH   H02 8660   4.365   0.397   0.275  2.4048  1.4436  2.7257
   35GLOH   H08 8661   4.266   0.541   0.331 -1.8364  0.3058  1.5694
   35GLOH    C2 8662   4.148   0.365   0.282  0.6156  0.9131  0.3784
   35GLOH   H04 8663   4.070   0.396   0.353 -0.1446  2.1519 -0.9830
   35GLOH    O2 8664   4.113   0.397   0.147  0.4955  0.0426  0.2111
   35GLOH   H05 8665   4.169   0.349   0.084 -1.5824 -1.1682 -0.7816
   35GLOH    C3 8666   4.169   0.215   0.294 -0.1884 -0.3147 -0.2259
   35GLOH   H06 8667   4.079   0.166   0.257 -0.5357 -0.6270  1.0032
   35GLOH   H07 8668   4.191   0.190   0.398  2.2494  0.3647 -0.5642
   35GLOH    O3 8669   4.278   0.174   0.213 -0.1020  0.7518 -0.5806
   35GLOH   H01 8670   4.249   0.095   0.165 -3.4542  2.5105 -1.6497
   36GLOH   H03 8671   3.670   0.307   2.384  1.1767  0.6978 -1.4045
   36GLOH    O1 8672   3.579   0.327   2.354  0.6574  0.1474 -0.2179
   36GLOH    C1 8673   3.571   0.246   2.236  0.2011  0.1475  0.5535
   36GLOH   H02 8674   3.670   0.249   2.192 -0.2080  0.0282 -0.3887
   36GLOH   H08 8675   3.503   0.286   2.161  0.6648  1.7401  0.9600
   36GLOH    C2 8676   3.533   0.096   2.261  0.5664 -0.0144  0.4215
   36GLOH   H04 8677   3.577   0.064   2.356 -0.7873  0.3853  1.1986
   36GLOH    O2 8678   3.394   0.082   2.281 -0.4609  0.2203  0.0686
   36GLOH   H05 8679   3.368   0.136   2.357 -0.4286 -0.0710  0.2909
   36GLOH    C3 8680   3.574   0.011   2.135  0.1607 -0.0356 -0.0054
   36GLOH   H06 8681   3.506   0.042   2.055  0.3334 -0.4516 -0.3168
   36GLOH   H07 8682   3.534  -0.087   2.158 -1.1526 -0.1545 -2.5990
   36GLOH    O3 8683   3.710   0.013   2.103 -0.0721 -0.0777  0.1742
   36GLOH   H01 8684   3.760  -0.063   2.136  0.9186  1.5988  2.6792
   37GLOH   H03 8685   3.869   0.465   2.049  0.9141 -1.0378  0.9742
   37GLOH    O1 8686   3.842   0.375   2.024 -0.1559 -0.3969 -0.2448
   37GLOH    C1 8687   3.877   0.341   1.889 -0.4636  0.0745  0.4752
   37GLOH   H02 8688   3.985   0.345   1.874 -0.4799 -0.1439  0.2910
   37GLOH   H08 8689   3.828   0.404   1.814 -0.1701  0.1914  0.3819
   37GLOH    C2 8690   3.839   0.191   1.855 -0.0248 -0.4981  0.2663
   37GLOH   H04 8691   3.914   0.134   1.912 -0.6181 -0.4708  1.0685
   37GLOH    O2 8692   3.701   0.165   1.897  0.0741 -0.5503 -0.1505
   37GLOH   H05 8693   3.712   0.115   1.980  0.0179  0.2247  0.3293
   37GLOH    C3 8694   3.855   0.175   1.701  0.4243 -0.2032 -0.5051
   37GLOH   H06 8695   3.778   0.236   1.654 -0.3847  0.2460  1.3584
   37GLOH   H07 8696   3.829   0.071   1.679 -0.6713  0.2230 -1.2405
   37GLOH    O3 8697   3.982   0.215   1.646  0.1968  0.0518 -0.0657
   37GLOH   H01 8698   3.977   0.310   1.624  0.4666 -0.0073 -0.3867
   38GLOH   H03 8699   3.727   8.390   1.338  0.9225 -2.0503  2.4983
   38GLOH    O1 8700   3.815   8.430   1.348  0.3858 -0.0525 -0.2262
   38GLOH    C1 8701   3.908   8.324   1.372 -0.2085 -0.4969  0.0292
   38GLOH   H02 8702   3.881   8.235   1.316  1.2870  0.3000 -1.9893
   38GLOH   H08 8703   3.907   8.308   1.480  1.9744 -0.5393  0.0583
   38GLOH    C2 8704   4.054   8.349   1.347  0.7173  0.3915  0.3064
   38GLOH   H04 8705   4.079   8.432   1.415 -0.9985  1.4362 -0.3019
   38GLOH    O2 8706   4.132   8.234   1.376 -0.3057 -0.7286  0.2160
   38GLOH   H05 8707   4.184   8.257   1.454  0.5603  1.0686 -0.8661
   38GLOH    C3 8708   4.077   8.403   1.206 -0.2291  0.5656  0.7351
   38GLOH   H06 8709   4.182   8.415   1.177 -0.5849 -0.3471 -0.9920
   38GLOH   H07 8710   4.048   8.508   1.201 -0.8167  0.3105 -2.6216
   38GLOH    O3 8711   3.999   8.326   1.111  0.2589 -0.0853  0.3964
   38GLOH   H01 8712   3.921   8.379   1.088  0.3570  1.2619  3.0177
   39GLOH   H03 8713   4.592   8.957   2.042  1.6723  1.5633  2.6197
   39GLOH    O1 8714   4.544   8.880   2.079  0.3977  1.0046 -0.0491
   39GLOH    C1 8715   4.605   8.764   2.022  0.4544 -0.0043 -0.3518
   39GLOH   H02 8716   4.648   8.704   2.102 -0.4667  0.6221  0.6135
   39GLOH   H08 8717   4.695   8.782   1.963  1.5233 -0.7217  1.0184
   39GLOH    C2 8718   4.502   8.669   1.942  0.5091  0.0613  0.3839
   39GLOH   H04 8719   4.459   8.726   1.858  0.7008  0.7030  0.7249
   39GLOH    O2 8720   4.573   8.558   1.885  0.4630 -0.2840  0.3075
   39GLOH   H05 8721   4.511   8.499   1.839  0.2041  1.7211 -1.9810
   39GLOH    C3 8722   4.382   8.638   2.042 -0.6439  0.0157  0.4633
   39GLOH   H06 8723   4.420   8.575   2.122  0.0376 -0.6029 -0.3483
   39GLOH   H07 8724   4.308   8.592   1.976 -2.5127  0.5972  2.0970
   39GLOH    O3 8725   4.321   8.753   2.085  0.3775  0.3731 -0.8896
   39GLOH   H01 8726   4.394   8.817   2.082  0.8690 -0.1736 -0.5155
   40GLOH   H03 8727   2.668   8.279   0.438 -0.0143 -0.2486 -0.4656
   40GLOH    O1 8728   2.618   8.354   0.400 -0.0244 -0.0757 -0.1152
   40GLOH    C1 8729   2.626   8.332   0.258 -0.0643  0.0122  1.2008
   40GLOH   H02 8730   2.547   8.266   0.222  1.8426 -2.1233  0.8843
   40GLOH   H08 8731   2.718   8.286   0.223 -1.7308 -0.4159 -3.0242
   40GLOH    C2 8732   2.602   8.464   0.182  0.4065  0.2666  0.6376
   40GLOH   H04 8733   2.522   8.519   0.233  0.0068  1.3865 -1.1510
   40GLOH    O2 8734   2.714   8.549   0.179 -0.0280 -0.4326 -0.1372
   40GLOH   H05 8735   2.681   8.641   0.178  1.0879 -0.0282 -1.6359
   40GLOH    C3 8736   2.552   8.442   0.032  0.2521 -0.6323 -0.2262
   40GLOH   H06 8737   2.550   8.540  -0.017  0.3514 -0.4262  0.1854
   40GLOH   H07 8738   2.449   8.405   0.034 -0.1263  0.4010 -0.4241
   40GLOH    O3 8739   2.647   8.358  -0.040  0.5307  0.7691  0.3324
   40GLOH   H01 8740   2.737   8.396  -0.042  0.4341  1.0012  0.3602
   41GLOH   H03 8741   2.855   0.315  -0.128 -3.9313  0.8843  2.1624
   41GLOH    O1 8742   2.822   0.247  -0.190  0.6232 -0.2461  0.7653
   41GLOH    C1 8743   2.875   0.121  -0.141 -0.0861  0.8349 -1.6455
   41GLOH   H02 8744   2.846   0.035  -0.201 -0.3862  0.4007 -0.8879
   41GLOH   H08 8745   2.833   0.115  -0.040  2.3946  0.8960 -0.5703
   41GLOH    C2 8746   3.026   0.101  -0.123 -0.5519  0.0713  0.1275
   41GLOH   H04 8747   3.067   0.201  -0.108  0.9546 -0.4163 -0.6156
   41GLOH    O2 8748   3.041   0.001  -0.019 -0.5402  0.2361 -0.2951
   41GLOH   H05 8749   3.128   0.002   0.022 -0.7069 -2.3019  0.2211
   41GLOH    C3 8750   3.091   0.048  -0.247  0.0262 -0.8263  0.5179
   41GLOH   H06 8751   3.053  -0.054  -0.255 -0.6549 -0.4218 -2.0335
   41GLOH   H07 8752   3.198   0.057  -0.233  0.3318 -2.0030 -0.9200
   41GLOH    O3 8753   3.060   0.119  -0.365  0.1953  0.7996  0.2772
   41GLOH   H01 8754   3.082   0.078  -0.451  1.4164  1.9187  0.0422
   42GLOH   H03 8755   3.732   0.820   2.199  1.2061 -2.9234  0.6838
   42GLOH    O1 8756   3.750   0.803   2.105  0.3273 -0.0622 -0.0661
   42GLOH    C1 8757   3.629   0.801   2.029  0.5104  0.1938 -0.5830
   42GLOH   H02 8758   3.627   0.882   1.956 -1.1011  0.6413 -0.0540
   42GLOH   H08 8759   3.552   0.834   2.099  1.1161 -1.6448  1.0008
   42GLOH    C2 8760   3.596   0.666   1.964 -0.2740 -0.0588  0.6301
   42GLOH   H04 8761   3.492   0.669   1.927 -0.0026 -1.4521 -0.2639
   42GLOH    O2 8762   3.692   0.639   1.859 -0.5260  0.2420  1.0501
   42GLOH   H05 8763   3.773   0.678   1.896  0.2851 -0.2547 -0.1672
   42GLOH    C3 8764   3.599   0.555   2.078 -0.0762  0.4105  0.2264
   42GLOH   H06 8765   3.699   0.544   2.121  0.6507  1.0547 -1.2590
   42GLOH   H07 8766   3.573   0.466   2.021  0.7362  1.0662 -1.1873
   42GLOH    O3 8767   3.508   0.598   2.183  0.0378  0.5151 -0.2473
   42GLOH   H01 8768   3.493   0.517   2.236  1.4309  1.0468  0.9848
   43GLOH   H03 8769   3.159   0.415   0.154 -0.2053 -0.1985  2.8710
   43GLOH    O1 8770   3.086   0.477   0.139  0.6843  0.2797  0.2393
   43GLOH    C1 8771   3.062   0.497  -0.002 -0.7515  0.4981 -0.3723
   43GLOH   H02 8772   3.021   0.407  -0.048  0.4969  0.1916 -0.9309
   43GLOH   H08 8773   3.151   0.512  -0.064 -0.6207  3.4230  0.4210
   43GLOH    C2 8774   2.971   0.620  -0.016  0.2888  0.1862  0.4338
   43GLOH   H04 8775   2.874   0.593   0.027 -0.2908  0.3722 -0.7210
   43GLOH    O2 8776   3.015   0.746   0.051 -0.0883 -0.3168  0.2079
   43GLOH   H05 8777   3.102   0.781   0.025  0.4023 -0.6843  1.3109
   43GLOH    C3 8778   2.947   0.654  -0.161  0.2911 -0.0529  0.2077
   43GLOH   H06 8779   3.037   0.700  -0.202 -0.5701  0.3055 -1.3472
   43GLOH   H07 8780   2.868   0.730  -0.164  1.7909  1.6550  2.2921
   43GLOH    O3 8781   2.919   0.537  -0.240 -0.1763  0.3541 -0.1097
   43GLOH   H01 8782   2.835   0.548  -0.288  0.6921 -0.0869 -1.7807
   44GLOH   H03 8783   3.912   9.479   0.481 -1.3867  2.1284 -0.6075
   44GLOH    O1 8784   3.908   9.442   0.391 -0.0045  0.7315 -0.1233
   44GLOH    C1 8785   3.771   9.437   0.363  0.1528 -0.0552 -0.9277
   44GLOH   H02 8786   3.752   9.382   0.270 -2.4377  0.9028 -1.0147
   44GLOH   H08 8787   3.738   9.539   0.341  0.7033 -0.0895 -1.9441
   44GLOH    C2 8788   3.682   9.381   0.477 -0.3476 -0.4730 -0.4417
   44GLOH   H04 8789   3.700   9.441   0.568 -0.2369  0.4164 -1.0361
   44GLOH    O2 8790   3.541   9.393   0.451 -0.8589 -0.3120 -0.2630
   44GLOH   H05 8791   3.521   9.474   0.401  3.1842 -0.5714 -2.4799
   44GLOH    C3 8792   3.722   9.231   0.491  0.3553  1.0196  0.1541
   44GLOH   H06 8793   3.830   9.216   0.492  0.3488  0.6286 -1.8351
   44GLOH   H07 8794   3.673   9.182   0.407 -0.1781 -2.0194  2.1829
   44GLOH    O3 8795   3.664   9.167   0.598 -0.1268 -0.4589  0.1629
   44GLOH   H01 8796   3.571   9.148   0.576 -0.9554  1.7142  1.6669
   45GLOH   H03 8797   4.165   8.482   2.226 -1.4321 -2.2270 -1.7406
   45GLOH    O1 8798   4.233   8.413   2.240  0.4701 -0.1364 -0.2954
   45GLOH    C1 8799   4.263   8.379   2.375 -0.4544  0.6536 -0.0924
   45GLOH   H02 8800   4.307   8.460   2.433  0.1418 -0.5252  1.1268
   45GLOH   H08 8801   4.334   8.297   2.372 -2.4661 -1.1349 -0.4034
   45GLOH    C2 8802   4.146   8.335   2.460 -0.5188 -0.2801  0.3435
   45GLOH   H04 8803   4.094   8.254   2.407  1.2695 -2.0262  1.2174
   45GLOH    O2 8804   4.184   8.297   2.595 -0.3254  0.0582 -0.3579
   45GLOH   H05 8805   4.246   8.359   2.636 -0.7559  0.5355 -0.4327
   45GLOH    C3 8806   4.040   8.445   2.451 -0.6370  0.1493 -0.1107
   45GLOH   H06 8807   3.959   8.416   2.518  0.2983  0.0654  0.9940
   45GLOH   H07 8808   3.996   8.431   2.352  0.8034 -2.8354 -0.3709
   45GLOH    O3 8809   4.091   8.575   2.493 -0.0120  0.2224  0.6418
   45GLOH   H01 8810   4.151   8.605   2.422 -1.5466  2.2399  0.1388
   46GLOH   H03 8811   2.795   8.667   1.915 -1.2452  0.7363 -1.4245
   46GLOH    O1 8812   2.800   8.579   1.873 -0.0864  0.1857 -0.1658
   46GLOH    C1 8813   2.936   8.529   1.875 -0.1859  0.3140 -0.1342
   46GLOH   H02 8814   2.924   8.427   1.838 -1.1683  0.8821 -1.4408
   46GLOH   H08 8815   2.974   8.516   1.976  1.2961 -1.1729 -0.8553
   46GLOH    C2 8816   3.027   8.586   1.773  0.0633  0.8288  0.8157
   46GLOH   H04 8817   2.988   8.566   1.673 -0.2887 -0.4846  1.2008
   46GLOH    O2 8818   3.035   8.723   1.807 -0.1458 -0.8200 -0.1679
   46GLOH   H05 8819   3.102   8.764   1.749 -0.2897 -1.6807 -0.9624
   46GLOH    C3 8820   3.161   8.510   1.782  0.7644  0.1178  0.2462
   46GLOH   H06 8821   3.198   8.517   1.885 -1.1776  1.4239  0.8845
   46GLOH   H07 8822   3.235   8.553   1.715  1.2635  1.6906  1.7461
   46GLOH    O3 8823   3.139   8.374   1.747  0.3564 -0.0736  0.0383
   46GLOH   H01 8824   3.190   8.314   1.804  0.3239  0.0013  0.1455
   47GLOH   H03 8825   3.265  -0.091   1.848  1.1460 -2.0733  0.0920
   47GLOH    O1 8826   3.337  -0.042   1.805 -0.1173 -0.0048  0.3130
   47GLOH    C1 8827   3.454  -0.133   1.806  0.2957  0.0209 -0.1272
   47GLOH   H02 8828   3.481  -0.161   1.907  0.0512 -0.0381 -0.0777
   47GLOH   H08 8829   3.540  -0.088   1.756 -0.5168  1.1450 -0.5402
   47GLOH    C2 8830   3.410  -0.264   1.731 -0.0099  0.0564  0.5249
   47GLOH   H04 8831   3.497  -0.331   1.726  0.7658  1.0757  0.0820
   47GLOH    O2 8832   3.306  -0.341   1.792  0.2401 -0.2405 -0.5033
   47GLOH   H05 8833   3.222  -0.293   1.786 -0.1549 -1.1197 -2.2375
   47GLOH    C3 8834   3.366  -0.228   1.583  0.0028  0.4386 -0.9915
   47GLOH   H06 8835   3.277  -0.166   1.585 -0.9460 -0.9329  0.8125
   47GLOH   H07 8836   3.339  -0.317   1.525 -0.9906 -0.7266  1.1939
   47GLOH    O3 8837   3.475  -0.174   1.508  0.2722  0.0274  0.3852
   47GLOH   H01 8838   3.442  -0.106   1.446  2.1513  0.3550 -0.2970
   48GLOH   H03 8839   3.560   8.784  -0.030 -0.6853 -1.2460  0.6199
   48GLOH    O1 8840   3.507   8.843   0.026 -0.1526 -0.1261 -0.0459
   48GLOH    C1 8841   3.404   8.906  -0.046  0.1840 -0.1113 -0.6035
   48GLOH   H02 8842   3.344   8.964   0.025 -0.0369  0.0835 -0.9460
   48GLOH   H08 8843   3.333   8.829  -0.075 -1.1583  1.3494 -1.3066
   48GLOH    C2 8844   3.468   8.985  -0.164 -0.0371 -0.0775  0.1882
   48GLOH   H04 8845   3.541   8.914  -0.206  0.5932  1.7723 -1.9095
   48GLOH    O2 8846   3.371   9.025  -0.266 -0.1059  0.5272  0.0475
   48GLOH   H05 8847   3.333   8.951  -0.316 -0.9391  1.6560 -1.0212
   48GLOH    C3 8848   3.539   9.104  -0.094 -0.1900  0.2074  0.4858
   48GLOH   H06 8849   3.614   9.071  -0.022  1.6451  2.2916 -0.3797
   48GLOH   H07 8850   3.455   9.154  -0.048  1.4615  1.9699  1.6703
   48GLOH    O3 8851   3.603   9.196  -0.182 -0.2931 -0.3315 -0.5204
   48GLOH   H01 8852   3.688   9.153  -0.202 -0.9856 -1.7728 -0.4498
   49GLOH   H03 8853   2.703   9.646   1.716 -0.2758  0.1011  0.8799
   49GLOH    O1 8854   2.775   9.588   1.747 -0.0786 -0.2743 -0.2515
   49GLOH    C1 8855   2.728   9.528   1.865  0.2892  0.4714  0.3750
   49GLOH   H02 8856   2.803   9.463   1.910 -1.9367  0.0165  3.6893
   49GLOH   H08 8857   2.636   9.473   1.845  0.6358 -0.0711  0.2730
   49GLOH    C2 8858   2.696   9.624   1.982 -0.0109 -0.4346  0.2498
   49GLOH   H04 8859   2.786   9.670   2.024 -0.7694  1.1562  0.1926
   49GLOH    O2 8860   2.612   9.736   1.942  0.0524 -0.5850 -0.6897
   49GLOH   H05 8861   2.644   9.808   2.000 -1.6070 -1.3600  1.2468
   49GLOH    C3 8862   2.607   9.551   2.086  0.3108 -1.2381 -0.4974
   49GLOH   H06 8863   2.518   9.512   2.038 -2.5922  3.4326  0.7576
   49GLOH   H07 8864   2.570   9.618   2.164  0.0089 -0.6472 -1.1488
   49GLOH    O3 8865   2.683   9.443   2.139 -0.7053  0.5089  0.5444
   49GLOH   H01 8866   2.633   9.365   2.167 -0.5896 -0.6205 -2.2833
   50GLOH   H03 8867   4.132   8.865   0.993 -0.2215  1.1735 -0.4107
   50GLOH    O1 8868   4.143   8.961   1.007  0.4507  1.0387  0.0386
   50GLOH    C1 8869   4.018   9.030   1.033 -0.5575  0.4260  0.1410
   50GLOH   H02 8870   4.008   9.038   1.142 -3.9318  1.2806 -0.1693
   50GLOH   H08 8871   3.935   8.971   0.996  0.9094 -1.3292 -0.3828
   50GLOH    C2 8872   4.011   9.169   0.966  0.4862  0.0357 -0.3044
   50GLOH   H04 8873   4.047   9.163   0.862  0.0747 -0.2647 -0.4287
   50GLOH    O2 8874   3.878   9.218   0.977  0.6927  0.2345  0.1927
   50GLOH   H05 8875   3.826   9.172   0.909  0.6749  1.3774 -0.5838
   50GLOH    C3 8876   4.111   9.259   1.040 -0.2312  0.2409 -0.0518
   50GLOH   H06 8877   4.067   9.306   1.129  1.3690  3.2440 -0.7721
   50GLOH   H07 8878   4.125   9.333   0.961  1.8139 -0.3837 -0.3184
   50GLOH    O3 8879   4.242   9.203   1.063 -0.5819 -0.0990 -0.0186
   50GLOH   H01 8880   4.246   9.109   1.039 -0.4464 -0.6545  2.1217
   51GLOH   H03 8881   3.246   7.839   1.003 -0.7474 -1.4348 -0.4349
   51GLOH    O1 8882   3.330   7.833   1.052 -0.7308  0.0982 -0.2650
   51GLOH    C1 8883   3.350   7.938   1.152  0.0006  0.1331  0.7056
   51GLOH   H02 8884   3.272   7.942   1.228 -1.7804  0.4107 -1.0900
   51GLOH   H08 8885   3.347   8.038   1.109  0.3151 -0.5911 -1.0212
   51GLOH    C2 8886   3.490   7.928   1.216  0.1970 -0.1950  0.3437
   51GLOH   H04 8887   3.562   7.967   1.143 -1.5315 -0.4907 -1.5563
   51GLOH    O2 8888   3.490   8.016   1.335 -0.1771 -0.0227 -0.3103
   51GLOH   H05 8889   3.458   7.971   1.415  0.2598  1.3379  0.6424
   51GLOH    C3 8890   3.524   7.782   1.253 -0.5853 -0.2205 -0.2060
   51GLOH   H06 8891   3.436   7.734   1.296 -1.1338  0.9140 -0.0233
   51GLOH   H07 8892   3.600   7.780   1.330  1.2110  0.7893 -1.8973
   51GLOH    O3 8893   3.567   7.699   1.146  0.4889 -0.0637  0.1198
   51GLOH   H01 8894   3.495   7.713   1.081 -0.4696 -0.5972  1.0347
   52GLOH   H03 8895   3.344   9.368   2.053 -0.6378  0.0712 -0.5750
   52GLOH    O1 8896   3.341   9.292   2.115  0.1283  0.3704 -0.1741
   52GLOH    C1 8897   3.253   9.316   2.233  0.0797 -0.3595  0.2211
   52GLOH   H02 8898   3.232   9.422   2.245 -1.1020 -0.3906 -1.4744
   52GLOH   H08 8899   3.306   9.284   2.323  2.1983  0.1473 -0.8053
   52GLOH    C2 8900   3.116   9.246   2.223  1.0948 -0.1287  0.1724
   52GLOH   H04 8901   3.138   9.139   2.236 -0.7139 -0.3711  1.4360
   52GLOH    O2 8902   3.033   9.287   2.336 -0.2818 -0.3572 -0.1512
   52GLOH   H05 8903   2.987   9.372   2.321  0.5420  0.0344 -0.5017
   52GLOH    C3 8904   3.051   9.257   2.092 -0.2631  1.0171  0.6884
   52GLOH   H06 8905   3.071   9.358   2.055  0.3818  0.2852 -1.0319
   52GLOH   H07 8906   2.943   9.245   2.106 -0.4216  0.5915 -0.7671
   52GLOH    O3 8907   3.101   9.155   2.002 -0.2674  0.1604 -0.6389
   52GLOH   H01 8908   3.073   9.067   2.035  0.5089 -0.0794 -0.6243
   53GLOH   H03 8909   3.800   8.058   1.601 -0.9298 -0.0541 -0.8426
   53GLOH    O1 8910   3.709   8.088   1.617 -0.5514  0.5384  0.2362
   53GLOH    C1 8911   3.635   7.974   1.662 -0.0787  0.2307  0.2327
   53GLOH   H02 8912   3.680   7.906   1.734 -3.8564 -2.9631 -0.2310
   53GLOH   H08 8913   3.618   7.908   1.577 -0.1071 -0.3872  0.7122
   53GLOH    C2 8914   3.501   8.009   1.729 -0.5910  0.3613  0.9336
   53GLOH   H04 8915   3.467   7.912   1.767 -1.7048 -0.3358 -1.7349
   53GLOH    O2 8916   3.514   8.098   1.841 -0.1724 -0.3832 -0.1232
   53GLOH   H05 8917   3.601   8.141   1.849  0.8040 -2.3762  0.2200
   53GLOH    C3 8918   3.391   8.042   1.629  0.3652  0.5769 -0.7412
   53GLOH   H06 8919   3.424   8.115   1.555  2.3875  2.6054  2.0684
   53GLOH   H07 8920   3.300   8.068   1.684  0.7445 -0.6997  0.5193
   53GLOH    O3 8921   3.371   7.926   1.546  0.4891  0.7268  0.2703
   53GLOH   H01 8922   3.278   7.911   1.523  0.1764  2.1471  0.5933
   54GLOH   H03 8923   3.710   7.798   1.120 -1.4686  0.9816 -1.4697
   54GLOH    O1 8924   3.776   7.869   1.108  0.2295 -0.2451  0.3128
   54GLOH    C1 8925   3.870   7.869   1.209  0.4830 -0.1612  0.7251
   54GLOH   H02 8926   3.917   7.771   1.209  0.4124 -0.2168 -1.3461
   54GLOH   H08 8927   3.824   7.872   1.308 -0.9810  0.6128  0.0299
   54GLOH    C2 8928   3.966   7.983   1.190  0.5269 -0.2530  0.1099
   54GLOH   H04 8929   3.915   8.080   1.187  0.0916 -0.3938  2.1034
   54GLOH    O2 8930   4.064   7.991   1.291 -0.6954  0.2392 -0.5919
   54GLOH   H05 8931   4.099   8.080   1.306 -0.7617  0.0840  0.5389
   54GLOH    C3 8932   4.037   7.968   1.051  0.0718  0.2427  0.3473
   54GLOH   H06 8933   3.977   7.925   0.971  1.9789 -1.6103 -0.1266
   54GLOH   H07 8934   4.119   7.897   1.055  1.8952  2.2661 -0.2340
   54GLOH    O3 8935   4.090   8.094   1.004  0.0767 -0.4791 -0.1438
   54GLOH   H01 8936   4.052   8.166   1.057  0.4463  0.5505 -1.2817
   55GLOH   H03 8937   4.188   0.086   1.216  0.1571 -0.9097  0.5989
   55GLOH    O1 8938   4.260   0.147   1.241 -0.2192 -0.4183  0.4804
   55GLOH    C1 8939   4.356   0.072   1.316 -0.5464  0.2801  0.7680
   55GLOH   H02 8940   4.389  -0.010   1.252  1.2815  2.8322 -1.6310
   55GLOH   H08 8941   4.310   0.029   1.405  1.3616 -1.0378  1.1489
   55GLOH    C2 8942   4.484   0.143   1.361  0.1398 -0.5572  0.3100
   55GLOH   H04 8943   4.459   0.249   1.377  2.1852  0.5666 -3.3772
   55GLOH    O2 8944   4.546   0.078   1.474  0.0158 -0.5391  0.4134
   55GLOH   H05 8945   4.578   0.000   1.426 -4.0693 -0.3073 -2.9657
   55GLOH    C3 8946   4.580   0.149   1.239  0.5503  0.4863  0.0699
   55GLOH   H06 8947   4.673   0.204   1.255  1.3794 -1.2570  1.4648
   55GLOH   H07 8948   4.525   0.209   1.168  1.5556  1.1053 -0.1921
   55GLOH    O3 8949   4.619   0.019   1.182 -0.1590 -0.5689  0.1052
   55GLOH   H01 8950   4.572   0.014   1.097 -0.1292  0.8201 -0.0146
   56GLOH   H03 8951   2.586   8.762   0.737  0.7303  0.3335 -0.1678
   56GLOH    O1 8952   2.606   8.667   0.739 -0.1492  0.1392 -0.3353
   56GLOH    C1 8953   2.541   8.626   0.622 -0.2983  1.2460 -0.1038
   56GLOH   H02 8954   2.434   8.643   0.628 -0.4295  0.3267  0.2224
   56GLOH   H08 8955   2.556   8.518   0.613 -0.9760  1.2425 -1.2940
   56GLOH    C2 8956   2.591   8.676   0.485 -0.9384  0.3798  0.5174
   56GLOH   H04 8957   2.555   8.616   0.400  1.8115  2.0824 -1.9472
   56GLOH    O2 8958   2.554   8.812   0.468 -0.0885 -0.2968  0.2265
   56GLOH   H05 8959   2.602   8.849   0.393 -0.2174  0.4810  0.5193
   56GLOH    C3 8960   2.743   8.664   0.487  0.2955 -0.2878  0.0955
   56GLOH   H06 8961   2.783   8.717   0.574 -2.1573  1.6747  0.0678
   56GLOH   H07 8962   2.775   8.704   0.391 -0.6760  2.9055  1.0399
   56GLOH    O3 8963   2.781   8.526   0.497 -0.2011  0.0092 -0.8236
   56GLOH   H01 8964   2.705   8.484   0.454 -2.0310  2.4849 -0.1264
   57GLOH   H03 8965   2.524   8.907   1.693  0.7501  0.2355 -1.0047
   57GLOH    O1 8966   2.496   8.826   1.647  0.1445 -0.0248 -0.1942
   57GLOH    C1 8967   2.542   8.829   1.510 -0.1990 -0.5760  0.3433
   57GLOH   H02 8968   2.561   8.935   1.494 -0.9548 -0.1396  2.2169
   57GLOH   H08 8969   2.466   8.799   1.438 -1.0112  0.0655  0.9202
   57GLOH    C2 8970   2.668   8.740   1.482  0.7735  0.4168  0.2252
   57GLOH   H04 8971   2.737   8.744   1.567 -0.7770 -0.8023  1.5520
   57GLOH    O2 8972   2.632   8.601   1.465  0.0593 -0.0962  0.9318
   57GLOH   H05 8973   2.601   8.569   1.551  0.6437 -0.3677  1.0425
   57GLOH    C3 8974   2.746   8.788   1.353  0.1012  0.2365 -0.3002
   57GLOH   H06 8975   2.688   8.767   1.264  1.5368 -0.4406 -1.0882
   57GLOH   H07 8976   2.837   8.728   1.359 -2.1671 -3.2467  0.4635
   57GLOH    O3 8977   2.782   8.927   1.370 -0.2927 -0.2331  0.0321
   57GLOH   H01 8978   2.848   8.943   1.301 -0.6918 -1.1115 -0.5503
   58GLOH   H03 8979   4.335   8.431   0.934  0.3422 -0.4393  0.1384
   58GLOH    O1 8980   4.285   8.513   0.918  0.6468 -0.2444  0.1735
   58GLOH    C1 8981   4.190   8.493   0.810 -0.0742  0.1168  0.8144
   58GLOH   H02 8982   4.107   8.432   0.845 -0.8198 -1.3992 -3.3704
   58GLOH   H08 8983   4.227   8.430   0.729  0.9285 -0.7876  1.9453
   58GLOH    C2 8984   4.128   8.621   0.745  0.1914 -0.1686 -0.5296
   58GLOH   H04 8985   4.210   8.671   0.692 -0.0703  0.3631 -0.4382
   58GLOH    O2 8986   4.038   8.585   0.635  0.2126 -0.6932  0.1001
   58GLOH   H05 8987   4.013   8.491   0.633 -1.2490 -0.3017 -1.1136
   58GLOH    C3 8988   4.065   8.708   0.852  0.6585 -0.1180 -0.5855
   58GLOH   H06 8989   3.968   8.664   0.874  0.0039  1.9773  0.9428
   58GLOH   H07 8990   4.046   8.808   0.813  1.4828  0.9263  1.6288
   58GLOH    O3 8991   4.138   8.713   0.976  0.3160  0.0270  0.0291
   58GLOH   H01 8992   4.183   8.626   0.977 -0.7136 -0.5599 -1.9223
   59GLOH   H03 8993   3.591   8.876   0.172 -2.4358 -0.9615  0.9156
   59GLOH    O1 8994   3.593   8.932   0.252  0.1213 -0.3430  0.4727
   59GLOH    C1 8995   3.683   8.880   0.355 -0.6046 -0.3204 -0.3599
   59GLOH   H02 8996   3.622   8.815   0.418 -1.0067 -0.7128 -1.1472
   59GLOH   H08 8997   3.715   8.960   0.422  1.4827  0.2425 -1.9824
   59GLOH    C2 8998   3.809   8.799   0.319 -1.0558  0.1581  0.9723
   59GLOH   H04 8999   3.839   8.765   0.419  0.7700 -0.3633  0.2774
   59GLOH    O2 9000   3.777   8.686   0.226  0.0752 -0.4458 -0.0165
   59GLOH   H05 9001   3.862   8.653   0.190 -0.1741 -1.1856  0.0675
   59GLOH    C3 9002   3.921   8.888   0.266  0.4743  0.7938 -0.4552
   59GLOH   H06 9003   3.908   8.927   0.166  0.9254  1.5028 -0.2390
   59GLOH   H07 9004   4.010   8.825   0.259  0.6991  0.9451  0.8200
   59GLOH    O3 9005   3.949   8.986   0.365  0.0551  0.1777 -0.6199
   59GLOH   H01 9006   3.985   8.943   0.445 -0.1251  1.7005  0.3130
   60GLOH   H03 9007   3.046   9.762   0.199  0.8016 -1.4327  0.7942
   60GLOH    O1 9008   2.951   9.739   0.193  0.3892  0.3721  0.1514
   60GLOH    C1 9009   2.850   9.825   0.244 -0.8421  0.4180  0.4764
   60GLOH   H02 9010   2.755   9.810   0.192 -0.4873  1.5767 -0.5154
   60GLOH   H08 9011   2.875   9.931   0.236 -0.5552  0.2671 -0.5995
   60GLOH    C2 9012   2.826   9.796   0.390  0.2389  0.6290 -0.3222
   60GLOH   H04 9013   2.917   9.829   0.441 -2.3759  3.2940  2.8203
   60GLOH    O2 9014   2.720   9.885   0.429 -0.0677  0.3474  0.2416
   60GLOH   H05 9015   2.677   9.861   0.513  1.2317  0.5370  0.9871
   60GLOH    C3 9016   2.808   9.645   0.432 -0.3269 -0.0417  0.0005
   60GLOH   H06 9017   2.883   9.593   0.373 -0.0365 -1.6879  1.7695
   60GLOH   H07 9018   2.713   9.605   0.396  0.5843 -0.2677 -2.2496
   60GLOH    O3 9019   2.844   9.611   0.570 -0.2937 -0.2432  0.6682
   60GLOH   H01 9020   2.938   9.634   0.587 -0.4343  0.0643  1.0556
   61GLOH   H03 9021   3.568   8.822   1.567 -0.2480  0.4979  0.4209
   61GLOH    O1 9022   3.645   8.774   1.605 -0.3296 -0.1623 -0.2307
   61GLOH    C1 9023   3.638   8.634   1.577  0.8354 -0.5335 -0.1354
   61GLOH   H02 9024   3.738   8.596   1.597  1.4455  0.5148 -1.1602
   61GLOH   H08 9025   3.622   8.614   1.471  0.2710 -0.8712  0.0157
   61GLOH    C2 9026   3.517   8.563   1.647 -0.1419  0.5052  0.4617
   61GLOH   H04 9027   3.421   8.606   1.616 -2.0154 -3.2474  0.8062
   61GLOH    O2 9028   3.519   8.428   1.613 -0.4299  0.0666  0.6018
   61GLOH   H05 9029   3.606   8.388   1.627 -0.4327 -0.2177 -0.1709
   61GLOH    C3 9030   3.530   8.564   1.802  0.1356  1.1657 -0.0628
   61GLOH   H06 9031   3.626   8.522   1.830 -0.1324  1.0635  0.7291
   61GLOH   H07 9032   3.462   8.495   1.852  1.0162 -2.8556 -4.1119
   61GLOH    O3 9033   3.514   8.691   1.856 -0.2314 -0.2412 -0.2135
   61GLOH   H01 9034   3.589   8.748   1.830 -0.5396  0.8378  1.1956
   62GLOH   H03 9035   3.146   9.229   1.878  1.7335 -0.7506 -0.7997
   62GLOH    O1 9036   3.153   9.271   1.791 -0.3775  0.6863 -0.3269
   62GLOH    C1 9037   3.063   9.215   1.694 -0.2648 -0.0797  0.2286
   62GLOH   H02 9038   2.959   9.235   1.723 -0.3131  0.1905 -0.1331
   62GLOH   H08 9039   3.069   9.107   1.678  3.0616 -0.0582  1.0538
   62GLOH    C2 9040   3.086   9.283   1.558  0.5402  0.2313 -0.5993
   62GLOH   H04 9041   3.178   9.238   1.518  2.1704  1.0411  2.1410
   62GLOH    O2 9042   2.976   9.249   1.470 -0.1512 -0.1206  0.0217
   62GLOH   H05 9043   2.977   9.309   1.393 -1.5313  0.0128  0.0919
   62GLOH    C3 9044   3.092   9.432   1.572  0.1843 -0.2974 -0.7885
   62GLOH   H06 9045   3.174   9.457   1.638 -0.7590 -0.5257  0.4988
   62GLOH   H07 9046   2.998   9.459   1.621 -0.2344  1.5344 -2.5516
   62GLOH    O3 9047   3.113   9.507   1.446 -0.0601 -0.7348  0.2813
   62GLOH   H01 9048   3.045   9.577   1.445  1.1025  0.4350  1.4825
   63GLOH   H03 9049   5.029  -0.068   0.785 -0.0339 -0.5499  1.2079
   63GLOH    O1 9050   4.939  -0.104   0.772 -0.1057  0.1760 -0.4279
   63GLOH    C1 9051   4.949  -0.240   0.748  0.1577  0.4704  0.2124
   63GLOH   H02 9052   5.000  -0.306   0.818 -2.4237 -1.5603  0.2570
   63GLOH   H08 9053   5.018  -0.256   0.665 -0.2661 -0.7353  0.0767
   63GLOH    C2 9054   4.812  -0.310   0.722  0.0859 -0.5985 -0.2838
   63GLOH   H04 9055   4.784  -0.297   0.616 -1.6696  0.0245  0.2327
   63GLOH    O2 9056   4.819  -0.455   0.728  0.1977 -0.3188 -0.2151
   63GLOH   H05 9057   4.745  -0.487   0.782 -0.3639  0.3338 -0.5889
   63GLOH    C3 9058   4.690  -0.254   0.800 -0.0672 -0.5589  0.5993
   63GLOH   H06 9059   4.701  -0.284   0.904  0.5238  0.1202  0.7370
   63GLOH   H07 9060   4.603  -0.306   0.760 -0.0863 -1.4878  1.8303
   63GLOH    O3 9061   4.672  -0.114   0.794 -0.7520  0.2905  0.1726
   63GLOH   H01 9062   4.757  -0.074   0.768 -1.8125  1.0774 -2.2665
   64GLOH   H03 9063   4.151   0.085   2.308 -0.0467 -0.0575  0.5469
   64GLOH    O1 9064   4.158   0.069   2.404  0.3045  0.9111  0.6857
   64GLOH    C1 9065   4.180  -0.066   2.421 -0.1628  0.0982 -0.0562
   64GLOH   H02 9066   4.283  -0.083   2.390  0.6139 -1.5048  3.0821
   64GLOH   H08 9067   4.122  -0.131   2.356 -1.1458  0.9766 -0.0634
   64GLOH    C2 9068   4.160  -0.114   2.567  0.1591 -0.6120 -0.1477
   64GLOH   H04 9069   4.069  -0.063   2.603  0.0768  0.7127 -2.1389
   64GLOH    O2 9070   4.150  -0.258   2.584 -0.0474  0.6316  0.0748
   64GLOH   H05 9071   4.065  -0.287   2.546  0.8912  0.3845 -1.8678
   64GLOH    C3 9072   4.276  -0.054   2.655 -0.1425 -0.5612  0.2535
   64GLOH   H06 9073   4.291   0.050   2.625 -3.7800 -0.3372 -1.1570
   64GLOH   H07 9074   4.369  -0.109   2.641 -0.6454 -0.7540 -2.8148
   64GLOH    O3 9075   4.233  -0.055   2.789 -0.0169 -0.0511  0.5912
   64GLOH   H01 9076   4.206  -0.145   2.815 -1.2675  0.0611 -0.2927
   65GLOH   H03 9077   3.780   8.162   0.459  1.0962  1.5572 -0.0811
   65GLOH    O1 9078   3.790   8.165   0.556 -0.7102  0.2188  0.1938
   65GLOH    C1 9079   3.889   8.060   0.591 -0.2479  0.3134 -0.8049
   65GLOH   H02 9080   3.954   8.036   0.506  1.2916  1.3932  0.0371
   65GLOH   H08 9081   3.836   7.973   0.631  1.9161 -0.5644  0.2772
   65GLOH    C2 9082   3.985   8.108   0.694  0.0767  0.1968 -0.6926
   65GLOH   H04 9083   3.929   8.150   0.779 -1.1074 -0.2738 -1.2311
   65GLOH    O2 9084   4.063   8.007   0.747  0.0925 -0.2948 -0.7035
   65GLOH   H05 9085   4.107   8.044   0.826 -1.1463 -1.8547  0.7804
   65GLOH    C3 9086   4.072   8.225   0.634  0.1172 -0.1889  0.2495
   65GLOH   H06 9087   4.102   8.201   0.532 -2.2236  0.0331 -0.5139
   65GLOH   H07 9088   4.159   8.232   0.699 -0.2127  1.7076  0.5133
   65GLOH    O3 9089   3.988   8.338   0.621 -0.7837 -0.6911 -0.1680
   65GLOH   H01 9090   3.897   8.304   0.608 -1.4078  0.3549  1.3305
   66GLOH   H03 9091   4.189   8.561  -0.075 -0.4389  2.2829  0.9013
   66GLOH    O1 9092   4.258   8.535  -0.011 -0.3977 -0.2411 -0.1273
   66GLOH    C1 9093   4.201   8.485   0.111 -0.5950  0.5860  0.4278
   66GLOH   H02 9094   4.280   8.459   0.181 -0.4500 -0.8300 -0.2579
   66GLOH   H08 9095   4.140   8.395   0.101 -1.8934  1.2243  2.1766
   66GLOH    C2 9096   4.118   8.585   0.191 -0.3049 -0.1503  0.1648
   66GLOH   H04 9097   4.171   8.680   0.176 -2.0530  0.5425 -1.9929
   66GLOH    O2 9098   3.986   8.594   0.139  0.6004 -0.3093  0.5710
   66GLOH   H05 9099   3.952   8.505   0.119  0.0823 -0.4403  2.0442
   66GLOH    C3 9100   4.123   8.561   0.340 -0.5705 -0.0171  0.0522
   66GLOH   H06 9101   4.044   8.628   0.372 -0.9725 -1.1749  1.5705
   66GLOH   H07 9102   4.213   8.605   0.383 -0.6056 -0.5549  0.6872
   66GLOH    O3 9103   4.085   8.420   0.382  0.2095 -0.0190  0.0011
   66GLOH   H01 9104   4.046   8.425   0.471 -2.0698  1.9136 -1.0693
   67GLOH   H03 9105   3.970   9.526   1.526  1.0386  0.2759 -0.4658
   67GLOH    O1 9106   3.955   9.454   1.590  0.6238  0.7421 -0.0262
   67GLOH    C1 9107   4.035   9.335   1.555  0.0874 -1.0466  0.6900
   67GLOH   H02 9108   4.137   9.356   1.589  0.1617 -0.2153 -0.0681
   67GLOH   H08 9109   4.041   9.311   1.449  2.3167 -1.5723  0.8978
   67GLOH    C2 9110   3.977   9.210   1.629 -0.0627  0.9451 -0.1781
   67GLOH   H04 9111   4.046   9.128   1.604 -0.7038  0.3877 -0.1630
   67GLOH    O2 9112   3.963   9.216   1.774 -0.3297  0.4024  0.5593
   67GLOH   H05 9113   4.031   9.271   1.815 -0.3248  0.1003  0.9628
   67GLOH    C3 9114   3.842   9.173   1.563 -0.5402 -0.1089 -0.0630
   67GLOH   H06 9115   3.791   9.269   1.549 -0.6821  0.0857  1.6299
   67GLOH   H07 9116   3.791   9.106   1.632 -0.7452 -2.9813 -2.9105
   67GLOH    O3 9117   3.853   9.117   1.434  0.0188  0.0401 -0.2735
   67GLOH   H01 9118   3.855   9.179   1.358  0.2322 -1.9904 -1.9559
   68GLOH   H03 9119   3.724   9.685   1.402  2.7246  1.5061 -1.3861
   68GLOH    O1 9120   3.686   9.670   1.313 -0.3201  0.3943  0.0499
   68GLOH    C1 9121   3.593   9.557   1.336 -0.6019 -0.3836 -0.1252
   68GLOH   H02 9122   3.517   9.542   1.260  1.7915 -0.6443 -2.5187
   68GLOH   H08 9123   3.531   9.570   1.425 -1.4576  0.6276 -0.8588
   68GLOH    C2 9124   3.669   9.425   1.350  0.6352  0.2716  0.1094
   68GLOH   H04 9125   3.722   9.417   1.446 -0.2934  0.5487  0.6554
   68GLOH    O2 9126   3.580   9.311   1.348  0.0823  0.2266  0.3368
   68GLOH   H05 9127   3.568   9.292   1.443  2.7269  1.8657  1.0384
   68GLOH    C3 9128   3.774   9.411   1.239  0.2105 -0.2135 -0.4278
   68GLOH   H06 9129   3.841   9.495   1.256 -1.0853  0.9325 -0.8921
   68GLOH   H07 9130   3.728   9.440   1.144 -0.4518 -2.0346 -0.6948
   68GLOH    O3 9131   3.844   9.282   1.230 -0.2198 -0.4271 -0.9261
   68GLOH   H01 9132   3.858   9.259   1.136  1.8482  1.0602 -1.0069
   69GLOH   H03 9133   4.335   0.520   1.933  0.9462  1.1480  0.0987
   69GLOH    O1 9134   4.361   0.522   1.839  0.2099 -0.3298 -0.1543
   69GLOH    C1 9135   4.457   0.407   1.843  0.0108 -0.1215  0.5364
   69GLOH   H02 9136   4.436   0.337   1.924 -1.3171 -0.4081 -0.0331
   69GLOH   H08 9137   4.561   0.439   1.843  0.2247 -0.7695 -1.4676
   69GLOH    C2 9138   4.437   0.315   1.717  0.2596 -0.3910  0.4889
   69GLOH   H04 9139   4.474   0.383   1.639  0.5947 -2.5207 -1.2552
   69GLOH    O2 9140   4.506   0.193   1.724  0.2616  0.3127 -0.1878
   69GLOH   H05 9141   4.509   0.154   1.635 -1.0526  0.3221 -0.2502
   69GLOH    C3 9142   4.288   0.298   1.678 -0.2956 -0.1268  0.5447
   69GLOH   H06 9143   4.234   0.247   1.759 -1.4362  1.7101  0.9540
   69GLOH   H07 9144   4.284   0.224   1.598 -0.6236 -1.1140  1.4460
   69GLOH    O3 9145   4.226   0.422   1.644 -0.2712  0.0060  0.0078
   69GLOH   H01 9146   4.269   0.495   1.693  2.8820 -1.6605 -0.1429
   70GLOH   H03 9147   3.016   8.813   1.964  0.4646  1.2346 -1.9158
   70GLOH    O1 9148   3.037   8.888   2.023 -0.0727 -0.2033  0.1346
   70GLOH    C1 9149   3.081   8.852   2.156  0.4526  0.0047  0.3590
   70GLOH   H02 9150   3.039   8.755   2.183  1.0444 -0.5266 -0.5974
   70GLOH   H08 9151   3.051   8.922   2.234 -1.3592  1.3080 -1.4548
   70GLOH    C2 9152   3.229   8.839   2.179  0.5780 -0.6740 -0.0160
   70GLOH   H04 9153   3.288   8.927   2.150 -0.5652  0.6829  1.7209
   70GLOH    O2 9154   3.266   8.797   2.313  0.2112  0.2487  0.1095
   70GLOH   H05 9155   3.234   8.707   2.334  0.9210 -0.9022 -3.2853
   70GLOH    C3 9156   3.266   8.733   2.078  0.5518 -0.0743 -0.5666
   70GLOH   H06 9157   3.259   8.790   1.985  0.7975 -1.4829 -1.4693
   70GLOH   H07 9158   3.187   8.657   2.073 -0.1685  0.4350  2.0643
   70GLOH    O3 9159   3.392   8.660   2.079  0.4666  0.4632  0.3142
   70GLOH   H01 9160   3.438   8.686   1.996  0.8949  0.5565  0.5802
   71GLOH   H03 9161   4.351   8.944   1.367 -1.6046 -1.5893  0.1489
   71GLOH    O1 9162   4.353   8.951   1.465  0.4990 -0.4256  0.0449
   71GLOH    C1 9163   4.240   8.883   1.512 -0.1169 -0.4812  0.3199
   71GLOH   H02 9164   4.154   8.949   1.521  1.2742  1.1879  1.8990
   71GLOH   H08 9165   4.270   8.843   1.610  1.2561 -2.0485 -0.7094
   71GLOH    C2 9166   4.201   8.762   1.422 -0.3598 -0.3533  0.0154
   71GLOH   H04 9167   4.289   8.696   1.425 -0.0373  0.1424  2.5325
   71GLOH    O2 9168   4.087   8.694   1.478  0.4197  0.3555  0.4922
   71GLOH   H05 9169   4.015   8.759   1.483 -1.0744 -1.1784 -0.4450
   71GLOH    C3 9170   4.171   8.802   1.276  0.7893  0.7529  0.2627
   71GLOH   H06 9171   4.080   8.861   1.268 -0.2211 -0.4127  2.8305
   71GLOH   H07 9172   4.162   8.708   1.220 -1.1372  1.7149 -1.1087
   71GLOH    O3 9173   4.283   8.872   1.219  0.6713 -0.0357 -0.1212
   71GLOH   H01 9174   4.263   8.887   1.125  0.5299  1.6141  0.1623
   72GLOH   H03 9175   2.693   7.940   1.334 -0.1874 -1.5537  0.6431
   72GLOH    O1 9176   2.776   7.892   1.312  0.4280  0.0001 -0.5335
   72GLOH    C1 9177   2.883   7.934   1.403 -0.8958 -0.1491  0.2736
   72GLOH   H02 9178   2.876   7.888   1.502 -0.5435  2.3026  1.4839
   72GLOH   H08 9179   2.871   8.039   1.430 -1.1881 -0.3544  0.9535
   72GLOH    C2 9180   3.024   7.905   1.346  0.6881  0.6227  0.0423
   72GLOH   H04 9181   3.030   7.968   1.257  2.2095 -1.9936 -1.7827
   72GLOH    O2 9182   3.131   7.945   1.437  0.1328 -0.3769  0.1004
   72GLOH   H05 9183   3.155   8.035   1.410  0.6725 -0.5301  0.0691
   72GLOH    C3 9184   3.044   7.766   1.292 -0.4997 -0.0211  0.1403
   72GLOH   H06 9185   3.019   7.704   1.378 -0.4208  0.9939  0.9018
   72GLOH   H07 9186   3.144   7.748   1.254  0.6239  2.5626  1.7268
   72GLOH    O3 9187   2.958   7.746   1.189  0.0593 -0.5683  0.3509
   72GLOH   H01 9188   2.871   7.774   1.223  1.0286  1.4907  1.2224
   73GLOH   H03 9189   3.966   0.492   1.158  0.2030  0.2107  0.6457
   73GLOH    O1 9190   3.880   0.515   1.197 -0.3437 -0.7967  0.0441
   73GLOH    C1 9191   3.869   0.483   1.337 -0.0695  0.1973 -0.3197
   73GLOH   H02 9192   3.822   0.385   1.345 -0.6024  0.3191 -1.6985
   73GLOH   H08 9193   3.822   0.563   1.395  0.6650  2.3446 -2.5694
   73GLOH    C2 9194   4.009   0.475   1.405  0.2718  0.1709 -0.4454
   73GLOH   H04 9195   4.064   0.565   1.372  3.5519 -1.4192  0.5204
   73GLOH    O2 9196   3.993   0.458   1.550 -0.0301 -0.1411 -0.4397
   73GLOH   H05 9197   4.076   0.459   1.600 -0.8205  3.4289  0.8959
   73GLOH    C3 9198   4.092   0.360   1.342  0.4118 -0.0868 -0.0891
   73GLOH   H06 9199   4.038   0.265   1.341 -0.9464  0.6784 -0.2306
   73GLOH   H07 9200   4.177   0.343   1.408  0.5358  0.3532 -0.1347
   73GLOH    O3 9201   4.132   0.400   1.211 -0.2794 -0.4163  0.0653
   73GLOH   H01 9202   4.195   0.330   1.187  0.4323  0.4967 -0.7678
   74GLOH   H03 9203   2.944   7.939   0.528  0.9151  0.0577 -0.6239
   74GLOH    O1 9204   2.910   7.997   0.458  0.1644  0.0188 -0.2957
   74GLOH    C1 9205   3.004   8.015   0.352 -1.0063  0.2354 -0.0680
   74GLOH   H02 9206   3.093   8.068   0.384  1.0621 -2.5174 -1.0909
   74GLOH   H08 9207   2.970   8.070   0.264 -0.4974  1.9983  0.8127
   74GLOH    C2 9208   3.062   7.882   0.307 -0.0442 -0.2557  0.4171
   74GLOH   H04 9209   2.987   7.808   0.275 -1.0744  0.5515  0.9482
   74GLOH    O2 9210   3.148   7.908   0.198 -0.4096 -0.8777 -0.2071
   74GLOH   H05 9211   3.096   7.948   0.126  0.2936  0.0742 -0.1875
   74GLOH    C3 9212   3.140   7.817   0.419  0.3085  0.2271  0.6069
   74GLOH   H06 9213   3.242   7.855   0.419  0.8127 -1.0421  2.0229
   74GLOH   H07 9214   3.149   7.709   0.406 -1.8048  0.0233  0.6375
   74GLOH    O3 9215   3.081   7.838   0.550 -0.1412 -0.2792  0.3265
   74GLOH   H01 9216   3.129   7.777   0.609 -0.4464 -0.7223  0.1188
   75GLOH   H03 9217   3.621   0.322   1.104 -1.8357  3.1605  2.9388
   75GLOH    O1 9218   3.617   0.246   1.166  0.3950  0.0768 -0.4330
   75GLOH    C1 9219   3.723   0.149   1.151  0.2069 -0.6873  0.2018
   75GLOH   H02 9220   3.820   0.198   1.160  0.4922 -0.7941 -1.9769
   75GLOH   H08 9221   3.711   0.103   1.053 -1.4859  1.2478 -0.5331
   75GLOH    C2 9222   3.712   0.039   1.260 -0.0721  0.2443  0.8137
   75GLOH   H04 9223   3.611  -0.004   1.262 -1.2434  2.7686 -1.3608
   75GLOH    O2 9224   3.807  -0.063   1.220 -0.0949 -0.2077 -0.4016
   75GLOH   H05 9225   3.772  -0.154   1.223  0.5289 -0.4661 -0.7517
   75GLOH    C3 9226   3.747   0.086   1.400  0.0642 -0.5743 -0.8321
   75GLOH   H06 9227   3.848   0.125   1.399 -0.4914  0.9876  0.2843
   75GLOH   H07 9228   3.739   0.009   1.476 -0.5876  0.4428  0.1570
   75GLOH    O3 9229   3.654   0.189   1.433  0.5766  0.1455  0.3635
   75GLOH   H01 9230   3.633   0.253   1.363 -0.6278  0.5505  1.0977
   76GLOH   H03 9231   3.248   0.471   1.808  0.6789  0.9275 -0.5079
   76GLOH    O1 9232   3.201   0.484   1.893  0.3532 -0.2422 -0.5014
   76GLOH    C1 9233   3.282   0.457   2.004  0.4366  0.2150 -0.0451
   76GLOH   H02 9234   3.356   0.536   2.014 -0.2984  0.9621 -0.3531
   76GLOH   H08 9235   3.342   0.367   1.994  1.6175  0.8586  1.0568
   76GLOH    C2 9236   3.200   0.451   2.136  0.3633  0.0273  1.0712
   76GLOH   H04 9237   3.142   0.358   2.129 -0.7352  0.7040  1.0583
   76GLOH    O2 9238   3.291   0.441   2.251 -0.9635  0.0614  0.2523
   76GLOH   H05 9239   3.236   0.402   2.321  0.0474 -0.2666  0.8786
   76GLOH    C3 9240   3.105   0.570   2.155 -0.2017 -0.4997  0.1493
   76GLOH   H06 9241   3.170   0.658   2.157 -0.0544 -0.5995 -0.1125
   76GLOH   H07 9242   3.053   0.570   2.250  0.7529  0.6963  0.6977
   76GLOH    O3 9243   3.017   0.572   2.041  0.7323  0.3099 -0.0234
   76GLOH   H01 9244   3.075   0.539   1.970  1.1472  0.4480  0.2510
   77GLOH   H03 9245   4.432   0.111   1.842  0.3592 -2.3239 -0.8319
   77GLOH    O1 9246   4.356   0.087   1.897  0.5732 -0.4848  0.3012
   77GLOH    C1 9247   4.297  -0.025   1.835 -0.2827  0.0120 -0.7580
   77GLOH   H02 9248   4.359  -0.110   1.865  0.5638  0.7258 -0.4744
   77GLOH   H08 9249   4.288  -0.012   1.727 -2.0134  1.6727 -0.4407
   77GLOH    C2 9250   4.150  -0.041   1.879  0.3928  0.4186  1.4279
   77GLOH   H04 9251   4.100   0.056   1.870  1.8674  1.3136  2.7885
   77GLOH    O2 9252   4.090  -0.143   1.795 -0.3992  0.2201 -0.4204
   77GLOH   H05 9253   4.097  -0.112   1.703  0.4840  1.5576  0.0835
   77GLOH    C3 9254   4.150  -0.081   2.027  0.0726  0.4021  0.3682
   77GLOH   H06 9255   4.204  -0.176   2.033 -0.0180  0.3998  1.2062
   77GLOH   H07 9256   4.049  -0.097   2.065 -0.0404  1.5694  0.5542
   77GLOH    O3 9257   4.213   0.022   2.114  0.2904 -0.3092  0.1537
   77GLOH   H01 9258   4.303   0.035   2.078  0.2018 -0.5081 -0.1391
   78GLOH   H03 9259   2.573  -0.063   1.347  0.4577 -1.7768 -0.5406
   78GLOH    O1 9260   2.601  -0.095   1.435 -0.1712  0.4801  0.5146
   78GLOH    C1 9261   2.713  -0.016   1.482  0.2805  0.7857  0.6405
   78GLOH   H02 9262   2.722  -0.023   1.591 -0.0205  0.5431  0.6520
   78GLOH   H08 9263   2.711   0.090   1.457 -1.0018  1.0090  1.6168
   78GLOH    C2 9264   2.846  -0.078   1.417  0.2576 -0.2044 -0.1866
   78GLOH   H04 9265   2.846  -0.067   1.308  1.9214 -2.7460 -0.4770
   78GLOH    O2 9266   2.960  -0.001   1.467 -0.2675 -0.5155  0.1328
   78GLOH   H05 9267   2.961   0.078   1.410  1.8050 -1.9133 -1.8233
   78GLOH    C3 9268   2.865  -0.223   1.450 -0.3530  0.2629 -0.9428
   78GLOH   H06 9269   2.772  -0.278   1.439 -0.0204 -0.6354  0.6328
   78GLOH   H07 9270   2.889  -0.245   1.554 -1.4036 -2.4744 -1.2501
   78GLOH    O3 9271   2.973  -0.277   1.370 -0.2867 -0.2927 -0.0876
   78GLOH   H01 9272   2.942  -0.273   1.277 -1.1804 -0.8273  0.1812
   79GLOH   H03 9273   4.649   9.155   1.583 -0.5376  0.8399 -0.4852
   79GLOH    O1 9274   4.723   9.214   1.606 -0.0639  0.1816 -0.3281
   79GLOH    C1 9275   4.683   9.336   1.535  0.3058 -0.6837  1.0160
   79GLOH   H02 9276   4.721   9.350   1.434 -0.1704  0.0387  0.9365
   79GLOH   H08 9277   4.734   9.413   1.593  2.5900 -0.2071 -1.5208
   79GLOH    C2 9278   4.532   9.362   1.560 -0.0437  0.4421  0.0106
   79GLOH   H04 9279   4.526   9.365   1.669  0.6059  3.2028  0.0263
   79GLOH    O2 9280   4.505   9.489   1.503 -0.3545 -0.1262 -0.2752
   79GLOH   H05 9281   4.435   9.531   1.556  1.1216 -0.0778  1.6864
   79GLOH    C3 9282   4.448   9.243   1.511 -0.6325 -0.1981  0.4474
   79GLOH   H06 9283   4.463   9.225   1.405  2.2438 -0.9408  0.9401
   79GLOH   H07 9284   4.347   9.267   1.544  0.4725  1.5143  2.7715
   79GLOH    O3 9285   4.487   9.120   1.575  0.4561  0.4960 -0.2812
   79GLOH   H01 9286   4.448   9.048   1.523  1.9259 -0.8065  0.3607
   80GLOH   H03 9287   2.979   8.068  -0.034  1.1634 -0.2220 -1.9793
   80GLOH    O1 9288   3.058   8.056   0.022  0.2868  0.4699 -0.5615
   80GLOH    C1 9289   3.102   8.185   0.053  0.2024 -1.0435 -0.6685
   80GLOH   H02 9290   3.040   8.227   0.132  0.3494 -1.4645 -0.3230
   80GLOH   H08 9291   3.097   8.257  -0.028  0.1050  0.0967  0.3547
   80GLOH    C2 9292   3.249   8.200   0.096 -0.2831  0.0658  0.7177
   80GLOH   H04 9293   3.273   8.306   0.106 -0.1150  0.1143 -0.1700
   80GLOH    O2 9294   3.285   8.133   0.221 -0.0256 -0.1127  0.0961
   80GLOH   H05 9295   3.236   8.049   0.221 -1.0293  0.4624  1.7815
   80GLOH    C3 9296   3.336   8.136  -0.018  0.1072 -0.1573  0.0999
   80GLOH   H06 9297   3.293   8.037  -0.031  0.3157 -0.3067  0.5624
   80GLOH   H07 9298   3.439   8.141   0.017  0.7387  2.5053 -1.9363
   80GLOH    O3 9299   3.337   8.212  -0.139  0.1549 -0.2404  0.2130
   80GLOH   H01 9300   3.349   8.307  -0.122  0.6178 -0.4774  1.3042
   81GLOH   H03 9301   2.890   8.871   0.172 -0.1150  1.5852  4.3339
   81GLOH    O1 9302   2.877   8.955   0.125 -0.0584 -0.1915  1.0201
   81GLOH    C1 9303   3.011   8.966   0.068  0.5988  0.0201 -0.3983
   81GLOH   H02 9304   3.022   8.885  -0.004 -0.3080 -0.6203  0.1781
   81GLOH   H08 9305   3.090   8.963   0.142  1.3615 -1.9740 -1.2707
   81GLOH    C2 9306   3.030   9.105  -0.001  0.0978  0.1094 -0.2113
   81GLOH   H04 9307   3.024   9.175   0.083 -0.0055  1.2751 -1.1790
   81GLOH    O2 9308   3.169   9.120  -0.048  0.4689 -0.8238 -0.3035
   81GLOH   H05 9309   3.168   9.073  -0.133  0.4168 -0.2763 -0.6091
   81GLOH    C3 9310   2.914   9.118  -0.099 -0.4850  0.3739 -0.3438
   81GLOH   H06 9311   2.896   9.225  -0.107  0.0571  0.4863 -0.0440
   81GLOH   H07 9312   2.818   9.087  -0.059 -1.0601  1.6968 -0.6780
   81GLOH    O3 9313   2.936   9.067  -0.231 -0.0047 -0.2688 -0.6099
   81GLOH   H01 9314   2.977   9.140  -0.281  1.8689  0.0016  1.2534
   82GLOH   H03 9315   3.040   7.793   1.069  4.0283 -2.8590  1.3335
   82GLOH    O1 9316   3.085   7.808   0.983  0.1867 -0.1251 -0.2981
   82GLOH    C1 9317   3.000   7.888   0.896  0.8398 -0.0932 -0.1382
   82GLOH   H02 9318   2.896   7.857   0.889  1.0600 -0.8069 -0.2284
   82GLOH   H08 9319   3.043   7.892   0.796 -3.0760  2.0526 -1.8294
   82GLOH    C2 9320   3.001   8.039   0.935 -0.0886  0.4873 -0.5896
   82GLOH   H04 9321   2.944   8.067   1.024 -0.6026 -0.0426 -0.7519
   82GLOH    O2 9322   3.136   8.086   0.956 -0.0061  0.2465  0.0678
   82GLOH   H05 9323   3.197   8.093   0.880  3.0420 -0.1581  2.3495
   82GLOH    C3 9324   2.929   8.112   0.814  0.3498 -0.3840  0.1588
   82GLOH   H06 9325   2.959   8.063   0.721 -1.7921 -1.4185 -0.0187
   82GLOH   H07 9326   2.965   8.215   0.813  0.8413 -0.5526 -0.5436
   82GLOH    O3 9327   2.784   8.120   0.818 -0.1980 -0.3624  0.1930
   82GLOH   H01 9328   2.757   8.200   0.866 -2.8757 -0.0397 -1.7542
   83GLOH   H03 9329   3.500   0.014   0.572 -2.3189 -0.0355 -1.5074
   83GLOH    O1 9330   3.461   0.063   0.647 -0.0900 -0.5086  0.0158
   83GLOH    C1 9331   3.419  -0.027   0.753 -0.4449 -0.3850 -0.1185
   83GLOH   H02 9332   3.395  -0.127   0.717  1.7040 -2.2637  3.4517
   83GLOH   H08 9333   3.337   0.021   0.806  0.2341 -0.5264  1.0756
   83GLOH    C2 9334   3.535  -0.048   0.857 -0.3773  0.3005  0.1271
   83GLOH   H04 9335   3.556   0.048   0.907  1.4818  0.3710 -0.7783
   83GLOH    O2 9336   3.493  -0.150   0.958 -0.4817  0.1802  0.0401
   83GLOH   H05 9337   3.426  -0.113   1.018  1.2791  0.2234  2.0609
   83GLOH    C3 9338   3.670  -0.091   0.804  0.4690  0.2903 -0.0455
   83GLOH   H06 9339   3.739  -0.086   0.888 -2.1013 -0.6444  2.2157
   83GLOH   H07 9340   3.695  -0.004   0.744  0.3768  1.3884  1.5030
   83GLOH    O3 9341   3.659  -0.205   0.724  0.2451  0.0315  0.3052
   83GLOH   H01 9342   3.605  -0.271   0.772  0.4728 -0.4287 -0.0654
   84GLOH   H03 9343   4.154   9.650   0.275  0.1097  0.2544 -0.3687
   84GLOH    O1 9344   4.113   9.737   0.291 -0.4572 -0.1233  0.2844
   84GLOH    C1 9345   3.985   9.732   0.226 -0.9554 -0.8096  0.1369
   84GLOH   H02 9346   3.936   9.635   0.239 -1.7026 -0.4505 -0.0172
   84GLOH   H08 9347   3.999   9.755   0.120 -0.7506  0.9353  0.5413
   84GLOH    C2 9348   3.900   9.842   0.288 -1.1271  0.2813  0.2236
   84GLOH   H04 9349   3.960   9.934   0.300  1.3260 -0.9742 -1.9567
   84GLOH    O2 9350   3.785   9.875   0.208  0.1846  0.2208  0.6613
   84GLOH   H05 9351   3.746   9.797   0.166  1.2557 -0.1869  0.3958
   84GLOH    C3 9352   3.863   9.792   0.431 -0.4891 -0.3759  0.1714
   84GLOH   H06 9353   3.957   9.760   0.474  0.9039 -0.7439 -3.0352
   84GLOH   H07 9354   3.806   9.703   0.408  0.0392 -0.5759 -0.3620
   84GLOH    O3 9355   3.791   9.894   0.514 -0.3637 -0.1182 -0.0235
   84GLOH   H01 9356   3.746   9.840   0.581  0.9207 -1.2334 -0.0564
   85GLOH   H03 9357   4.151   9.785   0.726  2.2668 -1.8590  0.9647
   85GLOH    O1 9358   4.082   9.715   0.726 -0.1649  0.4501 -0.7953
   85GLOH    C1 9359   4.006   9.722   0.847 -0.1802 -1.1354 -0.8741
   85GLOH   H02 9360   3.925   9.794   0.843  1.5659  0.9878  0.9497
   85GLOH   H08 9361   4.061   9.755   0.935 -1.2259 -1.1416 -0.2032
   85GLOH    C2 9362   3.958   9.576   0.874 -0.0969  0.4758 -0.9549
   85GLOH   H04 9363   4.049   9.514   0.874 -0.2668  0.2260 -1.6288
   85GLOH    O2 9364   3.895   9.566   1.005 -0.3807  0.5052 -0.0377
   85GLOH   H05 9365   3.808   9.608   1.009 -0.8375 -0.4164 -0.2516
   85GLOH    C3 9366   3.871   9.525   0.758 -0.3408  0.0559  0.2058
   85GLOH   H06 9367   3.784   9.590   0.757 -2.0312 -2.0811  2.3339
   85GLOH   H07 9368   3.835   9.424   0.780  0.6059  0.0003  1.5467
   85GLOH    O3 9369   3.931   9.539   0.623  0.3464 -0.4182  0.0255
   85GLOH   H01 9370   3.995   9.612   0.635  0.6640 -0.8504  1.0629
   86GLOH   H03 9371   2.676   9.058   1.690 -0.2401 -0.3473 -0.3874
   86GLOH    O1 9372   2.636   9.031   1.775  0.0143 -0.1113 -0.1945
   86GLOH    C1 9373   2.741   8.954   1.850  0.7597 -0.0619  0.0697
   86GLOH   H02 9374   2.824   9.013   1.887 -0.6290  1.2835  1.0781
   86GLOH   H08 9375   2.795   8.887   1.783  1.3985  0.5819 -0.0618
   86GLOH    C2 9376   2.684   8.868   1.961 -0.2059  0.0798 -0.7340
   86GLOH   H04 9377   2.614   8.796   1.915 -0.7470 -0.1513  0.4300
   86GLOH    O2 9378   2.786   8.784   2.023 -0.4960  0.4871 -0.1020
   86GLOH   H05 9379   2.772   8.778   2.119 -3.3136 -0.2757 -0.5026
   86GLOH    C3 9380   2.608   8.963   2.058 -0.4928  0.1301  0.7571
   86GLOH   H06 9381   2.692   9.018   2.101 -1.8179  3.4026 -0.6645
   86GLOH   H07 9382   2.555   8.905   2.133 -0.9418  1.5806  1.5700
   86GLOH    O3 9383   2.515   9.053   1.990  0.3305 -0.2608 -0.5193
   86GLOH   H01 9384   2.526   9.047   1.893 -1.5214 -1.5817 -0.6635
   87GLOH   H03 9385   3.340   9.305   0.247  2.3486  4.0581 -0.6207
   87GLOH    O1 9386   3.265   9.353   0.206  0.0686  1.1075 -0.0590
   87GLOH    C1 9387   3.148   9.361   0.295  0.1721  0.2170 -0.1123
   87GLOH   H02 9388   3.095   9.266   0.295  1.5315 -0.5576  0.0910
   87GLOH   H08 9389   3.080   9.430   0.247  0.7967  1.2527  0.4777
   87GLOH    C2 9390   3.183   9.411   0.435 -0.3117  0.4828  0.0093
   87GLOH   H04 9391   3.270   9.365   0.485  0.1280  1.8938  0.5861
   87GLOH    O2 9392   3.211   9.554   0.433 -0.3099  0.6380  0.2031
   87GLOH   H05 9393   3.171   9.590   0.514 -0.1036  1.0085  0.1395
   87GLOH    C3 9394   3.065   9.384   0.534 -0.5114  0.2150 -0.3904
   87GLOH   H06 9395   2.980   9.425   0.479 -1.0801  1.9658  1.7377
   87GLOH   H07 9396   3.079   9.447   0.622  1.6885  2.2008 -2.1184
   87GLOH    O3 9397   3.030   9.245   0.554  0.1894 -0.2892  0.1963
   87GLOH   H01 9398   3.046   9.220   0.647 -0.8621  3.5196  1.5208
   88GLOH   H03 9399   4.144   9.446   1.884 -0.9550 -0.1941  0.8257
   88GLOH    O1 9400   4.164   9.351   1.874  0.6971  0.2077 -0.0139
   88GLOH    C1 9401   4.302   9.319   1.861  0.8456  0.6468  0.0420
   88GLOH   H02 9402   4.355   9.359   1.948 -1.1091  2.3274  0.4759
   88GLOH   H08 9403   4.331   9.369   1.769 -2.3022  1.9151 -0.3096
   88GLOH    C2 9404   4.324   9.166   1.867 -0.4001 -0.0922 -0.4571
   88GLOH   H04 9405   4.258   9.123   1.789 -0.3622  1.3598 -1.3087
   88GLOH    O2 9406   4.463   9.135   1.846 -0.0955  0.3719 -0.0911
   88GLOH   H05 9407   4.478   9.142   1.750 -1.8168 -0.0098 -0.3941
   88GLOH    C3 9408   4.275   9.108   2.001  0.3466  0.3150 -0.3027
   88GLOH   H06 9409   4.322   9.177   2.071  2.4126 -0.8339 -0.5184
   88GLOH   H07 9410   4.315   9.007   2.006 -0.7576 -0.0374  2.7069
   88GLOH    O3 9411   4.135   9.097   2.018  0.3321  0.1973  0.0365
   88GLOH   H01 9412   4.115   9.021   1.960  0.2548 -0.8267  1.3705
   89GLOH   H03 9413   3.773   8.048   2.372  1.4322  1.4242 -0.7586
   89GLOH    O1 9414   3.756   8.107   2.447 -0.7472  0.0994 -0.1665
   89GLOH    C1 9415   3.618   8.139   2.449 -0.0729  0.3903  0.8649
   89GLOH   H02 9416   3.595   8.224   2.385 -0.2801 -0.9291 -0.8432
   89GLOH   H08 9417   3.585   8.157   2.551  0.6681  1.4302  0.9307
   89GLOH    C2 9418   3.533   8.020   2.403 -0.0298  0.8135 -0.4258
   89GLOH   H04 9419   3.548   7.936   2.473 -0.7309  2.7013  2.0857
   89GLOH    O2 9420   3.392   8.068   2.380 -0.0112 -0.1284  0.1208
   89GLOH   H05 9421   3.371   8.113   2.464 -1.4801  1.2088 -0.9326
   89GLOH    C3 9422   3.575   7.965   2.267 -0.0269  0.3891 -0.0887
   89GLOH   H06 9423   3.573   8.048   2.197 -0.5285 -0.4021 -1.0320
   89GLOH   H07 9424   3.507   7.887   2.234 -1.9435  1.2207  1.7692
   89GLOH    O3 9425   3.717   7.939   2.265  0.3415  0.4461  0.1555
   89GLOH   H01 9426   3.743   7.908   2.176 -0.9951  0.3344 -0.2141
   90GLOH   H03 9427   3.406   0.028   0.367 -0.7117 -0.8749  0.9283
   90GLOH    O1 9428   3.313   0.049   0.347 -0.1784  0.4206 -0.2685
   90GLOH    C1 9429   3.274   0.180   0.400  0.0857  0.2063 -0.4322
   90GLOH   H02 9430   3.301   0.178   0.505  0.5204  1.9230 -0.4938
   90GLOH   H08 9431   3.165   0.180   0.402  0.1050  1.0627  1.6153
   90GLOH    C2 9432   3.335   0.305   0.326 -0.4863  0.2376 -0.3206
   90GLOH   H04 9433   3.438   0.277   0.301 -0.4946  0.1803 -0.2900
   90GLOH    O2 9434   3.270   0.324   0.201  0.2399 -0.3187 -0.0076
   90GLOH   H05 9435   3.264   0.240   0.153  0.3453  1.0752 -2.5449
   90GLOH    C3 9436   3.328   0.436   0.412 -0.7130  0.3645  0.1829
   90GLOH   H06 9437   3.221   0.457   0.418 -0.8601 -0.5497  0.9120
   90GLOH   H07 9438   3.368   0.519   0.355 -1.4014  1.0678  0.7190
   90GLOH    O3 9439   3.387   0.418   0.545 -0.1539  0.0409  0.0322
   90GLOH   H01 9440   3.477   0.381   0.535  0.1628  1.0429 -1.0003
   91GLOH   H03 9441   3.505   9.249   0.966  0.0051 -3.5782  0.5329
   91GLOH    O1 9442   3.523   9.257   0.871 -0.1541  0.2814  0.7180
   91GLOH    C1 9443   3.568   9.392   0.838 -0.1077 -0.8808 -0.0463
   91GLOH   H02 9444   3.610   9.405   0.739 -0.2426 -0.1817 -0.0135
   91GLOH   H08 9445   3.646   9.415   0.910  0.5280 -3.4230  0.1393
   91GLOH    C2 9446   3.452   9.488   0.845  0.0599 -0.5910 -0.2379
   91GLOH   H04 9447   3.410   9.485   0.946  1.2717  2.3434  0.4092
   91GLOH    O2 9448   3.500   9.628   0.833  0.0882  0.9515  0.3361
   91GLOH   H05 9449   3.461   9.681   0.904  0.1280 -1.1671  1.9724
   91GLOH    C3 9450   3.345   9.455   0.736 -0.6948  0.1490 -0.3807
   91GLOH   H06 9451   3.374   9.499   0.640 -1.4023 -0.3878 -0.8434
   91GLOH   H07 9452   3.254   9.504   0.770 -0.4615  0.1708  0.2130
   91GLOH    O3 9453   3.320   9.313   0.732 -0.0996  0.1617 -0.5483
   91GLOH   H01 9454   3.388   9.271   0.788 -1.5841 -1.2994  0.2177
   92GLOH   H03 9455   3.195   8.270   2.234 -1.8659  0.2739 -4.7363
   92GLOH    O1 9456   3.239   8.356   2.222 -0.0798  0.0807 -0.3886
   92GLOH    C1 9457   3.316   8.348   2.103  0.4327  0.1964 -0.7961
   92GLOH   H02 9458   3.420   8.327   2.127 -0.0963  0.1592  1.6024
   92GLOH   H08 9459   3.309   8.441   2.046 -0.7415  1.2766  1.0295
   92GLOH    C2 9460   3.258   8.242   2.009  0.7863  0.3995 -1.1403
   92GLOH   H04 9461   3.151   8.267   2.009  0.1090 -2.2690 -3.3063
   92GLOH    O2 9462   3.313   8.254   1.880 -0.4538  0.2036 -0.3784
   92GLOH   H05 9463   3.395   8.202   1.873  1.2006  2.8088 -1.2377
   92GLOH    C3 9464   3.272   8.101   2.070  0.2078 -0.2931  0.4384
   92GLOH   H06 9465   3.377   8.072   2.071  0.1894 -0.3497  1.0616
   92GLOH   H07 9466   3.220   8.039   1.998  0.4627 -0.8255  0.7116
   92GLOH    O3 9467   3.205   8.084   2.195  0.4178 -0.5374 -0.0950
   92GLOH   H01 9468   3.261   8.057   2.270 -1.2335 -0.1812  1.2908
   93GLOH   H03 9469   2.925   0.181   1.196  1.8163 -0.6552 -0.9130
   93GLOH    O1 9470   2.952   0.194   1.289  0.5367 -0.6581 -0.5368
   93GLOH    C1 9471   3.027   0.318   1.293 -0.1419 -0.3780 -0.1750
   93GLOH   H02 9472   2.950   0.395   1.299  0.0762 -0.0490 -1.5546
   93GLOH   H08 9473   3.084   0.328   1.201 -1.1233 -0.4286 -0.7949
   93GLOH    C2 9474   3.112   0.320   1.425  0.0547  0.3904  1.4461
   93GLOH   H04 9475   3.174   0.229   1.424 -0.3678  0.1000  0.1841
   93GLOH    O2 9476   3.206   0.433   1.430 -0.5719  0.1347 -1.1473
   93GLOH   H05 9477   3.250   0.443   1.344  0.4194  3.9279 -0.2861
   93GLOH    C3 9478   3.016   0.315   1.544 -0.0639 -0.6913  0.4130
   93GLOH   H06 9479   2.947   0.230   1.547 -2.8179  1.5280  2.2485
   93GLOH   H07 9480   2.951   0.402   1.547  0.3122 -0.4105  0.5200
   93GLOH    O3 9481   3.090   0.298   1.666 -0.5495 -0.0143 -0.7951
   93GLOH   H01 9482   3.171   0.255   1.636  0.0253  0.2827  0.3074
   94GLOH   H03 9483   4.115   0.401   2.552  3.2199  0.5407  0.9710
   94GLOH    O1 9484   4.099   0.497   2.543  0.1436  0.0404  0.3372
   94GLOH    C1 9485   3.963   0.518   2.561 -0.0634  0.3469 -0.2977
   94GLOH   H02 9486   3.905   0.449   2.622  2.0726 -2.1186 -0.9876
   94GLOH   H08 9487   3.916   0.496   2.465 -1.4995  0.0649  0.4466
   94GLOH    C2 9488   3.940   0.660   2.613  0.1481  0.0312  0.6202
   94GLOH   H04 9489   3.962   0.736   2.536 -0.1280 -1.2472 -0.7551
   94GLOH    O2 9490   3.801   0.677   2.632  0.3016  0.2479  0.3374
   94GLOH   H05 9491   3.787   0.637   2.719 -0.0352  0.5059  0.4066
   94GLOH    C3 9492   4.019   0.692   2.743  0.1341  0.1973  0.5623
   94GLOH   H06 9493   4.004   0.798   2.763  0.7889  0.2160  0.9860
   94GLOH   H07 9494   4.125   0.668   2.731  0.0823  0.0289  0.4423
   94GLOH    O3 9495   3.972   0.603   2.844 -0.4312 -0.0817  0.4783
   94GLOH   H01 9496   4.022   0.520   2.850 -0.3045 -0.0854 -0.5187
   95GLOH   H03 9497   3.843   9.264   1.901 -1.0099 -1.3223 -0.6211
   95GLOH    O1 9498   3.832   9.274   1.997 -0.0636 -0.3843 -0.6031
   95GLOH    C1 9499   3.794   9.408   2.042 -0.4710  0.1249  0.4133
   95GLOH   H02 9500   3.883   9.471   2.050 -1.3905  1.5545 -0.4564
   95GLOH   H08 9501   3.748   9.409   2.141 -0.5684 -3.6816  0.4761
   95GLOH    C2 9502   3.693   9.481   1.963  0.1095  0.1761 -0.1231
   95GLOH   H04 9503   3.609   9.415   1.938 -0.5571  1.2152 -0.6509
   95GLOH    O2 9504   3.637   9.600   2.017 -0.3502  0.2781  0.6347
   95GLOH   H05 9505   3.541   9.598   2.027 -0.3764  0.7485  0.5019
   95GLOH    C3 9506   3.749   9.526   1.826  0.3496  0.5544 -0.3243
   95GLOH   H06 9507   3.844   9.578   1.840  0.8941 -0.9806  1.9456
   95GLOH   H07 9508   3.676   9.582   1.767  0.4401  1.6314  0.5730
   95GLOH    O3 9509   3.768   9.406   1.747  0.2749  0.5326 -0.0806
   95GLOH   H01 9510   3.830   9.420   1.673 -0.8794  0.4210 -1.0902
   96GLOH   H03 9511   2.861   9.643   1.116  0.0681 -0.0282 -3.4379
   96GLOH    O1 9512   2.893   9.735   1.118 -0.3411  0.1135 -0.1928
   96GLOH    C1 9513   2.870   9.780   0.981  0.0725  0.3357 -0.4335
   96GLOH   H02 9514   2.765   9.789   0.953  0.5105  0.8065 -1.9730
   96GLOH   H08 9515   2.927   9.716   0.914  0.2388  0.7787 -0.7211
   96GLOH    C2 9516   2.923   9.922   0.958 -0.4383 -0.5806  0.4635
   96GLOH   H04 9517   3.010   9.943   1.022 -0.9263  1.0160  0.6304
   96GLOH    O2 9518   2.952   9.947   0.816 -0.0418  0.2872  0.2825
   96GLOH   H05 9519   3.007  10.027   0.813  0.6534 -0.1839  0.4430
   96GLOH    C3 9520   2.824  10.032   1.007  0.3755  0.2005 -0.0220
   96GLOH   H06 9521   2.769   9.988   1.090  0.8217 -1.2551 -0.4825
   96GLOH   H07 9522   2.741  10.041   0.936 -0.6192  2.3566  1.3586
   96GLOH    O3 9523   2.889  10.151   1.034  0.1796 -0.3611 -0.3894
   96GLOH   H01 9524   2.959  10.176   0.971 -0.0221  2.9475  0.5897
   97GLOH   H03 9525   2.997   0.249   1.801  1.6125 -1.1023  0.9143
   97GLOH    O1 9526   2.924   0.197   1.839  0.3708  0.2789  0.4483
   97GLOH    C1 9527   2.878   0.237   1.969  0.8855  0.0126 -0.2702
   97GLOH   H02 9528   2.781   0.286   1.957  1.4378  0.9034 -1.2448
   97GLOH   H08 9529   2.946   0.314   2.006  0.2408  2.3661 -3.6749
   97GLOH    C2 9530   2.870   0.125   2.068  0.0276 -0.1061 -0.0106
   97GLOH   H04 9531   2.968   0.074   2.060  0.4164  0.9796 -2.6354
   97GLOH    O2 9532   2.833   0.175   2.196 -0.0343  0.1669 -0.2970
   97GLOH   H05 9533   2.906   0.151   2.255  0.9620 -1.0053 -1.9534
   97GLOH    C3 9534   2.787   0.000   2.020  0.3225 -0.7173 -0.3827
   97GLOH   H06 9535   2.833  -0.041   1.930 -0.3477 -2.4367  0.0407
   97GLOH   H07 9536   2.690   0.040   1.991  0.4583 -0.3047 -0.2684
   97GLOH    O3 9537   2.761  -0.102   2.123  0.1328 -0.4707  0.0297
   97GLOH   H01 9538   2.699  -0.073   2.193 -1.1625 -1.7193 -0.5766
   98GLOH   H03 9539   4.277   0.569   2.161  0.5202  0.4404  0.1372
   98GLOH    O1 9540   4.273   0.555   2.065  0.2314 -0.2274  0.2430
   98GLOH    C1 9541   4.134   0.535   2.024 -0.1409  0.0973 -0.2174
   98GLOH   H02 9542   4.109   0.432   2.049 -1.5032 -0.2869 -2.9617
   98GLOH   H08 9543   4.122   0.556   1.918  0.4669 -1.2985 -0.5680
   98GLOH    C2 9544   4.039   0.642   2.089 -0.5858  0.5017 -0.1653
   98GLOH   H04 9545   4.074   0.746   2.076  2.1691  0.0114  2.5523
   98GLOH    O2 9546   3.917   0.624   2.024 -0.1770  0.2720 -0.2495
   98GLOH   H05 9547   3.852   0.681   2.070 -2.0676 -2.5069  0.6181
   98GLOH    C3 9548   4.015   0.609   2.240  0.0307  0.4160 -0.6280
   98GLOH   H06 9549   3.957   0.517   2.249 -0.2330  0.5870 -0.5775
   98GLOH   H07 9550   3.959   0.692   2.281 -1.1446  0.5697 -2.4903
   98GLOH    O3 9551   4.149   0.597   2.302  0.2525 -0.0893 -0.1290
   98GLOH   H01 9552   4.140   0.583   2.398 -1.1201 -0.7980 -0.3444
   99GLOH   H03 9553   3.862   9.391  -0.118  0.3707  0.5871  0.7219
   99GLOH    O1 9554   3.890   9.445  -0.194  0.2305 -0.2034  0.0956
   99GLOH    C1 9555   3.937   9.370  -0.311  0.3894 -0.6525  0.1307
   99GLOH   H02 9556   3.940   9.446  -0.389  1.5911 -3.2819 -2.4389
   99GLOH   H08 9557   3.865   9.291  -0.332  0.0010 -0.4606  0.7089
   99GLOH    C2 9558   4.072   9.311  -0.292  0.0716 -0.4527  0.0457
   99GLOH   H04 9559   4.141   9.392  -0.266  1.2788 -0.6950 -2.2712
   99GLOH    O2 9560   4.063   9.203  -0.197 -0.4476  0.0725 -0.1187
   99GLOH   H05 9561   4.075   9.242  -0.109  0.9864  1.3069 -0.8330
   99GLOH    C3 9562   4.122   9.262  -0.430  0.3753  0.5860  0.4364
   99GLOH   H06 9563   4.070   9.167  -0.446  0.1252  0.9966 -1.2273
   99GLOH   H07 9564   4.227   9.235  -0.418  0.7537  1.8013 -0.1292
   99GLOH    O3 9565   4.117   9.345  -0.542 -0.3601  0.3797  0.4912
   99GLOH   H01 9566   4.100   9.291  -0.621 -0.4542 -0.4668  1.0785
  100GLOH   H03 9567   3.074   8.265   0.536 -0.8954 -0.9428  0.6538
  100GLOH    O1 9568   3.157   8.232   0.576 -0.1728  0.0238 -0.0392
  100GLOH    C1 9569   3.283   8.291   0.529 -0.3445  0.0308 -1.0193
  100GLOH   H02 9570   3.271   8.322   0.425 -0.2426 -1.5904 -1.5347
  100GLOH   H08 9571   3.361   8.215   0.528 -2.2203 -1.9895 -0.0251
  100GLOH    C2 9572   3.335   8.406   0.616  0.6198  0.0730 -0.6724
  100GLOH   H04 9573   3.439   8.423   0.585 -0.1119  2.8581 -1.7061
  100GLOH    O2 9574   3.255   8.528   0.600 -0.2162  0.3381  0.4507
  100GLOH   H05 9575   3.169   8.507   0.641  0.6521  1.1723  2.7704
  100GLOH    C3 9576   3.341   8.373   0.768 -0.5423 -0.4362 -0.6256
  100GLOH   H06 9577   3.385   8.274   0.765 -2.2527 -1.2130 -0.7455
  100GLOH   H07 9578   3.240   8.364   0.811  0.5383 -1.4582  1.8136
  100GLOH    O3 9579   3.418   8.472   0.844  0.3704  0.2928  0.6520
  100GLOH   H01 9580   3.507   8.486   0.806 -0.2027  0.8872 -0.5116
  101GLOH   H03 9581   3.914   9.120   2.503  2.0939 -4.6501 -2.4422
  101GLOH    O1 9582   3.821   9.091   2.496  0.2164  0.4321 -1.0815
  101GLOH    C1 9583   3.827   8.958   2.445 -0.0917 -0.1464 -0.0221
  101GLOH   H02 9584   3.884   8.946   2.352 -0.7515  2.2711 -0.7777
  101GLOH   H08 9585   3.728   8.921   2.422 -1.4690  1.2903  3.4043
  101GLOH    C2 9586   3.884   8.857   2.546 -0.1013 -0.1979 -0.1168
  101GLOH   H04 9587   3.817   8.868   2.633 -0.0183 -0.4155 -0.0234
  101GLOH    O2 9588   3.876   8.719   2.500 -0.5432 -0.3503 -0.0980
  101GLOH   H05 9589   3.964   8.678   2.495 -0.9517 -1.1948 -0.4837
  101GLOH    C3 9590   4.022   8.897   2.601 -0.8087  0.3177  0.2777
  101GLOH   H06 9591   4.060   8.812   2.659 -0.0293  0.2377 -0.3345
  101GLOH   H07 9592   4.017   8.977   2.674  2.9846 -0.6244  1.6900
  101GLOH    O3 9593   4.113   8.932   2.496  0.0376  0.0588  0.7255
  101GLOH   H01 9594   4.127   9.028   2.489  3.5377 -0.5880 -3.2169
  102GLOH   H03 9595   2.893   9.018   1.041  2.6409  0.3039  0.2393
  102GLOH    O1 9596   2.894   9.031   0.944  0.2078 -0.2006  0.1281
  102GLOH    C1 9597   2.782   8.954   0.889  0.6158  0.3702 -0.1871
  102GLOH   H02 9598   2.686   8.964   0.938  0.4158 -1.0156 -0.2527
  102GLOH   H08 9599   2.805   8.847   0.899 -0.8127  0.2203  1.8384
  102GLOH    C2 9600   2.749   8.993   0.744  0.3905  0.0815 -0.2666
  102GLOH   H04 9601   2.840   8.969   0.687 -0.8368  0.3030 -2.3565
  102GLOH    O2 9602   2.643   8.917   0.683 -0.4434  0.5383  0.2690
  102GLOH   H05 9603   2.651   8.933   0.588  0.3645 -0.4357  0.1633
  102GLOH    C3 9604   2.727   9.142   0.744 -0.0027  0.2921 -0.6168
  102GLOH   H06 9605   2.691   9.173   0.645  1.5662  2.0138 -0.6860
  102GLOH   H07 9606   2.827   9.185   0.742 -1.0159  2.7047 -1.7976
  102GLOH    O3 9607   2.658   9.192   0.858  0.0813 -0.4765 -0.4380
  102GLOH   H01 9608   2.689   9.283   0.875 -0.7928 -0.3666  0.5645
  103GLOH   H03 9609   4.182   8.334   1.624 -2.2747 -0.7019 -1.6689
  103GLOH    O1 9610   4.202   8.239   1.639  0.9737  0.2304  0.2355
  103GLOH    C1 9611   4.216   8.219   1.784 -0.2018  0.4539  0.0948
  103GLOH   H02 9612   4.213   8.111   1.801  2.1548  0.1611 -1.1604
  103GLOH   H08 9613   4.131   8.260   1.838  0.0851  0.1125  0.8228
  103GLOH    C2 9614   4.349   8.279   1.838  0.1301  0.2450 -0.3551
  103GLOH   H04 9615   4.428   8.238   1.774 -0.7982 -1.7520 -0.2566
  103GLOH    O2 9616   4.360   8.419   1.813  0.2664 -0.3325 -0.3296
  103GLOH   H05 9617   4.300   8.444   1.741 -0.5396 -1.1516  0.0416
  103GLOH    C3 9618   4.381   8.231   1.984 -0.1600 -0.0954 -0.1689
  103GLOH   H06 9619   4.458   8.300   2.018  0.2186 -0.6647  0.1403
  103GLOH   H07 9620   4.433   8.136   1.978  0.5281  0.3642 -1.8649
  103GLOH    O3 9621   4.273   8.220   2.077 -0.1719 -0.1038  0.1972
  103GLOH   H01 9622   4.281   8.289   2.145  0.3279 -1.3403  1.4153
  104GLOH   H03 9623   3.352   9.538   0.352  0.6575 -0.0120  1.1208
  104GLOH    O1 9624   3.427   9.586   0.312 -0.2415  0.2603 -0.2319
  104GLOH    C1 9625   3.389   9.722   0.298 -0.3652 -0.6093 -0.1410
  104GLOH   H02 9626   3.472   9.781   0.262  0.0570 -0.4446  1.0874
  104GLOH   H08 9627   3.348   9.772   0.386  1.9178  1.7568 -0.3835
  104GLOH    C2 9628   3.274   9.736   0.195 -0.4915  0.4935  0.1354
  104GLOH   H04 9629   3.205   9.650   0.198 -2.1453  1.7830 -0.6571
  104GLOH    O2 9630   3.192   9.842   0.223 -0.2718 -0.2091  0.5074
  104GLOH   H05 9631   3.254   9.915   0.243  0.0462  0.0451 -1.3125
  104GLOH    C3 9632   3.347   9.738   0.057  0.7692 -0.0038 -0.7986
  104GLOH   H06 9633   3.424   9.815   0.056  0.8638 -0.0231  1.3079
  104GLOH   H07 9634   3.278   9.775  -0.018  0.4596  0.7118 -0.1713
  104GLOH    O3 9635   3.405   9.610   0.026 -0.1147  0.1106  0.2048
  104GLOH   H01 9636   3.359   9.534   0.064 -0.6491  0.0230 -0.6045
  105GLOH   H03 9637   2.759   9.027   2.407  1.5385 -1.8940 -3.2967
  105GLOH    O1 9638   2.670   9.025   2.367 -0.0344 -0.1718 -0.1014
  105GLOH    C1 9639   2.563   8.974   2.448  0.4079  0.7004 -0.3087
  105GLOH   H02 9640   2.466   8.975   2.400 -0.6928  0.4002  1.8578
  105GLOH   H08 9641   2.548   9.033   2.538  1.4171 -0.3268  0.5544
  105GLOH    C2 9642   2.602   8.834   2.494  0.0076  0.0826  0.2294
  105GLOH   H04 9643   2.709   8.834   2.522  0.6476  2.5658 -2.0050
  105GLOH    O2 9644   2.524   8.783   2.603 -0.1286 -0.0999 -0.4166
  105GLOH   H05 9645   2.454   8.731   2.561 -0.0040 -0.6100  0.0040
  105GLOH    C3 9646   2.585   8.744   2.369 -0.0811 -0.4116 -0.0122
  105GLOH   H06 9647   2.498   8.765   2.308  0.9031  0.4465 -1.1649
  105GLOH   H07 9648   2.574   8.647   2.417  0.1318 -0.5000 -0.1400
  105GLOH    O3 9649   2.705   8.750   2.288  0.4628  0.4844  0.2651
  105GLOH   H01 9650   2.790   8.730   2.332  1.6547 -2.8986 -3.2835
  106GLOH   H03 9651   3.601   8.698   0.683 -0.0325 -2.4379 -0.4411
  106GLOH    O1 9652   3.695   8.708   0.706 -0.2693  0.2179 -0.4353
  106GLOH    C1 9653   3.729   8.844   0.703 -0.4186  0.8902 -0.5645
  106GLOH   H02 9654   3.667   8.886   0.624  0.6893 -1.6437 -2.8459
  106GLOH   H08 9655   3.831   8.843   0.665 -0.4529 -0.7029 -0.6362
  106GLOH    C2 9656   3.722   8.931   0.830  0.5575 -0.2734  0.6297
  106GLOH   H04 9657   3.784   8.882   0.907 -1.2278  0.1667  2.3649
  106GLOH    O2 9658   3.762   9.061   0.797 -0.0791  0.6261 -0.3237
  106GLOH   H05 9659   3.710   9.082   0.719 -2.2336  0.1237  0.9352
  106GLOH    C3 9660   3.574   8.928   0.874 -0.3915  0.0610  0.2753
  106GLOH   H06 9661   3.516   8.942   0.783  2.0160  0.8206 -1.2002
  106GLOH   H07 9662   3.557   9.014   0.939 -1.0327  0.5011 -0.4552
  106GLOH    O3 9663   3.524   8.811   0.944 -0.1013  0.1662 -0.0826
  106GLOH   H01 9664   3.430   8.796   0.922 -0.5269  1.9505  0.4387
  107GLOH   H03 9665   4.127   8.137   2.037  0.6330 -0.5783 -1.0009
  107GLOH    O1 9666   4.037   8.110   2.012  0.0963  0.3976 -0.1505
  107GLOH    C1 9667   3.935   8.163   2.105  0.0696 -0.1194  0.1389
  107GLOH   H02 9668   3.983   8.232   2.174  2.3065 -0.7074 -0.7825
  107GLOH   H08 9669   3.893   8.087   2.170  1.2548  0.4282  1.5801
  107GLOH    C2 9670   3.821   8.239   2.030  0.1515 -0.0674  1.1248
  107GLOH   H04 9671   3.875   8.316   1.972 -0.2602  1.2312  2.4460
  107GLOH    O2 9672   3.754   8.155   1.934  0.5297 -0.3115 -0.1523
  107GLOH   H05 9673   3.818   8.090   1.901  0.6898 -0.4913  0.4985
  107GLOH    C3 9674   3.708   8.300   2.120 -0.4103  0.2023  0.3784
  107GLOH   H06 9675   3.688   8.224   2.196  0.2498 -2.4879 -2.0675
  107GLOH   H07 9676   3.612   8.299   2.069 -0.7244  2.8201  0.8307
  107GLOH    O3 9677   3.752   8.428   2.176  0.0557 -0.1722  0.0792
  107GLOH   H01 9678   3.671   8.470   2.212  1.1131 -0.0430  2.4115
  108GLOH   H03 9679   3.915   8.477   2.139 -2.2984  2.6173 -2.5297
  108GLOH    O1 9680   3.990   8.536   2.120  0.4992  0.0587 -0.0484
  108GLOH    C1 9681   3.936   8.670   2.092  0.3054  0.4305 -0.1073
  108GLOH   H02 9682   4.021   8.737   2.078  0.0662  0.8830  0.5703
  108GLOH   H08 9683   3.877   8.708   2.175 -0.2984 -0.0110 -0.3316
  108GLOH    C2 9684   3.852   8.668   1.966 -0.3787 -0.4961 -0.0153
  108GLOH   H04 9685   3.778   8.587   1.980 -1.8013  0.2489 -2.8836
  108GLOH    O2 9686   3.800   8.794   1.938 -0.4131  0.0015 -0.3255
  108GLOH   H05 9687   3.757   8.839   2.012 -1.1212  1.2536 -1.4752
  108GLOH    C3 9688   3.930   8.637   1.842  0.3074 -0.0088  0.5342
  108GLOH   H06 9689   3.997   8.722   1.839  0.7727 -0.1650  3.9992
  108GLOH   H07 9690   3.862   8.633   1.757 -0.3469 -0.8023  1.0889
  108GLOH    O3 9691   4.017   8.520   1.861 -0.3680  0.4739 -0.8127
  108GLOH   H01 9692   4.051   8.518   1.953 -1.2964  0.2989 -0.4704
  109GLOH   H03 9693   4.375   9.743   1.184 -1.7220 -3.0117 -2.0830
  109GLOH    O1 9694   4.312   9.801   1.137  0.3111  0.8089 -0.2991
  109GLOH    C1 9695   4.362   9.792   1.003 -0.1260 -0.0444  0.5127
  109GLOH   H02 9696   4.302   9.728   0.938 -0.9737  0.6442  0.6061
  109GLOH   H08 9697   4.460   9.746   1.006 -0.0007  0.2623  1.2769
  109GLOH    C2 9698   4.383   9.934   0.932 -0.0548  0.7106  0.5345
  109GLOH   H04 9699   4.308  10.006   0.967 -0.4109  0.7663 -0.3368
  109GLOH    O2 9700   4.510   9.991   0.964  0.1115  0.9116 -0.1920
  109GLOH   H05 9701   4.582   9.953   0.911  0.0300 -0.2869  0.5317
  109GLOH    C3 9702   4.377   9.922   0.777  0.3750  0.2520 -0.6526
  109GLOH   H06 9703   4.433   9.833   0.752 -1.0854 -0.8339 -0.1130
  109GLOH   H07 9704   4.423  10.010   0.732  0.9286  0.3228  0.0350
  109GLOH    O3 9705   4.248   9.898   0.727 -0.0033  0.1890  0.4008
  109GLOH   H01 9706   4.251   9.907   0.630 -0.4367 -0.3266  0.3389
  110GLOH   H03 9707   2.908   0.762   0.668  1.6460  1.3844 -0.8935
  110GLOH    O1 9708   2.973   0.707   0.714  0.1014  0.3648  0.1359
  110GLOH    C1 9709   3.010   0.584   0.656 -0.0544 -0.2898  0.2406
  110GLOH   H02 9710   3.079   0.613   0.577 -1.8392  1.9226 -0.5771
  110GLOH   H08 9711   2.923   0.538   0.608  1.4546 -0.5733 -2.3448
  110GLOH    C2 9712   3.081   0.489   0.756  0.2907  0.9174  0.1005
  110GLOH   H04 9713   3.012   0.470   0.840 -0.1325 -1.2224 -0.6869
  110GLOH    O2 9714   3.111   0.361   0.693 -0.0981  0.0139  0.4081
  110GLOH   H05 9715   3.045   0.349   0.622  1.7367  0.1605 -1.3585
  110GLOH    C3 9716   3.201   0.556   0.823  0.5370 -0.1049  0.0453
  110GLOH   H06 9717   3.287   0.561   0.757 -0.1498 -2.1379 -1.0528
  110GLOH   H07 9718   3.234   0.489   0.902 -0.1470 -1.0788 -0.4826
  110GLOH    O3 9719   3.166   0.684   0.884  1.3180  0.1631  0.1075
  110GLOH   H01 9720   3.096   0.731   0.833  0.0106  0.5901  2.2343
  111GLOH   H03 9721   3.663   0.319   0.379  0.3980 -0.3007 -0.4378
  111GLOH    O1 9722   3.664   0.321   0.281  0.5620 -0.7155 -0.4464
  111GLOH    C1 9723   3.757   0.229   0.235  0.5514  0.7656 -0.0781
  111GLOH   H02 9724   3.745   0.141   0.298  0.4437  0.3079 -0.7385
  111GLOH   H08 9725   3.851   0.279   0.257  0.1833  1.9091 -1.0569
  111GLOH    C2 9726   3.752   0.190   0.088  0.0089  0.5790 -0.3021
  111GLOH   H04 9727   3.783   0.284   0.039 -0.9034  0.9212 -0.2329
  111GLOH    O2 9728   3.851   0.086   0.066  0.2582 -0.0285  0.7150
  111GLOH   H05 9729   3.819  -0.002   0.091 -1.6726  0.7792  1.1439
  111GLOH    C3 9730   3.605   0.151   0.042  0.2593 -0.0413  0.1982
  111GLOH   H06 9731   3.624   0.133  -0.064  0.5264  2.6834 -0.2414
  111GLOH   H07 9732   3.535   0.234   0.043 -2.0464 -1.9261 -0.0459
  111GLOH    O3 9733   3.552   0.033   0.105  0.0341 -0.1741  0.1239
  111GLOH   H01 9734   3.596  -0.047   0.073 -0.1168  0.0310 -0.5940
  112GLOH   H03 9735   3.210   8.480   2.298  0.3723  1.4504 -2.2250
  112GLOH    O1 9736   3.181   8.560   2.346 -0.3854  0.2528 -0.6683
  112GLOH    C1 9737   3.048   8.540   2.391 -0.1038 -0.4169  0.5312
  112GLOH   H02 9738   3.046   8.440   2.433 -0.2424 -0.2450  0.9371
  112GLOH   H08 9739   2.987   8.550   2.301 -0.2889  0.7171  0.7746
  112GLOH    C2 9740   2.993   8.634   2.494  0.5731  0.4157  0.4005
  112GLOH   H04 9741   3.073   8.640   2.569 -0.1230  0.1926  1.1741
  112GLOH    O2 9742   2.939   8.760   2.433  0.3283  0.0509 -0.2638
  112GLOH   H05 9743   3.021   8.813   2.429  0.1680  0.3399  0.1940
  112GLOH    C3 9744   2.870   8.589   2.577  0.0517  0.3952 -0.2255
  112GLOH   H06 9745   2.781   8.579   2.514 -0.4842 -0.9477  0.7338
  112GLOH   H07 9746   2.850   8.667   2.651 -0.5282 -0.6153  0.6868
  112GLOH    O3 9747   2.881   8.470   2.654 -0.2235 -0.0077 -0.1311
  112GLOH   H01 9748   2.961   8.467   2.710 -0.9306 -2.0042  0.8317
  113GLOH   H03 9749   2.653   8.470   1.386  3.1191  0.8089 -0.7773
  113GLOH    O1 9750   2.661   8.384   1.341  0.0593  0.3092 -0.5327
  113GLOH    C1 9751   2.720   8.402   1.213 -0.8370 -0.2409 -0.1770
  113GLOH   H02 9752   2.826   8.427   1.215 -1.3040  1.6867  2.2698
  113GLOH   H08 9753   2.684   8.491   1.162 -0.3614  0.0473 -0.0097
  113GLOH    C2 9754   2.690   8.289   1.116 -0.0480 -0.7797  0.4284
  113GLOH   H04 9755   2.585   8.293   1.085 -0.0582 -1.9965  0.2475
  113GLOH    O2 9756   2.774   8.299   0.998 -0.5802 -0.4433 -0.1532
  113GLOH   H05 9757   2.758   8.380   0.946  0.1689  0.3836  0.8997
  113GLOH    C3 9758   2.717   8.151   1.175 -0.6288  0.6371  0.1245
  113GLOH   H06 9759   2.824   8.133   1.177 -0.7221  0.0873  0.2362
  113GLOH   H07 9760   2.683   8.080   1.100  0.4158 -0.4387  0.6659
  113GLOH    O3 9761   2.640   8.129   1.294  0.4590  0.4015 -0.2487
  113GLOH   H01 9762   2.645   8.216   1.339  1.5333  0.1302  0.1779
  114GLOH   H03 9763   3.528   9.346   2.504  0.1507  0.3061  1.8793
  114GLOH    O1 9764   3.473   9.427   2.504  0.2398  0.3795  0.6347
  114GLOH    C1 9765   3.497   9.500   2.383  0.7575  0.1146  0.1656
  114GLOH   H02 9766   3.453   9.444   2.299 -0.6352  2.6103 -0.8161
  114GLOH   H08 9767   3.601   9.520   2.357  1.3062 -2.9674 -0.2619
  114GLOH    C2 9768   3.414   9.627   2.379 -0.1443 -0.2127  0.4301
  114GLOH   H04 9769   3.310   9.598   2.398  0.4120 -1.0623  2.3623
  114GLOH    O2 9770   3.440   9.716   2.492 -0.2267  0.2228 -0.1278
  114GLOH   H05 9771   3.427   9.667   2.575 -1.9456 -0.5770 -0.8463
  114GLOH    C3 9772   3.428   9.705   2.253  0.8207 -0.0475  0.0558
  114GLOH   H06 9773   3.532   9.726   2.226  0.6646  1.3158  0.5142
  114GLOH   H07 9774   3.376   9.799   2.267  0.3243 -0.2631 -0.3338
  114GLOH    O3 9775   3.378   9.636   2.140  0.8015 -0.2467  0.4561
  114GLOH   H01 9776   3.281   9.643   2.139  0.7453 -0.5496 -3.5466
  115GLOH   H03 9777   3.205   9.465   1.337 -0.2023 -1.7445  1.0323
  115GLOH    O1 9778   3.267   9.433   1.269 -0.1714 -0.1451  0.2966
  115GLOH    C1 9779   3.272   9.287   1.266 -0.1346  0.2454  0.1998
  115GLOH   H02 9780   3.168   9.254   1.267  0.3909 -1.4684  0.7629
  115GLOH   H08 9781   3.331   9.252   1.351 -1.3287 -0.8703  0.5908
  115GLOH    C2 9782   3.328   9.215   1.144  0.0459  0.1722 -0.2508
  115GLOH   H04 9783   3.271   9.236   1.053 -2.0462 -1.1598  0.7134
  115GLOH    O2 9784   3.465   9.245   1.120 -0.3256 -0.4304 -0.1501
  115GLOH   H05 9785   3.506   9.278   1.202  1.6036  0.3531 -1.4258
  115GLOH    C3 9786   3.330   9.061   1.169 -0.3792 -0.4849 -0.1266
  115GLOH   H06 9787   3.396   9.052   1.256 -1.3919  1.5892  0.9001
  115GLOH   H07 9788   3.385   9.018   1.086 -0.3704  0.8836 -0.8370
  115GLOH    O3 9789   3.203   9.000   1.187 -0.3205  0.1705 -0.0266
  115GLOH   H01 9790   3.225   8.905   1.188 -0.3371  0.1490 -1.2347
  116GLOH   H03 9791   3.338   0.057   1.463 -0.3837 -1.8283  0.8765
  116GLOH    O1 9792   3.355   0.006   1.381 -0.0844 -0.1404 -0.1431
  116GLOH    C1 9793   3.227  -0.030   1.327 -0.1640 -0.7401  0.1392
  116GLOH   H02 9794   3.160   0.053   1.301  0.0901  0.3096  2.7309
  116GLOH   H08 9795   3.174  -0.096   1.395 -2.7102  0.5268 -0.5222
  116GLOH    C2 9796   3.241  -0.110   1.194  0.4908 -0.6029 -0.1598
  116GLOH   H04 9797   3.138  -0.131   1.161  0.1843  1.9504 -0.9590
  116GLOH    O2 9798   3.311  -0.042   1.090 -0.8384  0.3021 -0.3455
  116GLOH   H05 9799   3.296   0.054   1.095 -2.6654  0.0705 -1.2202
  116GLOH    C3 9800   3.304  -0.244   1.244  0.2940 -0.6798 -0.2499
  116GLOH   H06 9801   3.258  -0.271   1.339  1.1314 -1.7157 -0.1252
  116GLOH   H07 9802   3.407  -0.222   1.272 -0.1677  0.4964  0.5826
  116GLOH    O3 9803   3.291  -0.350   1.143 -0.0831 -0.3849  0.4657
  116GLOH   H01 9804   3.308  -0.428   1.198  0.2119  0.5946  1.8005
  117GLOH   H03 9805   3.633   9.334   1.679 -0.4159  0.6228  1.3014
  117GLOH    O1 9806   3.558   9.295   1.630  0.5670 -0.0861  0.3748
  117GLOH    C1 9807   3.479   9.214   1.714  0.3297  0.4089  0.1329
  117GLOH   H02 9808   3.373   9.235   1.699  0.8308  1.5405 -1.8912
  117GLOH   H08 9809   3.504   9.220   1.820  1.5026  1.4518 -0.1959
  117GLOH    C2 9810   3.498   9.064   1.682  0.0617 -0.3264  0.3112
  117GLOH   H04 9811   3.604   9.038   1.691 -0.4071 -1.3540  3.4334
  117GLOH    O2 9812   3.439   8.975   1.786  0.4755 -0.1347  0.5915
  117GLOH   H05 9813   3.433   9.018   1.873 -1.4367  0.1106  0.3604
  117GLOH    C3 9814   3.444   9.045   1.537  0.4376 -0.6124  0.0609
  117GLOH   H06 9815   3.491   9.117   1.470 -1.3710  0.2305 -0.3317
  117GLOH   H07 9816   3.340   9.075   1.550  0.0167 -2.7201  1.9573
  117GLOH    O3 9817   3.451   8.910   1.487 -0.2858  0.0150 -0.7350
  117GLOH   H01 9818   3.516   8.901   1.415  1.1451 -2.3469  0.7847
  118GLOH   H03 9819   4.098   9.283   0.115 -0.1402 -0.6582 -0.7044
  118GLOH    O1 9820   4.129   9.317   0.029  0.4117 -0.0239 -0.2605
  118GLOH    C1 9821   4.150   9.456   0.029 -0.2197 -0.1597 -0.0742
  118GLOH   H02 9822   4.089   9.516   0.097 -0.3274 -0.4712  0.1079
  118GLOH   H08 9823   4.132   9.498  -0.070 -1.2915 -1.3137 -0.3868
  118GLOH    C2 9824   4.299   9.495   0.053 -0.0325  0.1479  0.0904
  118GLOH   H04 9825   4.368   9.442  -0.014  1.8970  0.8138  1.5107
  118GLOH    O2 9826   4.330   9.638   0.040  0.3008  0.4562  0.1164
  118GLOH   H05 9827   4.277   9.679  -0.030  0.6293  0.4965 -0.1104
  118GLOH    C3 9828   4.329   9.456   0.193 -0.6650  0.1189 -0.4297
  118GLOH   H06 9829   4.436   9.470   0.208 -1.0630 -0.4049  3.3167
  118GLOH   H07 9830   4.321   9.348   0.201 -0.9072  0.1690  0.0574
  118GLOH    O3 9831   4.249   9.522   0.291 -0.0906  0.0919 -0.1953
  118GLOH   H01 9832   4.304   9.536   0.370 -0.3519  1.0236 -0.1781
  119GLOH   H03 9833   3.468   0.654   0.552  2.6332 -1.1476 -0.1700
  119GLOH    O1 9834   3.487   0.719   0.482  0.3322  0.1107  0.3416
  119GLOH    C1 9835   3.615   0.782   0.518 -0.1319 -0.3525  0.7039
  119GLOH   H02 9836   3.596   0.850   0.602 -1.3966 -0.1795  0.2936
  119GLOH   H08 9837   3.657   0.850   0.444 -1.7761 -0.7552 -0.6305
  119GLOH    C2 9838   3.719   0.673   0.552 -1.7712 -0.3007 -0.1487
  119GLOH   H04 9839   3.801   0.725   0.603 -0.5681 -0.9978 -1.3298
  119GLOH    O2 9840   3.675   0.582   0.653 -0.3097 -0.3380  0.0091
  119GLOH   H05 9841   3.717   0.620   0.732  1.2428 -2.1872  0.1157
  119GLOH    C3 9842   3.761   0.593   0.425  0.3467  0.7632 -0.2311
  119GLOH   H06 9843   3.670   0.572   0.368 -0.1534  1.9316  0.1213
  119GLOH   H07 9844   3.819   0.504   0.447 -3.8422 -1.8709  0.5735
  119GLOH    O3 9845   3.837   0.688   0.345  0.1582 -0.3186 -0.9281
  119GLOH   H01 9846   3.881   0.652   0.266  2.6855  1.2899 -0.3085
  120GLOH   H03 9847   4.541   0.072   0.437 -2.5317  1.0453  0.1107
  120GLOH    O1 9848   4.524  -0.024   0.427  0.5608  0.4627  0.0195
  120GLOH    C1 9849   4.534  -0.058   0.289  0.4649 -0.0038 -0.0890
  120GLOH   H02 9850   4.633  -0.036   0.249  1.6629 -0.3932  2.5750
  120GLOH   H08 9851   4.457  -0.002   0.236  0.6049 -2.2997 -2.8378
  120GLOH    C2 9852   4.518  -0.205   0.261 -0.0851  0.3063  0.1281
  120GLOH   H04 9853   4.411  -0.229   0.276  0.1619 -0.2088  1.1265
  120GLOH    O2 9854   4.547  -0.239   0.122  0.2553  0.1664  0.1932
  120GLOH   H05 9855   4.476  -0.290   0.079  0.5889 -0.0767 -0.0835
  120GLOH    C3 9856   4.596  -0.293   0.357  0.1206 -0.3162 -0.4372
  120GLOH   H06 9857   4.701  -0.284   0.328  0.6056  2.6162  1.9897
  120GLOH   H07 9858   4.567  -0.397   0.344  1.2932 -1.0075  2.1040
  120GLOH    O3 9859   4.576  -0.254   0.496  0.6841  0.4675  0.0670
  120GLOH   H01 9860   4.551  -0.160   0.488 -0.9109  0.0498 -0.0884
  121ACOH    H4 9861   2.947   0.457   0.238  0.0578  0.1741  0.8004
  121ACOH    O2 9862   2.897   0.388   0.284  0.3523 -0.4874  0.1436
  121ACOH    C2 9863   2.810   0.335   0.202  0.4787 -0.2447 -0.2704
  121ACOH    O1 9864   2.812   0.337   0.082 -0.5054  0.6401  0.3588
  121ACOH    C1 9865   2.738   0.236   0.287 -0.1582 -0.6451  0.8130
  121ACOH    H1 9866   2.803   0.148   0.289  0.6254 -0.1410 -1.0129
  121ACOH    H2 9867   2.644   0.213   0.236 -0.2841  0.8569  0.3385
  121ACOH    H3 9868   2.719   0.263   0.391  0.2599 -1.4822  1.1176
  122ACOH    H4 9869   4.923  -0.041   0.611 -1.2830  0.3285  0.3722
  122ACOH    O2 9870   4.872  -0.004   0.537 -0.4107 -0.2511 -0.5449
  122ACOH    C2 9871   4.959   0.031   0.446 -0.6501  0.5210  0.3060
  122ACOH    O1 9872   5.074  -0.013   0.436 -0.8070  0.3525  0.1981
  122ACOH    C1 9873   4.892   0.111   0.341 -0.1617  0.2965 -0.4948
  122ACOH    H1 9874   4.905   0.218   0.359  1.6118  0.4981 -2.8262
  122ACOH    H2 9875   4.784   0.099   0.345 -0.2981  1.7824  1.0130
  122ACOH    H3 9876   4.917   0.088   0.238 -3.3336  0.2505 -1.3005
  123ACOH    H4 9877   3.019   8.259   1.699 -1.2837  0.3939  2.6257
  123ACOH    O2 9878   2.941   8.223   1.653  0.0387  0.3749  0.3156
  123ACOH    C2 9879   2.871   8.164   1.743 -0.0745 -0.4816 -0.6550
  123ACOH    O1 9880   2.894   8.146   1.858 -0.0238 -0.2812  0.3837
  123ACOH    C1 9881   2.733   8.122   1.684 -0.3899 -0.4836  0.0141
  123ACOH    H1 9882   2.754   8.052   1.603  0.9002 -0.0495 -0.0361
  123ACOH    H2 9883   2.685   8.213   1.650  0.2663 -0.8787 -2.0468
  123ACOH    H3 9884   2.674   8.074   1.763 -0.0024 -0.1182  0.5249
  124ACOH    H4 9885   2.858   9.086   0.195 -1.4688  0.5387 -2.1413
  124ACOH    O2 9886   2.836   9.172   0.234 -0.4454  0.0979 -0.5578
  124ACOH    C2 9887   2.758   9.153   0.339  0.2395 -0.4849  0.6650
  124ACOH    O1 9888   2.763   9.044   0.395 -0.0576  0.0354  0.6370
  124ACOH    C1 9889   2.710   9.277   0.406  0.6259 -0.5523 -1.0349
  124ACOH    H1 9890   2.708   9.357   0.333 -1.1159 -2.5914 -3.2930
  124ACOH    H2 9891   2.779   9.293   0.489 -1.1552  0.3199  0.3363
  124ACOH    H3 9892   2.608   9.269   0.445  1.0604 -1.5769 -0.0758
  125ACOH    H4 9893   3.723   7.571   0.787  0.2496  0.0432 -0.2604
  125ACOH    O2 9894   3.707   7.505   0.856  0.3536  0.0359 -0.2436
  125ACOH    C2 9895   3.585   7.524   0.907 -0.1899  0.7031 -1.1215
  125ACOH    O1 9896   3.517   7.618   0.878  0.2619 -0.9502  0.1537
  125ACOH    C1 9897   3.546   7.413   1.002  0.6434  0.3726 -0.1696
  125ACOH    H1 9898   3.438   7.403   1.009  0.7236  0.4935  1.4267
  125ACOH    H2 9899   3.597   7.429   1.097 -1.5871  0.7402  0.9865
  125ACOH    H3 9900   3.578   7.320   0.955  0.3949  0.1181  0.1686
  126ACOH    H4 9901   5.269   0.064   0.517 -0.9303 -2.7663 -0.3811
  126ACOH    O2 9902   5.341   0.037   0.577  0.0534  0.2216 -0.1361
  126ACOH    C2 9903   5.310  -0.008   0.693  0.2652  0.6663  0.2646
  126ACOH    O1 9904   5.202   0.009   0.740 -0.7431  0.0342  0.8293
  126ACOH    C1 9905   5.436  -0.042   0.767  0.4266 -0.2018  0.5470
  126ACOH    H1 9906   5.504  -0.067   0.686  0.6846 -0.4571  0.8428
  126ACOH    H2 9907   5.440  -0.131   0.830  1.6037  0.2995  1.2104
  126ACOH    H3 9908   5.468   0.050   0.817 -0.9444  0.9193 -0.5878
  127ACOH    H4 9909   3.153   0.665   1.068  1.4082  1.5890  1.0841
  127ACOH    O2 9910   3.113   0.633   1.150 -0.2768 -0.3908 -0.4719
  127ACOH    C2 9911   3.106   0.742   1.225 -0.1394 -0.5649  0.1123
  127ACOH    O1 9912   3.171   0.847   1.212 -0.1256  0.1074 -0.0147
  127ACOH    C1 9913   3.027   0.714   1.350 -0.2713 -0.4740  1.1540
  127ACOH    H1 9914   3.038   0.608   1.372 -3.4472 -0.0882  5.3726
  127ACOH    H2 9915   2.924   0.744   1.331 -0.8815 -2.3878  1.3713
  127ACOH    H3 9916   3.055   0.776   1.436 -1.2278  1.3418  0.1946
  128ACOH    H4 9917   2.493   9.601   0.732  1.1767  0.0665  1.0611
  128ACOH    O2 9918   2.448   9.673   0.777 -0.2130  0.0006 -0.1843
  128ACOH    C2 9919   2.515   9.787   0.740 -0.3845 -0.4321 -0.4913
  128ACOH    O1 9920   2.590   9.811   0.645 -0.4960 -0.3823  0.2209
  128ACOH    C1 9921   2.459   9.897   0.826 -0.1561 -0.2132 -0.4282
  128ACOH    H1 9922   2.492   9.878   0.928 -0.0226  0.7090 -0.3007
  128ACOH    H2 9923   2.351   9.887   0.824 -0.0976 -1.2306  0.8366
  128ACOH    H3 9924   2.487   9.997   0.792 -0.0885  0.0090  0.2912
  129ACOH    H4 9925   3.949   0.791   0.401 -1.3393  0.7569 -0.4640
  129ACOH    O2 9926   3.989   0.877   0.424 -0.2073  0.2203 -0.4076
  129ACOH    C2 9927   4.066   0.853   0.534 -0.0746  0.3125  1.0563
  129ACOH    O1 9928   4.048   0.772   0.623 -0.4009  0.0092  0.1806
  129ACOH    C1 9929   4.175   0.951   0.544 -0.3016 -0.0085  0.0258
  129ACOH    H1 9930   4.155   1.044   0.492  2.2523  0.1469 -0.7383
  129ACOH    H2 9931   4.258   0.901   0.493 -0.3645  0.3439 -0.4273
  129ACOH    H3 9932   4.192   0.974   0.650 -0.5281 -1.8816  0.4809
  130ACOH    H4 9933   2.685   8.554   1.776  0.0196 -2.5381  0.6426
  130ACOH    O2 9934   2.605   8.533   1.724  0.0259  0.2394 -0.5536
  130ACOH    C2 9935   2.502   8.521   1.808  1.0298 -0.0460  0.0972
  130ACOH    O1 9936   2.498   8.479   1.922 -0.3969  0.3586 -0.0210
  130ACOH    C1 9937   2.377   8.561   1.729  0.1704 -0.3897  0.2492
  130ACOH    H1 9938   2.331   8.648   1.773 -1.2396 -0.8946 -0.2125
  130ACOH    H2 9939   2.300   8.484   1.730 -0.0326 -0.2226 -0.9896
  130ACOH    H3 9940   2.393   8.584   1.624  0.1093  0.2174  0.3746
  131ACOH    H4 9941   2.628   9.601  -0.013  0.3338  1.0016 -0.0191
  131ACOH    O2 9942   2.557   9.636   0.044 -0.4451  0.5482 -0.6917
  131ACOH    C2 9943   2.495   9.745  -0.012  0.2107 -0.1574 -0.2114
  131ACOH    O1 9944   2.507   9.789  -0.124 -0.4417  0.1287  0.0148
  131ACOH    C1 9945   2.389   9.800   0.082 -0.3712  0.1170  0.2148
  131ACOH    H1 9946   2.325   9.722   0.124 -1.2101  0.3273 -0.6642
  131ACOH    H2 9947   2.327   9.866   0.022 -0.2970 -1.7396 -1.9442
  131ACOH    H3 9948   2.444   9.858   0.157 -0.5309  0.7102 -0.1296
  132ACOH    H4 9949   4.819   9.528   0.566  1.5693  1.2916  0.1249
  132ACOH    O2 9950   4.836   9.490   0.479  0.4054  0.8917  0.0610
  132ACOH    C2 9951   4.744   9.393   0.468 -0.3396  0.2558 -0.7973
  132ACOH    O1 9952   4.632   9.389   0.503  0.7075 -0.0764  0.0393
  132ACOH    C1 9953   4.778   9.304   0.357 -0.3873  0.4736  0.0760
  132ACOH    H1 9954   4.833   9.215   0.388 -2.6544 -1.0407 -0.0982
  132ACOH    H2 9955   4.843   9.359   0.290  3.1634 -1.4315  1.8289
  132ACOH    H3 9956   4.691   9.269   0.301 -1.0046  0.9317  0.7466
  133ACOH    H4 9957   4.459   9.617   0.515  0.2455 -0.7279  1.8638
  133ACOH    O2 9958   4.369   9.582   0.507 -0.0844  0.4582 -0.1146
  133ACOH    C2 9959   4.348   9.517   0.618 -0.8224  0.1195 -0.2675
  133ACOH    O1 9960   4.388   9.551   0.729  0.2353  0.1543  0.6221
  133ACOH    C1 9961   4.242   9.423   0.590 -0.1537  0.5998 -0.3660
  133ACOH    H1 9962   4.166   9.470   0.527 -1.1673 -1.4051 -0.6843
  133ACOH    H2 9963   4.200   9.381   0.681  0.4619 -2.5284 -1.4642
  133ACOH    H3 9964   4.294   9.346   0.533 -0.0463  0.1074  0.3930
  134SOL     OW 9965   3.173   9.046   0.392  0.0719 -0.4949  0.6094
  134SOL    HW1 9966   3.242   9.083   0.330 -0.7873  1.3798  0.7479
  134SOL    HW2 9967   3.113   9.119   0.424 -1.5477 -1.9703  1.0686
  135SOL     OW 9968   3.827   0.648   0.873  0.7041 -0.9844 -0.0147
  135SOL    HW1 9969   3.795   0.672   0.965 -1.0108 -2.4242 -0.2141
  135SOL    HW2 9970   3.920   0.684   0.860  0.0667  1.2807  1.3986
  136SOL     OW 9971   3.357   0.439   1.222 -0.3741 -0.9245  0.0637
  136SOL    HW1 9972   3.452   0.425   1.251 -0.3804 -0.8285  0.1323
  136SOL    HW2 9973   3.354   0.508   1.149 -0.5922  0.5495  1.4471
  137SOL     OW 9974   3.165   7.674   0.722  0.3833 -0.0010 -0.1943
  137SOL    HW1 9975   3.107   7.690   0.801 -0.0212 -0.2689 -0.4372
  137SOL    HW2 9976   3.258   7.652   0.752  0.5468  1.1698  0.1857
  138SOL     OW 9977   3.915   7.974   1.815  0.5302  0.1549 -0.3394
  138SOL    HW1 9978   3.978   8.015   1.882  0.9726 -0.6677 -0.2510
  138SOL    HW2 9979   3.963   7.957   1.729  0.9609 -2.2456  0.3380
  139SOL     OW 9980   3.245   8.851   1.658  0.2525 -0.5176 -0.2155
  139SOL    HW1 9981   3.297   8.846   1.573  1.0737  0.5328  0.2047
  139SOL    HW2 9982   3.303   8.889   1.730 -0.3773 -1.5807  0.8639
  140SOL     OW 9983   2.979   0.689   0.319  0.1394 -0.2327 -0.3977
  140SOL    HW1 9984   2.968   0.702   0.221 -0.6080  0.8270 -0.1793
  140SOL    HW2 9985   3.066   0.729   0.349  1.2616 -2.2268 -0.9294
  141SOL     OW 9986   2.832   0.839   0.524 -0.5704 -0.1722  0.2307
  141SOL    HW1 9987   2.883   0.810   0.444  0.3486 -0.2387  0.8331
  141SOL    HW2 9988   2.736   0.850   0.500 -0.2969 -0.1636 -0.8817
  142SOL     OW 9989   3.532   0.759   1.349 -0.8517  0.1394 -0.2305
  142SOL    HW1 9990   3.559   0.809   1.431  1.6422  2.1361 -2.1869
  142SOL    HW2 9991   3.436   0.777   1.329 -1.0112  1.0345  1.2440
  143SOL     OW 9992   4.016   0.225   2.204 -0.4538 -0.7587 -0.0378
  143SOL    HW1 9993   4.079   0.170   2.149  0.3025 -1.5591  1.6121
  143SOL    HW2 9994   3.940   0.255   2.146 -1.0630 -3.8236 -0.9216
  144SOL     OW 9995   3.820  -0.148   1.804 -0.7493 -0.4631  0.2214
  144SOL    HW1 9996   3.906  -0.173   1.848 -1.3293 -1.5502  0.7536
  144SOL    HW2 9997   3.787  -0.062   1.842  0.2848  0.1610 -0.2578
  145SOL     OW 9998   3.390   0.655   1.058  0.1459 -0.4204  0.0355
  145SOL    HW1 9999   3.462   0.722   1.074  0.9811 -1.3938  0.4502
  145SOL    HW210000   3.326   0.690   0.990 -0.2757  1.4166  1.3264
  146SOL     OW10001   2.298   9.698   1.022 -0.7294  0.4348  0.0918
  146SOL    HW110002   2.207   9.739   1.019 -0.5278  0.9164  0.5289
  146SOL    HW210003   2.338   9.699   0.930 -1.1936  0.1477 -0.1178
  147SOL     OW10004   3.380   0.290   0.784  0.1370  0.4352  0.8112
  147SOL    HW110005   3.403   0.196   0.758  0.9577  0.9134 -0.1960
  147SOL    HW210006   3.352   0.341   0.703 -1.5127  0.7324  1.5414
  148SOL     OW10007   3.559   9.366   0.081  0.0379 -0.0885 -0.0386
  148SOL    HW110008   3.491   9.371   0.008  1.2055 -1.6491 -1.2470
  148SOL    HW210009   3.538   9.289   0.141  1.1092 -0.9574 -0.7825
  149SOL     OW10010   4.564   0.238   0.462 -0.4696 -0.7625  0.1451
  149SOL    HW110011   4.477   0.277   0.493 -0.4593 -0.0999 -0.6512
  149SOL    HW210012   4.637   0.305   0.474 -0.0206 -1.3930  1.0132
  150SOL     OW10013   2.830   8.091  -0.135  0.5744 -0.7016 -0.3718
  150SOL    HW110014   2.734   8.097  -0.106  1.0066  1.1759  0.7365
  150SOL    HW210015   2.841   8.136  -0.224  0.6295  0.0747  0.0238
  151SOL     OW10016   3.153  -0.026   2.141  0.0764 -0.1511  1.1753
  151SOL    HW110017   3.141  -0.125   2.139 -0.2805 -0.0751 -1.0449
  151SOL    HW210018   3.251  -0.004   2.148  0.2568 -0.6505  0.2327
  152SOL     OW10019   3.470   9.172   0.265  0.3069  0.2714  0.7082
  152SOL    HW110020   3.499   9.078   0.282  2.2156  0.8504  0.8094
  152SOL    HW210021   3.477   9.225   0.349 -2.2057  0.1611  1.0073
  153SOL     OW10022   3.308   0.229   1.055  0.4901  0.2887 -0.0682
  153SOL    HW110023   3.347   0.288   1.125 -2.7414  0.4760  1.6833
  153SOL    HW210024   3.333   0.263   0.965  1.3323  2.4421  0.9443
  154SOL     OW10025   2.605   9.505   0.680  0.0120 -0.5308 -0.3025
  154SOL    HW110026   2.657   9.577   0.634  0.2640 -1.5893 -1.7246
  154SOL    HW210027   2.666   9.429   0.703 -0.6164 -1.1447 -0.6417
  155SOL     OW10028   4.069   9.618   2.127  0.1993  0.0857  0.1163
  155SOL    HW110029   4.115   9.628   2.039  2.0215 -0.0219  1.0236
  155SOL    HW210030   4.118   9.551   2.183 -0.9246  0.1633  1.2179
  156SOL     OW10031   4.254  -0.077   0.465  0.5840  0.0075  0.0091
  156SOL    HW110032   4.351  -0.062   0.443  0.5364 -1.0619 -0.9700
  156SOL    HW210033   4.212  -0.132   0.393 -0.8950  0.9217  0.1551
  157SOL     OW10034   2.556   9.177   1.360 -0.4669  0.2222 -0.4693
  157SOL    HW110035   2.654   9.190   1.350 -0.1787 -2.3814 -1.6090
  157SOL    HW210036   2.529   9.196   1.454  1.0102  1.5621 -0.3032
  158SOL     OW10037   2.943   8.322   0.448 -0.4626 -0.2793  0.0677
  158SOL    HW110038   2.890   8.245   0.484 -0.2615 -0.4971 -0.0953
  158SOL    HW210039   2.894   8.407   0.465 -0.2873 -0.3596  1.0235
  159SOL     OW10040   3.595   0.420   0.959  0.4255  0.0447  0.6546
  159SOL    HW110041   3.613   0.502   1.014 -0.7512 -0.5889  2.0406
  159SOL    HW210042   3.549   0.446   0.874  2.0146  1.0168  0.0868
  160SOL     OW10043   3.356   9.419   1.880  0.5878  0.0191 -0.7588
  160SOL    HW110044   3.319   9.509   1.854  0.2571 -0.1642 -0.9203
  160SOL    HW210045   3.304   9.347   1.834  0.0704 -0.3086  0.3288
  161SOL     OW10046   2.642   0.255   1.101 -0.4802 -0.4215  0.8410
  161SOL    HW110047   2.608   0.175   1.151  2.5690 -1.9096  0.6501
  161SOL    HW210048   2.738   0.241   1.078 -0.5043  2.3681 -1.1655
  162SOL     OW10049   2.919   0.311   0.543  0.0104  0.0740 -0.0689
  162SOL    HW110050   2.875   0.222   0.557  0.8289 -0.6559 -1.8797
  162SOL    HW210051   2.910   0.338   0.447 -0.1534  1.9240  0.4389
  163SOL     OW10052   2.698   9.468   1.324 -0.0205  0.2949 -0.0050
  163SOL    HW110053   2.684   9.457   1.423  2.4208 -1.4496  0.1911
  163SOL    HW210054   2.623   9.424   1.275 -0.6485  0.1617  1.0583
  164SOL     OW10055   0.755   7.474   0.215  0.7666  0.2716 -0.3463
  164SOL    HW110056   0.692   7.402   0.185  1.3555  0.2542 -1.5658
  164SOL    HW210057   0.793   7.520   0.136  0.4072  1.9372  0.4309
  165SOL     OW10058   3.195   9.702   0.916  0.3301  0.0572  0.0994
  165SOL    HW110059   3.221   9.681   1.010  0.0362 -1.6503 -0.1853
  165SOL    HW210060   3.183   9.801   0.906 -1.9348  0.0708  2.4497
  166SOL     OW10061   3.389   8.405   1.390  0.3366  0.1439  0.0222
  166SOL    HW110062   3.464   8.393   1.326  0.1724 -0.2425 -0.1005
  166SOL    HW210063   3.424   8.407   1.483  0.7899  2.5518 -0.1563
  167SOL     OW10064   3.446   8.711   0.642 -0.0306  0.1208 -0.1419
  167SOL    HW110065   3.391   8.785   0.605 -0.5011 -0.2319 -0.1585
  167SOL    HW210066   3.397   8.624   0.630  0.0057 -0.0539  0.8827
  168SOL     OW10067   2.560   9.757   1.147  0.1752  0.0618  0.1312
  168SOL    HW110068   2.640   9.717   1.192  0.1766 -0.0501  0.0292
  168SOL    HW210069   2.489   9.687   1.136  0.1197  0.1232  0.0900
  169SOL     OW10070   3.668   0.647   1.133  0.4496  0.0020  0.1999
  169SOL    HW110071   3.622   0.684   1.213  2.9232 -1.2517  2.2885
  169SOL    HW210072   3.750   0.597   1.162  1.8773  0.2413 -3.1817
  170SOL     OW10073   3.135   0.369   2.423  0.1583  0.3045  0.8734
  170SOL    HW110074   3.068   0.442   2.437  0.5009  0.7424  0.2487
  170SOL    HW210075   3.089   0.287   2.390  0.0944  1.0145 -0.8363
  171SOL     OW10076   3.920   8.181  -0.071 -0.3530  0.0647 -0.2320
  171SOL    HW110077   3.880   8.124  -0.143  0.7809 -0.5792 -0.3656
  171SOL    HW210078   4.018   8.189  -0.086 -0.2275  0.5872  0.8081
  172SOL     OW10079   3.862   8.854   1.480 -0.2431 -0.1586 -0.6087
  172SOL    HW110080   3.792   8.823   1.545 -1.7268  0.7146 -1.7638
  172SOL    HW210081   3.855   8.953   1.467  0.2707 -0.2650 -1.8106
  173SOL     OW10082   2.564   8.385   2.420 -0.9774 -0.0561  0.0185
  173SOL    HW110083   2.582   8.376   2.518 -1.7012 -0.8129  0.0869
  173SOL    HW210084   2.623   8.322   2.369 -0.1929  0.7366 -0.0895
  174SOL     OW10085   3.567  -0.017   0.364  0.9524  0.0466 -0.5921
  174SOL    HW110086   3.566   0.015   0.269 -0.8496  0.8566 -0.3083
  174SOL    HW210087   3.662  -0.030   0.393  1.5091 -1.5305 -2.9349
  175SOL     OW10088   3.138  -0.083   0.548 -0.2305  0.0874  0.1864
  175SOL    HW110089   3.167  -0.059   0.455 -0.5656 -1.2503 -0.2787
  175SOL    HW210090   3.047  -0.045   0.565  0.7842  2.2710  0.7948
  176SOL     OW10091   3.410   9.116   0.568  0.1490 -0.6724  0.0324
  176SOL    HW110092   3.337   9.048   0.579  1.1021 -1.3226  2.5886
  176SOL    HW210093   3.386   9.199   0.619  0.7290 -0.4904  0.0071
  177SOL     OW10094   3.210   9.410  -0.083  0.1822 -0.0213  0.3427
  177SOL    HW110095   3.200   9.311  -0.080 -1.5396  0.0221 -2.4125
  177SOL    HW210096   3.284   9.436  -0.145 -2.1941  0.4507 -2.4348
  178SOL     OW10097   3.656   0.525   0.106 -0.0844  0.9653 -0.1574
  178SOL    HW110098   3.603   0.603   0.139 -0.5386  0.6426 -0.1313
  178SOL    HW210099   3.659   0.454   0.177  1.8640  1.7058  0.5421
  179SOL     OW10100   2.981   8.717   1.084 -0.0363  0.0701  0.7296
  179SOL    HW110101   3.060   8.683   1.033 -1.1051 -2.3872  0.6515
  179SOL    HW210102   2.986   8.683   1.178 -1.4514 -0.8521  0.4761
  180SOL     OW10103   3.498   8.611   0.247 -0.4138 -0.0528  0.0961
  180SOL    HW110104   3.493   8.511   0.250  1.2109 -0.1478 -0.3766
  180SOL    HW210105   3.592   8.640   0.230 -1.0716  1.5384 -0.9272
  181SOL     OW10106   3.972   8.040   1.563  0.3007  0.2755  0.4383
  181SOL    HW110107   3.995   7.995   1.477 -0.9732 -0.6349  0.5672
  181SOL    HW210108   4.035   8.116   1.579  2.4097 -1.3715  0.1564
  182SOL     OW10109   3.161   8.550   0.925  0.1067  0.1521 -0.3940
  182SOL    HW110110   3.109   8.488   0.984  1.5157 -0.3560  0.3606
  182SOL    HW210111   3.246   8.504   0.896 -0.0714  0.7825 -1.9706
  183SOL     OW10112   2.335   8.658   2.470  0.2553 -0.1965 -0.5867
  183SOL    HW110113   2.235   8.658   2.474  0.1986  1.1531 -1.5258
  183SOL    HW210114   2.365   8.610   2.387  0.3092  0.9402 -1.2425
  184SOL     OW10115   4.346   8.253   0.907 -0.1868  0.1468 -0.0660
  184SOL    HW110116   4.275   8.195   0.946  0.5446 -0.1476  0.8528
  184SOL    HW210117   4.403   8.199   0.845 -0.0687  0.1044  0.0793
  185SOL     OW10118   3.694   0.747   2.373  0.3696 -0.1430  0.6264
  185SOL    HW110119   3.648   0.662   2.349  1.5645 -0.5423 -0.2805
  185SOL    HW210120   3.705   0.753   2.472 -0.3583 -0.7080  0.7388
  186SOL     OW10121   2.495   0.024   1.196  0.3285  0.0859  0.0477
  186SOL    HW110122   2.411   0.066   1.165  0.1179 -0.6038 -0.3291
  186SOL    HW210123   2.499  -0.071   1.164  0.3900 -0.4542  1.5840
  187SOL     OW10124   3.790   0.234   2.451  0.0569 -0.1173 -0.1545
  187SOL    HW110125   3.804   0.166   2.523 -0.3291  0.9107  0.9075
  187SOL    HW210126   3.877   0.251   2.404  0.3709 -0.5840  0.2580
  188SOL     OW10127   3.823   9.319   0.020  0.8197  0.3442  0.0902
  188SOL    HW110128   3.875   9.273   0.092  0.2826 -0.3460  0.0526
  188SOL    HW210129   3.729   9.335   0.052  0.4321 -0.4253 -0.6285
  189SOL     OW10130   3.603   8.284   1.267 -0.0450 -0.1085 -0.0024
  189SOL    HW110131   3.578   8.297   1.171 -0.8374  0.8719  0.3338
  189SOL    HW210132   3.603   8.186   1.288  1.4573 -0.4193 -1.3493
  190SOL     OW10133   3.007   9.707   1.819 -0.3186 -0.4972  0.3437
  190SOL    HW110134   2.921   9.667   1.789 -0.9780 -0.2350  1.8380
  190SOL    HW210135   3.013   9.802   1.789 -0.9699 -0.2389  1.0176
  191SOL     OW10136   4.204   8.738   2.326 -0.4672 -0.2912  0.3501
  191SOL    HW110137   4.256   8.744   2.241  3.2545 -2.5570  2.3376
  191SOL    HW210138   4.187   8.829   2.363  1.2425  0.5263 -0.8677
  192SOL     OW10139   4.171   8.500   1.645  0.1900  0.1120  0.3850
  192SOL    HW110140   4.157   8.582   1.590  0.1429 -0.0762  0.1168
  192SOL    HW210141   4.123   8.511   1.733 -0.7010 -0.0543 -0.0699
  193SOL     OW10142   3.549   0.531   2.534 -0.5567  0.0438 -0.4149
  193SOL    HW110143   3.592   0.461   2.478  1.4090  1.0641 -0.2177
  193SOL    HW210144   3.589   0.530   2.626 -2.0840 -0.0374  0.2709
  194SOL     OW10145   3.765   8.355   1.686 -0.2556  0.2234 -0.8939
  194SOL    HW110146   3.844   8.380   1.743 -1.4012  0.4942  0.5997
  194SOL    HW210147   3.754   8.255   1.686  0.6666  0.1135 -1.9086
  195SOL     OW10148   2.783   8.550   0.888  0.1316 -0.7340 -0.7825
  195SOL    HW110149   2.709   8.588   0.833 -0.2676 -1.0965 -0.4996
  195SOL    HW210150   2.820   8.620   0.949 -0.2851 -0.6767 -0.5998
  196SOL     OW10151   3.309   0.125   1.620  0.1041  0.1249  0.6335
  196SOL    HW110152   3.300   0.055   1.692 -0.8178  0.4946  0.8827
  196SOL    HW210153   3.391   0.180   1.637  0.5687 -0.5764  0.7081
  197SOL     OW10154   4.139   0.494   0.642 -0.4948 -0.2831  0.1961
  197SOL    HW110155   4.086   0.452   0.716 -1.4751  2.3335  1.0362
  197SOL    HW210156   4.119   0.591   0.638 -0.0343 -0.2683 -3.2192
  198SOL     OW10157   2.724   8.500   2.141 -0.4862  0.2666  0.0101
  198SOL    HW110158   2.676   8.498   2.053 -1.0288  0.6561  0.2938
  198SOL    HW210159   2.720   8.592   2.179  0.2660  0.2387  0.1651
  199SOL     OW10160   3.798   8.678   1.285  0.2976  0.1560  0.5999
  199SOL    HW110161   3.814   8.588   1.327  1.1685  0.2941  0.5717
  199SOL    HW210162   3.837   8.749   1.344 -0.7074  0.5412  0.7961
  200SOL     OW10163   3.585   8.851   1.286  0.3600 -0.3390  0.0401
  200SOL    HW110164   3.570   8.893   1.196 -0.5264 -0.5658  0.0765
  200SOL    HW210165   3.654   8.778   1.278 -0.5710 -1.1524 -0.7003
  201SOL     OW10166   2.969   8.482   0.692 -0.5243  0.1101  0.6196
  201SOL    HW110167   2.933   8.524   0.609  1.7303  0.9921  0.0612
  201SOL    HW210168   2.912   8.509   0.770 -2.3990 -0.3845 -0.5551
  202SOL     OW10169   3.563   0.467   1.379  0.1712 -0.3469 -0.9336
  202SOL    HW110170   3.569   0.453   1.477 -3.0867 -0.1372 -0.6388
  202SOL    HW210171   3.543   0.563   1.360  0.3366 -0.4769 -1.7870
  203SOL     OW10172   2.795   0.590   2.222 -0.1221 -0.0894  0.0214
  203SOL    HW110173   2.708   0.593   2.173  0.2242  1.6665 -0.5354
  203SOL    HW210174   2.870   0.588   2.156  0.3035  0.7714  0.4622
  204SOL     OW10175   2.583  -0.051   2.323 -0.2724 -0.2576 -0.0344
  204SOL    HW110176   2.522  -0.090   2.392 -0.2263  0.5014  0.4328
  204SOL    HW210177   2.591   0.047   2.336  1.2060 -0.3729  0.0165
  205SOL     OW10178   3.703   9.724   1.074  0.2012  0.4944  0.9041
  205SOL    HW110179   3.623   9.762   1.027  0.2253  1.9452  2.0204
  205SOL    HW210180   3.676   9.694   1.166  0.6270 -0.3473  0.7566
  206SOL     OW10181   2.640   9.426   1.586  0.6292  0.4589 -0.4302
  206SOL    HW110182   2.598   9.505   1.630 -0.3429 -0.0199 -0.4734
  206SOL    HW210183   2.683   9.368   1.656 -0.2930  0.0675 -0.1616
  207SOL     OW10184   3.999   8.964   1.836  0.6756 -0.0006 -0.1852
  207SOL    HW110185   3.913   8.923   1.867  0.2163 -0.7623 -2.3321
  207SOL    HW210186   3.983   9.060   1.813  1.1544  0.7303  2.3904
  208SOL     OW10187   3.099   0.162   0.878  0.2172  0.6219  0.2498
  208SOL    HW110188   3.106   0.230   0.805  0.2360 -0.7297 -1.0042
  208SOL    HW210189   3.181   0.168   0.936  0.5397  1.1936 -0.2554
  209SOL     OW10190   4.051   0.044   1.116  0.3372  0.4788  0.0361
  209SOL    HW110191   4.055   0.053   1.016  0.9724 -0.4011 -0.0176
  209SOL    HW210192   3.960   0.012   1.142  0.5467 -0.4720 -0.3603
  210SOL     OW10193   4.172   9.609   1.853  0.5955  0.3168 -0.4569
  210SOL    HW110194   4.235   9.591   1.777  0.9214  1.1173 -0.3792
  210SOL    HW210195   4.131   9.699   1.841  0.2038  0.1993  0.0128
  211SOL     OW10196   3.346   0.453   1.681  0.2637  0.1808 -0.0675
  211SOL    HW110197   3.399   0.368   1.675  1.5544  0.8009  2.0650
  211SOL    HW210198   3.277   0.455   1.608  0.4916 -2.4923 -0.3856
  212SOL     OW10199   2.977   9.527   0.021 -0.0021 -0.1628 -0.1842
  212SOL    HW110200   2.995   9.592   0.095  1.2390  0.5782 -1.1339
  212SOL    HW210201   3.062   9.484  -0.008 -0.7435 -1.8918  0.1089
  213SOL     OW10202   3.197   8.545   1.220  0.2353 -0.1577 -0.1762
  213SOL    HW110203   3.128   8.473   1.212  0.1906 -0.0680 -0.5957
  213SOL    HW210204   3.272   8.513   1.277  0.3382 -0.6258 -0.5715
  214SOL     OW10205   3.315   8.779   1.206  0.3748  0.0830 -0.3788
  214SOL    HW110206   3.257   8.697   1.210  0.2989  0.1046 -1.0062
  214SOL    HW210207   3.407   8.756   1.239  0.8996 -0.7453 -2.3418
  215SOL     OW10208   2.572   9.223   2.192  0.3221  0.0736 -0.3719
  215SOL    HW110209   2.533   9.180   2.111  1.4323 -0.4955 -0.6050
  215SOL    HW210210   2.604   9.152   2.255  0.3160  0.5254  0.1404
  216SOL     OW10211   3.799   7.777   0.769 -0.1523 -0.0646 -0.2811
  216SOL    HW110212   3.748   7.850   0.815  0.6486 -1.0004  2.1785
  216SOL    HW210213   3.885   7.815   0.733 -1.0144  0.7820 -1.5110
  217SOL     OW10214   3.335   0.682   2.436  0.0644  0.1605  0.1834
  217SOL    HW110215   3.319   0.657   2.341 -0.5565 -0.9253  0.5554
  217SOL    HW210216   3.413   0.630   2.472 -0.5754 -0.5050  0.6541
  218SOL     OW10217   2.749   9.110   1.577  0.4804 -0.0694  0.8076
  218SOL    HW110218   2.758   9.038   1.508 -0.5150 -1.2226  1.8526
  218SOL    HW210219   2.819   9.179   1.562  0.2498 -0.2571 -1.4023
  219SOL     OW10220   2.891   0.030   0.575  0.1404  0.0512 -0.2235
  219SOL    HW110221   2.875  -0.006   0.667  1.3945  0.5980  0.2093
  219SOL    HW210222   2.816   0.001   0.515 -2.1030  1.9507  1.5790
  220SOL     OW10223   3.820   9.778   2.153  0.7745  0.4872 -0.3204
  220SOL    HW110224   3.910   9.739   2.137  1.0455  0.7537  0.5108
  220SOL    HW210225   3.750   9.708   2.139  1.0559  0.4944 -1.7581
  221SOL     OW10226   3.045   8.335   1.082  0.2737 -0.0021  0.5135
  221SOL    HW110227   2.952   8.316   1.051  0.5036  0.3940 -0.4438
  221SOL    HW210228   3.102   8.254   1.065 -0.0261 -0.4619  1.6588
  222SOL     OW10229   3.726   7.829   2.019 -0.4140  0.1454  0.0980
  222SOL    HW110230   3.679   7.742   2.008 -1.4665  0.6243  0.6927
  222SOL    HW210231   3.801   7.836   1.954 -0.6826 -0.9661 -0.3238
  223SOL     OW10232   4.248   9.452   1.322  0.4088 -0.3153 -0.1426
  223SOL    HW110233   4.298   9.383   1.269  1.7226  0.6048 -0.1266
  223SOL    HW210234   4.186   9.502   1.261 -0.3074 -1.2720 -0.2165
  224SOL     OW10235   2.930   8.123   2.163  0.3590  0.1484 -0.3209
  224SOL    HW110236   2.917   8.115   2.064  0.9000 -0.5524 -0.3387
  224SOL    HW210237   3.020   8.088   2.188 -0.0132 -0.2541  0.4932
  225SOL     OW10238   3.009  -0.045   1.723  0.0799  0.1290  0.0931
  225SOL    HW110239   3.001   0.031   1.788 -1.6824 -1.1113  1.3405
  225SOL    HW210240   2.987  -0.012   1.631  0.4449  1.3737  0.4361
  226SOL     OW10241   3.992   9.241   0.236  0.0202  0.0470  0.0772
  226SOL    HW110242   3.972   9.147   0.265  1.3534 -0.5246 -0.8142
  226SOL    HW210243   3.962   9.305   0.307  0.6609 -1.1559  1.4479
  227SOL     OW10244   3.105   9.669   0.649  0.1843  0.3860  0.0186
  227SOL    HW110245   3.117   9.676   0.748  1.5237  0.6584 -0.1604
  227SOL    HW210246   3.111   9.760   0.608 -0.3633  0.2721 -0.3243
  228SOL     OW10247   3.163   8.219   1.424  0.3404 -0.1172  0.3986
  228SOL    HW110248   3.251   8.266   1.420 -0.0179  0.5405  0.2377
  228SOL    HW210249   3.107   8.260   1.496 -0.2259  0.1325 -0.1827
  229SOL     OW10250   3.374   0.250   2.487  0.0854 -0.0789 -0.4192
  229SOL    HW110251   3.445   0.293   2.433 -1.2028 -0.7770 -2.7714
  229SOL    HW210252   3.288   0.299   2.475 -0.0267  0.3036  1.7659
  230SOL     OW10253   2.600   0.197   2.373  0.0344 -0.7103 -0.5900
  230SOL    HW110254   2.654   0.228   2.450 -0.8829 -0.9474  0.1632
  230SOL    HW210255   2.650   0.212   2.288  0.6659  0.4060 -0.0210
  231SOL     OW10256   3.107   9.689   2.102 -0.0173 -0.1148  0.3281
  231SOL    HW110257   3.042   9.709   2.175  0.4384  0.2047  0.6512
  231SOL    HW210258   3.057   9.666   2.018 -0.5547  1.4116  0.2189
  232SOL     OW10259   2.762   8.266   2.305 -0.5446  0.2049  0.1582
  232SOL    HW110260   2.816   8.204   2.249 -0.3199  0.9971 -0.5042
  232SOL    HW210261   2.740   8.349   2.253 -0.0936  1.0711  1.3224
  233SOL     OW10262   4.705   9.097   1.970  0.8604  0.1103 -0.5404
  233SOL    HW110263   4.621   9.142   1.938  0.7582 -0.1385 -0.6162
  233SOL    HW210264   4.750   9.052   1.893  0.7940 -0.1964 -0.4008
  234SOL     OW10265   3.304   0.104   0.021 -0.0486  0.1492 -0.2256
  234SOL    HW110266   3.309   0.175  -0.049  1.3860 -0.2766 -0.5701
  234SOL    HW210267   3.394   0.090   0.061 -0.8391  0.2794  1.6227
  235SOL     OW10268   2.652   8.803   0.129  0.2348 -0.3536 -0.1081
  235SOL    HW110269   2.571   8.820   0.074  0.7918  0.8328 -0.5775
  235SOL    HW210270   2.728   8.859   0.096  0.6535  0.1755  1.6810
  236SOL     OW10271   2.578   9.722   1.642 -0.1067 -0.1649 -0.0589
  236SOL    HW110272   2.561   9.786   1.567 -0.3606 -0.0259  0.1169
  236SOL    HW210273   2.532   9.754   1.725  0.5712 -0.0621  0.2881
  237SOL     OW10274   3.533   0.673   1.640  0.0906  0.1283  0.0331
  237SOL    HW110275   3.591   0.645   1.717  1.1401 -0.5140 -0.9718
  237SOL    HW210276   3.455   0.612   1.632  0.1080  0.0532  0.4358
  238SOL     OW10277   4.610  -0.163   1.368  0.4230  0.5614 -0.2465
  238SOL    HW110278   4.620  -0.092   1.298  0.1843  1.7781  0.9231
  238SOL    HW210279   4.575  -0.247   1.326 -1.7677  1.9371 -1.2469
  239SOL     OW10280   4.047   0.216  -0.104 -0.0284 -0.1081  0.2631
  239SOL    HW110281   4.082   0.153  -0.175 -0.1798 -0.5458  0.5747
  239SOL    HW210282   3.993   0.164  -0.038 -0.6327  0.4521  0.2058
  240SOL     OW10283   3.723   9.731   1.572  0.3815 -0.1034  0.1973
  240SOL    HW110284   3.641   9.783   1.547  1.0849  0.6139 -0.6789
  240SOL    HW210285   3.747   9.750   1.667 -0.4571 -0.3071  0.4518
  241SOL     OW10286   3.654   0.341   0.557 -0.1567 -0.1693 -0.0162
  241SOL    HW110287   3.676   0.271   0.625  0.1315  0.0234  0.0884
  241SOL    HW210288   3.661   0.432   0.598  0.4176 -0.0312 -0.4026
  242SOL     OW10289   4.102   8.848   0.521 -0.2610  0.2414 -0.1456
  242SOL    HW110290   4.050   8.774   0.563  0.2950 -0.8605 -1.3567
  242SOL    HW210291   4.198   8.821   0.512  0.2389  1.6878  0.7456
  243SOL     OW10292   2.721   8.156   0.547  0.0022 -0.1042 -0.3003
  243SOL    HW110293   2.774   8.084   0.504 -0.3718  0.6096 -1.9943
  243SOL    HW210294   2.705   8.133   0.643  2.7933 -0.6441  0.0752
  244SOL     OW10295   4.089   9.617   1.163 -0.1146 -0.2361 -0.0846
  244SOL    HW110296   4.025   9.598   1.089 -0.4394 -0.5761  0.2827
  244SOL    HW210297   4.144   9.698   1.140 -0.9748  0.3184 -0.2030
  245SOL     OW10298   2.597   9.306   1.091 -0.0981  0.3157 -0.1864
  245SOL    HW110299   2.625   9.242   1.019 -1.8361  0.0040 -0.6111
  245SOL    HW210300   2.535   9.259   1.154  0.7295  0.8377  1.0122
  246SOL     OW10301   2.939   9.072   1.206 -0.4801  0.5089  0.0256
  246SOL    HW110302   3.035   9.047   1.221 -0.2920  0.2050 -1.5242
  246SOL    HW210303   2.921   9.161   1.246  0.2496  0.2203  1.0120
  247SOL     OW10304   3.530   0.246   1.662 -0.2939  1.1380  0.3283
  247SOL    HW110305   3.585   0.227   1.743 -0.7783  1.0320  0.6352
  247SOL    HW210306   3.579   0.215   1.581 -0.4731 -0.1671  0.7045
  248SOL     OW10307   2.384   8.506   2.242 -0.3822  0.4480  0.2988
  248SOL    HW110308   2.399   8.495   2.144  0.8879  0.3155  0.5074
  248SOL    HW210309   2.446   8.447   2.293 -1.2183  0.3149  1.1915
  10.00000  10.00000   2.88400
