chitosan Film  in water:acetic acid 2%
10309
    1CHTO  H203    1   3.866   5.482   0.182  1.4663 -1.4149  1.5535
    1CHTO   O82    2   3.917   5.561   0.181 -0.4033 -0.1858 -0.7955
    1CHTO  C123    3   4.013   5.554   0.292  0.1788  0.3144  0.3674
    1CHTO  H227    4   3.955   5.537   0.384  0.0613 -0.8442  0.0811
    1CHTO   O77    5   4.096   5.441   0.249  0.5093  0.2368  0.8568
    1CHTO  C118    6   4.200   5.401   0.340 -0.3355 -0.2484 -0.2385
    1CHTO  H222    7   4.157   5.376   0.438  1.2733  2.4631  1.2036
    1CHTO  C125    8   4.274   5.279   0.278 -0.0258 -0.1838 -0.4233
    1CHTO   O84    9   4.189   5.165   0.284  0.1037  0.0115  0.5156
    1CHTO  H205   10   4.155   5.159   0.197 -0.9079  0.0984  0.8943
    1CHTO  C114   11   4.298   5.520   0.357  0.3124  0.0725  0.9143
    1CHTO  H218   12   4.348   5.529   0.261 -1.0291 -0.4745  0.1437
    1CHTO  C116   13   4.234   5.658   0.389 -0.1767  0.6832  0.1045
    1CHTO  H220   14   4.203   5.665   0.495 -3.7693 -0.7640 -0.7730
    1CHTO   O79   15   4.329   5.760   0.369 -0.0842  0.7951  0.9300
    1CHTO  H201   16   4.411   5.726   0.337 -0.5730  1.8006 -1.4609
    1CHTO  C120   17   4.102   5.686   0.301  0.0829  1.0242 -0.2001
    1CHTO  H224   18   4.144   5.705   0.200 -2.9237  0.1039 -1.6679
    1CHTO   N21   19   4.033   5.804   0.356  0.4018  0.0011  0.0342
    1CHTO  H211   20   3.983   5.771   0.446 -1.1069  1.0371 -0.4070
    1CHTO  H212   21   4.107   5.882   0.367 -1.8139  2.2258 -0.3544
    1CHTO   O75   22   4.394   5.474   0.453  0.4410 -0.4722 -0.0426
    1CHTO  C112   23   4.545   5.430   0.389  0.7745 -0.8088  0.1323
    1CHTO  H216   24   4.549   5.447   0.280  1.5485  1.0819  0.4340
    1CHTO   O73   25   4.564   5.291   0.417  0.0524 -0.4406  0.4908
    1CHTO  C113   26   4.686   5.224   0.373 -0.0354 -0.2757  0.4615
    1CHTO  H217   27   4.686   5.233   0.263 -1.6673  2.2515  0.6088
    1CHTO  C124   28   4.662   5.075   0.409 -0.0678  0.3018 -0.1627
    1CHTO   O83   29   4.763   4.978   0.397  0.0098 -0.3194  0.3695
    1CHTO  H204   30   4.793   4.992   0.309 -3.1377  1.6117 -0.5054
    1CHTO  C109   31   4.804   5.297   0.449  0.2169  0.2569  0.6761
    1CHTO  H213   32   4.789   5.287   0.557  2.7402 -2.2382  0.8295
    1CHTO  C110   33   4.797   5.449   0.409  0.5347 -0.3664  0.3043
    1CHTO  H214   34   4.806   5.461   0.301 -1.1310 -2.9985 -0.1775
    1CHTO   O78   35   4.901   5.526   0.473  0.2344  0.0462  0.2232
    1CHTO  H200   36   4.985   5.496   0.443 -0.6882 -0.2665 -2.2360
    1CHTO  C111   37   4.659   5.512   0.453  0.5819 -0.0163  0.1376
    1CHTO  H215   38   4.646   5.493   0.560 -4.3878  1.2218 -0.0819
    1CHTO   N19   39   4.639   5.659   0.434  0.4330  0.2641 -0.0798
    1CHTO  H207   40   4.636   5.680   0.328  0.6608 -1.7870 -0.5130
    1CHTO  H208   41   4.731   5.710   0.462 -0.0674  0.7768  0.6785
    1CHTO   O74   42   4.932   5.225   0.406 -0.3131 -0.5635  0.4097
    1CHTO  C115   43   5.037   5.250   0.530  0.0448  0.1526  0.4747
    1CHTO  H219   44   5.003   5.325   0.602  1.1045 -0.4896  1.6727
    1CHTO   O76   45   5.062   5.097   0.623  0.0332  0.8375 -0.5037
    1CHTO  C122   46   5.117   4.987   0.547  0.3738 -0.4990 -0.5218
    1CHTO  H226   47   5.037   4.934   0.495  0.6909 -0.2628 -1.2525
    1CHTO  C126   48   5.176   4.884   0.646  0.1601 -0.1702  0.3140
    1CHTO   O85   49   5.072   4.822   0.722 -0.2217  0.5395 -0.3982
    1CHTO  H206   50   5.055   4.743   0.674 -0.0390 -0.2217  0.7587
    1CHTO  C121   51   5.231   5.037   0.454  0.2867 -0.3434 -0.5610
    1CHTO  H225   52   5.313   4.962   0.464 -1.1678 -1.7449  1.2608
    1CHTO   O81   53   5.186   5.046   0.319  0.1918 -0.3552  0.3099
    1CHTO  H202   54   5.253   5.013   0.261 -0.2328 -0.8784  0.1080
    1CHTO  C119   55   5.291   5.179   0.498  0.0483  0.4869  0.0338
    1CHTO  H223   56   5.296   5.174   0.607  0.9141  0.5512  0.0005
    1CHTO  C117   57   5.183   5.289   0.471  0.1470 -0.6380 -0.2235
    1CHTO  H221   58   5.161   5.304   0.365 -0.0761 -0.3051 -0.1335
    1CHTO   N20   59   5.231   5.421   0.526 -0.0129 -0.2554  0.3099
    1CHTO  H209   60   5.334   5.438   0.497 -0.4682  1.1140 -0.5468
    1CHTO  H210   61   5.185   5.504   0.473 -2.0172 -1.1150  0.6722
    1CHTO   O80   62   5.448   5.219   0.456  0.3529  0.4400  0.0930
    1CHTO  C103   63   5.568   5.155   0.534  0.2294  0.3419  0.1073
    1CHTO  H190   64   5.590   5.226   0.614 -0.3176 -0.0371  0.6076
    1CHTO  C101   65   5.556   5.001   0.590 -0.4304  0.0839  0.0971
    1CHTO  H188   66   5.524   4.934   0.511  2.7264 -0.6256 -0.6748
    1CHTO   O68   67   5.455   4.994   0.701  0.0475 -0.0390  0.0288
    1CHTO  H168   68   5.401   5.069   0.685 -1.1443 -0.9090 -0.0184
    1CHTO   C99   69   5.705   4.950   0.631 -0.1457 -0.0356  0.0262
    1CHTO  H186   70   5.739   5.001   0.723 -2.2425  0.1496  0.7175
    1CHTO   N17   71   5.707   4.804   0.668 -0.0881  0.1603 -0.1413
    1CHTO  H174   72   5.766   4.757   0.590  0.0812 -0.4079  0.3222
    1CHTO  H175   73   5.605   4.771   0.658  0.7315 -2.5995  0.1333
    1CHTO   C97   74   5.804   4.974   0.516  0.2296  0.3349 -0.1282
    1CHTO  H184   75   5.766   4.912   0.433  1.1081 -0.5585  0.1243
    1CHTO   O64   76   5.798   5.116   0.481  0.1269 -0.0254 -0.1537
    1CHTO  C104   77   5.677   5.163   0.424 -0.2603 -0.1402 -0.1775
    1CHTO  H191   78   5.645   5.100   0.341  0.0342 -1.0100  0.3606
    1CHTO  C108   79   5.697   5.305   0.372 -0.3631 -0.4729 -0.2049
    1CHTO   O71   80   5.777   5.309   0.250  0.1465  0.5989  0.3344
    1CHTO  H171   81   5.847   5.246   0.254  0.4051  0.9833  2.1552
    1CHTO   O62   82   5.940   4.944   0.557 -0.4005  0.4021 -0.0653
    1CHTO   C91   83   6.040   4.918   0.463  0.7503  0.6989  0.1394
    1CHTO  H178   84   6.031   4.971   0.368  1.2429 -2.0378 -1.4955
    1CHTO   C92   85   6.025   4.760   0.441 -0.0563 -0.5124 -0.2689
    1CHTO  H179   86   6.004   4.709   0.537  0.3279  2.5261  1.4779
    1CHTO   O66   87   5.914   4.732   0.358 -0.2655 -0.0015 -0.4910
    1CHTO  H166   88   5.836   4.703   0.402 -0.9663  0.5434 -1.3439
    1CHTO   C93   89   6.154   4.691   0.380  0.7484 -0.9239 -0.2272
    1CHTO  H180   90   6.149   4.705   0.271 -2.7707 -1.7101 -0.2326
    1CHTO   N16   91   6.168   4.547   0.402 -0.4599 -0.1997  0.7568
    1CHTO  H172   92   6.128   4.520   0.498 -1.6564 -1.5365 -0.0956
    1CHTO  H173   93   6.121   4.492   0.322  1.1279  1.1561 -1.1759
    1CHTO   C94   94   6.290   4.763   0.430 -0.0998  0.5733 -0.4483
    1CHTO  H181   95   6.308   4.745   0.536 -0.5191 -1.1155 -0.6514
    1CHTO   O61   96   6.276   4.905   0.413  0.2410  0.2732  0.0426
    1CHTO   C95   97   6.188   4.959   0.512 -0.4736 -0.1084 -0.6359
    1CHTO  H182   98   6.210   4.919   0.611  0.7969  1.3474 -0.2964
    1CHTO  C106   99   6.212   5.112   0.528 -0.3980 -0.1783 -0.7086
    1CHTO   O69  100   6.198   5.191   0.413  0.2098  0.3262  0.6017
    1CHTO  H169  101   6.244   5.273   0.417 -1.9329  1.8466 -3.0995
    1CHTO   O63  102   6.413   4.690   0.335 -0.7260 -0.2762  0.0583
    1CHTO   C96  103   6.568   4.725   0.372 -0.0819 -0.2763 -0.6467
    1CHTO  H183  104   6.568   4.820   0.425  0.1626 -0.5409 -0.1659
    1CHTO   C98  105   6.666   4.716   0.249  0.0907  0.1861  0.4486
    1CHTO  H185  106   6.615   4.763   0.163 -1.2879 -2.1032 -0.0320
    1CHTO   O67  107   6.784   4.789   0.284  0.0240  0.8687  0.1704
    1CHTO  H167  108   6.842   4.795   0.210 -0.2105  1.6504  0.0525
    1CHTO  C102  109   6.699   4.568   0.206 -0.1514 -0.1941  0.2159
    1CHTO  H189  110   6.788   4.575   0.141 -0.0255  1.8073  0.5657
    1CHTO   N18  111   6.596   4.493   0.127 -0.1765  0.0678 -0.7146
    1CHTO  H176  112   6.573   4.558   0.044 -0.6935 -2.2638 -2.4543
    1CHTO  H177  113   6.503   4.490   0.181 -0.4238  0.9211 -1.0810
    1CHTO  C105  114   6.737   4.488   0.338  0.2093 -0.3811 -0.2781
    1CHTO  H192  115   6.730   4.382   0.313  0.2436 -0.0396 -1.7766
    1CHTO   O65  116   6.634   4.503   0.438 -0.5775 -0.9653 -0.4164
    1CHTO  C100  117   6.604   4.631   0.490 -0.6294 -0.0612 -0.1301
    1CHTO  H187  118   6.519   4.624   0.559 -1.3907  2.9592 -0.6970
    1CHTO  C107  119   6.719   4.687   0.577 -0.1953 -0.1365  0.0746
    1CHTO   O70  120   6.760   4.591   0.675 -0.4830  0.0863  0.0119
    1CHTO  H170  121   6.758   4.627   0.762 -1.5286 -1.6482  0.7238
    1CHTO   O57  122   6.908   4.534   0.366  0.2335 -0.3895 -0.1442
    1CHTO   C85  123   7.013   4.441   0.337 -0.3374  0.1203  0.2001
    1CHTO  H157  124   6.987   4.380   0.248 -0.6924 -0.0793  0.4353
    1CHTO   C83  125   7.022   4.346   0.463  0.7293  0.5264 -0.1486
    1CHTO  H155  126   6.927   4.293   0.459  0.2124  1.2920  1.3956
    1CHTO   O56  127   7.025   4.429   0.581 -0.1044 -0.1109  0.0373
    1CHTO  H135  128   6.979   4.510   0.575 -0.2007 -0.1208  0.5833
    1CHTO   C81  129   7.140   4.248   0.441 -0.2687  0.0799  0.1877
    1CHTO  H153  130   7.119   4.187   0.353  1.9369  0.9042 -0.9604
    1CHTO   N14  131   7.150   4.143   0.540 -0.5532  0.5481 -0.1352
    1CHTO  H141  132   7.203   4.179   0.625 -0.4186 -0.9921  0.4593
    1CHTO  H142  133   7.193   4.053   0.502 -0.7312 -0.6639  2.4345
    1CHTO   C79  134   7.279   4.325   0.416  0.4600  0.6225 -0.1703
    1CHTO  H151  135   7.353   4.249   0.390  0.5074 -0.3074  2.5328
    1CHTO   O52  136   7.270   4.423   0.307  0.2550 -0.3196  0.5017
    1CHTO   C86  137   7.153   4.513   0.321  0.0817  0.0777 -0.7341
    1CHTO  H158  138   7.179   4.573   0.410 -1.1757 -0.3567 -0.0698
    1CHTO   C90  139   7.142   4.614   0.208  0.7117  0.0907  0.2504
    1CHTO   O60  140   7.260   4.704   0.198 -0.1596 -0.0562 -0.3703
    1CHTO  H138  141   7.248   4.786   0.243 -1.9551  0.0029 -0.8953
    1CHTO   O50  142   7.338   4.385   0.539  0.2811 -0.6252 -0.4969
    1CHTO   C73  143   7.462   4.382   0.618  0.2190  0.3186 -0.3310
    1CHTO  H145  144   7.536   4.347   0.545 -1.2783  0.5136 -1.9933
    1CHTO   C74  145   7.467   4.279   0.731 -0.7505  0.4156  0.2034
    1CHTO  H146  146   7.443   4.179   0.694 -0.1404  0.4036 -0.1724
    1CHTO   O54  147   7.602   4.259   0.781  0.2213  0.0796 -0.1388
    1CHTO  H133  148   7.653   4.206   0.722  1.1857 -1.0709  1.7026
    1CHTO   C75  149   7.363   4.323   0.840 -0.1901  0.1311  0.0012
    1CHTO  H147  150   7.266   4.341   0.789 -0.5139  0.2749  0.6688
    1CHTO   N13  151   7.354   4.225   0.943 -0.0780  0.0752 -0.0401
    1CHTO  H139  152   7.341   4.125   0.903 -0.1673 -1.0425  2.6799
    1CHTO  H140  153   7.272   4.255   1.006  0.0712  0.9642 -0.2616
    1CHTO   C76  154   7.399   4.464   0.900  0.4591  0.2012 -0.6684
    1CHTO  H148  155   7.496   4.444   0.946  0.0934 -1.1415 -0.4721
    1CHTO   O49  156   7.425   4.567   0.799 -0.3478  0.5490 -0.2828
    1CHTO   C77  157   7.506   4.518   0.686 -0.4464 -0.5031  0.0915
    1CHTO  H149  158   7.611   4.513   0.715 -0.7512  1.9052  1.8115
    1CHTO   C88  159   7.511   4.626   0.567 -0.4985  1.0592 -0.7356
    1CHTO   O58  160   7.363   4.672   0.532  0.5563 -0.0741  0.5854
    1CHTO  H136  161   7.342   4.674   0.440 -0.5718 -2.4929  0.7449
    1CHTO   O51  162   7.277   4.521   1.015 -0.5468 -0.3127 -0.3534
    1CHTO   C78  163   7.295   4.694   1.033 -0.7178  0.5794 -0.1017
    1CHTO  H150  164   7.374   4.734   0.966  0.0231 -0.0777  0.3697
    1CHTO   C80  165   7.341   4.723   1.179 -0.0203  0.4308 -0.2109
    1CHTO  H152  166   7.277   4.669   1.251  1.7474  0.8431  1.6917
    1CHTO   O55  167   7.466   4.654   1.199 -0.0051 -0.2627 -0.5517
    1CHTO  H134  168   7.541   4.706   1.180  1.4208 -1.9804  0.1710
    1CHTO   C84  169   7.346   4.878   1.210 -0.4180  0.7489 -0.0604
    1CHTO  H156  170   7.430   4.921   1.156  0.8462 -2.4393 -0.7614
    1CHTO   N15  171   7.370   4.908   1.360 -0.4468  0.3214  0.3492
    1CHTO  H143  172   7.468   4.875   1.386 -0.7669 -0.3166  0.7595
    1CHTO  H144  173   7.295   4.861   1.420 -0.9129 -0.3458 -0.7194
    1CHTO   C87  174   7.211   4.931   1.163  0.3467 -0.3446 -0.4480
    1CHTO  H159  175   7.124   4.898   1.220  0.5280  2.4229  1.5380
    1CHTO   O53  176   7.191   4.903   1.022  0.7203 -0.3918 -0.3033
    1CHTO   C82  177   7.160   4.763   1.009  0.0904 -0.2742 -0.1365
    1CHTO  H154  178   7.078   4.737   1.076 -1.8385 -1.7622 -2.9610
    1CHTO   C89  179   7.098   4.730   0.867  0.1909 -0.6130 -0.0787
    1CHTO   O59  180   7.025   4.612   0.864 -0.4143  0.3663  0.3759
    1CHTO  H137  181   7.086   4.541   0.854  0.8569  1.6190 -1.0417
    1CHTO   O45  182   7.214   5.110   1.180 -0.1539  0.1072  0.0215
    1CHTO   C67  183   7.099   5.190   1.132 -0.0433 -0.0676 -0.9773
    1CHTO  H124  184   7.117   5.293   1.161  1.5321 -0.8438  0.8366
    1CHTO   C65  185   7.076   5.177   0.975  0.4081  0.0565 -0.7122
    1CHTO  H122  186   7.142   5.105   0.927 -0.3643  0.3536 -2.2694
    1CHTO   O44  187   7.101   5.306   0.917 -0.6509  0.4607 -0.2903
    1CHTO  H102  188   7.130   5.307   0.828  1.8131  0.2751  0.4815
    1CHTO   C63  189   6.939   5.110   0.943  0.1976  0.3973  0.3742
    1CHTO  H120  190   6.944   5.007   0.978 -0.9876  0.6447  1.3044
    1CHTO   N11  191   6.909   5.083   0.796 -0.1907  0.4092 -0.0916
    1CHTO  H108  192   6.936   5.176   0.749  0.8620  0.8854  1.4187
    1CHTO  H109  193   6.972   5.009   0.752  0.1699  0.9132 -0.4310
    1CHTO   C61  194   6.827   5.194   1.018  0.5239  0.1198 -0.3352
    1CHTO  H118  195   6.729   5.151   0.992  0.2697  0.8091 -0.5341
    1CHTO   O40  196   6.840   5.184   1.165  0.0921  0.8820 -0.1579
    1CHTO   C68  197   6.975   5.145   1.216  1.0623 -0.1219 -0.7683
    1CHTO  H125  198   6.963   5.035   1.220 -1.0817  0.1413  2.1739
    1CHTO   C72  199   6.989   5.193   1.366 -0.3960  0.3765 -0.3029
    1CHTO   O48  200   6.983   5.338   1.379  0.2487 -0.6626 -0.1434
    1CHTO  H105  201   7.072   5.362   1.366  1.3023 -3.2731  1.8083
    1CHTO   O38  202   6.825   5.332   0.987 -0.7223 -0.0968  0.0859
    1CHTO   C55  203   6.734   5.437   1.040  1.0529 -0.2505  0.0429
    1CHTO  H112  204   6.707   5.395   1.137  0.6661  0.1869  0.1229
    1CHTO   C56  205   6.609   5.450   0.942  0.2577  0.4601 -0.0307
    1CHTO  H113  206   6.633   5.447   0.834 -0.1788 -0.0989 -0.1134
    1CHTO   O42  207   6.528   5.330   0.958 -0.4131 -0.2353 -0.4263
    1CHTO  H100  208   6.533   5.276   0.881 -1.5530 -0.1412 -0.5825
    1CHTO   C57  209   6.521   5.581   0.964  0.7550 -0.8455  0.0550
    1CHTO  H114  210   6.472   5.559   1.058  0.2659 -2.3801 -0.5300
    1CHTO   N10  211   6.414   5.605   0.860 -0.4641 -0.4519 -0.5795
    1CHTO  H106  212   6.387   5.708   0.841 -0.6472 -0.7884 -2.1503
    1CHTO  H107  213   6.445   5.557   0.769 -0.4891 -1.6546  0.0320
    1CHTO   C58  214   6.618   5.707   0.984  0.2568  0.3418 -0.3313
    1CHTO  H115  215   6.669   5.732   0.888 -0.0047 -0.0516 -0.5766
    1CHTO   O37  216   6.708   5.675   1.089 -0.0859 -0.7196  0.1403
    1CHTO   C59  217   6.807   5.573   1.061  0.0482  0.0186  0.6766
    1CHTO  H116  218   6.866   5.591   0.970  1.1125 -1.6482  1.0147
    1CHTO   C70  219   6.895   5.562   1.186  0.1569 -0.1377  0.2722
    1CHTO   O46  220   7.026   5.606   1.167  0.0271  0.5037 -0.6827
    1CHTO  H103  221   7.049   5.590   1.078  1.2367  1.8861 -0.6289
    1CHTO   O39  222   6.533   5.843   1.046 -0.8329  0.0601 -0.0375
    1CHTO   C60  223   6.603   5.965   0.998 -0.1853  0.7360  0.7781
    1CHTO  H117  224   6.711   5.950   1.004  0.0981  2.7400  1.0434
    1CHTO   C62  225   6.571   5.988   0.850  0.3521 -0.3036 -0.0197
    1CHTO  H119  226   6.592   5.899   0.787 -1.7877 -2.1098  1.7411
    1CHTO   O43  227   6.425   6.005   0.837 -0.2200  0.7181 -0.3577
    1CHTO  H101  228   6.399   6.094   0.855  0.5367  0.8070  0.3267
    1CHTO   C66  229   6.653   6.114   0.795 -0.8810  0.2570 -0.4000
    1CHTO  H123  230   6.759   6.096   0.809 -0.2537  2.9376 -1.3619
    1CHTO   N12  231   6.625   6.127   0.644 -0.0268 -0.5520  0.7590
    1CHTO  H110  232   6.636   6.031   0.595  1.6907  0.3470 -0.6435
    1CHTO  H111  233   6.536   6.180   0.616 -0.0044 -0.9672 -0.0959
    1CHTO   C69  234   6.617   6.247   0.869  0.6535  0.5709 -0.5724
    1CHTO  H126  235   6.510   6.268   0.849  1.0233  1.9331 -1.1435
    1CHTO   O41  236   6.638   6.222   1.017 -0.2355 -0.0664  0.0497
    1CHTO   C64  237   6.573   6.093   1.087 -0.2630 -0.0907  0.6364
    1CHTO  H121  238   6.465   6.116   1.074 -0.3182 -0.3611  0.6108
    1CHTO   C71  239   6.611   6.067   1.233  0.6452 -0.1114  0.0853
    1CHTO   O47  240   6.568   6.176   1.313 -0.0917 -0.1336 -0.3905
    1CHTO  H104  241   6.478   6.198   1.299  0.4163  0.7399 -2.5414
    1CHTO   O34  242   6.714   6.380   0.831  0.2953 -0.8871  0.4342
    1CHTO   C49  243   6.848   6.473   0.882 -0.0666  0.5068  0.4079
    1CHTO   H91  244   6.872   6.553   0.811 -1.7619 -0.8877 -1.8216
    1CHTO   C47  245   6.977   6.387   0.884  0.5266  0.6283  0.2659
    1CHTO   H89  246   7.000   6.377   0.776 -0.6020  0.0042  0.0732
    1CHTO   O33  247   6.942   6.262   0.941 -0.5516 -0.8462 -0.7446
    1CHTO   H70  248   6.906   6.201   0.879 -1.4802  0.3623 -1.4097
    1CHTO   C45  249   7.096   6.449   0.967  0.4539  0.6515  0.3087
    1CHTO   H87  250   7.096   6.389   1.059 -0.1169  0.4600  0.1806
    1CHTO    N8  251   7.226   6.425   0.900  0.2190 -0.2968  0.4261
    1CHTO   H75  252   7.273   6.519   0.877 -0.2202 -0.4535 -1.1189
    1CHTO   H76  253   7.292   6.363   0.960  0.9573 -0.8997 -0.9971
    1CHTO   C43  254   7.065   6.601   1.016  0.5879  0.7205 -0.4373
    1CHTO   H85  255   7.139   6.631   1.090  0.3329  1.1178 -0.3401
    1CHTO   O29  256   6.936   6.621   1.066  0.5316 -0.2156  0.2717
    1CHTO   C50  257   6.834   6.529   1.029  0.1257  0.2666  0.2641
    1CHTO   H92  258   6.839   6.449   1.105  0.0242  0.3633  0.3714
    1CHTO   C54  259   6.702   6.579   1.063  0.4314  0.1242  0.9554
    1CHTO   O36  260   6.692   6.594   1.205 -0.3374 -0.3404  0.2667
    1CHTO   H72  261   6.681   6.510   1.244 -1.8723  0.5234  1.8056
    1CHTO   O27  262   7.083   6.695   0.904  0.4321 -0.1603 -0.4501
    1CHTO   C37  263   7.095   6.839   0.894  0.6879  0.6378  0.4422
    1CHTO   H79  264   7.069   6.887   0.989  2.2345  0.9741  0.7149
    1CHTO   C38  265   7.238   6.867   0.858 -0.0942 -0.4070  0.4682
    1CHTO   H80  266   7.269   6.797   0.779 -1.1495 -0.5641  0.1847
    1CHTO   O31  267   7.314   6.862   0.976 -0.0842 -0.5806  0.3783
    1CHTO   H68  268   7.295   6.929   1.040 -1.2535 -0.8102  0.2687
    1CHTO   C39  269   7.263   7.008   0.792 -0.3209 -1.0537 -0.4750
    1CHTO   H81  270   7.239   7.083   0.867  0.9474  0.1562 -1.2279
    1CHTO    N7  271   7.408   7.028   0.748 -0.0212  0.3290  0.9029
    1CHTO   H73  272   7.428   7.125   0.705  0.5007  0.1515  0.7395
    1CHTO   H74  273   7.428   6.943   0.685  1.3003 -0.1789  1.9770
    1CHTO   C40  274   7.164   7.010   0.674 -0.7308  0.1698  0.2015
    1CHTO   H82  275   7.187   6.925   0.611 -0.2891 -0.4969  1.2500
    1CHTO   O26  276   7.029   7.004   0.727  0.2803  0.1775  0.0095
    1CHTO   C41  277   6.991   6.881   0.782 -0.6323  0.0671 -0.0895
    1CHTO   H83  278   6.996   6.803   0.705  0.2686  0.5378 -0.5242
    1CHTO   C52  279   6.847   6.899   0.833 -0.2560  0.5198  0.0905
    1CHTO   O35  280   6.744   6.929   0.725 -0.9458  0.0493 -0.2540
    1CHTO   H71  281   6.774   6.999   0.670  1.0821  0.0425  0.8156
    1CHTO   O28  282   7.164   7.141   0.602  0.3598  0.0583 -0.5183
    1CHTO   C42  283   7.144   7.153   0.458  0.5896  0.5213  0.4703
    1CHTO   H84  284   7.102   7.058   0.423 -0.6364  1.0213  0.5638
    1CHTO   C44  285   7.272   7.173   0.371 -0.0020 -0.5203 -0.6406
    1CHTO   H86  286   7.306   7.277   0.373 -1.7752  0.0679  0.6316
    1CHTO   O32  287   7.369   7.087   0.428  0.0042 -0.3067 -0.5186
    1CHTO   H69  288   7.333   7.000   0.435 -1.9727  0.4297 -1.3648
    1CHTO   C48  289   7.243   7.135   0.223  0.6551  0.7058 -0.3264
    1CHTO   H90  290   7.207   7.032   0.227 -1.0369  1.2304 -1.4421
    1CHTO    N9  291   7.368   7.141   0.139 -0.3463 -0.1945 -0.6003
    1CHTO   H77  292   7.427   7.223   0.177 -0.9644  0.0734 -0.2151
    1CHTO   H78  293   7.426   7.052   0.159 -1.7573 -0.9088  0.4234
    1CHTO   C51  294   7.120   7.224   0.172  0.2818  0.2210  0.0053
    1CHTO   H93  295   7.165   7.319   0.142  4.5008 -1.6571  0.0909
    1CHTO   O30  296   7.013   7.240   0.264 -0.2664 -0.3567  0.2503
    1CHTO   C46  297   7.042   7.257   0.417  0.5817 -0.4118  0.3817
    1CHTO   H88  298   7.074   7.361   0.419 -0.2515 -0.1602  1.3743
    1CHTO   C53  299   6.911   7.240   0.500  0.0638 -0.2276  0.4075
    1CHTO   O72  300   6.838   7.129   0.458 -0.4965  0.2541 -0.4903
    1CHTO  H199  301   6.747   7.138   0.480 -0.2898  1.5710 -0.1105
    1CHTO   O22  302   7.057   7.158   0.060 -0.0890 -0.1901  0.5648
    1CHTO   C31  303   6.967   7.220  -0.042 -0.1436  0.1777 -0.3603
    1CHTO   H59  304   6.930   7.312   0.009 -1.5554 -0.5535 -0.0342
    1CHTO   C29  305   7.029   7.261  -0.178  0.1978 -1.0162 -0.5951
    1CHTO   H57  306   7.087   7.178  -0.221 -0.8716 -1.2953 -1.5340
    1CHTO   O21  307   7.131   7.352  -0.140  0.8441  0.0788  0.1246
    1CHTO   H37  308   7.207   7.343  -0.193 -0.0990 -0.1089 -1.2160
    1CHTO   C27  309   6.922   7.309  -0.288 -0.2719 -0.6693 -0.1218
    1CHTO   H55  310   6.874   7.399  -0.246  3.1071  0.4244  1.6815
    1CHTO    N5  311   6.988   7.341  -0.414 -0.1076  0.0189  0.3724
    1CHTO   H43  312   7.000   7.258  -0.482 -0.2401  0.5155 -0.2628
    1CHTO   H44  313   6.936   7.428  -0.451 -1.6648 -0.0060  2.4209
    1CHTO   C25  314   6.805   7.211  -0.294 -0.4957  0.1319  0.2149
    1CHTO   H53  315   6.832   7.115  -0.342 -1.4571  0.4804 -1.0189
    1CHTO   O17  316   6.753   7.185  -0.163 -0.1153  0.5491 -0.2853
    1CHTO   C32  317   6.849   7.127  -0.074 -0.6209 -0.6344  0.4442
    1CHTO   H60  318   6.887   7.042  -0.131 -0.7529  1.1246 -2.3696
    1CHTO   C36  319   6.767   7.067   0.046  0.1398  0.0896 -0.5823
    1CHTO   O25  320   6.838   6.972   0.120  0.0345 -0.0096  0.0900
    1CHTO   H40  321   6.873   6.901   0.069  2.5003  0.5016  0.9795
    1CHTO   O15  322   6.677   7.275  -0.379 -0.0246 -0.3866 -0.2230
    1CHTO   C19  323   6.596   7.187  -0.466 -0.5959 -0.0413  0.7603
    1CHTO   H47  324   6.517   7.253  -0.505 -0.4144  0.5082  1.3312
    1CHTO   C20  325   6.672   7.115  -0.586 -0.6397 -0.0101  0.3161
    1CHTO   H48  326   6.751   7.048  -0.551 -2.0386 -2.1128 -0.4589
    1CHTO   O19  327   6.736   7.219  -0.657 -0.3188  0.3763 -0.4397
    1CHTO   H35  328   6.694   7.302  -0.652  2.0286  1.5499  1.4733
    1CHTO   C21  329   6.574   7.030  -0.675 -0.7585  0.4900  0.3744
    1CHTO   H49  330   6.505   7.101  -0.719  0.1788  1.3210  0.2137
    1CHTO    N4  331   6.643   6.954  -0.785  0.0660 -0.4055  0.1822
    1CHTO   H41  332   6.724   6.900  -0.740  0.2484  1.4918  2.2272
    1CHTO   H42  333   6.689   7.024  -0.853 -1.6886 -0.7248 -1.3695
    1CHTO   C22  334   6.504   6.928  -0.584  0.1637  0.1311  0.4323
    1CHTO   H50  335   6.576   6.856  -0.545 -1.8158 -1.4205  1.3378
    1CHTO   O14  336   6.435   7.008  -0.492  0.0817  0.1480  0.7248
    1CHTO   C23  337   6.521   7.069  -0.397 -0.4936  0.2366 -0.0991
    1CHTO   H51  338   6.592   6.997  -0.355 -0.0554  0.9077  0.3090
    1CHTO   C34  339   6.435   7.117  -0.278 -0.0029  0.3933 -0.2190
    1CHTO   O23  340   6.371   7.006  -0.213  1.1131 -0.2992  0.2635
    1CHTO   H38  341   6.282   7.004  -0.242  0.7057 -0.1266  1.4660
    1CHTO   O16  342   6.394   6.855  -0.647  0.3987  0.3607  0.1349
    1CHTO   C24  343   6.383   6.695  -0.603 -0.3486 -0.1144 -0.2356
    1CHTO   H52  344   6.479   6.643  -0.610  0.0029  0.2628  1.5517
    1CHTO   C26  345   6.274   6.632  -0.696  0.0241 -0.7881  0.4344
    1CHTO   H54  346   6.178   6.685  -0.680  0.2379  0.1468 -1.2344
    1CHTO   O20  347   6.308   6.667  -0.829 -0.1330 -0.1572 -0.0527
    1CHTO   H36  348   6.231   6.656  -0.881  1.0116  1.3530 -2.1231
    1CHTO   C30  349   6.248   6.478  -0.671  0.4261  0.1910  0.5580
    1CHTO   H58  350   6.338   6.419  -0.692 -0.0884 -0.8534  1.2693
    1CHTO    N6  351   6.148   6.421  -0.758 -0.0774 -0.2697 -0.6124
    1CHTO   H45  352   6.061   6.393  -0.699 -0.2701  0.7964 -0.3800
    1CHTO   H46  353   6.192   6.332  -0.800  1.2198  0.6753 -1.3011
    1CHTO   C33  354   6.219   6.460  -0.520 -0.3269 -0.1184 -0.2439
    1CHTO   H61  355   6.122   6.505  -0.493 -0.5577 -1.1110  0.6368
    1CHTO   O18  356   6.325   6.523  -0.441 -0.9436 -0.3174  0.0557
    1CHTO   C28  357   6.334   6.666  -0.461  0.1484 -0.8567  0.5342
    1CHTO   H56  358   6.235   6.713  -0.461  1.1136  1.3659 -2.2166
    1CHTO   C35  359   6.423   6.727  -0.352 -0.1840  0.6834 -0.4509
    1CHTO   O24  360   6.552   6.664  -0.339  0.0604 -0.0506  0.2859
    1CHTO   H39  361   6.579   6.635  -0.424  0.0289 -1.1771  0.6482
    1CHTO    O9  362   6.207   6.317  -0.484  0.3102  0.2711 -0.1478
    1CHTO   C13  363   6.158   6.296  -0.331 -0.4944 -0.0429 -0.1939
    1CHTO   H26  364   6.094   6.380  -0.297  1.1493  0.4027  1.8961
    1CHTO   C11  365   6.284   6.283  -0.240  0.7953 -0.0457 -0.5841
    1CHTO   H24  366   6.323   6.385  -0.229 -3.4425  1.8339 -1.7505
    1CHTO    O8  367   6.398   6.225  -0.299 -0.0350  0.0632  0.5823
    1CHTO    H3  368   6.475   6.258  -0.257 -1.1051 -0.0657  2.7110
    1CHTO    C9  369   6.245   6.230  -0.098  0.0765  0.1772  0.8314
    1CHTO   H22  370   6.168   6.299  -0.061 -0.7814 -0.5049  0.3450
    1CHTO    N2  371   6.352   6.233   0.005  0.4574 -0.1014  1.1722
    1CHTO   H10  372   6.338   6.296   0.092  1.9972  0.3857  1.0918
    1CHTO   H11  373   6.381   6.130   0.023 -2.0561 -0.8793  0.9260
    1CHTO    C7  374   6.180   6.089  -0.116  0.3075  0.0441 -0.3698
    1CHTO   H20  375   6.143   6.063  -0.015  0.2879 -1.0922 -0.6528
    1CHTO    O4  376   6.064   6.098  -0.198 -0.3414 -0.3125  0.6671
    1CHTO   C14  377   6.068   6.165  -0.328  0.2137 -0.0658 -0.1637
    1CHTO   H27  378   5.961   6.190  -0.341  0.9021  2.6925 -0.8956
    1CHTO   C18  379   6.104   6.066  -0.433 -0.4905 -0.3167  1.0745
    1CHTO   O13  380   6.009   5.962  -0.424 -0.3496 -0.1254  0.1469
    1CHTO    H7  381   6.030   5.908  -0.350  0.7946 -1.3105 -1.0158
    1CHTO    O2  382   6.292   5.960  -0.186  0.2985 -0.4873  0.1610
    1CHTO    C1  383   6.325   5.847  -0.107 -0.6171  0.6546 -0.4549
    1CHTO   H14  384   6.253   5.853  -0.023 -1.5145  2.4999 -1.3265
    1CHTO    C2  385   6.474   5.845  -0.054 -0.1853 -0.4183  0.4783
    1CHTO   H15  386   6.533   5.856  -0.146  1.2707 -1.1315  1.3157
    1CHTO    O6  387   6.487   5.961   0.033  0.2158  0.0843 -0.8030
    1CHTO    H1  388   6.575   5.978   0.061  0.5743 -1.3622 -1.0033
    1CHTO    C3  389   6.503   5.708   0.018 -0.0011 -0.3121  0.4162
    1CHTO   H16  390   6.447   5.710   0.112 -2.7481  0.3921 -1.1916
    1CHTO    N1  391   6.644   5.687   0.059 -0.4940 -0.1055 -0.3725
    1CHTO    H8  392   6.676   5.592   0.021  0.1016  0.0828 -0.3482
    1CHTO    H9  393   6.701   5.777   0.041 -2.1334  1.6037  2.5153
    1CHTO    C4  394   6.442   5.579  -0.063  0.2057 -0.4581  0.4485
    1CHTO   H17  395   6.512   5.537  -0.136 -1.9759 -1.7728 -0.9478
    1CHTO    O1  396   6.310   5.598  -0.116 -0.3762  0.2199  0.8143
    1CHTO    C5  397   6.300   5.722  -0.192 -0.2393  0.3152 -0.0415
    1CHTO   H18  398   6.380   5.721  -0.265  1.2703  2.6252  1.5061
    1CHTO   C16  399   6.156   5.733  -0.264  0.0133  0.2848 -0.4178
    1CHTO   O11  400   6.155   5.705  -0.405  0.3522 -0.9156  0.3730
    1CHTO    H5  401   6.086   5.759  -0.438 -1.0553 -2.0792  1.3337
    1CHTO    O3  402   6.432   5.479   0.040 -0.0055 -0.6406 -0.9216
    1CHTO    C6  403   6.377   5.350   0.009  0.2950  0.0681 -0.0359
    1CHTO   H19  404   6.333   5.350  -0.091 -0.8948 -0.0771  0.4756
    1CHTO    C8  405   6.486   5.239   0.011  0.3228 -0.5573 -0.1009
    1CHTO   H21  406   6.549   5.251   0.100  0.1652 -0.2502 -0.0301
    1CHTO    O7  407   6.567   5.263  -0.108 -0.3734  0.2630  0.2918
    1CHTO    H2  408   6.657   5.262  -0.082  0.2263 -0.4152 -1.7358
    1CHTO   C12  409   6.431   5.101   0.015  0.8351  0.6502  0.5347
    1CHTO   H25  410   6.384   5.077  -0.082  1.1141  1.5952  0.1631
    1CHTO    N3  411   6.539   4.996   0.029  0.8307  0.2903 -0.1491
    1CHTO   H12  412   6.490   4.901   0.013 -0.2451  0.6950  0.6757
    1CHTO   H13  413   6.627   5.007  -0.033  1.4128 -0.0420  0.6042
    1CHTO   C15  414   6.328   5.089   0.128  0.3067 -0.5515  0.2234
    1CHTO   H28  415   6.374   5.098   0.227  1.0957 -2.3770  0.0250
    1CHTO   O10  416   6.244   4.969   0.116  0.4934  0.3358  1.0603
    1CHTO    H4  417   6.298   4.894   0.129 -0.3202 -0.4668 -0.0238
    1CHTO    O5  418   6.226   5.185   0.105  0.3171  0.4056  0.3981
    1CHTO   C10  419   6.264   5.322   0.110  0.3320 -0.3721 -0.0910
    1CHTO   H23  420   6.295   5.343   0.212  2.5377 -2.6029 -0.2704
    1CHTO   C17  421   6.136   5.405   0.080  0.1995 -0.1510 -0.2758
    1CHTO   O12  422   6.149   5.544   0.113 -0.0805  0.5290 -0.2946
    1CHTO    H6  423   6.068   5.590   0.121 -0.6577 -0.6820  0.9158
    2CHTO  H203  424   3.597   3.196   1.090 -0.5720  0.1719 -0.0303
    2CHTO   O82  425   3.586   3.257   1.160 -0.1345 -0.0759  0.2630
    2CHTO  C123  426   3.638   3.388   1.136  0.0368 -0.1925 -0.0812
    2CHTO  H227  427   3.746   3.379   1.116  0.2040  0.6902  0.4334
    2CHTO   O77  428   3.568   3.439   1.024  0.2691  0.3198  0.1580
    2CHTO  C118  429   3.617   3.566   0.967 -0.1884 -0.5974 -0.6286
    2CHTO  H222  430   3.718   3.559   0.924  1.1695 -0.8178  2.4687
    2CHTO  C125  431   3.516   3.609   0.857  0.1276  0.2143 -0.4820
    2CHTO   O84  432   3.513   3.525   0.739 -0.0304 -0.7340 -0.5148
    2CHTO  H205  433   3.447   3.561   0.682 -1.0830 -2.5146 -0.4570
    2CHTO  C114  434   3.630   3.671   1.079  0.7625  0.9856 -0.0675
    2CHTO  H218  435   3.529   3.701   1.109  0.4252 -0.6839  0.5742
    2CHTO  C116  436   3.695   3.625   1.221  0.0561  0.1081  0.1437
    2CHTO  H220  437   3.806   3.624   1.209 -0.0457 -0.0727 -0.8090
    2CHTO   O79  438   3.683   3.726   1.323  0.4094  0.4373  0.2690
    2CHTO  H201  439   3.740   3.705   1.394 -1.8004 -0.4427  1.7975
    2CHTO  C120  440   3.625   3.485   1.260  0.1977  0.4425 -0.1019
    2CHTO  H224  441   3.521   3.516   1.284  0.1595 -1.4968  2.4564
    2CHTO   N21  442   3.683   3.436   1.389 -0.3798 -0.3270 -0.2439
    2CHTO  H211  443   3.632   3.480   1.473 -1.1479 -1.0785 -0.3101
    2CHTO  H212  444   3.680   3.328   1.392  0.2621 -0.3835 -1.2614
    2CHTO   O75  445   3.686   3.775   1.003 -0.3230 -0.2802  0.0142
    2CHTO  C112  446   3.646   3.918   1.036 -0.4194  0.1484 -0.0574
    2CHTO  H216  447   3.606   3.917   1.138  1.0269  0.6172  0.5300
    2CHTO   O73  448   3.548   3.956   0.937  0.2100 -0.1452  0.0387
    2CHTO  C113  449   3.494   4.084   0.953  0.2376 -0.4644 -0.1628
    2CHTO  H217  450   3.427   4.082   1.041  0.2032  0.7420 -0.1632
    2CHTO  C124  451   3.386   4.112   0.851 -0.6189  0.0510 -0.1514
    2CHTO   O83  452   3.429   4.087   0.715  0.1401  0.1086 -0.5778
    2CHTO  H204  453   3.383   4.008   0.694 -0.8272  0.6092 -0.3667
    2CHTO  C109  454   3.612   4.195   0.945 -0.0954  0.3430 -0.4572
    2CHTO  H213  455   3.668   4.185   0.851 -0.6769 -0.1538 -0.7502
    2CHTO  C110  456   3.715   4.160   1.067  0.3288  0.5934 -0.6062
    2CHTO  H214  457   3.656   4.166   1.158 -0.4161 -0.7776 -0.9765
    2CHTO   O78  458   3.813   4.262   1.072  0.2872  0.0475  0.2021
    2CHTO  H200  459   3.771   4.345   1.064 -0.4008 -0.2946  0.2613
    2CHTO  C111  460   3.765   4.016   1.032 -0.0527 -0.8348  0.9741
    2CHTO  H215  461   3.810   4.019   0.931 -3.4052  1.3115 -0.5574
    2CHTO   N19  462   3.868   3.977   1.130 -0.0852  0.0445 -0.0702
    2CHTO  H207  463   3.907   4.065   1.179 -0.1101 -0.1753  0.3419
    2CHTO  H208  464   3.948   3.933   1.072  0.2863  1.0820 -0.3535
    2CHTO   O74  465   3.563   4.331   0.958 -0.2037 -0.1619 -0.1313
    2CHTO  C115  466   3.638   4.422   0.867  0.2003  0.0266 -0.8595
    2CHTO  H219  467   3.742   4.393   0.855 -0.0221 -1.4123  0.5802
    2CHTO   O76  468   3.577   4.431   0.726 -0.5046 -0.1022 -0.8008
    2CHTO  C122  469   3.436   4.456   0.716 -0.4230 -0.2588  0.4441
    2CHTO  H226  470   3.386   4.361   0.733  0.3360 -0.5145  1.2617
    2CHTO  C126  471   3.402   4.508   0.572  0.3098 -0.3947  0.2499
    2CHTO   O85  472   3.458   4.637   0.531 -0.7053  0.7527  0.4927
    2CHTO  H206  473   3.435   4.646   0.441 -0.6025 -1.5261  0.2123
    2CHTO  C121  474   3.400   4.578   0.820 -0.1053 -0.2028 -0.1912
    2CHTO  H225  475   3.340   4.647   0.757  0.5681  0.4540 -0.1264
    2CHTO   O81  476   3.333   4.534   0.937 -0.4436  0.1204  0.0559
    2CHTO  H202  477   3.329   4.441   0.938  1.3358  0.0305  1.6919
    2CHTO  C119  478   3.531   4.658   0.853  0.5905 -0.7123 -0.1842
    2CHTO  H223  479   3.573   4.677   0.755  1.8204 -1.8071  0.1152
    2CHTO  C117  480   3.637   4.566   0.934  0.2673 -0.0521 -0.4930
    2CHTO  H221  481   3.605   4.549   1.037 -2.0929 -0.5552 -1.2765
    2CHTO   N20  482   3.774   4.621   0.948  0.9826 -0.6878  0.4580
    2CHTO  H209  483   3.827   4.588   1.036 -0.4928 -3.4826  0.3650
    2CHTO  H210  484   3.843   4.615   0.864  1.1530  2.4221  0.3058
    2CHTO   O80  485   3.512   4.806   0.926  0.7042  0.6664  0.2817
    2CHTO  C103  486   3.515   4.950   0.838 -0.0997 -0.1791  0.4391
    2CHTO  H190  487   3.545   5.031   0.904 -1.1304  1.4512 -1.0316
    2CHTO  C101  488   3.607   4.954   0.713 -0.1250 -0.6472  0.4872
    2CHTO  H188  489   3.588   4.876   0.639  0.5607 -0.9451  0.6160
    2CHTO   O68  490   3.757   4.931   0.755 -0.4718  0.4450 -0.4956
    2CHTO  H168  491   3.816   4.948   0.685  0.8338 -1.7040  0.0483
    2CHTO   C99  492   3.592   5.095   0.640  0.4254 -0.3985 -0.3646
    2CHTO  H186  493   3.613   5.178   0.710 -1.2757 -1.1846  1.1138
    2CHTO   N17  494   3.678   5.120   0.515 -0.1088 -0.6806  0.7265
    2CHTO  H174  495   3.710   5.027   0.472  0.0525 -1.4559  2.4794
    2CHTO  H175  496   3.762   5.181   0.545  0.2028  0.7565 -2.8297
    2CHTO   C97  497   3.441   5.116   0.597  0.3468  0.0648 -0.3614
    2CHTO  H184  498   3.414   5.049   0.514 -0.1405 -1.9917  1.4127
    2CHTO   O64  499   3.357   5.098   0.709 -0.2029 -0.1170 -0.2286
    2CHTO  C104  500   3.365   4.981   0.788 -0.3505 -0.0513 -0.4486
    2CHTO  H191  501   3.324   4.890   0.744  0.5151 -0.8045  0.2898
    2CHTO  C108  502   3.274   5.023   0.902  0.2862 -0.6074 -0.4127
    2CHTO   O71  503   3.239   4.911   0.982 -0.0878  0.2585  0.1606
    2CHTO  H171  504   3.310   4.880   1.034 -1.2323  1.8203  2.7581
    2CHTO   O62  505   3.414   5.255   0.560  0.1091  0.0577  0.1054
    2CHTO   C91  506   3.273   5.291   0.523  0.0350 -0.3053 -0.3024
    2CHTO  H178  507   3.204   5.216   0.562 -0.7453 -0.1470 -1.3487
    2CHTO   C92  508   3.250   5.270   0.367  0.5923 -0.3902 -0.1452
    2CHTO  H179  509   3.321   5.331   0.309  1.7162 -0.4391  1.1532
    2CHTO   O66  510   3.273   5.136   0.331 -0.5663  0.2481 -0.2483
    2CHTO  H166  511   3.218   5.119   0.257  0.7597  0.4474 -1.2998
    2CHTO   C93  512   3.114   5.332   0.317 -0.5797 -0.3555  0.3777
    2CHTO  H180  513   3.028   5.286   0.367  0.8277 -2.9746  0.4850
    2CHTO   N16  514   3.078   5.320   0.180  0.4126 -0.2915  0.2353
    2CHTO  H172  515   2.977   5.285   0.163  0.1316  0.8547 -0.5228
    2CHTO  H173  516   3.151   5.261   0.128 -0.0281  0.6885 -1.5524
    2CHTO   C94  517   3.121   5.488   0.355  0.0931 -0.1386 -0.4611
    2CHTO  H181  518   3.199   5.539   0.300 -0.5061 -1.9674 -3.1164
    2CHTO   O61  519   3.128   5.494   0.496  0.0155 -0.2081  0.0769
    2CHTO   C95  520   3.245   5.447   0.545 -0.2651  0.5045 -0.9346
    2CHTO  H182  521   3.328   5.497   0.494  1.1806 -1.7672 -0.8757
    2CHTO  C106  522   3.256   5.505   0.693 -0.2288 -0.0171  0.2807
    2CHTO   O69  523   3.157   5.454   0.780  0.1595  0.2378  0.1807
    2CHTO  H169  524   3.070   5.474   0.751 -0.6320 -0.9008  1.7059
    2CHTO   O63  525   2.991   5.580   0.315  0.7577 -0.2011  0.9252
    2CHTO   C96  526   3.026   5.721   0.246  0.0535  0.8327 -1.2910
    2CHTO  H183  527   3.109   5.705   0.178  1.3657 -1.7163  0.8102
    2CHTO   C98  528   3.069   5.841   0.336  0.1315 -0.2417  0.4185
    2CHTO  H185  529   2.998   5.868   0.415  0.1221 -0.8724  0.6295
    2CHTO   O67  530   3.186   5.804   0.412  0.3366  0.5794 -0.2332
    2CHTO  H167  531   3.159   5.741   0.476  1.0952  0.1509 -0.3327
    2CHTO  C102  532   3.095   5.973   0.231 -0.9149 -0.4907 -0.3565
    2CHTO  H189  533   3.179   5.943   0.166  1.4834  2.8267  1.1075
    2CHTO   N18  534   3.150   6.094   0.294  0.4299 -0.3115 -0.1167
    2CHTO  H176  535   3.148   6.179   0.227 -0.6934  0.7988  1.3052
    2CHTO  H177  536   3.233   6.066   0.358  0.5829 -0.0679 -0.2095
    2CHTO  C105  537   2.960   5.999   0.152 -0.0676  0.6234  0.0641
    2CHTO  H192  538   2.884   6.032   0.222 -2.2906 -1.4019 -1.2988
    2CHTO   O65  539   2.918   5.882   0.081 -0.2671 -0.7218 -0.4705
    2CHTO  C100  540   2.896   5.760   0.156 -0.2189  0.2170 -0.0124
    2CHTO  H187  541   2.813   5.792   0.221 -1.5536 -3.7084  0.3604
    2CHTO  C107  542   2.847   5.649   0.063 -0.1899 -0.0416  0.1194
    2CHTO   O70  543   2.718   5.679   0.018  0.0031  0.6699  0.3245
    2CHTO  H170  544   2.670   5.598   0.013 -0.1162  0.6577  1.4231
    2CHTO   O57  545   2.979   6.104   0.044  0.0440  0.4549  0.1527
    2CHTO   C85  546   2.871   6.193   0.002 -0.3074 -0.2639 -0.3863
    2CHTO  H157  547   2.829   6.242   0.092  1.9592 -0.7932  1.0126
    2CHTO   C83  548   2.755   6.111  -0.047 -0.5077 -0.3710 -0.3092
    2CHTO  H155  549   2.710   6.053   0.034 -0.7014 -1.8092 -1.4123
    2CHTO   O56  550   2.805   6.008  -0.137 -0.3036  0.5401  0.2879
    2CHTO  H135  551   2.854   5.942  -0.091 -0.8518 -0.0901 -0.0153
    2CHTO   C81  552   2.642   6.197  -0.108 -0.0696  0.9937 -0.2944
    2CHTO  H153  553   2.610   6.273  -0.037  1.1814 -1.8545  3.4788
    2CHTO   N14  554   2.513   6.122  -0.139  0.4359 -0.7230  0.5261
    2CHTO  H141  555   2.475   6.085  -0.046  1.4082 -1.5504  0.6125
    2CHTO  H142  556   2.536   6.039  -0.203  0.1715 -2.1060  2.1882
    2CHTO   C79  557   2.705   6.271  -0.230  0.3032 -0.1546 -0.4239
    2CHTO  H151  558   2.625   6.332  -0.273  0.5289 -0.4250 -1.2329
    2CHTO   O52  559   2.820   6.354  -0.200  0.0780 -0.1110 -0.3450
    2CHTO   C86  560   2.915   6.297  -0.107  0.4028  0.3454  0.1371
    2CHTO  H158  561   2.993   6.242  -0.163 -1.0707  0.4349 -2.0719
    2CHTO   C90  562   2.995   6.413  -0.037 -0.1825 -0.2060 -0.0043
    2CHTO   O60  563   3.089   6.493  -0.108 -0.1922 -0.4786  0.2155
    2CHTO  H138  564   3.043   6.558  -0.158 -1.8958 -0.2451  2.0216
    2CHTO   O50  565   2.744   6.183  -0.338  0.1094 -0.4127 -0.5264
    2CHTO   C73  566   2.782   6.175  -0.478 -0.5748  0.3093  0.0507
    2CHTO  H145  567   2.753   6.267  -0.531  0.2537  0.3105 -0.4121
    2CHTO   C74  568   2.703   6.059  -0.540  0.0398  0.9201  0.1008
    2CHTO  H146  569   2.596   6.081  -0.523 -0.0981  1.0663 -0.9523
    2CHTO   O54  570   2.737   6.048  -0.685 -0.6043  0.1882 -0.1704
    2CHTO  H133  571   2.671   5.990  -0.719 -2.6457  1.3899  1.6863
    2CHTO   C75  572   2.738   5.924  -0.468 -1.1603  0.8271 -0.8428
    2CHTO  H147  573   2.718   5.940  -0.361 -1.3395 -0.0148 -0.7517
    2CHTO   N13  574   2.666   5.802  -0.515 -0.5861 -0.1817 -0.3706
    2CHTO  H139  575   2.631   5.750  -0.427 -2.7809  1.8409 -0.0102
    2CHTO  H140  576   2.731   5.741  -0.576 -0.6097  1.4136 -2.0510
    2CHTO   C76  577   2.905   5.899  -0.477 -0.1442  0.2291  0.7754
    2CHTO  H148  578   2.928   5.866  -0.578  0.1852  0.6793  0.7019
    2CHTO   O49  579   2.975   6.030  -0.439 -0.7214  0.5082 -0.5349
    2CHTO   C77  580   2.934   6.145  -0.503  0.2436 -1.2070  0.5613
    2CHTO  H149  581   2.961   6.129  -0.608  1.1866  1.3368  0.3933
    2CHTO   C88  582   3.015   6.267  -0.459 -0.1031  0.4037 -0.4967
    2CHTO   O58  583   3.151   6.243  -0.495  0.3757 -0.4180  0.3707
    2CHTO  H136  584   3.169   6.288  -0.575 -0.9950  0.7159  0.6827
    2CHTO   O51  585   2.953   5.808  -0.374  1.0540 -0.6454 -0.1713
    2CHTO   C78  586   3.079   5.748  -0.385  0.1826  0.0271 -0.1873
    2CHTO  H150  587   3.147   5.811  -0.445 -0.7143  0.2602 -0.9824
    2CHTO   C80  588   3.079   5.607  -0.447 -0.4797  0.0431 -0.1343
    2CHTO  H152  589   3.008   5.551  -0.383 -1.8778  1.3940 -0.4662
    2CHTO   O55  590   3.026   5.611  -0.580  0.2109 -0.2429  0.6813
    2CHTO  H134  591   3.053   5.541  -0.637 -0.8392 -0.8774  0.9579
    2CHTO   C84  592   3.218   5.540  -0.449  0.5316 -0.3460  0.0171
    2CHTO  H156  593   3.280   5.601  -0.515 -1.2750  1.0025 -0.4822
    2CHTO   N15  594   3.220   5.405  -0.503 -0.5796  0.6860  0.1752
    2CHTO  H143  595   3.155   5.336  -0.454 -1.0179  1.1067  0.1939
    2CHTO  H144  596   3.318   5.368  -0.482 -1.1062  0.9490  3.3573
    2CHTO   C87  597   3.275   5.548  -0.307 -0.1450  0.1780 -0.7069
    2CHTO  H159  598   3.215   5.486  -0.240 -0.5471 -0.7845 -1.9393
    2CHTO   O53  599   3.272   5.683  -0.249 -0.1491 -0.1609 -0.0868
    2CHTO   C82  600   3.139   5.748  -0.248 -0.6690 -0.2386  0.8780
    2CHTO  H154  601   3.079   5.687  -0.180  1.5732 -3.5473  0.0123
    2CHTO   C89  602   3.148   5.886  -0.184  0.0757 -0.2621  0.0858
    2CHTO   O59  603   3.241   5.972  -0.249 -0.6018  0.2619 -0.1743
    2CHTO  H137  604   3.328   5.940  -0.237 -0.5187  0.4700 -0.2207
    2CHTO   O45  605   3.427   5.490  -0.309  0.3060  0.7117  0.3564
    2CHTO   C67  606   3.483   5.482  -0.176  0.0049  0.5139 -0.5602
    2CHTO  H124  607   3.434   5.564  -0.123  0.6261  1.9731 -2.1938
    2CHTO   C65  608   3.446   5.344  -0.122 -0.0766  0.4060 -0.1430
    2CHTO  H122  609   3.442   5.267  -0.199  1.4140 -0.8003  0.9612
    2CHTO   O44  610   3.307   5.354  -0.075 -0.1310  0.6756 -0.4708
    2CHTO  H102  611   3.276   5.440  -0.055  0.8697  1.0464 -0.4430
    2CHTO   C63  612   3.552   5.285  -0.016 -0.3454  0.1254  0.0760
    2CHTO  H120  613   3.633   5.244  -0.075 -1.1435 -1.2768 -0.0656
    2CHTO   N11  614   3.502   5.166   0.067 -1.1063  0.1257 -0.0251
    2CHTO  H108  615   3.575   5.111   0.123  0.2692  0.2866 -1.6303
    2CHTO  H109  616   3.423   5.195   0.134 -0.9067  2.0829 -0.5966
    2CHTO   C61  617   3.618   5.404   0.066 -0.0832  0.8013  0.5807
    2CHTO  H118  618   3.703   5.361   0.120  2.2479  1.7851 -2.1338
    2CHTO   O40  619   3.671   5.504  -0.028  0.3028  0.5220  0.4347
    2CHTO   C68  620   3.640   5.503  -0.175 -0.2718  0.0214 -0.7864
    2CHTO  H125  621   3.696   5.419  -0.221 -0.1338  0.1915 -0.9308
    2CHTO   C72  622   3.681   5.629  -0.246  0.0703 -0.1889  0.1224
    2CHTO   O48  623   3.642   5.752  -0.183  0.4855  0.1068  0.3187
    2CHTO  H105  624   3.553   5.754  -0.156  0.9805 -0.1008  2.0153
    2CHTO   O38  625   3.514   5.470   0.152 -0.4339 -0.7806 -0.5412
    2CHTO   C55  626   3.569   5.585   0.229 -1.0471  0.5979 -0.2591
    2CHTO  H112  627   3.654   5.628   0.175 -0.7196 -1.3903 -1.3898
    2CHTO   C56  628   3.611   5.527   0.373 -0.1868  0.8661 -0.2202
    2CHTO  H113  629   3.522   5.468   0.401 -0.0008  0.5632 -0.2632
    2CHTO   O42  630   3.718   5.434   0.355 -0.3522  0.8162 -0.5317
    2CHTO  H100  631   3.768   5.456   0.279  0.9466 -0.2905 -0.0212
    2CHTO   C57  632   3.650   5.635   0.476  0.2542  0.2043  0.1839
    2CHTO  H114  633   3.737   5.680   0.427 -0.6666  1.4934 -0.3083
    2CHTO   N10  634   3.673   5.584   0.612 -0.4571 -0.3888  0.1109
    2CHTO  H106  635   3.719   5.657   0.678 -0.9065  0.6074 -0.6614
    2CHTO  H107  636   3.583   5.543   0.656 -0.6347  0.7045  0.7919
    2CHTO   C58  637   3.541   5.744   0.470  0.2120 -0.8474 -0.3697
    2CHTO  H115  638   3.442   5.699   0.495 -0.3371  0.2064 -0.5858
    2CHTO   O37  639   3.535   5.800   0.336 -0.3018 -0.2018  0.2048
    2CHTO   C59  640   3.470   5.703   0.255 -0.0754  0.5017  0.8689
    2CHTO  H116  641   3.380   5.661   0.301  0.0584 -0.7557  0.0078
    2CHTO   C70  642   3.426   5.766   0.120 -0.0699  0.6940  0.1255
    2CHTO   O46  643   3.356   5.666   0.058 -0.3065  0.2460 -0.0111
    2CHTO  H103  644   3.267   5.691   0.043  0.2215  2.1331 -0.0954
    2CHTO   O39  645   3.573   5.873   0.579 -0.3583  0.2654 -0.2472
    2CHTO   C60  646   3.453   5.945   0.595  0.0772  0.3167 -0.1530
    2CHTO  H117  647   3.386   5.926   0.511  2.6388  0.8122 -2.3869
    2CHTO   C62  648   3.384   5.901   0.723 -0.9450 -0.3048  0.3328
    2CHTO  H119  649   3.380   5.790   0.733 -0.8375 -0.3084  0.3497
    2CHTO   O43  650   3.456   5.934   0.846 -0.0036  0.6100 -0.2772
    2CHTO  H101  651   3.397   5.966   0.912  0.5355 -0.7323  0.8765
    2CHTO   C66  652   3.240   5.969   0.714  0.5036  0.2655 -0.5717
    2CHTO  H123  653   3.190   5.930   0.625  1.5036 -1.0477 -0.5791
    2CHTO   N12  654   3.141   5.921   0.818 -0.4576  0.2403  1.1891
    2CHTO  H110  655   3.189   5.845   0.878  0.9778  0.4057  0.2758
    2CHTO  H111  656   3.052   5.893   0.764  0.1492 -3.0020  1.7898
    2CHTO   C69  657   3.249   6.124   0.709  0.4490  1.1930 -0.2261
    2CHTO  H126  658   3.285   6.164   0.806  0.6020 -1.8831  1.0454
    2CHTO   O41  659   3.349   6.165   0.589  0.8466  0.8009  0.4703
    2CHTO   C64  660   3.476   6.097   0.601 -0.1820  0.5523  0.0366
    2CHTO  H121  661   3.537   6.122   0.691  0.1490 -2.4072  0.6654
    2CHTO   C71  662   3.567   6.145   0.482 -0.2935  0.8492  0.3120
    2CHTO   O47  663   3.487   6.136   0.364  0.0539 -0.7042 -0.2888
    2CHTO  H104  664   3.540   6.152   0.289 -0.9752  1.0048 -0.6854
    2CHTO   O34  665   3.103   6.191   0.703  0.5998 -0.2751 -0.6254
    2CHTO   C49  666   2.959   6.288   0.721  0.2053 -0.2461 -0.2100
    2CHTO   H91  667   2.899   6.249   0.803 -0.4752  2.6182  0.6910
    2CHTO   C47  668   2.876   6.282   0.591  0.6374 -0.4872  0.4833
    2CHTO   H89  669   2.776   6.318   0.622  0.7836 -0.7314  1.2653
    2CHTO   O33  670   2.861   6.148   0.547 -0.2242 -0.3851  0.5425
    2CHTO   H70  671   2.768   6.139   0.543 -0.4108  1.4390  0.1242
    2CHTO   C45  672   2.930   6.382   0.468  0.1688 -0.6561 -0.0064
    2CHTO   H87  673   3.031   6.352   0.437  1.4162  1.5472  1.7949
    2CHTO    N8  674   2.847   6.393   0.347 -0.3400  0.2508 -0.1852
    2CHTO   H75  675   2.839   6.296   0.299 -0.2841 -1.0955  2.4212
    2CHTO   H76  676   2.743   6.416   0.367  0.2874  2.9009  0.2512
    2CHTO   C43  677   2.958   6.534   0.528 -0.1730 -0.1319  0.4362
    2CHTO   H85  678   3.022   6.574   0.449  0.1016  2.1690  1.7819
    2CHTO   O29  679   3.028   6.525   0.654 -0.8843  0.0506  0.0820
    2CHTO   C50  680   2.983   6.436   0.761  0.6231 -0.0449 -0.0363
    2CHTO   H92  681   3.059   6.448   0.840 -1.0274  0.8721  1.4493
    2CHTO   C54  682   2.854   6.490   0.833 -0.7559  0.3639 -0.2489
    2CHTO   O36  683   2.869   6.614   0.903  0.2704 -0.3206 -0.8122
    2CHTO   H72  684   2.781   6.643   0.910  0.4864  0.3091 -0.6934
    2CHTO   O27  685   2.841   6.609   0.540 -0.3287  0.1773 -0.0722
    2CHTO   C37  686   2.789   6.742   0.527  0.3161  0.0441  0.7995
    2CHTO   H79  687   2.791   6.771   0.421 -0.1853 -0.7025  0.5814
    2CHTO   C38  688   2.631   6.749   0.566  0.0391  0.7163 -0.3315
    2CHTO   H80  689   2.625   6.717   0.671  1.1682 -0.4272 -0.6002
    2CHTO   O31  690   2.555   6.652   0.486 -0.4030 -0.3458  0.1977
    2CHTO   H68  691   2.489   6.634   0.550 -0.0935  3.6155  1.8050
    2CHTO   C39  692   2.569   6.891   0.559 -1.1430 -0.0563 -0.4480
    2CHTO   H81  693   2.568   6.924   0.455  0.9548  0.8207 -0.2059
    2CHTO    N7  694   2.426   6.907   0.610 -0.3578  0.8714  0.0870
    2CHTO   H73  695   2.407   6.864   0.708 -2.2127 -0.5034 -0.8401
    2CHTO   H74  696   2.398   7.011   0.603  1.5375  1.4532  0.8735
    2CHTO   C40  697   2.668   6.989   0.625 -0.8766 -0.0032  0.1156
    2CHTO   H82  698   2.659   6.962   0.730 -2.6615 -1.2462 -0.3289
    2CHTO   O26  699   2.802   6.973   0.571  0.3159 -0.0999  0.2991
    2CHTO   C41  700   2.862   6.848   0.612  0.1835 -0.3803 -0.3951
    2CHTO   H83  701   2.846   6.837   0.720  0.7400 -0.7514 -0.3507
    2CHTO   C52  702   3.014   6.870   0.585 -0.4861 -0.3180  0.8385
    2CHTO   O35  703   3.079   6.993   0.664 -0.4501  0.1252 -0.0804
    2CHTO   H71  704   3.038   7.072   0.636 -0.1253 -0.4457 -2.2520
    2CHTO   O28  705   2.632   7.126   0.603 -0.1986  0.6450  0.2327
    2CHTO   C42  706   2.686   7.233   0.687  0.3311  0.3287 -0.8605
    2CHTO   H84  707   2.665   7.316   0.620  0.7382  0.5616 -0.7029
    2CHTO   C44  708   2.840   7.233   0.712 -0.3837 -0.3140 -0.4927
    2CHTO   H86  709   2.868   7.137   0.753 -1.5118 -0.0054  1.0471
    2CHTO   O32  710   2.904   7.247   0.579  0.1642  0.3348 -0.6366
    2CHTO   H69  711   2.987   7.290   0.580  0.4506 -0.1445 -2.4864
    2CHTO   C48  712   2.893   7.344   0.817  0.4593  0.0736 -0.0367
    2CHTO   H90  713   2.881   7.436   0.760 -1.7613  0.9087  1.6838
    2CHTO    N9  714   3.041   7.339   0.842 -0.4907  0.7340  0.0888
    2CHTO   H77  715   3.058   7.232   0.846 -1.4339  0.5947  0.4112
    2CHTO   H78  716   3.076   7.385   0.933 -0.5231  1.5201 -0.2915
    2CHTO   C51  717   2.817   7.335   0.952  0.8572 -0.2330 -0.2421
    2CHTO   H93  718   2.839   7.237   0.994 -0.9596 -0.4367  0.2484
    2CHTO   O30  719   2.668   7.348   0.923  0.1116 -0.4787  0.3836
    2CHTO   C46  720   2.600   7.249   0.819 -0.0613  0.4581 -0.9670
    2CHTO   H88  721   2.589   7.151   0.866  1.1395  1.3885  1.3232
    2CHTO   C53  722   2.454   7.297   0.779 -0.3303 -0.3889 -0.1013
    2CHTO   O72  723   2.357   7.274   0.885 -0.2073 -0.3761 -0.3070
    2CHTO  H199  724   2.271   7.276   0.849 -0.1452  1.2802 -0.3812
    2CHTO   O22  725   2.854   7.436   1.049  0.2050  0.1062 -0.1025
    2CHTO   C31  726   2.819   7.418   1.189 -0.4229  0.2793  0.5460
    2CHTO   H59  727   2.857   7.511   1.235 -1.4581  0.3331  1.3140
    2CHTO   C29  728   2.674   7.394   1.228  0.0757  0.6091  0.5974
    2CHTO   H57  729   2.650   7.298   1.180 -1.7456  2.1526 -1.7095
    2CHTO   O21  730   2.606   7.501   1.163  0.2569 -0.4991 -0.5916
    2CHTO   H37  731   2.526   7.461   1.135  0.4302 -0.9650 -0.4089
    2CHTO   C27  732   2.656   7.385   1.384  0.3509 -0.1439 -0.1839
    2CHTO   H55  733   2.660   7.486   1.426  1.4719 -0.2903  0.0734
    2CHTO    N5  734   2.516   7.329   1.420 -0.6025  0.3244  0.8535
    2CHTO   H43  735   2.442   7.381   1.361  1.0706  3.3770  1.3337
    2CHTO   H44  736   2.509   7.221   1.415 -1.0654  0.2994  1.9418
    2CHTO   C25  737   2.767   7.301   1.449 -0.0627 -0.3838 -0.1213
    2CHTO   H53  738   2.735   7.195   1.449 -0.4849 -0.2570  0.4577
    2CHTO   O17  739   2.901   7.316   1.396  0.1987  0.8574 -0.2105
    2CHTO   C32  740   2.908   7.306   1.255  0.0465  0.2534  0.0921
    2CHTO   H60  741   2.870   7.210   1.219 -2.1315  1.3972 -0.7906
    2CHTO   C36  742   3.057   7.312   1.219  0.0286 -0.5621 -0.0957
    2CHTO   O25  743   3.116   7.440   1.246 -0.2836  0.3188  0.0409
    2CHTO   H40  744   3.209   7.433   1.236 -0.5605 -1.4688 -1.6415
    2CHTO   O15  745   2.779   7.341   1.594  0.5764  0.3258  0.8415
    2CHTO   C19  746   2.807   7.309   1.728 -0.0230 -0.1460 -0.1634
    2CHTO   H47  747   2.768   7.403   1.769  0.5958 -0.1755  0.5083
    2CHTO   C20  748   2.732   7.182   1.787  0.5814  0.1830 -0.2731
    2CHTO   H48  749   2.756   7.091   1.729 -0.4254 -0.4317  0.2517
    2CHTO   O19  750   2.592   7.188   1.770  0.9049  0.2557  0.6847
    2CHTO   H35  751   2.545   7.134   1.831 -0.3394 -2.5558 -2.5851
    2CHTO   C21  752   2.779   7.152   1.937 -0.0294 -0.2146 -0.5929
    2CHTO   H49  753   2.760   7.239   2.001 -0.9723  0.0377 -1.2115
    2CHTO    N4  754   2.722   7.025   1.993 -0.3790 -0.4193 -0.2815
    2CHTO   H41  755   2.631   7.041   2.048  0.7990  1.4933  1.1887
    2CHTO   H42  756   2.723   6.932   1.937  0.9389 -0.2417 -0.5859
    2CHTO   C22  757   2.931   7.147   1.949 -0.0451  0.2912 -0.0167
    2CHTO   H50  758   2.959   7.063   1.885 -0.3537  0.4949 -0.4166
    2CHTO   O14  759   2.995   7.271   1.899 -0.1956  0.9383 -1.1325
    2CHTO   C23  760   2.963   7.292   1.761 -0.3461  0.0882  0.2571
    2CHTO   H51  761   3.006   7.207   1.705 -2.8093 -0.2069 -1.2416
    2CHTO   C34  762   3.031   7.420   1.703  0.0672  0.0554 -0.7912
    2CHTO   O23  763   3.174   7.403   1.699  0.0637 -0.4184  0.1372
    2CHTO   H38  764   3.215   7.411   1.783 -0.3433 -1.9765  0.4911
    2CHTO   O16  765   2.985   7.112   2.079 -0.5065  0.4627  0.2032
    2CHTO   C24  766   2.994   7.248   2.189 -0.1157  0.7729  0.4975
    2CHTO   H52  767   2.960   7.340   2.143 -1.0095  0.3095  0.2180
    2CHTO   C26  768   3.143   7.258   2.232 -0.0562 -0.0148 -0.0219
    2CHTO   H54  769   3.180   7.157   2.258 -0.3293 -0.6942 -2.1446
    2CHTO   O20  770   3.219   7.286   2.116  0.4133  0.2318  0.2597
    2CHTO   H36  771   3.181   7.350   2.058  0.1370  1.3361  1.6375
    2CHTO   C30  772   3.169   7.347   2.350  0.0686 -0.1856 -0.9893
    2CHTO   H58  773   3.158   7.452   2.318 -1.6730  0.2837  0.9844
    2CHTO    N6  774   3.304   7.322   2.400  0.0607 -0.0293 -0.0346
    2CHTO   H45  775   3.307   7.224   2.444  1.4202 -0.1245 -0.3148
    2CHTO   H46  776   3.331   7.394   2.476 -1.0672  0.8335 -0.4300
    2CHTO   C33  777   3.067   7.320   2.468  0.1413  0.3723  0.5513
    2CHTO   H61  778   3.068   7.223   2.520  1.4380  0.8694  1.4792
    2CHTO   O18  779   2.940   7.331   2.405  0.3151  0.4768 -0.4349
    2CHTO   C28  780   2.913   7.221   2.320 -0.9126 -0.2839  0.8047
    2CHTO   H56  781   2.946   7.126   2.362  3.0332  0.4171 -0.5679
    2CHTO   C35  782   2.765   7.221   2.302 -0.6049  0.4650  0.0924
    2CHTO   O24  783   2.699   7.213   2.429 -0.2164 -0.3113 -0.5872
    2CHTO   H39  784   2.703   7.127   2.466  0.6676  1.1633  3.0074
    2CHTO    O9  785   3.081   7.413   2.575  0.2100  0.1694 -0.1813
    2CHTO   C13  786   3.048   7.347   2.713  0.3493 -0.2653 -0.5205
    2CHTO   H26  787   3.098   7.248   2.709  1.8433  0.4242  0.6137
    2CHTO   C11  788   2.895   7.335   2.747 -0.0209  0.0756 -0.1392
    2CHTO   H24  789   2.841   7.250   2.701  0.3790  0.0120 -0.4968
    2CHTO    O8  790   2.822   7.459   2.709 -0.5533  0.0648  0.1043
    2CHTO    H3  791   2.737   7.444   2.672 -0.6729  0.3848  0.2453
    2CHTO    C9  792   2.883   7.313   2.900 -0.3418  0.1339 -0.8627
    2CHTO   H22  793   2.949   7.227   2.919 -0.0752  0.2001 -1.4760
    2CHTO    N2  794   2.744   7.271   2.954 -0.0185  0.2863  0.5108
    2CHTO   H10  795   2.674   7.350   2.934 -0.1765 -0.1057 -0.5399
    2CHTO   H11  796   2.711   7.178   2.908 -0.3833  0.6692 -0.0062
    2CHTO    C7  797   2.930   7.449   2.969 -0.8746 -0.0220 -0.0418
    2CHTO   H20  798   2.955   7.415   3.072  2.1131  0.3263 -0.6013
    2CHTO    O4  799   3.047   7.502   2.906  0.3822 -0.5081 -0.5852
    2CHTO   C14  800   3.131   7.424   2.829  0.6230 -0.1584 -0.0893
    2CHTO   H27  801   3.178   7.348   2.894  2.0791  1.0925  0.3343
    2CHTO   C18  802   3.243   7.518   2.777 -0.1293  0.2739  0.1449
    2CHTO   O13  803   3.352   7.456   2.699  0.1388 -0.3136  0.1702
    2CHTO    H7  804   3.432   7.503   2.709  1.0244 -1.8764  0.5423
    2CHTO    O2  805   2.810   7.566   2.974  1.2510  0.7122 -0.5064
    2CHTO    C1  806   2.827   7.664   3.073 -0.1285 -0.3577 -0.1611
    2CHTO   H14  807   2.765   7.755   3.060 -0.1367 -0.2730  0.4303
    2CHTO    C2  808   2.979   7.713   3.114 -0.1306 -0.1999  0.3258
    2CHTO   H15  809   3.033   7.625   3.150  0.3403 -0.1807 -0.3301
    2CHTO    O6  810   3.033   7.773   2.989 -0.0932  0.0132  0.0055
    2CHTO    H1  811   3.042   7.709   2.922  1.1396  0.1950 -0.0124
    2CHTO    C3  812   2.978   7.816   3.240  1.1200  0.4925  0.0104
    2CHTO   H16  813   2.909   7.894   3.204  0.7176 -0.0560 -0.4046
    2CHTO    N1  814   3.113   7.872   3.274 -0.3773 -0.4746  0.7992
    2CHTO    H8  815   3.169   7.799   3.331 -1.0666 -1.1512  0.6139
    2CHTO    H9  816   3.160   7.901   3.182 -0.6120  0.0472  0.8464
    2CHTO    C4  817   2.910   7.748   3.359  0.5391 -0.1405  0.0009
    2CHTO   H17  818   2.968   7.661   3.390  1.8175  0.0523 -1.7951
    2CHTO    O1  819   2.774   7.709   3.317  0.2723  0.1597  0.0053
    2CHTO    C5  820   2.762   7.601   3.213  0.1850 -0.6546  0.2343
    2CHTO   H18  821   2.806   7.503   3.230 -1.0058 -1.0522  1.0812
    2CHTO   C16  822   2.614   7.586   3.201 -0.0816 -0.6081 -0.2694
    2CHTO   O11  823   2.572   7.461   3.142  0.2993 -0.5768  0.0328
    2CHTO    H5  824   2.483   7.435   3.162 -0.2819 -0.7615 -2.5935
    2CHTO    O3  825   2.883   7.827   3.472 -0.1248 -1.0127 -0.0847
    2CHTO    C6  826   2.909   7.756   3.603 -0.0205 -0.4318 -0.4431
    2CHTO   H19  827   2.902   7.648   3.592  0.2118 -0.5629  0.7093
    2CHTO    C8  828   3.047   7.797   3.660 -1.0200 -0.0904  0.4377
    2CHTO   H21  829   3.054   7.906   3.662  0.0625 -0.1096 -1.3164
    2CHTO    O7  830   3.145   7.739   3.570 -0.3323 -0.1445 -0.4011
    2CHTO    H2  831   3.149   7.771   3.481  0.0701  1.1974  0.0799
    2CHTO   C12  832   3.065   7.745   3.811 -0.2508 -0.4716  0.0075
    2CHTO   H25  833   3.089   7.637   3.810 -2.2320 -0.9348 -3.1042
    2CHTO    N3  834   3.189   7.801   3.879  0.1063  0.9939  0.2579
    2CHTO   H12  835   3.242   7.740   3.950  0.5717 -0.4000 -1.2472
    2CHTO   H13  836   3.170   7.898   3.922  0.8803  1.7095 -0.9942
    2CHTO   C15  837   2.931   7.778   3.897  0.0019 -0.8357 -0.2592
    2CHTO   H28  838   2.915   7.885   3.903  1.0526 -0.5620 -2.2476
    2CHTO   O10  839   2.930   7.712   4.030  0.4114  0.0643  0.6151
    2CHTO    H4  840   2.869   7.739   4.096 -0.3095  0.6959 -0.2997
    2CHTO    O5  841   2.819   7.732   3.827  0.2967  0.1241  0.2923
    2CHTO   C10  842   2.788   7.799   3.697 -0.7668  0.7966  0.6125
    2CHTO   H23  843   2.779   7.907   3.706 -1.6923  0.6866  1.0921
    2CHTO   C17  844   2.649   7.742   3.656  0.1383 -0.3554  0.7701
    2CHTO   O12  845   2.608   7.798   3.529 -0.0196 -0.8595  0.2827
    2CHTO    H6  846   2.655   7.875   3.503 -0.7826 -0.6358 -0.4628
    3CHTO  H203  847   6.728   2.540   2.076  0.4665 -1.1030  1.2506
    3CHTO   O82  848   6.679   2.477   2.027 -0.4207  0.3620  0.1998
    3CHTO  C123  849   6.754   2.357   2.020 -0.1946  0.5508  0.2039
    3CHTO  H227  850   6.859   2.383   2.000  0.1472 -1.0223 -0.1026
    3CHTO   O77  851   6.744   2.302   2.158  0.3352 -0.0429 -0.0255
    3CHTO  C118  852   6.835   2.190   2.174  0.0783 -0.5402 -0.3079
    3CHTO  H222  853   6.932   2.221   2.133  0.6912 -1.0453  0.7582
    3CHTO  C125  854   6.852   2.162   2.337  0.1597  0.2018  0.2953
    3CHTO   O84  855   6.720   2.136   2.396  0.0691  0.6917 -0.1775
    3CHTO  H205  856   6.725   2.117   2.487  2.0086  0.0641 -0.3791
    3CHTO  C114  857   6.774   2.072   2.097 -0.4236 -0.1403  0.0406
    3CHTO  H218  858   6.672   2.060   2.133 -0.9212  2.0809 -0.5429
    3CHTO  C116  859   6.756   2.104   1.945 -0.3075 -0.0790  0.4766
    3CHTO  H220  860   6.856   2.094   1.898 -0.8393  0.4325 -0.7906
    3CHTO   O79  861   6.686   1.999   1.878 -0.4419 -0.5416  0.1571
    3CHTO  H201  862   6.672   2.028   1.790 -0.8782 -1.4048 -0.0611
    3CHTO  C120  863   6.687   2.245   1.919  0.3553  0.0532 -0.6480
    3CHTO  H224  864   6.580   2.236   1.947  0.3096  0.4320 -0.7005
    3CHTO   N21  865   6.689   2.281   1.776  0.1010 -0.2219 -0.1478
    3CHTO  H211  866   6.594   2.273   1.725 -0.0586 -1.9679  0.3784
    3CHTO  H212  867   6.775   2.234   1.730  1.7624  0.7984  1.7781
    3CHTO   O75  868   6.851   1.956   2.129  0.1397 -0.0007  0.1540
    3CHTO  C112  869   6.773   1.823   2.173  0.0207  0.2299  0.2181
    3CHTO  H216  870   6.711   1.776   2.095  2.1565 -3.8113  0.8069
    3CHTO   O73  871   6.692   1.862   2.284  0.0348 -0.5914 -0.1920
    3CHTO  C113  872   6.606   1.757   2.332 -0.0414 -0.1306 -0.0592
    3CHTO  H217  873   6.528   1.726   2.259  0.3080 -0.6110 -0.2305
    3CHTO  C124  874   6.530   1.808   2.457 -0.3374 -0.4659 -0.4851
    3CHTO   O83  875   6.428   1.730   2.513  0.4391 -0.2619 -0.3257
    3CHTO  H204  876   6.343   1.746   2.476  1.2164 -0.4033 -2.2843
    3CHTO  C109  877   6.683   1.621   2.365  0.0410 -0.5337 -0.4535
    3CHTO  H213  878   6.734   1.633   2.462 -2.3007 -0.0449  0.7630
    3CHTO  C110  879   6.790   1.586   2.253 -0.6778  0.2276 -0.6056
    3CHTO  H214  880   6.738   1.558   2.161 -2.1795  1.3072 -0.0893
    3CHTO   O78  881   6.864   1.469   2.290 -0.5195  0.4339 -0.2844
    3CHTO  H200  882   6.890   1.476   2.380 -0.4026 -2.3079 -0.0585
    3CHTO  C111  883   6.874   1.712   2.220 -0.0338  0.4659 -0.1952
    3CHTO  H215  884   6.928   1.744   2.310 -0.0955 -0.0565  0.0294
    3CHTO   N19  885   6.975   1.674   2.112 -0.7044  0.3936 -0.1072
    3CHTO  H207  886   7.041   1.590   2.127 -1.7897 -0.0484  2.5139
    3CHTO  H208  887   6.927   1.660   2.016  2.0903 -1.5342 -1.3024
    3CHTO   O74  888   6.589   1.511   2.372 -0.0968  0.5275 -0.2204
    3CHTO  C115  889   6.593   1.417   2.510 -0.8891  0.1242  0.0821
    3CHTO  H219  890   6.672   1.450   2.578 -0.6170  1.3548 -0.8137
    3CHTO   O76  891   6.460   1.417   2.600  0.9803 -0.2844 -0.2217
    3CHTO  C122  892   6.344   1.395   2.522  0.3447  0.4416  0.6500
    3CHTO  H226  893   6.325   1.492   2.475 -3.2167 -1.0906 -1.3280
    3CHTO  C126  894   6.220   1.360   2.610 -0.1858 -0.3099  0.5399
    3CHTO   O85  895   6.186   1.474   2.694 -0.1492  0.5113 -0.2168
    3CHTO  H206  896   6.110   1.523   2.668 -0.5673 -0.6641 -1.2909
    3CHTO  C121  897   6.365   1.272   2.419  0.0375  0.2908 -0.2804
    3CHTO  H225  898   6.276   1.207   2.421  0.0447  0.2381 -1.2119
    3CHTO   O81  899   6.377   1.331   2.291 -0.6606  0.4061  0.1788
    3CHTO  H202  900   6.372   1.258   2.232  0.8394  1.5239 -1.3845
    3CHTO  C119  901   6.486   1.183   2.459  0.8651  0.2095 -0.3273
    3CHTO  H223  902   6.453   1.144   2.556  0.6981 -2.0624 -1.2691
    3CHTO  C117  903   6.620   1.272   2.464 -0.6582 -0.2037  0.4021
    3CHTO  H221  904   6.655   1.292   2.363  1.9116  0.2321  1.3402
    3CHTO   N20  905   6.737   1.210   2.535  0.4331 -0.1450  0.6630
    3CHTO  H209  906   6.706   1.186   2.635  0.1756 -2.1389  0.1337
    3CHTO  H210  907   6.822   1.275   2.530  1.0700 -0.9407  1.0820
    3CHTO   O80  908   6.500   1.035   2.372 -0.0978 -0.3736 -0.3257
    3CHTO  C103  909   6.409   0.905   2.438 -0.1718  0.6066 -0.1549
    3CHTO  H190  910   6.427   0.894   2.545 -0.7523 -0.1383 -0.1236
    3CHTO  C101  911   6.253   0.896   2.408  0.0036 -0.3028  0.1119
    3CHTO  H188  912   6.238   0.894   2.300  0.6325 -0.4256  0.0255
    3CHTO   O68  913   6.172   1.017   2.498  0.0699 -0.4193  0.3174
    3CHTO  H168  914   6.088   1.044   2.465  1.1121  1.4211 -0.9566
    3CHTO   C99  915   6.201   0.757   2.465  0.0548 -0.2489 -0.0798
    3CHTO  H186  916   6.230   0.755   2.572 -0.2511 -0.8536 -0.0071
    3CHTO   N17  917   6.052   0.731   2.449 -0.6250 -0.1939  0.2673
    3CHTO  H174  918   6.031   0.739   2.343  1.6841  0.5758 -0.1495
    3CHTO  H175  919   5.999   0.808   2.504  0.3879 -1.4783  3.1246
    3CHTO   C97  920   6.286   0.644   2.396  0.2925  0.3082  0.0052
    3CHTO  H184  921   6.263   0.669   2.291  0.9204 -0.5008 -0.3332
    3CHTO   O64  922   6.425   0.662   2.427  0.1767 -0.0964 -0.2744
    3CHTO  C104  923   6.483   0.779   2.376  0.5178  0.2049  0.0511
    3CHTO  H191  924   6.478   0.781   2.267 -1.8856 -0.3486  0.1268
    3CHTO  C108  925   6.636   0.778   2.407  0.4547 -0.0761  0.4458
    3CHTO   O71  926   6.647   0.760   2.549  0.4769 -0.0094 -0.6026
    3CHTO  H171  927   6.597   0.689   2.582 -2.4539  0.9523 -2.7955
    3CHTO   O62  928   6.260   0.505   2.431 -0.4144 -0.0885  0.1202
    3CHTO   C91  929   6.271   0.397   2.340 -0.2807 -0.5465  0.1956
    3CHTO  H178  930   6.354   0.430   2.276  0.9564 -1.2266  1.4104
    3CHTO   C92  931   6.152   0.380   2.243 -0.3253  0.3989 -0.1261
    3CHTO  H179  932   6.060   0.365   2.301 -0.7924  1.0837 -0.6851
    3CHTO   O66  933   6.123   0.506   2.177 -0.3141 -0.1395 -0.1927
    3CHTO  H166  934   6.170   0.578   2.215  0.3670  0.9876 -3.0436
    3CHTO   C93  935   6.170   0.257   2.141 -0.4025 -0.4788  0.9631
    3CHTO  H180  936   6.238   0.294   2.063 -1.1369  0.2103  0.6468
    3CHTO   N16  937   6.046   0.233   2.072  0.7457  0.1932 -0.5568
    3CHTO  H172  938   6.009   0.326   2.031 -0.4903 -0.2064 -0.3556
    3CHTO  H173  939   6.062   0.160   1.994  0.3396 -0.8420  0.3244
    3CHTO   C94  940   6.236   0.133   2.211 -0.4468  0.1371 -0.0521
    3CHTO  H181  941   6.166   0.071   2.267  0.0503  0.1340  0.5748
    3CHTO   O61  942   6.345   0.172   2.293 -0.8383 -0.1064 -0.4119
    3CHTO   C95  943   6.310   0.255   2.401  0.1169  0.4381 -0.2823
    3CHTO  H182  944   6.220   0.220   2.450 -0.2234  0.3814 -0.9366
    3CHTO  C106  945   6.424   0.246   2.504 -0.0094 -0.3202 -1.2746
    3CHTO   O69  946   6.419   0.123   2.571  1.0755 -0.0815  0.0800
    3CHTO  H169  947   6.334   0.124   2.611  0.3661 -1.8116 -1.3080
    3CHTO   O63  948   6.314   0.052   2.110  0.4445 -0.2156 -0.2971
    3CHTO   C96  949   6.270  -0.106   2.066  0.3385 -0.0459  0.3186
    3CHTO  H183  950   6.348  -0.157   2.009 -0.3187  0.6718 -1.2456
    3CHTO   C98  951   6.139  -0.129   1.980 -0.9329 -0.0612  0.3025
    3CHTO  H185  952   6.050  -0.086   2.028 -0.6862  0.5931  0.1792
    3CHTO   O67  953   6.157  -0.043   1.866 -0.3062  0.4361  0.4899
    3CHTO  H167  954   6.146   0.047   1.892 -0.4800  0.2136  1.2200
    3CHTO  C102  955   6.116  -0.281   1.933 -0.2706  0.0290 -0.6468
    3CHTO  H189  956   6.199  -0.305   1.866 -0.2873 -1.1024 -0.2756
    3CHTO   N18  957   5.994  -0.305   1.853 -0.3673 -0.0653 -0.0836
    3CHTO  H176  958   6.017  -0.384   1.783  1.4004  0.1389  0.2345
    3CHTO  H177  959   5.986  -0.219   1.788 -0.2901 -0.2752 -0.3664
    3CHTO  C105  960   6.140  -0.370   2.063 -0.4521 -0.1261 -0.1030
    3CHTO  H192  961   6.048  -0.369   2.121 -0.7291 -0.5871 -0.5315
    3CHTO   O65  962   6.240  -0.331   2.162 -0.3564 -0.2481 -0.0474
    3CHTO  C100  963   6.256  -0.190   2.193 -0.0596  0.4764  0.3377
    3CHTO  H187  964   6.171  -0.173   2.261  0.5385 -1.1207  1.5188
    3CHTO  C107  965   6.380  -0.171   2.290 -0.2156 -0.0721  0.0465
    3CHTO   O70  966   6.381  -0.271   2.388  0.0042 -0.0989 -0.0296
    3CHTO  H170  967   6.374  -0.357   2.351 -4.0212  0.7937 -1.6529
    3CHTO   O57  968   6.182  -0.526   2.009  0.0738 -0.1866  0.1996
    3CHTO   C85  969   6.161  -0.643   2.082  1.0225  0.1782  0.1540
    3CHTO  H157  970   6.208  -0.719   2.016  1.4308  1.0622 -0.5783
    3CHTO   C83  971   6.007  -0.687   2.093 -0.4889 -0.2689 -0.8691
    3CHTO  H155  972   5.967  -0.715   1.995 -1.9885 -1.8636  0.1642
    3CHTO   O56  973   5.929  -0.583   2.136  0.4200 -0.7859  0.2061
    3CHTO  H135  974   5.845  -0.615   2.162 -1.3727  1.4934 -2.5451
    3CHTO   C81  975   6.001  -0.815   2.180  0.1767  0.4457  0.0609
    3CHTO  H153  976   6.069  -0.890   2.139 -0.1894  0.9384 -1.4756
    3CHTO   N14  977   5.870  -0.878   2.188  0.6731 -0.0811  0.3587
    3CHTO  H141  978   5.863  -0.981   2.158  2.4608 -0.0644 -0.1376
    3CHTO  H142  979   5.801  -0.819   2.130  0.1684  0.7824  1.7968
    3CHTO   C79  980   6.055  -0.791   2.320 -0.1761 -0.1251 -0.5777
    3CHTO  H151  981   6.052  -0.886   2.374  2.5327 -0.0339 -0.2173
    3CHTO   O52  982   6.196  -0.758   2.308  0.3687  0.0975  0.5760
    3CHTO   C86  983   6.225  -0.642   2.224 -0.5639  0.2809  0.7385
    3CHTO  H158  984   6.186  -0.555   2.282  0.3684  1.9118 -1.0270
    3CHTO   C90  985   6.375  -0.630   2.222 -0.0624 -0.1768 -0.4604
    3CHTO   O60  986   6.440  -0.585   2.339 -0.5948  0.0422 -0.0616
    3CHTO  H138  987   6.444  -0.655   2.402 -1.6934 -0.0337 -0.0656
    3CHTO   O50  988   5.974  -0.693   2.393 -0.0316 -0.1680  0.3885
    3CHTO   C73  989   5.949  -0.641   2.527  0.0248 -0.8805  0.5783
    3CHTO  H145  990   6.035  -0.657   2.595 -0.0254 -1.8325  0.4231
    3CHTO   C74  991   5.826  -0.713   2.587 -0.3769 -0.5459 -0.0224
    3CHTO  H146  992   5.844  -0.822   2.589 -0.6560 -0.6452 -2.0776
    3CHTO   O54  993   5.826  -0.666   2.724 -1.3056 -0.2843 -0.3562
    3CHTO  H133  994   5.765  -0.596   2.736 -1.1664  0.0130 -1.3627
    3CHTO   C75  995   5.693  -0.677   2.510 -0.1446  0.1041 -0.0231
    3CHTO  H147  996   5.704  -0.721   2.410 -2.1011 -1.0588  0.2690
    3CHTO   N13  997   5.568  -0.729   2.563  0.0198 -0.6975  0.1900
    3CHTO  H139  998   5.484  -0.691   2.507  0.7770 -1.2648 -1.3535
    3CHTO  H140  999   5.561  -0.697   2.666  1.0275  0.2751 -0.0409
    3CHTO   C76 1000   5.679  -0.519   2.485  0.8644 -0.0025 -0.0261
    3CHTO  H148 1001   5.651  -0.482   2.583  1.7216  1.7390 -0.4192
    3CHTO   O49 1002   5.801  -0.459   2.437 -0.5310  0.7512  0.1390
    3CHTO   C77 1003   5.924  -0.489   2.508 -0.3068  0.0894  0.0513
    3CHTO  H149 1004   5.927  -0.445   2.607 -0.6848 -1.5257  0.8040
    3CHTO   C88 1005   6.034  -0.419   2.434 -0.2865  0.4049 -0.5231
    3CHTO   O58 1006   6.038  -0.298   2.465 -0.1413 -0.3708 -0.2089
    3CHTO  H136 1007   6.107  -0.258   2.415 -1.0668  1.0877 -0.3467
    3CHTO   O51 1008   5.557  -0.483   2.358  0.5496 -0.6053  0.0907
    3CHTO   C78 1009   5.540  -0.311   2.351 -0.3802  0.4302 -0.7216
    3CHTO  H150 1010   5.627  -0.263   2.401 -0.2930 -0.9013  0.4122
    3CHTO   C80 1011   5.406  -0.262   2.417  0.5843 -1.1662 -0.3104
    3CHTO  H152 1012   5.327  -0.337   2.395 -0.3507 -0.5603  0.9451
    3CHTO   O55 1013   5.405  -0.272   2.561  0.0671  0.2792  0.2165
    3CHTO  H134 1014   5.440  -0.351   2.596 -0.5939 -0.5566 -0.9839
    3CHTO   C84 1015   5.363  -0.113   2.370 -0.0287  0.6635 -0.1504
    3CHTO  H156 1016   5.401  -0.046   2.447 -2.3328  1.2124  0.5692
    3CHTO   N15 1017   5.213  -0.097   2.376  0.0404  0.3052 -0.3087
    3CHTO  H143 1018   5.164  -0.142   2.292  0.1744  2.3963 -1.5353
    3CHTO  H144 1019   5.170  -0.138   2.465 -0.4688 -1.8700 -1.5333
    3CHTO   C87 1020   5.412  -0.076   2.234  0.3233 -0.5699 -0.1774
    3CHTO  H159 1021   5.340  -0.122   2.166 -0.4016 -0.7292  0.6861
    3CHTO   O53 1022   5.521  -0.113   2.202  0.4661  0.4886 -0.1283
    3CHTO   C82 1023   5.544  -0.257   2.204  0.2054 -0.1035  0.1983
    3CHTO  H154 1024   5.476  -0.309   2.137 -0.8176 -2.4263  2.9097
    3CHTO   C89 1025   5.693  -0.287   2.150 -0.1814 -0.0998  0.3726
    3CHTO   O59 1026   5.749  -0.194   2.054  0.1634 -0.3029 -0.3102
    3CHTO  H137 1027   5.728  -0.210   1.964  1.7956  1.7796 -1.0945
    3CHTO   O45 1028   5.391   0.108   2.201  0.4105 -0.4138  0.7081
    3CHTO   C67 1029   5.499   0.188   2.241  0.5628  0.4499  0.2136
    3CHTO  H124 1030   5.567   0.124   2.297 -1.1810 -1.6986 -0.0389
    3CHTO   C65 1031   5.578   0.257   2.120 -0.4916  0.4190 -0.0923
    3CHTO  H122 1032   5.494   0.266   2.051  0.5409 -1.5328 -1.6563
    3CHTO   O44 1033   5.684   0.164   2.086  0.9957 -0.3155 -0.0155
    3CHTO  H102 1034   5.656   0.092   2.033  1.8543  0.7522 -2.0029
    3CHTO   C63 1035   5.640   0.400   2.155  0.0542 -0.2459 -0.3482
    3CHTO  H120 1036   5.565   0.478   2.138  1.5166  1.0297 -1.1321
    3CHTO   N11 1037   5.748   0.452   2.065  0.2930  0.5234 -0.3765
    3CHTO  H108 1038   5.838   0.400   2.090  1.2720  1.5220 -1.7799
    3CHTO  H109 1039   5.769   0.553   2.093  1.9880  0.2383 -0.5877
    3CHTO   C61 1040   5.675   0.406   2.312 -0.0131 -0.4088  0.2534
    3CHTO  H118 1041   5.691   0.514   2.329 -1.6714  0.1861 -1.6774
    3CHTO   O40 1042   5.560   0.370   2.391 -0.1714  0.2593  0.1815
    3CHTO   C68 1043   5.450   0.299   2.333  0.3917 -0.1587  0.0259
    3CHTO  H125 1044   5.395   0.371   2.269  1.2050  0.4970  0.0722
    3CHTO   C72 1045   5.345   0.261   2.447  0.5685 -0.5781  0.4207
    3CHTO   O48 1046   5.224   0.214   2.404  0.6491 -0.4622  0.5285
    3CHTO  H105 1047   5.169   0.205   2.480 -2.3596  2.8053 -1.1257
    3CHTO   O38 1048   5.785   0.316   2.326 -0.4111 -0.2118  0.5545
    3CHTO   C55 1049   5.820   0.268   2.456 -0.1632 -0.7578  0.2639
    3CHTO  H112 1050   5.726   0.246   2.509 -0.6734 -2.4858 -1.2840
    3CHTO   C56 1051   5.906   0.368   2.540 -0.2849  0.1842 -0.2246
    3CHTO  H113 1052   5.984   0.406   2.472 -1.6969  0.3260 -1.7836
    3CHTO   O42 1053   5.828   0.482   2.584  0.0040  0.6003 -0.5604
    3CHTO  H100 1054   5.816   0.474   2.677 -0.4863  1.7549 -0.5114
    3CHTO   C57 1055   5.975   0.300   2.668 -0.2160  0.0367  0.8127
    3CHTO  H114 1056   5.911   0.300   2.756  0.1981  0.1228  1.1168
    3CHTO   N10 1057   6.093   0.374   2.711  0.2345 -0.4939 -0.2592
    3CHTO  H106 1058   6.179   0.327   2.664 -0.0046 -0.5111 -0.6838
    3CHTO  H107 1059   6.102   0.376   2.818  1.5253 -3.7092 -0.2377
    3CHTO   C58 1060   6.008   0.152   2.647 -0.1859 -0.5872  0.1513
    3CHTO  H115 1061   6.104   0.137   2.594 -0.9360 -0.2427 -1.3181
    3CHTO   O37 1062   5.904   0.095   2.576 -0.0324  0.1724  0.2400
    3CHTO   C59 1063   5.900   0.137   2.440  0.5522  0.0249  0.5369
    3CHTO  H116 1064   5.997   0.162   2.398  0.4141 -0.6159 -0.1847
    3CHTO   C70 1065   5.840   0.030   2.350 -0.7520  0.3314  1.0236
    3CHTO   O46 1066   5.921  -0.078   2.313 -0.1589  0.4276  0.2802
    3CHTO  H103 1067   6.004  -0.050   2.281  0.0495  0.4910  0.8745
    3CHTO   O39 1068   5.994   0.063   2.780  0.2931  0.0076  0.0912
    3CHTO   C60 1069   6.058  -0.065   2.768  0.0928 -0.0397  0.2247
    3CHTO  H117 1070   6.024  -0.107   2.673 -3.5436  0.3555  1.2629
    3CHTO   C62 1071   6.217  -0.061   2.765 -1.0950 -0.2409 -0.0873
    3CHTO  H119 1072   6.253  -0.006   2.675  0.0627  1.1717  1.2170
    3CHTO   O43 1073   6.255   0.008   2.885  0.0581  0.5600 -0.4051
    3CHTO  H101 1074   6.243   0.101   2.875 -2.7302  0.0549 -2.4624
    3CHTO   C66 1075   6.283  -0.207   2.752  0.4168  0.6917 -0.0402
    3CHTO  H123 1076   6.239  -0.258   2.666 -0.5450  1.1169  0.1936
    3CHTO   N12 1077   6.426  -0.193   2.729 -0.6624 -0.0068 -0.5688
    3CHTO  H110 1078   6.469  -0.263   2.798 -0.7761 -0.1176 -0.6101
    3CHTO  H111 1079   6.443  -0.211   2.624 -1.0590  2.6733 -1.1344
    3CHTO   C69 1080   6.243  -0.277   2.884 -0.0800 -1.0664 -0.1543
    3CHTO  H126 1081   6.267  -0.215   2.972  0.3569 -2.0667  0.4338
    3CHTO   O41 1082   6.079  -0.291   2.888  0.1290  0.1775 -0.2602
    3CHTO   C64 1083   6.014  -0.160   2.884  0.5297 -0.4082 -0.1809
    3CHTO  H121 1084   6.031  -0.108   2.981 -0.1832  0.1195 -0.3364
    3CHTO   C71 1085   5.862  -0.188   2.859 -0.1536  0.3659  0.5834
    3CHTO   O47 1086   5.775  -0.102   2.935 -0.1476 -0.0167  0.0025
    3CHTO  H104 1087   5.712  -0.066   2.876 -0.2897  2.3126  1.4922
    3CHTO   O34 1088   6.314  -0.408   2.917 -0.1226  0.0850  0.3591
    3CHTO   C49 1089   6.401  -0.533   2.878 -0.0375 -0.1060  0.2077
    3CHTO   H91 1090   6.489  -0.492   2.828  0.1006  0.9887  1.3113
    3CHTO   C47 1091   6.309  -0.618   2.785  0.4559  0.1378  0.1655
    3CHTO   H89 1092   6.315  -0.556   2.693 -0.5368  0.2933  0.1979
    3CHTO   O33 1093   6.179  -0.626   2.832  0.4870 -0.0631 -0.1887
    3CHTO   H70 1094   6.142  -0.710   2.814 -0.3611  0.0293  1.0892
    3CHTO   C45 1095   6.377  -0.766   2.771 -0.8112  0.0526  0.3550
    3CHTO   H87 1096   6.339  -0.828   2.854  0.6727 -2.0360 -0.4694
    3CHTO    N8 1097   6.352  -0.834   2.642  0.5741 -0.2804  0.4665
    3CHTO   H75 1098   6.406  -0.787   2.561 -1.3169 -0.4555 -0.9404
    3CHTO   H76 1099   6.246  -0.823   2.620  0.7302  0.4591  0.0561
    3CHTO   C43 1100   6.536  -0.768   2.813 -0.2480  0.0944 -0.5112
    3CHTO   H85 1101   6.575  -0.869   2.799  3.0942  1.2076  0.3135
    3CHTO   O29 1102   6.536  -0.728   2.957  0.1211 -0.4217  0.4610
    3CHTO   C50 1103   6.458  -0.614   2.996  0.0181  0.3695 -0.1837
    3CHTO   H92 1104   6.375  -0.651   3.059  0.1184 -0.9408 -0.8137
    3CHTO   C54 1105   6.539  -0.533   3.101  0.4205 -0.3980 -1.2217
    3CHTO   O36 1106   6.676  -0.525   3.072 -0.0685 -0.4925  0.2475
    3CHTO   H72 1107   6.736  -0.525   3.144 -0.0858 -0.4274  0.2614
    3CHTO   O27 1108   6.616  -0.684   2.737 -0.1252  0.4627  0.1909
    3CHTO   C37 1109   6.728  -0.653   2.651 -0.3846 -0.0313  0.1098
    3CHTO   H79 1110   6.820  -0.689   2.699  1.1661  0.1052 -2.6362
    3CHTO   C38 1111   6.734  -0.721   2.517 -0.4020 -0.0060  0.4251
    3CHTO   H80 1112   6.631  -0.719   2.479  0.0039  1.9884 -0.6694
    3CHTO   O31 1113   6.792  -0.854   2.537  1.2070  0.1098  0.4059
    3CHTO   H68 1114   6.741  -0.913   2.590 -0.8469  2.3057  0.9576
    3CHTO   C39 1115   6.827  -0.648   2.407 -0.0631  0.6932 -1.0469
    3CHTO   H81 1116   6.933  -0.668   2.422  0.0648  2.7056  1.0275
    3CHTO    N7 1117   6.792  -0.702   2.266  0.5412 -0.1944 -0.1873
    3CHTO   H73 1118   6.839  -0.649   2.185  1.4181  0.3311  0.6657
    3CHTO   H74 1119   6.814  -0.808   2.262 -0.1681 -0.5522  3.5264
    3CHTO   C40 1120   6.798  -0.489   2.409  0.7341 -0.7396  0.2722
    3CHTO   H82 1121   6.700  -0.467   2.367 -0.3831 -0.5013  2.8720
    3CHTO   O26 1122   6.814  -0.435   2.540 -0.9369  0.6117  0.4521
    3CHTO   C41 1123   6.740  -0.498   2.649 -0.9094  0.3304  0.5177
    3CHTO   H83 1124   6.638  -0.459   2.638 -1.2223 -0.6209  0.0917
    3CHTO   C52 1125   6.795  -0.431   2.781  0.2436 -1.0723 -0.4114
    3CHTO   O35 1126   6.822  -0.278   2.771  0.1111 -0.1536  0.6395
    3CHTO   H71 1127   6.904  -0.265   2.727 -0.2742  1.5137  0.3714
    3CHTO   O28 1128   6.886  -0.421   2.317  0.0119 -0.2309  0.1079
    3CHTO   C42 1129   6.873  -0.273   2.289 -0.7922 -0.2314  0.1737
    3CHTO   H84 1130   6.964  -0.245   2.236 -1.0970 -0.8988 -0.7239
    3CHTO   C44 1131   6.868  -0.175   2.413  0.4666 -0.5895  0.0297
    3CHTO   H86 1132   6.784  -0.207   2.475  0.4883  1.8654  1.3911
    3CHTO   O32 1133   6.985  -0.195   2.491 -0.1084 -0.3803  0.2727
    3CHTO   H69 1134   6.984  -0.279   2.532  1.7200  0.1813  1.4903
    3CHTO   C48 1135   6.853  -0.018   2.380 -0.0966 -0.2596  0.3093
    3CHTO   H90 1136   6.948   0.022   2.343 -1.1842  2.1980  0.0876
    3CHTO    N9 1137   6.806   0.062   2.498  0.2351 -0.0384 -0.2446
    3CHTO   H77 1138   6.745   0.005   2.567 -0.5217  0.8552 -0.1644
    3CHTO   H78 1139   6.751   0.150   2.466 -0.5286 -0.5948 -0.4796
    3CHTO   C51 1140   6.762   0.004   2.247 -0.0732  0.5319 -0.2217
    3CHTO   H93 1141   6.656   0.014   2.269 -0.0025  0.3052  0.2364
    3CHTO   O30 1142   6.784  -0.098   2.153 -0.0883  0.4250  0.2746
    3CHTO   C46 1143   6.767  -0.241   2.191 -0.4815 -0.5806 -0.0609
    3CHTO   H88 1144   6.674  -0.247   2.247 -0.0138  1.9651  1.0431
    3CHTO   C53 1145   6.764  -0.321   2.063  0.2842 -0.8390 -0.4064
    3CHTO   O72 1146   6.642  -0.303   1.991 -0.1240 -0.1389  0.7294
    3CHTO  H199 1147   6.666  -0.297   1.901 -1.0173 -0.4516  0.4675
    3CHTO   O22 1148   6.800   0.128   2.179 -0.6852  0.9202  0.2650
    3CHTO   C31 1149   6.710   0.205   2.091  0.4088  0.4561  0.1342
    3CHTO   H59 1150   6.608   0.161   2.097 -0.8885  3.3177  0.1342
    3CHTO   C29 1151   6.699   0.348   2.140  0.2321 -0.0387 -0.1176
    3CHTO   H57 1152   6.802   0.386   2.141  0.9216 -1.7389 -1.5742
    3CHTO   O21 1153   6.646   0.352   2.274 -0.2568 -0.1948  0.1721
    3CHTO   H37 1154   6.598   0.432   2.279 -1.4625 -0.7568 -1.7509
    3CHTO   C27 1155   6.614   0.439   2.040 -0.3149 -0.4718  0.2673
    3CHTO   H55 1156   6.512   0.397   2.032 -0.8698  0.7567  0.7302
    3CHTO    N5 1157   6.610   0.580   2.099 -0.4861 -0.2865  0.0309
    3CHTO   H43 1158   6.516   0.626   2.073 -0.9711 -0.9228  0.6496
    3CHTO   H44 1159   6.704   0.634   2.089 -0.9888  0.6226  0.1328
    3CHTO   C25 1160   6.687   0.431   1.904 -0.3550 -0.7421  0.4478
    3CHTO   H53 1161   6.793   0.460   1.901  0.0405 -2.0680  1.2576
    3CHTO   O17 1162   6.684   0.290   1.859 -0.7851  0.0078  0.1377
    3CHTO   C32 1163   6.753   0.195   1.944 -0.2783 -0.0788  0.7090
    3CHTO   H60 1164   6.860   0.211   1.943 -0.2494 -0.2697  0.6755
    3CHTO   C36 1165   6.722   0.057   1.873  0.7504 -0.4280 -0.6194
    3CHTO   O25 1166   6.582   0.020   1.889 -0.4580 -0.8892 -0.4884
    3CHTO   H40 1167   6.559  -0.069   1.875  1.7794 -1.6498  0.4794
    3CHTO   O15 1168   6.620   0.517   1.806  0.2363 -0.3009 -0.0081
    3CHTO   C19 1169   6.517   0.504   1.702 -1.2146  0.1005 -0.0840
    3CHTO   H47 1170   6.557   0.429   1.631 -2.6005  1.0400 -1.8762
    3CHTO   C20 1171   6.381   0.441   1.758  0.3529 -0.1427  0.6461
    3CHTO   H48 1172   6.337   0.498   1.841 -0.5319  2.0317 -1.2599
    3CHTO   O19 1173   6.400   0.308   1.800  0.1494  0.1657 -0.4195
    3CHTO   H35 1174   6.323   0.255   1.798  0.1502  0.1797 -1.3982
    3CHTO   C21 1175   6.269   0.441   1.636  0.4210  0.8357 -0.1724
    3CHTO   H49 1176   6.305   0.370   1.562  0.4359 -0.7789  1.3466
    3CHTO    N4 1177   6.133   0.385   1.682 -0.3223  0.1340  0.0347
    3CHTO   H41 1178   6.112   0.403   1.786  1.5224 -0.9385  0.6017
    3CHTO   H42 1179   6.158   0.281   1.671 -0.5395 -0.0101  0.8840
    3CHTO   C22 1180   6.256   0.585   1.574  0.4275  0.6960 -0.0312
    3CHTO   H50 1181   6.231   0.652   1.657 -1.3768 -0.3122  0.2606
    3CHTO   O14 1182   6.387   0.611   1.530 -0.0741  0.3321  0.6282
    3CHTO   C23 1183   6.491   0.634   1.629 -0.4422 -0.5231  0.4055
    3CHTO   H51 1184   6.448   0.710   1.696 -2.4464 -1.4568  0.2097
    3CHTO   C34 1185   6.608   0.701   1.553 -0.4708 -0.4972 -0.0126
    3CHTO   O23 1186   6.708   0.733   1.650  0.1097  0.3856 -0.2366
    3CHTO   H38 1187   6.701   0.818   1.689  1.5184  0.3767  0.0593
    3CHTO   O16 1188   6.164   0.593   1.464  0.0237  0.2732 -0.2402
    3CHTO   C24 1189   6.160   0.772   1.415 -0.2918  0.4481 -0.2572
    3CHTO   H52 1190   6.252   0.824   1.442  0.1090  1.1650 -2.7975
    3CHTO   C26 1191   6.039   0.843   1.474  0.0908 -0.6503 -0.2147
    3CHTO   H54 1192   5.949   0.782   1.449 -1.9870  1.1531  2.4542
    3CHTO   O20 1193   6.057   0.848   1.614 -0.1787 -0.0127 -0.4567
    3CHTO   H36 1194   6.140   0.884   1.638  1.2324 -2.4502 -1.4598
    3CHTO   C30 1195   6.024   0.991   1.421  0.3285  0.4404 -0.5827
    3CHTO   H58 1196   6.104   1.064   1.439 -1.2599  1.9322  0.7339
    3CHTO    N6 1197   5.903   1.058   1.476  0.8210 -0.3575 -0.4296
    3CHTO   H45 1198   5.848   1.096   1.392 -0.7026 -0.3154  0.5632
    3CHTO   H46 1199   5.933   1.137   1.543 -1.6677 -1.1799  1.7180
    3CHTO   C33 1200   6.027   0.974   1.266 -0.1893  0.4562  0.0474
    3CHTO   H61 1201   5.938   0.923   1.226 -0.5259 -0.7222  2.2703
    3CHTO   O18 1202   6.141   0.903   1.215  0.0726  0.0270  0.3443
    3CHTO   C28 1203   6.152   0.771   1.264  0.4701  0.0280 -0.2588
    3CHTO   H56 1204   6.059   0.720   1.240 -0.3561 -1.3288  5.1747
    3CHTO   C35 1205   6.274   0.704   1.202 -0.1243  0.3745 -0.1676
    3CHTO   O24 1206   6.389   0.787   1.201 -0.8206 -0.0162 -0.1903
    3CHTO   H39 1207   6.363   0.859   1.146 -0.0407 -0.9442 -1.7982
    3CHTO    O9 1208   6.021   1.103   1.207  0.0268 -0.2464  0.0173
    3CHTO   C13 1209   6.162   1.173   1.159 -0.3995 -0.2051  0.8674
    3CHTO   H26 1210   6.221   1.094   1.107  0.6613  0.0823  1.6307
    3CHTO   C11 1211   6.244   1.236   1.279 -0.5817  0.1417 -0.1267
    3CHTO   H24 1212   6.286   1.145   1.324  0.5472  1.8477  2.4176
    3CHTO    O8 1213   6.149   1.290   1.366 -0.4968 -0.0999 -0.5812
    3CHTO    H3 1214   6.183   1.290   1.454 -0.8225 -0.9574 -0.4484
    3CHTO    C9 1215   6.355   1.338   1.238  0.0751  0.0055  0.3831
    3CHTO   H22 1216   6.415   1.280   1.166 -0.0973  1.5651 -1.0556
    3CHTO    N2 1217   6.447   1.372   1.351  0.0374  0.4024  0.5872
    3CHTO   H10 1218   6.438   1.297   1.429 -0.7804  0.4139  0.5056
    3CHTO   H11 1219   6.549   1.397   1.327  0.5868 -0.9192  1.4565
    3CHTO    C7 1220   6.296   1.448   1.140  0.1813 -0.1242  0.1465
    3CHTO   H20 1221   6.370   1.453   1.058  1.0372  0.1019  0.9324
    3CHTO    O4 1222   6.170   1.421   1.080  0.2603  0.2252  0.2126
    3CHTO   C14 1223   6.145   1.279   1.039  0.2442  0.5016  0.2109
    3CHTO   H27 1224   6.215   1.244   0.960  0.7451 -1.8051  1.6151
    3CHTO   C18 1225   6.005   1.266   0.982 -0.0639  0.3603  0.2043
    3CHTO   O13 1226   5.982   1.148   0.915  0.3076 -0.4061 -0.3138
    3CHTO    H7 1227   5.938   1.087   0.970  0.3009 -1.0325 -1.0020
    3CHTO    O2 1228   6.292   1.601   1.211 -0.4101  0.0550  0.5373
    3CHTO    C1 1229   6.315   1.702   1.112  0.2508  0.4622 -0.2747
    3CHTO   H14 1230   6.304   1.658   1.011  2.9235  0.1416 -0.4630
    3CHTO    C2 1231   6.458   1.765   1.128  0.1170 -0.1052  0.2793
    3CHTO   H15 1232   6.466   1.822   1.221  1.6968 -2.7400  1.8497
    3CHTO    O6 1233   6.549   1.657   1.121 -0.2105 -0.0376  0.5799
    3CHTO    H1 1234   6.520   1.594   1.058  1.1862  0.4341 -0.5450
    3CHTO    C3 1235   6.482   1.869   1.021  0.4412  0.0653  0.0413
    3CHTO   H16 1236   6.472   1.829   0.919  3.7851  0.8198 -0.6499
    3CHTO    N1 1237   6.620   1.927   1.023 -0.2517 -0.1754  0.1563
    3CHTO    H8 1238   6.686   1.850   0.987  0.0913  0.1602  0.0692
    3CHTO    H9 1239   6.648   1.961   1.122 -1.9383  3.3978 -0.5001
    3CHTO    C4 1240   6.379   1.985   1.042  0.1474 -0.7477  0.3684
    3CHTO   H17 1241   6.400   2.029   1.140  1.0726 -2.4219  0.9441
    3CHTO    O1 1242   6.244   1.925   1.040  0.3910 -0.1431 -0.4557
    3CHTO    C5 1243   6.216   1.818   1.131  0.0514  0.2615  0.0796
    3CHTO   H18 1244   6.238   1.856   1.231  0.5439  0.7773 -0.2204
    3CHTO   C16 1245   6.063   1.781   1.120  0.0565  0.4785 -0.3104
    3CHTO   O11 1246   6.030   1.683   1.221 -1.2098 -0.4007  0.8698
    3CHTO    H5 1247   5.940   1.659   1.229 -1.0316 -1.5622 -0.3518
    3CHTO    O3 1248   6.380   2.090   0.941  0.0873 -0.2089  0.1045
    3CHTO    C6 1249   6.317   2.214   0.987  0.0779  0.0312 -0.6296
    3CHTO   H19 1250   6.238   2.200   1.062  1.4532 -0.2629  0.7945
    3CHTO    C8 1251   6.426   2.307   1.050  0.2843 -0.3655 -0.3001
    3CHTO   H21 1252   6.505   2.322   0.977  1.1930 -1.6441  0.3909
    3CHTO    O7 1253   6.484   2.243   1.160  0.2261  0.1351 -0.6873
    3CHTO    H2 1254   6.574   2.223   1.144 -0.2222 -1.9181 -0.8598
    3CHTO   C12 1255   6.362   2.447   1.089 -0.2870 -0.2254 -0.6510
    3CHTO   H25 1256   6.286   2.422   1.166  0.5766 -0.3118  0.1830
    3CHTO    N3 1257   6.457   2.542   1.165 -1.1611  0.5092  0.6195
    3CHTO   H12 1258   6.426   2.567   1.265 -1.2202  1.1457  0.4458
    3CHTO   H13 1259   6.466   2.630   1.103  0.9233 -0.9481 -1.2430
    3CHTO   C15 1260   6.284   2.510   0.968 -0.4048 -0.0433 -0.2314
    3CHTO   H28 1261   6.351   2.558   0.897  1.2845 -1.1600  0.5932
    3CHTO   O10 1262   6.187   2.601   1.030 -0.0630 -0.4013 -0.1348
    3CHTO    H4 1263   6.168   2.676   0.976  0.7884  0.2839  0.5115
    3CHTO    O5 1264   6.197   2.414   0.906  0.1441  0.0090  0.5905
    3CHTO   C10 1265   6.242   2.286   0.868 -0.7676  0.2857  0.2086
    3CHTO   H23 1266   6.317   2.286   0.789 -1.2099  1.8685 -0.2117
    3CHTO   C17 1267   6.123   2.199   0.833 -0.0107 -0.3304 -0.6801
    3CHTO   O12 1268   6.083   2.206   0.700  0.1964  0.2994 -0.2716
    3CHTO    H6 1269   6.097   2.122   0.661 -2.2872 -0.4874  0.4096
    4CHTO  H203 1270   5.630   6.241   0.244  0.2417 -1.7341  2.0399
    4CHTO   O82 1271   5.544   6.267   0.273  0.1052  0.0109  0.1597
    4CHTO  C123 1272   5.532   6.410   0.290 -0.3295  1.1991  0.3054
    4CHTO  H227 1273   5.443   6.427   0.352 -1.2185  0.9556 -0.8818
    4CHTO   O77 1274   5.657   6.452   0.354  0.2913 -0.1229 -0.0668
    4CHTO  C118 1275   5.669   6.588   0.386  0.1606  0.7466  0.3936
    4CHTO  H222 1276   5.579   6.619   0.441  0.7826  0.2382  1.7339
    4CHTO  C125 1277   5.796   6.604   0.479  0.0198 -0.1295  0.2273
    4CHTO   O84 1278   5.800   6.717   0.566 -0.1590  0.1035  0.6244
    4CHTO  H205 1279   5.750   6.689   0.640  0.7919 -2.5266  0.3069
    4CHTO  C114 1280   5.673   6.668   0.253 -0.0257  0.3867  0.0034
    4CHTO  H218 1281   5.768   6.644   0.206  0.1593 -3.9086  2.3128
    4CHTO  C116 1282   5.546   6.638   0.165 -0.4096 -0.5256 -0.4671
    4CHTO  H220 1283   5.454   6.684   0.208 -0.9223 -1.8977 -0.0538
    4CHTO   O79 1284   5.567   6.696   0.035 -0.5866 -0.4826 -0.5782
    4CHTO  H201 1285   5.486   6.736   0.009 -0.9301 -0.6127  0.2791
    4CHTO  C120 1286   5.516   6.484   0.150 -0.6238  0.2384 -0.1550
    4CHTO  H224 1287   5.594   6.453   0.078  0.1047 -2.9109  1.9249
    4CHTO   N21 1288   5.378   6.456   0.097  0.1013  0.2499  0.5414
    4CHTO  H211 1289   5.376   6.459  -0.011 -0.4336  1.8466  0.5808
    4CHTO  H212 1290   5.343   6.358   0.128  1.3122 -1.0351 -2.0026
    4CHTO   O75 1291   5.679   6.807   0.301  0.3043 -0.3182  0.1436
    4CHTO  C112 1292   5.776   6.901   0.225  0.4870 -0.4634 -0.0343
    4CHTO  H216 1293   5.777   6.881   0.116 -2.9755  1.8223 -0.5744
    4CHTO   O73 1294   5.899   6.882   0.287  0.2416  0.4230 -0.0879
    4CHTO  C113 1295   6.005   6.963   0.225 -0.4511  0.4686 -0.4880
    4CHTO  H217 1296   6.005   6.938   0.117  0.5399 -2.2554  0.1083
    4CHTO  C124 1297   6.145   6.919   0.271  0.6375 -0.1063  0.4115
    4CHTO   O83 1298   6.161   6.885   0.412  0.1173  0.1611  0.1292
    4CHTO  H204 1299   6.186   6.964   0.456 -0.5302  0.4791 -0.0555
    4CHTO  C109 1300   5.981   7.118   0.249 -0.1149 -0.0228 -0.5936
    4CHTO  H213 1301   5.973   7.134   0.357 -1.0172  0.0182 -0.6625
    4CHTO  C110 1302   5.841   7.154   0.187  0.0670  0.3185 -0.3286
    4CHTO  H214 1303   5.842   7.157   0.078 -0.5131 -1.0904 -0.3776
    4CHTO   O78 1304   5.804   7.292   0.225 -0.0849  0.2868  0.2711
    4CHTO  H200 1305   5.729   7.318   0.176 -1.8602 -0.9197  2.2816
    4CHTO  C111 1306   5.724   7.055   0.234 -0.5427  0.2522  0.6888
    4CHTO  H215 1307   5.707   7.068   0.342 -0.2615 -0.3793  0.8125
    4CHTO   N19 1308   5.587   7.070   0.167 -0.1446  0.5599  0.4754
    4CHTO  H207 1309   5.609   7.112   0.070 -0.0226 -1.6561 -0.4861
    4CHTO  H208 1310   5.527   7.127   0.236 -0.0426  0.3606  0.7294
    4CHTO   O74 1311   6.095   7.201   0.200  0.2335 -0.1013 -0.1926
    4CHTO  C115 1312   6.152   7.306   0.284  0.1227  0.7387 -0.3940
    4CHTO  H219 1313   6.087   7.324   0.370  1.1162 -1.7932  0.9501
    4CHTO   O76 1314   6.303   7.270   0.335  0.4339 -0.0644  0.2277
    4CHTO  C122 1315   6.384   7.240   0.222  0.3255  0.1954  0.2689
    4CHTO  H226 1316   6.351   7.146   0.179 -2.3039  1.4207 -0.5281
    4CHTO  C126 1317   6.526   7.217   0.276  0.1480 -0.0671 -0.4176
    4CHTO   O85 1318   6.595   7.334   0.319  0.5543  0.3456  0.2695
    4CHTO  H206 1319   6.625   7.381   0.244  0.3051  3.1394  1.8312
    4CHTO  C121 1320   6.378   7.348   0.104 -0.0272 -0.2853 -0.6077
    4CHTO  H225 1321   6.485   7.371   0.084 -0.3140  2.2776  0.6247
    4CHTO   O81 1322   6.320   7.302  -0.020 -0.2244 -0.7103  0.0363
    4CHTO  H202 1323   6.341   7.216  -0.051 -1.3407 -1.3213  0.9710
    4CHTO  C119 1324   6.299   7.479   0.157  0.3719 -0.7723  0.0774
    4CHTO  H223 1325   6.349   7.520   0.245 -0.8703 -0.6324  0.7333
    4CHTO  C117 1326   6.154   7.438   0.197  0.5235  0.2032 -0.2446
    4CHTO  H221 1327   6.097   7.416   0.107  0.5137 -1.5084  0.1603
    4CHTO   N20 1328   6.087   7.557   0.262 -0.3977  0.8352 -0.2995
    4CHTO  H209 1329   6.138   7.589   0.351 -0.4524  2.8084 -0.9499
    4CHTO  H210 1330   6.086   7.641   0.193 -1.3267 -0.2547 -1.6546
    4CHTO   O80 1331   6.297   7.614   0.056 -0.6080 -0.2693  0.3434
    4CHTO  C103 1332   6.427   7.689   0.015  0.6249 -0.2503  0.1531
    4CHTO  H190 1333   6.395   7.793   0.010 -0.4438 -0.5014  1.6376
    4CHTO  C101 1334   6.558   7.670   0.105 -0.1338 -0.2905  0.7486
    4CHTO  H188 1335   6.579   7.564   0.121 -1.9766 -0.5381  1.6674
    4CHTO   O68 1336   6.524   7.756   0.245  0.4439 -0.0729 -0.0971
    4CHTO  H168 1337   6.505   7.846   0.227  2.6467  0.3560 -0.4113
    4CHTO   C99 1338   6.690   7.733   0.034 -0.1594  0.9263 -0.2464
    4CHTO  H186 1339   6.666   7.840   0.049 -0.6562  1.0980 -2.2124
    4CHTO   N17 1340   6.824   7.708   0.102  0.4859 -0.0172  0.1828
    4CHTO  H174 1341   6.873   7.804   0.106  0.5696 -0.0272 -0.7091
    4CHTO  H175 1342   6.875   7.641   0.035  0.6166  0.6516 -0.3818
    4CHTO   C97 1343   6.700   7.712  -0.121 -0.2104  0.6025 -0.7062
    4CHTO  H184 1344   6.740   7.612  -0.145 -0.8746 -0.2867  1.6831
    4CHTO   O64 1345   6.574   7.729  -0.177 -0.5892  0.2047 -0.7956
    4CHTO  C104 1346   6.466   7.645  -0.130  0.9252 -0.1700  0.1633
    4CHTO  H191 1347   6.501   7.542  -0.131 -2.2566 -1.3120 -2.1935
    4CHTO  C108 1348   6.351   7.650  -0.234 -0.5501  0.0743  0.4030
    4CHTO   O71 1349   6.264   7.538  -0.221 -0.6193  0.7253  0.2962
    4CHTO  H171 1350   6.173   7.562  -0.223 -0.4205  1.5305 -4.2877
    4CHTO   O62 1351   6.781   7.817  -0.170 -0.6351 -0.2731 -0.3819
    4CHTO   C91 1352   6.838   7.803  -0.300 -1.1346 -0.2025  0.3403
    4CHTO  H178 1353   6.790   7.717  -0.346  3.3469 -0.2432 -4.7311
    4CHTO   C92 1354   6.990   7.773  -0.296 -0.0687  0.3359 -0.3953
    4CHTO  H179 1355   7.044   7.862  -0.262 -1.7510  1.1340  0.2988
    4CHTO   O66 1356   7.021   7.669  -0.198  0.5990 -0.2915 -0.5216
    4CHTO  H166 1357   6.987   7.584  -0.221 -1.8124  0.4995 -0.0460
    4CHTO   C93 1358   7.051   7.741  -0.446  0.5340  0.0133  0.3632
    4CHTO  H180 1359   7.016   7.638  -0.466 -1.9421  0.5212  1.8627
    4CHTO   N16 1360   7.200   7.737  -0.439  0.2614  0.1513  0.1193
    4CHTO  H172 1361   7.245   7.835  -0.433 -0.0124  0.2418  0.7740
    4CHTO  H173 1362   7.245   7.663  -0.374 -0.6172 -1.4113 -1.0031
    4CHTO   C94 1363   6.999   7.844  -0.551 -0.7838  0.0526 -0.4952
    4CHTO  H181 1364   7.060   7.934  -0.545  0.6782 -0.9308 -0.3981
    4CHTO   O61 1365   6.865   7.892  -0.529  0.5382  0.0807  0.4337
    4CHTO   C95 1366   6.819   7.923  -0.404 -0.1388 -0.1909  0.2952
    4CHTO  H182 1367   6.874   8.009  -0.367 -0.4131 -0.1490  0.6151
    4CHTO  C106 1368   6.675   7.973  -0.419  0.2656  0.3810  0.3456
    4CHTO   O69 1369   6.581   7.873  -0.462  0.0477  0.3360 -0.3156
    4CHTO  H169 1370   6.501   7.874  -0.414  1.5353  3.3604  2.2246
    4CHTO   O63 1371   7.008   7.772  -0.700  0.4072 -0.0222  0.9654
    4CHTO   C96 1372   7.071   7.849  -0.817  0.6439  0.4021  0.4773
    4CHTO  H183 1373   7.099   7.773  -0.889 -0.4491  1.8610 -1.5422
    4CHTO   C98 1374   7.201   7.937  -0.800 -0.1928 -0.2719 -0.1890
    4CHTO  H185 1375   7.179   8.020  -0.731 -0.5649  0.5434 -1.2738
    4CHTO   O67 1376   7.305   7.869  -0.736  0.4416  0.5859  0.2580
    4CHTO  H167 1377   7.387   7.914  -0.727  1.2653 -0.7494 -0.2851
    4CHTO  C102 1378   7.259   7.998  -0.936 -0.2033 -0.3972 -0.5529
    4CHTO  H189 1379   7.330   7.923  -0.975 -1.0485 -2.0584  1.0009
    4CHTO   N18 1380   7.337   8.121  -0.927  0.1667  0.0286  0.2624
    4CHTO  H176 1381   7.367   8.167  -1.020  1.4633 -0.3587  0.4825
    4CHTO  H177 1382   7.268   8.191  -0.881 -0.8823 -0.6759 -0.2161
    4CHTO  C105 1383   7.145   8.005  -1.040  0.2775  0.0632  0.0908
    4CHTO  H192 1384   7.162   8.085  -1.112 -1.3523 -0.2257 -0.6418
    4CHTO   O65 1385   7.019   8.024  -0.978  0.7619  0.1751  0.2590
    4CHTO  C100 1386   6.963   7.937  -0.878  0.5801  0.3931 -0.5728
    4CHTO  H187 1387   6.919   7.998  -0.798 -1.2522 -0.3816 -0.9692
    4CHTO  C107 1388   6.847   7.854  -0.943  0.2600  0.5612 -0.8990
    4CHTO   O70 1389   6.747   7.925  -1.006 -0.1725  0.4056  0.6136
    4CHTO  H170 1390   6.686   7.862  -1.040 -0.3352  1.0370 -0.2819
    4CHTO   O57 1391   7.159   7.859  -1.135  0.3109 -0.5095 -0.1790
    4CHTO   C85 1392   7.114   7.871  -1.276 -0.2575 -0.0816 -0.0628
    4CHTO  H157 1393   7.079   7.975  -1.292 -0.8432 -0.2013  0.4242
    4CHTO   C83 1394   6.998   7.763  -1.307  0.0946  0.2331  0.0087
    4CHTO  H155 1395   6.912   7.790  -1.246 -0.5147 -2.0891  0.2160
    4CHTO   O56 1396   7.038   7.636  -1.265 -0.0481 -0.8744 -0.2268
    4CHTO  H135 1397   7.131   7.623  -1.275  0.5734  0.9668  2.4284
    4CHTO   C81 1398   6.957   7.771  -1.457  0.1880  0.3367 -0.5736
    4CHTO  H153 1399   6.936   7.876  -1.476 -0.9694 -0.0691 -1.5972
    4CHTO   N14 1400   6.835   7.698  -1.503 -0.0360  0.3005 -0.1635
    4CHTO  H141 1401   6.756   7.688  -1.431 -0.1267 -0.6134 -0.3763
    4CHTO  H142 1402   6.788   7.743  -1.588  3.0795  0.2554 -1.9559
    4CHTO   C79 1403   7.083   7.736  -1.544  0.2029 -0.1607  0.2480
    4CHTO  H151 1404   7.062   7.755  -1.649  2.2438  1.6045  0.1215
    4CHTO   O52 1405   7.200   7.817  -1.516  0.0163  0.0927 -0.0149
    4CHTO   C86 1406   7.233   7.832  -1.372 -0.5075 -0.0197 -0.1133
    4CHTO  H158 1407   7.273   7.735  -1.335 -0.4331 -0.1156 -0.4380
    4CHTO   C90 1408   7.353   7.937  -1.359  1.0381 -0.9054 -0.0357
    4CHTO   O60 1409   7.485   7.896  -1.404  0.9017  0.1408 -0.0078
    4CHTO  H138 1410   7.490   7.809  -1.368  0.0062 -2.2926 -5.3240
    4CHTO   O50 1411   7.130   7.603  -1.534 -0.3768  0.1436  0.4874
    4CHTO   C73 1412   7.170   7.525  -1.645 -0.0503 -0.8605 -0.5635
    4CHTO  H145 1413   7.218   7.590  -1.719 -3.4910 -1.4410 -3.4645
    4CHTO   C74 1414   7.054   7.460  -1.717 -0.1651 -0.3324 -0.5104
    4CHTO  H146 1415   6.989   7.542  -1.752 -0.1527  0.3725  1.0623
    4CHTO   O54 1416   7.109   7.384  -1.833 -0.2875  0.2201  0.0846
    4CHTO  H133 1417   7.042   7.322  -1.857 -0.9967  0.7966  0.5306
    4CHTO   C75 1418   6.980   7.367  -1.618 -0.0541  0.4462  0.5380
    4CHTO  H147 1419   6.947   7.429  -1.534 -3.0455 -1.9376  1.1929
    4CHTO   N13 1420   6.847   7.310  -1.666 -0.1925 -0.1433  0.0549
    4CHTO  H139 1421   6.788   7.273  -1.583 -3.9257  0.1105 -2.3734
    4CHTO  H140 1422   6.801   7.379  -1.736 -0.1483 -2.3113 -2.1994
    4CHTO   C76 1423   7.075   7.252  -1.562 -0.0651 -0.3430 -0.0207
    4CHTO  H148 1424   7.097   7.178  -1.640 -1.4541  0.2539 -1.0051
    4CHTO   O49 1425   7.194   7.319  -1.504  0.0407  0.2078 -0.2614
    4CHTO   C77 1426   7.269   7.415  -1.592 -0.2979 -0.1644  0.0196
    4CHTO  H149 1427   7.306   7.356  -1.676 -0.7571 -2.2917  1.2646
    4CHTO   C88 1428   7.390   7.468  -1.517 -0.3398 -0.5207 -0.0238
    4CHTO   O58 1429   7.497   7.351  -1.493 -0.5339  0.0235  0.2393
    4CHTO  H136 1430   7.580   7.393  -1.483 -0.7726  0.3583  0.8455
    4CHTO   O51 1431   7.005   7.181  -1.430  0.2124 -0.3950 -0.3953
    4CHTO   C78 1432   7.070   7.037  -1.365  0.7177 -0.2710  0.3453
    4CHTO  H150 1433   7.038   7.028  -1.259  1.6091  0.0646  0.6425
    4CHTO   C80 1434   7.222   7.028  -1.375  0.1381  0.2477  0.1015
    4CHTO  H152 1435   7.255   7.035  -1.481 -0.1929  0.6195  0.0191
    4CHTO   O55 1436   7.269   7.154  -1.323  0.3784  0.2372  0.1104
    4CHTO  H134 1437   7.362   7.145  -1.311  0.4372 -0.8729 -1.0840
    4CHTO   C84 1438   7.276   6.889  -1.317  0.2021 -0.2680  0.4665
    4CHTO  H156 1439   7.253   6.890  -1.211 -1.5887  1.7083  0.1054
    4CHTO   N15 1440   7.415   6.881  -1.324  0.5472  0.0666  0.1951
    4CHTO  H143 1441   7.445   6.779  -1.309 -2.4170 -0.7924  0.6290
    4CHTO  H144 1442   7.463   6.944  -1.251  1.0406  0.7919 -0.7443
    4CHTO   C87 1443   7.196   6.768  -1.377  0.3686  0.5299 -0.1429
    4CHTO  H159 1444   7.213   6.743  -1.481  2.0771 -0.4840  0.3574
    4CHTO   O53 1445   7.045   6.797  -1.359 -0.1623 -0.7364  0.2037
    4CHTO   C82 1446   7.004   6.914  -1.425 -0.0957 -0.2075 -0.5946
    4CHTO  H154 1447   7.030   6.910  -1.531 -1.5626  0.7195 -1.0102
    4CHTO   C89 1448   6.846   6.921  -1.423  0.6869 -0.1700 -0.6739
    4CHTO   O59 1449   6.792   7.027  -1.503 -0.5277 -0.4507 -0.3622
    4CHTO  H137 1450   6.826   7.110  -1.477 -1.0290 -0.3191 -0.1221
    4CHTO   O45 1451   7.233   6.636  -1.278  0.8076  0.9345 -0.0774
    4CHTO   C67 1452   7.193   6.508  -1.329 -0.4341  0.0402 -0.2510
    4CHTO  H124 1453   7.180   6.511  -1.437 -2.7861 -2.6649 -0.0964
    4CHTO   C65 1454   7.289   6.391  -1.294 -0.2271  0.4714 -0.4506
    4CHTO  H122 1455   7.381   6.429  -1.339 -0.3196 -0.1195 -1.1491
    4CHTO   O44 1456   7.256   6.269  -1.368 -0.0998 -0.0316  0.0744
    4CHTO  H102 1457   7.279   6.187  -1.328  0.6824 -0.1397 -0.5814
    4CHTO   C63 1458   7.296   6.376  -1.139 -0.7023  0.6930  0.3397
    4CHTO  H120 1459   7.345   6.465  -1.098 -0.0084  1.2910 -1.7277
    4CHTO   N11 1460   7.403   6.272  -1.094 -0.1422  0.3927  0.0951
    4CHTO  H108 1461   7.411   6.209  -1.180 -0.2146  0.8200 -0.2271
    4CHTO  H109 1462   7.494   6.327  -1.087  1.4549 -2.0466 -0.9978
    4CHTO   C61 1463   7.156   6.358  -1.072  0.3934  0.2630 -0.4804
    4CHTO  H118 1464   7.170   6.400  -0.971  3.3371  0.3824 -0.9038
    4CHTO   O40 1465   7.048   6.438  -1.136 -0.1137 -0.2755 -0.5081
    4CHTO   C68 1466   7.046   6.471  -1.274 -0.5046  0.2090 -0.3340
    4CHTO  H125 1467   6.990   6.566  -1.287 -1.6217 -0.5533 -1.2904
    4CHTO   C72 1468   6.962   6.365  -1.351 -0.2344  0.6745 -0.3154
    4CHTO   O48 1469   6.813   6.371  -1.337  0.1909  0.8024  0.0758
    4CHTO  H105 1470   6.776   6.285  -1.337  0.4017  0.7129  1.6577
    4CHTO   O38 1471   7.105   6.221  -1.059 -0.1506  0.3008  0.9912
    4CHTO   C55 1472   7.014   6.185  -0.953 -0.0789 -0.1060  0.1762
    4CHTO  H112 1473   6.970   6.280  -0.921  0.8660  0.3364  0.1960
    4CHTO   C56 1474   7.097   6.116  -0.840 -0.6353  0.2865  0.0901
    4CHTO  H113 1475   7.139   6.022  -0.878 -0.7288  1.0489 -1.9461
    4CHTO   O42 1476   7.221   6.193  -0.812 -0.0828 -0.2802  0.1850
    4CHTO  H100 1477   7.254   6.241  -0.885  1.9936 -1.8775  0.0211
    4CHTO   C57 1478   7.005   6.092  -0.715  0.0736  0.0236  0.5460
    4CHTO  H114 1479   6.968   6.192  -0.692  0.2418  0.8987 -2.7161
    4CHTO   N10 1480   7.067   6.016  -0.603 -0.0207  0.0446 -0.5759
    4CHTO  H106 1481   6.993   6.014  -0.524  0.1187 -1.1276 -0.4600
    4CHTO  H107 1482   7.156   6.071  -0.575  0.4577 -0.4416 -1.1147
    4CHTO   C58 1483   6.886   6.003  -0.771  0.5752  0.1800 -0.0760
    4CHTO  H115 1484   6.927   5.903  -0.796 -0.4726 -0.6116  1.3176
    4CHTO   O37 1485   6.820   6.056  -0.892  0.3029  0.1206 -0.2580
    4CHTO   C59 1486   6.903   6.090  -1.004 -0.2265 -0.5233 -0.1443
    4CHTO  H116 1487   6.950   6.007  -1.056  0.5179 -0.4574  0.4144
    4CHTO   C70 1488   6.807   6.174  -1.093  0.2895  0.5786 -0.4884
    4CHTO   O46 1489   6.714   6.084  -1.158  0.8518  0.1143  0.3382
    4CHTO  H103 1490   6.657   6.044  -1.095 -0.5601  2.2360  0.4754
    4CHTO   O39 1491   6.782   5.983  -0.654 -0.0700  0.3765 -0.1990
    4CHTO   C60 1492   6.661   5.911  -0.683 -0.1548 -0.0394  0.1859
    4CHTO  H117 1493   6.632   5.919  -0.788  0.8668 -1.5163 -0.2314
    4CHTO   C62 1494   6.674   5.768  -0.636 -0.1876  0.5987  0.3879
    4CHTO  H119 1495   6.753   5.716  -0.695 -2.7493 -1.3982 -1.3746
    4CHTO   O43 1496   6.698   5.752  -0.493 -0.3044  0.0227  0.3442
    4CHTO  H101 1497   6.635   5.805  -0.447  0.3997  0.3364  0.9510
    4CHTO   C66 1498   6.543   5.692  -0.682 -0.0307  0.3544  0.7083
    4CHTO  H123 1499   6.529   5.708  -0.788  2.3754 -1.6542  0.0175
    4CHTO   N12 1500   6.554   5.545  -0.669  0.2124  0.0123 -0.4391
    4CHTO  H110 1501   6.626   5.501  -0.736  1.0257 -1.6695  1.4848
    4CHTO  H111 1502   6.565   5.505  -0.569  0.2197 -1.5825 -1.0650
    4CHTO   C69 1503   6.423   5.748  -0.609  0.6426  0.7979 -0.0586
    4CHTO  H126 1504   6.427   5.729  -0.499 -3.0838 -1.4206 -0.2134
    4CHTO   O41 1505   6.425   5.925  -0.632  0.3327  0.3090 -0.0480
    4CHTO   C64 1506   6.544   5.983  -0.600 -0.4133  0.0368 -0.5341
    4CHTO  H121 1507   6.563   5.999  -0.491  0.0625  1.4980 -0.8248
    4CHTO   C71 1508   6.534   6.124  -0.651 -0.1866  0.2222 -0.2369
    4CHTO   O47 1509   6.431   6.193  -0.586 -0.1031  0.0506  0.0928
    4CHTO  H104 1510   6.438   6.283  -0.610  0.6011 -0.5384 -2.0346
    4CHTO   O34 1511   6.294   5.698  -0.660  0.1282  0.1556 -0.7300
    4CHTO   C49 1512   6.172   5.743  -0.748  0.7444  0.1140  1.1712
    4CHTO   H91 1513   6.105   5.801  -0.684 -0.4093  2.1969 -1.8017
    4CHTO   C47 1514   6.090   5.615  -0.788  0.1221 -0.1644  0.4273
    4CHTO   H89 1515   5.999   5.656  -0.836  1.6427  0.8447 -1.6469
    4CHTO   O33 1516   6.050   5.540  -0.678  0.1523  0.2589 -0.4045
    4CHTO   H70 1517   6.011   5.459  -0.703  1.5270 -0.8064  0.8163
    4CHTO   C45 1518   6.164   5.524  -0.910 -0.0329 -0.1468 -0.1971
    4CHTO   H87 1519   6.219   5.437  -0.871  1.0417  0.2581 -0.7955
    4CHTO    N8 1520   6.058   5.472  -1.002 -0.3336 -0.1701  0.1769
    4CHTO   H75 1521   6.098   5.449  -1.100  0.0360  1.5416 -0.0882
    4CHTO   H76 1522   5.986   5.552  -1.014  1.9820  1.8261 -0.8428
    4CHTO   C43 1523   6.277   5.614  -0.966 -0.1576  0.2116 -0.3134
    4CHTO   H85 1524   6.360   5.611  -0.895  0.4333 -0.9109 -1.0381
    4CHTO   O29 1525   6.230   5.744  -0.989 -0.4840 -0.1096  0.7803
    4CHTO   C50 1526   6.210   5.828  -0.875  0.1943 -0.4392  0.0138
    4CHTO   H92 1527   6.295   5.897  -0.860  1.8880 -2.2943 -0.8357
    4CHTO   C54 1528   6.083   5.924  -0.892  0.4458  0.0524  0.0641
    4CHTO   O36 1529   6.103   6.048  -0.811 -0.3977  0.4459 -0.1833
    4CHTO   H72 1530   6.018   6.083  -0.794 -0.2518  0.1894  1.1267
    4CHTO   O27 1531   6.336   5.561  -1.087  0.4576  0.4245 -0.3290
    4CHTO   C37 1532   6.470   5.538  -1.130  0.0415 -0.1685 -0.7712
    4CHTO   H79 1533   6.467   5.506  -1.235  2.1524 -2.3570 -0.2226
    4CHTO   C38 1534   6.553   5.666  -1.129 -0.2638  0.5502  0.3437
    4CHTO   H80 1535   6.549   5.706  -1.026  0.9474 -0.6831  0.8883
    4CHTO   O31 1536   6.485   5.760  -1.226  0.1809  0.4061 -0.0068
    4CHTO   H68 1537   6.511   5.742  -1.314  2.6660  0.3331  0.7069
    4CHTO   C39 1538   6.705   5.631  -1.170  0.3318 -0.2302  0.5990
    4CHTO   H81 1539   6.706   5.590  -1.271 -3.0617 -0.1075  0.4619
    4CHTO    N7 1540   6.797   5.746  -1.158  0.3519  0.4627  0.4223
    4CHTO   H73 1541   6.763   5.847  -1.179 -0.2898  0.0310 -0.5941
    4CHTO   H74 1542   6.893   5.731  -1.109  1.3220  0.8203 -1.3323
    4CHTO   C40 1543   6.747   5.516  -1.073 -0.0784  0.1022  0.7425
    4CHTO   H82 1544   6.744   5.549  -0.969  1.2567 -0.4457  0.9673
    4CHTO   O26 1545   6.665   5.401  -1.095 -0.1997  0.3158 -0.2735
    4CHTO   C41 1546   6.529   5.422  -1.053  0.5668 -1.2682 -0.4606
    4CHTO   H83 1547   6.524   5.440  -0.945 -0.1726  0.4864 -0.7831
    4CHTO   C52 1548   6.448   5.298  -1.087  0.1815 -0.0219 -1.2553
    4CHTO   O35 1549   6.483   5.171  -1.005  0.3474  0.2823  0.6668
    4CHTO   H71 1550   6.569   5.139  -1.026  0.0051 -0.5849  0.5512
    4CHTO   O28 1551   6.880   5.470  -1.086 -0.0787 -0.3871 -0.5889
    4CHTO   C42 1552   6.944   5.403  -0.981  0.5091  0.2026 -0.1952
    4CHTO   H84 1553   7.035   5.363  -1.025  0.9830  0.4722  0.5297
    4CHTO   C44 1554   6.867   5.280  -0.926 -0.0687 -0.3208 -0.2468
    4CHTO   H86 1555   6.775   5.316  -0.881  0.6591  1.1933  0.0737
    4CHTO   O32 1556   6.842   5.192  -1.037 -0.0784  0.3908 -0.0613
    4CHTO   H69 1557   6.798   5.233  -1.109  1.8523  0.2315 -1.3765
    4CHTO   C48 1558   6.948   5.205  -0.802  0.4374  0.2440  0.9669
    4CHTO   H90 1559   7.036   5.163  -0.850  0.4502  0.9369  0.3771
    4CHTO    N9 1560   6.873   5.094  -0.737  0.3010 -0.1958 -0.0956
    4CHTO   H77 1561   6.778   5.127  -0.699  0.6148 -0.4269  0.9049
    4CHTO   H78 1562   6.930   5.052  -0.656 -1.3581  0.7844  1.6069
    4CHTO   C51 1563   6.987   5.321  -0.703  0.9305 -0.2428  0.4568
    4CHTO   H93 1564   6.896   5.371  -0.670 -1.3068 -1.2652 -3.7007
    4CHTO   O30 1565   7.073   5.413  -0.774 -0.6579  0.4539  0.3879
    4CHTO   C46 1566   6.989   5.499  -0.865  0.0276  0.0252 -0.3105
    4CHTO   H88 1567   6.907   5.543  -0.809 -0.4643 -0.3117 -0.7662
    4CHTO   C53 1568   7.085   5.614  -0.921  0.0857  0.3033  0.4159
    4CHTO   O72 1569   7.141   5.694  -0.821 -0.6512 -0.2634  0.2472
    4CHTO  H199 1570   7.189   5.639  -0.762  1.0351 -0.8587 -1.6335
    4CHTO   O22 1571   7.065   5.275  -0.589  0.1341  0.3374 -0.2191
    4CHTO   C31 1572   7.079   5.364  -0.478 -0.5695 -0.4545  0.0111
    4CHTO   H59 1573   7.133   5.309  -0.399  0.8750  1.5767  0.4568
    4CHTO   C29 1574   7.159   5.494  -0.503  0.0088  0.7032 -0.2994
    4CHTO   H57 1575   7.104   5.542  -0.585  1.7621 -0.3482 -2.1304
    4CHTO   O21 1576   7.283   5.464  -0.571 -0.3842 -0.1676 -0.2569
    4CHTO   H37 1577   7.305   5.530  -0.634  0.0856  2.9353  2.9678
    4CHTO   C27 1578   7.178   5.585  -0.381 -0.4626 -0.3407  0.5476
    4CHTO   H55 1579   7.243   5.536  -0.306 -1.0889  0.6189  1.7436
    4CHTO    N5 1580   7.248   5.710  -0.422  0.6171 -0.2384  0.1552
    4CHTO   H43 1581   7.201   5.752  -0.510 -2.1288 -3.4463  0.0198
    4CHTO   H44 1582   7.352   5.680  -0.421  0.5360 -0.4945  0.8804
    4CHTO   C25 1583   7.039   5.623  -0.321  0.6050 -0.3580  0.3335
    4CHTO   H53 1584   6.993   5.684  -0.400  1.7213 -0.3219 -0.2983
    4CHTO   O17 1585   6.962   5.500  -0.292  0.0907 -0.3956  0.4502
    4CHTO   C32 1586   6.945   5.412  -0.405  0.2878  0.5753  0.9573
    4CHTO   H60 1587   6.882   5.466  -0.475  0.8553 -0.5412 -0.4480
    4CHTO   C36 1588   6.859   5.293  -0.356 -0.4451  0.5545  0.2395
    4CHTO   O25 1589   6.923   5.210  -0.255 -0.0024 -0.3723 -0.5010
    4CHTO   H40 1590   7.014   5.211  -0.278 -0.0099  0.2182 -0.5158
    4CHTO   O15 1591   7.056   5.680  -0.174  0.1444  0.1832  0.2249
    4CHTO   C19 1592   7.113   5.692  -0.039 -0.2717 -0.1850  0.4525
    4CHTO   H47 1593   7.032   5.668   0.032 -0.6881 -0.4197 -0.0975
    4CHTO   C20 1594   7.234   5.603  -0.014 -0.5993 -0.3403 -0.2611
    4CHTO   H48 1595   7.313   5.624  -0.088 -1.9911 -0.4178 -1.8065
    4CHTO   O19 1596   7.191   5.470  -0.040  0.0882  0.1149  0.2021
    4CHTO   H35 1597   7.113   5.469   0.012 -2.2327  0.0742 -3.1888
    4CHTO   C21 1598   7.290   5.613   0.134 -0.0377 -1.1354  0.2931
    4CHTO   H49 1599   7.206   5.598   0.203 -1.5525  0.0114 -1.2664
    4CHTO    N4 1600   7.402   5.520   0.163  0.2151  0.3021  0.0213
    4CHTO   H41 1601   7.494   5.558   0.122 -0.0462  0.7284 -0.1736
    4CHTO   H42 1602   7.372   5.429   0.112  0.7387  0.5916 -0.8172
    4CHTO   C22 1603   7.330   5.756   0.174 -0.2353 -0.4395  0.4051
    4CHTO   H50 1604   7.418   5.784   0.116 -0.6833 -0.9751 -0.5602
    4CHTO   O14 1605   7.216   5.839   0.136 -0.3779  0.1295 -0.1112
    4CHTO   C23 1606   7.163   5.835  -0.003 -0.0766 -0.0538  0.2236
    4CHTO   H51 1607   7.236   5.873  -0.076 -1.2240  2.9307  0.5749
    4CHTO   C34 1608   7.051   5.943  -0.004  0.0181 -0.1560 -0.2980
    4CHTO   O23 1609   7.010   5.985  -0.135 -0.1604  0.0771 -0.6301
    4CHTO   H38 1610   6.919   6.009  -0.143  0.1862  1.4340 -0.5949
    4CHTO   O16 1611   7.353   5.781   0.315 -0.0447 -0.1883  0.1149
    4CHTO   C24 1612   7.233   5.781   0.435  0.2559 -0.1346 -0.3042
    4CHTO   H52 1613   7.151   5.713   0.411  1.0349 -1.2822  0.1768
    4CHTO   C26 1614   7.176   5.921   0.446 -0.3825  0.3995 -0.1761
    4CHTO   H54 1615   7.260   5.992   0.427  1.0304 -1.0221  0.6188
    4CHTO   O20 1616   7.083   5.947   0.337  0.9055 -0.1636 -0.1929
    4CHTO   H36 1617   6.999   5.912   0.359  2.2539 -2.9429  0.7972
    4CHTO   C30 1618   7.119   5.958   0.587  0.4150  0.2926 -0.3010
    4CHTO   H58 1619   7.022   5.907   0.595  1.4122 -1.4824  0.7132
    4CHTO    N6 1620   7.091   6.098   0.607  0.0061  0.0962 -0.0057
    4CHTO   H45 1621   7.129   6.132   0.703 -0.9592  3.3045 -0.7066
    4CHTO   H46 1622   6.983   6.097   0.612 -0.0145 -0.8188 -0.5433
    4CHTO   C33 1623   7.205   5.895   0.704  0.3194 -0.1381 -0.2007
    4CHTO   H61 1624   7.308   5.933   0.702  0.8414 -1.3048  2.4183
    4CHTO   O18 1625   7.221   5.751   0.684 -0.1861  0.5603 -0.8551
    4CHTO   C28 1626   7.299   5.728   0.565 -0.0713 -0.3298 -0.2718
    4CHTO   H56 1627   7.394   5.780   0.577 -1.4925  2.8322 -2.1111
    4CHTO   C35 1628   7.330   5.576   0.563 -0.2311  0.4838 -0.4269
    4CHTO   O24 1629   7.427   5.559   0.671 -0.2648  0.3657 -1.1458
    4CHTO   H39 1630   7.427   5.471   0.702 -0.8243  1.1179  1.1016
    4CHTO    O9 1631   7.150   5.928   0.835  0.6317 -0.9268 -0.0479
    4CHTO   C13 1632   7.264   5.983   0.942 -0.1363  0.6885  0.0036
    4CHTO   H26 1633   7.317   6.070   0.899 -0.6470  1.1366  0.2784
    4CHTO   C11 1634   7.362   5.859   0.968  0.0892 -0.1499 -0.3843
    4CHTO   H24 1635   7.433   5.846   0.885 -0.8519 -0.0666 -1.2154
    4CHTO    O8 1636   7.275   5.749   0.979 -0.0929 -0.1721 -0.1853
    4CHTO    H3 1637   7.257   5.730   1.069  0.4135 -1.0209 -0.2671
    4CHTO    C9 1638   7.445   5.887   1.098  0.5055 -0.0381  0.2992
    4CHTO   H22 1639   7.495   5.984   1.085  0.0873 -0.1245 -2.1537
    4CHTO    N2 1640   7.563   5.802   1.102 -0.3248 -0.3877  0.7958
    4CHTO   H10 1641   7.619   5.819   1.193  1.0749  2.0804 -0.4923
    4CHTO   H11 1642   7.630   5.827   1.021 -0.7262 -1.0993  0.2385
    4CHTO    C7 1643   7.353   5.906   1.222 -0.2203 -0.2810 -0.4325
    4CHTO   H20 1644   7.426   5.943   1.296 -0.9384  1.5430 -0.6110
    4CHTO    O4 1645   7.260   6.017   1.196  0.2423  0.0261 -0.2545
    4CHTO   C14 1646   7.193   6.036   1.069  0.0519 -0.3107 -0.1359
    4CHTO   H27 1647   7.184   6.146   1.063  1.8736 -0.2009 -1.1757
    4CHTO   C18 1648   7.050   5.982   1.090  0.3043 -0.3989  0.2752
    4CHTO   O13 1649   6.975   6.051   1.186  0.0533 -0.0767  0.0168
    4CHTO    H7 1650   7.013   6.026   1.268 -0.3939 -0.6608  0.0556
    4CHTO    O2 1651   7.270   5.780   1.266 -0.1060  0.1432  0.6546
    4CHTO    C1 1652   7.341   5.684   1.351 -0.0087  0.3617 -0.2038
    4CHTO   H14 1653   7.450   5.705   1.350  0.1579 -0.2391  1.9628
    4CHTO    C2 1654   7.316   5.529   1.320  0.1716 -0.7015  0.5318
    4CHTO   H15 1655   7.212   5.506   1.349  0.0584  0.8177  1.3325
    4CHTO    O6 1656   7.335   5.510   1.178 -0.4323  0.9294  0.2665
    4CHTO    H1 1657   7.258   5.530   1.129  0.0144 -1.4310 -1.4379
    4CHTO    C3 1658   7.416   5.445   1.409 -0.0087 -0.9271  0.3063
    4CHTO   H16 1659   7.520   5.478   1.392 -0.0333 -1.1084 -0.2093
    4CHTO    N1 1660   7.407   5.300   1.376  0.1269 -0.3762  0.6561
    4CHTO    H8 1661   7.406   5.228   1.456  0.1705  1.0194  1.9229
    4CHTO    H9 1662   7.334   5.264   1.304 -0.7672  0.4907  1.1133
    4CHTO    C4 1663   7.384   5.475   1.558 -0.2607  0.1833 -0.2885
    4CHTO   H17 1664   7.284   5.440   1.581 -0.0949 -0.9261 -1.2370
    4CHTO    O1 1665   7.390   5.615   1.578 -0.3879  0.3006 -0.5250
    4CHTO    C5 1666   7.305   5.700   1.507 -0.2084 -0.2174  0.3548
    4CHTO   H18 1667   7.198   5.682   1.511 -0.2191 -0.1679  0.2960
    4CHTO   C16 1668   7.337   5.849   1.553 -0.2004  0.1395 -0.1701
    4CHTO   O11 1669   7.270   5.879   1.679  0.0462  0.4547 -0.0801
    4CHTO    H5 1670   7.331   5.852   1.745 -0.7346 -3.4553 -0.8378
    4CHTO    O3 1671   7.480   5.410   1.646 -0.1248  0.2933  0.1892
    4CHTO    C6 1672   7.425   5.382   1.781 -0.0996  0.1866  0.2190
    4CHTO   H19 1673   7.338   5.445   1.798 -1.5675 -2.2082  1.8881
    4CHTO    C8 1674   7.379   5.233   1.796  0.0391 -0.0997  0.5952
    4CHTO   H21 1675   7.452   5.168   1.748 -1.1033 -0.3349 -0.8461
    4CHTO    O7 1676   7.260   5.226   1.713  0.4061  0.2180 -0.1734
    4CHTO    H2 1677   7.193   5.276   1.756  0.1869 -0.7133  0.5888
    4CHTO   C12 1678   7.350   5.189   1.942  0.3301  0.1063  0.5345
    4CHTO   H25 1679   7.256   5.246   1.959  0.9215  0.9852  0.9165
    4CHTO    N3 1680   7.317   5.041   1.949  0.1523  0.5656  0.0525
    4CHTO   H12 1681   7.219   5.033   1.994  0.0614 -4.3558 -0.7126
    4CHTO   H13 1682   7.391   4.978   1.997 -0.6999 -0.7611 -0.3426
    4CHTO   C15 1683   7.467   5.227   2.045 -0.0308  0.7138  0.1284
    4CHTO   H28 1684   7.565   5.180   2.035  0.0433  1.0751 -0.9535
    4CHTO   O10 1685   7.428   5.208   2.200 -0.1168  0.2386  0.6206
    4CHTO    H4 1686   7.497   5.242   2.255  0.5030 -1.0061  0.6375
    4CHTO    O5 1687   7.498   5.368   2.031 -0.2995  0.3764  0.1902
    4CHTO   C10 1688   7.534   5.417   1.896  0.3663 -0.1717 -0.0282
    4CHTO   H23 1689   7.627   5.370   1.864  0.7141  1.1671 -1.0343
    4CHTO   C17 1690   7.548   5.566   1.913  0.0158  0.5078  0.3263
    4CHTO   O12 1691   7.669   5.606   1.974  0.2077 -0.3791  0.2094
    4CHTO    H6 1692   7.669   5.591   2.067  1.3111 -2.6171 -0.1157
    5CHTO  H203 1693   6.847   3.471   2.684  2.1952 -2.4072 -2.0788
    5CHTO   O82 1694   6.765   3.434   2.658  0.2569  0.2855 -0.0659
    5CHTO  C123 1695   6.667   3.436   2.762 -1.2966 -0.7240 -0.2532
    5CHTO  H227 1696   6.688   3.522   2.828  1.8426 -2.2876  0.9068
    5CHTO   O77 1697   6.537   3.463   2.703  0.5420  0.2263 -0.3091
    5CHTO  C118 1698   6.426   3.466   2.790 -0.2999 -0.2897  0.0445
    5CHTO  H222 1699   6.455   3.541   2.865  3.8217 -3.2373  1.5937
    5CHTO  C125 1700   6.297   3.506   2.714  0.7475 -0.0024 -0.2709
    5CHTO   O84 1701   6.268   3.418   2.604  0.3699  0.1542 -0.4492
    5CHTO  H205 1702   6.354   3.405   2.569  0.7940  0.6247  0.3972
    5CHTO  C114 1703   6.407   3.332   2.858  0.4434  0.9830 -0.0131
    5CHTO  H218 1704   6.404   3.255   2.781  0.7382 -0.8566  1.7563
    5CHTO  C116 1705   6.534   3.302   2.944 -0.4658  0.0233 -1.0385
    5CHTO  H220 1706   6.549   3.382   3.019  0.8767 -2.3381  1.3290
    5CHTO   O79 1707   6.514   3.178   3.024 -0.0594  0.0144 -0.4512
    5CHTO  H201 1708   6.464   3.114   2.977 -0.5837  0.9104 -1.1366
    5CHTO  C120 1709   6.657   3.300   2.846  0.0463 -0.4327 -0.1463
    5CHTO  H224 1710   6.635   3.215   2.778 -0.4318 -0.9467  0.6352
    5CHTO   N21 1711   6.785   3.274   2.918  0.1549 -0.5128 -0.1051
    5CHTO  H211 1712   6.850   3.219   2.853 -0.3798 -0.5257 -0.6353
    5CHTO  H212 1713   6.840   3.353   2.967  1.4508 -1.8511  0.6334
    5CHTO   O75 1714   6.282   3.333   2.926  0.5457 -0.2332  0.3208
    5CHTO  C112 1715   6.183   3.187   2.909 -0.1750  0.5791 -0.2784
    5CHTO  H216 1716   6.253   3.107   2.936  0.3410  0.1092 -2.8536
    5CHTO   O73 1717   6.145   3.174   2.771  0.3662  0.2609  0.2340
    5CHTO  C113 1718   6.049   3.073   2.725 -0.1065 -0.0086 -0.8943
    5CHTO  H217 1719   6.088   2.971   2.743 -1.1792 -0.0310  1.5010
    5CHTO  C124 1720   6.033   3.101   2.582 -0.2965 -0.3609  0.0990
    5CHTO   O83 1721   5.987   2.986   2.515 -0.2954  0.2847  0.1077
    5CHTO  H204 1722   5.894   2.976   2.522 -0.4971 -0.1422 -2.4240
    5CHTO  C109 1723   5.924   3.082   2.811 -0.4832 -0.1148  0.0590
    5CHTO  H213 1724   5.865   3.171   2.784  0.3878  0.2390 -0.6839
    5CHTO  C110 1725   5.955   3.087   2.962  0.5482 -0.1037 -0.0853
    5CHTO  H214 1726   5.982   2.983   2.982 -0.6613 -0.9267 -2.4445
    5CHTO   O78 1727   5.830   3.109   3.030 -0.2526 -0.2313 -0.0643
    5CHTO  H200 1728   5.848   3.101   3.122 -2.5073 -0.0097  0.4410
    5CHTO  C111 1729   6.055   3.197   3.002 -0.2535  0.7894  0.1693
    5CHTO  H215 1730   6.003   3.291   2.981 -2.5672 -0.9806 -2.4490
    5CHTO   N19 1731   6.092   3.202   3.143  0.1514  0.6014 -0.2465
    5CHTO  H207 1732   6.165   3.123   3.152  0.1406  0.4176 -1.6370
    5CHTO  H208 1733   6.017   3.210   3.220  0.3538  0.8999 -0.0764
    5CHTO   O74 1734   5.847   2.961   2.792 -0.0720  0.7569 -0.2511
    5CHTO  C115 1735   5.704   2.993   2.675 -1.0461 -0.3851  0.7198
    5CHTO  H219 1736   5.689   3.100   2.662  1.1084  0.0766  1.8172
    5CHTO   O76 1737   5.729   2.932   2.532  0.2886 -0.1627  0.0610
    5CHTO  C122 1738   5.622   2.942   2.437  0.4508  0.3670 -0.0978
    5CHTO  H226 1739   5.648   2.883   2.350 -0.3846 -0.9192  0.4930
    5CHTO  C126 1740   5.601   3.084   2.390 -0.2751  0.0448 -0.7687
    5CHTO   O85 1741   5.501   3.096   2.292  0.2613  0.1294 -0.6373
    5CHTO  H206 1742   5.422   3.072   2.337  0.1536  1.7777  0.1022
    5CHTO  C121 1743   5.495   2.867   2.494  0.2451  0.2056 -0.1393
    5CHTO  H225 1744   5.418   2.889   2.418  0.6324 -0.6507 -0.7829
    5CHTO   O81 1745   5.511   2.726   2.483 -0.1963  0.3492 -0.2270
    5CHTO  H202 1746   5.550   2.680   2.556  1.5744  2.0057 -0.0830
    5CHTO  C119 1747   5.451   2.922   2.633 -0.8061  0.2367  0.1095
    5CHTO  H223 1748   5.418   3.023   2.607 -1.9140  0.2386  1.4667
    5CHTO  C117 1749   5.574   2.940   2.736 -0.2486  0.2380 -0.6943
    5CHTO  H221 1750   5.607   2.846   2.781  0.4330  0.2888 -1.0686
    5CHTO   N20 1751   5.540   3.030   2.852 -0.0956  0.0513  0.3666
    5CHTO  H209 1752   5.435   3.032   2.877  0.2969  1.7026  1.9507
    5CHTO  H210 1753   5.606   3.016   2.936  0.9955 -0.1066 -0.5003
    5CHTO   O80 1754   5.328   2.870   2.693  0.1916 -0.6476  0.2902
    5CHTO  C103 1755   5.301   2.712   2.702  0.4304 -0.9434 -0.3946
    5CHTO  H190 1756   5.316   2.655   2.610  0.2665 -0.0638 -0.9794
    5CHTO  C101 1757   5.373   2.633   2.815 -0.3575  0.6144 -0.4493
    5CHTO  H188 1758   5.361   2.686   2.909 -0.9503  0.9623 -0.7167
    5CHTO   O68 1759   5.524   2.630   2.774 -0.5240  0.0664 -0.3055
    5CHTO  H168 1760   5.571   2.706   2.798  2.3767 -1.3902 -1.1688
    5CHTO   C99 1761   5.307   2.490   2.833  0.0854  0.1972 -0.6707
    5CHTO  H186 1762   5.312   2.429   2.741 -0.2305 -1.8500  0.6527
    5CHTO   N17 1763   5.376   2.417   2.947  0.7358  0.5092  0.1829
    5CHTO  H174 1764   5.482   2.437   2.943  0.6156  0.8643 -1.5037
    5CHTO  H175 1765   5.330   2.420   3.045  0.4574 -0.8509  0.0983
    5CHTO   C97 1766   5.156   2.508   2.860 -0.4764 -0.3664  0.5323
    5CHTO  H184 1767   5.152   2.571   2.950 -0.6082  0.5220 -0.0863
    5CHTO   O64 1768   5.104   2.575   2.741  0.9279 -0.0233 -0.3326
    5CHTO  C104 1769   5.143   2.710   2.738  0.3143  0.2191  0.2959
    5CHTO  H191 1770   5.130   2.762   2.833 -1.1192 -1.1843  0.8744
    5CHTO  C108 1771   5.064   2.786   2.632 -0.2003 -0.2666 -0.2613
    5CHTO   O71 1772   4.939   2.815   2.698 -0.0881  0.0927  0.1362
    5CHTO  H171 1773   4.912   2.897   2.659  0.1493 -0.7736 -1.9376
    5CHTO   O62 1774   5.087   2.385   2.862 -0.0088  0.0690 -0.1951
    5CHTO   C91 1775   4.953   2.378   2.920  1.0792  0.4356 -0.3555
    5CHTO  H178 1776   4.952   2.459   2.994  3.1059 -0.1321  0.3405
    5CHTO   C92 1777   4.949   2.235   2.992  0.4719 -0.0426 -0.1852
    5CHTO  H179 1778   5.039   2.227   3.054  0.5291 -4.7444 -0.6911
    5CHTO   O66 1779   4.831   2.222   3.077 -0.0041 -0.6010  0.0731
    5CHTO  H166 1780   4.858   2.186   3.159 -0.5906 -2.7061 -0.6155
    5CHTO   C93 1781   4.933   2.116   2.892 -0.2255  0.3383  0.7994
    5CHTO  H180 1782   4.900   2.029   2.950 -0.1565  2.0492  3.4996
    5CHTO   N16 1783   5.052   2.069   2.819  0.3060  0.6249 -0.1179
    5CHTO  H172 1784   5.024   2.019   2.727  2.6759 -1.2406  0.1135
    5CHTO  H173 1785   5.115   2.000   2.873 -0.9671 -1.5139 -1.3058
    5CHTO   C94 1786   4.817   2.152   2.787 -0.1029  0.3461 -0.3586
    5CHTO  H181 1787   4.853   2.163   2.685  1.6379  0.4450  0.2519
    5CHTO   O61 1788   4.749   2.274   2.822 -0.5634  0.3405  0.5586
    5CHTO   C95 1789   4.833   2.391   2.818  0.2049 -0.7666 -0.3342
    5CHTO  H182 1790   4.876   2.396   2.718 -0.9262  2.8215 -0.7386
    5CHTO  C106 1791   4.751   2.524   2.857  0.1292  0.1102 -0.1613
    5CHTO   O69 1792   4.646   2.550   2.762 -0.3157 -0.1281  0.4855
    5CHTO  H169 1793   4.677   2.572   2.676  0.2660 -0.4549  0.6093
    5CHTO   O63 1794   4.711   2.044   2.791  0.0592  0.4696 -0.7126
    5CHTO   C96 1795   4.654   2.032   2.646  0.0994 -1.0641 -0.1480
    5CHTO  H183 1796   4.709   2.098   2.579 -0.2091 -1.1640 -0.4988
    5CHTO   C98 1797   4.507   2.073   2.619  0.3112 -0.2892  0.4754
    5CHTO  H185 1798   4.443   2.012   2.684  1.7462  0.0617  2.2498
    5CHTO   O67 1799   4.489   2.207   2.658 -0.6846  0.2460  0.2293
    5CHTO  H167 1800   4.401   2.231   2.636 -1.3157 -1.9307  0.1915
    5CHTO  C102 1801   4.467   2.061   2.465 -0.0267  0.0711 -0.3853
    5CHTO  H189 1802   4.510   2.149   2.416 -1.7658  2.2353  1.8506
    5CHTO   N18 1803   4.324   2.073   2.440 -0.5576 -0.3357  0.3999
    5CHTO  H176 1804   4.308   2.057   2.334 -0.8121 -2.8309  0.7709
    5CHTO  H177 1805   4.260   2.011   2.502  0.7951 -2.1735 -0.0012
    5CHTO  C105 1806   4.524   1.931   2.398  0.6495 -0.1579 -0.7632
    5CHTO  H192 1807   4.456   1.850   2.424 -0.6341  0.7886 -1.1166
    5CHTO   O65 1808   4.655   1.898   2.445 -0.1960  0.4591  0.2129
    5CHTO  C100 1809   4.673   1.892   2.586  0.0135 -0.2489  0.0841
    5CHTO  H187 1810   4.596   1.828   2.631 -0.0635 -1.2469 -1.4538
    5CHTO  C107 1811   4.808   1.825   2.610  0.1743 -0.5014 -0.3581
    5CHTO   O70 1812   4.815   1.683   2.580  0.2560 -0.0833  0.3333
    5CHTO  H170 1813   4.746   1.646   2.633 -0.2148  1.6843  1.0100
    5CHTO   O57 1814   4.545   1.961   2.240  0.0647 -0.3070  0.0347
    5CHTO   C85 1815   4.464   1.882   2.146  0.5120  0.2953 -0.4102
    5CHTO  H157 1816   4.369   1.852   2.194  0.7499 -2.0416 -1.3368
    5CHTO   C83 1817   4.533   1.738   2.146  0.3795 -0.0994 -0.0841
    5CHTO  H155 1818   4.529   1.697   2.247 -0.1170  2.3183  0.9027
    5CHTO   O56 1819   4.669   1.747   2.102  0.0028 -0.3581 -0.0757
    5CHTO  H135 1820   4.688   1.789   2.020 -0.5734  0.2915  0.1282
    5CHTO   C81 1821   4.452   1.649   2.049 -0.3016  0.6421 -0.4663
    5CHTO  H153 1822   4.350   1.647   2.089 -0.1297 -1.8143 -0.0584
    5CHTO   N14 1823   4.497   1.504   2.043  0.5429 -0.3067  0.4954
    5CHTO  H141 1824   4.528   1.463   2.136  2.0278 -0.3353 -0.0010
    5CHTO  H142 1825   4.414   1.447   2.007 -0.2357  0.1837  1.4787
    5CHTO   C79 1826   4.449   1.719   1.901  0.5269  0.2495 -0.1874
    5CHTO  H151 1827   4.395   1.652   1.835  1.7924 -1.0005  0.0327
    5CHTO   O52 1828   4.376   1.847   1.917  0.0351  0.0159  0.3133
    5CHTO   C86 1829   4.438   1.945   2.002  0.3381  0.6421 -0.3855
    5CHTO  H158 1830   4.525   1.976   1.940 -0.9760  2.8031 -1.2163
    5CHTO   C90 1831   4.349   2.064   2.024  0.0101  0.0825  0.5629
    5CHTO   O60 1832   4.265   2.086   1.911 -0.2590 -0.4731 -0.1544
    5CHTO  H138 1833   4.310   2.109   1.832  0.0500 -1.4609 -0.2732
    5CHTO   O50 1834   4.576   1.756   1.842 -0.0687  0.1025 -0.1093
    5CHTO   C73 1835   4.666   1.766   1.735  0.4188 -0.3387  0.0994
    5CHTO  H145 1836   4.616   1.792   1.641  0.6424 -0.2946 -0.0080
    5CHTO   C74 1837   4.745   1.626   1.720 -0.5873 -0.2329  0.0284
    5CHTO  H146 1838   4.668   1.549   1.710 -0.2112 -0.7002  0.7036
    5CHTO   O54 1839   4.821   1.637   1.599  0.5421  0.0844  0.2464
    5CHTO  H133 1840   4.903   1.682   1.613  1.4694 -1.6155  0.4757
    5CHTO   C75 1841   4.838   1.601   1.846  0.3296  0.1921  0.1408
    5CHTO  H147 1842   4.777   1.596   1.938 -0.8584  0.9756 -0.5885
    5CHTO   N13 1843   4.910   1.471   1.847 -0.6146  0.2437  0.1901
    5CHTO  H139 1844   5.013   1.483   1.816 -0.2463 -0.8070  1.0040
    5CHTO  H140 1845   4.932   1.459   1.952  1.2021 -1.6964 -0.3782
    5CHTO   C76 1846   4.938   1.719   1.870  0.5527  0.1671  0.4707
    5CHTO  H148 1847   5.011   1.721   1.789  1.3057 -1.5682  1.0811
    5CHTO   O49 1848   4.863   1.846   1.870  0.2660 -0.6382 -0.0334
    5CHTO   C77 1849   4.780   1.869   1.754 -0.1138 -0.1141  0.2553
    5CHTO  H149 1850   4.852   1.867   1.672 -1.3039 -1.4001 -0.7839
    5CHTO   C88 1851   4.723   2.008   1.761 -0.6613  0.3219  0.5026
    5CHTO   O58 1852   4.812   2.115   1.755  0.4155  1.1309 -0.1619
    5CHTO  H136 1853   4.762   2.186   1.720 -2.8796 -1.8292 -1.7265
    5CHTO   O51 1854   5.007   1.703   2.022  0.3704  0.1389 -0.1432
    5CHTO   C78 1855   5.112   1.823   2.046 -0.3598  0.0987 -0.7093
    5CHTO  H150 1856   5.107   1.889   1.957 -0.4918  1.5264  0.3279
    5CHTO   C80 1857   5.251   1.752   2.059  0.2284 -0.3803 -0.5131
    5CHTO  H152 1858   5.244   1.674   2.137  0.1483  1.1264  1.0285
    5CHTO   O55 1859   5.276   1.685   1.931  0.1908 -0.8928 -0.5253
    5CHTO  H134 1860   5.262   1.744   1.860 -3.2937  0.7013  1.3778
    5CHTO   C84 1861   5.364   1.857   2.082  0.1671  1.0498  0.5479
    5CHTO  H156 1862   5.376   1.915   1.991 -0.5229  0.4564  0.0696
    5CHTO   N15 1863   5.500   1.803   2.106 -0.3785 -0.1376 -0.0963
    5CHTO  H143 1864   5.563   1.858   2.173  0.2644  0.4366 -1.1724
    5CHTO  H144 1865   5.547   1.802   2.010  0.3152  1.8912  0.2041
    5CHTO   C87 1866   5.324   1.949   2.203 -0.1022  1.0789 -0.4027
    5CHTO  H159 1867   5.344   1.903   2.300  2.3787 -0.4401 -1.5935
    5CHTO   O53 1868   5.158   1.998   2.205 -0.0648 -0.0502 -0.2812
    5CHTO   C82 1869   5.068   1.888   2.180 -0.5595 -0.1984  1.2258
    5CHTO  H154 1870   5.065   1.816   2.261 -1.5731 -0.9913  0.4913
    5CHTO   C89 1871   4.930   1.945   2.172 -0.0599  0.4594  0.1092
    5CHTO   O59 1872   4.906   2.004   2.299 -0.1794 -0.9061  0.1565
    5CHTO  H137 1873   4.931   2.094   2.290  1.3752 -1.3946 -0.7686
    5CHTO   O45 1874   5.408   2.096   2.186  0.2289  0.0037  0.3381
    5CHTO   C67 1875   5.469   2.142   2.313  0.4481 -0.5736  0.4240
    5CHTO  H124 1876   5.428   2.094   2.402 -0.3624  0.7006  0.7516
    5CHTO   C65 1877   5.624   2.112   2.308  0.4084 -0.3107  1.1765
    5CHTO  H122 1878   5.645   2.054   2.219 -1.0396 -0.4415  0.9150
    5CHTO   O44 1879   5.655   2.034   2.425 -0.3399  0.0980  0.1843
    5CHTO  H102 1880   5.740   2.044   2.462 -1.1080 -0.4700  2.1790
    5CHTO   C63 1881   5.702   2.248   2.290  0.8378  0.2610 -0.5556
    5CHTO  H120 1882   5.671   2.298   2.198 -0.1176 -0.4973 -0.6451
    5CHTO   N11 1883   5.846   2.229   2.263  0.2588 -0.3086 -0.1115
    5CHTO  H108 1884   5.871   2.266   2.165 -0.9910  1.3914  0.1726
    5CHTO  H109 1885   5.902   2.285   2.334  0.8332 -1.0582  0.0359
    5CHTO   C61 1886   5.663   2.343   2.406  0.0570 -0.1435 -0.2212
    5CHTO  H118 1887   5.694   2.443   2.370  2.3592 -0.9608 -0.5893
    5CHTO   O40 1888   5.528   2.348   2.440  0.1521 -0.3043 -0.1672
    5CHTO   C68 1889   5.442   2.302   2.339 -0.3072 -0.0719 -0.0712
    5CHTO  H125 1890   5.464   2.351   2.242 -0.4562 -0.8949 -0.5348
    5CHTO   C72 1891   5.296   2.328   2.376 -0.5981 -0.0942  0.1608
    5CHTO   O48 1892   5.279   2.469   2.388 -0.3146  0.8198  0.3286
    5CHTO  H105 1893   5.293   2.519   2.310  0.6426 -3.3977 -2.3211
    5CHTO   O38 1894   5.725   2.303   2.529 -0.5671 -1.1565 -0.0901
    5CHTO   C55 1895   5.729   2.391   2.644 -0.9412 -0.4392  0.6908
    5CHTO  H112 1896   5.639   2.450   2.667 -0.8932  0.1670 -0.6552
    5CHTO   C56 1897   5.862   2.488   2.640 -0.2619 -0.1767 -0.3107
    5CHTO  H113 1898   5.955   2.430   2.627  0.5120 -0.0434  3.7502
    5CHTO   O42 1899   5.857   2.564   2.518  0.1659 -0.0836  0.1164
    5CHTO  H100 1900   5.820   2.649   2.535 -1.2289 -0.5794 -0.4114
    5CHTO   C57 1901   5.868   2.572   2.774 -0.0465  0.5743  0.2697
    5CHTO  H114 1902   5.772   2.624   2.772  1.1305  2.7623 -1.2594
    5CHTO   N10 1903   5.989   2.657   2.773  1.0305  0.1219  0.2179
    5CHTO  H106 1904   5.978   2.758   2.736 -0.3980  0.0111  0.3056
    5CHTO  H107 1905   6.043   2.653   2.866  0.3171 -0.9283  0.5984
    5CHTO   C58 1906   5.856   2.483   2.901  0.2680  0.2548 -0.7555
    5CHTO  H115 1907   5.950   2.429   2.923  0.6316  0.2749 -2.2666
    5CHTO   O37 1908   5.753   2.383   2.899  0.3060 -0.3057 -0.0942
    5CHTO   C59 1909   5.751   2.305   2.774  0.0382 -0.0367 -0.7951
    5CHTO  H116 1910   5.838   2.242   2.761  0.0349  0.2772 -2.4889
    5CHTO   C70 1911   5.644   2.194   2.798  0.4009  1.0026  0.6292
    5CHTO   O46 1912   5.696   2.107   2.894  0.3773 -0.3706 -0.2837
    5CHTO  H103 1913   5.716   2.156   2.972  0.4894 -0.2684 -0.3754
    5CHTO   O39 1914   5.820   2.597   3.039 -0.6456 -0.2180 -0.0198
    5CHTO   C60 1915   5.718   2.551   3.130  0.3660  0.0328  0.0180
    5CHTO  H117 1916   5.641   2.528   3.056  2.2965  0.1450 -2.0653
    5CHTO   C62 1917   5.758   2.427   3.222 -0.4035 -0.1904 -0.3961
    5CHTO  H119 1918   5.787   2.347   3.150  1.3206 -1.2295  1.4088
    5CHTO   O43 1919   5.872   2.470   3.309 -0.8849  0.4944  0.3273
    5CHTO  H101 1920   5.845   2.530   3.376  1.9744 -0.9538  2.9028
    5CHTO   C66 1921   5.630   2.380   3.296 -0.5812  0.9103 -0.2946
    5CHTO  H123 1922   5.552   2.364   3.222 -0.5261  0.0398 -0.1780
    5CHTO   N12 1923   5.658   2.248   3.361  0.0679 -0.3866  0.0526
    5CHTO  H110 1924   5.740   2.261   3.430  0.4933 -0.2151 -0.4785
    5CHTO  H111 1925   5.568   2.225   3.417 -0.2504  0.2150 -0.2027
    5CHTO   C69 1926   5.589   2.488   3.398 -0.0088  0.0168 -0.0983
    5CHTO  H126 1927   5.660   2.516   3.478 -1.0505  1.8031  0.2362
    5CHTO   O41 1928   5.550   2.615   3.312 -0.8249  0.2877  0.3461
    5CHTO   C64 1929   5.664   2.665   3.216  0.4926  0.2727 -0.4352
    5CHTO  H121 1930   5.746   2.712   3.274  0.1427 -0.7717  0.9380
    5CHTO   C71 1931   5.597   2.775   3.134 -0.3087  0.1303  0.1567
    5CHTO   O47 1932   5.563   2.889   3.214  0.0867  0.7129 -0.0347
    5CHTO  H104 1933   5.529   2.959   3.161 -0.4840  2.4922  2.5825
    5CHTO   O34 1934   5.466   2.446   3.484  0.4108  0.5264  0.3466
    5CHTO   C49 1935   5.342   2.465   3.564 -0.2482 -0.0975  0.2784
    5CHTO   H91 1936   5.369   2.419   3.659  2.8596  1.5923  0.2816
    5CHTO   C47 1937   5.223   2.397   3.507 -0.5089  0.4444 -0.9777
    5CHTO   H89 1938   5.144   2.407   3.584  0.3103  3.0468 -0.4089
    5CHTO   O33 1939   5.250   2.257   3.480 -0.2863  0.0630  0.1668
    5CHTO   H70 1940   5.220   2.241   3.392 -0.4853  0.7428  0.1126
    5CHTO   C45 1941   5.181   2.485   3.374 -0.0632  0.1319  0.3540
    5CHTO   H87 1942   5.270   2.496   3.311  0.3472  2.7379  1.3208
    5CHTO    N8 1943   5.073   2.415   3.300  0.4423 -0.2235  0.5358
    5CHTO   H75 1944   5.095   2.309   3.297 -0.0001 -0.3361  1.1901
    5CHTO   H76 1945   4.978   2.433   3.349  0.2544 -1.3765  0.6103
    5CHTO   C43 1946   5.144   2.632   3.417  0.3942 -0.1388  0.2116
    5CHTO   H85 1947   5.118   2.676   3.321  0.1995  0.3580  0.4925
    5CHTO   O29 1948   5.252   2.699   3.484 -0.5929 -0.3845  0.1933
    5CHTO   C50 1949   5.317   2.621   3.587 -0.2807 -0.2540  0.0998
    5CHTO   H92 1950   5.419   2.658   3.606  0.9311 -2.8707 -0.9441
    5CHTO   C54 1951   5.250   2.659   3.727 -0.0306 -0.5968 -0.1841
    5CHTO   O36 1952   5.322   2.592   3.826  0.0357 -0.1815  0.2851
    5CHTO   H72 1953   5.313   2.499   3.818 -1.2601 -0.0912  0.6710
    5CHTO   O27 1954   5.026   2.629   3.502 -0.1045 -0.3789 -0.2599
    5CHTO   C37 1955   4.915   2.663   3.588 -0.5927  0.1482 -0.3470
    5CHTO   H79 1956   4.940   2.624   3.688 -1.6933  2.2169  0.7528
    5CHTO   C38 1957   4.891   2.823   3.590 -0.1928  0.4197 -0.8392
    5CHTO   H80 1958   4.881   2.862   3.487  1.7990  2.3960 -0.3341
    5CHTO   O31 1959   5.011   2.878   3.643  0.2176 -0.7812 -0.0511
    5CHTO   H68 1960   5.003   2.971   3.654 -1.9772 -0.8629 -0.8395
    5CHTO   C39 1961   4.766   2.848   3.689 -0.1691 -0.4612  0.0410
    5CHTO   H81 1962   4.806   2.802   3.779  1.1748  0.0348 -0.2959
    5CHTO    N7 1963   4.726   2.988   3.710  0.4901  0.4694  0.1385
    5CHTO   H73 1964   4.808   3.055   3.733  0.4019  0.0519  1.8022
    5CHTO   H74 1965   4.653   2.981   3.789 -0.5404 -0.1747 -0.8587
    5CHTO   C40 1966   4.641   2.763   3.644  0.4356 -0.5364 -0.3436
    5CHTO   H82 1967   4.605   2.806   3.550  0.1706  1.3102  0.5669
    5CHTO   O26 1968   4.677   2.624   3.628 -0.4832  0.0502 -0.7197
    5CHTO   C41 1969   4.789   2.590   3.539 -0.6557 -0.3059 -0.4799
    5CHTO   H83 1970   4.758   2.621   3.438 -0.0266  1.0092 -0.2792
    5CHTO   C52 1971   4.779   2.436   3.538 -0.2455 -0.4492  0.0932
    5CHTO   O35 1972   4.785   2.376   3.678  0.3424  0.1063 -0.1260
    5CHTO   H71 1973   4.718   2.315   3.703  0.3668 -0.0704 -0.4842
    5CHTO   O28 1974   4.530   2.744   3.732 -0.0627  0.1048  0.4671
    5CHTO   C42 1975   4.388   2.742   3.706 -1.1298 -1.0088  0.5377
    5CHTO   H84 1976   4.363   2.841   3.668  3.1681  2.7202  6.4973
    5CHTO   C44 1977   4.308   2.720   3.839  0.4474 -0.2543 -0.9483
    5CHTO   H86 1978   4.350   2.782   3.918 -2.0714  0.5991 -0.2177
    5CHTO   O32 1979   4.173   2.786   3.839 -0.9308  0.0722 -0.0241
    5CHTO   H69 1980   4.111   2.761   3.904  0.3080 -0.2557  1.0525
    5CHTO   C48 1981   4.294   2.574   3.884  0.1105 -0.3581 -0.5710
    5CHTO   H90 1982   4.191   2.540   3.872 -0.7348  2.1553 -0.5611
    5CHTO    N9 1983   4.325   2.548   4.028 -0.0986  0.2378 -0.6853
    5CHTO   H77 1984   4.290   2.452   4.061  0.5808  0.9815  2.3808
    5CHTO   H78 1985   4.428   2.562   4.061 -0.4614 -1.8039  1.5022
    5CHTO   C51 1986   4.377   2.485   3.785  0.3695 -0.2412 -0.0637
    5CHTO   H93 1987   4.479   2.523   3.786  0.3594 -0.2264  1.5900
    5CHTO   O30 1988   4.318   2.509   3.653  0.2589  0.0796  0.0490
    5CHTO   C46 1989   4.345   2.634   3.605  0.4896  0.6434  1.1190
    5CHTO   H88 1990   4.430   2.622   3.538 -0.3515 -0.7644  0.2821
    5CHTO   C53 1991   4.223   2.675   3.525  0.3696  0.1995 -0.4663
    5CHTO   O72 1992   4.222   2.597   3.407  0.2916  0.1808 -0.6369
    5CHTO  H199 1993   4.188   2.644   3.333 -1.5401  1.5395  1.0259
    5CHTO   O22 1994   4.364   2.346   3.812 -0.2722 -0.6978  0.0999
    5CHTO   C31 1995   4.398   2.213   3.752  0.2902  0.6792  0.2058
    5CHTO   H59 1996   4.305   2.152   3.761  0.3063  0.8571  1.5478
    5CHTO   C29 1997   4.440   2.218   3.602 -0.8360 -0.0446 -0.2126
    5CHTO   H57 1998   4.510   2.303   3.598 -1.8667  1.0073  2.9789
    5CHTO   O21 1999   4.329   2.241   3.520  0.5468  0.0347  0.1133
    5CHTO   H37 2000   4.364   2.242   3.433 -1.1261  1.9442 -0.5731
    5CHTO   C27 2001   4.519   2.087   3.562 -0.0680 -0.4355 -0.1214
    5CHTO   H55 2002   4.446   2.006   3.573  0.5343 -0.8400  1.0025
    5CHTO    N5 2003   4.566   2.092   3.425  0.1519 -0.1089  0.1144
    5CHTO   H43 2004   4.582   1.990   3.393 -2.4833 -0.5921  0.2367
    5CHTO   H44 2005   4.649   2.160   3.417  2.0035 -2.0605  2.0614
    5CHTO   C25 2006   4.635   2.053   3.667  0.0761  0.4031 -0.0750
    5CHTO   H53 2007   4.704   2.139   3.671 -0.2455  0.6566  0.0837
    5CHTO   O17 2008   4.576   2.033   3.794 -0.2830  0.0552  0.1198
    5CHTO   C32 2009   4.509   2.149   3.840  0.0639 -0.2480  0.5840
    5CHTO   H60 2010   4.586   2.225   3.855 -0.5986  1.1294 -2.5462
    5CHTO   C36 2011   4.459   2.113   3.986  0.2447  0.0275  0.1478
    5CHTO   O25 2012   4.443   2.224   4.076  0.8119  0.3958  0.6992
    5CHTO   H40 2013   4.385   2.200   4.146  0.0797  2.8706  0.9933
    5CHTO   O15 2014   4.725   1.921   3.645 -0.6786 -0.1485  0.9188
    5CHTO   C19 2015   4.846   1.905   3.719  0.2611  0.7889 -0.6516
    5CHTO   H47 2016   4.850   1.997   3.779 -0.8477 -1.2696  2.7016
    5CHTO   C20 2017   4.846   1.784   3.815 -0.0755  0.8935 -0.5983
    5CHTO   H48 2018   4.814   1.691   3.766 -1.3830  0.2419  1.4340
    5CHTO   O19 2019   4.741   1.816   3.909  0.5648  0.8454  0.2635
    5CHTO   H35 2020   4.658   1.826   3.866  0.4979  0.7646  0.3727
    5CHTO   C21 2021   4.989   1.764   3.881 -0.2365 -0.9320 -0.8463
    5CHTO   H49 2022   5.009   1.851   3.944  0.3710 -1.5659 -0.1461
    5CHTO    N4 2023   4.996   1.646   3.968 -0.0799  0.8014  0.2092
    5CHTO   H41 2024   5.057   1.675   4.053  0.7085  1.4242 -0.5537
    5CHTO   H42 2025   4.900   1.613   4.003 -0.1696  1.7631  0.8998
    5CHTO   C22 2026   5.100   1.764   3.777 -0.2347 -0.1766 -0.1707
    5CHTO   H50 2027   5.089   1.677   3.713 -1.5828  1.2064 -1.8674
    5CHTO   O14 2028   5.086   1.877   3.690 -0.2349 -0.6176 -0.0618
    5CHTO   C23 2029   4.962   1.901   3.626  0.2445  0.2356 -0.2818
    5CHTO   H51 2030   4.952   1.822   3.551  0.2729 -1.6165  1.6269
    5CHTO   C34 2031   4.968   2.026   3.537  0.4872  0.0845  0.3700
    5CHTO   O23 2032   4.980   2.144   3.617  0.1583  0.2319  0.0488
    5CHTO   H38 2033   4.896   2.136   3.659 -0.1997 -0.1606 -0.7265
    5CHTO   O16 2034   5.226   1.781   3.832 -0.1496 -0.4992 -0.5305
    5CHTO   C24 2035   5.358   1.720   3.725  0.0606  0.1637  0.2226
    5CHTO   H52 2036   5.319   1.691   3.627 -1.7827  0.0728  0.9550
    5CHTO   C26 2037   5.430   1.596   3.783  0.1050 -0.1417  0.3575
    5CHTO   H54 2038   5.467   1.619   3.885  0.7457 -1.0828  0.3414
    5CHTO   O20 2039   5.333   1.494   3.786 -0.1964  0.2275 -0.5186
    5CHTO   H36 2040   5.350   1.420   3.841 -0.8463 -0.4834 -1.2464
    5CHTO   C30 2041   5.560   1.561   3.707 -0.3312  0.1194 -0.2743
    5CHTO   H58 2042   5.534   1.528   3.606 -1.7396 -0.7678  0.3586
    5CHTO    N6 2043   5.622   1.438   3.768  0.1686 -0.4009  0.2833
    5CHTO   H45 2044   5.719   1.463   3.809 -0.0934  1.2272 -0.0332
    5CHTO   H46 2045   5.645   1.379   3.680 -2.1130 -2.4189  0.9943
    5CHTO   C33 2046   5.658   1.685   3.695  0.4513 -0.0164 -0.2370
    5CHTO   H61 2047   5.678   1.730   3.793 -0.8832  1.7809 -0.7551
    5CHTO   O18 2048   5.574   1.783   3.621 -0.1460  0.4560  0.4200
    5CHTO   C28 2049   5.467   1.831   3.702 -0.3258  0.3001 -0.4352
    5CHTO   H56 2050   5.501   1.865   3.800  1.7959 -1.2304 -0.5992
    5CHTO   C35 2051   5.393   1.944   3.643  0.6283  0.1380  0.7720
    5CHTO   O24 2052   5.474   2.060   3.639  0.2814 -0.1082  0.3302
    5CHTO   H39 2053   5.550   2.049   3.585 -0.5383 -0.0199 -0.8806
    5CHTO    O9 2054   5.790   1.666   3.634  0.1852  0.2277  0.1905
    5CHTO   C13 2055   5.788   1.650   3.475  1.1407  0.0115  0.3608
    5CHTO   H26 2056   5.691   1.606   3.442  1.3089 -2.4303  3.0018
    5CHTO   C11 2057   5.905   1.555   3.439 -0.4072 -0.4201  0.1465
    5CHTO   H24 2058   5.880   1.457   3.482 -0.2920 -0.6983 -0.4159
    5CHTO    O8 2059   6.034   1.601   3.481 -0.7018 -0.1331  0.2371
    5CHTO    H3 2060   6.101   1.561   3.428 -1.1561  0.0816 -0.5077
    5CHTO    C9 2061   5.897   1.535   3.282  0.1905  0.1970  0.5708
    5CHTO   H22 2062   5.798   1.490   3.265  1.0323 -0.9410 -1.4040
    5CHTO    N2 2063   5.985   1.432   3.229 -0.5728 -0.5706 -0.4230
    5CHTO   H10 2064   5.960   1.410   3.126 -0.2187 -0.8947 -0.4422
    5CHTO   H11 2065   5.979   1.349   3.298  0.4362  1.1699  1.8306
    5CHTO    C7 2066   5.909   1.676   3.212 -0.4499  0.7924  0.2066
    5CHTO   H20 2067   5.854   1.667   3.116  1.0390 -0.6381 -0.5369
    5CHTO    O4 2068   5.820   1.780   3.266  0.3176  0.2718  0.3431
    5CHTO   C14 2069   5.799   1.794   3.405  0.0628 -0.3935  0.4318
    5CHTO   H27 2070   5.702   1.846   3.417 -0.4530 -1.3168  0.3401
    5CHTO   C18 2071   5.906   1.887   3.474 -0.9489 -0.1449  0.0901
    5CHTO   O13 2072   5.857   1.939   3.594 -0.1049  0.1257 -0.6340
    5CHTO    H7 2073   5.928   1.942   3.655 -0.4461 -0.9105 -0.1719
    5CHTO    O2 2074   6.063   1.738   3.194 -0.9183 -0.5504  0.0702
    5CHTO    C1 2075   6.093   1.775   3.057 -0.7097 -0.1341  0.2928
    5CHTO   H14 2076   6.016   1.742   2.985  1.5907 -2.5053 -1.1910
    5CHTO    C2 2077   6.224   1.707   3.008  0.4537 -0.5312 -0.2297
    5CHTO   H15 2078   6.301   1.730   3.082  2.3355 -0.9118 -2.0350
    5CHTO    O6 2079   6.199   1.566   2.990 -0.3272 -0.3115  0.1149
    5CHTO    H1 2080   6.253   1.511   3.044  0.1157  1.3360  1.3758
    5CHTO    C3 2081   6.267   1.776   2.877 -0.4254 -0.0451 -0.2590
    5CHTO   H16 2082   6.203   1.750   2.792  0.4323  2.6148 -1.7582
    5CHTO    N1 2083   6.401   1.718   2.839 -0.1093  0.0817  0.4175
    5CHTO    H8 2084   6.397   1.612   2.821  1.5139  0.0197  0.3673
    5CHTO    H9 2085   6.488   1.740   2.899 -0.4313 -0.0594  0.9433
    5CHTO    C4 2086   6.274   1.933   2.889 -0.5602 -0.4723  0.3512
    5CHTO   H17 2087   6.345   1.961   2.967  0.8418  0.9406 -1.4050
    5CHTO    O1 2088   6.147   1.986   2.920  0.7665  0.3131 -0.0817
    5CHTO    C5 2089   6.095   1.934   3.045 -0.0071 -0.2451 -0.3892
    5CHTO   H18 2090   6.160   1.974   3.123  0.4348 -4.1016  1.3245
    5CHTO   C16 2091   5.954   2.002   3.062 -0.5104  0.2123  0.2177
    5CHTO   O11 2092   5.972   2.143   3.048 -0.0463  0.0908  0.6234
    5CHTO    H5 2093   5.898   2.193   3.076 -0.3476 -0.2595  0.4504
    5CHTO    O3 2094   6.315   1.992   2.761 -0.7222 -0.5873 -0.1982
    5CHTO    C6 2095   6.383   2.127   2.767 -0.5527  0.0343  0.8169
    5CHTO   H19 2096   6.372   2.165   2.868  0.2862 -1.7843  1.6309
    5CHTO    C8 2097   6.528   2.107   2.716 -0.2372  0.1550  0.0652
    5CHTO   H21 2098   6.522   2.077   2.612 -1.6952 -1.0355  0.4682
    5CHTO    O7 2099   6.593   2.013   2.801  1.0319 -0.2882  0.3698
    5CHTO    H2 2100   6.684   1.995   2.790  0.6370 -2.6589  0.6660
    5CHTO   C12 2101   6.604   2.245   2.725 -0.1564 -0.0748  0.2377
    5CHTO   H25 2102   6.591   2.279   2.830  0.5902 -0.0769  0.3314
    5CHTO    N3 2103   6.752   2.230   2.705  0.1798  0.7768  0.3191
    5CHTO   H12 2104   6.778   2.140   2.759  1.0558  0.0573 -1.2600
    5CHTO   H13 2105   6.768   2.211   2.599 -0.2721 -0.2513  0.4307
    5CHTO   C15 2106   6.531   2.345   2.630 -0.8969  0.3925 -0.1031
    5CHTO   H28 2107   6.538   2.311   2.527 -3.2424 -1.8101  0.3988
    5CHTO   O10 2108   6.577   2.484   2.637 -0.2962  0.7754  0.2505
    5CHTO    H4 2109   6.557   2.519   2.722 -1.1690  1.0085 -0.0457
    5CHTO    O5 2110   6.394   2.352   2.661 -0.1704 -0.0529 -0.3263
    5CHTO   C10 2111   6.315   2.226   2.670  0.3055 -0.2903  0.6362
    5CHTO   H23 2112   6.311   2.183   2.570 -1.3520 -1.6878  1.3001
    5CHTO   C17 2113   6.168   2.258   2.706 -0.1960 -0.1619 -0.0929
    5CHTO   O12 2114   6.083   2.141   2.693  0.6543  0.0691 -0.4154
    5CHTO    H6 2115   6.003   2.147   2.743  0.9845  0.7033  0.0436
    6CHTO  H203 2116   3.595   4.050   0.611  0.9645  1.4269  1.7023
    6CHTO   O82 2117   3.650   4.088   0.545  0.0825 -0.3000 -0.0595
    6CHTO  C123 2118   3.779   4.034   0.552  0.4515 -1.1747 -0.3517
    6CHTO  H227 2119   3.813   4.006   0.452  0.6452 -2.3630  0.0386
    6CHTO   O77 2120   3.858   4.142   0.603  0.1449 -0.2590 -0.0236
    6CHTO  C118 2121   4.002   4.120   0.614  0.9711 -0.2015 -0.2134
    6CHTO  H222 2122   4.031   4.075   0.518  0.0634 -0.6291 -0.2898
    6CHTO  C125 2123   4.071   4.259   0.624  0.3525  0.0838 -0.0615
    6CHTO   O84 2124   4.028   4.335   0.735  0.2204  0.4457  0.8639
    6CHTO  H205 2125   4.096   4.377   0.784  0.1707  1.0238  0.4479
    6CHTO  C114 2126   4.023   4.019   0.729  0.0300 -0.6614 -0.2657
    6CHTO  H218 2127   3.974   4.051   0.821  1.9436  0.5408  0.3790
    6CHTO  C116 2128   3.948   3.887   0.683 -0.5055 -0.1145 -0.1283
    6CHTO  H220 2129   4.003   3.846   0.596 -2.7050  2.3650 -2.7721
    6CHTO   O79 2130   3.970   3.780   0.769 -0.1529 -0.0146  1.0358
    6CHTO  H201 2131   3.914   3.708   0.751  1.9300 -1.1692 -1.2292
    6CHTO  C120 2132   3.799   3.914   0.644 -0.2548 -0.4120 -0.3176
    6CHTO  H224 2133   3.740   3.937   0.735  1.1855  0.4880  0.3950
    6CHTO   N21 2134   3.736   3.796   0.583  0.5517  0.2368  0.3987
    6CHTO  H211 2135   3.630   3.802   0.603  0.2668  0.5354 -1.1117
    6CHTO  H212 2136   3.769   3.697   0.608  1.1212  0.4302  0.4271
    6CHTO   O75 2137   4.166   4.007   0.749 -0.7746  0.0195 -0.1160
    6CHTO  C112 2138   4.215   4.041   0.893  0.4040 -0.2562  0.1184
    6CHTO  H216 2139   4.150   3.999   0.971 -0.8361  1.8072  0.2273
    6CHTO   O73 2140   4.220   4.185   0.905  0.0290 -0.3279 -0.0195
    6CHTO  C113 2141   4.245   4.211   1.049  0.4102  0.3112  0.2479
    6CHTO  H217 2142   4.173   4.156   1.113  0.4818  0.5747  0.5534
    6CHTO  C124 2143   4.218   4.360   1.066  0.2265 -0.3212  0.2055
    6CHTO   O83 2144   4.075   4.390   1.027 -0.2870 -0.4754  0.4171
    6CHTO  H204 2145   4.082   4.452   0.957 -0.9653 -0.7189  0.1292
    6CHTO  C109 2146   4.392   4.165   1.083  0.2404  0.7202  0.1523
    6CHTO  H213 2147   4.460   4.232   1.027  0.8510  0.1008  0.1471
    6CHTO  C110 2148   4.419   4.011   1.058  0.0748  0.4373 -0.5499
    6CHTO  H214 2149   4.370   3.950   1.134 -0.3719  2.7710  1.1190
    6CHTO   O78 2150   4.556   3.986   1.067 -0.2679  0.7040  0.4183
    6CHTO  H200 2151   4.570   3.904   1.109  1.8430 -0.9638 -3.3104
    6CHTO  C111 2152   4.359   3.981   0.918  0.7766  0.3378  0.4852
    6CHTO  H215 2153   4.427   4.016   0.838 -1.1619 -2.0863 -2.3646
    6CHTO   N19 2154   4.354   3.833   0.894  0.3862  0.7635 -0.2771
    6CHTO  H207 2155   4.252   3.798   0.885  0.1283  1.2930  0.5690
    6CHTO  H208 2156   4.400   3.812   0.798 -1.3875 -0.3714 -0.9062
    6CHTO   O74 2157   4.416   4.199   1.224  0.4180 -0.2177 -0.3930
    6CHTO  C115 2158   4.553   4.249   1.273  0.4112  1.0399 -0.3289
    6CHTO  H219 2159   4.634   4.190   1.230 -1.2521 -1.4726 -0.1655
    6CHTO   O76 2160   4.581   4.379   1.238  0.3426 -0.7226 -0.3272
    6CHTO  C122 2161   4.487   4.481   1.280 -0.6171 -0.4119  0.2232
    6CHTO  H226 2162   4.399   4.478   1.217 -0.0559  0.1325 -0.6026
    6CHTO  C126 2163   4.554   4.613   1.250 -0.4294 -0.9548 -0.3452
    6CHTO   O85 2164   4.578   4.629   1.114 -0.1872 -0.4953  0.0174
    6CHTO  H206 2165   4.670   4.628   1.096 -0.4687  2.1540 -1.9952
    6CHTO  C121 2166   4.450   4.462   1.435  0.0800  0.4934  0.3004
    6CHTO  H225 2167   4.458   4.564   1.480 -0.9173  0.4589  0.5692
    6CHTO   O81 2168   4.309   4.423   1.428 -0.4928 -0.2231 -0.5256
    6CHTO  H202 2169   4.290   4.354   1.367  1.0331 -0.3039 -0.9393
    6CHTO  C119 2170   4.551   4.362   1.513  0.1498  0.8171 -0.2849
    6CHTO  H223 2171   4.651   4.405   1.516 -0.3548  1.8448  1.9849
    6CHTO  C117 2172   4.563   4.221   1.436 -0.5232  0.1438  0.1909
    6CHTO  H221 2173   4.486   4.144   1.447 -1.0978  0.7522  0.4694
    6CHTO   N20 2174   4.695   4.153   1.467  0.1456 -0.3049  0.1578
    6CHTO  H209 2175   4.678   4.064   1.525  0.1800  0.2250  1.0037
    6CHTO  H210 2176   4.729   4.221   1.544  1.0363  0.4272 -0.8680
    6CHTO   O80 2177   4.519   4.344   1.660  0.4108 -0.0052 -0.0048
    6CHTO  C103 2178   4.646   4.328   1.774  0.4235 -0.6725 -0.0938
    6CHTO  H190 2179   4.692   4.229   1.768  0.3733 -0.6416 -1.0328
    6CHTO  C101 2180   4.758   4.444   1.758 -0.0822 -0.7009 -0.0742
    6CHTO  H188 2181   4.712   4.540   1.734 -1.6210 -1.4607 -0.2162
    6CHTO   O68 2182   4.873   4.409   1.641  0.2972 -0.2512 -0.1785
    6CHTO  H168 2183   4.841   4.416   1.553 -0.2979 -1.2152 -0.0379
    6CHTO   C99 2184   4.826   4.465   1.905 -0.2916 -0.0663 -0.0933
    6CHTO  H186 2185   4.902   4.385   1.918 -0.3609 -0.2363 -0.7262
    6CHTO   N17 2186   4.919   4.580   1.917 -0.0127 -0.1178 -0.2175
    6CHTO  H174 2187   4.874   4.665   1.969  3.6475  0.6605  1.8640
    6CHTO  H175 2188   5.014   4.556   1.963 -0.7277 -0.9261  0.8747
    6CHTO   C97 2189   4.729   4.456   2.029  0.3663 -0.0870  0.3024
    6CHTO  H184 2190   4.661   4.543   2.033 -1.0525 -1.1465 -0.2246
    6CHTO   O64 2191   4.659   4.337   2.023 -0.6733  0.0265 -0.3230
    6CHTO  C104 2192   4.569   4.331   1.910  0.1412 -0.5536  0.2194
    6CHTO  H191 2193   4.495   4.411   1.906 -1.0944 -1.5149  2.5601
    6CHTO  C108 2194   4.486   4.199   1.934  0.0806  0.2028  0.5582
    6CHTO   O71 2195   4.560   4.082   1.949  0.1982 -0.4668  0.1320
    6CHTO  H171 2196   4.632   4.075   1.889  1.0257 -3.2632  1.3559
    6CHTO   O62 2197   4.799   4.435   2.150 -0.4145 -0.2792 -0.6159
    6CHTO   C91 2198   4.734   4.487   2.266 -0.7997  0.3355  1.0758
    6CHTO  H178 2199   4.729   4.595   2.259 -1.2452  0.3240  1.1686
    6CHTO   C92 2200   4.835   4.463   2.383  0.5140 -0.2816 -1.0448
    6CHTO  H179 2201   4.932   4.505   2.352  1.4095 -1.6143 -0.1088
    6CHTO   O66 2202   4.787   4.541   2.492  0.2091 -0.0002  0.2739
    6CHTO  H166 2203   4.849   4.539   2.562  1.6082  1.1347 -0.9047
    6CHTO   C93 2204   4.840   4.308   2.426  0.4294  1.2516  0.1605
    6CHTO  H180 2205   4.861   4.291   2.532  0.4779 -0.0025 -0.0337
    6CHTO   N16 2206   4.948   4.234   2.350 -0.2981 -0.2139 -0.0953
    6CHTO  H172 2207   5.044   4.280   2.370  0.8882 -1.3360 -2.8010
    6CHTO  H173 2208   4.962   4.130   2.376 -0.0190  0.8571  4.3629
    6CHTO   C94 2209   4.698   4.243   2.395 -0.1919  0.7262  0.6196
    6CHTO  H181 2210   4.687   4.216   2.290  4.5311 -2.9131  0.9238
    6CHTO   O61 2211   4.590   4.338   2.411  0.6825 -0.3716  0.7323
    6CHTO   C95 2212   4.588   4.438   2.308 -0.0543  0.0250  0.4991
    6CHTO  H182 2213   4.532   4.389   2.228  1.0783 -1.5584  0.6530
    6CHTO  C106 2214   4.503   4.553   2.362  0.6364 -0.2457 -0.1321
    6CHTO   O69 2215   4.483   4.661   2.268 -0.4217 -0.2568 -0.3414
    6CHTO  H169 2216   4.400   4.658   2.224 -0.0405  1.8415 -1.2425
    6CHTO   O63 2217   4.685   4.107   2.464  0.6205 -0.4214  0.1297
    6CHTO   C96 2218   4.548   4.026   2.420 -0.0216  0.0180  0.0434
    6CHTO  H183 2219   4.520   4.059   2.319 -2.7543 -0.6780  0.5379
    6CHTO   C98 2220   4.430   4.045   2.507  0.2911  0.0023  0.6583
    6CHTO  H185 2221   4.455   4.000   2.605 -1.3144 -1.7592  0.2856
    6CHTO   O67 2222   4.404   4.186   2.534 -0.3552  0.1957  0.2871
    6CHTO  H167 2223   4.336   4.192   2.598 -1.0139 -3.2210  0.0442
    6CHTO  C102 2224   4.292   3.981   2.457 -0.0768 -0.4211 -0.1988
    6CHTO  H189 2225   4.251   4.055   2.387 -0.3312  1.2019  1.6297
    6CHTO   N18 2226   4.184   3.963   2.558 -0.1360  0.1367  0.8979
    6CHTO  H176 2227   4.101   3.906   2.519 -0.9769  2.6819 -1.1334
    6CHTO  H177 2228   4.151   4.064   2.579 -0.3679  0.4352 -0.8486
    6CHTO  C105 2229   4.328   3.848   2.378  0.0499 -0.1575 -0.7728
    6CHTO  H192 2230   4.250   3.775   2.400 -0.6066  1.0608  0.9965
    6CHTO   O65 2231   4.456   3.790   2.419  0.1920  0.9437 -0.5857
    6CHTO  C100 2232   4.576   3.875   2.417 -0.1295 -0.2851  0.7365
    6CHTO  H187 2233   4.641   3.842   2.499 -0.0420  2.7273  1.9494
    6CHTO  C107 2234   4.653   3.846   2.280 -0.1421 -0.3872  0.7448
    6CHTO   O70 2235   4.762   3.932   2.248 -0.6917  0.9681  0.0574
    6CHTO  H170 2236   4.798   3.890   2.172  3.1823  1.2463  1.6269
    6CHTO   O57 2237   4.327   3.881   2.232  0.0562  0.4889  0.4309
    6CHTO   C85 2238   4.232   3.817   2.142 -0.5525 -0.0406  0.7647
    6CHTO  H157 2239   4.155   3.781   2.214 -1.9041  0.6124 -0.3325
    6CHTO   C83 2240   4.294   3.699   2.064 -0.6279  0.2728 -0.0577
    6CHTO  H155 2241   4.348   3.634   2.132 -0.5885 -0.7535 -1.0535
    6CHTO   O56 2242   4.395   3.747   1.974  0.1028 -0.1336  0.3268
    6CHTO  H135 2243   4.471   3.783   2.016  1.2178 -0.0080 -1.7375
    6CHTO   C81 2244   4.189   3.622   1.979 -0.7475  0.1738  0.3058
    6CHTO  H153 2245   4.113   3.585   2.048  1.2640 -1.3354  1.7656
    6CHTO   N14 2246   4.247   3.498   1.921 -0.2612 -0.1109 -0.2534
    6CHTO  H141 2247   4.193   3.417   1.966 -1.2752  0.6725 -0.0435
    6CHTO  H142 2248   4.352   3.485   1.937 -0.5439  0.9162  2.8246
    6CHTO   C79 2249   4.124   3.723   1.874  0.6599  1.0298  0.0834
    6CHTO  H151 2250   4.029   3.677   1.845  0.2266  1.4031  0.8997
    6CHTO   O52 2251   4.081   3.853   1.929 -0.0075 -0.0968  0.4147
    6CHTO   C86 2252   4.169   3.913   2.031  0.4787  0.3331 -0.4695
    6CHTO  H158 2253   4.253   3.951   1.971  0.8382  0.0745 -0.1325
    6CHTO   C90 2254   4.094   4.033   2.084  0.4548 -0.2505  0.3703
    6CHTO   O60 2255   4.185   4.143   2.112 -0.3739  0.4607 -0.0758
    6CHTO  H138 2256   4.205   4.158   2.202  1.4544  0.8803 -0.5303
    6CHTO   O50 2257   4.192   3.747   1.753  0.0547  0.3039 -0.2691
    6CHTO   C73 2258   4.141   3.790   1.625 -0.3481 -0.0722  0.9989
    6CHTO  H145 2259   4.046   3.843   1.644 -0.8949 -0.3079 -1.0130
    6CHTO   C74 2260   4.111   3.674   1.527  0.0180  0.0345 -0.0919
    6CHTO  H146 2261   4.032   3.616   1.577 -0.4574  0.0243 -0.8422
    6CHTO   O54 2262   4.046   3.723   1.409  0.6978  0.3724  0.3415
    6CHTO  H133 2263   4.097   3.793   1.373  0.3742  1.4391  1.9266
    6CHTO   C75 2264   4.244   3.586   1.508 -0.1542  0.1487 -0.2662
    6CHTO  H147 2265   4.285   3.552   1.604  2.3799  1.8918 -0.6757
    6CHTO   N13 2266   4.223   3.472   1.411  0.9536  0.1050  0.7613
    6CHTO  H139 2267   4.168   3.391   1.456  1.8428 -1.8247 -1.5147
    6CHTO  H140 2268   4.187   3.502   1.314  1.0576 -3.2964 -0.3795
    6CHTO   C76 2269   4.360   3.680   1.453  0.4013  0.0395  0.6253
    6CHTO  H148 2270   4.339   3.696   1.347 -0.6501 -0.8384  0.6986
    6CHTO   O49 2271   4.360   3.808   1.529 -0.2831 -0.0115 -0.3611
    6CHTO   C77 2272   4.238   3.876   1.550 -0.5172 -0.3908 -0.6561
    6CHTO  H149 2273   4.198   3.903   1.453  1.5550  0.3023 -1.3454
    6CHTO   C88 2274   4.258   4.015   1.611 -0.5421  0.3113 -0.0788
    6CHTO   O58 2275   4.334   4.002   1.733 -0.0619 -0.6422 -0.3157
    6CHTO  H136 2276   4.388   4.077   1.746 -0.9429  0.1705 -1.2016
    6CHTO   O51 2277   4.513   3.617   1.484  0.3688  0.0196  0.1498
    6CHTO   C78 2278   4.628   3.720   1.459  0.1513 -0.9259  0.3905
    6CHTO  H150 2279   4.588   3.818   1.494 -0.4162 -1.9209  2.5869
    6CHTO   C80 2280   4.664   3.724   1.309 -0.7919 -0.0379  0.1911
    6CHTO  H152 2281   4.684   3.618   1.281  1.6228  0.7589 -1.2361
    6CHTO   O55 2282   4.548   3.769   1.240  0.5292  0.4436 -0.3626
    6CHTO  H134 2283   4.483   3.706   1.263  0.4794  0.9233  0.8364
    6CHTO   C84 2284   4.793   3.818   1.279 -0.8579  0.1718 -0.1849
    6CHTO  H156 2285   4.756   3.920   1.287 -2.7253 -0.3161 -1.9940
    6CHTO   N15 2286   4.840   3.805   1.138 -0.2725  0.3298 -0.5836
    6CHTO  H143 2287   4.843   3.702   1.107 -0.8992 -0.7026  2.5712
    6CHTO  H144 2288   4.792   3.868   1.066  1.0389  1.3329 -0.5876
    6CHTO   C87 2289   4.908   3.811   1.384  0.3730  0.1009  0.2581
    6CHTO  H159 2290   4.973   3.727   1.359  0.1906  0.6883 -2.3148
    6CHTO   O53 2291   4.846   3.789   1.535 -0.4290  0.0414  0.0557
    6CHTO   C82 2292   4.750   3.685   1.543 -0.2399 -0.1126 -0.1882
    6CHTO  H154 2293   4.790   3.592   1.503 -0.0007 -0.5467  1.0373
    6CHTO   C89 2294   4.723   3.662   1.696  0.9179  0.4838 -0.1743
    6CHTO   O59 2295   4.666   3.778   1.748  0.5836 -0.6701 -0.0158
    6CHTO  H137 2296   4.704   3.806   1.829  0.1762 -1.0996  0.3277
    6CHTO   O45 2297   4.983   3.942   1.397 -0.3152 -0.0137 -0.0026
    6CHTO   C67 2298   5.126   3.928   1.389 -0.9982 -0.9161  0.7847
    6CHTO  H124 2299   5.159   3.845   1.327  0.5095 -0.1529  0.5608
    6CHTO   C65 2300   5.185   4.062   1.328 -0.3431  0.0634 -0.2387
    6CHTO  H122 2301   5.123   4.076   1.240 -0.6322 -2.4924 -0.4774
    6CHTO   O44 2302   5.326   4.041   1.287 -0.7240 -0.6073  0.2967
    6CHTO  H102 2303   5.355   4.126   1.258 -1.3709  0.2013  1.9614
    6CHTO   C63 2304   5.150   4.182   1.416 -0.1346  0.2148 -0.3907
    6CHTO  H120 2305   5.042   4.193   1.426 -0.1640 -0.1145 -0.3416
    6CHTO   N11 2306   5.187   4.320   1.357 -0.3180  0.1286  0.0535
    6CHTO  H108 2307   5.103   4.377   1.323 -0.4118  0.0689  0.1847
    6CHTO  H109 2308   5.232   4.385   1.429 -0.7037  0.0372  0.3784
    6CHTO   C61 2309   5.204   4.147   1.560 -0.0256  0.3107 -0.1888
    6CHTO  H118 2310   5.150   4.220   1.622  3.2603  0.9031  2.1366
    6CHTO   O40 2311   5.181   4.015   1.614  0.0719 -0.3362 -0.3191
    6CHTO   C68 2312   5.172   3.898   1.536  0.5637  0.2561 -0.1179
    6CHTO  H125 2313   5.096   3.845   1.596  1.2611  0.1331  0.6703
    6CHTO   C72 2314   5.291   3.810   1.538 -0.0222  0.7128 -0.0475
    6CHTO   O48 2315   5.264   3.690   1.462 -0.4767 -0.8473 -0.3155
    6CHTO  H105 2316   5.240   3.629   1.529 -0.9385  0.1114  0.3901
    6CHTO   O38 2317   5.343   4.174   1.569  0.1639 -0.4200  0.0218
    6CHTO   C55 2318   5.393   4.235   1.695  0.2542 -0.1877 -0.4194
    6CHTO  H112 2319   5.338   4.194   1.781 -0.0881  2.1424  0.5168
    6CHTO   C56 2320   5.391   4.396   1.696  0.1337 -0.6715 -0.1337
    6CHTO  H113 2321   5.425   4.424   1.595  1.2532 -1.6315 -0.0321
    6CHTO   O42 2322   5.253   4.442   1.708  0.3784  0.4166  0.3857
    6CHTO  H100 2323   5.225   4.453   1.619 -2.1110 -2.2423  0.7285
    6CHTO   C57 2324   5.482   4.461   1.803 -0.2276 -0.1491  0.0711
    6CHTO  H114 2325   5.434   4.437   1.898  1.8246 -1.7316  0.7426
    6CHTO   N10 2326   5.487   4.607   1.783 -0.7019 -0.0114  0.2436
    6CHTO  H106 2327   5.580   4.644   1.824  1.0771 -0.2643 -3.3300
    6CHTO  H107 2328   5.484   4.636   1.678  1.5768  1.7686  0.6184
    6CHTO   C58 2329   5.617   4.391   1.793  0.2662 -0.1620  0.3107
    6CHTO  H115 2330   5.660   4.411   1.693 -1.9947 -0.7008 -0.8023
    6CHTO   O37 2331   5.616   4.249   1.823 -0.4282 -1.1882  0.0478
    6CHTO   C59 2332   5.541   4.181   1.723 -0.2625  0.1293  0.4267
    6CHTO  H116 2333   5.601   4.182   1.632  1.1327  0.1253  1.3407
    6CHTO   C70 2334   5.533   4.035   1.766  0.2132  0.3058 -0.1476
    6CHTO   O46 2335   5.650   3.979   1.827 -0.5963  0.1074 -0.0588
    6CHTO  H103 2336   5.623   3.904   1.876  1.2508 -0.1562  0.5926
    6CHTO   O39 2337   5.725   4.450   1.896  0.3391 -0.0564  0.2485
    6CHTO   C60 2338   5.863   4.432   1.858 -0.2481  0.6972 -0.2341
    6CHTO  H117 2339   5.886   4.338   1.808 -0.5057  0.4727  0.0678
    6CHTO   C62 2340   5.883   4.552   1.760  0.1313  0.3822  0.2173
    6CHTO  H119 2341   5.827   4.534   1.666 -1.3436 -3.1178  1.6854
    6CHTO   O43 2342   5.842   4.677   1.828 -0.3509  0.2633 -0.5201
    6CHTO  H101 2343   5.897   4.747   1.798  0.8294  0.3440  1.7100
    6CHTO   C66 2344   6.038   4.565   1.712  0.4730 -0.1427  0.0528
    6CHTO  H123 2345   6.067   4.475   1.658  1.6416  0.1090  0.2640
    6CHTO   N12 2346   6.066   4.676   1.606  0.0498  0.2290 -0.1364
    6CHTO  H110 2347   5.972   4.730   1.600 -0.0310  0.1239  0.1826
    6CHTO  H111 2348   6.076   4.621   1.514 -1.8672 -3.2299  1.6302
    6CHTO   C69 2349   6.139   4.571   1.834  0.2203 -0.2988 -0.5184
    6CHTO  H126 2350   6.131   4.669   1.886  0.1646  0.4341 -1.8943
    6CHTO   O41 2351   6.102   4.454   1.933 -0.0534 -0.2507  0.0581
    6CHTO   C64 2352   5.961   4.442   1.978  0.5013  0.7927  0.4814
    6CHTO  H121 2353   5.933   4.532   2.037 -2.9560 -0.5804  1.0307
    6CHTO   C71 2354   5.959   4.323   2.077 -0.3349  0.4368  0.3733
    6CHTO   O47 2355   6.042   4.212   2.038  0.5784  0.2271  0.4641
    6CHTO  H104 2356   6.019   4.187   1.951  0.6412  2.9744 -0.3873
    6CHTO   O34 2357   6.281   4.561   1.784 -0.4529 -0.0541  0.6509
    6CHTO   C49 2358   6.384   4.683   1.766  0.3619 -0.1229  0.1815
    6CHTO   H91 2359   6.333   4.751   1.699 -1.0511 -1.3000  0.0397
    6CHTO   C47 2360   6.509   4.629   1.694 -1.2245  0.1540 -0.7892
    6CHTO   H89 2361   6.585   4.709   1.684 -1.7431  0.5160 -1.9335
    6CHTO   O33 2362   6.463   4.582   1.562 -0.1997  0.1245  0.7894
    6CHTO   H70 2363   6.429   4.496   1.576  0.1216 -0.2225 -0.4980
    6CHTO   C45 2364   6.573   4.517   1.782  0.3494  1.0428  0.2689
    6CHTO   H87 2365   6.499   4.436   1.793  0.5377  0.5706 -1.6819
    6CHTO    N8 2366   6.700   4.459   1.722 -0.6568 -0.1385 -0.8677
    6CHTO   H75 2367   6.684   4.359   1.683  0.5102  0.9145 -4.1585
    6CHTO   H76 2368   6.774   4.448   1.799 -1.0920  1.2287 -0.2353
    6CHTO   C43 2369   6.590   4.569   1.941  0.2318  0.1985  0.5291
    6CHTO   H85 2370   6.602   4.479   2.002 -0.3615 -0.9984 -1.0824
    6CHTO   O29 2371   6.483   4.650   1.986 -0.3124  0.3366 -0.6503
    6CHTO   C50 2372   6.421   4.743   1.901 -0.1915  0.6920  0.6505
    6CHTO   H92 2373   6.334   4.767   1.963  0.7837  1.5508  1.7050
    6CHTO   C54 2374   6.494   4.874   1.898  0.5213 -0.5051 -0.4614
    6CHTO   O36 2375   6.525   4.952   2.017  0.2489  0.2342  0.1747
    6CHTO   H72 2376   6.443   4.983   2.052 -0.0872 -1.2303  0.7165
    6CHTO   O27 2377   6.715   4.639   1.951  0.2851 -0.4951  0.1362
    6CHTO   C37 2378   6.804   4.644   2.063  0.0948 -0.0849  0.2311
    6CHTO   H79 2379   6.793   4.549   2.117  1.1046  0.4084  1.3494
    6CHTO   C38 2380   6.947   4.656   2.004 -0.6654  0.6865  0.0989
    6CHTO   H80 2381   6.951   4.746   1.940 -1.3539 -0.1725 -1.1681
    6CHTO   O31 2382   6.976   4.536   1.928  0.1936 -0.6622 -0.2044
    6CHTO   H68 2383   7.047   4.556   1.870 -1.0287  1.8199 -0.8995
    6CHTO   C39 2384   7.052   4.665   2.127  1.0497 -0.1481 -0.0777
    6CHTO   H81 2385   7.047   4.577   2.191  0.1495 -0.5683 -0.7245
    6CHTO    N7 2386   7.191   4.673   2.080  0.3536  0.1683  0.0943
    6CHTO   H73 2387   7.238   4.577   2.096  1.0238  0.5692  0.5363
    6CHTO   H74 2388   7.200   4.689   1.973  0.7435 -1.9182 -0.1962
    6CHTO   C40 2389   7.016   4.788   2.222  0.0591  0.2327  0.0106
    6CHTO   H82 2390   7.019   4.878   2.162 -0.7146 -0.0656 -0.4719
    6CHTO   O26 2391   6.885   4.764   2.272  0.0335  0.1985 -0.1661
    6CHTO   C41 2392   6.779   4.762   2.170 -1.0281 -0.2057  0.7747
    6CHTO   H83 2393   6.781   4.860   2.118  1.0129 -0.9788 -0.6830
    6CHTO   C52 2394   6.646   4.752   2.255  0.3896  0.1811 -0.5195
    6CHTO   O35 2395   6.632   4.629   2.297 -0.8079 -0.6539 -0.7479
    6CHTO   H71 2396   6.554   4.585   2.269 -1.5040  0.6316 -0.8370
    6CHTO   O28 2397   7.094   4.798   2.341  0.1200  0.2386  0.6755
    6CHTO   C42 2398   7.096   4.908   2.433 -0.0231  0.4463 -0.6235
    6CHTO   H84 2399   7.015   4.974   2.402 -1.2567 -0.8704 -0.2546
    6CHTO   C44 2400   7.229   4.993   2.424 -0.1749 -1.0188 -0.4511
    6CHTO   H86 2401   7.313   4.926   2.443  1.7022  1.7731  1.5915
    6CHTO   O32 2402   7.231   5.039   2.293 -0.0114 -0.5902 -0.1645
    6CHTO   H69 2403   7.260   4.970   2.236  1.7684 -1.4508  1.7453
    6CHTO   C48 2404   7.233   5.116   2.525  0.0635  0.8439 -0.7033
    6CHTO   H90 2405   7.164   5.194   2.495  0.0827  0.9672 -0.4287
    6CHTO    N9 2406   7.360   5.187   2.532 -0.1330  0.5162  1.1450
    6CHTO   H77 2407   7.427   5.172   2.449  0.1621  0.4506  1.3966
    6CHTO   H78 2408   7.415   5.181   2.625  0.8114  1.7578  0.6828
    6CHTO   C51 2409   7.192   5.058   2.669 -0.0989  0.7028  0.1474
    6CHTO   H93 2410   7.263   4.986   2.709 -0.6004  0.5355  0.7523
    6CHTO   O30 2411   7.061   4.998   2.655 -0.6782  0.1768 -0.2462
    6CHTO   C46 2412   7.077   4.868   2.578  0.5520 -0.5035  0.1545
    6CHTO   H88 2413   7.155   4.809   2.627  0.7020 -0.5875 -0.1898
    6CHTO   C53 2414   6.943   4.793   2.604 -0.6387  0.4828 -0.5158
    6CHTO   O72 2415   6.941   4.753   2.743  0.5706 -0.1406  0.5853
    6CHTO  H199 2416   6.864   4.701   2.758 -1.1335  2.3112  0.5692
    6CHTO   O22 2417   7.179   5.170   2.759  0.0486 -0.2227 -0.3694
    6CHTO   C31 2418   7.101   5.178   2.883 -0.1032 -0.7435  0.3730
    6CHTO   H59 2419   7.038   5.087   2.885  1.5662 -1.9482 -0.6500
    6CHTO   C29 2420   7.195   5.179   3.001 -0.2743  0.2827 -0.2874
    6CHTO   H57 2421   7.273   5.256   2.998  0.1419  0.0481  2.7217
    6CHTO   O21 2422   7.268   5.054   3.003  0.3518 -0.3244 -0.4702
    6CHTO   H37 2423   7.290   5.032   2.914 -0.6916  0.3221 -0.8951
    6CHTO   C27 2424   7.124   5.195   3.137  0.6247 -0.6634  0.1067
    6CHTO   H55 2425   7.061   5.107   3.156 -2.7269  1.6513  0.2554
    6CHTO    N5 2426   7.213   5.208   3.255  0.2999 -0.2261 -0.0982
    6CHTO   H43 2427   7.263   5.304   3.259  0.8558 -0.5572  1.0543
    6CHTO   H44 2428   7.283   5.126   3.254  2.8956  1.8248  2.5262
    6CHTO   C25 2429   7.013   5.308   3.132 -0.2797 -0.1522 -0.6329
    6CHTO   H53 2430   7.068   5.403   3.138  0.4043 -0.6721  2.9836
    6CHTO   O17 2431   6.932   5.306   3.007 -0.4924 -0.3127  0.0668
    6CHTO   C32 2432   7.003   5.298   2.883 -0.2425  0.4603  1.0030
    6CHTO   H60 2433   7.066   5.387   2.872  1.2871 -0.6087  0.9665
    6CHTO   C36 2434   6.906   5.299   2.757  0.7538 -0.0312 -0.1320
    6CHTO   O25 2435   6.838   5.419   2.723 -0.7824 -0.3602  0.3305
    6CHTO   H40 2436   6.823   5.406   2.632  1.6301 -1.7008  0.0799
    6CHTO   O15 2437   6.921   5.307   3.259  0.2989  0.1469  0.2152
    6CHTO   C19 2438   6.824   5.408   3.274  0.3137 -0.4142  0.2659
    6CHTO   H47 2439   6.796   5.397   3.380 -0.1345  1.4660  0.3649
    6CHTO   C20 2440   6.869   5.557   3.255 -0.0052 -0.1468  0.1413
    6CHTO   H48 2441   6.919   5.572   3.158  2.4601  0.3059  1.4242
    6CHTO   O19 2442   6.979   5.572   3.347 -0.0725  0.6483 -0.0604
    6CHTO   H35 2443   7.045   5.628   3.313 -0.8225  0.4225 -1.9446
    6CHTO   C21 2444   6.745   5.663   3.280 -0.0042  0.3675 -0.6950
    6CHTO   H49 2445   6.734   5.676   3.387  2.0439  0.4454 -0.4737
    6CHTO    N4 2446   6.784   5.800   3.232 -0.0008  0.2253 -0.2999
    6CHTO   H41 2447   6.705   5.872   3.248  1.3450  2.1571 -2.0571
    6CHTO   H42 2448   6.816   5.799   3.129 -0.9588  0.0392 -0.5996
    6CHTO   C22 2449   6.615   5.618   3.205 -0.4865 -0.0146  0.1214
    6CHTO   H50 2450   6.632   5.629   3.098  3.1766  0.9602  0.6995
    6CHTO   O14 2451   6.589   5.481   3.247  0.0908  0.3850  0.6491
    6CHTO   C23 2452   6.689   5.391   3.192  0.3727  0.1579 -0.1392
    6CHTO   H51 2453   6.711   5.408   3.085 -0.9248  0.5005 -0.3589
    6CHTO   C34 2454   6.631   5.251   3.203 -0.2383  0.1257  0.1538
    6CHTO   O23 2455   6.514   5.239   3.115  0.0117  0.1310 -0.1502
    6CHTO   H38 2456   6.545   5.250   3.027 -0.8891  0.3061 -0.4583
    6CHTO   O16 2457   6.498   5.689   3.252  0.1834 -0.4697 -0.6892
    6CHTO   C24 2458   6.372   5.697   3.151  0.7796 -0.1477  0.3909
    6CHTO   H52 2459   6.389   5.645   3.057  1.4909 -3.0179  2.0321
    6CHTO   C26 2460   6.374   5.843   3.121 -0.2269 -0.4398  1.3080
    6CHTO   H54 2461   6.374   5.898   3.218  1.4842  0.9000  0.5733
    6CHTO   O20 2462   6.499   5.878   3.062  0.5365  0.1855 -0.2668
    6CHTO   H36 2463   6.494   5.954   3.008  0.4665  0.7142  0.4816
    6CHTO   C30 2464   6.258   5.883   3.021  0.6738  0.3363 -1.1041
    6CHTO   H58 2465   6.283   5.844   2.921  0.9466  1.7808 -1.6096
    6CHTO    N6 2466   6.245   6.034   3.017  1.0363 -0.1507  0.2833
    6CHTO   H45 2467   6.178   6.067   2.939 -1.5261 -1.2261  1.9276
    6CHTO   H46 2468   6.340   6.083   3.007  0.2173  2.0276  2.5070
    6CHTO   C33 2469   6.118   5.822   3.064 -1.0089  0.2600 -0.3169
    6CHTO   H61 2470   6.080   5.877   3.151 -0.0999  2.6094 -1.3783
    6CHTO   O18 2471   6.144   5.682   3.100  0.1685  0.2950 -0.0982
    6CHTO   C28 2472   6.233   5.657   3.203  0.1625  0.6967  0.6608
    6CHTO   H56 2473   6.213   5.722   3.289 -2.4641  0.7646  0.0536
    6CHTO   C35 2474   6.211   5.510   3.262 -0.2690 -0.2039  0.2469
    6CHTO   O24 2475   6.068   5.490   3.301 -0.0605  0.1044 -0.4931
    6CHTO   H39 2476   6.041   5.402   3.287 -0.4546  0.2470 -0.6321
    6CHTO    O9 2477   6.019   5.841   2.958 -0.0577 -0.2251  0.3750
    6CHTO   C13 2478   5.873   5.869   3.000  0.4164  0.2388  0.1662
    6CHTO   H26 2479   5.866   5.961   3.062  0.2579 -0.0842  0.6354
    6CHTO   C11 2480   5.820   5.739   3.077 -0.0520  0.3269  0.2621
    6CHTO   H24 2481   5.873   5.723   3.172 -2.2342  0.5504  1.5769
    6CHTO    O8 2482   5.837   5.622   2.992 -0.0831 -0.6151 -0.0835
    6CHTO    H3 2483   5.917   5.578   3.011  0.7204  0.4626 -0.9191
    6CHTO    C9 2484   5.669   5.771   3.115  1.1305  0.3736  0.0671
    6CHTO   H22 2485   5.667   5.859   3.181 -2.2086 -1.2412  2.2504
    6CHTO    N2 2486   5.605   5.673   3.205  0.3967  0.0787 -0.0019
    6CHTO   H10 2487   5.654   5.636   3.294  0.2142 -0.0453  0.0463
    6CHTO   H11 2488   5.499   5.683   3.219  0.1272 -0.7167 -1.4514
    6CHTO    C7 2489   5.581   5.796   2.977  0.3974  0.3642 -0.0038
    6CHTO   H20 2490   5.515   5.881   3.007 -1.3410 -0.9224 -0.1433
    6CHTO    O4 2491   5.661   5.817   2.861  0.0755 -0.1582 -0.1818
    6CHTO   C14 2492   5.779   5.905   2.870  0.4710  0.7417  0.4743
    6CHTO   H27 2493   5.730   6.001   2.894 -0.0231  0.7384 -0.5012
    6CHTO   C18 2494   5.861   5.933   2.747  0.5417 -0.2131 -0.6198
    6CHTO   O13 2495   5.905   5.806   2.700  0.2099 -0.2120 -0.0536
    6CHTO    H7 2496   5.831   5.761   2.662  0.0972  0.6449 -0.8650
    6CHTO    O2 2497   5.464   5.669   2.937  0.0852 -0.5008  0.0804
    6CHTO    C1 2498   5.355   5.708   2.858 -0.4729  0.3016  0.3589
    6CHTO   H14 2499   5.374   5.806   2.810 -1.2224  0.4001  0.2649
    6CHTO    C2 2500   5.220   5.726   2.943  0.4756  0.1021  0.2547
    6CHTO   H15 2501   5.201   5.627   2.986 -2.2628 -0.0182 -1.1660
    6CHTO    O6 2502   5.239   5.818   3.055  0.0716 -0.3159  0.0140
    6CHTO    H1 2503   5.182   5.893   3.066  0.9141  0.2859  0.2949
    6CHTO    C3 2504   5.100   5.770   2.840  0.1219 -0.3282  0.9324
    6CHTO   H16 2505   5.105   5.874   2.804 -1.7810 -0.8329 -0.9024
    6CHTO    N1 2506   4.968   5.765   2.914 -0.4238  0.3727 -0.7315
    6CHTO    H8 2507   4.974   5.821   3.006  0.4260  0.2074 -0.6789
    6CHTO    H9 2508   4.888   5.810   2.857 -2.3078 -0.9768  0.7512
    6CHTO    C4 2509   5.102   5.683   2.713 -0.1518  0.0490 -0.8553
    6CHTO   H17 2510   5.075   5.583   2.747 -0.1943 -0.2728 -1.8249
    6CHTO    O1 2511   5.231   5.670   2.656 -0.4490 -0.4801  0.3144
    6CHTO    C5 2512   5.331   5.614   2.739 -0.3356  0.6850 -0.0801
    6CHTO   H18 2513   5.306   5.515   2.779  0.1058  0.5285 -0.1820
    6CHTO   C16 2514   5.460   5.603   2.648  0.1375  0.4247  0.2516
    6CHTO   O11 2515   5.436   5.520   2.530  0.5187  0.1836  0.8046
    6CHTO    H5 2516   5.390   5.442   2.554 -0.5643  0.7886  0.7300
    6CHTO    O3 2517   5.014   5.710   2.606  0.4855  0.5562  0.1330
    6CHTO    C6 2518   5.010   5.840   2.537 -0.0711  0.4319 -0.4700
    6CHTO   H19 2519   4.984   5.917   2.610  0.2069  0.5246 -0.4665
    6CHTO    C8 2520   5.134   5.879   2.450  0.1213  0.3548  0.0868
    6CHTO   H21 2521   5.158   5.789   2.393  1.6578  1.4170 -0.9923
    6CHTO    O7 2522   5.247   5.913   2.536 -0.0009  0.7098 -0.2638
    6CHTO    H2 2523   5.275   5.844   2.592 -0.9970  0.1980 -0.3869
    6CHTO   C12 2524   5.118   5.988   2.340  0.1532 -0.5740  0.0683
    6CHTO   H25 2525   5.125   6.085   2.395  0.6800 -1.4247  1.5143
    6CHTO    N3 2526   5.222   5.975   2.236 -0.2172 -0.1463  0.2813
    6CHTO   H12 2527   5.205   5.895   2.166 -0.0056 -0.4326  0.5560
    6CHTO   H13 2528   5.237   6.068   2.183 -0.2795 -1.4693 -2.1136
    6CHTO   C15 2529   4.977   5.979   2.278  0.2952  0.3152 -0.5681
    6CHTO   H28 2530   4.975   5.895   2.209  3.1944  0.7073 -1.1933
    6CHTO   O10 2531   4.948   6.099   2.213 -0.3087 -0.5081 -0.5639
    6CHTO    H4 2532   4.899   6.165   2.258  2.1487  1.9612 -1.3901
    6CHTO    O5 2533   4.881   5.953   2.372  0.7492 -0.6133  0.1280
    6CHTO   C10 2534   4.893   5.829   2.442 -0.1421  0.0395 -0.3308
    6CHTO   H23 2535   4.901   5.742   2.377  0.3384 -0.2360  0.0850
    6CHTO   C17 2536   4.764   5.803   2.525  0.1210 -0.2011  0.4166
    6CHTO   O12 2537   4.639   5.827   2.449  0.2384 -0.2808 -0.4773
    6CHTO    H6 2538   4.571   5.853   2.508  0.1988 -1.4413  0.0106
    7CHTO  H203 2539   4.260   1.141   0.635  0.1888 -2.1584 -0.6456
    7CHTO   O82 2540   4.351   1.163   0.628 -0.2714  0.2321  0.2602
    7CHTO  C123 2541   4.417   1.138   0.502 -0.3362  0.0692  0.8240
    7CHTO  H227 2542   4.356   1.074   0.436 -0.9890 -1.4611  2.8520
    7CHTO   O77 2543   4.443   1.280   0.450 -0.2283 -0.3179 -0.2179
    7CHTO  C118 2544   4.526   1.296   0.335  0.2360 -0.4169  0.2787
    7CHTO  H222 2545   4.472   1.262   0.245  0.9223 -1.8340  0.3800
    7CHTO  C125 2546   4.543   1.450   0.325 -0.4036 -0.4852  0.4857
    7CHTO   O84 2547   4.610   1.502   0.213  0.2216  0.1402  0.0994
    7CHTO  H205 2548   4.577   1.457   0.138  1.5096  0.1310 -0.4748
    7CHTO  C114 2549   4.664   1.229   0.350 -0.3484 -0.6219 -0.2364
    7CHTO  H218 2550   4.721   1.264   0.437  1.4816 -2.7481 -0.5297
    7CHTO  C116 2551   4.641   1.080   0.389 -0.3919 -0.2642 -0.5050
    7CHTO  H220 2552   4.600   1.027   0.301  0.1954 -0.9112 -0.3895
    7CHTO   O79 2553   4.771   1.021   0.406  0.3911 -0.4941 -0.6464
    7CHTO  H201 2554   4.752   0.929   0.407 -1.0083 -0.2090  0.0675
    7CHTO  C120 2555   4.555   1.068   0.522  1.2428 -0.1189 -0.5364
    7CHTO  H224 2556   4.608   1.115   0.607  1.3031 -1.8366  0.3927
    7CHTO   N21 2557   4.540   0.925   0.558  0.0257 -0.2433  0.6146
    7CHTO  H211 2558   4.619   0.888   0.622 -1.4157 -2.6876  1.0519
    7CHTO  H212 2559   4.444   0.895   0.599 -0.4093  4.8084  3.8195
    7CHTO   O75 2560   4.749   1.250   0.228  0.3740 -0.3899 -0.6327
    7CHTO  C112 2561   4.907   1.339   0.265 -0.1197 -0.4238 -0.2541
    7CHTO  H216 2562   4.960   1.264   0.326  0.3999  0.0646 -0.1082
    7CHTO   O73 2563   4.881   1.459   0.344  0.0860  0.0538 -0.1676
    7CHTO  C113 2564   5.004   1.517   0.396  0.0657 -0.4190  0.2739
    7CHTO  H217 2565   5.063   1.439   0.450  0.2865 -1.6719 -1.7210
    7CHTO  C124 2566   4.966   1.619   0.504 -0.1927  0.4487 -0.2627
    7CHTO   O83 2567   5.071   1.651   0.593 -0.6910 -0.0602  0.5697
    7CHTO  H204 2568   5.052   1.732   0.637 -1.0818 -0.3540  0.9514
    7CHTO  C109 2569   5.078   1.567   0.268 -0.1858 -0.2699 -0.1253
    7CHTO  H213 2570   5.013   1.645   0.227 -0.3524 -0.8270 -0.9175
    7CHTO  C110 2571   5.108   1.456   0.164 -0.1037 -0.7415  0.0760
    7CHTO  H214 2572   5.184   1.394   0.212  1.9065  0.5192 -1.3486
    7CHTO   O78 2573   5.154   1.515   0.036  0.3756  0.3340 -0.3621
    7CHTO  H200 2574   5.087   1.571   0.004 -0.8987 -0.0091  1.6334
    7CHTO  C111 2575   4.974   1.378   0.130 -0.3051  0.1694 -0.1723
    7CHTO  H215 2576   4.900   1.442   0.082  0.8367 -0.0481 -2.3043
    7CHTO   N19 2577   4.994   1.259   0.044 -0.4926 -0.1300 -0.0184
    7CHTO  H207 2578   5.078   1.215   0.094 -0.3946 -0.1338 -0.1874
    7CHTO  H208 2579   5.023   1.288  -0.056 -1.4961 -1.1903 -0.6354
    7CHTO   O74 2580   5.206   1.629   0.308  0.2402  0.5605  0.0108
    7CHTO  C115 2581   5.227   1.783   0.259 -0.1506  0.9779  0.2651
    7CHTO  H219 2582   5.155   1.810   0.181  1.2517 -0.7211 -1.7038
    7CHTO   O76 2583   5.213   1.885   0.375 -0.0703  0.3533 -0.4380
    7CHTO  C122 2584   5.322   1.899   0.466 -0.1924  0.0134 -0.2073
    7CHTO  H226 2585   5.327   1.810   0.530 -1.7762 -0.6482 -0.9750
    7CHTO  C126 2586   5.282   2.023   0.568 -0.3087  0.3169 -0.3578
    7CHTO   O85 2587   5.271   2.150   0.493 -0.6736 -0.4046  0.3547
    7CHTO  H206 2588   5.243   2.217   0.553  0.0929 -1.2128  1.6380
    7CHTO  C121 2589   5.454   1.928   0.401 -0.3996  0.0938 -0.6635
    7CHTO  H225 2590   5.444   2.018   0.337 -1.5864  0.1025 -0.4781
    7CHTO   O81 2591   5.562   1.944   0.495 -0.0253  0.2142  0.3263
    7CHTO  H202 2592   5.605   2.025   0.476  1.5951 -0.5595  0.6545
    7CHTO  C119 2593   5.474   1.798   0.316 -0.0687  0.2368 -0.3574
    7CHTO  H223 2594   5.567   1.805   0.259 -0.4144 -0.3618 -1.0099
    7CHTO  C117 2595   5.365   1.790   0.203 -0.4404  0.4151  0.3677
    7CHTO  H221 2596   5.367   1.702   0.138  2.9104  1.2860 -0.8288
    7CHTO   N20 2597   5.381   1.902   0.106 -0.2365 -0.1656 -0.5023
    7CHTO  H209 2598   5.317   1.892   0.020  1.2353 -0.1500 -1.6197
    7CHTO  H210 2599   5.475   1.898   0.052 -0.1065  1.6291 -0.4554
    7CHTO   O80 2600   5.496   1.671   0.394  0.1786  0.6171 -0.4398
    7CHTO  C103 2601   5.538   1.530   0.327 -0.3208 -0.2034 -0.2803
    7CHTO  H190 2602   5.470   1.519   0.243  1.1641 -1.0685 -1.3939
    7CHTO  C101 2603   5.686   1.507   0.272 -0.2948  0.1640  0.4011
    7CHTO  H188 2604   5.766   1.505   0.346  1.5001  0.1617 -1.4750
    7CHTO   O68 2605   5.737   1.639   0.166  0.2030  0.3461  0.1327
    7CHTO  H168 2606   5.830   1.631   0.156  0.2422 -1.7099  1.8886
    7CHTO   C99 2607   5.691   1.369   0.192 -0.4027 -0.2128  0.1939
    7CHTO  H186 2608   5.622   1.375   0.105  0.5200  2.1625 -0.4177
    7CHTO   N17 2609   5.823   1.340   0.129  0.4815  0.1331 -0.8018
    7CHTO  H174 2610   5.814   1.307   0.026 -0.5008 -2.6954  0.1348
    7CHTO  H175 2611   5.876   1.433   0.138 -1.9917  1.3641  1.8200
    7CHTO   C97 2612   5.633   1.257   0.288  0.4784 -0.4246  0.0477
    7CHTO  H184 2613   5.716   1.248   0.361  1.1626  2.0333 -0.3959
    7CHTO   O64 2614   5.511   1.288   0.354 -0.2730  0.4095  0.1601
    7CHTO  C104 2615   5.510   1.412   0.428 -0.0947  0.9521 -0.1852
    7CHTO  H191 2616   5.587   1.411   0.505  1.0542 -2.4253 -1.2803
    7CHTO  C108 2617   5.370   1.428   0.491 -0.2392  0.4910 -0.8305
    7CHTO   O71 2618   5.364   1.529   0.597 -0.1103  0.3572 -0.5630
    7CHTO  H171 2619   5.393   1.505   0.684 -0.6857  1.8305  0.0395
    7CHTO   O62 2620   5.616   1.124   0.227 -0.3562 -0.0037 -0.2116
    7CHTO   C91 2621   5.545   1.098   0.102 -0.5595  0.0124 -0.1116
    7CHTO  H178 2622   5.575   1.182   0.040  0.6227  0.0197  0.4525
    7CHTO   C92 2623   5.389   1.109   0.121  1.3086 -0.2997  0.5479
    7CHTO  H179 2624   5.360   1.206   0.164  2.4868  0.7459 -0.9375
    7CHTO   O66 2625   5.324   1.096  -0.009 -0.1479 -1.0491  0.1389
    7CHTO  H166 2626   5.319   1.184  -0.042 -0.2789 -1.2065 -0.2547
    7CHTO   C93 2627   5.328   0.990   0.208 -0.3458  0.5027 -0.9482
    7CHTO  H180 2628   5.221   0.978   0.187 -0.3440  0.4229 -0.9148
    7CHTO   N16 2629   5.332   1.018   0.354 -0.0308  0.8276  0.3462
    7CHTO  H172 2630   5.359   1.121   0.371 -0.3012  0.9409  0.0889
    7CHTO  H173 2631   5.394   0.953   0.414  1.2604  0.0853 -1.7566
    7CHTO   C94 2632   5.415   0.854   0.178 -0.2320 -0.1517  0.3553
    7CHTO  H181 2633   5.490   0.840   0.255  0.1332  2.9978  0.6077
    7CHTO   O61 2634   5.482   0.858   0.051 -0.5933 -0.3228  0.5316
    7CHTO   C95 2635   5.581   0.954   0.039 -0.3177  0.2277  0.4141
    7CHTO  H182 2636   5.670   0.920   0.093 -0.7415 -1.0395  0.3133
    7CHTO  C106 2637   5.617   0.947  -0.114 -0.1515  0.2696 -0.1417
    7CHTO   O69 2638   5.747   1.000  -0.128  0.3326 -0.0474 -0.0300
    7CHTO  H169 2639   5.770   0.982  -0.217 -0.8800 -3.0601  0.2190
    7CHTO   O63 2640   5.338   0.752   0.179  0.1407  0.1449  0.5359
    7CHTO   C96 2641   5.352   0.649   0.308 -0.2120 -0.3915 -0.4261
    7CHTO  H183 2642   5.367   0.716   0.393  0.5883  1.1805 -1.7829
    7CHTO   C98 2643   5.474   0.553   0.295  0.2171 -0.7369  0.4905
    7CHTO  H185 2644   5.559   0.620   0.276  1.3584 -2.2690  0.0858
    7CHTO   O67 2645   5.504   0.488   0.422 -0.0081 -0.0888 -0.0969
    7CHTO  H167 2646   5.590   0.450   0.421 -0.5762 -1.4211 -0.0012
    7CHTO  C102 2647   5.458   0.444   0.185 -0.6235 -0.2308  0.2299
    7CHTO  H189 2648   5.547   0.380   0.196 -0.4817  0.1924  1.5634
    7CHTO   N18 2649   5.469   0.494   0.049 -0.4866 -0.1005 -0.1937
    7CHTO  H176 2650   5.417   0.587   0.031  0.8946  0.6336 -0.5257
    7CHTO  H177 2651   5.572   0.522   0.027 -0.7982  0.0698 -1.4651
    7CHTO  C105 2652   5.325   0.365   0.206 -1.1185 -0.1585  0.1620
    7CHTO  H192 2653   5.256   0.379   0.124 -1.7654  1.1138  0.9077
    7CHTO   O65 2654   5.245   0.420   0.313 -0.6190  0.2242 -0.4095
    7CHTO  C100 2655   5.221   0.563   0.316 -0.0161  0.2408  0.2890
    7CHTO  H187 2656   5.157   0.586   0.229  1.5953  0.5179 -0.8489
    7CHTO  C107 2657   5.140   0.601   0.444  0.0433  0.1058  0.3920
    7CHTO   O70 2658   5.215   0.585   0.566  0.1742  0.5385  0.1683
    7CHTO  H170 2659   5.295   0.634   0.557 -0.0811  0.8749 -0.2586
    7CHTO   O57 2660   5.359   0.228   0.244  0.0686 -0.1711 -0.3034
    7CHTO   C85 2661   5.292   0.125   0.170 -0.5669  0.2931 -0.4985
    7CHTO  H157 2662   5.244   0.174   0.083  0.2108 -0.5220 -1.3972
    7CHTO   C83 2663   5.172   0.059   0.249  0.2963  0.1684 -0.5034
    7CHTO  H155 2664   5.094   0.135   0.259  0.0889  0.1344 -1.7319
    7CHTO   O56 2665   5.222   0.007   0.379 -0.1227  0.5620 -0.6752
    7CHTO  H135 2666   5.197   0.069   0.444 -0.9483  0.7619 -1.1724
    7CHTO   C81 2667   5.103  -0.059   0.171  0.1199 -0.4250  0.3576
    7CHTO  H153 2668   5.062  -0.012   0.081 -2.7195 -0.1041  1.7441
    7CHTO   N14 2669   4.985  -0.121   0.238  0.3395  0.1795  0.1342
    7CHTO  H141 2670   4.926  -0.175   0.167  2.1337 -0.6915 -0.7426
    7CHTO  H142 2671   4.933  -0.033   0.270 -0.0495 -0.4560  1.2609
    7CHTO   C79 2672   5.202  -0.167   0.123  0.1394  0.3699  0.6628
    7CHTO  H151 2673   5.155  -0.217   0.038 -1.5461  2.6613  0.1999
    7CHTO   O52 2674   5.312  -0.097   0.059  0.0223 -1.2083 -0.1395
    7CHTO   C86 2675   5.385   0.006   0.122  0.4353  0.5254 -0.4967
    7CHTO  H158 2676   5.445  -0.034   0.206  2.3603  0.5416 -1.8294
    7CHTO   C90 2677   5.491   0.047   0.022 -0.0036  0.0222  0.1131
    7CHTO   O60 2678   5.596   0.110   0.083 -0.9196 -0.1921 -0.0583
    7CHTO  H138 2679   5.574   0.200   0.096 -0.8229 -0.3724  1.3406
    7CHTO   O50 2680   5.254  -0.246   0.235 -0.4816 -0.4655  0.8254
    7CHTO   C73 2681   5.307  -0.382   0.250  0.0644 -0.1591  0.2618
    7CHTO  H145 2682   5.382  -0.391   0.170  1.9917 -0.4855  2.0702
    7CHTO   C74 2683   5.201  -0.492   0.224 -0.0344 -0.0542 -0.0420
    7CHTO  H146 2684   5.152  -0.475   0.127  0.0756  0.6555  0.0213
    7CHTO   O54 2685   5.266  -0.619   0.209  0.6997 -0.7755 -0.4840
    7CHTO  H133 2686   5.350  -0.615   0.168  0.6117  0.0023 -0.6066
    7CHTO   C75 2687   5.096  -0.474   0.341 -0.0548  0.2629  0.7098
    7CHTO  H147 2688   5.049  -0.375   0.332  0.1520  0.3115  0.1073
    7CHTO   N13 2689   4.977  -0.565   0.337  0.3461  0.1979  0.2133
    7CHTO  H139 2690   4.956  -0.583   0.441 -1.0642 -2.6236 -0.5093
    7CHTO  H140 2691   4.888  -0.518   0.296 -1.2351 -1.2119  1.9279
    7CHTO   C76 2692   5.177  -0.485   0.480  0.4496  0.6765  0.2771
    7CHTO  H148 2693   5.214  -0.587   0.483 -0.1085  0.4800  0.4461
    7CHTO   O49 2694   5.291  -0.393   0.498 -0.9606 -0.1545 -0.1116
    7CHTO   C77 2695   5.379  -0.401   0.385 -0.5814  0.7074  0.4912
    7CHTO  H149 2696   5.427  -0.498   0.378 -0.0208  1.0526 -0.5594
    7CHTO   C88 2697   5.495  -0.301   0.399 -0.1417 -0.5503 -0.4221
    7CHTO   O58 2698   5.444  -0.159   0.453  0.3384  0.2068 -0.2536
    7CHTO  H136 2699   5.526  -0.117   0.467  1.0313 -1.3539  0.4921
    7CHTO   O51 2700   5.078  -0.441   0.608  0.1212  0.8416 -0.2622
    7CHTO   C78 2701   5.141  -0.455   0.748  0.0374  0.6428 -0.3287
    7CHTO  H150 2702   5.251  -0.469   0.750  0.0231  0.6187  0.8888
    7CHTO   C80 2703   5.077  -0.587   0.809 -0.0799 -0.1331 -0.4607
    7CHTO  H152 2704   4.968  -0.568   0.815 -0.6029 -1.6668 -3.7572
    7CHTO   O55 2705   5.103  -0.698   0.714  0.2276 -0.1373  0.1309
    7CHTO  H134 2706   5.066  -0.687   0.629  0.2805 -0.2716  0.0911
    7CHTO   C84 2707   5.145  -0.616   0.947  0.4238 -0.4277 -0.3180
    7CHTO  H156 2708   5.253  -0.622   0.934  0.4080 -0.9792 -0.2039
    7CHTO   N15 2709   5.085  -0.737   1.007 -0.5572 -0.5786  0.1590
    7CHTO  H143 2710   5.154  -0.817   0.993 -1.6486 -1.7534  1.4061
    7CHTO  H144 2711   4.992  -0.763   0.961  1.4885 -1.3715 -3.7284
    7CHTO   C87 2712   5.122  -0.494   1.038 -0.1748 -0.2985 -0.5675
    7CHTO  H159 2713   5.016  -0.473   1.048 -0.0685  2.3024 -3.8635
    7CHTO   O53 2714   5.163  -0.361   0.963  0.3768  0.2015 -0.0632
    7CHTO   C82 2715   5.115  -0.329   0.832 -0.1884 -0.4653  0.6430
    7CHTO  H154 2716   5.010  -0.302   0.831  0.0104  0.2862 -0.5214
    7CHTO   C89 2717   5.202  -0.203   0.790 -0.2139 -0.3817  0.1344
    7CHTO   O59 2718   5.139  -0.139   0.680  0.5436 -0.2299 -0.1104
    7CHTO  H137 2719   5.138  -0.192   0.603 -1.9822  1.5138 -1.3592
    7CHTO   O45 2720   5.191  -0.506   1.190  0.2410 -0.3876 -0.1439
    7CHTO   C67 2721   5.189  -0.385   1.265  0.0272  0.6871  0.0468
    7CHTO  H124 2722   5.219  -0.311   1.191  1.3069 -1.7809 -1.9531
    7CHTO   C65 2723   5.045  -0.339   1.324  0.9339  0.8730  0.3749
    7CHTO  H122 2724   4.998  -0.435   1.347  2.2075 -0.3471 -1.8859
    7CHTO   O44 2725   4.968  -0.270   1.221 -0.0304  0.2178 -0.0131
    7CHTO  H102 2726   5.005  -0.275   1.135  0.7709 -1.1796  0.3945
    7CHTO   C63 2727   5.052  -0.279   1.465  0.6361  0.6495  0.2641
    7CHTO  H120 2728   5.079  -0.357   1.536  3.2182 -1.1915 -2.6136
    7CHTO   N11 2729   4.924  -0.215   1.519 -0.4960 -0.0413  0.1904
    7CHTO  H108 2730   4.933  -0.109   1.511 -0.0714 -0.0945 -0.0142
    7CHTO  H109 2731   4.915  -0.253   1.619  0.4187  2.1313  1.1251
    7CHTO   C61 2732   5.177  -0.184   1.469  0.2816 -0.2399  0.0794
    7CHTO  H118 2733   5.172  -0.135   1.568 -0.7599  2.6475 -1.3332
    7CHTO   O40 2734   5.289  -0.265   1.463 -0.1880  0.2141  0.2108
    7CHTO   C68 2735   5.289  -0.391   1.383  0.1356 -0.4922 -0.1759
    7CHTO  H125 2736   5.262  -0.480   1.444  0.5272  0.1606  0.9735
    7CHTO   C72 2737   5.438  -0.413   1.346 -0.2208 -0.1437 -0.0286
    7CHTO   O48 2738   5.471  -0.535   1.272 -0.2279  1.1423 -0.2242
    7CHTO  H105 2739   5.536  -0.583   1.318  0.1968 -1.2114 -3.1408
    7CHTO   O38 2740   5.169  -0.071   1.380  0.0457  0.5541  0.6156
    7CHTO   C55 2741   5.267   0.035   1.396 -0.4630 -0.0418 -0.5747
    7CHTO  H112 2742   5.347  -0.011   1.457 -1.1827 -2.7791 -1.6348
    7CHTO   C56 2743   5.199   0.153   1.468 -0.4744  0.5576 -0.2340
    7CHTO  H113 2744   5.122   0.183   1.395 -0.9245 -0.6234 -0.2603
    7CHTO   O42 2745   5.138   0.113   1.596 -0.5549  0.5639  0.1860
    7CHTO  H100 2746   5.193   0.062   1.652 -2.1592 -2.7508 -1.1650
    7CHTO   C57 2747   5.299   0.267   1.486  0.3877 -0.0574  0.3512
    7CHTO  H114 2748   5.367   0.232   1.564  0.0253 -0.5929  0.4248
    7CHTO   N10 2749   5.251   0.384   1.551  0.4786 -0.8544 -0.0395
    7CHTO  H106 2750   5.240   0.375   1.658  0.1593 -0.6026 -0.0517
    7CHTO  H107 2751   5.311   0.472   1.532  0.1463 -0.6887 -0.3435
    7CHTO   C58 2752   5.381   0.304   1.358  0.1331  0.5383 -0.1514
    7CHTO  H115 2753   5.311   0.355   1.288 -0.2051 -2.1836 -1.8557
    7CHTO   O37 2754   5.427   0.186   1.288  0.1331  0.0432  0.6268
    7CHTO   C59 2755   5.330   0.092   1.262 -0.1281 -0.6254 -0.0651
    7CHTO  H116 2756   5.247   0.135   1.206  0.5408  1.4755  0.5134
    7CHTO   C70 2757   5.387  -0.025   1.190  0.1825  0.2465 -0.5560
    7CHTO   O46 2758   5.452  -0.003   1.069  0.5033  0.1499 -0.0071
    7CHTO  H103 2759   5.534   0.042   1.065 -0.2289  1.4236 -1.2850
    7CHTO   O39 2760   5.501   0.418   1.389 -0.0126  0.5643  0.0447
    7CHTO   C60 2761   5.631   0.384   1.339  0.6148  0.2986  0.1458
    7CHTO  H117 2762   5.651   0.283   1.373 -0.2846 -0.0464 -0.3311
    7CHTO   C62 2763   5.646   0.386   1.177 -0.6792  0.2455 -1.0187
    7CHTO  H119 2764   5.562   0.328   1.134 -1.0980  0.3958 -0.4105
    7CHTO   O43 2765   5.605   0.524   1.140 -0.3641  0.4963 -0.0442
    7CHTO  H101 2766   5.622   0.535   1.048  1.6508  1.5437  0.4160
    7CHTO   C66 2767   5.792   0.353   1.128  0.2961  0.4967 -0.0322
    7CHTO  H123 2768   5.820   0.257   1.171  0.3512  0.2765 -0.5593
    7CHTO   N12 2769   5.802   0.332   0.981  0.3305 -0.6430 -0.5333
    7CHTO  H110 2770   5.886   0.272   0.949  0.6693  0.3872 -1.6227
    7CHTO  H111 2771   5.711   0.295   0.936 -0.2517 -1.5854  1.3662
    7CHTO   C69 2772   5.894   0.461   1.186  0.2311 -0.3000 -0.3284
    7CHTO  H126 2773   5.870   0.567   1.161  0.2814 -0.0330  0.7308
    7CHTO   O41 2774   5.874   0.452   1.342 -0.2334  0.1250 -0.1477
    7CHTO   C64 2775   5.730   0.481   1.400 -0.6838  0.2715 -0.1769
    7CHTO  H121 2776   5.702   0.586   1.375 -1.4524  0.1809  0.2868
    7CHTO   C71 2777   5.730   0.461   1.555  0.1361 -0.2370 -0.1963
    7CHTO   O47 2778   5.615   0.518   1.620 -0.2577  0.0524  0.1293
    7CHTO  H104 2779   5.541   0.469   1.592 -0.2037  0.3177 -0.4747
    7CHTO   O34 2780   6.054   0.437   1.161  0.1903  0.0580  0.3826
    7CHTO   C49 2781   6.121   0.304   1.116 -0.8263  0.3125  0.3328
    7CHTO   H91 2782   6.043   0.227   1.113 -0.0626 -0.4907  0.7247
    7CHTO   C47 2783   6.230   0.251   1.222  0.6925 -0.2274 -0.4535
    7CHTO   H89 2784   6.250   0.145   1.197 -0.4282 -1.4823  3.5257
    7CHTO   O33 2785   6.165   0.259   1.354 -0.2522  0.1631 -0.0257
    7CHTO   H70 2786   6.149   0.350   1.371  2.8745  1.0354 -1.2832
    7CHTO   C45 2787   6.360   0.340   1.222  0.0475  0.2753  0.7937
    7CHTO   H87 2788   6.332   0.442   1.249  0.7175  0.6278  0.1881
    7CHTO    N8 2789   6.468   0.290   1.318 -0.3302  0.0502  0.0207
    7CHTO   H75 2790   6.490   0.359   1.398  0.9152 -0.8302  0.4570
    7CHTO   H76 2791   6.557   0.249   1.273 -0.7021 -3.6289  2.4042
    7CHTO   C43 2792   6.415   0.356   1.073  0.0450 -0.0951  0.3960
    7CHTO   H85 2793   6.496   0.428   1.068 -0.6380  0.5813 -1.1926
    7CHTO   O29 2794   6.309   0.393   0.984 -0.7446  0.7345 -0.1125
    7CHTO   C50 2795   6.190   0.318   0.974 -0.6465 -0.3017  0.2634
    7CHTO   H92 2796   6.115   0.374   0.916  0.0415 -0.7671 -1.0992
    7CHTO   C54 2797   6.204   0.179   0.895  0.0563  0.0084  0.0510
    7CHTO   O36 2798   6.083   0.103   0.880  0.3423 -0.1217 -0.4834
    7CHTO   H72 2799   6.101   0.028   0.826 -0.3358 -0.3038 -0.4524
    7CHTO   O27 2800   6.473   0.231   1.024  0.4436  1.2488  0.3473
    7CHTO   C37 2801   6.587   0.185   0.949 -1.0309 -0.0284 -0.3946
    7CHTO   H79 2802   6.673   0.247   0.982 -1.0279  0.3030 -1.0271
    7CHTO   C38 2803   6.626   0.036   0.989 -0.2085 -0.5580 -0.6046
    7CHTO   H80 2804   6.537  -0.027   0.975 -1.6772  0.2654  3.9533
    7CHTO   O31 2805   6.656   0.036   1.125 -0.2727  0.3852 -0.0157
    7CHTO   H68 2806   6.672  -0.049   1.163 -0.0503 -0.6976 -2.4216
    7CHTO   C39 2807   6.742  -0.024   0.898 -0.2000 -0.2457  0.3503
    7CHTO   H81 2808   6.837   0.018   0.933 -1.5218  2.0203  1.3075
    7CHTO    N7 2809   6.766  -0.170   0.912 -0.1395 -0.4681  0.4172
    7CHTO   H73 2810   6.676  -0.220   0.879 -1.0154  1.3707 -0.0798
    7CHTO   H74 2811   6.855  -0.206   0.864 -1.4529 -1.2587 -1.4834
    7CHTO   C40 2812   6.715   0.008   0.746  0.4416 -0.1934 -0.4619
    7CHTO   H82 2813   6.623  -0.045   0.722  0.0945  0.4593 -0.5841
    7CHTO   O26 2814   6.697   0.149   0.732 -0.6130 -0.4426 -0.2573
    7CHTO   C41 2815   6.576   0.192   0.798  0.2366  0.1578  1.0659
    7CHTO   H83 2816   6.490   0.136   0.757  2.7564 -2.1983 -1.2283
    7CHTO   C52 2817   6.560   0.338   0.748 -0.3104 -0.4416  0.4152
    7CHTO   O35 2818   6.543   0.359   0.617  0.2888 -0.4095  0.1489
    7CHTO   H71 2819   6.503   0.442   0.601  0.9117 -0.3521 -1.1944
    7CHTO   O28 2820   6.822  -0.035   0.660  0.0559 -0.5189  0.2079
    7CHTO   C42 2821   6.840   0.011   0.518 -0.2316 -0.7977  0.1724
    7CHTO   H84 2822   6.902  -0.063   0.467  0.3991  1.0523 -1.8097
    7CHTO   C44 2823   6.919   0.142   0.506 -0.5961  0.2356  0.5067
    7CHTO   H86 2824   6.874   0.220   0.568 -0.5802  1.9222 -1.5505
    7CHTO   O32 2825   7.050   0.130   0.562  0.0133  0.2972 -0.0920
    7CHTO   H69 2826   7.043   0.108   0.652 -0.7624  2.2404  0.3541
    7CHTO   C48 2827   6.923   0.202   0.359  0.3904  0.2378  0.3307
    7CHTO   H90 2828   6.992   0.147   0.295 -2.4111 -2.6084 -0.3596
    7CHTO    N9 2829   6.991   0.344   0.358  0.0877  0.0056  0.3390
    7CHTO   H77 2830   6.990   0.379   0.256 -3.4501  2.1393  1.0217
    7CHTO   H78 2831   6.925   0.398   0.424  0.4328  2.5066 -1.2957
    7CHTO   C51 2832   6.777   0.206   0.307  0.2948  0.7079  0.3931
    7CHTO   H93 2833   6.718   0.269   0.372 -1.9587 -0.5597 -0.3803
    7CHTO   O30 2834   6.721   0.072   0.303  0.3035  0.3026  0.5377
    7CHTO   C46 2835   6.706   0.014   0.435  0.9200 -0.3341 -0.1076
    7CHTO   H88 2836   6.634   0.076   0.489  1.7866 -1.3655  2.2558
    7CHTO   C53 2837   6.649  -0.128   0.394 -0.1407  0.4004  0.1185
    7CHTO   O72 2838   6.521  -0.122   0.330  0.5508  0.2527 -0.0864
    7CHTO  H199 2839   6.552  -0.095   0.246  0.6779  0.9739  0.1889
    7CHTO   O22 2840   6.768   0.248   0.171  0.4544  0.3971  0.1026
    7CHTO   C31 2841   6.676   0.352   0.136 -0.7052 -0.0334 -0.2693
    7CHTO   H59 2842   6.649   0.345   0.028  2.3848  3.4252 -1.3918
    7CHTO   C29 2843   6.540   0.372   0.215  0.1807  0.1848 -0.4283
    7CHTO   H57 2844   6.557   0.375   0.324  0.9785  1.5311 -0.5810
    7CHTO   O21 2845   6.452   0.261   0.186  0.0595  0.0736 -0.0050
    7CHTO   H37 2846   6.413   0.227   0.264 -0.1517  0.5078  0.0840
    7CHTO   C27 2847   6.467   0.513   0.176  0.2695  0.6010 -0.6449
    7CHTO   H55 2848   6.433   0.504   0.072 -0.4305 -1.2377 -0.2821
    7CHTO    N5 2849   6.351   0.544   0.269 -0.1420 -0.5107  0.7682
    7CHTO   H43 2850   6.304   0.633   0.229  3.3189  1.9701  2.0242
    7CHTO   H44 2851   6.278   0.466   0.256 -1.8345  1.1021  0.1795
    7CHTO   C25 2852   6.567   0.631   0.171  0.0939 -0.3133 -1.1977
    7CHTO   H53 2853   6.597   0.659   0.273  1.0836 -1.6578 -1.0933
    7CHTO   O17 2854   6.679   0.593   0.083 -0.9808 -0.2700  0.0934
    7CHTO   C32 2855   6.760   0.486   0.137  0.1010 -0.5032  0.3826
    7CHTO   H60 2856   6.782   0.515   0.240 -1.1968  5.3677 -0.8037
    7CHTO   C36 2857   6.888   0.480   0.049 -0.2835  0.2997 -0.6634
    7CHTO   O25 2858   6.841   0.453  -0.083 -0.0543 -0.0798 -0.5492
    7CHTO   H40 2859   6.920   0.441  -0.133  1.2739  0.9996  1.2530
    7CHTO   O15 2860   6.498   0.773   0.100 -0.2233 -0.5201 -0.0358
    7CHTO   C19 2861   6.460   0.909   0.122 -0.7337  0.2469 -0.5234
    7CHTO   H47 2862   6.459   0.971   0.032 -1.5310 -1.3681 -1.6539
    7CHTO   C20 2863   6.317   0.915   0.186  0.2698  0.5637 -0.4401
    7CHTO   H48 2864   6.314   0.864   0.284 -0.2826  1.4235 -0.0061
    7CHTO   O19 2865   6.219   0.844   0.105 -0.2338  0.3602  0.2332
    7CHTO   H35 2866   6.200   0.758   0.140 -1.3678  0.2454 -0.6471
    7CHTO   C21 2867   6.287   1.070   0.216  0.8222 -0.9729  0.3505
    7CHTO   H49 2868   6.284   1.122   0.120 -2.3320  2.6924  2.3238
    7CHTO    N4 2869   6.158   1.081   0.285  0.0914 -0.5173  0.1826
    7CHTO   H41 2870   6.090   1.023   0.225  0.0410 -0.8485  0.5572
    7CHTO   H42 2871   6.168   1.025   0.377  1.1849 -0.2772  0.2127
    7CHTO   C22 2872   6.393   1.136   0.305  0.5308 -0.7816  0.5241
    7CHTO   H50 2873   6.407   1.085   0.400 -0.8654  0.1140  1.2290
    7CHTO   O14 2874   6.518   1.117   0.237  0.3058 -0.4375  0.2053
    7CHTO   C23 2875   6.565   0.980   0.214  0.2021  0.4481 -0.0136
    7CHTO   H51 2876   6.569   0.933   0.313 -0.8613 -0.2520 -0.2915
    7CHTO   C34 2877   6.708   0.979   0.153 -0.5465  0.3397  0.2374
    7CHTO   O23 2878   6.806   1.048   0.232 -0.2844  0.6557  0.1656
    7CHTO   H38 2879   6.844   0.991   0.297 -1.2412  2.5101  2.4197
    7CHTO   O16 2880   6.398   1.278   0.315 -0.3382 -1.0522  0.4685
    7CHTO   C24 2881   6.500   1.352   0.421 -0.6504  0.8089  0.7374
    7CHTO   H52 2882   6.572   1.283   0.466  1.2241  0.6968 -2.2748
    7CHTO   C26 2883   6.407   1.404   0.534 -0.1529  0.2227 -0.6636
    7CHTO   H54 2884   6.318   1.447   0.485 -0.4211  1.1893  0.6436
    7CHTO   O20 2885   6.345   1.286   0.605 -0.5372 -0.5074  0.0615
    7CHTO   H36 2886   6.276   1.317   0.661 -1.2515 -3.7595  1.0852
    7CHTO   C30 2887   6.482   1.504   0.630  0.3514  0.5590 -0.1521
    7CHTO   H58 2888   6.553   1.446   0.692  0.8037 -0.0238 -1.1927
    7CHTO    N6 2889   6.383   1.571   0.726 -0.1609 -0.4803 -0.0904
    7CHTO   H45 2890   6.282   1.531   0.731 -0.5354  0.6307  1.2581
    7CHTO   H46 2891   6.379   1.678   0.716  0.3612 -0.5149 -0.7440
    7CHTO   C33 2892   6.559   1.596   0.535 -0.4111 -0.2037 -0.2143
    7CHTO   H61 2893   6.481   1.641   0.472 -0.1275  0.0521 -0.3856
    7CHTO   O18 2894   6.653   1.526   0.451  0.3155  0.3980 -0.4370
    7CHTO   C28 2895   6.587   1.457   0.345  0.3307 -0.2942  0.4303
    7CHTO   H56 2896   6.519   1.529   0.298 -0.7102 -0.3897  1.7720
    7CHTO   C35 2897   6.687   1.382   0.249  0.6137 -0.2144 -0.0329
    7CHTO   O24 2898   6.779   1.475   0.189  0.3059  0.3789  0.2439
    7CHTO   H39 2899   6.846   1.504   0.248  0.5532 -0.8802  0.5941
    7CHTO    O9 2900   6.617   1.705   0.604 -0.3675 -0.3223  0.4054
    7CHTO   C13 2901   6.632   1.832   0.504  0.0492 -0.0000 -0.0471
    7CHTO   H26 2902   6.640   1.800   0.398  1.1119  3.5307 -1.1029
    7CHTO   C11 2903   6.753   1.924   0.542 -0.1818  0.1332 -0.9848
    7CHTO   H24 2904   6.840   1.858   0.528 -0.8499 -0.8417 -0.6093
    7CHTO    O8 2905   6.750   1.970   0.680 -0.3389  0.2787 -0.0076
    7CHTO    H3 2906   6.811   1.915   0.726 -0.0548 -0.4810 -1.2662
    7CHTO    C9 2907   6.763   2.028   0.431  0.1400 -0.5460 -0.1560
    7CHTO   H22 2908   6.772   1.972   0.337 -1.3326 -0.9692 -0.0591
    7CHTO    N2 2909   6.890   2.103   0.436 -0.0218  1.0414 -0.0307
    7CHTO   H10 2910   6.906   2.148   0.533 -0.1357  1.3195 -0.1419
    7CHTO   H11 2911   6.891   2.176   0.356  2.0864 -2.0402 -2.9398
    7CHTO    C7 2912   6.627   2.113   0.420 -0.1552  0.0191 -0.1714
    7CHTO   H20 2913   6.626   2.172   0.326 -2.0457 -0.5238 -0.5118
    7CHTO    O4 2914   6.509   2.033   0.423  0.8392 -0.3112 -0.1949
    7CHTO   C14 2915   6.494   1.916   0.506 -0.2870 -0.4427 -0.6706
    7CHTO   H27 2916   6.418   1.853   0.456  0.3306  0.3689 -2.6818
    7CHTO   C18 2917   6.435   1.954   0.639  0.5602  0.2853  0.4138
    7CHTO   O13 2918   6.299   1.917   0.658  0.0552 -0.6044  0.1516
    7CHTO    H7 2919   6.291   1.824   0.671 -5.0684 -0.2659  0.4521
    7CHTO    O2 2920   6.615   2.218   0.536  0.5431 -0.1914  0.0769
    7CHTO    C1 2921   6.541   2.332   0.497 -0.5861  0.3708  0.1345
    7CHTO   H14 2922   6.531   2.382   0.595 -0.5144 -0.8251  0.7597
    7CHTO    C2 2923   6.387   2.326   0.436 -0.6240  0.0536 -0.0911
    7CHTO   H15 2924   6.391   2.264   0.345  1.1169  1.6629 -1.1526
    7CHTO    O6 2925   6.312   2.254   0.539  0.0511 -0.0867 -0.2098
    7CHTO    H1 2926   6.357   2.175   0.563 -0.8884 -0.8089 -0.7800
    7CHTO    C3 2927   6.338   2.482   0.405  0.0120  0.0115  0.4421
    7CHTO   H16 2928   6.327   2.533   0.501 -1.1229 -1.0852  0.9088
    7CHTO    N1 2929   6.199   2.477   0.345  0.0559 -0.0759 -0.3217
    7CHTO    H8 2930   6.128   2.481   0.426  2.7164 -1.4927  2.1940
    7CHTO    H9 2931   6.179   2.565   0.285  1.1038  0.5836  0.2862
    7CHTO    C4 2932   6.445   2.555   0.320 -0.2590 -0.2187  0.0489
    7CHTO   H17 2933   6.455   2.495   0.229  1.8456  0.2858 -0.0681
    7CHTO    O1 2934   6.570   2.552   0.398 -0.4221  0.6081  0.1017
    7CHTO    C5 2935   6.632   2.430   0.413  0.5773  0.5071 -0.3197
    7CHTO   H18 2936   6.657   2.379   0.321 -2.2664  0.5508 -1.1678
    7CHTO   C16 2937   6.762   2.462   0.491 -0.5861 -0.1070  0.2881
    7CHTO   O11 2938   6.866   2.509   0.402 -0.4605 -0.0686 -0.0087
    7CHTO    H5 2939   6.914   2.584   0.432 -1.3162 -0.0934  1.4845
    7CHTO    O3 2940   6.412   2.693   0.295  0.2943 -0.0369  0.2063
    7CHTO    C6 2941   6.471   2.732   0.169  0.0110 -0.2658  0.7895
    7CHTO   H19 2942   6.532   2.654   0.124 -1.4253 -0.1957 -1.3047
    7CHTO    C8 2943   6.360   2.769   0.067  0.2891 -0.1125  0.2287
    7CHTO   H21 2944   6.296   2.844   0.112 -0.2057 -1.1039  1.1812
    7CHTO    O7 2945   6.289   2.648   0.053  0.5795 -1.0498  0.3931
    7CHTO    H2 2946   6.231   2.649  -0.021 -0.0657  0.4362  0.8772
    7CHTO   C12 2947   6.437   2.810  -0.067  0.4720  0.0889  0.9137
    7CHTO   H25 2948   6.488   2.715  -0.093  1.0290  0.1482  1.8021
    7CHTO    N3 2949   6.341   2.840  -0.183 -0.2507  0.3547  0.0515
    7CHTO   H12 2950   6.285   2.932  -0.167  1.7983  1.8935 -1.4054
    7CHTO   H13 2951   6.270   2.760  -0.200 -0.7038  1.0394 -1.4099
    7CHTO   C15 2952   6.545   2.924  -0.043  0.3055 -0.5650  0.2285
    7CHTO   H28 2953   6.490   3.017  -0.029  0.9920  0.0240 -0.9764
    7CHTO   O10 2954   6.640   2.948  -0.165  0.3897  0.6215 -0.0752
    7CHTO    H4 2955   6.642   3.041  -0.179  2.1747  0.7389  0.8020
    7CHTO    O5 2956   6.635   2.883   0.065  0.0129 -0.8347 -0.0492
    7CHTO   C10 2957   6.565   2.857   0.190 -0.9077 -0.4715 -0.0545
    7CHTO   H23 2958   6.514   2.952   0.207 -0.5222 -0.1724 -0.5651
    7CHTO   C17 2959   6.671   2.835   0.294  0.5533  0.1274 -0.0914
    7CHTO   O12 2960   6.776   2.939   0.299  0.1417  0.3798  0.5855
    7CHTO    H6 2961   6.856   2.906   0.335 -1.1452 -3.3941  0.1800
    8CHTO  H203 2962   7.270   7.158   1.778  2.0256 -1.3267 -1.5179
    8CHTO   O82 2963   7.271   7.226   1.712  0.4132  0.1079 -0.1284
    8CHTO  C123 2964   7.151   7.293   1.675 -0.0121  0.4071 -0.6048
    8CHTO  H227 2965   7.155   7.326   1.570  0.0356  1.9000 -0.1410
    8CHTO   O77 2966   7.057   7.186   1.682 -0.3758  0.2539 -0.3872
    8CHTO  C118 2967   6.929   7.217   1.636  0.3391 -0.3014 -0.6010
    8CHTO  H222 2968   6.929   7.259   1.534  2.1915 -0.5545 -0.7185
    8CHTO  C125 2969   6.858   7.081   1.629 -0.4584 -0.0229 -0.4956
    8CHTO   O84 2970   6.725   7.074   1.571 -0.4122 -0.2036 -0.1226
    8CHTO  H205 2971   6.701   6.984   1.559  0.1096 -0.2683 -0.6845
    8CHTO  C114 2972   6.858   7.323   1.724  0.0302 -0.0138 -0.5579
    8CHTO  H218 2973   6.836   7.280   1.822  1.4087 -0.2969 -0.3618
    8CHTO  C116 2974   6.960   7.443   1.756 -0.4858 -0.7594 -0.2840
    8CHTO  H220 2975   6.952   7.518   1.675 -0.5249 -1.0181 -0.5214
    8CHTO   O79 2976   6.908   7.517   1.874 -0.4587  0.8733 -0.0165
    8CHTO  H201 2977   6.921   7.609   1.881 -0.4598  0.8026  0.9308
    8CHTO  C120 2978   7.114   7.407   1.771  0.4711  0.4179  0.6690
    8CHTO  H224 2979   7.118   7.373   1.877 -0.1812 -2.2539 -0.1196
    8CHTO   N21 2980   7.207   7.522   1.757  0.1685 -0.0823  1.0334
    8CHTO  H211 2981   7.294   7.516   1.820 -0.5068  2.6521  2.2922
    8CHTO  H212 2982   7.183   7.625   1.732 -0.1470  0.0252  1.7730
    8CHTO   O75 2983   6.735   7.350   1.666  0.0564  0.1575  0.3111
    8CHTO  C112 2984   6.661   7.504   1.720 -0.1827 -0.5829 -0.0959
    8CHTO  H216 2985   6.732   7.587   1.707 -1.2841  0.6305  1.4020
    8CHTO   O73 2986   6.625   7.485   1.856  0.0028 -0.2487 -0.0477
    8CHTO  C113 2987   6.567   7.606   1.912 -0.0899  0.3735  0.3660
    8CHTO  H217 2988   6.640   7.690   1.912  1.5727 -1.0525 -0.7314
    8CHTO  C124 2989   6.546   7.569   2.059  0.1863  0.5606 -0.1949
    8CHTO   O83 2990   6.677   7.553   2.124  0.0366  0.2442 -0.3002
    8CHTO  H204 2991   6.650   7.529   2.211 -0.7864 -0.1730 -0.6660
    8CHTO  C109 2992   6.434   7.644   1.841 -0.0669 -0.0722 -1.1370
    8CHTO  H213 2993   6.368   7.557   1.858  1.3498 -0.9816 -0.2324
    8CHTO  C110 2994   6.453   7.667   1.695 -0.1689 -0.3329  0.4675
    8CHTO  H214 2995   6.520   7.750   1.672 -1.6212  0.6352 -0.3815
    8CHTO   O78 2996   6.336   7.689   1.625  0.0629  0.0375  0.2817
    8CHTO  H200 2997   6.287   7.610   1.610 -0.8150  0.8743 -1.3753
    8CHTO  C111 2998   6.524   7.539   1.639 -0.2266  0.5399 -0.4203
    8CHTO  H215 2999   6.458   7.453   1.656 -3.6317  3.3830  1.5166
    8CHTO   N19 3000   6.557   7.537   1.493  0.0096  0.9838  0.7462
    8CHTO  H207 3001   6.642   7.601   1.476  0.1611  1.1388  2.0048
    8CHTO  H208 3002   6.466   7.554   1.438  1.1195 -0.5920 -1.6542
    8CHTO   O74 3003   6.374   7.762   1.900 -0.1286 -0.0709  0.5597
    8CHTO  C115 3004   6.225   7.768   1.949  0.2821 -0.5296 -0.2463
    8CHTO  H219 3005   6.165   7.683   1.916 -1.4584  1.0638 -1.2551
    8CHTO   O76 3006   6.209   7.761   2.112  0.4236 -0.1879 -0.1729
    8CHTO  C122 3007   6.236   7.884   2.189  0.3755  0.2967  0.3329
    8CHTO  H226 3008   6.332   7.864   2.237 -0.0520  0.5839  1.3150
    8CHTO  C126 3009   6.132   7.882   2.305  0.2899  0.3617 -0.1135
    8CHTO   O85 3010   5.995   7.917   2.282 -0.9296  0.1836  0.6816
    8CHTO  H206 3011   5.992   7.988   2.221 -1.4079  1.6735  2.4212
    8CHTO  C121 3012   6.220   8.026   2.112 -0.3643 -0.0562 -0.2793
    8CHTO  H225 3013   6.132   8.089   2.136 -0.9376 -0.5291 -1.1282
    8CHTO   O81 3014   6.314   8.106   2.184  0.1083 -0.5730 -0.3531
    8CHTO  H202 3015   6.403   8.103   2.154  0.5654 -2.4167  1.1176
    8CHTO  C119 3016   6.235   8.023   1.955  0.4348  0.6502  0.0731
    8CHTO  H223 3017   6.188   8.114   1.917  0.3061  0.8417  0.6911
    8CHTO  C117 3018   6.160   7.901   1.891 -0.7079  0.4424  0.0580
    8CHTO  H221 3019   6.166   7.897   1.782 -1.4487  0.4707  0.0144
    8CHTO   N20 3020   6.011   7.903   1.913 -0.1344  0.8628  0.7937
    8CHTO  H209 3021   5.966   7.815   1.957 -1.3027 -0.6765 -3.2473
    8CHTO  H210 3022   5.981   7.991   1.968  0.3165  0.1803  2.1707
    8CHTO   O80 3023   6.392   8.032   1.909  0.3646  0.1117 -0.1941
    8CHTO  C103 3024   6.450   8.169   1.868  0.3766  0.5739  0.3020
    8CHTO  H190 3025   6.383   8.253   1.882  1.3083  1.6739 -1.6475
    8CHTO  C101 3026   6.585   8.209   1.944  0.1426 -0.6589  0.3100
    8CHTO  H188 3027   6.655   8.125   1.944  0.6269 -0.2756 -1.5186
    8CHTO   O68 3028   6.540   8.242   2.091 -0.0404 -0.3364  0.6809
    8CHTO  H168 3029   6.460   8.197   2.111 -0.0107  0.4070  2.5187
    8CHTO   C99 3030   6.652   8.328   1.865  0.2948  0.2950  0.0876
    8CHTO  H186 3031   6.592   8.421   1.874  0.2230  0.3203 -0.6353
    8CHTO   N17 3032   6.786   8.361   1.927  0.2642  0.4239 -0.7076
    8CHTO  H174 3033   6.857   8.319   1.858  0.5538 -0.2540 -0.0092
    8CHTO  H175 3034   6.799   8.468   1.933  0.4719  0.2845  1.7484
    8CHTO   C97 3035   6.663   8.303   1.710  0.8600 -0.0453 -0.3469
    8CHTO  H184 3036   6.732   8.220   1.687 -0.0772 -0.7525 -0.6058
    8CHTO   O64 3037   6.536   8.276   1.662 -0.2305  0.2120  0.0618
    8CHTO  C104 3038   6.470   8.152   1.709 -0.0535  0.4650 -0.1769
    8CHTO  H191 3039   6.532   8.065   1.691  0.2780  0.6785 -0.0709
    8CHTO  C108 3040   6.341   8.127   1.630  0.8165  0.3984  0.5517
    8CHTO   O71 3041   6.368   8.127   1.490 -0.1138  0.3016 -0.1072
    8CHTO  H171 3042   6.412   8.201   1.454  3.8328 -1.2344  1.3113
    8CHTO   O62 3043   6.709   8.419   1.641  0.0631  0.7457 -0.2278
    8CHTO   C91 3044   6.835   8.404   1.567  0.4439  0.3953  0.2124
    8CHTO  H178 3045   6.900   8.331   1.615 -0.2873 -0.4824 -0.1286
    8CHTO   C92 3046   6.904   8.546   1.562  0.0593 -1.4626 -0.3882
    8CHTO  H179 3047   6.894   8.585   1.665  0.6285  1.8826 -1.5324
    8CHTO   O66 3048   7.043   8.528   1.536 -0.3051 -0.0033 -0.3487
    8CHTO  H166 3049   7.082   8.498   1.616 -2.9180 -0.6282  0.7459
    8CHTO   C93 3050   6.836   8.641   1.459  0.3821  0.5870 -0.0058
    8CHTO  H180 3051   6.903   8.726   1.441  1.7351 -0.2182  1.1222
    8CHTO   N16 3052   6.715   8.700   1.512  0.4627  0.0402  0.1921
    8CHTO  H172 3053   6.722   8.709   1.619  1.5197 -2.0900  0.3288
    8CHTO  H173 3054   6.704   8.794   1.461 -1.0006 -0.7209 -0.9574
    8CHTO   C94 3055   6.805   8.575   1.314  0.0159 -0.6287 -0.0307
    8CHTO  H181 3056   6.699   8.575   1.289 -0.0210 -0.5568  0.1247
    8CHTO   O61 3057   6.847   8.434   1.311  0.3529 -0.1106  0.0139
    8CHTO   C95 3058   6.809   8.346   1.420  0.3765 -0.2850  0.1407
    8CHTO  H182 3059   6.706   8.314   1.409  1.3074 -3.3115 -0.3744
    8CHTO  C106 3060   6.903   8.215   1.396  0.2858  0.0696 -0.4650
    8CHTO   O69 3061   6.839   8.104   1.463  0.4169 -0.1605 -0.1748
    8CHTO  H169 3062   6.795   8.055   1.395 -1.0683  1.2877 -0.2939
    8CHTO   O63 3063   6.893   8.663   1.192 -0.1826 -0.8231 -0.2422
    8CHTO   C96 3064   6.852   8.640   1.059 -0.3492 -0.4734  0.7630
    8CHTO  H183 3065   6.759   8.584   1.064  0.0509 -1.0273  2.2876
    8CHTO   C98 3066   6.947   8.569   0.966 -0.0695 -1.2174 -0.2453
    8CHTO  H185 3067   7.035   8.634   0.951  1.1024 -2.5838  0.6041
    8CHTO   O67 3068   7.002   8.450   1.023  0.2720 -0.0547 -0.0761
    8CHTO  H167 3069   6.935   8.396   1.062 -0.8513 -0.7009 -2.7633
    8CHTO  C102 3070   6.870   8.542   0.825  0.2064 -0.1775  0.2837
    8CHTO  H189 3071   6.790   8.470   0.847 -0.5458  0.4675 -0.3152
    8CHTO   N18 3072   6.959   8.487   0.723  0.1242  0.2723 -0.1551
    8CHTO  H176 3073   7.008   8.398   0.761  0.4187 -0.4145 -2.0894
    8CHTO  H177 3074   7.034   8.561   0.701  0.3168  0.5252  1.3133
    8CHTO  C105 3075   6.806   8.677   0.776  0.3463 -0.0001  0.5476
    8CHTO  H192 3076   6.890   8.742   0.753 -0.4189  0.6137 -0.5526
    8CHTO   O65 3077   6.734   8.747   0.877 -0.1130 -0.1502 -0.2844
    8CHTO  C100 3078   6.812   8.778   0.993 -0.0495 -0.8765 -0.2010
    8CHTO  H187 3079   6.900   8.834   0.958  1.0705 -1.2477  1.9298
    8CHTO  C107 3080   6.715   8.866   1.072  0.1022 -0.2074  0.2532
    8CHTO   O70 3081   6.606   8.793   1.121  0.0559  0.2757 -0.0856
    8CHTO  H170 3082   6.541   8.772   1.057 -1.4618  1.1120  1.1499
    8CHTO   O57 3083   6.717   8.645   0.656  0.2936  0.6505  0.0543
    8CHTO   C85 3084   6.677   8.732   0.550 -0.0389 -0.3206  0.2657
    8CHTO  H157 3085   6.777   8.768   0.515  0.3778 -0.9725  0.7712
    8CHTO   C83 3086   6.599   8.855   0.611 -0.4142 -0.4877  0.7299
    8CHTO  H155 3087   6.674   8.899   0.677 -1.8115  0.0972  1.9530
    8CHTO   O56 3088   6.485   8.818   0.690  0.1389  0.1405 -0.3036
    8CHTO  H135 3089   6.450   8.732   0.674  2.6005 -0.7204 -1.3848
    8CHTO   C81 3090   6.567   8.956   0.495  0.5493  0.2859 -0.0390
    8CHTO  H153 3091   6.661   8.979   0.444  0.4586 -0.1542 -0.4038
    8CHTO   N14 3092   6.523   9.085   0.550 -0.4805 -0.1806  0.3209
    8CHTO  H141 3093   6.500   9.152   0.469  0.0819 -1.5740 -1.0158
    8CHTO  H142 3094   6.596   9.126   0.616 -1.7340  0.1275  1.5570
    8CHTO   C79 3095   6.476   8.887   0.392 -0.6633 -0.0868 -0.5263
    8CHTO  H151 3096   6.447   8.963   0.320  1.2605  1.3454  0.1746
    8CHTO   O52 3097   6.545   8.777   0.333 -0.1223  0.6556 -0.7645
    8CHTO   C86 3098   6.591   8.673   0.431 -0.4228 -0.4270 -0.1322
    8CHTO  H158 3099   6.503   8.624   0.476  0.3790 -0.3791  1.4982
    8CHTO   C90 3100   6.661   8.548   0.360 -0.1015  1.1366  0.0118
    8CHTO   O60 3101   6.738   8.591   0.242  0.2530 -0.5116 -0.2734
    8CHTO  H138 3102   6.820   8.545   0.240  0.4778 -0.1376  0.2700
    8CHTO   O50 3103   6.352   8.829   0.443  0.3636  0.4526  0.4738
    8CHTO   C73 3104   6.206   8.799   0.432 -0.5392  0.0038  0.4975
    8CHTO  H145 3105   6.181   8.718   0.362  1.0315  1.2441 -1.5492
    8CHTO   C74 3106   6.121   8.926   0.386 -0.0470 -0.1319  0.2542
    8CHTO  H146 3107   6.149   8.941   0.281  0.6236  1.1416  0.6011
    8CHTO   O54 3108   5.986   8.881   0.378  0.0700 -0.8176  0.6673
    8CHTO  H133 3109   5.961   8.872   0.288  0.5229  3.4199  0.0201
    8CHTO   C75 3110   6.145   9.053   0.475 -0.0213  0.5490  1.0374
    8CHTO  H147 3111   6.252   9.076   0.471  0.3629 -1.3787 -1.0706
    8CHTO   N13 3112   6.072   9.171   0.425  0.5399  0.2912  0.1691
    8CHTO  H139 3113   5.973   9.132   0.408  0.3259  1.7806 -2.2050
    8CHTO  H140 3114   6.116   9.208   0.333 -1.1778  2.2807  0.1168
    8CHTO   C76 3115   6.109   9.017   0.625 -0.6169 -0.0832 -0.1980
    8CHTO  H148 3116   6.001   9.022   0.642 -0.7157  3.9661 -1.4722
    8CHTO   O49 3117   6.160   8.882   0.667 -0.2833  0.1605  0.2422
    8CHTO   C77 3118   6.147   8.770   0.583 -0.4281  0.1745  0.3123
    8CHTO  H149 3119   6.047   8.728   0.575 -0.8010  0.8480  1.3303
    8CHTO   C88 3120   6.227   8.645   0.635 -0.0860  0.0203  0.6051
    8CHTO   O58 3121   6.175   8.599   0.778 -0.6645 -0.6769 -0.1993
    8CHTO  H136 3122   6.081   8.596   0.773 -0.7268  0.0135  0.6028
    8CHTO   O51 3123   6.195   9.117   0.729  0.3853 -0.0846  0.5289
    8CHTO   C78 3124   6.138   9.138   0.850 -0.8237 -0.4086  0.1776
    8CHTO  H150 3125   6.066   9.055   0.867 -1.0203 -0.1658  0.5201
    8CHTO   C80 3126   6.057   9.269   0.854  0.1868  0.1713  0.3056
    8CHTO  H152 3127   6.128   9.347   0.819 -1.0475 -0.5006 -4.0606
    8CHTO   O55 3128   5.946   9.252   0.770 -0.0492 -0.0116 -0.3781
    8CHTO  H134 3129   5.903   9.335   0.761 -0.3994 -0.2511 -0.9817
    8CHTO   C84 3130   6.016   9.299   1.005  0.0546  0.5214  0.2679
    8CHTO  H156 3131   5.937   9.228   1.033  0.7803 -0.5649 -0.4195
    8CHTO   N15 3132   5.960   9.431   1.026 -0.1370 -0.3112  0.1870
    8CHTO  H143 3133   5.881   9.447   0.956  0.0550  0.1335  0.0701
    8CHTO  H144 3134   5.918   9.448   1.123  1.8520 -0.8164  1.1574
    8CHTO   C87 3135   6.122   9.259   1.112 -0.0704  0.1808  0.5074
    8CHTO  H159 3136   6.198   9.336   1.124 -0.3010  0.5398 -0.3117
    8CHTO   O53 3137   6.189   9.140   1.087  0.2235 -0.0621  0.5550
    8CHTO   C82 3138   6.251   9.133   0.959 -0.1293  0.0915 -0.5308
    8CHTO  H154 3139   6.318   9.217   0.946  1.5260 -1.0634  0.3373
    8CHTO   C89 3140   6.329   9.000   0.941  0.3701 -0.1830 -0.1973
    8CHTO   O59 3141   6.244   8.889   0.966 -0.0696 -0.4279  0.3952
    8CHTO  H137 3142   6.169   8.896   0.911 -0.3382  1.3908  0.9507
    8CHTO   O45 3143   6.042   9.237   1.262  0.3947 -0.3638 -0.1992
    8CHTO   C67 3144   6.124   9.230   1.382 -0.2418 -0.1273 -0.4664
    8CHTO  H124 3145   6.048   9.229   1.460 -0.6693 -0.7802 -0.8742
    8CHTO   C65 3146   6.221   9.097   1.386 -0.0935 -0.5704 -0.6957
    8CHTO  H122 3147   6.177   9.018   1.326 -0.3309 -1.7499  0.9867
    8CHTO   O44 3148   6.204   9.054   1.524 -0.1880 -0.5156  0.2919
    8CHTO  H102 3149   6.236   8.967   1.532 -0.2038 -0.6897 -1.2553
    8CHTO   C63 3150   6.372   9.131   1.346 -0.2157 -0.2465 -0.2220
    8CHTO  H120 3151   6.367   9.179   1.249  1.0057 -2.2468 -1.3138
    8CHTO   N11 3152   6.477   9.032   1.326  0.6496 -0.4092  0.9193
    8CHTO  H108 3153   6.466   8.996   1.226 -1.2444 -0.0042  0.9544
    8CHTO  H109 3154   6.496   8.968   1.409 -0.1981 -0.1356  1.3324
    8CHTO   C61 3155   6.418   9.249   1.447  0.1318 -0.3215  1.0734
    8CHTO  H118 3156   6.491   9.306   1.388 -1.1761 -0.9837 -1.2673
    8CHTO   O40 3157   6.314   9.348   1.488  0.9525  0.1958  0.2911
    8CHTO   C68 3158   6.201   9.372   1.406  0.7667 -0.3561  0.1218
    8CHTO  H125 3159   6.233   9.426   1.314 -0.9806  0.5053 -0.0083
    8CHTO   C72 3160   6.109   9.476   1.485  0.2870 -0.6251 -0.8353
    8CHTO   O48 3161   6.000   9.519   1.403  0.1356 -0.6047  0.0638
    8CHTO  H105 3162   5.973   9.463   1.332 -1.8287 -0.3678  0.5858
    8CHTO   O38 3163   6.473   9.202   1.566  0.2720  0.3810  0.0395
    8CHTO   C55 3164   6.546   9.295   1.650 -0.0411  0.8007 -0.1471
    8CHTO  H112 3165   6.537   9.393   1.600 -0.1338  0.2967 -1.1273
    8CHTO   C56 3166   6.701   9.245   1.659 -0.6108 -0.2211  0.5083
    8CHTO  H113 3167   6.721   9.189   1.566 -1.9316 -0.6500  0.4662
    8CHTO   O42 3168   6.778   9.363   1.661  0.3623  0.1942  0.4385
    8CHTO  H100 3169   6.869   9.339   1.662 -0.0201 -1.3569 -0.4133
    8CHTO   C57 3170   6.729   9.149   1.789 -0.0144  0.6790  0.4548
    8CHTO  H114 3171   6.753   9.223   1.865  3.3368  1.0000 -0.8215
    8CHTO   N10 3172   6.848   9.059   1.780  0.3927  0.7458  0.0319
    8CHTO  H106 3173   6.889   9.055   1.880 -1.8503  0.0302  0.9703
    8CHTO  H107 3174   6.811   8.962   1.752 -0.2525  0.9069  0.3165
    8CHTO   C58 3175   6.597   9.082   1.823  0.0315  0.1606 -1.0562
    8CHTO  H115 3176   6.558   9.032   1.733 -0.6431  1.0762 -1.2868
    8CHTO   O37 3177   6.508   9.180   1.873 -0.1263 -0.1349  0.5427
    8CHTO   C59 3178   6.471   9.289   1.788 -0.4111 -0.6899  0.0585
    8CHTO  H116 3179   6.362   9.285   1.780 -0.4169 -2.3217  0.8335
    8CHTO   C70 3180   6.512   9.411   1.875  0.0387  0.5737 -0.4491
    8CHTO   O46 3181   6.432   9.519   1.846  0.2797  0.6882  0.0890
    8CHTO  H103 3182   6.483   9.582   1.800 -2.4955  2.4854 -0.6186
    8CHTO   O39 3183   6.627   8.973   1.939  0.5417  0.6155 -0.5589
    8CHTO   C60 3184   6.526   8.874   1.966 -0.6077  0.6019  0.3237
    8CHTO  H117 3185   6.430   8.924   1.957 -1.4517 -0.9708  0.3764
    8CHTO   C62 3186   6.530   8.755   1.860 -0.6393 -0.4007  0.0315
    8CHTO  H119 3187   6.531   8.801   1.759 -0.5148  0.2197  0.3150
    8CHTO   O43 3188   6.654   8.680   1.868  0.2830 -0.3592  0.0948
    8CHTO  H101 3189   6.630   8.600   1.910 -0.8145 -0.9102 -1.5140
    8CHTO   C66 3190   6.393   8.674   1.873 -0.7798  0.3051  1.2350
    8CHTO  H123 3191   6.310   8.744   1.869  0.1778  1.3885 -0.3158
    8CHTO   N12 3192   6.381   8.576   1.762  0.6865  0.1071  0.1023
    8CHTO  H110 3193   6.316   8.495   1.790 -0.9980  1.6581  0.7949
    8CHTO  H111 3194   6.357   8.623   1.667  1.2058 -0.3915 -0.2783
    8CHTO   C69 3195   6.382   8.604   2.010 -0.1689  0.4709  0.2614
    8CHTO  H126 3196   6.457   8.522   2.007  0.9717  1.4553  1.3247
    8CHTO   O41 3197   6.407   8.708   2.132 -0.2903 -0.1406  0.0792
    8CHTO   C64 3198   6.536   8.807   2.108 -0.0542  0.2022 -0.2245
    8CHTO  H121 3199   6.638   8.766   2.118 -0.5813 -1.0006  0.3890
    8CHTO   C71 3200   6.518   8.921   2.213  0.0161  0.0028  0.0520
    8CHTO   O47 3201   6.389   8.979   2.217  0.1506  0.4143 -0.0635
    8CHTO  H104 3202   6.373   9.016   2.302  2.2546  2.7734 -0.6242
    8CHTO   O34 3203   6.236   8.530   2.032 -0.0905  0.2958  0.8659
    8CHTO   C49 3204   6.092   8.563   2.065 -0.0175 -0.6999 -0.5703
    8CHTO   H91 3205   6.076   8.540   2.171 -0.3636 -0.1018 -0.4899
    8CHTO   C47 3206   5.998   8.469   1.989  0.5545  0.5737  0.8487
    8CHTO   H89 3207   5.899   8.489   2.034  0.6216  0.1862  1.1799
    8CHTO   O33 3208   6.039   8.334   2.017 -0.0376 -0.2740 -0.6567
    8CHTO   H70 3209   5.991   8.268   1.971  0.9995 -0.6204 -1.2602
    8CHTO   C45 3210   5.996   8.508   1.833 -0.0508 -0.5174 -0.7295
    8CHTO   H87 3211   6.098   8.495   1.794  1.3971  0.0709  2.7148
    8CHTO    N8 3212   5.904   8.422   1.750 -0.4632 -1.0894 -0.1677
    8CHTO   H75 3213   5.804   8.438   1.787 -0.4923  0.8391 -1.0357
    8CHTO   H76 3214   5.932   8.431   1.647  0.2837 -0.4242  0.0858
    8CHTO   C43 3215   5.969   8.666   1.810  0.3413  0.1308 -0.2019
    8CHTO   H85 3216   5.995   8.688   1.707  1.6605 -1.2640 -0.1850
    8CHTO   O29 3217   6.053   8.737   1.901  0.0167  0.0580  0.5098
    8CHTO   C50 3218   6.057   8.703   2.039 -0.3186 -0.0286 -0.2890
    8CHTO   H92 3219   6.137   8.770   2.072  1.0854 -1.1677 -1.3017
    8CHTO   C54 3220   5.944   8.756   2.121  0.6031  0.5300 -0.0752
    8CHTO   O36 3221   5.818   8.697   2.092  0.7581 -0.0730 -0.0479
    8CHTO   H72 3222   5.804   8.625   2.152 -0.8606 -1.0618 -1.5898
    8CHTO   O27 3223   5.841   8.724   1.822 -0.0105 -0.0653  0.0011
    8CHTO   C37 3224   5.758   8.827   1.771  0.0793 -0.3318  0.3825
    8CHTO   H79 3225   5.747   8.817   1.662  2.8015 -4.1899  0.3408
    8CHTO   C38 3226   5.615   8.812   1.833  0.2470  0.4626 -0.5434
    8CHTO   H80 3227   5.633   8.813   1.941  3.2325  1.1953 -0.9942
    8CHTO   O31 3228   5.564   8.680   1.795 -0.4676 -0.2356  0.0428
    8CHTO   H68 3229   5.563   8.666   1.703  1.5520  0.7918 -0.1764
    8CHTO   C39 3230   5.521   8.928   1.788  0.1432  0.4797  0.5212
    8CHTO   H81 3231   5.499   8.926   1.681  1.7762 -2.2334  0.1981
    8CHTO    N7 3232   5.393   8.933   1.857  0.2567 -0.4496 -0.2017
    8CHTO   H73 3233   5.312   8.971   1.796  0.7574 -1.2293 -1.3732
    8CHTO   H74 3234   5.374   8.859   1.934 -2.8045 -1.4127 -1.7747
    8CHTO   C40 3235   5.598   9.067   1.804 -0.5761 -0.4648 -0.4997
    8CHTO   H82 3236   5.614   9.092   1.909  4.1715 -1.6738 -0.8190
    8CHTO   O26 3237   5.722   9.063   1.736  0.3793 -0.0247  0.3521
    8CHTO   C41 3238   5.813   8.969   1.803  0.2367 -0.1616 -0.3868
    8CHTO   H83 3239   5.826   8.982   1.912 -0.9736  2.8582 -0.5514
    8CHTO   C52 3240   5.959   8.996   1.749 -0.0047 -0.2548 -0.7993
    8CHTO   O35 3241   6.003   9.123   1.780  0.0683  0.5077 -0.1256
    8CHTO   H71 3242   6.013   9.119   1.873 -1.7391 -0.2879  0.0610
    8CHTO   O28 3243   5.547   9.184   1.736 -0.2961  0.1730 -0.4277
    8CHTO   C42 3244   5.487   9.209   1.604 -0.2094 -0.4189 -1.0225
    8CHTO   H84 3245   5.488   9.318   1.602  0.5401 -0.3626  1.2578
    8CHTO   C44 3246   5.335   9.169   1.592  0.0953 -0.7195 -0.5472
    8CHTO   H86 3247   5.321   9.066   1.623 -0.6018 -0.8720 -1.3510
    8CHTO   O32 3248   5.262   9.251   1.690 -0.2671  0.2012  0.5161
    8CHTO   H69 3249   5.259   9.340   1.661  1.3878 -0.1366 -0.7298
    8CHTO   C48 3250   5.274   9.188   1.450 -0.2895  0.9891 -0.3752
    8CHTO   H90 3251   5.276   9.290   1.411 -0.1279  0.9380 -0.4989
    8CHTO    N9 3252   5.131   9.144   1.439 -0.2019 -0.1476 -0.0583
    8CHTO   H77 3253   5.068   9.213   1.493  0.1655  1.0995 -1.1911
    8CHTO   H78 3254   5.118   9.045   1.481  2.7828  0.9867  3.8376
    8CHTO   C51 3255   5.368   9.123   1.345 -0.2158  0.3120  0.1160
    8CHTO   H93 3256   5.372   9.016   1.363 -1.3954  0.3323  0.5463
    8CHTO   O30 3257   5.492   9.183   1.362 -0.2523  0.5390 -0.2869
    8CHTO   C46 3258   5.570   9.150   1.484  0.5620 -1.0231 -0.8054
    8CHTO   H88 3259   5.585   9.042   1.483 -0.0439 -1.1264  0.4372
    8CHTO   C53 3260   5.699   9.225   1.478 -0.3427  0.0699  0.1637
    8CHTO   O72 3261   5.794   9.164   1.394 -0.5609 -0.2354  0.1065
    8CHTO  H199 3262   5.815   9.075   1.413 -0.2979 -0.1918  0.0178
    8CHTO   O22 3263   5.327   9.142   1.215  0.3068  0.5522  0.3648
    8CHTO   C31 3264   5.388   9.075   1.100  0.2377 -0.5664 -0.0872
    8CHTO   H59 3265   5.328   9.103   1.010 -0.1421 -1.1582 -0.0227
    8CHTO   C29 3266   5.534   9.110   1.077 -0.2872 -0.4786  0.3721
    8CHTO   H57 3267   5.581   9.078   1.171 -1.4143 -0.6708  0.8840
    8CHTO   O21 3268   5.540   9.256   1.067 -0.6100  0.2742  0.2389
    8CHTO   H37 3269   5.598   9.277   0.996 -1.2796  1.2953 -0.0150
    8CHTO   C27 3270   5.596   9.031   0.956  0.4517  0.5588 -0.0268
    8CHTO   H55 3271   5.554   9.072   0.863  0.5694 -1.2913 -0.9328
    8CHTO    N5 3272   5.743   9.035   0.947 -0.2630 -0.2817 -0.0357
    8CHTO   H43 3273   5.790   8.996   1.036 -0.1287  0.8312  0.3996
    8CHTO   H44 3274   5.778   8.985   0.858  0.6228 -1.0345  0.7262
    8CHTO   C25 3275   5.557   8.879   0.964 -0.4162 -0.0846  0.3025
    8CHTO   H53 3276   5.610   8.842   1.054  1.6724  0.0035 -0.8484
    8CHTO   O17 3277   5.418   8.854   0.976  0.0916 -0.5594  0.4658
    8CHTO   C32 3278   5.375   8.913   1.104 -0.2484 -0.0368  0.0657
    8CHTO   H60 3279   5.434   8.871   1.186 -1.4647 -0.6083  0.6582
    8CHTO   C36 3280   5.237   8.862   1.124 -0.1975 -0.5682 -0.3086
    8CHTO   O25 3281   5.228   8.720   1.144 -0.3117  0.4355 -0.2158
    8CHTO   H40 3282   5.282   8.701   1.218 -3.9354  0.6960  2.6873
    8CHTO   O15 3283   5.605   8.808   0.854 -0.0053 -0.0515 -1.1359
    8CHTO   C19 3284   5.606   8.728   0.729 -0.3327 -0.3472 -0.6421
    8CHTO   H47 3285   5.540   8.648   0.765  0.9288 -0.0538  2.4619
    8CHTO   C20 3286   5.542   8.804   0.611  0.0514 -0.1796  0.1297
    8CHTO   H48 3287   5.591   8.902   0.599  0.2023 -0.2809 -0.0775
    8CHTO   O19 3288   5.408   8.843   0.638  0.4922 -0.3460 -0.0715
    8CHTO   H35 3289   5.408   8.924   0.686 -0.5684 -0.2548 -0.2233
    8CHTO   C21 3290   5.554   8.717   0.473  0.8036 -0.9008 -0.3385
    8CHTO   H49 3291   5.508   8.619   0.487 -1.5830  0.5574  2.6246
    8CHTO    N4 3292   5.478   8.778   0.359  0.5178 -0.4004  0.3999
    8CHTO   H41 3293   5.499   8.881   0.334 -0.6842 -0.4623 -0.9528
    8CHTO   H42 3294   5.505   8.714   0.276  0.8360 -0.3991  0.5005
    8CHTO   C22 3295   5.703   8.680   0.445  0.0285  0.1749 -0.1605
    8CHTO   H50 3296   5.754   8.776   0.433 -2.2630  1.3265 -0.9734
    8CHTO   O14 3297   5.760   8.610   0.560 -0.1649  0.0473  0.5871
    8CHTO   C23 3298   5.748   8.662   0.691  1.5682 -0.1608  0.0183
    8CHTO   H51 3299   5.831   8.735   0.696  1.4108  0.0656 -0.5961
    8CHTO   C34 3300   5.798   8.547   0.787  0.2877 -0.0259  0.1851
    8CHTO   O23 3301   5.792   8.573   0.927 -0.0492 -0.2015  0.7220
    8CHTO   H38 3302   5.821   8.659   0.949 -0.0227 -0.7682  2.9756
    8CHTO   O16 3303   5.716   8.585   0.342 -0.1520 -0.3713 -0.1538
    8CHTO   C24 3304   5.854   8.593   0.269 -0.1808  0.1316  0.2611
    8CHTO   H52 3305   5.927   8.649   0.327 -3.4087  3.0985  1.6652
    8CHTO   C26 3306   5.845   8.682   0.144  0.3939  0.3958 -0.3242
    8CHTO   H54 3307   5.772   8.628   0.080 -0.2469 -1.5066  1.9577
    8CHTO   O20 3308   5.796   8.814   0.187  0.4888  0.4234  0.0979
    8CHTO   H36 3309   5.734   8.852   0.128  0.0085 -0.3809  0.0687
    8CHTO   C30 3310   5.981   8.681   0.067 -0.8270 -0.4432  0.3045
    8CHTO   H58 3311   6.059   8.736   0.122 -0.1778 -2.1220  1.0999
    8CHTO    N6 3312   5.965   8.769  -0.056  0.0915 -0.3607  0.8626
    8CHTO   H45 3313   5.978   8.704  -0.142  0.9226  1.5026 -0.4701
    8CHTO   H46 3314   5.863   8.804  -0.065  0.5653  0.6264 -0.9174
    8CHTO   C33 3315   6.031   8.535   0.037 -0.5863  0.2453 -0.5568
    8CHTO   H61 3316   5.956   8.482  -0.024 -1.4115 -0.1201  0.7460
    8CHTO   O18 3317   6.042   8.456   0.166 -0.5457  0.2511 -0.0719
    8CHTO   C28 3318   5.916   8.450   0.231 -0.0426 -0.3758 -0.0386
    8CHTO   H56 3319   5.850   8.398   0.161 -0.2848  1.0721 -0.9127
    8CHTO   C35 3320   5.950   8.371   0.366  0.1459  0.1059 -0.2543
    8CHTO   O24 3321   5.854   8.349   0.467 -0.5362 -0.2722 -0.7663
    8CHTO   H39 3322   5.775   8.322   0.425 -0.9716 -1.6736  0.9022
    8CHTO    O9 3323   6.156   8.529  -0.038  0.5696 -0.4052 -0.5071
    8CHTO   C13 3324   6.157   8.371  -0.113 -0.0888 -0.1124 -1.2478
    8CHTO   H26 3325   6.061   8.364  -0.167 -1.2822  1.6196  0.5953
    8CHTO   C11 3326   6.171   8.250  -0.003  0.0169  0.1986 -0.6207
    8CHTO   H24 3327   6.074   8.234   0.045  0.1391 -1.2099 -0.8424
    8CHTO    O8 3328   6.269   8.294   0.090 -0.1331 -0.0505 -0.2385
    8CHTO    H3 3329   6.222   8.331   0.163  2.8372  2.0612  0.6672
    8CHTO    C9 3330   6.219   8.120  -0.075  0.3348 -0.2709 -0.8957
    8CHTO   H22 3331   6.145   8.103  -0.155 -0.0061  0.9235 -0.8558
    8CHTO    N2 3332   6.205   7.993  -0.001 -0.7168  0.2248 -0.2983
    8CHTO   H10 3333   6.299   7.969   0.046 -2.7810 -3.0867  2.3522
    8CHTO   H11 3334   6.127   7.997   0.073 -1.4650 -1.0093 -1.0189
    8CHTO    C7 3335   6.363   8.146  -0.136 -0.2879  0.2806  0.3298
    8CHTO   H20 3336   6.361   8.088  -0.231 -3.2711  1.1845 -0.1884
    8CHTO    O4 3337   6.383   8.286  -0.174 -0.0159  0.4180  0.3068
    8CHTO   C14 3338   6.269   8.357  -0.225  0.2366 -0.2873 -0.1293
    8CHTO   H27 3339   6.238   8.291  -0.309  0.3647  0.0267 -0.4236
    8CHTO   C18 3340   6.301   8.493  -0.295 -0.0678 -0.2692  0.5219
    8CHTO   O13 3341   6.393   8.463  -0.398 -0.2729  0.9175  0.6045
    8CHTO    H7 3342   6.442   8.543  -0.401 -0.5928  1.1565  1.5204
    8CHTO    O2 3343   6.488   8.108  -0.026 -0.7936 -0.2525 -0.3560
    8CHTO    C1 3344   6.607   8.190  -0.012  0.4147 -0.9350 -0.1723
    8CHTO   H14 3345   6.580   8.297  -0.008 -3.6937 -1.9738  1.5330
    8CHTO    C2 3346   6.712   8.169  -0.131  0.0144 -0.7196 -0.0312
    8CHTO   H15 3347   6.705   8.062  -0.154  2.1881 -0.7495 -0.6574
    8CHTO    O6 3348   6.666   8.245  -0.247 -0.1050  0.3644  0.1795
    8CHTO    H1 3349   6.721   8.238  -0.322 -2.8693  0.4248 -1.9290
    8CHTO    C3 3350   6.867   8.208  -0.095 -1.1783 -0.0577 -0.4882
    8CHTO   H16 3351   6.875   8.317  -0.085 -0.8229 -0.2047  0.9582
    8CHTO    N1 3352   6.973   8.172  -0.197 -0.4736 -0.5840 -0.2965
    8CHTO    H8 3353   7.048   8.102  -0.160 -0.2064 -1.1321 -1.8297
    8CHTO    H9 3354   6.924   8.122  -0.279 -1.8477  0.7490 -0.3015
    8CHTO    C4 3355   6.891   8.151   0.048 -0.2580 -1.1112  0.3116
    8CHTO   H17 3356   6.874   8.043   0.046 -3.3496 -0.6238 -1.8085
    8CHTO    O1 3357   6.803   8.213   0.142  0.4809 -0.5646 -0.3349
    8CHTO    C5 3358   6.673   8.153   0.125 -0.0983 -0.1399  0.5909
    8CHTO   H18 3359   6.686   8.045   0.134 -0.6121 -0.3732 -1.2636
    8CHTO   C16 3360   6.595   8.196   0.246 -0.0911  0.2770  0.3480
    8CHTO   O11 3361   6.463   8.135   0.255 -0.3389 -0.0668  0.2050
    8CHTO    H5 3362   6.463   8.100   0.342  0.1252 -2.0460 -0.5850
    8CHTO    O3 3363   7.018   8.177   0.095  0.2226  0.3426 -0.3882
    8CHTO    C6 3364   7.070   8.071   0.177 -0.2837  0.2576  0.5679
    8CHTO   H19 3365   6.988   8.013   0.219  0.7863  0.0344  2.3856
    8CHTO    C8 3366   7.158   7.986   0.079 -0.4763 -0.6632 -1.0065
    8CHTO   H21 3367   7.223   8.050   0.020  1.3516 -0.7280  0.8737
    8CHTO    O7 3368   7.078   7.907  -0.003  0.0318  0.3772  0.1356
    8CHTO    H2 3369   7.116   7.883  -0.085  1.2490 -1.0173  1.0691
    8CHTO   C12 3370   7.255   7.888   0.171 -0.1273  0.3154 -0.0729
    8CHTO   H25 3371   7.183   7.812   0.208  0.7639 -0.5810 -0.1429
    8CHTO    N3 3372   7.370   7.829   0.093  0.0733 -0.6288 -0.0850
    8CHTO   H12 3373   7.426   7.908   0.045 -0.9800  1.4711  2.0174
    8CHTO   H13 3374   7.432   7.781   0.167 -0.8974 -1.4592  0.2044
    8CHTO   C15 3375   7.307   7.960   0.306 -0.2512  0.0265  0.4089
    8CHTO   H28 3376   7.397   8.022   0.299  0.0674 -0.4760  0.0048
    8CHTO   O10 3377   7.334   7.862   0.411 -0.5116 -0.4146 -0.3789
    8CHTO    H4 3378   7.418   7.822   0.412 -0.6574 -0.7224 -0.3823
    8CHTO    O5 3379   7.210   8.029   0.380  0.1276 -0.3782 -0.2396
    8CHTO   C10 3380   7.151   8.130   0.297  0.2397  0.0883 -0.0184
    8CHTO   H23 3381   7.229   8.192   0.256 -0.8763  1.9804  0.6581
    8CHTO   C17 3382   7.052   8.212   0.382 -0.4544  0.2730  0.3174
    8CHTO   O12 3383   7.134   8.288   0.478  0.1295 -0.4804  0.2213
    8CHTO    H6 3384   7.148   8.368   0.431  1.0729 -0.0055  1.2774
    9CHTO  H203 3385   6.701   3.014   1.887 -1.1816 -0.9474 -0.2768
    9CHTO   O82 3386   6.655   3.081   1.841  0.3334  0.2634 -0.0528
    9CHTO  C123 3387   6.528   3.027   1.803  0.4287  1.0518  0.3493
    9CHTO  H227 3388   6.486   2.986   1.896 -0.1104  0.8471  0.0211
    9CHTO   O77 3389   6.452   3.136   1.753  0.0045 -0.0870 -0.0962
    9CHTO  C118 3390   6.329   3.091   1.684 -0.3413  0.1366  0.2166
    9CHTO  H222 3391   6.279   3.024   1.756  0.8256 -0.4544  0.4867
    9CHTO  C125 3392   6.247   3.220   1.659  0.7001 -0.0764  0.3181
    9CHTO   O84 3393   6.163   3.244   1.769 -0.0474 -0.1899 -0.6553
    9CHTO  H205 3394   6.074   3.250   1.740  0.1729  1.6060 -0.9733
    9CHTO  C114 3395   6.367   3.008   1.560  0.8096 -0.5667  0.7110
    9CHTO  H218 3396   6.441   3.062   1.501 -0.9300 -2.2719 -3.2091
    9CHTO  C116 3397   6.438   2.875   1.610 -0.1756  0.5826 -0.9272
    9CHTO  H220 3398   6.367   2.802   1.654 -2.3698  2.1047 -1.8855
    9CHTO   O79 3399   6.482   2.809   1.489 -0.1128 -0.7202  0.2060
    9CHTO  H201 3400   6.412   2.789   1.431  0.4402  0.5892 -0.9442
    9CHTO  C120 3401   6.559   2.904   1.704 -0.0139  0.5033 -0.7882
    9CHTO  H224 3402   6.641   2.940   1.639 -2.1368  2.0147 -2.7083
    9CHTO   N21 3403   6.618   2.787   1.777  0.0383 -0.1904 -0.3922
    9CHTO  H211 3404   6.534   2.720   1.781  0.2561 -0.4612 -0.3413
    9CHTO  H212 3405   6.701   2.739   1.728 -0.6144 -1.0532 -0.6598
    9CHTO   O75 3406   6.245   2.995   1.485 -0.4020  0.1517  0.2313
    9CHTO  C112 3407   6.273   2.939   1.325 -0.3679  0.4781 -0.6317
    9CHTO  H216 3408   6.301   2.834   1.336  0.4164  1.0391  3.5443
    9CHTO   O73 3409   6.383   3.018   1.270  0.0150  0.2685 -0.2258
    9CHTO  C113 3410   6.419   2.998   1.133 -0.1569  0.4466 -1.1211
    9CHTO  H217 3411   6.455   2.893   1.133  0.9567  0.8173  0.4283
    9CHTO  C124 3412   6.552   3.070   1.107  0.2102 -0.0417  0.5106
    9CHTO   O83 3413   6.545   3.213   1.114  0.1359  0.1442  0.2633
    9CHTO  H204 3414   6.489   3.246   1.046 -0.4633 -1.0706  0.1531
    9CHTO  C109 3415   6.300   3.026   1.041 -0.0098 -0.4787 -0.6420
    9CHTO  H213 3416   6.280   3.133   1.053  0.7605 -0.5419  1.4540
    9CHTO  C110 3417   6.184   2.934   1.088  0.2577  0.0797  0.0593
    9CHTO  H214 3418   6.209   2.828   1.086  0.8638  0.1424  2.5313
    9CHTO   O78 3419   6.070   2.959   1.006 -0.3929  0.5852  0.3229
    9CHTO  H200 3420   6.050   3.050   1.000 -0.7824  0.4140 -1.2528
    9CHTO  C111 3421   6.148   2.962   1.238 -0.0200  0.5232  0.6987
    9CHTO  H215 3422   6.116   3.067   1.243 -1.2118  0.2932 -1.4027
    9CHTO   N19 3423   6.035   2.880   1.295  0.4038 -0.3015 -0.3254
    9CHTO  H207 3424   5.942   2.919   1.259  0.3212 -1.6492 -1.6432
    9CHTO  H208 3425   6.015   2.899   1.399  0.3352 -2.1351  0.0283
    9CHTO   O74 3426   6.325   2.997   0.899  0.2981 -1.3212  0.1039
    9CHTO  C115 3427   6.354   2.848   0.853  0.1412  0.0704 -0.1727
    9CHTO  H219 3428   6.380   2.783   0.937 -2.7076  0.9121  1.4213
    9CHTO   O76 3429   6.228   2.775   0.790 -0.2830 -0.2244 -0.0873
    9CHTO  C122 3430   6.195   2.844   0.663 -0.3794  0.2907  0.0826
    9CHTO  H226 3431   6.175   2.950   0.681 -0.2206  0.2725  0.3703
    9CHTO  C126 3432   6.050   2.776   0.616  0.1488 -0.1809  0.1559
    9CHTO   O85 3433   5.993   2.841   0.502  0.3068  0.2535 -0.4538
    9CHTO  H206 3434   5.922   2.793   0.465 -0.7440  0.5941  1.0589
    9CHTO  C121 3435   6.313   2.839   0.563 -0.0692 -0.1334  0.1386
    9CHTO  H225 3436   6.328   2.731   0.544 -2.8065 -0.5379  0.0233
    9CHTO   O81 3437   6.260   2.888   0.438 -0.0599  0.4951 -0.1477
    9CHTO  H202 3438   6.273   2.981   0.435  0.7104  0.5816  3.8251
    9CHTO  C119 3439   6.438   2.907   0.619  0.1966 -0.2110 -0.0002
    9CHTO  H223 3440   6.516   2.879   0.547  1.3142  1.2371  0.6066
    9CHTO  C117 3441   6.478   2.845   0.756 -0.2321 -0.7978 -0.3513
    9CHTO  H221 3442   6.554   2.906   0.805 -1.0147 -1.5197  1.8305
    9CHTO   N20 3443   6.548   2.713   0.739  0.2165 -0.3168 -0.5445
    9CHTO  H209 3444   6.487   2.651   0.804 -2.6030  3.8774  1.0292
    9CHTO  H210 3445   6.644   2.703   0.786  0.1569  1.0814 -0.0978
    9CHTO   O80 3446   6.441   3.061   0.611  0.6586 -0.2201  0.2940
    9CHTO  C103 3447   6.574   3.146   0.692 -0.2293 -0.5633 -0.1630
    9CHTO  H190 3448   6.586   3.122   0.797  2.5866  1.5197  0.0403
    9CHTO  C101 3449   6.715   3.130   0.621  0.1313  0.0032  0.1122
    9CHTO  H188 3450   6.695   3.136   0.515 -1.2108 -0.7243  0.3087
    9CHTO   O68 3451   6.758   2.996   0.643 -0.3144 -0.0550 -0.0193
    9CHTO  H168 3452   6.752   2.967   0.732  0.3432 -0.8118 -0.2163
    9CHTO   C99 3453   6.817   3.234   0.672 -0.5030  0.2014 -0.0664
    9CHTO  H186 3454   6.840   3.216   0.779  3.0549  0.6014 -0.7050
    9CHTO   N17 3455   6.949   3.228   0.596 -0.1370  0.3393 -0.2038
    9CHTO  H174 3456   7.001   3.136   0.615  1.6726  1.6312  1.2986
    9CHTO  H175 3457   7.015   3.307   0.630  0.3421 -0.6702  1.2520
    9CHTO   C97 3458   6.743   3.376   0.654  0.2114 -0.2303 -0.1875
    9CHTO  H184 3459   6.720   3.385   0.547  1.7809 -2.3558 -0.7391
    9CHTO   O64 3460   6.626   3.384   0.736 -0.2983  0.5942 -0.3337
    9CHTO  C104 3461   6.526   3.293   0.682 -0.1668  0.3709  0.2561
    9CHTO  H191 3462   6.507   3.310   0.576  2.8455 -0.0443 -0.3953
    9CHTO  C108 3463   6.394   3.318   0.748 -0.3522 -0.5569  0.1312
    9CHTO   O71 3464   6.403   3.364   0.885  0.7400  0.3729  1.1826
    9CHTO  H171 3465   6.320   3.343   0.924  0.6281  1.7269  1.7112
    9CHTO   O62 3466   6.810   3.486   0.717  0.2879  0.0963 -0.5154
    9CHTO   C91 3467   6.853   3.603   0.648 -0.0750 -0.4571 -0.4819
    9CHTO  H178 3468   6.921   3.569   0.569  0.3315 -0.3026 -0.2007
    9CHTO   C92 3469   6.926   3.695   0.756 -0.1751 -0.1971  0.2834
    9CHTO  H179 3470   6.882   3.675   0.855  1.9752 -2.4391  0.8510
    9CHTO   O66 3471   7.060   3.648   0.768 -0.0554 -0.0352  0.2346
    9CHTO  H166 3472   7.091   3.651   0.856 -1.3741  1.9143  0.6721
    9CHTO   C93 3473   6.927   3.849   0.723  0.5092  0.1606 -0.1935
    9CHTO  H180 3474   6.971   3.862   0.623  2.0895  2.5515  0.7683
    9CHTO   N16 3475   7.001   3.942   0.821 -0.5515  0.0154 -0.5757
    9CHTO  H172 3476   6.948   3.938   0.916 -1.3796  0.0455 -1.0293
    9CHTO  H173 3477   7.105   3.916   0.816 -0.0607  1.6687  0.6590
    9CHTO   C94 3478   6.783   3.891   0.709  0.8222 -0.4204 -0.9151
    9CHTO  H181 3479   6.722   3.864   0.795  0.1221 -1.4229 -1.7075
    9CHTO   O61 3480   6.716   3.825   0.600  0.0324  0.8289 -0.2816
    9CHTO   C95 3481   6.728   3.684   0.587 -0.3255  0.4148  0.1433
    9CHTO  H182 3482   6.634   3.641   0.623  1.5524 -0.3879  4.2555
    9CHTO  C106 3483   6.731   3.651   0.442  0.0860 -0.0585 -0.0690
    9CHTO   O69 3484   6.627   3.682   0.349 -0.9765  0.2588 -0.7376
    9CHTO  H169 3485   6.593   3.765   0.378  0.0124  0.6208 -0.6143
    9CHTO   O63 3486   6.772   4.061   0.674 -0.3130 -0.3564  0.7065
    9CHTO   C96 3487   6.657   4.132   0.733  0.3364  0.6909 -0.4736
    9CHTO  H183 3488   6.616   4.074   0.816  1.7681 -1.0948 -0.9686
    9CHTO   C98 3489   6.540   4.153   0.628  0.0711  0.5600 -0.1919
    9CHTO  H185 3490   6.587   4.192   0.537 -0.8887  0.0250 -0.9287
    9CHTO   O67 3491   6.484   4.020   0.596  0.4055  0.5175 -0.4253
    9CHTO  H167 3492   6.516   3.995   0.512  0.7806 -1.3136  0.2433
    9CHTO  C102 3493   6.419   4.247   0.688  0.2793  0.1108  0.9960
    9CHTO  H189 3494   6.378   4.193   0.775 -0.5829 -1.6874 -0.4931
    9CHTO   N18 3495   6.309   4.274   0.592 -0.4531  0.3717  0.4765
    9CHTO  H176 3496   6.213   4.256   0.636 -1.6811  0.7076 -1.9642
    9CHTO  H177 3497   6.315   4.211   0.505 -3.4219 -0.9265  1.1589
    9CHTO  C105 3498   6.479   4.376   0.748  0.8758 -0.0315  0.2356
    9CHTO  H192 3499   6.521   4.443   0.674 -1.3854  0.5255 -0.5825
    9CHTO   O65 3500   6.589   4.342   0.835 -0.1152  0.0309 -0.6446
    9CHTO  C100 3501   6.706   4.273   0.789 -0.5162  0.1465  0.6390
    9CHTO  H187 3502   6.748   4.336   0.709 -0.9826 -1.0078 -0.5367
    9CHTO  C107 3503   6.812   4.265   0.910 -0.1302 -0.0446  0.1720
    9CHTO   O70 3504   6.763   4.184   1.020 -0.7189  0.0387 -0.3395
    9CHTO  H170 3505   6.839   4.181   1.075 -0.8132 -1.1981 -0.2594
    9CHTO   O57 3506   6.347   4.453   0.836  0.1212  0.1600 -0.3982
    9CHTO   C85 3507   6.323   4.591   0.810  0.2602 -0.4162  0.2149
    9CHTO  H157 3508   6.331   4.595   0.700  1.7536 -0.8936  0.3006
    9CHTO   C83 3509   6.434   4.680   0.857  0.9016  0.4163  0.0621
    9CHTO  H155 3510   6.525   4.650   0.804 -1.4680 -1.2189 -3.3075
    9CHTO   O56 3511   6.454   4.648   0.999  0.2500 -0.2648  0.3743
    9CHTO  H135 3512   6.425   4.720   1.052  1.2941  0.0377  0.5455
    9CHTO   C81 3513   6.400   4.828   0.827 -0.0198  0.2968 -0.7484
    9CHTO  H153 3514   6.387   4.846   0.720  2.0967 -0.2704 -1.1361
    9CHTO   N14 3515   6.516   4.918   0.853 -0.0422 -0.2327 -0.6556
    9CHTO  H141 3516   6.598   4.912   0.784  0.9260  1.3678  0.3319
    9CHTO  H142 3517   6.558   4.914   0.951  0.7748  3.2353 -0.7977
    9CHTO   C79 3518   6.268   4.879   0.895 -0.3081  0.4305  0.1254
    9CHTO  H151 3519   6.244   4.974   0.848  1.2178  1.5281  1.5248
    9CHTO   O52 3520   6.163   4.795   0.853  0.1065 -0.0667  0.8409
    9CHTO   C86 3521   6.182   4.647   0.862 -0.6032  0.2326  0.4595
    9CHTO  H158 3522   6.171   4.624   0.970  1.2211  1.7299  1.0041
    9CHTO   C90 3523   6.069   4.582   0.784  0.2780 -0.5601  0.5960
    9CHTO   O60 3524   6.066   4.445   0.830 -0.0448  0.3054  0.1343
    9CHTO  H138 3525   6.101   4.384   0.768 -1.1588  0.0225 -0.2384
    9CHTO   O50 3526   6.269   4.888   1.036 -0.5258  0.0260  0.2075
    9CHTO   C73 3527   6.237   4.921   1.174  1.0540  0.3824 -0.4493
    9CHTO  H145 3528   6.128   4.922   1.184  1.1715 -0.0205  1.0878
    9CHTO   C74 3529   6.294   5.061   1.207 -0.4917 -0.0259  0.2130
    9CHTO  H146 3530   6.264   5.134   1.130  0.4521  0.4051  0.2549
    9CHTO   O54 3531   6.239   5.101   1.338 -0.5039  0.0937  0.2488
    9CHTO  H133 3532   6.145   5.096   1.333 -0.5722  0.3943  1.0753
    9CHTO   C75 3533   6.449   5.047   1.213  0.1662  0.5374 -0.4222
    9CHTO  H147 3534   6.493   5.043   1.112 -1.7432 -1.8321 -1.1738
    9CHTO   N13 3535   6.513   5.176   1.247  0.0866 -0.4805  0.1646
    9CHTO  H139 3536   6.469   5.235   1.326 -0.3853 -1.8453  0.9369
    9CHTO  H140 3537   6.616   5.166   1.276 -0.1127  1.4030  1.6181
    9CHTO   C76 3538   6.492   4.926   1.298  0.4860 -0.2070 -1.4047
    9CHTO  H148 3539   6.466   4.941   1.403  1.3681 -1.4247 -0.9914
    9CHTO   O49 3540   6.443   4.801   1.245  0.4577 -0.2097 -0.6829
    9CHTO   C77 3541   6.302   4.812   1.260  0.1212  0.3197  0.5036
    9CHTO  H149 3542   6.278   4.827   1.365  1.2527 -0.2620  0.8505
    9CHTO   C88 3543   6.231   4.679   1.234  0.2571  0.4404  1.0485
    9CHTO   O58 3544   6.286   4.571   1.316  0.1057 -0.0572  1.2536
    9CHTO  H136 3545   6.372   4.543   1.290 -0.2465  1.0714 -1.3367
    9CHTO   O51 3546   6.665   4.912   1.287  0.1925 -0.0633  0.1179
    9CHTO   C78 3547   6.715   4.808   1.377 -0.4966 -0.3400 -0.3753
    9CHTO  H150 3548   6.635   4.742   1.417  1.3996 -2.1141  0.6010
    9CHTO   C80 3549   6.800   4.881   1.489 -0.0491 -0.5471 -0.5811
    9CHTO  H152 3550   6.865   4.959   1.443 -0.1582  0.2063  0.5284
    9CHTO   O55 3551   6.704   4.946   1.570 -0.3001 -0.1759  0.2062
    9CHTO  H134 3552   6.640   4.991   1.519  1.2957  1.0893 -0.7275
    9CHTO   C84 3553   6.893   4.788   1.573  0.6140  0.1189 -0.7385
    9CHTO  H156 3554   6.827   4.728   1.636  1.5776 -0.1823 -0.0077
    9CHTO   N15 3555   6.984   4.862   1.658  0.0242 -0.2824  0.3173
    9CHTO  H143 3556   6.924   4.917   1.727 -0.4395 -0.0817 -0.2416
    9CHTO  H144 3557   7.051   4.794   1.707  1.2883  0.8303  0.1593
    9CHTO   C87 3558   6.968   4.688   1.484 -0.1016 -0.5709  0.3568
    9CHTO  H159 3559   7.041   4.741   1.422  0.5344 -1.6011  0.2180
    9CHTO   O53 3560   6.871   4.624   1.391 -0.0965 -0.2266 -0.0088
    9CHTO   C82 3561   6.806   4.713   1.296  0.0640 -0.2505 -0.2822
    9CHTO  H154 3562   6.879   4.776   1.244  0.5482  1.1844  2.0795
    9CHTO   C89 3563   6.734   4.637   1.183  0.3164 -0.3593  0.5892
    9CHTO   O59 3564   6.827   4.545   1.118  0.0126  0.4884  0.5880
    9CHTO  H137 3565   6.791   4.497   1.046 -2.0208  4.0248 -0.8827
    9CHTO   O45 3566   7.052   4.591   1.572 -0.0705  0.0926 -0.7864
    9CHTO   C67 3567   7.142   4.514   1.489  0.1022  0.2413 -0.2597
    9CHTO  H124 3568   7.151   4.560   1.391  0.3418  0.0206 -0.3431
    9CHTO   C65 3569   7.277   4.504   1.551 -1.2382  0.1166  0.0551
    9CHTO  H122 3570   7.295   4.608   1.578 -0.5865  0.1726 -0.5844
    9CHTO   O44 3571   7.377   4.462   1.460  0.6089  0.9515  0.4253
    9CHTO  H102 3572   7.367   4.513   1.382 -0.2920  0.4409  0.2027
    9CHTO   C63 3573   7.265   4.433   1.695 -0.1887  0.1979 -0.0165
    9CHTO  H120 3574   7.186   4.473   1.758 -1.0370 -1.9023  0.3009
    9CHTO   N11 3575   7.383   4.442   1.782  0.7587 -0.6760  0.0404
    9CHTO  H108 3576   7.388   4.544   1.817  1.6952 -0.3964 -0.8773
    9CHTO  H109 3577   7.371   4.375   1.865 -2.6886  0.1223  0.2697
    9CHTO   C61 3578   7.213   4.287   1.673 -0.1318  0.2883  0.8432
    9CHTO  H118 3579   7.182   4.243   1.769  0.1820 -0.3146  0.6695
    9CHTO   O40 3580   7.099   4.269   1.583  0.1657  0.0053  0.0692
    9CHTO   C68 3581   7.078   4.364   1.467 -0.2411  0.0821  0.1599
    9CHTO  H125 3582   6.967   4.372   1.459 -0.3317 -1.3284 -0.2764
    9CHTO   C72 3583   7.125   4.290   1.339  0.5321  0.7848  0.7450
    9CHTO   O48 3584   7.083   4.359   1.222 -0.5723  0.2037  0.4874
    9CHTO  H105 3585   7.116   4.311   1.149 -0.9331 -0.2675  0.6375
    9CHTO   O38 3586   7.313   4.198   1.619 -0.1657  0.4420  0.4671
    9CHTO   C55 3587   7.391   4.117   1.712  0.4058 -0.6130  0.0835
    9CHTO  H112 3588   7.381   4.159   1.813  2.1187  0.4870 -0.1847
    9CHTO   C56 3589   7.533   4.124   1.664 -0.3456 -0.6831 -0.2021
    9CHTO  H113 3590   7.565   4.229   1.668 -3.0267  0.1726 -0.3918
    9CHTO   O42 3591   7.617   4.067   1.764 -0.1818 -0.2498  0.0827
    9CHTO  H100 3592   7.694   4.031   1.725  0.5962  1.9028 -0.4264
    9CHTO   C57 3593   7.565   4.053   1.523  0.1377  0.4008 -0.3936
    9CHTO  H114 3594   7.653   3.990   1.536  0.7568  0.8691 -2.2380
    9CHTO   N10 3595   7.604   4.142   1.409  1.9345 -0.2552 -0.1604
    9CHTO  H106 3596   7.712   4.150   1.412  1.8171  1.5915  0.0523
    9CHTO  H107 3597   7.568   4.243   1.423  0.4049 -0.7357 -0.4948
    9CHTO   C58 3598   7.450   3.956   1.483  0.7747 -0.3791  0.1701
    9CHTO  H115 3599   7.362   4.017   1.454  0.0121  0.1698  3.5039
    9CHTO   O37 3600   7.407   3.883   1.600  0.1155 -0.3203 -0.3815
    9CHTO   C59 3601   7.341   3.970   1.703  1.7780 -0.6517 -0.2848
    9CHTO  H116 3602   7.236   3.967   1.676  1.1795 -1.2653  2.0029
    9CHTO   C70 3603   7.355   3.903   1.838 -0.2941  0.4139  0.0673
    9CHTO   O46 3604   7.263   3.965   1.931 -0.5676  0.2011 -0.3525
    9CHTO  H103 3605   7.176   3.950   1.897 -2.2982  3.5856  2.2843
    9CHTO   O39 3606   7.485   3.852   1.361 -0.2917 -0.5517 -0.2499
    9CHTO   C60 3607   7.382   3.765   1.317  0.1961 -0.2151 -0.6630
    9CHTO  H117 3608   7.358   3.691   1.393 -2.6796  1.3150 -0.0057
    9CHTO   C62 3609   7.253   3.838   1.289  0.0952 -0.8626  0.2507
    9CHTO  H119 3610   7.213   3.866   1.389  1.7479  1.3075  0.3487
    9CHTO   O43 3611   7.285   3.956   1.214  0.3490 -0.3194  0.0068
    9CHTO  H101 3612   7.235   4.035   1.225 -2.0742 -1.8839  0.7619
    9CHTO   C66 3613   7.128   3.747   1.239 -0.7553  0.8199  0.3139
    9CHTO  H123 3614   7.132   3.655   1.297 -0.8586  0.2525 -0.5722
    9CHTO   N12 3615   6.990   3.801   1.246 -0.0307 -0.1408 -0.1815
    9CHTO  H110 3616   6.947   3.820   1.343 -0.2244  0.8570 -0.4496
    9CHTO  H111 3617   6.984   3.894   1.190 -1.4991 -0.9430 -1.3779
    9CHTO   C69 3618   7.181   3.694   1.103  1.1998  0.3275  0.7555
    9CHTO  H126 3619   7.211   3.777   1.036  1.3953  1.9656  2.7976
    9CHTO   O41 3620   7.316   3.608   1.122  0.3039 -0.1929 -0.2598
    9CHTO   C64 3621   7.435   3.691   1.182  0.5517 -0.2576 -0.5854
    9CHTO  H121 3622   7.471   3.773   1.117 -0.3598  0.6997  0.1075
    9CHTO   C71 3623   7.547   3.592   1.202 -0.2907  0.3691 -0.3850
    9CHTO   O47 3624   7.652   3.656   1.270 -0.0938  0.2491 -0.1226
    9CHTO  H104 3625   7.621   3.675   1.356 -0.1892 -2.1218  0.4222
    9CHTO   O34 3626   7.077   3.608   1.041  1.0832  0.4212 -0.1055
    9CHTO   C49 3627   7.058   3.446   1.073  0.2435 -0.1555  0.5060
    9CHTO   H91 3628   7.054   3.438   1.181 -1.3928  2.1840  0.6633
    9CHTO   C47 3629   7.171   3.358   1.012  0.4091 -0.3473 -0.4415
    9CHTO   H89 3630   7.264   3.379   1.069 -0.5192  1.6931  0.3450
    9CHTO   O33 3631   7.189   3.392   0.875  0.2271  0.1630  0.3529
    9CHTO   H70 3632   7.246   3.466   0.863  1.1043 -0.5327  0.2014
    9CHTO   C45 3633   7.140   3.198   1.022 -0.4979 -0.3933 -0.5167
    9CHTO   H87 3634   7.103   3.164   0.924 -0.6478  2.7906 -1.6179
    9CHTO    N8 3635   7.262   3.122   1.067 -0.5898 -0.0743 -0.2743
    9CHTO   H75 3636   7.256   3.018   1.038 -1.0202 -0.0644 -0.2242
    9CHTO   H76 3637   7.265   3.134   1.174  0.2928  2.0959 -0.5148
    9CHTO   C43 3638   7.011   3.171   1.120 -0.2598  0.0991 -0.7827
    9CHTO   H85 3639   6.994   3.064   1.115  2.7989 -0.5632  1.5776
    9CHTO   O29 3640   6.897   3.251   1.074 -0.0129  0.6260 -0.1957
    9CHTO   C50 3641   6.918   3.382   1.033  0.3421 -0.0589  0.4348
    9CHTO   H92 3642   6.892   3.390   0.926 -0.0774  1.2160  0.6271
    9CHTO   C54 3643   6.807   3.469   1.095 -0.2268  0.0436  0.7205
    9CHTO   O36 3644   6.681   3.463   1.033 -0.0804  0.0474  0.2910
    9CHTO   H72 3645   6.639   3.384   1.060 -0.3600 -0.0963 -0.5256
    9CHTO   O27 3646   7.032   3.205   1.261 -0.7116  0.3572  0.1528
    9CHTO   C37 3647   7.032   3.220   1.402  0.3649 -0.1261 -0.0996
    9CHTO   H79 3648   7.057   3.123   1.447  0.8856  0.3220  0.5971
    9CHTO   C38 3649   7.153   3.325   1.432  0.4843  0.6724 -0.8477
    9CHTO   H80 3650   7.146   3.406   1.358  1.5693  0.4290 -1.2391
    9CHTO   O31 3651   7.278   3.257   1.408  0.0180  0.7903  0.2246
    9CHTO   H68 3652   7.346   3.315   1.437 -2.4550  2.8294  2.1230
    9CHTO   C39 3653   7.143   3.380   1.581 -0.5888 -0.2212  0.1938
    9CHTO   H81 3654   7.180   3.306   1.652  1.8886  0.9609  0.1903
    9CHTO    N7 3655   7.244   3.491   1.607  0.1101  0.1395  0.1622
    9CHTO   H73 3656   7.326   3.448   1.551 -1.5196  0.3138 -2.4087
    9CHTO   H74 3657   7.274   3.486   1.711 -0.5529  0.8088  0.3833
    9CHTO   C40 3658   6.991   3.421   1.616 -0.1713  0.0361  0.4030
    9CHTO   H82 3659   6.963   3.497   1.542  1.7402 -1.0996 -1.5493
    9CHTO   O26 3660   6.916   3.301   1.597  0.3844  0.0114  1.2180
    9CHTO   C41 3661   6.899   3.275   1.455  0.0755 -0.0542  0.2722
    9CHTO   H83 3662   6.863   3.360   1.396  0.9352  0.0674 -0.0904
    9CHTO   C52 3663   6.796   3.162   1.439 -0.2046 -0.2227 -0.3576
    9CHTO   O35 3664   6.685   3.180   1.521  0.0484  0.1667 -0.1118
    9CHTO   H71 3665   6.621   3.144   1.463 -0.1800  0.9745 -0.3714
    9CHTO   O28 3666   6.972   3.474   1.741  0.5900  0.0090 -0.2176
    9CHTO   C42 3667   6.869   3.560   1.773 -0.8752 -0.5009 -0.2019
    9CHTO   H84 3668   6.901   3.591   1.872 -2.6203  1.0208 -0.0640
    9CHTO   C44 3669   6.727   3.492   1.786  0.4853 -0.5599 -1.0505
    9CHTO   H86 3670   6.702   3.440   1.693  0.8485 -2.5615 -0.0677
    9CHTO   O32 3671   6.745   3.390   1.892  0.1011  0.6366 -0.2560
    9CHTO   H69 3672   6.829   3.348   1.886 -0.4384 -0.4840  0.0664
    9CHTO   C48 3673   6.607   3.591   1.823 -0.4219  0.1931 -0.2483
    9CHTO   H90 3674   6.617   3.622   1.927  0.0686 -0.7876 -0.0022
    9CHTO    N9 3675   6.477   3.520   1.819  0.4034  0.5328  0.0863
    9CHTO   H77 3676   6.474   3.466   1.726  0.2052  0.0706  0.3563
    9CHTO   H78 3677   6.466   3.448   1.899  0.2245  0.4860  0.0188
    9CHTO   C51 3678   6.614   3.705   1.712 -0.4268 -0.2036  0.3374
    9CHTO   H93 3679   6.617   3.669   1.609 -1.0908  0.5094  0.0617
    9CHTO   O30 3680   6.733   3.779   1.744 -0.0320 -0.7114  0.0567
    9CHTO   C46 3681   6.857   3.695   1.689  0.3427 -0.5733  0.4057
    9CHTO   H88 3682   6.836   3.672   1.585 -0.1343  1.9018 -0.0788
    9CHTO   C53 3683   6.981   3.781   1.715 -0.4022 -0.2120  0.3411
    9CHTO   O72 3684   6.984   3.894   1.630 -0.3385  0.0075  0.6937
    9CHTO  H199 3685   7.071   3.909   1.599  0.6693  0.1292  3.3659
    9CHTO   O22 3686   6.506   3.795   1.719 -0.0971 -1.0057 -0.0219
    9CHTO   C31 3687   6.474   3.881   1.613  0.1700 -0.2060  0.3675
    9CHTO   H59 3688   6.383   3.937   1.643  1.4398  3.0333 -1.5354
    9CHTO   C29 3689   6.579   3.993   1.588 -0.3240 -0.1499 -0.0686
    9CHTO   H57 3690   6.677   3.949   1.564 -0.6403 -0.1501 -1.3603
    9CHTO   O21 3691   6.600   4.064   1.709 -0.6706  0.1588  0.5880
    9CHTO   H37 3692   6.662   4.131   1.691 -2.2780  2.1765  2.2500
    9CHTO   C27 3693   6.543   4.092   1.471  0.2559  0.2879  0.3452
    9CHTO   H55 3694   6.452   4.149   1.493 -0.8852 -1.6694  0.7362
    9CHTO    N5 3695   6.659   4.185   1.442  0.5545 -0.0431  0.2539
    9CHTO   H43 3696   6.636   4.286   1.414  0.1155 -0.5827 -1.4104
    9CHTO   H44 3697   6.718   4.149   1.358  1.0714 -1.0110  1.0156
    9CHTO   C25 3698   6.520   3.999   1.343  0.6151 -0.6151  0.3795
    9CHTO   H53 3699   6.613   3.941   1.330  0.8702  0.3090 -2.3756
    9CHTO   O17 3700   6.411   3.903   1.370  0.0787 -0.9865  0.1783
    9CHTO   C32 3701   6.439   3.807   1.475  0.1407  0.2734 -0.5224
    9CHTO   H60 3702   6.528   3.750   1.449 -1.3221 -2.5521  0.4338
    9CHTO   C36 3703   6.317   3.706   1.482  0.4521 -0.4636  0.2952
    9CHTO   O25 3704   6.191   3.766   1.497 -0.6595  0.2058 -0.0825
    9CHTO   H40 3705   6.128   3.730   1.438 -1.3068  1.2971 -0.0658
    9CHTO   O15 3706   6.483   4.081   1.218  0.4377  0.6351 -0.9052
    9CHTO   C19 3707   6.435   4.055   1.081  0.4851 -0.6247 -0.1143
    9CHTO   H47 3708   6.490   4.122   1.014 -3.1770  0.5789 -2.0300
    9CHTO   C20 3709   6.460   3.901   1.039  0.0808 -0.4669 -0.0249
    9CHTO   H48 3710   6.412   3.832   1.110 -1.5534  0.8490  0.1937
    9CHTO   O19 3711   6.604   3.884   1.036  0.0518  0.6547  0.1642
    9CHTO   H35 3712   6.631   3.802   0.997 -0.4378  0.6367 -0.1505
    9CHTO   C21 3713   6.405   3.867   0.892  0.4013  0.1182 -0.0123
    9CHTO   H49 3714   6.465   3.916   0.816 -1.1317  1.4589 -0.3732
    9CHTO    N4 3715   6.417   3.718   0.865  0.0795 -0.5841 -0.5176
    9CHTO   H41 3716   6.476   3.719   0.774 -0.2890  0.2531 -0.7551
    9CHTO   H42 3717   6.470   3.663   0.941 -1.0096 -1.2777 -0.2456
    9CHTO   C22 3718   6.259   3.923   0.877 -1.0875 -0.7173  1.1610
    9CHTO   H50 3719   6.183   3.863   0.928 -0.2905 -0.4135  2.7441
    9CHTO   O14 3720   6.258   4.059   0.924 -0.2003 -0.2747 -0.0702
    9CHTO   C23 3721   6.284   4.085   1.063 -0.2263 -0.3312  0.3509
    9CHTO   H51 3722   6.219   4.024   1.127  0.5146 -0.8164  0.6362
    9CHTO   C34 3723   6.248   4.230   1.097 -0.7217  0.6659 -0.1021
    9CHTO   O23 3724   6.118   4.273   1.049  0.6844 -0.4041 -0.1022
    9CHTO   H38 3725   6.062   4.198   1.058 -0.1978  0.2763  0.1449
    9CHTO   O16 3726   6.229   3.934   0.738 -0.1072  0.1619 -0.3700
    9CHTO   C24 3727   6.161   3.809   0.656 -0.2251 -0.3055  0.3942
    9CHTO   H52 3728   6.168   3.716   0.713  0.5166 -1.5592 -1.7133
    9CHTO   C26 3729   6.232   3.799   0.519  0.0706 -0.6493 -0.3108
    9CHTO   H54 3730   6.244   3.903   0.480 -1.6201 -0.2940  0.0995
    9CHTO   O20 3731   6.357   3.742   0.555 -0.1168  0.1500 -0.0629
    9CHTO   H36 3732   6.397   3.711   0.476 -0.5525 -0.2246 -0.1385
    9CHTO   C30 3733   6.157   3.711   0.413 -0.2594  0.4180  0.1932
    9CHTO   H58 3734   6.154   3.604   0.439  0.0564 -0.3907 -2.9451
    9CHTO    N6 3735   6.210   3.716   0.273 -0.4540  0.0487 -0.2616
    9CHTO   H45 3736   6.294   3.782   0.265 -1.3156  1.0681 -1.0121
    9CHTO   H46 3737   6.130   3.738   0.202 -0.8442  0.1264  0.2006
    9CHTO   C33 3738   6.001   3.742   0.418 -0.4627 -0.5293  0.6572
    9CHTO   H61 3739   5.976   3.842   0.378 -1.0163 -1.3179 -1.0127
    9CHTO   O18 3740   5.956   3.732   0.554  0.4625 -0.3378 -0.0688
    9CHTO   C28 3741   6.012   3.839   0.638  0.0640 -0.0457 -0.1762
    9CHTO   H56 3742   5.992   3.934   0.589 -0.4758  1.3002  2.5726
    9CHTO   C35 3743   5.936   3.834   0.777  0.0402  0.3103  0.0050
    9CHTO   O24 3744   5.808   3.888   0.792 -0.2935 -0.4368 -0.6924
    9CHTO   H39 3745   5.778   3.925   0.711  2.1333  2.1476 -0.5225
    9CHTO    O9 3746   5.918   3.656   0.331 -0.4369  0.1985 -0.0050
    9CHTO   C13 3747   5.752   3.709   0.312 -0.7160 -0.0576  0.0274
    9CHTO   H26 3748   5.746   3.804   0.256  0.2002 -1.8254 -3.2271
    9CHTO   C11 3749   5.691   3.719   0.456  0.7009 -0.4028  0.2165
    9CHTO   H24 3750   5.745   3.802   0.503  0.7508 -1.2599  1.6895
    9CHTO    O8 3751   5.707   3.608   0.540 -0.2555 -0.1839  0.0410
    9CHTO    H3 3752   5.798   3.586   0.543 -0.2723 -0.1640  0.7617
    9CHTO    C9 3753   5.543   3.753   0.437 -0.0462 -0.0765  0.3014
    9CHTO   H22 3754   5.545   3.845   0.376 -0.6001 -1.4718 -1.8979
    9CHTO    N2 3755   5.474   3.783   0.566 -0.6479 -0.6589 -0.2768
    9CHTO   H10 3756   5.445   3.701   0.631 -1.0013 -1.0807 -0.9619
    9CHTO   H11 3757   5.390   3.849   0.548 -0.3024 -0.2286 -0.3024
    9CHTO    C7 3758   5.460   3.646   0.355  0.0152  0.4073  0.0951
    9CHTO   H20 3759   5.370   3.703   0.326 -0.3633  0.5471  1.4884
    9CHTO    O4 3760   5.524   3.605   0.229  1.0643  0.1459 -0.3737
    9CHTO   C14 3761   5.672   3.597   0.229 -1.0867 -0.4563 -0.5584
    9CHTO   H27 3762   5.701   3.626   0.126 -0.3096  2.2791  0.4066
    9CHTO   C18 3763   5.721   3.452   0.259 -0.3480  0.6617  0.1028
    9CHTO   O13 3764   5.634   3.351   0.196 -0.8242  0.1785  0.2771
    9CHTO    H7 3765   5.665   3.263   0.184 -0.1891  0.7488 -2.8838
    9CHTO    O2 3766   5.441   3.511   0.445  0.7949 -0.3034  0.4104
    9CHTO    C1 3767   5.317   3.436   0.432  0.1710  0.2645 -0.4771
    9CHTO   H14 3768   5.302   3.428   0.323  1.8205  2.0209 -0.8571
    9CHTO    C2 3769   5.185   3.503   0.496  0.2088  0.7947  0.6851
    9CHTO   H15 3770   5.200   3.509   0.605  0.1036  0.0678  0.7370
    9CHTO    O6 3771   5.168   3.636   0.439 -0.0764 -0.2540  0.2824
    9CHTO    H1 3772   5.164   3.699   0.508 -0.9228 -0.0680  0.0750
    9CHTO    C3 3773   5.056   3.417   0.467 -0.2492  0.2983  0.2937
    9CHTO   H16 3774   5.029   3.416   0.360  2.3830  1.9436 -0.4255
    9CHTO    N1 3775   4.934   3.465   0.540  0.0645  0.0042  0.1338
    9CHTO    H8 3776   4.900   3.559   0.499 -0.4419 -1.1817 -2.2887
    9CHTO    H9 3777   4.857   3.391   0.522 -0.8722  1.0717 -0.3523
    9CHTO    C4 3778   5.086   3.272   0.500 -0.2771 -0.3886  0.0863
    9CHTO   H17 3779   5.089   3.256   0.608  0.7146 -1.5624 -0.1064
    9CHTO    O1 3780   5.212   3.222   0.452  0.2278 -0.6038 -0.1686
    9CHTO    C5 3781   5.324   3.298   0.505 -0.0265  0.3511  0.6083
    9CHTO   H18 3782   5.326   3.306   0.614 -1.1428 -0.2956  0.6832
    9CHTO   C16 3783   5.442   3.209   0.463 -0.3707  0.0690  0.3300
    9CHTO   O11 3784   5.565   3.264   0.519 -0.9186 -0.1270 -0.2438
    9CHTO    H5 3785   5.571   3.242   0.610  0.6473 -0.2606 -0.3603
    9CHTO    O3 3786   5.001   3.177   0.422  0.5707  0.1751 -0.1501
    9CHTO    C6 3787   4.930   3.074   0.503 -0.0551 -0.0974  0.1382
    9CHTO   H19 3788   4.945   3.086   0.611 -0.0715 -0.5904  0.1962
    9CHTO    C8 3789   4.775   3.079   0.472 -0.0334 -0.4662  0.3064
    9CHTO   H21 3790   4.765   3.118   0.371  2.4359 -0.5354 -0.0009
    9CHTO    O7 3791   4.734   3.185   0.561  0.6709 -0.1777 -0.3490
    9CHTO    H2 3792   4.663   3.233   0.522  0.4981 -0.3461 -0.2389
    9CHTO   C12 3793   4.699   2.941   0.500 -0.4324 -0.5450  0.5650
    9CHTO   H25 3794   4.686   2.931   0.610 -0.0898 -1.8854  0.4945
    9CHTO    N3 3795   4.566   2.939   0.443  0.1255  0.6129 -0.1187
    9CHTO   H12 3796   4.530   2.838   0.433  1.2827  0.4476 -2.9808
    9CHTO   H13 3797   4.547   2.999   0.356  0.7892  1.1878  0.1249
    9CHTO   C15 3798   4.789   2.818   0.452 -0.3538 -0.4115 -0.6069
    9CHTO   H28 3799   4.795   2.800   0.345 -0.7256  1.2213 -0.9187
    9CHTO   O10 3800   4.739   2.678   0.501  1.0336  0.0929  0.3877
    9CHTO    H4 3801   4.766   2.607   0.447 -0.1484  0.1353 -0.2793
    9CHTO    O5 3802   4.931   2.821   0.495  0.1782 -0.5887 -0.2692
    9CHTO   C10 3803   4.993   2.936   0.453 -0.0353 -0.1347  0.5270
    9CHTO   H23 3804   4.991   2.946   0.344 -0.1564 -1.0333  0.4370
    9CHTO   C17 3805   5.146   2.920   0.493  0.0728  0.4220  0.4267
    9CHTO   O12 3806   5.197   2.797   0.439 -0.3058 -0.1641  0.4846
    9CHTO    H6 3807   5.201   2.737   0.511 -3.9548  0.2621  1.1236
   10CHTO  H203 3808   3.652   6.546   1.897  2.5093  0.6905  2.3477
   10CHTO   O82 3809   3.585   6.529   1.961 -0.3605  0.0847 -0.6460
   10CHTO  C123 3810   3.641   6.561   2.091 -0.3183 -0.1278  0.2366
   10CHTO  H227 3811   3.695   6.657   2.088 -0.9323  0.4020  3.8299
   10CHTO   O77 3812   3.532   6.556   2.180 -0.5422  0.3592  0.9396
   10CHTO  C118 3813   3.561   6.606   2.306  0.1511 -0.5796 -0.3797
   10CHTO  H222 3814   3.585   6.712   2.292 -0.9184 -0.0552  1.5602
   10CHTO  C125 3815   3.429   6.602   2.382  0.1515 -0.3787 -0.2550
   10CHTO   O84 3816   3.347   6.704   2.328  0.3965 -0.7791  0.5029
   10CHTO  H205 3817   3.269   6.665   2.294  0.3434  1.7847 -2.5593
   10CHTO  C114 3818   3.670   6.519   2.375 -0.4277 -0.2429  0.6327
   10CHTO  H218 3819   3.624   6.422   2.394 -3.8006  0.8418 -1.5686
   10CHTO  C116 3820   3.797   6.492   2.279 -0.1706  0.3259  1.5095
   10CHTO  H220 3821   3.854   6.587   2.277 -0.3259  0.4387 -2.6435
   10CHTO   O79 3822   3.879   6.402   2.340  0.0303  0.0528 -0.3934
   10CHTO  H201 3823   3.863   6.314   2.312 -1.4469 -0.0659  0.7410
   10CHTO  C120 3824   3.746   6.451   2.136  0.3450  0.8222 -1.0927
   10CHTO  H224 3825   3.704   6.349   2.146 -0.2269  1.0961 -0.6153
   10CHTO   N21 3826   3.860   6.433   2.040 -0.0736  0.0448 -0.4807
   10CHTO  H211 3827   3.942   6.497   2.073  0.7952 -0.1910 -2.1334
   10CHTO  H212 3828   3.829   6.458   1.940  1.8589  2.7673 -0.4917
   10CHTO   O75 3829   3.703   6.593   2.502  0.1528 -0.2100 -0.2205
   10CHTO  C112 3830   3.713   6.523   2.640  0.4627 -0.0964 -0.5095
   10CHTO  H216 3831   3.778   6.435   2.631  4.0220  2.4709 -0.6352
   10CHTO   O73 3832   3.575   6.486   2.683  0.5112  0.2018 -0.3221
   10CHTO  C113 3833   3.557   6.442   2.816 -0.1949 -0.2518  0.4910
   10CHTO  H217 3834   3.600   6.340   2.831  0.3814 -0.1906 -0.6532
   10CHTO  C124 3835   3.408   6.434   2.852  0.2771  0.0921  0.1374
   10CHTO   O83 3836   3.316   6.351   2.782 -0.2080 -0.5730  0.3485
   10CHTO  H204 3837   3.231   6.373   2.814  0.4103 -1.8962  3.0487
   10CHTO  C109 3838   3.624   6.527   2.922 -0.4216  0.6385 -0.5050
   10CHTO  H213 3839   3.564   6.619   2.925  0.2439  1.0269  0.9493
   10CHTO  C110 3840   3.780   6.552   2.886 -0.3008 -0.0763  0.3552
   10CHTO  H214 3841   3.835   6.458   2.885 -2.4727 -1.3648  0.0300
   10CHTO   O78 3842   3.845   6.630   2.985  0.3465  0.0864  0.4648
   10CHTO  H200 3843   3.792   6.645   3.061  0.4028  1.9267  0.1697
   10CHTO  C111 3844   3.778   6.619   2.747 -0.9872 -0.3494  0.4141
   10CHTO  H215 3845   3.719   6.711   2.752 -1.1027 -0.3711 -0.4856
   10CHTO   N19 3846   3.914   6.659   2.703 -0.2365  0.2570  0.4831
   10CHTO  H207 3847   3.976   6.571   2.696  2.3988  2.0895  0.0898
   10CHTO  H208 3848   3.902   6.697   2.602  0.2599  0.9878  0.7007
   10CHTO   O74 3849   3.612   6.462   3.054  0.0397 -0.0210 -0.5624
   10CHTO  C115 3850   3.574   6.566   3.173 -0.3203 -0.1472  1.3595
   10CHTO  H219 3851   3.634   6.656   3.162  2.1345 -1.8848 -0.0054
   10CHTO   O76 3852   3.411   6.614   3.148 -0.1137  0.0972 -0.5268
   10CHTO  C122 3853   3.364   6.686   3.257 -0.1399  0.7766 -0.0980
   10CHTO  H226 3854   3.257   6.701   3.240 -0.6066 -3.1495 -1.0414
   10CHTO  C126 3855   3.431   6.830   3.272  0.1796  0.2312  0.8618
   10CHTO   O85 3856   3.375   6.911   3.372 -0.3500 -0.1376  0.3038
   10CHTO  H206 3857   3.285   6.933   3.354  0.7714  1.7477 -3.5538
   10CHTO  C121 3858   3.385   6.603   3.391 -0.5003 -0.6984 -0.2864
   10CHTO  H225 3859   3.340   6.664   3.472 -0.5174 -0.1727 -0.6940
   10CHTO   O81 3860   3.315   6.477   3.384  0.5789 -0.1659  0.0016
   10CHTO  H202 3861   3.265   6.467   3.305  0.7477 -1.4451  0.0569
   10CHTO  C119 3862   3.545   6.592   3.421  0.2017  0.0377 -0.0408
   10CHTO  H223 3863   3.593   6.689   3.426  0.1204  0.1500 -1.2839
   10CHTO  C117 3864   3.606   6.500   3.311  0.3455  0.2371  0.0193
   10CHTO  H221 3865   3.576   6.396   3.306 -1.3194  0.6607  0.9328
   10CHTO   N20 3866   3.755   6.496   3.321  0.8227 -0.0655  0.5373
   10CHTO  H209 3867   3.801   6.539   3.409 -2.8177 -1.4909  3.2326
   10CHTO  H210 3868   3.787   6.393   3.319 -1.0157 -0.6217 -0.6395
   10CHTO   O80 3869   3.588   6.531   3.592 -0.0048 -0.5176 -0.5159
   10CHTO  C103 3870   3.491   6.589   3.733 -0.3033 -0.1649 -0.1926
   10CHTO  H190 3871   3.549   6.567   3.823  0.8983  2.8812 -0.1860
   10CHTO  C101 3872   3.450   6.747   3.725  0.0739  0.5952 -0.2804
   10CHTO  H188 3873   3.392   6.774   3.637 -0.6364  0.2126  0.0642
   10CHTO   O68 3874   3.591   6.827   3.722  0.3456 -0.2693 -0.2890
   10CHTO  H168 3875   3.599   6.898   3.660 -0.4150 -0.5018 -0.6530
   10CHTO   C99 3876   3.349   6.792   3.834 -0.0835  0.2665  0.6583
   10CHTO  H186 3877   3.404   6.766   3.927  3.3638 -0.5859 -1.5222
   10CHTO   N17 3878   3.310   6.939   3.817 -0.0112 -0.1614  0.6667
   10CHTO  H174 3879   3.338   6.979   3.720  0.9440 -0.2733  0.8926
   10CHTO  H175 3880   3.207   6.954   3.846 -1.2400 -0.6198 -3.1901
   10CHTO   C97 3881   3.229   6.699   3.825 -0.1769  0.4811 -0.0642
   10CHTO  H184 3882   3.189   6.710   3.723 -0.0618  2.2321  0.0513
   10CHTO   O64 3883   3.276   6.566   3.848 -0.0939 -0.1138  0.0197
   10CHTO  C104 3884   3.357   6.505   3.745 -0.9555  0.5846 -0.3282
   10CHTO  H191 3885   3.305   6.500   3.649 -2.0741  0.2681  0.2936
   10CHTO  C108 3886   3.382   6.357   3.786 -0.8761 -0.4117  0.1712
   10CHTO   O71 3887   3.471   6.293   3.689  0.1701  0.3734 -0.3765
   10CHTO  H171 3888   3.468   6.199   3.692 -1.7056  0.3361 -2.0195
   10CHTO   O62 3889   3.136   6.725   3.931 -0.7381 -0.2379  0.2214
   10CHTO   C91 3890   2.997   6.710   3.890 -0.0475 -0.7114  0.0320
   10CHTO  H178 3891   2.991   6.633   3.814 -0.4908 -1.2693  0.6279
   10CHTO   C92 3892   2.932   6.837   3.831  0.3196  0.4581 -0.0070
   10CHTO  H179 3893   2.980   6.913   3.895  0.2735  1.4321 -1.1026
   10CHTO   O66 3894   2.990   6.856   3.698  0.3526 -0.3163 -0.4206
   10CHTO  H166 3895   2.988   6.948   3.678  0.1379 -0.9817 -3.9295
   10CHTO   C93 3896   2.777   6.854   3.827  0.1880  0.6180  0.3470
   10CHTO  H180 3897   2.738   6.784   3.751  1.7347 -0.8847  0.8817
   10CHTO   N16 3898   2.738   6.985   3.781 -0.1257 -0.6611  0.8440
   10CHTO  H172 3899   2.779   7.059   3.849  1.6783 -1.3979  0.5741
   10CHTO  H173 3900   2.770   7.001   3.679 -0.3167 -0.3499  0.8301
   10CHTO   C94 3901   2.720   6.818   3.971 -0.0683 -0.1461 -0.5371
   10CHTO  H181 3902   2.753   6.885   4.050 -1.1069  2.7244 -2.4653
   10CHTO   O61 3903   2.766   6.688   3.999 -0.2725  0.2456 -0.5175
   10CHTO   C95 3904   2.912   6.664   4.016  0.7405 -0.1750  0.0076
   10CHTO  H182 3905   2.943   6.712   4.109  0.4430 -0.6453  0.3466
   10CHTO  C106 3906   2.945   6.519   4.041  0.2490  0.4474  0.1454
   10CHTO   O69 3907   2.900   6.484   4.175  0.1315  0.0816  0.4263
   10CHTO  H169 3908   2.872   6.395   4.185 -1.0914  0.4522  0.4123
   10CHTO   O63 3909   2.570   6.836   3.983 -0.7306  0.5421 -0.4014
   10CHTO   C96 3910   2.497   6.767   4.092  0.1673  0.2401  0.1501
   10CHTO  H183 3911   2.507   6.659   4.081 -0.0858  0.1642  0.6456
   10CHTO   C98 3912   2.342   6.794   4.058  0.7663  0.1307 -0.0945
   10CHTO  H185 3913   2.337   6.901   4.037  3.1993  0.5143  1.1205
   10CHTO   O67 3914   2.316   6.732   3.927 -0.1825 -0.0063  0.2459
   10CHTO  H167 3915   2.239   6.680   3.934  0.3311 -1.1142 -1.8085
   10CHTO  C102 3916   2.244   6.752   4.174  0.3268  0.6099 -0.1768
   10CHTO  H189 3917   2.257   6.643   4.188  1.1850  0.4879 -1.9149
   10CHTO   N18 3918   2.100   6.769   4.141  0.2057 -0.4902  0.2268
   10CHTO  H176 3919   2.057   6.677   4.105 -0.9383  0.4336 -0.8359
   10CHTO  H177 3920   2.090   6.848   4.068  2.4595 -0.0157  0.3876
   10CHTO  C105 3921   2.293   6.822   4.312  0.0382 -0.2835 -0.6387
   10CHTO  H192 3922   2.231   6.910   4.329  1.5271  0.7525 -0.5187
   10CHTO   O65 3923   2.430   6.878   4.301  0.2264 -0.1684  0.2389
   10CHTO  C100 3924   2.533   6.814   4.231  0.2055 -0.2980  0.1254
   10CHTO  H187 3925   2.609   6.893   4.223  0.9348 -0.9998  0.0456
   10CHTO  C107 3926   2.598   6.705   4.328 -0.1654  0.2363 -0.1229
   10CHTO   O70 3927   2.526   6.578   4.346  0.3978  0.0228 -0.3431
   10CHTO  H170 3928   2.560   6.542   4.426 -0.2576 -0.6702 -0.3678
   10CHTO   O57 3929   2.271   6.717   4.420 -0.3586 -0.3256 -0.4453
   10CHTO   C85 3930   2.223   6.755   4.553  0.0591 -0.2246 -0.5305
   10CHTO  H157 3931   2.140   6.827   4.537  0.3427 -0.1178 -1.5359
   10CHTO   C83 3932   2.318   6.848   4.632 -0.0375 -0.2137  0.0463
   10CHTO  H155 3933   2.329   6.937   4.570 -1.2388 -1.0988 -1.4561
   10CHTO   O56 3934   2.452   6.793   4.638  0.1195 -0.7702  0.0812
   10CHTO  H135 3935   2.521   6.841   4.680 -1.7010  1.4835  0.5578
   10CHTO   C81 3936   2.253   6.882   4.769 -0.7210 -0.5595  0.1020
   10CHTO  H153 3937   2.158   6.932   4.751 -0.5136 -0.4499 -0.6831
   10CHTO   N14 3938   2.322   6.977   4.854 -0.6356 -0.1749  0.1739
   10CHTO  H141 3939   2.429   6.970   4.860 -0.3484  3.4531  0.6227
   10CHTO  H142 3940   2.280   6.973   4.952  0.9756 -1.1575  0.8520
   10CHTO   C79 3941   2.232   6.747   4.846 -0.2448 -0.8420 -0.9457
   10CHTO  H151 3942   2.186   6.774   4.940 -1.6404 -2.1256 -1.2309
   10CHTO   O52 3943   2.129   6.666   4.779  0.0570  0.2075  0.2756
   10CHTO   C86 3944   2.176   6.632   4.645 -0.6917  0.1607 -0.5682
   10CHTO  H158 3945   2.266   6.569   4.661 -0.1283  1.1370  0.1355
   10CHTO   C90 3946   2.074   6.547   4.571 -0.2609 -0.8731  0.1910
   10CHTO   O60 3947   2.015   6.452   4.663 -0.1680 -0.1407 -0.0633
   10CHTO  H138 3948   1.942   6.409   4.623 -0.7477  0.1253  0.6879
   10CHTO   O50 3949   2.353   6.675   4.876 -0.4936 -0.7344  0.5645
   10CHTO   C73 3950   2.372   6.556   4.951  0.7452  0.0787  0.0707
   10CHTO  H145 3951   2.304   6.477   4.918  2.1857 -0.9948 -0.4124
   10CHTO   C74 3952   2.367   6.576   5.107  0.0508  0.2808 -0.0376
   10CHTO  H146 3953   2.261   6.597   5.127 -0.2044 -2.9082  2.3685
   10CHTO   O54 3954   2.394   6.461   5.179 -0.7555 -0.3648 -0.0132
   10CHTO  H133 3955   2.480   6.425   5.173 -0.4930  0.1464  0.5479
   10CHTO   C75 3956   2.461   6.699   5.142 -0.4150 -0.1607  0.0266
   10CHTO  H147 3957   2.444   6.784   5.074 -2.8294  0.2051  1.0345
   10CHTO   N13 3958   2.437   6.756   5.273  0.2479 -0.1237 -0.0183
   10CHTO  H139 3959   2.398   6.691   5.351 -0.8249  0.9159  0.3242
   10CHTO  H140 3960   2.527   6.803   5.311 -0.8825  1.2158  1.0481
   10CHTO   C76 3961   2.609   6.648   5.123 -0.7054  0.1770  0.2852
   10CHTO  H148 3962   2.629   6.570   5.196 -2.3312 -0.2593  0.2733
   10CHTO   O49 3963   2.624   6.594   4.983  0.0816  0.0776  0.5802
   10CHTO   C77 3964   2.522   6.506   4.930 -0.1490  0.0110 -0.5111
   10CHTO  H149 3965   2.531   6.410   4.980  1.2052 -0.2318 -1.1951
   10CHTO   C88 3966   2.560   6.471   4.785 -0.2897 -0.2715 -0.1514
   10CHTO   O58 3967   2.447   6.406   4.698 -0.1131 -0.1117  0.4873
   10CHTO  H136 3968   2.482   6.349   4.631  0.4785  0.3916  0.3604
   10CHTO   O51 3969   2.715   6.788   5.132  0.0290  0.5493  0.2345
   10CHTO   C78 3970   2.827   6.764   5.208  0.1512  0.4927  0.5197
   10CHTO  H150 3971   2.847   6.655   5.215  0.6823  0.5492 -0.0514
   10CHTO   C80 3972   2.830   6.829   5.350  0.0379  0.3241  0.0595
   10CHTO  H152 3973   2.810   6.938   5.340  0.2103  0.2794 -0.8202
   10CHTO   O55 3974   2.726   6.761   5.431 -0.3320 -0.2841  0.2792
   10CHTO  H134 3975   2.640   6.798   5.424 -0.6099 -0.5063  2.1716
   10CHTO   C84 3976   2.970   6.800   5.413  0.2115 -0.6422  0.3062
   10CHTO  H156 3977   2.991   6.694   5.428 -0.8538 -0.6345  2.0091
   10CHTO   N15 3978   2.978   6.862   5.549 -0.0954  0.2854 -0.5556
   10CHTO  H143 3979   3.007   6.963   5.531 -1.9569  0.9297 -0.1240
   10CHTO  H144 3980   3.052   6.812   5.608  1.0124  1.0173 -1.3051
   10CHTO   C87 3981   3.086   6.845   5.319 -0.4762 -0.9490  0.2871
   10CHTO  H159 3982   3.069   6.952   5.308  0.3044 -1.0265 -1.8708
   10CHTO   O53 3983   3.070   6.792   5.194  0.2297 -0.5136 -0.3372
   10CHTO   C82 3984   2.944   6.828   5.133 -0.5037 -0.5155 -0.4568
   10CHTO  H154 3985   2.955   6.936   5.130 -0.4342 -0.5436 -1.5055
   10CHTO   C89 3986   2.952   6.780   4.985  0.3377  0.7021  0.0371
   10CHTO   O59 3987   2.988   6.642   4.960  0.0270  0.5171 -0.4145
   10CHTO  H137 3988   3.052   6.643   4.891  0.8334  0.7585  0.3333
   10CHTO   O45 3989   3.226   6.811   5.377 -0.3710  0.0380  0.1080
   10CHTO   C67 3990   3.320   6.914   5.356  0.1686  0.5834  0.3095
   10CHTO  H124 3991   3.309   6.956   5.256 -0.7828 -2.7562 -1.0596
   10CHTO   C65 3992   3.298   7.029   5.461 -0.5174 -0.8209 -0.1270
   10CHTO  H122 3993   3.193   7.058   5.470  0.7574  3.5420  2.8759
   10CHTO   O44 3994   3.366   7.153   5.416  0.3042 -0.2881 -0.5101
   10CHTO  H102 3995   3.350   7.177   5.327  0.7759  0.1982 -0.4648
   10CHTO   C63 3996   3.342   6.982   5.600 -0.5348  0.3439 -1.5472
   10CHTO  H120 3997   3.289   6.889   5.620 -0.6351  0.4882 -1.1327
   10CHTO   N11 3998   3.312   7.075   5.713  0.3243  0.7131 -0.0384
   10CHTO  H108 3999   3.355   7.041   5.804  0.7322  1.2539 -0.0235
   10CHTO  H109 4000   3.206   7.090   5.711  0.3199  0.8667  1.0365
   10CHTO   C61 4001   3.500   6.942   5.598  0.8589  0.6890 -0.0780
   10CHTO  H118 4002   3.510   6.888   5.693 -1.8799 -2.0173 -1.2394
   10CHTO   O40 4003   3.521   6.842   5.495 -0.7532 -0.2618  0.0226
   10CHTO   C68 4004   3.466   6.859   5.366 -0.0915  1.3281  0.6904
   10CHTO  H125 4005   3.466   6.758   5.320 -0.9898  1.1602  1.0644
   10CHTO   C72 4006   3.563   6.946   5.283  0.3965  1.2007  0.0145
   10CHTO   O48 4007   3.525   6.986   5.149 -0.3315  0.0853 -0.6870
   10CHTO  H105 4008   3.597   7.016   5.097 -0.2268  0.2886 -0.4251
   10CHTO   O38 4009   3.589   7.054   5.588  0.2244  0.1296  0.2097
   10CHTO   C55 4010   3.730   7.040   5.611 -0.4169 -0.7780 -0.1780
   10CHTO  H112 4011   3.757   6.964   5.536  0.1300 -0.7896  0.0287
   10CHTO   C56 4012   3.784   7.005   5.759  0.5412  0.5149  0.1079
   10CHTO  H113 4013   3.759   7.089   5.826 -1.4190  1.1243 -1.3543
   10CHTO   O42 4014   3.719   6.887   5.800  0.4586 -0.5161 -0.0300
   10CHTO  H100 4015   3.701   6.892   5.892  0.3419  0.6805 -0.1110
   10CHTO   C57 4016   3.941   6.989   5.747  0.0215  0.0547 -0.1615
   10CHTO  H114 4017   3.959   6.908   5.677  2.7067  0.7808 -0.3599
   10CHTO   N10 4018   3.994   6.960   5.887 -0.2570  0.3360 -0.4350
   10CHTO  H106 4019   3.945   6.992   5.977  1.2066 -0.0444  0.5087
   10CHTO  H107 4020   4.014   6.854   5.887  2.2884  0.7928 -0.6960
   10CHTO   C58 4021   4.000   7.119   5.688 -0.0333  0.1471  0.1201
   10CHTO  H115 4022   3.993   7.204   5.759  1.5787  2.4685 -2.3818
   10CHTO   O37 4023   3.943   7.156   5.562  0.5961 -0.0466  0.6542
   10CHTO   C59 4024   3.801   7.175   5.581 -0.7219  0.0064 -0.6325
   10CHTO  H116 4025   3.800   7.251   5.659  0.6316 -0.8766  0.2640
   10CHTO   C70 4026   3.745   7.241   5.453 -0.1573 -0.2714 -0.2299
   10CHTO   O46 4027   3.774   7.382   5.448 -0.4200 -0.3388 -0.2094
   10CHTO  H103 4028   3.775   7.403   5.357  0.8496 -0.4824 -0.2423
   10CHTO   O39 4029   4.139   7.097   5.660 -0.2488 -0.2439  0.2130
   10CHTO   C60 4030   4.207   7.228   5.633  0.5332  0.8057 -0.4599
   10CHTO  H117 4031   4.131   7.298   5.600 -1.9079 -0.9759  1.2632
   10CHTO   C62 4032   4.277   7.274   5.771  0.3438 -0.2151 -0.6889
   10CHTO  H119 4033   4.191   7.277   5.841  1.1737  1.2774  0.2996
   10CHTO   O43 4034   4.376   7.176   5.813  0.1679 -0.0790 -0.2680
   10CHTO  H101 4035   4.453   7.180   5.759 -0.1825 -0.2907 -0.7832
   10CHTO   C66 4036   4.336   7.426   5.746 -0.1962  0.0355 -0.1232
   10CHTO  H123 4037   4.254   7.484   5.704  0.6361  1.5130  0.2526
   10CHTO   N12 4038   4.377   7.499   5.869  0.0444  0.0023 -0.1879
   10CHTO  H110 4039   4.393   7.439   5.957 -0.2501 -2.4314 -1.7377
   10CHTO  H111 4040   4.468   7.555   5.856 -0.1411  0.0338 -1.4629
   10CHTO   C69 4041   4.441   7.411   5.635 -0.3291 -0.1602 -0.3659
   10CHTO  H126 4042   4.510   7.331   5.669 -0.4761  0.3832  1.2527
   10CHTO   O41 4043   4.387   7.344   5.513 -0.2356 -0.1301 -0.1872
   10CHTO   C64 4044   4.315   7.215   5.526 -0.5717 -0.3455  0.1867
   10CHTO  H121 4045   4.386   7.138   5.564  0.3874 -0.0535 -0.9697
   10CHTO   C71 4046   4.261   7.175   5.395  0.2901  0.0025  0.3490
   10CHTO   O47 4047   4.358   7.157   5.294  0.0038 -0.0856 -0.8249
   10CHTO  H104 4048   4.329   7.111   5.217  0.1872 -0.5181 -0.6389
   10CHTO   O34 4049   4.503   7.550   5.600  0.0082  0.0692  0.9482
   10CHTO   C49 4050   4.646   7.606   5.569 -0.4032 -0.0459  0.2826
   10CHTO   H91 4051   4.727   7.535   5.590 -0.5437 -0.5780 -0.9630
   10CHTO   C47 4052   4.669   7.726   5.658 -0.3233 -0.1745 -0.0745
   10CHTO   H89 4053   4.769   7.771   5.641  0.5062 -0.9754  2.4615
   10CHTO   O33 4054   4.673   7.667   5.794  0.1486 -0.0340  0.1818
   10CHTO   H70 4055   4.701   7.733   5.853  0.8444  0.3225 -0.5377
   10CHTO   C45 4056   4.553   7.833   5.626 -0.4323  0.9318  0.1063
   10CHTO   H87 4057   4.453   7.793   5.648 -0.0854 -0.3370 -0.5746
   10CHTO    N8 4058   4.580   7.953   5.719 -0.6309  0.2510 -0.3981
   10CHTO   H75 4059   4.645   8.022   5.668  1.1353 -0.3276  1.0119
   10CHTO   H76 4060   4.487   7.999   5.751 -0.4044  0.5020 -0.0878
   10CHTO   C43 4061   4.537   7.872   5.472 -0.3674  0.5225 -0.3842
   10CHTO   H85 4062   4.440   7.921   5.458 -1.5438 -0.9274  2.4107
   10CHTO   O29 4063   4.548   7.753   5.386  0.3344  0.0312 -0.3063
   10CHTO   C50 4064   4.644   7.652   5.418 -0.5340 -0.0730  0.1381
   10CHTO   H92 4065   4.618   7.560   5.364 -0.1193 -0.1390  0.0507
   10CHTO   C54 4066   4.783   7.677   5.353  0.8449 -0.2758  0.4060
   10CHTO   O36 4067   4.782   7.686   5.203  0.3571  0.2000 -0.3769
   10CHTO   H72 4068   4.700   7.723   5.175  0.6519  1.2641  0.1162
   10CHTO   O27 4069   4.644   7.958   5.427  0.1613  0.1439  0.1057
   10CHTO   C37 4070   4.679   8.043   5.324 -0.3962 -0.0562 -0.7651
   10CHTO   H79 4071   4.708   7.989   5.232  0.2458 -1.0993  0.0409
   10CHTO   C38 4072   4.557   8.136   5.284 -0.5313 -0.4562 -0.3180
   10CHTO   H80 4073   4.515   8.174   5.378 -0.1985  0.5194 -0.5595
   10CHTO   O31 4074   4.459   8.059   5.212 -0.2335 -0.4631 -0.2418
   10CHTO   H68 4075   4.434   7.981   5.256  1.3386 -1.0309 -0.2940
   10CHTO   C39 4076   4.595   8.261   5.203 -0.4878 -0.8714  0.9621
   10CHTO   H81 4077   4.640   8.220   5.111 -0.8996  0.0118  0.3640
   10CHTO    N7 4078   4.481   8.355   5.174  0.2808 -0.2510  0.1166
   10CHTO   H73 4079   4.512   8.428   5.101 -0.9509 -0.0340 -0.2019
   10CHTO   H74 4080   4.442   8.395   5.266 -2.5451 -2.3669 -0.0913
   10CHTO   C40 4081   4.716   8.331   5.274 -0.0678 -0.7263 -0.0605
   10CHTO   H82 4082   4.687   8.363   5.374 -1.7087 -0.3931 -0.6292
   10CHTO   O26 4083   4.828   8.246   5.279  0.3076 -0.1274  0.4863
   10CHTO   C41 4084   4.801   8.129   5.372  0.7402 -0.4893 -0.2117
   10CHTO   H83 4085   4.794   8.165   5.476  2.3959  0.5613 -0.4449
   10CHTO   C52 4086   4.932   8.046   5.369 -0.3516  0.7976  0.0567
   10CHTO   O35 4087   4.938   7.958   5.486  0.2388  0.0364 -0.0929
   10CHTO   H71 4088   4.999   7.887   5.479  1.2821  0.8837  0.2216
   10CHTO   O28 4089   4.759   8.449   5.204 -0.2746 -0.0151  0.1195
   10CHTO   C42 4090   4.888   8.511   5.214 -0.7953  0.2621 -0.1585
   10CHTO   H84 4091   4.963   8.433   5.196 -0.3862  0.6643 -0.2015
   10CHTO   C44 4092   4.926   8.572   5.352  0.0602  0.3191  0.0458
   10CHTO   H86 4093   4.843   8.630   5.390 -0.1258  0.0070  0.1175
   10CHTO   O32 4094   4.949   8.456   5.444 -0.2538 -0.3025 -0.1017
   10CHTO   H69 4095   5.000   8.482   5.517  1.9779 -0.7243 -1.4700
   10CHTO   C48 4096   5.048   8.671   5.355 -0.4743 -0.2761 -0.7784
   10CHTO   H90 4097   5.138   8.609   5.354 -1.0401 -1.1966  1.2524
   10CHTO    N9 4098   5.061   8.733   5.493  0.5932 -0.0127 -0.3451
   10CHTO   H77 4099   5.065   8.660   5.572  0.9672 -0.3771 -0.6999
   10CHTO   H78 4100   5.142   8.804   5.503  1.0620 -0.6155  0.1245
   10CHTO   C51 4101   5.034   8.783   5.245 -0.2951 -0.1203  0.1354
   10CHTO   H93 4102   4.942   8.841   5.258  0.2330  1.4102 -2.6548
   10CHTO   O30 4103   5.031   8.701   5.121  0.5877 -0.2120 -0.2616
   10CHTO   C46 4104   4.903   8.622   5.101  0.4235  0.3439 -0.0212
   10CHTO   H88 4105   4.814   8.685   5.096  0.8921  0.9849 -0.2872
   10CHTO   C53 4106   4.921   8.558   4.960  0.7344 -0.1942 -0.2426
   10CHTO   O72 4107   4.815   8.476   4.916  0.3755 -0.1761  0.2422
   10CHTO  H199 4108   4.849   8.392   4.892  2.1090  0.9090 -1.1969
   10CHTO   O22 4109   5.148   8.870   5.241  0.5156 -0.3078  0.3071
   10CHTO   C31 4110   5.143   8.981   5.164 -0.6109 -0.7464 -0.1989
   10CHTO   H59 4111   5.042   8.982   5.118 -0.3214  0.1598 -0.8407
   10CHTO   C29 4112   5.151   9.116   5.240  0.4578 -0.2842 -0.5378
   10CHTO   H57 4113   5.250   9.116   5.288  0.3412  0.4025 -0.2927
   10CHTO   O21 4114   5.056   9.107   5.351  0.1913 -0.1057  0.8449
   10CHTO   H37 4115   5.085   9.048   5.418  0.8582  0.4937  1.0953
   10CHTO   C27 4116   5.140   9.239   5.150  0.3941 -0.0928  0.8598
   10CHTO   H55 4117   5.033   9.250   5.126  0.2109 -0.1009  1.6574
   10CHTO    N5 4118   5.180   9.366   5.222 -1.1615 -0.2798  0.5852
   10CHTO   H43 4119   5.120   9.374   5.311 -0.1283 -0.6956  1.3261
   10CHTO   H44 4120   5.167   9.439   5.144  0.1988 -1.3056 -0.6467
   10CHTO   C25 4121   5.222   9.222   5.008 -0.0786  0.5992 -0.3921
   10CHTO   H53 4122   5.328   9.223   5.036 -0.5690  0.7186  1.4996
   10CHTO   O17 4123   5.192   9.091   4.954  0.2689  0.0016  0.0610
   10CHTO   C32 4124   5.238   8.980   5.035  0.4209  0.0346 -0.4986
   10CHTO   H60 4125   5.341   8.988   5.068  0.6188 -2.1451 -0.4651
   10CHTO   C36 4126   5.222   8.855   4.944 -0.3358  0.1304  0.3655
   10CHTO   O25 4127   5.265   8.736   5.011  0.2006  0.3098  0.0731
   10CHTO   H40 4128   5.202   8.669   5.029 -0.5089  0.6315 -1.1840
   10CHTO   O15 4129   5.187   9.323   4.924 -0.1318 -0.7881 -0.7845
   10CHTO   C19 4130   5.210   9.378   4.792  0.6801  0.3784  0.0660
   10CHTO   H47 4131   5.201   9.292   4.724  0.7328  1.2039 -0.9932
   10CHTO   C20 4132   5.098   9.482   4.751  0.5101  0.8025  0.5342
   10CHTO   H48 4133   5.072   9.551   4.833 -5.2144 -0.4240 -0.0499
   10CHTO   O19 4134   4.980   9.409   4.721  0.7066 -0.2580 -0.6524
   10CHTO   H35 4135   4.912   9.468   4.693  1.2572  0.3878 -0.6320
   10CHTO   C21 4136   5.141   9.573   4.630 -0.3592  0.1322 -0.2900
   10CHTO   H49 4137   5.126   9.514   4.539  0.9409 -1.1314  0.2926
   10CHTO    N4 4138   5.056   9.692   4.610  0.2760  0.3120 -0.2186
   10CHTO   H41 4139   5.095   9.760   4.535 -1.4115 -0.6594 -2.0250
   10CHTO   H42 4140   4.955   9.669   4.580 -0.3392  0.8010  1.4502
   10CHTO   C22 4141   5.288   9.605   4.630  0.4816  0.3535  0.1903
   10CHTO   H50 4142   5.314   9.681   4.704 -0.6744 -0.7729  1.7842
   10CHTO   O14 4143   5.361   9.482   4.645  0.0499 -0.3638 -0.2155
   10CHTO   C23 4144   5.354   9.423   4.779  0.2220 -0.1436  0.0974
   10CHTO   H51 4145   5.379   9.504   4.848  0.2970 -0.1360  0.0608
   10CHTO   C34 4146   5.452   9.308   4.791  0.3392 -0.1351 -0.1318
   10CHTO   O23 4147   5.584   9.352   4.775 -0.6883  0.2085  0.0565
   10CHTO   H38 4148   5.594   9.392   4.691 -0.0776 -1.5860 -0.7524
   10CHTO   O16 4149   5.332   9.650   4.505 -0.4417  0.5641 -0.1571
   10CHTO   C24 4150   5.475   9.729   4.508  0.6639 -0.5633 -0.1677
   10CHTO   H52 4151   5.533   9.707   4.598  1.0899  3.5028  0.6304
   10CHTO   C26 4152   5.438   9.879   4.522  0.2094  0.3989 -0.3946
   10CHTO   H54 4153   5.360   9.901   4.446 -1.8612 -2.5506  0.7991
   10CHTO   O20 4154   5.387   9.916   4.651  0.1944 -0.3956 -0.1027
   10CHTO   H36 4155   5.312   9.866   4.679  0.0706 -0.4699 -0.5697
   10CHTO   C30 4156   5.555   9.982   4.490 -0.2591  0.0064 -0.7328
   10CHTO   H58 4157   5.631   9.985   4.570 -0.2835  0.1062 -0.7143
   10CHTO    N6 4158   5.498  10.120   4.471 -0.3947 -0.2038  0.7306
   10CHTO   H45 4159   5.443  10.107   4.379  1.4883  1.0281 -0.6212
   10CHTO   H46 4160   5.432  10.135   4.555  1.0419  2.9067  1.3830
   10CHTO   C33 4161   5.630   9.934   4.364  0.0731  0.1531 -0.6142
   10CHTO   H61 4162   5.563   9.933   4.276 -0.6999 -1.0245 -0.0222
   10CHTO   O18 4163   5.675   9.796   4.387 -0.0963 -0.0010 -0.3828
   10CHTO   C28 4164   5.570   9.700   4.383 -0.5147  0.2398 -0.6453
   10CHTO   H56 4165   5.513   9.717   4.292 -0.5222 -1.9924 -1.0649
   10CHTO   C35 4166   5.615   9.556   4.387  1.0911  0.0879 -0.0449
   10CHTO   O24 4167   5.700   9.526   4.270 -0.3891  0.0903 -0.1115
   10CHTO   H39 4168   5.733   9.440   4.287  0.0495  0.8188  3.0342
   10CHTO    O9 4169   5.743  10.022   4.325  0.5678 -0.1578  0.0237
   10CHTO   C13 4170   5.795  10.014   4.168  0.5810  0.4092  0.3935
   10CHTO   H26 4171   5.749  10.098   4.113 -1.6887 -1.9968 -1.5474
   10CHTO   C11 4172   5.772   9.870   4.093 -0.0210 -0.3175 -0.2050
   10CHTO   H24 4173   5.664   9.851   4.098  0.0591 -0.2399  2.1285
   10CHTO    O8 4174   5.827   9.757   4.169 -0.0406  0.2328 -0.7883
   10CHTO    H3 4175   5.835   9.678   4.119 -0.9473 -0.4945  0.1859
   10CHTO    C9 4176   5.819   9.879   3.946  0.1555  0.0062 -0.3415
   10CHTO   H22 4177   5.757   9.961   3.907 -0.6990 -0.4449  0.0261
   10CHTO    N2 4178   5.785   9.759   3.868 -0.6120  0.4627  0.1776
   10CHTO   H10 4179   5.810   9.770   3.763 -0.0975  1.0394  0.3519
   10CHTO   H11 4180   5.827   9.670   3.911  0.9778  1.8711  1.6561
   10CHTO    C7 4181   5.975   9.915   3.945  0.2204 -0.3008 -0.7612
   10CHTO   H20 4182   6.006   9.945   3.843  0.7858 -2.0657 -1.1144
   10CHTO    O4 4183   6.006  10.025   4.035 -0.3137  0.0096 -0.0213
   10CHTO   C14 4184   5.950  10.052   4.161  0.1884  0.1577 -0.0866
   10CHTO   H27 4185   5.953  10.163   4.168  1.7010  0.1400 -0.3079
   10CHTO   C18 4186   6.033   9.997   4.281 -0.2804 -0.1827  0.8982
   10CHTO   O13 4187   6.159  10.060   4.300 -0.6629 -0.6315 -0.1329
   10CHTO    H7 4188   6.210  10.037   4.225 -0.2180 -2.5629  0.7319
   10CHTO    O2 4189   6.072   9.785   3.983  0.4286 -0.9210 -0.0437
   10CHTO    C1 4190   6.207   9.790   3.928  0.4879 -0.3804 -0.1056
   10CHTO   H14 4191   6.235   9.897   3.916 -0.3604 -0.1070  0.3532
   10CHTO    C2 4192   6.215   9.716   3.789 -0.5505  0.1698  0.1865
   10CHTO   H15 4193   6.171   9.617   3.809 -0.7376  0.2543  0.1901
   10CHTO    O6 4194   6.143   9.786   3.686  0.4550 -0.2802  0.2823
   10CHTO    H1 4195   6.059   9.819   3.713  0.6574 -0.4066  1.0820
   10CHTO    C3 4196   6.365   9.693   3.735 -0.6192  0.2515 -0.0112
   10CHTO   H16 4197   6.415   9.777   3.685 -3.7895  0.5199 -2.9274
   10CHTO    N1 4198   6.370   9.589   3.626  0.4693  0.0962 -0.2746
   10CHTO    H8 4199   6.406   9.496   3.667 -2.6278 -1.6849 -1.4657
   10CHTO    H9 4200   6.272   9.572   3.586  1.3769 -0.9780 -2.1132
   10CHTO    C4 4201   6.455   9.647   3.856 -0.4718  0.4001 -0.8892
   10CHTO   H17 4202   6.429   9.544   3.881  0.6416 -0.0473 -1.5112
   10CHTO    O1 4203   6.449   9.743   3.960 -0.6124 -1.1102 -0.0061
   10CHTO    C5 4204   6.319   9.738   4.022  0.3724 -0.6044  0.5520
   10CHTO   H18 4205   6.302   9.634   4.051 -1.7753 -0.5504 -0.4038
   10CHTO   C16 4206   6.322   9.829   4.145 -0.0095  0.2607  0.4526
   10CHTO   O11 4207   6.350   9.967   4.121  0.3518 -0.2834  0.6039
   10CHTO    H5 4208   6.344  10.032   4.189 -2.4731  1.4727 -1.1863
   10CHTO    O3 4209   6.596   9.654   3.825  0.1916 -0.0828  0.0653
   10CHTO    C6 4210   6.689   9.573   3.905 -1.0923 -0.4321 -0.8533
   10CHTO   H19 4211   6.651   9.541   4.002  1.5849 -0.3175  0.2913
   10CHTO    C8 4212   6.727   9.442   3.825 -0.3056 -0.3862 -0.2850
   10CHTO   H21 4213   6.780   9.471   3.735  1.3758  0.7704  1.0575
   10CHTO    O7 4214   6.609   9.372   3.780  0.2407  0.0392 -0.3987
   10CHTO    H2 4215   6.630   9.318   3.707 -2.2088 -0.8185 -0.5322
   10CHTO   C12 4216   6.836   9.359   3.913 -0.0077  0.3608  0.0220
   10CHTO   H25 4217   6.785   9.328   4.007  1.6013 -1.9126  0.1891
   10CHTO    N3 4218   6.880   9.230   3.850 -0.0258  0.1012 -0.3965
   10CHTO   H12 4219   6.929   9.245   3.754 -0.6901 -0.9473 -0.9062
   10CHTO   H13 4220   6.937   9.168   3.918 -1.2919 -0.0318  0.5579
   10CHTO   C15 4221   6.956   9.459   3.950 -0.1898 -0.0545  0.5414
   10CHTO   H28 4222   7.020   9.491   3.868  0.8328 -1.9560  0.5558
   10CHTO   O10 4223   7.051   9.409   4.044 -0.5431 -0.4727 -0.2986
   10CHTO    H4 4224   7.081   9.326   4.012  2.9421  0.6462 -0.1413
   10CHTO    O5 4225   6.908   9.576   4.011 -0.3121  0.5661 -0.4855
   10CHTO   C10 4226   6.816   9.659   3.935 -0.2472  0.3956 -0.9879
   10CHTO   H23 4227   6.864   9.692   3.843  0.0766  2.0084 -0.2625
   10CHTO   C17 4228   6.796   9.787   4.023 -0.2140  0.2375  0.2616
   10CHTO   O12 4229   6.721   9.764   4.140 -0.1379  0.6329 -0.1497
   10CHTO    H6 4230   6.774   9.720   4.204 -3.0651 -1.7826  0.7438
   11CHTO  H203 4231   4.684   4.662   1.639 -0.9403 -1.0777  0.2502
   11CHTO   O82 4232   4.659   4.727   1.577  0.7741 -0.6000  0.0314
   11CHTO  C123 4233   4.765   4.820   1.551 -0.6551 -0.0569  0.1214
   11CHTO  H227 4234   4.783   4.879   1.641  0.2134 -0.8427  0.4729
   11CHTO   O77 4235   4.880   4.736   1.524 -0.4152 -0.4278 -0.2517
   11CHTO  C118 4236   5.004   4.810   1.512 -0.2244 -0.0485 -0.3459
   11CHTO  H222 4237   5.030   4.872   1.600  1.7100 -0.9401 -0.2577
   11CHTO  C125 4238   5.114   4.708   1.492  0.5215 -0.5206 -0.0551
   11CHTO   O84 4239   5.244   4.768   1.520 -0.1790 -0.1688 -0.0134
   11CHTO  H205 4240   5.276   4.822   1.451 -0.8389 -1.4008 -1.3010
   11CHTO  C114 4241   4.992   4.910   1.395  0.1807  0.0209  0.3281
   11CHTO  H218 4242   4.958   4.862   1.304  0.6284 -0.2530  0.2984
   11CHTO  C116 4243   4.871   5.009   1.425  0.3867 -0.1571  0.2997
   11CHTO  H220 4244   4.878   5.070   1.517 -0.3949  0.4414 -0.0333
   11CHTO   O79 4245   4.864   5.098   1.318 -0.6344 -0.3254 -0.1736
   11CHTO  H201 4246   4.837   5.179   1.356  1.1714  1.0503 -1.7113
   11CHTO  C120 4247   4.740   4.919   1.432  0.2677  0.2105  0.1959
   11CHTO  H224 4248   4.724   4.861   1.339 -1.0716  1.9259 -0.6733
   11CHTO   N21 4249   4.616   4.995   1.460  0.8941 -0.3241 -0.1813
   11CHTO  H211 4250   4.648   5.090   1.501  3.6651 -0.6263 -1.5536
   11CHTO  H212 4251   4.566   5.005   1.365  0.9083 -0.5943 -0.2172
   11CHTO   O75 4252   5.121   4.974   1.384 -0.3579 -0.5604 -0.6539
   11CHTO  C112 4253   5.177   5.072   1.531  0.1029  0.1050 -0.0688
   11CHTO  H216 4254   5.184   5.011   1.622  1.5446  1.4917  0.7719
   11CHTO   O73 4255   5.084   5.182   1.549 -0.7309 -0.6457  0.2005
   11CHTO  C113 4256   5.097   5.250   1.673  0.4324 -0.3015 -0.4236
   11CHTO  H217 4257   5.082   5.172   1.750 -1.9673 -0.7076 -1.2383
   11CHTO  C124 4258   4.980   5.350   1.684 -0.0183 -0.0530 -0.1348
   11CHTO   O83 4259   4.982   5.436   1.797 -0.0350  0.0355  0.0721
   11CHTO  H204 4260   5.035   5.511   1.779  1.9632 -1.1430  0.9723
   11CHTO  C109 4261   5.237   5.332   1.670 -0.4472  0.8692  0.1491
   11CHTO  H213 4262   5.229   5.399   1.583 -0.2897  1.9206  0.9380
   11CHTO  C110 4263   5.348   5.217   1.646 -0.2126  0.3006  0.3716
   11CHTO  H214 4264   5.356   5.151   1.732  0.5489  0.3175  0.3220
   11CHTO   O78 4265   5.477   5.280   1.635  0.0957 -0.1636  0.2289
   11CHTO  H200 4266   5.500   5.316   1.718  0.9335  1.5366 -0.7345
   11CHTO  C111 4267   5.319   5.141   1.513 -0.1832 -0.3240  0.4108
   11CHTO  H215 4268   5.321   5.212   1.429 -1.8184  0.0785  0.6986
   11CHTO   N19 4269   5.418   5.037   1.482 -0.3532 -0.0027  0.6946
   11CHTO  H207 4270   5.413   5.016   1.377 -0.8606  2.4677  0.2007
   11CHTO  H208 4271   5.512   5.075   1.522  1.2937 -1.6775 -1.4761
   11CHTO   O74 4272   5.270   5.408   1.789 -0.3648  0.1918  0.2362
   11CHTO  C115 4273   5.353   5.542   1.754 -0.5719 -0.4886  0.4839
   11CHTO  H219 4274   5.388   5.541   1.650  0.4029 -0.9898  0.8132
   11CHTO   O76 4275   5.268   5.661   1.765  0.5016 -0.0548 -0.1508
   11CHTO  C122 4276   5.228   5.688   1.900  0.1999  0.2290  0.3206
   11CHTO  H226 4277   5.191   5.597   1.948  2.1491 -0.3503  0.7688
   11CHTO  C126 4278   5.112   5.793   1.917 -0.3283 -0.4187  0.6217
   11CHTO   O85 4279   5.134   5.930   1.882  0.4227 -0.5027 -0.2180
   11CHTO  H206 4280   5.226   5.943   1.894  0.2194 -1.4899  2.9002
   11CHTO  C121 4281   5.357   5.729   1.981  0.2345 -0.4065  0.3237
   11CHTO  H225 4282   5.358   5.839   1.996 -0.6479 -0.1136 -1.6628
   11CHTO   O81 4283   5.335   5.670   2.111 -0.3671 -0.4377  0.3230
   11CHTO  H202 4284   5.258   5.710   2.145  0.1855 -1.0821  2.3928
   11CHTO  C119 4285   5.495   5.682   1.921  0.8297 -0.8043  0.9514
   11CHTO  H223 4286   5.521   5.747   1.837  2.6543 -2.2058  0.4079
   11CHTO  C117 4287   5.480   5.540   1.844  0.4677  0.4025 -1.1695
   11CHTO  H221 4288   5.473   5.458   1.915  1.4249  0.4815 -0.9755
   11CHTO   N20 4289   5.607   5.531   1.765 -0.0317 -0.4737  0.1803
   11CHTO  H209 4290   5.676   5.465   1.816  2.6149  0.8950 -1.4954
   11CHTO  H210 4291   5.586   5.479   1.672 -2.2827 -1.1874  1.0630
   11CHTO   O80 4292   5.635   5.704   2.024  0.2541 -0.2545 -0.1900
   11CHTO  C103 4293   5.698   5.863   2.050 -0.4164 -0.1237  0.5111
   11CHTO  H190 4294   5.806   5.851   2.055 -0.2431  0.7525 -0.8450
   11CHTO  C101 4295   5.673   5.985   1.956  0.1124  0.2065 -0.4512
   11CHTO  H188 4296   5.567   5.988   1.929  0.0901  1.5215 -0.2288
   11CHTO   O68 4297   5.734   5.960   1.809  0.0349 -1.0385  0.2173
   11CHTO  H168 4298   5.814   5.913   1.824  0.3728 -0.7044 -0.5207
   11CHTO   C99 4299   5.709   6.127   2.022  0.2949  0.3890  0.8661
   11CHTO  H186 4300   5.819   6.141   2.030  0.7597 -0.6315 -2.7751
   11CHTO   N17 4301   5.674   6.256   1.943 -0.2068  0.1302  0.4920
   11CHTO  H174 4302   5.730   6.271   1.852 -1.1286  5.9973  0.7307
   11CHTO  H175 4303   5.569   6.252   1.920 -0.2215  2.0808  0.1621
   11CHTO   C97 4304   5.651   6.132   2.169 -0.4877  0.0397 -0.4867
   11CHTO  H184 4305   5.543   6.121   2.156 -0.6226 -0.1394  0.7269
   11CHTO   O64 4306   5.709   6.021   2.235  0.0196  0.0341 -0.0489
   11CHTO  C104 4307   5.648   5.893   2.199  0.7637 -0.6883 -0.5611
   11CHTO  H191 4308   5.540   5.896   2.195  0.7650 -0.3906 -0.3856
   11CHTO  C108 4309   5.682   5.783   2.305 -0.4474 -1.6658  0.5391
   11CHTO   O71 4310   5.662   5.816   2.443  0.6491 -0.2607 -0.2230
   11CHTO  H171 4311   5.683   5.737   2.489 -2.6349 -0.8080  0.4873
   11CHTO   O62 4312   5.682   6.253   2.236  0.2462  0.7486 -0.5134
   11CHTO   C91 4313   5.589   6.283   2.340 -0.0910 -0.1559 -0.3766
   11CHTO  H178 4314   5.491   6.242   2.319 -0.5663  0.0880  1.2679
   11CHTO   C92 4315   5.584   6.445   2.335  0.2222  0.6699 -0.5055
   11CHTO  H179 4316   5.570   6.482   2.232  0.5181 -0.7711 -1.0725
   11CHTO   O66 4317   5.476   6.488   2.413  0.2034 -0.0389  0.0547
   11CHTO  H166 4318   5.396   6.468   2.370 -0.3580 -2.1153  1.9687
   11CHTO   C93 4319   5.705   6.518   2.395  0.0154  0.3687  0.3490
   11CHTO  H180 4320   5.673   6.615   2.436  0.9044  0.3366  1.1435
   11CHTO   N16 4321   5.804   6.561   2.289  0.5035 -0.3474  0.3969
   11CHTO  H172 4322   5.906   6.529   2.306  1.2376  1.8220  0.2567
   11CHTO  H173 4323   5.798   6.665   2.260  0.9644  0.1954  2.1854
   11CHTO   C94 4324   5.772   6.440   2.515  0.3891 -0.0955 -0.2521
   11CHTO  H181 4325   5.856   6.379   2.481  0.6686 -0.2423  0.6864
   11CHTO   O61 4326   5.673   6.353   2.567 -0.6116  0.0722 -0.1012
   11CHTO   C95 4327   5.647   6.238   2.484 -0.2154 -1.2526  0.1784
   11CHTO  H182 4328   5.739   6.181   2.475 -0.1011 -0.9663 -0.4314
   11CHTO  C106 4329   5.540   6.157   2.565  0.2316  0.9352 -0.2798
   11CHTO   O69 4330   5.575   6.142   2.705  0.1677 -0.8819 -0.6188
   11CHTO  H169 4331   5.505   6.185   2.751  0.8588 -0.7508  0.3304
   11CHTO   O63 4332   5.822   6.552   2.631  0.2636  0.3426 -0.7288
   11CHTO   C96 4333   5.944   6.492   2.713  0.1425 -0.0499 -0.4417
   11CHTO  H183 4334   5.999   6.428   2.644  1.4870 -1.4483  1.8475
   11CHTO   C98 4335   5.900   6.404   2.836  0.0651  0.3513 -0.5096
   11CHTO  H185 4336   5.826   6.460   2.895  2.1700  3.8032 -0.9951
   11CHTO   O67 4337   5.834   6.284   2.797 -0.2929 -0.0239 -0.6134
   11CHTO  H167 4338   5.842   6.216   2.861 -1.5431 -1.4063 -1.8724
   11CHTO  C102 4339   6.027   6.367   2.938 -0.6361  0.0600  0.1346
   11CHTO  H189 4340   6.093   6.297   2.884 -0.6256  0.4262 -0.3289
   11CHTO   N18 4341   5.988   6.289   3.058  0.4236 -0.7323  0.6826
   11CHTO  H176 4342   5.883   6.308   3.076  0.0037 -1.5030 -0.8608
   11CHTO  H177 4343   6.009   6.186   3.034  2.0914 -0.6540  1.7636
   11CHTO  C105 4344   6.105   6.495   2.969 -0.0361 -0.2285  0.2149
   11CHTO  H192 4345   6.041   6.561   3.028 -0.7964 -0.3287 -0.4760
   11CHTO   O65 4346   6.141   6.575   2.853 -0.2514 -0.2076  0.1637
   11CHTO  C100 4347   6.031   6.609   2.764 -0.5081 -0.2653  0.5389
   11CHTO  H187 4348   5.973   6.679   2.826 -1.3744  0.3921 -0.9959
   11CHTO  C107 4349   6.078   6.698   2.649 -0.3138 -0.4758  0.0305
   11CHTO   O70 4350   6.179   6.640   2.563 -0.6137  0.3980 -0.7886
   11CHTO  H170 4351   6.258   6.626   2.612 -1.3430 -0.7958  0.0803
   11CHTO   O57 4352   6.249   6.447   3.036  0.2135  0.0285  0.0644
   11CHTO   C85 4353   6.305   6.528   3.141 -0.1728  0.2320  0.9392
   11CHTO  H157 4354   6.218   6.585   3.179 -2.4799 -1.8195 -1.0374
   11CHTO   C83 4355   6.390   6.645   3.079 -0.6763  0.2028  0.2006
   11CHTO  H155 4356   6.329   6.712   3.019 -0.7753 -0.1651 -0.1127
   11CHTO   O56 4357   6.478   6.601   2.980  0.3483 -0.4527  0.3615
   11CHTO  H135 4358   6.432   6.564   2.908  0.7341 -0.3746  0.0724
   11CHTO   C81 4359   6.469   6.727   3.187  0.5927  0.4173 -0.8983
   11CHTO  H153 4360   6.401   6.769   3.261  2.5245  0.1291  1.1106
   11CHTO   N14 4361   6.542   6.846   3.135  0.4825  0.4399  0.4301
   11CHTO  H141 4362   6.475   6.909   3.080  2.6184  2.9902  0.6574
   11CHTO  H142 4363   6.622   6.820   3.070  1.4642 -0.5192  1.9923
   11CHTO   C79 4364   6.562   6.628   3.266  0.0882 -0.0150  0.2288
   11CHTO  H151 4365   6.620   6.689   3.335  1.3543 -2.7123  1.6252
   11CHTO   O52 4366   6.477   6.533   3.340 -0.6223 -0.1729 -0.2551
   11CHTO   C86 4367   6.385   6.447   3.253  0.6941 -0.2107  0.3751
   11CHTO  H158 4368   6.456   6.374   3.209  1.1076  0.3826  0.0546
   11CHTO   C90 4369   6.292   6.367   3.352  0.6115 -0.4267  0.1131
   11CHTO   O60 4370   6.239   6.247   3.297  0.4703  0.2886 -0.6539
   11CHTO  H138 4371   6.178   6.215   3.361 -1.0320  0.0012 -2.2092
   11CHTO   O50 4372   6.653   6.553   3.183 -0.1869 -0.1564  0.3210
   11CHTO   C73 4373   6.780   6.487   3.188 -0.2612 -0.1240  0.2671
   11CHTO  H145 4374   6.796   6.420   3.273  0.3267 -0.9037 -0.4523
   11CHTO   C74 4375   6.884   6.602   3.213 -0.4564  0.3347 -0.2804
   11CHTO  H146 4376   6.852   6.657   3.302 -1.1720  0.0962 -0.3902
   11CHTO   O54 4377   7.012   6.541   3.233  0.3585 -0.0186 -0.5897
   11CHTO  H133 4378   7.076   6.598   3.272  0.7625 -0.8986  0.0631
   11CHTO   C75 4379   6.881   6.695   3.087  0.7157  0.4011 -0.1845
   11CHTO  H147 4380   6.783   6.745   3.077  0.9041  0.4571 -1.9832
   11CHTO   N13 4381   6.979   6.811   3.080  0.5231 -0.0099 -0.1907
   11CHTO  H139 4382   7.043   6.807   2.993  1.5140 -1.2119  0.5757
   11CHTO  H140 4383   6.925   6.903   3.096 -1.6114 -1.5413  1.9013
   11CHTO   C76 4384   6.912   6.609   2.953  0.2882 -0.0765  0.6308
   11CHTO  H148 4385   7.018   6.584   2.952  0.6718  1.4785  0.2414
   11CHTO   O49 4386   6.837   6.480   2.940  0.3533  0.2949 -0.0572
   11CHTO   C77 4387   6.812   6.403   3.061  0.2873  0.8333 -0.0125
   11CHTO  H149 4388   6.905   6.348   3.070  0.6993  1.2845 -1.3220
   11CHTO   C88 4389   6.707   6.292   3.036  0.2080  0.1934  0.1633
   11CHTO   O58 4390   6.575   6.352   2.982 -0.0786 -0.2110 -0.3983
   11CHTO  H136 4391   6.530   6.399   3.050 -1.3156  0.6549 -1.7917
   11CHTO   O51 4392   6.859   6.689   2.821  0.0584 -0.4386 -0.0103
   11CHTO   C78 4393   6.962   6.657   2.697 -0.6289 -0.4581 -0.6970
   11CHTO  H150 4394   7.006   6.556   2.708  0.4628  0.1066  0.2409
   11CHTO   C80 4395   7.080   6.764   2.695  0.1692  0.6238 -0.0886
   11CHTO  H152 4396   7.038   6.863   2.723  0.7035  0.4743  1.2825
   11CHTO   O55 4397   7.155   6.724   2.812 -0.0961  0.4993  0.1076
   11CHTO  H134 4398   7.227   6.783   2.820  0.4472 -0.2124  0.4311
   11CHTO   C84 4399   7.162   6.763   2.566 -0.8929 -0.6832 -0.0097
   11CHTO  H156 4400   7.229   6.677   2.562  0.5146  0.4862 -2.2368
   11CHTO   N15 4401   7.247   6.885   2.551  0.1621  0.3043  0.0326
   11CHTO  H143 4402   7.197   6.977   2.529  0.3885  0.1030 -1.3653
   11CHTO  H144 4403   7.313   6.900   2.635 -1.4317  1.3598  1.1152
   11CHTO   C87 4404   7.073   6.741   2.438  0.1385  0.0896  0.1695
   11CHTO  H159 4405   7.017   6.831   2.411 -1.2047 -0.3953  1.3308
   11CHTO   O53 4406   6.971   6.624   2.458  0.0309  0.1818 -0.3819
   11CHTO   C82 4407   6.881   6.656   2.569 -0.1447 -0.2802 -0.1743
   11CHTO  H154 4408   6.831   6.752   2.562  0.0563 -0.1481  0.2061
   11CHTO   C89 4409   6.768   6.549   2.577  0.7230  0.1753  0.4700
   11CHTO   O59 4410   6.653   6.591   2.650 -0.0481 -0.5224 -0.3055
   11CHTO  H137 4411   6.587   6.531   2.624  0.3737 -1.2702  0.3280
   11CHTO   O45 4412   7.156   6.710   2.331  0.0629 -0.2403  0.2730
   11CHTO   C67 4413   7.099   6.692   2.200  0.0352 -0.1908 -0.3712
   11CHTO  H124 4414   6.994   6.663   2.210  0.1914 -0.8435 -0.6252
   11CHTO   C65 4415   7.099   6.825   2.115  0.3289  0.1363  0.5117
   11CHTO  H122 4416   7.184   6.886   2.147  0.2589 -0.0402  1.0522
   11CHTO   O44 4417   6.978   6.902   2.147  0.0638 -0.1280 -0.4232
   11CHTO  H102 4418   6.988   6.937   2.233  1.4784 -0.4878 -0.4378
   11CHTO   C63 4419   7.140   6.804   1.963  0.5248  0.5477 -0.2084
   11CHTO  H120 4420   7.247   6.782   1.955  0.4855 -0.1137  1.0094
   11CHTO   N11 4421   7.130   6.925   1.875  0.0470 -0.3698  0.4608
   11CHTO  H108 4422   7.170   6.914   1.777  1.0892  1.9235  0.6144
   11CHTO  H109 4423   7.038   6.979   1.878  0.3186  0.1088  0.1502
   11CHTO   C61 4424   7.057   6.674   1.919 -0.0313  0.5703 -0.3059
   11CHTO  H118 4425   7.084   6.660   1.813 -0.8241 -0.0338 -0.4321
   11CHTO   O40 4426   7.089   6.554   1.988 -0.2462  0.3917 -0.1644
   11CHTO   C68 4427   7.163   6.574   2.111 -0.4694 -0.9963  0.5391
   11CHTO  H125 4428   7.269   6.596   2.089 -1.0174  0.2261 -0.9931
   11CHTO   C72 4429   7.166   6.437   2.182  0.1009 -0.1052 -0.2713
   11CHTO   O48 4430   7.036   6.386   2.204  0.1598 -0.4826  0.0587
   11CHTO  H105 4431   7.001   6.336   2.133 -0.5589 -0.7530  0.5917
   11CHTO   O38 4432   6.911   6.679   1.935 -0.5407  0.2512 -0.2567
   11CHTO   C55 4433   6.841   6.594   1.849  0.4362 -0.6658  0.8401
   11CHTO  H112 4434   6.907   6.510   1.821  2.5296  0.6386  1.6982
   11CHTO   C56 4435   6.793   6.676   1.722  0.1148  0.5110 -0.2792
   11CHTO  H113 4436   6.753   6.770   1.762  0.8419 -0.1767  2.1304
   11CHTO   O42 4437   6.898   6.724   1.639  0.0983 -0.2560  0.0789
   11CHTO  H100 4438   6.976   6.673   1.650  0.0852 -0.3827 -0.4270
   11CHTO   C57 4439   6.687   6.602   1.633 -0.4803  0.6205  1.0500
   11CHTO  H114 4440   6.748   6.536   1.571 -0.8809  1.5709 -0.3820
   11CHTO   N10 4441   6.617   6.681   1.532  0.2864  0.5247 -0.5829
   11CHTO  H106 4442   6.668   6.675   1.437  0.5145  0.9818 -0.4924
   11CHTO  H107 4443   6.610   6.785   1.562 -1.6627 -0.1897  1.5989
   11CHTO   C58 4444   6.591   6.513   1.716  0.9274 -0.0185 -0.3790
   11CHTO  H115 4445   6.511   6.574   1.763  0.1572 -2.3121  1.3677
   11CHTO   O37 4446   6.649   6.444   1.827 -0.3297  0.2755 -0.3072
   11CHTO   C59 4447   6.711   6.540   1.912 -0.0744 -0.0399  0.2961
   11CHTO  H116 4448   6.635   6.612   1.940  0.9982  0.4858  1.9474
   11CHTO   C70 4449   6.754   6.466   2.042  0.0557  0.2061  0.0019
   11CHTO   O46 4450   6.642   6.470   2.133 -0.3371  0.0926  0.1144
   11CHTO  H103 4451   6.658   6.443   2.221 -1.8604  1.5169  0.8540
   11CHTO   O39 4452   6.542   6.374   1.630  0.3011 -0.0532 -0.1828
   11CHTO   C60 4453   6.401   6.342   1.645  0.1926 -0.4965 -0.0967
   11CHTO  H117 4454   6.370   6.361   1.748 -0.4625  3.2104 -0.9160
   11CHTO   C62 4455   6.323   6.434   1.546  0.2585 -0.3850  0.0515
   11CHTO  H119 4456   6.330   6.542   1.571  0.0645 -0.2042 -0.6352
   11CHTO   O43 4457   6.380   6.424   1.412  0.1813 -0.9219  0.2957
   11CHTO  H101 4458   6.377   6.339   1.373 -2.6463 -0.4707 -0.5739
   11CHTO   C66 4459   6.168   6.385   1.552 -0.4067  0.2675  0.4599
   11CHTO  H123 4460   6.135   6.382   1.655  0.4568 -0.3977  0.7245
   11CHTO   N12 4461   6.088   6.480   1.473 -0.0694  0.0945  0.0103
   11CHTO  H110 4462   6.124   6.581   1.485  1.4820 -0.2366 -1.5836
   11CHTO  H111 4463   6.100   6.442   1.372  0.2256 -0.7473  0.3523
   11CHTO   C69 4464   6.149   6.232   1.510 -0.7817  0.0904  0.1174
   11CHTO  H126 4465   6.187   6.216   1.407 -2.0796 -0.1131 -0.3489
   11CHTO   O41 4466   6.227   6.153   1.603  0.4055 -0.0448 -0.2663
   11CHTO   C64 4467   6.379   6.194   1.615  0.1155 -0.0343 -0.2065
   11CHTO  H121 4468   6.445   6.166   1.530  0.0936 -0.8857  0.0525
   11CHTO   C71 4469   6.435   6.114   1.732  0.4003  0.0001 -0.1057
   11CHTO   O47 4470   6.470   5.982   1.695 -0.0657  0.4543  0.0169
   11CHTO  H104 4471   6.406   5.925   1.732 -0.9545  0.9590 -0.7115
   11CHTO   O34 4472   6.000   6.184   1.525 -0.7512  0.0073  0.2950
   11CHTO   C49 4473   5.905   6.107   1.477 -0.0547 -0.2746  0.5203
   11CHTO   H91 4474   5.824   6.117   1.549 -1.5627  1.7289 -1.3765
   11CHTO   C47 4475   5.946   5.960   1.468 -0.3344  0.0446  0.2758
   11CHTO   H89 4476   5.952   5.930   1.575  1.3092 -0.5303  0.0341
   11CHTO   O33 4477   6.076   5.954   1.407 -0.5585  0.0429  0.0729
   11CHTO   H70 4478   6.147   5.981   1.462  0.2733  2.0610 -1.9368
   11CHTO   C45 4479   5.852   5.859   1.384  0.3935  0.4107  0.1850
   11CHTO   H87 4480   5.910   5.830   1.295  1.2885  0.2215  0.8242
   11CHTO    N8 4481   5.826   5.731   1.467  0.5615 -0.1530 -0.1913
   11CHTO   H75 4482   5.840   5.651   1.395 -0.3553 -1.0942  0.6447
   11CHTO   H76 4483   5.874   5.721   1.563 -4.2217  0.0363  2.3547
   11CHTO   C43 4484   5.719   5.938   1.334  0.0271  0.2070 -0.1120
   11CHTO   H85 4485   5.670   5.869   1.265 -0.4242 -0.4833  0.8740
   11CHTO   O29 4486   5.755   6.068   1.271  0.1709 -0.3102  0.2720
   11CHTO   C50 4487   5.851   6.153   1.345  0.0679 -0.2340 -0.4778
   11CHTO   H92 4488   5.936   6.170   1.278 -0.9863 -0.2298 -1.8311
   11CHTO   C54 4489   5.776   6.295   1.353  0.1713  0.3933 -0.3701
   11CHTO   O36 4490   5.660   6.302   1.444 -0.1289 -0.2276  0.1611
   11CHTO   H72 4491   5.582   6.306   1.392 -0.3047  0.5830  0.4647
   11CHTO   O27 4492   5.624   5.961   1.434  0.1427  0.0192  0.3555
   11CHTO   C37 4493   5.506   5.937   1.517  0.4403 -0.6206 -0.2700
   11CHTO   H79 4494   5.537   5.890   1.611  1.5999  1.6394  0.5373
   11CHTO   C38 4495   5.453   6.081   1.547 -0.6034  0.1030 -0.5464
   11CHTO   H80 4496   5.464   6.140   1.455  1.8315 -0.3526 -0.5877
   11CHTO   O31 4497   5.538   6.136   1.651 -0.0002 -0.0077 -0.0570
   11CHTO   H68 4498   5.543   6.100   1.737 -1.3870  1.0811  0.4897
   11CHTO   C39 4499   5.304   6.073   1.599 -0.0006  0.1196 -0.9245
   11CHTO   H81 4500   5.293   6.040   1.703 -0.1910  0.2887 -0.8910
   11CHTO    N7 4501   5.236   6.207   1.610 -0.0728 -0.0407  0.1261
   11CHTO   H73 4502   5.285   6.265   1.687  1.1917  0.1024 -0.7786
   11CHTO   H74 4503   5.215   6.238   1.509 -2.6076 -1.9573 -0.0066
   11CHTO   C40 4504   5.219   5.976   1.510  0.2492 -0.6270 -0.4572
   11CHTO   H82 4505   5.202   6.018   1.410 -2.0683  0.6800  0.4460
   11CHTO   O26 4506   5.278   5.850   1.507 -0.5483  0.5298  0.1309
   11CHTO   C41 4507   5.403   5.853   1.435 -1.5602 -0.3138  0.4479
   11CHTO   H83 4508   5.390   5.909   1.341  0.5728 -0.6457 -0.0715
   11CHTO   C52 4509   5.447   5.700   1.418  0.4628 -0.3895  0.8837
   11CHTO   O35 4510   5.377   5.642   1.316 -0.4981  0.0845 -0.1602
   11CHTO   H71 4511   5.406   5.554   1.310  0.2168  0.2921  0.2298
   11CHTO   O28 4512   5.083   5.939   1.564 -0.3397  0.9313 -0.7936
   11CHTO   C42 4513   4.978   5.876   1.475  0.4860  0.7069  0.7898
   11CHTO   H84 4514   5.027   5.880   1.378  2.1166 -2.2300  1.4357
   11CHTO   C44 4515   4.852   5.972   1.468  0.1843  0.8145 -0.1067
   11CHTO   H86 4516   4.829   6.007   1.568  3.0639 -0.9806  1.2204
   11CHTO   O32 4517   4.909   6.090   1.409  0.8136 -0.2200  0.3518
   11CHTO   H69 4518   4.928   6.085   1.317  2.7719  2.1956  0.5657
   11CHTO   C48 4519   4.722   5.909   1.391 -0.4328  0.1272 -0.1971
   11CHTO   H90 4520   4.742   5.896   1.284 -0.0861  0.4338 -0.1703
   11CHTO    N9 4521   4.605   5.997   1.414  0.3441  0.1680 -0.5709
   11CHTO   H77 4522   4.568   6.044   1.324 -0.0993  0.3349 -0.3046
   11CHTO   H78 4523   4.524   5.935   1.449  0.7383 -0.0559 -0.0461
   11CHTO   C51 4524   4.709   5.764   1.459  0.4577  0.3784 -0.6063
   11CHTO   H93 4525   4.703   5.791   1.564 -0.1842 -0.1406 -0.5052
   11CHTO   O30 4526   4.825   5.696   1.427  0.3444 -0.0330  0.1505
   11CHTO   C46 4527   4.944   5.732   1.499  0.2195  0.4852  0.0772
   11CHTO   H88 4528   4.925   5.718   1.605 -1.3526  0.1807 -0.2245
   11CHTO   C53 4529   5.062   5.633   1.449 -0.1640  0.1967  0.3180
   11CHTO   O72 4530   5.082   5.635   1.305  0.2614 -0.0573  0.3204
   11CHTO  H199 4531   5.159   5.584   1.290 -0.3828 -0.8317 -0.4267
   11CHTO   O22 4532   4.599   5.674   1.423 -0.5312 -0.3216  0.4204
   11CHTO   C31 4533   4.534   5.584   1.518 -0.2188  0.1455  0.0037
   11CHTO   H59 4534   4.608   5.560   1.597  0.0326 -0.4687 -0.4131
   11CHTO   C29 4535   4.397   5.642   1.586 -0.1667  0.8682 -0.1030
   11CHTO   H57 4536   4.324   5.652   1.505 -1.3481 -0.5898  0.7566
   11CHTO   O21 4537   4.418   5.773   1.638 -1.0161  0.1285  0.3111
   11CHTO   H37 4538   4.378   5.786   1.721 -1.1419  0.1638  0.2451
   11CHTO   C27 4539   4.332   5.545   1.689 -0.4851  0.4697 -0.4460
   11CHTO   H55 4540   4.392   5.548   1.782 -2.3554  0.1401  0.7863
   11CHTO    N5 4541   4.197   5.589   1.724  0.1903  0.5428  0.0948
   11CHTO   H43 4542   4.197   5.621   1.827 -1.4673  0.4017  0.1365
   11CHTO   H44 4543   4.120   5.516   1.705 -0.0061  0.2323  2.0486
   11CHTO   C25 4544   4.330   5.394   1.637 -0.3296 -0.1317 -0.0287
   11CHTO   H53 4545   4.243   5.388   1.570 -1.8100  0.3943  1.7921
   11CHTO   O17 4546   4.454   5.359   1.561 -0.5353  0.2085 -0.1310
   11CHTO   C32 4547   4.500   5.447   1.455 -0.0338 -0.8276  0.7385
   11CHTO   H60 4548   4.422   5.458   1.380  0.1066 -2.5956  0.3131
   11CHTO   C36 4549   4.634   5.400   1.381  0.2100 -0.5180  0.1635
   11CHTO   O25 4550   4.662   5.475   1.258  0.1510  0.9203  0.1998
   11CHTO   H40 4551   4.599   5.452   1.193 -0.6704  1.5136  0.7709
   11CHTO   O15 4552   4.315   5.297   1.766 -0.6774 -0.3502  0.1746
   11CHTO   C19 4553   4.318   5.152   1.761 -0.8404 -0.2130 -0.1029
   11CHTO   H47 4554   4.316   5.123   1.655  0.2253  0.5499 -0.3376
   11CHTO   C20 4555   4.444   5.097   1.820  1.4096  0.6434  0.2120
   11CHTO   H48 4556   4.456   5.121   1.927  3.6689 -0.7019  0.2900
   11CHTO   O19 4557   4.547   5.154   1.738 -0.5641  0.2788 -0.8823
   11CHTO   H35 4558   4.628   5.159   1.784  0.3041 -1.3167 -2.1826
   11CHTO   C21 4559   4.446   4.941   1.815 -0.0969  0.3631 -0.0648
   11CHTO   H49 4560   4.442   4.908   1.711  1.6078  0.5839 -0.2141
   11CHTO    N4 4561   4.568   4.882   1.876  0.4081 -0.0768 -0.0467
   11CHTO   H41 4562   4.611   4.812   1.806  2.2131 -0.5368  1.4924
   11CHTO   H42 4563   4.643   4.957   1.896  1.3060 -0.6573 -1.1615
   11CHTO   C22 4564   4.312   4.882   1.866  0.5124 -0.1075  1.0048
   11CHTO   H50 4565   4.309   4.911   1.971  0.4373  1.5143  0.5663
   11CHTO   O14 4566   4.202   4.944   1.803  0.2431 -0.2299 -0.2050
   11CHTO   C23 4567   4.190   5.084   1.820 -0.6184 -0.1089  0.2043
   11CHTO   H51 4568   4.174   5.114   1.924  0.0191  0.7615  0.0600
   11CHTO   C34 4569   4.065   5.133   1.742 -0.2945 -0.3093 -0.5977
   11CHTO   O23 4570   3.956   5.044   1.792 -0.7609 -0.2999  0.2662
   11CHTO   H38 4571   3.883   5.038   1.733 -1.1829 -0.4469  0.8040
   11CHTO   O16 4572   4.301   4.739   1.850  0.4431 -0.5477  0.9031
   11CHTO   C24 4573   4.175   4.666   1.892  0.1799  0.1119 -0.9010
   11CHTO   H52 4574   4.090   4.733   1.897 -1.9943 -2.5577 -1.1468
   11CHTO   C26 4575   4.187   4.583   2.022 -0.8410  0.1633 -0.5951
   11CHTO   H54 4576   4.273   4.514   2.007  0.3639  1.3075  0.8179
   11CHTO   O20 4577   4.218   4.683   2.122 -0.0336  0.3037 -0.5300
   11CHTO   H36 4578   4.311   4.698   2.118 -0.2176  1.8309  0.7741
   11CHTO   C30 4579   4.053   4.512   2.056 -0.3030 -0.4340  0.1633
   11CHTO   H58 4580   3.969   4.582   2.072 -1.7614 -2.2909  0.7100
   11CHTO    N6 4581   4.051   4.436   2.178 -0.5458  0.1294 -0.1377
   11CHTO   H45 4582   4.145   4.449   2.230 -0.5190 -2.6017  0.5725
   11CHTO   H46 4583   4.038   4.329   2.167 -0.4026  0.3437 -2.4822
   11CHTO   C33 4584   3.995   4.435   1.933 -0.2866 -0.0989  0.1403
   11CHTO   H61 4585   4.056   4.346   1.913 -0.0544 -0.2000  1.2622
   11CHTO   O18 4586   4.005   4.516   1.817 -0.0853 -0.1362  0.2454
   11CHTO   C28 4587   4.133   4.560   1.785 -0.1164 -0.6094 -0.2307
   11CHTO   H56 4588   4.196   4.471   1.792 -0.2149 -0.7448 -0.9933
   11CHTO   C35 4589   4.137   4.619   1.638  0.8123 -0.3299 -0.4144
   11CHTO   O24 4590   4.099   4.756   1.621 -0.1361  0.4495 -0.4206
   11CHTO   H39 4591   4.014   4.774   1.656  1.0031  2.8902  1.3136
   11CHTO    O9 4592   3.856   4.391   1.955 -0.2248 -0.1684  0.7910
   11CHTO   C13 4593   3.821   4.248   1.892 -0.2617 -0.1345  0.1527
   11CHTO   H26 4594   3.883   4.167   1.934 -0.0699 -0.4578 -0.7389
   11CHTO   C11 4595   3.836   4.254   1.731  0.5748 -0.1096  0.5793
   11CHTO   H24 4596   3.944   4.275   1.719 -0.2100  2.9457 -2.1182
   11CHTO    O8 4597   3.760   4.358   1.667  0.6175 -0.7708  0.4492
   11CHTO    H3 4598   3.806   4.383   1.589 -1.4120  0.1041 -0.4931
   11CHTO    C9 4599   3.805   4.113   1.680  0.0685 -0.3577  0.0143
   11CHTO   H22 4600   3.869   4.044   1.736  0.3773  0.4364  0.6593
   11CHTO    N2 4601   3.846   4.094   1.535  0.4649 -0.0655 -0.3011
   11CHTO   H10 4602   3.775   4.144   1.471 -0.5107  1.0733  1.6048
   11CHTO   H11 4603   3.950   4.113   1.514  0.6726  0.6031  1.2362
   11CHTO    C7 4604   3.662   4.064   1.717 -0.0826  0.5633  0.1669
   11CHTO   H20 4605   3.663   3.956   1.693  0.9887  0.4839  0.5589
   11CHTO    O4 4606   3.638   4.073   1.862 -0.4153 -0.3946 -0.5608
   11CHTO   C14 4607   3.672   4.201   1.922 -0.1053  0.1589  0.0265
   11CHTO   H27 4608   3.677   4.174   2.030  1.0433  1.1674  0.2405
   11CHTO   C18 4609   3.554   4.305   1.906 -0.2599  0.2563 -0.1605
   11CHTO   O13 4610   3.446   4.249   1.975 -0.4233  0.3904  0.0884
   11CHTO    H7 4611   3.366   4.244   1.925 -0.3588  1.0631 -0.0802
   11CHTO    O2 4612   3.537   4.142   1.636 -0.7847 -0.1599 -0.5300
   11CHTO    C1 4613   3.425   4.068   1.583 -0.4981 -0.0764  0.0121
   11CHTO   H14 4614   3.342   4.103   1.647  0.3436  1.0992  0.4771
   11CHTO    C2 4615   3.436   3.910   1.570 -0.3205 -0.3735  0.6095
   11CHTO   H15 4616   3.537   3.894   1.531 -0.1111  1.0701  0.5434
   11CHTO    O6 4617   3.434   3.871   1.703  0.0139 -0.7270 -0.3974
   11CHTO    H1 4618   3.424   3.780   1.724 -0.1111 -0.6053  0.0781
   11CHTO    C3 4619   3.315   3.853   1.481 -0.5237 -0.2970 -0.1096
   11CHTO   H16 4620   3.219   3.869   1.533  0.0670  0.2458  0.8290
   11CHTO    N1 4621   3.348   3.704   1.462 -0.8258 -0.5642 -0.5163
   11CHTO    H8 4622   3.265   3.648   1.422  0.3980 -2.0639 -1.0231
   11CHTO    H9 4623   3.441   3.663   1.425 -0.9989 -2.7918  1.4233
   11CHTO    C4 4624   3.296   3.939   1.351  0.0191  0.2994  0.0467
   11CHTO   H17 4625   3.385   3.924   1.291  1.8170 -0.7925  2.8839
   11CHTO    O1 4626   3.280   4.074   1.381  0.3746 -0.4252 -0.2688
   11CHTO    C5 4627   3.391   4.131   1.447 -0.3568  0.3199  0.0788
   11CHTO   H18 4628   3.474   4.110   1.379 -1.3222 -0.1625 -0.9570
   11CHTO   C16 4629   3.370   4.284   1.449 -0.3074  0.2393  0.1720
   11CHTO   O11 4630   3.379   4.332   1.314  0.4362 -0.6105  0.1999
   11CHTO    H5 4631   3.324   4.408   1.306 -1.3851 -2.0135 -0.9209
   11CHTO    O3 4632   3.183   3.905   1.280  0.5603  0.2619 -0.2189
   11CHTO    C6 4633   3.197   3.902   1.136 -0.8384  0.1245  0.2990
   11CHTO   H19 4634   3.296   3.927   1.098 -1.3516  1.0155 -0.4461
   11CHTO    C8 4635   3.168   3.752   1.088  0.2113  0.2226  0.2238
   11CHTO   H21 4636   3.077   3.719   1.139  0.3170  1.4138  1.1964
   11CHTO    O7 4637   3.279   3.675   1.135 -0.4949 -0.2265  0.3808
   11CHTO    H2 4638   3.266   3.639   1.220  1.7986 -0.0068  0.8426
   11CHTO   C12 4639   3.152   3.744   0.932 -0.2040 -0.3577 -0.0430
   11CHTO   H25 4640   3.256   3.745   0.894  0.4889  1.6338  1.7641
   11CHTO    N3 4641   3.090   3.624   0.886 -0.1151 -0.3624 -0.2505
   11CHTO   H12 4642   3.146   3.538   0.922  0.1073 -0.0358  0.1862
   11CHTO   H13 4643   3.086   3.612   0.779 -1.4432 -0.3578 -0.2150
   11CHTO   C15 4644   3.076   3.878   0.874 -0.4072 -0.2025 -0.1553
   11CHTO   H28 4645   2.969   3.862   0.888 -0.1377 -1.6152  0.3402
   11CHTO   O10 4646   3.113   3.917   0.706 -0.3517 -0.2269  0.2994
   11CHTO    H4 4647   3.197   3.957   0.694  1.0163 -2.5700  1.5563
   11CHTO    O5 4648   3.126   3.997   0.934  0.3250  0.0236  0.3077
   11CHTO   C10 4649   3.089   3.993   1.073 -0.2230 -0.1847 -0.3204
   11CHTO   H23 4650   2.987   3.958   1.084 -0.0752 -0.0338  1.7785
   11CHTO   C17 4651   3.098   4.139   1.124 -0.1847  0.6975  0.3177
   11CHTO   O12 4652   3.009   4.226   1.058 -0.0245  0.0232 -0.4343
   11CHTO    H6 4653   2.966   4.294   1.106 -0.1276 -2.2187  2.8526
   12CHTO  H203 4654   5.169   1.082   2.553 -1.4948  0.4054  1.6844
   12CHTO   O82 4655   5.126   1.012   2.507  0.1963  0.3353  0.1370
   12CHTO  C123 4656   5.118   0.895   2.597 -0.3290  0.4434  0.1638
   12CHTO  H227 4657   5.194   0.910   2.675 -0.1408 -0.4955  0.1682
   12CHTO   O77 4658   4.984   0.893   2.657 -0.3041 -0.2399  0.2600
   12CHTO  C118 4659   4.947   0.780   2.740 -0.6833  0.4500  0.0640
   12CHTO  H222 4660   5.010   0.791   2.830 -1.1913 -2.5098  0.8307
   12CHTO  C125 4661   4.797   0.791   2.777  0.0636 -0.3345  0.6973
   12CHTO   O84 4662   4.759   0.905   2.851  0.1823  0.2889 -0.0066
   12CHTO  H205 4663   4.761   0.983   2.798  2.4497 -0.0496 -0.4683
   12CHTO  C114 4664   4.970   0.653   2.659 -0.1027 -0.0293 -0.1094
   12CHTO  H218 4665   4.910   0.657   2.568  0.9462 -0.0211 -0.8066
   12CHTO  C116 4666   5.121   0.644   2.618  0.5108 -0.3402 -0.2394
   12CHTO  H220 4667   5.187   0.643   2.707  0.9187  0.8215 -0.5089
   12CHTO   O79 4668   5.149   0.516   2.560  0.0403  0.4058 -0.2611
   12CHTO  H201 4669   5.115   0.445   2.610  2.0784  0.8033  1.7722
   12CHTO  C120 4670   5.156   0.764   2.518  0.0312  0.1809 -0.2240
   12CHTO  H224 4671   5.079   0.746   2.440 -0.4684  0.9544  0.0831
   12CHTO   N21 4672   5.296   0.750   2.463 -0.4057 -0.4661  0.0726
   12CHTO  H211 4673   5.314   0.645   2.445 -0.2023 -0.2028 -1.3843
   12CHTO  H212 4674   5.306   0.797   2.366  1.8970 -1.2672 -0.1130
   12CHTO   O75 4675   4.922   0.556   2.750  0.0272  0.8236 -0.3774
   12CHTO  C112 4676   4.909   0.394   2.692 -0.1869 -0.4783  0.2353
   12CHTO  H216 4677   5.008   0.345   2.700  0.1533 -0.4431 -2.8727
   12CHTO   O73 4678   4.871   0.402   2.554 -0.7117  0.8304 -0.1478
   12CHTO  C113 4679   4.890   0.267   2.503  0.5374  0.7949 -0.9812
   12CHTO  H217 4680   4.992   0.229   2.523  0.4758  1.7686  1.2733
   12CHTO  C124 4681   4.857   0.261   2.353 -0.1531  0.0293  0.3333
   12CHTO   O83 4682   4.730   0.316   2.319 -0.1956  0.1928 -0.0071
   12CHTO  H204 4683   4.689   0.272   2.247 -1.9773  0.1542  1.0110
   12CHTO  C109 4684   4.798   0.159   2.574  1.2795 -0.8063  0.3677
   12CHTO  H213 4685   4.694   0.190   2.553  1.6011 -0.6695 -1.1005
   12CHTO  C110 4686   4.814   0.168   2.729  0.4643 -0.8558 -0.4415
   12CHTO  H214 4687   4.909   0.121   2.753 -1.0547 -3.0939  1.4163
   12CHTO   O78 4688   4.722   0.080   2.792  0.2378  0.1640  0.3745
   12CHTO  H200 4689   4.634   0.108   2.776 -0.4660 -1.2995  1.5707
   12CHTO  C111 4690   4.805   0.315   2.779 -0.2732 -0.6211  0.0952
   12CHTO  H215 4691   4.702   0.350   2.760  0.1509  1.6863  1.9284
   12CHTO   N19 4692   4.833   0.333   2.922 -0.2521  0.2627 -0.2377
   12CHTO  H207 4693   4.849   0.439   2.939 -0.3622  0.2070  0.2234
   12CHTO  H208 4694   4.746   0.299   2.976  1.2790 -1.7374  1.0041
   12CHTO   O74 4695   4.821   0.027   2.528 -0.3365 -0.4412  0.1720
   12CHTO  C115 4696   4.697  -0.049   2.482 -0.2372  0.2360 -0.3448
   12CHTO  H219 4697   4.607   0.013   2.481  0.8133  1.7764 -1.0539
   12CHTO   O76 4698   4.712  -0.098   2.340  0.8981  0.2447 -0.1141
   12CHTO  C122 4699   4.828  -0.180   2.310 -0.4005 -0.3281  0.0222
   12CHTO  H226 4700   4.913  -0.112   2.311 -0.8178  0.1942  0.1679
   12CHTO  C126 4701   4.811  -0.230   2.158  0.5023  0.4357  0.7750
   12CHTO   O85 4702   4.706  -0.325   2.145  0.1769 -0.3533 -0.4540
   12CHTO  H206 4703   4.696  -0.343   2.054 -3.5179 -0.1746 -0.1834
   12CHTO  C121 4704   4.839  -0.300   2.420  0.2979 -0.0904 -0.1368
   12CHTO  H225 4705   4.855  -0.401   2.376  0.6107  1.1649 -3.0495
   12CHTO   O81 4706   4.966  -0.287   2.483 -0.1475  0.5260  0.0932
   12CHTO  H202 4707   5.043  -0.302   2.431 -0.1202  2.2672 -0.4067
   12CHTO  C119 4708   4.728  -0.299   2.531 -0.4454  0.3306  0.7947
   12CHTO  H223 4709   4.648  -0.342   2.470  0.8883 -0.3299 -0.5240
   12CHTO  C117 4710   4.673  -0.165   2.596 -0.6827  0.1782 -0.3126
   12CHTO  H221 4711   4.737  -0.132   2.678 -1.6288  1.2665  0.0066
   12CHTO   N20 4712   4.534  -0.174   2.642  0.1528  0.3510  0.5506
   12CHTO  H209 4713   4.488  -0.077   2.633  1.3559  0.8307 -0.6703
   12CHTO  H210 4714   4.461  -0.221   2.578  1.3796  0.3073 -0.8600
   12CHTO   O80 4715   4.752  -0.405   2.644 -0.0536 -0.3554 -0.0957
   12CHTO  C103 4716   4.669  -0.527   2.652 -0.3382  0.1655 -0.2100
   12CHTO  H190 4717   4.564  -0.502   2.640 -0.1577  1.0136 -0.0740
   12CHTO  C101 4718   4.722  -0.641   2.555  0.3671  0.0570  0.2279
   12CHTO  H188 4719   4.830  -0.629   2.557  0.2954  0.7948  0.0428
   12CHTO   O68 4720   4.667  -0.613   2.399  0.8214  0.5509 -0.1599
   12CHTO  H168 4721   4.684  -0.523   2.380  2.1572  0.1038 -1.1566
   12CHTO   C99 4722   4.673  -0.791   2.607  0.0566 -0.2677  0.6882
   12CHTO  H186 4723   4.562  -0.797   2.607 -0.0958  1.9889 -0.2446
   12CHTO   N17 4724   4.720  -0.899   2.509 -0.2608 -0.2914 -0.2051
   12CHTO  H174 4725   4.824  -0.882   2.485 -0.2605  1.3741  0.8813
   12CHTO  H175 4726   4.698  -0.993   2.557 -0.4364  0.9762  2.2441
   12CHTO   C97 4727   4.714  -0.815   2.753 -0.4159 -0.7093 -0.1779
   12CHTO  H184 4728   4.824  -0.807   2.760 -0.2983 -1.0062 -1.4601
   12CHTO   O64 4729   4.648  -0.715   2.831 -0.7199 -0.3847  0.1091
   12CHTO  C104 4730   4.688  -0.578   2.806 -0.4754  0.1219 -0.5542
   12CHTO  H191 4731   4.792  -0.564   2.837 -0.8635  0.0407  0.8300
   12CHTO  C108 4732   4.607  -0.498   2.912  0.3834 -0.2345 -0.4386
   12CHTO   O71 4733   4.664  -0.528   3.050  0.0446 -0.2147  0.0894
   12CHTO  H171 4734   4.682  -0.449   3.096 -0.8282  0.4772 -0.7331
   12CHTO   O62 4735   4.668  -0.943   2.808 -0.4605 -0.4340 -0.5671
   12CHTO   C91 4736   4.763  -1.023   2.893  0.6449 -0.5804  0.6253
   12CHTO  H178 4737   4.843  -1.064   2.831  1.4564  0.1441  1.1888
   12CHTO   C92 4738   4.688  -1.148   2.953  0.2888 -0.8408 -0.2561
   12CHTO  H179 4739   4.642  -1.210   2.874 -0.1966  0.1026 -0.7242
   12CHTO   O66 4740   4.793  -1.232   3.000 -0.1488 -0.3005  0.1362
   12CHTO  H166 4741   4.805  -1.246   3.092  2.2304  0.6274  0.0087
   12CHTO   C93 4742   4.583  -1.112   3.060  0.1658 -1.2149 -0.7149
   12CHTO  H180 4743   4.597  -1.194   3.132  0.5734 -0.9617 -0.5040
   12CHTO   N16 4744   4.440  -1.115   3.020 -0.8672 -0.1635 -0.5880
   12CHTO  H172 4745   4.434  -1.181   2.935  0.4848  0.0705 -0.8724
   12CHTO  H173 4746   4.383  -1.165   3.097  0.6935 -2.0532 -0.6287
   12CHTO   C94 4747   4.615  -0.974   3.135  0.1033  0.3311 -0.0445
   12CHTO  H181 4748   4.590  -0.884   3.079 -0.0563  1.7840  2.2877
   12CHTO   O61 4749   4.760  -0.966   3.138  0.0130  0.3162 -0.2400
   12CHTO   C95 4750   4.827  -0.942   3.012  0.1113  0.6661  0.5090
   12CHTO  H182 4751   4.813  -0.837   2.989  0.9148  0.9154  1.1588
   12CHTO  C106 4752   4.983  -0.965   3.026  0.5957 -0.4714 -0.7515
   12CHTO   O69 4753   5.059  -0.888   2.934 -0.6339 -0.1902  0.3490
   12CHTO  H169 4754   5.076  -0.804   2.973 -1.2185 -0.3205  0.8743
   12CHTO   O63 4755   4.557  -0.978   3.286  0.2549  0.1436  0.1676
   12CHTO   C96 4756   4.612  -1.083   3.393 -0.0421  0.2196 -0.3618
   12CHTO  H183 4757   4.624  -1.171   3.330 -0.5453  0.1291 -0.3358
   12CHTO   C98 4758   4.516  -1.117   3.513 -0.3837 -0.5111 -1.4266
   12CHTO  H185 4759   4.415  -1.149   3.483 -1.4480 -0.0233  1.4381
   12CHTO   O67 4760   4.577  -1.218   3.596  0.2932  0.9406 -0.1336
   12CHTO  H167 4761   4.535  -1.220   3.679  1.5565 -3.1635  0.5211
   12CHTO  C102 4762   4.496  -0.987   3.609  0.1317  1.6120  0.2759
   12CHTO  H189 4763   4.452  -1.029   3.700  2.8652  0.3735  1.0848
   12CHTO   N18 4764   4.403  -0.876   3.564 -0.3536 -0.0020  0.5082
   12CHTO  H176 4765   4.415  -0.796   3.635 -1.5849  0.7759 -0.1551
   12CHTO  H177 4766   4.441  -0.836   3.471 -2.8108  1.0927 -0.0519
   12CHTO  C105 4767   4.641  -0.931   3.643  0.0178 -1.3429  0.4422
   12CHTO  H192 4768   4.649  -0.829   3.603 -0.2868 -0.7661  1.8218
   12CHTO   O65 4769   4.752  -1.006   3.590  0.3622 -0.9436  0.4942
   12CHTO  C100 4770   4.755  -1.036   3.444  0.0019  0.7457  0.1634
   12CHTO  H187 4771   4.781  -0.945   3.389 -2.2913  1.0189 -0.5091
   12CHTO  C107 4772   4.868  -1.136   3.422  0.1219 -0.1602 -0.0313
   12CHTO   O70 4773   4.994  -1.066   3.429  0.9635 -0.1045 -0.3108
   12CHTO  H170 4774   5.004  -1.003   3.360  1.0982  0.2880  0.0657
   12CHTO   O57 4775   4.627  -0.913   3.799 -0.8038  0.6737 -0.0774
   12CHTO   C85 4776   4.735  -0.983   3.872  0.0209 -0.2398 -0.1043
   12CHTO  H157 4777   4.834  -0.966   3.825 -1.3065  0.4071 -2.7624
   12CHTO   C83 4778   4.708  -1.135   3.871  0.0277  0.3586 -0.1766
   12CHTO  H155 4779   4.721  -1.163   3.766  2.0257  0.2833  0.0744
   12CHTO   O56 4780   4.571  -1.164   3.911 -0.3651 -0.8822  0.2374
   12CHTO  H135 4781   4.558  -1.257   3.907  1.5239 -1.2497  2.0600
   12CHTO   C81 4782   4.816  -1.213   3.954 -0.6896 -0.0595  0.1812
   12CHTO  H153 4783   4.910  -1.187   3.906 -1.6557  1.1829 -1.0980
   12CHTO   N14 4784   4.805  -1.360   3.934  0.3173 -0.0565 -0.4439
   12CHTO  H141 4785   4.711  -1.385   3.888 -0.5578  1.9652  0.1862
   12CHTO  H142 4786   4.887  -1.396   3.875  0.8666  1.0572 -0.3746
   12CHTO   C79 4787   4.806  -1.163   4.100  0.0113  0.3927 -1.1541
   12CHTO  H151 4788   4.884  -1.214   4.157 -0.7827  1.4935  0.9473
   12CHTO   O52 4789   4.827  -1.021   4.105 -0.0920  0.0343  0.4991
   12CHTO   C86 4790   4.735  -0.941   4.022 -0.1573  0.6115  0.3825
   12CHTO  H158 4791   4.635  -0.946   4.069  0.4356 -3.2260  1.3799
   12CHTO   C90 4792   4.771  -0.799   4.031 -0.1897 -0.5606 -0.1514
   12CHTO   O60 4793   4.668  -0.706   3.983 -0.2461  0.2471  0.1045
   12CHTO  H138 4794   4.618  -0.673   4.055 -2.0314  0.0931 -1.0251
   12CHTO   O50 4795   4.685  -1.190   4.170  0.3656  0.3045  0.1884
   12CHTO   C73 4796   4.610  -1.179   4.288  0.5877  0.5359 -0.5307
   12CHTO  H145 4797   4.515  -1.127   4.270 -0.0598 -0.8464 -1.2104
   12CHTO   C74 4798   4.692  -1.102   4.388 -0.5701 -0.8679 -0.7009
   12CHTO  H146 4799   4.711  -1.012   4.330  1.0092  0.2474  1.4784
   12CHTO   O54 4800   4.602  -1.064   4.496  0.1122  0.0193 -0.3752
   12CHTO  H133 4801   4.561  -0.982   4.474 -3.0921 -1.7113 -1.2369
   12CHTO   C75 4802   4.824  -1.172   4.436 -0.8573 -0.5731 -0.4450
   12CHTO  H147 4803   4.885  -1.195   4.348 -2.0883 -0.0485 -1.4488
   12CHTO   N13 4804   4.911  -1.093   4.528  0.2458 -0.0659 -0.3423
   12CHTO  H139 4805   5.004  -1.144   4.549 -0.1060 -0.4735  0.2391
   12CHTO  H140 4806   4.870  -1.062   4.623  1.7397 -0.3926  0.4147
   12CHTO   C76 4807   4.791  -1.321   4.486  0.9115 -0.4604  0.0935
   12CHTO  H148 4808   4.737  -1.310   4.580  2.0754  2.2309  0.5014
   12CHTO   O49 4809   4.705  -1.380   4.386 -0.4993  0.3057 -0.2666
   12CHTO   C77 4810   4.579  -1.322   4.348  0.0897  0.0147 -0.6371
   12CHTO  H149 4811   4.516  -1.317   4.436  1.8666 -2.9725  0.8643
   12CHTO   C88 4812   4.519  -1.426   4.248  0.5090 -0.0568  0.1349
   12CHTO   O58 4813   4.389  -1.389   4.219  0.0075  0.5140  0.3518
   12CHTO  H136 4814   4.341  -1.462   4.185 -0.3398  1.3517 -1.0125
   12CHTO   O51 4815   4.924  -1.426   4.490 -0.2092 -0.0147 -0.2467
   12CHTO   C78 4816   5.047  -1.395   4.388  0.5953  0.5145 -0.0129
   12CHTO  H150 4817   5.058  -1.288   4.359  1.5980 -0.0180 -1.6815
   12CHTO   C80 4818   5.032  -1.477   4.256 -0.4255  0.2618 -0.1237
   12CHTO  H152 4819   5.042  -1.586   4.276  0.6045  0.5471  0.9878
   12CHTO   O55 4820   4.901  -1.433   4.223  0.7102 -0.5623 -0.1250
   12CHTO  H134 4821   4.834  -1.494   4.246 -0.4125  0.8873  0.5157
   12CHTO   C84 4822   5.154  -1.448   4.160  0.4503  0.6318  1.0951
   12CHTO  H156 4823   5.153  -1.342   4.138 -1.4124  0.1030 -1.7158
   12CHTO   N15 4824   5.139  -1.533   4.037 -0.3812 -0.8157 -0.4632
   12CHTO  H143 4825   5.175  -1.489   3.947 -3.0583 -0.3326 -1.3263
   12CHTO  H144 4826   5.190  -1.626   4.048 -0.2520 -0.6471  0.4433
   12CHTO   C87 4827   5.285  -1.474   4.238  0.0268  0.4737  0.3153
   12CHTO  H159 4828   5.300  -1.580   4.260  1.6100  0.3238 -1.3686
   12CHTO   O53 4829   5.283  -1.391   4.376  0.6963 -0.3459  0.0848
   12CHTO   C82 4830   5.177  -1.438   4.460 -0.0098  0.0609  0.0882
   12CHTO  H154 4831   5.187  -1.545   4.472  2.9009  0.4138  1.1897
   12CHTO   C89 4832   5.188  -1.374   4.599  0.2630  0.2262 -0.5661
   12CHTO   O59 4833   5.109  -1.446   4.693 -0.4085 -0.1088 -0.0743
   12CHTO  H137 4834   5.155  -1.524   4.719  1.8285  1.6329  1.4240
   12CHTO   O45 4835   5.414  -1.431   4.166 -0.4385 -0.1634  0.6318
   12CHTO   C67 4836   5.474  -1.500   4.057 -0.0932 -0.0408  0.6580
   12CHTO  H124 4837   5.403  -1.543   3.986  1.0254  0.4197 -0.7777
   12CHTO   C65 4838   5.558  -1.395   3.979  0.2278 -0.3938  0.2101
   12CHTO  H122 4839   5.493  -1.309   3.966  1.5016  0.4898 -0.4468
   12CHTO   O44 4840   5.583  -1.458   3.852 -0.0076  0.0501  0.2784
   12CHTO  H102 4841   5.601  -1.392   3.788  1.8031 -2.1139 -1.5307
   12CHTO   C63 4842   5.678  -1.347   4.064  0.2751 -0.2975 -0.0938
   12CHTO  H120 4843   5.636  -1.316   4.160  0.2339 -1.9704  0.4340
   12CHTO   N11 4844   5.746  -1.221   4.009  0.8959  0.4052  0.2234
   12CHTO  H108 4845   5.671  -1.154   3.973  0.8731  0.6519  0.7243
   12CHTO  H109 4846   5.795  -1.240   3.916  1.7744 -1.8532  1.1231
   12CHTO   C61 4847   5.772  -1.471   4.096  0.2843  1.0985 -0.6321
   12CHTO  H118 4848   5.824  -1.436   4.187 -2.6944  2.7600  0.5001
   12CHTO   O40 4849   5.703  -1.596   4.128 -0.5838 -0.1983 -0.7333
   12CHTO   C68 4850   5.564  -1.624   4.107  0.4465  1.1281 -0.5200
   12CHTO  H125 4851   5.518  -1.656   4.203  2.5790  0.0597  0.1778
   12CHTO   C72 4852   5.570  -1.745   4.015 -0.1618  0.4052 -0.4598
   12CHTO   O48 4853   5.443  -1.805   3.990 -0.4130  0.3758 -0.0569
   12CHTO  H105 4854   5.392  -1.737   3.949 -1.3871 -1.3514 -1.7858
   12CHTO   O38 4855   5.861  -1.482   3.987  0.4039  0.6784 -0.4061
   12CHTO   C55 4856   5.989  -1.548   4.001 -0.4074  0.2318  0.1413
   12CHTO  H112 4857   5.966  -1.620   4.081  0.5642  1.4327  1.5276
   12CHTO   C56 4858   6.100  -1.444   4.045  0.2174 -0.3897 -0.2447
   12CHTO  H113 4859   6.085  -1.352   3.986  0.1775  1.3210  2.3828
   12CHTO   O42 4860   6.066  -1.403   4.183  0.0259 -0.1537  0.0410
   12CHTO  H100 4861   6.134  -1.370   4.238 -1.0288 -1.9521  2.4792
   12CHTO   C57 4862   6.244  -1.506   4.044  0.5683  0.0820 -0.5724
   12CHTO  H114 4863   6.244  -1.575   4.128 -1.3113 -0.5591 -1.0683
   12CHTO   N10 4864   6.359  -1.410   4.071 -1.0274  0.5305  0.4747
   12CHTO  H106 4865   6.377  -1.409   4.178 -0.6759  1.3907  0.4058
   12CHTO  H107 4866   6.451  -1.431   4.018 -1.7504 -0.7916 -0.2822
   12CHTO   C58 4867   6.266  -1.589   3.912  0.5032 -0.1332 -0.0837
   12CHTO  H115 4868   6.256  -1.519   3.827 -1.1036 -0.9789 -0.6139
   12CHTO   O37 4869   6.163  -1.688   3.904 -0.6372 -0.4549 -0.3041
   12CHTO   C59 4870   6.031  -1.635   3.887 -0.4153 -0.3336  0.2159
   12CHTO  H116 4871   6.039  -1.572   3.798  2.2707  0.6314  1.0988
   12CHTO   C70 4872   5.922  -1.743   3.861 -0.3012  0.5795  0.0744
   12CHTO   O46 4873   5.904  -1.850   3.958 -0.1642  0.1887  0.6903
   12CHTO  H103 4874   5.857  -1.919   3.916  0.9858 -0.0242 -0.2603
   12CHTO   O39 4875   6.414  -1.665   3.921  0.3007  0.1592  0.5782
   12CHTO   C60 4876   6.433  -1.736   3.797  0.1478  0.2893  0.3251
   12CHTO  H117 4877   6.345  -1.796   3.773  1.5825 -2.8103  2.5398
   12CHTO   C62 4878   6.467  -1.636   3.675  0.4728  0.3520 -0.0533
   12CHTO  H119 4879   6.372  -1.580   3.664  0.3133 -0.1129 -1.0880
   12CHTO   O43 4880   6.580  -1.545   3.695 -0.2783  0.3183 -0.3856
   12CHTO  H101 4881   6.602  -1.505   3.613  0.0504  1.3822  0.2163
   12CHTO   C66 4882   6.494  -1.720   3.549 -0.1048 -0.0788  0.3485
   12CHTO  H123 4883   6.413  -1.790   3.533  0.1744 -0.0209 -1.3662
   12CHTO   N12 4884   6.506  -1.631   3.431 -0.1460 -0.0997  0.9537
   12CHTO  H110 4885   6.407  -1.598   3.402  1.3409  1.1055 -3.0881
   12CHTO  H111 4886   6.563  -1.544   3.457  1.1463 -1.2210  1.9225
   12CHTO   C69 4887   6.623  -1.804   3.570 -0.1616  0.4218  0.4807
   12CHTO  H126 4888   6.710  -1.736   3.582 -0.2065  0.3817  1.0687
   12CHTO   O41 4889   6.601  -1.896   3.684  0.2006 -0.1171  0.0420
   12CHTO   C64 4890   6.554  -1.832   3.811 -0.2896  0.6632 -0.1748
   12CHTO  H121 4891   6.641  -1.774   3.847  0.1025 -1.4858  2.4892
   12CHTO   C71 4892   6.512  -1.935   3.915  0.0297  0.0573 -0.2531
   12CHTO   O47 4893   6.624  -2.016   3.960  0.5002 -0.0025 -0.0685
   12CHTO  H104 4894   6.587  -2.101   3.973  0.4394  0.1953  1.1409
   12CHTO   O34 4895   6.668  -1.884   3.430  0.5875  0.2601  0.1033
   12CHTO   C49 4896   6.806  -1.934   3.415  0.4872 -0.3019  0.3199
   12CHTO   H91 4897   6.867  -1.850   3.381  0.8018 -0.3435  0.7835
   12CHTO   C47 4898   6.814  -2.038   3.301  0.4915 -0.2718  0.1311
   12CHTO   H89 4899   6.923  -2.058   3.288 -0.0644 -1.7328 -2.5407
   12CHTO   O33 4900   6.762  -1.990   3.177 -0.0709 -0.2102  0.0773
   12CHTO   H70 4901   6.764  -2.054   3.109 -1.5702  1.4536 -1.5931
   12CHTO   C45 4902   6.727  -2.171   3.348  0.6576 -0.0976  0.3068
   12CHTO   H87 4903   6.622  -2.160   3.316 -0.0514  0.2173  2.6160
   12CHTO    N8 4904   6.781  -2.288   3.279  0.3660  0.0159 -0.4120
   12CHTO   H75 4905   6.837  -2.257   3.192 -1.5682  0.1517 -1.6563
   12CHTO   H76 4906   6.850  -2.347   3.336  1.0403 -0.9021 -2.1431
   12CHTO   C43 4907   6.709  -2.180   3.508  0.6122 -0.1701 -0.0625
   12CHTO   H85 4908   6.633  -2.105   3.528  1.8421  0.7127  1.4279
   12CHTO   O29 4909   6.838  -2.142   3.563 -0.7396 -0.4426  0.6458
   12CHTO   C50 4910   6.863  -2.002   3.549  0.4169 -0.4138  0.0644
   12CHTO   H92 4911   6.818  -1.957   3.638 -0.4920  0.0907 -0.6353
   12CHTO   C54 4912   7.016  -1.982   3.569  0.1743  0.3291  0.3439
   12CHTO   O36 4913   7.062  -1.847   3.591  0.1265 -0.1255 -0.4035
   12CHTO   H72 4914   6.996  -1.807   3.644 -0.2229  0.0103 -0.9343
   12CHTO   O27 4915   6.646  -2.306   3.540 -0.0916  0.5062  0.1004
   12CHTO   C37 4916   6.516  -2.343   3.580 -0.6135 -0.1530 -0.5916
   12CHTO   H79 4917   6.509  -2.441   3.630 -2.0347  0.2857  0.0950
   12CHTO   C38 4918   6.454  -2.251   3.693  0.5227 -0.0434 -0.0743
   12CHTO   H80 4919   6.453  -2.147   3.658  1.5685 -0.5810 -1.7661
   12CHTO   O31 4920   6.532  -2.262   3.816  0.2700 -0.2210  0.1380
   12CHTO   H68 4921   6.578  -2.182   3.827 -0.3449  0.5682 -2.5213
   12CHTO   C39 4922   6.301  -2.284   3.717 -0.7281 -0.9895 -0.1799
   12CHTO   H81 4923   6.300  -2.390   3.742  1.6489 -0.8838  0.5024
   12CHTO    N7 4924   6.241  -2.202   3.827 -0.4714 -0.0788  0.4076
   12CHTO   H73 4925   6.208  -2.105   3.790 -0.6394 -0.5422 -0.6795
   12CHTO   H74 4926   6.181  -2.257   3.898 -1.3968  0.8563  0.3650
   12CHTO   C40 4927   6.227  -2.272   3.578 -0.2662 -0.3658 -0.1718
   12CHTO   H82 4928   6.228  -2.167   3.549 -1.1639 -0.6654 -1.3290
   12CHTO   O26 4929   6.289  -2.361   3.487 -0.0477 -0.1188 -0.3388
   12CHTO   C41 4930   6.428  -2.341   3.455 -0.3867  0.4772 -0.1583
   12CHTO   H83 4931   6.436  -2.248   3.397  0.6624  1.8300  2.1281
   12CHTO   C52 4932   6.462  -2.461   3.355 -0.4381  0.0779 -0.2402
   12CHTO   O35 4933   6.379  -2.490   3.213 -0.1480 -1.2671 -0.3839
   12CHTO   H71 4934   6.296  -2.524   3.238  0.1306 -0.4725  1.7480
   12CHTO   O28 4935   6.088  -2.310   3.582 -0.0456 -0.2237 -0.1495
   12CHTO   C42 4936   5.984  -2.244   3.503  0.1888  0.0056 -0.4567
   12CHTO   H84 4937   5.916  -2.325   3.477 -0.3078 -0.0060  0.8388
   12CHTO   C44 4938   6.022  -2.169   3.370 -0.5845  0.2827  0.0950
   12CHTO   H86 4939   6.074  -2.076   3.393 -1.6495  0.6022  1.2888
   12CHTO   O32 4940   6.104  -2.256   3.289  0.4969 -0.3100 -0.4773
   12CHTO   H69 4941   6.058  -2.309   3.227 -0.2049  0.3060 -0.4838
   12CHTO   C48 4942   5.890  -2.121   3.299  0.0567 -0.1914  0.3048
   12CHTO   H90 4943   5.849  -2.211   3.253 -0.5565 -0.1548  0.7798
   12CHTO    N9 4944   5.925  -2.032   3.183  0.0264  0.4051 -0.3537
   12CHTO   H77 4945   5.887  -1.932   3.198  3.0154  1.6471 -0.7380
   12CHTO   H78 4946   5.899  -2.081   3.091 -1.2890  0.7722 -0.1871
   12CHTO   C51 4947   5.795  -2.046   3.399  0.1457 -0.2220 -0.2682
   12CHTO   H93 4948   5.827  -1.942   3.404 -0.1930 -0.1768  1.3894
   12CHTO   O30 4949   5.790  -2.110   3.526 -0.1149  0.5023  0.0797
   12CHTO   C46 4950   5.905  -2.149   3.592  0.3608 -0.0632  0.4460
   12CHTO   H88 4951   5.968  -2.063   3.614  0.4791  0.5923 -2.2650
   12CHTO   C53 4952   5.848  -2.216   3.720 -0.7756 -0.7396 -0.4636
   12CHTO   O72 4953   5.751  -2.318   3.712  0.4498  0.5086  0.3088
   12CHTO  H199 4954   5.717  -2.333   3.798  2.3421 -0.5008  0.9192
   12CHTO   O22 4955   5.665  -2.045   3.344 -0.2248 -0.3755  0.5716
   12CHTO   C31 4956   5.561  -1.943   3.366  0.0615  0.0343 -0.7195
   12CHTO   H59 4957   5.464  -1.992   3.346 -1.1482  1.4100  1.5866
   12CHTO   C29 4958   5.555  -1.879   3.508  0.1390 -0.2970  0.2169
   12CHTO   H57 4959   5.653  -1.833   3.527 -1.7785  3.2316  1.9758
   12CHTO   O21 4960   5.529  -1.986   3.603 -0.3071 -0.3903 -0.1772
   12CHTO   H37 4961   5.595  -2.049   3.621 -1.7749 -1.4113  1.9028
   12CHTO   C27 4962   5.442  -1.773   3.521 -0.8558  0.4843 -0.2808
   12CHTO   H55 4963   5.347  -1.818   3.491  0.6646 -1.3157 -2.5758
   12CHTO    N5 4964   5.427  -1.714   3.656 -0.5371 -0.4168  0.4153
   12CHTO   H43 4965   5.330  -1.670   3.675 -0.5609 -0.3563  0.1557
   12CHTO   H44 4966   5.442  -1.789   3.732 -1.0520 -0.2783  0.6514
   12CHTO   C25 4967   5.451  -1.667   3.407  0.2038 -0.3834  0.5364
   12CHTO   H53 4968   5.547  -1.616   3.425  0.7578 -0.3167 -2.3800
   12CHTO   O17 4969   5.465  -1.726   3.270  0.1765  0.9784 -0.1260
   12CHTO   C32 4970   5.564  -1.826   3.258 -0.4749  1.2226 -0.2937
   12CHTO   H60 4971   5.656  -1.770   3.274  0.2269 -0.2262  0.9244
   12CHTO   C36 4972   5.554  -1.867   3.112 -0.4567  0.8729 -0.4155
   12CHTO   O25 4973   5.632  -1.771   3.036 -0.3586  0.6148  0.2267
   12CHTO   H40 4974   5.590  -1.688   3.025  0.3035  0.9355  0.0609
   12CHTO   O15 4975   5.341  -1.553   3.406 -0.2056 -0.6503 -0.2269
   12CHTO   C19 4976   5.215  -1.527   3.336  0.6515 -0.6759 -0.0443
   12CHTO   H47 4977   5.223  -1.420   3.310  1.9029 -0.9907 -1.0251
   12CHTO   C20 4978   5.191  -1.605   3.200 -0.4451  0.2246 -0.2113
   12CHTO   H48 4979   5.194  -1.714   3.216 -1.6490  0.1040 -0.7787
   12CHTO   O19 4980   5.300  -1.577   3.113 -0.4375  0.3264 -0.7532
   12CHTO   H35 4981   5.313  -1.658   3.068 -0.2574 -0.0856  0.0275
   12CHTO   C21 4982   5.060  -1.561   3.127 -0.0450  0.0780 -0.5253
   12CHTO   H49 4983   5.077  -1.464   3.080  0.3074  0.8589  1.1779
   12CHTO    N4 4984   5.027  -1.656   3.015 -0.1604 -0.6654 -0.8364
   12CHTO   H41 4985   4.999  -1.751   3.057  0.3721 -0.4354  0.0438
   12CHTO   H42 4986   5.114  -1.673   2.953  1.2852  4.1629 -0.3603
   12CHTO   C22 4987   4.942  -1.551   3.226  0.1634 -0.2649  1.2382
   12CHTO   H50 4988   4.900  -1.648   3.251 -1.1980  0.6691  2.6665
   12CHTO   O14 4989   4.978  -1.490   3.351  0.0292  0.0538 -0.0015
   12CHTO   C23 4990   5.093  -1.533   3.427 -0.7602 -0.6832 -0.0998
   12CHTO   H51 4991   5.076  -1.635   3.464 -1.8832 -0.5573 -0.2488
   12CHTO   C34 4992   5.120  -1.435   3.546  0.6719 -0.7908 -0.0639
   12CHTO   O23 4993   5.017  -1.426   3.647  0.6500 -0.1843  0.1956
   12CHTO   H38 4994   4.957  -1.356   3.628  0.3059 -0.1426  1.4289
   12CHTO   O16 4995   4.840  -1.467   3.176  0.4458  0.1292  0.0950
   12CHTO   C24 4996   4.674  -1.493   3.213  0.6501 -0.2062 -0.1060
   12CHTO   H52 4997   4.615  -1.412   3.171  3.8722  1.1722 -2.1937
   12CHTO   C26 4998   4.648  -1.515   3.363 -1.0881 -0.1835  0.0853
   12CHTO   H54 4999   4.708  -1.604   3.393  1.0371  1.7860  1.9178
   12CHTO   O20 5000   4.689  -1.396   3.435 -0.9236  0.0643  0.7218
   12CHTO   H36 5001   4.613  -1.347   3.460 -0.8882  1.0409 -1.0145
   12CHTO   C30 5002   4.501  -1.557   3.383 -0.0486 -0.0812 -0.1379
   12CHTO   H58 5003   4.438  -1.479   3.338  0.9365  0.7649 -0.0732
   12CHTO    N6 5004   4.467  -1.571   3.523  0.1813 -0.1414 -0.8110
   12CHTO   H45 5005   4.369  -1.526   3.536 -0.5349 -2.2998  1.7570
   12CHTO   H46 5006   4.465  -1.675   3.554  0.9751 -0.1457 -0.7709
   12CHTO   C33 5007   4.464  -1.683   3.294  0.3374 -0.2916 -0.0334
   12CHTO   H61 5008   4.518  -1.773   3.327  0.8381 -0.2754 -0.8165
   12CHTO   O18 5009   4.501  -1.651   3.160 -0.1366  0.7602  0.5390
   12CHTO   C28 5010   4.638  -1.615   3.137  0.3279  0.1455  0.6596
   12CHTO   H56 5011   4.700  -1.697   3.175 -1.8334 -0.5845  2.7705
   12CHTO   C35 5012   4.651  -1.605   2.982  0.7449  0.0036 -0.3896
   12CHTO   O24 5013   4.618  -1.726   2.909 -0.2914 -0.5158  0.4472
   12CHTO   H39 5014   4.608  -1.701   2.820  0.0527 -1.6365  0.0826
   12CHTO    O9 5015   4.323  -1.708   3.306  0.1368 -0.4356 -0.1363
   12CHTO   C13 5016   4.272  -1.823   3.188 -0.5534 -0.5661  0.1329
   12CHTO   H26 5017   4.343  -1.818   3.103 -1.1191 -0.7592 -0.3480
   12CHTO   C11 5018   4.129  -1.775   3.146  0.4995 -0.6993 -0.2819
   12CHTO   H24 5019   4.141  -1.686   3.083 -1.2124  0.7876  1.4403
   12CHTO    O8 5020   4.047  -1.743   3.259  0.4141  0.6865  0.4649
   12CHTO    H3 5021   4.064  -1.792   3.337 -0.9115  0.8389  0.8733
   12CHTO    C9 5022   4.062  -1.889   3.059  0.0987  0.3245  0.0600
   12CHTO   H22 5023   4.127  -1.901   2.971  1.7293 -1.3183  1.4491
   12CHTO    N2 5024   3.926  -1.858   3.008 -0.1120  0.3934  0.7408
   12CHTO   H10 5025   3.919  -1.861   2.900  0.9908 -1.6810  0.6974
   12CHTO   H11 5026   3.849  -1.922   3.046  0.8714 -0.1087  1.9176
   12CHTO    C7 5027   4.067  -2.025   3.135 -0.1566  0.4622 -0.4325
   12CHTO   H20 5028   4.020  -2.095   3.062 -0.4210  0.4772 -0.2753
   12CHTO    O4 5029   4.206  -2.057   3.162 -0.3971  0.4075  0.4841
   12CHTO   C14 5030   4.285  -1.966   3.247  0.6413  0.9581  0.7195
   12CHTO   H27 5031   4.391  -1.998   3.243  0.3169 -0.3011  1.8706
   12CHTO   C18 5032   4.246  -1.974   3.394 -0.6120  0.4865  0.8604
   12CHTO   O13 5033   4.275  -2.099   3.451 -0.1366  0.1245  0.1219
   12CHTO    H7 5034   4.203  -2.152   3.422  0.7055  0.1523 -2.1234
   12CHTO    O2 5035   3.975  -2.047   3.267  0.4377  0.7573 -0.0584
   12CHTO    C1 5036   3.852  -2.113   3.257 -0.5730 -0.5093 -0.7546
   12CHTO   H14 5037   3.811  -2.121   3.154 -1.0507  0.0113 -0.6032
   12CHTO    C2 5038   3.739  -2.038   3.341 -0.3098 -0.4355  0.1462
   12CHTO   H15 5039   3.782  -2.007   3.437  0.0394 -1.1870  0.2383
   12CHTO    O6 5040   3.698  -1.910   3.273  0.0586  0.7909 -0.2514
   12CHTO    H1 5041   3.777  -1.863   3.257  0.3271  1.0325  1.6762
   12CHTO    C3 5042   3.605  -2.132   3.352 -0.5104  0.2881 -0.6329
   12CHTO   H16 5043   3.571  -2.142   3.248  0.0838 -2.5015 -0.5839
   12CHTO    N1 5044   3.496  -2.067   3.433 -0.5022 -0.2196 -0.5059
   12CHTO    H8 5045   3.393  -2.090   3.411 -1.1984  1.5800  0.7266
   12CHTO    H9 5046   3.500  -2.061   3.541 -1.6935 -2.3802 -0.3206
   12CHTO    C4 5047   3.643  -2.275   3.404  0.2025 -0.3186  0.6350
   12CHTO   H17 5048   3.684  -2.269   3.504  0.6771  0.2870  0.4040
   12CHTO    O1 5049   3.738  -2.326   3.310 -0.6729  0.2334  0.4980
   12CHTO    C5 5050   3.869  -2.271   3.302 -0.3744  0.4334 -0.1309
   12CHTO   H18 5051   3.911  -2.264   3.402 -2.2553  2.9010  0.5475
   12CHTO   C16 5052   3.949  -2.361   3.210 -0.0823 -0.0625 -0.1525
   12CHTO   O11 5053   4.089  -2.331   3.228 -0.4853  0.1888 -0.4217
   12CHTO    H5 5054   4.136  -2.403   3.266  0.8173  1.6101  0.7230
   12CHTO    O3 5055   3.536  -2.372   3.406 -0.6183 -0.4627  0.2846
   12CHTO    C6 5056   3.572  -2.510   3.449 -0.1267 -0.1454 -0.1352
   12CHTO   H19 5057   3.680  -2.523   3.457 -0.1287  0.3775  0.7914
   12CHTO    C8 5058   3.512  -2.524   3.591  0.3470 -0.2716  0.4669
   12CHTO   H21 5059   3.406  -2.497   3.591 -0.0408 -1.3585  4.9455
   12CHTO    O7 5060   3.588  -2.444   3.680  0.4091 -0.6918  0.2607
   12CHTO    H2 5061   3.539  -2.372   3.715 -0.1590  0.0560 -1.9893
   12CHTO   C12 5062   3.524  -2.676   3.641  0.7001 -0.2956  0.0149
   12CHTO   H25 5063   3.631  -2.694   3.662  0.3952 -2.0933  0.1301
   12CHTO    N3 5064   3.458  -2.690   3.778  0.4104 -1.0589 -0.3983
   12CHTO   H12 5065   3.521  -2.742   3.849 -1.5061 -1.0729  1.3286
   12CHTO   H13 5066   3.369  -2.751   3.767 -0.2704 -0.3958  1.1715
   12CHTO   C15 5067   3.478  -2.779   3.527 -0.0809 -0.0147  0.8731
   12CHTO   H28 5068   3.371  -2.779   3.505  0.0576 -0.0053  0.1774
   12CHTO   O10 5069   3.513  -2.929   3.568 -0.7856 -0.0525 -0.0170
   12CHTO    H4 5070   3.509  -2.979   3.489 -0.2734  1.2741 -0.9072
   12CHTO    O5 5071   3.549  -2.747   3.400  0.1076 -0.2346  0.0499
   12CHTO   C10 5072   3.521  -2.617   3.350 -0.4925  0.8359 -0.3036
   12CHTO   H23 5073   3.414  -2.609   3.329 -0.3713 -0.9285 -1.6813
   12CHTO   C17 5074   3.586  -2.606   3.213  0.1583  0.0518 -0.2846
   12CHTO   O12 5075   3.541  -2.500   3.128 -0.0768  0.4712  0.2599
   12CHTO    H6 5076   3.550  -2.526   3.038  0.0079  1.7598 -0.1082
   13CHTO  H203 5077   7.094   3.385   0.031  0.8484 -0.7093  0.1137
   13CHTO   O82 5078   7.165   3.440   0.002 -0.2835  0.4151 -0.5569
   13CHTO  C123 5079   7.141   3.578   0.027 -0.1558  0.1315 -0.2146
   13CHTO  H227 5080   7.231   3.637   0.007  1.2771 -1.2464  2.0230
   13CHTO   O77 5081   7.031   3.603  -0.076  0.0322 -0.0683  0.3629
   13CHTO  C118 5082   6.989   3.744  -0.082  0.3843  0.0857  0.5186
   13CHTO  H222 5083   7.074   3.809  -0.107 -0.2102 -0.1165 -2.1626
   13CHTO  C125 5084   6.884   3.756  -0.205 -0.1209  0.0498 -0.5455
   13CHTO   O84 5085   6.859   3.887  -0.244  0.2613 -0.2659 -0.4431
   13CHTO  H205 5086   6.926   3.918  -0.301 -0.4560  0.0909 -1.1106
   13CHTO  C114 5087   6.932   3.776   0.060  0.2339 -0.0956 -0.5377
   13CHTO  H218 5088   6.853   3.705   0.087 -0.1143  1.5032  2.9542
   13CHTO  C116 5089   7.036   3.757   0.182  0.5381 -0.3838  0.0082
   13CHTO  H220 5090   7.119   3.828   0.164 -0.6584  0.9949 -0.1269
   13CHTO   O79 5091   6.978   3.804   0.303  0.4514  0.2014 -0.0119
   13CHTO  H201 5092   6.912   3.742   0.327 -0.2288  0.8538 -0.1821
   13CHTO  C120 5093   7.094   3.608   0.172  0.0556  0.2157  0.0737
   13CHTO  H224 5094   7.009   3.548   0.211  0.7536  0.3079  1.7525
   13CHTO   N21 5095   7.203   3.589   0.270 -0.1577  0.2301 -0.0457
   13CHTO  H211 5096   7.172   3.578   0.373 -0.4245 -0.4456 -0.1964
   13CHTO  H212 5097   7.273   3.516   0.234  0.6833  2.3635 -2.9210
   13CHTO   O75 5098   6.865   3.907   0.057 -0.5772  0.2013  0.1495
   13CHTO  C112 5099   6.730   3.911   0.121  0.7282 -0.1234 -0.0945
   13CHTO  H216 5100   6.713   3.828   0.191  2.5202 -0.8698 -0.5044
   13CHTO   O73 5101   6.633   3.915   0.015 -0.9025  0.8590  0.2203
   13CHTO  C113 5102   6.497   3.910   0.052  0.5594 -0.3634  0.0691
   13CHTO  H217 5103   6.481   3.816   0.109 -3.8275  0.3511  0.1426
   13CHTO  C124 5104   6.416   3.892  -0.074  0.0804 -0.0965  0.1740
   13CHTO   O83 5105   6.415   3.763  -0.139 -0.4209  0.1342 -0.9462
   13CHTO  H204 5106   6.365   3.716  -0.076 -0.0362  2.3231  1.0800
   13CHTO  C109 5107   6.464   4.040   0.122  0.5540 -0.2050 -0.1733
   13CHTO  H213 5108   6.476   4.117   0.045  1.5547 -1.1063 -0.9238
   13CHTO  C110 5109   6.555   4.062   0.242 -0.1678  0.4506  0.5117
   13CHTO  H214 5110   6.541   3.976   0.306 -1.3038  1.7501  2.0522
   13CHTO   O78 5111   6.533   4.194   0.300  0.1919 -0.7084  0.0260
   13CHTO  H200 5112   6.473   4.185   0.372  1.1712  0.1260  0.9777
   13CHTO  C111 5113   6.707   4.050   0.200 -0.1018  0.2432  0.1211
   13CHTO  H215 5114   6.732   4.126   0.125 -0.2198 -1.6791 -1.9026
   13CHTO   N19 5115   6.806   4.069   0.312 -0.5163 -0.3498 -0.0659
   13CHTO  H207 5116   6.811   3.969   0.353 -1.4761 -0.0441  0.8211
   13CHTO  H208 5117   6.900   4.088   0.263 -0.2376 -0.6247  0.3604
   13CHTO   O74 5118   6.329   4.042   0.175 -0.2437  0.1289  0.2815
   13CHTO  C115 5119   6.238   4.175   0.135 -0.4730 -0.0391  0.3430
   13CHTO  H219 5120   6.254   4.256   0.206 -1.0342 -1.3089  1.9511
   13CHTO   O76 5121   6.276   4.238  -0.017  0.1167 -0.0278  0.0535
   13CHTO  C122 5122   6.205   4.355  -0.057  0.1077  0.9590  0.2652
   13CHTO  H226 5123   6.238   4.360  -0.161  2.4698 -1.7117  0.8308
   13CHTO  C126 5124   6.246   4.486   0.012  0.6759 -0.3254  0.2837
   13CHTO   O85 5125   6.209   4.598  -0.066  0.5294 -0.1956 -0.0121
   13CHTO  H206 5126   6.117   4.615  -0.056  0.6405 -0.2557  1.1361
   13CHTO  C121 5127   6.046   4.326  -0.044 -0.2085  0.0203 -0.2138
   13CHTO  H225 5128   6.002   4.427  -0.057  1.1339  0.6351 -0.0763
   13CHTO   O81 5129   6.019   4.246  -0.160 -0.2582  0.1741 -0.0791
   13CHTO  H202 5130   6.051   4.290  -0.236 -0.2748  2.5921  1.2870
   13CHTO  C119 5131   5.997   4.274   0.091  0.4550 -0.7463 -0.5276
   13CHTO  H223 5132   6.000   4.357   0.162 -1.7519 -0.4593 -0.7396
   13CHTO  C117 5133   6.081   4.147   0.142  0.5814  0.2896 -0.2794
   13CHTO  H221 5134   6.072   4.060   0.076  2.1526  1.2447 -1.7864
   13CHTO   N20 5135   6.040   4.105   0.276  0.3245 -0.4340 -0.4858
   13CHTO  H209 5136   5.979   4.016   0.273  0.6213 -0.7420  2.0584
   13CHTO  H210 5137   6.125   4.091   0.341  0.5211 -2.1920 -1.0978
   13CHTO   O80 5138   5.849   4.251   0.085  0.0388  0.5311 -0.5551
   13CHTO  C103 5139   5.743   4.352   0.142 -0.3681  0.6752 -0.2282
   13CHTO  H190 5140   5.756   4.393   0.243  0.2191 -0.9328  0.3552
   13CHTO  C101 5141   5.737   4.485   0.051  0.0767  0.7631  0.5419
   13CHTO  H188 5142   5.731   4.464  -0.056  1.3064 -0.8384  0.7702
   13CHTO   O68 5143   5.868   4.562   0.070 -0.0244  0.1659  0.2945
   13CHTO  H168 5144   5.848   4.654   0.076 -0.5384  0.0891 -0.1369
   13CHTO   C99 5145   5.605   4.566   0.098  0.0506  0.1738 -0.1349
   13CHTO  H186 5146   5.621   4.599   0.202  1.1806  1.2232 -0.6358
   13CHTO   N17 5147   5.579   4.686   0.017  0.1284 -0.0028 -0.1694
   13CHTO  H174 5148   5.525   4.763   0.071 -1.9365 -0.4515 -1.5012
   13CHTO  H175 5149   5.555   4.668  -0.087  3.1685  1.1532 -1.1158
   13CHTO   C97 5150   5.485   4.465   0.106  0.9020 -0.1253 -0.4510
   13CHTO  H184 5151   5.464   4.447  -0.001  1.1712  1.4258 -0.7793
   13CHTO   O64 5152   5.508   4.349   0.183 -0.2482  0.2176 -0.3064
   13CHTO  C104 5153   5.615   4.268   0.148 -0.4612 -0.4500 -0.0071
   13CHTO  H191 5154   5.600   4.214   0.055 -0.4971 -0.6986  0.1415
   13CHTO  C108 5155   5.623   4.158   0.254  0.1812 -0.0459 -0.4412
   13CHTO   O71 5156   5.505   4.067   0.250  0.2907 -0.5920 -0.0565
   13CHTO  H171 5157   5.537   3.979   0.249 -1.3692 -1.2762  2.0757
   13CHTO   O62 5158   5.370   4.521   0.179 -0.5871 -0.1436  0.0249
   13CHTO   C91 5159   5.248   4.552   0.105  0.0572 -0.1154 -0.5101
   13CHTO  H178 5160   5.272   4.580   0.002 -0.7864  1.1161 -0.3795
   13CHTO   C92 5161   5.193   4.680   0.177  0.4094  1.1717 -0.3798
   13CHTO  H179 5162   5.203   4.668   0.286  1.1680 -0.0744 -0.5894
   13CHTO   O66 5163   5.286   4.783   0.139  0.5047 -0.8824 -0.2228
   13CHTO  H166 5164   5.257   4.867   0.168  0.2102 -0.1562 -2.5740
   13CHTO   C93 5165   5.044   4.709   0.128  0.1597  0.6974  0.1909
   13CHTO  H180 5166   5.048   4.750   0.027  0.3717  0.5696  0.1464
   13CHTO   N16 5167   4.987   4.818   0.205  0.0496  0.2735  0.1023
   13CHTO  H172 5168   5.041   4.907   0.178 -1.3560  0.7704 -1.1019
   13CHTO  H173 5169   4.884   4.836   0.180 -0.0035  3.1264  2.1215
   13CHTO   C94 5170   4.951   4.585   0.137  0.3792 -0.1037  0.7462
   13CHTO  H181 5171   4.946   4.546   0.239  2.9933 -1.9516  0.2134
   13CHTO   O61 5172   5.010   4.484   0.058  0.1269  0.1225 -0.1030
   13CHTO   C95 5173   5.141   4.435   0.106  0.8602  0.2048  0.4267
   13CHTO  H182 5174   5.121   4.388   0.202  0.7299 -0.6612 -0.0231
   13CHTO  C106 5175   5.172   4.326   0.002 -0.4533 -0.3196  0.0792
   13CHTO   O69 5176   5.277   4.236   0.039 -0.6812 -0.2919  0.3115
   13CHTO  H169 5177   5.310   4.180  -0.028  1.7050  0.2105  1.0225
   13CHTO   O63 5178   4.813   4.611   0.072  0.1204 -0.0745 -0.4747
   13CHTO   C96 5179   4.684   4.547   0.130 -0.0231 -0.4480 -0.3536
   13CHTO  H183 5180   4.691   4.563   0.238  0.4212 -0.5457 -0.3666
   13CHTO   C98 5181   4.672   4.388   0.114 -0.4435 -0.3145 -0.2286
   13CHTO  H185 5182   4.692   4.354   0.012 -1.6652  1.0206 -0.9335
   13CHTO   O67 5183   4.760   4.323   0.200 -0.4406 -0.3171 -0.3667
   13CHTO  H167 5184   4.763   4.230   0.191  0.3082 -0.3971  0.6847
   13CHTO  C102 5185   4.524   4.338   0.149 -0.0621  0.3853 -0.3301
   13CHTO  H189 5186   4.504   4.356   0.255 -2.3087 -1.2570 -0.4355
   13CHTO   N18 5187   4.489   4.197   0.116  0.2660 -0.5513 -0.1896
   13CHTO  H176 5188   4.444   4.132   0.189 -0.2157  1.9569  1.7808
   13CHTO  H177 5189   4.432   4.189   0.024  0.5026 -0.1378 -0.3707
   13CHTO  C105 5190   4.418   4.431   0.086  0.5079 -0.1386  0.5009
   13CHTO  H192 5191   4.422   4.430  -0.023  1.2832 -0.3152  0.5318
   13CHTO   O65 5192   4.433   4.561   0.132 -0.1184 -0.2415  0.3054
   13CHTO  C100 5193   4.550   4.623   0.080  0.2378 -0.1303  0.7137
   13CHTO  H187 5194   4.538   4.614  -0.029  0.6712  1.3984  0.5264
   13CHTO  C107 5195   4.548   4.770   0.118  0.1390 -0.4663 -0.3180
   13CHTO   O70 5196   4.521   4.798   0.258 -0.0843 -0.1607 -1.0270
   13CHTO  H170 5197   4.427   4.790   0.264 -0.1998  1.1845 -0.8848
   13CHTO   O57 5198   4.260   4.373   0.131 -0.0523 -0.5875  0.1909
   13CHTO   C85 5199   4.157   4.374   0.030  0.2284 -0.2732  0.1309
   13CHTO  H157 5200   4.197   4.308  -0.050  1.1513  0.6657 -0.2077
   13CHTO   C83 5201   4.143   4.519  -0.049  0.1948 -0.1211  0.0275
   13CHTO  H155 5202   4.236   4.538  -0.103 -0.8382 -2.2399 -2.5519
   13CHTO   O56 5203   4.122   4.619   0.052  0.3299 -0.2546 -0.0167
   13CHTO  H135 5204   4.124   4.707   0.019 -0.4359 -0.0470  0.4870
   13CHTO   C81 5205   4.028   4.518  -0.157  0.2981 -0.8885 -0.2896
   13CHTO  H153 5206   4.057   4.441  -0.229  1.5798 -0.0043 -0.7353
   13CHTO   N14 5207   4.020   4.647  -0.232 -0.3105  0.1289 -0.5019
   13CHTO  H141 5208   3.922   4.667  -0.269 -0.0860 -0.9550 -1.7524
   13CHTO  H142 5209   4.051   4.729  -0.170  1.7274  0.3411 -1.7342
   13CHTO   C79 5210   3.893   4.474  -0.081  0.4310  0.1282 -0.0934
   13CHTO  H151 5211   3.816   4.457  -0.156 -0.3378 -2.6709  1.2255
   13CHTO   O52 5212   3.904   4.341  -0.020  0.2149 -0.0540 -0.4864
   13CHTO   C86 5213   4.010   4.332   0.080 -0.2619  0.3524  0.0278
   13CHTO  H158 5214   3.976   4.405   0.156 -0.4730 -0.3149  0.5855
   13CHTO   C90 5215   4.024   4.199   0.162  0.2425  0.0524 -0.6817
   13CHTO   O60 5216   3.924   4.197   0.265 -0.0568  0.4227 -0.2103
   13CHTO  H138 5217   3.837   4.200   0.232 -0.4120 -0.7254  0.5602
   13CHTO   O50 5218   3.839   4.568   0.017 -0.3903  0.3697 -0.2841
   13CHTO   C73 5219   3.709   4.625   0.028  0.7751 -0.0149  0.6057
   13CHTO  H145 5220   3.647   4.596  -0.058 -1.3473 -0.5461  2.2622
   13CHTO   C74 5221   3.729   4.775   0.030 -0.0427  0.2062 -0.0237
   13CHTO  H146 5222   3.795   4.794  -0.056  3.8052  1.5615  3.0563
   13CHTO   O54 5223   3.602   4.842   0.016  0.4081 -0.1636  0.5487
   13CHTO  H133 5224   3.539   4.832   0.085  0.0060 -0.9000  0.0769
   13CHTO   C75 5225   3.795   4.821   0.153 -0.7396  0.2605  0.3971
   13CHTO  H147 5226   3.894   4.774   0.156 -0.4878  0.7856  0.5398
   13CHTO   N13 5227   3.828   4.967   0.156  0.0087  0.1308  0.0638
   13CHTO  H139 5228   3.893   4.986   0.240  2.3303 -0.4332 -1.5441
   13CHTO  H140 5229   3.876   4.995   0.064 -0.0305  1.4512  0.4377
   13CHTO   C76 5230   3.711   4.778   0.283 -0.1211 -0.2706 -0.0998
   13CHTO  H148 5231   3.618   4.832   0.261 -0.2121 -0.8161 -1.0465
   13CHTO   O49 5232   3.675   4.639   0.275 -0.7064  0.2658 -0.3126
   13CHTO   C77 5233   3.620   4.593   0.153  0.3342 -0.7322  0.4782
   13CHTO  H149 5234   3.527   4.649   0.144  0.8729  0.2018  0.6766
   13CHTO   C88 5235   3.578   4.443   0.171 -0.5186  0.1444  0.2928
   13CHTO   O58 5236   3.669   4.368   0.157  0.1716 -0.2131  0.2152
   13CHTO  H136 5237   3.671   4.290   0.209 -0.5833 -1.1357 -1.0755
   13CHTO   O51 5238   3.778   4.821   0.441  0.1204  0.1181 -0.3873
   13CHTO   C78 5239   3.927   4.761   0.485  0.5765 -0.3577  0.2375
   13CHTO  H150 5240   3.930   4.767   0.596 -0.5680  0.4682  0.2355
   13CHTO   C80 5241   4.052   4.834   0.421  0.4458 -0.6968  0.6304
   13CHTO  H152 5242   4.057   4.797   0.316 -0.5421  0.2313  0.2554
   13CHTO   O55 5243   4.026   4.974   0.447  0.5359 -0.2686 -0.1162
   13CHTO  H134 5244   4.027   4.996   0.538 -1.9563 -0.6202  0.0383
   13CHTO   C84 5245   4.168   4.787   0.510  0.4252 -0.0592 -0.5405
   13CHTO  H156 5246   4.137   4.801   0.613 -1.0620 -0.3717 -0.9437
   13CHTO   N15 5247   4.297   4.864   0.498 -0.1936 -0.3894  0.5376
   13CHTO  H143 5248   4.275   4.966   0.520  1.5108  0.3192 -0.8552
   13CHTO  H144 5249   4.325   4.854   0.395  1.0202  0.8063  0.7411
   13CHTO   C87 5250   4.191   4.637   0.483  0.0662 -0.0368 -0.9067
   13CHTO  H159 5251   4.240   4.619   0.387  2.7193  1.4694  0.1095
   13CHTO   O53 5252   4.061   4.551   0.485 -0.1513  0.6729 -0.0285
   13CHTO   C82 5253   3.935   4.613   0.443  0.0387  0.4825  0.9198
   13CHTO  H154 5254   3.920   4.610   0.335 -1.7451  0.0572  1.1618
   13CHTO   C89 5255   3.814   4.528   0.511 -0.0871  0.5714  0.3072
   13CHTO   O59 5256   3.816   4.393   0.471  0.4220 -0.6929 -0.1784
   13CHTO  H137 5257   3.825   4.340   0.548 -0.8377 -1.9996 -0.9120
   13CHTO   O45 5258   4.286   4.591   0.594 -0.2208  0.7331 -0.0698
   13CHTO   C67 5259   4.379   4.484   0.546  0.2821  0.0859  0.3732
   13CHTO  H124 5260   4.335   4.413   0.477 -1.2238 -0.7157  2.1228
   13CHTO   C65 5261   4.514   4.545   0.492 -0.8533  0.3189  1.0653
   13CHTO  H122 5262   4.488   4.618   0.415  0.2110  0.5130  0.8730
   13CHTO   O44 5263   4.595   4.435   0.433  0.0252  0.0858  0.1198
   13CHTO  H102 5264   4.650   4.457   0.360 -0.7404  0.0808 -0.4748
   13CHTO   C63 5265   4.586   4.633   0.604  0.4977  0.0276 -0.2297
   13CHTO  H120 5266   4.514   4.701   0.649 -0.1297  1.1668 -2.8728
   13CHTO   N11 5267   4.709   4.715   0.572  0.5833  0.5220 -0.7106
   13CHTO  H108 5268   4.682   4.805   0.522  1.4586  0.2979 -1.5815
   13CHTO  H109 5269   4.766   4.729   0.661  0.7154  0.5269 -0.7972
   13CHTO   C61 5270   4.620   4.540   0.728  0.0163  0.7176  0.6023
   13CHTO  H118 5271   4.652   4.608   0.809  0.7278 -0.4901  1.3450
   13CHTO   O40 5272   4.497   4.468   0.775 -0.8101  0.4558  0.4386
   13CHTO   C68 5273   4.415   4.403   0.677  0.1492  0.0636  0.6333
   13CHTO  H125 5274   4.317   4.395   0.726  0.8737 -0.8786  1.9545
   13CHTO   C72 5275   4.465   4.255   0.641 -0.6211  0.3939  0.2190
   13CHTO   O48 5276   4.380   4.154   0.579  0.4339 -0.0915 -0.3836
   13CHTO  H105 5277   4.425   4.098   0.519 -0.2149  1.7931 -2.6507
   13CHTO   O38 5278   4.725   4.447   0.688 -0.0198  0.3201 -0.5158
   13CHTO   C55 5279   4.833   4.396   0.768 -0.0075 -0.6358 -0.1909
   13CHTO  H112 5280   4.858   4.294   0.735  0.3896  0.3062 -2.9120
   13CHTO   C56 5281   4.802   4.408   0.926  0.1010 -0.6655  0.2636
   13CHTO  H113 5282   4.766   4.511   0.940 -1.4492 -0.9939 -1.1492
   13CHTO   O42 5283   4.694   4.313   0.960  0.3104 -0.0434 -0.0788
   13CHTO  H100 5284   4.612   4.321   0.916  0.9278  1.3509 -1.0244
   13CHTO   C57 5285   4.926   4.385   1.012 -0.2979  0.2604 -0.5302
   13CHTO  H114 5286   4.956   4.281   0.996 -4.3567 -1.2559  0.9414
   13CHTO   N10 5287   4.900   4.395   1.157  0.2319  0.1411  0.5995
   13CHTO  H106 5288   4.807   4.441   1.188 -1.2085 -1.6820 -0.8758
   13CHTO  H107 5289   4.921   4.310   1.220  1.1689 -0.9847 -1.1918
   13CHTO   C58 5290   5.036   4.483   0.962  0.0541 -0.1701  0.2658
   13CHTO  H115 5291   5.000   4.587   0.972 -0.2398 -0.2283 -0.1684
   13CHTO   O37 5292   5.063   4.461   0.822  0.2651 -0.2363 -0.3310
   13CHTO   C59 5293   4.951   4.489   0.741  0.6783 -0.4527 -0.2850
   13CHTO  H116 5294   4.933   4.597   0.745  1.6987 -0.3030  0.4775
   13CHTO   C70 5295   4.998   4.453   0.600 -0.1236 -0.3479 -0.2378
   13CHTO   O46 5296   5.057   4.563   0.529 -0.3616 -1.0767 -0.4700
   13CHTO  H103 5297   5.120   4.598   0.589 -1.1280 -0.2814 -0.1143
   13CHTO   O39 5298   5.191   4.458   1.044  0.4126  0.1325  0.0797
   13CHTO   C60 5299   5.288   4.558   1.009  0.2452 -0.5314 -0.1318
   13CHTO  H117 5300   5.321   4.568   0.906  3.1390 -0.6215  0.7335
   13CHTO   C62 5301   5.233   4.694   1.047 -0.0089  0.3395  0.4014
   13CHTO  H119 5302   5.160   4.717   0.967  1.1760 -1.3596 -1.2256
   13CHTO   O43 5303   5.160   4.681   1.163 -0.1176  0.2774 -0.2229
   13CHTO  H101 5304   5.074   4.711   1.142  0.4748  0.0148 -3.1770
   13CHTO   C66 5305   5.344   4.805   1.041 -0.0247  0.0214  0.7381
   13CHTO  H123 5306   5.388   4.807   0.941  1.2891  0.2660  1.3080
   13CHTO   N12 5307   5.304   4.944   1.066  0.1834  0.2042  0.6951
   13CHTO  H110 5308   5.371   4.991   1.137  0.2563  0.7763  0.2532
   13CHTO  H111 5309   5.203   4.938   1.103  0.5494  2.5079  2.2009
   13CHTO   C69 5310   5.463   4.755   1.131  0.3010  0.2939 -0.2831
   13CHTO  H126 5311   5.432   4.764   1.237  0.9692 -0.4454 -0.0208
   13CHTO   O41 5312   5.503   4.610   1.084 -0.7360  0.0614  0.9592
   13CHTO   C64 5313   5.409   4.518   1.093 -0.4349 -0.5751 -0.1946
   13CHTO  H121 5314   5.367   4.494   1.193 -3.6559 -1.5779 -1.7184
   13CHTO   C71 5315   5.476   4.397   1.031  0.9728  0.6157 -0.4482
   13CHTO   O47 5316   5.441   4.272   1.092  0.4557 -0.1929  0.6553
   13CHTO  H104 5317   5.485   4.279   1.174  0.3048  2.3819  0.5549
   13CHTO   O34 5318   5.588   4.835   1.114  0.4184  0.4111 -0.5878
   13CHTO   C49 5319   5.743   4.898   1.103 -0.3235 -0.8467 -0.0179
   13CHTO   H91 5320   5.803   4.839   1.033  0.0137 -0.4614 -0.0612
   13CHTO   C47 5321   5.823   4.896   1.237  0.2766 -0.5745  0.4544
   13CHTO   H89 5322   5.927   4.927   1.217 -0.0466 -1.5223 -3.0869
   13CHTO   O33 5323   5.826   4.761   1.290  0.9179  0.1132  0.5668
   13CHTO   H70 5324   5.887   4.703   1.249 -1.3546 -3.3651  1.9388
   13CHTO   C45 5325   5.752   5.003   1.339  0.3253  1.0442 -0.8511
   13CHTO   H87 5326   5.651   4.967   1.362  1.3785 -0.9493  0.8105
   13CHTO    N8 5327   5.822   5.012   1.469  0.2511  0.4686  0.9537
   13CHTO   H75 5328   5.785   5.062   1.557 -0.4980  0.7328  0.4943
   13CHTO   H76 5329   5.880   4.927   1.501 -1.6741 -1.3052 -0.1105
   13CHTO   C43 5330   5.726   5.152   1.271 -0.0792 -1.1908  0.8071
   13CHTO   H85 5331   5.653   5.209   1.328 -1.4249 -1.5641 -0.5069
   13CHTO   O29 5332   5.682   5.133   1.134 -0.0541 -0.0887 -0.4536
   13CHTO   C50 5333   5.752   5.040   1.049  0.5803 -0.3388 -0.3906
   13CHTO   H92 5334   5.700   5.043   0.952 -1.2347  0.7906  0.5939
   13CHTO   C54 5335   5.890   5.099   1.007  0.9348  0.2387 -0.1141
   13CHTO   O36 5336   5.892   5.213   0.913 -0.1196  0.3442 -0.2756
   13CHTO   H72 5337   5.982   5.239   0.911 -0.1171  0.5243  1.4341
   13CHTO   O27 5338   5.837   5.246   1.277  0.1542  0.0122  0.0560
   13CHTO   C37 5339   5.885   5.380   1.287 -0.1562  0.0170 -0.0857
   13CHTO   H79 5340   5.842   5.428   1.376 -2.9957 -0.2601 -1.2847
   13CHTO   C38 5341   6.037   5.363   1.287  0.6128  0.6950  0.5077
   13CHTO   H80 5342   6.050   5.293   1.203  0.3383  0.2300  0.8498
   13CHTO   O31 5343   6.089   5.310   1.410 -0.2366  0.1678 -0.0137
   13CHTO   H68 5344   6.066   5.371   1.478  1.5173  0.2641  0.4977
   13CHTO   C39 5345   6.115   5.500   1.271  0.1720  0.4834  0.3287
   13CHTO   H81 5346   6.078   5.555   1.357 -0.8796 -0.4771  0.5069
   13CHTO    N7 5347   6.269   5.489   1.277  0.1268 -0.8298  0.0187
   13CHTO   H73 5348   6.306   5.590   1.276 -2.8036  0.3163  0.4378
   13CHTO   H74 5349   6.298   5.432   1.364  2.5862  1.5911  0.8685
   13CHTO   C40 5350   6.065   5.572   1.138 -0.4442 -0.0905  0.0278
   13CHTO   H82 5351   6.087   5.504   1.055 -1.3713 -1.0961  0.5986
   13CHTO   O26 5352   5.923   5.594   1.154  0.1652  0.6595 -0.2302
   13CHTO   C41 5353   5.839   5.466   1.159  0.4878 -0.5773  0.3964
   13CHTO   H83 5354   5.852   5.431   1.056  0.8170  0.2606  0.1449
   13CHTO   C52 5355   5.686   5.515   1.170 -0.4801 -0.1498  0.1282
   13CHTO   O35 5356   5.631   5.592   1.032 -0.0369  0.7372 -0.1094
   13CHTO   H71 5357   5.632   5.533   0.960  1.8837  0.9050 -0.2333
   13CHTO   O28 5358   6.119   5.705   1.129  0.1393  0.8219 -0.2793
   13CHTO   C42 5359   6.111   5.810   1.036 -0.3369 -0.3105 -0.5626
   13CHTO   H84 5360   6.198   5.793   0.972  1.5492  0.3671  1.7459
   13CHTO   C44 5361   6.141   5.942   1.108  0.1210 -0.3309  0.1104
   13CHTO   H86 5362   6.068   5.952   1.188 -0.7893 -1.2661 -0.5921
   13CHTO   O32 5363   6.272   5.933   1.155  0.4072 -0.2507  0.3123
   13CHTO   H69 5364   6.272   5.992   1.228 -1.5545  1.6368 -1.1481
   13CHTO   C48 5365   6.129   6.067   1.003 -0.9531  0.6333 -0.0708
   13CHTO   H90 5366   6.209   6.060   0.929 -1.5959 -0.2004 -0.6969
   13CHTO    N9 5367   6.166   6.195   1.076 -0.1794 -0.1785  0.1579
   13CHTO   H77 5368   6.274   6.200   1.080 -0.0144 -2.4546 -0.8824
   13CHTO   H78 5369   6.121   6.278   1.023  1.4798  0.7792  0.2235
   13CHTO   C51 5370   5.992   6.059   0.928 -0.4259 -0.0388  0.4633
   13CHTO   H93 5371   5.910   6.078   0.997 -1.2162  2.0339 -1.0018
   13CHTO   O30 5372   5.976   5.931   0.864 -0.2286 -0.2521 -0.2832
   13CHTO   C46 5373   5.977   5.821   0.949  0.0059 -0.6799  0.0399
   13CHTO   H88 5374   5.892   5.825   1.018  0.4829  2.1002  0.5209
   13CHTO   C53 5375   5.961   5.703   0.855 -0.1098 -0.1444 -0.4220
   13CHTO   O72 5376   5.835   5.715   0.792  0.4339  0.4245  0.0945
   13CHTO  H199 5377   5.805   5.630   0.764  0.5825  0.8231 -1.3415
   13CHTO   O22 5378   5.995   6.151   0.815 -0.4734 -0.1887  0.2697
   13CHTO   C31 5379   5.888   6.225   0.751  0.4249 -0.5254  0.3122
   13CHTO   H59 5380   5.938   6.287   0.674  0.4776 -0.4407  0.4159
   13CHTO   C29 5381   5.786   6.132   0.684 -0.7409  0.2904  0.0877
   13CHTO   H57 5382   5.752   6.058   0.758 -0.8161  1.5233  1.2834
   13CHTO   O21 5383   5.857   6.052   0.586 -0.3233 -0.2687  0.2315
   13CHTO   H37 5384   5.875   6.097   0.506  0.6317  1.2680  1.2769
   13CHTO   C27 5385   5.655   6.204   0.625 -1.0149  0.2788 -0.9260
   13CHTO   H55 5386   5.688   6.263   0.539  2.3162 -1.3530 -0.8335
   13CHTO    N5 5387   5.540   6.122   0.584  0.6684 -0.2323 -0.9696
   13CHTO   H43 5388   5.543   6.020   0.619 -1.8050  0.8786  2.7988
   13CHTO   H44 5389   5.443   6.162   0.609  1.4588  2.0456 -1.4262
   13CHTO   C25 5390   5.609   6.314   0.724 -0.5566 -0.1695  0.2580
   13CHTO   H53 5391   5.576   6.258   0.812 -0.2271 -0.4706  0.1900
   13CHTO   O17 5392   5.724   6.405   0.762  0.1649  0.0016  0.1659
   13CHTO   C32 5393   5.818   6.330   0.837  1.2335  0.5853  0.5968
   13CHTO   H60 5394   5.772   6.285   0.925 -0.5339 -1.3289 -1.2603
   13CHTO   C36 5395   5.921   6.429   0.881  0.1016  0.0942 -0.0027
   13CHTO   O25 5396   5.886   6.488   1.005 -0.5462  0.1164  0.9867
   13CHTO   H40 5397   5.815   6.548   0.996  0.8424  1.5326 -0.8605
   13CHTO   O15 5398   5.492   6.409   0.656 -0.0971 -0.1022 -0.4564
   13CHTO   C19 5399   5.351   6.467   0.664 -1.1820  0.6223 -0.4258
   13CHTO   H47 5400   5.342   6.485   0.772 -1.4559  0.2353 -0.3839
   13CHTO   C20 5401   5.336   6.605   0.591 -0.1027  0.9776  0.1549
   13CHTO   H48 5402   5.339   6.594   0.481 -1.6362  2.5344 -0.0588
   13CHTO   O19 5403   5.442   6.694   0.636 -0.2280  0.1258  0.4041
   13CHTO   H35 5404   5.528   6.661   0.620  0.7430  2.0642  1.4270
   13CHTO   C21 5405   5.196   6.663   0.623 -0.0744  0.8139  0.4503
   13CHTO   H49 5406   5.195   6.677   0.731 -1.0398 -2.7508  0.9617
   13CHTO    N4 5407   5.168   6.791   0.550  0.0353 -0.1310  0.3792
   13CHTO   H41 5408   5.240   6.862   0.588  0.7032 -0.2463 -0.6618
   13CHTO   H42 5409   5.067   6.827   0.562 -0.3231 -1.5195  1.6727
   13CHTO   C22 5410   5.085   6.564   0.582 -0.0775 -0.3906  0.1433
   13CHTO   H50 5411   5.090   6.535   0.477  1.9200 -0.4749  0.2475
   13CHTO   O14 5412   5.110   6.437   0.648 -0.6767  0.8493 -0.0549
   13CHTO   C23 5413   5.234   6.369   0.625 -0.3581  0.2953 -0.1536
   13CHTO   H51 5414   5.229   6.347   0.517 -1.2099  0.8925 -0.2387
   13CHTO   C34 5415   5.235   6.246   0.716 -0.0009 -0.3284 -0.3775
   13CHTO   O23 5416   5.127   6.155   0.694  0.7008 -0.4922 -0.0500
   13CHTO   H38 5417   5.137   6.113   0.611 -2.8252  0.0745 -0.8160
   13CHTO   O16 5418   4.956   6.611   0.630 -0.5507  0.6232  0.0288
   13CHTO   C24 5419   4.852   6.642   0.507  0.3627 -0.3344  0.0253
   13CHTO   H52 5420   4.899   6.655   0.410 -1.6924 -0.9427 -1.0751
   13CHTO   C26 5421   4.774   6.774   0.538  0.2907  0.3462 -0.1686
   13CHTO   H54 5422   4.726   6.760   0.638  0.7637  0.6312  0.1030
   13CHTO   O20 5423   4.865   6.885   0.547 -0.0267  0.1354  0.0577
   13CHTO   H36 5424   4.918   6.881   0.623 -0.6660  1.1193  0.5641
   13CHTO   C30 5425   4.657   6.801   0.438 -0.3977 -0.0160 -0.0108
   13CHTO   H58 5426   4.704   6.825   0.341  0.6833  0.8463  0.7106
   13CHTO    N6 5427   4.571   6.910   0.475 -0.5235 -0.2037 -0.0444
   13CHTO   H45 5428   4.542   6.963   0.386  2.2859  1.6505  0.0966
   13CHTO   H46 5429   4.481   6.880   0.528 -1.2778  0.7036 -0.7804
   13CHTO   C33 5430   4.573   6.671   0.422 -0.0085 -0.3437  0.4215
   13CHTO   H61 5431   4.522   6.652   0.517 -0.1947  0.1240  0.4170
   13CHTO   O18 5432   4.661   6.572   0.384 -0.3115  0.5735  0.5444
   13CHTO   C28 5433   4.744   6.535   0.488  0.0718 -0.4539  0.0737
   13CHTO   H56 5434   4.676   6.523   0.572 -2.6410  4.1835 -1.3034
   13CHTO   C35 5435   4.809   6.399   0.455 -0.3966 -0.3565 -0.3128
   13CHTO   O24 5436   4.710   6.292   0.464 -0.4037  0.4836  0.0196
   13CHTO   H39 5437   4.714   6.233   0.537  1.8245  1.3892  0.6603
   13CHTO    O9 5438   4.473   6.683   0.321  0.6100 -0.4438 -0.5519
   13CHTO   C13 5439   4.334   6.616   0.354  0.6657  0.0940  0.3624
   13CHTO   H26 5440   4.302   6.659   0.451  1.4591  0.4855  0.4510
   13CHTO   C11 5441   4.358   6.455   0.366 -0.2463  0.1841 -0.1021
   13CHTO   H24 5442   4.397   6.438   0.467 -0.6898  0.3234  0.0940
   13CHTO    O8 5443   4.442   6.399   0.266  0.4123 -0.2069  0.3526
   13CHTO    H3 5444   4.497   6.334   0.306  0.7694 -1.9548 -2.8834
   13CHTO    C9 5445   4.217   6.396   0.359 -0.6442 -0.3910 -0.4043
   13CHTO   H22 5446   4.157   6.458   0.427  3.3306  3.9988 -0.6834
   13CHTO    N2 5447   4.210   6.259   0.416  0.1959  0.1070  0.5516
   13CHTO   H10 5448   4.159   6.262   0.511  0.9326  1.0108  0.9241
   13CHTO   H11 5449   4.308   6.215   0.418  0.0812 -0.1886 -0.0405
   13CHTO    C7 5450   4.157   6.407   0.218  0.3930 -0.3880 -0.5318
   13CHTO   H20 5451   4.050   6.422   0.245  0.6672 -0.1782  0.4511
   13CHTO    O4 5452   4.203   6.531   0.159  0.2545 -0.1536  0.4457
   13CHTO   C14 5453   4.228   6.650   0.239 -0.1279  0.1433  0.3734
   13CHTO   H27 5454   4.135   6.692   0.282 -0.3361  1.6171 -1.4307
   13CHTO   C18 5455   4.268   6.748   0.132  0.0057  0.0685  0.0508
   13CHTO   O13 5456   4.313   6.880   0.184  0.0265  0.6434 -0.5076
   13CHTO    H7 5457   4.338   6.886   0.275 -0.4302  1.3639 -0.4187
   13CHTO    O2 5458   4.177   6.281   0.112  0.0281 -0.6107 -0.0721
   13CHTO    C1 5459   4.044   6.253   0.062 -0.1201  0.3246 -0.6718
   13CHTO   H14 5460   3.973   6.337   0.069 -1.5079 -0.8671 -0.2304
   13CHTO    C2 5461   3.975   6.126   0.128  0.0047 -0.5632 -0.0580
   13CHTO   H15 5462   4.053   6.050   0.115  1.0184  0.4637 -0.1564
   13CHTO    O6 5463   3.945   6.159   0.271 -0.0386 -0.4487  0.1231
   13CHTO    H1 5464   4.022   6.181   0.320 -0.7750 -2.7070  2.4061
   13CHTO    C3 5465   3.847   6.080   0.046 -0.2061 -0.1796 -0.3368
   13CHTO   H16 5466   3.771   6.158   0.038 -0.2659 -0.1958  0.0647
   13CHTO    N1 5467   3.789   5.964   0.120 -0.2109 -0.5270 -0.5198
   13CHTO    H8 5468   3.704   5.922   0.069 -1.9380 -1.2099  2.7807
   13CHTO    H9 5469   3.860   5.885   0.139 -0.6041 -0.7158  0.1926
   13CHTO    C4 5470   3.887   6.056  -0.100  0.1862 -0.2144 -0.7904
   13CHTO   H17 5471   3.961   5.977  -0.110  0.6059 -0.1459  1.4445
   13CHTO    O1 5472   3.943   6.179  -0.156  0.1941 -0.3568 -0.1911
   13CHTO    C5 5473   4.065   6.216  -0.091  0.2541  0.1610  0.3251
   13CHTO   H18 5474   4.133   6.131  -0.099 -1.3666 -0.9675 -2.3494
   13CHTO   C16 5475   4.126   6.345  -0.170  0.4145 -0.2893 -0.1136
   13CHTO   O11 5476   4.152   6.322  -0.308 -0.1500 -0.1041 -0.6948
   13CHTO    H5 5477   4.242   6.346  -0.318  0.1549 -0.1189  1.5899
   13CHTO    O3 5478   3.762   6.034  -0.162  0.3071 -0.1147 -0.3519
   13CHTO    C6 5479   3.741   6.070  -0.302 -0.2523 -0.1344 -0.7517
   13CHTO   H19 5480   3.791   6.164  -0.323 -1.8035  1.2759  1.6731
   13CHTO    C8 5481   3.792   5.959  -0.396 -0.7430 -0.1739 -0.3443
   13CHTO   H21 5482   3.750   5.863  -0.365 -0.4557 -0.8225 -1.9301
   13CHTO    O7 5483   3.936   5.953  -0.390 -0.6378 -0.1068  0.4023
   13CHTO    H2 5484   3.966   6.016  -0.327  2.3118  0.3375 -1.3518
   13CHTO   C12 5485   3.748   5.981  -0.544  0.0564 -0.4039  0.3021
   13CHTO   H25 5486   3.812   6.061  -0.587 -0.9395  1.2017  1.7212
   13CHTO    N3 5487   3.772   5.858  -0.625  0.2559  0.4962  0.1362
   13CHTO   H12 5488   3.697   5.780  -0.626  0.6506  0.1198 -0.4038
   13CHTO   H13 5489   3.866   5.814  -0.597  0.1942 -1.8963 -3.1481
   13CHTO   C15 5490   3.599   6.031  -0.560  0.0950  1.1327  0.1848
   13CHTO   H28 5491   3.533   5.947  -0.540 -2.5887  2.8097 -1.3005
   13CHTO   O10 5492   3.565   6.111  -0.710  0.2791  0.3207 -0.0781
   13CHTO    H4 5493   3.531   6.050  -0.773 -0.8170  0.8647 -0.0049
   13CHTO    O5 5494   3.566   6.135  -0.467 -0.5986 -0.0633  0.5184
   13CHTO   C10 5495   3.590   6.095  -0.329  0.3591  0.6108 -0.1162
   13CHTO   H23 5496   3.528   6.005  -0.323 -0.7746  1.0130 -4.1154
   13CHTO   C17 5497   3.528   6.196  -0.230  0.5434 -0.6048 -0.5366
   13CHTO   O12 5498   3.389   6.238  -0.258 -0.0170  0.2742  0.3785
   13CHTO    H6 5499   3.373   6.301  -0.325 -1.0707 -0.4583 -0.0762
   14CHTO  H203 5500   5.893   4.407   0.509 -2.0071 -1.3072  4.0285
   14CHTO   O82 5501   5.819   4.463   0.498 -0.0508  0.7248  0.2339
   14CHTO  C123 5502   5.715   4.419   0.589  0.5378 -0.2591  0.0280
   14CHTO  H227 5503   5.712   4.486   0.676  0.6822 -1.9692  1.3983
   14CHTO   O77 5504   5.598   4.449   0.519  0.8497  0.2562  0.1009
   14CHTO  C118 5505   5.479   4.430   0.591 -0.2294 -0.4666  0.2684
   14CHTO  H222 5506   5.486   4.494   0.680 -0.2670  2.7495 -1.9246
   14CHTO  C125 5507   5.362   4.488   0.501 -0.3017  0.1989 -0.0935
   14CHTO   O84 5508   5.353   4.633   0.490 -0.3333 -0.1137 -0.2957
   14CHTO  H205 5509   5.271   4.656   0.452 -0.6696  0.6228  0.8460
   14CHTO  C114 5510   5.465   4.282   0.634  0.3773  0.2264  0.3655
   14CHTO  H218 5511   5.470   4.218   0.546  2.4555  0.1461  0.5147
   14CHTO  C116 5512   5.586   4.225   0.715  0.0634  0.0669  0.0540
   14CHTO  H220 5513   5.592   4.268   0.817 -2.1411  1.0641 -0.1936
   14CHTO   O79 5514   5.576   4.080   0.724  0.4204  0.3384 -0.1886
   14CHTO  H201 5515   5.649   4.040   0.768  0.4535 -0.8953 -1.3371
   14CHTO  C120 5516   5.708   4.269   0.623 -0.1934  0.5226  0.1427
   14CHTO  H224 5517   5.705   4.218   0.525 -0.3689 -0.5913  0.7189
   14CHTO   N21 5518   5.825   4.222   0.704  0.0397 -0.5833  0.4591
   14CHTO  H211 5519   5.802   4.209   0.809 -1.8602 -1.1924 -0.0153
   14CHTO  H212 5520   5.868   4.130   0.669 -0.5387 -1.1692  1.2672
   14CHTO   O75 5521   5.342   4.271   0.702  0.1005 -0.6015  0.1434
   14CHTO  C112 5522   5.255   4.128   0.664 -0.5353  0.1686 -0.1091
   14CHTO  H216 5523   5.325   4.047   0.691  0.1565  0.9461  0.4709
   14CHTO   O73 5524   5.218   4.124   0.524  0.3662  0.7574  0.2748
   14CHTO  C113 5525   5.153   4.014   0.473 -0.1593  0.4517  0.3058
   14CHTO  H217 5526   5.204   3.920   0.503  1.0867  1.1490  0.4066
   14CHTO  C124 5527   5.171   4.030   0.324  0.2932  0.2045  0.3273
   14CHTO   O83 5528   5.126   3.915   0.259  0.0500 -0.2900 -0.2809
   14CHTO  H204 5529   5.193   3.850   0.260  0.6999  0.3928  0.5005
   14CHTO  C109 5530   5.014   4.014   0.530 -1.0256 -0.1112  0.7747
   14CHTO  H213 5531   4.965   4.107   0.499  0.8029  1.1585  1.5903
   14CHTO  C110 5532   5.020   4.016   0.685 -0.6117  0.2827  0.4167
   14CHTO  H214 5533   5.060   3.919   0.717  0.5269  0.7053  0.2781
   14CHTO   O78 5534   4.889   4.019   0.737  0.2667 -0.4806 -0.3722
   14CHTO  H200 5535   4.852   3.935   0.756 -1.4695  0.2207 -0.5084
   14CHTO  C111 5536   5.122   4.124   0.742 -0.0749  0.3697  1.0045
   14CHTO  H215 5537   5.068   4.219   0.732  1.1427  0.8493 -1.1894
   14CHTO   N19 5538   5.152   4.111   0.887  0.0529 -0.1331 -0.6784
   14CHTO  H207 5539   5.116   4.022   0.937 -0.4949 -0.3686 -1.4832
   14CHTO  H208 5540   5.122   4.201   0.938  1.0255 -0.4674  0.5011
   14CHTO   O74 5541   4.945   3.901   0.480  0.3414  0.2496 -0.0925
   14CHTO  C115 5542   4.798   3.948   0.406 -0.1037 -0.3891 -0.4220
   14CHTO  H219 5543   4.749   4.029   0.461  1.7151  0.0063  0.6467
   14CHTO   O76 5544   4.818   4.012   0.250 -0.6762 -0.5018  0.1727
   14CHTO  C122 5545   4.825   3.912   0.150  0.3075  0.1030 -0.2340
   14CHTO  H226 5546   4.901   3.838   0.176 -0.5735 -0.5361  0.5590
   14CHTO  C126 5547   4.852   3.966  -0.005  0.1770 -0.2141 -0.2910
   14CHTO   O85 5548   4.993   3.958  -0.025  0.0521 -0.7369  0.1801
   14CHTO  H206 5549   5.032   4.034   0.013 -0.8911  2.0408 -4.0020
   14CHTO  C121 5550   4.690   3.818   0.151 -0.2739  0.1584  0.2504
   14CHTO  H225 5551   4.630   3.855   0.066  1.7396  0.3289 -1.1377
   14CHTO   O81 5552   4.724   3.683   0.125 -0.4466 -0.6182 -0.6026
   14CHTO  H202 5553   4.670   3.654   0.055  1.6685 -0.5509 -2.3020
   14CHTO  C119 5554   4.609   3.837   0.280  0.2168 -0.4856 -0.4609
   14CHTO  H223 5555   4.570   3.939   0.288 -1.6663 -1.2284  0.0576
   14CHTO  C117 5556   4.708   3.820   0.399  0.0066 -1.3987 -0.2899
   14CHTO  H221 5557   4.779   3.737   0.395  0.2182 -1.2016 -0.6675
   14CHTO   N20 5558   4.639   3.809   0.531  0.5650  0.0989 -0.6989
   14CHTO  H209 5559   4.605   3.707   0.535  0.0647  0.2632 -0.6998
   14CHTO  H210 5560   4.572   3.894   0.532 -1.2938 -1.3128 -1.4897
   14CHTO   O80 5561   4.475   3.745   0.282 -0.1946  0.3418  0.1492
   14CHTO  C103 5562   4.383   3.739   0.151  0.2354 -0.1691 -0.1839
   14CHTO  H190 5563   4.401   3.818   0.077  1.1646  0.5405  0.7834
   14CHTO  C101 5564   4.361   3.602   0.083 -0.2205 -0.1339  0.3689
   14CHTO  H188 5565   4.341   3.524   0.156 -0.8805  0.4699  0.8456
   14CHTO   O68 5566   4.479   3.571   0.010 -0.6414 -0.1946  0.0987
   14CHTO  H168 5567   4.466   3.493  -0.040 -0.9638  0.1363 -0.3387
   14CHTO   C99 5568   4.243   3.612  -0.023  0.4737  0.3483 -0.3640
   14CHTO  H186 5569   4.264   3.700  -0.087 -1.8454  0.8302 -0.5163
   14CHTO   N17 5570   4.220   3.483  -0.102 -0.1519  0.0841  0.1254
   14CHTO  H174 5571   4.308   3.457  -0.160 -0.1686 -2.2643  1.0661
   14CHTO  H175 5572   4.127   3.474  -0.155 -0.8299 -0.8523  1.4367
   14CHTO   C97 5573   4.112   3.648   0.052  0.8133  0.3550  0.8005
   14CHTO  H184 5574   4.085   3.561   0.114 -0.1777  0.0734 -0.0068
   14CHTO   O64 5575   4.128   3.769   0.133 -0.4701 -0.8583 -0.3661
   14CHTO  C104 5576   4.243   3.774   0.221 -0.2424  0.2550 -0.0558
   14CHTO  H191 5577   4.229   3.706   0.306  1.4494 -0.9118 -0.6882
   14CHTO  C108 5578   4.242   3.914   0.278 -1.1103  0.2656 -0.3713
   14CHTO   O71 5579   4.307   3.933   0.404 -0.4551  0.9075 -0.6156
   14CHTO  H171 5580   4.269   3.983   0.473 -1.7434  0.1980 -0.7841
   14CHTO   O62 5581   4.002   3.675  -0.036 -0.1328  0.0426  0.2164
   14CHTO   C91 5582   3.862   3.662   0.002 -0.1395 -0.6995 -0.0615
   14CHTO  H178 5583   3.852   3.587   0.080  0.0544 -1.7257 -1.0072
   14CHTO   C92 5584   3.786   3.599  -0.124  0.5040 -0.3406  0.3962
   14CHTO  H179 5585   3.834   3.509  -0.164 -0.1447  0.8043 -3.1499
   14CHTO   O66 5586   3.651   3.564  -0.082  0.4465  0.2493  0.1546
   14CHTO  H166 5587   3.653   3.503  -0.011 -0.4981 -1.2174 -1.0487
   14CHTO   C93 5588   3.774   3.709  -0.241 -0.4568  0.6872 -0.9633
   14CHTO  H180 5589   3.689   3.686  -0.307  2.6193 -3.0758 -3.8762
   14CHTO   N16 5590   3.894   3.727  -0.332  0.5662  0.4502  0.9218
   14CHTO  H172 5591   3.982   3.682  -0.287  1.1573  2.1581  1.5161
   14CHTO  H173 5592   3.874   3.685  -0.429  0.1377  1.6561  0.4892
   14CHTO   C94 5593   3.748   3.852  -0.171 -0.4886 -0.1145  0.2699
   14CHTO  H181 5594   3.842   3.906  -0.161 -0.3187 -0.5333  0.9537
   14CHTO   O61 5595   3.684   3.837  -0.044  0.2329 -0.1719  0.9208
   14CHTO   C95 5596   3.786   3.793   0.055 -0.7827  0.0345 -0.0878
   14CHTO  H182 5597   3.861   3.871   0.060  0.4378 -1.1372  0.0840
   14CHTO  C106 5598   3.719   3.762   0.194  0.0889 -0.2673 -0.0521
   14CHTO   O69 5599   3.664   3.889   0.246 -0.0467  0.5938  0.0281
   14CHTO  H169 5600   3.637   3.949   0.180  1.0037 -0.2865 -1.2346
   14CHTO   O63 5601   3.635   3.928  -0.269  0.1450 -0.3207 -0.3913
   14CHTO   C96 5602   3.636   4.084  -0.241  0.3738 -0.4190 -0.4857
   14CHTO  H183 5603   3.684   4.111  -0.148  0.7627 -3.5998  0.2971
   14CHTO   C98 5604   3.490   4.138  -0.229 -0.2624  0.1198 -0.5035
   14CHTO  H185 5605   3.424   4.106  -0.310 -0.3599  0.4538 -0.5578
   14CHTO   O67 5606   3.435   4.061  -0.122 -0.1538 -0.2898 -0.1474
   14CHTO  H167 5607   3.364   4.106  -0.081 -0.0986 -0.5232  0.2082
   14CHTO  C102 5608   3.479   4.298  -0.202 -0.7394 -0.2040 -0.2224
   14CHTO  H189 5609   3.538   4.323  -0.113  0.9293 -0.1583 -1.3189
   14CHTO   N18 5610   3.344   4.346  -0.173  0.4176 -0.5378  0.5953
   14CHTO  H176 5611   3.292   4.290  -0.096 -1.4250  0.7988  0.3437
   14CHTO  H177 5612   3.335   4.451  -0.151 -0.8624 -1.0097  2.4264
   14CHTO  C105 5613   3.554   4.357  -0.324 -0.8705 -0.2261  0.0596
   14CHTO  H192 5614   3.506   4.321  -0.415  2.1720 -3.5194 -0.3548
   14CHTO   O65 5615   3.688   4.311  -0.334 -0.2806  0.0270 -0.0627
   14CHTO  C100 5616   3.707   4.166  -0.356 -0.2295 -0.4274 -0.2735
   14CHTO  H187 5617   3.661   4.137  -0.451 -1.2059 -1.2222  0.4264
   14CHTO  C107 5618   3.863   4.136  -0.359 -0.2645 -0.0873  0.1279
   14CHTO   O70 5619   3.915   4.148  -0.228 -0.7733 -0.9696 -0.7351
   14CHTO  H170 5620   3.967   4.224  -0.210  1.0054 -1.6426 -2.7582
   14CHTO   O57 5621   3.561   4.517  -0.306 -0.2877  0.1585 -0.1181
   14CHTO   C85 5622   3.518   4.599  -0.421 -0.0680 -0.0860  1.0871
   14CHTO  H157 5623   3.443   4.538  -0.475  0.7578 -0.6229  0.5463
   14CHTO   C83 5624   3.639   4.616  -0.517 -0.4075  0.3335  0.2816
   14CHTO  H155 5625   3.657   4.517  -0.560 -1.6417  1.3470 -2.7155
   14CHTO   O56 5626   3.748   4.673  -0.440  0.0408 -0.5586 -0.4489
   14CHTO  H135 5627   3.816   4.700  -0.498  1.2223 -0.5838  0.9001
   14CHTO   C81 5628   3.603   4.711  -0.638 -0.4497  0.4215  0.1310
   14CHTO  H153 5629   3.527   4.663  -0.700  0.7005 -0.9061 -0.2663
   14CHTO   N14 5630   3.722   4.724  -0.730 -0.0295 -0.0794  0.0843
   14CHTO  H141 5631   3.801   4.767  -0.673 -0.8025  2.3755 -0.6423
   14CHTO  H142 5632   3.704   4.794  -0.808 -0.5957  0.1073  0.3803
   14CHTO   C79 5633   3.553   4.853  -0.594 -0.0317  0.4127  0.0316
   14CHTO  H151 5634   3.512   4.899  -0.684  0.4031 -1.2225 -1.0246
   14CHTO   O52 5635   3.442   4.832  -0.509  0.5040  0.4512  0.3868
   14CHTO   C86 5636   3.463   4.746  -0.391 -0.3806  0.1795  0.0733
   14CHTO  H158 5637   3.528   4.804  -0.322  0.9965 -2.6107  1.1902
   14CHTO   C90 5638   3.326   4.736  -0.318  0.4293 -0.2901 -0.6347
   14CHTO   O60 5639   3.280   4.854  -0.252 -0.2950  0.0548 -0.1239
   14CHTO  H138 5640   3.214   4.822  -0.194  0.8270  0.4643  1.4012
   14CHTO   O50 5641   3.651   4.940  -0.529 -0.4352 -0.2879  0.0681
   14CHTO   C73 5642   3.645   5.073  -0.463 -0.1119  0.4112  0.3491
   14CHTO  H145 5643   3.561   5.079  -0.393 -0.0368 -0.7679  0.5415
   14CHTO   C74 5644   3.627   5.201  -0.564  0.7496 -0.2421  0.3734
   14CHTO  H146 5645   3.539   5.173  -0.625  0.3365  1.2716  0.2575
   14CHTO   O54 5646   3.591   5.319  -0.489 -0.2370  0.0426  0.1236
   14CHTO  H133 5647   3.508   5.306  -0.449 -0.3606  0.9450  0.1857
   14CHTO   C75 5648   3.754   5.217  -0.648  0.4364  0.0584  0.0999
   14CHTO  H147 5649   3.774   5.120  -0.696 -0.3869 -1.4256  2.6997
   14CHTO   N13 5650   3.745   5.317  -0.752  0.1110 -0.6072 -0.3620
   14CHTO  H139 5651   3.810   5.402  -0.741  0.0174 -0.5802 -0.0306
   14CHTO  H140 5652   3.645   5.354  -0.771 -0.8899 -1.7324  2.4410
   14CHTO   C76 5653   3.879   5.238  -0.549 -0.7014 -0.0875  0.2967
   14CHTO  H148 5654   3.845   5.320  -0.486 -2.2214 -1.1211  0.8633
   14CHTO   O49 5655   3.887   5.124  -0.461  0.9574 -0.5143  0.2191
   14CHTO   C77 5656   3.772   5.097  -0.378  1.0161  0.6760 -1.2485
   14CHTO  H149 5657   3.755   5.175  -0.303 -0.4430 -0.8223  0.0043
   14CHTO   C88 5658   3.815   4.974  -0.298  0.0475  0.9601 -0.3810
   14CHTO   O58 5659   3.940   4.999  -0.205 -0.2295  0.8435  0.9435
   14CHTO  H136 5660   3.935   4.956  -0.122  0.6034 -2.3476 -0.5878
   14CHTO   O51 5661   4.023   5.269  -0.629 -0.8822  0.0935  0.4072
   14CHTO   C78 5662   4.133   5.336  -0.555  0.1934  0.4187 -0.6544
   14CHTO  H150 5663   4.091   5.362  -0.456 -1.5433 -1.0993 -0.9471
   14CHTO   C80 5664   4.177   5.458  -0.631 -0.4864 -0.3407  0.0432
   14CHTO  H152 5665   4.210   5.429  -0.733  0.2784 -0.4835  0.3268
   14CHTO   O55 5666   4.057   5.540  -0.641  0.2013  0.5858 -0.5278
   14CHTO  H134 5667   4.015   5.527  -0.724  0.5055 -4.1014 -0.0930
   14CHTO   C84 5668   4.298   5.531  -0.563  0.5270 -0.4144 -0.2779
   14CHTO  H156 5669   4.264   5.563  -0.465  0.6505 -2.0258  0.3010
   14CHTO   N15 5670   4.348   5.650  -0.640 -0.4383 -0.4481  0.1203
   14CHTO  H143 5671   4.384   5.619  -0.736  0.2277  1.8254 -0.3908
   14CHTO  H144 5672   4.432   5.694  -0.590 -0.8518 -0.6529  1.0089
   14CHTO   C87 5673   4.415   5.427  -0.538  0.6361 -0.8211 -0.2155
   14CHTO  H159 5674   4.446   5.383  -0.633 -0.8259 -0.8024 -0.7265
   14CHTO   O53 5675   4.353   5.310  -0.462  0.1473  0.2933 -0.0324
   14CHTO   C82 5676   4.257   5.244  -0.551  0.2995 -0.4201 -0.1926
   14CHTO  H154 5677   4.295   5.229  -0.651  0.0442  3.1660 -0.9230
   14CHTO   C89 5678   4.219   5.111  -0.488 -0.4335 -0.0517  0.2741
   14CHTO   O59 5679   4.321   5.013  -0.490  0.1977  0.4342 -0.4391
   14CHTO  H137 5680   4.374   5.015  -0.567  2.2397 -1.2565  0.8617
   14CHTO   O45 5681   4.535   5.491  -0.442  0.2763 -0.3418  0.3163
   14CHTO   C67 5682   4.665   5.437  -0.459 -0.7466  0.3209  0.4879
   14CHTO  H124 5683   4.733   5.491  -0.393 -0.1977  0.2285  0.0039
   14CHTO   C65 5684   4.677   5.282  -0.420 -0.6123  0.2528  0.0135
   14CHTO  H122 5685   4.578   5.262  -0.379 -0.0267  0.5484  1.6039
   14CHTO   O44 5686   4.784   5.273  -0.315  0.6625 -0.0346 -0.3905
   14CHTO  H102 5687   4.869   5.284  -0.354  1.4100  2.8425  1.8992
   14CHTO   C63 5688   4.686   5.197  -0.555 -0.7243 -0.3904  0.5778
   14CHTO  H120 5689   4.594   5.211  -0.612 -0.8811  0.4479  1.0458
   14CHTO   N11 5690   4.689   5.045  -0.536 -0.2632  0.5163  0.1043
   14CHTO  H108 5691   4.597   5.006  -0.498  1.1444 -1.1943  1.7833
   14CHTO  H109 5692   4.773   5.015  -0.478  0.4374  1.6464 -0.3038
   14CHTO   C61 5693   4.811   5.241  -0.636 -0.1202 -0.2978  0.5903
   14CHTO  H118 5694   4.809   5.201  -0.739 -1.8391  1.2128 -0.0003
   14CHTO   O40 5695   4.827   5.384  -0.653  0.2852 -0.3396 -0.4719
   14CHTO   C68 5696   4.720   5.472  -0.604 -0.6866 -0.1105  0.2520
   14CHTO  H125 5697   4.643   5.466  -0.684  2.5042  0.6873 -2.9585
   14CHTO   C72 5698   4.782   5.617  -0.614  0.0767  0.5629 -0.0906
   14CHTO   O48 5699   4.687   5.718  -0.634  0.3942 -0.0641 -0.3666
   14CHTO  H105 5700   4.649   5.715  -0.719  1.3860  0.2188 -0.8175
   14CHTO   O38 5701   4.932   5.205  -0.558 -0.2346 -0.1440 -0.5932
   14CHTO   C55 5702   5.053   5.195  -0.634  0.0819  0.2860  0.2349
   14CHTO  H112 5703   5.053   5.271  -0.714  0.8584  1.1997  1.0887
   14CHTO   C56 5704   5.079   5.048  -0.692  0.0905 -0.4176  0.3998
   14CHTO  H113 5705   5.063   4.976  -0.610  0.8552 -1.4579 -0.3589
   14CHTO   O42 5706   4.970   5.022  -0.787 -0.2486 -0.3163  0.1902
   14CHTO  H100 5707   4.983   4.937  -0.825  1.0199 -0.6484  1.3112
   14CHTO   C57 5708   5.219   5.026  -0.757  0.1609  0.0517  0.8734
   14CHTO  H114 5709   5.214   5.093  -0.842 -0.6403 -0.5356  0.4442
   14CHTO   N10 5710   5.254   4.889  -0.806 -0.2317  0.2623  0.3874
   14CHTO  H106 5711   5.165   4.830  -0.822  0.2371 -0.4549  0.3949
   14CHTO  H107 5712   5.307   4.896  -0.899  1.3156  1.5992  1.3404
   14CHTO   C58 5713   5.328   5.076  -0.656  1.0685 -0.1349  0.0202
   14CHTO  H115 5714   5.334   5.013  -0.565  0.4227 -0.7452 -0.3620
   14CHTO   O37 5715   5.301   5.215  -0.617 -0.3471  0.0976  0.1204
   14CHTO   C59 5716   5.177   5.238  -0.547 -0.8237  1.3045 -0.1928
   14CHTO  H116 5717   5.178   5.191  -0.448 -2.4012  1.7752  0.0543
   14CHTO   C70 5718   5.168   5.389  -0.514 -0.1624  0.0181 -0.2432
   14CHTO   O46 5719   5.041   5.432  -0.460  0.5630  0.9097 -0.2476
   14CHTO  H103 5720   5.020   5.516  -0.494 -0.2694  0.8831  0.2015
   14CHTO   O39 5721   5.481   5.081  -0.734 -0.4568 -0.2399  0.2261
   14CHTO   C60 5722   5.590   5.051  -0.640  0.8512  0.6461 -0.4190
   14CHTO  H117 5723   5.572   5.089  -0.539 -1.0674  3.4141 -1.7330
   14CHTO   C62 5724   5.590   4.893  -0.619  0.1520 -0.1777  0.4178
   14CHTO  H119 5725   5.497   4.854  -0.572 -1.4077 -0.7766 -3.0657
   14CHTO   O43 5726   5.598   4.838  -0.750 -0.5096 -0.7118  0.4788
   14CHTO  H101 5727   5.583   4.746  -0.753  0.2463 -0.8079 -0.4085
   14CHTO   C66 5728   5.723   4.848  -0.532  0.2920 -0.0176 -0.5513
   14CHTO  H123 5729   5.711   4.881  -0.428 -1.3507 -1.2951 -0.3222
   14CHTO   N12 5730   5.714   4.701  -0.510 -0.0881 -0.2660  0.0611
   14CHTO  H110 5731   5.792   4.654  -0.452  0.0825  0.2242  0.2243
   14CHTO  H111 5732   5.691   4.646  -0.600  0.6740  0.3163 -0.5014
   14CHTO   C69 5733   5.843   4.904  -0.609 -0.2585 -0.3186 -0.0305
   14CHTO  H126 5734   5.859   4.857  -0.708 -1.2260 -0.5235 -0.0923
   14CHTO   O41 5735   5.830   5.064  -0.620 -0.6246  0.3041  0.2900
   14CHTO   C64 5736   5.724   5.106  -0.690  0.4408 -0.3360  1.1351
   14CHTO  H121 5737   5.726   5.070  -0.795 -1.0769 -0.0065  0.9764
   14CHTO   C71 5738   5.712   5.256  -0.692 -0.8275 -0.3608 -0.6405
   14CHTO   O47 5739   5.835   5.313  -0.748  0.1897  0.1200  0.0483
   14CHTO  H104 5740   5.896   5.344  -0.684  1.5463  0.0827 -1.1908
   14CHTO   O34 5741   5.976   4.872  -0.541 -0.7025  0.1587  0.0346
   14CHTO   C49 5742   6.125   4.903  -0.577  0.3746 -0.1207 -0.3981
   14CHTO   H91 5743   6.146   4.879  -0.681 -0.4277  0.1400 -0.6296
   14CHTO   C47 5744   6.209   4.819  -0.479 -0.2863  0.7449 -0.4524
   14CHTO   H89 5745   6.314   4.820  -0.514  0.0570 -1.1210  0.4978
   14CHTO   O33 5746   6.175   4.682  -0.473 -0.2457  0.4699 -0.0743
   14CHTO   H70 5747   6.082   4.675  -0.468 -0.3798 -0.9275 -3.1935
   14CHTO   C45 5748   6.191   4.874  -0.321 -0.6119  0.8420 -0.6638
   14CHTO   H87 5749   6.123   4.810  -0.263  1.4722  1.0203  2.1178
   14CHTO    N8 5750   6.320   4.868  -0.245 -0.5882  0.8310  0.7198
   14CHTO   H75 5751   6.390   4.893  -0.323 -1.2290 -2.6117 -1.0983
   14CHTO   H76 5752   6.334   4.766  -0.211 -0.0266  0.4687 -0.5733
   14CHTO   C43 5753   6.120   5.020  -0.324 -0.0443 -0.5838  0.6456
   14CHTO   H85 5754   6.016   5.005  -0.350 -0.1476  0.5468  0.4168
   14CHTO   O29 5755   6.188   5.100  -0.423  0.6032 -0.3421  0.0615
   14CHTO   C50 5756   6.154   5.060  -0.555  1.0434 -0.0752 -0.0939
   14CHTO   H92 5757   6.056   5.109  -0.571 -0.8596 -3.7102 -0.2075
   14CHTO   C54 5758   6.253   5.118  -0.656  0.1980 -0.0437  0.4035
   14CHTO   O36 5759   6.279   5.259  -0.643  0.3760  0.0339  0.0681
   14CHTO   H72 5760   6.360   5.294  -0.672 -0.4107  0.6737 -1.3990
   14CHTO   O27 5761   6.099   5.097  -0.206  0.3228 -0.5054 -0.5391
   14CHTO   C37 5762   5.986   5.160  -0.145  0.5083 -0.6174 -0.1186
   14CHTO   H79 5763   6.016   5.206  -0.050  1.1809 -1.6207  0.1625
   14CHTO   C38 5764   5.930   5.264  -0.249 -0.2430 -0.2716  0.1953
   14CHTO   H80 5765   5.941   5.223  -0.351  0.0513  1.0812 -0.3341
   14CHTO   O31 5766   6.014   5.376  -0.226  0.4790 -0.2687 -0.5446
   14CHTO   H68 5767   6.096   5.364  -0.271  0.4538 -0.8581 -0.4260
   14CHTO   C39 5768   5.782   5.303  -0.225 -0.0402  0.1137 -0.2873
   14CHTO   H81 5769   5.774   5.355  -0.129 -0.7165  0.4528 -0.5211
   14CHTO    N7 5770   5.725   5.403  -0.322  0.3508 -0.5206 -0.6837
   14CHTO   H73 5771   5.621   5.411  -0.295  0.1686 -0.2539 -1.4478
   14CHTO   H74 5772   5.724   5.356  -0.419 -1.2464 -0.7004 -0.5934
   14CHTO   C40 5773   5.693   5.179  -0.199  0.3831  0.2084 -0.1511
   14CHTO   H82 5774   5.685   5.114  -0.286 -1.5452 -1.2342  1.0720
   14CHTO   O26 5775   5.748   5.111  -0.083  0.1128 -0.2444 -0.2815
   14CHTO   C41 5776   5.879   5.046  -0.113  0.0247  0.1169  0.7549
   14CHTO   H83 5777   5.867   4.981  -0.200  0.8357  2.7897 -1.4201
   14CHTO   C52 5778   5.930   4.953   0.004 -0.4300 -0.2893  0.1806
   14CHTO   O35 5779   5.964   5.002   0.113 -0.2266 -0.9277  0.4664
   14CHTO   H71 5780   6.057   5.015   0.118 -0.3276  0.9348 -1.6898
   14CHTO   O28 5781   5.558   5.214  -0.167 -0.4723 -0.4699  0.3088
   14CHTO   C42 5782   5.457   5.114  -0.140  0.2805 -0.2046 -0.5009
   14CHTO   H84 5783   5.515   5.035  -0.093 -0.2487 -1.6207 -2.1535
   14CHTO   C44 5784   5.379   5.033  -0.255  0.7100  0.6182 -0.4463
   14CHTO   H86 5785   5.338   5.109  -0.320  0.8420  2.3436  1.4334
   14CHTO   O32 5786   5.486   4.957  -0.322  0.3434 -0.0429  0.1752
   14CHTO   H69 5787   5.536   4.896  -0.272  2.0890  0.8862 -0.3999
   14CHTO   C48 5788   5.264   4.939  -0.202  0.2368 -0.1678 -0.3370
   14CHTO   H90 5789   5.301   4.857  -0.140 -2.8843 -0.7645  0.8614
   14CHTO    N9 5790   5.191   4.874  -0.317 -0.9829 -0.0910  0.0807
   14CHTO   H77 5791   5.175   4.767  -0.311  1.9593 -0.6208 -0.8290
   14CHTO   H78 5792   5.096   4.920  -0.336 -1.2676 -1.1815 -1.2780
   14CHTO   C51 5793   5.174   5.037  -0.121 -0.0174 -0.0678 -0.8196
   14CHTO   H93 5794   5.149   5.120  -0.188 -2.4478 -0.6108 -0.6321
   14CHTO   O30 5795   5.259   5.077  -0.009  0.0091  0.3892  1.0461
   14CHTO   C46 5796   5.357   5.171  -0.038  0.3192 -0.0524 -0.2463
   14CHTO   H88 5797   5.308   5.260  -0.079 -3.0221 -2.0932 -0.8991
   14CHTO   C53 5798   5.429   5.211   0.089  0.2554  0.1481 -0.5196
   14CHTO   O72 5799   5.328   5.285   0.160  0.5531 -0.5300 -0.0452
   14CHTO  H199 5800   5.334   5.251   0.247 -2.4341 -1.5921 -0.1809
   14CHTO   O22 5801   5.054   4.988  -0.061  1.1365 -0.0076  0.2225
   14CHTO   C31 5802   4.928   5.050  -0.093 -0.0005 -0.1110  0.2347
   14CHTO   H59 5803   4.948   5.112  -0.182  0.4496 -0.5230  0.0450
   14CHTO   C29 5804   4.823   4.943  -0.137 -0.3464 -0.4439 -0.3930
   14CHTO   H57 5805   4.821   4.869  -0.056 -0.5320  1.3924  1.3175
   14CHTO   O21 5806   4.870   4.875  -0.256 -0.4397 -0.0922 -0.4309
   14CHTO   H37 5807   4.836   4.788  -0.265 -1.2308  0.0787  0.8544
   14CHTO   C27 5808   4.677   5.005  -0.152  0.7427  0.2862 -0.0640
   14CHTO   H55 5809   4.681   5.075  -0.237 -0.1683 -0.1354 -0.4590
   14CHTO    N5 5810   4.564   4.910  -0.180 -0.9766 -0.2480  0.3318
   14CHTO   H43 5811   4.595   4.813  -0.215 -2.6571 -0.2296 -1.3251
   14CHTO   H44 5812   4.515   4.902  -0.084 -0.8276 -0.8605  0.3599
   14CHTO   C25 5813   4.640   5.115  -0.038  1.1673 -0.3433 -0.1374
   14CHTO   H53 5814   4.621   5.074   0.063  0.7716  1.7229  0.6554
   14CHTO   O17 5815   4.750   5.211  -0.024 -0.5481 -0.3725  0.1535
   14CHTO   C32 5816   4.878   5.151   0.016  0.6430  0.1131 -0.2997
   14CHTO   H60 5817   4.852   5.095   0.106 -1.9368 -0.2746 -1.2403
   14CHTO   C36 5818   4.980   5.264   0.045 -1.2778 -0.0727 -0.0297
   14CHTO   O25 5819   4.987   5.360  -0.068 -0.1442 -0.6335  0.6316
   14CHTO   H40 5820   5.004   5.449  -0.043  1.5266 -0.8458  0.2724
   14CHTO   O15 5821   4.510   5.191  -0.055 -0.2110 -0.4690  0.1622
   14CHTO   C19 5822   4.433   5.308  -0.112  0.4210 -0.5546 -0.3040
   14CHTO   H47 5823   4.465   5.311  -0.217  0.4665 -1.1968 -0.3122
   14CHTO   C20 5824   4.277   5.292  -0.104  0.0516 -0.3446  0.1841
   14CHTO   H48 5825   4.242   5.277  -0.001 -3.0900  2.0458 -0.4432
   14CHTO   O19 5826   4.237   5.171  -0.174  0.0545 -0.3767  0.2329
   14CHTO   H35 5827   4.149   5.182  -0.206  0.3779 -2.4471 -1.5426
   14CHTO   C21 5828   4.203   5.431  -0.153 -0.6652  0.5616 -0.9730
   14CHTO   H49 5829   4.205   5.441  -0.261  0.9923  0.8071 -0.9220
   14CHTO    N4 5830   4.053   5.417  -0.128 -0.8747  0.0619  0.4010
   14CHTO   H41 5831   4.021   5.321  -0.091  1.1950 -0.3254  1.2164
   14CHTO   H42 5832   3.991   5.439  -0.214  1.1941  1.1022 -0.8484
   14CHTO   C22 5833   4.266   5.553  -0.089 -0.5012 -0.3385 -0.2343
   14CHTO   H50 5834   4.251   5.563   0.018 -1.0266 -0.4242 -0.2980
   14CHTO   O14 5835   4.406   5.543  -0.121  0.2991 -0.4014  0.4736
   14CHTO   C23 5836   4.467   5.443  -0.046  0.3064 -0.3170  0.7181
   14CHTO   H51 5837   4.428   5.449   0.057  0.4746 -0.3167  0.7815
   14CHTO   C34 5838   4.620   5.466  -0.026 -0.2883 -0.4631 -0.5723
   14CHTO   O23 5839   4.644   5.581   0.055 -0.4361 -0.2282 -0.5584
   14CHTO   H38 5840   4.564   5.610   0.095 -0.7370 -0.0311 -1.2979
   14CHTO   O16 5841   4.216   5.675  -0.143 -0.3275 -0.1135 -0.0477
   14CHTO   C24 5842   4.328   5.797  -0.123 -0.4881  0.1555 -0.6503
   14CHTO   H52 5843   4.427   5.771  -0.160 -0.9121  0.4187 -2.0012
   14CHTO   C26 5844   4.342   5.839   0.024  0.4761 -0.6605 -0.0417
   14CHTO   H54 5845   4.241   5.868   0.060 -0.0274 -2.9783  0.5069
   14CHTO   O20 5846   4.383   5.729   0.110  0.3615 -0.1324 -0.1767
   14CHTO   H36 5847   4.401   5.764   0.195 -1.5037  1.4837 -0.4098
   14CHTO   C30 5848   4.435   5.960   0.040  0.9902  0.2355 -0.2964
   14CHTO   H58 5849   4.538   5.935   0.008  0.7738 -0.2202 -0.6383
   14CHTO    N6 5850   4.437   6.003   0.176  0.6474 -0.7442 -0.0539
   14CHTO   H45 5851   4.521   5.965   0.231  0.2765 -0.6914  0.5634
   14CHTO   H46 5852   4.452   6.110   0.171  2.0046 -0.9546 -0.6382
   14CHTO   C33 5853   4.394   6.078  -0.059  0.0349  0.1175 -0.8610
   14CHTO   H61 5854   4.304   6.126  -0.018  1.5225  0.7847  1.7450
   14CHTO   O18 5855   4.370   6.037  -0.191 -0.7162 -0.5470 -0.3005
   14CHTO   C28 5856   4.283   5.924  -0.207 -0.0473  0.1043 -0.0074
   14CHTO   H56 5857   4.183   5.948  -0.171 -0.3446  0.8697 -1.3154
   14CHTO   C35 5858   4.276   5.889  -0.358  0.1766 -0.5484  0.3881
   14CHTO   O24 5859   4.169   5.791  -0.378 -0.2177 -0.2467 -0.0307
   14CHTO   H39 5860   4.208   5.707  -0.361  0.1477 -0.2311 -0.7783
   14CHTO    O9 5861   4.500   6.181  -0.058  0.4078  0.1731 -0.5739
   14CHTO   C13 5862   4.649   6.146  -0.093  0.1940  0.1192  0.2658
   14CHTO   H26 5863   4.647   6.043  -0.134 -0.8746 -1.0913  3.2356
   14CHTO   C11 5864   4.749   6.153   0.038 -0.1141  0.2740 -1.2748
   14CHTO   H24 5865   4.756   6.049   0.073  0.3229  0.5086 -0.6748
   14CHTO    O8 5866   4.694   6.242   0.146 -0.5976 -0.8871  0.5723
   14CHTO    H3 5867   4.764   6.272   0.201  1.9915 -1.0893 -2.4363
   14CHTO    C9 5868   4.889   6.201  -0.010  0.0914  0.5151  0.1274
   14CHTO   H22 5869   4.910   6.145  -0.102 -0.6834  0.6524 -0.1302
   14CHTO    N2 5870   5.003   6.168   0.081 -0.0792  0.6937 -0.1365
   14CHTO   H10 5871   5.101   6.189   0.041  0.2508  0.1661  0.3948
   14CHTO   H11 5872   4.996   6.063   0.104 -1.4946  1.0059  0.9188
   14CHTO    C7 5873   4.881   6.351  -0.062  0.2259 -0.7290  0.1939
   14CHTO   H20 5874   4.967   6.359  -0.132 -1.5639 -1.0336 -2.0677
   14CHTO    O4 5875   4.756   6.365  -0.138 -0.5350 -0.2309  0.0424
   14CHTO   C14 5876   4.704   6.247  -0.209 -0.1909  0.2634 -0.4730
   14CHTO   H27 5877   4.785   6.195  -0.263  0.0980  0.0501  0.1612
   14CHTO   C18 5878   4.603   6.296  -0.314  0.6720  0.3310  0.2134
   14CHTO   O13 5879   4.560   6.181  -0.381  0.0324 -0.0856  0.7746
   14CHTO    H7 5880   4.480   6.154  -0.339 -0.1404 -0.8595 -0.0428
   14CHTO    O2 5881   4.886   6.472   0.063  0.3454  0.0899 -0.6354
   14CHTO    C1 5882   4.928   6.609   0.029  0.2443 -0.1523  0.2619
   14CHTO   H14 5883   4.901   6.623  -0.077 -1.8597 -1.7332  0.5543
   14CHTO    C2 5884   5.078   6.647   0.046  0.3872 -1.3963  0.1154
   14CHTO   H15 5885   5.102   6.622   0.150 -3.8446  0.2029  1.5909
   14CHTO    O6 5886   5.144   6.572  -0.055 -0.7703  0.6634  0.4665
   14CHTO    H1 5887   5.228   6.610  -0.071  0.2429 -1.6564  0.0799
   14CHTO    C3 5888   5.088   6.809   0.030  0.2482 -0.1328  0.0647
   14CHTO   H16 5889   5.066   6.834  -0.075  1.8280 -1.0557 -0.5090
   14CHTO    N1 5890   5.235   6.847   0.043 -0.7170 -0.2979  0.0495
   14CHTO    H8 5891   5.284   6.817   0.134  0.0437  1.1925  0.1415
   14CHTO    H9 5892   5.294   6.827  -0.045 -0.3756 -0.3334  0.2830
   14CHTO    C4 5893   4.986   6.892   0.120 -0.0732  0.2731  0.0039
   14CHTO   H17 5894   5.005   6.867   0.225 -0.5259  2.0661  0.5430
   14CHTO    O1 5895   4.856   6.837   0.082  0.1162 -0.1803 -0.1587
   14CHTO    C5 5896   4.828   6.699   0.100 -0.0270 -0.1669 -0.1967
   14CHTO   H18 5897   4.829   6.670   0.205  0.5290  1.0805  0.1499
   14CHTO   C16 5898   4.679   6.692   0.053 -0.6339  0.3226 -0.5925
   14CHTO   O11 5899   4.634   6.561   0.072  0.1257  0.5724  0.3103
   14CHTO    H5 5900   4.659   6.525   0.155  1.2416  0.1400 -0.2027
   14CHTO    O3 5901   4.984   7.039   0.100 -0.4683  1.3223  0.3668
   14CHTO    C6 5902   4.926   7.092   0.231  0.2077  0.0580 -0.0290
   14CHTO   H19 5903   4.882   7.012   0.290  0.4021  1.3137  1.8392
   14CHTO    C8 5904   5.028   7.173   0.313  0.4970  0.0448  0.2987
   14CHTO   H21 5905   5.062   7.257   0.252 -0.0792 -1.0404 -1.5612
   14CHTO    O7 5906   5.141   7.087   0.337  0.1395 -0.0401  0.4223
   14CHTO    H2 5907   5.147   7.075   0.430  2.7460 -0.3182  0.2500
   14CHTO   C12 5908   4.957   7.222   0.447 -0.3921 -0.1797  0.6174
   14CHTO   H25 5909   4.926   7.133   0.506 -1.2086 -0.6398 -0.5025
   14CHTO    N3 5910   5.044   7.298   0.545 -0.7580 -0.2518 -0.0135
   14CHTO   H12 5911   5.131   7.238   0.568  0.0529  1.3794  1.2469
   14CHTO   H13 5912   4.982   7.311   0.632 -0.8904  1.8683 -0.4007
   14CHTO   C15 5913   4.824   7.302   0.411  0.1838 -0.2482  0.7849
   14CHTO   H28 5914   4.843   7.403   0.373 -1.2319 -0.6947 -1.2156
   14CHTO   O10 5915   4.716   7.321   0.539 -0.0420 -0.0914  0.0648
   14CHTO    H4 5916   4.680   7.238   0.565 -0.3254 -0.2788 -0.9142
   14CHTO    O5 5917   4.746   7.230   0.318 -0.1023 -0.5491 -0.1618
   14CHTO   C10 5918   4.812   7.190   0.202  0.9465 -0.2759  1.0274
   14CHTO   H23 5919   4.863   7.276   0.160 -0.7265  1.6514  2.8057
   14CHTO   C17 5920   4.695   7.133   0.120  0.3354  0.0989 -0.3841
   14CHTO   O12 5921   4.717   7.143  -0.018 -0.0544  0.0113 -0.2272
   14CHTO    H6 5922   4.724   7.055  -0.051  0.3075  0.8163 -2.4027
   15CHTO  H203 5923   5.673   4.142   2.514  0.5953 -0.1389 -0.3597
   15CHTO   O82 5924   5.720   4.193   2.450  0.3923 -0.0839 -0.4639
   15CHTO  C123 5925   5.652   4.197   2.322  0.1405  0.0688 -0.5193
   15CHTO  H227 5926   5.714   4.255   2.252 -0.5707  0.0580 -1.1598
   15CHTO   O77 5927   5.655   4.062   2.285  0.1741 -0.0750  0.0862
   15CHTO  C118 5928   5.583   4.035   2.161 -0.2156 -0.1798 -0.2817
   15CHTO  H222 5929   5.619   4.094   2.075 -0.7814  0.3943 -0.1267
   15CHTO  C125 5930   5.587   3.879   2.134 -0.4354 -0.3214 -0.0470
   15CHTO   O84 5931   5.721   3.855   2.105  0.3062  1.2284  0.2649
   15CHTO  H205 5932   5.733   3.822   2.018 -0.3377 -1.0579  0.9965
   15CHTO  C114 5933   5.435   4.076   2.184  0.3670  0.0667  0.7935
   15CHTO  H218 5934   5.399   4.019   2.270 -0.0560 -0.8088  0.0489
   15CHTO  C116 5935   5.419   4.225   2.208  0.6378 -0.1792  0.6239
   15CHTO  H220 5936   5.463   4.278   2.121  0.8106 -2.7958 -0.9100
   15CHTO   O79 5937   5.281   4.257   2.213  0.0178  0.3714 -0.4059
   15CHTO  H201 5938   5.242   4.249   2.297  0.3791  1.4274 -0.1309
   15CHTO  C120 5939   5.506   4.272   2.329 -0.1442 -0.2447 -0.2701
   15CHTO  H224 5940   5.447   4.227   2.412 -1.6447  0.6385 -0.8392
   15CHTO   N21 5941   5.516   4.423   2.345 -0.0956 -0.1088 -0.6892
   15CHTO  H211 5942   5.421   4.455   2.383  0.7011  3.3763 -1.4534
   15CHTO  H212 5943   5.596   4.444   2.414 -0.8667 -0.9035  0.4648
   15CHTO   O75 5944   5.360   4.026   2.070 -0.1574 -0.1757 -0.0099
   15CHTO  C112 5945   5.217   3.957   2.110 -0.1310  0.4745  0.4559
   15CHTO  H216 5946   5.164   4.023   2.181 -0.8364  0.7813 -0.3480
   15CHTO   O73 5947   5.248   3.829   2.166 -0.2108  0.6230 -1.1335
   15CHTO  C113 5948   5.142   3.744   2.199  0.0731  0.3834 -0.7456
   15CHTO  H217 5949   5.085   3.783   2.286 -0.9272 -2.8490  0.1467
   15CHTO  C124 5950   5.207   3.625   2.265 -0.6643  0.2014  0.1573
   15CHTO   O83 5951   5.277   3.528   2.182 -0.5509 -0.2412 -0.4840
   15CHTO  H204 5952   5.290   3.447   2.228 -0.3612 -0.0232 -0.1517
   15CHTO  C109 5953   5.044   3.717   2.079  0.1570 -0.1774 -0.4844
   15CHTO  H213 5954   5.105   3.667   2.002 -0.9774  1.4966 -2.5226
   15CHTO  C110 5955   5.006   3.855   2.012 -0.8056  0.6820  0.4555
   15CHTO  H214 5956   4.935   3.909   2.076 -0.8064  1.5781 -0.2860
   15CHTO   O78 5957   4.929   3.825   1.891 -0.1775 -0.2312 -0.1817
   15CHTO  H200 5958   4.896   3.899   1.843  0.5146  1.0899  1.3216
   15CHTO  C111 5959   5.126   3.943   1.981 -0.4021  0.6301  0.5113
   15CHTO  H215 5960   5.183   3.895   1.901 -2.4545  0.0962 -0.6719
   15CHTO   N19 5961   5.087   4.080   1.928  0.2684  0.1464  0.1116
   15CHTO  H207 5962   4.989   4.072   1.883  0.7885 -1.5061 -0.7505
   15CHTO  H208 5963   5.065   4.136   2.018  1.1415 -1.5367  1.3943
   15CHTO   O74 5964   4.932   3.631   2.121 -0.1310  0.3082  0.7936
   15CHTO  C115 5965   4.938   3.471   2.085  0.7115 -0.0761  0.1580
   15CHTO  H219 5966   5.035   3.427   2.108  0.1310 -1.6894 -0.3822
   15CHTO   O76 5967   4.837   3.396   2.173 -1.0364  0.2820 -0.1605
   15CHTO  C122 5968   4.698   3.421   2.139 -0.5373  0.9184  0.0433
   15CHTO  H226 5969   4.698   3.530   2.138  2.8256  1.0100  2.7716
   15CHTO  C126 5970   4.599   3.376   2.252  0.5848 -0.2952 -0.1494
   15CHTO   O85 5971   4.623   3.452   2.379 -0.0175  0.3848 -0.5409
   15CHTO  H206 5972   4.680   3.414   2.443 -0.9639  1.7847  1.1674
   15CHTO  C121 5973   4.658   3.357   2.003  0.1506 -0.6621  0.2106
   15CHTO  H225 5974   4.609   3.261   2.027 -0.1714 -0.7486 -0.7723
   15CHTO   O81 5975   4.568   3.447   1.936  0.0314 -0.2195 -0.1801
   15CHTO  H202 5976   4.599   3.479   1.854  1.8701 -1.4509  0.0075
   15CHTO  C119 5977   4.788   3.332   1.921 -0.2579 -0.4541  0.4491
   15CHTO  H223 5978   4.829   3.240   1.963  2.0962  0.1761 -0.3473
   15CHTO  C117 5979   4.902   3.448   1.935 -0.1831 -0.3263 -0.1434
   15CHTO  H221 5980   4.873   3.547   1.899 -0.1181  0.3984  1.7203
   15CHTO   N20 5981   5.030   3.409   1.859 -0.6769  0.1286  0.0268
   15CHTO  H209 5982   5.084   3.331   1.911 -0.1916  1.1080  1.0155
   15CHTO  H210 5983   5.110   3.482   1.863 -0.6377  0.1198 -0.5732
   15CHTO   O80 5984   4.747   3.284   1.766 -0.5284 -0.2350 -0.4630
   15CHTO  C103 5985   4.708   3.141   1.739  0.8603  0.6121 -0.4557
   15CHTO  H190 5986   4.663   3.102   1.830  0.0409  0.2171 -1.0248
   15CHTO  C101 5987   4.605   3.132   1.619 -0.7923  0.1485 -0.2733
   15CHTO  H188 5988   4.648   3.203   1.548 -0.5404  0.7322  0.4513
   15CHTO   O68 5989   4.474   3.180   1.667 -0.0190 -0.3038 -0.3101
   15CHTO  H168 5990   4.428   3.118   1.720 -1.2505  0.9235  0.0914
   15CHTO   C99 5991   4.589   2.987   1.562  0.1092 -0.1288  0.0271
   15CHTO  H186 5992   4.530   2.925   1.633  1.6038 -2.9812 -1.1257
   15CHTO   N17 5993   4.506   2.978   1.439  1.2020 -0.6851  0.5089
   15CHTO  H174 5994   4.492   2.876   1.406  0.2050 -0.2375 -0.4909
   15CHTO  H175 5995   4.531   3.045   1.358  3.1352 -1.0415  0.7901
   15CHTO   C97 5996   4.731   2.923   1.549 -0.4220  0.7076 -0.5866
   15CHTO  H184 5997   4.786   2.988   1.480  0.6873 -0.1907 -0.5512
   15CHTO   O64 5998   4.795   2.915   1.669 -0.2880  0.4436 -0.6319
   15CHTO  C104 5999   4.840   3.047   1.713 -0.0304  0.4393 -0.1660
   15CHTO  H191 6000   4.910   3.091   1.642  1.6769  0.1528  1.3103
   15CHTO  C108 6001   4.926   3.019   1.836  0.6994  0.3467 -0.9267
   15CHTO   O71 6002   4.857   2.959   1.953 -0.6514 -0.1120  0.3144
   15CHTO  H171 6003   4.778   2.916   1.925 -1.4137  2.8015 -2.4119
   15CHTO   O62 6004   4.729   2.782   1.531  0.2215 -0.3572  0.1114
   15CHTO   C91 6005   4.772   2.746   1.402  0.7342 -0.3676 -0.3442
   15CHTO  H178 6006   4.729   2.824   1.339 -2.3268 -1.7058  0.0111
   15CHTO   C92 6007   4.696   2.613   1.372 -0.4730  1.0050 -0.0957
   15CHTO  H179 6008   4.595   2.618   1.415  0.0417 -1.4502  1.4562
   15CHTO   O66 6009   4.682   2.602   1.231  0.2432  0.1479 -0.0998
   15CHTO  H166 6010   4.734   2.531   1.199  2.4319  1.1109  1.1961
   15CHTO   C93 6011   4.777   2.486   1.432  0.4645 -0.7905 -0.2633
   15CHTO  H180 6012   4.721   2.406   1.381 -2.8513  0.3253  1.4277
   15CHTO   N16 6013   4.768   2.480   1.582  0.3534  0.3307  0.6177
   15CHTO  H172 6014   4.855   2.530   1.623 -0.3899 -0.3373  3.1123
   15CHTO  H173 6015   4.765   2.375   1.609  1.9834  0.0738 -0.1236
   15CHTO   C94 6016   4.924   2.484   1.382 -0.2669 -0.4268  0.2536
   15CHTO  H181 6017   4.997   2.489   1.463  1.5230 -0.1757 -1.3369
   15CHTO   O61 6018   4.959   2.609   1.311  0.3401 -0.9181  0.2828
   15CHTO   C95 6019   4.927   2.734   1.384 -0.3153 -1.0348  0.5606
   15CHTO  H182 6020   4.965   2.725   1.486 -1.6813 -1.3903  1.0564
   15CHTO  C106 6021   4.991   2.847   1.308 -0.3656 -0.3803  0.5161
   15CHTO   O69 6022   5.131   2.855   1.346  0.2940 -0.5296 -0.6786
   15CHTO  H169 6023   5.190   2.850   1.273  1.2202 -1.1269  0.1011
   15CHTO   O63 6024   4.957   2.371   1.295 -0.3158 -0.1189 -0.4741
   15CHTO   C96 6025   5.062   2.269   1.355  0.0155 -0.5571  0.5056
   15CHTO  H183 6026   5.052   2.269   1.463  0.2603  0.6015  0.5326
   15CHTO   C98 6027   5.214   2.296   1.327  0.5227 -0.6513 -0.2918
   15CHTO  H185 6028   5.223   2.342   1.228  1.8731  0.9142  0.5132
   15CHTO   O67 6029   5.268   2.397   1.420  0.1036  0.0707  0.2228
   15CHTO  H167 6030   5.206   2.466   1.434 -0.7953 -0.7823  0.5249
   15CHTO  C102 6031   5.320   2.174   1.335  0.0161  0.3533  0.1050
   15CHTO  H189 6032   5.347   2.167   1.441 -0.0475 -1.1557  0.0295
   15CHTO   N18 6033   5.449   2.202   1.260  0.1314  0.0534  0.3793
   15CHTO  H176 6034   5.537   2.177   1.316  1.1650  2.8706  0.0920
   15CHTO  H177 6035   5.446   2.148   1.167  0.2062 -0.0500  0.4378
   15CHTO  C105 6036   5.252   2.042   1.286  0.1060 -0.0184 -0.3837
   15CHTO  H192 6037   5.248   2.037   1.177  3.1360  0.8107 -0.5847
   15CHTO   O65 6038   5.122   2.028   1.352  0.3844 -0.1715 -0.0632
   15CHTO  C100 6039   5.022   2.120   1.307  0.5037 -0.2518 -0.4472
   15CHTO  H187 6040   5.015   2.118   1.198  1.2055 -0.1727 -0.4962
   15CHTO  C107 6041   4.889   2.093   1.375  0.3031  0.1447  0.0789
   15CHTO   O70 6042   4.777   2.149   1.309  0.3888 -0.1515  0.0423
   15CHTO  H170 6043   4.708   2.167   1.369  1.3506 -0.3036  1.2321
   15CHTO   O57 6044   5.353   1.918   1.336 -0.4175  0.0650 -0.0544
   15CHTO   C85 6045   5.397   1.892   1.469  0.5632 -0.0445 -0.7949
   15CHTO  H157 6046   5.357   1.982   1.519  0.8205  0.0387 -0.7406
   15CHTO   C83 6047   5.547   1.907   1.481  0.1187  0.4554 -0.4472
   15CHTO  H155 6048   5.569   2.008   1.449 -0.9434  0.6773 -0.4978
   15CHTO   O56 6049   5.614   1.822   1.386  0.0629 -0.1707 -0.2259
   15CHTO  H135 6050   5.671   1.880   1.340  1.1943  0.0164  1.3735
   15CHTO   C81 6051   5.583   1.893   1.630  0.1656  0.7935  0.0079
   15CHTO  H153 6052   5.530   1.972   1.684 -0.7384  0.5538 -0.5141
   15CHTO   N14 6053   5.720   1.913   1.661 -0.0468  0.1979  0.3197
   15CHTO  H141 6054   5.726   2.020   1.656 -1.6894  0.2867 -0.2299
   15CHTO  H142 6055   5.740   1.879   1.760  0.3922  2.5813  1.0938
   15CHTO   C79 6056   5.530   1.752   1.682  0.4515 -0.5608 -0.2856
   15CHTO  H151 6057   5.550   1.746   1.789  0.1964  1.3668 -0.1098
   15CHTO   O52 6058   5.389   1.726   1.658 -0.1328 -0.0082  0.4244
   15CHTO   C86 6059   5.338   1.760   1.527  0.1703 -0.9462  0.3413
   15CHTO  H158 6060   5.357   1.670   1.465  2.6845  0.2534 -0.7037
   15CHTO   C90 6061   5.185   1.772   1.540 -0.1380 -0.2404 -0.2674
   15CHTO   O60 6062   5.122   1.644   1.538 -0.2824  0.6242 -0.1751
   15CHTO  H138 6063   5.140   1.597   1.459 -1.0070  1.7338 -1.0057
   15CHTO   O50 6064   5.602   1.647   1.615  0.1999 -0.0902  0.3862
   15CHTO   C73 6065   5.572   1.503   1.594 -0.5711 -0.4481 -0.6127
   15CHTO  H145 6066   5.494   1.495   1.516 -0.9060 -0.0652 -0.3208
   15CHTO   C74 6067   5.515   1.447   1.732  0.0373 -0.9133  0.7266
   15CHTO  H146 6068   5.423   1.504   1.752 -0.4180 -1.4417  0.1734
   15CHTO   O54 6069   5.468   1.314   1.722  0.6644  0.2332  0.1549
   15CHTO  H133 6070   5.382   1.298   1.754  1.0080 -0.1999  0.8692
   15CHTO   C75 6071   5.626   1.463   1.846 -0.1662 -0.2002 -0.1675
   15CHTO  H147 6072   5.662   1.567   1.844 -0.3125 -0.0086  3.1462
   15CHTO   N13 6073   5.582   1.425   1.986 -0.2967  0.6532 -0.6780
   15CHTO  H139 6074   5.482   1.464   1.999  0.4927  2.6690 -0.5526
   15CHTO  H140 6075   5.581   1.317   1.992 -0.7161  0.5441 -2.4364
   15CHTO   C76 6076   5.743   1.368   1.791  0.1061  0.0496  0.4029
   15CHTO  H148 6077   5.707   1.265   1.787 -1.0650  0.3836  2.2453
   15CHTO   O49 6078   5.787   1.407   1.659 -0.1087 -0.3405  0.4139
   15CHTO   C77 6079   5.694   1.425   1.550 -0.0750 -0.0361 -0.4962
   15CHTO  H149 6080   5.655   1.326   1.526 -0.4799  0.0193 -0.0747
   15CHTO   C88 6081   5.770   1.493   1.427 -1.3793 -0.4603  0.5143
   15CHTO   O58 6082   5.870   1.412   1.384 -0.1325 -0.4401 -0.0357
   15CHTO  H136 6083   5.944   1.470   1.379 -1.1244  0.7615 -1.1830
   15CHTO   O51 6084   5.855   1.375   1.880 -0.1402 -0.1630 -1.0746
   15CHTO   C78 6085   5.968   1.270   1.846 -0.6170 -0.6823  0.2912
   15CHTO  H150 6086   5.948   1.234   1.743  0.5334  0.4623 -0.3403
   15CHTO   C80 6087   5.958   1.155   1.949  0.0581  0.1726  0.0672
   15CHTO  H152 6088   5.960   1.198   2.051  1.4530 -0.1026  0.1752
   15CHTO   O55 6089   5.833   1.092   1.921  1.0656  0.1590 -0.3726
   15CHTO  H134 6090   5.769   1.151   1.956  2.7833  1.7033  0.2392
   15CHTO   C84 6091   6.082   1.056   1.938  0.4072  0.2237  0.3942
   15CHTO  H156 6092   6.064   1.013   1.839 -0.4261  2.7834 -0.5930
   15CHTO   N15 6093   6.090   0.942   2.043  0.5952 -0.3369 -0.1666
   15CHTO  H143 6094   6.010   0.872   2.047  0.0251  0.1844 -1.9077
   15CHTO  H144 6095   6.105   0.988   2.138 -0.1139  3.0471 -1.6111
   15CHTO   C87 6096   6.215   1.135   1.942 -0.3454  1.0515 -0.3577
   15CHTO  H159 6097   6.225   1.183   2.039 -1.4407  0.3495  0.1068
   15CHTO   O53 6098   6.209   1.230   1.840 -0.0256 -0.3817  0.0594
   15CHTO   C82 6099   6.108   1.329   1.860  0.2389  0.2585  0.2057
   15CHTO  H154 6100   6.122   1.377   1.957 -0.3101  1.0261 -0.0903
   15CHTO   C89 6101   6.127   1.441   1.758  0.4557  0.1898 -0.3498
   15CHTO   O59 6102   6.249   1.516   1.763  0.0598 -0.1592  0.2683
   15CHTO  H137 6103   6.227   1.599   1.799 -1.2596  0.3953 -1.6907
   15CHTO   O45 6104   6.357   1.028   1.934  0.3420  0.1942  0.1489
   15CHTO   C67 6105   6.472   1.102   1.903 -0.0378  0.3471 -0.4280
   15CHTO  H124 6106   6.447   1.207   1.895  1.2836  0.8058  1.1595
   15CHTO   C65 6107   6.586   1.087   2.012 -0.9331 -0.7873  0.1461
   15CHTO  H122 6108   6.596   0.990   2.061  1.7380  0.4161  2.0911
   15CHTO   O44 6109   6.552   1.184   2.113 -0.5560 -0.0424  0.3618
   15CHTO  H102 6110   6.575   1.157   2.200  0.0607 -0.5395  0.0458
   15CHTO   C63 6111   6.735   1.097   1.949  0.6124  1.2762  0.4645
   15CHTO  H120 6112   6.756   0.999   1.906  0.5429  1.6151 -0.3638
   15CHTO   N11 6113   6.848   1.128   2.041  0.1363  0.0768  0.4512
   15CHTO  H108 6114   6.844   1.226   2.084  1.9267 -0.2464  1.4490
   15CHTO  H109 6115   6.860   1.059   2.122 -0.3020 -0.9186 -0.3363
   15CHTO   C61 6116   6.726   1.187   1.819 -0.5892  0.2553  0.3316
   15CHTO  H118 6117   6.825   1.187   1.770 -1.7028  2.0654 -2.0212
   15CHTO   O40 6118   6.637   1.145   1.718 -0.0873 -0.3130 -0.4557
   15CHTO   C68 6119   6.529   1.060   1.761 -0.2312  0.0860 -0.6266
   15CHTO  H125 6120   6.542   0.950   1.768 -1.3230 -0.2441 -3.2221
   15CHTO   C72 6121   6.419   1.085   1.656 -0.7328 -0.3275 -1.1734
   15CHTO   O48 6122   6.297   1.017   1.676 -0.2274  0.3372  0.1605
   15CHTO  H105 6123   6.269   1.030   1.765  1.2429  0.4064  0.6257
   15CHTO   O38 6124   6.703   1.324   1.855 -0.3506 -0.4608  0.2256
   15CHTO   C55 6125   6.667   1.429   1.770  0.3133 -0.2084  0.3617
   15CHTO  H112 6126   6.577   1.402   1.712 -0.7726  2.0846  0.9356
   15CHTO   C56 6127   6.796   1.468   1.673 -0.3792  0.5038 -0.1182
   15CHTO  H113 6128   6.884   1.486   1.737 -0.4970 -0.2313  0.2488
   15CHTO   O42 6129   6.828   1.357   1.586  0.7505 -0.5749  0.3772
   15CHTO  H100 6130   6.912   1.381   1.550 -0.2150  0.1438 -1.4450
   15CHTO   C57 6131   6.767   1.601   1.597  0.1454  0.0376  0.0375
   15CHTO  H114 6132   6.697   1.582   1.516 -1.4574  0.9745  1.1710
   15CHTO   N10 6133   6.884   1.657   1.520  0.6219 -0.7649  0.1862
   15CHTO  H106 6134   6.931   1.725   1.589  0.6501 -1.0360  0.4329
   15CHTO  H107 6135   6.866   1.703   1.424  0.2171 -2.9646 -0.8177
   15CHTO   C58 6136   6.705   1.707   1.694  0.2856 -0.1778  0.0293
   15CHTO  H115 6137   6.782   1.743   1.765 -1.8062  2.9331  0.8133
   15CHTO   O37 6138   6.594   1.650   1.763 -0.1313  0.1069 -0.3063
   15CHTO   C59 6139   6.628   1.548   1.857  0.2008  0.2400  0.2360
   15CHTO  H116 6140   6.709   1.579   1.924 -0.2709  2.8509 -0.3437
   15CHTO   C70 6141   6.504   1.521   1.941  0.4731  0.0297  0.2859
   15CHTO   O46 6142   6.476   1.632   2.029  0.0938 -1.1526  0.8007
   15CHTO  H103 6143   6.471   1.714   1.984 -0.3666 -0.8043  1.4824
   15CHTO   O39 6144   6.648   1.857   1.627 -0.4363 -0.3380  0.9081
   15CHTO   C60 6145   6.522   1.865   1.549  0.7440 -0.5324 -0.0366
   15CHTO  H117 6146   6.526   1.791   1.469 -2.4974  1.3996 -2.1173
   15CHTO   C62 6147   6.391   1.823   1.627 -0.0092  0.5244 -0.4479
   15CHTO  H119 6148   6.390   1.713   1.642  0.0127  0.3575 -1.6222
   15CHTO   O43 6149   6.401   1.899   1.750  0.3892  0.3660  0.3814
   15CHTO  H101 6150   6.478   1.868   1.792  0.3217 -1.9144 -1.0775
   15CHTO   C66 6151   6.257   1.864   1.549  0.2465  0.0414 -0.2529
   15CHTO  H123 6152   6.254   1.807   1.456  2.0551 -0.5502  0.0464
   15CHTO   N12 6153   6.134   1.823   1.620  0.1481 -0.7722 -0.1148
   15CHTO  H110 6154   6.127   1.879   1.712 -1.0994  1.6491 -1.6245
   15CHTO  H111 6155   6.055   1.815   1.547 -0.4838  2.6582  0.1224
   15CHTO   C69 6156   6.249   2.013   1.509  0.4282 -0.6867 -0.0495
   15CHTO  H126 6157   6.258   2.081   1.596 -0.1420 -2.4542  1.4237
   15CHTO   O41 6158   6.376   2.043   1.405 -0.3271  0.6070 -0.4606
   15CHTO   C64 6159   6.507   2.010   1.486 -0.1844  0.2791  0.8789
   15CHTO  H121 6160   6.517   2.088   1.565  0.2742 -1.6755  2.7930
   15CHTO   C71 6161   6.630   2.028   1.386  0.3959 -0.5870 -0.5199
   15CHTO   O47 6162   6.752   2.045   1.461  0.4810 -0.3589  0.1192
   15CHTO  H104 6163   6.765   2.135   1.481  0.4629 -0.1267 -0.8595
   15CHTO   O34 6164   6.118   2.044   1.429 -0.4150 -0.0232 -0.3498
   15CHTO   C49 6165   6.065   2.127   1.310  0.1337  0.3777  0.4571
   15CHTO   H91 6166   6.127   2.092   1.227 -1.4652  0.7024 -0.8860
   15CHTO   C47 6167   6.083   2.279   1.336 -0.5274 -0.4300 -0.5478
   15CHTO   H89 6168   6.049   2.333   1.246  1.2219  3.0551  0.8145
   15CHTO   O33 6169   6.226   2.302   1.353  0.7971 -0.2855 -0.3766
   15CHTO   H70 6170   6.249   2.392   1.350 -2.1917  0.4972 -2.5346
   15CHTO   C45 6171   5.999   2.333   1.458  0.3540  0.3357 -0.4801
   15CHTO   H87 6172   6.018   2.270   1.547  0.9224  1.3553  0.1423
   15CHTO    N8 6173   6.017   2.481   1.496  0.0158  0.8336  0.2400
   15CHTO   H75 6174   5.993   2.489   1.601 -1.1202 -1.7413  0.2020
   15CHTO   H76 6175   6.118   2.518   1.482  0.9751 -2.5694 -2.4406
   15CHTO   C43 6176   5.847   2.304   1.416 -0.0979 -0.1928  0.8283
   15CHTO   H85 6177   5.787   2.337   1.501  0.4590 -0.3595  1.2899
   15CHTO   O29 6178   5.822   2.164   1.380  0.3805 -0.0382  0.1132
   15CHTO   C50 6179   5.916   2.095   1.293 -0.6946  0.3775  0.1331
   15CHTO   H92 6180   5.910   1.987   1.309  0.6784  0.3811  0.7173
   15CHTO   C54 6181   5.872   2.119   1.148 -0.3423  0.2535  0.5884
   15CHTO   O36 6182   5.735   2.070   1.134  0.2662  0.5208 -0.2808
   15CHTO   H72 6183   5.712   2.070   1.043 -0.1104  0.3093 -0.1839
   15CHTO   O27 6184   5.812   2.392   1.308 -0.0534  0.0215 -0.6875
   15CHTO   C37 6185   5.717   2.483   1.251 -0.2058  0.5996 -0.5727
   15CHTO   H79 6186   5.620   2.433   1.239  0.4194 -0.1595 -2.7364
   15CHTO   C38 6187   5.685   2.600   1.340  0.4814 -0.7145 -0.5658
   15CHTO   H80 6188   5.780   2.648   1.369 -0.9112  0.8584  1.6087
   15CHTO   O31 6189   5.622   2.555   1.463  0.0682  0.1187 -0.1880
   15CHTO   H68 6190   5.631   2.616   1.534 -0.1253  1.7590 -1.5300
   15CHTO   C39 6191   5.595   2.715   1.280 -0.3858  0.1346 -0.6112
   15CHTO   H81 6192   5.491   2.683   1.268 -0.7323  0.9359  0.1308
   15CHTO    N7 6193   5.585   2.833   1.357  0.1945  0.3222 -0.5939
   15CHTO   H73 6194   5.555   2.804   1.457  0.3260  0.9611 -0.3671
   15CHTO   H74 6195   5.535   2.913   1.305  0.0535 -0.6512 -1.9638
   15CHTO   C40 6196   5.647   2.746   1.131  0.5984  0.1968  0.0091
   15CHTO   H82 6197   5.742   2.798   1.146 -0.8871  2.3752  2.2942
   15CHTO   O26 6198   5.661   2.629   1.055  0.1036 -0.2293 -0.0030
   15CHTO   C41 6199   5.759   2.539   1.114 -0.2370  0.6341 -0.5027
   15CHTO   H83 6200   5.850   2.595   1.139 -0.0287  0.0152  0.1520
   15CHTO   C52 6201   5.797   2.428   1.000  0.4395  0.2141 -0.5364
   15CHTO   O35 6202   5.682   2.333   0.977  0.0607 -0.1789 -0.2247
   15CHTO   H71 6203   5.628   2.370   0.910  1.7764  0.8835 -1.0319
   15CHTO   O28 6204   5.546   2.823   1.055 -0.5255 -0.6970 -0.2604
   15CHTO   C42 6205   5.573   2.932   0.957 -0.2165  0.1650  0.5134
   15CHTO   H84 6206   5.517   2.909   0.867  1.2153  0.0790 -0.3645
   15CHTO   C44 6207   5.719   2.955   0.912 -0.6750  0.2536 -0.5447
   15CHTO   H86 6208   5.777   2.965   1.004 -3.1192 -1.2769  1.2227
   15CHTO   O32 6209   5.761   2.829   0.849  0.5888  0.9656 -0.1990
   15CHTO   H69 6210   5.848   2.829   0.814  0.5453 -1.3790 -0.3859
   15CHTO   C48 6211   5.724   3.078   0.817 -0.2167 -0.4313  0.5874
   15CHTO   H90 6212   5.653   3.080   0.734  0.3340  1.6148  0.1306
   15CHTO    N9 6213   5.858   3.108   0.754  0.3887 -0.7369 -0.3968
   15CHTO   H77 6214   5.921   3.162   0.824 -1.0296  0.0407  0.3008
   15CHTO   H78 6215   5.848   3.152   0.656  0.0806  1.5562  0.6278
   15CHTO   C51 6216   5.661   3.201   0.896  0.3397  0.6911 -0.5903
   15CHTO   H93 6217   5.723   3.227   0.982 -0.1780  1.2805 -0.3940
   15CHTO   O30 6218   5.526   3.174   0.933 -0.2434 -0.7599 -0.8583
   15CHTO   C46 6219   5.508   3.062   1.022  0.4550  0.5838  0.4234
   15CHTO   H88 6220   5.557   3.087   1.116 -0.0940  0.2689  0.7951
   15CHTO   C53 6221   5.359   3.047   1.044  0.0111 -0.7452  0.0371
   15CHTO   O72 6222   5.326   2.955   1.148  0.0659 -0.0723 -0.1933
   15CHTO  H199 6223   5.378   2.987   1.220  1.2988  0.0491 -1.1139
   15CHTO   O22 6224   5.643   3.320   0.814 -0.6334 -0.4831 -0.9732
   15CHTO   C31 6225   5.660   3.460   0.852 -0.2909  0.5962  0.1900
   15CHTO   H59 6226   5.708   3.509   0.765 -0.1989  1.1370  0.5418
   15CHTO   C29 6227   5.522   3.527   0.877 -0.1753  0.1389  0.1882
   15CHTO   H57 6228   5.475   3.466   0.956  1.5297  0.0884  1.1964
   15CHTO   O21 6229   5.436   3.515   0.761  0.0451  0.2019  0.2194
   15CHTO   H37 6230   5.403   3.428   0.767 -2.0842  0.9206 -0.7482
   15CHTO   C27 6231   5.542   3.674   0.926  0.4984 -0.9148  0.0939
   15CHTO   H55 6232   5.591   3.728   0.843 -1.1098  0.3749 -0.0392
   15CHTO    N5 6233   5.416   3.748   0.950  0.4770 -0.1954  0.2828
   15CHTO   H43 6234   5.352   3.730   0.866  1.2930 -0.4237 -0.2898
   15CHTO   H44 6235   5.371   3.718   1.044 -2.4184  0.1742 -0.9460
   15CHTO   C25 6236   5.633   3.677   1.055 -0.4461 -0.0736 -0.3668
   15CHTO   H53 6237   5.586   3.626   1.140 -0.8519  0.6506 -0.1515
   15CHTO   O17 6238   5.755   3.630   1.013 -0.6358 -0.3349 -0.0355
   15CHTO   C32 6239   5.763   3.493   0.976  0.4448  0.6306  0.0795
   15CHTO   H60 6240   5.724   3.444   1.065 -0.7386  1.2165 -0.1126
   15CHTO   C36 6241   5.906   3.466   0.944  0.2970  0.4418 -0.0794
   15CHTO   O25 6242   5.991   3.484   1.059  0.0863 -0.6575 -0.4045
   15CHTO   H40 6243   5.988   3.573   1.089  1.1870 -0.4324 -0.9475
   15CHTO   O15 6244   5.662   3.834   1.086  0.2028  0.2095 -0.4489
   15CHTO   C19 6245   5.750   3.909   1.181 -0.1783 -0.5850 -0.0865
   15CHTO   H47 6246   5.848   3.861   1.175 -0.2364 -0.6598 -0.4014
   15CHTO   C20 6247   5.774   4.066   1.161  0.7192  0.8252 -0.3266
   15CHTO   H48 6248   5.678   4.119   1.161 -0.2513 -0.8651 -1.8379
   15CHTO   O19 6249   5.837   4.098   1.035 -0.2862 -0.3171  0.6797
   15CHTO   H35 6250   5.919   4.054   1.026 -0.7337 -0.4114 -3.8475
   15CHTO   C21 6251   5.853   4.137   1.276 -0.4669 -0.0180  0.4090
   15CHTO   H49 6252   5.960   4.128   1.261 -0.4713 -0.7443  0.7718
   15CHTO    N4 6253   5.845   4.286   1.264  0.2085  0.0949  0.2685
   15CHTO   H41 6254   5.749   4.316   1.224 -0.5628 -0.7649  1.4492
   15CHTO   H42 6255   5.857   4.332   1.361  1.1462 -1.6915  1.0182
   15CHTO   C22 6256   5.815   4.092   1.422  0.1964 -0.3968  0.2743
   15CHTO   H50 6257   5.711   4.120   1.442  0.7152  1.5656  0.3172
   15CHTO   O14 6258   5.813   3.947   1.420  0.2053  0.6364 -0.2933
   15CHTO   C23 6259   5.710   3.893   1.332 -0.4252  0.2430  0.4224
   15CHTO   H51 6260   5.619   3.949   1.356 -1.9738 -1.7412 -0.6289
   15CHTO   C34 6261   5.688   3.751   1.385 -0.1040 -0.2630 -0.0521
   15CHTO   O23 6262   5.629   3.757   1.519 -0.1019 -0.2240 -0.0421
   15CHTO   H38 6263   5.541   3.788   1.512  0.0597 -0.3923 -3.6278
   15CHTO   O16 6264   5.907   4.143   1.519 -0.3072 -0.1323 -0.3484
   15CHTO   C24 6265   6.019   4.064   1.589 -0.0824  0.0890  1.0328
   15CHTO   H52 6266   6.058   3.986   1.523 -1.1851  1.2713 -1.0499
   15CHTO   C26 6267   5.976   4.000   1.724 -0.2077 -0.0682  0.3740
   15CHTO   H54 6268   5.918   4.074   1.782  1.1400  0.5532  0.9383
   15CHTO   O20 6269   5.879   3.898   1.697 -0.5103 -0.6993  0.6156
   15CHTO   H36 6270   5.911   3.838   1.633  1.7240 -1.2912  2.2669
   15CHTO   C30 6271   6.096   3.950   1.811  0.0126  0.6806 -0.1248
   15CHTO   H58 6272   6.148   3.864   1.766 -0.5358 -0.2308  0.9502
   15CHTO    N6 6273   6.058   3.893   1.938  0.2637 -0.6054  0.0098
   15CHTO   H45 6274   6.146   3.867   1.995 -0.6392 -2.4912  0.5890
   15CHTO   H46 6275   5.995   3.805   1.934  0.1070 -0.4377 -2.3702
   15CHTO   C33 6276   6.210   4.061   1.816  0.9117  0.4945  0.3366
   15CHTO   H61 6277   6.175   4.150   1.870 -1.5632  0.1243 -0.5787
   15CHTO   O18 6278   6.239   4.097   1.682  0.6438  0.3690  0.1300
   15CHTO   C28 6279   6.135   4.173   1.619  0.0765  0.1032 -0.8173
   15CHTO   H56 6280   6.096   4.250   1.685 -0.7642 -1.9066  1.1026
   15CHTO   C35 6281   6.187   4.239   1.487  0.0426 -0.0609  0.7341
   15CHTO   O24 6282   6.302   4.325   1.510  0.3541  0.3980  0.2692
   15CHTO   H39 6283   6.381   4.278   1.491 -0.3826 -0.2277 -1.3409
   15CHTO    O9 6284   6.331   4.027   1.884 -0.8716 -0.4068  0.3809
   15CHTO   C13 6285   6.338   4.071   2.048 -0.2985  0.3075  0.7223
   15CHTO   H26 6286   6.241   4.041   2.092 -0.3585 -1.6797 -0.6803
   15CHTO   C11 6287   6.364   4.224   2.061 -0.4167 -0.6061 -0.9056
   15CHTO   H24 6288   6.285   4.285   2.013  1.0684  0.7329 -1.7094
   15CHTO    O8 6289   6.480   4.259   1.986  0.1960  0.2829  0.3955
   15CHTO    H3 6290   6.460   4.269   1.895 -0.2309  0.4333  0.5047
   15CHTO    C9 6291   6.362   4.267   2.214  0.4317  0.4487 -0.2549
   15CHTO   H22 6292   6.268   4.229   2.258  0.9192  1.7712  2.0555
   15CHTO    N2 6293   6.365   4.414   2.232 -0.1304  0.0027  0.3922
   15CHTO   H10 6294   6.453   4.461   2.191 -0.7930  0.6477 -0.3137
   15CHTO   H11 6295   6.364   4.432   2.338 -2.0055  1.2130  0.2009
   15CHTO    C7 6296   6.486   4.191   2.285 -0.3851  0.5680  0.3054
   15CHTO   H20 6297   6.472   4.191   2.395 -0.4335  0.5825  0.2993
   15CHTO    O4 6298   6.488   4.050   2.248 -0.7966 -0.4478 -0.4942
   15CHTO   C14 6299   6.454   3.986   2.123 -0.2520 -0.3686  0.5515
   15CHTO   H27 6300   6.416   3.886   2.149 -0.3360 -0.2093  1.0420
   15CHTO   C18 6301   6.576   3.969   2.026  0.2123  0.1014 -1.3825
   15CHTO   O13 6302   6.693   3.898   2.074  0.1334 -0.1403 -0.1709
   15CHTO    H7 6303   6.691   3.805   2.089  3.3701 -0.0760  0.8644
   15CHTO    O2 6304   6.636   4.269   2.241  0.3630 -0.0880  0.0619
   15CHTO    C1 6305   6.756   4.217   2.302 -0.1563  0.2202  0.7055
   15CHTO   H14 6306   6.753   4.108   2.281  0.5504  0.3772 -0.2534
   15CHTO    C2 6307   6.750   4.238   2.454  0.1789  0.0737 -0.3160
   15CHTO   H15 6308   6.707   4.338   2.470 -0.2678 -0.1247 -0.2679
   15CHTO    O6 6309   6.678   4.134   2.523  0.0359  0.1947 -0.1693
   15CHTO    H1 6310   6.709   4.046   2.510  0.7476  0.6965 -2.0452
   15CHTO    C3 6311   6.903   4.248   2.523 -0.3112 -0.0059 -0.1580
   15CHTO   H16 6312   6.936   4.143   2.535 -2.0374 -0.4682  0.5856
   15CHTO    N1 6313   6.895   4.311   2.660  0.4382  0.1855 -0.2803
   15CHTO    H8 6314   6.822   4.252   2.713  0.7032  0.8446  0.8274
   15CHTO    H9 6315   6.991   4.305   2.709  0.3223  0.0607 -0.0678
   15CHTO    C4 6316   7.008   4.313   2.424 -0.5048  0.4350  0.4473
   15CHTO   H17 6317   6.993   4.421   2.423 -0.1113  0.4942  0.8228
   15CHTO    O1 6318   7.008   4.236   2.305  0.2044  0.1036  0.9382
   15CHTO    C5 6319   6.888   4.271   2.230 -0.1848  0.7438  0.5857
   15CHTO   H18 6320   6.872   4.376   2.206 -0.0854  0.4289 -0.8814
   15CHTO   C16 6321   6.906   4.202   2.095 -0.2228 -0.6506 -0.5962
   15CHTO   O11 6322   6.801   4.226   2.001  0.2975 -0.7577  0.6132
   15CHTO    H5 6323   6.836   4.200   1.918  0.8723 -0.8809  0.8859
   15CHTO    O3 6324   7.146   4.291   2.461 -0.4544  0.4158  0.0684
   15CHTO    C6 6325   7.242   4.382   2.394 -0.5744  0.6993  0.4996
   15CHTO   H19 6326   7.208   4.438   2.308  0.5065 -1.3134 -1.2837
   15CHTO    C8 6327   7.291   4.488   2.489 -0.1725 -0.0904 -0.4080
   15CHTO   H21 6328   7.334   4.437   2.575  1.2924  0.7548 -0.6268
   15CHTO    O7 6329   7.176   4.556   2.545 -0.6354 -0.2006  0.0606
   15CHTO    H2 6330   7.135   4.615   2.484 -1.0838 -0.7952 -0.2159
   15CHTO   C12 6331   7.392   4.588   2.414  0.4164  0.6176 -0.5353
   15CHTO   H25 6332   7.322   4.633   2.341 -1.7865 -3.3193 -0.9885
   15CHTO    N3 6333   7.442   4.699   2.504 -0.2999 -0.3307 -0.2121
   15CHTO   H12 6334   7.507   4.771   2.456 -0.8052  0.7039  0.6198
   15CHTO   H13 6335   7.483   4.663   2.597  1.9420  1.7123 -0.3601
   15CHTO   C15 6336   7.501   4.507   2.326  0.3489 -0.0606 -0.6024
   15CHTO   H28 6337   7.584   4.468   2.385 -1.9077 -1.3861  1.8049
   15CHTO   O10 6338   7.552   4.585   2.222  0.0447  0.1177 -0.0551
   15CHTO    H4 6339   7.623   4.549   2.173 -0.2408 -0.5154 -0.0105
   15CHTO    O5 6340   7.438   4.399   2.253  0.1454  0.0158  0.4370
   15CHTO   C10 6341   7.369   4.307   2.337 -0.3013  0.3194  0.2839
   15CHTO   H23 6342   7.426   4.255   2.415 -1.3503 -3.9022 -1.6194
   15CHTO   C17 6343   7.337   4.192   2.244  0.3461 -0.0102 -0.2315
   15CHTO   O12 6344   7.450   4.122   2.189 -0.2981 -0.1560  0.1792
   15CHTO    H6 6345   7.460   4.044   2.240 -0.2930 -0.2540  0.0296
   16CHTO  H203 6346   3.878   3.513   0.375 -0.2631  0.0195 -0.8903
   16CHTO   O82 6347   3.964   3.496   0.343  0.0321  0.1053 -0.1608
   16CHTO  C123 6348   4.034   3.429   0.453 -0.6087  0.7530  0.2519
   16CHTO  H227 6349   4.042   3.322   0.431 -0.7141  0.5773  1.0552
   16CHTO   O77 6350   4.170   3.479   0.468  0.3889 -0.4207 -0.6068
   16CHTO  C118 6351   4.245   3.398   0.555  0.3636 -0.3022 -0.1101
   16CHTO  H222 6352   4.236   3.289   0.544 -1.0669 -0.3070  0.8891
   16CHTO  C125 6353   4.396   3.440   0.540 -0.7029  0.7392  0.0537
   16CHTO   O84 6354   4.435   3.403   0.411  0.3636  0.3160  0.4669
   16CHTO  H205 6355   4.420   3.312   0.397 -2.5770  0.8069  0.0891
   16CHTO  C114 6356   4.200   3.413   0.697 -0.0767  0.7204 -1.1203
   16CHTO  H218 6357   4.232   3.511   0.731  1.0508  0.2915 -0.9382
   16CHTO  C116 6358   4.049   3.397   0.714  0.0559 -0.0343 -0.3075
   16CHTO  H220 6359   4.029   3.289   0.729  0.2649  0.0594  0.6845
   16CHTO   O79 6360   4.020   3.462   0.838 -0.6368  0.3907 -0.9105
   16CHTO  H201 6361   3.928   3.469   0.855 -0.5224  2.5922 -1.0768
   16CHTO  C120 6362   3.959   3.455   0.596 -0.1721 -0.2626  0.1380
   16CHTO  H224 6363   3.960   3.566   0.602  1.9339 -0.1753 -1.2307
   16CHTO   N21 6364   3.816   3.401   0.585  0.4606 -0.2387  0.0543
   16CHTO  H211 6365   3.763   3.365   0.673  0.9235 -2.2630 -0.4652
   16CHTO  H212 6366   3.786   3.347   0.497  0.4102  1.0398 -0.7121
   16CHTO   O75 6367   4.270   3.307   0.764 -0.1135 -0.5527  0.3062
   16CHTO  C112 6368   4.359   3.361   0.893 -0.7088  0.2500 -0.4086
   16CHTO  H216 6369   4.289   3.426   0.947 -1.4276 -0.1492 -0.8511
   16CHTO   O73 6370   4.471   3.433   0.838 -0.6053 -0.6121 -0.8938
   16CHTO  C113 6371   4.580   3.475   0.931  0.1185 -0.3644  0.3738
   16CHTO  H217 6372   4.546   3.560   0.994  0.9889  1.2145 -1.2526
   16CHTO  C124 6373   4.686   3.524   0.837  0.2626  0.0997 -0.0570
   16CHTO   O83 6374   4.730   3.650   0.889 -0.3555 -0.6064  0.0748
   16CHTO  H204 6375   4.805   3.681   0.841 -0.3489 -0.9339 -0.1293
   16CHTO  C109 6376   4.622   3.358   1.020  0.2195  0.0303 -0.3703
   16CHTO  H213 6377   4.676   3.285   0.957  1.3619  0.6848 -0.1723
   16CHTO  C110 6378   4.496   3.296   1.093  0.1168  0.1773  0.2932
   16CHTO  H214 6379   4.452   3.379   1.148  1.4167  0.6795  0.6006
   16CHTO   O78 6380   4.544   3.190   1.181  0.2110  0.3314 -0.1606
   16CHTO  H200 6381   4.582   3.120   1.131  1.1171  0.1583  0.7307
   16CHTO  C111 6382   4.402   3.246   0.980 -0.0598  0.5126  0.2697
   16CHTO  H215 6383   4.459   3.179   0.915  0.1383 -0.8022  1.7510
   16CHTO   N19 6384   4.283   3.172   1.026 -0.0107 -0.0126  0.3096
   16CHTO  H207 6385   4.207   3.240   1.061  0.4552 -0.1890  1.7088
   16CHTO  H208 6386   4.245   3.100   0.955 -0.0212 -0.9031  1.2100
   16CHTO   O74 6387   4.719   3.410   1.120  0.2186  0.1133  0.0133
   16CHTO  C115 6388   4.867   3.375   1.096 -0.1313  0.5819 -0.0749
   16CHTO  H219 6389   4.875   3.274   1.054 -1.3968  0.5728 -0.3120
   16CHTO   O76 6390   4.931   3.470   0.994 -0.4127 -0.4489  0.0036
   16CHTO  C122 6391   5.067   3.463   0.966 -0.3456  0.1211  0.5540
   16CHTO  H226 6392   5.083   3.550   0.903 -1.5255  0.9590  1.4036
   16CHTO  C126 6393   5.114   3.338   0.884 -0.1828  0.1307  0.1006
   16CHTO   O85 6394   5.048   3.209   0.909 -0.0641 -0.5448  0.1381
   16CHTO  H206 6395   5.111   3.140   0.900 -0.8613 -1.3116  0.4322
   16CHTO  C121 6396   5.154   3.476   1.097  0.5341 -0.3194 -0.8268
   16CHTO  H225 6397   5.261   3.454   1.075  0.0912 -1.0580 -2.3137
   16CHTO   O81 6398   5.149   3.609   1.142 -0.7788  0.6782 -0.3715
   16CHTO  H202 6399   5.189   3.622   1.226 -0.0033  0.5821 -0.7251
   16CHTO  C119 6400   5.105   3.368   1.205 -0.3214  0.1549 -0.4395
   16CHTO  H223 6401   5.129   3.267   1.172 -2.8496 -0.6953  0.1659
   16CHTO  C117 6402   4.956   3.387   1.224 -0.0479 -0.2397  0.7267
   16CHTO  H221 6403   4.936   3.487   1.263  1.4643  0.2399  0.3081
   16CHTO   N20 6404   4.901   3.287   1.323  0.5361 -0.1436 -0.4906
   16CHTO  H209 6405   4.871   3.334   1.416  0.6658 -0.0916 -0.4740
   16CHTO  H210 6406   4.970   3.204   1.337  0.7443  0.1124  0.0317
   16CHTO   O80 6407   5.189   3.368   1.345 -0.4101 -0.4167 -0.0237
   16CHTO  C103 6408   5.323   3.274   1.366  0.1069  1.1194  0.2374
   16CHTO  H190 6409   5.318   3.173   1.324  0.7435  1.8055 -1.5296
   16CHTO  C101 6410   5.460   3.337   1.321  0.4155 -0.0025  0.0113
   16CHTO  H188 6411   5.479   3.431   1.374  0.2684 -1.3178  2.4954
   16CHTO   O68 6412   5.453   3.356   1.159 -0.7298  0.2308 -0.5173
   16CHTO  H168 6413   5.459   3.449   1.144 -2.0594  0.4392  0.1540
   16CHTO   C99 6414   5.574   3.233   1.366 -0.1704  0.0903  0.0813
   16CHTO  H186 6415   5.557   3.134   1.317  0.3653 -0.6509  1.3554
   16CHTO   N17 6416   5.707   3.277   1.320 -0.2639 -0.2533 -0.3958
   16CHTO  H174 6417   5.694   3.338   1.231 -0.0870  0.5472  0.1250
   16CHTO  H175 6418   5.785   3.205   1.301  0.4627  0.3192  0.3926
   16CHTO   C97 6419   5.565   3.210   1.519 -0.8565  0.1085 -0.5268
   16CHTO  H184 6420   5.600   3.294   1.581  1.0759 -0.3904 -0.9366
   16CHTO   O64 6421   5.434   3.169   1.551 -0.1479 -0.5141  0.7948
   16CHTO  C104 6422   5.323   3.254   1.522  0.0771  0.4487 -0.0371
   16CHTO  H191 6423   5.345   3.347   1.574  0.8802  0.1398  0.1863
   16CHTO  C108 6424   5.189   3.196   1.579  0.1464 -0.1080 -0.8641
   16CHTO   O71 6425   5.172   3.059   1.549 -0.5941 -0.2367 -0.6148
   16CHTO  H171 6426   5.143   3.005   1.620  2.7643 -1.1305  0.1598
   16CHTO   O62 6427   5.640   3.094   1.552 -0.4892  0.1894 -0.2517
   16CHTO   C91 6428   5.702   3.070   1.675  0.5878 -0.8547 -0.7660
   16CHTO  H178 6429   5.729   3.165   1.721  1.3618 -1.1988 -0.5010
   16CHTO   C92 6430   5.847   3.007   1.641  0.4244  0.0215 -0.6166
   16CHTO  H179 6431   5.841   2.935   1.558 -0.7514 -0.9854  0.3092
   16CHTO   O66 6432   5.923   3.122   1.597 -0.1066  0.2371  0.7826
   16CHTO  H166 6433   5.941   3.180   1.668  2.9913  0.8085 -0.3700
   16CHTO   C93 6434   5.912   2.925   1.762 -0.7617 -0.0274  0.2620
   16CHTO  H180 6435   5.942   2.997   1.840  0.3620  1.4768 -1.5132
   16CHTO   N16 6436   6.035   2.854   1.720  0.7500 -0.4449 -0.0078
   16CHTO  H172 6437   6.120   2.864   1.786  1.5417 -0.7672 -0.9606
   16CHTO  H173 6438   6.052   2.886   1.618 -1.7738  1.8780  0.2584
   16CHTO   C94 6439   5.797   2.826   1.813  0.0875  0.2535  0.7226
   16CHTO  H181 6440   5.752   2.775   1.728 -1.5655  0.1821  1.6272
   16CHTO   O61 6441   5.693   2.903   1.872 -0.2726  0.6696  0.1184
   16CHTO   C95 6442   5.617   2.980   1.770  0.2212 -0.1624  0.6685
   16CHTO  H182 6443   5.556   2.912   1.711  0.4126  1.3009 -1.2433
   16CHTO  C106 6444   5.518   3.079   1.845 -0.4626 -1.0826 -0.2133
   16CHTO   O69 6445   5.430   2.999   1.924  0.2232  0.0633 -0.5826
   16CHTO  H169 6446   5.360   3.050   1.961  0.2125 -1.5632  1.7041
   16CHTO   O63 6447   5.849   2.742   1.914 -0.7407 -0.3434  0.2014
   16CHTO   C96 6448   5.774   2.600   1.945  0.3873  0.1420 -0.3872
   16CHTO  H183 6449   5.834   2.555   2.024 -0.5594 -0.7315 -0.1542
   16CHTO   C98 6450   5.773   2.504   1.826  0.0252 -0.4014 -0.2957
   16CHTO  H185 6451   5.740   2.557   1.735  0.6633 -0.0183 -0.3127
   16CHTO   O67 6452   5.914   2.463   1.808  0.0316  0.2863 -0.5774
   16CHTO  H167 6453   5.957   2.508   1.737  3.6171 -2.3497 -0.2223
   16CHTO  C102 6454   5.678   2.373   1.850 -0.0985 -0.1939  0.2742
   16CHTO  H189 6455   5.730   2.315   1.928  0.4514 -0.2930 -0.1621
   16CHTO   N18 6456   5.660   2.281   1.739  0.7644  0.1915  0.2549
   16CHTO  H176 6457   5.587   2.210   1.775  1.0654  0.0164  0.5172
   16CHTO  H177 6458   5.753   2.229   1.723  0.5800 -0.5152  1.3994
   16CHTO  C105 6459   5.542   2.424   1.905  0.2648 -1.0268 -0.1426
   16CHTO  H192 6460   5.500   2.488   1.827  0.8172 -3.4638 -2.5277
   16CHTO   O65 6461   5.562   2.494   2.025  0.3167  0.6294  0.3856
   16CHTO  C100 6462   5.627   2.623   1.997 -0.0103  0.7364  0.0930
   16CHTO  H187 6463   5.570   2.683   1.925 -1.8855 -0.4730  0.5130
   16CHTO  C107 6464   5.625   2.700   2.130  0.1609 -0.3496 -0.0613
   16CHTO   O70 6465   5.496   2.702   2.192  0.0420 -0.5151 -0.1881
   16CHTO  H170 6466   5.429   2.744   2.142 -1.1015 -2.1961 -0.1099
   16CHTO   O57 6467   5.416   2.309   1.921  0.4110  0.1230  0.8219
   16CHTO   C85 6468   5.279   2.328   1.876 -0.1607  0.3202  0.0923
   16CHTO  H157 6469   5.289   2.361   1.770  1.1045  1.4306  0.5348
   16CHTO   C83 6470   5.226   2.453   1.958 -0.1413 -0.3602  0.1996
   16CHTO  H155 6471   5.288   2.535   1.922 -1.2002  1.8425  3.2429
   16CHTO   O56 6472   5.233   2.449   2.102  0.1366  0.7865 -0.1911
   16CHTO  H135 6473   5.290   2.380   2.132  1.1184  1.8398  0.3898
   16CHTO   C81 6474   5.082   2.479   1.903 -0.7199 -0.0137 -0.2255
   16CHTO  H153 6475   5.083   2.464   1.795  1.2858  1.9982 -0.5313
   16CHTO   N14 6476   5.038   2.617   1.926  0.2191  0.1178  0.1827
   16CHTO  H141 6477   5.078   2.684   1.852 -2.5208 -0.4305 -1.9237
   16CHTO  H142 6478   4.931   2.620   1.922  0.1983 -1.8513 -1.6728
   16CHTO   C79 6479   4.986   2.365   1.958 -0.2822 -0.0365  0.0776
   16CHTO  H151 6480   4.923   2.335   1.874 -1.4484 -0.9519  1.2508
   16CHTO   O52 6481   5.058   2.248   1.978  0.1636  0.6272  0.3071
   16CHTO   C86 6482   5.174   2.209   1.892 -0.3635 -0.6930 -0.1653
   16CHTO  H158 6483   5.233   2.126   1.934 -4.3363 -3.9520 -0.6693
   16CHTO   C90 6484   5.128   2.158   1.755  0.1253  0.3831 -0.3048
   16CHTO   O60 6485   5.073   2.029   1.771 -0.4563  0.2339 -0.0109
   16CHTO  H138 6486   4.985   2.021   1.740 -1.5299  1.7674  2.4768
   16CHTO   O50 6487   4.904   2.400   2.072  0.1146  0.4473  0.1344
   16CHTO   C73 6488   4.765   2.366   2.115 -0.0430 -0.5474 -0.2361
   16CHTO  H145 6489   4.755   2.257   2.115 -1.6584 -0.4112  0.5362
   16CHTO   C74 6490   4.658   2.435   2.029 -0.2995  0.2877 -0.0383
   16CHTO  H146 6491   4.676   2.403   1.926  1.0707  1.5916 -0.2165
   16CHTO   O54 6492   4.523   2.387   2.048  0.2447  0.3055 -0.0559
   16CHTO  H133 6493   4.512   2.300   2.015 -2.9769  1.6145 -2.8236
   16CHTO   C75 6494   4.664   2.588   2.038  0.0697 -0.4611 -0.3388
   16CHTO  H147 6495   4.764   2.618   2.004 -1.3633  3.9530 -0.9436
   16CHTO   N13 6496   4.579   2.670   1.949  0.0571  0.6859 -0.1880
   16CHTO  H139 6497   4.495   2.612   1.912  1.2361 -0.2222 -1.4985
   16CHTO  H140 6498   4.629   2.720   1.868  0.1161  0.8908 -0.0250
   16CHTO   C76 6499   4.678   2.640   2.189  0.6252 -0.1387 -0.3940
   16CHTO  H148 6500   4.575   2.640   2.225  0.0756  0.3969 -1.9101
   16CHTO   O49 6501   4.761   2.552   2.284  0.8716 -0.0584 -0.4976
   16CHTO   C77 6502   4.738   2.412   2.261  0.0558  0.1817  0.8872
   16CHTO  H149 6503   4.634   2.391   2.287 -0.0023 -1.7847 -0.8656
   16CHTO   C88 6504   4.824   2.325   2.358  0.3999  0.1426 -0.5408
   16CHTO   O58 6505   4.970   2.378   2.368 -0.2167  0.3102 -0.1604
   16CHTO  H136 6506   5.008   2.322   2.432 -0.8601 -1.5461 -1.3308
   16CHTO   O51 6507   4.768   2.791   2.182 -0.3870  0.3586  0.1147
   16CHTO   C78 6508   4.787   2.846   2.312  0.1883  0.4838  0.1009
   16CHTO  H150 6509   4.817   2.780   2.396 -1.4358 -1.6010 -0.9034
   16CHTO   C80 6510   4.671   2.937   2.356  1.0392  0.0518 -0.1487
   16CHTO  H152 6511   4.655   3.015   2.279 -1.0724 -0.2723 -0.0547
   16CHTO   O55 6512   4.554   2.851   2.371 -0.2457 -0.3164  0.3148
   16CHTO  H134 6513   4.499   2.893   2.434 -0.3886  2.1766 -1.4239
   16CHTO   C84 6514   4.700   3.004   2.494 -0.3470 -0.6623 -0.2332
   16CHTO  H156 6515   4.729   2.919   2.556  0.6016 -0.3684 -0.2670
   16CHTO   N15 6516   4.593   3.088   2.565 -0.3375 -0.2994  0.1684
   16CHTO  H143 6517   4.636   3.182   2.590  0.7361 -0.4935 -0.8932
   16CHTO  H144 6518   4.509   3.105   2.501 -1.7470 -0.2099  2.0168
   16CHTO   C87 6519   4.838   3.079   2.479 -0.1497  0.0838 -0.1039
   16CHTO  H159 6520   4.812   3.158   2.408 -2.5506  0.0143  0.6438
   16CHTO   O53 6521   4.948   2.993   2.423  0.5496 -0.4717  0.5584
   16CHTO   C82 6522   4.913   2.934   2.296  0.2167  0.0065 -0.5599
   16CHTO  H154 6523   4.890   3.016   2.228 -0.1706 -0.1172 -0.5821
   16CHTO   C89 6524   5.038   2.871   2.240  0.0654  0.1678 -0.5693
   16CHTO   O59 6525   5.089   2.768   2.319 -0.2375  0.6228 -0.0130
   16CHTO  H137 6526   5.034   2.694   2.302  0.5740  0.2652 -1.1597
   16CHTO   O45 6527   4.884   3.148   2.618  0.5922 -0.0041  1.0346
   16CHTO   C67 6528   4.990   3.242   2.609  0.2773 -0.5777 -0.1453
   16CHTO  H124 6529   5.076   3.197   2.560  1.3287  0.3368  0.8349
   16CHTO   C65 6530   4.934   3.368   2.532  0.1406 -0.3170 -0.8566
   16CHTO  H122 6531   4.828   3.352   2.512  0.5501 -2.0957 -1.7561
   16CHTO   O44 6532   4.995   3.376   2.406  0.7640 -0.1775 -0.6299
   16CHTO  H102 6533   4.974   3.302   2.352 -0.4604 -2.4731  2.7622
   16CHTO   C63 6534   4.941   3.499   2.614  0.3927 -0.3898  0.1775
   16CHTO  H120 6535   4.868   3.496   2.695 -1.3138 -1.0338 -1.3352
   16CHTO   N11 6536   4.888   3.623   2.542  0.0655 -0.5291 -0.7091
   16CHTO  H108 6537   4.891   3.704   2.611  1.3823 -0.4451 -0.8609
   16CHTO  H109 6538   4.782   3.609   2.538  0.2125 -1.3596 -2.5838
   16CHTO   C61 6539   5.088   3.518   2.671  0.5777 -0.3425  0.0819
   16CHTO  H118 6540   5.077   3.602   2.741  0.4757  0.2106 -0.5976
   16CHTO   O40 6541   5.134   3.402   2.753 -0.2588  1.0176 -0.2098
   16CHTO   C68 6542   5.040   3.288   2.754  0.6021 -0.4723 -0.3361
   16CHTO  H125 6543   4.951   3.298   2.820  1.3415 -3.2276  1.1320
   16CHTO   C72 6544   5.119   3.172   2.808 -0.0469 -0.4939 -0.4101
   16CHTO   O48 6545   5.048   3.054   2.824 -0.7458  0.5876 -0.1789
   16CHTO  H105 6546   5.090   2.994   2.882 -2.0895 -0.9077 -0.6895
   16CHTO   O38 6547   5.189   3.543   2.570 -0.3297 -0.2978  0.1751
   16CHTO   C55 6548   5.319   3.571   2.625 -0.0483  0.3803 -0.3860
   16CHTO  H112 6549   5.331   3.535   2.728  0.9605 -1.2209 -1.0521
   16CHTO   C56 6550   5.336   3.730   2.611  0.4071 -0.3488  0.5768
   16CHTO  H113 6551   5.312   3.763   2.508  2.4460 -0.8620 -0.0798
   16CHTO   O42 6552   5.235   3.791   2.691 -0.8334 -0.2310  0.0176
   16CHTO  H100 6553   5.234   3.884   2.680 -2.6405 -0.2181  0.2183
   16CHTO   C57 6554   5.480   3.782   2.645  0.5051  0.4044  0.8595
   16CHTO  H114 6555   5.502   3.769   2.751  1.6663  2.8703  0.9429
   16CHTO   N10 6556   5.499   3.926   2.618  0.1070  0.1431 -0.4755
   16CHTO  H106 6557   5.574   3.964   2.686 -0.5528 -3.1715  2.2386
   16CHTO  H107 6558   5.525   3.940   2.514  2.0886 -0.6970 -0.1188
   16CHTO   C58 6559   5.580   3.693   2.566 -0.0181 -0.2234 -0.2607
   16CHTO  H115 6560   5.571   3.701   2.455  1.4420 -0.4374 -0.4045
   16CHTO   O37 6561   5.562   3.555   2.606  0.1581  0.4001  0.1672
   16CHTO   C59 6562   5.434   3.493   2.561 -0.3111 -0.3345  0.0857
   16CHTO  H116 6563   5.427   3.488   2.452 -1.7413 -0.1821  0.1584
   16CHTO   C70 6564   5.434   3.349   2.609 -0.0276 -0.4235 -0.3787
   16CHTO   O46 6565   5.325   3.271   2.553 -0.4017 -0.4397 -0.0960
   16CHTO  H103 6566   5.251   3.325   2.535 -0.3451 -0.2919  0.1134
   16CHTO   O39 6567   5.725   3.732   2.616 -0.0045  0.0732 -0.4762
   16CHTO   C60 6568   5.826   3.721   2.516  0.0126 -0.4944  0.4522
   16CHTO  H117 6569   5.787   3.677   2.424 -0.1190  1.8985 -0.6529
   16CHTO   C62 6570   5.883   3.862   2.477 -0.2888  0.3792 -0.1398
   16CHTO  H119 6571   5.806   3.926   2.429 -0.5664 -0.2283 -0.5058
   16CHTO   O43 6572   5.934   3.918   2.601 -0.2095  0.0373  1.5135
   16CHTO  H101 6573   5.872   3.932   2.670  1.1334  1.2490  2.4852
   16CHTO   C66 6574   6.004   3.833   2.371 -0.2817  0.1159 -0.6596
   16CHTO  H123 6575   5.964   3.786   2.281 -0.9354 -2.0744  0.7374
   16CHTO   N12 6576   6.059   3.961   2.309  0.1849  0.2475  0.0167
   16CHTO  H110 6577   6.133   3.937   2.235 -1.5290 -0.1050 -1.5990
   16CHTO  H111 6578   6.082   4.044   2.375 -0.1979  0.1681  0.2546
   16CHTO   C69 6579   6.110   3.739   2.435  0.3138  0.2137 -0.4775
   16CHTO  H126 6580   6.154   3.796   2.519 -0.2977 -0.7095  0.4799
   16CHTO   O41 6581   6.024   3.607   2.467  0.0915  0.2861  0.1041
   16CHTO   C64 6582   5.946   3.633   2.567 -0.0953  0.3030  0.0455
   16CHTO  H121 6583   5.996   3.689   2.648  2.8445 -1.9129 -0.1730
   16CHTO   C71 6584   5.899   3.496   2.628 -0.6451  0.0169  0.0797
   16CHTO   O47 6585   5.805   3.425   2.554 -0.0353 -0.1876 -0.3446
   16CHTO  H104 6586   5.770   3.355   2.605 -1.9395  1.0612  0.0688
   16CHTO   O34 6587   6.234   3.715   2.331  0.0828  0.6916  0.5290
   16CHTO   C49 6588   6.289   3.572   2.274  0.2564  0.8410  0.0066
   16CHTO   H91 6589   6.241   3.499   2.339 -3.2383  2.2191 -0.8761
   16CHTO   C47 6590   6.438   3.548   2.318 -0.3006  0.9271 -0.2031
   16CHTO   H89 6591   6.436   3.500   2.418 -0.4020 -0.0841 -0.6849
   16CHTO   O33 6592   6.512   3.672   2.327 -0.8881  0.2913 -0.5983
   16CHTO   H70 6593   6.603   3.656   2.347 -1.4554 -2.0543  0.2657
   16CHTO   C45 6594   6.515   3.454   2.208  0.6391  0.1392 -0.0034
   16CHTO   H87 6595   6.539   3.518   2.122  1.9089  1.2006  1.1249
   16CHTO    N8 6596   6.645   3.393   2.259  0.2964 -0.2523 -0.1060
   16CHTO   H75 6597   6.630   3.356   2.360 -0.6074 -1.9200 -0.8203
   16CHTO   H76 6598   6.722   3.467   2.270  0.7263 -0.8848  1.3557
   16CHTO   C43 6599   6.413   3.347   2.150  0.4746  0.2673 -0.5532
   16CHTO   H85 6600   6.468   3.285   2.079  1.8855 -0.8679  1.4751
   16CHTO   O29 6601   6.304   3.417   2.082  0.2557 -0.3294 -0.0918
   16CHTO   C50 6602   6.254   3.544   2.132  0.5527 -0.1831 -0.2405
   16CHTO   H92 6603   6.289   3.625   2.066  2.8657  0.8758  2.1609
   16CHTO   C54 6604   6.105   3.543   2.106  0.2204 -0.0772  0.0977
   16CHTO   O36 6605   6.060   3.536   1.971  0.4978 -0.1173  0.2007
   16CHTO   H72 6606   6.023   3.451   1.960 -0.3241  0.1294  1.0787
   16CHTO   O27 6607   6.371   3.258   2.252 -0.4875  0.3718  0.0803
   16CHTO   C37 6608   6.304   3.137   2.258 -0.1945 -0.0395  0.4753
   16CHTO   H79 6609   6.314   3.093   2.358  3.2980 -0.4247  0.0295
   16CHTO   C38 6610   6.154   3.150   2.212  1.0420  0.4919  0.2060
   16CHTO   H80 6611   6.147   3.186   2.108 -0.0380  0.4240  0.2458
   16CHTO   O31 6612   6.078   3.234   2.303  0.1543 -0.2328  0.3104
   16CHTO   H68 6613   6.091   3.197   2.388  0.3627 -2.4862 -0.6802
   16CHTO   C39 6614   6.084   2.998   2.193  0.3237 -0.4616  0.2173
   16CHTO   H81 6615   6.081   2.967   2.297  1.7278 -0.3000  0.3183
   16CHTO    N7 6616   5.948   3.017   2.131 -0.2681  0.2194 -0.5932
   16CHTO   H73 6617   5.908   3.117   2.126 -0.3780  0.2182  0.2282
   16CHTO   H74 6618   5.878   2.972   2.199 -1.7025 -3.4038 -4.2943
   16CHTO   C40 6619   6.182   2.911   2.103 -0.2011  0.3953  0.2523
   16CHTO   H82 6620   6.190   2.947   2.000  1.1272 -0.6599 -0.0339
   16CHTO   O26 6621   6.311   2.905   2.168  0.3948  0.0529  0.0153
   16CHTO   C41 6622   6.379   3.034   2.163  0.5191 -0.3760  0.3831
   16CHTO   H83 6623   6.387   3.077   2.061 -0.2915 -1.9222 -0.3506
   16CHTO   C52 6624   6.526   3.025   2.210 -0.1924  0.2307 -0.1273
   16CHTO   O35 6625   6.622   2.908   2.145  0.3430 -0.3566  0.5313
   16CHTO   H71 6626   6.703   2.908   2.191  1.5635  1.3132 -1.5275
   16CHTO   O28 6627   6.129   2.777   2.098  0.3115  0.0701 -0.1845
   16CHTO   C42 6628   6.204   2.650   2.071  0.5285 -0.3428 -0.3121
   16CHTO   H84 6629   6.302   2.670   2.116  1.4865 -1.8375 -1.6723
   16CHTO   C44 6630   6.236   2.609   1.919  0.6916 -0.2445 -0.3313
   16CHTO   H86 6631   6.140   2.603   1.866  0.3236 -0.3707  0.3430
   16CHTO   O32 6632   6.317   2.713   1.859  0.5122 -0.5130 -0.4376
   16CHTO   H69 6633   6.406   2.709   1.887  0.7801 -0.9217 -1.3292
   16CHTO   C48 6634   6.298   2.466   1.907 -0.8180 -0.3654 -0.1934
   16CHTO   H90 6635   6.406   2.468   1.926 -0.7617 -1.3510 -0.3819
   16CHTO    N9 6636   6.290   2.413   1.768  0.1071 -0.5063 -0.3987
   16CHTO   H77 6637   6.311   2.307   1.767  1.5087 -0.2511  0.0782
   16CHTO   H78 6638   6.360   2.463   1.703  2.4147 -0.3725  2.0791
   16CHTO   C51 6639   6.230   2.365   2.014  0.0375 -0.0781 -0.5128
   16CHTO   H93 6640   6.128   2.336   1.988 -0.1043  0.0596 -0.1135
   16CHTO   O30 6641   6.236   2.417   2.144 -0.0656  0.2293  0.6258
   16CHTO   C46 6642   6.141   2.530   2.158 -0.3325 -0.0366  0.1262
   16CHTO   H88 6643   6.040   2.506   2.123  0.1598 -0.3547 -1.1106
   16CHTO   C53 6644   6.134   2.555   2.313 -0.1604  0.2960  0.2367
   16CHTO   O72 6645   6.077   2.685   2.347 -0.1338  0.7929 -0.6043
   16CHTO  H199 6646   6.147   2.747   2.333 -0.1474  0.8042 -0.6194
   16CHTO   O22 6647   6.296   2.241   2.024 -0.5246  0.5232 -0.4490
   16CHTO   C31 6648   6.248   2.125   2.096  0.0658  0.3971 -0.0013
   16CHTO   H59 6649   6.162   2.154   2.160  0.1311 -0.9686  0.7120
   16CHTO   C29 6650   6.193   2.015   2.005 -0.3548  0.1762  0.3704
   16CHTO   H57 6651   6.278   1.970   1.952  0.6369  0.3344  1.8107
   16CHTO   O21 6652   6.114   2.076   1.903 -0.1732 -0.3433  0.4245
   16CHTO   H37 6653   6.028   2.068   1.940 -1.0920  1.5745 -1.1946
   16CHTO   C27 6654   6.131   1.900   2.092 -0.1996 -0.1614 -0.0399
   16CHTO   H55 6655   6.036   1.937   2.133  1.2641  0.9912  2.4289
   16CHTO    N5 6656   6.098   1.775   2.014 -0.2592 -0.3701  0.4585
   16CHTO   H43 6657   5.997   1.756   2.047 -1.1112  1.7766 -0.8911
   16CHTO   H44 6658   6.107   1.794   1.909  0.7198 -1.7045  0.2822
   16CHTO   C25 6659   6.234   1.861   2.201  0.2913  0.0793 -0.1581
   16CHTO   H53 6660   6.327   1.819   2.160  0.7149 -0.0134  0.8743
   16CHTO   O17 6661   6.276   1.976   2.278  0.6557 -0.4293  0.0959
   16CHTO   C32 6662   6.349   2.068   2.194 -0.9166  0.2962  0.3037
   16CHTO   H60 6663   6.430   2.016   2.142 -0.3642 -0.3836  1.8165
   16CHTO   C36 6664   6.402   2.172   2.286 -0.1205  0.3483  0.5746
   16CHTO   O25 6665   6.482   2.262   2.209 -0.1229 -0.0337  0.3770
   16CHTO   H40 6666   6.569   2.230   2.194  0.9136  2.2038  1.4141
   16CHTO   O15 6667   6.176   1.741   2.309  0.3743  0.0808 -0.3476
   16CHTO   C19 6668   6.074   1.688   2.403  0.0216 -0.2193 -0.7626
   16CHTO   H47 6669   6.127   1.613   2.464 -0.1567 -0.5516 -1.0180
   16CHTO   C20 6670   6.015   1.806   2.487  0.4211  0.1696 -0.1028
   16CHTO   H48 6671   5.967   1.880   2.422  0.2085 -0.6372 -0.8650
   16CHTO   O19 6672   6.122   1.872   2.558 -0.6490  0.2395  0.1274
   16CHTO   H35 6673   6.109   1.965   2.550  0.4606  0.3217 -0.9094
   16CHTO   C21 6674   5.898   1.748   2.577  0.8018 -0.1722 -0.0028
   16CHTO   H49 6675   5.942   1.679   2.649 -0.2847 -1.6086 -0.6967
   16CHTO    N4 6676   5.823   1.853   2.656  0.6587 -0.1290  0.2112
   16CHTO   H41 6677   5.864   1.948   2.687 -1.1414  0.3319  1.3166
   16CHTO   H42 6678   5.758   1.809   2.730  1.2066 -1.5492 -0.1480
   16CHTO   C22 6679   5.796   1.668   2.486 -0.4337 -0.1299 -0.5445
   16CHTO   H50 6680   5.748   1.739   2.417  0.1149  2.7477  1.9172
   16CHTO   O14 6681   5.867   1.563   2.415  0.5227 -0.2530 -0.3867
   16CHTO   C23 6682   5.971   1.610   2.324  0.5416 -0.1704 -0.2370
   16CHTO   H51 6683   5.918   1.674   2.252 -0.5246 -0.0258  0.6638
   16CHTO   C34 6684   6.029   1.486   2.245 -0.1944 -0.0236 -0.2103
   16CHTO   O23 6685   5.957   1.451   2.130 -0.0694 -0.9935  0.0633
   16CHTO   H38 6686   5.872   1.490   2.118  0.4462 -0.7766 -3.4063
   16CHTO   O16 6687   5.692   1.595   2.556  0.1209 -0.0527 -0.4726
   16CHTO   C24 6688   5.556   1.578   2.466 -0.0771 -0.1642 -0.2805
   16CHTO   H52 6689   5.571   1.616   2.365  2.5262 -1.5953 -0.4833
   16CHTO   C26 6690   5.434   1.661   2.515 -0.6019  0.1515  0.8207
   16CHTO   H54 6691   5.414   1.638   2.621 -0.3296 -0.6411  0.7003
   16CHTO   O20 6692   5.475   1.795   2.501 -0.4528  0.0122  0.2979
   16CHTO   H36 6693   5.401   1.853   2.502  0.5396  1.3084  0.1035
   16CHTO   C30 6694   5.308   1.639   2.431 -0.5226  0.5009  0.0951
   16CHTO   H58 6695   5.325   1.685   2.333  0.2829 -0.8407 -0.4080
   16CHTO    N6 6696   5.192   1.714   2.490 -0.0959 -0.6572  0.1516
   16CHTO   H45 6697   5.192   1.817   2.458 -1.9717 -0.8199 -0.4732
   16CHTO   H46 6698   5.098   1.667   2.463  0.6500 -2.7495  1.1177
   16CHTO   C33 6699   5.291   1.489   2.402  0.3235  0.7339  0.4033
   16CHTO   H61 6700   5.250   1.432   2.486 -0.2849 -0.5124 -0.7111
   16CHTO   O18 6701   5.417   1.424   2.364  0.0353 -0.0427 -0.1829
   16CHTO   C28 6702   5.518   1.427   2.458  0.3240 -0.1963  0.1425
   16CHTO   H56 6703   5.475   1.407   2.556  0.1424  0.6631  0.2426
   16CHTO   C35 6704   5.628   1.336   2.398 -0.3746  0.6860  0.5370
   16CHTO   O24 6705   5.742   1.320   2.478 -0.5434  0.3412  0.1716
   16CHTO   H39 6706   5.704   1.265   2.545 -1.9136  1.2154  0.1445
   16CHTO    O9 6707   5.193   1.474   2.306  0.1881  0.6507  0.4083
   16CHTO   C13 6708   5.141   1.320   2.284  0.1737 -0.7472 -0.1279
   16CHTO   H26 6709   5.181   1.261   2.369 -1.0019  0.7495  1.4890
   16CHTO   C11 6710   5.196   1.269   2.143 -0.0923  0.6003  0.4746
   16CHTO   H24 6711   5.306   1.271   2.152 -0.2317 -1.1525  3.1827
   16CHTO    O8 6712   5.150   1.362   2.048  0.1517 -0.2340 -0.1101
   16CHTO    H3 6713   5.194   1.442   2.068  2.1081 -1.2379 -0.3186
   16CHTO    C9 6714   5.152   1.122   2.121 -0.3895  0.5299  0.5362
   16CHTO   H22 6715   5.211   1.064   2.193  2.0388  2.4430  0.1566
   16CHTO    N2 6716   5.195   1.063   1.991 -0.3275 -0.0665 -0.1173
   16CHTO   H10 6717   5.160   1.124   1.909  0.9094  1.0947  0.1994
   16CHTO   H11 6718   5.158   0.964   1.971 -0.1374 -0.1197 -0.2069
   16CHTO    C7 6719   5.002   1.104   2.159  0.8086  0.0666  0.1255
   16CHTO   H20 6720   4.993   1.059   2.260 -1.6265 -1.0411 -0.5702
   16CHTO    O4 6721   4.934   1.236   2.156 -0.3060 -0.3876  0.0702
   16CHTO   C14 6722   4.976   1.310   2.276  0.3400 -0.2820  0.0384
   16CHTO   H27 6723   4.934   1.269   2.371  0.0825  0.0418  0.0636
   16CHTO   C18 6724   4.924   1.453   2.265  0.7056 -0.6832 -0.3308
   16CHTO   O13 6725   4.790   1.471   2.231  0.7049 -0.0543  0.0525
   16CHTO    H7 6726   4.730   1.424   2.285  2.3290  0.1955  2.1263
   16CHTO    O2 6727   4.914   0.980   2.057  0.0041 -0.4962 -0.1676
   16CHTO    C1 6728   4.790   0.939   2.111 -0.5165  0.1852  0.5138
   16CHTO   H14 6729   4.741   0.874   2.035  0.7489 -1.0555  0.7422
   16CHTO    C2 6730   4.687   1.057   2.142  0.3031  0.4421  0.1702
   16CHTO   H15 6731   4.724   1.125   2.219  0.0657  1.0036 -0.2065
   16CHTO    O6 6732   4.671   1.132   2.023 -0.4356 -0.1457 -0.0845
   16CHTO    H1 6733   4.580   1.152   2.015 -0.5560  2.0608  5.0344
   16CHTO    C3 6734   4.559   0.999   2.213  0.0735  0.3532 -0.0325
   16CHTO   H16 6735   4.500   0.928   2.152  0.1278 -0.8537  1.3050
   16CHTO    N1 6736   4.460   1.110   2.246  0.3522  0.1077 -0.0109
   16CHTO    H8 6737   4.384   1.061   2.304  1.5433  0.1724  1.6353
   16CHTO    H9 6738   4.487   1.209   2.277  0.4606  0.1009 -0.0816
   16CHTO    C4 6739   4.590   0.914   2.342  0.6166  0.2825 -0.2607
   16CHTO   H17 6740   4.628   0.981   2.420  1.4271 -1.0854  0.5419
   16CHTO    O1 6741   4.684   0.813   2.305  0.1140  0.6409 -0.2246
   16CHTO    C5 6742   4.811   0.859   2.248 -0.1248 -0.5518 -0.0234
   16CHTO   H18 6743   4.867   0.917   2.321 -1.6571  1.7836 -0.6435
   16CHTO   C16 6744   4.894   0.730   2.214  0.1595 -0.3207  0.1757
   16CHTO   O11 6745   5.031   0.747   2.168  0.6531 -0.7081 -0.4153
   16CHTO    H5 6746   5.071   0.666   2.140  2.7471  0.2340 -0.2774
   16CHTO    O3 6747   4.479   0.838   2.393 -0.4394  0.2043  0.0726
   16CHTO    C6 6748   4.489   0.806   2.533 -0.5975  0.4150 -0.9217
   16CHTO   H19 6749   4.589   0.819   2.573  0.2179 -2.2677 -2.0082
   16CHTO    C8 6750   4.398   0.899   2.623  0.1238  0.1906 -0.1109
   16CHTO   H21 6751   4.298   0.886   2.580 -0.4533 -1.3806  1.6359
   16CHTO    O7 6752   4.444   1.035   2.608  0.3907  0.2294  0.2127
   16CHTO    H2 6753   4.380   1.092   2.646 -0.9754  0.6441 -2.5809
   16CHTO   C12 6754   4.403   0.847   2.774  0.8783  0.3816  0.1497
   16CHTO   H25 6755   4.504   0.871   2.813  0.6328 -1.6548  2.1950
   16CHTO    N3 6756   4.309   0.927   2.865  0.1745  0.5709 -0.2334
   16CHTO   H12 6757   4.359   1.015   2.900  0.5340  0.0573  0.5514
   16CHTO   H13 6758   4.274   0.868   2.949  1.0509 -0.4718 -0.5880
   16CHTO   C15 6759   4.389   0.690   2.789 -0.4839 -0.3025 -0.5743
   16CHTO   H28 6760   4.291   0.644   2.783 -0.0095 -1.5726  0.9787
   16CHTO   O10 6761   4.449   0.648   2.924 -0.2947  0.4667  0.3736
   16CHTO    H4 6762   4.435   0.558   2.947  1.3478  0.0880 -0.0416
   16CHTO    O5 6763   4.473   0.627   2.697  0.1005  0.9190  0.0309
   16CHTO   C10 6764   4.444   0.656   2.557  0.2713 -0.2511  0.3306
   16CHTO   H23 6765   4.337   0.644   2.548  0.2393 -1.6668  2.1266
   16CHTO   C17 6766   4.521   0.557   2.467 -0.0260 -0.0125 -0.1460
   16CHTO   O12 6767   4.469   0.427   2.495  0.0051 -0.0492  0.1430
   16CHTO    H6 6768   4.438   0.392   2.414  0.5207 -0.7685  0.2530
   17CHTO  H203 6769   3.423   4.675   1.278  0.2602  0.3063 -1.4253
   17CHTO   O82 6770   3.485   4.605   1.278 -0.0410  0.0294 -0.4800
   17CHTO  C123 6771   3.595   4.659   1.349  0.4541 -0.0099 -0.3475
   17CHTO  H227 6772   3.573   4.649   1.457  0.7183  1.2555 -0.1744
   17CHTO   O77 6773   3.711   4.572   1.306  0.4184  0.2357  0.5142
   17CHTO  C118 6774   3.845   4.610   1.348  0.3331 -0.9263  0.8753
   17CHTO  H222 6775   3.840   4.594   1.456  1.3876  0.1898  1.0977
   17CHTO  C125 6776   3.955   4.509   1.288  0.5846 -0.2270 -0.5672
   17CHTO   O84 6777   3.937   4.382   1.347 -0.2082 -0.3005  0.0862
   17CHTO  H205 6778   3.990   4.318   1.304  0.8631  1.5193 -1.3192
   17CHTO  C114 6779   3.868   4.755   1.304 -0.8317  0.3361  0.2519
   17CHTO  H218 6780   3.853   4.761   1.196 -0.1244 -0.8541  0.0732
   17CHTO  C116 6781   3.761   4.848   1.369  0.9078 -0.5564 -0.0702
   17CHTO  H220 6782   3.773   4.835   1.478  3.4423  2.0619  0.0512
   17CHTO   O79 6783   3.796   4.985   1.336 -0.0351 -0.2159  0.3385
   17CHTO  H201 6784   3.859   5.018   1.397  0.1805 -0.2265  0.1238
   17CHTO  C120 6785   3.621   4.809   1.309 -0.3133 -0.8197  0.9128
   17CHTO  H224 6786   3.642   4.813   1.200  0.1044 -0.9792  0.9871
   17CHTO   N21 6787   3.507   4.898   1.341 -0.3270  0.9477 -0.4702
   17CHTO  H211 6788   3.487   4.970   1.263 -0.0139  0.8167 -0.6730
   17CHTO  H212 6789   3.518   4.942   1.439 -0.7645  1.6299 -0.7188
   17CHTO   O75 6790   4.004   4.792   1.347 -0.6422  0.1594 -0.3857
   17CHTO  C112 6791   4.084   4.872   1.232  0.0913 -0.1597 -0.1367
   17CHTO  H216 6792   4.020   4.949   1.186 -0.2963  0.4056  1.3510
   17CHTO   O73 6793   4.130   4.775   1.136  0.5917  0.1404  0.1040
   17CHTO  C113 6794   4.203   4.839   1.025  1.0802 -0.1964  0.6023
   17CHTO  H217 6795   4.136   4.906   0.967 -0.4827 -1.2508  1.1404
   17CHTO  C124 6796   4.229   4.734   0.920  0.0258  0.7985 -0.6181
   17CHTO   O83 6797   4.314   4.632   0.982 -0.0279 -0.1405  0.1511
   17CHTO  H204 6798   4.366   4.583   0.920 -2.4622  0.6743 -2.6562
   17CHTO  C109 6799   4.330   4.912   1.061 -0.3710  0.5878  0.0013
   17CHTO  H213 6800   4.394   4.832   1.103 -3.4720 -1.6160  0.6823
   17CHTO  C110 6801   4.292   5.016   1.168  0.4625  0.3471  0.0977
   17CHTO  H214 6802   4.231   5.094   1.123  0.6256 -0.1577 -1.0033
   17CHTO   O78 6803   4.411   5.083   1.214  0.2263 -0.4766  0.6162
   17CHTO  H200 6804   4.427   5.066   1.305 -1.3111  2.6070  1.5380
   17CHTO  C111 6805   4.218   4.948   1.283  0.3956  0.0734 -0.4076
   17CHTO  H215 6806   4.288   4.879   1.332 -0.7773 -2.1949 -1.8796
   17CHTO   N19 6807   4.182   5.048   1.391  0.4133 -0.3430 -0.6519
   17CHTO  H207 6808   4.123   5.009   1.474 -0.8095  0.4235 -1.1515
   17CHTO  H208 6809   4.273   5.090   1.431 -0.4908  1.1485 -0.1354
   17CHTO   O74 6810   4.387   4.977   0.945  0.5446 -0.3923 -0.0865
   17CHTO  C115 6811   4.557   5.002   0.959  0.1566 -0.0237  0.2761
   17CHTO  H219 6812   4.592   5.011   1.062  3.3762  2.3749 -0.9115
   17CHTO   O76 6813   4.622   4.891   0.911 -0.2303 -0.5251  0.2566
   17CHTO  C122 6814   4.769   4.898   0.902 -0.5284  0.2792 -0.1020
   17CHTO  H226 6815   4.806   4.811   0.848  0.7778  0.6951  0.0855
   17CHTO  C126 6816   4.830   4.886   1.046 -0.0730 -0.2564 -0.4793
   17CHTO   O85 6817   4.970   4.898   1.045  0.4021  0.1292  0.4147
   17CHTO  H206 6818   5.016   4.911   1.126 -0.3915  1.4679  0.6632
   17CHTO  C121 6819   4.826   5.029   0.834 -0.0256 -1.0054  0.2779
   17CHTO  H225 6820   4.935   5.038   0.848 -0.0552  0.9136 -0.5920
   17CHTO   O81 6821   4.800   5.015   0.694  0.2792  0.0991 -0.3231
   17CHTO  H202 6822   4.712   4.984   0.682  0.2017  1.0940 -2.5036
   17CHTO  C119 6823   4.758   5.164   0.893 -0.1996 -0.7898 -0.5002
   17CHTO  H223 6824   4.789   5.166   0.997 -0.3309 -2.7588 -0.3947
   17CHTO  C117 6825   4.608   5.142   0.888 -0.0210  0.1120  0.6668
   17CHTO  H221 6826   4.571   5.124   0.786 -0.8944  0.4786  0.9141
   17CHTO   N20 6827   4.533   5.256   0.932  0.3314 -0.3622  0.8300
   17CHTO  H209 6828   4.572   5.341   0.878 -0.4785 -1.2990 -1.2828
   17CHTO  H210 6829   4.538   5.252   1.040  0.6479 -0.5452  0.8107
   17CHTO   O80 6830   4.832   5.291   0.834  0.7819  0.3658 -0.5173
   17CHTO  C103 6831   4.926   5.371   0.931 -0.4038 -0.1012  0.2675
   17CHTO  H190 6832   4.876   5.381   1.027 -0.5288  1.8775  0.0104
   17CHTO  C101 6833   5.079   5.318   0.947  0.2165 -0.0537 -0.3917
   17CHTO  H188 6834   5.117   5.304   0.846 -1.5056  2.0734 -1.3775
   17CHTO   O68 6835   5.090   5.199   1.041 -0.3235  0.6235 -0.0917
   17CHTO  H168 6836   5.091   5.120   0.992 -2.6958  1.7290 -2.0136
   17CHTO   C99 6837   5.162   5.433   1.009 -0.5493  0.3932  0.6680
   17CHTO  H186 6838   5.142   5.449   1.117  2.3541 -0.9458  1.4677
   17CHTO   N17 6839   5.308   5.397   1.014  0.4507  0.8670  0.3638
   17CHTO  H174 6840   5.367   5.418   0.926  1.4326 -0.4509  0.6827
   17CHTO  H175 6841   5.361   5.432   1.101  0.7086 -0.4865  0.7629
   17CHTO   C97 6842   5.138   5.574   0.948 -0.0444  0.2928  0.3531
   17CHTO  H184 6843   5.189   5.579   0.850  2.7276  0.5888  1.7758
   17CHTO   O64 6844   4.998   5.615   0.944  0.1650 -0.7443 -0.3630
   17CHTO  C104 6845   4.917   5.514   0.869 -0.0960  0.1267  0.3538
   17CHTO  H191 6846   4.943   5.513   0.763 -1.5923  0.6276 -0.0301
   17CHTO  C108 6847   4.773   5.568   0.865 -0.6162  0.6242 -0.3379
   17CHTO   O71 6848   4.716   5.585   0.990  0.2252 -0.1585  0.4652
   17CHTO  H171 6849   4.673   5.503   1.007  3.6300 -2.1302  0.0095
   17CHTO   O62 6850   5.195   5.674   1.035  0.4027  0.2772 -0.4128
   17CHTO   C91 6851   5.223   5.806   0.991  0.0312  0.9735 -0.4564
   17CHTO  H178 6852   5.186   5.806   0.888  0.9696  0.7471 -0.7982
   17CHTO   C92 6853   5.374   5.815   0.985 -0.1874 -0.0056 -0.1781
   17CHTO  H179 6854   5.420   5.763   1.070  1.3933 -0.5270 -1.3158
   17CHTO   O66 6855   5.413   5.735   0.876 -0.2559 -0.5522 -0.3443
   17CHTO  H166 6856   5.501   5.707   0.893  0.0378  1.2002  1.2292
   17CHTO   C93 6857   5.433   5.959   0.968  0.5159  0.6966  1.0143
   17CHTO  H180 6858   5.415   5.988   0.864  1.5115  0.6933  0.8396
   17CHTO   N16 6859   5.579   5.952   0.985 -0.0132  0.0681  0.4831
   17CHTO  H172 6860   5.624   6.050   0.989 -0.4077  0.3744 -1.8073
   17CHTO  H173 6861   5.617   5.895   0.902 -0.1822  0.0097  0.4450
   17CHTO   C94 6862   5.365   6.060   1.068  0.1231  0.7660  0.6768
   17CHTO  H181 6863   5.382   6.030   1.171  1.9536 -1.5396 -0.2526
   17CHTO   O61 6864   5.222   6.051   1.042 -0.7768  0.0411  0.5624
   17CHTO   C95 6865   5.164   5.925   1.079 -0.6557  0.0864  0.4593
   17CHTO  H182 6866   5.182   5.908   1.185 -1.2673  1.5652  0.8057
   17CHTO  C106 6867   5.009   5.943   1.047 -0.2924 -0.1797 -0.0298
   17CHTO   O69 6868   4.935   5.828   1.085  0.1664  0.6153 -0.4363
   17CHTO  H169 6869   4.855   5.825   1.037  0.2547  2.6075 -0.7708
   17CHTO   O63 6870   5.407   6.210   1.048 -0.1252  0.1208  0.1799
   17CHTO   C96 6871   5.342   6.325   1.173 -0.4723 -0.4566  0.4887
   17CHTO  H183 6872   5.400   6.312   1.264  1.6331  2.9969 -0.2872
   17CHTO   C98 6873   5.192   6.334   1.205 -0.4932  0.2310 -0.2401
   17CHTO  H185 6874   5.144   6.341   1.106  0.4650 -0.2854 -0.7502
   17CHTO   O67 6875   5.155   6.203   1.255  0.6047  0.7922 -0.1549
   17CHTO  H167 6876   5.068   6.177   1.233  0.3190  0.0102  1.7667
   17CHTO  C102 6877   5.160   6.448   1.305  0.1066 -0.1226 -0.8655
   17CHTO  H189 6878   5.224   6.425   1.392 -0.2161 -1.2331 -0.9128
   17CHTO   N18 6879   5.020   6.457   1.353  0.1382  0.1185  0.2087
   17CHTO  H176 6880   5.015   6.440   1.460 -0.1637  0.8638  0.3121
   17CHTO  H177 6881   4.972   6.374   1.303  1.1260 -0.0742 -0.4275
   17CHTO  C105 6882   5.214   6.581   1.249  0.7830 -0.5138  1.3354
   17CHTO  H192 6883   5.153   6.617   1.167  1.3211  1.6263  1.8323
   17CHTO   O65 6884   5.348   6.567   1.204 -0.0555  0.2632  0.0128
   17CHTO  C100 6885   5.373   6.462   1.112 -0.1556 -0.2516 -0.1364
   17CHTO  H187 6886   5.315   6.475   1.019  0.3544  0.0524 -0.4111
   17CHTO  C107 6887   5.523   6.482   1.079 -0.0947  0.3481  0.2670
   17CHTO   O70 6888   5.603   6.507   1.192  0.2211 -0.0099 -0.0283
   17CHTO  H170 6889   5.683   6.460   1.183 -0.1901 -0.9432  1.0857
   17CHTO   O57 6890   5.210   6.701   1.373  0.1757  0.2233 -0.1920
   17CHTO   C85 6891   5.333   6.741   1.429  0.5848 -0.2330 -0.6233
   17CHTO  H157 6892   5.393   6.759   1.337  2.0008 -1.6761 -0.0163
   17CHTO   C83 6893   5.411   6.629   1.509  0.0439  0.1292 -0.2745
   17CHTO  H155 6894   5.443   6.551   1.438 -1.3616 -1.6706  1.0345
   17CHTO   O56 6895   5.325   6.560   1.598  0.3801  0.4090  0.3093
   17CHTO  H135 6896   5.355   6.546   1.686 -0.4405 -2.5013  0.1734
   17CHTO   C81 6897   5.542   6.694   1.570 -0.4170  0.2538  0.3757
   17CHTO  H153 6898   5.599   6.740   1.489 -0.6121  0.9120  0.6055
   17CHTO   N14 6899   5.638   6.600   1.631 -0.0122  0.4146  0.1200
   17CHTO  H141 6900   5.585   6.519   1.677  1.6685  0.0437  1.4542
   17CHTO  H142 6901   5.702   6.649   1.701  0.7354  0.3583 -0.5169
   17CHTO   C79 6902   5.498   6.810   1.670  0.0527  0.0933 -0.5222
   17CHTO  H151 6903   5.589   6.845   1.719 -1.4449 -0.9591  3.1878
   17CHTO   O52 6904   5.438   6.914   1.588  0.2044  0.1666  0.1349
   17CHTO   C86 6905   5.317   6.874   1.516  0.8898 -0.2600  0.0818
   17CHTO  H158 6906   5.235   6.852   1.587  0.5157  0.5190 -0.1008
   17CHTO   C90 6907   5.266   6.995   1.433  0.3034 -0.7307  0.3118
   17CHTO   O60 6908   5.208   7.086   1.531 -0.0816  0.0755 -0.2898
   17CHTO  H138 6909   5.184   7.168   1.492 -0.3253 -0.0811 -0.4687
   17CHTO   O50 6910   5.415   6.749   1.776  0.0930 -0.0467  0.3067
   17CHTO   C73 6911   5.380   6.759   1.914  0.6084  0.1376 -0.5770
   17CHTO  H145 6912   5.436   6.836   1.969  1.3865 -0.4758 -0.4811
   17CHTO   C74 6913   5.404   6.622   1.988  0.1488  0.5398  0.9555
   17CHTO  H146 6914   5.513   6.610   1.978 -0.0230  0.1111 -0.5278
   17CHTO   O54 6915   5.380   6.625   2.131 -0.6564 -0.5003 -0.7538
   17CHTO  H133 6916   5.392   6.714   2.160  0.3358 -0.8455 -0.0739
   17CHTO   C75 6917   5.326   6.508   1.918  0.5366  0.2304 -0.2905
   17CHTO  H147 6918   5.370   6.501   1.817 -1.0075 -2.7662 -0.7920
   17CHTO   N13 6919   5.338   6.377   1.979  0.3077 -0.3239 -0.0483
   17CHTO  H139 6920   5.438   6.367   2.020  0.0815  3.2738  1.5605
   17CHTO  H140 6921   5.267   6.369   2.060  1.5961  3.1096  1.5398
   17CHTO   C76 6922   5.166   6.552   1.906  0.5705  0.1186 -0.0542
   17CHTO  H148 6923   5.121   6.545   2.005  0.6966  2.8675  0.2281
   17CHTO   O49 6924   5.154   6.688   1.852  0.3709  0.0279 -0.5423
   17CHTO   C77 6925   5.229   6.788   1.923 -1.1088  0.0861  0.5494
   17CHTO  H149 6926   5.195   6.789   2.026  0.7442  2.4931  1.1760
   17CHTO   C88 6927   5.199   6.925   1.857  0.4730  0.4453 -0.7249
   17CHTO   O58 6928   5.071   6.959   1.874  0.6243  0.4115 -0.4434
   17CHTO  H136 6929   5.033   6.961   1.960  1.4848 -0.0257 -0.0376
   17CHTO   O51 6930   5.090   6.463   1.806 -0.2198 -0.1182 -0.8925
   17CHTO   C78 6931   4.945   6.403   1.872  0.3176 -0.3673 -1.0112
   17CHTO  H150 6932   4.925   6.439   1.975 -1.7713  0.2699 -1.6251
   17CHTO   C80 6933   4.945   6.256   1.873  0.2100  1.1153 -0.0996
   17CHTO  H152 6934   4.973   6.220   1.772 -2.7746  2.0569 -1.3028
   17CHTO   O55 6935   5.049   6.211   1.957  0.1581  0.5325  0.0029
   17CHTO  H134 6936   5.013   6.196   2.042  0.2580 -0.6131 -0.1381
   17CHTO   C84 6937   4.808   6.190   1.918  0.2824  0.3672  0.0088
   17CHTO  H156 6938   4.807   6.222   2.022  1.6288 -1.5864  0.6362
   17CHTO   N15 6939   4.797   6.039   1.911  0.0636 -0.0114  0.4043
   17CHTO  H143 6940   4.839   6.006   1.818  0.1287  0.0085  0.4259
   17CHTO  H144 6941   4.700   5.996   1.922  0.0189 -0.0543 -0.1436
   17CHTO   C87 6942   4.692   6.261   1.829 -0.1389 -0.4063  0.0623
   17CHTO  H159 6943   4.707   6.222   1.729  0.5371 -0.3831  0.1482
   17CHTO   O53 6944   4.703   6.412   1.842  0.3609 -1.0593  0.0671
   17CHTO   C82 6945   4.827   6.462   1.783  0.3775  0.3252 -0.8356
   17CHTO  H154 6946   4.828   6.429   1.679 -0.1153 -2.2158 -0.0591
   17CHTO   C89 6947   4.839   6.614   1.789  0.4104  0.7398  0.6913
   17CHTO   O59 6948   4.735   6.692   1.730  0.3906  0.1621 -0.5701
   17CHTO  H137 6949   4.744   6.785   1.737 -1.2591  0.5021 -2.5357
   17CHTO   O45 6950   4.554   6.220   1.880 -0.0943  0.6516 -0.2320
   17CHTO   C67 6951   4.468   6.178   1.771  0.0378  0.0918  0.4937
   17CHTO  H124 6952   4.524   6.133   1.689  0.4035  1.8359 -0.2477
   17CHTO   C65 6953   4.359   6.077   1.823 -0.1989 -0.6076  0.3281
   17CHTO  H122 6954   4.416   6.006   1.884 -1.6016 -0.0126  2.3977
   17CHTO   O44 6955   4.297   6.007   1.715 -0.0153 -0.3721  0.1047
   17CHTO  H102 6956   4.280   5.916   1.727  0.2435 -0.2692  1.4058
   17CHTO   C63 6957   4.264   6.147   1.930 -0.2260  0.4333  0.3161
   17CHTO  H120 6958   4.319   6.200   2.007 -1.1952  0.9846  0.6331
   17CHTO   N11 6959   4.174   6.054   2.006 -0.3200 -0.7180  0.3260
   17CHTO  H108 6960   4.240   5.982   2.049  3.3946  1.8274 -0.8646
   17CHTO  H109 6961   4.125   6.103   2.087  0.3020  2.9066 -1.4143
   17CHTO   C61 6962   4.187   6.262   1.847 -0.2713  0.5113 -0.5766
   17CHTO  H118 6963   4.129   6.318   1.921 -0.7768  1.5390 -1.7313
   17CHTO   O40 6964   4.282   6.359   1.792  0.4830 -0.3281  0.4030
   17CHTO   C68 6965   4.395   6.306   1.712  0.2208 -0.2211 -1.0344
   17CHTO  H125 6966   4.469   6.389   1.711 -0.2620  0.2509  0.8169
   17CHTO   C72 6967   4.341   6.280   1.569  0.9496  0.4985 -0.0965
   17CHTO   O48 6968   4.443   6.274   1.464  0.3680 -0.5974 -0.1725
   17CHTO  H105 6969   4.497   6.350   1.474  2.0474 -1.7083 -0.6954
   17CHTO   O38 6970   4.097   6.213   1.747 -0.2183  0.4004 -0.1278
   17CHTO   C55 6971   3.965   6.267   1.724  0.2909 -0.9675  0.1785
   17CHTO  H112 6972   3.947   6.340   1.805 -1.4180 -0.9573 -0.1946
   17CHTO   C56 6973   3.841   6.158   1.716  0.5429 -1.0238 -0.1089
   17CHTO  H113 6974   3.884   6.083   1.647 -0.4941 -0.9822 -0.8133
   17CHTO   O42 6975   3.827   6.101   1.842  0.6276  0.2433 -0.4239
   17CHTO  H100 6976   3.910   6.087   1.884  0.4399 -0.3544 -0.2367
   17CHTO   C57 6977   3.704   6.221   1.672 -0.2505  0.7138  0.0217
   17CHTO  H114 6978   3.679   6.295   1.748 -1.1540  0.5233 -0.0788
   17CHTO   N10 6979   3.594   6.127   1.669  0.2951  0.1510 -0.4210
   17CHTO  H106 6980   3.538   6.121   1.761  1.6813  0.5433  0.4629
   17CHTO  H107 6981   3.616   6.026   1.637 -0.3330 -1.3553  3.6384
   17CHTO   C58 6982   3.730   6.299   1.540 -0.1833  0.2495  0.0660
   17CHTO  H115 6983   3.766   6.225   1.466 -2.2196 -0.6976 -0.0058
   17CHTO   O37 6984   3.824   6.407   1.559 -0.0136  0.0533 -0.0767
   17CHTO   C59 6985   3.959   6.362   1.596  0.7833 -0.0079  0.2807
   17CHTO  H116 6986   4.013   6.319   1.512 -0.1115 -0.1893 -0.2052
   17CHTO   C70 6987   4.043   6.489   1.631  0.3607  0.3447  0.3317
   17CHTO   O46 6988   4.085   6.562   1.518  0.3060  0.3082 -0.6705
   17CHTO  H103 6989   4.029   6.632   1.492  0.8654  0.8922 -0.2973
   17CHTO   O39 6990   3.588   6.361   1.480  0.0608 -0.9613 -0.4911
   17CHTO   C60 6991   3.524   6.485   1.537  0.3668  1.0335  0.3066
   17CHTO  H117 6992   3.524   6.472   1.645 -0.8895 -1.1824  0.0809
   17CHTO   C62 6993   3.599   6.612   1.498 -0.1407  0.1136  0.1902
   17CHTO  H119 6994   3.700   6.604   1.545 -1.0846 -2.2090  1.9643
   17CHTO   O43 6995   3.608   6.622   1.353  0.6113  0.3382 -0.1749
   17CHTO  H101 6996   3.670   6.557   1.326  0.4399  0.6947 -1.4204
   17CHTO   C66 6997   3.526   6.736   1.562 -0.3520  0.3199 -0.0149
   17CHTO  H123 6998   3.523   6.716   1.669 -3.0795 -1.0923 -0.3094
   17CHTO   N12 6999   3.608   6.855   1.550  0.2750 -0.6351  0.2175
   17CHTO  H110 7000   3.643   6.880   1.451  0.4684 -1.1947  0.1413
   17CHTO  H111 7001   3.556   6.942   1.588  1.5527  0.4492 -0.4367
   17CHTO   C69 7002   3.380   6.746   1.514 -0.2332 -0.2043 -0.2349
   17CHTO  H126 7003   3.374   6.782   1.409  3.4569  0.3073 -0.3228
   17CHTO   O41 7004   3.322   6.603   1.546  0.6983  0.5033  0.7438
   17CHTO   C64 7005   3.375   6.488   1.491  0.5768  0.6581 -0.0436
   17CHTO  H121 7006   3.368   6.496   1.380 -0.3411  0.2012 -0.0188
   17CHTO   C71 7007   3.289   6.363   1.535 -0.1635  0.0218  0.4111
   17CHTO   O47 7008   3.325   6.251   1.448  0.2683  0.0761  0.4402
   17CHTO  H104 7009   3.262   6.184   1.464 -0.9336  1.1872  0.4125
   17CHTO   O34 7010   3.308   6.844   1.600 -0.3485  0.4431  0.0514
   17CHTO   C49 7011   3.216   6.916   1.656  0.1770 -0.2192  0.1671
   17CHTO   H91 7012   3.195   7.000   1.589  0.3549 -0.4191 -0.1406
   17CHTO   C47 7013   3.271   6.957   1.797 -0.2081  0.3376 -0.0451
   17CHTO   H89 7014   3.189   7.024   1.831  1.6311  1.6930  1.8650
   17CHTO   O33 7015   3.395   7.023   1.785  0.6582 -0.2850 -0.1006
   17CHTO   H70 7016   3.387   7.117   1.789  0.0700 -0.4141  3.0174
   17CHTO   C45 7017   3.288   6.833   1.895 -0.4702 -0.1771 -0.6247
   17CHTO   H87 7018   3.390   6.795   1.878  0.7968  1.1893  3.3802
   17CHTO    N8 7019   3.279   6.879   2.032  0.1085 -0.1130 -0.6178
   17CHTO   H75 7020   3.276   6.792   2.096  0.3770  1.0067  0.9340
   17CHTO   H76 7021   3.360   6.946   2.057 -0.9239  0.5225  1.0564
   17CHTO   C43 7022   3.176   6.713   1.853  0.5460 -0.2236 -0.1754
   17CHTO   H85 7023   3.229   6.662   1.774 -0.5158 -1.3792 -0.1546
   17CHTO   O29 7024   3.063   6.783   1.801  0.2143 -0.8950 -0.5029
   17CHTO   C50 7025   3.078   6.841   1.674  0.2262 -0.3545  0.2481
   17CHTO   H92 7026   3.068   6.760   1.599  1.8059  1.4328 -1.9793
   17CHTO   C54 7027   2.965   6.930   1.630  0.1940 -0.2733 -0.2175
   17CHTO   O36 7028   2.961   6.955   1.489 -0.0683  0.0150  0.5973
   17CHTO   H72 7029   2.911   7.033   1.475 -0.6585 -0.7692 -1.9894
   17CHTO   O27 7030   3.134   6.611   1.948 -0.0875 -0.0574  0.2016
   17CHTO   C37 7031   3.077   6.475   1.944 -0.8977 -0.7830  0.0231
   17CHTO   H79 7032   3.039   6.439   2.041 -1.6098 -0.2272 -0.0485
   17CHTO   C38 7033   2.958   6.465   1.845 -0.0562 -0.7255 -0.1741
   17CHTO   H80 7034   2.992   6.494   1.745  1.0628 -0.7712  0.1747
   17CHTO   O31 7035   2.853   6.547   1.897 -0.1974 -0.0766  0.7116
   17CHTO   H68 7036   2.823   6.610   1.834  1.6212  0.9186  0.8107
   17CHTO   C39 7037   2.907   6.318   1.843  0.8822 -0.6328 -0.3743
   17CHTO   H81 7038   2.851   6.297   1.935 -0.0492 -0.4887 -0.9077
   17CHTO    N7 7039   2.798   6.290   1.741  0.2119 -0.7746 -0.1262
   17CHTO   H73 7040   2.775   6.376   1.681 -1.0791  0.2317  1.7530
   17CHTO   H74 7041   2.791   6.187   1.710  0.0436 -1.5007  2.2293
   17CHTO   C40 7042   3.029   6.216   1.817  0.4203 -0.4562  0.1176
   17CHTO   H82 7043   3.060   6.231   1.713  0.9623  0.6874  0.4357
   17CHTO   O26 7044   3.137   6.240   1.909  0.3370 -0.0946 -0.7231
   17CHTO   C41 7045   3.184   6.375   1.897  0.4566 -0.3593  0.4934
   17CHTO   H83 7046   3.200   6.404   1.793 -0.4179  0.1757  0.5088
   17CHTO   C52 7047   3.313   6.384   1.982  0.4140 -0.5114  0.1500
   17CHTO   O35 7048   3.423   6.322   1.897  0.7169 -0.5231 -0.0686
   17CHTO   H71 7049   3.407   6.230   1.900 -0.4597 -0.3145  0.1897
   17CHTO   O28 7050   2.994   6.080   1.847 -0.2475  0.1148  0.0808
   17CHTO   C42 7051   3.077   5.960   1.828  0.3875 -0.3396 -0.2620
   17CHTO   H84 7052   3.013   5.879   1.864 -0.0318  0.4997  0.9171
   17CHTO   C44 7053   3.214   5.949   1.909 -0.0576 -0.3885  0.0867
   17CHTO   H86 7054   3.287   6.021   1.874 -2.5794  2.0895 -0.2139
   17CHTO   O32 7055   3.180   5.973   2.051  0.0962  0.1402 -0.1060
   17CHTO   H69 7056   3.203   6.059   2.082 -2.1145  0.3871  0.8788
   17CHTO   C48 7057   3.281   5.811   1.878 -0.3511 -0.0422  0.0959
   17CHTO   H90 7058   3.209   5.730   1.891  1.2333 -1.2948  1.2654
   17CHTO    N9 7059   3.400   5.784   1.961  0.1208  0.2701  0.6020
   17CHTO   H77 7060   3.475   5.731   1.904 -0.1227  1.7884 -1.1578
   17CHTO   H78 7061   3.436   5.872   2.012  0.6593  0.0580  0.5974
   17CHTO   C51 7062   3.314   5.824   1.717 -0.4113 -0.2794 -0.1798
   17CHTO   H93 7063   3.384   5.900   1.683 -0.9755  0.1596 -0.3676
   17CHTO   O30 7064   3.189   5.835   1.648 -0.6558  0.0830  0.4648
   17CHTO   C46 7065   3.095   5.933   1.672 -0.0645  0.5123 -0.1995
   17CHTO   H88 7066   3.139   6.017   1.618  1.2415  0.0733  0.1616
   17CHTO   C53 7067   2.956   5.900   1.604 -0.1603  0.1407 -0.1792
   17CHTO   O72 7068   2.977   5.872   1.467 -0.0509 -0.0272 -0.3206
   17CHTO  H199 7069   2.909   5.885   1.403  0.2175  0.8562 -0.4320
   17CHTO   O22 7070   3.347   5.695   1.666 -0.6904 -0.2292  0.0205
   17CHTO   C31 7071   3.430   5.670   1.550 -0.2316 -0.3735  0.5792
   17CHTO   H59 7072   3.429   5.559   1.538 -0.5263 -0.0166 -3.0158
   17CHTO   C29 7073   3.368   5.726   1.419  0.4883 -0.2440  0.7932
   17CHTO   H57 7074   3.348   5.834   1.427 -0.0301 -0.1513 -1.4473
   17CHTO   O21 7075   3.245   5.662   1.395 -0.0991 -0.5810 -0.1838
   17CHTO   H37 7076   3.237   5.654   1.302  0.6578 -0.5555 -0.2532
   17CHTO   C27 7077   3.477   5.711   1.305 -0.0001 -0.7013  0.2534
   17CHTO   H55 7078   3.481   5.604   1.277 -2.0645 -0.8610  0.4921
   17CHTO    N5 7079   3.428   5.789   1.182 -0.3634 -0.5703  0.2337
   17CHTO   H43 7080   3.414   5.726   1.095 -0.2433 -0.5798  0.2208
   17CHTO   H44 7081   3.511   5.854   1.156 -0.4582 -0.5392  0.0070
   17CHTO   C25 7082   3.618   5.762   1.349  0.2756 -1.4159  0.5266
   17CHTO   H53 7083   3.609   5.868   1.378  1.0354 -1.2309  0.0922
   17CHTO   O17 7084   3.657   5.682   1.458  0.4299 -0.5092 -0.5757
   17CHTO   C32 7085   3.577   5.705   1.577  0.6065  0.4636 -0.3266
   17CHTO   H60 7086   3.579   5.809   1.608  0.4963 -0.1290  1.7460
   17CHTO   C36 7087   3.628   5.619   1.693  0.0147  0.0106  0.5907
   17CHTO   O25 7088   3.769   5.636   1.722  0.3691 -0.3667  0.4282
   17CHTO   H40 7089   3.795   5.552   1.754  0.7878  0.0415  1.1706
   17CHTO   O15 7090   3.745   5.748   1.247 -0.0672 -0.4573 -0.0604
   17CHTO   C19 7091   3.819   5.835   1.168  0.5800 -0.0447 -0.0049
   17CHTO   H47 7092   3.907   5.775   1.140 -0.1967 -0.1481 -2.3418
   17CHTO   C20 7093   3.752   5.885   1.043  0.1842  0.6442  0.3178
   17CHTO   H48 7094   3.656   5.933   1.067 -0.3585 -1.4637  2.6218
   17CHTO   O19 7095   3.726   5.772   0.960  0.1979  0.1899  0.3938
   17CHTO   H35 7096   3.723   5.790   0.868  1.1414  1.0745  0.5317
   17CHTO   C21 7097   3.832   5.999   0.967 -0.0310  0.0986 -0.0620
   17CHTO   H49 7098   3.925   5.954   0.936  0.0414  0.0972  0.1595
   17CHTO    N4 7099   3.761   6.052   0.846 -0.2012 -0.0238  0.1426
   17CHTO   H41 7100   3.744   6.158   0.845 -2.9655 -0.4195 -2.8884
   17CHTO   H42 7101   3.665   6.004   0.832 -0.8400  0.5381  2.3056
   17CHTO   C22 7102   3.875   6.105   1.065  1.1131 -0.8270 -0.3984
   17CHTO   H50 7103   3.788   6.156   1.106  0.6809 -1.1770 -0.8698
   17CHTO   O14 7104   3.950   6.035   1.169  0.2573 -0.2411 -0.2589
   17CHTO   C23 7105   3.873   5.951   1.256 -0.1932 -0.5439 -0.0850
   17CHTO   H51 7106   3.789   6.008   1.297  0.0831  0.5890 -1.0346
   17CHTO   C34 7107   3.973   5.906   1.362 -0.2842  0.1213  0.4206
   17CHTO   O23 7108   3.986   6.015   1.458 -0.3469  0.5752  0.5276
   17CHTO   H38 7109   3.954   6.097   1.426 -2.8492  0.2314  2.0546
   17CHTO   O16 7110   3.964   6.203   1.002  0.2385 -0.0047 -0.6019
   17CHTO   C24 7111   3.988   6.315   1.118 -0.3894  0.5977 -0.0065
   17CHTO   H52 7112   3.954   6.280   1.216 -1.2289  0.3254 -0.3850
   17CHTO   C26 7113   3.905   6.440   1.087 -0.4881 -0.1016 -0.8992
   17CHTO   H54 7114   3.924   6.472   0.982 -1.1756 -1.0952 -1.3385
   17CHTO   O20 7115   3.765   6.414   1.098  0.9253 -0.0033 -0.5585
   17CHTO   H36 7116   3.742   6.345   1.157  1.6402 -1.0163 -1.4430
   17CHTO   C30 7117   3.952   6.565   1.174  0.1846  0.5910  0.6344
   17CHTO   H58 7118   3.923   6.557   1.280  2.0257  0.5907  1.1572
   17CHTO    N6 7119   3.887   6.694   1.130 -0.7391 -0.3353 -0.0236
   17CHTO   H45 7120   3.782   6.690   1.155 -0.7034  0.3694  0.2557
   17CHTO   H46 7121   3.907   6.716   1.026 -1.1651 -1.6261 -0.3947
   17CHTO   C33 7122   4.110   6.572   1.178 -0.8544  0.5941 -0.6155
   17CHTO   H61 7123   4.151   6.583   1.076  2.6145  1.1440  0.7984
   17CHTO   O18 7124   4.162   6.448   1.227  0.0092  0.2556  0.1123
   17CHTO   C28 7125   4.143   6.340   1.126  0.6429 -0.6693 -0.2150
   17CHTO   H56 7126   4.187   6.351   1.027  1.2121  0.2628  0.1302
   17CHTO   C35 7127   4.225   6.225   1.187  0.2482 -0.8569  0.2120
   17CHTO   O24 7128   4.250   6.126   1.083  0.6418  0.5986 -0.5949
   17CHTO   H39 7129   4.172   6.075   1.067  0.8267  0.1431 -0.0827
   17CHTO    O9 7130   4.164   6.685   1.246  0.5315  0.5229 -0.1368
   17CHTO   C13 7131   4.317   6.725   1.226 -0.0899 -0.3244 -0.5351
   17CHTO   H26 7132   4.333   6.714   1.117 -1.5840 -4.0322 -0.4656
   17CHTO   C11 7133   4.423   6.641   1.315  0.2191 -0.3648 -0.5864
   17CHTO   H24 7134   4.458   6.551   1.263  0.7329  0.1665 -1.1659
   17CHTO    O8 7135   4.357   6.604   1.433  0.7436  0.4470  0.2247
   17CHTO    H3 7136   4.323   6.518   1.420  0.2411  0.7183 -0.3029
   17CHTO    C9 7137   4.560   6.717   1.338  0.1070 -0.1600  0.0920
   17CHTO   H22 7138   4.600   6.736   1.238 -0.0008 -0.9102 -0.1008
   17CHTO    N2 7139   4.659   6.626   1.399  0.3906  0.2093  0.6699
   17CHTO   H10 7140   4.615   6.528   1.408  2.5645 -0.8180  0.3234
   17CHTO   H11 7141   4.740   6.617   1.328 -0.1845  0.3120 -0.0070
   17CHTO    C7 7142   4.526   6.851   1.409 -0.3705  0.3991  0.2213
   17CHTO   H20 7143   4.584   6.927   1.353  0.8057 -0.7578 -0.1603
   17CHTO    O4 7144   4.388   6.893   1.401 -0.0309  0.3230 -0.1680
   17CHTO   C14 7145   4.335   6.876   1.267  0.7923 -0.3813 -0.1186
   17CHTO   H27 7146   4.403   6.926   1.195  0.6551 -0.6964 -0.4668
   17CHTO   C18 7147   4.200   6.959   1.268 -0.1208  0.2056 -0.0173
   17CHTO   O13 7148   4.232   7.098   1.273  0.1558  0.3478  0.0162
   17CHTO    H7 7149   4.227   7.128   1.362 -1.6153 -0.3742  0.1863
   17CHTO    O2 7150   4.565   6.868   1.547  0.3174 -0.4238 -0.4212
   17CHTO    C1 7151   4.596   7.001   1.595  0.4709  0.0865 -0.1663
   17CHTO   H14 7152   4.557   7.076   1.523 -0.4819 -0.5403 -0.3012
   17CHTO    C2 7153   4.750   7.031   1.624  0.5325  0.0069 -0.6752
   17CHTO   H15 7154   4.787   6.962   1.702  2.0399  1.0010 -0.4873
   17CHTO    O6 7155   4.823   7.017   1.500  0.1079 -0.1604  0.6023
   17CHTO    H1 7156   4.808   7.090   1.444  1.9008  1.3250  1.9962
   17CHTO    C3 7157   4.761   7.170   1.695 -0.1768 -0.3163  0.1217
   17CHTO   H16 7158   4.726   7.244   1.622  1.7758  0.2762 -0.2567
   17CHTO    N1 7159   4.909   7.204   1.724  0.3104 -0.0422  0.4374
   17CHTO    H8 7160   4.941   7.150   1.812  1.5447 -2.0911 -1.2137
   17CHTO    H9 7161   4.918   7.311   1.734  1.3587 -0.0590 -0.2803
   17CHTO    C4 7162   4.662   7.187   1.821  0.1235  0.2630 -0.4519
   17CHTO   H17 7163   4.691   7.110   1.893 -0.3942  0.5804  0.1031
   17CHTO    O1 7164   4.526   7.157   1.783 -0.2232 -0.2608 -0.0717
   17CHTO    C5 7165   4.509   7.025   1.729  0.5672  0.4247 -0.4344
   17CHTO   H18 7166   4.546   6.955   1.804  0.9316 -0.0026 -1.0029
   17CHTO   C16 7167   4.351   7.009   1.720  0.6103 -0.8252 -0.4296
   17CHTO   O11 7168   4.311   6.878   1.666  0.0695 -0.1222 -1.0576
   17CHTO    H5 7169   4.218   6.868   1.679 -0.0240  0.6687 -1.0552
   17CHTO    O3 7170   4.675   7.319   1.885 -0.0046 -0.1122  0.0067
   17CHTO    C6 7171   4.603   7.367   1.996 -0.2209  0.0884 -0.1151
   17CHTO   H19 7172   4.496   7.375   1.975  0.1816  0.6401 -2.0340
   17CHTO    C8 7173   4.648   7.297   2.131  0.4328  0.2357  0.4193
   17CHTO   H21 7174   4.757   7.300   2.131  0.4938 -1.0531 -1.2665
   17CHTO    O7 7175   4.603   7.160   2.129 -0.7123 -0.4469  0.7624
   17CHTO    H2 7176   4.666   7.102   2.090 -0.7136  0.6887 -0.9536
   17CHTO   C12 7177   4.595   7.363   2.258 -0.1854 -0.2978 -0.3745
   17CHTO   H25 7178   4.490   7.329   2.258  0.1956 -1.5094 -1.5895
   17CHTO    N3 7179   4.668   7.307   2.378  0.0375  0.4183  0.3239
   17CHTO   H12 7180   4.631   7.343   2.473 -0.2680  0.5258  0.1647
   17CHTO   H13 7181   4.773   7.326   2.361 -0.0820  2.4577  1.6469
   17CHTO   C15 7182   4.600   7.522   2.261  0.3175 -0.2223  0.3916
   17CHTO   H28 7183   4.696   7.563   2.292 -0.5911  1.1688  1.4474
   17CHTO   O10 7184   4.501   7.590   2.342  0.9811 -0.1787 -0.4961
   17CHTO    H4 7185   4.540   7.629   2.418 -0.9967  0.2019  0.3501
   17CHTO    O5 7186   4.563   7.568   2.126  0.5829  0.6059 -0.3035
   17CHTO   C10 7187   4.643   7.514   2.025  0.3014  0.5657  0.0889
   17CHTO   H23 7188   4.746   7.518   2.061  0.1426  2.4848  0.4044
   17CHTO   C17 7189   4.637   7.610   1.904 -0.4219 -0.9359 -0.1723
   17CHTO   O12 7190   4.520   7.616   1.827  0.9432 -0.2546 -0.5303
   17CHTO    H6 7191   4.453   7.663   1.873 -0.5091 -2.2390 -0.5936
   18CHTO  H203 7192   6.080   7.162   2.607  0.7481 -0.0359 -0.0256
   18CHTO   O82 7193   6.082   7.087   2.551  0.1002  0.1421 -0.3000
   18CHTO  C123 7194   6.014   7.111   2.428 -0.4028  0.1435 -0.2213
   18CHTO  H227 7195   5.951   7.200   2.436 -2.0413 -0.9328 -0.7912
   18CHTO   O77 7196   6.129   7.135   2.344 -0.3537 -0.1947 -0.6162
   18CHTO  C118 7197   6.090   7.168   2.212 -0.0608 -0.7127  0.0207
   18CHTO  H222 7198   6.014   7.248   2.219  2.2623  1.3218  3.2237
   18CHTO  C125 7199   6.212   7.227   2.137 -0.4112  0.1148  0.1470
   18CHTO   O84 7200   6.263   7.344   2.205 -0.2242  0.7387 -0.0227
   18CHTO  H205 7201   6.218   7.419   2.171 -1.7129  0.4979  1.3676
   18CHTO  C114 7202   6.042   7.039   2.139 -0.6029  0.8724 -0.3163
   18CHTO  H218 7203   6.122   6.965   2.143 -2.1108 -0.9362 -2.3312
   18CHTO  C116 7204   5.918   6.987   2.218 -0.2224  0.2265  0.2325
   18CHTO  H220 7205   5.833   7.056   2.198  1.9337  3.2210  0.9788
   18CHTO   O79 7206   5.881   6.858   2.166 -0.0695  0.0734 -0.1072
   18CHTO  H201 7207   5.803   6.864   2.115 -0.1953  0.9240  0.1841
   18CHTO  C120 7208   5.941   6.976   2.379 -0.3424  0.1755  0.6817
   18CHTO  H224 7209   5.997   6.883   2.398 -0.5168 -0.6989 -2.7100
   18CHTO   N21 7210   5.805   6.961   2.444  0.1146 -0.5503 -0.4263
   18CHTO  H211 7211   5.739   6.914   2.373 -1.4980 -0.5530  1.0442
   18CHTO  H212 7212   5.812   6.907   2.537  3.8053  0.4334 -0.0410
   18CHTO   O75 7213   6.018   7.079   1.998  0.2620 -0.3045 -0.3380
   18CHTO  C112 7214   6.107   7.006   1.881 -0.2325  0.8610  0.3661
   18CHTO  H216 7215   6.170   6.929   1.929  0.6181  1.2174 -0.1611
   18CHTO   O73 7216   6.183   7.112   1.823  0.5622  0.4288  0.4060
   18CHTO  C113 7217   6.272   7.069   1.721  0.4120 -0.5565 -0.3107
   18CHTO  H217 7218   6.327   6.980   1.757  1.7064 -0.5484 -2.1573
   18CHTO  C124 7219   6.367   7.182   1.682  0.4630  0.4808 -0.0764
   18CHTO   O83 7220   6.440   7.227   1.799 -0.0637  0.8339  0.4423
   18CHTO  H204 7221   6.477   7.155   1.847  0.5437  0.5775 -0.4104
   18CHTO  C109 7222   6.195   7.016   1.603  0.2289  0.6388  0.0405
   18CHTO  H213 7223   6.134   7.099   1.566 -1.0651 -0.9781 -1.5343
   18CHTO  C110 7224   6.098   6.903   1.643  0.0860 -0.5818  0.0826
   18CHTO  H214 7225   6.150   6.808   1.656 -0.3458 -0.9103 -0.5138
   18CHTO   O78 7226   6.012   6.878   1.533  0.0344 -0.2639  0.3734
   18CHTO  H200 7227   6.048   6.878   1.447  0.4669 -2.6713  0.5178
   18CHTO  C111 7228   6.014   6.940   1.769 -0.7129  0.1284  0.1399
   18CHTO  H215 7229   5.945   7.021   1.741 -0.1931  0.4083 -0.3293
   18CHTO   N19 7230   5.931   6.828   1.827  0.1767 -0.2069  0.6539
   18CHTO  H207 7231   5.828   6.859   1.827  0.6408  1.3666  0.9035
   18CHTO  H208 7232   5.931   6.731   1.779  0.7691  0.4530 -0.7187
   18CHTO   O74 7233   6.303   6.973   1.500 -0.0787 -0.1442  0.3338
   18CHTO  C115 7234   6.253   6.994   1.363  0.0216  0.9022 -0.5113
   18CHTO  H219 7235   6.164   6.932   1.346  1.4133 -2.7180  4.2737
   18CHTO   O76 7236   6.202   7.149   1.342  0.6004 -0.4288  0.0049
   18CHTO  C122 7237   6.298   7.243   1.298  0.4144 -0.2423  0.1036
   18CHTO  H226 7238   6.357   7.269   1.385 -3.0896  1.0781  2.2026
   18CHTO  C126 7239   6.230   7.381   1.252  0.1204  0.1235  0.4129
   18CHTO   O85 7240   6.168   7.380   1.118  0.4321  0.1361 -0.2318
   18CHTO  H206 7241   6.160   7.471   1.098 -0.7776 -0.4704 -2.7113
   18CHTO  C121 7242   6.395   7.188   1.188 -0.0847  0.0364 -0.0887
   18CHTO  H225 7243   6.396   7.252   1.098 -1.7415  1.3169  0.7722
   18CHTO   O81 7244   6.528   7.187   1.241  0.0838  0.2674  0.2289
   18CHTO  H202 7245   6.545   7.265   1.291 -3.9571  1.4791 -0.1133
   18CHTO  C119 7246   6.367   7.041   1.145  0.1940  0.3956 -0.2203
   18CHTO  H223 7247   6.263   7.041   1.110 -0.1185 -0.7808  0.6758
   18CHTO  C117 7248   6.369   6.949   1.269  0.4025 -0.4568  0.4431
   18CHTO  H221 7249   6.459   6.954   1.330  0.9502 -0.7212 -0.3411
   18CHTO   N20 7250   6.351   6.803   1.235  0.1253 -0.6257 -0.0812
   18CHTO  H209 7251   6.263   6.753   1.273 -0.8526  1.8751  1.0310
   18CHTO  H210 7252   6.439   6.749   1.267 -1.1202 -1.5926  1.7700
   18CHTO   O80 7253   6.460   6.996   0.994 -0.3111 -0.1599  0.1176
   18CHTO  C103 7254   6.382   6.969   0.854  0.3284  0.1725 -0.9297
   18CHTO  H190 7255   6.451   6.950   0.772  0.0182  1.2487 -1.4633
   18CHTO  C101 7256   6.273   6.853   0.859 -0.1110 -0.1301  0.2177
   18CHTO  H188 7257   6.227   6.853   0.958  1.2099 -0.1364  0.8390
   18CHTO   O68 7258   6.349   6.711   0.853 -0.0040 -0.5373  0.0679
   18CHTO  H168 7259   6.402   6.694   0.930  0.2112 -0.5334 -0.0786
   18CHTO   C99 7260   6.157   6.865   0.746 -0.3761  0.1133  0.2167
   18CHTO  H186 7261   6.203   6.851   0.646 -0.1599 -0.2991  0.3720
   18CHTO   N17 7262   6.044   6.762   0.761  0.6484 -0.1005  0.3880
   18CHTO  H174 7263   5.998   6.752   0.664  2.0246 -1.4888 -0.1577
   18CHTO  H175 7264   6.076   6.661   0.785 -2.4525 -1.2716 -0.2465
   18CHTO   C97 7265   6.104   7.007   0.754 -0.2498  0.1041  0.5642
   18CHTO  H184 7266   6.064   7.031   0.854 -0.8114 -0.3391  0.4492
   18CHTO   O64 7267   6.214   7.095   0.716  0.5197 -0.3071 -0.1496
   18CHTO  C104 7268   6.312   7.118   0.820 -0.0001  0.8568 -0.2610
   18CHTO  H191 7269   6.277   7.161   0.914  0.8367  3.5704 -1.1163
   18CHTO  C108 7270   6.420   7.214   0.765  0.4379  0.0274 -0.4409
   18CHTO   O71 7271   6.477   7.158   0.643 -0.0149 -0.4769 -0.7113
   18CHTO  H171 7272   6.562   7.194   0.627  0.6991 -2.1279 -0.6519
   18CHTO   O62 7273   6.007   7.036   0.651  0.1447 -0.0555  0.6761
   18CHTO   C91 7274   5.891   7.119   0.678  0.0549 -0.1003 -0.4271
   18CHTO  H178 7275   5.887   7.137   0.786 -0.7721  0.5781 -0.5593
   18CHTO   C92 7276   5.766   7.035   0.656 -0.2054 -0.9551 -0.1151
   18CHTO  H179 7277   5.767   6.991   0.555 -1.6782  0.2500 -0.6636
   18CHTO   O66 7278   5.772   6.934   0.757 -0.1261  0.0190 -1.3013
   18CHTO  H166 7279   5.813   6.857   0.723  1.3307  0.7802 -1.3063
   18CHTO   C93 7280   5.636   7.120   0.663  0.1143  0.2530  0.2350
   18CHTO  H180 7281   5.618   7.136   0.770 -1.3395 -2.5148  0.4488
   18CHTO   N16 7282   5.514   7.056   0.617 -0.6226  0.3380  0.1894
   18CHTO  H172 7283   5.424   7.112   0.638 -0.2186  1.5712 -1.2305
   18CHTO  H173 7284   5.515   6.956   0.657 -0.6983 -0.4062 -1.6264
   18CHTO   C94 7285   5.656   7.259   0.594  0.2355 -0.1974 -0.0873
   18CHTO  H181 7286   5.659   7.254   0.485 -0.8949  0.5906 -0.1687
   18CHTO   O61 7287   5.767   7.325   0.638 -0.4309 -0.2258  0.2962
   18CHTO   C95 7288   5.893   7.263   0.608 -0.8170 -0.5571  0.3608
   18CHTO  H182 7289   5.908   7.262   0.500  0.4190  1.5644  0.4806
   18CHTO  C106 7290   6.000   7.360   0.660  0.2206  0.4735 -0.0507
   18CHTO   O69 7291   5.998   7.383   0.801 -0.2113 -0.8201 -0.0173
   18CHTO  H169 7292   5.952   7.463   0.817 -1.0883 -0.9304 -1.8220
   18CHTO   O63 7293   5.538   7.357   0.621  0.1568 -0.2464 -0.0438
   18CHTO   C96 7294   5.511   7.475   0.543  0.6466  0.3559 -0.6076
   18CHTO  H183 7295   5.406   7.474   0.514  0.4949 -0.0705 -0.0439
   18CHTO   C98 7296   5.583   7.508   0.409 -0.3144 -0.2807 -0.1345
   18CHTO  H185 7297   5.692   7.508   0.427 -0.5051 -1.4365  1.0410
   18CHTO   O67 7298   5.561   7.397   0.321 -0.2990  0.0129 -0.5690
   18CHTO  H167 7299   5.492   7.340   0.349  0.7319 -0.3046  1.3985
   18CHTO  C102 7300   5.537   7.640   0.331  0.1546  0.0395  0.3157
   18CHTO  H189 7301   5.466   7.607   0.254  0.5135 -1.0970  0.4572
   18CHTO   N18 7302   5.643   7.706   0.244  0.1118 -0.1183 -0.4690
   18CHTO  H176 7303   5.730   7.742   0.298  1.2691 -1.6644 -1.2771
   18CHTO  H177 7304   5.683   7.632   0.177  1.6135  0.0464  0.2288
   18CHTO  C105 7305   5.459   7.735   0.424  0.6877  1.0134 -0.6625
   18CHTO  H192 7306   5.461   7.837   0.385  0.9943  1.6337  0.9583
   18CHTO   O65 7307   5.513   7.733   0.562 -0.0585  0.4575  0.0821
   18CHTO  C100 7308   5.543   7.607   0.625 -0.1356  0.2823  0.8176
   18CHTO  H187 7309   5.647   7.603   0.662 -0.5467 -1.6664  1.8128
   18CHTO  C107 7310   5.464   7.603   0.756 -0.2865  0.2744  0.4936
   18CHTO   O70 7311   5.507   7.718   0.833 -0.0897 -0.4447 -0.0120
   18CHTO  H170 7312   5.487   7.703   0.924  0.0365 -2.0744 -0.2526
   18CHTO   O57 7313   5.306   7.682   0.428  0.1492 -0.0431 -0.4755
   18CHTO   C85 7314   5.198   7.777   0.428  0.0468 -0.8672 -0.4395
   18CHTO  H157 7315   5.211   7.843   0.340 -1.2393  0.2423  0.1726
   18CHTO   C83 7316   5.194   7.874   0.550 -0.0379  0.5470 -0.3816
   18CHTO  H155 7317   5.286   7.933   0.549  1.5081 -1.7875  0.5027
   18CHTO   O56 7318   5.202   7.795   0.669 -0.0115  0.3956 -0.2114
   18CHTO  H135 7319   5.288   7.789   0.706 -0.2888  1.6019  0.6709
   18CHTO   C81 7320   5.070   7.973   0.532 -0.7623 -0.1912 -0.1024
   18CHTO  H153 7321   5.078   8.019   0.433  0.0443  0.8793  0.4400
   18CHTO   N14 7322   5.076   8.066   0.646  0.4056  0.2798  0.2104
   18CHTO  H141 7323   5.019   8.152   0.618  1.1892  1.8058  3.0810
   18CHTO  H142 7324   5.174   8.102   0.669  0.6016  0.1808 -0.4618
   18CHTO   C79 7325   4.934   7.897   0.525  0.4943  0.8824 -1.0045
   18CHTO  H151 7326   4.858   7.968   0.492 -0.1965 -1.2631 -4.2808
   18CHTO   O52 7327   4.942   7.792   0.415 -0.5521 -0.1992 -0.5455
   18CHTO   C86 7328   5.059   7.704   0.424  0.7156 -0.1159 -0.4188
   18CHTO  H158 7329   5.038   7.641   0.512 -1.1735  0.0536 -0.7241
   18CHTO   C90 7330   5.061   7.603   0.305 -0.5770  0.0658 -0.7297
   18CHTO   O60 7331   5.021   7.668   0.182  0.0002 -0.1398  0.4848
   18CHTO  H138 7332   5.021   7.602   0.117 -0.4441 -0.4659  0.8152
   18CHTO   O50 7333   4.884   7.829   0.644 -0.6995 -0.1296 -0.0404
   18CHTO   C73 7334   4.767   7.752   0.683 -0.1060 -0.4572 -0.0705
   18CHTO  H145 7335   4.742   7.689   0.597 -1.8479 -2.1203  1.6126
   18CHTO   C74 7336   4.649   7.842   0.705  0.1348 -0.5421  0.1614
   18CHTO  H146 7337   4.641   7.901   0.612 -0.6187 -1.5861 -0.4364
   18CHTO   O54 7338   4.515   7.774   0.713  0.4125  0.3836  0.1564
   18CHTO  H133 7339   4.522   7.700   0.770 -0.3998 -0.1365 -0.4121
   18CHTO   C75 7340   4.676   7.932   0.828 -0.2335  0.5064  0.0492
   18CHTO  H147 7341   4.767   7.992   0.809 -0.2912  1.3606  2.3030
   18CHTO   N13 7342   4.581   8.038   0.870 -0.1412 -0.0549  0.0095
   18CHTO  H139 7343   4.610   8.114   0.940 -2.4586  1.0732 -0.2040
   18CHTO  H140 7344   4.481   7.998   0.881 -0.2694  0.0205 -0.8164
   18CHTO   C76 7345   4.709   7.836   0.959 -0.1538 -1.2660 -0.3929
   18CHTO  H148 7346   4.616   7.793   0.995 -1.3045  0.4627 -1.1899
   18CHTO   O49 7347   4.806   7.729   0.937  0.1153 -0.9022  0.4030
   18CHTO   C77 7348   4.799   7.666   0.807 -0.1021  0.2530 -0.0506
   18CHTO  H149 7349   4.723   7.589   0.820  0.3268  0.1221  1.8090
   18CHTO   C88 7350   4.924   7.584   0.782 -0.4013  0.0575 -0.3753
   18CHTO   O58 7351   4.975   7.528   0.915 -0.3803  0.3537 -0.1069
   18CHTO  H136 7352   4.949   7.584   0.985 -2.8253  0.2993 -0.9222
   18CHTO   O51 7353   4.773   7.940   1.080  0.5179  0.4434  1.0311
   18CHTO   C78 7354   4.841   7.887   1.210  0.6225 -0.5333  0.6540
   18CHTO  H150 7355   4.919   7.814   1.180  0.1551 -0.6660 -0.2888
   18CHTO   C80 7356   4.738   7.829   1.313 -0.3154  0.1657 -0.1867
   18CHTO  H152 7357   4.645   7.889   1.307 -0.9146 -0.8653 -1.4216
   18CHTO   O55 7358   4.701   7.706   1.258  0.4896  0.7255  0.1517
   18CHTO  H134 7359   4.643   7.706   1.184 -1.4914  2.2694  1.6312
   18CHTO   C84 7360   4.803   7.808   1.455  0.2178  0.5283  0.1137
   18CHTO  H156 7361   4.868   7.721   1.442  0.2058  0.5424 -0.0464
   18CHTO   N15 7362   4.690   7.770   1.549 -0.2725  0.5073  0.7649
   18CHTO  H143 7363   4.661   7.672   1.517  3.2819 -0.0133 -1.0037
   18CHTO  H144 7364   4.716   7.763   1.652  0.5306 -2.2661  0.4085
   18CHTO   C87 7365   4.883   7.930   1.495  0.0911 -0.0118 -0.8470
   18CHTO  H159 7366   4.818   8.017   1.492  1.8481  1.3049 -2.7276
   18CHTO   O53 7367   4.992   7.952   1.379 -0.2165  0.5079 -1.1647
   18CHTO   C82 7368   4.922   8.002   1.265  0.0031 -0.3305  0.0255
   18CHTO  H154 7369   4.854   8.081   1.296  2.1298  0.8486  1.8684
   18CHTO   C89 7370   5.019   8.059   1.158  0.1533 -0.1602  0.0864
   18CHTO   O59 7371   5.123   7.966   1.122  0.0666 -0.2470 -0.5872
   18CHTO  H137 7372   5.171   7.995   1.046 -1.9001  3.1363 -0.6468
   18CHTO   O45 7373   4.944   7.902   1.644  0.4401  0.2260 -0.0348
   18CHTO   C67 7374   5.087   7.900   1.660  0.3142  0.1311  0.2800
   18CHTO  H124 7375   5.136   7.889   1.563  1.2732  1.0655  0.6542
   18CHTO   C65 7376   5.145   8.031   1.714  0.7058  0.0824  0.4134
   18CHTO  H122 7377   5.083   8.066   1.797  2.3299 -0.2245  1.7683
   18CHTO   O44 7378   5.131   8.131   1.605  0.4087 -0.1148 -0.2299
   18CHTO  H102 7379   5.206   8.187   1.598 -0.7322  1.5829  0.8988
   18CHTO   C63 7380   5.286   8.025   1.783 -0.5141 -0.1735  0.2460
   18CHTO  H120 7381   5.271   7.987   1.884  0.0391 -1.6120 -0.1941
   18CHTO   N11 7382   5.348   8.155   1.799 -0.1068  0.2206  0.2805
   18CHTO  H108 7383   5.339   8.197   1.897  0.1494 -0.6517  0.6827
   18CHTO  H109 7384   5.452   8.151   1.772  0.0668  1.0500  0.8050
   18CHTO   C61 7385   5.367   7.910   1.724 -0.3877 -0.0575 -0.0998
   18CHTO  H118 7386   5.449   7.887   1.793 -0.3598  1.4807  0.3846
   18CHTO   O40 7387   5.285   7.783   1.712 -0.0283  0.4263 -0.0053
   18CHTO   C68 7388   5.146   7.781   1.744  0.9391 -0.6087 -0.8744
   18CHTO  H125 7389   5.127   7.798   1.852 -0.4349  0.8392 -1.3200
   18CHTO   C72 7390   5.095   7.638   1.707  0.6353 -0.3257 -0.9716
   18CHTO   O48 7391   4.955   7.642   1.748 -0.8115 -0.0124 -0.4559
   18CHTO  H105 7392   4.892   7.585   1.709 -1.0730 -0.4458  0.5926
   18CHTO   O38 7393   5.423   7.936   1.592 -0.1763 -0.0538  0.0752
   18CHTO   C55 7394   5.540   7.849   1.562  0.2441 -0.0005 -0.3312
   18CHTO  H112 7395   5.544   7.760   1.626 -2.2021 -0.1904 -0.4144
   18CHTO   C56 7396   5.673   7.931   1.568  0.2940  0.5108  0.7029
   18CHTO  H113 7397   5.664   8.021   1.506  0.4474 -1.1787 -1.8218
   18CHTO   O42 7398   5.696   7.983   1.701 -0.4336  0.7365 -0.6864
   18CHTO  H100 7399   5.770   8.040   1.691 -0.6149  1.5548  2.1270
   18CHTO   C57 7400   5.805   7.840   1.524  0.0190 -0.2936  0.5691
   18CHTO  H114 7401   5.818   7.766   1.603  2.3599 -0.3131  0.2097
   18CHTO   N10 7402   5.936   7.914   1.522  0.6473  0.1256  0.1957
   18CHTO  H106 7403   6.007   7.846   1.567  0.6781  0.9151  1.3520
   18CHTO  H107 7404   5.929   8.003   1.582 -0.3375 -1.1159  2.0064
   18CHTO   C58 7405   5.775   7.763   1.389 -0.6253 -0.7361  0.0089
   18CHTO  H115 7406   5.802   7.828   1.303  0.2197 -2.8077 -1.3370
   18CHTO   O37 7407   5.642   7.711   1.375 -0.1279  0.0203 -0.2486
   18CHTO   C59 7408   5.528   7.793   1.418 -0.2698 -0.0866  0.1547
   18CHTO  H116 7409   5.528   7.879   1.351  0.6379 -1.4362 -1.6122
   18CHTO   C70 7410   5.409   7.699   1.399 -0.0743  0.7169 -0.5210
   18CHTO   O46 7411   5.300   7.758   1.325 -0.2815 -0.2171 -0.1509
   18CHTO  H103 7412   5.222   7.711   1.349 -0.6050  0.0449 -0.6811
   18CHTO   O39 7413   5.887   7.626   1.389 -0.7529 -0.4906  0.3575
   18CHTO   C60 7414   5.849   7.517   1.472  0.1385 -0.8012  0.5502
   18CHTO  H117 7415   5.783   7.556   1.549 -0.0751  0.6480 -0.3730
   18CHTO   C62 7416   5.764   7.413   1.391 -0.3632  0.0166  0.0843
   18CHTO  H119 7417   5.692   7.478   1.337 -0.7599  1.0910  1.8811
   18CHTO   O43 7418   5.833   7.358   1.281 -0.1327  0.4698  0.0372
   18CHTO  H101 7419   5.785   7.288   1.242  2.9130 -0.5329 -2.1655
   18CHTO   C66 7420   5.693   7.315   1.498 -0.0580 -0.8348  0.0346
   18CHTO  H123 7421   5.637   7.377   1.568  0.6545  2.0763 -1.8983
   18CHTO   N12 7422   5.591   7.225   1.440 -0.9333 -0.6736  0.1370
   18CHTO  H110 7423   5.616   7.220   1.335  1.7538 -0.0815  0.6975
   18CHTO  H111 7424   5.492   7.265   1.454 -0.4889 -0.5218  3.0777
   18CHTO   C69 7425   5.804   7.228   1.565  0.8911 -0.5339  0.7711
   18CHTO  H126 7426   5.838   7.150   1.493  0.0682 -0.2080  0.0318
   18CHTO   O41 7427   5.921   7.302   1.608  0.5218  0.0694  0.0854
   18CHTO   C64 7428   5.969   7.450   1.545  0.2067  0.3906  0.4886
   18CHTO  H121 7429   6.048   7.434   1.468  1.6851  1.2328  1.7935
   18CHTO   C71 7430   6.029   7.533   1.655  0.0870  0.0599  0.2703
   18CHTO   O47 7431   6.115   7.462   1.745  0.3990 -0.3893  0.8334
   18CHTO  H104 7432   6.201   7.499   1.734 -0.6341  2.2121  1.2371
   18CHTO   O34 7433   5.735   7.174   1.726 -0.2382  0.2735  0.3535
   18CHTO   C49 7434   5.689   7.216   1.850 -0.1215  0.1955  0.8468
   18CHTO   H91 7435   5.726   7.138   1.916  0.7946  0.9065  1.1815
   18CHTO   C47 7436   5.536   7.221   1.882  0.3737 -0.9917  0.8819
   18CHTO   H89 7437   5.526   7.225   1.992  2.3872  2.0317  1.0021
   18CHTO   O33 7438   5.477   7.099   1.831 -0.4012 -0.6648 -0.1890
   18CHTO   H70 7439   5.490   7.028   1.891  0.6625 -0.0119  0.3650
   18CHTO   C45 7440   5.466   7.351   1.820 -0.0906 -0.3802 -1.0082
   18CHTO   H87 7441   5.483   7.353   1.711 -1.5320  0.3228 -1.2383
   18CHTO    N8 7442   5.316   7.350   1.834 -0.1845  0.3029  0.0118
   18CHTO   H75 7443   5.305   7.375   1.938 -1.6461  1.2500 -0.3597
   18CHTO   H76 7444   5.273   7.428   1.773  2.5669  1.7110 -0.2414
   18CHTO   C43 7445   5.532   7.478   1.888  0.0964 -0.0124  0.7430
   18CHTO   H85 7446   5.487   7.565   1.840  1.3289  0.3923  0.2938
   18CHTO   O29 7447   5.672   7.473   1.860  0.0530 -0.1594 -0.0875
   18CHTO   C50 7448   5.746   7.353   1.892  0.0935 -0.0011  0.4734
   18CHTO   H92 7449   5.840   7.369   1.837 -0.6319 -0.7317 -1.0074
   18CHTO   C54 7450   5.801   7.346   2.038 -0.2009 -0.0252 -0.4578
   18CHTO   O36 7451   5.907   7.436   2.062 -0.2136  0.0151 -0.5050
   18CHTO   H72 7452   5.877   7.522   2.039  0.1757 -0.2825 -2.1824
   18CHTO   O27 7453   5.510   7.497   2.027  0.1052  0.3715 -0.1183
   18CHTO   C37 7454   5.509   7.609   2.115 -0.6894 -0.2507 -0.2552
   18CHTO   H79 7455   5.545   7.583   2.215  1.2310 -0.5721 -1.0180
   18CHTO   C38 7456   5.581   7.731   2.066 -0.0003 -0.1263  0.1782
   18CHTO   H80 7457   5.572   7.747   1.957 -1.0919 -2.4075 -0.0953
   18CHTO   O31 7458   5.717   7.697   2.079 -0.4546 -0.1107  0.1490
   18CHTO   H68 7459   5.766   7.737   2.010 -0.7207 -1.3380 -0.7636
   18CHTO   C39 7460   5.540   7.868   2.143 -0.5555 -0.2754 -0.7486
   18CHTO   H81 7461   5.580   7.869   2.244 -0.4894  1.2240 -0.7798
   18CHTO    N7 7462   5.600   7.994   2.086 -0.6623 -0.1396 -0.1170
   18CHTO   H73 7463   5.541   8.026   2.001  0.3234 -1.9725 -1.5386
   18CHTO   H74 7464   5.707   8.009   2.091 -0.8236  0.8658  0.3280
   18CHTO   C40 7465   5.387   7.885   2.155 -0.1409  0.2413 -0.0601
   18CHTO   H82 7466   5.342   7.908   2.059 -1.2333  0.0087  0.3924
   18CHTO   O26 7467   5.345   7.755   2.206 -0.2626 -0.0981 -0.6400
   18CHTO   C41 7468   5.352   7.639   2.122  0.0000  0.7930  1.0664
   18CHTO   H83 7469   5.311   7.671   2.025  0.8989  0.3031  0.5172
   18CHTO   C52 7470   5.281   7.517   2.204 -0.1061  0.1483 -0.4924
   18CHTO   O35 7471   5.136   7.548   2.218  0.3263 -0.1183 -0.7841
   18CHTO   H71 7472   5.089   7.471   2.245 -0.1573  0.2611 -0.5249
   18CHTO   O28 7473   5.335   7.974   2.252  0.0738  0.1933  0.5132
   18CHTO   C42 7474   5.195   8.018   2.245  0.3318  0.5258 -0.4024
   18CHTO   H84 7475   5.189   8.049   2.349 -1.5703  1.6532 -0.8286
   18CHTO   C44 7476   5.091   7.904   2.232 -0.1986 -0.4278  1.0887
   18CHTO   H86 7477   5.117   7.849   2.142 -2.3776 -0.0526  0.2003
   18CHTO   O32 7478   5.096   7.816   2.345 -0.3979 -0.3537  0.0424
   18CHTO   H69 7479   5.157   7.745   2.342 -0.8493 -0.7781  0.8620
   18CHTO   C48 7480   4.943   7.949   2.200  0.2370  0.4309  0.6055
   18CHTO   H90 7481   4.888   7.979   2.289 -1.8605  0.9080 -0.8032
   18CHTO    N9 7482   4.856   7.837   2.149  0.1592  0.8058 -0.3062
   18CHTO   H77 7483   4.750   7.857   2.150 -0.0825 -0.4299 -0.3201
   18CHTO   H78 7484   4.897   7.796   2.058 -2.3671 -1.5416 -0.4401
   18CHTO   C51 7485   4.929   8.076   2.106 -0.4089  0.9729  0.1715
   18CHTO   H93 7486   4.936   8.044   2.002 -0.3875  1.4422  0.0298
   18CHTO   O30 7487   5.025   8.180   2.137  1.0337  0.6269 -0.2926
   18CHTO   C46 7488   5.170   8.140   2.152 -0.3888 -0.5032  0.3251
   18CHTO   H88 7489   5.221   8.122   2.057  0.4199  0.3330  0.5940
   18CHTO   C53 7490   5.229   8.270   2.215  0.0098  0.5678  0.0642
   18CHTO   O72 7491   5.186   8.312   2.339 -0.0270 -0.2019  0.0669
   18CHTO  H199 7492   5.225   8.255   2.402  1.9541  0.3303 -0.6566
   18CHTO   O22 7493   4.801   8.151   2.124 -0.3881 -0.4501 -0.2773
   18CHTO   C31 7494   4.702   8.174   2.016  0.1940  0.1231 -0.8622
   18CHTO   H59 7495   4.646   8.266   2.042  0.9613  0.0886  1.0014
   18CHTO   C29 7496   4.756   8.192   1.875 -0.2012 -0.1022 -0.0854
   18CHTO   H57 7497   4.808   8.105   1.832 -0.5018  0.7294 -2.2101
   18CHTO   O21 7498   4.856   8.296   1.876  0.6317  0.1627 -0.0348
   18CHTO   H37 7499   4.931   8.269   1.826  0.6081  1.1832 -0.6270
   18CHTO   C27 7500   4.629   8.220   1.773 -0.5389 -0.3666 -0.5553
   18CHTO   H55 7501   4.572   8.309   1.803 -0.6098 -0.9601  1.1270
   18CHTO    N5 7502   4.666   8.238   1.628  0.3565  0.1035  0.2505
   18CHTO   H43 7503   4.744   8.312   1.614  1.3519 -0.9933 -0.1288
   18CHTO   H44 7504   4.586   8.254   1.558 -0.3685 -2.4833  0.4412
   18CHTO   C25 7505   4.523   8.105   1.783  0.0707  0.3512 -0.2088
   18CHTO   H53 7506   4.570   8.009   1.755  1.2504  0.4174  1.5010
   18CHTO   O17 7507   4.489   8.089   1.922 -0.9155  0.1479 -0.5372
   18CHTO   C32 7508   4.598   8.057   2.009 -0.5236  0.2444 -0.0019
   18CHTO   H60 7509   4.643   7.976   1.952  0.7386  0.4110  0.7314
   18CHTO   C36 7510   4.524   8.017   2.145  0.4841  0.4170  0.0234
   18CHTO   O25 7511   4.443   7.903   2.137 -0.3331  0.2063  0.0253
   18CHTO   H40 7512   4.430   7.870   2.050  2.7330 -0.1539 -0.3587
   18CHTO   O15 7513   4.386   8.125   1.705 -0.0094  0.3292 -0.3427
   18CHTO   C19 7514   4.317   8.048   1.602 -0.5196 -0.1255 -0.4830
   18CHTO   H47 7515   4.213   8.084   1.610 -0.5204 -0.2507  0.0676
   18CHTO   C20 7516   4.369   8.071   1.456  0.6359  0.4624  0.4988
   18CHTO   H48 7517   4.477   8.053   1.451  0.3612 -2.0442  2.6108
   18CHTO   O19 7518   4.348   8.211   1.427 -0.2306 -0.1151  0.0050
   18CHTO   H35 7519   4.427   8.258   1.442  0.3057 -1.0084 -0.0013
   18CHTO   C21 7520   4.292   7.979   1.354 -0.4095  0.1682  0.0389
   18CHTO   H49 7521   4.184   7.995   1.365  0.0335  1.6180  2.9056
   18CHTO    N4 7522   4.325   8.005   1.211 -0.2302 -0.0254  0.4534
   18CHTO   H41 7523   4.318   8.111   1.191 -1.1561 -0.1721 -0.0458
   18CHTO   H42 7524   4.257   7.950   1.147  1.6203 -1.3722 -0.4139
   18CHTO   C22 7525   4.323   7.838   1.409  0.4837  0.4519 -0.0148
   18CHTO   H50 7526   4.432   7.831   1.411  0.7204  3.3875 -0.9359
   18CHTO   O14 7527   4.261   7.822   1.536  0.3604 -0.1048  0.1734
   18CHTO   C23 7528   4.327   7.894   1.642  0.6261  0.5920 -0.0778
   18CHTO   H51 7529   4.430   7.862   1.661  0.5379  0.9325  1.0334
   18CHTO   C34 7530   4.245   7.878   1.773  0.2403 -0.4777 -0.0336
   18CHTO   O23 7531   4.244   7.740   1.818  0.2590  0.9056 -0.5235
   18CHTO   H38 7532   4.176   7.698   1.769  0.7998 -1.2560  0.5057
   18CHTO   O16 7533   4.259   7.729   1.336 -0.4820 -0.0672 -0.1130
   18CHTO   C24 7534   4.369   7.614   1.290  0.5571 -0.2180  0.3697
   18CHTO   H52 7535   4.468   7.640   1.327 -0.0426  2.4129  0.2462
   18CHTO   C26 7536   4.365   7.611   1.136 -0.6962  0.8273  0.4280
   18CHTO   H54 7537   4.262   7.592   1.100 -1.1252  2.4328  0.7701
   18CHTO   O20 7538   4.395   7.740   1.096  1.3980 -0.0469  0.1724
   18CHTO   H36 7539   4.374   7.763   1.007 -1.0806 -0.6413  0.5637
   18CHTO   C30 7540   4.454   7.492   1.073 -0.3217 -0.4233  0.7158
   18CHTO   H58 7541   4.557   7.523   1.096  0.8087 -3.5518  0.0589
   18CHTO    N6 7542   4.441   7.492   0.926  0.3760 -0.8050 -0.2351
   18CHTO   H45 7543   4.500   7.412   0.884  0.7736 -1.0697  0.8054
   18CHTO   H46 7544   4.462   7.582   0.870  0.9416  0.2127  1.5763
   18CHTO   C33 7545   4.418   7.358   1.135  0.0181  0.3575 -0.3934
   18CHTO   H61 7546   4.319   7.322   1.104  1.0379 -1.5489 -1.5879
   18CHTO   O18 7547   4.408   7.368   1.281 -0.4850 -0.6814  0.1033
   18CHTO   C28 7548   4.332   7.475   1.342  0.1926  0.5958 -0.1087
   18CHTO   H56 7549   4.225   7.457   1.327 -0.0759  2.1166 -0.0763
   18CHTO   C35 7550   4.377   7.473   1.493  0.1581  0.3212  0.1422
   18CHTO   O24 7551   4.280   7.537   1.577 -0.4759  0.5625  0.0793
   18CHTO   H39 7552   4.287   7.631   1.572 -1.0172  0.6323  0.6089
   18CHTO    O9 7553   4.505   7.254   1.098  0.2872  0.5223 -0.4360
   18CHTO   C13 7554   4.651   7.215   1.184  0.2588 -0.2286  0.5516
   18CHTO   H26 7555   4.623   7.171   1.282  1.2229 -1.9035  0.0914
   18CHTO   C11 7556   4.750   7.346   1.197  0.2993  0.4026  0.2178
   18CHTO   H24 7557   4.699   7.406   1.274  0.0519 -0.5290  0.7934
   18CHTO    O8 7558   4.758   7.420   1.075 -0.4546  0.0240  0.4945
   18CHTO    H3 7559   4.834   7.474   1.083 -0.1295 -0.4973  0.9140
   18CHTO    C9 7560   4.883   7.299   1.254  0.0718  0.4195  0.2427
   18CHTO   H22 7561   4.862   7.256   1.353  1.9746 -1.8673 -0.3263
   18CHTO    N2 7562   4.980   7.411   1.271  0.6501 -0.3657 -0.4461
   18CHTO   H10 7563   4.927   7.488   1.326  0.4979 -0.7693 -0.0294
   18CHTO   H11 7564   5.058   7.381   1.340 -0.4700  0.6028  1.2740
   18CHTO    C7 7565   4.937   7.171   1.169  0.2499 -0.4521  0.8469
   18CHTO   H20 7566   5.014   7.135   1.239  1.0501 -0.1528  0.1291
   18CHTO    O4 7567   4.850   7.061   1.146 -0.0505 -0.0545  0.8683
   18CHTO   C14 7568   4.717   7.088   1.107  0.4900  0.5378 -0.0156
   18CHTO   H27 7569   4.656   6.998   1.126  1.3827  0.4607  2.6617
   18CHTO   C18 7570   4.717   7.113   0.952  0.0224  0.6720 -0.2013
   18CHTO   O13 7571   4.740   7.001   0.865 -0.0929  0.0994  0.3842
   18CHTO    H7 7572   4.670   6.938   0.870  0.7337 -0.6836  2.8072
   18CHTO    O2 7573   5.000   7.237   1.019 -0.3896  0.2613  0.1088
   18CHTO    C1 7574   5.118   7.179   0.968 -0.0688 -0.1138  0.1913
   18CHTO   H14 7575   5.130   7.202   0.860 -1.5760  0.0172  0.0414
   18CHTO    C2 7576   5.125   7.019   0.988 -0.5910  0.0409 -0.3010
   18CHTO   H15 7577   5.097   7.000   1.092 -0.8587 -0.7923 -0.5204
   18CHTO    O6 7578   5.023   6.966   0.901  0.5814 -0.2013  0.1010
   18CHTO    H1 7579   5.001   6.878   0.925  1.0328 -0.1464  0.7092
   18CHTO    C3 7580   5.261   6.958   0.946 -0.3198 -0.1032  0.4372
   18CHTO   H16 7581   5.287   6.967   0.840  1.3049 -1.8693  0.6442
   18CHTO    N1 7582   5.267   6.807   0.981 -0.3105 -0.0194  0.3567
   18CHTO    H8 7583   5.198   6.743   0.929 -0.0574 -0.9765  1.2048
   18CHTO    H9 7584   5.261   6.781   1.085  2.2176  1.3814  0.8982
   18CHTO    C4 7585   5.376   7.044   1.017  0.7033  0.1596  0.2811
   18CHTO   H17 7586   5.364   7.030   1.124  2.1637 -0.9384  0.3205
   18CHTO    O1 7587   5.362   7.184   0.988  0.1265  0.1858  0.5309
   18CHTO    C5 7588   5.238   7.243   1.046 -0.2586  0.9197 -0.2608
   18CHTO   H18 7589   5.225   7.229   1.153 -0.6795 -0.7009 -0.5153
   18CHTO   C16 7590   5.261   7.395   1.019  0.0822  0.4438  0.6507
   18CHTO   O11 7591   5.354   7.445   1.113  0.1553  0.6368  0.1248
   18CHTO    H5 7592   5.337   7.535   1.132 -0.9706  0.3927  0.3343
   18CHTO    O3 7593   5.506   7.014   0.979 -0.0612 -0.5396  0.1425
   18CHTO    C6 7594   5.601   7.027   1.092 -0.2984  0.4646 -0.0316
   18CHTO   H19 7595   5.558   7.062   1.186  0.1499  2.3020 -0.4940
   18CHTO    C8 7596   5.655   6.889   1.116 -0.6521  1.2995  0.3298
   18CHTO   H21 7597   5.675   6.845   1.018 -0.2470  2.4679 -0.1227
   18CHTO    O7 7598   5.548   6.815   1.180  0.2270  0.1831 -0.1210
   18CHTO    H2 7599   5.571   6.772   1.260  0.1428 -0.1123 -0.2524
   18CHTO   C12 7600   5.784   6.892   1.213 -0.0287 -0.9406 -0.2331
   18CHTO   H25 7601   5.745   6.914   1.315  1.1302  0.3882 -0.0543
   18CHTO    N3 7602   5.841   6.753   1.217  0.4369 -0.3124 -0.2062
   18CHTO   H12 7603   5.839   6.706   1.314  0.0591  1.4275  0.6410
   18CHTO   H13 7604   5.942   6.751   1.180  0.3385  1.5576 -0.6376
   18CHTO   C15 7605   5.880   7.011   1.174 -0.3328 -0.4124 -0.8930
   18CHTO   H28 7606   5.954   6.986   1.097  1.6252 -0.6515  1.0223
   18CHTO   O10 7607   5.963   7.041   1.298 -0.2808 -0.6368  0.4872
   18CHTO    H4 7608   5.913   7.085   1.364 -0.1729  1.5714 -0.8577
   18CHTO    O5 7609   5.818   7.135   1.138 -0.1562 -0.0765  0.3606
   18CHTO   C10 7610   5.710   7.130   1.048  0.8894 -0.5605  0.3336
   18CHTO   H23 7611   5.746   7.089   0.954  0.9074 -0.7063  0.4043
   18CHTO   C17 7612   5.651   7.271   1.032  0.4619  0.4136  0.3604
   18CHTO   O12 7613   5.729   7.361   0.955 -0.4332 -0.4078  0.2462
   18CHTO    H6 7614   5.687   7.444   0.938  0.2055  0.0519  0.9113
   19CHTO  H203 7615   5.637   8.993   2.502  0.9926 -1.4659  2.3198
   19CHTO   O82 7616   5.673   8.921   2.454 -0.3117 -0.5595 -0.1241
   19CHTO  C123 7617   5.592   8.804   2.470 -0.2858  0.4741  0.4562
   19CHTO  H227 7618   5.506   8.807   2.401 -1.4719 -0.3390  1.8646
   19CHTO   O77 7619   5.682   8.706   2.421 -0.2226  0.2551  0.1288
   19CHTO  C118 7620   5.614   8.574   2.401 -0.3592 -0.1138 -0.3577
   19CHTO  H222 7621   5.525   8.586   2.337 -1.1159 -0.1661  0.6775
   19CHTO  C125 7622   5.710   8.477   2.334  0.2591  0.0767  0.2646
   19CHTO   O84 7623   5.823   8.458   2.417 -0.1474 -0.1811 -0.6483
   19CHTO  H205 7624   5.895   8.505   2.380 -1.6670  3.3517  0.6940
   19CHTO  C114 7625   5.563   8.522   2.538 -0.1762 -0.0700 -0.2866
   19CHTO  H218 7626   5.643   8.478   2.597 -1.2272 -1.2036  0.2942
   19CHTO  C116 7627   5.469   8.628   2.605  0.0677 -0.8173 -0.2039
   19CHTO  H220 7628   5.374   8.627   2.548 -0.0224  1.1286 -0.1324
   19CHTO   O79 7629   5.434   8.578   2.740  0.0354 -0.3619 -0.0417
   19CHTO  H201 7630   5.382   8.640   2.788  0.4417 -0.0090 -0.0523
   19CHTO  C120 7631   5.544   8.769   2.619 -0.5303 -0.3848  0.0908
   19CHTO  H224 7632   5.631   8.760   2.687  0.1750 -0.1723 -0.7711
   19CHTO   N21 7633   5.458   8.880   2.669  0.4906 -0.0192 -0.2336
   19CHTO  H211 7634   5.512   8.951   2.730  0.3315  0.2914 -0.4547
   19CHTO  H212 7635   5.364   8.850   2.714 -1.8189 -0.5103 -5.0974
   19CHTO   O75 7636   5.479   8.412   2.511  0.2290  0.0894  0.4858
   19CHTO  C112 7637   5.522   8.276   2.601  0.6780 -0.2495  0.0451
   19CHTO  H216 7638   5.557   8.308   2.701 -0.1573  2.2022 -0.4234
   19CHTO   O73 7639   5.623   8.201   2.531  0.4954  0.2747  0.5827
   19CHTO  C113 7640   5.650   8.078   2.600 -0.4663  0.5923 -0.3375
   19CHTO  H217 7641   5.703   8.099   2.696  2.1669  2.0645 -2.0366
   19CHTO  C124 7642   5.762   8.005   2.521  0.4601  0.0059  0.4650
   19CHTO   O83 7643   5.893   8.059   2.537 -0.1253  0.2846 -0.0868
   19CHTO  H204 7644   5.928   8.052   2.623  0.4255  1.4629 -0.2030
   19CHTO  C109 7645   5.528   7.987   2.617 -0.1204 -0.2998  0.0090
   19CHTO  H213 7646   5.487   7.978   2.515 -0.6820 -0.4404  0.2444
   19CHTO  C110 7647   5.426   8.060   2.705  0.2641 -0.1143  0.5866
   19CHTO  H214 7648   5.470   8.070   2.804  1.1847 -1.7699  0.3531
   19CHTO   O78 7649   5.316   7.968   2.696 -0.2778 -0.1361  0.2680
   19CHTO  H200 7650   5.253   7.993   2.760 -0.0018 -0.0740  0.5191
   19CHTO  C111 7651   5.393   8.196   2.630 -0.0244  0.4606 -0.0385
   19CHTO  H215 7652   5.358   8.169   2.529 -1.4988  0.5326  0.4403
   19CHTO   N19 7653   5.285   8.272   2.695  0.1284 -0.2193 -0.5895
   19CHTO  H207 7654   5.252   8.239   2.792  0.9168 -1.2120 -0.6475
   19CHTO  H208 7655   5.192   8.264   2.641 -1.8725 -0.1938  2.7097
   19CHTO   O74 7656   5.562   7.851   2.660 -0.0831  1.0438 -0.2122
   19CHTO  C115 7657   5.516   7.738   2.547 -0.0897 -0.2458 -0.4672
   19CHTO  H219 7658   5.459   7.787   2.468  1.9265  1.1530 -1.1207
   19CHTO   O76 7659   5.633   7.683   2.482  0.9097 -0.4062  0.3050
   19CHTO  C122 7660   5.708   7.588   2.554  0.2565  0.1914  0.1412
   19CHTO  H226 7661   5.759   7.648   2.629  0.0666 -1.1378  1.3560
   19CHTO  C126 7662   5.819   7.537   2.457 -0.2972  0.0862  0.0688
   19CHTO   O85 7663   5.936   7.502   2.527 -0.6224 -0.3440 -0.4808
   19CHTO  H206 7664   6.013   7.536   2.485  0.7460  0.0386  2.2538
   19CHTO  C121 7665   5.621   7.468   2.597  0.1343  0.1201  0.6337
   19CHTO  H225 7666   5.659   7.377   2.545 -0.6997 -0.1948  0.5687
   19CHTO   O81 7667   5.628   7.446   2.733  0.1332  0.3651 -0.2020
   19CHTO  H202 7668   5.584   7.368   2.759  0.5230  0.1019 -0.3163
   19CHTO  C119 7669   5.464   7.488   2.568 -0.3324 -0.3068 -0.1009
   19CHTO  H223 7670   5.461   7.489   2.459  0.7234 -0.5243 -0.1383
   19CHTO  C117 7671   5.428   7.625   2.614  0.1864 -0.3431  0.5298
   19CHTO  H221 7672   5.436   7.638   2.722 -0.2580 -1.7212  0.7487
   19CHTO   N20 7673   5.279   7.646   2.592 -0.2825  0.0660  1.0662
   19CHTO  H209 7674   5.243   7.747   2.607  3.0676  0.9580  3.9698
   19CHTO  H210 7675   5.226   7.584   2.663  0.9662  0.7589  2.6615
   19CHTO   O80 7676   5.367   7.361   2.605 -0.0657 -0.4362 -0.4968
   19CHTO  C103 7677   5.323   7.255   2.487  0.0869  0.0876  0.2420
   19CHTO  H190 7678   5.282   7.313   2.405 -0.0129 -2.5403 -1.6197
   19CHTO  C101 7679   5.423   7.159   2.433 -0.1698  0.8076  0.1699
   19CHTO  H188 7680   5.467   7.107   2.518 -2.3310  0.3565  1.0274
   19CHTO   O68 7681   5.532   7.243   2.372  0.4801  0.0897  0.2346
   19CHTO  H168 7682   5.612   7.231   2.419  1.1252  0.2398 -0.8256
   19CHTO   C99 7683   5.359   7.053   2.335 -0.3493  0.1672  0.3277
   19CHTO  H186 7684   5.310   7.110   2.253  0.0432 -0.4866 -0.3618
   19CHTO   N17 7685   5.454   6.960   2.269 -0.2373 -0.0197 -0.3820
   19CHTO  H174 7686   5.528   7.009   2.206 -0.9720 -0.5211 -1.6478
   19CHTO  H175 7687   5.394   6.890   2.212  0.3682  0.4956 -1.6822
   19CHTO   C97 7688   5.236   6.981   2.405 -0.4595  0.3826  0.1188
   19CHTO  H184 7689   5.271   6.916   2.487  1.1411  1.0716  0.0130
   19CHTO   O64 7690   5.146   7.081   2.449  0.3022 -0.5454  0.3422
   19CHTO  C104 7691   5.200   7.173   2.546  1.1449  0.3373 -0.0715
   19CHTO  H191 7692   5.232   7.120   2.636  0.1101  1.3840  0.9307
   19CHTO  C108 7693   5.091   7.269   2.598 -0.6009  0.0127  0.4057
   19CHTO   O71 7694   5.023   7.348   2.493 -0.0982  0.5280  0.0185
   19CHTO  H171 7695   4.950   7.398   2.524 -0.4266  1.2438 -1.8794
   19CHTO   O62 7696   5.159   6.904   2.307 -0.0714 -0.0329  0.5191
   19CHTO   C91 7697   5.034   6.847   2.315 -0.0106 -0.0914 -0.0820
   19CHTO  H178 7698   4.987   6.864   2.411 -1.1864  0.3907 -0.7275
   19CHTO   C92 7699   5.062   6.691   2.308 -0.2481  0.3400 -0.5389
   19CHTO  H179 7700   5.117   6.670   2.215  0.5184 -1.5884  0.3301
   19CHTO   O66 7701   5.156   6.648   2.409 -0.3549  0.2628  0.1027
   19CHTO  H166 7702   5.233   6.701   2.395 -0.4008 -0.1708 -2.0357
   19CHTO   C93 7703   4.924   6.609   2.310  0.2835  0.3857 -0.1859
   19CHTO  H180 7704   4.893   6.620   2.415 -0.3090  2.0004 -0.5220
   19CHTO   N16 7705   4.934   6.461   2.279 -0.4279 -0.2798 -0.1335
   19CHTO  H172 7706   4.906   6.447   2.175 -0.4980 -3.6256  0.2882
   19CHTO  H173 7707   5.040   6.443   2.285  0.2192  2.5455 -2.0034
   19CHTO   C94 7708   4.814   6.674   2.218 -0.3176  0.8892  0.1907
   19CHTO  H181 7709   4.831   6.655   2.112  2.5178 -0.0433  0.7540
   19CHTO   O61 7710   4.815   6.819   2.226 -0.5989  0.2574 -0.8342
   19CHTO   C95 7711   4.938   6.890   2.203  0.5621 -0.1419  0.2505
   19CHTO  H182 7712   4.978   6.861   2.106  0.7046 -1.7187  0.7654
   19CHTO  C106 7713   4.919   7.052   2.200  0.0402  0.6388 -0.5160
   19CHTO   O69 7714   4.969   7.106   2.075 -0.1956  0.0856 -0.1162
   19CHTO  H169 7715   5.002   7.191   2.098 -1.3562  0.2036  1.1731
   19CHTO   O63 7716   4.674   6.633   2.260  0.7270 -0.1861  0.0462
   19CHTO   C96 7717   4.563   6.701   2.160  0.3622 -0.1078  0.9523
   19CHTO  H183 7718   4.596   6.701   2.057  2.6160 -0.8907  1.6439
   19CHTO   C98 7719   4.515   6.839   2.200  1.1498 -0.7876  0.1197
   19CHTO  H185 7720   4.603   6.902   2.218  1.8060 -0.8547 -2.6481
   19CHTO   O67 7721   4.459   6.895   2.083  0.0116  0.0175 -0.1453
   19CHTO  H167 7722   4.376   6.859   2.058 -0.4092  1.9464 -1.6111
   19CHTO  C102 7723   4.407   6.842   2.313 -0.0031  0.1881  0.8289
   19CHTO  H189 7724   4.380   6.948   2.321  0.6875  0.7793 -3.6140
   19CHTO   N18 7725   4.451   6.807   2.449  0.4502  0.2010  0.5031
   19CHTO  H176 7726   4.400   6.719   2.485  0.4819 -0.5663 -1.2639
   19CHTO  H177 7727   4.558   6.794   2.446  0.4704  0.5071 -0.3736
   19CHTO  C105 7728   4.285   6.761   2.262 -0.0365  0.2031  0.1969
   19CHTO  H192 7729   4.234   6.720   2.348 -2.5489 -0.0969 -1.3692
   19CHTO   O65 7730   4.309   6.659   2.155 -0.1639 -0.4210 -0.8379
   19CHTO  C100 7731   4.438   6.599   2.160 -0.9503  0.5963 -0.3502
   19CHTO  H187 7732   4.438   6.544   2.254  0.2636  0.7845 -0.2254
   19CHTO  C107 7733   4.440   6.497   2.050  0.1298 -0.2352 -0.0420
   19CHTO   O70 7734   4.560   6.417   2.062  0.3384  0.1930  0.0589
   19CHTO  H170 7735   4.565   6.356   1.991 -1.6814 -0.1068  0.1325
   19CHTO   O57 7736   4.189   6.874   2.210  0.7125  0.0498 -0.2359
   19CHTO   C85 7737   4.054   6.838   2.171 -0.2990  0.3996 -0.9092
   19CHTO  H157 7738   4.035   6.733   2.201 -0.5439  0.3128 -1.3631
   19CHTO   C83 7739   4.050   6.848   2.012  0.2486  0.2410  0.1738
   19CHTO  H155 7740   4.126   6.778   1.979  1.2209  0.5255  1.7684
   19CHTO   O56 7741   4.080   6.986   1.974 -0.0053 -0.0461  0.5972
   19CHTO  H135 7742   4.028   7.048   2.022 -0.7960 -1.8990  2.1611
   19CHTO   C81 7743   3.910   6.800   1.960 -0.0408  0.3000 -0.6895
   19CHTO  H153 7744   3.882   6.702   1.999 -0.8213  1.2561  1.2669
   19CHTO   N14 7745   3.900   6.781   1.811 -0.3438  0.5698  0.1963
   19CHTO  H141 7746   3.906   6.678   1.782  1.6716  0.5263  0.6390
   19CHTO  H142 7747   3.981   6.832   1.764  0.5718 -0.1956  0.9218
   19CHTO   C79 7748   3.801   6.890   2.022  1.3015 -0.6258  0.6112
   19CHTO  H151 7749   3.705   6.848   1.991  0.7822  0.9541  0.0063
   19CHTO   O52 7750   3.812   6.903   2.166 -0.6230  0.2576  0.3002
   19CHTO   C86 7751   3.942   6.936   2.223 -0.6088 -0.2951 -0.5290
   19CHTO  H158 7752   3.963   7.040   2.190 -0.2981  0.1537  1.0338
   19CHTO   C90 7753   3.939   6.951   2.374  1.0155  0.1355 -0.1522
   19CHTO   O60 7754   3.875   6.833   2.435 -0.5415 -0.0824  0.1757
   19CHTO  H138 7755   3.924   6.754   2.441 -1.0999 -0.5595 -1.4136
   19CHTO   O50 7756   3.805   7.025   1.957  0.0605 -0.4188 -0.0726
   19CHTO   C73 7757   3.716   7.130   1.912  0.1842  0.2927 -0.1597
   19CHTO  H145 7758   3.613   7.097   1.892 -0.5454  1.8294  1.0102
   19CHTO   C74 7759   3.766   7.201   1.779 -0.2273 -0.1784 -0.0133
   19CHTO  H146 7760   3.771   7.128   1.698  0.9494 -0.7347  0.5454
   19CHTO   O54 7761   3.673   7.299   1.736  0.1218  0.1366  0.1436
   19CHTO  H133 7762   3.590   7.259   1.716  0.6022  0.1309 -1.8976
   19CHTO   C75 7763   3.916   7.254   1.815  0.0454 -0.4933 -0.8352
   19CHTO  H147 7764   3.982   7.172   1.847  2.5211  1.5585 -0.4285
   19CHTO   N13 7765   3.985   7.305   1.695  0.1518  0.0072 -0.0251
   19CHTO  H139 7766   3.943   7.404   1.682 -0.5320 -0.3208 -0.3112
   19CHTO  H140 7767   4.091   7.308   1.719  0.0614  0.4858  0.3227
   19CHTO   C76 7768   3.907   7.358   1.931  0.0542 -0.0443  0.7411
   19CHTO  H148 7769   3.865   7.448   1.886 -0.2277 -0.0309  1.0325
   19CHTO   O49 7770   3.834   7.307   2.045 -0.0244  0.3377 -0.0283
   19CHTO   C77 7771   3.708   7.240   2.024 -0.2092 -0.3546 -0.0725
   19CHTO  H149 7772   3.633   7.316   2.003  0.7079  0.7056  0.3765
   19CHTO   C88 7773   3.658   7.188   2.164 -0.3167 -0.3918  0.2098
   19CHTO   O58 7774   3.547   7.083   2.150 -0.0539  0.0771 -0.6211
   19CHTO  H136 7775   3.554   7.038   2.232  0.2739  2.3133  0.6287
   19CHTO   O51 7776   4.049   7.397   1.995  0.7947  0.1524 -0.0621
   19CHTO   C78 7777   4.036   7.482   2.124 -0.5739 -0.1076  0.4735
   19CHTO  H150 7778   3.951   7.447   2.185  1.3425 -1.2845  2.5447
   19CHTO   C80 7779   4.011   7.625   2.079 -0.3647  0.1721 -0.1807
   19CHTO  H152 7780   4.070   7.643   1.987 -0.1093  0.6320  0.0701
   19CHTO   O55 7781   3.873   7.648   2.046 -0.3511 -1.2140 -0.3224
   19CHTO  H134 7782   3.869   7.737   2.017 -2.0503  0.0768  3.4472
   19CHTO   C84 7783   4.059   7.736   2.173  0.0737 -0.6654 -0.2369
   19CHTO  H156 7784   3.983   7.766   2.245  1.2290  1.5521  0.1313
   19CHTO   N15 7785   4.085   7.866   2.103  0.1624  0.0472 -0.1052
   19CHTO  H143 7786   4.142   7.844   2.015 -0.5111 -0.6906 -0.3646
   19CHTO  H144 7787   4.141   7.930   2.168  2.8020  0.2743 -2.5375
   19CHTO   C87 7788   4.180   7.688   2.258 -0.5936 -0.3319 -0.1394
   19CHTO  H159 7789   4.272   7.700   2.201  0.0694  0.8560  1.1648
   19CHTO   O53 7790   4.164   7.550   2.307 -0.8473  0.4508 -0.1103
   19CHTO   C82 7791   4.164   7.449   2.202 -0.2525 -0.0721  0.2371
   19CHTO  H154 7792   4.262   7.459   2.156  1.2890  1.5560  3.6839
   19CHTO   C89 7793   4.150   7.304   2.261  0.3339  0.4612  0.6438
   19CHTO   O59 7794   4.191   7.205   2.168  0.2664  0.1220 -0.1203
   19CHTO  H137 7795   4.122   7.170   2.114  0.5687  0.9271 -1.0553
   19CHTO   O45 7796   4.214   7.782   2.389 -0.0308  0.4381  0.0401
   19CHTO   C67 7797   4.111   7.798   2.491 -0.6251 -0.1551  0.1286
   19CHTO  H124 7798   4.014   7.779   2.443 -0.2251 -0.8023 -0.4381
   19CHTO   C65 7799   4.122   7.693   2.609  0.7900  0.0486 -0.1373
   19CHTO  H122 7800   4.224   7.658   2.597  1.2657  1.1043  0.6924
   19CHTO   O44 7801   4.032   7.589   2.573 -0.2734  0.6351  0.4474
   19CHTO  H102 7802   3.944   7.619   2.581  0.0074  1.6098 -0.0195
   19CHTO   C63 7803   4.108   7.760   2.750  0.6746 -0.8660 -0.1242
   19CHTO  H120 7804   4.190   7.830   2.759 -0.5441  0.6051 -0.2261
   19CHTO   N11 7805   4.105   7.656   2.863 -0.1736 -0.3240 -0.0819
   19CHTO  H108 7806   4.186   7.655   2.933 -1.0542  1.5153  0.9972
   19CHTO  H109 7807   4.013   7.663   2.917  0.0573 -1.5023  0.4690
   19CHTO   C61 7808   3.973   7.849   2.739  0.1768 -0.9080  0.6146
   19CHTO  H118 7809   3.952   7.891   2.838 -0.0029  0.3484  0.0472
   19CHTO   O40 7810   3.993   7.957   2.643 -0.0448 -0.1736 -0.2811
   19CHTO   C68 7811   4.107   7.949   2.553 -0.0045 -0.1358 -0.1196
   19CHTO  H125 7812   4.200   7.978   2.606 -2.1715  1.5087  2.9154
   19CHTO   C72 7813   4.072   8.058   2.442 -0.1730  0.2123  0.0510
   19CHTO   O48 7814   4.179   8.059   2.348  0.0797  0.0992 -0.6856
   19CHTO  H105 7815   4.159   8.129   2.289 -2.9025 -0.8126 -0.8553
   19CHTO   O38 7816   3.855   7.770   2.712  0.4504  0.1355 -0.2250
   19CHTO   C55 7817   3.726   7.835   2.687 -0.5068 -0.6648 -0.4878
   19CHTO  H112 7818   3.746   7.941   2.667  0.7335 -0.7100  0.4689
   19CHTO   C56 7819   3.631   7.819   2.807  0.8588  0.3028 -0.5699
   19CHTO  H113 7820   3.619   7.711   2.827 -0.1971  0.3942 -0.6837
   19CHTO   O42 7821   3.692   7.866   2.925  0.6513  0.1183  0.2749
   19CHTO  H100 7822   3.737   7.948   2.921 -0.6115  0.8609  0.8203
   19CHTO   C57 7823   3.491   7.883   2.782 -0.1426 -0.5528  0.4470
   19CHTO  H114 7824   3.492   7.992   2.780 -0.8690 -0.5633 -0.9879
   19CHTO   N10 7825   3.392   7.852   2.889  0.6702  0.1538  0.1366
   19CHTO  H106 7826   3.424   7.914   2.971 -1.4891 -0.5691  1.5581
   19CHTO  H107 7827   3.411   7.749   2.916 -0.6897 -0.2037 -0.2225
   19CHTO   C58 7828   3.431   7.838   2.643 -0.1480  0.2477 -1.2037
   19CHTO  H115 7829   3.384   7.737   2.652  0.5357 -0.0696 -1.1365
   19CHTO   O37 7830   3.534   7.840   2.535 -0.2686  0.7051  0.4653
   19CHTO   C59 7831   3.657   7.771   2.566  0.3377  0.6431  0.6222
   19CHTO  H116 7832   3.638   7.667   2.592  3.8613 -0.1280  0.4215
   19CHTO   C70 7833   3.743   7.779   2.442  0.2801  0.4568  0.6672
   19CHTO   O46 7834   3.682   7.708   2.336  0.2578 -1.0228  0.5501
   19CHTO  H103 7835   3.714   7.724   2.249  1.6236 -0.2011  1.1927
   19CHTO   O39 7836   3.312   7.951   2.596  0.1443  0.3901  0.3796
   19CHTO   C60 7837   3.192   7.898   2.537 -0.4152  0.2568  0.3005
   19CHTO  H117 7838   3.208   7.796   2.505  0.4294  1.2593 -2.6607
   19CHTO   C62 7839   3.070   7.899   2.641  0.1801  0.3676 -0.3187
   19CHTO  H119 7840   3.101   7.829   2.721  0.0267  1.3546  0.6227
   19CHTO   O43 7841   3.043   8.030   2.703 -0.4891  0.4879 -0.1252
   19CHTO  H101 7842   3.119   8.059   2.750 -0.5015 -0.2763  0.3715
   19CHTO   C66 7843   2.941   7.838   2.578  0.6279 -0.3041  0.6274
   19CHTO  H123 7844   2.962   7.734   2.553  1.2172 -0.2266  0.7952
   19CHTO   N12 7845   2.835   7.818   2.681  0.3986  0.3163  0.1464
   19CHTO  H110 7846   2.760   7.895   2.668 -0.5333 -1.3112 -4.9288
   19CHTO  H111 7847   2.873   7.815   2.782  1.0525  3.1786  0.0431
   19CHTO   C69 7848   2.904   7.932   2.458 -0.3902  0.0658  0.0576
   19CHTO  H126 7849   2.892   8.039   2.484  2.2232 -0.0529  1.8924
   19CHTO   O41 7850   3.022   7.938   2.351 -0.7100 -0.1799 -0.0560
   19CHTO   C64 7851   3.154   7.981   2.414  0.3533  0.0892  0.0542
   19CHTO  H121 7852   3.132   8.085   2.445 -0.0010  0.0028  0.0995
   19CHTO   C71 7853   3.271   7.985   2.321 -0.1782  0.8268 -0.2278
   19CHTO   O47 7854   3.260   8.093   2.222 -0.6292  0.4746 -0.7516
   19CHTO  H104 7855   3.345   8.133   2.213 -0.2993 -0.1980 -0.6788
   19CHTO   O34 7856   2.775   7.869   2.379  0.5543 -0.4767  0.0396
   19CHTO   C49 7857   2.671   7.803   2.296 -0.3911 -0.0793 -0.4620
   19CHTO   H91 7858   2.581   7.801   2.357  0.4507  0.0830  0.8179
   19CHTO   C47 7859   2.699   7.660   2.260 -0.6012  0.1802  0.0936
   19CHTO   H89 7860   2.607   7.620   2.213 -0.1154 -3.4667  2.0766
   19CHTO   O33 7861   2.721   7.582   2.382 -0.2584 -0.0335 -0.0615
   19CHTO   H70 7862   2.791   7.613   2.436 -1.3437 -2.3154  2.8099
   19CHTO   C45 7863   2.821   7.641   2.150  0.4390  0.2025  0.4396
   19CHTO   H87 7864   2.911   7.611   2.206 -1.3219 -0.7153  2.8452
   19CHTO    N8 7865   2.779   7.532   2.063  0.3592 -0.9294  0.2212
   19CHTO   H75 7866   2.777   7.440   2.118  2.1291 -0.2471  1.4785
   19CHTO   H76 7867   2.684   7.542   2.013 -1.8172 -1.8682  3.9960
   19CHTO   C43 7868   2.859   7.783   2.086  0.2078 -0.9833 -0.0045
   19CHTO   H85 7869   2.913   7.835   2.165 -0.7899 -2.0740  1.4150
   19CHTO   O29 7870   2.742   7.852   2.050  0.1476 -0.1632  0.3953
   19CHTO   C50 7871   2.651   7.884   2.154  0.1364  0.2766  0.7710
   19CHTO   H92 7872   2.673   7.989   2.178  1.0461  0.4994 -1.0124
   19CHTO   C54 7873   2.502   7.896   2.107 -0.2649  0.5510  0.5964
   19CHTO   O36 7874   2.489   8.012   2.022 -0.2199 -0.0185 -0.3808
   19CHTO   H72 7875   2.408   8.011   1.973 -0.3863 -1.5205 -0.1130
   19CHTO   O27 7876   2.938   7.763   1.970 -0.3805  0.3372  0.0667
   19CHTO   C37 7877   3.070   7.795   1.930 -0.0019 -0.0034 -0.4239
   19CHTO   H79 7878   3.103   7.890   1.973 -0.0158  0.2453 -0.9561
   19CHTO   C38 7879   3.159   7.686   1.993  0.6075  0.3807  0.3842
   19CHTO   H80 7880   3.121   7.586   1.967  0.4434 -0.0479  2.2159
   19CHTO   O31 7881   3.152   7.699   2.135 -0.6978 -0.2645  0.1731
   19CHTO   H68 7882   3.181   7.783   2.163 -1.5852  1.0142 -2.5688
   19CHTO   C39 7883   3.305   7.699   1.943  0.0967 -0.0627  0.2418
   19CHTO   H81 7884   3.352   7.789   1.982 -1.2393  1.1140 -0.7887
   19CHTO    N7 7885   3.393   7.588   1.992 -0.0699 -0.7645 -0.5386
   19CHTO   H73 7886   3.349   7.566   2.088 -2.0249  1.3264 -0.9246
   19CHTO   H74 7887   3.397   7.513   1.914 -0.1163 -0.0619 -1.2232
   19CHTO   C40 7888   3.317   7.714   1.785  0.3758  0.6859  0.3609
   19CHTO   H82 7889   3.294   7.619   1.738  2.5944  0.9982 -1.4181
   19CHTO   O26 7890   3.222   7.816   1.744  0.4688 -0.3865 -0.0570
   19CHTO   C41 7891   3.083   7.798   1.780 -0.1876 -0.6260 -0.3529
   19CHTO   H83 7892   3.063   7.697   1.739  0.3403 -0.3504 -1.3110
   19CHTO   C52 7893   2.988   7.898   1.705 -0.0990 -0.3222  0.3259
   19CHTO   O35 7894   2.893   7.823   1.617  0.4408 -0.4227  0.0570
   19CHTO   H71 7895   2.812   7.869   1.607  0.3942 -0.4309  0.3796
   19CHTO   O28 7896   3.440   7.763   1.724  0.3328  0.7531  0.0562
   19CHTO   C42 7897   3.544   7.671   1.669  0.0737 -0.2420  0.2791
   19CHTO   H84 7898   3.546   7.578   1.725 -2.9633 -0.3880  0.1948
   19CHTO   C44 7899   3.693   7.738   1.687 -0.0680  0.4821  0.2500
   19CHTO   H86 7900   3.688   7.845   1.667  0.9953  0.2935 -1.0412
   19CHTO   O32 7901   3.718   7.729   1.830  0.4631  0.1104  0.6570
   19CHTO   H69 7902   3.676   7.794   1.882  1.1555  0.4213  0.8361
   19CHTO   C48 7903   3.813   7.673   1.605 -0.5052  0.0151  0.0866
   19CHTO   H90 7904   3.842   7.586   1.665  0.9537  1.1133  1.0037
   19CHTO    N9 7905   3.936   7.754   1.600  0.0385  0.2710  1.0698
   19CHTO   H77 7906   3.917   7.854   1.567 -3.1367 -0.7168 -0.2653
   19CHTO   H78 7907   3.981   7.752   1.698  1.2351  0.3885  0.5204
   19CHTO   C51 7908   3.756   7.621   1.471  0.2337 -0.1705 -0.2943
   19CHTO   H93 7909   3.744   7.703   1.401 -0.1677 -1.7659 -2.1473
   19CHTO   O30 7910   3.636   7.551   1.496  0.1798  0.1290  0.0856
   19CHTO   C46 7911   3.527   7.633   1.519  0.3270  0.5703  0.2818
   19CHTO   H88 7912   3.525   7.723   1.457  0.4030  1.3163  1.3601
   19CHTO   C53 7913   3.398   7.554   1.486 -0.6176  0.2987 -0.0076
   19CHTO   O72 7914   3.388   7.542   1.343 -0.1254  0.1249 -0.4126
   19CHTO  H199 7915   3.439   7.467   1.318 -1.9917 -1.3130 -0.0203
   19CHTO   O22 7916   3.843   7.525   1.412 -0.0258 -0.0242 -0.0398
   19CHTO   C31 7917   3.843   7.485   1.272  0.6982  0.3297  0.3425
   19CHTO   H59 7918   3.740   7.498   1.234  1.1279  0.0433 -0.9554
   19CHTO   C29 7919   3.935   7.567   1.187 -0.0085 -0.5788  0.4639
   19CHTO   H57 7920   4.039   7.553   1.221 -0.1103 -0.5396  0.7889
   19CHTO   O21 7921   3.912   7.709   1.198 -0.2648  0.1621 -0.0958
   19CHTO   H37 7922   3.868   7.745   1.124  1.6686  1.7603 -0.5273
   19CHTO   C27 7923   3.924   7.511   1.036  0.3387 -0.6016 -0.1258
   19CHTO   H55 7924   3.816   7.504   1.016  0.4174 -2.2963 -0.0075
   19CHTO    N5 7925   4.007   7.589   0.940 -0.1181 -0.3511  0.3657
   19CHTO   H43 7926   3.960   7.685   0.920 -0.3971 -0.3717  0.9297
   19CHTO   H44 7927   4.101   7.624   0.981 -0.0461  3.0057 -2.3905
   19CHTO   C25 7928   3.972   7.361   1.034 -0.2396 -0.6768  0.1718
   19CHTO   H53 7929   4.075   7.346   1.068 -0.2008 -2.0354 -0.5098
   19CHTO   O17 7930   3.884   7.285   1.127  0.1619 -0.2861  0.2213
   19CHTO   C32 7931   3.883   7.335   1.265 -0.0655  0.1396  0.0538
   19CHTO   H60 7932   3.980   7.332   1.314  0.8327  2.6866 -1.4742
   19CHTO   C36 7933   3.800   7.240   1.360 -0.5495  0.3596  0.0621
   19CHTO   O25 7934   3.665   7.242   1.313  0.3349  0.0108 -0.0559
   19CHTO   H40 7935   3.603   7.286   1.369 -1.6258 -0.4071 -1.8311
   19CHTO   O15 7936   3.926   7.290   0.911 -0.4869 -0.0636  0.3868
   19CHTO   C19 7937   4.001   7.191   0.831 -0.3280  0.1006 -0.1482
   19CHTO   H47 7938   3.945   7.193   0.737 -0.0097 -2.0480 -0.3964
   19CHTO   C20 7939   4.149   7.225   0.803  0.0207 -0.0740 -0.0656
   19CHTO   H48 7940   4.201   7.243   0.898 -1.2517  0.5977  0.5181
   19CHTO   O19 7941   4.147   7.348   0.722 -0.3853 -0.1489 -0.7140
   19CHTO   H35 7942   4.228   7.350   0.675  0.6302 -2.1031  0.8954
   19CHTO   C21 7943   4.230   7.102   0.735  0.2112 -1.0680  0.0190
   19CHTO   H49 7944   4.191   7.092   0.633 -0.0325  0.4321 -0.0389
   19CHTO    N4 7945   4.376   7.138   0.724  0.0171  0.4067  0.4938
   19CHTO   H41 7946   4.410   7.176   0.629 -0.9021 -1.0030 -0.4240
   19CHTO   H42 7947   4.398   7.210   0.801  0.5449  0.7901 -0.0140
   19CHTO   C22 7948   4.198   6.970   0.814  0.2423  0.3463  0.3926
   19CHTO   H50 7949   4.239   6.988   0.913 -0.2674  1.1263  0.4736
   19CHTO   O14 7950   4.057   6.939   0.825  0.2095 -0.1207  0.1158
   19CHTO   C23 7951   3.986   7.047   0.895 -0.6054  0.4198  0.1521
   19CHTO   H51 7952   4.014   7.041   1.001 -2.2281 -1.4813  0.5054
   19CHTO   C34 7953   3.842   7.008   0.891  0.3214  0.2342 -0.0595
   19CHTO   O23 7954   3.760   7.057   0.998 -0.3307  0.4922  0.3198
   19CHTO   H38 7955   3.675   7.025   0.974  0.1888  0.6148 -1.7578
   19CHTO   O16 7956   4.256   6.860   0.744 -0.2190 -0.2888 -0.0004
   19CHTO   C24 7957   4.317   6.751   0.832  0.2529 -0.4255  0.4082
   19CHTO   H52 7958   4.272   6.747   0.931  2.2006 -1.4702  1.2824
   19CHTO   C26 7959   4.467   6.769   0.856 -0.1506  0.1458  0.1918
   19CHTO   H54 7960   4.522   6.769   0.759 -0.7824 -0.5167 -0.1776
   19CHTO   O20 7961   4.485   6.894   0.925 -0.0430  0.1531  0.0715
   19CHTO   H36 7962   4.575   6.905   0.951 -0.1397 -1.6064  1.1994
   19CHTO   C30 7963   4.533   6.652   0.931  0.0061 -0.3709  0.2398
   19CHTO   H58 7964   4.498   6.658   1.035  0.8292 -1.5619  0.5850
   19CHTO    N6 7965   4.683   6.653   0.953  0.1165 -0.3775 -0.5092
   19CHTO   H45 7966   4.719   6.754   0.967 -0.3557 -0.3407  0.4946
   19CHTO   H46 7967   4.701   6.595   1.042  1.2750  0.1646 -0.3792
   19CHTO   C33 7968   4.490   6.512   0.868  0.8386  0.2923 -0.0131
   19CHTO   H61 7969   4.529   6.505   0.765 -0.3017 -2.9667 -0.2860
   19CHTO   O18 7970   4.346   6.515   0.857  0.0862 -0.8945 -0.7946
   19CHTO   C28 7971   4.297   6.620   0.768 -1.1312  0.3196  0.1798
   19CHTO   H56 7972   4.358   6.613   0.679  0.8576 -0.7509  1.5989
   19CHTO   C35 7973   4.154   6.594   0.747  0.0257 -0.5930 -0.0881
   19CHTO   O24 7974   4.112   6.455   0.714 -0.6524 -0.8756  0.1067
   19CHTO   H39 7975   4.136   6.396   0.782  1.4652 -0.0807  0.0693
   19CHTO    O9 7976   4.540   6.392   0.939 -0.2722  0.7114 -0.1526
   19CHTO   C13 7977   4.604   6.273   0.834  0.0110  0.1802  0.0682
   19CHTO   H26 7978   4.679   6.330   0.776  0.2516  1.6963  1.8205
   19CHTO   C11 7979   4.496   6.212   0.740  0.0787  0.8733 -0.3516
   19CHTO   H24 7980   4.484   6.279   0.653  1.4666  0.0289 -1.2033
   19CHTO    O8 7981   4.372   6.216   0.811  0.4294  0.3973  0.0412
   19CHTO    H3 7982   4.347   6.297   0.852  0.5540  1.1007 -1.2497
   19CHTO    C9 7983   4.543   6.066   0.704 -0.1744 -0.0935 -0.6071
   19CHTO   H22 7984   4.645   6.079   0.667 -0.0133  1.1827  0.2507
   19CHTO    N2 7985   4.477   5.995   0.588  0.4374 -0.2590 -0.8773
   19CHTO   H10 7986   4.524   5.898   0.585  0.4396 -0.2780 -0.2076
   19CHTO   H11 7987   4.371   5.986   0.608  0.5498  1.7284  0.7465
   19CHTO    C7 7988   4.555   5.985   0.836 -0.1876  0.4801 -0.2465
   19CHTO   H20 7989   4.621   5.896   0.828 -1.9496 -0.6992 -2.4085
   19CHTO    O4 7990   4.586   6.059   0.958  0.1521  0.0351  0.1144
   19CHTO   C14 7991   4.676   6.168   0.932 -0.1030  0.3152  0.3442
   19CHTO   H27 7992   4.760   6.121   0.877  0.3889  2.1300 -0.4854
   19CHTO   C18 7993   4.739   6.228   1.066 -0.5867 -0.1299  0.7897
   19CHTO   O13 7994   4.848   6.318   1.032 -0.2133  0.2511 -0.3035
   19CHTO    H7 7995   4.833   6.393   1.086  0.2340  0.1584 -0.0453
   19CHTO    O2 7996   4.403   5.906   0.860  0.0372 -0.0052  0.0528
   19CHTO    C1 7997   4.390   5.775   0.904 -0.0237  0.1160  0.4494
   19CHTO   H14 7998   4.487   5.737   0.943 -0.2766 -2.4929 -1.3195
   19CHTO    C2 7999   4.337   5.678   0.792 -0.6088 -0.2537 -0.1241
   19CHTO   H15 8000   4.263   5.737   0.736  0.9617 -0.5360 -2.6092
   19CHTO    O6 8001   4.442   5.640   0.704  0.1835 -0.3406  0.2200
   19CHTO    H1 8002   4.401   5.617   0.622 -0.3511  1.7033 -0.1128
   19CHTO    C3 8003   4.270   5.544   0.845  0.1015 -0.3506 -0.5587
   19CHTO   H16 8004   4.345   5.476   0.887 -3.3715 -3.1195  1.4943
   19CHTO    N1 8005   4.194   5.469   0.740 -0.2369  0.0570 -0.1049
   19CHTO    H8 8006   4.132   5.542   0.691  0.1527  0.0178 -0.6538
   19CHTO    H9 8007   4.249   5.410   0.668 -0.8616  0.1211 -0.6382
   19CHTO    C4 8008   4.178   5.583   0.962 -0.0668 -0.3754 -0.1812
   19CHTO   H17 8009   4.109   5.655   0.917 -0.5473 -0.2845  0.6837
   19CHTO    O1 8010   4.259   5.644   1.063 -0.6270  0.0756  0.4952
   19CHTO    C5 8011   4.291   5.781   1.024 -0.0751 -0.6512 -0.1208
   19CHTO   H18 8012   4.200   5.832   0.992 -1.3291 -2.7269  0.0896
   19CHTO   C16 8013   4.349   5.844   1.152 -0.0625 -0.3290  0.2829
   19CHTO   O11 8014   4.491   5.876   1.152 -0.5647  0.0468  0.4278
   19CHTO    H5 8015   4.540   5.799   1.128  0.4548  0.5280  0.9173
   19CHTO    O3 8016   4.124   5.475   1.036  0.0908 -0.4253 -0.2060
   19CHTO    C6 8017   3.984   5.492   1.078  0.3857  0.1963  0.8396
   19CHTO   H19 8018   3.952   5.593   1.104  0.9750  0.9520 -1.2835
   19CHTO    C8 8019   3.877   5.449   0.965  0.0993  0.0182 -0.3844
   19CHTO   H21 8020   3.895   5.347   0.930 -2.1302 -0.8650  0.9621
   19CHTO    O7 8021   3.892   5.538   0.851  0.3770  0.1213 -0.3890
   19CHTO    H2 8022   3.816   5.540   0.796 -0.5939 -4.2711  0.6393
   19CHTO   C12 8023   3.730   5.444   1.032  0.0330  0.1011 -0.1434
   19CHTO   H25 8024   3.716   5.550   1.059  0.3043  0.1578 -0.2261
   19CHTO    N3 8025   3.621   5.400   0.930 -0.3959 -0.5172  0.1003
   19CHTO   H12 8026   3.653   5.421   0.829  3.4018 -1.6728  0.9552
   19CHTO   H13 8027   3.572   5.305   0.948  0.8261 -0.9831  1.0932
   19CHTO   C15 8028   3.733   5.351   1.162  0.4255 -1.1171  0.3807
   19CHTO   H28 8029   3.744   5.247   1.133 -1.0019 -1.1041 -0.2868
   19CHTO   O10 8030   3.624   5.348   1.238 -0.0375  0.0096  0.3333
   19CHTO    H4 8031   3.555   5.297   1.199  0.1905 -1.0487  1.2847
   19CHTO    O5 8032   3.825   5.395   1.259 -0.4590 -0.0119  0.7687
   19CHTO   C10 8033   3.966   5.397   1.205 -0.0829  0.3774 -0.2304
   19CHTO   H23 8034   3.996   5.296   1.179  1.2804  1.0013 -1.1065
   19CHTO   C17 8035   4.038   5.453   1.331  0.6408  0.0386 -0.0378
   19CHTO   O12 8036   3.979   5.578   1.375  0.4888  0.3671 -0.6832
   19CHTO    H6 8037   3.983   5.577   1.469  2.4108 -2.5802 -0.7454
   20CHTO  H203 8038   5.185   0.053   1.934  1.2475 -1.1466  0.3353
   20CHTO   O82 8039   5.139   0.058   2.016 -0.3632  0.7243 -0.6357
   20CHTO  C123 8040   5.071   0.184   2.016 -0.4672  0.0866 -0.2043
   20CHTO  H227 8041   5.020   0.190   2.113  0.0821 -0.6074  0.1350
   20CHTO   O77 8042   5.188   0.274   2.017 -0.3156  0.2157  0.4592
   20CHTO  C118 8043   5.159   0.417   2.007  0.3694  0.7768  0.3511
   20CHTO  H222 8044   5.116   0.458   2.099  2.1970  1.2968  0.9994
   20CHTO  C125 8045   5.298   0.483   1.990 -0.4135  0.3686  0.6804
   20CHTO   O84 8046   5.371   0.434   1.876  0.4810 -0.0665 -0.2221
   20CHTO  H205 8047   5.345   0.350   1.843  0.6143  1.5864 -4.9773
   20CHTO  C114 8048   5.064   0.445   1.891  0.1814 -0.2843  0.2793
   20CHTO  H218 8049   5.111   0.429   1.794 -1.6476  2.9847 -1.2450
   20CHTO  C116 8050   4.932   0.366   1.912 -0.0961 -0.1550  0.1744
   20CHTO  H220 8051   4.884   0.392   2.009  0.3530 -0.7816  0.5667
   20CHTO   O79 8052   4.837   0.412   1.814 -0.0809  0.7400  0.0473
   20CHTO  H201 8053   4.764   0.452   1.858 -0.3735  0.6244 -0.3376
   20CHTO  C120 8054   4.965   0.210   1.902 -0.3867 -0.0892 -0.0125
   20CHTO  H224 8055   5.014   0.190   1.805  1.2430 -1.1639  1.0089
   20CHTO   N21 8056   4.851   0.115   1.900 -0.1404  0.4564 -0.4550
   20CHTO  H211 8057   4.817   0.066   1.990 -0.7367 -1.8881 -1.9173
   20CHTO  H212 8058   4.880   0.040   1.827  0.2226 -0.4419  0.5983
   20CHTO   O75 8059   5.046   0.592   1.901 -0.4932  0.9228  0.1716
   20CHTO  C112 8060   5.112   0.679   1.760  0.3210  0.7688 -0.1363
   20CHTO  H216 8061   5.132   0.612   1.675  0.3017  0.2030  0.3023
   20CHTO   O73 8062   5.228   0.747   1.802  0.1519  0.2588 -0.0703
   20CHTO  C113 8063   5.299   0.797   1.688  0.3349 -0.1172  0.3847
   20CHTO  H217 8064   5.325   0.713   1.621 -0.0610 -0.7988  1.0717
   20CHTO  C124 8065   5.431   0.860   1.736  0.5597  0.6488  0.3926
   20CHTO   O83 8066   5.528   0.770   1.791 -0.2999 -0.2487 -0.0265
   20CHTO  H204 8067   5.605   0.822   1.805 -0.1882  0.1961 -2.0265
   20CHTO  C109 8068   5.215   0.907   1.616  0.9819  0.5347  0.5068
   20CHTO  H213 8069   5.218   0.995   1.682 -0.5111  0.4743  0.6713
   20CHTO  C110 8070   5.069   0.868   1.598  1.0448 -0.3214  0.3571
   20CHTO  H214 8071   5.064   0.810   1.506 -0.8623  0.2062  0.0967
   20CHTO   O78 8072   5.000   0.988   1.562  0.5752 -0.5604 -0.0137
   20CHTO  H200 8073   4.916   0.963   1.529 -0.2153 -0.0933  1.5761
   20CHTO  C111 8074   5.010   0.787   1.712 -0.0628  0.1222  0.2965
   20CHTO  H215 8075   4.991   0.856   1.796  1.8644 -0.2127  1.0209
   20CHTO   N19 8076   4.877   0.728   1.678 -0.4383 -0.2263 -0.8587
   20CHTO  H207 8077   4.841   0.667   1.759  1.3080  0.5201  0.5172
   20CHTO  H208 8078   4.881   0.679   1.582  0.1429 -1.5811 -0.1466
   20CHTO   O74 8079   5.266   0.939   1.480  0.2399 -0.1222 -0.4359
   20CHTO  C115 8080   5.344   1.084   1.470  0.7232 -0.2208 -0.6248
   20CHTO  H219 8081   5.367   1.123   1.569  0.8945 -2.0764  0.0844
   20CHTO   O76 8082   5.484   1.067   1.403  0.3270  0.1159  0.0076
   20CHTO  C122 8083   5.495   1.006   1.276 -0.1002 -0.1494 -0.1237
   20CHTO  H226 8084   5.504   0.897   1.283  2.0364 -0.0302 -0.7153
   20CHTO  C126 8085   5.621   1.064   1.209  0.6921  0.0063  0.2195
   20CHTO   O85 8086   5.666   0.996   1.095 -0.6188  0.4969  0.5457
   20CHTO  H206 8087   5.715   0.920   1.121  0.5708  1.8188  2.2397
   20CHTO  C121 8088   5.368   1.054   1.185  0.3131  0.1350 -0.2676
   20CHTO  H225 8089   5.405   1.066   1.080  1.4852  0.2210  0.1434
   20CHTO   O81 8090   5.268   0.961   1.181 -0.5344  0.3815  0.6435
   20CHTO  H202 8091   5.309   0.884   1.145  0.2555 -0.2916  2.9055
   20CHTO  C119 8092   5.312   1.195   1.231 -0.8677  0.2534  0.1839
   20CHTO  H223 8093   5.396   1.264   1.236 -1.4845  0.9420  1.1815
   20CHTO  C117 8094   5.256   1.172   1.377 -0.0948  0.6256 -0.2792
   20CHTO  H221 8095   5.158   1.125   1.382 -0.9085  2.0052 -2.5429
   20CHTO   N20 8096   5.235   1.303   1.443 -0.8095  0.3608 -0.1732
   20CHTO  H209 8097   5.329   1.347   1.472 -0.4678  0.0771 -0.8418
   20CHTO  H210 8098   5.149   1.362   1.416 -0.6576  1.0609  0.8231
   20CHTO   O80 8099   5.216   1.266   1.120 -0.0635  0.2553 -1.0473
   20CHTO  C103 8100   5.073   1.193   1.069  1.1361 -0.4633  0.2314
   20CHTO  H190 8101   5.095   1.102   1.013 -0.6482 -0.7432 -0.0300
   20CHTO  C101 8102   4.964   1.141   1.175  0.6710  0.3146 -0.7337
   20CHTO  H188 8103   4.946   1.211   1.257  0.5652  0.6364 -1.0275
   20CHTO   O68 8104   5.010   1.010   1.249 -0.1561 -0.5162  0.4266
   20CHTO  H168 8105   4.942   0.964   1.295  0.6097 -2.6756 -0.5467
   20CHTO   C99 8106   4.811   1.127   1.113  0.4799  0.0151  0.4284
   20CHTO  H186 8107   4.812   1.040   1.045 -2.1466  1.5008 -1.5920
   20CHTO   N17 8108   4.704   1.087   1.211  0.0751  0.2308  0.0180
   20CHTO  H174 8109   4.655   1.182   1.230 -2.7330 -0.2870 -4.0073
   20CHTO  H175 8110   4.747   1.046   1.302  1.4206  2.3810  0.3947
   20CHTO   C97 8111   4.774   1.249   1.022 -0.0126 -0.3458  0.1750
   20CHTO  H184 8112   4.778   1.336   1.089  0.9384 -0.3431  0.1221
   20CHTO   O64 8113   4.878   1.256   0.915 -0.0064 -0.7800  0.2445
   20CHTO  C104 8114   5.011   1.295   0.966  0.5431 -0.4303 -0.7242
   20CHTO  H191 8115   5.004   1.393   1.013  1.5495 -1.2280  1.1850
   20CHTO  C108 8116   5.099   1.313   0.844  0.9620 -0.4288 -0.2649
   20CHTO   O71 8117   5.077   1.434   0.773  0.3032 -0.7193  0.4817
   20CHTO  H171 8118   5.115   1.508   0.815  1.0120  0.4356 -2.1172
   20CHTO   O62 8119   4.639   1.240   0.975  0.2697  0.4783  0.0126
   20CHTO   C91 8120   4.581   1.372   0.951  0.6711 -0.0222 -0.4444
   20CHTO  H178 8121   4.634   1.450   1.006 -0.1576  1.4134 -1.6287
   20CHTO   C92 8122   4.438   1.372   1.015 -0.5149  0.0459 -0.8997
   20CHTO  H179 8123   4.393   1.275   0.991  0.6602 -0.0605 -2.7122
   20CHTO   O66 8124   4.440   1.366   1.161  0.0520  0.0704  0.0415
   20CHTO  H166 8125   4.430   1.450   1.202 -1.6121  0.5673 -1.3046
   20CHTO   C93 8126   4.334   1.482   0.968  0.3710  0.6299  0.4934
   20CHTO  H180 8127   4.346   1.575   1.026 -0.2630  0.7646  0.4106
   20CHTO   N16 8128   4.188   1.451   0.994  0.4818 -0.5406  0.9508
   20CHTO  H172 8129   4.169   1.378   1.071  0.2145 -0.7802  0.6610
   20CHTO  H173 8130   4.123   1.537   1.004  0.4964 -0.1068 -2.1174
   20CHTO   C94 8131   4.359   1.511   0.812  0.6578 -0.5407 -0.1394
   20CHTO  H181 8132   4.339   1.425   0.748 -1.6324  1.7091 -2.5919
   20CHTO   O61 8133   4.500   1.543   0.787 -0.6996  0.3622 -0.5776
   20CHTO   C95 8134   4.576   1.417   0.803 -0.4063  0.4539 -0.0442
   20CHTO  H182 8135   4.528   1.341   0.741  1.8753 -0.4138 -0.7793
   20CHTO  C106 8136   4.709   1.438   0.733 -0.4179  0.1525 -0.3963
   20CHTO   O69 8137   4.770   1.558   0.790  0.5882 -0.5439  0.3427
   20CHTO  H169 8138   4.858   1.545   0.821  0.4814 -0.4964  0.6633
   20CHTO   O63 8139   4.278   1.628   0.757 -0.1795 -0.4843  0.6103
   20CHTO   C96 8140   4.260   1.612   0.600  0.1394 -0.0382  0.3883
   20CHTO  H183 8141   4.309   1.523   0.559 -0.2290 -0.1333  0.1489
   20CHTO   C98 8142   4.324   1.734   0.528 -0.6898  0.0491  0.5764
   20CHTO  H185 8143   4.288   1.821   0.584  0.4783  1.9904 -1.5901
   20CHTO   O67 8144   4.465   1.726   0.534 -0.1673 -0.1111  0.2727
   20CHTO  H167 8145   4.489   1.700   0.621  2.6669  0.5422 -0.2561
   20CHTO  C102 8146   4.284   1.749   0.376  0.4597  0.4955 -0.6155
   20CHTO  H189 8147   4.359   1.693   0.317  0.3881 -0.0704 -0.1776
   20CHTO   N18 8148   4.296   1.887   0.328 -0.5015  0.4228 -0.1057
   20CHTO  H176 8149   4.272   1.890   0.222 -2.7064 -1.0789  0.3357
   20CHTO  H177 8150   4.399   1.916   0.347 -0.4625 -1.6754  3.2237
   20CHTO  C105 8151   4.146   1.682   0.344  0.7180  0.3668 -0.2049
   20CHTO  H192 8152   4.069   1.759   0.349  1.3581  0.9490  0.8375
   20CHTO   O65 8153   4.100   1.568   0.418  0.1806  0.4174  0.6630
   20CHTO  C100 8154   4.113   1.582   0.560 -0.1755 -0.3535 -0.6316
   20CHTO  H187 8155   4.046   1.664   0.591  2.2459  1.7254 -0.7415
   20CHTO  C107 8156   4.065   1.457   0.626  0.2923  0.1542  0.0676
   20CHTO   O70 8157   3.927   1.432   0.591  0.0629  0.1575 -0.3431
   20CHTO  H170 8158   3.916   1.345   0.557  0.8810  0.6333 -1.9042
   20CHTO   O57 8159   4.165   1.655   0.171 -0.0849 -0.3516  0.2487
   20CHTO   C85 8160   4.245   1.549   0.120  0.5323 -0.2476 -0.0690
   20CHTO  H157 8161   4.309   1.522   0.206  2.4035  0.0697 -1.3218
   20CHTO   C83 8162   4.358   1.593   0.024  0.1982 -0.2327  0.4537
   20CHTO  H155 8163   4.441   1.649   0.068  0.4234 -0.6888  0.6115
   20CHTO   O56 8164   4.310   1.703  -0.062  0.3486 -0.5628  0.6762
   20CHTO  H135 8165   4.359   1.687  -0.140  0.0053 -2.7299  0.8748
   20CHTO   C81 8166   4.410   1.469  -0.056  0.6617 -0.3532 -0.2475
   20CHTO  H153 8167   4.457   1.401   0.016 -1.4658 -0.1917  1.3260
   20CHTO   N14 8168   4.521   1.500  -0.149 -0.2591  0.5816  0.2493
   20CHTO  H141 8169   4.481   1.544  -0.238  1.7550  1.0616 -0.4318
   20CHTO  H142 8170   4.601   1.561  -0.113  0.3347 -0.8289  1.3428
   20CHTO   C79 8171   4.295   1.391  -0.124 -0.3474 -0.6456 -0.2050
   20CHTO  H151 8172   4.339   1.307  -0.179  0.1855 -1.3268  1.2175
   20CHTO   O52 8173   4.228   1.333  -0.013  0.6182 -0.0765  0.5827
   20CHTO   C86 8174   4.149   1.428   0.070 -0.3511  0.2206  0.1013
   20CHTO  H158 8175   4.066   1.472   0.011  0.3052 -0.3143 -1.2499
   20CHTO   C90 8176   4.082   1.345   0.187 -0.3065 -0.0845  0.7629
   20CHTO   O60 8177   4.181   1.302   0.278 -0.4056 -0.6800 -0.6697
   20CHTO  H138 8178   4.143   1.272   0.358  2.3133  0.0883  0.9768
   20CHTO   O50 8179   4.210   1.482  -0.197 -0.5459  0.3691 -0.0177
   20CHTO   C73 8180   4.154   1.478  -0.324 -0.1923  0.3486 -0.2928
   20CHTO  H145 8181   4.215   1.421  -0.396 -1.4613 -2.4764  0.7943
   20CHTO   C74 8182   4.146   1.620  -0.379  1.0351  0.2105  0.7338
   20CHTO  H146 8183   4.242   1.671  -0.371  0.4965  1.4253 -0.4126
   20CHTO   O54 8184   4.113   1.600  -0.520 -0.1643 -0.2713 -0.3283
   20CHTO  H133 8185   4.061   1.672  -0.549  0.8077  0.7528  0.4239
   20CHTO   C75 8186   4.031   1.704  -0.302 -0.2964  0.1583  0.1344
   20CHTO  H147 8187   4.065   1.720  -0.199  1.3323  2.3168 -0.6962
   20CHTO   N13 8188   3.998   1.837  -0.364 -0.6296  0.0686  0.3769
   20CHTO  H139 8189   4.001   1.909  -0.283  1.0988  0.2769  0.1445
   20CHTO  H140 8190   4.061   1.866  -0.447 -2.2962  0.7769 -0.6678
   20CHTO   C76 8191   3.898   1.626  -0.277 -0.6483 -0.1810  0.1712
   20CHTO  H148 8192   3.858   1.611  -0.377  1.7381  0.4993 -0.9291
   20CHTO   O49 8193   3.922   1.490  -0.222 -0.1859  0.0769  0.2884
   20CHTO   C77 8194   4.009   1.413  -0.314  0.5989 -0.7127 -0.2570
   20CHTO  H149 8195   3.957   1.411  -0.410 -1.0119 -0.7612  0.5940
   20CHTO   C88 8196   4.001   1.264  -0.268 -0.2961  0.3647  0.4196
   20CHTO   O58 8197   4.089   1.169  -0.356  0.2639  0.4380 -0.2691
   20CHTO  H136 8198   4.040   1.145  -0.432  1.2164 -2.0624 -0.1455
   20CHTO   O51 8199   3.793   1.715  -0.173 -0.5748  0.2783 -0.4059
   20CHTO   C78 8200   3.816   1.686  -0.003  0.1683  0.4950  1.2357
   20CHTO  H150 8201   3.906   1.621   0.009  0.2394  0.4223  0.2985
   20CHTO   C80 8202   3.692   1.600   0.041  0.1689  0.1107  0.0551
   20CHTO  H152 8203   3.601   1.661   0.022 -0.8702 -1.6749 -0.9033
   20CHTO   O55 8204   3.690   1.476  -0.035 -0.0528 -0.3686  0.5635
   20CHTO  H134 8205   3.639   1.491  -0.112  2.1465 -0.2837 -0.9016
   20CHTO   C84 8206   3.705   1.576   0.193  0.0104 -0.7651  0.4452
   20CHTO  H156 8207   3.801   1.528   0.209 -0.1917 -0.8208  1.5280
   20CHTO   N15 8208   3.595   1.491   0.252 -1.2591 -0.0389 -0.4629
   20CHTO  H143 8209   3.628   1.437   0.337  0.8130  1.3186 -0.3541
   20CHTO  H144 8210   3.553   1.421   0.183  1.6165  0.2515 -2.6409
   20CHTO   C87 8211   3.718   1.706   0.280  0.3096 -0.6364 -0.1371
   20CHTO  H159 8212   3.623   1.760   0.280  0.7997  0.2345 -0.6844
   20CHTO   O53 8213   3.842   1.797   0.206  0.3557  0.3842  0.4818
   20CHTO   C82 8214   3.815   1.824   0.074  0.3941 -0.5516  0.0663
   20CHTO  H154 8215   3.718   1.872   0.064  0.8449  0.7435  1.6587
   20CHTO   C89 8216   3.918   1.924   0.016  0.6621 -0.2111 -0.7625
   20CHTO   O59 8217   4.053   1.887   0.052 -0.4436 -0.2434 -0.1882
   20CHTO  H137 8218   4.054   1.794   0.043 -0.6199 -0.4696  1.8802
   20CHTO   O45 8219   3.775   1.671   0.426  0.7595 -0.4236 -0.1507
   20CHTO   C67 8220   3.744   1.760   0.532  0.1182  0.1465 -0.2193
   20CHTO  H124 8221   3.809   1.728   0.613  0.6954  1.3725 -0.1886
   20CHTO   C65 8222   3.796   1.906   0.493 -0.0341  0.3571  0.2135
   20CHTO  H122 8223   3.777   1.919   0.387  0.0505 -2.7248 -0.2234
   20CHTO   O44 8224   3.937   1.912   0.532 -0.8629 -0.3747  0.8204
   20CHTO  H102 8225   3.963   2.000   0.549  1.5454 -0.5818 -1.4956
   20CHTO   C63 8226   3.704   2.010   0.568  0.1703  0.2442  0.1769
   20CHTO  H120 8227   3.607   2.017   0.519 -0.7524 -2.8712  1.4011
   20CHTO   N11 8228   3.763   2.145   0.562 -0.5284 -0.5773  0.4185
   20CHTO  H108 8229   3.764   2.182   0.462  1.6225 -2.0056 -0.1123
   20CHTO  H109 8230   3.866   2.134   0.587 -0.3577 -0.6206 -0.3038
   20CHTO   C61 8231   3.662   1.963   0.716 -0.0818 -0.3742 -0.1063
   20CHTO  H118 8232   3.593   2.038   0.758 -1.0386 -1.1564 -0.2499
   20CHTO   O40 8233   3.594   1.830   0.720 -0.1404 -0.2329 -0.5402
   20CHTO   C68 8234   3.596   1.755   0.595  0.3305 -0.3334 -0.6713
   20CHTO  H125 8235   3.516   1.797   0.531  0.5806  3.6701  1.4621
   20CHTO   C72 8236   3.553   1.610   0.634 -0.2168 -0.3964  0.8590
   20CHTO   O48 8237   3.633   1.557   0.738 -0.2101 -0.0452 -0.6671
   20CHTO  H105 8238   3.723   1.552   0.712 -0.0590 -0.1904 -0.1314
   20CHTO   O38 8239   3.786   1.953   0.786 -0.7039 -0.3689  0.2175
   20CHTO   C55 8240   3.774   1.952   0.927 -0.2936  0.2310 -0.5543
   20CHTO  H112 8241   3.675   1.917   0.959 -0.6257  1.9272  0.3259
   20CHTO   C56 8242   3.800   2.097   0.977 -1.2059 -0.2299 -0.0211
   20CHTO  H113 8243   3.879   2.147   0.919 -2.5985  2.8748  0.6718
   20CHTO   O42 8244   3.688   2.178   0.955  0.2838  0.0677  0.5100
   20CHTO  H100 8245   3.677   2.176   0.861 -0.3207  0.6522  0.5674
   20CHTO   C57 8246   3.835   2.106   1.130  0.1435 -0.5580 -0.1991
   20CHTO  H114 8247   3.738   2.107   1.179 -0.9472 -2.1608 -2.2169
   20CHTO   N10 8248   3.905   2.230   1.153 -1.1058 -0.2970  0.0555
   20CHTO  H106 8249   3.952   2.222   1.250 -1.3906 -2.2062  0.0475
   20CHTO  H107 8250   3.832   2.310   1.157 -0.5848  0.1536  0.7301
   20CHTO   C58 8251   3.924   1.990   1.178 -0.6781 -0.8351 -0.4117
   20CHTO  H115 8252   4.030   2.001   1.147 -0.0853 -0.1411  1.7953
   20CHTO   O37 8253   3.868   1.860   1.132  0.3745  0.0062  0.2815
   20CHTO   C59 8254   3.875   1.853   0.985 -0.0723 -0.7431 -0.1954
   20CHTO  H116 8255   3.974   1.882   0.948  0.3682 -0.4551  1.1867
   20CHTO   C70 8256   3.844   1.707   0.947  0.4632  0.3195  0.1202
   20CHTO   O46 8257   3.926   1.607   1.008  0.1660  0.1802  0.2791
   20CHTO  H103 8258   3.883   1.524   0.998  0.7168 -0.0497 -0.1640
   20CHTO   O39 8259   3.915   1.976   1.341  0.0655 -0.2833  0.3378
   20CHTO   C60 8260   3.998   1.878   1.400  0.0133  0.1835 -0.5334
   20CHTO  H117 8261   4.041   1.814   1.324  1.7228  1.1966 -0.4436
   20CHTO   C62 8262   4.105   1.957   1.478  0.1214  0.0336 -0.6729
   20CHTO  H119 8263   4.140   2.028   1.400  2.2710 -0.4453 -0.1927
   20CHTO   O43 8264   4.053   2.034   1.585 -0.0056 -0.2898  0.5250
   20CHTO  H101 8265   4.110   2.091   1.631 -0.8192 -0.0827  1.2961
   20CHTO   C66 8266   4.217   1.856   1.531 -0.8980 -0.0751  0.4456
   20CHTO  H123 8267   4.262   1.811   1.443 -1.4151 -0.3082  0.3024
   20CHTO   N12 8268   4.337   1.922   1.596  0.2054 -0.3453 -0.0486
   20CHTO  H110 8269   4.418   1.934   1.526 -1.3992 -0.7537 -2.0363
   20CHTO  H111 8270   4.302   2.017   1.632  2.8716  0.1813  1.2158
   20CHTO   C69 8271   4.156   1.746   1.614  0.2436 -1.2095 -0.0214
   20CHTO  H126 8272   4.150   1.761   1.724  1.4681 -3.0272  0.3143
   20CHTO   O41 8273   3.999   1.708   1.560 -0.1064  0.3496 -0.0649
   20CHTO   C64 8274   3.917   1.788   1.493  0.5468  0.1166  1.0221
   20CHTO  H121 8275   3.855   1.855   1.556  0.0745  2.0270 -1.4187
   20CHTO   C71 8276   3.826   1.687   1.416 -0.0756  0.3971 -0.8691
   20CHTO   O47 8277   3.779   1.579   1.502  0.7417 -0.0595  0.5919
   20CHTO  H104 8278   3.693   1.551   1.478  1.0566 -0.4136 -0.1541
   20CHTO   O34 8279   4.226   1.615   1.613  0.1171 -0.5335 -0.4453
   20CHTO   C49 8280   4.313   1.522   1.506  0.0292 -0.3676  0.0122
   20CHTO   H91 8281   4.377   1.592   1.452 -0.0980  1.0027  1.5929
   20CHTO   C47 8282   4.220   1.452   1.406  0.4060 -0.6266 -0.2901
   20CHTO   H89 8283   4.284   1.387   1.343  3.1565  0.6694  1.0712
   20CHTO   O33 8284   4.146   1.546   1.328  0.6250 -0.2012  0.6411
   20CHTO   H70 8285   4.171   1.632   1.358 -0.2359 -0.3366  1.8007
   20CHTO   C45 8286   4.124   1.358   1.495 -0.5370 -0.1420 -0.9743
   20CHTO   H87 8287   4.094   1.416   1.584 -1.2894 -1.7245 -0.1782
   20CHTO    N8 8288   4.005   1.309   1.424 -0.3812  0.0489 -0.1569
   20CHTO   H75 8289   3.939   1.391   1.399  0.2706  0.3609 -0.8858
   20CHTO   H76 8290   4.024   1.255   1.332 -1.2376 -1.5107  0.5489
   20CHTO   C43 8291   4.216   1.237   1.556 -1.0782  0.0036  0.5769
   20CHTO   H85 8292   4.155   1.171   1.618  0.5469 -0.3390  1.8202
   20CHTO   O29 8293   4.315   1.302   1.641 -0.8061 -0.0366  0.3462
   20CHTO   C50 8294   4.393   1.413   1.586 -0.0973  0.5847 -0.3014
   20CHTO   H92 8295   4.439   1.464   1.672  0.6119 -2.7689  1.3611
   20CHTO   C54 8296   4.513   1.363   1.502  0.4849  0.4025 -0.8551
   20CHTO   O36 8297   4.598   1.270   1.575 -0.7739 -0.6450 -0.0125
   20CHTO   H72 8298   4.542   1.197   1.588 -2.3897  0.7446  1.0719
   20CHTO   O27 8299   4.276   1.153   1.460 -0.8032 -0.1877  0.2117
   20CHTO   C37 8300   4.262   1.033   1.376 -0.1925 -0.5225 -0.3363
   20CHTO   H79 8301   4.159   0.995   1.378 -0.9407  1.3287 -2.2682
   20CHTO   C38 8302   4.284   1.064   1.228 -1.0677 -0.2716  0.0870
   20CHTO   H80 8303   4.377   1.122   1.221 -0.6021 -1.0633 -0.4686
   20CHTO   O31 8304   4.172   1.139   1.185 -0.0656  0.1702  0.4378
   20CHTO   H68 8305   4.140   1.116   1.100  0.6798  1.2162 -0.1496
   20CHTO   C39 8306   4.299   0.938   1.142 -0.8607  0.4097  0.3519
   20CHTO   H81 8307   4.196   0.902   1.136 -0.9078  0.8831 -1.8764
   20CHTO    N7 8308   4.329   0.956   0.990 -0.1721  0.1469 -0.2305
   20CHTO   H73 8309   4.328   1.063   0.973 -0.0963  0.0966 -0.5549
   20CHTO   H74 8310   4.431   0.923   0.975 -0.3319 -0.4701  0.0464
   20CHTO   C40 8311   4.396   0.828   1.209 -0.0341  0.4995  0.2776
   20CHTO   H82 8312   4.494   0.875   1.202  0.3831 -0.0659  2.1586
   20CHTO   O26 8313   4.359   0.804   1.347 -0.0809 -0.1105  0.0797
   20CHTO   C41 8314   4.359   0.922   1.432  1.2846 -0.8429 -0.0768
   20CHTO   H83 8315   4.461   0.963   1.439  0.5210  0.8797  1.2855
   20CHTO   C52 8316   4.311   0.882   1.581  0.5239 -0.0161 -0.1001
   20CHTO   O35 8317   4.401   0.785   1.653 -0.0053 -0.1106 -0.4894
   20CHTO   H71 8318   4.389   0.786   1.746  1.1247  1.2204 -0.3362
   20CHTO   O28 8319   4.405   0.702   1.143 -0.3013  0.1840  0.3227
   20CHTO   C42 8320   4.521   0.623   1.128 -0.2960 -0.5920 -0.1104
   20CHTO   H84 8321   4.478   0.522   1.125  0.4018 -0.8629 -1.5321
   20CHTO   C44 8322   4.628   0.618   1.253 -0.6221 -0.0138  0.0545
   20CHTO   H86 8323   4.651   0.719   1.287 -0.8082 -0.3436  1.2010
   20CHTO   O32 8324   4.575   0.548   1.365 -0.1596  0.5285 -0.2798
   20CHTO   H69 8325   4.484   0.526   1.365  0.2879 -1.5239 -1.9011
   20CHTO   C48 8326   4.765   0.560   1.223  0.3226  0.4650  0.1637
   20CHTO   H90 8327   4.750   0.452   1.221 -0.0653  0.5297 -1.6661
   20CHTO    N9 8328   4.870   0.584   1.323  0.0072 -0.3570 -0.6834
   20CHTO   H77 8329   4.968   0.571   1.280  0.5213 -0.3012  0.4489
   20CHTO   H78 8330   4.860   0.685   1.358  1.0724  0.0406 -1.5144
   20CHTO   C51 8331   4.805   0.598   1.076 -0.6404  0.1360 -0.5335
   20CHTO   H93 8332   4.820   0.706   1.074 -4.1144  0.7300  0.5091
   20CHTO   O30 8333   4.703   0.558   0.982 -0.1593 -0.1268  0.1621
   20CHTO   C46 8334   4.589   0.643   0.990 -0.0945  0.7214 -0.3327
   20CHTO   H88 8335   4.614   0.749   0.979 -2.5292  1.3073 -0.4936
   20CHTO   C53 8336   4.491   0.608   0.880 -0.1935 -0.2286  0.4630
   20CHTO   O72 8337   4.538   0.667   0.754  0.3561 -0.0649 -0.0567
   20CHTO  H199 8338   4.536   0.600   0.688 -2.1593 -0.0956  0.0273
   20CHTO   O22 8339   4.925   0.532   1.028 -0.1767  0.2032 -0.5380
   20CHTO   C31 8340   5.029   0.607   0.954  0.0676  0.2017  0.7282
   20CHTO   H59 8341   5.085   0.536   0.889 -0.4333  2.3984 -2.1711
   20CHTO   C29 8342   4.971   0.713   0.852 -0.7994  0.7327 -0.5812
   20CHTO   H57 8343   4.892   0.773   0.900 -0.4970  1.1000 -0.5381
   20CHTO   O21 8344   4.902   0.654   0.742  0.0777  0.1996  0.2108
   20CHTO   H37 8345   4.830   0.712   0.728  0.7790  0.7281 -1.2346
   20CHTO   C27 8346   5.079   0.814   0.786  0.9832 -0.2300  0.0967
   20CHTO   H55 8347   5.132   0.768   0.701 -2.9248  0.0636 -2.6794
   20CHTO    N5 8348   5.020   0.942   0.732  0.5653  0.5268  0.3250
   20CHTO   H43 8349   4.946   0.927   0.655  1.2850  0.6147 -0.3913
   20CHTO   H44 8350   4.978   1.003   0.810 -2.9593 -0.1046 -0.9830
   20CHTO   C25 8351   5.185   0.847   0.891  0.1231  0.0830  0.2447
   20CHTO   H53 8352   5.130   0.906   0.965  1.0788  0.5715  0.5657
   20CHTO   O17 8353   5.228   0.735   0.963 -0.5991  0.7216  0.3228
   20CHTO   C32 8354   5.131   0.675   1.046 -0.5848  0.9142 -0.1587
   20CHTO   H60 8355   5.083   0.749   1.109  1.8452  0.8497  1.8290
   20CHTO   C36 8356   5.206   0.577   1.139 -0.2666  0.4478  0.8395
   20CHTO   O25 8357   5.293   0.640   1.231 -0.5510  0.8228  0.3175
   20CHTO   H40 8358   5.315   0.578   1.297  2.2902  0.1652 -1.1791
   20CHTO   O15 8359   5.314   0.925   0.830  0.2482  0.1733  0.3241
   20CHTO   C19 8360   5.427   0.920   0.733 -0.1540 -0.1226  0.0679
   20CHTO   H47 8361   5.387   0.900   0.633  0.8679  1.2277 -0.6216
   20CHTO   C20 8362   5.508   1.054   0.740  0.0301 -0.4577 -0.4853
   20CHTO   H48 8363   5.553   1.073   0.839  0.4980  1.0542 -0.9748
   20CHTO   O19 8364   5.410   1.154   0.713  0.1293 -0.2785 -0.4563
   20CHTO   H35 8365   5.446   1.240   0.707  1.5339 -0.8334 -0.2733
   20CHTO   C21 8366   5.628   1.054   0.641 -1.1333 -0.7458  1.1040
   20CHTO   H49 8367   5.586   1.046   0.541  0.0748 -1.2139  0.6137
   20CHTO    N4 8368   5.701   1.186   0.642 -0.2175  0.4223  0.1468
   20CHTO   H41 8369   5.780   1.193   0.568 -2.0008  1.2706 -1.7470
   20CHTO   H42 8370   5.742   1.226   0.733  2.4681  0.0989 -0.8652
   20CHTO   C22 8371   5.718   0.930   0.660 -0.9335 -0.1982 -0.1433
   20CHTO   H50 8372   5.745   0.937   0.765  2.9228  0.2791 -1.0820
   20CHTO   O14 8373   5.628   0.815   0.644 -0.3094  0.3113  0.3892
   20CHTO   C23 8374   5.537   0.809   0.751 -0.0779  0.5039 -0.8526
   20CHTO   H51 8375   5.586   0.820   0.849 -0.3621  0.9218 -0.7579
   20CHTO   C34 8376   5.487   0.666   0.773 -0.0883  0.2720  0.2227
   20CHTO   O23 8377   5.597   0.570   0.758 -0.1991  0.0627 -0.0201
   20CHTO   H38 8378   5.561   0.485   0.776 -1.0540 -0.1396 -2.5399
   20CHTO   O16 8379   5.834   0.921   0.575 -1.2439  0.3461 -0.0425
   20CHTO   C24 8380   5.915   0.790   0.569  0.0383 -0.4085 -0.1781
   20CHTO   H52 8381   5.850   0.705   0.592  0.1829 -0.8070 -1.1856
   20CHTO   C26 8382   6.031   0.799   0.664 -0.3688 -0.2039 -0.0414
   20CHTO   H54 8383   6.106   0.871   0.626 -0.0930 -0.2809  0.3416
   20CHTO   O20 8384   5.982   0.845   0.792  0.2040  0.4415 -0.3308
   20CHTO   H36 8385   6.047   0.824   0.857 -1.8416 -1.4278  1.1754
   20CHTO   C30 8386   6.106   0.664   0.674  0.4482  0.0040 -0.6360
   20CHTO   H58 8387   6.042   0.589   0.723 -0.4265  1.3662  0.3298
   20CHTO    N6 8388   6.230   0.671   0.754  0.2991 -0.7808  0.1940
   20CHTO   H45 8389   6.212   0.733   0.841  1.9208  2.2544 -1.5430
   20CHTO   H46 8390   6.261   0.572   0.782 -1.6452 -1.6663 -0.7452
   20CHTO   C33 8391   6.144   0.606   0.533 -0.4243 -0.1230  0.3888
   20CHTO   H61 8392   6.230   0.661   0.493 -0.4935  1.1382  1.9231
   20CHTO   O18 8393   6.030   0.627   0.442  0.4269  0.5565 -0.0459
   20CHTO   C28 8394   5.980   0.758   0.433  0.1976  0.0302  0.5850
   20CHTO   H56 8395   6.061   0.827   0.411  0.2493  0.6376  2.5817
   20CHTO   C35 8396   5.866   0.763   0.331 -0.5430 -0.2800 -0.4214
   20CHTO   O24 8397   5.910   0.718   0.207  0.2487  0.4554  0.1349
   20CHTO   H39 8398   5.954   0.637   0.222 -0.9720  0.0710  1.7272
   20CHTO    O9 8399   6.180   0.468   0.542 -0.4861  0.1031 -0.4525
   20CHTO   C13 8400   6.085   0.360   0.456 -0.5407  0.3395  0.4113
   20CHTO   H26 8401   6.070   0.399   0.353 -2.3954 -1.7912 -0.1803
   20CHTO   C11 8402   5.947   0.335   0.523  0.0161 -0.2077 -0.5388
   20CHTO   H24 8403   5.895   0.429   0.500 -2.7852 -1.8753 -1.2127
   20CHTO    O8 8404   5.955   0.309   0.668  0.4335  0.2129  0.2353
   20CHTO    H3 8405   5.968   0.216   0.666 -1.5502 -0.0680 -1.1223
   20CHTO    C9 8406   5.882   0.226   0.444  0.1214 -0.4314  0.4605
   20CHTO   H22 8407   5.894   0.262   0.341 -0.6293  0.0662  0.5426
   20CHTO    N2 8408   5.733   0.210   0.458 -0.3686 -0.2905 -0.1499
   20CHTO   H10 8409   5.696   0.284   0.527  3.3468  1.5901 -0.1038
   20CHTO   H11 8410   5.673   0.212   0.368  1.5819 -1.9247 -1.5493
   20CHTO    C7 8411   5.964   0.086   0.457  0.1160  0.3678  0.1274
   20CHTO   H20 8412   5.913   0.004   0.403  2.7194 -0.2207 -1.5170
   20CHTO    O4 8413   6.089   0.103   0.398 -0.2383 -0.2122 -0.1144
   20CHTO   C14 8414   6.167   0.222   0.431  0.2086  0.5938  0.0048
   20CHTO   H27 8415   6.222   0.236   0.335 -1.0076 -0.0205 -0.7901
   20CHTO   C18 8416   6.270   0.195   0.541  0.1201 -0.4053 -0.0279
   20CHTO   O13 8417   6.360   0.087   0.511 -0.5621 -0.4732  0.0037
   20CHTO    H7 8418   6.313   0.006   0.520 -0.2374 -0.6398  0.2449
   20CHTO    O2 8419   5.991   0.049   0.601  0.3116  0.0644 -0.3862
   20CHTO    C1 8420   5.975  -0.092   0.640  0.7130  0.8109  0.2639
   20CHTO   H14 8421   6.007  -0.095   0.746 -0.2177  0.5982  0.5408
   20CHTO    C2 8422   6.056  -0.196   0.561  0.3137  0.4290 -0.3314
   20CHTO   H15 8423   6.024  -0.196   0.455 -1.1745 -3.0633  0.0325
   20CHTO    O6 8424   6.198  -0.168   0.560  0.1053 -0.5106 -0.8379
   20CHTO    H1 8425   6.245  -0.226   0.616  0.2054  0.0101 -0.3763
   20CHTO    C3 8426   6.028  -0.352   0.618 -0.3542 -0.1290 -0.3956
   20CHTO   H16 8427   6.064  -0.370   0.720 -3.7451 -2.4305  0.4579
   20CHTO    N1 8428   6.094  -0.453   0.524 -0.2647 -0.1795 -1.0309
   20CHTO    H8 8429   6.070  -0.437   0.420  1.4630 -0.7438 -1.5349
   20CHTO    H9 8430   6.202  -0.454   0.522 -0.2508  0.7587 -0.7578
   20CHTO    C4 8431   5.870  -0.371   0.625  0.5080 -0.3892 -0.0167
   20CHTO   H17 8432   5.830  -0.370   0.524 -0.8590  1.5464  0.5173
   20CHTO    O1 8433   5.815  -0.269   0.715  0.3632  0.4471 -0.3845
   20CHTO    C5 8434   5.827  -0.135   0.655 -0.0602 -0.2411  0.0471
   20CHTO   H18 8435   5.776  -0.144   0.559 -0.9597  1.5280  0.3206
   20CHTO   C16 8436   5.745  -0.041   0.747 -0.0873 -0.2973  0.8006
   20CHTO   O11 8437   5.802  -0.036   0.874 -0.0958  0.5838  0.1444
   20CHTO    H5 8438   5.751  -0.003   0.946  1.4097  3.8993 -0.2222
   20CHTO    O3 8439   5.821  -0.494   0.687  0.5419 -0.1030 -0.2329
   20CHTO    C6 8440   5.709  -0.546   0.617 -0.7002  0.3932  0.1109
   20CHTO   H19 8441   5.663  -0.467   0.557 -0.2240  0.4645 -0.1601
   20CHTO    C8 8442   5.738  -0.662   0.517 -0.6255  0.8331 -0.0685
   20CHTO   H21 8443   5.792  -0.743   0.567 -0.0560  1.1569 -0.1521
   20CHTO    O7 8444   5.816  -0.615   0.406  0.1597  0.2812 -0.0705
   20CHTO    H2 8445   5.773  -0.565   0.340 -0.2840 -0.4051 -0.3057
   20CHTO   C12 8446   5.607  -0.728   0.466 -0.0248 -0.4000 -0.1096
   20CHTO   H25 8447   5.565  -0.645   0.407 -0.1797 -0.5409 -0.1998
   20CHTO    N3 8448   5.629  -0.846   0.373  0.0077 -0.0411  0.3341
   20CHTO   H12 8449   5.569  -0.830   0.284  1.3063 -1.2586 -0.7792
   20CHTO   H13 8450   5.600  -0.935   0.426  3.9399  0.9447  4.4683
   20CHTO   C15 8451   5.509  -0.765   0.585  0.2040  0.2827  0.9198
   20CHTO   H28 8452   5.541  -0.833   0.665 -0.3256  0.1019  0.9787
   20CHTO   O10 8453   5.369  -0.795   0.539 -0.1192 -0.1811 -0.1698
   20CHTO    H4 8454   5.358  -0.888   0.530 -0.8033  0.0045 -1.2543
   20CHTO    O5 8455   5.480  -0.648   0.658  0.6610  0.0920 -0.2024
   20CHTO   C10 8456   5.600  -0.591   0.723  0.6193  0.4679  0.8509
   20CHTO   H23 8457   5.632  -0.672   0.789 -0.8234  0.0210  1.0311
   20CHTO   C17 8458   5.552  -0.477   0.807 -0.0688  0.3803 -0.4182
   20CHTO   O12 8459   5.599  -0.485   0.943 -0.4119  0.5757 -0.7786
   20CHTO    H6 8460   5.662  -0.418   0.960  0.3439  0.2807 -2.3430
   21GLOH   H03 8461   2.838   8.532   1.246  1.5516 -0.8461 -1.7846
   21GLOH    O1 8462   2.775   8.461   1.222 -0.6318  0.5826 -0.5177
   21GLOH    C1 8463   2.799   8.436   1.085 -0.2048  0.1062  1.0470
   21GLOH   H02 8464   2.792   8.532   1.033 -3.4695 -1.2454 -1.1529
   21GLOH   H08 8465   2.710   8.382   1.051  0.8671 -0.6211 -0.6547
   21GLOH    C2 8466   2.924   8.353   1.057 -0.2174 -0.2049  0.6779
   21GLOH   H04 8467   2.932   8.354   0.947  0.8803  0.6713  0.7497
   21GLOH    O2 8468   3.048   8.408   1.096  0.7505  0.4539 -0.7349
   21GLOH   H05 8469   3.049   8.498   1.058  1.7078  0.4154 -0.8314
   21GLOH    C3 8470   2.912   8.200   1.103 -0.0209 -0.7277  0.7712
   21GLOH   H06 8471   3.010   8.156   1.084  0.1985  0.2331 -0.3783
   21GLOH   H07 8472   2.837   8.149   1.043  2.1136 -3.6417  0.4874
   21GLOH    O3 8473   2.879   8.181   1.240  0.1477  0.2844 -0.4641
   21GLOH   H01 8474   2.847   8.265   1.279  0.1846 -0.3680  1.0038
   22GLOH   H03 8475   3.593   8.719   2.277 -0.2727 -1.8569 -0.6379
   22GLOH    O1 8476   3.653   8.651   2.313  0.4661 -0.2063  1.3367
   22GLOH    C1 8477   3.680   8.693   2.453 -0.4967  0.3476 -0.8743
   22GLOH   H02 8478   3.696   8.798   2.480  0.3860 -0.3479  1.4158
   22GLOH   H08 8479   3.767   8.642   2.494 -1.5785 -0.1752  0.8154
   22GLOH    C2 8480   3.567   8.647   2.550  0.4258 -0.3725  0.2108
   22GLOH   H04 8481   3.564   8.538   2.554 -2.0822 -0.4363 -2.3992
   22GLOH    O2 8482   3.603   8.691   2.682  0.8012 -0.1033  0.0270
   22GLOH   H05 8483   3.543   8.649   2.746  1.9140 -0.0010  1.1675
   22GLOH    C3 8484   3.426   8.698   2.506  0.0639 -0.2334  0.6844
   22GLOH   H06 8485   3.408   8.657   2.406 -2.3164 -2.2366  1.8803
   22GLOH   H07 8486   3.433   8.807   2.507 -3.5367  0.0901 -1.6624
   22GLOH    O3 8487   3.312   8.664   2.592 -0.0206 -0.1098  0.1157
   22GLOH   H01 8488   3.320   8.570   2.619 -2.5125 -0.4837 -0.3236
   23GLOH   H03 8489   2.744   9.111   0.672 -0.4040 -1.1874  0.6586
   23GLOH    O1 8490   2.784   9.192   0.710 -0.5950 -0.7187 -0.1135
   23GLOH    C1 8491   2.746   9.304   0.630  0.0270 -1.0332 -0.1135
   23GLOH   H02 8492   2.645   9.331   0.661  0.5827 -0.6473  1.4178
   23GLOH   H08 8493   2.740   9.265   0.528 -0.0062 -0.9468 -0.1449
   23GLOH    C2 8494   2.836   9.427   0.637 -0.0136  0.4610 -0.2417
   23GLOH   H04 8495   2.934   9.411   0.588 -0.5193  2.2389 -1.9174
   23GLOH    O2 8496   2.785   9.541   0.564 -0.2319 -0.0013  0.2367
   23GLOH   H05 8497   2.701   9.575   0.598 -0.8345  0.5470 -1.7470
   23GLOH    C3 8498   2.859   9.465   0.784 -0.8437  0.1130  0.0163
   23GLOH   H06 8499   2.768   9.507   0.826  0.0731  1.6504  0.4937
   23GLOH   H07 8500   2.932   9.545   0.790 -2.9451  2.1147 -0.6037
   23GLOH    O3 8501   2.907   9.352   0.862 -0.1783 -0.3737  0.2810
   23GLOH   H01 8502   2.869   9.272   0.822  1.7913 -0.4134 -1.5951
   24GLOH   H03 8503   3.272   9.246   1.326 -0.7643 -0.9146 -1.4673
   24GLOH    O1 8504   3.213   9.324   1.325  0.1917 -0.1425  0.0681
   24GLOH    C1 8505   3.206   9.373   1.193 -0.4263 -0.4574 -0.1336
   24GLOH   H02 8506   3.194   9.299   1.113 -1.1807 -0.3411 -0.1228
   24GLOH   H08 8507   3.305   9.414   1.171 -0.9870  0.6674 -0.5371
   24GLOH    C2 8508   3.095   9.473   1.180  0.3764 -0.7265  0.5242
   24GLOH   H04 8509   3.101   9.539   1.268  2.2154 -1.7306  1.1797
   24GLOH    O2 8510   3.098   9.547   1.051  0.1356  0.3537  0.1360
   24GLOH   H05 8511   3.161   9.501   0.993 -1.0565  0.4074 -1.2143
   24GLOH    C3 8512   2.964   9.396   1.197  0.1443  0.3101 -0.5117
   24GLOH   H06 8513   2.886   9.468   1.174 -0.0969 -0.2538 -1.4744
   24GLOH   H07 8514   2.968   9.358   1.299 -1.5223  0.5719 -0.3472
   24GLOH    O3 8515   2.960   9.290   1.104 -0.0107  0.1636 -0.1016
   24GLOH   H01 8516   2.958   9.336   1.018 -0.9548  2.0446  0.9086
   25GLOH   H03 8517   3.545   8.464   0.985  1.3303 -0.7790  0.6473
   25GLOH    O1 8518   3.569   8.392   0.924 -0.5265 -0.9097  0.0326
   25GLOH    C1 8519   3.466   8.292   0.924  0.3923  0.3834 -0.4811
   25GLOH   H02 8520   3.463   8.240   1.019 -1.4816  1.9962  0.3499
   25GLOH   H08 8521   3.481   8.212   0.851  1.7333 -1.1891  1.4632
   25GLOH    C2 8522   3.325   8.347   0.905  0.0055  0.0092 -0.3366
   25GLOH   H04 8523   3.299   8.406   0.995  2.4199  1.3378 -0.4853
   25GLOH    O2 8524   3.334   8.429   0.792 -0.5124  0.0964 -0.0495
   25GLOH   H05 8525   3.376   8.515   0.808  1.0681 -0.1245 -2.7689
   25GLOH    C3 8526   3.228   8.228   0.892 -0.0693  0.2709 -0.0642
   25GLOH   H06 8527   3.126   8.266   0.886 -0.5483 -0.5147  2.6242
   25GLOH   H07 8528   3.248   8.172   0.983 -1.6939  0.9944  0.7532
   25GLOH    O3 8529   3.262   8.150   0.771 -0.1154  0.1905 -0.3495
   25GLOH   H01 8530   3.281   8.206   0.693  0.5557 -1.7318 -1.6105
   26GLOH   H03 8531   4.838   9.700   1.010  0.6070 -0.9638  0.1344
   26GLOH    O1 8532   4.770   9.630   1.003 -0.0849 -0.3053  0.3329
   26GLOH    C1 8533   4.686   9.615   1.120 -0.0066 -0.2005  0.4928
   26GLOH   H02 8534   4.716   9.666   1.211 -0.6166 -2.5443  2.0723
   26GLOH   H08 8535   4.684   9.508   1.142  2.2457  0.3006  3.3169
   26GLOH    C2 8536   4.538   9.640   1.085 -0.8954 -0.0174 -0.2415
   26GLOH   H04 8537   4.506   9.565   1.012  0.0509  0.6862 -1.3892
   26GLOH    O2 8538   4.454   9.621   1.200 -0.7242  0.3749 -0.2090
   26GLOH   H05 8539   4.381   9.571   1.160 -0.9723 -1.9750  3.0900
   26GLOH    C3 8540   4.510   9.770   1.005 -0.1502 -0.1619 -0.2608
   26GLOH   H06 8541   4.573   9.759   0.916 -0.4596 -1.4808 -0.3309
   26GLOH   H07 8542   4.543   9.856   1.063  1.0663  0.4542 -1.8351
   26GLOH    O3 8543   4.374   9.787   0.963 -0.3043 -0.4936  0.3523
   26GLOH   H01 8544   4.327   9.808   1.046  1.0294  0.5252  0.8676
   27GLOH   H03 8545   3.534   8.677   0.750 -0.8602  1.4892 -0.1249
   27GLOH    O1 8546   3.460   8.649   0.808 -0.3463  0.1610 -0.0761
   27GLOH    C1 8547   3.449   8.742   0.914 -0.2577 -0.3987 -0.3074
   27GLOH   H02 8548   3.345   8.741   0.949 -0.8310 -0.4820 -1.9782
   27GLOH   H08 8549   3.451   8.844   0.876 -1.5400 -0.2545 -0.0483
   27GLOH    C2 8550   3.538   8.714   1.039  0.0604 -1.0599 -0.7793
   27GLOH   H04 8551   3.526   8.792   1.115 -2.4412 -0.9756 -1.2258
   27GLOH    O2 8552   3.496   8.585   1.084 -0.4406  0.2477  0.0600
   27GLOH   H05 8553   3.460   8.588   1.174 -0.1030  0.6297  0.1873
   27GLOH    C3 8554   3.687   8.705   1.004  0.7216  0.2532  0.3730
   27GLOH   H06 8555   3.701   8.616   0.943 -1.7681  0.9963 -1.3424
   27GLOH   H07 8556   3.747   8.690   1.094  0.7317  2.1417  0.7037
   27GLOH    O3 8557   3.737   8.817   0.926 -0.0423  0.0692 -0.1881
   27GLOH   H01 8558   3.817   8.849   0.972  0.6173 -1.2976 -0.3686
   28GLOH   H03 8559   4.123   0.082   2.007 -1.9044 -0.3014 -0.0241
   28GLOH    O1 8560   4.125   0.039   1.920 -0.0522 -0.3115  0.0046
   28GLOH    C1 8561   3.994   0.038   1.867  1.0774  0.0331  0.6219
   28GLOH   H02 8562   3.991   0.006   1.763  2.3288 -0.3991  0.7053
   28GLOH   H08 8563   3.964   0.142   1.859  3.7345  0.7753 -0.2666
   28GLOH    C2 8564   3.889  -0.049   1.937  0.5607 -0.2924  0.5944
   28GLOH   H04 8565   3.804  -0.061   1.869 -0.7008 -0.5183  2.1966
   28GLOH    O2 8566   3.948  -0.175   1.972  0.2005  0.1836 -0.8038
   28GLOH   H05 8567   4.016  -0.159   2.040 -0.7362 -0.1907  0.2247
   28GLOH    C3 8568   3.839   0.035   2.055 -0.5191  0.3702 -0.2066
   28GLOH   H06 8569   3.915   0.069   2.126  0.2648  2.1169 -1.8543
   28GLOH   H07 8570   3.767  -0.026   2.110 -0.7526  0.9238  0.1082
   28GLOH    O3 8571   3.765   0.152   2.005 -0.3381 -0.3702 -0.0063
   28GLOH   H01 8572   3.763   0.216   2.079  0.9162  0.2226 -0.4708
   29GLOH   H03 8573   3.832   0.482   1.186 -0.2945  1.1648  1.5379
   29GLOH    O1 8574   3.801   0.572   1.165  0.7123  1.0582 -0.4506
   29GLOH    C1 8575   3.831   0.604   1.029 -0.2791  0.1084 -0.5412
   29GLOH   H02 8576   3.799   0.706   1.004 -0.0925  0.2492 -0.1975
   29GLOH   H08 8577   3.777   0.531   0.969 -1.5172  1.9603 -1.7611
   29GLOH    C2 8578   3.978   0.593   0.998 -0.0958  0.0228  0.0438
   29GLOH   H04 8579   4.009   0.498   1.045 -0.4630 -0.1373 -0.0376
   29GLOH    O2 8580   4.004   0.590   0.852  0.2174 -0.5190  0.1345
   29GLOH   H05 8581   4.099   0.571   0.844  0.2639 -0.0831 -0.4076
   29GLOH    C3 8582   4.064   0.691   1.080 -0.1816  0.0895  0.0660
   29GLOH   H06 8583   4.017   0.788   1.070  0.2566  0.3923  0.8989
   29GLOH   H07 8584   4.166   0.692   1.042  0.5911  0.2643  2.1096
   29GLOH    O3 8585   4.066   0.664   1.225  0.6850  0.2833 -0.2381
   29GLOH   H01 8586   4.125   0.587   1.240 -0.3022 -0.5478 -0.5517
   30GLOH   H03 8587   3.403   9.202   0.422 -0.1300 -1.9779  0.7524
   30GLOH    O1 8588   3.492   9.206   0.462  0.1191 -0.8519  0.1158
   30GLOH    C1 8589   3.562   9.099   0.392  0.5095 -0.4193 -0.0568
   30GLOH   H02 8590   3.549   9.088   0.284  0.9202  3.3092 -0.5734
   30GLOH   H08 8591   3.533   9.002   0.431 -0.0425 -0.5677 -0.8140
   30GLOH    C2 8592   3.719   9.118   0.421 -0.1167  0.3672  0.1596
   30GLOH   H04 8593   3.745   9.225   0.420  0.3489  0.2593 -0.3865
   30GLOH    O2 8594   3.747   9.069   0.556 -0.2200 -0.5405 -0.1521
   30GLOH   H05 8595   3.774   9.146   0.609 -1.3295 -0.8969  0.9488
   30GLOH    C3 8596   3.806   9.056   0.306 -0.4278 -0.0790  0.0460
   30GLOH   H06 8597   3.795   8.948   0.312 -0.5115 -0.3859 -4.0256
   30GLOH   H07 8598   3.911   9.067   0.331 -0.5042 -0.0044  0.3320
   30GLOH    O3 8599   3.780   9.109   0.174 -0.0288 -0.6069  0.5090
   30GLOH   H01 8600   3.741   9.038   0.121  0.7043 -0.5783 -0.0804
   31GLOH   H03 8601   3.161   0.276   0.358 -1.1637  1.6256  1.6359
   31GLOH    O1 8602   3.214   0.352   0.331  0.0076  0.3505  0.2777
   31GLOH    C1 8603   3.323   0.304   0.253 -0.7579  0.1887 -0.4611
   31GLOH   H02 8604   3.386   0.233   0.307  1.4514 -0.1149 -3.2938
   31GLOH   H08 8605   3.396   0.376   0.215 -1.6106  0.6803 -1.1732
   31GLOH    C2 8606   3.272   0.228   0.131 -0.2699  0.2397  0.7362
   31GLOH   H04 8607   3.356   0.197   0.068 -0.3171  1.1108  0.2404
   31GLOH    O2 8608   3.213   0.110   0.181  0.0955  0.4054 -0.6419
   31GLOH   H05 8609   3.126   0.108   0.139  0.0931 -1.0699 -0.5897
   31GLOH    C3 8610   3.187   0.322   0.047  0.0944  0.0916 -0.4112
   31GLOH   H06 8611   3.249   0.411   0.034  0.4656 -0.2711 -1.1176
   31GLOH   H07 8612   3.087   0.347   0.082 -1.6061 -3.8227 -2.1501
   31GLOH    O3 8613   3.161   0.259  -0.072 -0.3956 -0.2554 -0.5921
   31GLOH   H01 8614   3.184   0.318  -0.146  1.6540 -1.0167 -0.6088
   32GLOH   H03 8615   3.116   0.184   0.697  1.4319 -0.0244  1.4303
   32GLOH    O1 8616   3.046   0.252   0.707  0.1993 -1.0575  0.0423
   32GLOH    C1 8617   2.925   0.222   0.637  0.2039  0.3674  0.1387
   32GLOH   H02 8618   2.850   0.287   0.681 -0.1630 -1.4589  2.2881
   32GLOH   H08 8619   2.894   0.119   0.658  1.1432  0.6970  3.3825
   32GLOH    C2 8620   2.933   0.270   0.490 -0.5680  0.5269 -0.2831
   32GLOH   H04 8621   2.963   0.376   0.482 -0.2897  0.3999 -0.9572
   32GLOH    O2 8622   3.032   0.203   0.413 -0.6163 -0.3852  0.1324
   32GLOH   H05 8623   3.029   0.109   0.439  1.0621 -0.7116 -0.8060
   32GLOH    C3 8624   2.795   0.257   0.424  0.7300 -0.0896 -0.1674
   32GLOH   H06 8625   2.815   0.277   0.319 -1.7038  0.9175 -0.4619
   32GLOH   H07 8626   2.730   0.338   0.457  0.2427 -1.4580  2.3675
   32GLOH    O3 8627   2.742   0.126   0.448 -0.4728 -0.0697 -0.2119
   32GLOH   H01 8628   2.739   0.090   0.357 -0.0000 -1.3454  0.2633
   33GLOH   H03 8629   3.771   9.086   1.855  0.3919  0.7259 -0.6438
   33GLOH    O1 8630   3.829   9.087   1.933 -0.1383 -0.1649 -0.2328
   33GLOH    C1 8631   3.739   9.057   2.040 -0.0554 -0.7856 -0.0994
   33GLOH   H02 8632   3.768   8.969   2.098  0.4371 -1.2267 -1.0130
   33GLOH   H08 8633   3.637   9.048   2.003 -0.2790  1.9091 -0.2539
   33GLOH    C2 8634   3.726   9.175   2.139 -0.4180 -0.5550 -0.0022
   33GLOH   H04 8635   3.679   9.261   2.090 -0.6840  0.2429  1.6258
   33GLOH    O2 8636   3.652   9.125   2.250  0.3020  0.2555  0.0378
   33GLOH   H05 8637   3.685   9.157   2.336 -1.3598  3.4847 -0.4208
   33GLOH    C3 8638   3.866   9.212   2.186 -0.4107 -0.3943  0.3826
   33GLOH   H06 8639   3.912   9.128   2.237 -4.1209 -1.9849  1.2851
   33GLOH   H07 8640   3.850   9.297   2.253  0.5559  0.5195 -0.5303
   33GLOH    O3 8641   3.946   9.260   2.073  0.2896  0.2276  0.6102
   33GLOH   H01 8642   3.917   9.203   1.999 -0.8438 -0.4682  1.5813
   34GLOH   H03 8643   3.487   9.364   0.433  1.8922 -0.3869 -0.1827
   34GLOH    O1 8644   3.482   9.462   0.433  0.1634 -0.4540  0.4448
   34GLOH    C1 8645   3.540   9.512   0.314  0.3768  0.4509 -0.0509
   34GLOH   H02 8646   3.575   9.615   0.313 -1.3827  1.0748 -0.8489
   34GLOH   H08 8647   3.466   9.505   0.234 -0.9734 -0.8182  1.2686
   34GLOH    C2 8648   3.650   9.423   0.249  0.7227  0.2044 -0.5902
   34GLOH   H04 8649   3.717   9.396   0.332  2.8054  0.3728 -2.1665
   34GLOH    O2 8650   3.601   9.301   0.198  0.2962 -0.0058  0.1504
   34GLOH   H05 8651   3.675   9.238   0.208  0.1673 -0.0280  1.0187
   34GLOH    C3 8652   3.736   9.490   0.138  0.1505 -0.1996  0.1352
   34GLOH   H06 8653   3.665   9.519   0.061  0.4318 -2.9726 -1.2358
   34GLOH   H07 8654   3.800   9.417   0.088  0.6821  0.4687 -0.1756
   34GLOH    O3 8655   3.813   9.595   0.196 -0.4318  0.1258  0.1341
   34GLOH   H01 8656   3.894   9.553   0.230  0.9586  2.0029 -0.7528
   35GLOH   H03 8657   4.021   0.752   0.222  0.6796  3.2076 -0.2885
   35GLOH    O1 8658   4.039   0.753   0.318  0.3527  0.1525 -0.1269
   35GLOH    C1 8659   3.920   0.789   0.390 -0.3914 -0.1869  0.2365
   35GLOH   H02 8660   3.907   0.721   0.474 -0.7595 -0.4650 -0.0406
   35GLOH   H08 8661   3.825   0.789   0.336 -0.5758  1.2270  0.5461
   35GLOH    C2 8662   3.926   0.930   0.446  0.0877 -0.4338 -0.1690
   35GLOH   H04 8663   3.933   0.993   0.356 -0.5364 -0.3923 -0.1872
   35GLOH    O2 8664   3.805   0.970   0.511  0.4716  0.4551 -0.4605
   35GLOH   H05 8665   3.801   0.917   0.592  1.2043  1.9145  0.5442
   35GLOH    C3 8666   4.052   0.951   0.538  0.4512  0.0499 -0.5466
   35GLOH   H06 8667   4.028   1.040   0.595 -1.2670 -0.1679 -0.8958
   35GLOH   H07 8668   4.142   0.977   0.483  1.1819 -2.4190 -0.5840
   35GLOH    O3 8669   4.084   0.843   0.630 -0.2687  0.8610 -0.3536
   35GLOH   H01 8670   4.001   0.800   0.658 -1.0601  3.2479  1.1869
   36GLOH   H03 8671   3.662   9.589   2.521  1.0719  0.4612 -0.6287
   36GLOH    O1 8672   3.644   9.681   2.547 -0.4360  0.1556 -0.5024
   36GLOH    C1 8673   3.679   9.766   2.439 -0.6703 -0.0892 -0.3789
   36GLOH   H02 8674   3.629   9.859   2.463 -0.8154  0.4087 -2.4748
   36GLOH   H08 8675   3.634   9.729   2.347  0.6473  0.8536 -1.4233
   36GLOH    C2 8676   3.837   9.782   2.415  0.0983  0.5608  0.1009
   36GLOH   H04 8677   3.874   9.683   2.383  1.0189  1.6778 -2.3622
   36GLOH    O2 8678   3.863   9.876   2.313  0.6824 -0.0145  0.5703
   36GLOH   H05 8679   3.795   9.946   2.315 -0.5652 -1.1746 -0.6034
   36GLOH    C3 8680   3.914   9.822   2.544  0.5695 -0.1255  0.1179
   36GLOH   H06 8681   3.894   9.741   2.614 -0.7777  0.2020  0.1208
   36GLOH   H07 8682   3.864   9.907   2.592 -1.0891 -0.0875 -1.6113
   36GLOH    O3 8683   4.057   9.833   2.542  0.6462 -0.3895  0.1105
   36GLOH   H01 8684   4.079   9.928   2.541 -0.9446 -0.0119  0.1838
   37GLOH   H03 8685   3.992   0.799   1.268  1.8591  0.4934  0.7720
   37GLOH    O1 8686   3.954   0.882   1.302 -0.4578 -0.1942 -0.0028
   37GLOH    C1 8687   3.843   0.840   1.381  0.4669  0.7666  0.2645
   37GLOH   H02 8688   3.802   0.759   1.321  0.0277 -0.0255  1.6311
   37GLOH   H08 8689   3.768   0.918   1.394  0.1688  0.6780 -0.8058
   37GLOH    C2 8690   3.882   0.788   1.518  0.4909  1.0118  0.1116
   37GLOH   H04 8691   3.793   0.743   1.563  0.1221  1.4181 -0.2173
   37GLOH    O2 8692   3.975   0.678   1.520  0.0485  0.2754 -0.0161
   37GLOH   H05 8693   4.024   0.676   1.437 -0.2339 -1.4109 -0.1679
   37GLOH    C3 8694   3.932   0.912   1.593 -0.3223  0.0726 -0.0417
   37GLOH   H06 8695   4.021   0.964   1.561  1.2819 -1.1335  2.2686
   37GLOH   H07 8696   3.951   0.879   1.695 -2.3831  0.4384  0.4957
   37GLOH    O3 8697   3.822   0.999   1.598 -0.2189  0.8599 -0.1491
   37GLOH   H01 8698   3.745   0.952   1.635  1.3603 -1.4457  0.2479
   38GLOH   H03 8699   3.694   8.997   1.490 -0.5567 -1.1021 -0.7034
   38GLOH    O1 8700   3.685   8.924   1.555 -0.1647 -0.3535  0.2114
   38GLOH    C1 8701   3.825   8.882   1.578  0.3461  0.2397 -0.0178
   38GLOH   H02 8702   3.862   8.947   1.658  0.3979  0.0992  0.0720
   38GLOH   H08 8703   3.886   8.894   1.489 -0.7056 -1.6956 -1.0303
   38GLOH    C2 8704   3.834   8.735   1.624  0.1976  0.0808  0.0892
   38GLOH   H04 8705   3.935   8.698   1.600 -0.4105 -1.4888 -0.0759
   38GLOH    O2 8706   3.810   8.708   1.763  0.2836  0.5399  0.1713
   38GLOH   H05 8707   3.881   8.762   1.801  0.6273 -1.1067  1.9541
   38GLOH    C3 8708   3.733   8.649   1.549  0.8625  0.3535  0.1532
   38GLOH   H06 8709   3.633   8.691   1.558  0.6513 -0.1550  0.1974
   38GLOH   H07 8710   3.735   8.549   1.592 -0.5774  0.5317  0.6498
   38GLOH    O3 8711   3.773   8.643   1.411 -0.1333  0.0827 -0.0591
   38GLOH   H01 8712   3.722   8.567   1.378 -0.2490  0.6834 -1.2740
   39GLOH   H03 8713   4.793   8.914   2.219  1.3717 -1.7862  2.5320
   39GLOH    O1 8714   4.707   8.868   2.225  0.0943  0.0228 -0.4804
   39GLOH    C1 8715   4.682   8.788   2.105  0.3106  0.4011 -0.6727
   39GLOH   H02 8716   4.765   8.720   2.093  1.2862  1.5866 -0.7209
   39GLOH   H08 8717   4.681   8.849   2.015 -1.0202  2.1210  0.4684
   39GLOH    C2 8718   4.551   8.712   2.122 -0.4494 -0.4766 -0.8205
   39GLOH   H04 8719   4.466   8.778   2.102 -0.7452 -0.5571  0.1346
   39GLOH    O2 8720   4.545   8.608   2.026  0.3357 -0.3350  0.1163
   39GLOH   H05 8721   4.452   8.586   2.009  0.5579 -0.0815 -1.6153
   39GLOH    C3 8722   4.534   8.639   2.256  0.0522 -0.0436 -0.3938
   39GLOH   H06 8723   4.594   8.548   2.251  0.8287  0.4105  0.4548
   39GLOH   H07 8724   4.432   8.602   2.248  0.3184 -1.3207  1.6737
   39GLOH    O3 8725   4.555   8.724   2.364  0.1441  0.0998 -0.3535
   39GLOH   H01 8726   4.625   8.783   2.330  0.6195  0.1940  0.7549
   40GLOH   H03 8727   2.680   8.439   0.446  0.5948 -0.6405  0.7312
   40GLOH    O1 8728   2.657   8.534   0.444  0.1659 -0.7540  0.1999
   40GLOH    C1 8729   2.593   8.566   0.569 -0.4253 -0.7230  0.6076
   40GLOH   H02 8730   2.503   8.505   0.574 -0.5038 -0.5963  0.7293
   40GLOH   H08 8731   2.565   8.671   0.565  0.2260 -0.5854 -0.7570
   40GLOH    C2 8732   2.676   8.516   0.690 -0.4427 -0.0806  0.2216
   40GLOH   H04 8733   2.710   8.414   0.668 -3.1160 -0.9139 -0.2683
   40GLOH    O2 8734   2.786   8.599   0.713 -0.1979  0.3985  0.2286
   40GLOH   H05 8735   2.874   8.563   0.694 -0.0397  1.0544 -0.3055
   40GLOH    C3 8736   2.585   8.501   0.812 -0.3007 -0.0753  0.1842
   40GLOH   H06 8737   2.499   8.568   0.807  1.5759  2.2709 -2.3318
   40GLOH   H07 8738   2.636   8.523   0.905 -2.0924  4.1259  0.3023
   40GLOH    O3 8739   2.534   8.366   0.820  0.5187 -0.0261 -0.7540
   40GLOH   H01 8740   2.517   8.346   0.914  1.8555  1.3156 -0.1993
   41GLOH   H03 8741   3.002   0.399   1.490  0.0962  0.9628  2.5979
   41GLOH    O1 8742   2.929   0.364   1.544 -1.0450 -0.0675  0.4644
   41GLOH    C1 8743   2.988   0.354   1.675 -0.0024 -0.0563 -0.1285
   41GLOH   H02 8744   3.004   0.453   1.717 -0.8303 -0.1766  0.4898
   41GLOH   H08 8745   3.088   0.318   1.653  0.6242  0.5959  1.6450
   41GLOH    C2 8746   2.908   0.268   1.781  0.6200 -0.1394 -0.4147
   41GLOH   H04 8747   2.887   0.170   1.736 -2.7992  0.2029  0.2908
   41GLOH    O2 8748   2.987   0.252   1.902 -0.3124  0.0192  0.3026
   41GLOH   H05 8749   3.026   0.340   1.917 -1.1582  0.2548  1.1599
   41GLOH    C3 8750   2.781   0.349   1.794 -0.8686  0.5843  0.0341
   41GLOH   H06 8751   2.801   0.455   1.814  0.3767  0.0256  1.8659
   41GLOH   H07 8752   2.724   0.313   1.880 -0.7482 -0.5043 -0.3438
   41GLOH    O3 8753   2.696   0.335   1.673 -0.1006  0.5065  0.4589
   41GLOH   H01 8754   2.748   0.366   1.596 -0.6555  0.9426  0.2572
   42GLOH   H03 8755   3.264   9.903   2.428  0.6329 -2.3302 -0.8845
   42GLOH    O1 8756   3.310   9.948   2.355 -0.3945 -0.2506 -0.2971
   42GLOH    C1 8757   3.340  10.083   2.396  0.2329  0.2030 -0.0227
   42GLOH   H02 8758   3.404  10.082   2.484  1.4499 -0.5525 -0.9007
   42GLOH   H08 8759   3.245  10.123   2.431 -1.7442 -2.8110 -1.7135
   42GLOH    C2 8760   3.420  10.161   2.290 -0.4248  0.0766  0.4358
   42GLOH   H04 8761   3.345  10.192   2.215  0.0647  1.0910  0.3600
   42GLOH    O2 8762   3.476  10.281   2.352 -0.2610  0.1167 -0.1010
   42GLOH   H05 8763   3.553  10.252   2.403 -0.4625 -1.2247 -0.5361
   42GLOH    C3 8764   3.532  10.071   2.221  0.2217  0.2512 -0.0288
   42GLOH   H06 8765   3.566  10.127   2.134  0.8372  0.2570  0.2145
   42GLOH   H07 8766   3.481   9.982   2.184 -1.9975  1.5690 -0.2634
   42GLOH    O3 8767   3.645  10.043   2.313  0.4572  0.5207  0.0202
   42GLOH   H01 8768   3.656  10.117   2.376 -0.4881  0.0143  0.7987
   43GLOH   H03 8769   3.563   9.768   2.648  2.0831 -0.5270  1.7882
   43GLOH    O1 8770   3.519   9.830   2.709  0.6704 -0.0844  0.3562
   43GLOH    C1 8771   3.380   9.850   2.680 -0.0029  0.6230  0.1178
   43GLOH   H02 8772   3.365   9.924   2.601 -2.5525  0.2101  0.1995
   43GLOH   H08 8773   3.320   9.870   2.769  1.6081  0.7495  1.2033
   43GLOH    C2 8774   3.329   9.713   2.633 -0.0633 -0.2000 -0.5078
   43GLOH   H04 8775   3.396   9.684   2.550 -0.3739 -3.0792  0.2265
   43GLOH    O2 8776   3.340   9.611   2.732  0.1434  0.2325  0.0182
   43GLOH   H05 8777   3.312   9.639   2.821  0.4809  0.0273  0.1911
   43GLOH    C3 8778   3.183   9.707   2.579  0.7342  0.2631 -0.5701
   43GLOH   H06 8779   3.128   9.695   2.672  2.3084 -2.7781  0.0266
   43GLOH   H07 8780   3.172   9.616   2.520 -0.7457 -0.1245  0.2847
   43GLOH    O3 8781   3.154   9.821   2.505  0.4290  0.7096 -0.2744
   43GLOH   H01 8782   3.069   9.794   2.466 -0.1657 -0.7750  1.9782
   44GLOH   H03 8783   4.004   9.659   0.405  0.2660 -1.3822 -0.7619
   44GLOH    O1 8784   3.962   9.613   0.481  0.2545 -0.7926 -0.4102
   44GLOH    C1 8785   3.829   9.661   0.486  0.1254  0.1502  0.1220
   44GLOH   H02 8786   3.766   9.595   0.425 -0.3281  0.9025 -0.2317
   44GLOH   H08 8787   3.824   9.762   0.445 -0.1690 -0.9158 -2.6078
   44GLOH    C2 8788   3.773   9.660   0.632  0.6859  0.0581 -0.2139
   44GLOH   H04 8789   3.836   9.728   0.690  2.7630 -2.4213  0.5102
   44GLOH    O2 8790   3.634   9.702   0.606 -0.8012 -0.6671 -0.3242
   44GLOH   H05 8791   3.570   9.638   0.641 -0.3940 -0.7584  0.2679
   44GLOH    C3 8792   3.776   9.512   0.680  0.2486 -0.8981 -0.0811
   44GLOH   H06 8793   3.700   9.446   0.637 -0.3371 -1.8723  2.3560
   44GLOH   H07 8794   3.757   9.525   0.787  1.1305  1.8186 -0.2226
   44GLOH    O3 8795   3.913   9.461   0.660 -0.0026  0.1432  0.7577
   44GLOH   H01 8796   3.946   9.505   0.580 -1.4212 -1.0925 -0.5418
   45GLOH   H03 8797   4.421   8.696   2.689  0.3743 -0.4092  0.6048
   45GLOH    O1 8798   4.358   8.654   2.751 -0.7080 -0.5601 -0.5748
   45GLOH    C1 8799   4.388   8.513   2.780 -0.8066 -0.4926  0.2125
   45GLOH   H02 8800   4.491   8.504   2.816 -0.1675 -0.4627 -1.5891
   45GLOH   H08 8801   4.386   8.455   2.688 -1.6212  1.5990 -1.1068
   45GLOH    C2 8802   4.292   8.448   2.873 -0.2574 -0.0015  0.6103
   45GLOH   H04 8803   4.329   8.345   2.881  1.8740  0.7323  0.5174
   45GLOH    O2 8804   4.311   8.515   2.995  0.0859  0.0901 -0.3057
   45GLOH   H05 8805   4.365   8.592   2.971 -0.1251  0.5129  0.5642
   45GLOH    C3 8806   4.149   8.444   2.822  0.4540  0.1496 -0.5256
   45GLOH   H06 8807   4.105   8.544   2.830  0.7246  0.4134 -2.1410
   45GLOH   H07 8808   4.090   8.384   2.891  0.0781  2.8079  1.5432
   45GLOH    O3 8809   4.125   8.402   2.686  0.5139  0.2294  0.1924
   45GLOH   H01 8810   4.047   8.347   2.702  2.4602 -3.0670 -1.1293
   46GLOH   H03 8811   2.893   8.590   2.370 -2.1910  1.5696 -0.1311
   46GLOH    O1 8812   2.950   8.653   2.418 -0.1764 -0.5817  0.3750
   46GLOH    C1 8813   3.057   8.690   2.332  0.5518  0.3583  0.2244
   46GLOH   H02 8814   3.135   8.614   2.329 -1.4113 -1.7279  0.3576
   46GLOH   H08 8815   3.109   8.778   2.369  0.4346  0.2460  0.6601
   46GLOH    C2 8816   3.013   8.718   2.185 -0.1599  0.0855  0.2118
   46GLOH   H04 8817   2.928   8.786   2.203 -1.1357 -0.9390 -0.4806
   46GLOH    O2 8818   3.120   8.751   2.095  0.0682 -0.6777 -0.0319
   46GLOH   H05 8819   3.079   8.747   2.007 -0.8029  0.0571  0.3359
   46GLOH    C3 8820   2.946   8.587   2.135  0.6737 -0.2690 -0.1760
   46GLOH   H06 8821   3.015   8.506   2.158 -0.7936 -1.2256  0.9729
   46GLOH   H07 8822   2.926   8.597   2.028 -1.4246 -0.5517  0.1576
   46GLOH    O3 8823   2.824   8.560   2.209  0.1414  0.6613  0.1537
   46GLOH   H01 8824   2.807   8.467   2.185  2.5741  0.2821 -0.2134
   47GLOH   H03 8825   3.086   9.551   1.583  0.6453  0.3589  1.0703
   47GLOH    O1 8826   3.045   9.475   1.629  0.1212 -0.1990 -0.2923
   47GLOH    C1 8827   2.919   9.521   1.691  0.6214  0.2423 -0.1509
   47GLOH   H02 8828   2.864   9.440   1.739  1.4374  0.2822  0.8780
   47GLOH   H08 8829   2.853   9.549   1.609 -1.5327 -0.9552  1.1124
   47GLOH    C2 8830   2.939   9.638   1.789  0.0421 -0.2521  0.3710
   47GLOH   H04 8831   2.952   9.725   1.723  1.3254 -0.8656 -0.1975
   47GLOH    O2 8832   2.820   9.652   1.862 -0.2019  0.0246  0.4594
   47GLOH   H05 8833   2.831   9.732   1.916 -1.6086  0.6785 -0.2168
   47GLOH    C3 8834   3.063   9.605   1.876  0.0395 -0.4036  0.4040
   47GLOH   H06 8835   3.131   9.543   1.817  1.7211  0.2548  1.6007
   47GLOH   H07 8836   3.049   9.539   1.962  1.9706 -0.8172  0.4304
   47GLOH    O3 8837   3.130   9.720   1.928 -0.0115 -0.0562 -0.3355
   47GLOH   H01 8838   3.186   9.684   1.999 -0.8054 -0.1158  0.2657
   48GLOH   H03 8839   3.615   8.838   0.017 -0.7757  0.4036  0.0280
   48GLOH    O1 8840   3.637   8.928   0.049 -0.0537  0.2326  0.0160
   48GLOH    C1 8841   3.540   9.013  -0.006  0.2034 -0.6618  0.0747
   48GLOH   H02 8842   3.520   9.096   0.061  2.3718 -1.3985  1.6823
   48GLOH   H08 8843   3.449   8.953  -0.015  0.5777 -1.3537  0.8668
   48GLOH    C2 8844   3.573   9.077  -0.145 -0.2963  0.2084  0.1326
   48GLOH   H04 8845   3.591   9.004  -0.226 -0.0077 -0.9411  1.2214
   48GLOH    O2 8846   3.461   9.160  -0.171  0.4839  0.4688  0.1837
   48GLOH   H05 8847   3.468   9.248  -0.130  0.0252  1.6052 -2.1183
   48GLOH    C3 8848   3.703   9.152  -0.131  0.8025  0.7806 -0.0092
   48GLOH   H06 8849   3.769   9.077  -0.088  0.6998  1.6828  1.7693
   48GLOH   H07 8850   3.690   9.233  -0.059 -0.6049  0.2696  0.3239
   48GLOH    O3 8851   3.760   9.200  -0.250  0.8687 -0.2570 -0.4322
   48GLOH   H01 8852   3.857   9.198  -0.246  0.8210 -0.7076  0.4703
   49GLOH   H03 8853   2.522   9.466   1.784  0.7113 -2.6188  2.3203
   49GLOH    O1 8854   2.542   9.413   1.704  0.1694  0.4381  0.0374
   49GLOH    C1 8855   2.568   9.499   1.590 -0.4615  0.7306  0.6761
   49GLOH   H02 8856   2.646   9.572   1.615  2.2534 -0.7804 -2.8698
   49GLOH   H08 8857   2.478   9.554   1.564 -0.3594 -0.0321 -1.3865
   49GLOH    C2 8858   2.605   9.417   1.460  0.0508  0.1413  0.3457
   49GLOH   H04 8859   2.521   9.353   1.429 -1.2070  2.4067 -1.0969
   49GLOH    O2 8860   2.624   9.509   1.355 -0.3170 -0.2907  0.4528
   49GLOH   H05 8861   2.609   9.601   1.381  1.2749  0.2463 -0.5004
   49GLOH    C3 8862   2.731   9.325   1.477 -0.3752  0.3639 -0.2581
   49GLOH   H06 8863   2.823   9.384   1.470 -0.9126  1.4151  1.2322
   49GLOH   H07 8864   2.739   9.256   1.393 -2.2217  1.0440 -1.0125
   49GLOH    O3 8865   2.712   9.253   1.599  0.6984 -0.4237  0.2646
   49GLOH   H01 8866   2.641   9.298   1.649  1.3631 -0.8604  1.6309
   50GLOH   H03 8867   4.082   9.073   1.244 -0.5248 -1.9171 -3.8509
   50GLOH    O1 8868   4.167   9.111   1.216  0.2673  0.1322  0.6782
   50GLOH    C1 8869   4.146   9.254   1.175  0.1651  0.5257 -0.6229
   50GLOH   H02 8870   4.078   9.307   1.242 -0.4004  1.3904 -1.8798
   50GLOH   H08 8871   4.099   9.259   1.077 -1.5419 -2.8285 -0.0803
   50GLOH    C2 8872   4.270   9.343   1.163  0.6597 -0.1505  0.4657
   50GLOH   H04 8873   4.326   9.306   1.077 -1.2501 -0.9583 -0.4467
   50GLOH    O2 8874   4.237   9.482   1.139  0.1973  0.3783  0.6967
   50GLOH   H05 8875   4.145   9.483   1.108  0.4369  0.2810 -0.0230
   50GLOH    C3 8876   4.346   9.325   1.297 -0.1874  0.2132  0.4586
   50GLOH   H06 8877   4.288   9.357   1.384 -1.0823  1.2106 -0.4916
   50GLOH   H07 8878   4.435   9.387   1.300 -0.0344 -0.0027  0.3495
   50GLOH    O3 8879   4.380   9.188   1.315 -0.1443  0.0337 -0.2026
   50GLOH   H01 8880   4.315   9.130   1.270  0.8118 -2.0091  0.9939
   51GLOH   H03 8881   3.201   8.357   1.718 -0.0040  0.9032  2.0249
   51GLOH    O1 8882   3.297   8.346   1.728  0.1371  0.4269  0.3515
   51GLOH    C1 8883   3.330   8.235   1.816 -0.6253 -0.2370 -0.5178
   51GLOH   H02 8884   3.248   8.164   1.824 -0.3669 -0.6196 -1.2604
   51GLOH   H08 8885   3.362   8.264   1.916 -1.5773 -2.0531  0.3350
   51GLOH    C2 8886   3.454   8.163   1.758  0.7942 -0.0104 -0.7768
   51GLOH   H04 8887   3.540   8.230   1.773 -0.3880  1.9285 -2.3185
   51GLOH    O2 8888   3.487   8.047   1.840  0.3603  0.2789 -0.6154
   51GLOH   H05 8889   3.578   8.045   1.875 -0.4984 -1.5566  1.6795
   51GLOH    C3 8890   3.437   8.132   1.613  0.2027  0.4544  0.3113
   51GLOH   H06 8891   3.339   8.086   1.598 -0.5367  2.3839 -1.0579
   51GLOH   H07 8892   3.510   8.062   1.573 -0.4826 -0.1707  0.1426
   51GLOH    O3 8893   3.436   8.246   1.522 -0.1030 -0.0085 -0.7317
   51GLOH   H01 8894   3.380   8.311   1.567  0.1812 -0.1234 -0.2114
   52GLOH   H03 8895   3.006   9.201   1.859 -0.3108 -0.8060  0.0534
   52GLOH    O1 8896   3.029   9.168   1.948 -0.0394 -0.6692  0.0361
   52GLOH    C1 8897   2.911   9.159   2.031 -0.4326  0.6452 -0.4875
   52GLOH   H02 8898   2.941   9.180   2.134  0.0505 -1.0820 -0.2678
   52GLOH   H08 8899   2.873   9.057   2.025  1.4933 -0.1074 -0.3502
   52GLOH    C2 8900   2.807   9.257   1.983  0.3062 -0.2320  0.2471
   52GLOH   H04 8901   2.854   9.351   1.953 -0.7422 -0.3446 -1.8596
   52GLOH    O2 8902   2.746   9.199   1.859 -0.2803 -0.3400 -0.0191
   52GLOH   H05 8903   2.800   9.207   1.778 -0.0297  0.2807  0.2059
   52GLOH    C3 8904   2.701   9.282   2.097  0.1620 -0.3704 -0.5245
   52GLOH   H06 8905   2.657   9.187   2.129 -1.0551  0.5204  0.5136
   52GLOH   H07 8906   2.623   9.348   2.060  2.0653  1.8521 -0.6564
   52GLOH    O3 8907   2.753   9.349   2.208 -0.2767 -0.1035 -0.4707
   52GLOH   H01 8908   2.695   9.363   2.285  0.5498  0.9467 -0.0165
   53GLOH   H03 8909   3.795   8.053   1.968 -0.4894  1.3871 -1.8242
   53GLOH    O1 8910   3.704   8.018   1.967  0.0401 -0.1073  0.1896
   53GLOH    C1 8911   3.666   7.956   2.092  0.0432 -0.0542  0.5556
   53GLOH   H02 8912   3.745   7.885   2.116  0.4227  0.1957  0.0594
   53GLOH   H08 8913   3.572   7.903   2.077  0.8368 -0.8582 -1.6574
   53GLOH    C2 8914   3.662   8.062   2.208  0.0089 -0.2611  0.2500
   53GLOH   H04 8915   3.617   8.009   2.294  0.1071 -0.5112  0.1486
   53GLOH    O2 8916   3.792   8.106   2.235 -0.5761  0.4652 -0.6353
   53GLOH   H05 8917   3.825   8.148   2.153  0.1490  0.4399 -0.3609
   53GLOH    C3 8918   3.571   8.177   2.169 -0.1099  0.1252  0.2840
   53GLOH   H06 8919   3.479   8.128   2.136  0.7206 -0.7749 -0.7445
   53GLOH   H07 8920   3.613   8.235   2.087  2.8034  0.8859  2.2691
   53GLOH    O3 8921   3.537   8.268   2.277 -0.2253 -0.4454  0.1676
   53GLOH   H01 8922   3.616   8.316   2.306 -0.3382 -0.3692  0.3464
   54GLOH   H03 8923   3.815   8.142   1.449 -0.5865  2.3372  3.0533
   54GLOH    O1 8924   3.769   8.078   1.507 -0.4210 -0.0064  0.7178
   54GLOH    C1 8925   3.797   8.114   1.642 -0.3028  0.2483  0.2164
   54GLOH   H02 8926   3.890   8.063   1.669  0.7546  2.4915  0.9110
   54GLOH   H08 8927   3.718   8.082   1.709  0.6706 -1.3294  0.6508
   54GLOH    C2 8928   3.800   8.263   1.663  0.2888  0.4338 -0.1053
   54GLOH   H04 8929   3.704   8.312   1.638  0.0079  1.1141  2.2196
   54GLOH    O2 8930   3.825   8.292   1.802 -0.1868 -0.1580 -0.5374
   54GLOH   H05 8931   3.764   8.361   1.833  0.3209  0.2458 -0.4447
   54GLOH    C3 8932   3.917   8.322   1.587 -0.1157  0.3000  0.0433
   54GLOH   H06 8933   4.010   8.297   1.638 -0.9261  0.6861  1.7249
   54GLOH   H07 8934   3.897   8.429   1.594  1.3339  0.5669  0.2068
   54GLOH    O3 8935   3.912   8.279   1.450 -0.3506 -0.1817  0.1141
   54GLOH   H01 8936   3.982   8.325   1.400  0.8909 -1.1917  0.8789
   55GLOH   H03 8937   4.535   9.982   1.269  0.1451 -0.6842  1.2733
   55GLOH    O1 8938   4.463   9.944   1.323 -0.8801 -0.7866 -0.1503
   55GLOH    C1 8939   4.491   9.955   1.456  0.4391  0.2328 -0.6840
   55GLOH   H02 8940   4.572   9.890   1.489  0.8157  1.1610  0.2404
   55GLOH   H08 8941   4.405   9.931   1.518  0.2166 -0.3819 -1.2241
   55GLOH    C2 8942   4.526  10.095   1.501  0.3243 -0.2533 -0.1140
   55GLOH   H04 8943   4.448  10.169   1.478  1.5317  1.2130  0.3862
   55GLOH    O2 8944   4.556  10.099   1.640  0.3858  0.6309 -0.4414
   55GLOH   H05 8945   4.550  10.186   1.682  0.4572  0.2500  0.3644
   55GLOH    C3 8946   4.653  10.133   1.426 -0.3641 -0.7045 -0.4157
   55GLOH   H06 8947   4.714  10.045   1.447 -0.7390 -1.0797 -0.8933
   55GLOH   H07 8948   4.698  10.223   1.470  0.2148 -0.6854 -1.0347
   55GLOH    O3 8949   4.634  10.140   1.279 -0.5573  0.1095 -0.6551
   55GLOH   H01 8950   4.718  10.180   1.249 -0.3730 -0.1761 -0.5263
   56GLOH   H03 8951   2.533   9.280   0.418 -1.1240 -1.2607 -2.1371
   56GLOH    O1 8952   2.541   9.188   0.448  0.2427 -0.5248 -0.1527
   56GLOH    C1 8953   2.566   9.114   0.329 -0.5207  0.2673  0.3071
   56GLOH   H02 8954   2.640   9.164   0.267 -1.2929 -1.9786 -2.4992
   56GLOH   H08 8955   2.472   9.122   0.276 -0.2426 -2.4631 -0.6540
   56GLOH    C2 8956   2.593   8.965   0.346  0.6026  0.5313 -0.3529
   56GLOH   H04 8957   2.494   8.922   0.370 -0.7894  2.8761 -1.6548
   56GLOH    O2 8958   2.636   8.904   0.220  0.3438  0.2186 -0.0812
   56GLOH   H05 8959   2.632   8.808   0.231 -1.4946  0.2623 -0.2152
   56GLOH    C3 8960   2.697   8.934   0.453 -0.5198 -0.0012 -0.2800
   56GLOH   H06 8961   2.787   8.987   0.421 -0.4291  0.6065  0.9838
   56GLOH   H07 8962   2.712   8.826   0.463 -0.7043 -0.0778 -0.8423
   56GLOH    O3 8963   2.658   9.001   0.576  0.1294 -0.0035  0.0801
   56GLOH   H01 8964   2.589   9.063   0.546  0.0515  0.4808  1.2560
   57GLOH   H03 8965   2.519   8.988   1.852 -1.5047 -0.3585  3.6526
   57GLOH    O1 8966   2.550   8.898   1.873  0.2840 -0.5922  0.4125
   57GLOH    C1 8967   2.600   8.906   2.009 -0.6043 -0.1004  0.7949
   57GLOH   H02 8968   2.518   8.933   2.076 -1.4301 -1.7254  0.4627
   57GLOH   H08 8969   2.677   8.982   2.008 -0.9540  0.2467  0.3923
   57GLOH    C2 8970   2.664   8.774   2.047  0.4654 -0.3675 -0.4046
   57GLOH   H04 8971   2.754   8.755   1.986  2.0508  0.7940  1.5106
   57GLOH    O2 8972   2.692   8.787   2.186 -0.1095  0.2572  0.4769
   57GLOH   H05 8973   2.739   8.704   2.205 -0.1231 -0.1747 -1.2529
   57GLOH    C3 8974   2.568   8.665   2.019 -0.9660  0.7188  0.0448
   57GLOH   H06 8975   2.474   8.687   2.070 -1.3879 -2.5189  0.7785
   57GLOH   H07 8976   2.598   8.572   2.066 -2.6139  0.1899  0.1031
   57GLOH    O3 8977   2.541   8.643   1.877  0.5250 -0.0322 -0.2167
   57GLOH   H01 8978   2.529   8.735   1.847 -0.0123 -0.4156 -1.1702
   58GLOH   H03 8979   4.245   8.768   1.199  0.3069  1.0401  0.3119
   58GLOH    O1 8980   4.232   8.741   1.292 -0.3547 -0.0010 -0.0833
   58GLOH    C1 8981   4.119   8.651   1.289  0.0234  0.0857 -0.1489
   58GLOH   H02 8982   4.056   8.675   1.204 -0.4492 -0.7721 -0.0548
   58GLOH   H08 8983   4.057   8.664   1.378 -0.2691 -2.6542  0.1140
   58GLOH    C2 8984   4.161   8.501   1.302 -0.1033 -0.4995 -0.6652
   58GLOH   H04 8985   4.200   8.496   1.405  0.3155 -1.6879 -0.8759
   58GLOH    O2 8986   4.049   8.413   1.287  0.0326 -0.4447  0.1208
   58GLOH   H05 8987   4.035   8.398   1.192 -1.4660  0.2843  0.2005
   58GLOH    C3 8988   4.277   8.466   1.208  0.7610  0.3085 -0.4877
   58GLOH   H06 8989   4.306   8.361   1.219  1.3990  0.3458 -1.7554
   58GLOH   H07 8990   4.360   8.525   1.247  1.8086 -0.7362 -1.0707
   58GLOH    O3 8991   4.252   8.498   1.071  0.2360 -0.5136  0.5616
   58GLOH   H01 8992   4.190   8.431   1.040 -1.2010  0.5119  1.1338
   59GLOH   H03 8993   3.890   9.316   0.705 -0.6373  1.5449  2.5830
   59GLOH    O1 8994   3.879   9.230   0.749 -0.0424  0.2974  0.3692
   59GLOH    C1 8995   3.991   9.150   0.700 -0.7168  0.3229 -0.5119
   59GLOH   H02 8996   4.087   9.194   0.725 -0.2063 -2.2468  2.4117
   59GLOH   H08 8997   3.987   9.145   0.591 -0.8480 -0.2752 -0.4854
   59GLOH    C2 8998   3.992   9.010   0.760 -0.7151  0.1123 -0.7800
   59GLOH   H04 8999   3.898   8.961   0.730 -1.7803 -0.4829  3.2000
   59GLOH    O2 9000   4.102   8.938   0.710  0.3663  0.3922 -0.4169
   59GLOH   H05 9001   4.090   8.850   0.750 -1.6600  1.5714  1.7007
   59GLOH    C3 9002   3.984   9.004   0.911 -0.0747 -0.2589 -0.7194
   59GLOH   H06 9003   3.905   9.072   0.942 -0.3239 -0.1879 -1.5061
   59GLOH   H07 9004   4.077   9.048   0.948 -1.1121  1.3692 -0.0325
   59GLOH    O3 9005   3.988   8.865   0.955  0.3736 -0.1468 -0.3465
   59GLOH   H01 9006   4.079   8.832   0.966  0.5620  0.6998  0.7526
   60GLOH   H03 9007   2.681   9.320   2.433  1.0902  0.4472 -1.6996
   60GLOH    O1 9008   2.628   9.400   2.413 -0.6741 -0.2974 -0.2449
   60GLOH    C1 9009   2.688   9.524   2.453 -0.6353 -0.0814  0.0665
   60GLOH   H02 9010   2.615   9.603   2.435 -0.1824  0.3045 -0.0820
   60GLOH   H08 9011   2.765   9.539   2.378 -1.1234 -0.6730 -0.5695
   60GLOH    C2 9012   2.744   9.544   2.593  0.4164  0.6812 -0.7790
   60GLOH   H04 9013   2.845   9.500   2.596  1.1093  2.2610 -0.4256
   60GLOH    O2 9014   2.763   9.684   2.618  0.4680  0.3394 -0.4860
   60GLOH   H05 9015   2.801   9.693   2.707  0.1302  0.9642 -0.3988
   60GLOH    C3 9016   2.651   9.496   2.707  0.1360  0.4639 -0.1494
   60GLOH   H06 9017   2.632   9.389   2.700  0.7885  0.3084  0.4347
   60GLOH   H07 9018   2.552   9.542   2.701  1.6482  3.5841 -3.1218
   60GLOH    O3 9019   2.698   9.512   2.842  0.0839 -0.2838 -0.3925
   60GLOH   H01 9020   2.702   9.607   2.865  0.4982 -0.2216 -0.7233
   61GLOH   H03 9021   3.376   8.854   1.835  0.9353  0.6830 -0.5045
   61GLOH    O1 9022   3.381   8.757   1.844  0.7425  0.7286  0.1223
   61GLOH    C1 9023   3.515   8.706   1.828 -0.2286  0.5431  0.0350
   61GLOH   H02 9024   3.587   8.778   1.869  0.1442 -0.2756  0.8481
   61GLOH   H08 9025   3.543   8.688   1.724  1.5887 -0.5357  0.6795
   61GLOH    C2 9026   3.542   8.560   1.888  0.3381  0.0013 -0.2870
   61GLOH   H04 9027   3.464   8.490   1.854  0.9291 -2.3136  2.9382
   61GLOH    O2 9028   3.674   8.509   1.853 -0.3132 -0.8324  0.1879
   61GLOH   H05 9029   3.730   8.584   1.828 -0.4599 -0.9615 -0.5502
   61GLOH    C3 9030   3.530   8.580   2.038 -0.0274  0.4982  0.0912
   61GLOH   H06 9031   3.596   8.665   2.055  1.0559  0.0777 -1.7781
   61GLOH   H07 9032   3.562   8.492   2.093  0.4911  0.8072  0.2819
   61GLOH    O3 9033   3.397   8.610   2.067 -0.5051 -0.3422  0.1523
   61GLOH   H01 9034   3.358   8.658   1.992 -0.5017  2.0366  1.6063
   62GLOH   H03 9035   3.085   8.823   1.533 -0.7513  0.1562  0.2978
   62GLOH    O1 9036   3.079   8.854   1.625 -0.0120  0.2805  0.3088
   62GLOH    C1 9037   3.182   8.949   1.638 -0.0279 -0.1450  0.3954
   62GLOH   H02 9038   3.274   8.909   1.595 -0.9588 -1.3296 -0.5677
   62GLOH   H08 9039   3.185   8.986   1.740 -0.7378  0.8337  0.0696
   62GLOH    C2 9040   3.155   9.068   1.538 -0.6507  0.1312  0.4740
   62GLOH   H04 9041   3.240   9.137   1.541 -0.5720  0.0312  0.6062
   62GLOH    O2 9042   3.151   9.012   1.397 -0.0279 -0.2425  0.4321
   62GLOH   H05 9043   3.075   9.043   1.346  0.9811  2.8436  0.6494
   62GLOH    C3 9044   3.025   9.137   1.574 -0.0727  0.4531 -0.2511
   62GLOH   H06 9045   2.947   9.060   1.576 -1.0114  1.4206  2.1466
   62GLOH   H07 9046   3.019   9.202   1.487  0.1936  0.1820 -0.4734
   62GLOH    O3 9047   3.026   9.220   1.693 -0.0735  0.2174  0.2060
   62GLOH   H01 9048   3.038   9.313   1.667 -0.1527  0.9573  2.7690
   63GLOH   H03 9049   5.120   0.228   0.949  1.5993 -2.0360 -0.1687
   63GLOH    O1 9050   5.034   0.198   0.982  0.7318  0.3880 -0.1609
   63GLOH    C1 9051   5.016   0.053   0.950  0.1853 -0.6478 -0.6045
   63GLOH   H02 9052   5.091  -0.010   0.996 -0.3028 -0.1802  0.8504
   63GLOH   H08 9053   5.030   0.042   0.842  2.5317  2.0665 -0.6256
   63GLOH    C2 9054   4.878   0.000   0.992 -0.1378 -1.5157 -0.7316
   63GLOH   H04 9055   4.802   0.056   0.935  1.5434  1.4174 -0.2196
   63GLOH    O2 9056   4.866  -0.142   0.964  0.1748 -0.1536  0.5420
   63GLOH   H05 9057   4.845  -0.148   0.869  1.1307  0.0537  0.3024
   63GLOH    C3 9058   4.862   0.013   1.144 -0.5248 -0.0942 -0.1949
   63GLOH   H06 9059   4.949  -0.028   1.196  0.3594  1.9364 -0.0308
   63GLOH   H07 9060   4.770  -0.031   1.183  0.1818  1.8137  3.8504
   63GLOH    O3 9061   4.872   0.149   1.187 -0.0432  0.1272  0.4207
   63GLOH   H01 9062   4.958   0.189   1.167 -0.0428 -0.7260 -1.4040
   64GLOH   H03 9063   4.325   0.226   0.227 -0.4003 -1.5179 -1.8410
   64GLOH    O1 9064   4.281   0.304   0.187  0.1284 -0.0143  0.4694
   64GLOH    C1 9065   4.275   0.403   0.298  0.5394 -0.1426 -0.1284
   64GLOH   H02 9066   4.180   0.386   0.349 -0.2559 -0.2453 -1.6229
   64GLOH   H08 9067   4.272   0.507   0.265 -0.0257 -0.0328  0.2744
   64GLOH    C2 9068   4.392   0.390   0.405  0.3447 -0.0050 -0.4507
   64GLOH   H04 9069   4.484   0.408   0.348 -0.6301  0.6240 -1.8298
   64GLOH    O2 9070   4.378   0.478   0.518 -0.3293 -0.6258  0.6952
   64GLOH   H05 9071   4.337   0.559   0.483  0.7358 -2.1843 -4.5133
   64GLOH    C3 9072   4.396   0.239   0.441 -0.1403 -0.3772  0.1177
   64GLOH   H06 9073   4.304   0.205   0.488 -1.2960  1.0177 -1.1085
   64GLOH   H07 9074   4.482   0.215   0.505 -0.1964 -1.2984 -0.1410
   64GLOH    O3 9075   4.404   0.149   0.331 -0.5040 -0.2135 -1.1449
   64GLOH   H01 9076   4.408   0.057   0.364 -0.8943 -0.8538 -2.8246
   65GLOH   H03 9077   3.861   8.070   1.094  0.3095 -0.1470  0.2893
   65GLOH    O1 9078   3.913   8.127   1.034  0.0384  0.1008  0.2892
   65GLOH    C1 9079   3.818   8.193   0.945  0.1962 -0.8394 -0.1047
   65GLOH   H02 9080   3.744   8.245   1.006  1.5779  1.0091  0.0281
   65GLOH   H08 9081   3.765   8.118   0.886 -1.6426  0.3106  0.0493
   65GLOH    C2 9082   3.878   8.301   0.852  0.7590  0.4871 -0.4265
   65GLOH   H04 9083   3.959   8.255   0.793  1.1555 -0.6144  0.9769
   65GLOH    O2 9084   3.781   8.354   0.757  0.3206 -0.7979 -0.2546
   65GLOH   H05 9085   3.691   8.372   0.789  0.4564  1.7660 -1.1702
   65GLOH    C3 9086   3.941   8.407   0.945  0.3350 -0.8680  0.1074
   65GLOH   H06 9087   3.862   8.459   0.999  0.0184 -0.4717 -0.7340
   65GLOH   H07 9088   3.993   8.481   0.885 -0.4088  0.2753  0.8598
   65GLOH    O3 9089   4.040   8.344   1.034 -0.1338  0.6086  0.3654
   65GLOH   H01 9090   3.996   8.257   1.042 -2.6901  1.8060 -0.0769
   66GLOH   H03 9091   4.185   8.531   0.413 -1.2010  0.6021 -1.9428
   66GLOH    O1 9092   4.123   8.565   0.481  0.2773  0.4603 -0.4983
   66GLOH    C1 9093   3.987   8.571   0.439 -0.5097  0.0362 -0.5157
   66GLOH   H02 9094   3.949   8.473   0.470  1.9078 -1.1791 -1.2529
   66GLOH   H08 9095   3.972   8.576   0.331 -2.9145 -2.0958 -0.3312
   66GLOH    C2 9096   3.909   8.684   0.512 -0.2795 -0.1958 -0.2031
   66GLOH   H04 9097   3.936   8.781   0.466  0.9434  0.0369  0.9744
   66GLOH    O2 9098   3.764   8.674   0.495 -0.5782 -0.0945 -0.2913
   66GLOH   H05 9099   3.722   8.725   0.566  1.1172  2.5582 -1.0993
   66GLOH    C3 9100   3.939   8.674   0.662  0.0414  0.0607 -0.1134
   66GLOH   H06 9101   3.895   8.578   0.690 -1.7104  0.7055 -0.5811
   66GLOH   H07 9102   3.882   8.755   0.707 -0.5063 -0.8616  0.8768
   66GLOH    O3 9103   4.080   8.678   0.690  0.1007  0.0247  0.5387
   66GLOH   H01 9104   4.128   8.636   0.617 -0.9958  0.6991 -0.5962
   67GLOH   H03 9105   4.342   9.667   1.943 -3.7703  1.7853  2.0476
   67GLOH    O1 9106   4.318   9.576   1.965  0.0231  0.0947 -0.2702
   67GLOH    C1 9107   4.178   9.554   1.929  0.0084 -0.5096 -0.2101
   67GLOH   H02 9108   4.114   9.631   1.973 -0.3604 -1.6423  1.2568
   67GLOH   H08 9109   4.152   9.456   1.968  1.0508 -0.2152  1.2778
   67GLOH    C2 9110   4.152   9.543   1.775  0.3708 -0.1149  0.3140
   67GLOH   H04 9111   4.223   9.473   1.729 -0.5551  0.7827 -2.6097
   67GLOH    O2 9112   4.012   9.507   1.753 -0.4066  0.9566 -0.3006
   67GLOH   H05 9113   3.941   9.573   1.766 -0.3850  0.9253 -0.0374
   67GLOH    C3 9114   4.171   9.678   1.702 -0.0288  0.5616  0.4319
   67GLOH   H06 9115   4.272   9.711   1.727 -0.2288  1.8887 -0.4451
   67GLOH   H07 9116   4.111   9.752   1.755  2.2291  1.2966  2.0474
   67GLOH    O3 9117   4.160   9.678   1.557  0.1424 -0.4706  0.0837
   67GLOH   H01 9118   4.069   9.658   1.529  0.4812 -2.3296  0.2324
   68GLOH   H03 9119   3.137   9.843   1.841 -0.9733  1.4459  2.1733
   68GLOH    O1 9120   3.138   9.922   1.784 -0.2811  0.3909  0.6846
   68GLOH    C1 9121   3.275   9.972   1.774 -0.3206  0.4424  0.2865
   68GLOH   H02 9122   3.333   9.904   1.712 -2.1958  1.2710 -2.4742
   68GLOH   H08 9123   3.316   9.983   1.874  1.4659 -1.1785 -0.2256
   68GLOH    C2 9124   3.277  10.109   1.704  0.1201 -0.1072 -0.1251
   68GLOH   H04 9125   3.207  10.174   1.759 -0.9501 -0.5319 -0.9730
   68GLOH    O2 9126   3.411  10.165   1.712  0.2391  0.3912  0.1535
   68GLOH   H05 9127   3.415  10.242   1.652  1.3984  0.9396  0.9189
   68GLOH    C3 9128   3.235  10.097   1.560  0.1758 -1.3448 -0.0491
   68GLOH   H06 9129   3.305  10.034   1.506  2.2635  0.6981  0.1964
   68GLOH   H07 9130   3.244  10.201   1.528 -0.6245 -0.4822  2.4463
   68GLOH    O3 9131   3.103  10.046   1.551  0.0897 -0.0221 -0.1547
   68GLOH   H01 9132   3.089   9.992   1.631  1.0619  1.1343  0.8213
   69GLOH   H03 9133   4.453   0.658   1.956  0.1337 -0.1182  0.5062
   69GLOH    O1 9134   4.493   0.571   1.939 -0.1498 -0.0563 -0.4929
   69GLOH    C1 9135   4.444   0.484   2.042 -0.3905 -0.0049  0.6237
   69GLOH   H02 9136   4.336   0.480   2.051 -0.4609 -0.3267 -0.3626
   69GLOH   H08 9137   4.485   0.529   2.133  1.3811  0.9214 -0.6063
   69GLOH    C2 9138   4.505   0.339   2.036  0.0399  0.3562  1.0592
   69GLOH   H04 9139   4.615   0.352   2.040  0.0556  0.3423  0.6863
   69GLOH    O2 9140   4.458   0.261   2.148 -0.6301 -0.3928 -0.0116
   69GLOH   H05 9141   4.500   0.175   2.134  0.6528 -0.0251  1.4789
   69GLOH    C3 9142   4.452   0.271   1.900 -0.1411 -0.1733  0.1321
   69GLOH   H06 9143   4.345   0.287   1.890 -0.2656  0.4975  2.1819
   69GLOH   H07 9144   4.471   0.164   1.903 -0.5086 -0.2261  0.6882
   69GLOH    O3 9145   4.513   0.336   1.789 -0.1637  0.5517 -0.6470
   69GLOH   H01 9146   4.494   0.431   1.797  1.4829  0.8559 -0.0444
   70GLOH   H03 9147   3.141   9.107   2.008 -0.7638  0.8891  2.4039
   70GLOH    O1 9148   3.218   9.056   2.041 -0.3333 -0.0433  0.0786
   70GLOH    C1 9149   3.200   9.049   2.186  0.3709  0.0117  0.3909
   70GLOH   H02 9150   3.121   8.980   2.216 -0.3956 -0.7440 -3.1806
   70GLOH   H08 9151   3.176   9.148   2.224 -1.3500 -0.6501  1.0992
   70GLOH    C2 9152   3.327   9.016   2.260  0.2520  0.4420 -0.5095
   70GLOH   H04 9153   3.400   9.095   2.234 -0.5591  1.1156 -0.7473
   70GLOH    O2 9154   3.300   9.031   2.403 -0.1428 -0.0687  0.4619
   70GLOH   H05 9155   3.373   9.082   2.441 -0.1203  0.5876 -0.4387
   70GLOH    C3 9156   3.380   8.878   2.220  0.4549  0.2852 -1.0251
   70GLOH   H06 9157   3.382   8.882   2.111 -0.8716  0.8179 -1.0371
   70GLOH   H07 9158   3.313   8.802   2.258 -0.3587  1.8816  0.8740
   70GLOH    O3 9159   3.518   8.865   2.269 -0.2039  0.1851 -0.1245
   70GLOH   H01 9160   3.565   8.946   2.244 -0.6476  0.8502  1.1851
   71GLOH   H03 9161   4.417   9.198   1.469 -0.4024  0.9867 -0.1197
   71GLOH    O1 9162   4.427   9.203   1.565  0.7583 -0.0729 -0.1691
   71GLOH    C1 9163   4.297   9.202   1.633 -0.5068  0.0005 -0.2108
   71GLOH   H02 9164   4.230   9.267   1.577  1.6838  2.2415 -0.3032
   71GLOH   H08 9165   4.301   9.238   1.736 -1.5072  2.3124 -0.9595
   71GLOH    C2 9166   4.247   9.055   1.651  0.0377 -0.0184  1.2577
   71GLOH   H04 9167   4.321   8.995   1.706  1.5114  0.7423  0.1343
   71GLOH    O2 9168   4.121   9.051   1.726 -0.3115 -0.1058  0.2354
   71GLOH   H05 9169   4.137   9.055   1.822 -0.8986  0.8840  0.3038
   71GLOH    C3 9170   4.226   8.985   1.510  0.1138 -0.3101 -0.1474
   71GLOH   H06 9171   4.315   8.991   1.448 -0.4828  2.8084 -0.8057
   71GLOH   H07 9172   4.153   9.038   1.449 -0.4172 -1.0546 -0.1691
   71GLOH    O3 9173   4.184   8.856   1.525 -0.4188  0.0003 -0.0579
   71GLOH   H01 9174   4.207   8.810   1.441  0.7951  0.1641  0.1807
   72GLOH   H03 9175   2.992   8.294   2.349 -0.0948  1.4013 -0.5109
   72GLOH    O1 9176   2.918   8.254   2.301  0.1644 -0.0706  0.3113
   72GLOH    C1 9177   2.971   8.212   2.172  0.3382 -0.1030  0.4515
   72GLOH   H02 9178   2.989   8.105   2.177  0.6309 -0.1399 -0.9997
   72GLOH   H08 9179   3.068   8.258   2.153 -0.1906  0.9281  0.2019
   72GLOH    C2 9180   2.869   8.226   2.057  0.0986 -0.2596 -0.2800
   72GLOH   H04 9181   2.792   8.148   2.055 -1.3102  1.0406  1.2401
   72GLOH    O2 9182   2.789   8.349   2.058  0.2410  0.2019  0.5481
   72GLOH   H05 9183   2.701   8.325   2.025  0.6390 -0.6407  0.0911
   72GLOH    C3 9184   2.942   8.220   1.920  0.2020 -0.0460 -1.4277
   72GLOH   H06 9185   2.989   8.122   1.931  0.5866  0.3843  1.1318
   72GLOH   H07 9186   3.019   8.297   1.929  1.1668 -1.2529  1.4387
   72GLOH    O3 9187   2.851   8.234   1.808 -0.0397  0.1645  0.0672
   72GLOH   H01 9188   2.785   8.297   1.842  0.2741  0.7233 -0.3542
   73GLOH   H03 9189   4.093   0.158   1.185  2.4279 -0.1582 -2.5409
   73GLOH    O1 9190   4.111   0.244   1.226  0.1112 -0.5383 -0.6067
   73GLOH    C1 9191   4.145   0.228   1.364 -0.4234  0.0556 -0.3984
   73GLOH   H02 9192   4.238   0.174   1.379 -0.9298 -0.3482  1.4131
   73GLOH   H08 9193   4.075   0.175   1.430  1.5599  0.7171  2.3238
   73GLOH    C2 9194   4.169   0.359   1.438  0.6388  0.2292 -0.5930
   73GLOH   H04 9195   4.084   0.427   1.424 -0.7039 -1.0990  0.9903
   73GLOH    O2 9196   4.184   0.337   1.586 -0.4161  0.1227 -0.2778
   73GLOH   H05 9197   4.196   0.243   1.608 -0.7622  0.1529  0.0442
   73GLOH    C3 9198   4.286   0.434   1.374 -0.4964  0.2883 -0.8761
   73GLOH   H06 9199   4.368   0.366   1.352 -1.9392 -2.0880  0.8772
   73GLOH   H07 9200   4.319   0.511   1.443  1.2845 -0.6643 -0.6544
   73GLOH    O3 9201   4.249   0.499   1.252  0.0984  0.0626 -0.3490
   73GLOH   H01 9202   4.292   0.456   1.176  0.2575  0.1800 -0.3263
   74GLOH   H03 9203   3.085   8.218   0.526 -1.2097 -1.6849  1.4571
   74GLOH    O1 9204   3.019   8.182   0.464  0.0912 -1.2429 -0.2072
   74GLOH    C1 9205   2.901   8.252   0.464 -0.6194  0.4510  0.0744
   74GLOH   H02 9206   2.918   8.352   0.424 -0.8869  0.9018  1.0684
   74GLOH   H08 9207   2.868   8.251   0.568  1.4254 -0.2510  0.7300
   74GLOH    C2 9208   2.787   8.190   0.381 -0.1384 -0.7122  0.5286
   74GLOH   H04 9209   2.767   8.087   0.415 -0.4531 -0.4956  1.0099
   74GLOH    O2 9210   2.661   8.261   0.397  0.5154  0.0923  0.8083
   74GLOH   H05 9211   2.603   8.206   0.453 -2.0606  0.5600 -1.2648
   74GLOH    C3 9212   2.828   8.179   0.231 -0.2194 -0.3178 -0.3230
   74GLOH   H06 9213   2.764   8.115   0.170 -0.6530 -1.0859  0.9240
   74GLOH   H07 9214   2.920   8.120   0.235 -0.1749 -0.2821 -0.7130
   74GLOH    O3 9215   2.855   8.304   0.175 -0.2245  0.9033 -0.2276
   74GLOH   H01 9216   2.775   8.360   0.177  0.3492  1.7275  0.0685
   75GLOH   H03 9217   3.281   0.714   0.765  0.4699 -1.1785 -0.6495
   75GLOH    O1 9218   3.288   0.679   0.855  0.8213 -0.0351 -0.2263
   75GLOH    C1 9219   3.336   0.786   0.938 -0.1870 -0.5065  0.1511
   75GLOH   H02 9220   3.270   0.793   1.024 -0.5390  1.4073 -0.2569
   75GLOH   H08 9221   3.324   0.886   0.897 -2.2732 -0.2298  1.4084
   75GLOH    C2 9222   3.484   0.760   0.980  0.3021  0.5611 -0.0262
   75GLOH   H04 9223   3.490   0.653   1.009 -1.1610  0.4965  0.0460
   75GLOH    O2 9224   3.563   0.774   0.862  0.2056  0.4926  0.3691
   75GLOH   H05 9225   3.562   0.698   0.801  0.9457  2.2493 -1.9168
   75GLOH    C3 9226   3.535   0.842   1.091 -0.0003  0.3725 -0.6152
   75GLOH   H06 9227   3.544   0.945   1.057 -1.2959 -0.3726 -3.3258
   75GLOH   H07 9228   3.638   0.808   1.098  0.3094  0.9406 -2.1695
   75GLOH    O3 9229   3.467   0.823   1.218  0.7536  0.7173 -0.4471
   75GLOH   H01 9230   3.435   0.909   1.251 -1.6162  0.0967 -1.0221
   76GLOH   H03 9231   3.116   0.559   1.908  0.1038  1.3538  3.8995
   76GLOH    O1 9232   3.119   0.464   1.926  0.4230  0.5476  0.1554
   76GLOH    C1 9233   3.241   0.428   1.988 -0.3002  0.1567 -1.2267
   76GLOH   H02 9234   3.244   0.324   2.020 -1.1111 -0.4486 -3.0619
   76GLOH   H08 9235   3.247   0.493   2.076  0.7746 -2.5017  0.7465
   76GLOH    C2 9236   3.358   0.454   1.891  0.2265  0.1084 -0.1360
   76GLOH   H04 9237   3.343   0.379   1.812  1.4586 -0.7166  0.3972
   76GLOH    O2 9238   3.360   0.591   1.847  0.3043 -0.5059 -0.1129
   76GLOH   H05 9239   3.274   0.620   1.812  1.4193 -0.4903 -2.9856
   76GLOH    C3 9240   3.489   0.406   1.964  0.0327  0.5713  0.4251
   76GLOH   H06 9241   3.576   0.440   1.909 -2.2206  4.0379 -1.1418
   76GLOH   H07 9242   3.487   0.297   1.960  0.6995  0.5417  0.9088
   76GLOH    O3 9243   3.492   0.452   2.097 -0.2733  0.3261 -0.3805
   76GLOH   H01 9244   3.465   0.545   2.091 -1.0453  0.2688  1.8428
   77GLOH   H03 9245   3.966   0.597   2.026  2.1273 -0.1965 -0.0793
   77GLOH    O1 9246   3.959   0.535   2.101 -0.3754 -0.3664 -0.4061
   77GLOH    C1 9247   4.025   0.412   2.061  0.0614 -0.1221 -0.6110
   77GLOH   H02 9248   4.108   0.441   1.996 -0.1083  0.3947 -0.6038
   77GLOH   H08 9249   3.947   0.352   2.014  0.9417 -0.6421 -1.4166
   77GLOH    C2 9250   4.074   0.336   2.190 -0.3772 -0.4691  0.2962
   77GLOH   H04 9251   3.991   0.303   2.255  0.4202 -0.4559  1.3371
   77GLOH    O2 9252   4.155   0.228   2.140 -0.1938  0.2001 -0.6049
   77GLOH   H05 9253   4.191   0.180   2.217 -3.0219  0.3252  0.8324
   77GLOH    C3 9254   4.159   0.428   2.278 -0.1026 -0.0656 -0.2008
   77GLOH   H06 9255   4.258   0.441   2.233 -0.3157 -1.0506 -0.9689
   77GLOH   H07 9256   4.170   0.386   2.378 -3.7225 -0.5742  0.0586
   77GLOH    O3 9257   4.095   0.557   2.302 -0.0503 -0.0318  0.0026
   77GLOH   H01 9258   4.027   0.562   2.232  0.0265 -0.6849 -0.1196
   78GLOH   H03 9259   3.014   9.689   0.945  0.8585  0.6071  1.1094
   78GLOH    O1 9260   3.047   9.757   0.884  0.4564  0.1736  0.3972
   78GLOH    C1 9261   2.929   9.822   0.830 -0.6729  0.1670 -0.2659
   78GLOH   H02 9262   2.880   9.748   0.767 -0.3931 -0.0721 -0.2020
   78GLOH   H08 9263   2.956   9.905   0.764  2.0423  1.4474  2.3258
   78GLOH    C2 9264   2.837   9.900   0.924  0.1810 -0.0711  0.3290
   78GLOH   H04 9265   2.899   9.959   0.994 -2.1041  0.3513  2.0535
   78GLOH    O2 9266   2.744   9.977   0.846 -0.1061  0.1829 -0.3116
   78GLOH   H05 9267   2.747  10.068   0.880  1.4131 -0.7982  2.2924
   78GLOH    C3 9268   2.755   9.792   1.006  0.5591 -0.0595  0.7412
   78GLOH   H06 9269   2.685   9.729   0.950  1.2401  0.7071 -1.0203
   78GLOH   H07 9270   2.689   9.852   1.068  0.0349 -1.3818  1.4868
   78GLOH    O3 9271   2.842   9.708   1.080  0.7092  0.5455  0.4395
   78GLOH   H01 9272   2.787   9.633   1.109  0.2410  0.0386 -1.6915
   79GLOH   H03 9273   4.742   9.324   1.759  0.5771 -2.6698  1.8371
   79GLOH    O1 9274   4.772   9.388   1.827  0.1184  0.1594 -0.5144
   79GLOH    C1 9275   4.742   9.522   1.782 -0.4937 -0.0626  0.4053
   79GLOH   H02 9276   4.829   9.553   1.724 -0.6119 -2.2895 -1.0183
   79GLOH   H08 9277   4.724   9.585   1.869  0.3351 -1.5375  1.6537
   79GLOH    C2 9278   4.615   9.523   1.692 -0.4378  0.5119  0.7388
   79GLOH   H04 9279   4.529   9.493   1.754 -1.2027  0.1810 -0.4648
   79GLOH    O2 9280   4.591   9.658   1.654 -0.2382  0.4099  0.2725
   79GLOH   H05 9281   4.517   9.663   1.590  0.4413 -0.6821 -0.6085
   79GLOH    C3 9282   4.644   9.425   1.578  0.1876 -0.7797 -0.1268
   79GLOH   H06 9283   4.736   9.461   1.532  0.2298 -1.4207 -0.5540
   79GLOH   H07 9284   4.564   9.441   1.506  2.3003 -0.3105 -2.4141
   79GLOH    O3 9285   4.662   9.286   1.614  0.8346  0.2203 -0.3051
   79GLOH   H01 9286   4.576   9.244   1.594  0.7044 -0.5561  1.7503
   80GLOH   H03 9287   3.216   8.399   0.130 -1.3410  0.8827  1.0452
   80GLOH    O1 9288   3.280   8.401   0.203  0.4728  0.1366 -0.4639
   80GLOH    C1 9289   3.226   8.349   0.326 -0.2404 -0.2211  0.5199
   80GLOH   H02 9290   3.204   8.244   0.303 -0.0188  0.5478 -3.5500
   80GLOH   H08 9291   3.135   8.399   0.360  1.2673  1.9495  1.4119
   80GLOH    C2 9292   3.324   8.347   0.441  0.5543  0.1969  0.5897
   80GLOH   H04 9293   3.359   8.451   0.453  0.2319  0.4798 -0.8654
   80GLOH    O2 9294   3.270   8.296   0.563 -0.3767  0.0992  0.0877
   80GLOH   H05 9295   3.291   8.368   0.625 -1.3673 -0.8699  1.5845
   80GLOH    C3 9296   3.446   8.257   0.408  0.7083 -0.3484 -0.8995
   80GLOH   H06 9297   3.405   8.160   0.382 -3.0086  1.4159 -1.9396
   80GLOH   H07 9298   3.499   8.247   0.503 -0.0952  0.3943 -0.3663
   80GLOH    O3 9299   3.528   8.310   0.309  0.8617 -0.5982 -0.4950
   80GLOH   H01 9300   3.609   8.339   0.354  0.4871 -0.0597 -0.1596
   81GLOH   H03 9301   2.976   9.327   0.131  1.5370 -1.4734 -2.4955
   81GLOH    O1 9302   3.055   9.383   0.139  0.3288 -0.0271 -0.3180
   81GLOH    C1 9303   3.125   9.341   0.260  0.2251  0.7894  0.1582
   81GLOH   H02 9304   3.059   9.318   0.344  1.4271  0.0120  0.9052
   81GLOH   H08 9305   3.190   9.422   0.295 -0.0735  0.8120  0.6581
   81GLOH    C2 9306   3.203   9.211   0.243 -0.0895 -0.6163 -0.2952
   81GLOH   H04 9307   3.281   9.238   0.170 -1.7429  0.7852 -1.5965
   81GLOH    O2 9308   3.264   9.169   0.367  0.4416 -0.0617 -0.1637
   81GLOH   H05 9309   3.269   9.072   0.363  3.0450  0.0619 -0.7100
   81GLOH    C3 9310   3.112   9.110   0.167 -0.5115  1.0149 -0.4276
   81GLOH   H06 9311   3.171   9.019   0.157 -1.4670  0.2356  0.8575
   81GLOH   H07 9312   3.098   9.149   0.066  1.9584  0.6638 -0.9346
   81GLOH    O3 9313   2.985   9.072   0.228 -0.2069  0.3362  0.6091
   81GLOH   H01 9314   2.924   9.145   0.207 -2.3408 -1.2992  1.0270
   82GLOH   H03 9315   3.069   8.492   1.457  2.4832 -0.4038  1.3695
   82GLOH    O1 9316   3.065   8.578   1.503  0.6640  0.0310  0.4503
   82GLOH    C1 9317   2.950   8.576   1.590 -1.5367 -0.2657  0.0077
   82GLOH   H02 9318   2.868   8.513   1.554 -1.7077 -0.4294  0.6694
   82GLOH   H08 9319   2.908   8.675   1.607  1.0645  0.4301  2.9952
   82GLOH    C2 9320   2.995   8.512   1.722  0.2257  0.0993 -0.0337
   82GLOH   H04 9321   2.905   8.504   1.785  1.2581 -2.8541  1.1453
   82GLOH    O2 9322   3.036   8.373   1.709  0.0870 -0.1188 -0.5285
   82GLOH   H05 9323   2.956   8.321   1.726 -0.6696  0.3708 -2.5151
   82GLOH    C3 9324   3.096   8.600   1.800  0.3602  0.1141 -0.0010
   82GLOH   H06 9325   3.180   8.596   1.731 -0.1050  0.6871 -0.6114
   82GLOH   H07 9326   3.133   8.544   1.886 -0.6430 -1.5229 -0.6393
   82GLOH    O3 9327   3.046   8.733   1.847 -0.0919 -0.2164  0.5505
   82GLOH   H01 9328   3.048   8.785   1.765 -1.0979 -1.2122 -0.1203
   83GLOH   H03 9329   3.985   0.321   1.199  0.2816 -0.8021  0.5477
   83GLOH    O1 9330   3.893   0.343   1.179  0.4200 -0.5283  0.2270
   83GLOH    C1 9331   3.808   0.303   1.290 -0.8556  0.2036  0.3309
   83GLOH   H02 9332   3.712   0.354   1.298 -1.2571 -0.1642 -1.8889
   83GLOH   H08 9333   3.853   0.315   1.389 -0.9904  1.4405  0.2565
   83GLOH    C2 9334   3.763   0.157   1.268  0.2303  0.1498 -0.4356
   83GLOH   H04 9335   3.858   0.102   1.284 -1.5317 -3.0565 -0.6508
   83GLOH    O2 9336   3.667   0.120   1.370  0.1750 -0.2373  0.3999
   83GLOH   H05 9337   3.576   0.109   1.338  0.8848 -3.3314 -0.7232
   83GLOH    C3 9338   3.706   0.119   1.133 -0.3619 -0.5994  0.3939
   83GLOH   H06 9339   3.607   0.163   1.122 -0.3153  0.0985  2.5344
   83GLOH   H07 9340   3.694   0.011   1.132 -0.4887 -0.5807 -1.3834
   83GLOH    O3 9341   3.793   0.160   1.026  0.2513 -0.1730  0.3525
   83GLOH   H01 9342   3.843   0.238   1.059 -0.6029  0.6094 -0.1944
   84GLOH   H03 9343   3.983   0.182   0.712  0.5651 -0.6940 -0.6502
   84GLOH    O1 9344   4.028   0.261   0.676 -0.3587  0.3737  0.4996
   84GLOH    C1 9345   3.991   0.293   0.544 -0.8797 -0.3098  0.6883
   84GLOH   H02 9346   3.911   0.234   0.500 -0.3933 -1.7010  1.6382
   84GLOH   H08 9347   4.078   0.262   0.486 -0.7156  0.9587  0.2377
   84GLOH    C2 9348   3.948   0.435   0.517 -0.2007 -0.2068 -0.2317
   84GLOH   H04 9349   4.006   0.511   0.571 -1.2638  0.6870 -0.3246
   84GLOH    O2 9350   3.923   0.489   0.388  0.2646  0.3023 -0.1084
   84GLOH   H05 9351   3.982   0.564   0.367 -0.0650  0.8010  0.7600
   84GLOH    C3 9352   3.816   0.453   0.589  0.1925 -0.4344 -0.1607
   84GLOH   H06 9353   3.749   0.384   0.538  1.5704  0.1283 -2.8758
   84GLOH   H07 9354   3.787   0.557   0.578  1.5332 -0.2790 -2.5759
   84GLOH    O3 9355   3.824   0.427   0.730 -0.1025  0.6116  0.6822
   84GLOH   H01 9356   3.879   0.498   0.767  1.7086 -0.1673 -0.4764
   85GLOH   H03 9357   4.332   9.907   1.238 -1.4949  1.4437  2.3641
   85GLOH    O1 9358   4.261   9.894   1.172  0.5594  0.0028  0.3887
   85GLOH    C1 9359   4.163   9.828   1.246  0.7939  0.1203 -0.0949
   85GLOH   H02 9360   4.128   9.881   1.334  0.6195  0.4234 -0.3435
   85GLOH   H08 9361   4.195   9.730   1.279 -1.2382 -0.4809  0.1791
   85GLOH    C2 9362   4.044   9.800   1.152 -0.1853  0.1625  0.2001
   85GLOH   H04 9363   4.083   9.768   1.054  1.8458 -0.3891  1.1558
   85GLOH    O2 9364   3.953   9.695   1.204 -0.4548  0.0765  0.2166
   85GLOH   H05 9365   3.949   9.631   1.131  0.9364 -1.0908  1.1205
   85GLOH    C3 9366   3.964   9.920   1.113 -0.0827  0.4333  0.1821
   85GLOH   H06 9367   3.875   9.920   1.176 -0.6624 -2.4711 -0.6034
   85GLOH   H07 9368   3.923   9.891   1.017 -1.3519  2.9166 -0.0673
   85GLOH    O3 9369   4.032  10.047   1.095  0.2932  0.3060 -0.0555
   85GLOH   H01 9370   4.086  10.039   1.014  1.1814 -0.0233  0.5647
   86GLOH   H03 9371   3.033   8.961   2.580 -1.3312 -0.8735  1.1932
   86GLOH    O1 9372   2.953   9.014   2.566 -0.1733  0.5776 -0.1651
   86GLOH    C1 9373   2.834   8.935   2.607  0.9756  0.3044 -0.3190
   86GLOH   H02 9374   2.852   8.901   2.709  3.4139  3.0095  0.2124
   86GLOH   H08 9375   2.829   8.853   2.536  0.2289  2.6676 -3.1040
   86GLOH    C2 9376   2.695   9.011   2.611 -0.5439  0.0544 -0.3312
   86GLOH   H04 9377   2.615   8.938   2.590  0.4036 -1.4213  1.0649
   86GLOH    O2 9378   2.675   9.071   2.743 -0.4501  0.8273  0.3964
   86GLOH   H05 9379   2.676   9.003   2.812  0.2995  0.9878  0.5501
   86GLOH    C3 9380   2.674   9.105   2.492  0.2085  0.1696  0.3025
   86GLOH   H06 9381   2.581   9.160   2.495  0.6496  0.8746  1.4054
   86GLOH   H07 9382   2.680   9.046   2.401 -0.4428  0.0793  0.3216
   86GLOH    O3 9383   2.786   9.199   2.481 -0.0128 -0.2647 -0.1748
   86GLOH   H01 9384   2.871   9.155   2.498  0.8625  1.8692  1.0881
   87GLOH   H03 9385   3.266   9.661   0.348 -1.2048 -0.6829 -0.5067
   87GLOH    O1 9386   3.239   9.685   0.257 -0.1186 -0.1707 -0.7025
   87GLOH    C1 9387   3.133   9.782   0.262  0.6663 -0.7032  0.2823
   87GLOH   H02 9388   3.053   9.746   0.196 -2.8056  2.8777  2.3491
   87GLOH   H08 9389   3.172   9.879   0.230  1.8803 -0.5305  2.2266
   87GLOH    C2 9390   3.075   9.802   0.404  0.2469  0.0487 -0.3303
   87GLOH   H04 9391   3.156   9.837   0.470  0.4220  1.3160 -1.2066
   87GLOH    O2 9392   2.979   9.911   0.413  0.6377  0.2656  0.7694
   87GLOH   H05 9393   2.894   9.869   0.437  0.1597  0.2843 -0.8323
   87GLOH    C3 9394   3.001   9.681   0.460 -0.7378  0.9664 -0.1431
   87GLOH   H06 9395   2.975   9.696   0.565  0.3271 -0.5047  0.3385
   87GLOH   H07 9396   3.073   9.600   0.472  0.2492  1.7402 -0.7833
   87GLOH    O3 9397   2.902   9.634   0.375 -0.0127  0.4787 -0.3957
   87GLOH   H01 9398   2.845   9.581   0.433 -1.7882  0.6348 -1.9398
   88GLOH   H03 9399   4.369   9.463   2.071  0.3935 -0.5667 -0.1245
   88GLOH    O1 9400   4.417   9.410   2.138  0.0272 -0.8726 -0.1012
   88GLOH    C1 9401   4.551   9.374   2.098 -0.3015 -0.0815 -0.0091
   88GLOH   H02 9402   4.620   9.392   2.180 -1.8251  2.9893  0.6784
   88GLOH   H08 9403   4.574   9.449   2.022 -1.1865  2.4647  2.1259
   88GLOH    C2 9404   4.570   9.238   2.034  0.5860 -0.2993 -0.6734
   88GLOH   H04 9405   4.519   9.234   1.936 -0.4177 -0.4802 -0.1492
   88GLOH    O2 9406   4.709   9.220   2.026 -0.8689 -0.2420  0.6813
   88GLOH   H05 9407   4.736   9.290   1.964 -0.8607 -0.7404  0.1286
   88GLOH    C3 9408   4.513   9.123   2.122  0.1108 -0.4746  0.7364
   88GLOH   H06 9409   4.585   9.103   2.202  1.0522 -3.4016 -0.7703
   88GLOH   H07 9410   4.500   9.030   2.066 -0.0976 -1.1005  1.8070
   88GLOH    O3 9411   4.381   9.158   2.172  0.0512 -0.1908  0.4629
   88GLOH   H01 9412   4.373   9.255   2.166 -0.1503 -0.1776  0.9364
   89GLOH   H03 9413   3.885   8.177   2.626 -0.9718 -1.0230  1.4673
   89GLOH    O1 9414   3.899   8.241   2.698 -0.6548  0.4614  0.1340
   89GLOH    C1 9415   3.773   8.306   2.711  0.1862  0.4306 -0.2876
   89GLOH   H02 9416   3.764   8.394   2.648  2.4448  0.2266 -0.9289
   89GLOH   H08 9417   3.765   8.342   2.814  1.1121 -2.3871  0.8263
   89GLOH    C2 9418   3.650   8.215   2.702 -0.4021  0.1026  0.2460
   89GLOH   H04 9419   3.656   8.127   2.767  1.5117 -1.2453 -1.6856
   89GLOH    O2 9420   3.531   8.282   2.741 -0.2128 -0.3667 -0.1957
   89GLOH   H05 9421   3.539   8.301   2.836  2.0309  1.8130 -0.7559
   89GLOH    C3 9422   3.645   8.179   2.549  0.1434  0.1983 -0.2808
   89GLOH   H06 9423   3.602   8.261   2.491  0.9682 -1.0042 -2.6624
   89GLOH   H07 9424   3.575   8.096   2.538  0.7132 -0.4979  1.1831
   89GLOH    O3 9425   3.772   8.136   2.498  0.4427  0.4917 -0.6222
   89GLOH   H01 9426   3.764   8.144   2.401 -0.6337  0.0331 -0.5839
   90GLOH   H03 9427   3.551   0.089   0.429  0.3625  1.8708 -1.6122
   90GLOH    O1 9428   3.584   0.143   0.504 -0.0653  0.5605 -0.4438
   90GLOH    C1 9429   3.662   0.062   0.594 -0.0075 -0.0910  0.4117
   90GLOH   H02 9430   3.766   0.091   0.587 -0.2042  0.6454  0.4853
   90GLOH   H08 9431   3.654  -0.043   0.564  2.8245 -0.0428 -0.6076
   90GLOH    C2 9432   3.611   0.071   0.739  0.4266  0.4716  0.1201
   90GLOH   H04 9433   3.518   0.011   0.737 -1.2887  3.0476 -2.1348
   90GLOH    O2 9434   3.711   0.007   0.825  0.5294 -0.2107 -0.5971
   90GLOH   H05 9435   3.733   0.071   0.896  0.6714 -0.2955 -0.5640
   90GLOH    C3 9436   3.559   0.204   0.794 -0.3356  0.7086 -0.0963
   90GLOH   H06 9437   3.646   0.268   0.778 -0.1728  0.2520 -1.0524
   90GLOH   H07 9438   3.549   0.196   0.903 -0.4106  3.2990  0.1347
   90GLOH    O3 9439   3.435   0.253   0.733  0.1005  0.3095  0.0101
   90GLOH   H01 9440   3.387   0.307   0.798  0.5680 -1.0573  1.5404
   91GLOH   H03 9441   3.117   0.041   1.273 -1.6157 -2.2462 -2.1155
   91GLOH    O1 9442   3.201   0.027   1.226  0.2655 -0.6239  0.6277
   91GLOH    C1 9443   3.174  -0.027   1.095  0.4908  0.7152  0.3680
   91GLOH   H02 9444   3.141   0.054   1.030 -2.5024 -0.5337  0.2411
   91GLOH   H08 9445   3.093  -0.100   1.098  2.3830 -1.4941 -1.2425
   91GLOH    C2 9446   3.294  -0.104   1.033  0.3833 -0.3356  0.4894
   91GLOH   H04 9447   3.287  -0.204   1.079  0.1307  0.2601  1.7808
   91GLOH    O2 9448   3.269  -0.111   0.892 -0.2880  0.2264  0.7902
   91GLOH   H05 9449   3.187  -0.164   0.888  1.3329 -2.5131  2.0286
   91GLOH    C3 9450   3.427  -0.033   1.066  0.8694  0.0560 -0.8043
   91GLOH   H06 9451   3.429   0.067   1.023  1.8472  1.4726  2.3616
   91GLOH   H07 9452   3.497  -0.090   1.006  0.6841 -1.5087  0.4210
   91GLOH    O3 9453   3.466  -0.024   1.207 -0.0366  0.7064  0.4422
   91GLOH   H01 9454   3.405  -0.074   1.264  0.2625  3.5413  3.3814
   92GLOH   H03 9455   3.427   8.369   2.681  0.9284  1.5296 -0.2539
   92GLOH    O1 9456   3.355   8.425   2.646 -0.2571  0.3236  0.2272
   92GLOH    C1 9457   3.293   8.353   2.540  0.4294  0.7199 -0.0552
   92GLOH   H02 9458   3.270   8.250   2.566  1.0933  0.6685  0.3320
   92GLOH   H08 9459   3.353   8.353   2.449 -0.2672  1.0323 -0.5195
   92GLOH    C2 9460   3.148   8.410   2.516 -0.1633  0.0532 -0.4309
   92GLOH   H04 9461   3.151   8.519   2.526 -0.5819  0.0746 -0.5029
   92GLOH    O2 9462   3.117   8.376   2.379 -0.2239 -1.1258 -0.7443
   92GLOH   H05 9463   3.193   8.405   2.325  1.0053 -1.4658  0.7607
   92GLOH    C3 9464   3.038   8.346   2.603 -0.0495  0.2468 -0.0211
   92GLOH   H06 9465   3.022   8.241   2.581  3.0143 -0.3446  0.2738
   92GLOH   H07 9466   2.946   8.398   2.577  0.2521  1.0241  0.4314
   92GLOH    O3 9467   3.067   8.361   2.744 -0.0825 -0.2715  0.0489
   92GLOH   H01 9468   2.984   8.360   2.796 -1.5321  1.2257 -2.1497
   93GLOH   H03 9469   3.200   0.600   0.983  1.6675  0.1939  0.0324
   93GLOH    O1 9470   3.179   0.558   1.069 -0.1140  0.0387 -0.4684
   93GLOH    C1 9471   3.163   0.414   1.048  0.1478  0.2800  0.6197
   93GLOH   H02 9472   3.093   0.394   0.966 -0.5360 -0.7519  1.4404
   93GLOH   H08 9473   3.117   0.363   1.132 -0.1375  1.9167  1.4870
   93GLOH    C2 9474   3.298   0.341   1.023 -0.0323 -0.6668 -0.1878
   93GLOH   H04 9475   3.274   0.237   0.993 -0.4082 -0.5246 -0.3929
   93GLOH    O2 9476   3.367   0.415   0.922 -0.0824 -0.3002  1.0052
   93GLOH   H05 9477   3.322   0.500   0.907  0.6132 -0.1744 -0.4555
   93GLOH    C3 9478   3.374   0.340   1.156 -0.5333 -0.0667  0.0200
   93GLOH   H06 9479   3.385   0.441   1.197 -1.0365 -0.2776  0.6840
   93GLOH   H07 9480   3.475   0.302   1.140 -0.3044  0.8090 -0.6525
   93GLOH    O3 9481   3.306   0.256   1.252 -0.5526  0.0854  0.1932
   93GLOH   H01 9482   3.297   0.163   1.224 -0.3559  0.0642  0.1982
   94GLOH   H03 9483   3.895   0.901   2.359  1.4749  1.9578 -2.3122
   94GLOH    O1 9484   3.802   0.907   2.333  0.5260  0.1890  0.4375
   94GLOH    C1 9485   3.724   0.965   2.438  0.5325  0.3761  0.1011
   94GLOH   H02 9486   3.763   1.062   2.467  0.5165  0.6333 -0.7312
   94GLOH   H08 9487   3.733   0.892   2.519 -0.9074 -0.2359 -0.2856
   94GLOH    C2 9488   3.573   0.983   2.422  0.5322  0.0009 -0.5426
   94GLOH   H04 9489   3.529   0.882   2.426  0.2227  0.0952 -1.4616
   94GLOH    O2 9490   3.516   1.056   2.535  0.0123  0.9701  0.1266
   94GLOH   H05 9491   3.536   1.024   2.624  0.8461 -1.2800 -0.8427
   94GLOH    C3 9492   3.539   1.040   2.284  0.1284 -0.9914  0.2789
   94GLOH   H06 9493   3.604   1.001   2.205  0.8453  0.2260  0.2423
   94GLOH   H07 9494   3.553   1.148   2.282  2.1387 -1.2177  0.9331
   94GLOH    O3 9495   3.401   1.023   2.246 -0.0977  0.0535  0.0124
   94GLOH   H01 9496   3.350   1.091   2.295 -2.0028 -1.1829 -0.2011
   95GLOH   H03 9497   3.864   9.708   1.879  2.4543 -1.4793 -1.8248
   95GLOH    O1 9498   3.799   9.666   1.820 -0.1689 -0.3626  0.1890
   95GLOH    C1 9499   3.730   9.561   1.894 -0.3405  0.1278  0.3113
   95GLOH   H02 9500   3.782   9.544   1.988  0.8948 -1.6323 -0.6473
   95GLOH   H08 9501   3.728   9.467   1.838 -2.9633  0.6589 -0.5429
   95GLOH    C2 9502   3.581   9.600   1.917  0.5140 -0.5750 -0.3116
   95GLOH   H04 9503   3.529   9.634   1.826 -1.1355  0.4423  0.9704
   95GLOH    O2 9504   3.503   9.492   1.972  0.4498 -0.3465  0.4115
   95GLOH   H05 9505   3.453   9.446   1.902  1.4667 -0.9701  0.0809
   95GLOH    C3 9506   3.586   9.714   2.017 -0.4476 -0.2581  0.0867
   95GLOH   H06 9507   3.675   9.776   2.010 -0.1425 -0.6117  0.7938
   95GLOH   H07 9508   3.602   9.665   2.113 -3.0298  1.0431  1.2344
   95GLOH    O3 9509   3.469   9.802   2.034 -0.2210 -0.3499 -0.3467
   95GLOH   H01 9510   3.499   9.887   1.997 -1.2627 -0.1565 -0.7637
   96GLOH   H03 9511   3.546   0.564   0.577 -0.1626  0.7432 -0.8338
   96GLOH    O1 9512   3.546   0.647   0.628 -0.1175  0.0569  0.2780
   96GLOH    C1 9513   3.503   0.763   0.550  0.4888 -0.1312 -0.3695
   96GLOH   H02 9514   3.572   0.763   0.466  1.7873  0.1121  0.6895
   96GLOH   H08 9515   3.510   0.849   0.615  2.3947 -0.7313  0.2558
   96GLOH    C2 9516   3.359   0.756   0.499 -0.3502  0.1576  0.6046
   96GLOH   H04 9517   3.351   0.673   0.428  1.5721 -1.3750  2.0956
   96GLOH    O2 9518   3.268   0.719   0.605  0.8195 -0.0725  0.5520
   96GLOH   H05 9519   3.267   0.622   0.609  0.6178 -0.1392 -0.7999
   96GLOH    C3 9520   3.316   0.879   0.422  0.1091  0.0482 -0.7690
   96GLOH   H06 9521   3.329   0.973   0.475 -1.1022 -1.5135  2.4091
   96GLOH   H07 9522   3.209   0.875   0.403 -0.3732  1.5730  1.4576
   96GLOH    O3 9523   3.387   0.887   0.297  0.3736  0.3551 -1.0906
   96GLOH   H01 9524   3.348   0.831   0.227  0.8164 -0.6055 -0.5849
   97GLOH   H03 9525   2.612   9.986   1.615  0.4494 -0.5069  0.4955
   97GLOH    O1 9526   2.660   9.944   1.542  0.2196 -0.2094  0.1704
   97GLOH    C1 9527   2.763  10.028   1.499  0.3913  0.0225  0.1625
   97GLOH   H02 9528   2.831  10.061   1.577  0.7454  0.9043 -0.5203
   97GLOH   H08 9529   2.723  10.124   1.468  0.8453  0.6573  1.5214
   97GLOH    C2 9530   2.843   9.954   1.391  0.1251  0.1951  0.8975
   97GLOH   H04 9531   2.771   9.938   1.309 -0.5473  1.5996  1.2025
   97GLOH    O2 9532   2.950  10.036   1.347 -0.3600 -0.1561  0.4660
   97GLOH   H05 9533   3.000  10.064   1.426  0.7310  0.1480 -0.3206
   97GLOH    C3 9534   2.897   9.822   1.441 -0.3209  0.7796 -0.1249
   97GLOH   H06 9535   2.816   9.758   1.475  1.2689 -0.9227  0.4776
   97GLOH   H07 9536   2.955   9.843   1.530 -0.0880 -1.7890  0.3508
   97GLOH    O3 9537   2.973   9.753   1.342 -0.2464 -0.3462  0.0713
   97GLOH   H01 9538   2.919   9.731   1.264  2.0166  2.8866 -2.5658
   98GLOH   H03 9539   4.338   0.887   1.935 -0.0870  0.4204  2.0104
   98GLOH    O1 9540   4.358   0.793   1.949  0.5486  0.3461  0.7125
   98GLOH    C1 9541   4.232   0.725   1.973 -0.3536  0.3104 -0.0140
   98GLOH   H02 9542   4.207   0.714   2.079  0.7077  1.3141  0.3469
   98GLOH   H08 9543   4.236   0.624   1.933  0.2637  0.4376 -0.2761
   98GLOH    C2 9544   4.116   0.790   1.901  0.3091  0.7956 -0.2549
   98GLOH   H04 9545   4.133   0.781   1.792 -1.7575 -1.1878 -0.4541
   98GLOH    O2 9546   3.999   0.715   1.921 -0.1917  0.2276 -0.5436
   98GLOH   H05 9547   3.998   0.651   1.847  1.3800 -2.4041  1.6400
   98GLOH    C3 9548   4.101   0.935   1.941 -0.4981 -0.0976  0.0433
   98GLOH   H06 9549   4.096   0.928   2.050  0.6353 -0.6314  0.0654
   98GLOH   H07 9550   4.009   0.978   1.901 -0.4744 -0.3605 -0.2971
   98GLOH    O3 9551   4.209   1.013   1.900 -0.5644  0.0251  0.6775
   98GLOH   H01 9552   4.172   1.104   1.900 -1.5661 -0.3149 -3.2042
   99GLOH   H03 9553   4.073   9.320   2.177 -2.3209  1.4038  1.2320
   99GLOH    O1 9554   4.119   9.344   2.260  0.0993  0.1099  0.3254
   99GLOH    C1 9555   4.102   9.485   2.282 -0.7189 -0.5787  0.0868
   99GLOH   H02 9556   3.998   9.516   2.269 -0.3658  0.5604 -0.0779
   99GLOH   H08 9557   4.163   9.536   2.207  0.1632 -1.4160  0.2174
   99GLOH    C2 9558   4.139   9.523   2.425 -0.6239 -0.5911  0.1069
   99GLOH   H04 9559   4.123   9.630   2.444  0.5609  0.2279 -3.2281
   99GLOH    O2 9560   4.045   9.463   2.518 -0.4061 -0.6692  0.8114
   99GLOH   H05 9561   4.031   9.374   2.483  2.1264 -0.5066 -0.7510
   99GLOH    C3 9562   4.283   9.482   2.454  0.1920  0.1379  0.5362
   99GLOH   H06 9563   4.285   9.374   2.447 -0.2565  0.0207  2.0716
   99GLOH   H07 9564   4.297   9.500   2.560  0.6416  1.6787  0.2324
   99GLOH    O3 9565   4.384   9.542   2.374  0.2245  0.1621 -0.4087
   99GLOH   H01 9566   4.410   9.486   2.298 -3.1193 -2.1684  0.0263
  100GLOH   H03 9567   2.944   8.715   1.211 -0.6356 -0.1060  0.1673
  100GLOH    O1 9568   2.849   8.715   1.192 -0.4681 -0.1766 -0.7278
  100GLOH    C1 9569   2.810   8.804   1.089 -0.0498  0.1558  0.2882
  100GLOH   H02 9570   2.703   8.824   1.093  0.5436  3.9965 -1.0054
  100GLOH   H08 9571   2.833   8.761   0.991  2.6710  0.9928  0.5343
  100GLOH    C2 9572   2.875   8.938   1.093  0.8028 -0.0281  0.5088
  100GLOH   H04 9573   2.981   8.936   1.063  0.0737  0.3219 -2.1791
  100GLOH    O2 9574   2.813   9.017   0.986 -0.3457  0.6323 -0.2143
  100GLOH   H05 9575   2.808   8.965   0.904  1.1134  0.4929 -0.2313
  100GLOH    C3 9576   2.872   9.001   1.232 -0.0668  0.3209  0.7702
  100GLOH   H06 9577   2.875   8.924   1.310 -2.8775  0.5823  1.1969
  100GLOH   H07 9578   2.773   9.045   1.241  0.6530  1.9690  0.6971
  100GLOH    O3 9579   2.969   9.100   1.256  0.1730  0.6300 -0.4717
  100GLOH   H01 9580   2.961   9.173   1.191  0.5289  0.1844 -1.0283
  101GLOH   H03 9581   4.299   9.103   2.291  0.0371  1.4768  0.6431
  101GLOH    O1 9582   4.268   9.059   2.372 -0.2297  0.0676 -0.2130
  101GLOH    C1 9583   4.379   8.983   2.427 -0.0976  0.0365 -0.3022
  101GLOH   H02 9584   4.449   9.038   2.489  0.3652 -0.1949 -0.6200
  101GLOH   H08 9585   4.433   8.933   2.347  0.7930 -0.5639  0.6501
  101GLOH    C2 9586   4.324   8.867   2.523 -0.6585 -0.7839  0.1975
  101GLOH   H04 9587   4.285   8.795   2.449  3.8681  1.3252 -4.5847
  101GLOH    O2 9588   4.450   8.811   2.578 -0.4344 -0.0009  0.4337
  101GLOH   H05 9589   4.500   8.770   2.505  3.3726  3.5772  0.8507
  101GLOH    C3 9590   4.241   8.927   2.639  0.0629  0.2441 -0.2427
  101GLOH   H06 9591   4.167   8.996   2.597  0.4500 -0.3001 -1.8774
  101GLOH   H07 9592   4.303   8.990   2.702  0.1296  0.6561 -0.7156
  101GLOH    O3 9593   4.185   8.820   2.718  0.2890  0.3284  0.1134
  101GLOH   H01 9594   4.254   8.754   2.738 -0.0181  0.5667  2.1421
  102GLOH   H03 9595   2.626   8.464   1.264 -0.6908  1.4167  1.3689
  102GLOH    O1 9596   2.529   8.470   1.270 -0.8654  0.3148 -0.0549
  102GLOH    C1 9597   2.494   8.608   1.257  0.9666 -0.0025 -0.2189
  102GLOH   H02 9598   2.385   8.614   1.262  1.0590  2.1928 -0.5193
  102GLOH   H08 9599   2.504   8.649   1.157  1.9485  0.8705  0.2383
  102GLOH    C2 9600   2.552   8.704   1.366  0.0543  0.4270 -0.3291
  102GLOH   H04 9601   2.661   8.702   1.370  0.0656  0.7355 -0.4060
  102GLOH    O2 9602   2.511   8.837   1.336 -0.9169  0.1122  0.3823
  102GLOH   H05 9603   2.550   8.900   1.399 -0.9305 -0.8840  1.3946
  102GLOH    C3 9604   2.505   8.653   1.506 -0.2571 -0.6083  0.2111
  102GLOH   H06 9605   2.396   8.645   1.510 -0.2454 -2.1035 -1.7343
  102GLOH   H07 9606   2.518   8.737   1.575 -0.6455  0.4096 -0.9333
  102GLOH    O3 9607   2.567   8.520   1.527  0.3345  0.4055  0.3700
  102GLOH   H01 9608   2.529   8.462   1.459  0.9879 -2.6303  2.5209
  103GLOH   H03 9609   4.219   8.520   1.686 -0.4518 -0.4266  0.9817
  103GLOH    O1 9610   4.221   8.423   1.681 -0.0131 -0.3852  0.2712
  103GLOH    C1 9611   4.200   8.357   1.811 -0.1519  0.4920  0.1040
  103GLOH   H02 9612   4.201   8.249   1.805 -0.9789  0.5504 -1.5868
  103GLOH   H08 9613   4.105   8.393   1.851 -0.9158 -0.3983 -0.8909
  103GLOH    C2 9614   4.304   8.393   1.917  0.0649  0.5965  0.0437
  103GLOH   H04 9615   4.401   8.365   1.872 -0.6428 -1.4212 -0.2864
  103GLOH    O2 9616   4.306   8.535   1.935  0.0826  0.1860  0.5879
  103GLOH   H05 9617   4.274   8.575   1.853 -0.3441  3.2006  2.1851
  103GLOH    C3 9618   4.278   8.316   2.053 -1.5694  0.0145  0.4541
  103GLOH   H06 9619   4.349   8.360   2.123 -0.2706  0.4710 -1.1256
  103GLOH   H07 9620   4.310   8.214   2.032  1.1829  0.0526  4.0648
  103GLOH    O3 9621   4.138   8.317   2.090 -0.1283  0.0090  0.2317
  103GLOH   H01 9622   4.112   8.401   2.132 -2.1268 -0.9969  1.0973
  104GLOH   H03 9623   3.308   9.358   0.856  0.0533  1.2985 -1.7793
  104GLOH    O1 9624   3.267   9.436   0.898  0.0391 -0.0622  0.8331
  104GLOH    C1 9625   3.240   9.520   0.783 -0.0061  0.2457  0.2959
  104GLOH   H02 9626   3.156   9.579   0.820 -1.5914 -1.5890 -0.2828
  104GLOH   H08 9627   3.204   9.470   0.693 -1.5239  0.7291  0.6190
  104GLOH    C2 9628   3.356   9.612   0.739 -0.6356 -0.6828 -0.2522
  104GLOH   H04 9629   3.373   9.684   0.821  0.8076 -1.3486  0.0404
  104GLOH    O2 9630   3.472   9.545   0.710  0.2257  0.8142  0.6057
  104GLOH   H05 9631   3.514   9.529   0.796  1.9195  2.9629  0.2334
  104GLOH    C3 9632   3.297   9.693   0.621 -0.0425 -0.7601  0.0658
  104GLOH   H06 9633   3.355   9.784   0.608 -1.0507 -0.4399 -2.2939
  104GLOH   H07 9634   3.194   9.715   0.650 -0.2266  0.8863 -1.8255
  104GLOH    O3 9635   3.295   9.618   0.501 -0.4612 -0.1638 -0.4256
  104GLOH   H01 9636   3.373   9.562   0.488  0.2655  0.6183  0.5987
  105GLOH   H03 9637   2.783   8.627   0.443 -1.8283  3.6709 -1.5178
  105GLOH    O1 9638   2.871   8.669   0.433  0.1603  0.1874  0.2962
  105GLOH    C1 9639   2.933   8.624   0.316 -0.1463  0.2834  0.0145
  105GLOH   H02 9640   2.883   8.538   0.273 -0.8816 -0.1137  1.6270
  105GLOH   H08 9641   3.036   8.598   0.339 -0.5813 -1.0138  0.5263
  105GLOH    C2 9642   2.957   8.741   0.218 -0.8881  0.3791  0.7697
  105GLOH   H04 9643   2.863   8.798   0.207 -1.7291 -1.0981  0.2072
  105GLOH    O2 9644   3.062   8.828   0.260 -0.1516 -0.2713  0.2076
  105GLOH   H05 9645   3.037   8.921   0.244 -3.1418 -0.9061  0.8840
  105GLOH    C3 9646   2.988   8.681   0.079 -0.0982 -0.6415  0.6655
  105GLOH   H06 9647   3.069   8.611   0.100  1.3048 -0.0015 -2.3077
  105GLOH   H07 9648   3.038   8.752   0.013  1.5942 -2.3410  0.0384
  105GLOH    O3 9649   2.876   8.610   0.019 -0.2611  0.3533  0.1035
  105GLOH   H01 9650   2.885   8.607  -0.078  2.4819 -1.4620  0.3551
  106GLOH   H03 9651   3.667   8.965   0.933 -0.3635 -1.1104 -2.1651
  106GLOH    O1 9652   3.629   9.054   0.916  0.0339 -0.5644 -0.3426
  106GLOH    C1 9653   3.634   9.122   1.047  0.1522 -0.3838  0.1792
  106GLOH   H02 9654   3.715   9.077   1.105  0.0781 -0.8095 -0.0496
  106GLOH   H08 9655   3.540   9.116   1.102  0.7702  0.1510  1.3235
  106GLOH    C2 9656   3.664   9.273   1.039 -0.6065 -0.7532  0.1415
  106GLOH   H04 9657   3.631   9.312   1.137  1.2872 -0.6713  0.7594
  106GLOH    O2 9658   3.797   9.303   1.001 -0.1498 -0.3118  0.1693
  106GLOH   H05 9659   3.799   9.273   0.909 -1.1625  0.7854 -0.2244
  106GLOH    C3 9660   3.560   9.342   0.945 -0.3722 -0.2293  0.5825
  106GLOH   H06 9661   3.462   9.304   0.973 -0.3760 -1.3992 -0.9026
  106GLOH   H07 9662   3.576   9.297   0.847 -1.1922  3.3719 -1.2832
  106GLOH    O3 9663   3.568   9.485   0.945 -0.2086 -0.5578  0.0393
  106GLOH   H01 9664   3.587   9.524   1.032  0.8318 -1.1618  0.0928
  107GLOH   H03 9665   4.091   8.528   2.583 -0.6685  0.1363  0.8351
  107GLOH    O1 9666   4.053   8.580   2.510  0.3725 -0.1715  0.0651
  107GLOH    C1 9667   3.988   8.484   2.427 -0.0878  0.0176 -0.7155
  107GLOH   H02 9668   3.900   8.448   2.480 -0.0316  0.2799 -0.4406
  107GLOH   H08 9669   4.051   8.396   2.413 -2.3753 -1.4177 -2.3201
  107GLOH    C2 9670   3.945   8.526   2.288  0.4400 -0.3851 -0.6890
  107GLOH   H04 9671   3.896   8.623   2.307 -0.4357 -0.4534 -2.5625
  107GLOH    O2 9672   4.048   8.544   2.190  0.0478  0.0835 -0.9247
  107GLOH   H05 9673   4.078   8.636   2.201  0.4207 -0.0707 -0.6542
  107GLOH    C3 9674   3.847   8.424   2.228  0.0226 -0.3412  0.4661
  107GLOH   H06 9675   3.891   8.325   2.232  0.2410 -0.2670 -0.0593
  107GLOH   H07 9676   3.830   8.454   2.125  1.4296  2.4227  0.9803
  107GLOH    O3 9677   3.724   8.420   2.299  0.0923 -0.6648  0.8374
  107GLOH   H01 9678   3.695   8.513   2.309 -2.3893 -1.6345  3.3023
  108GLOH   H03 9679   4.083   8.831   2.332  1.4232  0.0384 -0.1443
  108GLOH    O1 9680   4.109   8.806   2.242 -0.4206 -0.1740 -0.6206
  108GLOH    C1 9681   4.031   8.871   2.134 -0.1937 -0.2740  0.5851
  108GLOH   H02 9682   4.044   8.979   2.132  0.1875 -0.3318 -2.1724
  108GLOH   H08 9683   3.925   8.848   2.139  0.3963 -3.0902  1.1047
  108GLOH    C2 9684   4.085   8.820   2.001 -0.3466  1.5488 -0.0159
  108GLOH   H04 9685   4.083   8.711   2.007 -0.9052  1.4659 -1.3879
  108GLOH    O2 9686   3.994   8.860   1.894  0.2797 -0.0564 -0.1705
  108GLOH   H05 9687   3.989   8.957   1.883  0.4000 -0.2450 -2.1190
  108GLOH    C3 9688   4.224   8.871   1.983  0.7670  0.4600  0.1021
  108GLOH   H06 9689   4.273   8.828   1.896  1.5269 -1.6773  1.5761
  108GLOH   H07 9690   4.282   8.836   2.067  2.0131  0.3602 -0.7860
  108GLOH    O3 9691   4.227   9.014   1.975  0.2352  0.6039  0.6815
  108GLOH   H01 9692   4.288   9.053   2.039 -0.6018  0.4997  1.5609
  109GLOH   H03 9693   4.114   0.023   0.802 -2.4244  1.1914  1.9452
  109GLOH    O1 9694   4.179   0.020   0.873 -0.5488  0.4231  0.2485
  109GLOH    C1 9695   4.237   0.153   0.873  0.7219  0.4149 -0.3249
  109GLOH   H02 9696   4.159   0.228   0.882  1.9384  1.6631 -0.1267
  109GLOH   H08 9697   4.286   0.171   0.777  1.8693  2.8339  0.6799
  109GLOH    C2 9698   4.336   0.162   0.988  0.0664 -0.2128 -0.0009
  109GLOH   H04 9699   4.291   0.142   1.086  1.4594  0.4462  0.7870
  109GLOH    O2 9700   4.430   0.058   0.964 -0.3037  0.5568  0.3684
  109GLOH   H05 9701   4.378  -0.022   0.947  2.0648 -1.5563  2.6956
  109GLOH    C3 9702   4.395   0.303   1.003  0.3052 -0.0395  0.4319
  109GLOH   H06 9703   4.445   0.319   0.908  0.8186 -1.6828  0.4045
  109GLOH   H07 9704   4.470   0.308   1.082  1.1090 -1.3113 -0.2237
  109GLOH    O3 9705   4.297   0.403   1.017 -0.5063 -0.0545  0.3156
  109GLOH   H01 9706   4.257   0.408   0.928  1.3838 -0.4547 -0.5785
  110GLOH   H03 9707   3.564   0.840   1.682 -1.3361  0.3082  1.3477
  110GLOH    O1 9708   3.617   0.916   1.713 -0.2421  0.3247 -0.5065
  110GLOH    C1 9709   3.675   0.891   1.844 -0.6381  0.0953  0.0197
  110GLOH   H02 9710   3.773   0.843   1.845 -1.3001 -1.2920 -0.4525
  110GLOH   H08 9711   3.611   0.821   1.896  1.7728 -0.6834  2.0524
  110GLOH    C2 9712   3.699   1.016   1.933  0.4102 -0.2309 -0.4499
  110GLOH   H04 9713   3.742   0.978   2.027 -0.4738  1.5919  0.7223
  110GLOH    O2 9714   3.784   1.119   1.872  0.2196 -0.3560  0.8034
  110GLOH   H05 9715   3.772   1.105   1.776 -0.4626 -0.2896  0.8738
  110GLOH    C3 9716   3.561   1.088   1.957  0.2226  0.7127 -0.3842
  110GLOH   H06 9717   3.527   1.148   1.873 -2.1243  1.3479  1.0027
  110GLOH   H07 9718   3.574   1.163   2.036  0.8851  3.1262 -2.7125
  110GLOH    O3 9719   3.452   0.997   1.994  0.1581  0.4318 -0.5476
  110GLOH   H01 9720   3.440   1.009   2.090  0.4649 -0.7824 -0.3494
  111GLOH   H03 9721   3.544   9.985   0.020 -0.5322  0.4516  1.7775
  111GLOH    O1 9722   3.568  10.079   0.007 -0.0947  0.0864 -0.3852
  111GLOH    C1 9723   3.625  10.129   0.126  0.2421 -0.3549 -0.2257
  111GLOH   H02 9724   3.602  10.057   0.205  1.6915  1.4872  1.9241
  111GLOH   H08 9725   3.591  10.230   0.149 -0.5782 -0.2040 -1.9845
  111GLOH    C2 9726   3.782  10.126   0.100  0.7382  0.2241 -0.5994
  111GLOH   H04 9727   3.810  10.031   0.052  1.1005  0.0022  0.0419
  111GLOH    O2 9728   3.819  10.230   0.009 -0.1194  0.3038  0.4550
  111GLOH   H05 9729   3.818  10.319   0.049 -0.4160  0.7344 -0.4786
  111GLOH    C3 9730   3.858  10.137   0.236 -0.2114  0.4665  0.2949
  111GLOH   H06 9731   3.837  10.234   0.280  1.9016  1.1473 -0.1494
  111GLOH   H07 9732   3.965  10.145   0.218 -0.2595  1.9596  0.6415
  111GLOH    O3 9733   3.828  10.019   0.324  0.2373  0.3059  0.1526
  111GLOH   H01 9734   3.764   9.967   0.272 -1.0675  1.9688  0.0465
  112GLOH   H03 9735   3.417   8.505   0.203 -1.6082  0.4255  0.8958
  112GLOH    O1 9736   3.461   8.593   0.197 -0.2346 -0.2569  0.6746
  112GLOH    C1 9737   3.357   8.694   0.199 -0.3554 -0.1792  0.0847
  112GLOH   H02 9738   3.257   8.655   0.216 -0.0910 -1.8960 -1.9983
  112GLOH   H08 9739   3.342   8.750   0.106  1.4096  1.2393  0.6343
  112GLOH    C2 9740   3.390   8.785   0.319 -0.5237 -0.4072 -0.3276
  112GLOH   H04 9741   3.495   8.809   0.299  0.6210 -2.6649  2.5450
  112GLOH    O2 9742   3.308   8.905   0.326  0.3808  0.6044 -0.1210
  112GLOH   H05 9743   3.214   8.880   0.329  0.4112  0.6710  1.6421
  112GLOH    C3 9744   3.382   8.704   0.453  0.3448 -0.6824 -0.3865
  112GLOH   H06 9745   3.412   8.777   0.529 -1.0038  1.3323 -1.7227
  112GLOH   H07 9746   3.457   8.625   0.444  0.6405 -0.4134 -0.3019
  112GLOH    O3 9747   3.251   8.661   0.494 -0.0943  0.3214  0.2411
  112GLOH   H01 9748   3.200   8.741   0.516 -0.3041  0.8409 -1.9408
  113GLOH   H03 9749   2.949   9.108   0.717 -0.2217 -0.3510 -1.0524
  113GLOH    O1 9750   3.032   9.063   0.696  0.1389 -0.2605  0.1255
  113GLOH    C1 9751   3.125   9.172   0.693  0.3968 -0.5751  0.0401
  113GLOH   H02 9752   3.112   9.254   0.764 -0.0714  0.0349 -0.7396
  113GLOH   H08 9753   3.121   9.221   0.596  0.6593  0.6870  0.6560
  113GLOH    C2 9754   3.268   9.120   0.711 -0.1456  0.3130 -0.4174
  113GLOH   H04 9755   3.287   9.042   0.635 -0.1268 -2.0886  1.9861
  113GLOH    O2 9756   3.360   9.224   0.689 -0.0630  0.6980 -0.7211
  113GLOH   H05 9757   3.408   9.200   0.608 -0.0208 -3.0336  0.3529
  113GLOH    C3 9758   3.274   9.059   0.854 -0.1988  0.1554  0.3233
  113GLOH   H06 9759   3.231   9.137   0.917 -0.6571 -1.8257  2.5550
  113GLOH   H07 9760   3.377   9.044   0.886 -0.7079 -0.7054  1.6389
  113GLOH    O3 9761   3.204   8.936   0.851 -0.0132 -0.7277  0.1087
  113GLOH   H01 9762   3.128   8.946   0.790 -0.8859 -0.8573  1.1743
  114GLOH   H03 9763   3.184   9.374   2.392  2.3310 -2.5664 -1.1155
  114GLOH    O1 9764   3.167   9.408   2.302 -0.2335  0.1321  0.3218
  114GLOH    C1 9765   3.297   9.395   2.238  0.3943  0.4242 -0.0936
  114GLOH   H02 9766   3.281   9.389   2.130  0.5967 -1.6120 -0.0254
  114GLOH   H08 9767   3.339   9.301   2.274 -1.1699 -0.2938 -0.0976
  114GLOH    C2 9768   3.378   9.513   2.285  0.7107 -0.5107  0.1472
  114GLOH   H04 9769   3.376   9.501   2.394  1.6497  1.7365  0.4376
  114GLOH    O2 9770   3.512   9.505   2.240  0.2184 -0.6164 -0.3250
  114GLOH   H05 9771   3.510   9.494   2.144  0.0065  0.4533 -0.4560
  114GLOH    C3 9772   3.304   9.647   2.249  0.3634  0.1165 -0.4934
  114GLOH   H06 9773   3.372   9.725   2.284  0.6118 -0.1814 -0.3206
  114GLOH   H07 9774   3.210   9.654   2.306  0.1867  0.1532 -0.7890
  114GLOH    O3 9775   3.282   9.660   2.109 -0.6448  0.1056  0.7356
  114GLOH   H01 9776   3.364   9.692   2.067  1.2762 -2.1350  2.6397
  115GLOH   H03 9777   3.923   9.672   1.347 -0.3437 -0.9189 -0.2750
  115GLOH    O1 9778   3.909   9.663   1.443 -0.2684 -0.1020 -0.1851
  115GLOH    C1 9779   3.769   9.663   1.475 -0.2401  0.0968  0.5985
  115GLOH   H02 9780   3.759   9.624   1.576 -0.9780  1.0319  0.8967
  115GLOH   H08 9781   3.705   9.620   1.397 -1.3853  0.2289  1.4463
  115GLOH    C2 9782   3.709   9.802   1.500  0.3585 -0.0719 -0.1193
  115GLOH   H04 9783   3.692   9.846   1.400  0.6771 -0.9280 -0.5580
  115GLOH    O2 9784   3.581   9.791   1.566  0.5998 -0.4135  0.4361
  115GLOH   H05 9785   3.597   9.831   1.653  0.9205 -0.0150  0.1885
  115GLOH    C3 9786   3.805   9.898   1.577 -0.1747 -0.8710 -0.1189
  115GLOH   H06 9787   3.893   9.911   1.514 -0.5046  1.7084 -0.1137
  115GLOH   H07 9788   3.834   9.850   1.670  0.3193  1.0981  0.7806
  115GLOH    O3 9789   3.749  10.029   1.606  0.6272  0.0692  0.4082
  115GLOH   H01 9790   3.744  10.080   1.524 -1.9125 -0.8369 -0.0315
  116GLOH   H03 9791   3.074   9.696   1.439  0.0748 -1.4922 -2.2540
  116GLOH    O1 9792   3.142   9.657   1.497 -0.4751  0.5126 -0.2128
  116GLOH    C1 9793   3.264   9.725   1.490  0.4930 -0.3550 -0.2230
  116GLOH   H02 9794   3.302   9.730   1.592  0.8845  1.2482 -0.4328
  116GLOH   H08 9795   3.246   9.829   1.464  1.2117 -0.5011 -1.3386
  116GLOH    C2 9796   3.358   9.657   1.393 -0.2919 -0.0997  0.4763
  116GLOH   H04 9797   3.298   9.619   1.309 -1.2251 -0.7782  1.4320
  116GLOH    O2 9798   3.452   9.755   1.352 -0.3501 -0.4110 -0.0444
  116GLOH   H05 9799   3.507   9.780   1.428  0.3577  1.9466 -1.2917
  116GLOH    C3 9800   3.421   9.535   1.465 -0.3573  0.1983 -0.3907
  116GLOH   H06 9801   3.496   9.565   1.538 -0.7975  0.5654 -0.0852
  116GLOH   H07 9802   3.476   9.500   1.378 -0.6051  2.1390 -1.3735
  116GLOH    O3 9803   3.335   9.428   1.519 -0.0312 -0.4748 -0.0837
  116GLOH   H01 9804   3.288   9.393   1.441 -0.3044 -1.5645  0.5761
  117GLOH   H03 9805   3.350   9.396   1.686  1.4641  1.4859 -0.2227
  117GLOH    O1 9806   3.365   9.389   1.782 -0.0485  0.3618 -0.0470
  117GLOH    C1 9807   3.332   9.259   1.831  0.0269  0.3145 -0.6035
  117GLOH   H02 9808   3.278   9.197   1.760 -0.7490  1.3682 -0.9395
  117GLOH   H08 9809   3.270   9.262   1.921 -1.8238  1.7878 -1.9141
  117GLOH    C2 9810   3.458   9.178   1.861 -0.0309  0.7340  0.0492
  117GLOH   H04 9811   3.521   9.223   1.940  0.0060 -0.3371  0.6506
  117GLOH    O2 9812   3.419   9.042   1.899  0.0587 -0.2950 -0.0236
  117GLOH   H05 9813   3.349   9.050   1.966 -3.1060  0.3157 -3.2415
  117GLOH    C3 9814   3.551   9.179   1.737 -0.0829  0.3856  0.0274
  117GLOH   H06 9815   3.593   9.279   1.729 -2.2584  1.5043  1.9714
  117GLOH   H07 9816   3.495   9.150   1.648  2.1927 -1.3551 -0.8919
  117GLOH    O3 9817   3.669   9.093   1.743  0.0523 -0.0806 -0.2135
  117GLOH   H01 9818   3.652   9.024   1.676 -0.0806 -0.4450  0.1955
  118GLOH   H03 9819   4.104   9.675   0.208 -1.6290 -1.5843  0.8936
  118GLOH    O1 9820   4.112   9.708   0.299  0.0751  0.2155  0.1147
  118GLOH    C1 9821   4.122   9.852   0.293 -0.1525 -0.0908  0.1300
  118GLOH   H02 9822   4.037   9.892   0.238 -1.2495 -2.0188  0.3784
  118GLOH   H08 9823   4.203   9.889   0.229  0.4017 -0.9685  0.3107
  118GLOH    C2 9824   4.120   9.925   0.432  0.6905  0.5290  0.3271
  118GLOH   H04 9825   4.126  10.032   0.407 -0.5827  0.1763 -1.6573
  118GLOH    O2 9826   3.997   9.904   0.501 -0.3583  0.2874 -0.3187
  118GLOH   H05 9827   3.922   9.911   0.438 -1.6518 -2.4057  0.8651
  118GLOH    C3 9828   4.241   9.865   0.502  0.5144  0.1345  0.6851
  118GLOH   H06 9829   4.227   9.757   0.498  0.2128  0.2333 -2.5030
  118GLOH   H07 9830   4.229   9.909   0.601  1.5108  2.0333 -0.0115
  118GLOH    O3 9831   4.362   9.906   0.436 -0.1350 -0.5759 -0.1641
  118GLOH   H01 9832   4.433   9.858   0.482  0.6758 -1.1245 -1.9487
  119GLOH   H03 9833   3.785   0.468   0.161  1.1859  3.3981  0.5859
  119GLOH    O1 9834   3.801   0.478   0.065 -0.1778  0.2019 -0.0356
  119GLOH    C1 9835   3.708   0.576   0.007 -0.1002  0.3517 -0.0214
  119GLOH   H02 9836   3.766   0.658  -0.036  1.1124 -0.1440  0.6478
  119GLOH   H08 9837   3.646   0.624   0.082  0.6275  3.3047 -1.2255
  119GLOH    C2 9838   3.629   0.518  -0.111  0.5089  0.2422  0.1943
  119GLOH   H04 9839   3.603   0.414  -0.087  1.1723  0.2084  0.7767
  119GLOH    O2 9840   3.509   0.597  -0.137 -0.1741  0.0874 -0.2115
  119GLOH   H05 9841   3.450   0.544  -0.193 -0.8096 -1.4881  1.8879
  119GLOH    C3 9842   3.713   0.527  -0.242 -0.3187 -1.0100  0.1364
  119GLOH   H06 9843   3.745   0.629  -0.262  0.4632 -0.4472  3.9572
  119GLOH   H07 9844   3.647   0.501  -0.325  1.0283  0.9910 -1.6061
  119GLOH    O3 9845   3.830   0.449  -0.250  0.3854 -0.1073 -0.7916
  119GLOH   H01 9846   3.886   0.488  -0.180 -1.1062  0.4802  0.0864
  120GLOH   H03 9847   4.821   9.749   0.686 -2.6567  1.0303 -1.6434
  120GLOH    O1 9848   4.817   9.835   0.731  0.1013  0.2099  0.2883
  120GLOH    C1 9849   4.781   9.939   0.636 -0.4894 -0.3131 -0.0080
  120GLOH   H02 9850   4.840   9.928   0.545  1.2319 -0.1078  1.0613
  120GLOH   H08 9851   4.805  10.037   0.678  0.9314  0.5419 -2.6536
  120GLOH    C2 9852   4.633   9.944   0.594  0.2351 -0.1286 -0.0912
  120GLOH   H04 9853   4.629  10.017   0.511  1.9982  0.8008  0.6058
  120GLOH    O2 9854   4.586   9.810   0.547  0.6921 -0.2045 -0.5841
  120GLOH   H05 9855   4.622   9.740   0.605  2.8204 -0.2294 -1.8732
  120GLOH    C3 9856   4.544  10.008   0.702  0.2916 -0.1481  0.5229
  120GLOH   H06 9857   4.553   9.948   0.792 -0.5186  1.3368  1.6144
  120GLOH   H07 9858   4.442   9.996   0.666 -0.2865 -1.6546  2.5724
  120GLOH    O3 9859   4.580  10.139   0.714 -0.3915 -0.4872 -0.2885
  120GLOH   H01 9860   4.607  10.152   0.807 -0.4082 -1.8416 -0.0763
  121ACOH    H4 9861   3.884   0.987   1.223 -0.3818  0.2704  0.3544
  121ACOH    O2 9862   3.848   1.073   1.197 -0.3858  0.2339  0.2377
  121ACOH    C2 9863   3.834   1.079   1.062 -0.4104  0.0591 -0.1400
  121ACOH    O1 9864   3.813   0.984   0.994 -0.0047  0.1515  0.1996
  121ACOH    C1 9865   3.813   1.213   1.012  0.1141 -0.1017  0.6805
  121ACOH    H1 9866   3.763   1.218   0.915  1.2416 -0.2827  0.0799
  121ACOH    H2 9867   3.904   1.271   0.997 -1.3805  1.8228 -1.2852
  121ACOH    H3 9868   3.754   1.270   1.083 -0.9042  0.1914 -0.3823
  122ACOH    H4 9869   4.915   0.243   0.895  0.8291  1.4011 -0.7475
  122ACOH    O2 9870   4.839   0.281   0.847 -0.0036  0.2179 -0.3787
  122ACOH    C2 9871   4.888   0.325   0.728 -0.2488  0.4647  0.2879
  122ACOH    O1 9872   5.005   0.312   0.692 -0.2048  0.9561  0.2159
  122ACOH    C1 9873   4.777   0.400   0.655 -0.5891  0.1789 -0.0248
  122ACOH    H1 9874   4.742   0.481   0.718  0.3728 -0.8208  1.8344
  122ACOH    H2 9875   4.697   0.330   0.631 -1.4624  1.7613 -1.8109
  122ACOH    H3 9876   4.822   0.448   0.568 -0.0022  0.8902  0.6652
  123ACOH    H4 9877   2.602   8.597   0.303  0.3743 -0.6519 -0.7134
  123ACOH    O2 9878   2.607   8.656   0.227  0.0058 -0.1176 -0.3264
  123ACOH    C2 9879   2.593   8.573   0.127 -1.2638  0.4109  0.1373
  123ACOH    O1 9880   2.607   8.452   0.136 -0.4473 -0.2027 -0.5774
  123ACOH    C1 9881   2.577   8.643  -0.003  0.1942 -0.2929 -0.1668
  123ACOH    H1 9882   2.579   8.574  -0.087 -0.3316 -2.2972  1.4137
  123ACOH    H2 9883   2.661   8.712  -0.015  0.1487  0.1490  1.8672
  123ACOH    H3 9884   2.479   8.691  -0.001  0.0570 -0.6103  1.6275
  124ACOH    H4 9885   2.384   8.921   1.282 -0.8261 -1.4628 -0.6724
  124ACOH    O2 9886   2.325   8.985   1.238  0.2339 -0.0803 -0.1278
  124ACOH    C2 9887   2.411   9.087   1.195  0.3073  0.0051  0.8193
  124ACOH    O1 9888   2.511   9.124   1.253  0.0688  0.3879 -0.0479
  124ACOH    C1 9889   2.356   9.155   1.075  0.2224 -0.5448  0.3361
  124ACOH    H1 9890   2.275   9.218   1.112 -0.0786  0.8095 -2.4759
  124ACOH    H2 9891   2.320   9.087   0.998 -0.6304 -0.7243  0.8836
  124ACOH    H3 9892   2.430   9.225   1.035 -0.1356  1.0425  2.3803
  125ACOH    H4 9893   3.670   7.987   1.434 -1.6893  2.0505  1.0626
  125ACOH    O2 9894   3.603   7.934   1.386  0.1464  0.4937  0.1587
  125ACOH    C2 9895   3.651   7.920   1.260 -0.6780  0.1537 -0.6548
  125ACOH    O1 9896   3.734   7.998   1.212  0.3988 -0.3746 -0.2617
  125ACOH    C1 9897   3.574   7.815   1.190 -0.2239  0.1978 -0.0953
  125ACOH    H1 9898   3.470   7.847   1.197 -0.5716 -0.5552 -1.6341
  125ACOH    H2 9899   3.586   7.717   1.237  0.9607  0.8052  0.8909
  125ACOH    H3 9900   3.605   7.820   1.086  0.0930  0.5231  0.0164
  126ACOH    H4 9901   5.197   0.339   0.671 -1.1658 -1.5388  0.6720
  126ACOH    O2 9902   5.283   0.304   0.641 -0.3037  0.9630  0.1339
  126ACOH    C2 9903   5.347   0.267   0.752  0.1680 -0.3261 -0.0094
  126ACOH    O1 9904   5.292   0.260   0.861  0.1297 -0.6769 -0.1426
  126ACOH    C1 9905   5.483   0.222   0.732 -0.2915  0.0423  0.2889
  126ACOH    H1 9906   5.487   0.114   0.741  0.5527  0.2665  2.8995
  126ACOH    H2 9907   5.543   0.270   0.809 -1.2181 -0.6275  1.4472
  126ACOH    H3 9908   5.517   0.251   0.632 -1.5649  0.7685  0.0512
  127ACOH    H4 9909   3.820   1.246   1.941 -0.6909  0.3504  0.2009
  127ACOH    O2 9910   3.861   1.330   1.964  0.5151 -0.3017  0.4942
  127ACOH    C2 9911   3.983   1.335   1.900 -0.5587  0.0498  0.0197
  127ACOH    O1 9912   4.056   1.245   1.860 -0.2010 -0.4006  0.7049
  127ACOH    C1 9913   4.027   1.475   1.900 -0.1962  0.1897  0.4599
  127ACOH    H1 9914   4.124   1.482   1.949 -0.0222 -0.7057  0.2503
  127ACOH    H2 9915   3.958   1.527   1.966 -0.7023 -0.1917  0.2375
  127ACOH    H3 9916   4.030   1.522   1.801 -3.2862 -3.3062 -1.4192
  128ACOH    H4 9917   2.800   8.069   1.310  0.2493  0.9221  0.7189
  128ACOH    O2 9918   2.735   8.026   1.368 -0.0846 -0.3395 -0.5588
  128ACOH    C2 9919   2.643   7.972   1.291 -0.7528 -0.1057 -0.2331
  128ACOH    O1 9920   2.603   8.014   1.185  0.5208  0.1660  0.5732
  128ACOH    C1 9921   2.551   7.897   1.383 -0.8212 -0.5467 -0.0620
  128ACOH    H1 9922   2.593   7.819   1.446  0.2008  0.5475  0.6354
  128ACOH    H2 9923   2.477   7.847   1.321 -0.3394  0.5019 -1.5047
  128ACOH    H3 9924   2.513   7.963   1.461  2.2807  0.9566  0.2549
  129ACOH    H4 9925   3.352   1.019   1.886 -0.8752 -0.4780  0.4401
  129ACOH    O2 9926   3.314   1.075   1.815 -0.3981 -0.3988  0.2432
  129ACOH    C2 9927   3.184   1.080   1.854 -1.1401  0.6423 -0.1987
  129ACOH    O1 9928   3.116   0.989   1.901  0.2067 -0.7250  0.5850
  129ACOH    C1 9929   3.122   1.202   1.806 -0.3722 -0.0921 -0.0844
  129ACOH    H1 9930   3.151   1.202   1.701  0.9372  2.3212  0.2371
  129ACOH    H2 9931   3.163   1.289   1.858 -0.6794 -0.1628  0.2800
  129ACOH    H3 9932   3.015   1.196   1.822 -0.4116  0.5787 -0.0709
  130ACOH    H4 9933   2.778   8.239   2.356  1.0412 -1.5853  2.1132
  130ACOH    O2 9934   2.701   8.198   2.398 -0.8031 -0.5973 -0.2088
  130ACOH    C2 9935   2.664   8.282   2.489  0.8715  0.2495 -0.0267
  130ACOH    O1 9936   2.683   8.405   2.489 -0.0418  0.9071  0.6558
  130ACOH    C1 9937   2.571   8.220   2.588  0.7404  0.9000  0.4158
  130ACOH    H1 9938   2.638   8.196   2.671  3.0899  1.0828 -1.3730
  130ACOH    H2 9939   2.528   8.126   2.555  2.6077 -0.3530  1.4154
  130ACOH    H3 9940   2.483   8.280   2.614 -0.4961 -1.2298  1.2395
  131ACOH    H4 9941   2.926   0.182   1.245  0.3622  0.8056  0.6311
  131ACOH    O2 9942   2.897   0.275   1.238  0.3671  0.7460 -0.2018
  131ACOH    C2 9943   2.835   0.293   1.118  0.1279 -0.4492  0.5323
  131ACOH    O1 9944   2.842   0.219   1.022 -0.2237 -0.2938  0.0047
  131ACOH    C1 9945   2.790   0.432   1.106 -0.0484  0.5850  0.4204
  131ACOH    H1 9946   2.773   0.473   1.206  2.6020  1.6353  0.4961
  131ACOH    H2 9947   2.698   0.439   1.049 -0.0027  3.1152  0.6007
  131ACOH    H3 9948   2.866   0.493   1.056  1.4373 -0.5473  1.2584
  132ACOH    H4 9949   4.739   9.506   0.900  1.7777 -2.2304  2.2436
  132ACOH    O2 9950   4.724   9.428   0.844 -0.1594 -0.2189 -0.1119
  132ACOH    C2 9951   4.743   9.454   0.710 -0.4365  0.0386  0.5906
  132ACOH    O1 9952   4.754   9.562   0.654 -0.5915 -0.1984  0.1419
  132ACOH    C1 9953   4.746   9.326   0.636 -0.0962 -0.0091  0.6928
  132ACOH    H1 9954   4.682   9.260   0.695  0.2091 -0.6301  0.3402
  132ACOH    H2 9955   4.839   9.269   0.642 -0.3529 -0.6222 -1.0495
  132ACOH    H3 9956   4.709   9.338   0.535  0.1010  3.3246  0.9459
  133ACOH    H4 9957   4.360   9.728   0.832 -0.6795  0.1728  0.1095
  133ACOH    O2 9958   4.353   9.689   0.744 -0.1595 -0.4153  0.3264
  133ACOH    C2 9959   4.284   9.574   0.752 -0.0213  0.1464  0.6540
  133ACOH    O1 9960   4.236   9.523   0.850 -0.0119 -0.3046 -0.1170
  133ACOH    C1 9961   4.283   9.508   0.624 -0.1778 -0.0637  0.0895
  133ACOH    H1 9962   4.275   9.576   0.540  0.3082  0.2146  0.2669
  133ACOH    H2 9963   4.211   9.426   0.615  0.5166 -0.6003 -0.5656
  133ACOH    H3 9964   4.376   9.454   0.607 -0.2464  0.0219 -0.5515
  134SOL     OW 9965   4.269   9.176   0.518 -0.1152  0.0430 -0.5199
  134SOL    HW1 9966   4.215   9.183   0.434 -0.5226 -0.4870 -0.3043
  134SOL    HW2 9967   4.269   9.081   0.551  0.6459  0.1074 -0.3180
  135SOL     OW 9968   3.947   8.991   1.226  0.2977  0.0986 -0.7051
  135SOL    HW1 9969   3.972   8.909   1.174  0.6527  0.4574 -1.0971
  135SOL    HW2 9970   3.852   8.982   1.256  0.5490 -0.7738 -0.1343
  136SOL     OW 9971   3.972   0.766   0.075  0.3328 -0.1434 -0.6005
  136SOL    HW1 9972   3.972   0.681   0.022 -3.9538 -1.8328  1.8459
  136SOL    HW2 9973   3.913   0.833   0.030  1.2945  0.4872 -0.9358
  137SOL     OW 9974   2.705   9.899   0.616  0.2291 -0.1670  0.6465
  137SOL    HW1 9975   2.716   9.978   0.555  1.5408 -1.8532 -1.3277
  137SOL    HW2 9976   2.717   9.929   0.710 -0.8893  2.3047  0.0690
  138SOL     OW 9977   3.931   8.152   1.995 -0.1577 -0.0658  0.3620
  138SOL    HW1 9978   4.010   8.204   2.027 -0.4087  1.0915 -0.8614
  138SOL    HW2 9979   3.897   8.192   1.910 -1.0056 -1.6051 -0.0348
  139SOL     OW 9980   2.789   8.878   1.751  0.3322 -0.1680 -0.3202
  139SOL    HW1 9981   2.862   8.828   1.798  0.9803  0.9221 -0.1410
  139SOL    HW2 9982   2.701   8.859   1.796  0.7617 -0.1109  0.5528
  140SOL     OW 9983   3.238   0.087   0.672  0.3618 -0.5071 -0.0427
  140SOL    HW1 9984   3.247   0.010   0.736 -2.0980 -0.8774 -0.0799
  140SOL    HW2 9985   3.320   0.144   0.676  0.5821 -0.9440  2.8950
  141SOL     OW 9986   3.821   0.827   0.748  0.1158 -0.2689 -0.2676
  141SOL    HW1 9987   3.873   0.859   0.827 -0.2142  2.7087 -1.2189
  141SOL    HW2 9988   3.725   0.816   0.773  0.1606 -0.1385 -0.0378
  142SOL     OW 9989   2.872   9.800   2.117 -0.5348  0.5197 -0.3028
  142SOL    HW1 9990   2.958   9.841   2.147  0.1203  0.7718 -2.5020
  142SOL    HW2 9991   2.882   9.701   2.113 -0.8651  0.4132  0.9748
  143SOL     OW 9992   3.226   0.465   0.592 -0.3053  0.1603  0.3679
  143SOL    HW1 9993   3.157   0.407   0.635  0.3359 -0.6350  0.3333
  143SOL    HW2 9994   3.222   0.453   0.493  1.1156 -1.3176  0.4625
  144SOL     OW 9995   4.278   0.078   2.315  0.1703  0.3564 -0.4619
  144SOL    HW1 9996   4.350   0.125   2.265 -0.4224 -0.0068 -1.6704
  144SOL    HW2 9997   4.317   0.000   2.364  0.3200 -1.0353 -2.6997
  145SOL     OW 9998   2.517   9.873   0.046  0.1855  0.1309 -0.0423
  145SOL    HW1 9999   2.523   9.927  -0.038  0.3321  0.9281  0.4792
  145SOL    HW210000   2.572   9.789   0.036  2.5591  1.5986  0.2968
  146SOL     OW10001   3.544   0.031   1.920  0.2279  0.2327 -0.2234
  146SOL    HW110002   3.514   0.078   1.837  1.1287 -0.9695 -1.2444
  146SOL    HW210003   3.628   0.075   1.955  0.2452  0.2971 -0.3462
  147SOL     OW10004   2.536   9.631   1.864  0.7036 -0.1232  0.8252
  147SOL    HW110005   2.635   9.626   1.852  0.5039  0.0744 -1.1427
  147SOL    HW210006   2.513   9.712   1.918  1.4543  1.5407 -1.2797
  148SOL     OW10007   4.033   9.106   0.030  0.5972 -0.3835  0.0492
  148SOL    HW110008   4.010   9.009   0.031  0.6669 -0.3965  0.4020
  148SOL    HW210009   3.999   9.150   0.114 -1.5638  0.4024 -1.2079
  149SOL     OW10010   3.267   0.856   2.537 -0.0401  0.1150  0.3350
  149SOL    HW110011   3.329   0.920   2.492  0.8705 -0.5187  0.6539
  149SOL    HW210012   3.219   0.802   2.468  0.4546 -0.0213  0.0934
  150SOL     OW10013   3.185   9.309   2.552  0.1348 -0.1133 -0.6188
  150SOL    HW110014   3.282   9.303   2.575  0.1301  0.8593 -0.3522
  150SOL    HW210015   3.132   9.321   2.636 -0.0608  1.2449 -0.9251
  151SOL     OW10016   3.680   0.462   0.282  0.1010 -0.1972  0.0359
  151SOL    HW110017   3.605   0.424   0.335  1.6033 -1.0960  1.5409
  151SOL    HW210018   3.762   0.467   0.338  0.9065  1.8407 -1.2327
  152SOL     OW10019   3.759   8.689   0.221  0.2203  0.1675  0.4753
  152SOL    HW110020   3.659   8.687   0.208  0.3634 -0.0291 -0.6307
  152SOL    HW210021   3.780   8.676   0.318 -0.8342  0.2740  0.7278
  153SOL     OW10022   3.439   9.971   0.338  0.2586  0.6368 -0.4671
  153SOL    HW110023   3.473   9.881   0.313 -1.9730 -0.7270  1.1628
  153SOL    HW210024   3.363   9.996   0.278  1.0847  1.5971 -1.1276
  154SOL     OW10025   2.535   9.872   2.040  0.0857 -0.2356 -0.0414
  154SOL    HW110026   2.604   9.942   2.022  2.0308 -1.9871  0.4661
  154SOL    HW210027   2.537   9.846   2.137  1.4866 -3.1352 -0.7968
  155SOL     OW10028   4.038   0.589   2.557  0.9413  0.0580 -0.0856
  155SOL    HW110029   4.059   0.581   2.460 -0.8229 -1.8869 -0.3524
  155SOL    HW210030   4.093   0.523   2.609  2.3204  1.5084  0.3250
  156SOL     OW10031   4.205   0.434   0.758  0.1802 -0.3663  0.4724
  156SOL    HW110032   4.272   0.439   0.684  0.3101 -0.2670  0.5960
  156SOL    HW210033   4.123   0.387   0.726 -0.8132  1.9464 -0.5230
  157SOL     OW10034   2.941   9.535   2.207  0.0518  0.2261  0.1307
  157SOL    HW110035   2.885   9.453   2.195 -0.1511  0.6943 -2.3000
  157SOL    HW210036   3.030   9.510   2.244 -1.6080 -0.5559  3.8390
  158SOL     OW10037   2.489   9.598   0.865  0.3063  0.4812 -0.1279
  158SOL    HW110038   2.419   9.527   0.869  1.5965 -0.7808  0.4289
  158SOL    HW210039   2.551   9.590   0.944  1.2586  1.3777 -0.7589
  159SOL     OW10040   3.764   0.323   2.191  0.3435 -0.1156 -0.3820
  159SOL    HW110041   3.814   0.385   2.252  0.1693  0.6857 -1.0350
  159SOL    HW210042   3.667   0.347   2.192  0.1324 -0.9764  0.0631
  160SOL     OW10043   3.653   9.758   0.949 -0.4944  0.1119 -0.2974
  160SOL    HW110044   3.634   9.699   0.871  0.1148 -0.0840 -0.2982
  160SOL    HW210045   3.678   9.849   0.916  0.6752 -0.2285 -0.3607
  161SOL     OW10046   3.165   0.427   1.406  0.7550 -0.2392  0.1918
  161SOL    HW110047   3.190   0.519   1.377 -2.2390  0.2379 -1.0140
  161SOL    HW210048   3.212   0.360   1.349  0.1263  0.6057 -1.3506
  162SOL     OW10049   3.421   1.073   1.357  0.1135  0.6420  0.5523
  162SOL    HW110050   3.400   1.033   1.446  1.3301  0.4451  0.7594
  162SOL    HW210051   3.505   1.126   1.364  0.3278  0.4517 -0.5350
  163SOL     OW10052   3.452   9.156   1.322  0.0256  0.2842  0.0083
  163SOL    HW110053   3.548   9.174   1.346  0.6598  0.9430 -2.8200
  163SOL    HW210054   3.430   9.061   1.343  1.0455  0.3440  1.4452
  164SOL     OW10055   3.308   8.431   2.222  0.1519  0.3856  0.5385
  164SOL    HW110056   3.385   8.369   2.239 -1.2954 -2.0844 -1.5520
  164SOL    HW210057   3.337   8.504   2.160  1.4228  0.8911  1.6994
  165SOL     OW10058   3.508   0.390   0.501 -0.5729 -0.0852 -0.3389
  165SOL    HW110059   3.543   0.298   0.519 -1.7871 -0.8254 -1.6312
  165SOL    HW210060   3.415   0.398   0.537 -0.7146  0.4084 -0.8038
  166SOL     OW10061   3.658   8.829   0.669  0.4351  0.2816 -0.0671
  166SOL    HW110062   3.635   8.919   0.633  0.5811  0.7134  0.9108
  166SOL    HW210063   3.687   8.837   0.764 -1.1670 -0.9876  0.5642
  167SOL     OW10064   3.977   9.502   1.027 -0.0943 -0.4689  0.0862
  167SOL    HW110065   4.011   9.522   0.935  0.3121  0.4912  0.4460
  167SOL    HW210066   3.903   9.435   1.021  0.8444 -1.4500 -0.8316
  168SOL     OW10067   3.423   9.364   2.711 -0.1050  0.6104 -0.1770
  168SOL    HW110068   3.483   9.339   2.787  2.6713  0.0862 -2.4510
  168SOL    HW210069   3.386   9.456   2.725  1.4501  1.0452  1.1376
  169SOL     OW10070   4.293   9.814   2.411 -0.0122  0.2145  0.2493
  169SOL    HW110071   4.347   9.733   2.387 -0.0187  0.6929 -1.4995
  169SOL    HW210072   4.220   9.789   2.474 -0.1349 -1.1916 -0.4348
  170SOL     OW10073   3.600   0.930   0.042 -0.6332  0.2017 -0.1248
  170SOL    HW110074   3.647   0.986   0.110 -0.2000  0.0260 -0.2765
  170SOL    HW210075   3.516   0.893   0.082 -1.7181  2.1850 -0.5184
  171SOL     OW10076   3.706   8.404   0.476 -0.3540  0.1448 -0.1841
  171SOL    HW110077   3.759   8.352   0.542 -2.1591 -0.7672  0.5933
  171SOL    HW210078   3.705   8.501   0.502  1.2894  0.2391 -0.4705
  172SOL     OW10079   3.313   8.662   1.549 -0.1708  0.4167  0.0489
  172SOL    HW110080   3.327   8.706   1.637  0.3872 -2.3665  1.3981
  172SOL    HW210081   3.216   8.642   1.536 -0.1731  0.2351  0.3434
  173SOL     OW10082   2.559   9.440   0.402 -0.8425 -0.1332  0.1988
  173SOL    HW110083   2.614   9.467   0.324 -1.2383 -0.1343 -0.0816
  173SOL    HW210084   2.558   9.514   0.470 -0.9073  0.0635 -0.0179
  174SOL     OW10085   3.273   0.652   1.307 -0.0109 -0.8933 -0.1294
  174SOL    HW110086   3.227   0.621   1.224  0.3923 -0.8274 -0.3816
  174SOL    HW210087   3.340   0.722   1.283  0.3332 -1.1052  0.2126
  175SOL     OW10088   3.580   0.556   1.450  0.2613 -0.2654  0.2408
  175SOL    HW110089   3.652   0.500   1.492  0.5359  0.0335  0.1715
  175SOL    HW210090   3.620   0.614   1.379 -0.2188 -0.8369 -0.5038
  176SOL     OW10091   3.091   8.860   0.547  0.5070  0.2998  0.3574
  176SOL    HW110092   3.044   8.932   0.598  0.9991  0.0567  1.1674
  176SOL    HW210093   3.025   8.814   0.487 -0.3390 -0.1447  1.5940
  177SOL     OW10094   2.677   9.242   1.070 -0.4709  0.2278 -0.4650
  177SOL    HW110095   2.631   9.203   1.150  1.9962  1.6841  1.7359
  177SOL    HW210096   2.741   9.175   1.032  1.3365  0.8940  1.3053
  178SOL     OW10097   2.940   9.740   2.396  0.3903  0.3164  0.1302
  178SOL    HW110098   2.876   9.705   2.465  0.2538 -2.2591 -1.2372
  178SOL    HW210099   2.919   9.698   2.307  2.9689  0.6625 -0.6668
  179SOL     OW10100   3.726   9.191   1.424  0.4930  0.1800 -0.0939
  179SOL    HW110101   3.803   9.166   1.482  1.3576  0.3750 -1.1533
  179SOL    HW210102   3.746   9.276   1.376 -0.1051 -0.1141 -0.8852
  180SOL     OW10103   3.933   8.844   0.058 -0.6409  0.0888  0.1907
  180SOL    HW110104   3.868   8.782   0.101 -1.0073  0.6486  0.4498
  180SOL    HW210105   4.025   8.806   0.066 -0.7203  0.1389  1.3978
  181SOL     OW10106   3.282   8.124   1.322  0.2575  0.1270  0.3897
  181SOL    HW110107   3.328   8.045   1.281  0.3332 -0.2360  1.1584
  181SOL    HW210108   3.338   8.159   1.397 -1.1359 -0.8922  1.9490
  182SOL     OW10109   2.606   8.163   0.680  0.4621  0.2901  0.2874
  182SOL    HW110110   2.537   8.117   0.737 -0.8553  0.2864 -1.2499
  182SOL    HW210111   2.616   8.258   0.710 -0.6390  0.4523  0.1843
  183SOL     OW10112   2.591   8.365   1.858  0.3439 -0.4715  0.3597
  183SOL    HW110113   2.514   8.311   1.824 -0.0677  0.2090  0.1854
  183SOL    HW210114   2.570   8.462   1.847  2.0075 -0.2938 -1.4469
  184SOL     OW10115   3.679   8.858   1.274  0.2994  0.0340 -0.7935
  184SOL    HW110116   3.587   8.864   1.312 -0.0669  1.1355 -1.8003
  184SOL    HW210117   3.732   8.789   1.323 -0.9764 -0.4065 -0.0324
  185SOL     OW10118   3.299   1.174   2.425 -0.3314  0.0216  0.3416
  185SOL    HW110119   3.388   1.150   2.465  0.7044  1.3117 -1.1390
  185SOL    HW210120   3.240   1.214   2.495  0.2258 -0.8945  1.3493
  186SOL     OW10121   3.674   1.175   1.418 -0.0767 -0.0940 -0.3950
  186SOL    HW110122   3.736   1.183   1.341 -0.2130 -0.8687 -0.5871
  186SOL    HW210123   3.716   1.119   1.489 -0.3373 -0.1763 -0.3045
  187SOL     OW10124   2.560   0.084   1.719 -0.2570 -0.2360 -0.0583
  187SOL    HW110125   2.569   0.179   1.689  0.7473 -0.0728  0.7527
  187SOL    HW210126   2.566   0.080   1.819  1.4148 -1.3412 -0.1832
  188SOL     OW10127   3.955   9.995   0.748  0.0089 -0.4678 -0.7535
  188SOL    HW110128   3.969   9.943   0.664 -2.0164  1.0441 -2.0923
  188SOL    HW210129   3.858   9.991   0.773  0.4452 -0.2005  1.0529
  189SOL     OW10130   3.417   8.556   1.321  0.3965  0.4823  0.4534
  189SOL    HW110131   3.365   8.576   1.404 -0.0600  2.5861 -0.3348
  189SOL    HW210132   3.461   8.466   1.331 -2.5681 -0.9411  1.5158
  190SOL     OW10133   2.768   9.752   0.184  0.1259  0.1907 -0.1310
  190SOL    HW110134   2.762   9.852   0.188  0.1458  0.2058 -0.4626
  190SOL    HW210135   2.828   9.720   0.258 -1.0598  0.3036  0.8983
  191SOL     OW10136   4.026   9.173   2.484  0.2741  0.2230 -0.0723
  191SOL    HW110137   4.024   9.148   2.581  0.2954  1.5330  0.2730
  191SOL    HW210138   4.111   9.141   2.443  1.0824  1.2311  0.7750
  192SOL     OW10139   2.652   8.997   1.547 -0.5370 -0.3587 -0.0950
  192SOL    HW110140   2.680   9.093   1.551  0.1299 -0.4900 -1.3594
  192SOL    HW210141   2.719   8.941   1.595 -2.0701  0.0221  2.5774
  193SOL     OW10142   4.051   0.112   2.526 -0.6410 -0.2538  0.3903
  193SOL    HW110143   3.952   0.128   2.524 -0.4032  1.7097  2.2016
  193SOL    HW210144   4.092   0.144   2.441 -1.3905  0.2975  0.2304
  194SOL     OW10145   4.185   8.679   1.732 -0.4601  0.1788 -0.5007
  194SOL    HW110146   4.244   8.730   1.669 -1.8220  0.5441 -1.4912
  194SOL    HW210147   4.109   8.737   1.762 -1.2811 -0.8311 -0.5818
  195SOL     OW10148   3.616   1.055   0.299 -0.7133  0.7647  0.3592
  195SOL    HW110149   3.663   1.066   0.387 -1.6475  0.9178  0.8398
  195SOL    HW210150   3.520   1.034   0.315 -0.9125  0.9079 -0.6310
  196SOL     OW10151   4.395   9.641   1.453 -0.5323 -0.0271  0.1440
  196SOL    HW110152   4.411   9.645   1.354  0.6289  0.9127  0.3621
  196SOL    HW210153   4.299   9.661   1.472 -0.3929  1.4482 -0.6722
  197SOL     OW10154   3.681   0.221   2.497  0.3290  0.1123 -0.2441
  197SOL    HW110155   3.750   0.292   2.514  3.7785 -2.7576 -1.7968
  197SOL    HW210156   3.686   0.152   2.569  0.1424 -0.9048 -1.1923
  198SOL     OW10157   2.707   0.054   0.200 -0.1351 -0.5232  0.0375
  198SOL    HW110158   2.620   0.009   0.180 -1.0633  0.6224  1.4085
  198SOL    HW210159   2.761   0.060   0.117 -1.0947 -1.8042 -0.7082
  199SOL     OW10160   3.113   8.630   0.889  0.0980  0.0569 -0.1366
  199SOL    HW110161   3.150   8.723   0.882 -0.0137 -0.0057 -1.7450
  199SOL    HW210162   3.156   8.572   0.819 -0.7943 -0.7718 -0.0043
  200SOL     OW10163   3.596   9.623   1.171  0.8727  0.2594  0.5489
  200SOL    HW110164   3.628   9.682   1.097 -0.3757 -0.5734 -0.6804
  200SOL    HW210165   3.534   9.674   1.231 -0.9830 -0.0474 -1.0724
  201SOL     OW10166   2.648   9.520   1.077 -0.0560  0.0699 -0.2850
  201SOL    HW110167   2.616   9.508   1.171 -0.5338 -1.5237 -0.6307
  201SOL    HW210168   2.664   9.431   1.036  0.2801  0.7589 -1.6799
  202SOL     OW10169   3.479   0.704   1.635 -0.4207  0.0620  0.3476
  202SOL    HW110170   3.504   0.652   1.553  1.8617  1.3704  0.1802
  202SOL    HW210171   3.426   0.646   1.696 -0.8629 -1.4006 -1.3724
  203SOL     OW10172   3.736   0.683   2.160 -0.2550 -0.2819 -0.0472
  203SOL    HW110173   3.816   0.631   2.132 -0.9985 -0.9777 -0.9107
  203SOL    HW210174   3.763   0.755   2.224  1.0280 -0.6053 -0.2232
  204SOL     OW10175   3.098   9.947   2.135  0.4976  0.2113  0.1256
  204SOL    HW110176   3.179   9.952   2.193  2.0506 -1.2590 -1.8421
  204SOL    HW210177   3.125   9.959   2.040 -1.8286  1.2754 -0.4280
  205SOL     OW10178   4.205   0.383   2.658 -0.0400  0.2225 -0.0785
  205SOL    HW110179   4.173   0.292   2.633  0.8866 -0.6052  1.6396
  205SOL    HW210180   4.253   0.378   2.746 -0.9368  2.5619  0.5764
  206SOL     OW10181   4.025   0.539   1.727  0.5850  0.6470  0.8806
  206SOL    HW110182   4.087   0.468   1.695  0.4973  0.1339  1.8228
  206SOL    HW210183   3.997   0.596   1.650  0.0941 -0.7668 -0.0038
  207SOL     OW10184   3.981   8.844   2.498  0.0860 -0.3082  0.3034
  207SOL    HW110185   4.023   8.754   2.503  1.0142  0.1524  0.9294
  207SOL    HW210186   3.961   8.878   2.590  0.2251  0.3476  0.0982
  208SOL     OW10187   4.249   0.084   1.683 -0.1708  0.4391 -0.3334
  208SOL    HW110188   4.339   0.043   1.670  0.3726  1.6341 -0.4388
  208SOL    HW210189   4.207   0.045   1.766  0.9480  0.7320  0.3910
  209SOL     OW10190   3.751   0.428   1.596  0.0586  0.1329 -0.1299
  209SOL    HW110191   3.678   0.366   1.624  0.1195  0.2226  0.2311
  209SOL    HW210192   3.826   0.422   1.661  0.2787  0.2084 -0.3763
  210SOL     OW10193   4.077   9.837   2.188 -0.1585  0.1357 -0.3365
  210SOL    HW110194   4.155   9.842   2.251  1.3817  1.4443 -2.2578
  210SOL    HW210195   3.992   9.852   2.238  1.1554  2.9125  1.1942
  211SOL     OW10196   3.704   9.841   0.183 -0.2183  0.5245 -0.4794
  211SOL    HW110197   3.631   9.844   0.115  1.5754 -0.0894 -2.4702
  211SOL    HW210198   3.741   9.749   0.189  0.4060  0.8259  0.5439
  212SOL     OW10199   3.332   0.760   0.082 -0.3129  0.1006 -0.3089
  212SOL    HW110200   3.401   0.689   0.063 -2.6868 -2.4388  0.2137
  212SOL    HW210201   3.294   0.793  -0.004  0.8807  0.8332 -0.5628
  213SOL     OW10202   2.790   8.872   0.757 -0.2207 -0.0638  0.0943
  213SOL    HW110203   2.795   8.773   0.744 -0.9512  0.0396 -1.0308
  213SOL    HW210204   2.751   8.914   0.676 -1.4890  0.9901  1.2369
  214SOL     OW10205   3.013   8.545   0.605  0.1738 -0.3267 -0.6174
  214SOL    HW110206   3.113   8.549   0.601  0.1893 -0.2805 -0.1706
  214SOL    HW210207   2.975   8.601   0.532  0.4428  3.1534  1.7996
  215SOL     OW10208   3.188   0.766   2.282  0.1948 -0.3073 -0.1525
  215SOL    HW110209   3.124   0.843   2.273  0.9686  0.4904  1.0117
  215SOL    HW210210   3.252   0.767   2.205 -0.6187 -0.5861 -0.8481
  216SOL     OW10211   3.629   8.328   1.365  0.3507 -0.3549  0.1949
  216SOL    HW110212   3.723   8.310   1.394  0.0856 -2.6748 -0.2943
  216SOL    HW210213   3.566   8.293   1.435 -0.1777 -0.6650 -0.4341
  217SOL     OW10214   3.398   0.370   1.548  0.1955  0.1518  0.0545
  217SOL    HW110215   3.468   0.434   1.518 -0.1561  0.8200  0.6581
  217SOL    HW210216   3.309   0.397   1.509  0.1049 -0.1513  0.0493
  218SOL     OW10217   3.314   0.458   2.444  0.3500 -0.5837 -0.1158
  218SOL    HW110218   3.379   0.394   2.401 -0.4438 -1.1856 -0.4261
  218SOL    HW210219   3.267   0.510   2.373 -1.9632 -2.5528 -0.0610
  219SOL     OW10220   2.493   9.168   1.824  0.3823 -0.3024 -0.2863
  219SOL    HW110221   2.461   9.240   1.763 -0.2490  0.5557  1.0341
  219SOL    HW210222   2.586   9.189   1.854 -0.3652  0.8116  1.3383
  220SOL     OW10223   3.118   0.700   1.794  0.3786  0.1501  0.3301
  220SOL    HW110224   3.098   0.783   1.847 -1.8940 -0.2244  0.1131
  220SOL    HW210225   3.110   0.721   1.697 -1.6979 -0.6385  0.2990
  221SOL     OW10226   3.428   8.883   1.355 -0.2318  0.1090 -0.2564
  221SOL    HW110227   3.392   8.852   1.443 -0.8820  1.6567  0.0304
  221SOL    HW210228   3.359   8.867   1.283  0.3939 -1.3871 -0.5508
  222SOL     OW10229   3.115   8.687   1.239  0.0676 -0.5539 -0.1117
  222SOL    HW110230   3.175   8.741   1.180 -0.9247  0.1373 -0.4927
  222SOL    HW210231   3.162   8.602   1.264  2.2395  1.1243  1.7522
  223SOL     OW10232   4.048   9.416   1.458 -0.2856  0.4809 -0.5301
  223SOL    HW110233   3.975   9.460   1.405  0.0547  1.5815 -0.0933
  223SOL    HW210234   4.056   9.459   1.548  1.0228  0.4856 -0.6360
  224SOL     OW10235   2.561   9.666   0.612 -0.0843 -0.0370  0.1867
  224SOL    HW110236   2.597   9.759   0.602 -2.1641  0.8421  0.4653
  224SOL    HW210237   2.512   9.658   0.699  0.8462 -1.6748  0.5780
  225SOL     OW10238   3.769   9.428   1.266  0.2797 -0.0614 -0.0560
  225SOL    HW110239   3.701   9.500   1.249 -0.4279 -0.5579  0.6440
  225SOL    HW210240   3.787   9.378   1.181 -1.2460 -0.7998  0.0426
  226SOL     OW10241   4.092   9.408   0.253 -0.6987 -0.0472  0.3101
  226SOL    HW110242   4.174   9.396   0.197  0.1123  0.1868  1.4379
  226SOL    HW210243   4.113   9.468   0.330 -2.3734  1.4241 -0.3284
  227SOL     OW10244   3.708   9.463   2.414 -0.5403  0.0384  0.2654
  227SOL    HW110245   3.710   9.365   2.434  0.6343  0.2194  1.0692
  227SOL    HW210246   3.665   9.477   2.324 -0.9676 -1.1837  0.2650
  228SOL     OW10247   3.256   8.904   1.131 -0.7836 -0.7107  0.0438
  228SOL    HW110248   3.190   8.957   1.183  1.4449  0.8382  1.3671
  228SOL    HW210249   3.237   8.914   1.033 -0.3888  2.6151  0.2647
  229SOL     OW10250   4.318   9.838   1.938  0.4470  0.6014 -0.5528
  229SOL    HW110251   4.253   9.912   1.951  0.1621  0.2826 -0.1481
  229SOL    HW210252   4.387   9.865   1.871  0.3388  1.2258 -0.4118
  230SOL     OW10253   3.425   0.726   2.119 -0.1333  0.5673 -0.2509
  230SOL    HW110254   3.509   0.730   2.174  0.2647 -0.2548 -0.7846
  230SOL    HW210255   3.446   0.754   2.025 -0.4180  0.1910 -0.4286
  231SOL     OW10256   3.016   0.038   2.665 -0.1784  0.2403 -0.4231
  231SOL    HW110257   3.070  -0.041   2.635 -0.1821 -0.3454  1.0686
  231SOL    HW210258   3.061   0.122   2.635 -0.1695 -0.3189 -2.0244
  232SOL     OW10259   3.198   8.897   2.612 -0.0353  0.0460 -0.1409
  232SOL    HW110260   3.243   8.807   2.615 -1.1230 -0.5501 -1.4747
  232SOL    HW210261   3.248   8.958   2.552 -1.0133 -0.6390 -1.6785
  233SOL     OW10262   4.899   8.998   2.147  0.0531 -0.2766 -0.3312
  233SOL    HW110263   4.995   9.013   2.167 -0.1766  0.9702 -0.1180
  233SOL    HW210264   4.861   9.080   2.102 -1.0465 -0.5252  0.1291
  234SOL     OW10265   4.259   0.708   0.487 -0.2710  0.2520  0.1397
  234SOL    HW110266   4.212   0.743   0.568  1.0462  1.3745  0.4391
  234SOL    HW210267   4.201   0.721   0.407 -1.2743 -0.1801  0.7803
  235SOL     OW10268   2.551   9.747   1.419  0.0669 -0.3419  0.0946
  235SOL    HW110269   2.465   9.766   1.373 -0.5335 -1.0101  0.9402
  235SOL    HW210270   2.584   9.831   1.463 -2.3170 -1.0327  3.3735
  236SOL     OW10271   3.342   0.945   1.587  0.1197 -0.2162 -0.0061
  236SOL    HW110272   3.358   0.846   1.594 -3.5561 -0.8268  0.9657
  236SOL    HW210273   3.351   0.986   1.678  1.7123  0.3757 -0.4206
  237SOL     OW10274   2.772   0.032   1.998  0.0034  0.0042  0.1379
  237SOL    HW110275   2.841   0.100   1.974  0.3479  0.2184  1.6692
  237SOL    HW210276   2.817  -0.047   2.041 -0.5418 -0.5535 -0.3060
  238SOL     OW10277   4.129   9.630   0.024  0.1627 -0.1797 -0.2569
  238SOL    HW110278   4.080   9.554  -0.018  1.3229 -1.9095  1.4532
  238SOL    HW210279   4.145   9.701  -0.044  1.3313 -2.5917 -2.5806
  239SOL     OW10280   3.130   8.366   1.351 -0.0388  0.4095 -0.5918
  239SOL    HW110281   3.172   8.275   1.359  0.4493  0.6534 -0.4053
  239SOL    HW210282   3.096   8.378   1.258 -1.3805 -0.5238 -0.2469
  240SOL     OW10283   3.953   9.196   1.565  0.6014 -0.3374  0.0870
  240SOL    HW110284   4.017   9.139   1.616  0.4614 -1.0081 -0.4745
  240SOL    HW210285   4.000   9.278   1.531  0.9808 -0.4748  0.2878
  241SOL     OW10286   3.136   0.761   1.525 -0.2700 -0.7492 -0.3302
  241SOL    HW110287   3.163   0.709   1.444 -0.1656 -1.1808 -0.0199
  241SOL    HW210288   3.192   0.844   1.533  2.5950 -2.7583  1.5658
  242SOL     OW10289   4.223   8.763   0.998  0.3267  0.1905 -0.1449
  242SOL    HW110290   4.223   8.666   1.022  1.8666  0.1054 -0.4113
  242SOL    HW210291   4.302   8.782   0.939  0.8208  1.8737  1.0300
  243SOL     OW10292   2.831   9.257   0.131  0.1371  0.0721  0.0309
  243SOL    HW110293   2.787   9.181   0.083  0.1500  0.3082 -0.3657
  243SOL    HW210294   2.784   9.343   0.108 -1.3281 -0.1006  2.2985
  244SOL     OW10295   4.529   9.877   1.788  0.7839 -0.3123  0.3317
  244SOL    HW110296   4.573   9.808   1.730  0.2867 -0.9247  0.6781
  244SOL    HW210297   4.550   9.968   1.753 -1.8328 -0.7110 -2.5207
  245SOL     OW10298   2.472   8.264   1.049  0.3272 -0.6050  0.3395
  245SOL    HW110299   2.472   8.305   1.140  1.4198 -1.0280  0.5469
  245SOL    HW210300   2.457   8.166   1.056  3.7391 -1.1904  0.3840
  246SOL     OW10301   4.063   0.873   2.434  0.2227  1.0058  0.2270
  246SOL    HW110302   4.152   0.915   2.420  1.2240 -1.0397  0.2404
  246SOL    HW210303   4.074   0.784   2.479 -1.6504 -0.1321 -1.4223
  247SOL     OW10304   2.746   9.974   2.566  0.0089  0.3333  0.4656
  247SOL    HW110305   2.833  10.017   2.591  1.0873 -1.1407 -0.5886
  247SOL    HW210306   2.761   9.876   2.551 -1.5518  0.3099 -1.1314
  248SOL     OW10307   4.515   0.008   2.113 -0.3320  0.0215  0.6055
  248SOL    HW110308   4.455  -0.059   2.070 -0.8113  0.8710 -0.0428
  248SOL    HW210309   4.609  -0.028   2.115 -0.4040 -0.2622 -0.6314
  10.00000  10.00000   2.71204
