chitosan Film  in water:acetic acid 2% t= 2000.00000 step= 2000000
54082
    1CHTO  H203    1   5.277   6.177   3.913 -2.2550  0.2062 -2.6147
    1CHTO   O82    2   5.329   6.246   3.876  0.3069  0.1974  0.7595
    1CHTO  C123    3   5.450   6.189   3.822 -0.3300  0.1601  0.4989
    1CHTO  H227    4   5.517   6.169   3.906 -1.6835  0.2232  1.6203
    1CHTO   O77    5   5.411   6.062   3.762  0.3572  0.0036 -0.0213
    1CHTO  C118    6   5.523   5.973   3.733  1.0824 -0.5896 -0.2225
    1CHTO  H222    7   5.583   5.951   3.823 -0.1311 -0.3134  0.6719
    1CHTO  C125    8   5.489   5.835   3.669  0.4348 -0.7567 -0.0568
    1CHTO   O84    9   5.391   5.762   3.738  0.3865 -0.3364 -0.8099
    1CHTO  H205   10   5.309   5.805   3.721  1.1637  1.2425 -0.6618
    1CHTO  C114   11   5.624   6.040   3.638  0.2950  0.0968  0.5948
    1CHTO  H218   12   5.576   6.050   3.541 -0.8589 -1.5966  0.9613
    1CHTO  C116   13   5.649   6.197   3.661  0.1812 -0.1873 -0.4020
    1CHTO  H220   14   5.717   6.187   3.748 -2.4169  1.1661  1.8649
    1CHTO   O79   15   5.717   6.254   3.545 -0.1106 -0.7599 -0.1040
    1CHTO  H201   16   5.801   6.213   3.536 -0.6052 -1.7074 -0.5693
    1CHTO  C120   17   5.520   6.271   3.705 -0.5224 -0.2871  0.1082
    1CHTO  H224   18   5.445   6.282   3.624  0.0620 -1.0651 -0.5540
    1CHTO   N21   19   5.554   6.413   3.745 -0.0920  0.1527 -0.0821
    1CHTO  H211   20   5.480   6.443   3.818 -0.2430 -0.3551 -0.0301
    1CHTO  H212   21   5.649   6.431   3.794 -1.3916  1.0299  2.2299
    1CHTO   O75   22   5.729   5.957   3.632 -0.1633 -0.6964  0.2000
    1CHTO  C112   23   5.808   5.936   3.494  0.1305 -0.0265 -0.5477
    1CHTO  H216   24   5.806   6.031   3.437  1.4807  0.5465  0.3350
    1CHTO   O73   25   5.748   5.833   3.425  0.1182 -0.2673  0.5449
    1CHTO  C113   26   5.805   5.798   3.299 -0.7799 -0.4587  0.2904
    1CHTO  H217   27   5.812   5.887   3.233 -1.7853  0.8522  1.9310
    1CHTO  C124   28   5.731   5.687   3.229  0.3462  0.1981 -0.0313
    1CHTO   O83   29   5.718   5.562   3.297  0.4221  0.0249  0.5847
    1CHTO  H204   30   5.628   5.549   3.320  1.6417 -2.9360  4.2428
    1CHTO  C109   31   5.948   5.752   3.318  0.5022  0.0210 -0.2755
    1CHTO  H213   32   5.946   5.653   3.366 -1.6649  0.3658  0.3708
    1CHTO  C110   33   6.027   5.851   3.395  0.3667 -0.4898  0.2843
    1CHTO  H214   34   6.043   5.943   3.338  0.7634  0.9797  2.6783
    1CHTO   O78   35   6.154   5.798   3.423 -0.1624 -0.1331  0.6139
    1CHTO  H200   36   6.145   5.719   3.474  0.7085 -0.8815 -0.3601
    1CHTO  C111   37   5.953   5.895   3.525  0.2767 -0.0071  0.1011
    1CHTO  H215   38   5.947   5.808   3.592  1.0668  0.3996  0.7179
    1CHTO   N19   39   6.024   6.003   3.600  0.3871 -0.2020  0.4824
    1CHTO  H207   40   6.063   6.081   3.538 -1.3269  1.2821  1.2239
    1CHTO  H208   41   5.975   6.047   3.686  1.0198 -1.1719  1.3581
    1CHTO   O74   42   6.002   5.735   3.187  0.0325 -0.5976  0.0998
    1CHTO  C115   43   6.061   5.594   3.167  0.1838 -0.6813  0.1383
    1CHTO  H219   44   6.069   5.544   3.264 -1.4810 -0.4531  0.4057
    1CHTO   O76   45   5.975   5.511   3.088  0.2792 -0.1480 -0.7318
    1CHTO  C122   46   5.970   5.553   2.951  0.1899  0.0070 -0.4365
    1CHTO  H226   47   5.939   5.658   2.946 -0.9749 -0.1490  2.3379
    1CHTO  C126   48   5.858   5.477   2.880  0.2339  0.2899  0.6965
    1CHTO   O85   49   5.724   5.515   2.917  0.5017 -0.0288  0.0408
    1CHTO  H206   50   5.701   5.577   2.850  2.8402  0.0805 -0.7172
    1CHTO  C121   51   6.107   5.523   2.879  0.5289  0.4673  0.5401
    1CHTO  H225   52   6.106   5.425   2.826  0.5411  0.8021 -0.0894
    1CHTO   O81   53   6.133   5.624   2.778  0.2473 -0.2230 -0.4251
    1CHTO  H202   54   6.196   5.588   2.718  0.4926  1.2718 -1.0816
    1CHTO  C119   55   6.228   5.520   2.986  0.2374 -0.5919  0.3313
    1CHTO  H223   56   6.220   5.424   3.037 -0.4728 -0.8128 -0.2005
    1CHTO  C117   57   6.206   5.618   3.106  0.2946 -0.4608 -0.5787
    1CHTO  H221   58   6.213   5.723   3.079  1.8407 -0.3926  0.0784
    1CHTO   N20   59   6.316   5.604   3.214  0.7429  0.2187  0.3614
    1CHTO  H209   60   6.313   5.503   3.252 -2.4612  0.0909 -0.1531
    1CHTO  H210   61   6.417   5.638   3.196  1.1996 -0.7378  1.0784
    1CHTO   O80   62   6.367   5.516   2.918 -0.1069  0.0864 -0.1177
    1CHTO  C103   63   6.448   5.399   2.903  0.2114 -0.0270 -0.1452
    1CHTO  H190   64   6.459   5.358   3.004 -1.3961 -1.1824 -0.4034
    1CHTO  C101   65   6.394   5.286   2.809 -0.1661 -0.3731  0.0428
    1CHTO  H188   66   6.343   5.333   2.725 -0.1128  0.0553  0.2468
    1CHTO   O68   67   6.279   5.184   2.917  0.2217  0.2981  0.2265
    1CHTO  H168   68   6.323   5.174   2.998 -3.3202  1.9348  2.4944
    1CHTO   C99   69   6.518   5.193   2.764  0.5903  0.2947 -0.4700
    1CHTO  H186   70   6.553   5.130   2.849 -0.2731 -1.4009 -1.3304
    1CHTO   N17   71   6.470   5.086   2.672  0.0518 -0.3855 -0.0456
    1CHTO  H174   72   6.555   5.020   2.662  2.7577  2.8942  0.3173
    1CHTO  H175   73   6.388   5.039   2.725  1.1902  0.6153  2.6873
    1CHTO   C97   74   6.644   5.275   2.716  0.1374 -0.4149 -0.2359
    1CHTO  H184   75   6.618   5.334   2.627 -2.1497  0.0195  0.7142
    1CHTO   O64   76   6.681   5.360   2.831  0.2659 -0.0436 -0.0183
    1CHTO  C104   77   6.579   5.462   2.852  0.2725  0.1099  0.5414
    1CHTO  H191   78   6.556   5.517   2.760  1.9793  1.1916  0.7481
    1CHTO  C108   79   6.640   5.561   2.954  0.2492 -0.2609 -0.0314
    1CHTO   O71   80   6.759   5.621   2.917  0.0336 -0.3696  0.2252
    1CHTO  H171   81   6.777   5.687   2.982 -0.7441  1.4122 -1.3096
    1CHTO   O62   82   6.762   5.188   2.684 -0.4497 -0.1603 -0.2185
    1CHTO   C91   83   6.869   5.257   2.619 -0.3356 -0.4850  0.6333
    1CHTO  H178   84   6.850   5.361   2.646  1.0264 -0.2226  0.6327
    1CHTO   C92   85   6.856   5.212   2.465 -0.1862  0.2195  0.5811
    1CHTO  H179   86   6.760   5.232   2.416 -0.3216 -2.0547 -0.1401
    1CHTO   O66   87   6.937   5.309   2.398 -0.4897 -0.2006  0.1777
    1CHTO  H166   88   6.909   5.325   2.310  1.0659 -2.7836 -0.8261
    1CHTO   C93   89   6.908   5.061   2.432  0.0304  0.0709 -0.2495
    1CHTO  H180   90   6.949   5.055   2.330 -0.3139 -0.0130 -0.3839
    1CHTO   N16   91   6.791   4.970   2.430 -0.8045 -0.3060 -0.1977
    1CHTO  H172   92   6.738   4.975   2.336 -0.5705  3.5347 -0.2013
    1CHTO  H173   93   6.802   4.868   2.464 -1.4419 -0.2459  0.1877
    1CHTO   C94   94   7.017   5.010   2.535  0.3326  0.1246 -0.1660
    1CHTO  H181   95   6.980   4.947   2.616  2.6321 -0.7478  0.2453
    1CHTO   O61   96   7.086   5.121   2.595 -0.4902  0.0363  0.1111
    1CHTO   C95   97   7.008   5.209   2.671  1.2127  0.3288 -0.1380
    1CHTO  H182   98   6.993   5.164   2.769  1.1355  2.0134  0.6292
    1CHTO  C106   99   7.089   5.334   2.697 -0.3907 -0.1219 -0.1823
    1CHTO   O69  100   7.209   5.305   2.769  0.2408 -0.3627  0.1253
    1CHTO  H169  101   7.264   5.259   2.708  1.3482  1.5714 -0.3891
    1CHTO   O63  102   7.127   4.920   2.447  0.1176 -0.2072 -0.5984
    1CHTO   C96  103   7.134   4.769   2.490 -0.5241  0.0175 -0.3464
    1CHTO  H183  104   7.033   4.742   2.519 -0.4551 -1.3578 -1.3397
    1CHTO   C98  105   7.236   4.745   2.605  0.2016 -0.4269 -0.2000
    1CHTO  H185  106   7.215   4.812   2.689 -0.3413 -0.6773 -0.1335
    1CHTO   O67  107   7.231   4.610   2.656  0.4909 -0.4467 -0.8379
    1CHTO  H167  108   7.227   4.597   2.749  1.1470 -1.3424 -0.9236
    1CHTO  C102  109   7.387   4.761   2.554 -1.2370  0.1216 -0.3094
    1CHTO  H189  110   7.448   4.723   2.637 -1.7893  1.9105  0.9487
    1CHTO   N18  111   7.432   4.908   2.539 -0.1657  0.5821 -0.2621
    1CHTO  H176  112   7.386   4.954   2.453 -1.5453 -2.5857 -1.3277
    1CHTO  H177  113   7.539   4.907   2.526  0.0437 -2.1136  1.2453
    1CHTO  C105  114   7.417   4.664   2.437  0.2795  0.1974 -0.2997
    1CHTO  H192  115   7.479   4.719   2.365 -0.4718  0.5990 -0.6527
    1CHTO   O65  116   7.301   4.609   2.375  0.1263  0.2235  0.2488
    1CHTO  C100  117   7.178   4.685   2.371 -0.5887  0.1519 -0.0382
    1CHTO  H187  118   7.190   4.756   2.288 -0.8892  0.7764  0.4509
    1CHTO  C107  119   7.053   4.597   2.331 -0.6502  0.0189  0.1542
    1CHTO   O70  120   7.044   4.587   2.189  0.2359 -0.2139  0.4268
    1CHTO  H170  121   6.955   4.595   2.160  0.5607  1.2455 -0.1767
    1CHTO   O57  122   7.502   4.546   2.503 -0.1155  0.4934  0.2411
    1CHTO   C85  123   7.641   4.536   2.505 -0.4796  0.4823  0.0025
    1CHTO  H157  124   7.669   4.518   2.399  1.4905  5.3872 -0.4373
    1CHTO   C83  125   7.670   4.402   2.585  0.8854 -0.0979  0.2987
    1CHTO  H155  126   7.638   4.325   2.515  1.9674 -0.7243  0.4678
    1CHTO   O56  127   7.599   4.389   2.706  0.0565 -0.0673 -0.0734
    1CHTO  H135  128   7.510   4.366   2.687 -0.4635  0.8135  1.2115
    1CHTO   C81  129   7.827   4.393   2.607 -0.3563  0.2380 -0.2872
    1CHTO  H153  130   7.877   4.410   2.512 -0.6499 -0.4215 -0.5601
    1CHTO   N14  131   7.871   4.259   2.648 -0.3801 -0.2292  0.0962
    1CHTO  H141  132   7.862   4.208   2.555  1.0578 -1.0824  0.4128
    1CHTO  H142  133   7.975   4.278   2.664  0.0860 -0.4214 -2.4890
    1CHTO   C79  134   7.871   4.515   2.700 -0.2901 -0.3609  0.2285
    1CHTO  H151  135   7.975   4.500   2.729 -0.8120 -0.3246  2.1463
    1CHTO   O52  136   7.856   4.645   2.637  0.3260 -0.0328  0.1032
    1CHTO   C86  137   7.726   4.664   2.570  0.1048  0.3827  0.3747
    1CHTO  H158  138   7.669   4.711   2.653 -1.7475  2.1457 -1.8081
    1CHTO   C90  139   7.748   4.765   2.462 -0.5801  0.5673  0.8164
    1CHTO   O60  140   7.767   4.888   2.534  0.6766  0.2434  0.1731
    1CHTO  H138  141   7.787   4.964   2.483  1.6832  0.9633  1.6068
    1CHTO   O50  142   7.802   4.520   2.819 -0.3259 -0.3176 -0.6535
    1CHTO   C73  143   7.784   4.567   2.955 -0.4202  0.1774  0.3815
    1CHTO  H145  144   7.839   4.507   3.028 -0.4363 -0.7222 -0.3369
    1CHTO   C74  145   7.635   4.546   2.998  0.2577 -0.5372 -0.8394
    1CHTO  H146  146   7.607   4.442   2.976 -0.9800 -0.2096 -0.8978
    1CHTO   O54  147   7.625   4.548   3.143  1.1564 -0.2450  0.2647
    1CHTO  H133  148   7.596   4.465   3.176 -0.4241  0.4978  0.8296
    1CHTO   C75  149   7.539   4.651   2.926  0.7486 -0.0184  0.0689
    1CHTO  H147  150   7.549   4.636   2.817  1.7656 -3.0159  0.5507
    1CHTO   N13  151   7.392   4.642   2.946  0.5568 -0.1386  0.1626
    1CHTO  H139  152   7.344   4.727   2.901 -0.0475 -0.9874 -0.8114
    1CHTO  H140  153   7.343   4.556   2.903  1.4052 -0.4485 -0.1938
    1CHTO   C76  154   7.593   4.797   2.955  0.2980 -0.1290  1.1240
    1CHTO  H148  155   7.591   4.809   3.063 -1.6984  1.8467  0.9034
    1CHTO   O49  156   7.728   4.799   2.908  0.0957  0.1448  0.4883
    1CHTO   C77  157   7.814   4.716   2.982  0.5149 -0.4121  0.1769
    1CHTO  H149  158   7.804   4.733   3.089  0.4217  2.6886 -0.2989
    1CHTO   C88  159   7.951   4.755   2.943 -0.1722  0.2098 -0.0509
    1CHTO   O58  160   7.981   4.908   2.974 -0.3073 -0.5176 -0.3688
    1CHTO  H136  161   7.959   4.919   3.065  0.2085 -1.1411 -0.1567
    1CHTO   O51  162   7.524   4.915   2.885 -0.2451 -0.3957 -0.2584
    1CHTO   C78  163   7.468   5.028   2.996 -0.8215 -0.3656 -0.4089
    1CHTO  H150  164   7.496   4.988   3.095  1.6102  1.9966 -0.0814
    1CHTO   C80  165   7.316   5.059   2.996 -0.5257  0.0075 -0.4459
    1CHTO  H152  166   7.289   5.104   2.898 -1.4531 -0.7417 -0.5313
    1CHTO   O55  167   7.243   4.935   2.999 -0.3831 -0.1427 -0.1967
    1CHTO  H134  168   7.210   4.921   2.912 -3.2381  0.5413  0.7320
    1CHTO   C84  169   7.274   5.155   3.108  0.2706  0.7202  0.3225
    1CHTO  H156  170   7.293   5.109   3.205 -3.4055 -0.8982  0.3526
    1CHTO   N15  171   7.123   5.176   3.119 -0.5224 -0.5978 -0.6928
    1CHTO  H143  172   7.101   5.263   3.177 -2.0767 -1.2949 -0.2220
    1CHTO  H144  173   7.089   5.192   3.019  0.4972 -1.0844 -1.1229
    1CHTO   C87  174   7.352   5.285   3.092 -0.5559  0.2236  0.4546
    1CHTO  H159  175   7.311   5.334   3.004  1.3074  1.2834  0.1415
    1CHTO   O53  176   7.513   5.255   3.067 -0.4754  0.5606  0.4988
    1CHTO   C82  177   7.531   5.162   2.959  0.1028 -0.0315 -0.4588
    1CHTO  H154  178   7.484   5.207   2.872  0.8263  1.1892 -0.2342
    1CHTO   C89  179   7.681   5.149   2.922 -0.1887  0.0618  0.1876
    1CHTO   O59  180   7.745   5.111   3.047  0.4460 -0.0201  0.6434
    1CHTO  H137  181   7.835   5.136   3.039  0.5868 -0.8760 -0.6226
    1CHTO   O45  182   7.342   5.392   3.235 -0.0936  0.4730  0.3982
    1CHTO   C67  183   7.249   5.501   3.215 -0.0747 -0.6875  0.3982
    1CHTO  H124  184   7.169   5.476   3.145 -0.0034  1.5161 -0.5292
    1CHTO   C65  185   7.186   5.529   3.358  0.4638  0.4244 -0.1403
    1CHTO  H122  186   7.219   5.444   3.417 -1.9833 -1.6984 -1.7135
    1CHTO   O44  187   7.043   5.519   3.343  0.3958 -0.0350 -0.3046
    1CHTO  H102  188   7.020   5.441   3.296 -0.6842  0.9454 -1.4404
    1CHTO   C63  189   7.260   5.647   3.424 -0.1693 -0.0082 -0.3758
    1CHTO  H120  190   7.367   5.627   3.422 -0.3056 -1.5761  2.8774
    1CHTO   N11  191   7.248   5.657   3.572  0.1876  0.0586  0.2410
    1CHTO  H108  192   7.332   5.615   3.624  0.2910 -1.8295 -1.3838
    1CHTO  H109  193   7.258   5.757   3.609 -0.6901  0.0730  0.4477
    1CHTO   C61  194   7.233   5.776   3.338 -0.0688  0.6094 -0.1838
    1CHTO  H118  195   7.300   5.854   3.377  1.1639  0.6428 -2.2956
    1CHTO   O40  196   7.261   5.758   3.201  0.3012 -0.0950  0.1269
    1CHTO   C68  197   7.324   5.628   3.157  0.1040  0.1805 -0.0248
    1CHTO  H125  198   7.429   5.621   3.190  0.2860 -4.6237 -1.2289
    1CHTO   C72  199   7.314   5.635   3.007  0.4270 -0.1561 -0.4592
    1CHTO   O48  200   7.380   5.750   2.950 -0.2579 -0.1348  0.0783
    1CHTO  H105  201   7.469   5.725   2.936 -0.1214  0.4241 -0.0757
    1CHTO   O38  202   7.101   5.833   3.352 -0.1698  0.3769 -0.5739
    1CHTO   C55  203   7.079   5.980   3.345  0.6106 -0.0855 -0.1113
    1CHTO  H112  204   7.154   6.031   3.284 -0.2180  2.2230  0.7385
    1CHTO   C56  205   7.071   6.042   3.488 -0.1875  0.3829  0.5373
    1CHTO  H113  206   7.002   5.973   3.540 -0.7389 -0.8406 -1.7272
    1CHTO   O42  207   7.200   6.040   3.545  0.3030  0.2626 -0.4669
    1CHTO  H100  208   7.256   6.084   3.485 -1.9230  2.2502 -1.1774
    1CHTO   C57  209   7.004   6.189   3.492  0.3416  0.8080 -0.5505
    1CHTO  H114  210   7.078   6.252   3.443  2.5850 -0.6182  0.9116
    1CHTO   N10  211   6.979   6.235   3.631  0.1838  1.4440 -0.2040
    1CHTO  H106  212   6.949   6.150   3.692  0.4238  0.9956 -0.7023
    1CHTO  H107  213   7.062   6.288   3.675  0.7610  2.5017 -2.5112
    1CHTO   C58  214   6.878   6.193   3.405  0.1622  0.0892 -0.4280
    1CHTO  H115  215   6.803   6.131   3.458  0.1597  1.3421  1.0662
    1CHTO   O37  216   6.909   6.143   3.273  0.1796 -0.0364 -0.3804
    1CHTO   C59  217   6.947   6.006   3.263 -0.1022  0.7138 -0.1124
    1CHTO  H116  218   6.862   5.952   3.303  1.8630 -2.3200  0.1432
    1CHTO   C70  219   6.953   5.976   3.112  0.2268  0.3996  0.5731
    1CHTO   O46  220   6.958   5.834   3.090  0.2412  0.0302  0.8575
    1CHTO  H103  221   7.040   5.796   3.064  2.0609  3.5825  1.1920
    1CHTO   O39  222   6.808   6.352   3.393  0.1645 -0.0494 -0.3091
    1CHTO   C60  223   6.701   6.364   3.296  0.2383  0.2627 -0.6609
    1CHTO  H117  224   6.717   6.290   3.218  3.0460  0.5133 -0.3871
    1CHTO   C62  225   6.565   6.315   3.354 -0.2576 -0.4696  0.5565
    1CHTO  H119  226   6.577   6.209   3.384  2.1708 -0.0856  1.0225
    1CHTO   O43  227   6.533   6.400   3.471 -0.0070  0.0370 -0.5981
    1CHTO  H101  228   6.469   6.361   3.527 -1.1488  1.4508 -0.8912
    1CHTO   C66  229   6.451   6.335   3.243 -0.1932 -0.8810  0.3471
    1CHTO  H123  230   6.475   6.270   3.159  0.5996  1.1878 -1.0736
    1CHTO   N12  231   6.314   6.286   3.282 -0.2242 -0.1109  0.0556
    1CHTO  H110  232   6.244   6.367   3.275 -0.8315 -0.5151  1.3305
    1CHTO  H111  233   6.282   6.199   3.228  1.6986 -1.4010  0.9124
    1CHTO   C69  234   6.444   6.480   3.184 -0.1409  0.1783 -0.0740
    1CHTO  H126  235   6.404   6.545   3.265  1.2410  0.7933  0.1267
    1CHTO   O41  236   6.592   6.527   3.134 -0.0678  0.1023 -0.5856
    1CHTO   C64  237   6.704   6.507   3.235  1.0086 -0.4198 -0.5742
    1CHTO  H121  238   6.694   6.586   3.313  1.1492 -1.1831  0.2223
    1CHTO   C71  239   6.834   6.543   3.173 -0.5980  0.4406  0.5007
    1CHTO   O47  240   6.887   6.445   3.077 -0.0030 -0.0357 -0.0393
    1CHTO  H104  241   6.965   6.472   3.033  0.6169  1.3681  1.8559
    1CHTO   O34  242   6.344   6.469   3.053 -0.0384  0.2230 -0.5902
    1CHTO   C49  243   6.393   6.528   2.922 -0.0254  0.1927  1.0431
    1CHTO   H91  244   6.436   6.627   2.937 -2.1647  1.0214  1.8310
    1CHTO   C47  245   6.269   6.556   2.830  0.0931 -0.3999 -0.0868
    1CHTO   H89  246   6.297   6.603   2.733 -0.1478  0.4654  0.2565
    1CHTO   O33  247   6.184   6.651   2.895 -0.0640 -0.3050  0.5048
    1CHTO   H70  248   6.144   6.697   2.825  1.1530  0.9194  0.5897
    1CHTO   C45  249   6.197   6.423   2.782  0.5910  0.2773 -0.0308
    1CHTO   H87  250   6.176   6.364   2.872 -1.2042  2.0404  0.7255
    1CHTO    N8  251   6.068   6.453   2.714  0.2241  0.0525 -0.0385
    1CHTO   H75  252   6.000   6.369   2.725 -1.3580  1.2811 -0.2782
    1CHTO   H76  253   6.083   6.464   2.607  1.7928 -2.6960 -0.1653
    1CHTO   C43  254   6.300   6.330   2.710  0.0557  0.6263  0.9519
    1CHTO   H85  255   6.240   6.240   2.694  2.3113 -0.5446 -1.2927
    1CHTO   O29  256   6.412   6.307   2.796 -0.4679  0.3044 -0.6662
    1CHTO   C50  257   6.485   6.428   2.843  0.0959  0.1498  0.0258
    1CHTO   H92  258   6.546   6.387   2.924  1.2428  1.5651 -0.0942
    1CHTO   C54  259   6.596   6.497   2.752  0.4089 -0.1936  0.0291
    1CHTO   O36  260   6.715   6.428   2.742 -0.7191 -0.4249  0.6871
    1CHTO   H72  261   6.784   6.491   2.741 -0.7770 -0.3317 -1.6186
    1CHTO   O27  262   6.332   6.375   2.580  0.2291 -0.2213 -0.6191
    1CHTO   C37  263   6.426   6.357   2.477 -0.2682  0.5224  0.2841
    1CHTO   H79  264   6.528   6.384   2.508 -0.2025  1.3571 -0.6264
    1CHTO   C38  265   6.425   6.205   2.434 -0.3607 -0.4809  0.4892
    1CHTO   H80  266   6.322   6.176   2.405  0.4148 -2.8769  0.0174
    1CHTO   O31  267   6.475   6.112   2.534  0.1668  0.1114  0.5622
    1CHTO   H68  268   6.459   6.024   2.504 -0.2545 -0.5946  2.7635
    1CHTO   C39  269   6.521   6.184   2.306 -0.1700 -0.4604 -0.5973
    1CHTO   H81  270   6.622   6.205   2.342 -1.4662  1.8328  1.8679
    1CHTO    N7  271   6.511   6.045   2.238 -0.2034 -0.0366 -0.1501
    1CHTO   H73  272   6.425   6.034   2.174 -1.3381 -0.6827  1.4605
    1CHTO   H74  273   6.599   6.027   2.177  0.5217  0.5812  0.6968
    1CHTO   C40  274   6.465   6.290   2.197  0.0425 -0.3265 -0.0382
    1CHTO   H82  275   6.360   6.263   2.189 -0.4691  1.2673  1.0936
    1CHTO   O26  276   6.472   6.424   2.251 -0.0865 -0.1474 -0.3629
    1CHTO   C41  277   6.382   6.447   2.357  0.3927  0.6418 -0.5698
    1CHTO   H83  278   6.281   6.422   2.323 -0.0220  2.1826 -0.5357
    1CHTO   C52  279   6.381   6.593   2.373  0.1011 -0.3274  0.5179
    1CHTO   O35  280   6.314   6.641   2.472  0.3359  0.0735  0.1400
    1CHTO   H71  281   6.353   6.722   2.498  1.6660 -0.3143 -0.6152
    1CHTO   O28  282   6.542   6.292   2.077  0.2374 -0.4270 -0.6138
    1CHTO   C42  283   6.687   6.283   2.055  0.1553 -0.7128  0.3585
    1CHTO   H84  284   6.720   6.204   2.122 -2.3038 -1.9559  0.1627
    1CHTO   C44  285   6.771   6.411   2.076  0.4530 -0.3040 -0.0819
    1CHTO   H86  286   6.711   6.492   2.036  0.0483 -0.7662 -0.4257
    1CHTO   O32  287   6.777   6.428   2.222  0.1004  0.2281  0.3112
    1CHTO   H69  288   6.830   6.500   2.250 -0.5711  0.1385  1.8995
    1CHTO   C48  289   6.912   6.425   2.014 -0.6118 -0.2464 -0.0573
    1CHTO   H90  290   6.978   6.382   2.090 -1.6641  2.9632  2.8054
    1CHTO    N9  291   6.956   6.565   2.000 -0.0604 -0.0442 -0.0960
    1CHTO   H77  292   6.971   6.595   1.897 -1.6335 -0.5388 -0.4845
    1CHTO   H78  293   7.057   6.569   2.039 -0.3176  1.7857  0.3981
    1CHTO   C51  294   6.929   6.351   1.876  0.5100  0.4732 -0.0658
    1CHTO   H93  295   6.890   6.417   1.798 -0.3384 -0.3859 -0.3802
    1CHTO   O30  296   6.860   6.221   1.879 -0.5179 -0.7354 -0.2862
    1CHTO   C46  297   6.719   6.233   1.908 -0.8254  0.1362 -0.1928
    1CHTO   H88  298   6.673   6.306   1.841 -1.9829 -1.3672 -1.0610
    1CHTO   C53  299   6.648   6.094   1.875 -0.4410 -0.1466  0.6345
    1CHTO   O72  300   6.625   6.076   1.734  0.2700 -0.3919 -0.0065
    1CHTO  H199  301   6.700   6.033   1.696  0.9133  0.7045  0.0060
    1CHTO   O22  302   7.064   6.321   1.842  0.1807  0.5243 -0.0832
    1CHTO   C31  303   7.137   6.346   1.717 -0.3067  0.1308 -0.6860
    1CHTO   H59  304   7.061   6.392   1.650 -0.6716  2.1814  1.0994
    1CHTO   C29  305   7.252   6.448   1.722 -0.6409 -0.3110 -0.4622
    1CHTO   H57  306   7.326   6.402   1.790 -0.3615 -0.1260 -0.6407
    1CHTO   O21  307   7.210   6.576   1.768  0.6922  0.1076  0.1330
    1CHTO   H37  308   7.196   6.593   1.859  1.8093  1.5537  0.0553
    1CHTO   C27  309   7.309   6.478   1.582  0.0881 -0.3594  1.0722
    1CHTO   H55  310   7.230   6.528   1.525  1.7572  1.1751  0.0583
    1CHTO    N5  311   7.429   6.564   1.576  0.1595  0.4289 -0.4354
    1CHTO   H43  312   7.402   6.668   1.581 -0.4345  0.2108  0.9709
    1CHTO   H44  313   7.500   6.531   1.501  0.5293 -1.5461  0.7402
    1CHTO   C25  314   7.343   6.336   1.530 -0.4348 -0.0157  0.4758
    1CHTO   H53  315   7.426   6.282   1.579  0.9659  0.7432 -1.0088
    1CHTO   O17  316   7.228   6.247   1.515  0.2447 -0.7019  0.3903
    1CHTO   C32  317   7.184   6.211   1.642  0.8152 -0.6485 -0.5258
    1CHTO   H60  318   7.264   6.160   1.696  1.3502  0.0146 -0.6891
    1CHTO   C36  319   7.079   6.097   1.629 -0.2620  0.6158  0.1179
    1CHTO   O25  320   6.974   6.136   1.537 -0.0138  0.6770  0.0363
    1CHTO   H40  321   7.010   6.113   1.453 -0.7781  1.8122 -0.6196
    1CHTO   O15  322   7.404   6.358   1.366  0.2097 -0.8137 -0.0476
    1CHTO   C19  323   7.391   6.440   1.244 -0.7641 -0.4289  0.9141
    1CHTO   H47  324   7.341   6.527   1.288  0.7293  0.3973  1.0066
    1CHTO   C20  325   7.519   6.470   1.158  0.0166  0.2905 -0.5560
    1CHTO   H48  326   7.556   6.378   1.112  0.5146  0.4308 -0.4408
    1CHTO   O19  327   7.616   6.521   1.255  0.0913  0.3264 -0.1938
    1CHTO   H35  328   7.614   6.613   1.270 -0.1417 -0.1252  2.8335
    1CHTO   C21  329   7.493   6.573   1.047  0.0106 -0.4962 -0.4666
    1CHTO   H49  330   7.481   6.667   1.100 -0.0577 -0.1785 -1.0419
    1CHTO    N4  331   7.616   6.583   0.961 -0.6562 -0.1589  0.6641
    1CHTO   H41  332   7.602   6.637   0.869  3.0142 -0.1267  0.0745
    1CHTO   H42  333   7.684   6.501   0.945 -0.0387  0.3181  0.8366
    1CHTO   C22  334   7.374   6.512   0.962  0.2720 -0.0310 -0.1541
    1CHTO   H50  335   7.397   6.419   0.911 -1.1419 -0.6940  0.3897
    1CHTO   O14  336   7.263   6.480   1.041 -0.1577  0.3396  0.5509
    1CHTO   C23  337   7.285   6.383   1.146  0.2133 -0.9325  0.1937
    1CHTO   H51  338   7.320   6.294   1.092  0.3129 -1.8126  1.6697
    1CHTO   C34  339   7.147   6.356   1.215 -0.9242 -0.0869 -1.1576
    1CHTO   O23  340   7.100   6.475   1.273  0.1951  0.2779 -0.1459
    1CHTO   H38  341   7.028   6.458   1.331 -0.8830 -2.4341 -2.1540
    1CHTO   O16  342   7.329   6.606   0.866 -0.0957 -0.4312  0.6320
    1CHTO   C24  343   7.245   6.544   0.741 -0.1166 -0.2516  0.9381
    1CHTO   H52  344   7.224   6.438   0.755 -0.4071 -0.0037  2.4087
    1CHTO   C26  345   7.330   6.561   0.612 -0.6230 -0.0525  0.2201
    1CHTO   H54  346   7.344   6.670   0.602 -0.8021 -0.0570 -0.1054
    1CHTO   O20  347   7.462   6.505   0.625 -0.5243 -0.0215  0.3668
    1CHTO   H36  348   7.458   6.420   0.664 -0.3768  0.5667  1.6911
    1CHTO   C30  349   7.248   6.502   0.491 -0.1185 -0.5990  0.5477
    1CHTO   H58  350   7.244   6.392   0.497 -0.0154 -0.6332 -0.0022
    1CHTO    N6  351   7.312   6.536   0.361 -0.0028 -0.1026 -0.4503
    1CHTO   H45  352   7.290   6.473   0.276  0.8865 -0.2642 -0.5649
    1CHTO   H46  353   7.292   6.634   0.320  0.9990  0.5464  0.5890
    1CHTO   C33  354   7.103   6.560   0.506 -0.0751 -0.5138  0.3731
    1CHTO   H61  355   7.112   6.668   0.484  0.7616 -0.9057 -1.3374
    1CHTO   O18  356   7.036   6.546   0.626 -0.0982 -0.4408 -0.2489
    1CHTO   C28  357   7.107   6.616   0.730 -0.3911 -0.6688 -0.0057
    1CHTO   H56  358   7.120   6.722   0.705 -0.8784 -0.4512  0.6557
    1CHTO   C35  359   7.031   6.604   0.865  0.5568 -0.0955 -0.1466
    1CHTO   O24  360   7.008   6.467   0.904  0.7859 -0.2389  0.3908
    1CHTO   H39  361   6.936   6.471   0.965  0.8692 -0.0392  0.4770
    1CHTO    O9  362   7.023   6.503   0.395 -0.0749 -0.0856  0.0844
    1CHTO   C13  363   6.903   6.589   0.341  0.3093  0.1681  0.0309
    1CHTO   H26  364   6.933   6.694   0.318 -0.3310  0.5282  0.8232
    1CHTO   C11  365   6.792   6.580   0.450 -0.3284 -0.4266 -0.5790
    1CHTO   H24  366   6.833   6.660   0.513  2.0094 -2.1532  0.1507
    1CHTO    O8  367   6.788   6.454   0.524 -0.2445 -0.0792  0.3122
    1CHTO    H3  368   6.795   6.382   0.465  0.2509  0.8985 -0.8428
    1CHTO    C9  369   6.656   6.632   0.389  0.3338 -0.2851 -0.3276
    1CHTO   H22  370   6.681   6.723   0.333  1.8667 -0.4488  0.0407
    1CHTO    N2  371   6.555   6.675   0.491 -0.1678  0.2306  0.1887
    1CHTO   H10  372   6.492   6.752   0.448 -1.2287 -0.6005  0.2409
    1CHTO   H11  373   6.612   6.701   0.579 -1.0197 -1.9779  1.4263
    1CHTO    C7  374   6.608   6.528   0.291 -0.3642 -0.6980  0.3124
    1CHTO   H20  375   6.567   6.594   0.212  3.4478  0.3796 -0.8785
    1CHTO    O4  376   6.717   6.470   0.219 -0.2016  0.1946  0.1354
    1CHTO   C14  377   6.840   6.540   0.195 -0.9512  0.1172 -0.4314
    1CHTO   H27  378   6.827   6.628   0.129  4.8976  0.9421 -0.7645
    1CHTO   C18  379   6.950   6.452   0.128 -0.3041  0.2005 -0.3080
    1CHTO   O13  380   7.054   6.529   0.072  0.0750 -0.2600  0.2161
    1CHTO    H7  381   7.112   6.466   0.033 -2.4458 -2.4887 -0.0887
    1CHTO    O2  382   6.524   6.416   0.355  0.0064  0.2069 -0.3945
    1CHTO    C1  383   6.420   6.366   0.279  0.1460 -0.2513  0.2470
    1CHTO   H14  384   6.424   6.397   0.172 -1.2054  0.1324  0.3012
    1CHTO    C2  385   6.272   6.398   0.337 -0.7076  0.0566  0.7112
    1CHTO   H15  386   6.284   6.372   0.443  0.0067  3.6762  1.5870
    1CHTO    O6  387   6.243   6.538   0.313 -0.1705  0.4972  0.0188
    1CHTO    H1  388   6.309   6.594   0.350  1.2289  0.6608 -2.5815
    1CHTO    C3  389   6.168   6.298   0.263 -0.4622 -1.0922  0.5045
    1CHTO   H16  390   6.144   6.329   0.160  0.1501  0.9642  0.9625
    1CHTO    N1  391   6.037   6.304   0.325  0.0872  0.6199 -0.6083
    1CHTO    H8  392   6.020   6.389   0.389  0.6320 -1.2792  2.1087
    1CHTO    H9  393   5.959   6.297   0.250 -0.2559 -1.8685 -0.0680
    1CHTO    C4  394   6.223   6.144   0.254  0.5919 -0.5028  0.4147
    1CHTO   H17  395   6.228   6.105   0.355 -0.5504 -0.3072  0.5497
    1CHTO    O1  396   6.352   6.137   0.194  0.3033  0.4615  0.2740
    1CHTO    C5  397   6.445   6.209   0.282 -0.5285  0.5199 -0.1855
    1CHTO   H18  398   6.433   6.175   0.385 -2.3936 -1.2047 -0.9311
    1CHTO   C16  399   6.592   6.172   0.235  0.4086 -0.1554 -0.0614
    1CHTO   O11  400   6.602   6.031   0.233 -0.5105  0.5130 -0.3863
    1CHTO    H5  401   6.682   6.000   0.194 -0.3172 -0.3003  0.6089
    1CHTO    O3  402   6.142   6.056   0.168 -0.2053  0.0711  0.2366
    1CHTO    C6  403   6.065   5.950   0.220  1.1089  0.4948  0.1975
    1CHTO   H19  404   6.046   5.961   0.326 -2.1040  1.9640 -0.4749
    1CHTO    C8  405   5.926   5.933   0.146 -0.2663  0.3312 -0.4091
    1CHTO   H21  406   5.943   5.938   0.038  1.6502  0.7784 -0.0993
    1CHTO    O7  407   5.849   6.056   0.173 -0.0912  0.0998  0.1089
    1CHTO    H2  408   5.872   6.135   0.127  2.0844 -0.5483  0.0450
    1CHTO   C12  409   5.847   5.819   0.206 -0.3701  0.2686 -0.0103
    1CHTO   H25  410   5.840   5.836   0.316 -0.1503 -0.6735  0.1544
    1CHTO    N3  411   5.708   5.798   0.146 -0.0014  0.4130 -0.1949
    1CHTO   H12  412   5.713   5.718   0.073 -0.3304 -0.5547  0.8310
    1CHTO   H13  413   5.627   5.772   0.212  0.3835  0.1227  0.1627
    1CHTO   C15  414   5.932   5.686   0.179 -0.1093  0.7776  0.7992
    1CHTO   H28  415   5.957   5.678   0.073  0.5216  0.2196  0.9857
    1CHTO   O10  416   5.888   5.569   0.237 -0.1170  0.7645  0.5656
    1CHTO    H4  417   5.948   5.497   0.241 -0.7065  0.1705 -0.9574
    1CHTO    O5  418   6.061   5.707   0.247 -0.1807 -0.0063  0.2210
    1CHTO   C10  419   6.140   5.818   0.196  0.3419 -0.7710 -0.4985
    1CHTO   H23  420   6.165   5.815   0.090 -3.9675 -1.2767 -1.6192
    1CHTO   C17  421   6.269   5.807   0.283 -0.3996 -0.1187  0.2547
    1CHTO   O12  422   6.345   5.695   0.245  0.3466 -0.2687  0.5544
    1CHTO    H6  423   6.390   5.700   0.163  3.4845 -0.0020  2.2034
    2CHTO  H203  424   5.792   3.807   5.293 -1.7835  0.1748  1.2489
    2CHTO   O82  425   5.791   3.900   5.282  0.7445  0.1791  0.6192
    2CHTO  C123  426   5.784   3.947   5.145  0.0339 -0.0971  0.7111
    2CHTO  H227  427   5.864   3.899   5.087 -0.3080 -0.2725  0.3793
    2CHTO   O77  428   5.665   3.904   5.090  0.0082 -0.1182 -0.8807
    2CHTO  C118  429   5.651   3.925   4.944 -0.3469  0.3453  0.6485
    2CHTO  H222  430   5.727   3.875   4.882  0.6611  2.4552  0.1178
    2CHTO  C125  431   5.515   3.873   4.907  0.6677 -0.1392 -0.8883
    2CHTO   O84  432   5.494   3.731   4.934 -0.4071  0.4445 -0.3961
    2CHTO  H205  433   5.404   3.707   4.929 -0.7415  0.8784  2.3438
    2CHTO  C114  434   5.664   4.078   4.912  0.0480  0.3052 -0.8387
    2CHTO  H218  435   5.578   4.128   4.958 -0.1172 -0.9789  0.2633
    2CHTO  C116  436   5.803   4.133   4.979  0.3415 -0.0790 -0.2596
    2CHTO  H220  437   5.884   4.074   4.932  2.0373  0.5973  1.7104
    2CHTO   O79  438   5.820   4.268   4.937  0.6125  0.5222  0.2622
    2CHTO  H201  439   5.834   4.266   4.844  1.1822  1.2922  0.3289
    2CHTO  C120  440   5.799   4.100   5.136 -0.4219 -0.0648  0.0695
    2CHTO  H224  441   5.711   4.157   5.173  0.3342  1.8859 -1.0164
    2CHTO   N21  442   5.925   4.150   5.199  0.0940 -0.1965  0.3310
    2CHTO  H211  443   5.971   4.239   5.160  2.1397 -1.6376 -0.6243
    2CHTO  H212  444   5.896   4.162   5.303  1.3312  0.7043  0.5808
    2CHTO   O75  445   5.662   4.081   4.772 -0.1004 -0.5269  0.3513
    2CHTO  C112  446   5.587   4.216   4.720  0.9556  0.2000 -0.6825
    2CHTO  H216  447   5.615   4.303   4.781  1.0553 -0.0653 -0.3508
    2CHTO   O73  448   5.444   4.192   4.723  0.0646 -0.2572  0.4614
    2CHTO  C113  449   5.365   4.307   4.688  0.2475 -0.4830 -0.4176
    2CHTO  H217  450   5.405   4.388   4.752  1.8180  0.3655 -2.4249
    2CHTO  C124  451   5.215   4.276   4.727 -0.0469  0.1802  0.0100
    2CHTO   O83  452   5.116   4.360   4.669  0.4360  1.1355  0.5629
    2CHTO  H204  453   5.037   4.338   4.715 -1.0075 -1.0275 -2.7634
    2CHTO  C109  454   5.388   4.340   4.539 -0.7717  0.7431  0.1516
    2CHTO  H213  455   5.357   4.251   4.482  0.6026  1.0980 -1.1958
    2CHTO  C110  456   5.550   4.364   4.513 -0.0364 -0.0199  0.6279
    2CHTO  H214  457   5.576   4.460   4.557 -1.2489 -0.6112  2.7090
    2CHTO   O78  458   5.579   4.384   4.374  0.5868  0.0958 -0.0028
    2CHTO  H200  459   5.515   4.446   4.342 -0.4531 -1.8205 -1.7280
    2CHTO  C111  460   5.630   4.245   4.567  0.3349  0.2109  0.6937
    2CHTO  H215  461   5.612   4.156   4.506  1.3166  0.6869 -0.3207
    2CHTO   N19  462   5.775   4.274   4.561 -0.4546  0.1793 -0.8138
    2CHTO  H207  463   5.804   4.377   4.576  0.9635 -0.1978 -0.9175
    2CHTO  H208  464   5.814   4.233   4.469  0.0575  2.1983 -1.5264
    2CHTO   O74  465   5.324   4.466   4.496  0.4477  0.3363  0.0982
    2CHTO  C115  466   5.258   4.447   4.369 -0.0468  0.3522 -0.2674
    2CHTO  H219  467   5.314   4.378   4.304  0.0415  0.5654 -0.4178
    2CHTO   O76  468   5.119   4.396   4.383  0.0201 -0.3089  0.3159
    2CHTO  C122  469   5.011   4.486   4.410  0.6699  0.2893 -0.1847
    2CHTO  H226  470   5.029   4.546   4.500 -0.0667 -1.3312  1.0638
    2CHTO  C126  471   4.888   4.394   4.446  0.0377 -0.8065 -0.3725
    2CHTO   O85  472   4.862   4.304   4.340  0.5315 -0.4997 -0.3983
    2CHTO  H206  473   4.816   4.358   4.278 -0.6009  3.1204  3.3837
    2CHTO  C121  474   4.997   4.584   4.290 -0.6840 -0.7116 -0.4653
    2CHTO  H225  475   4.914   4.535   4.234 -0.7146 -0.1032 -0.9579
    2CHTO   O81  476   4.959   4.714   4.339  0.4059 -0.2373  0.9475
    2CHTO  H202  477   4.954   4.775   4.268 -2.2221 -0.4703  0.8884
    2CHTO  C119  478   5.124   4.592   4.199 -0.1677 -0.0629  0.4036
    2CHTO  H223  479   5.122   4.504   4.136  1.1941 -0.5765  1.0467
    2CHTO  C117  480   5.262   4.584   4.282 -0.5403 -0.3107 -0.0114
    2CHTO  H221  481   5.260   4.658   4.361  1.9345 -0.0388 -0.1610
    2CHTO   N20  482   5.389   4.608   4.204 -0.5608  0.4824  0.8299
    2CHTO  H209  483   5.468   4.657   4.259 -0.3809  1.5136 -0.3279
    2CHTO  H210  484   5.372   4.672   4.119 -2.2017 -0.5179  0.3975
    2CHTO   O80  485   5.123   4.716   4.084  0.2861 -0.7224  0.2920
    2CHTO  C103  486   5.030   4.711   3.974 -0.5223 -0.1188 -0.1758
    2CHTO  H190  487   5.075   4.760   3.888  1.1352 -0.8301  0.2710
    2CHTO  C101  488   4.987   4.578   3.908 -0.1097 -0.0349  0.6794
    2CHTO  H188  489   4.943   4.517   3.987 -0.4554  0.2525  0.7065
    2CHTO   O68  490   5.108   4.496   3.855  0.3639  0.0094  0.2211
    2CHTO  H168  491   5.165   4.474   3.926 -0.3493 -2.7704 -0.0040
    2CHTO   C99  492   4.875   4.615   3.789 -0.0458 -0.3142  0.4907
    2CHTO  H186  493   4.927   4.680   3.716  0.8680 -2.5967 -0.9407
    2CHTO   N17  494   4.820   4.491   3.718  0.1430 -0.1944 -0.6531
    2CHTO  H174  495   4.866   4.409   3.771  0.0333  0.3872  0.3509
    2CHTO  H175  496   4.850   4.486   3.614  1.0864  0.2949 -0.4063
    2CHTO   C97  497   4.761   4.697   3.853  0.5495 -0.2585  0.4745
    2CHTO  H184  498   4.721   4.630   3.931  0.8298 -0.8056  0.1487
    2CHTO   O64  499   4.812   4.817   3.915 -0.2454  0.1826  0.3856
    2CHTO  C104  500   4.903   4.795   4.026  0.6863  0.4466 -0.2822
    2CHTO  H191  501   4.850   4.733   4.098 -0.1286  2.9867  1.3814
    2CHTO  C108  502   4.928   4.924   4.105 -0.5448 -0.3087 -0.8389
    2CHTO   O71  503   4.815   4.994   4.156  0.2523 -0.4256  0.4246
    2CHTO  H171  504   4.835   5.082   4.181 -2.2271 -0.0905  1.4746
    2CHTO   O62  505   4.662   4.749   3.761 -0.3374  0.2004  0.6132
    2CHTO   C91  506   4.534   4.780   3.809 -0.1611  0.1079 -0.1199
    2CHTO  H178  507   4.538   4.788   3.917  1.0494  1.4808 -0.2552
    2CHTO   C92  508   4.435   4.661   3.789  0.2333 -0.5916 -0.1660
    2CHTO  H179  509   4.475   4.566   3.829  0.3022 -0.9727 -1.1181
    2CHTO   O66  510   4.315   4.682   3.870 -0.4129 -0.0218  0.0657
    2CHTO  H166  511   4.337   4.708   3.957 -0.6396 -2.0128  0.7333
    2CHTO   C93  512   4.376   4.655   3.638 -0.1152 -0.4095 -0.8494
    2CHTO  H180  513   4.281   4.601   3.653 -0.9206  1.0582 -0.4946
    2CHTO   N16  514   4.455   4.569   3.552  1.0090  0.4832  0.0072
    2CHTO  H172  515   4.561   4.587   3.544  1.2311 -0.4395  0.7592
    2CHTO  H173  516   4.411   4.568   3.454  0.2996 -1.3094  0.3205
    2CHTO   C94  517   4.351   4.797   3.575  1.0733  0.4467  0.2645
    2CHTO  H181  518   4.424   4.822   3.498 -0.9606 -0.1014 -1.9044
    2CHTO   O61  519   4.354   4.896   3.678 -0.1539 -0.0563 -0.3569
    2CHTO   C95  520   4.484   4.914   3.743 -0.4534 -0.0667  0.5089
    2CHTO  H182  521   4.554   4.944   3.666 -0.6927  0.4636  0.4993
    2CHTO  C106  522   4.470   5.039   3.838 -0.3524  0.1878  0.5165
    2CHTO   O69  523   4.574   5.050   3.936  0.2233  0.0779  0.4560
    2CHTO  H169  524   4.660   5.072   3.906  0.1349  0.4760  0.4830
    2CHTO   O63  525   4.224   4.800   3.512  0.1127  1.0644 -0.1856
    2CHTO   C96  526   4.173   4.958   3.488 -0.1830  0.8336 -0.5295
    2CHTO  H183  527   4.166   5.011   3.583  1.4707 -0.5723  0.4038
    2CHTO   C98  528   4.026   4.943   3.438  0.0108 -0.7260  0.1845
    2CHTO  H185  529   4.008   4.865   3.363  1.0203 -1.1943  0.4330
    2CHTO   O67  530   3.955   4.894   3.555 -0.6980  0.2004  0.2062
    2CHTO  H167  531   3.924   4.964   3.610 -2.7463  0.0468 -0.7043
    2CHTO  C102  532   3.973   5.086   3.387 -0.1129  0.0212 -0.4276
    2CHTO  H189  533   3.988   5.156   3.470 -2.2834 -1.5073  1.2872
    2CHTO   N18  534   3.828   5.097   3.352  0.4434 -0.7702 -0.3444
    2CHTO  H176  535   3.765   5.103   3.439  1.5204  2.9866  0.2542
    2CHTO  H177  536   3.793   5.012   3.295  0.3861 -2.4156  2.0784
    2CHTO  C105  537   4.064   5.132   3.267 -1.0279 -0.1481 -0.2173
    2CHTO  H192  538   4.020   5.095   3.174 -0.3559 -1.7404  0.0861
    2CHTO   O65  539   4.196   5.079   3.261  0.1206  0.1361 -0.1510
    2CHTO  C100  540   4.263   5.032   3.378 -0.3043 -0.2122 -0.2601
    2CHTO  H187  541   4.329   4.958   3.333  3.4311  1.9748  1.3424
    2CHTO  C107  542   4.351   5.143   3.443 -0.3218  0.2487  0.2775
    2CHTO   O70  543   4.281   5.254   3.498 -0.1243  0.5486  0.1058
    2CHTO  H170  544   4.250   5.219   3.579 -0.5665 -1.7152 -1.0050
    2CHTO   O57  545   4.070   5.304   3.299 -0.5867 -0.6594 -0.3191
    2CHTO   C85  546   4.064   5.390   3.183 -0.4284 -0.1734  0.7535
    2CHTO  H157  547   3.980   5.351   3.123 -0.4040  0.5771  0.2235
    2CHTO   C83  548   4.200   5.367   3.099  1.3758 -0.2461 -0.2389
    2CHTO  H155  549   4.213   5.260   3.082  0.5802 -0.4410  0.3700
    2CHTO   O56  550   4.306   5.408   3.190  0.2879  0.2477 -0.3114
    2CHTO  H135  551   4.328   5.348   3.259  0.4534 -0.8482 -1.3061
    2CHTO   C81  552   4.192   5.447   2.969 -0.3707 -0.3950  0.0551
    2CHTO  H153  553   4.112   5.406   2.908  1.5939 -0.8772 -2.3012
    2CHTO   N14  554   4.312   5.422   2.880 -0.7919  0.3157 -0.8699
    2CHTO  H141  555   4.295   5.466   2.783  0.9764 -0.1044 -1.3889
    2CHTO  H142  556   4.405   5.454   2.923 -0.5564  0.2545 -1.3248
    2CHTO   C79  557   4.168   5.604   2.992 -0.3934  0.2488  0.1926
    2CHTO  H151  558   4.136   5.646   2.896 -1.3449  0.0251  0.4021
    2CHTO   O52  559   4.059   5.631   3.086  0.4482 -0.0592 -0.1138
    2CHTO   C86  560   4.047   5.546   3.211  0.5745 -0.2796 -0.4878
    2CHTO  H158  561   4.123   5.583   3.283 -1.3644 -0.5619  1.7622
    2CHTO   C90  562   3.913   5.569   3.279 -0.2363 -0.2331 -0.3676
    2CHTO   O60  563   3.899   5.702   3.332  0.0182  0.3708  0.2814
    2CHTO  H138  564   3.952   5.707   3.409  1.9089 -0.0566 -0.9685
    2CHTO   O50  565   4.288   5.677   3.034  0.4228  0.3710  0.3795
    2CHTO   C73  566   4.346   5.797   3.018  0.4194  0.2265  0.7237
    2CHTO  H145  567   4.283   5.863   2.957 -1.3081  0.6102  2.8432
    2CHTO   C74  568   4.489   5.773   2.948  0.1268  0.2005  0.6728
    2CHTO  H146  569   4.473   5.721   2.853  2.2003  1.6516 -0.5142
    2CHTO   O54  570   4.533   5.903   2.920 -0.5278 -0.1429  0.4425
    2CHTO  H133  571   4.568   5.948   2.994 -2.5658 -0.5034  1.6692
    2CHTO   C75  572   4.588   5.691   3.049 -0.0237 -0.1818 -0.4268
    2CHTO  H147  573   4.547   5.590   3.063  1.1490 -0.7312 -0.9363
    2CHTO   N13  574   4.719   5.663   2.993  0.0325  0.8764 -0.2430
    2CHTO  H139  575   4.781   5.751   2.980  0.4506  0.8758  1.7051
    2CHTO  H140  576   4.723   5.615   2.896 -3.4075  0.3302 -0.1734
    2CHTO   C76  577   4.592   5.755   3.193  0.6822 -0.9572 -0.2135
    2CHTO  H148  578   4.645   5.850   3.181 -0.7465  0.0573  1.2381
    2CHTO   O49  579   4.456   5.780   3.235 -0.4487 -0.3954 -1.0538
    2CHTO   C77  580   4.374   5.865   3.152  0.3148 -0.5240 -0.2342
    2CHTO  H149  581   4.422   5.962   3.139  1.9069 -1.2359  0.2352
    2CHTO   C88  582   4.239   5.897   3.226  0.3677  0.0379 -0.3791
    2CHTO   O58  583   4.269   5.946   3.349  0.3815  0.2244  0.5619
    2CHTO  H136  584   4.200   6.006   3.368 -2.1189 -2.0746 -0.9165
    2CHTO   O51  585   4.662   5.652   3.313  0.3059  0.3445  0.0629
    2CHTO   C78  586   4.708   5.727   3.437 -0.0333  0.6683  0.3152
    2CHTO  H150  587   4.647   5.820   3.438 -0.8465  0.1354  2.7161
    2CHTO   C80  588   4.852   5.772   3.433  0.2442  0.8314 -0.0954
    2CHTO  H152  589   4.912   5.680   3.424 -1.3006 -0.2348  0.3660
    2CHTO   O55  590   4.869   5.842   3.307  0.0490  0.1497 -0.3612
    2CHTO  H134  591   4.955   5.878   3.292 -0.0964 -0.0159 -1.6435
    2CHTO   C84  592   4.887   5.857   3.558  0.2595  0.8794  0.3866
    2CHTO  H156  593   4.822   5.945   3.567 -0.7956  0.1192  0.2769
    2CHTO   N15  594   5.031   5.913   3.551 -0.6220  0.6087 -0.6826
    2CHTO  H143  595   5.028   6.018   3.529 -0.6629  1.5310  3.3907
    2CHTO  H144  596   5.080   5.909   3.646  0.8323 -0.0764 -1.4437
    2CHTO   C87  597   4.863   5.766   3.682 -0.1061 -0.1513 -0.4613
    2CHTO  H159  598   4.937   5.687   3.681  0.2683  0.2063 -1.5784
    2CHTO   O53  599   4.710   5.699   3.688 -0.1058 -0.5067  0.3632
    2CHTO   C82  600   4.679   5.638   3.561  0.1888  0.2893 -0.8534
    2CHTO  H154  601   4.743   5.550   3.557  0.2048  0.2141  0.7084
    2CHTO   C89  602   4.532   5.593   3.554  0.4841  0.1281  0.5113
    2CHTO   O59  603   4.501   5.465   3.609  0.6128 -0.5140 -0.1967
    2CHTO  H137  604   4.539   5.447   3.693 -0.3449  1.8579  0.7884
    2CHTO   O45  605   4.873   5.853   3.808 -0.3240  0.0676  0.0498
    2CHTO   C67  606   4.876   5.776   3.926 -0.0183 -0.3598  0.3121
    2CHTO  H124  607   4.845   5.674   3.902  0.9678 -0.5280 -0.2607
    2CHTO   C65  608   5.024   5.759   3.984  0.2517  0.2922  0.3243
    2CHTO  H122  609   5.072   5.856   3.968  0.0025  0.3605 -0.0261
    2CHTO   O44  610   5.093   5.655   3.910  0.6225 -0.6136 -0.1025
    2CHTO  H102  611   5.161   5.611   3.957  1.8548  1.0610 -0.2824
    2CHTO   C63  612   5.017   5.755   4.144  0.6326  0.1972  0.0730
    2CHTO  H120  613   5.011   5.857   4.182  1.7183  0.3117 -0.0276
    2CHTO   N11  614   5.145   5.713   4.203 -0.1005  0.0935 -0.2510
    2CHTO  H108  615   5.214   5.777   4.152 -0.0172  0.8602  0.7933
    2CHTO  H109  616   5.166   5.614   4.168  1.5861 -0.0974  1.2409
    2CHTO   C61  617   4.886   5.689   4.205  1.1162  0.3572  0.6420
    2CHTO  H118  618   4.891   5.709   4.313  0.0935  2.2001  0.3660
    2CHTO   O40  619   4.766   5.741   4.155  0.3313 -0.5290  0.8014
    2CHTO   C68  620   4.778   5.823   4.039 -0.5143 -0.2207  0.6946
    2CHTO  H125  621   4.813   5.925   4.066 -0.6523  0.3721 -1.2771
    2CHTO   C72  622   4.631   5.840   3.988 -0.4110  0.2660 -0.5356
    2CHTO   O48  623   4.535   5.863   4.091  0.0106 -0.5685  0.2537
    2CHTO  H105  624   4.512   5.782   4.132 -1.6216  0.8344  2.2154
    2CHTO   O38  625   4.882   5.546   4.180  0.3270 -0.4808  0.5369
    2CHTO   C55  626   4.839   5.462   4.288  1.0479 -0.2133 -0.8049
    2CHTO  H112  627   4.770   5.521   4.351 -0.1894 -2.3119 -0.1438
    2CHTO   C56  628   4.955   5.405   4.376  0.6417 -0.4506 -0.1135
    2CHTO  H113  629   5.029   5.370   4.302 -1.3018 -2.6045 -1.0874
    2CHTO   O42  630   5.019   5.499   4.468  0.0755 -0.5616 -0.2572
    2CHTO  H100  631   5.100   5.458   4.489 -0.5632 -1.6713  0.1073
    2CHTO   C57  632   4.921   5.283   4.469 -0.4312  0.6448 -0.3417
    2CHTO  H114  633   4.893   5.323   4.567  0.6476  1.3909 -0.3284
    2CHTO   N10  634   5.040   5.194   4.494  0.1675  0.2763 -0.5529
    2CHTO  H106  635   5.129   5.254   4.486  1.8161 -1.9914  0.3539
    2CHTO  H107  636   5.048   5.107   4.430 -2.1333 -1.2366  1.1294
    2CHTO   C58  637   4.810   5.200   4.414 -0.4766 -1.1530  0.1450
    2CHTO  H115  638   4.848   5.128   4.339 -0.1025 -0.7976 -0.0057
    2CHTO   O37  639   4.702   5.281   4.366  0.1065 -0.4218  0.2195
    2CHTO   C59  640   4.744   5.352   4.241 -0.1310 -0.0109  0.0148
    2CHTO  H116  641   4.794   5.295   4.163  1.3621  1.3628 -0.0496
    2CHTO   C70  642   4.612   5.417   4.177  0.2878  0.0617  0.0213
    2CHTO   O46  643   4.554   5.520   4.267  0.3298  0.2310 -0.0805
    2CHTO  H103  644   4.561   5.607   4.234  0.8150  1.2982  2.7120
    2CHTO   O39  645   4.743   5.112   4.540  0.2363 -0.2281  0.0571
    2CHTO   C60  646   4.635   5.035   4.511 -0.2079 -0.2383  0.0306
    2CHTO  H117  647   4.584   5.075   4.423 -0.6034 -0.0151  0.3605
    2CHTO   C62  648   4.684   4.899   4.455 -0.2875  0.0314 -0.1842
    2CHTO  H119  649   4.765   4.933   4.387  1.1070 -2.0701  0.3843
    2CHTO   O43  650   4.736   4.807   4.551  0.1479  0.7464 -0.2713
    2CHTO  H101  651   4.752   4.723   4.511 -0.7964  0.4410  0.0011
    2CHTO   C66  652   4.557   4.848   4.368 -0.6445  0.0380  0.2027
    2CHTO  H123  653   4.523   4.925   4.298 -1.8971 -1.5863 -1.0104
    2CHTO   N12  654   4.584   4.733   4.280 -0.2066  0.5121 -0.1991
    2CHTO  H110  655   4.655   4.747   4.200  0.4178 -1.1470  0.0470
    2CHTO  H111  656   4.490   4.697   4.241  1.7010 -3.6650 -1.1883
    2CHTO   C69  657   4.427   4.829   4.457 -0.2578 -0.5972  0.3571
    2CHTO  H126  658   4.404   4.724   4.484 -2.7953 -0.1114  0.2707
    2CHTO   O41  659   4.429   4.922   4.600  0.0306  0.2103  0.5059
    2CHTO   C64  660   4.538   5.022   4.622  0.0003  0.0797 -0.4756
    2CHTO  H121  661   4.599   4.983   4.706  1.2931  0.4058 -1.2424
    2CHTO   C71  662   4.472   5.159   4.659 -0.4587  0.0823 -0.5402
    2CHTO   O47  663   4.417   5.144   4.787  0.1411  0.2309  0.3725
    2CHTO  H104  664   4.392   5.227   4.823 -0.2050  0.2083  0.1856
    2CHTO   O34  665   4.295   4.894   4.364  0.2224 -0.1458  0.1552
    2CHTO   C49  666   4.188   5.022   4.356 -0.0039 -0.7656  0.0703
    2CHTO   H91  667   4.157   5.034   4.460 -0.1939  0.4862 -0.1260
    2CHTO   C47  668   4.064   4.979   4.270  0.4551 -0.4721  0.5359
    2CHTO   H89  669   3.995   5.066   4.266  2.2306  0.9627  0.7515
    2CHTO   O33  670   3.993   4.872   4.345 -0.0890 -0.2431 -0.2624
    2CHTO   H70  671   3.985   4.888   4.437 -0.3007 -1.0868 -0.1288
    2CHTO   C45  672   4.118   4.950   4.125  0.0851  0.0368 -0.0920
    2CHTO   H87  673   4.192   4.871   4.139 -0.8445 -0.5056  1.8545
    2CHTO    N8  674   4.010   4.899   4.039 -0.3754 -0.8974 -0.0806
    2CHTO   H75  675   4.048   4.801   4.010  1.0804 -0.2549 -0.4252
    2CHTO   H76  676   4.003   4.965   3.953 -0.0788 -0.5561  0.1581
    2CHTO   C43  677   4.195   5.083   4.069  0.4839  0.5870  0.4802
    2CHTO   H85  678   4.245   5.051   3.978 -0.1210  0.6751  0.1165
    2CHTO   O29  679   4.284   5.152   4.162  0.4270 -1.0924  0.5940
    2CHTO   C50  680   4.255   5.152   4.304  0.5560 -0.0815 -0.1063
    2CHTO   H92  681   4.345   5.158   4.366 -0.2220  1.2482  0.9203
    2CHTO   C54  682   4.166   5.273   4.350 -0.8463 -0.0462 -0.5810
    2CHTO   O36  683   4.211   5.395   4.299 -0.1447  0.4488  0.9377
    2CHTO   H72  684   4.146   5.459   4.321 -0.9315  0.1788 -0.5456
    2CHTO   O27  685   4.095   5.181   4.036  0.3478 -0.8817  0.3750
    2CHTO   C37  686   4.078   5.269   3.923 -0.5030  0.1065 -0.2115
    2CHTO   H79  687   4.107   5.213   3.833 -4.0514 -1.7901 -0.2398
    2CHTO   C38  688   3.925   5.288   3.902  0.7382 -0.4184  0.7035
    2CHTO   H80  689   3.883   5.315   4.000  0.2513 -0.4270  0.5006
    2CHTO   O31  690   3.872   5.163   3.858  0.2230  0.1345 -0.0768
    2CHTO   H68  691   3.899   5.093   3.915 -0.8129  0.6753  1.1282
    2CHTO   C39  692   3.889   5.396   3.795 -0.6672 -0.0545  0.2064
    2CHTO   H81  693   3.934   5.364   3.700  1.6045  1.5614  0.6948
    2CHTO    N7  694   3.743   5.421   3.774 -0.1410  0.1046  1.2058
    2CHTO   H73  695   3.718   5.480   3.861 -1.2975  1.1130  0.2171
    2CHTO   H74  696   3.690   5.328   3.788  0.1657 -0.1769  0.5536
    2CHTO   C40  697   3.971   5.525   3.825  0.2169 -0.1168 -0.5067
    2CHTO   H82  698   3.938   5.563   3.921  0.1535 -2.1412  0.2959
    2CHTO   O26  699   4.111   5.487   3.822 -0.0680  0.6985 -0.3575
    2CHTO   C41  700   4.154   5.404   3.934  0.0129 -0.5130 -0.2166
    2CHTO   H83  701   4.133   5.443   4.035 -1.2529 -0.8208 -0.3474
    2CHTO   C52  702   4.308   5.376   3.920 -0.5180 -0.2842 -0.4185
    2CHTO   O35  703   4.373   5.505   3.912 -0.4304 -0.2508  0.2589
    2CHTO   H71  704   4.435   5.519   3.981  0.3883 -3.1808  0.1720
    2CHTO   O28  705   3.974   5.623   3.715 -0.5699  0.1847 -0.3017
    2CHTO   C42  706   4.009   5.764   3.719 -0.4297  0.9427 -0.3712
    2CHTO   H84  707   3.984   5.798   3.619  0.6012  0.6889 -0.7204
    2CHTO   C44  708   4.168   5.788   3.733  0.6149  0.3582  0.9589
    2CHTO   H86  709   4.205   5.731   3.818  0.2492 -2.0770 -0.4639
    2CHTO   O32  710   4.222   5.735   3.609 -0.2730  0.3015  0.2139
    2CHTO   H69  711   4.208   5.798   3.541 -0.7012  1.4769  1.3673
    2CHTO   C48  712   4.203   5.941   3.744 -0.3729  0.1652  0.4589
    2CHTO   H90  713   4.188   5.987   3.647 -1.2299 -0.5635  0.2428
    2CHTO    N9  714   4.349   5.966   3.771 -0.9810  0.4698 -0.0785
    2CHTO   H77  715   4.391   6.047   3.713 -1.1779  1.1774  0.7587
    2CHTO   H78  716   4.366   5.988   3.875  0.4139 -1.5378  0.1626
    2CHTO   C51  717   4.112   5.991   3.866 -0.2437 -0.1194 -0.5133
    2CHTO   H93  718   4.138   5.915   3.939 -0.9862 -1.3342 -1.4853
    2CHTO   O30  719   3.971   5.989   3.833 -0.1355  0.1815  0.0834
    2CHTO   C46  720   3.927   5.843   3.826  0.3081  0.2389 -0.3122
    2CHTO   H88  721   3.939   5.792   3.922  1.1983 -1.4266 -1.2884
    2CHTO   C53  722   3.781   5.848   3.783 -0.3723  0.1900  0.2515
    2CHTO   O72  723   3.695   5.888   3.892 -0.1924 -0.0419 -0.3935
    2CHTO  H199  724   3.609   5.916   3.864 -1.1723 -0.6614  1.8741
    2CHTO   O22  725   4.140   6.123   3.908 -0.0764 -0.9158  0.4740
    2CHTO   C31  726   4.118   6.183   4.044 -0.0451  0.3586  0.4634
    2CHTO   H59  727   4.195   6.261   4.061  0.3502  0.2757 -0.8705
    2CHTO   C29  728   3.974   6.254   4.068 -0.0410 -0.1978  0.2039
    2CHTO   H57  729   3.902   6.175   4.043 -2.0669  2.1059 -1.5917
    2CHTO   O21  730   3.962   6.350   3.961 -0.6953  0.2376 -0.6970
    2CHTO   H37  731   3.883   6.399   3.979 -1.4017 -0.6723 -1.2616
    2CHTO   C27  732   3.940   6.305   4.211  0.1159  0.7961  0.1914
    2CHTO   H55  733   4.000   6.397   4.222 -2.1506  2.3277  0.2001
    2CHTO    N5  734   3.799   6.346   4.240 -0.1753 -0.2887 -0.3021
    2CHTO   H43  735   3.745   6.392   4.158 -0.5548  0.7013  0.4965
    2CHTO   H44  736   3.796   6.419   4.319 -0.5410  0.2369 -0.7909
    2CHTO   C25  737   3.985   6.193   4.313  0.0066  0.0804  0.0857
    2CHTO   H53  738   3.918   6.107   4.301  1.1007 -0.4933 -2.1262
    2CHTO   O17  739   4.127   6.150   4.294  0.1764 -0.0348 -0.2747
    2CHTO   C32  740   4.142   6.089   4.163 -0.4672  0.2698  0.0287
    2CHTO   H60  741   4.069   6.008   4.159  2.3706 -2.4891  1.4783
    2CHTO   C36  742   4.282   6.027   4.169  0.7164  0.6359  0.5237
    2CHTO   O25  743   4.388   6.123   4.191  0.1684 -0.0747 -0.1623
    2CHTO   H40  744   4.466   6.096   4.146  0.6798  0.2293  0.5338
    2CHTO   O15  745   3.980   6.244   4.457 -0.4892  0.3098 -0.2053
    2CHTO   C19  746   3.878   6.255   4.569 -0.4695 -0.2596 -0.3444
    2CHTO   H47  747   3.792   6.300   4.518 -1.4232  0.1122  1.5873
    2CHTO   C20  748   3.845   6.115   4.630  0.0831  0.5257 -0.5974
    2CHTO   H48  749   3.932   6.070   4.681  0.2402 -0.2408 -1.5415
    2CHTO   O19  750   3.804   6.040   4.519  0.0541 -0.2790 -0.2449
    2CHTO   H35  751   3.796   5.948   4.533  1.3528 -0.4884 -0.8249
    2CHTO   C21  752   3.725   6.115   4.740  0.3531 -0.2782 -0.2102
    2CHTO   H49  753   3.633   6.145   4.690  0.8451 -0.3367 -1.1812
    2CHTO    N4  754   3.698   5.975   4.788 -0.3409  0.2687  0.4460
    2CHTO   H41  755   3.787   5.932   4.832  0.6454  1.5965 -0.1960
    2CHTO   H42  756   3.615   5.973   4.857 -1.0628 -2.5782 -0.4557
    2CHTO   C22  757   3.763   6.223   4.845  0.1981  0.0678 -0.0446
    2CHTO   H50  758   3.841   6.184   4.911  0.8006 -0.7930 -1.2403
    2CHTO   O14  759   3.796   6.346   4.774 -0.3181  0.0374 -0.5723
    2CHTO   C23  760   3.913   6.351   4.685  0.2438 -0.4289  0.3524
    2CHTO   H51  761   3.999   6.319   4.746  0.6593  2.0779  1.1809
    2CHTO   C34  762   3.936   6.496   4.633  0.6146  0.3787  0.1789
    2CHTO   O23  763   3.822   6.549   4.561  0.1163 -0.2264  0.2605
    2CHTO   H38  764   3.771   6.486   4.516 -3.2977  1.7340  1.2241
    2CHTO   O16  765   3.652   6.249   4.926 -0.3282 -0.0397 -0.4242
    2CHTO   C24  766   3.705   6.306   5.073 -0.0465  0.7557 -0.3603
    2CHTO   H52  767   3.809   6.337   5.071  0.8637 -2.2691 -1.9282
    2CHTO   C26  768   3.688   6.189   5.174 -0.5397 -0.1398 -0.1525
    2CHTO   H54  769   3.585   6.150   5.162 -0.3290 -0.4954 -0.8715
    2CHTO   O20  770   3.772   6.072   5.139  0.5412 -0.5238 -0.1021
    2CHTO   H36  771   3.731   6.014   5.077  0.1931  0.1855 -0.5401
    2CHTO   C30  772   3.705   6.229   5.321 -0.2624 -0.2473 -0.3643
    2CHTO   H58  773   3.814   6.236   5.335  0.0920 -2.2559 -1.9170
    2CHTO    N6  774   3.661   6.129   5.418  0.4930 -0.2696 -0.1202
    2CHTO   H45  775   3.735   6.062   5.459  0.3234  1.3804  3.0356
    2CHTO   H46  776   3.578   6.074   5.377  1.1313  0.7512 -2.9009
    2CHTO   C33  777   3.634   6.362   5.353 -0.1765  0.8439 -0.1187
    2CHTO   H61  778   3.526   6.338   5.354 -0.4494  2.0337 -0.5007
    2CHTO   O18  779   3.665   6.465   5.253 -0.6176 -0.2498  0.3916
    2CHTO   C28  780   3.622   6.427   5.117 -0.7338  0.9889  0.0914
    2CHTO   H56  781   3.517   6.397   5.114 -0.0431 -1.4414 -1.0046
    2CHTO   C35  782   3.623   6.543   5.010  0.4213 -0.1752  0.5362
    2CHTO   O24  783   3.508   6.635   5.014 -0.3402 -0.0603 -0.3277
    2CHTO   H39  784   3.538   6.711   4.970 -1.4630 -0.4898 -1.8765
    2CHTO    O9  785   3.657   6.413   5.485  0.3291 -0.2326  0.0545
    2CHTO   C13  786   3.568   6.539   5.531  0.1459  0.2789  0.2986
    2CHTO   H26  787   3.475   6.538   5.470  1.0750 -0.3914 -1.1207
    2CHTO   C11  788   3.649   6.677   5.511 -0.6935 -0.2507  0.3056
    2CHTO   H24  789   3.660   6.701   5.404 -1.6234  3.4499  0.9709
    2CHTO    O8  790   3.779   6.660   5.566 -0.3350  0.0756  0.0987
    2CHTO    H3  791   3.827   6.741   5.570 -0.3793  0.0825  0.5329
    2CHTO    C9  792   3.575   6.793   5.579  0.2941  0.5289 -0.5645
    2CHTO   H22  793   3.469   6.786   5.550  0.4541 -1.9617 -0.6359
    2CHTO    N2  794   3.616   6.923   5.525 -0.0225  0.2844  0.0978
    2CHTO   H10  795   3.570   6.931   5.428  1.9063  1.3856 -0.7699
    2CHTO   H11  796   3.584   7.008   5.582  1.4244  0.6460  0.3904
    2CHTO    C7  797   3.574   6.774   5.737 -0.1221 -0.6956  0.3137
    2CHTO   H20  798   3.482   6.822   5.776 -0.5468  0.1343 -1.6212
    2CHTO    O4  799   3.579   6.631   5.769 -0.0130 -0.6363 -0.7711
    2CHTO   C14  800   3.530   6.525   5.687 -0.2485  0.8660  0.3772
    2CHTO   H27  801   3.419   6.530   5.691 -0.4698 -2.0903 -1.2390
    2CHTO   C18  802   3.567   6.388   5.754  0.3816 -0.3008  0.3955
    2CHTO   O13  803   3.496   6.283   5.690  0.1759  0.5410  1.1936
    2CHTO    H7  804   3.436   6.232   5.740  0.9751 -0.8710  0.7635
    2CHTO    O2  805   3.727   6.843   5.798 -0.2711  0.2248  0.0437
    2CHTO    C1  806   3.709   6.892   5.929  0.2250 -0.0379  0.1440
    2CHTO   H14  807   3.636   6.831   5.984  0.4421  1.8499  2.6162
    2CHTO    C2  808   3.671   7.041   5.935 -0.1454 -0.7677 -0.5926
    2CHTO   H15  809   3.745   7.097   5.876 -1.5498  2.3136  0.4174
    2CHTO    O6  810   3.547   7.059   5.869  0.2986  0.3702 -0.3426
    2CHTO    H1  811   3.482   7.009   5.915  0.3532  0.3799 -0.2544
    2CHTO    C3  812   3.688   7.107   6.084 -0.2377  0.6913 -1.0057
    2CHTO   H16  813   3.608   7.069   6.150  0.5754 -0.0859 -0.4656
    2CHTO    N1  814   3.670   7.258   6.071  0.6161  0.0230  0.0188
    2CHTO    H8  815   3.755   7.306   6.024 -0.9060 -0.0953 -2.9232
    2CHTO    H9  816   3.576   7.266   6.019  1.3134 -2.8057 -1.7856
    2CHTO    C4  817   3.821   7.059   6.147  0.1324  0.2834 -0.7377
    2CHTO   H17  818   3.900   7.112   6.095 -0.7302  0.8088 -1.5235
    2CHTO    O1  819   3.838   6.921   6.137  0.3050 -0.0715 -0.7847
    2CHTO    C5  820   3.849   6.873   6.003  0.3735 -0.6983 -0.0392
    2CHTO   H18  821   3.927   6.927   5.948 -0.2869 -0.3022 -0.5906
    2CHTO   C16  822   3.885   6.723   6.005  0.1048  0.0755  0.5212
    2CHTO   O11  823   4.015   6.688   6.029 -0.1060  0.3917 -0.7356
    2CHTO    H5  824   4.056   6.645   5.957  1.2866 -0.4844  0.5268
    2CHTO    O3  825   3.827   7.084   6.291 -0.5340  0.0010  0.3301
    2CHTO    C6  826   3.961   7.091   6.347  0.3503  0.4144  0.0924
    2CHTO   H19  827   4.043   7.069   6.278  1.1644  0.1766  1.1182
    2CHTO    C8  828   3.985   7.233   6.396  0.1610 -0.3541 -0.0857
    2CHTO   H21  829   3.903   7.267   6.459  0.5115 -1.3756  0.9505
    2CHTO    O7  830   3.998   7.314   6.281  0.4678 -0.2200  0.2569
    2CHTO    H2  831   4.085   7.303   6.247  0.3695  1.6579 -0.6677
    2CHTO   C12  832   4.122   7.245   6.482  0.7050 -0.6636  0.3778
    2CHTO   H25  833   4.198   7.229   6.402  0.2117 -0.0808 -0.2121
    2CHTO    N3  834   4.144   7.385   6.547 -0.9244 -0.6942  1.3145
    2CHTO   H12  835   4.060   7.405   6.612 -1.4077 -0.4857  0.6348
    2CHTO   H13  836   4.174   7.465   6.482 -2.4355  0.0348  1.4814
    2CHTO   C15  837   4.129   7.131   6.586  0.0922  0.0455  0.3970
    2CHTO   H28  838   4.063   7.152   6.671 -1.6398 -1.7482 -0.4569
    2CHTO   O10  839   4.284   7.102   6.627 -0.2785 -0.0637 -0.2359
    2CHTO    H4  840   4.325   7.152   6.695  1.7685 -1.8407 -0.1103
    2CHTO    O5  841   4.103   7.005   6.525 -0.1787  0.2206 -0.0425
    2CHTO   C10  842   3.974   6.991   6.469  0.3257  0.4556 -0.1035
    2CHTO   H23  843   3.907   7.010   6.553  0.1335 -0.4593 -0.0450
    2CHTO   C17  844   3.967   6.842   6.441  0.2678 -0.2420 -0.3033
    2CHTO   O12  845   3.825   6.811   6.429  0.0413  0.2082  0.4637
    2CHTO    H6  846   3.818   6.719   6.414  0.6543 -0.3950  3.5677
    3CHTO  H203  847   5.998   2.890   2.621  0.8833 -0.8216 -1.3640
    3CHTO   O82  848   6.053   2.960   2.591  0.2644  0.3381  0.0933
    3CHTO  C123  849   6.091   2.923   2.453 -0.6381 -0.4302 -0.7436
    3CHTO  H227  850   6.128   2.819   2.453  0.2243 -0.1294 -0.2812
    3CHTO   O77  851   5.978   2.932   2.374  0.1855 -0.1104  0.2251
    3CHTO  C118  852   5.990   2.879   2.239 -0.2346 -0.7282 -0.5533
    3CHTO  H222  853   6.023   2.775   2.246  1.8250  0.0159  1.5720
    3CHTO  C125  854   5.850   2.879   2.171 -0.2059 -0.0141  0.3183
    3CHTO   O84  855   5.770   2.773   2.231 -0.1634  0.0767  0.6692
    3CHTO  H205  856   5.762   2.772   2.324 -1.7218  0.9196  0.5603
    3CHTO  C114  857   6.080   2.985   2.167 -0.3072 -0.0588  0.2457
    3CHTO  H218  858   6.045   3.086   2.186 -2.2723 -0.6817  0.0826
    3CHTO  C116  859   6.218   2.991   2.244  0.0768  0.4327  0.0060
    3CHTO  H220  860   6.268   2.894   2.223 -1.5665 -0.4943  0.3282
    3CHTO   O79  861   6.303   3.092   2.183 -0.6338 -0.0814  0.5409
    3CHTO  H201  862   6.274   3.172   2.223 -1.4845  0.4362 -1.1068
    3CHTO  C120  863   6.200   3.019   2.399  0.4510 -0.0205  1.0280
    3CHTO  H224  864   6.169   3.125   2.412  0.0440  0.2407 -1.7679
    3CHTO   N21  865   6.335   3.000   2.463  0.1350  0.2332 -0.6763
    3CHTO  H211  866   6.407   3.029   2.388 -0.8361  2.4462 -0.7949
    3CHTO  H212  867   6.353   2.896   2.486  1.1344  0.9984  2.2906
    3CHTO   O75  868   6.090   2.962   2.031 -0.7206  0.1259  1.1345
    3CHTO  C112  869   6.180   2.845   1.970 -0.1663  0.3170  0.0362
    3CHTO  H216  870   6.175   2.761   2.041  1.5864 -1.0488 -1.4074
    3CHTO   O73  871   6.315   2.896   1.960 -0.1143  0.1050 -0.1977
    3CHTO  C113  872   6.412   2.795   1.936 -0.3604  0.0941 -0.3932
    3CHTO  H217  873   6.404   2.700   1.993  0.9343 -1.5039 -2.7696
    3CHTO  C124  874   6.549   2.856   1.973 -0.0076  0.2468 -0.2951
    3CHTO   O83  875   6.588   2.958   1.887  0.0147 -0.7800  0.6644
    3CHTO  H204  876   6.516   3.015   1.870  0.5433 -0.1527  0.5241
    3CHTO  C109  877   6.381   2.752   1.785 -0.9627  0.2771  0.3278
    3CHTO  H213  878   6.378   2.843   1.724 -0.0046 -0.8737 -1.5171
    3CHTO  C110  879   6.243   2.687   1.767  0.3004  0.4634  0.1224
    3CHTO  H214  880   6.235   2.589   1.814 -1.6020 -0.2803 -1.6885
    3CHTO   O78  881   6.222   2.671   1.627 -0.0939  0.3125 -0.2751
    3CHTO  H200  882   6.292   2.624   1.586  0.3352  0.5022  0.2379
    3CHTO  C111  883   6.140   2.788   1.824  0.1859 -0.0437  0.3338
    3CHTO  H215  884   6.144   2.881   1.765  1.0454 -0.4904 -0.3160
    3CHTO   N19  885   5.997   2.746   1.823  0.0691 -1.0308  0.4079
    3CHTO  H207  886   5.988   2.645   1.860  2.8468 -1.4916 -0.0658
    3CHTO  H208  887   5.952   2.766   1.727 -1.0613  0.0636  1.1569
    3CHTO   O74  888   6.495   2.677   1.738  0.1884 -0.3940  0.2211
    3CHTO  C115  889   6.515   2.640   1.595  0.3751 -0.0451  0.1014
    3CHTO  H219  890   6.448   2.698   1.532 -0.6943  1.2090  2.3303
    3CHTO   O76  891   6.661   2.680   1.546 -0.0189 -0.1438 -0.4211
    3CHTO  C122  892   6.769   2.608   1.599  0.3828  0.3244 -0.2229
    3CHTO  H226  893   6.755   2.626   1.706 -0.4064  1.6053 -0.5328
    3CHTO  C126  894   6.912   2.663   1.561 -1.0200  0.4151 -0.3997
    3CHTO   O85  895   6.925   2.799   1.602  0.1050  0.0216 -0.1478
    3CHTO  H206  896   6.897   2.852   1.529  2.1444  1.1481 -0.1457
    3CHTO  C121  897   6.754   2.451   1.563  0.2132  0.3672  0.1527
    3CHTO  H225  898   6.832   2.427   1.487 -0.3955 -0.0081 -0.3591
    3CHTO   O81  899   6.796   2.374   1.677 -0.7359  0.2226  0.2359
    3CHTO  H202  900   6.727   2.346   1.734  2.1759 -1.6464  3.0619
    3CHTO  C119  901   6.616   2.415   1.497 -0.6882 -0.4394  0.2244
    3CHTO  H223  902   6.623   2.453   1.395 -3.1306 -2.0612 -0.5785
    3CHTO  C117  903   6.497   2.483   1.573  0.6354 -0.0296  0.0947
    3CHTO  H221  904   6.484   2.437   1.671  0.1415  3.1791  1.6146
    3CHTO   N20  905   6.367   2.453   1.509 -0.1284  0.4745  0.0394
    3CHTO  H209  906   6.365   2.517   1.422  2.4306  1.3982  0.5985
    3CHTO  H210  907   6.382   2.359   1.458  1.0345  0.8530 -0.3185
    3CHTO   O80  908   6.602   2.254   1.457 -0.4676 -0.7180 -0.4437
    3CHTO  C103  909   6.607   2.143   1.557 -0.0951 -0.4798 -0.1932
    3CHTO  H190  910   6.693   2.145   1.624  0.0462  1.4777 -0.3999
    3CHTO  C101  911   6.471   2.134   1.641  0.2021  0.7545 -1.1252
    3CHTO  H188  912   6.396   2.179   1.576 -0.3937  0.3021 -0.7554
    3CHTO   O68  913   6.496   2.214   1.754 -0.2316 -0.0116  0.1738
    3CHTO  H168  914   6.417   2.251   1.789 -1.2415 -0.8185 -1.1907
    3CHTO   C99  915   6.434   1.983   1.679 -1.0126  0.7569  0.3294
    3CHTO  H186  916   6.489   1.954   1.771  0.6971  1.5538 -0.4147
    3CHTO   N17  917   6.290   1.971   1.705  0.2299 -0.0684 -0.1840
    3CHTO  H174  918   6.261   1.932   1.802  1.9886  0.0223  0.3963
    3CHTO  H175  919   6.226   1.935   1.626 -0.3436 -0.0588  0.2645
    3CHTO   C97  920   6.460   1.875   1.568 -0.3636  0.4370 -0.4757
    3CHTO  H184  921   6.396   1.888   1.480 -1.9219 -0.4604  0.5157
    3CHTO   O64  922   6.601   1.889   1.533 -0.3689  0.1305 -0.0017
    3CHTO  C104  923   6.621   2.018   1.458 -0.2933  0.3390  0.3105
    3CHTO  H191  924   6.543   2.028   1.382 -0.2703  0.5452  0.3161
    3CHTO  C108  925   6.759   2.017   1.380  0.1265  0.4190 -0.4039
    3CHTO   O71  926   6.858   2.022   1.478  0.0672 -0.4473 -0.0757
    3CHTO  H171  927   6.942   1.994   1.447  0.8093  1.6897 -0.0286
    3CHTO   O62  928   6.455   1.738   1.617 -0.2567  0.0333 -0.3559
    3CHTO   C91  929   6.356   1.655   1.550 -0.3094 -0.1197 -0.2263
    3CHTO  H178  930   6.271   1.719   1.526 -0.8567 -1.2001 -1.2630
    3CHTO   C92  931   6.300   1.536   1.635  0.2238 -0.2588  0.0818
    3CHTO  H179  932   6.384   1.482   1.681 -0.5090  0.0036  1.7486
    3CHTO   O66  933   6.240   1.596   1.747  0.1814 -0.0727 -0.5947
    3CHTO  H166  934   6.165   1.553   1.783  0.6807  0.6757  1.3952
    3CHTO   C93  935   6.200   1.436   1.575  0.2109  0.3404 -0.6846
    3CHTO  H180  936   6.097   1.475   1.584 -0.0338 -0.0328 -1.7860
    3CHTO   N16  937   6.203   1.307   1.651  0.2814 -0.2485 -0.3902
    3CHTO  H172  938   6.118   1.248   1.621  0.3161 -0.4392 -0.1098
    3CHTO  H173  939   6.296   1.258   1.626 -0.7168 -1.8862 -0.9728
    3CHTO   C94  940   6.225   1.421   1.419 -0.1006  0.3570  0.4690
    3CHTO  H181  941   6.211   1.320   1.382  0.9940  0.1680  0.5785
    3CHTO   O61  942   6.361   1.454   1.384 -0.2662  0.1177 -0.0640
    3CHTO   C95  943   6.416   1.587   1.415 -0.1551  0.0270 -0.1673
    3CHTO  H182  944   6.524   1.574   1.428  0.1641  0.7734 -1.8666
    3CHTO  C106  945   6.397   1.678   1.285  0.1633  0.3470  0.1372
    3CHTO   O69  946   6.456   1.638   1.160  0.2219  0.1134  0.3037
    3CHTO  H169  947   6.454   1.545   1.155 -0.7327  0.1877 -1.1259
    3CHTO   O63  948   6.131   1.516   1.341  0.4221  0.0050  0.5270
    3CHTO   C96  949   5.986   1.459   1.315 -0.0534 -0.2201  0.1137
    3CHTO  H183  950   5.953   1.374   1.375  1.3899 -0.6591  0.3040
    3CHTO   C98  951   5.973   1.413   1.165  0.4546 -0.4382 -0.7802
    3CHTO  H185  952   6.015   1.493   1.102  0.9362 -0.4269 -0.4492
    3CHTO   O67  953   6.057   1.305   1.150  0.1962 -0.3550 -0.1712
    3CHTO  H167  954   6.101   1.292   1.068 -0.6015  1.7843 -0.9848
    3CHTO  C102  955   5.810   1.380   1.134  0.1080  0.0191 -0.4482
    3CHTO  H189  956   5.777   1.297   1.199  1.1748  0.0723  0.1738
    3CHTO   N18  957   5.783   1.336   1.002  0.5546  0.0404 -0.5828
    3CHTO  H176  958   5.870   1.285   0.964  1.8990  0.4030  1.8619
    3CHTO  H177  959   5.700   1.268   1.000  1.1708 -0.7003 -3.8422
    3CHTO  C105  960   5.729   1.508   1.176 -0.4192  0.0872 -0.7703
    3CHTO  H192  961   5.775   1.592   1.125 -1.6162 -0.1731 -2.2865
    3CHTO   O65  962   5.745   1.525   1.318  0.0440 -0.1960 -0.1555
    3CHTO  C100  963   5.881   1.569   1.345 -0.4578 -0.0138 -0.9701
    3CHTO  H187  964   5.904   1.657   1.283  0.8387  1.8508  2.0321
    3CHTO  C107  965   5.884   1.611   1.495 -0.1333 -0.0117 -0.1413
    3CHTO   O70  966   5.849   1.493   1.566  0.1190 -0.1689 -0.2157
    3CHTO  H170  967   5.761   1.498   1.597  0.5052  0.4822  0.7979
    3CHTO   O57  968   5.576   1.518   1.122  0.1166 -0.0779 -0.0888
    3CHTO   C85  969   5.531   1.600   1.021  0.1930  0.6740  0.5222
    3CHTO  H157  970   5.586   1.577   0.927  0.2603  1.2731  0.4131
    3CHTO   C83  971   5.566   1.751   1.054  0.4695  0.2692  0.3652
    3CHTO  H155  972   5.675   1.756   1.057  0.5682 -2.1960  2.0715
    3CHTO   O56  973   5.522   1.776   1.191  0.3162 -0.6538  0.3407
    3CHTO  H135  974   5.532   1.865   1.216 -0.6488 -0.6154  0.5892
    3CHTO   C81  975   5.515   1.842   0.937  0.3433  0.2149  0.5527
    3CHTO  H153  976   5.562   1.815   0.843  1.1912 -2.6787  1.7665
    3CHTO   N14  977   5.560   1.984   0.961  0.0584  0.1261 -0.0590
    3CHTO  H141  978   5.493   2.019   1.037  0.2497 -0.5677  0.4325
    3CHTO  H142  979   5.660   1.984   0.998 -0.1718 -1.7618  0.6092
    3CHTO   C79  980   5.357   1.822   0.921  0.3377  0.1891 -0.1345
    3CHTO  H151  981   5.328   1.877   0.831  3.2612  0.4209 -0.9943
    3CHTO   O52  982   5.315   1.681   0.901 -0.0075  0.2690  0.2279
    3CHTO   C86  983   5.373   1.587   0.999  0.2274 -0.2502  0.4521
    3CHTO  H158  984   5.313   1.611   1.089 -1.5461  0.9634 -1.0171
    3CHTO   C90  985   5.324   1.450   0.955  0.1069  0.0485  0.2781
    3CHTO   O60  986   5.394   1.423   0.831  0.5113  0.3353  0.4162
    3CHTO  H138  987   5.341   1.373   0.771  1.5663 -1.5764  1.0230
    3CHTO   O50  988   5.283   1.869   1.034  0.2416 -0.1807 -0.5976
    3CHTO   C73  989   5.150   1.916   1.049  0.1221 -0.3612 -1.2203
    3CHTO  H145  990   5.083   1.838   1.010 -0.2859 -0.1532 -0.9448
    3CHTO   C74  991   5.122   2.048   0.963  0.6893  0.1445 -0.4959
    3CHTO  H146  992   5.144   2.034   0.856 -1.9540 -3.8827 -0.6311
    3CHTO   O54  993   4.987   2.083   0.974  0.2118  0.0505 -0.0494
    3CHTO  H133  994   4.927   2.012   0.989 -0.8210  0.6824 -1.1893
    3CHTO   C75  995   5.209   2.159   1.034  0.3474 -0.2389 -0.1957
    3CHTO  H147  996   5.315   2.131   1.025  0.6657  1.3347 -1.6830
    3CHTO   N13  997   5.192   2.294   0.975 -0.0512 -0.4257 -0.2560
    3CHTO  H139  998   5.164   2.369   1.047  1.6210  0.8107 -0.8478
    3CHTO  H140  999   5.274   2.325   0.910 -1.5201  0.9646 -1.4936
    3CHTO   C76 1000   5.188   2.165   1.200 -0.5630 -0.1856  0.1782
    3CHTO  H148 1001   5.091   2.208   1.222 -0.1836  1.0304 -0.4692
    3CHTO   O49 1002   5.198   2.028   1.259  0.1954  0.8800  0.0165
    3CHTO   C77 1003   5.117   1.932   1.200  0.0958  0.1554 -0.1270
    3CHTO  H149 1004   5.012   1.960   1.209  0.5299  1.4893  0.8692
    3CHTO   C88 1005   5.123   1.804   1.275 -0.4233  0.6585 -0.3094
    3CHTO   O58 1006   5.265   1.741   1.288  0.2763  0.2532  0.0888
    3CHTO  H136 1007   5.277   1.700   1.372 -1.2221 -0.3892  0.0019
    3CHTO   O51 1008   5.303   2.254   1.269  0.1724  0.4023 -0.1577
    3CHTO   C78 1009   5.306   2.219   1.436  0.5007 -1.3166 -0.2113
    3CHTO  H150 1010   5.238   2.138   1.472  0.0452 -1.3673 -1.1887
    3CHTO   C80 1011   5.262   2.357   1.503 -0.2417  0.5825  0.4630
    3CHTO  H152 1012   5.329   2.439   1.470  4.0252 -2.6175  0.7202
    3CHTO   O55 1013   5.127   2.376   1.455 -0.1455 -0.5068 -0.7168
    3CHTO  H134 1014   5.099   2.455   1.497  2.3475 -0.5893  1.2041
    3CHTO   C84 1015   5.271   2.352   1.664  0.2550 -0.1460 -0.3126
    3CHTO  H156 1016   5.182   2.300   1.698 -1.3361  1.7660 -1.4662
    3CHTO   N15 1017   5.251   2.491   1.718  0.3230 -0.4264 -0.0493
    3CHTO  H143 1018   5.156   2.524   1.680  2.4496  3.2705 -2.4531
    3CHTO  H144 1019   5.326   2.563   1.695  0.5215 -1.5157 -3.0309
    3CHTO   C87 1020   5.418   2.301   1.703  0.0122  0.6557  1.0475
    3CHTO  H159 1021   5.493   2.369   1.662 -0.4952  1.6050  1.6532
    3CHTO   O53 1022   5.441   2.165   1.630  0.5200  0.0842 -0.3517
    3CHTO   C82 1023   5.446   2.179   1.488 -0.0594 -0.4178 -0.4896
    3CHTO  H154 1024   5.516   2.257   1.458 -1.1167  0.4565 -0.7084
    3CHTO   C89 1025   5.495   2.039   1.431  0.4600 -0.4576 -0.2151
    3CHTO   O59 1026   5.511   2.036   1.289  0.4852 -0.3376  0.2050
    3CHTO  H137 1027   5.426   2.033   1.249 -0.3898  1.0869  1.8829
    3CHTO   O45 1028   5.406   2.267   1.864 -0.4400  0.0033  0.0784
    3CHTO   C67 1029   5.515   2.313   1.944  0.1782 -0.1585  0.1112
    3CHTO  H124 1030   5.601   2.312   1.878 -0.3493  2.5050 -0.6788
    3CHTO   C65 1031   5.487   2.458   2.000 -0.3205  0.0587 -0.2998
    3CHTO  H122 1032   5.392   2.501   1.968  0.3155  1.5531 -0.2364
    3CHTO   O44 1033   5.594   2.531   1.943 -0.2268 -0.2920 -0.5336
    3CHTO  H102 1034   5.576   2.623   1.938 -3.1816 -0.8377 -0.4941
    3CHTO   C63 1035   5.489   2.472   2.156  0.2323 -0.9381 -0.2595
    3CHTO  H120 1036   5.402   2.416   2.191 -0.0610  0.0432  0.6167
    3CHTO   N11 1037   5.469   2.611   2.218  0.3063  0.0847  0.6735
    3CHTO  H108 1038   5.553   2.631   2.280  0.9781 -0.0563 -0.1841
    3CHTO  H109 1039   5.386   2.613   2.286 -0.4312  0.6414 -0.2245
    3CHTO   C61 1040   5.607   2.393   2.213 -0.1519 -0.1827  0.5560
    3CHTO  H118 1041   5.578   2.371   2.317  2.2764  0.3636  1.3728
    3CHTO   O40 1042   5.637   2.258   2.154  0.3613  0.0148  0.0511
    3CHTO   C68 1043   5.539   2.202   2.056 -0.7451 -0.2493 -0.2100
    3CHTO  H125 1044   5.447   2.181   2.114  0.0605 -2.4567  0.3212
    3CHTO   C72 1045   5.589   2.070   1.997  0.4380  0.0901 -0.5905
    3CHTO   O48 1046   5.715   2.090   1.944  0.3192  0.2142 -0.0977
    3CHTO  H105 1047   5.780   2.068   2.008 -1.3965 -1.8548  0.9715
    3CHTO   O38 1048   5.733   2.463   2.211  0.1199 -0.3438  0.2393
    3CHTO   C55 1049   5.840   2.434   2.310 -0.0763  0.2034 -0.0391
    3CHTO  H112 1050   5.825   2.327   2.335  0.0455 -0.0019 -0.8515
    3CHTO   C56 1051   5.841   2.526   2.438  0.0723  0.0589  0.8489
    3CHTO  H113 1052   5.856   2.633   2.417 -1.8857  0.2516  0.3345
    3CHTO   O42 1053   5.711   2.527   2.505 -0.3769 -0.4917  0.3555
    3CHTO  H100 1054   5.655   2.585   2.458 -0.7719  0.1919  1.6655
    3CHTO   C57 1055   5.951   2.473   2.529 -0.0797  0.4219 -0.0102
    3CHTO  H114 1056   5.912   2.375   2.554 -0.2434  0.3240 -0.6367
    3CHTO   N10 1057   5.971   2.551   2.652  0.0722 -0.5050 -0.1241
    3CHTO  H106 1058   5.888   2.616   2.674  2.1436  1.6261  1.7212
    3CHTO  H107 1059   5.981   2.484   2.736  3.0587  0.6752  0.5232
    3CHTO   C58 1060   6.082   2.466   2.446  0.2728  0.0994 -0.5153
    3CHTO  H115 1061   6.120   2.567   2.419 -2.0149  1.2356  0.3592
    3CHTO   O37 1062   6.076   2.384   2.326  0.0404 -0.2566 -0.1302
    3CHTO   C59 1063   5.981   2.437   2.238  0.4661 -0.6730 -0.2579
    3CHTO  H116 1064   6.011   2.539   2.214 -1.5237 -0.5602 -2.4547
    3CHTO   C70 1065   5.974   2.355   2.111  0.2182 -0.0108 -0.2805
    3CHTO   O46 1066   6.095   2.351   2.041  0.6213 -0.7222 -0.1602
    3CHTO  H103 1067   6.081   2.283   1.978 -1.9807  0.0012 -0.4343
    3CHTO   O39 1068   6.193   2.391   2.537  0.3166  0.2731 -0.2224
    3CHTO   C60 1069   6.325   2.400   2.485 -0.2936 -0.5284  0.1509
    3CHTO  H117 1070   6.325   2.381   2.378  1.2991  1.4515 -0.2529
    3CHTO   C62 1071   6.384   2.545   2.504  0.0481 -0.3464  0.7861
    3CHTO  H119 1072   6.325   2.611   2.438  0.2096 -1.0711 -0.0958
    3CHTO   O43 1073   6.376   2.581   2.646 -0.5819  0.2915 -0.7956
    3CHTO  H101 1074   6.406   2.670   2.644  0.6054 -0.1311 -1.7837
    3CHTO   C66 1075   6.542   2.541   2.451 -0.3906  0.1105  0.4997
    3CHTO  H123 1076   6.542   2.521   2.344  0.0358  0.4527  0.4328
    3CHTO   N12 1077   6.606   2.677   2.464 -0.4625 -0.2110  0.0530
    3CHTO  H110 1078   6.699   2.681   2.409 -0.9221  0.1129 -0.7144
    3CHTO  H111 1079   6.536   2.756   2.441  1.2789  1.4184  0.2184
    3CHTO   C69 1080   6.627   2.432   2.513 -0.2513 -0.2278  0.5094
    3CHTO  H126 1081   6.629   2.445   2.624 -0.5548 -3.8928  1.0148
    3CHTO   O41 1082   6.547   2.297   2.484 -0.8851  0.1863 -0.4112
    3CHTO   C64 1083   6.409   2.291   2.550 -0.5286 -0.7015  0.8474
    3CHTO  H121 1084   6.412   2.319   2.657  0.0412 -0.9822  0.9064
    3CHTO   C71 1085   6.344   2.146   2.534  0.1373 -0.1000 -0.0631
    3CHTO   O47 1086   6.433   2.035   2.543  0.1121  0.2489  0.3370
    3CHTO  H104 1087   6.420   1.973   2.475 -0.1302  0.1117  0.5060
    3CHTO   O34 1088   6.779   2.425   2.453 -0.3779  0.3559 -0.3083
    3CHTO   C49 1089   6.870   2.341   2.357  0.1525  0.6978 -0.4591
    3CHTO   H91 1090   6.972   2.360   2.393  0.0248  1.2528 -0.3816
    3CHTO   C47 1091   6.843   2.379   2.211 -0.0177 -0.3115 -0.7421
    3CHTO   H89 1092   6.917   2.319   2.153 -1.6657 -0.0406 -3.1790
    3CHTO   O33 1093   6.867   2.520   2.198 -0.7943  0.1830  1.0141
    3CHTO   H70 1094   6.883   2.547   2.110 -0.6860  0.4127  1.1047
    3CHTO   C45 1095   6.700   2.327   2.167 -0.6017 -0.1132 -0.2435
    3CHTO   H87 1096   6.622   2.369   2.233 -0.0483 -0.4300  0.6136
    3CHTO    N8 1097   6.663   2.375   2.029 -0.2563  0.4477  0.4240
    3CHTO   H75 1098   6.711   2.310   1.959  0.7273  1.7986 -0.1807
    3CHTO   H76 1099   6.677   2.481   2.011  2.2958  0.8035  3.9320
    3CHTO   C43 1100   6.700   2.171   2.180 -0.4798 -0.2011 -0.4786
    3CHTO   H85 1101   6.604   2.128   2.152 -0.1963 -0.1649 -1.5149
    3CHTO   O29 1102   6.742   2.129   2.312 -0.1616 -0.1584 -0.0151
    3CHTO   C50 1103   6.854   2.188   2.383 -0.0969  0.0789  0.0899
    3CHTO   H92 1104   6.846   2.167   2.491  2.6289  0.5087  0.3982
    3CHTO   C54 1105   6.982   2.105   2.357 -0.6815 -0.1798 -0.6235
    3CHTO   O36 1106   6.953   1.973   2.406  0.4648 -0.5018 -0.1917
    3CHTO   H72 1107   6.923   1.917   2.337  0.6447 -0.2399 -0.4798
    3CHTO   O27 1108   6.778   2.092   2.080 -0.1593  0.5835  0.1888
    3CHTO   C37 1109   6.807   1.966   2.014  0.1166 -0.4838 -0.4655
    3CHTO   H79 1110   6.888   1.917   2.070 -1.0646 -1.4315  0.4454
    3CHTO   C38 1111   6.687   1.871   2.026 -0.3839 -0.2691 -0.4337
    3CHTO   H80 1112   6.599   1.921   1.983 -0.2194 -0.2625 -0.7674
    3CHTO   O31 1113   6.671   1.840   2.168 -0.1103 -0.1877 -0.3442
    3CHTO   H68 1114   6.628   1.913   2.210 -0.2631  0.5886 -1.8201
    3CHTO   C39 1115   6.712   1.725   1.962 -0.2494  0.3663  0.5233
    3CHTO   H81 1116   6.771   1.660   2.026 -0.1981 -1.4721 -1.3464
    3CHTO    N7 1117   6.588   1.644   1.950  0.4610 -0.1504 -0.0364
    3CHTO   H73 1118   6.556   1.602   1.855 -0.3562 -2.7727  1.3399
    3CHTO   H74 1119   6.581   1.562   2.020 -1.7470 -0.0487 -0.0889
    3CHTO   C40 1120   6.774   1.740   1.821  0.4928  0.6705  0.5821
    3CHTO   H82 1121   6.693   1.749   1.749 -0.8709 -1.4385  1.7909
    3CHTO   O26 1122   6.870   1.843   1.808 -0.0532 -0.3883 -0.2317
    3CHTO   C41 1123   6.845   1.974   1.861 -0.5117 -0.9775 -0.3702
    3CHTO   H83 1124   6.764   2.031   1.812  1.3628  2.6652  0.5868
    3CHTO   C52 1125   6.971   2.059   1.838  0.3284  0.2679 -0.0325
    3CHTO   O35 1126   6.948   2.196   1.865  0.0680  0.2769  0.3796
    3CHTO   H71 1127   6.876   2.213   1.807 -0.7218  1.6787  1.7480
    3CHTO   O28 1128   6.858   1.625   1.791 -0.3322 -0.5065  0.0472
    3CHTO   C42 1129   6.876   1.570   1.652  0.3824  0.2506  0.0883
    3CHTO   H84 1130   6.960   1.501   1.665  1.1851  1.2025 -0.0355
    3CHTO   C44 1131   6.927   1.671   1.546  1.0106 -0.7946  0.3865
    3CHTO   H86 1132   6.852   1.748   1.532  1.4405 -0.5934 -0.8274
    3CHTO   O32 1133   7.042   1.746   1.597 -0.3920 -0.4198  0.2828
    3CHTO   H69 1134   7.111   1.741   1.533 -0.2651 -0.1792  0.4005
    3CHTO   C48 1135   6.959   1.590   1.408 -0.5609 -0.5868  0.4995
    3CHTO   H90 1136   7.041   1.518   1.413  0.5961  0.4664 -2.1661
    3CHTO    N9 1137   6.986   1.684   1.293 -0.4352 -0.3568  0.7329
    3CHTO   H77 1138   6.936   1.778   1.309  1.5793  0.5653  1.8116
    3CHTO   H78 1139   7.091   1.711   1.294 -0.1564 -1.2025 -1.9900
    3CHTO   C51 1140   6.833   1.500   1.373  0.2647  0.5241  0.2097
    3CHTO   H93 1141   6.748   1.557   1.335  1.3922  2.0895 -0.0092
    3CHTO   O30 1142   6.793   1.424   1.491 -0.4361 -0.2008 -0.6696
    3CHTO   C46 1143   6.758   1.486   1.604  0.1257  0.4614 -0.2680
    3CHTO   H88 1144   6.674   1.556   1.605 -0.5907 -0.4086  0.8294
    3CHTO   C53 1145   6.721   1.378   1.700 -0.0923 -0.0074 -0.1013
    3CHTO   O72 1146   6.601   1.313   1.650  0.3595 -0.5068 -0.1177
    3CHTO  H199 1147   6.535   1.330   1.715  2.7095  5.3050  1.0865
    3CHTO   O22 1148   6.873   1.406   1.271 -0.6159  0.7268  0.1469
    3CHTO   C31 1149   6.778   1.350   1.171 -0.3831  0.2058 -0.9384
    3CHTO   H59 1150   6.829   1.262   1.127 -1.0205 -1.1532  0.9766
    3CHTO   C29 1151   6.641   1.300   1.224  0.1306  0.0192  0.3120
    3CHTO   H57 1152   6.592   1.384   1.275  2.7267  0.5459  2.0725
    3CHTO   O21 1153   6.676   1.205   1.325  0.1607 -0.0210  0.1027
    3CHTO   H37 1154   6.705   1.123   1.289  0.2160  0.3974 -0.8108
    3CHTO   C27 1155   6.548   1.246   1.105 -0.0974  0.2588  0.0849
    3CHTO   H55 1156   6.602   1.162   1.058 -0.7255 -0.3523  0.4467
    3CHTO    N5 1157   6.419   1.192   1.154 -0.2932 -0.5676  0.3793
    3CHTO   H43 1158   6.400   1.088   1.131  0.3088 -0.4880 -0.5253
    3CHTO   H44 1159   6.362   1.231   1.237 -0.2614 -1.5678  0.8764
    3CHTO   C25 1160   6.546   1.356   0.993 -0.8167 -0.4720  0.4319
    3CHTO   H53 1161   6.514   1.454   1.031 -2.4625 -0.5233 -0.7703
    3CHTO   O17 1162   6.675   1.387   0.945 -0.3014  0.0602  0.1247
    3CHTO   C32 1163   6.751   1.451   1.049  0.0963 -0.5905 -0.6488
    3CHTO   H60 1164   6.705   1.544   1.086 -0.9752 -1.2230 -0.3618
    3CHTO   C36 1165   6.886   1.488   0.985 -0.7262  0.6769  0.1114
    3CHTO   O25 1166   6.864   1.584   0.883  0.4386 -0.3200 -1.0009
    3CHTO   H40 1167   6.915   1.563   0.808 -1.0760 -0.4691 -2.0206
    3CHTO   O15 1168   6.447   1.316   0.868  0.0700  0.0669 -0.3241
    3CHTO   C19 1169   6.385   1.424   0.787 -0.7523 -0.0792 -1.1132
    3CHTO   H47 1170   6.333   1.374   0.704 -0.1178 -0.1821 -1.4576
    3CHTO   C20 1171   6.271   1.485   0.867 -0.6020 -0.0262 -0.2118
    3CHTO   H48 1172   6.297   1.516   0.969  0.1204  0.6268 -0.5905
    3CHTO   O19 1173   6.171   1.385   0.897  0.4542  0.2515  0.0191
    3CHTO   H35 1174   6.165   1.367   0.989 -0.2883  0.3086 -0.0153
    3CHTO   C21 1175   6.210   1.614   0.790 -0.5918  0.1392 -0.9374
    3CHTO   H49 1176   6.154   1.585   0.702 -1.9296  1.6473 -0.6120
    3CHTO    N4 1177   6.118   1.695   0.873  0.0067  0.1229  0.2308
    3CHTO   H41 1178   6.150   1.741   0.966  0.6253 -1.0360  0.6088
    3CHTO   H42 1179   6.031   1.637   0.896 -0.1982 -0.2367 -1.3732
    3CHTO   C22 1180   6.321   1.706   0.731 -0.2985  0.3732 -0.1581
    3CHTO   H50 1181   6.380   1.752   0.811  0.3165 -1.8390  0.6968
    3CHTO   O14 1182   6.407   1.624   0.642  0.1007  0.0119  0.1614
    3CHTO   C23 1183   6.481   1.533   0.719  0.1579  0.3424  0.5840
    3CHTO   H51 1184   6.529   1.601   0.792  2.3141  0.4814 -0.9176
    3CHTO   C34 1185   6.591   1.466   0.636  0.0616 -0.3536 -1.1208
    3CHTO   O23 1186   6.689   1.562   0.602 -0.4178  0.2649  0.1886
    3CHTO   H38 1187   6.768   1.528   0.638 -0.9193 -0.5771  0.5090
    3CHTO   O16 1188   6.278   1.809   0.636  0.0361  0.0149  0.6280
    3CHTO   C24 1189   6.336   1.964   0.663  0.1559 -0.3119  0.4271
    3CHTO   H52 1190   6.391   1.968   0.758  0.5154 -1.5197  0.2751
    3CHTO   C26 1191   6.213   2.054   0.680  0.5203 -0.6274  0.0410
    3CHTO   H54 1192   6.142   2.029   0.599 -0.5721  0.4207  0.6457
    3CHTO   O20 1193   6.146   2.022   0.807  0.2151 -0.1636  0.6946
    3CHTO   H36 1194   6.206   2.023   0.878  0.6658  1.9231  0.3179
    3CHTO   C30 1195   6.257   2.207   0.678 -0.0554  0.1191 -0.0569
    3CHTO   H58 1196   6.303   2.232   0.775  1.1481  0.0867 -0.6028
    3CHTO    N6 1197   6.141   2.297   0.679  0.2088  0.2990  0.2380
    3CHTO   H45 1198   6.087   2.283   0.771  1.7300  1.3253  1.3034
    3CHTO   H46 1199   6.164   2.402   0.683 -0.8528  0.5019  1.3888
    3CHTO   C33 1200   6.360   2.233   0.564 -0.7084 -0.3228  0.0201
    3CHTO   H61 1201   6.308   2.222   0.467 -1.2065  1.7747  0.0254
    3CHTO   O18 1202   6.470   2.138   0.576  0.0100  0.3070  0.2953
    3CHTO   C28 1203   6.435   2.007   0.550 -0.3637  0.3277  0.3472
    3CHTO   H56 1204   6.388   2.008   0.452  2.0898  2.6808 -0.8763
    3CHTO   C35 1205   6.566   1.916   0.542  0.5794 -0.1541 -0.0855
    3CHTO   O24 1206   6.670   1.924   0.641 -0.2061  0.4130 -0.3139
    3CHTO   H39 1207   6.638   1.911   0.729  0.1704 -0.9340 -0.3611
    3CHTO    O9 1208   6.410   2.366   0.558  0.2234 -0.3398 -0.8688
    3CHTO   C13 1209   6.376   2.450   0.412  0.5409 -0.1252 -0.1063
    3CHTO   H26 1210   6.268   2.439   0.390 -0.2912  1.6075  2.7406
    3CHTO   C11 1211   6.466   2.389   0.300  0.0520 -0.1535  0.2417
    3CHTO   H24 1212   6.416   2.299   0.260  2.0170 -1.2960  0.3170
    3CHTO    O8 1213   6.594   2.353   0.355  0.0818  0.4186 -0.0199
    3CHTO    H3 1214   6.630   2.427   0.400  0.6761  1.3148 -1.9488
    3CHTO    C9 1215   6.460   2.489   0.183  0.2117  0.5128  0.4971
    3CHTO   H22 1216   6.353   2.509   0.164  0.8160  1.5386 -2.0331
    3CHTO    N2 1217   6.510   2.445   0.054 -0.1219 -0.2835 -0.0315
    3CHTO   H10 1218   6.602   2.389   0.059  0.7345  0.9767 -1.2463
    3CHTO   H11 1219   6.437   2.384   0.004 -0.9594 -0.7462  1.7090
    3CHTO    C7 1220   6.515   2.628   0.228 -0.4308  0.2645 -0.2339
    3CHTO   H20 1221   6.445   2.704   0.188 -0.6282 -0.4387 -1.2468
    3CHTO    O4 1222   6.503   2.647   0.372  0.3292 -0.1724 -0.0354
    3CHTO   C14 1223   6.381   2.607   0.434 -0.1396 -0.3998 -0.2358
    3CHTO   H27 1224   6.310   2.669   0.374  1.6118  0.4529 -1.4692
    3CHTO   C18 1225   6.374   2.665   0.581 -0.2563 -0.2538 -0.8569
    3CHTO   O13 1226   6.278   2.606   0.663 -0.7577  0.0302 -0.1226
    3CHTO    H7 1227   6.253   2.667   0.730  0.6917 -1.7154  2.1048
    3CHTO    O2 1228   6.685   2.669   0.179  0.1630  0.2936  0.7165
    3CHTO    C1 1229   6.730   2.812   0.187 -0.1777  0.2207 -0.4337
    3CHTO   H14 1230   6.838   2.809   0.163 -0.2322  1.0850 -0.8261
    3CHTO    C2 1231   6.703   2.891   0.320 -0.1528 -0.4970  0.5608
    3CHTO   H15 1232   6.597   2.872   0.341 -0.1026 -1.4536 -0.0238
    3CHTO    O6 1233   6.776   2.829   0.427 -0.0008  0.4114  0.2661
    3CHTO    H1 1234   6.861   2.863   0.445 -0.2464 -0.2221  2.7883
    3CHTO    C3 1235   6.737   3.047   0.304  0.2247  0.1395  0.4123
    3CHTO   H16 1236   6.846   3.067   0.301  0.1262  0.4950 -1.5868
    3CHTO    N1 1237   6.687   3.130   0.419 -0.4778  0.4350  0.0461
    3CHTO    H8 1238   6.749   3.127   0.507 -0.8837  0.9970  0.3517
    3CHTO    H9 1239   6.642   3.221   0.383 -2.0360 -0.9153 -1.4914
    3CHTO    C4 1240   6.679   3.106   0.169 -0.6145 -0.0109  0.9501
    3CHTO   H17 1241   6.570   3.108   0.179 -0.7341  2.6974 -0.2691
    3CHTO    O1 1242   6.724   3.026   0.065  0.4844  0.0801  0.4482
    3CHTO    C5 1243   6.681   2.890   0.065  0.2886 -0.3555  0.6625
    3CHTO   H18 1244   6.573   2.901   0.079  0.4110  1.0986  0.4744
    3CHTO   C16 1245   6.707   2.830  -0.075  0.0188 -0.6740  0.1222
    3CHTO   O11 1246   6.847   2.849  -0.119  0.4398  0.3757  0.1442
    3CHTO    H5 1247   6.864   2.940  -0.131  1.2815  0.2971  0.6771
    3CHTO    O3 1248   6.726   3.238   0.138  0.1824 -0.0404 -0.0434
    3CHTO    C6 1249   6.621   3.313   0.064 -0.4790  0.0645  0.1451
    3CHTO   H19 1250   6.535   3.252   0.039 -1.2472  1.5030 -0.7676
    3CHTO    C8 1251   6.572   3.426   0.147 -0.0962  0.2275 -0.0211
    3CHTO   H21 1252   6.658   3.488   0.173  0.4500 -1.3985  2.2125
    3CHTO    O7 1253   6.511   3.364   0.262 -0.0975  0.1276 -0.1656
    3CHTO    H2 1254   6.580   3.341   0.321  1.2328  0.5764 -1.5439
    3CHTO   C12 1255   6.467   3.531   0.069  0.1294  0.3502  0.2944
    3CHTO   H25 1256   6.367   3.483   0.065 -0.2970  1.3059 -0.7161
    3CHTO    N3 1257   6.450   3.650   0.158 -0.2394 -0.3333 -0.4342
    3CHTO   H12 1258   6.552   3.677   0.178 -0.1903 -1.6555  1.1051
    3CHTO   H13 1259   6.395   3.627   0.248  1.6590 -0.1060  0.7937
    3CHTO   C15 1260   6.513   3.556  -0.075 -0.3499 -0.2308 -0.0265
    3CHTO   H28 1261   6.588   3.635  -0.081 -1.7348  1.1626  0.8031
    3CHTO   O10 1262   6.403   3.595  -0.172  0.2372 -0.1631  0.8849
    3CHTO    H4 1263   6.336   3.529  -0.173 -0.3254  0.3962  0.8951
    3CHTO    O5 1264   6.576   3.441  -0.141 -0.0069  0.0962  0.2266
    3CHTO   C10 1265   6.677   3.372  -0.065 -0.1794  0.1322 -0.6300
    3CHTO   H23 1266   6.753   3.447  -0.044  1.3597 -1.2215 -1.2407
    3CHTO   C17 1267   6.739   3.263  -0.156  0.9602 -0.2005  0.2948
    3CHTO   O12 1268   6.640   3.158  -0.198  0.4809 -0.7658 -0.7802
    3CHTO    H6 1269   6.688   3.079  -0.215 -0.4090 -1.0732 -1.9172
    4CHTO  H203 1270   6.548   6.596   1.748  1.8559 -1.3889 -0.5140
    4CHTO   O82 1271   6.609   6.613   1.817  0.4258  0.1481  0.4106
    4CHTO  C123 1272   6.696   6.729   1.802 -0.3140  0.8145 -0.6993
    4CHTO  H227 1273   6.757   6.745   1.892  1.0436 -0.6258 -1.3295
    4CHTO   O77 1274   6.789   6.692   1.696  0.5884 -0.1786 -0.0621
    4CHTO  C118 1275   6.901   6.779   1.667  0.1607  0.4747  0.0795
    4CHTO  H222 1276   6.959   6.783   1.760  0.1096 -0.2340  0.1466
    4CHTO  C125 1277   6.981   6.701   1.554  0.5314  0.0067  0.6651
    4CHTO   O84 1278   6.908   6.705   1.425 -0.2131 -0.3061 -0.4840
    4CHTO  H205 1279   6.940   6.780   1.379 -1.0867  0.7601  0.6284
    4CHTO  C114 1280   6.844   6.915   1.624  0.1281  0.3863  0.9029
    4CHTO  H218 1281   6.794   6.904   1.527  0.1007 -0.3231  0.9956
    4CHTO  C116 1282   6.733   6.966   1.724 -0.2426  0.2475 -0.1433
    4CHTO  H220 1283   6.771   7.003   1.821  0.0643 -3.5108  1.2524
    4CHTO   O79 1284   6.662   7.081   1.669  0.2606  0.1383 -0.0776
    4CHTO  H201 1285   6.717   7.155   1.650 -1.7600  1.7575  0.1164
    4CHTO  C120 1286   6.627   6.860   1.763 -0.2914  0.0077  0.8106
    4CHTO  H224 1287   6.570   6.839   1.671  1.1263  1.5035 -0.4381
    4CHTO   N21 1288   6.536   6.904   1.875 -0.5721 -0.0576  0.2254
    4CHTO  H211 1289   6.557   6.891   1.980  0.5726 -0.6589 -0.0748
    4CHTO  H212 1290   6.431   6.889   1.853 -0.7684  1.4489  0.1166
    4CHTO   O75 1291   6.947   7.013   1.608 -0.4169  0.3433 -0.0473
    4CHTO  C112 1292   7.027   7.040   1.447  0.7370 -0.0041  0.8925
    4CHTO  H216 1293   6.954   7.003   1.373  1.7085 -2.3640  1.0702
    4CHTO   O73 1294   7.150   6.967   1.435 -0.1614 -0.4401 -0.9157
    4CHTO  C113 1295   7.214   6.988   1.308 -0.1922  0.3828  0.0961
    4CHTO  H217 1296   7.138   6.958   1.232 -1.8014 -0.1091  1.8480
    4CHTO  C124 1297   7.330   6.886   1.296 -0.3282  0.3479  0.3081
    4CHTO   O83 1298   7.282   6.750   1.293  0.0079 -0.2471 -0.2564
    4CHTO  H204 1299   7.294   6.728   1.384  2.4587  1.0737 -0.2077
    4CHTO  C109 1300   7.259   7.134   1.296 -0.0358  0.2325 -0.5228
    4CHTO  H213 1301   7.312   7.155   1.390 -0.0863  0.2351 -0.4950
    4CHTO  C110 1302   7.132   7.219   1.287 -0.0029 -0.8829 -0.1618
    4CHTO  H214 1303   7.069   7.189   1.202 -1.0231  0.7481  0.0019
    4CHTO   O78 1304   7.168   7.358   1.276 -0.5267 -0.0740  0.0838
    4CHTO  H200 1305   7.111   7.408   1.221  0.4370 -0.9515 -1.7700
    4CHTO  C111 1306   7.050   7.191   1.419 -0.1894  0.6577 -0.1332
    4CHTO  H215 1307   7.108   7.224   1.507  0.1250 -0.7734  0.2108
    4CHTO   N19 1308   6.915   7.252   1.431 -0.4213 -0.4337  0.1033
    4CHTO  H207 1309   6.843   7.208   1.364 -0.4422 -2.0198  1.1499
    4CHTO  H208 1310   6.884   7.235   1.534  0.4175  1.5551  0.7184
    4CHTO   O74 1311   7.353   7.161   1.185 -0.3942  0.1887  0.4923
    4CHTO  C115 1312   7.486   7.241   1.223  0.2394  0.7551  0.3354
    4CHTO  H219 1313   7.470   7.306   1.309 -0.7174  0.8445  0.0932
    4CHTO   O76 1314   7.595   7.145   1.271  0.2343  0.0025  0.1168
    4CHTO  C122 1315   7.647   7.071   1.161 -0.1644 -0.3523 -0.3433
    4CHTO  H226 1316   7.568   7.006   1.123 -1.7856  2.1172 -1.2979
    4CHTO  C126 1317   7.749   6.968   1.223 -0.5768 -0.2584 -0.3451
    4CHTO   O85 1318   7.672   6.882   1.308 -0.0564 -0.5724 -0.0521
    4CHTO  H206 1319   7.718   6.873   1.389  0.5186 -0.4236 -0.3642
    4CHTO  C121 1320   7.710   7.162   1.044 -0.4147 -0.3111 -0.1348
    4CHTO  H225 1321   7.817   7.158   1.072 -0.3324  0.3898 -0.3380
    4CHTO   O81 1322   7.676   7.091   0.918 -0.1419 -0.2965  0.7591
    4CHTO  H202 1323   7.590   7.122   0.896  0.0325 -0.9178 -0.8899
    4CHTO  C119 1324   7.660   7.307   1.047 -0.3605 -0.0419  0.8020
    4CHTO  H223 1325   7.731   7.356   1.114  0.9748 -0.6579 -0.1239
    4CHTO  C117 1326   7.515   7.329   1.089 -0.0752  0.2714  0.1507
    4CHTO  H221 1327   7.445   7.295   1.012  0.8898  0.3190 -0.7542
    4CHTO   N20 1328   7.479   7.473   1.107 -0.2955  0.2286 -1.1402
    4CHTO  H209 1329   7.444   7.494   1.207  0.9733 -0.8397 -0.4626
    4CHTO  H210 1330   7.551   7.543   1.066 -0.2117 -0.0045 -1.3866
    4CHTO   O80 1331   7.696   7.376   0.909 -0.0959  0.1390  0.1709
    4CHTO  C103 1332   7.787   7.519   0.906  0.1667  0.4154  0.6932
    4CHTO  H190 1333   7.733   7.595   0.963 -1.0273  0.8807 -1.0315
    4CHTO  C101 1334   7.942   7.514   0.941  0.1309  0.7315 -0.0634
    4CHTO  H188 1335   7.993   7.424   0.906 -2.0841 -0.7881  0.5595
    4CHTO   O68 1336   7.943   7.517   1.104  0.2840 -0.8615  0.4843
    4CHTO  H168 1337   7.889   7.449   1.139  0.5730 -0.4429  1.7556
    4CHTO   C99 1338   8.015   7.642   0.889  0.1738 -0.2110 -0.2212
    4CHTO  H186 1339   7.974   7.734   0.936 -0.3067 -0.8031  0.5199
    4CHTO   N17 1340   8.172   7.631   0.915  0.4028  0.0033  0.7607
    4CHTO  H174 1341   8.197   7.626   1.020 -2.5344  0.3872  1.5253
    4CHTO  H175 1342   8.213   7.545   0.865 -1.1510 -0.7156  0.6940
    4CHTO   C97 1343   7.988   7.662   0.729  0.4532 -0.3781 -0.6139
    4CHTO  H184 1344   8.027   7.578   0.669  0.0723 -1.5233  0.6924
    4CHTO   O64 1345   7.846   7.673   0.711  0.4617  0.8356 -0.1775
    4CHTO  C104 1346   7.770   7.555   0.759 -0.2681  0.3553 -0.6874
    4CHTO  H191 1347   7.792   7.467   0.700  0.9787  0.0831  0.1751
    4CHTO  C108 1348   7.625   7.583   0.734 -0.3332 -0.3184  0.1849
    4CHTO   O71 1349   7.603   7.589   0.584  0.4627 -0.0395 -0.5391
    4CHTO  H171 1350   7.511   7.601   0.570 -0.4909 -2.1035  3.3009
    4CHTO   O62 1351   8.037   7.788   0.683 -0.1076  0.0607  0.0516
    4CHTO   C91 1352   8.088   7.795   0.547  0.3272 -0.5077 -0.1752
    4CHTO  H178 1353   8.154   7.708   0.542  0.8255 -0.0762 -1.3957
    4CHTO   C92 1354   8.173   7.926   0.539 -0.2265 -0.4488  0.0137
    4CHTO  H179 1355   8.109   8.008   0.573 -0.2013 -0.7636  0.8181
    4CHTO   O66 1356   8.285   7.909   0.625 -0.0061 -0.2838 -0.6039
    4CHTO  H166 1357   8.359   7.874   0.580 -0.5425  0.0483 -1.7755
    4CHTO   C93 1358   8.219   7.953   0.387  0.6990  0.0544  0.1579
    4CHTO  H180 1359   8.279   7.871   0.344  1.3350  1.0812 -0.9762
    4CHTO   N16 1360   8.303   8.080   0.378  0.3432 -0.6590  0.7485
    4CHTO  H172 1361   8.405   8.047   0.368 -0.3340 -2.6562  0.3653
    4CHTO  H173 1362   8.299   8.139   0.468 -0.3727 -0.1248  0.3739
    4CHTO   C94 1363   8.090   7.968   0.296  0.8423  0.0746 -0.3762
    4CHTO  H181 1364   8.024   8.044   0.338  0.7923 -0.6590  0.9004
    4CHTO   O61 1365   8.016   7.847   0.297 -0.0102  0.1620 -0.1330
    4CHTO   C95 1366   7.978   7.789   0.426 -0.4641 -0.1859  0.5736
    4CHTO  H182 1367   7.890   7.842   0.461 -0.2849  0.3141  0.2686
    4CHTO  C106 1368   7.930   7.641   0.399 -0.8150  0.3975  0.3080
    4CHTO   O69 1369   7.821   7.654   0.311  0.1874 -0.4655 -0.3045
    4CHTO  H169 1370   7.748   7.651   0.370 -0.5767 -3.6510 -1.3000
    4CHTO   O63 1371   8.120   8.000   0.146  0.2637  0.5532 -0.6283
    4CHTO   C96 1372   7.987   8.061   0.077  0.0257  0.5533  0.0179
    4CHTO  H183 1373   7.908   8.073   0.151 -2.7686 -0.0958 -2.7906
    4CHTO   C98 1374   7.929   7.977  -0.037 -0.5060 -0.0225  0.6067
    4CHTO  H185 1375   8.006   7.960  -0.112 -2.1951 -1.2470 -0.8839
    4CHTO   O67 1376   7.899   7.851   0.020  0.0586  0.1778  0.1986
    4CHTO  H167 1377   7.899   7.779  -0.039  0.0434  0.3849 -0.0555
    4CHTO  C102 1378   7.797   8.043  -0.102  0.1650  0.2332 -0.2247
    4CHTO  H189 1379   7.719   8.026  -0.026  0.9210  0.5134  0.6234
    4CHTO   N18 1380   7.740   7.990  -0.231  0.6732  0.4438  0.1699
    4CHTO  H176 1381   7.639   7.957  -0.211  0.9008 -0.8733 -0.7844
    4CHTO  H177 1382   7.733   8.073  -0.299 -2.0741 -0.6485 -0.9777
    4CHTO  C105 1383   7.802   8.197  -0.093  0.1557  0.3460 -0.3611
    4CHTO  H192 1384   7.761   8.246  -0.182 -1.0650  0.8288  0.4666
    4CHTO   O65 1385   7.940   8.249  -0.076  0.3007  0.3356 -0.0682
    4CHTO  C100 1386   8.015   8.206   0.030  0.0178 -0.0668 -0.2383
    4CHTO  H187 1387   8.120   8.201  -0.004 -0.4556  1.4742 -1.9758
    4CHTO  C107 1388   8.003   8.314   0.149 -0.2342  0.1309  0.1527
    4CHTO   O70 1389   8.094   8.302   0.252 -0.2477  0.2558 -0.1136
    4CHTO  H170 1390   8.046   8.307   0.332  1.3073  0.5312  0.8094
    4CHTO   O57 1391   7.703   8.224   0.041  0.2182  0.0434  0.2342
    4CHTO   C85 1392   7.595   8.314   0.031 -0.1219  0.4055  0.2563
    4CHTO  H157 1393   7.608   8.360  -0.069  2.7702  0.5532  0.6477
    4CHTO   C83 1394   7.629   8.435   0.130  0.1228  0.0847 -0.1789
    4CHTO  H155 1395   7.732   8.462   0.106 -0.1100 -0.8329 -2.3295
    4CHTO   O56 1396   7.633   8.386   0.270 -0.2619 -0.1353  0.7211
    4CHTO  H135 1397   7.574   8.426   0.331 -1.7973 -0.4029 -0.5631
    4CHTO   C81 1398   7.537   8.548   0.099 -0.4904 -0.2286  0.5469
    4CHTO  H153 1399   7.548   8.575  -0.006  0.0373  1.7737  1.1056
    4CHTO   N14 1400   7.575   8.670   0.167  0.4576 -0.1263  0.3546
    4CHTO  H141 1401   7.504   8.746   0.141 -0.7357  0.4520  4.9245
    4CHTO  H142 1402   7.578   8.661   0.273 -2.4649 -0.2014  0.4773
    4CHTO   C79 1403   7.390   8.496   0.119  0.8250  0.6391  0.1867
    4CHTO  H151 1404   7.325   8.575   0.079 -0.2023 -0.6448 -0.7087
    4CHTO   O52 1405   7.360   8.378   0.031  0.6262  0.0869  0.4131
    4CHTO   C86 1406   7.452   8.266   0.056 -0.0685  0.0131 -0.0936
    4CHTO  H158 1407   7.431   8.232   0.159  0.3392 -1.1991 -0.4025
    4CHTO   C90 1408   7.428   8.142  -0.040  0.2585  0.1955  0.7811
    4CHTO   O60 1409   7.293   8.104  -0.040 -0.6952  0.3553  0.4535
    4CHTO  H138 1410   7.236   8.178  -0.048  1.0103  1.6465 -0.0389
    4CHTO   O50 1411   7.356   8.467   0.257  0.0867 -0.3166  0.4931
    4CHTO   C73 1412   7.237   8.475   0.336  0.0513  0.3569 -0.3880
    4CHTO  H145 1413   7.183   8.568   0.315  0.1090  0.7401  1.1396
    4CHTO   C74 1414   7.280   8.469   0.482 -0.2506 -0.0610  0.4121
    4CHTO  H146 1415   7.347   8.554   0.499 -0.3182 -0.2627  1.7497
    4CHTO   O54 1416   7.162   8.492   0.554 -0.4710 -0.2483  0.5118
    4CHTO  H133 1417   7.181   8.510   0.645  2.1046  2.9844 -0.5735
    4CHTO   C75 1418   7.353   8.326   0.515 -0.3522 -0.7950  0.1362
    4CHTO  H147 1419   7.447   8.321   0.458  1.0206  3.8261  1.7692
    4CHTO   N13 1420   7.390   8.294   0.651 -0.0398  0.4315 -0.4058
    4CHTO  H139 1421   7.345   8.370   0.713 -0.1254 -0.6071  0.8194
    4CHTO  H140 1422   7.497   8.291   0.666 -0.3525 -3.5491  1.5587
    4CHTO   C76 1423   7.257   8.210   0.465  0.3560  0.8446  0.6300
    4CHTO  H148 1424   7.162   8.219   0.517  0.3838 -0.6555  0.9533
    4CHTO   O49 1425   7.219   8.237   0.324  0.1971 -0.4383 -0.2473
    4CHTO   C77 1426   7.143   8.353   0.308  0.4503 -0.4732 -0.2970
    4CHTO  H149 1427   7.057   8.351   0.375  1.5046  3.0008  1.2771
    4CHTO   C88 1428   7.072   8.357   0.170  0.9140  0.3967  0.5010
    4CHTO   O58 1429   6.964   8.263   0.162  0.5030  0.4722  0.0004
    4CHTO  H136 1430   6.949   8.214   0.241  1.9006  0.2142  0.1198
    4CHTO   O51 1431   7.316   8.053   0.480 -0.3317 -0.3566  0.5609
    4CHTO   C78 1432   7.361   7.984   0.341  0.0699  0.6116  0.0058
    4CHTO  H150 1433   7.380   8.052   0.255  0.0775 -1.2284 -1.4632
    4CHTO   C80 1434   7.248   7.880   0.304  0.6881 -0.8460  0.4075
    4CHTO  H152 1435   7.209   7.829   0.394 -1.6269  0.8669  0.4156
    4CHTO   O55 1436   7.139   7.960   0.258  0.1190  1.3338 -0.3122
    4CHTO  H134 1437   7.064   7.954   0.314 -0.2578 -0.1417 -0.9583
    4CHTO   C84 1438   7.286   7.770   0.191  0.3926 -0.1677 -0.2145
    4CHTO  H156 1439   7.297   7.833   0.102  1.3010 -2.2882 -1.6552
    4CHTO   N15 1440   7.178   7.673   0.171  0.0993 -0.5944  0.2746
    4CHTO  H143 1441   7.199   7.610   0.087 -1.1131 -0.8679  0.1608
    4CHTO  H144 1442   7.086   7.724   0.152  1.9428  2.0702 -1.8061
    4CHTO   C87 1443   7.421   7.717   0.215  0.1419 -0.4965 -0.7072
    4CHTO  H159 1444   7.427   7.643   0.295  3.5524 -1.4375 -1.7512
    4CHTO   O53 1445   7.517   7.826   0.241  0.0100 -0.6443  0.5564
    4CHTO   C82 1446   7.489   7.901   0.358 -0.7970  0.8314 -0.1518
    4CHTO  H154 1447   7.466   7.835   0.441  0.2035 -0.3182 -0.7691
    4CHTO   C89 1448   7.615   7.980   0.405  0.1418 -0.3140 -0.2344
    4CHTO   O59 1449   7.654   8.068   0.295  0.6123  0.0252 -0.2200
    4CHTO  H137 1450   7.719   8.129   0.324  0.4341  0.0354  0.1561
    4CHTO   O45 1451   7.482   7.649   0.074 -0.1655  0.5937 -0.1198
    4CHTO   C67 1452   7.615   7.582   0.068  1.0350 -0.1628  0.5069
    4CHTO  H124 1453   7.702   7.645   0.089 -0.1757  1.3491  1.1018
    4CHTO   C65 1454   7.631   7.452   0.152  0.2956  0.4946  0.7292
    4CHTO  H122 1455   7.596   7.482   0.251 -3.4051  1.8978 -0.8918
    4CHTO   O44 1456   7.765   7.395   0.148  0.4321  0.1647  0.0583
    4CHTO  H102 1457   7.792   7.368   0.234  0.8617  1.6780  0.4089
    4CHTO   C63 1458   7.526   7.341   0.107 -0.6058 -0.2259 -0.0421
    4CHTO  H120 1459   7.425   7.382   0.112 -1.9644 -3.7320  4.6119
    4CHTO   N11 1460   7.508   7.222   0.199 -0.5147 -0.4369  0.1164
    4CHTO  H108 1461   7.416   7.235   0.252 -0.8442 -2.1688  0.0023
    4CHTO  H109 1462   7.497   7.133   0.141  2.5738 -0.4528 -0.5228
    4CHTO   C61 1463   7.544   7.298  -0.043  0.2802 -0.0414 -0.1992
    4CHTO  H118 1464   7.445   7.255  -0.064  0.3613 -0.9577  1.2275
    4CHTO   O40 1465   7.564   7.412  -0.132 -0.2891 -0.1990 -0.5158
    4CHTO   C68 1466   7.628   7.540  -0.085  0.0635 -0.2433  0.2240
    4CHTO  H125 1467   7.572   7.622  -0.135  1.6737  1.7170  1.5380
    4CHTO   C72 1468   7.766   7.535  -0.147 -0.0652 -0.1024 -0.2440
    4CHTO   O48 1469   7.760   7.526  -0.292  0.3510  0.2834 -0.3660
    4CHTO  H105 1470   7.802   7.445  -0.313 -1.6947 -0.6280 -1.0457
    4CHTO   O38 1471   7.654   7.204  -0.068 -0.1265  0.3877 -0.8278
    4CHTO   C55 1472   7.633   7.088  -0.161 -0.0267  0.1811 -0.1071
    4CHTO  H112 1473   7.535   7.112  -0.205  0.5695 -0.3837 -1.8183
    4CHTO   C56 1474   7.632   6.950  -0.086  0.5831 -0.4534 -0.2835
    4CHTO  H113 1475   7.729   6.944  -0.033 -0.3289 -1.2959  1.3284
    4CHTO   O42 1476   7.526   6.943   0.009 -0.4610 -0.4499 -0.0623
    4CHTO  H100 1477   7.551   6.930   0.098 -3.2351 -0.2370  0.7984
    4CHTO   C57 1478   7.619   6.832  -0.190 -0.7235  0.5431  0.6005
    4CHTO  H114 1479   7.517   6.841  -0.229 -0.3015  1.9965 -0.2079
    4CHTO   N10 1480   7.641   6.698  -0.126 -0.4928  0.3496  0.1646
    4CHTO  H106 1481   7.541   6.671  -0.095 -0.0109 -0.3073  1.1840
    4CHTO  H107 1482   7.701   6.699  -0.036 -1.6633  0.2004  0.9617
    4CHTO   C58 1483   7.719   6.857  -0.309 -0.4552  0.1526 -0.6841
    4CHTO  H115 1484   7.825   6.844  -0.280 -0.6451  0.1676  0.0171
    4CHTO   O37 1485   7.694   6.988  -0.365  0.2703 -0.2138 -0.1323
    4CHTO   C59 1486   7.734   7.094  -0.283 -0.4400 -0.1883 -0.0954
    4CHTO  H116 1487   7.837   7.077  -0.248 -0.9543  2.3203  2.8518
    4CHTO   C70 1488   7.718   7.223  -0.365 -0.4944 -0.5971  0.3256
    4CHTO   O46 1489   7.809   7.219  -0.474  0.1057 -0.4965 -0.1386
    4CHTO  H103 1490   7.802   7.294  -0.529  0.2751 -0.2482  0.1709
    4CHTO   O39 1491   7.694   6.733  -0.432 -0.7774 -0.3542  0.1955
    4CHTO   C60 1492   7.588   6.763  -0.531 -0.1373  0.3051  0.5591
    4CHTO  H117 1493   7.504   6.810  -0.481 -2.1389 -0.0622 -2.2881
    4CHTO   C62 1494   7.638   6.853  -0.643  0.3865  0.5688 -0.4578
    4CHTO  H119 1495   7.653   6.950  -0.591 -0.9819  1.7022 -2.1261
    4CHTO   O43 1496   7.767   6.805  -0.698 -0.1715 -0.2511  0.3560
    4CHTO  H101 1497   7.745   6.777  -0.785 -2.8025  1.0575  0.5319
    4CHTO   C66 1498   7.518   6.873  -0.755 -0.3535 -0.3881  0.0654
    4CHTO  H123 1499   7.431   6.918  -0.706 -0.3030 -0.8729  0.6067
    4CHTO   N12 1500   7.555   6.971  -0.852 -0.0837 -0.2262 -0.3623
    4CHTO  H110 1501   7.527   7.070  -0.821 -1.6922 -0.2806 -1.5741
    4CHTO  H111 1502   7.656   6.963  -0.890  0.3579 -2.2048  1.1239
    4CHTO   C69 1503   7.475   6.735  -0.810  0.3375  0.1361 -0.7037
    4CHTO  H126 1504   7.572   6.690  -0.841 -0.2058 -1.3941 -0.2026
    4CHTO   O41 1505   7.422   6.648  -0.678 -0.2672 -0.8606  0.6031
    4CHTO   C64 1506   7.535   6.628  -0.587 -0.0572  0.4526 -0.2362
    4CHTO  H121 1507   7.608   6.572  -0.649 -0.8559  1.1906 -1.8963
    4CHTO   C71 1508   7.497   6.533  -0.474  0.8750 -0.3810 -0.3008
    4CHTO   O47 1509   7.602   6.449  -0.432 -0.2578 -0.2119 -0.3345
    4CHTO  H104 1510   7.637   6.380  -0.486  0.8128  0.2313 -0.2339
    4CHTO   O34 1511   7.365   6.743  -0.926  0.1230  0.8969  0.4207
    4CHTO   C49 1512   7.391   6.646  -1.050 -0.6033  0.1946  0.7539
    4CHTO   H91 1513   7.489   6.671  -1.090 -1.0436 -0.1507 -0.5594
    4CHTO   C47 1514   7.288   6.672  -1.160 -0.4992  0.9239  0.6186
    4CHTO   H89 1515   7.328   6.630  -1.254 -1.0444  1.7726  0.0032
    4CHTO   O33 1516   7.271   6.815  -1.184 -0.4202 -0.0414  0.0558
    4CHTO   H70 1517   7.347   6.861  -1.214  0.6474 -0.6461  1.7472
    4CHTO   C45 1518   7.146   6.607  -1.118  0.5189  0.2190 -0.7517
    4CHTO   H87 1519   7.112   6.655  -1.025  0.6210 -0.3332 -0.4194
    4CHTO    N8 1520   7.041   6.627  -1.223  1.2596 -0.4029 -0.3926
    4CHTO   H75 1521   7.062   6.684  -1.312 -2.2299  2.1541  0.3043
    4CHTO   H76 1522   6.986   6.537  -1.243 -1.7625  0.8445  1.8999
    4CHTO   C43 1523   7.166   6.456  -1.072  0.1235  0.5728 -0.2579
    4CHTO   H85 1524   7.076   6.425  -1.019  0.9209 -0.1991  0.6705
    4CHTO   O29 1525   7.280   6.431  -0.992 -1.0065 -0.3469  0.5078
    4CHTO   C50 1526   7.398   6.495  -1.017 -0.6283  0.1165  0.5421
    4CHTO   H92 1527   7.467   6.495  -0.930  0.4968 -1.2005 -0.3390
    4CHTO   C54 1528   7.486   6.418  -1.122 -0.2627 -0.0087  0.1087
    4CHTO   O36 1529   7.530   6.296  -1.068 -0.4609 -0.0469 -0.1674
    4CHTO   H72 1530   7.622   6.284  -1.080 -0.1554  0.2072  1.8055
    4CHTO   O27 1531   7.177   6.370  -1.191  0.7642  0.2516 -0.3530
    4CHTO   C37 1532   7.153   6.230  -1.233  0.5739  0.8586 -0.1632
    4CHTO   H79 1533   7.132   6.226  -1.341  1.5738  1.1661 -0.3739
    4CHTO   C38 1534   7.283   6.147  -1.206  0.2873  0.4881  1.1266
    4CHTO   H80 1535   7.316   6.180  -1.107 -0.5310  4.6328  0.1303
    4CHTO   O31 1536   7.369   6.194  -1.317 -0.4574 -0.4638 -0.2857
    4CHTO   H68 1537   7.405   6.120  -1.363 -2.3156 -1.4332 -0.2235
    4CHTO   C39 1538   7.271   5.991  -1.214 -0.3009  0.5588  0.1063
    4CHTO   H81 1539   7.265   5.967  -1.320 -0.2402  2.9737 -0.4752
    4CHTO    N7 1540   7.400   5.925  -1.167  0.4000 -0.0532 -1.1829
    4CHTO   H73 1541   7.495   5.950  -1.212  1.6000 -3.0374 -0.4375
    4CHTO   H74 1542   7.413   5.950  -1.063 -2.4738 -1.3561 -0.4618
    4CHTO   C40 1543   7.140   5.943  -1.140 -0.2507  0.8119  0.2931
    4CHTO   H82 1544   7.151   5.944  -1.032 -1.9572 -0.3979  0.4979
    4CHTO   O26 1545   7.023   6.015  -1.182 -0.4271  0.3034 -0.6088
    4CHTO   C41 1546   7.030   6.162  -1.159 -0.2192 -0.6538 -0.1340
    4CHTO   H83 1547   7.038   6.172  -1.050  1.9627 -1.0400 -0.2246
    4CHTO   C52 1548   6.905   6.237  -1.213 -0.3950 -0.3424  0.0073
    4CHTO   O35 1549   6.779   6.225  -1.119 -0.0205  0.3256  0.6179
    4CHTO   H71 1550   6.766   6.140  -1.082 -1.6162  0.1593 -0.3206
    4CHTO   O28 1551   7.103   5.809  -1.183  0.2682 -0.4815 -0.4557
    4CHTO   C42 1552   7.027   5.717  -1.096  0.1612  0.1455 -0.0526
    4CHTO   H84 1553   7.006   5.635  -1.166  0.3748  0.9649 -1.0854
    4CHTO   C44 1554   6.891   5.770  -1.040 -0.0851  0.4231 -0.5391
    4CHTO   H86 1555   6.909   5.864  -0.986 -2.6150 -0.2316  1.5738
    4CHTO   O32 1556   6.820   5.789  -1.159  0.8498 -0.4043  0.1030
    4CHTO   H69 1557   6.844   5.871  -1.197 -1.0760 -0.3828 -1.1390
    4CHTO   C48 1558   6.822   5.667  -0.938  1.4409 -0.2729 -0.0509
    4CHTO   H90 1559   6.799   5.582  -1.002  3.4622 -0.5086 -0.4816
    4CHTO    N9 1560   6.692   5.717  -0.889 -0.0226  0.2215 -0.6671
    4CHTO   H77 1561   6.711   5.715  -0.782  0.6837 -3.4002 -0.8000
    4CHTO   H78 1562   6.605   5.659  -0.914 -0.2333  0.4045 -0.3578
    4CHTO   C51 1563   6.931   5.623  -0.839  0.2541  0.3599 -0.3311
    4CHTO   H93 1564   6.954   5.715  -0.785 -0.5220 -0.0912  0.7989
    4CHTO   O30 1565   7.043   5.565  -0.897  0.7524  0.0913  0.0853
    4CHTO   C46 1566   7.122   5.662  -0.982  0.0513 -0.5765 -0.0277
    4CHTO   H88 1567   7.149   5.753  -0.927  0.3667 -1.0944  0.6889
    4CHTO   C53 1568   7.246   5.592  -1.041  0.2142 -0.1753  0.5607
    4CHTO   O72 1569   7.320   5.555  -0.923  0.4276  0.3954  0.0159
    4CHTO  H199 1570   7.376   5.481  -0.938  0.6739  0.4391  0.7015
    4CHTO   O22 1571   6.881   5.517  -0.758 -0.4731 -0.1747 -0.4074
    4CHTO   C31 1572   6.875   5.513  -0.603 -0.4264  0.4588  0.0092
    4CHTO   H59 1573   6.899   5.408  -0.576 -1.1820  0.3947  0.4493
    4CHTO   C29 1574   6.987   5.607  -0.552  0.1530 -0.2007 -0.6363
    4CHTO   H57 1575   6.966   5.704  -0.600  0.3497 -0.5597 -1.4665
    4CHTO   O21 1576   7.110   5.549  -0.591 -0.6288  0.4139  0.0273
    4CHTO   H37 1577   7.185   5.603  -0.575  0.0788 -0.8851  1.2427
    4CHTO   C27 1578   6.982   5.625  -0.395  0.5857  0.2980 -0.2674
    4CHTO   H55 1579   7.015   5.530  -0.352  1.6981 -0.1154 -2.0167
    4CHTO    N5 1580   7.075   5.735  -0.361 -0.2075 -0.2691 -0.2896
    4CHTO   H43 1581   7.048   5.830  -0.405  0.2073  0.0542  0.1625
    4CHTO   H44 1582   7.177   5.704  -0.375  1.0330  2.8934  1.4014
    4CHTO   C25 1583   6.829   5.654  -0.347 -0.3105  0.2733  0.0083
    4CHTO   H53 1584   6.789   5.742  -0.399 -2.1094 -0.7932 -0.4725
    4CHTO   O17 1585   6.747   5.538  -0.392  0.1203 -0.6604 -0.2840
    4CHTO   C32 1586   6.739   5.540  -0.535 -0.4947  0.2552 -0.4409
    4CHTO   H60 1587   6.703   5.639  -0.562 -0.9101  0.0519 -0.6327
    4CHTO   C36 1588   6.641   5.432  -0.590 -0.2081  0.1511 -0.4559
    4CHTO   O25 1589   6.505   5.464  -0.547 -0.1049 -0.0273 -0.1540
    4CHTO   H40 1590   6.462   5.398  -0.495 -0.6718  2.0252  2.0178
    4CHTO   O15 1591   6.821   5.676  -0.197  0.5240 -0.0211  0.5230
    4CHTO   C19 1592   6.843   5.655  -0.055  0.2155  0.5447  0.2318
    4CHTO   H47 1593   6.755   5.696  -0.003 -0.1047  1.9697 -1.3854
    4CHTO   C20 1594   6.866   5.496  -0.040 -0.1631  0.6037 -1.1594
    4CHTO   H48 1595   6.944   5.459  -0.108  0.1949 -0.5852 -0.1189
    4CHTO   O19 1596   6.731   5.436  -0.066 -0.9965  0.4247 -0.0609
    4CHTO   H35 1597   6.691   5.387   0.004 -1.9096  0.9643 -0.1946
    4CHTO   C21 1598   6.924   5.467   0.109 -0.7139 -0.2344 -0.0010
    4CHTO   H49 1599   6.856   5.508   0.183  1.0738  3.2038 -0.1362
    4CHTO    N4 1600   6.939   5.319   0.127  0.0373  0.1785  0.4411
    4CHTO   H41 1601   6.901   5.261   0.044 -0.2046  0.7443  0.1490
    4CHTO   H42 1602   7.043   5.292   0.140 -0.7041 -2.4520  1.1205
    4CHTO   C22 1603   7.049   5.554   0.129 -0.1575  0.4187 -0.1192
    4CHTO   H50 1604   7.114   5.533   0.044  0.1966  1.8833 -0.2208
    4CHTO   O14 1605   7.013   5.695   0.125  0.0776 -0.2947 -0.1352
    4CHTO   C23 1606   6.967   5.741  -0.012 -0.8863  0.1610  0.0471
    4CHTO   H51 1607   7.049   5.738  -0.085 -0.9528 -0.8046  0.0076
    4CHTO   C34 1608   6.930   5.887  -0.008  0.4747  0.3532 -0.0708
    4CHTO   O23 1609   7.047   5.963  -0.005 -0.1369  0.1464  0.3633
    4CHTO   H38 1610   7.055   6.023   0.067  1.3052  1.1888 -0.6270
    4CHTO   O16 1611   7.116   5.519   0.253 -0.3146 -0.5649  0.1197
    4CHTO   C24 1612   7.190   5.611   0.330  0.5423 -0.3167  0.2240
    4CHTO   H52 1613   7.142   5.709   0.338  2.2931  0.5492  0.3649
    4CHTO   C26 1614   7.328   5.636   0.265 -0.2227  0.2387 -0.1976
    4CHTO   H54 1615   7.373   5.537   0.241 -1.2866 -0.3673  0.2577
    4CHTO   O20 1616   7.306   5.710   0.138 -0.5473 -0.1702  0.0012
    4CHTO   H36 1617   7.385   5.703   0.088 -1.6822 -1.0538 -1.7262
    4CHTO   C30 1618   7.415   5.717   0.366 -0.2982 -0.1566 -0.0705
    4CHTO   H58 1619   7.375   5.819   0.367 -0.4922 -0.2324  0.3189
    4CHTO    N6 1620   7.549   5.738   0.307 -0.1944  0.1080  0.3080
    4CHTO   H45 1621   7.571   5.712   0.205  1.4794  0.7261  0.4911
    4CHTO   H46 1622   7.579   5.840   0.325  0.6562 -0.5247  2.7373
    4CHTO   C33 1623   7.414   5.659   0.506 -0.9233 -0.3538 -0.5783
    4CHTO   H61 1624   7.467   5.562   0.504  1.3815  0.7518  2.8781
    4CHTO   O18 1625   7.276   5.637   0.550  0.3922 -0.1518  0.4124
    4CHTO   C28 1626   7.196   5.549   0.466 -0.0191 -0.3745  0.4107
    4CHTO   H56 1627   7.238   5.448   0.468  4.3519  1.3780  2.2488
    4CHTO   C35 1628   7.059   5.556   0.534 -0.1753  0.4009 -0.4299
    4CHTO   O24 1629   7.052   5.524   0.673  0.0080 -0.8869  0.5123
    4CHTO   H39 1630   6.980   5.569   0.714 -2.1327 -4.1795  0.5399
    4CHTO    O9 1631   7.489   5.743   0.593  0.0085  0.3554  0.2910
    4CHTO   C13 1632   7.537   5.676   0.718 -0.1924 -0.1762  0.8489
    4CHTO   H26 1633   7.581   5.578   0.690 -1.8787 -0.5995 -0.4165
    4CHTO   C11 1634   7.424   5.657   0.818  0.6246 -0.1531 -0.5768
    4CHTO   H24 1635   7.349   5.593   0.769 -1.5184 -0.6828  3.2252
    4CHTO    O8 1636   7.356   5.780   0.843 -0.2934  0.6638  0.0727
    4CHTO    H3 1637   7.428   5.837   0.863  0.4858 -0.2417 -0.1310
    4CHTO    C9 1638   7.490   5.590   0.941  0.0634  0.5840  0.2544
    4CHTO   H22 1639   7.546   5.505   0.899 -0.1362  0.7863 -0.4252
    4CHTO    N2 1640   7.395   5.531   1.037  0.2696 -0.0178  0.8718
    4CHTO   H10 1641   7.294   5.551   1.004  0.9637 -1.2295 -2.2354
    4CHTO   H11 1642   7.404   5.424   1.054  1.2258 -0.2881 -1.1532
    4CHTO    C7 1643   7.592   5.690   1.006  0.4179 -0.4802 -0.1454
    4CHTO   H20 1644   7.673   5.625   1.045 -0.5642 -1.5105  0.2111
    4CHTO    O4 1645   7.638   5.790   0.916 -0.5452 -0.3605 -0.5297
    4CHTO   C14 1646   7.660   5.755   0.785  0.4419  0.2646 -0.0816
    4CHTO   H27 1647   7.750   5.690   0.777  0.7013  0.6142 -0.0310
    4CHTO   C18 1648   7.697   5.888   0.729  0.2382 -0.1386  0.3259
    4CHTO   O13 1649   7.748   5.876   0.600  0.1682  0.1787  0.1894
    4CHTO    H7 1650   7.782   5.961   0.580  0.2727  0.6602  2.2291
    4CHTO    O2 1651   7.520   5.771   1.129  0.7425  0.0186 -0.3046
    4CHTO    C1 1652   7.618   5.833   1.216 -0.2709  1.6579 -0.0017
    4CHTO   H14 1653   7.707   5.867   1.160  1.9892 -0.2741  2.2373
    4CHTO    C2 1654   7.679   5.739   1.331  0.0029 -0.0010 -0.9159
    4CHTO   H15 1655   7.595   5.674   1.362 -0.9956  2.2331  1.2290
    4CHTO    O6 1656   7.775   5.656   1.270 -0.1159 -0.5114 -0.0419
    4CHTO    H1 1657   7.784   5.574   1.315  0.9453 -1.4259 -1.8033
    4CHTO    C3 1658   7.734   5.803   1.465  0.1574 -0.0556 -0.1196
    4CHTO   H16 1659   7.836   5.830   1.432 -0.4566  1.5359 -0.7385
    4CHTO    N1 1660   7.745   5.724   1.592 -0.3578 -0.2339  0.0824
    4CHTO    H8 1661   7.648   5.682   1.611 -0.3691  0.2614  1.1368
    4CHTO    H9 1662   7.812   5.639   1.586  1.2343  0.9874  0.0739
    4CHTO    C4 1663   7.660   5.944   1.492 -0.2608  0.6538 -0.1297
    4CHTO   H17 1664   7.564   5.929   1.541  0.1766 -0.5650  0.3690
    4CHTO    O1 1665   7.639   6.021   1.373  0.0041  0.0906 -0.4795
    4CHTO    C5 1666   7.545   5.960   1.283  0.2059 -0.9278 -0.8152
    4CHTO   H18 1667   7.455   5.930   1.337 -0.0253 -0.5643 -1.0034
    4CHTO   C16 1668   7.508   6.068   1.187  0.1859  0.3647 -0.3779
    4CHTO   O11 1669   7.440   6.030   1.064  0.6900  0.6066  0.0931
    4CHTO    H5 1670   7.421   6.106   1.011  0.2307  1.5713  1.6246
    4CHTO    O3 1671   7.743   6.019   1.577  0.0821 -0.0124 -0.1212
    4CHTO    C6 1672   7.674   6.129   1.647  0.5180  0.7810 -0.2710
    4CHTO   H19 1673   7.585   6.156   1.591  1.0134  0.7057 -1.1091
    4CHTO    C8 1674   7.621   6.091   1.791 -0.0405  0.0086 -0.2405
    4CHTO   H21 1675   7.706   6.060   1.852  0.7576  0.4105 -1.1226
    4CHTO    O7 1676   7.538   5.976   1.790 -0.0373  0.2561  0.4315
    4CHTO    H2 1677   7.461   5.977   1.736  0.9615 -0.9154 -1.0649
    4CHTO   C12 1678   7.561   6.214   1.860 -0.1047 -0.6360  0.9722
    4CHTO   H25 1679   7.470   6.235   1.800  1.4480 -0.3303 -1.3480
    4CHTO    N3 1680   7.520   6.203   2.008 -0.0370  0.1271  0.3142
    4CHTO   H12 1681   7.593   6.142   2.059 -1.7184 -1.4653  0.8869
    4CHTO   H13 1682   7.417   6.170   2.014 -0.2497  0.7218 -0.0465
    4CHTO   C15 1683   7.658   6.340   1.843  0.1774 -0.6228 -0.0955
    4CHTO   H28 1684   7.753   6.318   1.891 -0.7384 -1.6107  1.2712
    4CHTO   O10 1685   7.604   6.467   1.878 -0.3105 -0.9152 -0.4111
    4CHTO    H4 1686   7.517   6.475   1.842  0.1525 -0.2128 -1.3739
    4CHTO    O5 1687   7.692   6.359   1.705 -0.3704  0.4583  0.5803
    4CHTO   C10 1688   7.771   6.252   1.648  0.0270  0.4447 -0.2070
    4CHTO   H23 1689   7.856   6.240   1.714  0.1749 -2.2221 -0.8448
    4CHTO   C17 1690   7.817   6.294   1.509  0.5437 -0.2633  0.0644
    4CHTO   O12 1691   7.712   6.315   1.417  0.9477 -0.0721  0.4801
    4CHTO    H6 1692   7.740   6.320   1.327 -0.2673  0.9863  0.1402
    5CHTO  H203 1693   7.386   3.375   2.676  0.0454  0.6358  0.1754
    5CHTO   O82 1694   7.454   3.427   2.637  0.0414  0.3356 -0.2301
    5CHTO  C123 1695   7.465   3.532   2.734 -0.0381  0.1529 -0.7206
    5CHTO  H227 1696   7.537   3.606   2.697 -0.5575  1.0422  0.0147
    5CHTO   O77 1697   7.337   3.602   2.727 -0.0228  0.3285 -0.2010
    5CHTO  C118 1698   7.323   3.710   2.823  0.4909 -0.8524  1.0263
    5CHTO  H222 1699   7.405   3.771   2.784 -0.8002  0.0521 -0.3204
    5CHTO  C125 1700   7.187   3.783   2.790  0.0663 -0.1500  0.7788
    5CHTO   O84 1701   7.199   3.851   2.664  0.1464 -0.1742  0.0253
    5CHTO  H205 1702   7.210   3.792   2.593  1.9779  0.0266  0.1105
    5CHTO  C114 1703   7.343   3.658   2.973 -0.7706  0.0492  0.2536
    5CHTO  H218 1704   7.264   3.585   2.989  0.0486 -0.5249  1.7832
    5CHTO  C116 1705   7.476   3.576   2.995  0.2786 -0.5921 -0.2359
    5CHTO  H220 1706   7.558   3.651   2.988  1.1413 -1.6181 -1.2694
    5CHTO   O79 1707   7.478   3.520   3.130 -0.1293  0.3019  0.0446
    5CHTO  H201 1708   7.410   3.459   3.150  0.1520 -0.5487 -1.5305
    5CHTO  C120 1709   7.497   3.467   2.876  0.2012  0.5460 -0.2120
    5CHTO  H224 1710   7.438   3.376   2.902  0.7697  0.7627  1.9662
    5CHTO   N21 1711   7.636   3.419   2.885  0.7871 -0.1877  0.2779
    5CHTO  H211 1712   7.695   3.508   2.868  0.6895 -0.3470 -0.9693
    5CHTO  H212 1713   7.663   3.340   2.816 -1.3646  0.7609 -1.7647
    5CHTO   O75 1714   7.323   3.779   3.041 -0.0233  0.4148 -0.0476
    5CHTO  C112 1715   7.220   3.765   3.156  0.2468 -0.0280  0.1260
    5CHTO  H216 1716   7.223   3.658   3.182  1.0998 -0.0841 -0.1750
    5CHTO   O73 1717   7.090   3.805   3.100 -0.3636  0.1584  0.4458
    5CHTO  C113 1718   6.973   3.794   3.185  0.3309 -0.3480  0.1854
    5CHTO  H217 1719   6.974   3.689   3.221 -0.7708 -1.4017 -2.7403
    5CHTO  C124 1720   6.841   3.815   3.108 -0.3582 -0.1653 -0.1358
    5CHTO   O83 1721   6.811   3.953   3.071 -0.1582  0.1675  0.1385
    5CHTO  H204 1722   6.821   4.009   3.146 -1.5571 -2.5787  2.4664
    5CHTO  C109 1723   6.995   3.903   3.290  0.0623 -0.4258 -0.1372
    5CHTO  H213 1724   7.009   3.998   3.236 -2.3667 -0.3827 -0.7429
    5CHTO  C110 1725   7.122   3.869   3.378 -0.4360  0.0603  0.1101
    5CHTO  H214 1726   7.103   3.770   3.418  3.4561 -1.3500 -1.2699
    5CHTO   O78 1727   7.141   3.971   3.481  0.0687  0.0159 -0.0357
    5CHTO  H200 1728   7.229   3.981   3.512  0.4549 -0.0348 -1.1039
    5CHTO  C111 1729   7.252   3.856   3.285 -0.0955 -1.3171  0.4029
    5CHTO  H215 1730   7.273   3.955   3.242 -0.2475 -0.8266  1.4488
    5CHTO   N19 1731   7.375   3.809   3.356 -0.7070 -0.3905  0.2626
    5CHTO  H207 1732   7.353   3.749   3.443  0.4768 -0.4909  0.5012
    5CHTO  H208 1733   7.437   3.763   3.281 -0.9406  1.4387 -1.0822
    5CHTO   O74 1734   6.872   3.912   3.368 -0.5510  0.2528  0.4194
    5CHTO  C115 1735   6.845   4.058   3.454 -0.0416  0.0995 -0.3667
    5CHTO  H219 1736   6.921   4.073   3.530 -0.9129  0.5794  0.4287
    5CHTO   O76 1737   6.862   4.195   3.350  1.0817  0.4897  0.3368
    5CHTO  C122 1738   6.758   4.228   3.260 -0.0409  0.2940 -0.1724
    5CHTO  H226 1739   6.775   4.185   3.161 -0.8695 -2.3844  0.7900
    5CHTO  C126 1740   6.744   4.381   3.236  0.0958  0.3441 -0.4315
    5CHTO   O85 1741   6.868   4.437   3.181  0.1695  0.4761 -0.5412
    5CHTO  H206 1742   6.922   4.461   3.253 -1.9952 -1.9804  2.0194
    5CHTO  C121 1743   6.625   4.176   3.325  0.2389  0.2673  0.2663
    5CHTO  H225 1744   6.535   4.230   3.291 -0.7608 -2.5350 -1.7146
    5CHTO   O81 1745   6.584   4.049   3.264  0.0394 -0.3595 -0.0466
    5CHTO  H202 1746   6.659   3.999   3.239 -0.2692 -2.9622  3.9317
    5CHTO  C119 1747   6.624   4.175   3.476 -0.0489 -0.6529 -0.0004
    5CHTO  H223 1748   6.678   4.264   3.509 -0.9830  0.4751 -1.4073
    5CHTO  C117 1749   6.704   4.049   3.528 -0.1786  0.3663 -0.2415
    5CHTO  H221 1750   6.663   3.952   3.498 -0.4975  0.7021 -0.8847
    5CHTO   N20 1751   6.723   4.041   3.675 -0.3459  0.6350  0.5860
    5CHTO  H209 1752   6.758   3.942   3.698  0.1014  0.2040 -1.8349
    5CHTO  H210 1753   6.800   4.108   3.710  1.6474 -2.3093  2.0311
    5CHTO   O80 1754   6.482   4.194   3.546 -0.0076 -0.1308  0.0450
    5CHTO  C103 1755   6.345   4.122   3.475 -0.6843  0.0439 -0.2027
    5CHTO  H190 1756   6.351   4.137   3.367 -0.5294  2.4795  0.1199
    5CHTO  C101 1757   6.316   3.971   3.514  0.4040 -0.4846  0.0850
    5CHTO  H188 1758   6.327   3.959   3.622 -1.2723  0.4258  0.3646
    5CHTO   O68 1759   6.424   3.891   3.431  0.3511  0.5159 -0.0639
    5CHTO  H168 1760   6.428   3.913   3.340 -0.0737 -2.1742 -0.7789
    5CHTO   C99 1761   6.162   3.929   3.461 -0.3464  0.4841  0.1999
    5CHTO  H186 1762   6.164   3.952   3.352 -1.8855 -1.8605 -0.3601
    5CHTO   N17 1763   6.115   3.787   3.491 -0.0893 -0.1426 -0.6587
    5CHTO  H174 1764   6.108   3.730   3.399 -1.8353 -0.2866 -0.4505
    5CHTO  H175 1765   6.182   3.734   3.558 -0.4969  0.8928  0.5862
    5CHTO   C97 1766   6.063   4.034   3.532  0.2745  0.7306 -0.5759
    5CHTO  H184 1767   6.081   4.032   3.641  0.0127  0.1062 -0.5398
    5CHTO   O64 1768   6.094   4.157   3.474  0.8618 -0.5584  0.4592
    5CHTO  C104 1769   6.229   4.203   3.523 -0.1902 -0.4642  0.0162
    5CHTO  H191 1770   6.229   4.208   3.632 -1.0873  2.4262 -0.0778
    5CHTO  C108 1771   6.234   4.344   3.467 -0.0494  0.1578 -0.0535
    5CHTO   O71 1772   6.214   4.447   3.565 -0.4143 -0.0101 -0.1655
    5CHTO  H171 1773   6.212   4.528   3.519 -1.3517  1.2190  1.9754
    5CHTO   O62 1774   5.923   4.007   3.524  0.0410  0.1180  0.8173
    5CHTO   C91 1775   5.848   4.039   3.409  0.2806 -0.9263  0.1361
    5CHTO  H178 1776   5.875   4.141   3.382  1.7106 -1.3265 -0.0029
    5CHTO   C92 1777   5.697   4.041   3.449  0.4011 -0.1089  0.9845
    5CHTO  H179 1778   5.688   4.108   3.535  0.8504  0.4102  0.6281
    5CHTO   O66 1779   5.634   4.099   3.337 -0.1831 -0.1078  0.2036
    5CHTO  H166 1780   5.561   4.150   3.367  0.3171  1.1334 -0.6429
    5CHTO   C93 1781   5.632   3.892   3.468 -0.0712  0.6078 -0.3931
    5CHTO  H180 1782   5.524   3.901   3.454 -0.4130 -1.5939  0.5713
    5CHTO   N16 1783   5.649   3.837   3.607  0.6901  0.4771  0.8939
    5CHTO  H172 1784   5.599   3.741   3.609 -1.0267  1.3722  2.2227
    5CHTO  H173 1785   5.752   3.827   3.636  0.2570 -0.2617  2.1864
    5CHTO   C94 1786   5.692   3.801   3.355  0.2566 -0.5738  0.8494
    5CHTO  H181 1787   5.767   3.732   3.393 -0.4685 -0.6030  2.2527
    5CHTO   O61 1788   5.750   3.875   3.242 -0.5022 -0.4635 -0.1097
    5CHTO   C95 1789   5.869   3.951   3.280 -0.3554  0.1746  0.1329
    5CHTO  H182 1790   5.947   3.875   3.288 -1.4715 -0.9324  0.7075
    5CHTO  C106 1791   5.915   4.038   3.167 -0.4149  0.4335  0.1280
    5CHTO   O69 1792   5.981   3.961   3.066 -0.9155  0.3521  0.1107
    5CHTO  H169 1793   5.994   3.997   2.980 -0.0761 -0.3557 -0.0683
    5CHTO   O63 1794   5.575   3.725   3.285  0.4174 -0.1131  0.2160
    5CHTO   C96 1795   5.627   3.608   3.201  0.1016 -0.1507 -0.6759
    5CHTO  H183 1796   5.733   3.614   3.177  0.5742 -0.6505  1.2524
    5CHTO   C98 1797   5.551   3.616   3.061 -0.3591 -0.3059 -0.0166
    5CHTO  H185 1798   5.547   3.720   3.025 -1.0129 -0.5589 -0.7003
    5CHTO   O67 1799   5.643   3.553   2.970 -0.1948  0.1126  0.2311
    5CHTO  H167 1800   5.600   3.519   2.894 -1.6160  1.5340  0.3531
    5CHTO  C102 1801   5.419   3.534   3.063 -0.0883  0.1113  0.2024
    5CHTO  H189 1802   5.385   3.528   2.959  1.4574 -2.2572 -0.1949
    5CHTO   N18 1803   5.305   3.594   3.132  0.0222 -0.1336 -0.2650
    5CHTO  H176 1804   5.316   3.620   3.236 -0.1680 -0.8745 -0.0573
    5CHTO  H177 1805   5.272   3.683   3.081 -0.6581 -1.1565 -1.6359
    5CHTO  C105 1806   5.437   3.391   3.112 -0.2860  1.2976 -0.3242
    5CHTO  H192 1807   5.355   3.358   3.175 -0.4032  1.9866 -0.1110
    5CHTO   O65 1808   5.561   3.369   3.185  0.6208 -0.1324  0.2519
    5CHTO  C100 1809   5.601   3.471   3.274 -0.0009  0.0242 -0.0790
    5CHTO  H187 1810   5.514   3.481   3.341  0.1238 -0.4504  0.1563
    5CHTO  C107 1811   5.729   3.434   3.352  0.0286  0.3406  0.4023
    5CHTO   O70 1812   5.747   3.525   3.460 -0.2121  0.4113  0.1801
    5CHTO  H170 1813   5.756   3.484   3.544 -0.9959  1.1154  0.6107
    5CHTO   O57 1814   5.440   3.300   2.962 -0.2286  0.2758  0.0184
    5CHTO   C85 1815   5.380   3.171   2.976 -0.5157 -0.5497 -0.2781
    5CHTO  H157 1816   5.276   3.182   3.014 -0.0255  0.0207  0.9197
    5CHTO   C83 1817   5.446   3.072   3.081  0.8984 -0.2433 -0.4018
    5CHTO  H155 1818   5.433   3.122   3.176  3.9526 -1.6891  0.8716
    5CHTO   O56 1819   5.584   3.067   3.064  0.1665 -0.2287  0.4565
    5CHTO  H135 1820   5.621   3.153   3.066 -0.1690 -0.1221  1.9384
    5CHTO   C81 1821   5.372   2.932   3.076 -0.2291 -0.4986 -0.3294
    5CHTO  H153 1822   5.266   2.944   3.094 -0.6833  0.9207 -3.6131
    5CHTO   N14 1823   5.414   2.840   3.184 -0.1303 -0.3597  0.4967
    5CHTO  H141 1824   5.496   2.785   3.142  1.6618  1.2468  1.8014
    5CHTO  H142 1825   5.447   2.894   3.270 -1.3903  2.3258 -0.6519
    5CHTO   C79 1826   5.385   2.865   2.929 -0.5463 -0.2846  0.2738
    5CHTO  H151 1827   5.342   2.766   2.935  1.0972 -1.0020  0.5263
    5CHTO   O52 1828   5.330   2.955   2.826 -0.2588  0.2631  0.5201
    5CHTO   C86 1829   5.379   3.096   2.829 -0.0875 -0.0834 -0.6992
    5CHTO  H158 1830   5.479   3.105   2.782  0.3569  2.8565  0.6289
    5CHTO   C90 1831   5.292   3.187   2.739 -0.0850  0.1122  0.0246
    5CHTO   O60 1832   5.310   3.151   2.604  0.9065 -0.0775 -0.1503
    5CHTO  H138 1833   5.318   3.058   2.593  0.2131  0.2422 -3.9289
    5CHTO   O50 1834   5.517   2.842   2.896  0.4473  0.3669 -0.3173
    5CHTO   C73 1835   5.603   2.751   2.832  0.8882 -0.1531  0.5406
    5CHTO  H145 1836   5.546   2.697   2.755  0.5094  1.6066 -0.4445
    5CHTO   C74 1837   5.666   2.647   2.934 -0.2024  0.0572  0.0644
    5CHTO  H146 1838   5.579   2.598   2.980 -0.5651  0.0046 -0.6750
    5CHTO   O54 1839   5.725   2.539   2.855  0.2859 -0.1356  0.2697
    5CHTO  H133 1840   5.799   2.574   2.808 -0.4174  1.6028  0.4002
    5CHTO   C75 1841   5.758   2.720   3.039 -0.9036  0.3974  0.3948
    5CHTO  H147 1842   5.695   2.790   3.097  1.7617  0.1725  3.6926
    5CHTO   N13 1843   5.812   2.636   3.149 -0.3449 -0.3566  1.0483
    5CHTO  H139 1844   5.864   2.546   3.120 -1.1696 -1.5043  3.0700
    5CHTO  H140 1845   5.830   2.687   3.242  0.7059 -0.3268  0.8293
    5CHTO   C76 1846   5.872   2.799   2.953  0.5370 -0.3774 -0.2955
    5CHTO  H148 1847   5.932   2.727   2.898 -0.5552 -0.2165 -1.7357
    5CHTO   O49 1848   5.797   2.890   2.861  0.0317 -0.3457 -0.5046
    5CHTO   C77 1849   5.722   2.820   2.761 -0.1733 -0.0511 -0.2986
    5CHTO  H149 1850   5.778   2.750   2.699 -1.5473  1.6368 -3.5252
    5CHTO   C88 1851   5.681   2.917   2.652  0.4374  0.2703 -0.0990
    5CHTO   O58 1852   5.644   2.834   2.521 -0.6610 -0.1893 -0.5328
    5CHTO  H136 1853   5.554   2.809   2.512 -1.1950  0.4549  2.3563
    5CHTO   O51 1854   5.970   2.893   3.052  0.2392  0.2495 -0.2727
    5CHTO   C78 1855   6.077   2.992   2.995  0.2360  0.0323  0.1001
    5CHTO  H150 1856   6.029   3.039   2.907 -3.3979 -1.1041  1.3398
    5CHTO   C80 1857   6.203   2.913   2.957 -0.0792  0.7359  0.5184
    5CHTO  H152 1858   6.232   2.858   3.048 -2.6375 -0.7077  0.5132
    5CHTO   O55 1859   6.168   2.821   2.848 -0.3643 -0.5272 -0.6595
    5CHTO  H134 1860   6.155   2.872   2.771  0.7743 -0.3959 -0.7680
    5CHTO   C84 1861   6.322   3.012   2.922 -0.3981  0.3654 -0.0350
    5CHTO  H156 1862   6.300   3.074   2.835 -0.5382  0.5409  0.1241
    5CHTO   N15 1863   6.447   2.939   2.899  1.0098  0.3467 -0.4608
    5CHTO  H143 1864   6.520   2.993   2.842  1.6945  0.7567  0.7971
    5CHTO  H144 1865   6.490   2.902   2.989 -0.6447 -1.0446 -0.2177
    5CHTO   C87 1866   6.334   3.112   3.037 -0.4414 -0.1872 -0.1280
    5CHTO  H159 1867   6.355   3.053   3.126 -2.4249  0.5140  0.8201
    5CHTO   O53 1868   6.190   3.194   3.052  0.1608  0.2905  0.5067
    5CHTO   C82 1869   6.096   3.106   3.103  0.5612 -0.5885  0.0826
    5CHTO  H154 1870   6.118   3.074   3.205 -0.6329  1.4694  1.0228
    5CHTO   C89 1871   5.960   3.184   3.119 -0.0133  0.3700 -0.3900
    5CHTO   O59 1872   5.865   3.113   3.196  0.0288 -0.3466 -0.1762
    5CHTO  H137 1873   5.862   3.135   3.287  0.8262  1.7707 -0.6460
    5CHTO   O45 1874   6.444   3.219   3.013  0.3653  0.0328  0.6236
    5CHTO   C67 1875   6.480   3.290   3.137  0.8544 -0.2522 -0.1322
    5CHTO  H124 1876   6.393   3.291   3.203  2.0458 -3.3602  1.6028
    5CHTO   C65 1877   6.610   3.223   3.210 -0.1281 -0.3767  0.1354
    5CHTO  H122 1878   6.664   3.174   3.129  0.2787 -1.2098  0.8955
    5CHTO   O44 1879   6.548   3.118   3.291  0.6723 -1.0646  0.7188
    5CHTO  H102 1880   6.575   3.122   3.381  0.0398 -3.3044  1.0385
    5CHTO   C63 1881   6.709   3.319   3.274 -0.0657 -0.5561 -0.0270
    5CHTO  H120 1882   6.766   3.365   3.193 -2.4714  1.9446 -0.3962
    5CHTO   N11 1883   6.816   3.246   3.355  0.5014 -0.6072  0.2519
    5CHTO  H108 1884   6.824   3.281   3.456 -3.2541  0.2281  0.3391
    5CHTO  H109 1885   6.912   3.261   3.310  0.9076 -2.1066  0.5776
    5CHTO   C61 1886   6.634   3.435   3.352 -0.2155 -1.7034  0.4941
    5CHTO  H118 1887   6.704   3.512   3.388 -2.5003  1.1445 -0.9364
    5CHTO   O40 1888   6.550   3.505   3.250 -0.2065 -0.5602  0.2745
    5CHTO   C68 1889   6.513   3.450   3.125 -0.2132 -0.4850 -0.0797
    5CHTO  H125 1890   6.590   3.483   3.053 -1.5887 -0.7377 -1.7174
    5CHTO   C72 1891   6.383   3.525   3.080 -0.1823 -0.4705  0.3169
    5CHTO   O48 1892   6.404   3.667   3.071 -0.0847 -0.2358 -0.1784
    5CHTO  H105 1893   6.414   3.702   2.984  1.8329  0.7243  0.4083
    5CHTO   O38 1894   6.550   3.396   3.458  0.2717  0.0967 -0.1497
    5CHTO   C55 1895   6.459   3.480   3.523  0.1724  0.0783  0.2243
    5CHTO  H112 1896   6.429   3.558   3.452  1.2401 -1.4702 -1.9751
    5CHTO   C56 1897   6.532   3.542   3.649  0.1634  0.0388 -0.1593
    5CHTO  H113 1898   6.571   3.461   3.714 -0.6820  1.2002  1.8283
    5CHTO   O42 1899   6.646   3.617   3.598  0.2241  0.8241  0.4849
    5CHTO  H100 1900   6.611   3.686   3.544  1.1244  2.1803  1.5897
    5CHTO   C57 1901   6.437   3.634   3.733 -0.6792  0.1942  0.0331
    5CHTO  H114 1902   6.419   3.723   3.673  0.8554  0.3077 -0.2724
    5CHTO   N10 1903   6.484   3.705   3.853  0.1514 -0.4782  0.7564
    5CHTO  H106 1904   6.470   3.641   3.939 -0.1555  0.2299  1.2365
    5CHTO  H107 1905   6.591   3.717   3.840 -0.1914  2.2806  0.1873
    5CHTO   C58 1906   6.297   3.568   3.759 -0.7183 -0.1424 -0.6766
    5CHTO  H115 1907   6.306   3.482   3.830  0.9226 -0.3533 -1.1291
    5CHTO   O37 1908   6.252   3.524   3.632  0.0505 -0.4592  0.8067
    5CHTO   C59 1909   6.326   3.416   3.569 -0.0283 -0.8093 -0.8470
    5CHTO  H116 1910   6.355   3.326   3.623  1.6360 -1.5389 -2.8810
    5CHTO   C70 1911   6.253   3.374   3.441 -0.5826 -0.2575  0.2330
    5CHTO   O46 1912   6.134   3.298   3.473 -0.7328  0.6216 -0.1165
    5CHTO  H103 1913   6.157   3.221   3.522 -1.9511  1.1184  1.2322
    5CHTO   O39 1914   6.185   3.675   3.821  0.5440  0.1704  0.7024
    5CHTO   C60 1915   6.046   3.650   3.830  0.4600 -0.2638  0.2324
    5CHTO  H117 1916   6.008   3.679   3.732 -2.0794 -2.7930  0.4261
    5CHTO   C62 1917   6.008   3.508   3.872 -0.2360  0.4158 -0.0412
    5CHTO  H119 1918   6.053   3.447   3.791 -1.0024  0.4034 -0.4728
    5CHTO   O43 1919   6.070   3.480   3.996  0.1410  0.5011  0.0769
    5CHTO  H101 1920   6.080   3.388   4.009 -2.5229  0.2309  0.5182
    5CHTO   C66 1921   5.851   3.489   3.881  0.4269  0.3408 -0.0882
    5CHTO  H123 1922   5.806   3.518   3.786  0.7748 -0.9467 -0.6587
    5CHTO   N12 1923   5.827   3.343   3.888 -0.0718  0.2123  0.3744
    5CHTO  H110 1924   5.720   3.333   3.880 -0.0970 -0.1997  1.1574
    5CHTO  H111 1925   5.862   3.318   3.987  0.9469 -1.0244 -0.2737
    5CHTO   C69 1926   5.791   3.578   3.986 -0.0595  0.1071 -1.0154
    5CHTO  H126 1927   5.832   3.559   4.088 -0.8795 -1.2134 -0.9197
    5CHTO   O41 1928   5.824   3.715   3.960  0.3179  0.0807  0.3282
    5CHTO   C64 1929   5.984   3.745   3.935 -0.1599 -0.1661 -0.2668
    5CHTO  H121 1930   6.038   3.724   4.030  2.0536 -1.6200 -1.8111
    5CHTO   C71 1931   6.006   3.895   3.893 -0.2470 -0.0346  0.4749
    5CHTO   O47 1932   5.975   3.985   3.994  0.1415  0.3827 -0.1513
    5CHTO  H104 1933   6.024   3.979   4.073  0.7285  1.5548 -0.4133
    5CHTO   O34 1934   5.629   3.558   3.991 -0.4383  0.5731  0.1190
    5CHTO   C49 1935   5.525   3.464   4.045 -0.0919  0.1641 -0.2485
    5CHTO   H91 1936   5.588   3.376   4.058 -1.6664 -0.7217  1.7334
    5CHTO   C47 1937   5.420   3.445   3.935 -0.2856  0.3139 -0.2099
    5CHTO   H89 1938   5.351   3.363   3.963  1.5602 -1.3973 -0.5871
    5CHTO   O33 1939   5.488   3.406   3.817  0.8624 -0.0121 -0.3326
    5CHTO   H70 1940   5.504   3.314   3.816  0.7889 -0.0220 -1.8043
    5CHTO   C45 1941   5.337   3.589   3.925 -0.1035 -0.4391 -0.0055
    5CHTO   H87 1942   5.404   3.675   3.922  1.4136 -1.5577  1.1003
    5CHTO    N8 1943   5.249   3.583   3.808 -0.1859  0.2802 -1.0146
    5CHTO   H75 1944   5.315   3.595   3.723  1.0123  2.4365  0.1965
    5CHTO   H76 1945   5.168   3.653   3.803 -1.7609 -1.3122  1.1681
    5CHTO   C43 1946   5.261   3.618   4.067 -0.8469  0.3935  0.4288
    5CHTO   H85 1947   5.210   3.714   4.060  0.4414  1.2000  1.7849
    5CHTO   O29 1948   5.350   3.610   4.177 -0.3306 -0.2560 -0.3855
    5CHTO   C50 1949   5.457   3.513   4.176 -0.1607  0.2360 -0.2505
    5CHTO   H92 1950   5.540   3.545   4.241 -3.4880  1.9514  3.3751
    5CHTO   C54 1951   5.417   3.394   4.258  0.5377 -0.0340  0.0390
    5CHTO   O36 1952   5.371   3.422   4.393 -0.2921 -0.3071 -0.3610
    5CHTO   H72 1953   5.401   3.508   4.416 -1.5347 -0.1270  0.6105
    5CHTO   O27 1954   5.147   3.527   4.086 -0.1786 -0.0960 -0.2526
    5CHTO   C37 1955   5.064   3.422   4.124  0.1691 -0.2314 -0.7190
    5CHTO   H79 1956   4.973   3.440   4.065 -0.8525 -0.6204  0.7328
    5CHTO   C38 1957   5.129   3.278   4.091  0.0623  0.1013  0.3329
    5CHTO   H80 1958   5.234   3.278   4.124  0.5182 -2.1481 -1.0452
    5CHTO   O31 1959   5.122   3.260   3.950  0.0139  0.4491 -0.5760
    5CHTO   H68 1960   5.184   3.319   3.912 -1.9389  1.5055 -2.2359
    5CHTO   C39 1961   5.041   3.166   4.173 -0.3908  0.6971  0.7448
    5CHTO   H81 1962   4.954   3.140   4.111  0.3485  1.7092 -0.7401
    5CHTO    N7 1963   5.109   3.028   4.188 -0.1192  0.5005 -0.0417
    5CHTO   H73 1964   5.037   2.957   4.152  0.4599  0.5220 -1.2689
    5CHTO   H74 1965   5.113   3.006   4.294 -1.0715  2.0144  0.3135
    5CHTO   C40 1966   4.988   3.211   4.315 -0.5418  0.2656 -0.0887
    5CHTO   H82 1967   5.078   3.207   4.377  0.1503  3.7564 -0.7412
    5CHTO   O26 1968   4.927   3.345   4.323 -0.0483  0.5544  0.6226
    5CHTO   C41 1969   5.032   3.437   4.279  0.2846  0.7803 -0.0859
    5CHTO   H83 1970   5.126   3.430   4.336 -0.6581 -0.2179  1.3888
    5CHTO   C52 1971   4.975   3.579   4.308 -0.6366 -0.3935  0.6587
    5CHTO   O35 1972   4.856   3.619   4.215  0.1836 -0.7124  0.2547
    5CHTO   H71 1973   4.766   3.597   4.231 -0.0920  0.4057  0.2715
    5CHTO   O28 1974   4.894   3.111   4.367  0.4183 -0.0857 -0.1456
    5CHTO   C42 1975   4.876   3.097   4.516  0.8513  0.6242  0.1989
    5CHTO   H84 1976   4.782   3.043   4.520  1.2735 -0.0308  1.4182
    5CHTO   C44 1977   4.861   3.228   4.598  0.0741 -0.0052 -0.0063
    5CHTO   H86 1978   4.952   3.287   4.583 -0.0139  0.5862  1.6264
    5CHTO   O32 1979   4.745   3.300   4.550 -0.1911  0.3204  0.3973
    5CHTO   H69 1980   4.663   3.260   4.574 -1.4106  0.7451 -2.8652
    5CHTO   C48 1981   4.843   3.189   4.752  0.4023  0.4937 -0.4373
    5CHTO   H90 1982   4.759   3.121   4.765  0.9017 -0.3740 -1.6691
    5CHTO    N9 1983   4.811   3.312   4.835  0.4882  0.4680 -0.4657
    5CHTO   H77 1984   4.709   3.302   4.868  0.3882  1.8055 -0.3420
    5CHTO   H78 1985   4.875   3.320   4.922  1.8893  1.2430 -1.5470
    5CHTO   C51 1986   4.965   3.117   4.806 -0.5289  0.1756 -0.6799
    5CHTO   H93 1987   5.054   3.175   4.781  1.2831 -2.1671  0.0550
    5CHTO   O30 1988   4.963   2.990   4.735  0.0029  0.0226 -0.6736
    5CHTO   C46 1989   4.984   3.004   4.587 -0.1224  1.0733  0.6855
    5CHTO   H88 1990   5.079   3.048   4.558  1.5087 -3.7956 -1.9250
    5CHTO   C53 1991   4.987   2.868   4.530 -0.4046 -0.1466  0.2894
    5CHTO   O72 1992   5.088   2.793   4.591 -0.2118 -0.2541 -1.0355
    5CHTO  H199 1993   5.083   2.815   4.682 -1.8336  1.8163 -1.5815
    5CHTO   O22 1994   4.973   3.077   4.947  0.0241  0.3680 -0.3094
    5CHTO   C31 1995   5.111   3.080   5.003 -0.0920 -0.0665 -0.0567
    5CHTO   H59 1996   5.102   3.028   5.100 -0.3312  1.2746  0.6581
    5CHTO   C29 1997   5.223   3.003   4.921 -0.1523 -0.1970 -0.0832
    5CHTO   H57 1998   5.214   3.033   4.816 -0.0753  0.1048 -0.0040
    5CHTO   O21 1999   5.185   2.863   4.936 -0.0806  0.1450  0.2676
    5CHTO   H37 2000   5.178   2.835   5.025 -2.7738 -1.7578 -0.4684
    5CHTO   C27 2001   5.372   3.028   4.966 -0.0309 -0.3643 -0.6504
    5CHTO   H55 2002   5.378   2.975   5.063 -2.3302 -1.0795 -0.8702
    5CHTO    N5 2003   5.474   2.969   4.877 -0.4539 -0.6388 -0.1331
    5CHTO   H43 2004   5.438   2.940   4.780 -0.1921 -0.2488 -0.3482
    5CHTO   H44 2005   5.548   2.908   4.927  1.1467  0.2024 -1.4362
    5CHTO   C25 2006   5.384   3.175   4.989  0.3756 -0.4374  0.3153
    5CHTO   H53 2007   5.367   3.231   4.896 -1.5137  2.2357  2.1849
    5CHTO   O17 2008   5.287   3.216   5.094  0.1954 -0.2316  0.1999
    5CHTO   C32 2009   5.157   3.225   5.043  0.5735  0.3326  0.4429
    5CHTO   H60 2010   5.158   3.284   4.951 -0.8712 -1.4113 -0.7315
    5CHTO   C36 2011   5.067   3.284   5.163 -0.7637 -0.2422 -0.1752
    5CHTO   O25 2012   4.932   3.306   5.122 -0.9917 -0.2380 -0.5176
    5CHTO   H40 2013   4.904   3.236   5.066  1.0893 -0.6727 -1.0480
    5CHTO   O15 2014   5.514   3.240   5.026  0.7998 -0.0530 -0.3267
    5CHTO   C19 2015   5.568   3.372   5.003 -0.1986 -0.6629 -0.0878
    5CHTO   H47 2016   5.486   3.445   5.001 -0.3059 -0.7724  0.5398
    5CHTO   C20 2017   5.654   3.416   5.131 -0.0412 -0.3323  0.2651
    5CHTO   H48 2018   5.727   3.339   5.161  1.8307  0.9741 -0.7909
    5CHTO   O19 2019   5.570   3.447   5.243 -0.1458  0.0234 -0.5489
    5CHTO   H35 2020   5.538   3.534   5.232  2.7653  1.3056  0.6868
    5CHTO   C21 2021   5.738   3.551   5.100 -0.2720 -0.5209  0.5785
    5CHTO   H49 2022   5.674   3.639   5.102 -0.9662 -0.9832 -0.4262
    5CHTO    N4 2023   5.841   3.581   5.209 -0.1184 -0.5439  0.1371
    5CHTO   H41 2024   5.917   3.506   5.224  0.8186 -0.2964 -3.0549
    5CHTO   H42 2025   5.885   3.679   5.199 -0.2889 -0.4573  0.2443
    5CHTO   C22 2026   5.800   3.551   4.956 -0.1169 -0.5320 -0.3559
    5CHTO   H50 2027   5.882   3.480   4.960 -1.2181 -1.8307 -0.8057
    5CHTO   O14 2028   5.701   3.522   4.855  0.1689 -0.5215 -0.5461
    5CHTO   C23 2029   5.647   3.393   4.865  0.4578 -0.1603 -0.3148
    5CHTO   H51 2030   5.728   3.319   4.855  0.9402  0.4427 -0.8646
    5CHTO   C34 2031   5.549   3.386   4.754 -0.0275  0.2641  0.1502
    5CHTO   O23 2032   5.601   3.411   4.623 -0.2867  0.4938 -0.4312
    5CHTO   H38 2033   5.539   3.379   4.560 -0.0119 -1.1248  0.0760
    5CHTO   O16 2034   5.849   3.681   4.917  0.2568 -0.5556  0.3836
    5CHTO   C24 2035   5.987   3.686   4.830  1.3455  0.0366 -0.0058
    5CHTO   H52 2036   6.018   3.586   4.803 -1.9571 -0.5674 -1.8288
    5CHTO   C26 2037   6.092   3.753   4.911 -0.1467  0.7555 -1.1548
    5CHTO   H54 2038   6.057   3.855   4.939  0.3190  0.1125  1.9893
    5CHTO   O20 2039   6.107   3.672   5.029 -0.3645 -0.2972  0.4640
    5CHTO   H36 2040   6.179   3.708   5.077  1.0697 -0.5645 -1.3944
    5CHTO   C30 2041   6.222   3.768   4.826  0.2097  0.1982  0.0742
    5CHTO   H58 2042   6.260   3.666   4.813  1.6683  0.8167 -0.6325
    5CHTO    N6 2043   6.328   3.834   4.907 -0.3813  0.4730  0.1219
    5CHTO   H45 2044   6.416   3.772   4.920 -0.1373  1.1020  1.6999
    5CHTO   H46 2045   6.297   3.871   5.004 -0.0690  2.1511 -0.4030
    5CHTO   C33 2046   6.197   3.827   4.685 -0.0291  0.3168 -1.0076
    5CHTO   H61 2047   6.176   3.933   4.702 -1.6248  0.0611 -1.3385
    5CHTO   O18 2048   6.081   3.772   4.614 -0.3748  0.2137  0.3742
    5CHTO   C28 2049   5.960   3.761   4.694  0.1359  0.3226  0.2756
    5CHTO   H56 2050   5.912   3.855   4.719  1.0172  1.1469 -1.0735
    5CHTO   C35 2051   5.862   3.697   4.590 -0.2684 -0.1816  0.6663
    5CHTO   O24 2052   5.724   3.728   4.604  0.1174  0.0588  0.1235
    5CHTO   H39 2053   5.693   3.699   4.688  2.3033 -1.5144  0.4380
    5CHTO    O9 2054   6.313   3.823   4.604  0.3016  0.9263 -0.5218
    5CHTO   C13 2055   6.372   3.664   4.572 -0.2022  0.6708 -0.0775
    5CHTO   H26 2056   6.294   3.592   4.604 -1.7115  2.6024  0.7017
    5CHTO   C11 2057   6.509   3.637   4.643 -0.1943  0.1668  0.8757
    5CHTO   H24 2058   6.496   3.613   4.750 -0.4846 -1.4097  0.4968
    5CHTO    O8 2059   6.601   3.753   4.634  0.7993 -0.0554 -0.4099
    5CHTO    H3 2060   6.559   3.836   4.648  0.3898 -0.4462  0.7448
    5CHTO    C9 2061   6.578   3.520   4.566 -0.4629 -0.7564  0.4483
    5CHTO   H22 2062   6.509   3.434   4.570 -1.4571 -0.1501 -2.5432
    5CHTO    N2 2063   6.702   3.474   4.643  0.0169  0.0617 -0.4088
    5CHTO   H10 2064   6.690   3.375   4.686 -0.9033  0.9186  1.3735
    5CHTO   H11 2065   6.799   3.496   4.602 -0.0223 -0.7066 -0.9296
    5CHTO    C7 2066   6.604   3.550   4.410  0.7991  0.5494 -0.2300
    5CHTO   H20 2067   6.567   3.455   4.366 -0.2273  1.1979 -0.7556
    5CHTO    O4 2068   6.515   3.654   4.363  0.2412 -0.3378 -0.2162
    5CHTO   C14 2069   6.386   3.630   4.414  0.5680  1.3842 -0.7214
    5CHTO   H27 2070   6.356   3.525   4.400  1.5567  0.9265  0.4532
    5CHTO   C18 2071   6.283   3.709   4.336  0.1517  0.2083  0.6294
    5CHTO   O13 2072   6.283   3.690   4.190  0.2081 -0.1086 -0.2341
    5CHTO    H7 2073   6.193   3.680   4.166  0.2985 -0.5445 -0.3991
    5CHTO    O2 2074   6.740   3.578   4.371 -0.0229 -0.5181  0.4961
    5CHTO    C1 2075   6.776   3.522   4.241  0.0609 -0.1424 -1.2827
    5CHTO   H14 2076   6.690   3.482   4.183  0.4460  0.2823 -2.1499
    5CHTO    C2 2077   6.882   3.404   4.257  0.2462 -0.6347 -0.3587
    5CHTO   H15 2078   6.972   3.452   4.300 -0.1651 -0.8162  0.7199
    5CHTO    O6 2079   6.817   3.308   4.350 -0.2363  0.1348  0.0125
    5CHTO    H1 2080   6.739   3.275   4.309  0.1665  0.3522 -0.9454
    5CHTO    C3 2081   6.919   3.334   4.112  0.1413  0.5323  0.8245
    5CHTO   H16 2082   6.829   3.276   4.087  0.2712  1.2230 -1.3366
    5CHTO    N1 2083   7.029   3.234   4.119  0.3190  0.4365 -0.9551
    5CHTO    H8 2084   7.039   3.157   4.045 -2.1469  0.5700 -1.4917
    5CHTO    H9 2085   7.021   3.183   4.214 -0.1925  1.1275 -0.6178
    5CHTO    C4 2086   6.944   3.441   3.999  0.1310 -0.2564 -0.1850
    5CHTO   H17 2087   7.045   3.482   4.007  1.2265 -2.9544  0.1071
    5CHTO    O1 2088   6.848   3.552   4.015  0.7707 -0.0319 -0.5633
    5CHTO    C5 2089   6.836   3.630   4.135 -0.7337 -0.5184 -0.2903
    5CHTO   H18 2090   6.937   3.658   4.165 -0.3179 -1.9385 -0.3279
    5CHTO   C16 2091   6.753   3.758   4.116  0.1011  0.1769  0.6738
    5CHTO   O11 2092   6.825   3.872   4.065 -0.2598 -0.6095 -0.6067
    5CHTO    H5 2093   6.765   3.943   4.076  0.9934  0.4339 -0.3745
    5CHTO    O3 2094   6.920   3.385   3.869  0.0557  0.0273 -0.2605
    5CHTO    C6 2095   7.040   3.394   3.777 -0.4574  1.2862  0.1282
    5CHTO   H19 2096   7.135   3.400   3.830  0.8186 -0.3786 -1.8623
    5CHTO    C8 2097   7.049   3.263   3.693  0.0256 -0.2091 -0.3977
    5CHTO   H21 2098   6.953   3.252   3.644 -0.1607  3.9694 -1.2164
    5CHTO    O7 2099   7.072   3.157   3.790 -0.0831 -0.4308 -0.3935
    5CHTO    H2 2100   7.005   3.145   3.855 -0.2954  0.8317 -0.3629
    5CHTO   C12 2101   7.168   3.276   3.583 -0.6055 -0.2541 -0.2946
    5CHTO   H25 2102   7.265   3.283   3.636 -0.0855 -1.5775 -1.0424
    5CHTO    N3 2103   7.168   3.150   3.501  0.0560 -0.9226 -0.1502
    5CHTO   H12 2104   7.268   3.135   3.462 -0.7687 -0.3154 -2.6029
    5CHTO   H13 2105   7.106   3.165   3.414 -1.3777  2.0920  1.3162
    5CHTO   C15 2106   7.160   3.405   3.499  0.0226 -0.4784 -0.3974
    5CHTO   H28 2107   7.072   3.401   3.434  0.0411  2.1248 -0.6221
    5CHTO   O10 2108   7.294   3.432   3.412 -0.5554 -0.6086  0.0385
    5CHTO    H4 2109   7.309   3.523   3.395  1.2477 -0.7859  0.5921
    5CHTO    O5 2110   7.155   3.516   3.594 -0.4727  0.5613  0.4666
    5CHTO   C10 2111   7.040   3.519   3.684  0.1129  0.0254 -0.6646
    5CHTO   H23 2112   6.949   3.513   3.625  0.8282 -3.3147 -1.5117
    5CHTO   C17 2113   7.048   3.653   3.762 -0.4730  0.4842 -1.0289
    5CHTO   O12 2114   6.955   3.744   3.706  0.0321  0.1805 -0.2644
    5CHTO    H6 2115   7.008   3.815   3.673 -0.0312  0.2453 -0.2259
    6CHTO  H203 2116   7.154   4.969   0.648 -1.3106 -0.8638  0.2243
    6CHTO   O82 2117   7.139   5.012   0.730  0.2952 -0.1102  0.1397
    6CHTO  C123 2118   7.035   5.113   0.725 -0.6980 -0.0412  0.5186
    6CHTO  H227 2119   7.074   5.210   0.692  1.9161 -0.9658  0.7448
    6CHTO   O77 2120   6.932   5.067   0.630  0.0799  0.3809 -0.1527
    6CHTO  C118 2121   6.827   5.163   0.603 -0.0381  0.4586 -0.2442
    6CHTO  H222 2122   6.859   5.265   0.573 -0.6017  0.6789 -0.0984
    6CHTO  C125 2123   6.743   5.101   0.488  0.4684 -0.0354  0.0944
    6CHTO   O84 2124   6.655   5.203   0.439  0.0906 -1.0988 -0.1059
    6CHTO  H205 2125   6.596   5.168   0.375 -1.3944 -2.3619  1.9251
    6CHTO  C114 2126   6.749   5.183   0.734  0.6808 -0.2902 -0.2734
    6CHTO  H218 2127   6.721   5.084   0.769  2.2219 -1.0150 -1.0338
    6CHTO  C116 2128   6.842   5.232   0.855 -0.0541 -0.7738  0.0928
    6CHTO  H220 2129   6.869   5.339   0.841  2.4703 -1.3552  0.2490
    6CHTO   O79 2130   6.766   5.230   0.980  0.1095 -0.2610 -0.3674
    6CHTO  H201 2131   6.738   5.142   1.000  1.8902 -0.4596  1.3987
    6CHTO  C120 2132   6.971   5.141   0.866 -0.2345 -0.8949 -0.1086
    6CHTO  H224 2133   6.941   5.045   0.913 -4.0844 -0.1465 -0.8744
    6CHTO   N21 2134   7.065   5.207   0.964 -0.4268  0.1672  0.2746
    6CHTO  H211 2135   7.166   5.174   0.944  0.4150  2.2234  1.0561
    6CHTO  H212 2136   7.029   5.179   1.062 -1.9740  1.8959  0.2080
    6CHTO   O75 2137   6.633   5.265   0.700  0.0040  0.4232  0.6680
    6CHTO  C112 2138   6.497   5.250   0.789  0.0990  0.7724  0.3241
    6CHTO  H216 2139   6.517   5.286   0.891 -0.5807  3.4207 -0.4375
    6CHTO   O73 2140   6.456   5.112   0.787 -0.0953 -0.1601 -0.2283
    6CHTO  C113 2141   6.331   5.079   0.848  0.0855  0.2486  0.4566
    6CHTO  H217 2142   6.346   5.086   0.958 -0.0624  2.1799  0.3708
    6CHTO  C124 2143   6.317   4.929   0.825 -0.2173  0.1715  0.7760
    6CHTO   O83 2144   6.231   4.860   0.913 -0.1722  0.0514  0.2713
    6CHTO  H204 2145   6.275   4.777   0.913  1.6834  0.9615 -1.8261
    6CHTO  C109 2146   6.220   5.164   0.793  0.3873  0.1460 -0.1794
    6CHTO  H213 2147   6.219   5.139   0.686 -0.1010  0.2180 -0.1904
    6CHTO  C110 2148   6.254   5.318   0.808  0.2480 -0.0846  0.1288
    6CHTO  H214 2149   6.257   5.355   0.910  2.2790  4.0645 -1.3518
    6CHTO   O78 2150   6.149   5.390   0.746  0.2835 -0.8718  0.6749
    6CHTO  H200 2151   6.065   5.360   0.774 -0.6889  2.4283  1.5222
    6CHTO  C111 2152   6.392   5.348   0.734  0.2401  0.8840  0.7173
    6CHTO  H215 2153   6.386   5.315   0.629  0.1960  3.7421 -0.2343
    6CHTO   N19 2154   6.441   5.487   0.730 -0.6722  0.3413  0.1834
    6CHTO  H207 2155   6.479   5.520   0.635  3.4648 -1.4801  1.1049
    6CHTO  H208 2156   6.496   5.511   0.819 -0.4888  0.9366 -0.0907
    6CHTO   O74 2157   6.086   5.126   0.848  0.1764  0.3235 -0.4959
    6CHTO  C115 2158   6.070   5.130   1.015 -0.7185  0.5619  0.8033
    6CHTO  H219 2159   6.154   5.083   1.065 -0.4080 -1.0927 -1.2191
    6CHTO   O76 2160   6.063   5.280   1.081  0.2055 -0.2198 -0.9248
    6CHTO  C122 2161   5.948   5.353   1.047  0.5675  0.2011  0.5344
    6CHTO  H226 2162   5.941   5.349   0.938  1.1314  1.6927  0.4403
    6CHTO  C126 2163   5.952   5.508   1.093  0.9223  0.1822 -0.1069
    6CHTO   O85 2164   6.083   5.558   1.069  0.6480 -1.3203 -0.0757
    6CHTO  H206 2165   6.131   5.564   1.149  0.0147 -0.3077  0.2321
    6CHTO  C121 2166   5.827   5.281   1.118 -0.4911 -0.1413  0.4289
    6CHTO  H225 2167   5.809   5.338   1.212 -1.7351  0.0398  0.0904
    6CHTO   O81 2168   5.719   5.294   1.035  0.2998 -0.4603 -0.3656
    6CHTO  H202 2169   5.693   5.384   1.037  2.9126  0.3289  0.2122
    6CHTO  C119 2170   5.850   5.131   1.155  0.1875 -0.0620  0.0945
    6CHTO  H223 2171   5.904   5.130   1.250  0.5020  0.9308 -0.0624
    6CHTO  C117 2172   5.940   5.053   1.044  0.4226  0.1476  0.1362
    6CHTO  H221 2173   5.879   5.049   0.953  0.3480 -2.1886  0.2805
    6CHTO   N20 2174   5.959   4.911   1.075 -0.9347  0.6038  0.4142
    6CHTO  H209 2175   5.925   4.842   0.999  2.9232 -2.7371  1.5374
    6CHTO  H210 2176   6.057   4.880   1.107  0.4276  4.2306  0.0353
    6CHTO   O80 2177   5.694   5.041   1.200  0.3997 -0.1086  0.1162
    6CHTO  C103 2178   5.648   5.027   1.364  0.3005  0.3164 -0.8542
    6CHTO  H190 2179   5.709   4.949   1.408 -1.0030 -0.6952 -0.8259
    6CHTO  C101 2180   5.643   5.166   1.442 -0.3575 -0.2302  0.0899
    6CHTO  H188 2181   5.611   5.247   1.376 -0.0556 -0.3188 -0.1669
    6CHTO   O68 2182   5.810   5.214   1.492  0.5961  0.2096  0.3210
    6CHTO  H168 2183   5.878   5.168   1.448  1.1245  0.4652  0.8643
    6CHTO   C99 2184   5.552   5.168   1.571  0.3332  0.1137  0.0318
    6CHTO  H186 2185   5.598   5.116   1.657 -2.1328 -1.6234  0.3587
    6CHTO   N17 2186   5.518   5.305   1.622  0.3313 -0.0363  0.0457
    6CHTO  H174 2187   5.488   5.374   1.544  0.5553  1.5278  1.3146
    6CHTO  H175 2188   5.599   5.341   1.683 -0.9785 -0.2916  1.9829
    6CHTO   C97 2189   5.420   5.097   1.539  0.0405  0.1057 -0.5913
    6CHTO  H184 2190   5.360   5.157   1.470  1.1942 -0.9487 -2.5487
    6CHTO   O64 2191   5.450   4.965   1.486 -0.2248 -0.2157 -0.3530
    6CHTO  C104 2192   5.509   4.968   1.363 -0.3544 -0.2427 -0.1818
    6CHTO  H191 2193   5.444   5.029   1.300  0.5637  1.5066  0.5034
    6CHTO  C108 2194   5.521   4.824   1.303  0.3702  0.2633  1.1167
    6CHTO   O71 2195   5.391   4.783   1.257  0.1333 -0.3514  0.4013
    6CHTO  H171 2196   5.384   4.830   1.176 -0.9982  0.4481  0.9557
    6CHTO   O62 2197   5.339   5.064   1.654  0.1841  0.0315 -0.0460
    6CHTO   C91 2198   5.198   5.070   1.634 -1.0555 -0.6695 -0.2952
    6CHTO  H178 2199   5.157   5.171   1.633 -0.5212 -0.4481  0.3637
    6CHTO   C92 2200   5.133   4.998   1.763 -0.1260  0.4603  1.0596
    6CHTO  H179 2201   5.181   5.045   1.850 -0.4950  0.3957  1.2953
    6CHTO   O66 2202   4.990   5.016   1.768 -0.2517 -0.3091 -0.4359
    6CHTO  H166 2203   4.972   5.105   1.791 -0.4314 -0.6728  0.8745
    6CHTO   C93 2204   5.161   4.845   1.760 -0.1449  0.1736 -0.2937
    6CHTO  H180 2205   5.080   4.793   1.814  1.5596 -0.0100  2.1749
    6CHTO   N16 2206   5.285   4.809   1.836  0.6782  1.0133  0.3180
    6CHTO  H172 2207   5.292   4.863   1.930 -1.3048  1.2136  0.3571
    6CHTO  H173 2208   5.374   4.820   1.776  2.4393 -0.9052  2.4937
    6CHTO   C94 2209   5.164   4.787   1.611  0.2259 -0.6082  0.5001
    6CHTO  H181 2210   5.266   4.781   1.574  0.2547  0.5992  0.3660
    6CHTO   O61 2211   5.090   4.867   1.514 -0.5307  0.1920 -0.2245
    6CHTO   C95 2212   5.142   4.997   1.499 -0.0257 -0.0178  0.0490
    6CHTO  H182 2213   5.224   4.992   1.427  0.6163 -1.9687  0.8719
    6CHTO  C106 2214   5.038   5.077   1.421  0.8347 -0.4270 -0.0925
    6CHTO   O69 2215   5.034   5.022   1.288  0.5262  0.3268 -0.1177
    6CHTO  H169 2216   5.116   5.023   1.243  1.1322 -1.3430  0.9287
    6CHTO   O63 2217   5.100   4.652   1.603 -0.5126  0.1848  0.1036
    6CHTO   C96 2218   5.173   4.558   1.514 -0.4808  0.0872 -0.4168
    6CHTO  H183 2219   5.276   4.592   1.505 -0.3982 -0.2672 -0.8157
    6CHTO   C98 2220   5.120   4.545   1.371  0.3997  0.6131 -0.0607
    6CHTO  H185 2221   5.014   4.515   1.377  0.6491 -0.3725 -0.6007
    6CHTO   O67 2222   5.120   4.675   1.300  0.8534  0.0710 -0.0646
    6CHTO  H167 2223   5.054   4.728   1.343  0.2269 -0.0522 -0.8579
    6CHTO  C102 2224   5.198   4.435   1.286  0.1115 -0.1850  0.6649
    6CHTO  H189 2225   5.290   4.485   1.251 -0.5883 -0.0180 -1.0174
    6CHTO   N18 2226   5.130   4.383   1.166 -0.2960  0.2633 -0.1459
    6CHTO  H176 2227   5.140   4.456   1.087  0.9609  0.5274  0.2419
    6CHTO  H177 2228   5.024   4.371   1.180 -0.4116  0.0034 -1.2296
    6CHTO  C105 2229   5.246   4.311   1.370  0.1805 -0.7625  0.0992
    6CHTO  H192 2230   5.213   4.220   1.318 -2.7336  0.3352 -0.0894
    6CHTO   O65 2231   5.191   4.297   1.498 -0.3696  0.5843  0.6152
    6CHTO  C100 2232   5.198   4.414   1.580 -0.1131 -0.4125 -0.0840
    6CHTO  H187 2233   5.127   4.390   1.661  0.4302 -1.1672  0.1627
    6CHTO  C107 2234   5.337   4.414   1.656 -0.2264 -0.2585 -0.5315
    6CHTO   O70 2235   5.355   4.295   1.735  0.5370  0.6091  0.2016
    6CHTO  H170 2236   5.281   4.289   1.792  0.5534 -1.7208  0.0235
    6CHTO   O57 2237   5.408   4.317   1.371  0.2149  0.5764 -0.2026
    6CHTO   C85 2238   5.499   4.229   1.308  0.4506 -0.0543 -0.2040
    6CHTO  H157 2239   5.460   4.226   1.204  1.2444 -1.7541 -0.4837
    6CHTO   C83 2240   5.477   4.085   1.380  0.8859  0.2233  0.2012
    6CHTO  H155 2241   5.372   4.059   1.369  1.2254 -1.0359 -0.0684
    6CHTO   O56 2242   5.478   4.103   1.531  0.0451 -0.6711  0.3910
    6CHTO  H135 2243   5.561   4.138   1.559 -1.0179  0.3944  2.3262
    6CHTO   C81 2244   5.582   3.985   1.314 -0.2054  1.0034  0.1695
    6CHTO  H153 2245   5.569   3.989   1.206  0.1926 -1.9640 -0.0106
    6CHTO   N14 2246   5.562   3.846   1.353 -0.6471 -0.1990 -0.3278
    6CHTO  H141 2247   5.620   3.779   1.292  0.3802  0.9168 -0.5862
    6CHTO  H142 2248   5.461   3.811   1.359  0.1816 -2.2747  3.1506
    6CHTO   C79 2249   5.729   4.032   1.344 -0.3496 -0.4672 -0.2121
    6CHTO  H151 2250   5.794   3.957   1.299 -1.1462 -1.5692  0.4275
    6CHTO   O52 2251   5.752   4.159   1.285 -0.0305 -0.1166  0.2581
    6CHTO   C86 2252   5.658   4.269   1.317 -0.3776  0.3062  0.3033
    6CHTO  H158 2253   5.685   4.305   1.418  1.2603 -0.6327  0.2213
    6CHTO   C90 2254   5.689   4.393   1.221 -0.1146  0.6728 -0.2881
    6CHTO   O60 2255   5.744   4.354   1.096  0.2648 -0.6612 -0.1708
    6CHTO  H138 2256   5.797   4.418   1.053 -0.8363 -0.2044 -0.8511
    6CHTO   O50 2257   5.770   4.030   1.484  0.3584  0.2949  0.6585
    6CHTO   C73 2258   5.864   4.050   1.590  0.0542  0.4543 -0.3719
    6CHTO  H145 2259   5.921   3.957   1.607 -0.7881  0.0223  0.1475
    6CHTO   C74 2260   5.781   4.075   1.725 -0.2358 -0.3821 -0.0843
    6CHTO  H146 2261   5.700   4.001   1.727  2.0466 -3.0788 -2.3977
    6CHTO   O54 2262   5.871   4.042   1.835 -0.7022 -0.2862  0.5809
    6CHTO  H133 2263   5.843   4.083   1.914  1.4921 -0.9868  1.7575
    6CHTO   C75 2264   5.725   4.229   1.726 -0.5574  0.7021 -0.7455
    6CHTO  H147 2265   5.644   4.237   1.653  0.7015  2.5107 -1.9834
    6CHTO   N13 2266   5.670   4.273   1.853 -0.2318 -0.0462 -0.2078
    6CHTO  H139 2267   5.567   4.301   1.838 -1.2614 -2.7566  1.3977
    6CHTO  H140 2268   5.733   4.349   1.897 -1.8670  0.3865  1.4338
    6CHTO   C76 2269   5.835   4.333   1.676 -0.0022 -0.4203 -0.1406
    6CHTO  H148 2270   5.907   4.348   1.757  1.1466  1.0223 -1.4074
    6CHTO   O49 2271   5.901   4.291   1.560 -0.1016 -0.2039 -0.0437
    6CHTO   C77 2272   5.964   4.165   1.568  0.2770 -0.2237 -1.2640
    6CHTO  H149 2273   6.046   4.153   1.639 -0.2913 -1.6764 -0.8339
    6CHTO   C88 2274   6.040   4.144   1.436  0.0933  0.5203 -0.2678
    6CHTO   O58 2275   6.164   4.234   1.421 -0.0771 -0.2105 -0.0526
    6CHTO  H136 2276   6.205   4.226   1.337 -0.3574 -0.5718 -0.1538
    6CHTO   O51 2277   5.756   4.490   1.628 -0.3184 -0.1867  0.0805
    6CHTO   C78 2278   5.839   4.623   1.661 -0.3132 -0.1477  0.5672
    6CHTO  H150 2279   5.945   4.592   1.673 -0.8092 -2.1530 -0.1440
    6CHTO   C80 2280   5.790   4.687   1.792 -0.1548  0.0816 -0.0334
    6CHTO  H152 2281   5.685   4.720   1.776 -0.3802 -0.3547  0.5465
    6CHTO   O55 2282   5.798   4.592   1.898 -0.2304 -0.0362  0.1124
    6CHTO  H134 2283   5.749   4.513   1.886 -1.0290  0.4544  0.1229
    6CHTO   C84 2284   5.873   4.823   1.822 -0.5146 -0.6976 -0.1186
    6CHTO  H156 2285   5.977   4.805   1.852 -0.2964  1.8975  0.8060
    6CHTO   N15 2286   5.818   4.910   1.936 -0.1349  0.1136 -0.4773
    6CHTO  H143 2287   5.858   4.878   2.030 -2.8771 -0.3399  0.5895
    6CHTO  H144 2288   5.840   5.012   1.916 -2.1404  0.4111 -1.2851
    6CHTO   C87 2289   5.898   4.910   1.697 -0.0527 -0.1643  0.1314
    6CHTO  H159 2290   5.820   4.985   1.680  1.8968  1.9304  0.2664
    6CHTO   O53 2291   5.915   4.834   1.559  0.1159 -0.1280  0.1929
    6CHTO   C82 2292   5.832   4.720   1.539  0.4301  0.8187  0.3388
    6CHTO  H154 2293   5.733   4.760   1.518  0.9202  1.6838 -0.3331
    6CHTO   C89 2294   5.887   4.654   1.410  0.1751  0.1523 -0.6885
    6CHTO   O59 2295   6.006   4.575   1.431 -0.5549  0.3730  0.1220
    6CHTO  H137 2296   5.986   4.500   1.484  0.5268  0.0495  0.0925
    6CHTO   O45 2297   6.035   5.007   1.708  0.2957  0.3748 -0.6033
    6CHTO   C67 2298   6.158   4.945   1.667 -0.3522 -0.0608 -0.3928
    6CHTO  H124 2299   6.158   4.839   1.692  0.5604 -0.2547 -1.2129
    6CHTO   C65 2300   6.187   4.968   1.513  0.0767 -0.0270  0.1583
    6CHTO  H122 2301   6.097   4.995   1.457 -0.9390  0.2233  1.8790
    6CHTO   O44 2302   6.245   4.841   1.462  0.3483 -0.0669  0.7312
    6CHTO  H102 2303   6.177   4.776   1.458 -1.2190  1.5131  1.3192
    6CHTO   C63 2304   6.280   5.092   1.493 -0.3913 -0.2449  0.6223
    6CHTO  H120 2305   6.235   5.173   1.550  0.2093  0.8729 -0.4881
    6CHTO   N11 2306   6.264   5.152   1.356  0.3476  0.1482 -0.6844
    6CHTO  H108 2307   6.180   5.218   1.362  0.4161  0.0817  1.4757
    6CHTO  H109 2308   6.356   5.192   1.318 -1.5089  2.6971 -2.6067
    6CHTO   C61 2309   6.420   5.059   1.552 -0.7990 -0.5394 -0.7074
    6CHTO  H118 2310   6.484   5.148   1.566  0.0959 -1.0443 -1.4849
    6CHTO   O40 2311   6.411   5.000   1.680 -0.1108 -0.1599  0.4987
    6CHTO   C68 2312   6.281   5.011   1.755 -0.6878 -0.3383  0.2399
    6CHTO  H125 2313   6.258   5.119   1.769  0.6823 -0.5330  4.4983
    6CHTO   C72 2314   6.304   4.946   1.900  0.0490  0.1348  0.2744
    6CHTO   O48 2315   6.342   4.806   1.875 -0.0221  0.4169 -0.2849
    6CHTO  H105 2316   6.433   4.787   1.866 -0.6207 -2.2088 -1.1298
    6CHTO   O38 2317   6.483   4.957   1.467  0.2661 -0.1213 -0.0807
    6CHTO   C55 2318   6.603   4.983   1.391  0.4043  0.0815 -0.7368
    6CHTO  H112 2319   6.612   5.093   1.388  0.6298  0.0325 -3.1048
    6CHTO   C56 2320   6.586   4.925   1.250 -0.3226 -0.3953 -0.2212
    6CHTO  H113 2321   6.531   4.830   1.262 -1.0904  0.1331  0.4676
    6CHTO   O42 2322   6.496   5.004   1.166 -0.4595 -0.1306  0.0473
    6CHTO  H100 2323   6.459   4.953   1.096  0.1265  2.1604 -2.0072
    6CHTO   C57 2324   6.721   4.905   1.171 -0.0176 -0.6944  0.0059
    6CHTO  H114 2325   6.750   5.004   1.139  0.6606 -0.7390  0.4822
    6CHTO   N10 2326   6.704   4.830   1.048 -0.0880  0.6785  0.0413
    6CHTO  H106 2327   6.655   4.736   1.070 -0.1765  1.0485  1.4506
    6CHTO  H107 2328   6.802   4.805   1.011  0.0765  0.6699  0.4802
    6CHTO   C58 2329   6.830   4.852   1.269 -0.3398  0.0612  0.6656
    6CHTO  H115 2330   6.805   4.749   1.299 -0.9975  0.1264  0.3503
    6CHTO   O37 2331   6.842   4.930   1.387  0.1122  0.6537 -0.1689
    6CHTO   C59 2332   6.726   4.927   1.471  0.1901 -0.0941 -0.0542
    6CHTO  H116 2333   6.705   4.822   1.494  1.7902 -0.2439  0.7804
    6CHTO   C70 2334   6.759   4.992   1.607 -0.0889  0.0639 -1.1305
    6CHTO   O46 2335   6.859   4.917   1.675  0.2770 -0.0028 -0.3345
    6CHTO  H103 2336   6.819   4.888   1.755  0.2867 -1.0306 -0.6961
    6CHTO   O39 2337   6.973   4.841   1.179  0.1673 -0.1216 -0.2850
    6CHTO   C60 2338   7.046   4.728   1.226 -0.1078  0.1818 -0.3851
    6CHTO  H117 2339   7.045   4.724   1.335 -2.2304  2.6527 -0.2740
    6CHTO   C62 2340   6.982   4.587   1.182 -0.1252 -0.2033 -0.6916
    6CHTO  H119 2341   6.877   4.578   1.217 -0.9558  1.4226 -2.6584
    6CHTO   O43 2342   6.983   4.575   1.039  0.5366  0.0541  0.1430
    6CHTO  H101 2343   6.974   4.484   1.015  0.9508  0.7839 -3.0333
    6CHTO   C66 2344   7.065   4.468   1.262 -0.0733 -0.1478 -0.3662
    6CHTO  H123 2345   7.055   4.484   1.370 -0.3354 -1.3253 -0.2051
    6CHTO   N12 2346   7.018   4.332   1.230  0.5029 -0.5907  1.0270
    6CHTO  H110 2347   6.979   4.289   1.321  1.8550 -0.7328  1.5383
    6CHTO  H111 2348   6.942   4.336   1.153 -0.4745  1.6615  2.0871
    6CHTO   C69 2349   7.217   4.480   1.235  0.7890  0.0239 -0.0693
    6CHTO  H126 2350   7.247   4.459   1.131 -1.4140 -0.6874 -0.5728
    6CHTO   O41 2351   7.272   4.637   1.269  0.1064 -0.5958 -0.2353
    6CHTO   C64 2352   7.196   4.737   1.187  0.3962  0.7626 -0.5495
    6CHTO  H121 2353   7.199   4.721   1.077 -3.0892  4.0358 -1.2140
    6CHTO   C71 2354   7.248   4.882   1.213  0.4512 -0.4843  0.3207
    6CHTO   O47 2355   7.381   4.890   1.159  0.2136  0.6616  0.1388
    6CHTO  H104 2356   7.379   4.876   1.066 -1.4881 -1.2295  0.4105
    6CHTO   O34 2357   7.296   4.369   1.331  0.0672 -0.0860 -0.1521
    6CHTO   C49 2358   7.449   4.317   1.272 -0.3678  0.5763 -0.6668
    6CHTO   H91 2359   7.430   4.250   1.188  0.5350 -0.9669  0.3450
    6CHTO   C47 2360   7.514   4.242   1.395 -0.3873  0.4659 -0.5131
    6CHTO   H89 2361   7.600   4.183   1.359 -0.3592 -0.3418  0.8481
    6CHTO   O33 2362   7.427   4.147   1.448  0.4717 -0.3191 -0.2113
    6CHTO   H70 2363   7.440   4.060   1.415  1.3929 -0.3954  0.3347
    6CHTO   C45 2364   7.549   4.346   1.512  0.8535  0.2197  0.8329
    6CHTO   H87 2365   7.467   4.351   1.586 -1.0698  2.0091 -1.3559
    6CHTO    N8 2366   7.666   4.297   1.585 -0.1220 -0.5350  0.0870
    6CHTO   H75 2367   7.644   4.193   1.602 -0.2137 -0.4162  0.7260
    6CHTO   H76 2368   7.673   4.360   1.673 -2.0385  2.3745 -1.7473
    6CHTO   C43 2369   7.554   4.495   1.461 -0.2900 -0.2286  0.5870
    6CHTO   H85 2370   7.449   4.524   1.456 -0.0748  0.3398 -0.9135
    6CHTO   O29 2371   7.617   4.503   1.335 -0.0638  0.0143 -0.0093
    6CHTO   C50 2372   7.546   4.435   1.231 -0.1493  0.6735  0.0490
    6CHTO   H92 2373   7.490   4.513   1.178  0.6431  1.0354 -0.2657
    6CHTO   C54 2374   7.650   4.395   1.120 -0.4696 -0.6658 -0.0833
    6CHTO   O36 2375   7.742   4.292   1.161  0.0565 -0.4364 -0.2158
    6CHTO   H72 2376   7.822   4.300   1.114  0.0349  0.9668 -0.0319
    6CHTO   O27 2377   7.623   4.572   1.560 -0.1752 -0.0648  0.2241
    6CHTO   C37 2378   7.680   4.704   1.575 -0.2024 -0.0604 -0.5961
    6CHTO   H79 2379   7.770   4.725   1.515 -1.0372  3.3127 -0.7510
    6CHTO   C38 2380   7.579   4.805   1.517 -0.5398 -0.0600  0.1988
    6CHTO   H80 2381   7.478   4.790   1.559 -0.8789 -1.5742 -1.1184
    6CHTO   O31 2382   7.577   4.792   1.367  0.1166  0.3361 -0.0623
    6CHTO   H68 2383   7.509   4.738   1.332  0.4025  0.0107 -0.1219
    6CHTO   C39 2384   7.623   4.953   1.547 -0.6997 -0.0411 -0.4719
    6CHTO   H81 2385   7.713   4.962   1.487  0.1760 -0.1994  0.7947
    6CHTO    N7 2386   7.522   5.058   1.506  0.3695  0.5017  0.3475
    6CHTO   H73 2387   7.454   5.011   1.437  0.4955 -0.2657  0.7414
    6CHTO   H74 2388   7.577   5.139   1.460 -1.4162 -0.2262 -3.2314
    6CHTO   C40 2389   7.654   4.959   1.704 -0.2389 -0.0210 -0.1569
    6CHTO   H82 2390   7.566   4.960   1.769  1.6893  0.2509  2.5440
    6CHTO   O26 2391   7.749   4.867   1.750 -0.5264  0.5091 -0.2989
    6CHTO   C41 2392   7.709   4.726   1.725  0.3693 -0.8940  0.3707
    6CHTO   H83 2393   7.615   4.708   1.780 -0.5560 -0.0242 -0.8736
    6CHTO   C52 2394   7.821   4.629   1.773  0.3055 -0.2742  0.1139
    6CHTO   O35 2395   7.868   4.646   1.924 -0.4525  0.1116  0.7234
    6CHTO   H71 2396   7.875   4.562   1.965  1.2431 -0.4337 -0.6361
    6CHTO   O28 2397   7.724   5.082   1.736 -0.1187  0.7240  0.0767
    6CHTO   C42 2398   7.703   5.154   1.860 -0.1437 -0.3496  0.0572
    6CHTO   H84 2399   7.799   5.200   1.880 -1.6015  1.0196  4.7338
    6CHTO   C44 2400   7.672   5.081   1.996 -0.1731  0.3583 -0.3011
    6CHTO   H86 2401   7.583   5.019   1.986 -0.3895  0.6663 -0.2721
    6CHTO   O32 2402   7.782   4.987   2.014 -0.3664 -0.5714  0.1885
    6CHTO   H69 2403   7.857   5.043   2.018 -0.6495 -0.2358  0.9883
    6CHTO   C48 2404   7.645   5.183   2.115  0.1310 -0.3937 -0.1082
    6CHTO   H90 2405   7.742   5.230   2.133  0.2163 -0.3900 -0.5653
    6CHTO    N9 2406   7.608   5.102   2.236 -1.0273 -0.1101  0.7656
    6CHTO   H77 2407   7.664   5.146   2.317  1.1264  1.5470 -1.5521
    6CHTO   H78 2408   7.620   4.996   2.220  1.8151  0.5042 -1.5383
    6CHTO   C51 2409   7.545   5.298   2.080  0.8307 -0.0979 -0.4639
    6CHTO   H93 2410   7.447   5.263   2.048 -0.2214  0.9680  1.5067
    6CHTO   O30 2411   7.609   5.377   1.977 -0.1015  0.3627 -0.0590
    6CHTO   C46 2412   7.606   5.275   1.845 -0.1671 -0.2348 -0.0193
    6CHTO   H88 2413   7.503   5.240   1.835  0.0581 -0.3739 -2.0377
    6CHTO   C53 2414   7.632   5.349   1.725 -0.8637 -0.3213  0.4844
    6CHTO   O72 2415   7.568   5.481   1.735  0.4801  0.5503 -0.3322
    6CHTO  H199 2416   7.623   5.518   1.801  0.4864 -2.2414  1.3276
    6CHTO   O22 2417   7.532   5.400   2.181 -0.5159  0.7410 -0.3318
    6CHTO   C31 2418   7.421   5.493   2.197  0.0967 -0.9962 -0.1163
    6CHTO   H59 2419   7.427   5.535   2.299  0.2925 -0.1469 -0.4780
    6CHTO   C29 2420   7.419   5.612   2.099 -0.5692 -0.5056  0.9090
    6CHTO   H57 2421   7.428   5.586   1.992 -2.1871  2.4217  0.0145
    6CHTO   O21 2422   7.539   5.695   2.113 -0.7998  0.0980  0.0244
    6CHTO   H37 2423   7.615   5.640   2.118  0.6329  2.1704  1.6197
    6CHTO   C27 2424   7.286   5.701   2.120 -0.2035 -0.7178 -0.0843
    6CHTO   H55 2425   7.296   5.761   2.211  0.2998  1.2112 -1.3633
    6CHTO    N5 2426   7.275   5.806   2.016  0.1821 -0.2850  1.0074
    6CHTO   H43 2427   7.363   5.830   1.958 -0.4309 -0.9928 -0.2412
    6CHTO   H44 2428   7.202   5.774   1.943 -0.7481 -2.2564  2.7446
    6CHTO   C25 2429   7.155   5.613   2.125  0.3026 -0.6251 -0.2567
    6CHTO   H53 2430   7.129   5.586   2.021  1.4856 -0.9281 -0.4755
    6CHTO   O17 2431   7.170   5.497   2.216  0.3704 -0.3902 -0.2361
    6CHTO   C32 2432   7.283   5.413   2.201 -0.3019  0.0587 -0.4479
    6CHTO   H60 2433   7.275   5.358   2.108 -0.7386 -1.5071  0.4967
    6CHTO   C36 2434   7.286   5.316   2.331  0.2635  0.0071  0.1873
    6CHTO   O25 2435   7.293   5.397   2.451  0.3398 -0.2698 -0.2884
    6CHTO   H40 2436   7.376   5.396   2.494 -0.0131 -2.5065  0.4073
    6CHTO   O15 2437   7.028   5.691   2.181  0.1180 -0.3708  0.0957
    6CHTO   C19 2438   6.952   5.678   2.306  0.5271  0.5816  0.4682
    6CHTO   H47 2439   6.943   5.569   2.316 -1.2091  0.5220 -1.5138
    6CHTO   C20 2440   7.019   5.733   2.432  0.3612 -0.1568  0.0003
    6CHTO   H48 2441   7.037   5.841   2.422 -3.5399  0.5258 -0.5289
    6CHTO   O19 2442   7.140   5.658   2.442 -0.3724  0.0324 -0.2285
    6CHTO   H35 2443   7.207   5.709   2.483 -0.0604  0.6728 -1.5081
    6CHTO   C21 2444   6.935   5.719   2.563 -0.1418  0.0806  0.5533
    6CHTO   H49 2445   6.937   5.614   2.593 -1.2243 -0.6219 -1.7101
    6CHTO    N4 2446   6.991   5.785   2.683  0.0822  0.2625 -0.3735
    6CHTO   H41 2447   7.039   5.877   2.654  1.8383 -1.2574 -2.4403
    6CHTO   H42 2448   7.058   5.714   2.730  0.2074  0.3840 -0.3700
    6CHTO   C22 2449   6.789   5.764   2.529 -0.0202 -0.3933  0.4560
    6CHTO   H50 2450   6.811   5.870   2.520  1.7767 -0.6338  1.6954
    6CHTO   O14 2451   6.737   5.706   2.409 -0.2445  0.1153  0.0814
    6CHTO   C23 2452   6.805   5.729   2.289 -0.1369 -0.4257  0.0441
    6CHTO   H51 2453   6.800   5.836   2.261  0.0679 -0.2195  0.7867
    6CHTO   C34 2454   6.733   5.650   2.186 -0.3131 -0.3272  0.3584
    6CHTO   O23 2455   6.673   5.728   2.084 -0.2322 -0.4818 -0.0328
    6CHTO   H38 2456   6.733   5.755   2.017 -0.8316 -1.9703 -1.1897
    6CHTO   O16 2457   6.704   5.720   2.634 -0.2501 -0.5314  0.3953
    6CHTO   C24 2458   6.584   5.836   2.656  0.5538 -0.2889 -0.2320
    6CHTO   H52 2459   6.574   5.901   2.569  1.6682 -1.6893 -1.4324
    6CHTO   C26 2460   6.609   5.907   2.794  0.4452  0.0272 -0.1454
    6CHTO   H54 2461   6.643   5.831   2.867  1.0114 -0.0269 -0.4687
    6CHTO   O20 2462   6.729   5.990   2.781  0.3566  0.4626  0.1392
    6CHTO   H36 2463   6.777   5.981   2.862 -0.0299 -0.8848  0.2208
    6CHTO   C30 2464   6.501   5.996   2.855 -0.5270 -0.4087 -1.3156
    6CHTO   H58 2465   6.495   6.096   2.809  1.7735 -1.2290 -3.5355
    6CHTO    N6 2466   6.524   6.011   3.003 -0.4935 -0.2592 -0.0117
    6CHTO   H45 2467   6.614   6.069   3.015  0.2361 -1.8524  2.5830
    6CHTO   H46 2468   6.440   6.065   3.045  0.2261  1.6430 -0.9881
    6CHTO   C33 2469   6.366   5.930   2.828  0.7262 -0.3124  0.4869
    6CHTO   H61 2470   6.348   5.852   2.903 -1.0473 -0.6388 -0.2577
    6CHTO   O18 2471   6.354   5.871   2.695  0.2345 -0.3191  0.2841
    6CHTO   C28 2472   6.448   5.769   2.671  0.5613  0.4419 -0.3795
    6CHTO   H56 2473   6.452   5.694   2.750  2.5602  0.9440  0.0112
    6CHTO   C35 2474   6.411   5.690   2.546 -0.1747 -0.1558 -0.5713
    6CHTO   O24 2475   6.390   5.779   2.435 -0.2369 -0.5384 -0.6146
    6CHTO   H39 2476   6.343   5.733   2.369 -0.1534 -1.8818  0.2467
    6CHTO    O9 2477   6.256   6.027   2.853  0.3947 -0.2981 -0.2893
    6CHTO   C13 2478   6.102   5.957   2.854 -0.6825 -1.6249 -0.7587
    6CHTO   H26 2479   6.115   5.853   2.890  0.6681 -1.4250 -0.6431
    6CHTO   C11 2480   6.031   5.962   2.708 -0.2803  0.3085 -0.0461
    6CHTO   H24 2481   6.101   5.918   2.634 -1.7782 -0.8824 -0.7735
    6CHTO    O8 2482   6.008   6.101   2.677  0.9607  0.3099  0.1016
    6CHTO    H3 2483   6.092   6.135   2.653  1.1079  1.9334  2.7235
    6CHTO    C9 2484   5.898   5.885   2.712  0.6014  0.9122 -0.1787
    6CHTO   H22 2485   5.929   5.782   2.733 -2.5666 -0.0929 -0.1959
    6CHTO    N2 2486   5.830   5.876   2.580  0.0023  0.1555  0.0423
    6CHTO   H10 2487   5.731   5.915   2.602 -0.8128 -1.7754 -0.0615
    6CHTO   H11 2488   5.875   5.941   2.507 -0.0075  0.3069  0.1706
    6CHTO    C7 2489   5.814   5.930   2.839 -0.2441 -0.3169 -0.3985
    6CHTO   H20 2490   5.812   5.849   2.915  0.5304 -0.0364 -0.0681
    6CHTO    O4 2491   5.863   6.048   2.907 -0.1876  0.2741 -0.6748
    6CHTO   C14 2492   5.997   6.026   2.962  0.5299  0.0510  0.2030
    6CHTO   H27 2493   5.984   5.957   3.047 -0.0351 -3.1706 -2.4086
    6CHTO   C18 2494   6.060   6.153   3.015 -0.0711  0.1019  0.6445
    6CHTO   O13 2495   6.002   6.186   3.140  0.2218  0.7322 -0.0211
    6CHTO    H7 2496   6.064   6.232   3.193  0.0023  0.9582  0.0397
    6CHTO    O2 2497   5.647   5.961   2.804 -0.2400  0.8988 -0.4996
    6CHTO    C1 2498   5.530   5.919   2.878  0.4052 -0.2384 -0.3013
    6CHTO   H14 2499   5.438   5.971   2.845  0.9268  0.2413 -1.0541
    6CHTO    C2 2500   5.543   5.956   3.028  0.1861 -0.0895  0.6242
    6CHTO   H15 2501   5.638   5.909   3.060  1.0755  1.9924  1.1646
    6CHTO    O6 2502   5.556   6.096   3.030  0.8370  0.5543 -0.2368
    6CHTO    H1 2503   5.470   6.128   3.011  0.5566 -0.4447 -0.6681
    6CHTO    C3 2504   5.419   5.898   3.116 -0.0602  0.3282 -0.1665
    6CHTO   H16 2505   5.326   5.945   3.081 -0.2015 -1.4647 -2.3829
    6CHTO    N1 2506   5.437   5.930   3.263 -0.7113  0.4713  0.4165
    6CHTO    H8 2507   5.346   5.951   3.317 -0.5129  2.3973  0.0456
    6CHTO    H9 2508   5.501   6.017   3.270 -0.9710  0.7182 -0.2647
    6CHTO    C4 2509   5.400   5.747   3.087  0.0494  0.1093  0.1483
    6CHTO   H17 2510   5.490   5.697   3.123  1.0602  2.3208  0.7450
    6CHTO    O1 2511   5.401   5.722   2.945 -0.3107 -0.1763 -0.5179
    6CHTO    C5 2512   5.507   5.768   2.861 -0.5372 -0.3248  0.1175
    6CHTO   H18 2513   5.599   5.713   2.883  0.1678  1.5444  1.9742
    6CHTO   C16 2514   5.463   5.737   2.712  0.2800 -0.3121 -0.5878
    6CHTO   O11 2515   5.357   5.826   2.674  0.1714  0.9486  0.0408
    6CHTO    H5 2516   5.307   5.779   2.611 -0.2378 -0.6458  1.5062
    6CHTO    O3 2517   5.277   5.696   3.137 -0.5506  0.6391 -0.0625
    6CHTO    C6 2518   5.277   5.552   3.180  0.6035 -0.3839  0.4995
    6CHTO   H19 2519   5.367   5.499   3.152 -0.2271 -2.1996  1.2166
    6CHTO    C8 2520   5.259   5.539   3.331  0.3335 -0.5241 -0.5966
    6CHTO   H21 2521   5.172   5.597   3.361  0.8695  1.1966 -2.3174
    6CHTO    O7 2522   5.374   5.601   3.396  0.1801 -0.0993  0.6184
    6CHTO    H2 2523   5.381   5.577   3.487  0.1314  0.7756  0.8495
    6CHTO   C12 2524   5.239   5.386   3.364 -0.4563 -0.1193 -0.5987
    6CHTO   H25 2525   5.337   5.338   3.342  0.2021  0.5559  0.7782
    6CHTO    N3 2526   5.218   5.363   3.506  0.2426  0.4575 -0.3404
    6CHTO   H12 2527   5.135   5.418   3.549  0.2462 -0.2977  0.6514
    6CHTO   H13 2528   5.308   5.369   3.566 -0.9555  3.8420  1.2557
    6CHTO   C15 2529   5.127   5.325   3.269 -0.6372 -0.9720  0.1206
    6CHTO   H28 2530   5.026   5.356   3.296 -0.3480  0.8179 -0.7630
    6CHTO   O10 2531   5.117   5.168   3.297  0.2612 -0.3761  0.1005
    6CHTO    H4 2532   5.180   5.152   3.364  0.8554  1.3499 -0.0196
    6CHTO    O5 2533   5.153   5.342   3.129 -0.5610  0.1515  0.0761
    6CHTO   C10 2534   5.158   5.486   3.100 -0.3254  0.1516  0.0931
    6CHTO   H23 2535   5.064   5.529   3.136  0.2900 -0.0918  2.0641
    6CHTO   C17 2536   5.167   5.507   2.947  0.3443 -0.1679  0.3519
    6CHTO   O12 2537   5.069   5.432   2.878 -0.4880  0.6443 -0.1879
    6CHTO    H6 2538   5.000   5.495   2.865  0.1957  2.0752  2.6200
    7CHTO  H203 2539   5.396   2.537   3.542  2.3775  0.4546  0.0340
    7CHTO   O82 2540   5.401   2.630   3.553 -0.1346  0.6543 -0.2760
    7CHTO  C123 2541   5.527   2.661   3.500 -0.4384 -0.1993  0.5930
    7CHTO  H227 2542   5.526   2.631   3.395  0.3935  1.9899 -0.0648
    7CHTO   O77 2543   5.545   2.808   3.517  0.1196 -0.0861  0.0571
    7CHTO  C118 2544   5.659   2.863   3.447 -0.0872 -0.4952 -1.1179
    7CHTO  H222 2545   5.674   2.831   3.343 -1.2306  0.6582 -1.6534
    7CHTO  C125 2546   5.648   3.027   3.437  1.5320  0.7765  0.1025
    7CHTO   O84 2547   5.626   3.099   3.555 -0.2204 -0.0415  0.1223
    7CHTO  H205 2548   5.701   3.143   3.590 -0.6615  1.1087 -0.3636
    7CHTO  C114 2549   5.772   2.821   3.537 -0.0322  0.3082  0.4176
    7CHTO  H218 2550   5.752   2.842   3.642  4.2931 -0.7511  1.5488
    7CHTO  C116 2551   5.782   2.667   3.533 -0.4094 -0.2073  0.1329
    7CHTO  H220 2552   5.818   2.641   3.431 -0.6396  0.4581 -0.1190
    7CHTO   O79 2553   5.877   2.619   3.626  0.4592  1.0190  0.0684
    7CHTO  H201 2554   5.851   2.627   3.715  1.4055 -2.1428  0.6977
    7CHTO  C120 2555   5.643   2.589   3.569 -0.8294 -0.3722  0.1906
    7CHTO  H224 2556   5.627   2.612   3.677 -2.1887  0.5410 -0.1879
    7CHTO   N21 2557   5.653   2.446   3.548 -0.1810  0.3765  0.0967
    7CHTO  H211 2558   5.594   2.396   3.624  0.4756 -0.0829  0.3134
    7CHTO  H212 2559   5.631   2.415   3.447  1.1116 -0.3236  0.0142
    7CHTO   O75 2560   5.882   2.896   3.483  0.6850 -0.1622  0.1406
    7CHTO  C112 2561   6.019   2.905   3.567  0.3637  0.1086 -0.6657
    7CHTO  H216 2562   6.031   2.812   3.624  0.7776 -0.0797 -1.0516
    7CHTO   O73 2563   6.021   3.023   3.648 -1.1394 -0.9155 -0.1022
    7CHTO  C113 2564   6.127   3.016   3.742 -0.1798  0.3086 -0.1341
    7CHTO  H217 2565   6.118   2.918   3.794 -1.4050  0.8886  0.7929
    7CHTO  C124 2566   6.125   3.136   3.840 -0.5281 -0.3938  0.1427
    7CHTO   O83 2567   6.184   3.143   3.968 -0.7880  0.2951 -0.5889
    7CHTO  H204 2568   6.184   3.231   4.000 -1.6241 -0.2923  1.0698
    7CHTO  C109 2569   6.264   3.013   3.668 -0.1774  0.1187  0.1799
    7CHTO  H213 2570   6.282   3.108   3.615 -0.0613 -0.2591 -0.4646
    7CHTO  C110 2571   6.271   2.895   3.566 -0.2524  0.0721  0.4499
    7CHTO  H214 2572   6.274   2.797   3.614  2.3939 -1.1730 -2.0477
    7CHTO   O78 2573   6.398   2.911   3.495  0.0671 -0.3253 -0.0005
    7CHTO  H200 2574   6.471   2.937   3.548  0.5476 -0.3968 -0.6159
    7CHTO  C111 2575   6.147   2.902   3.473 -0.0089  0.6539 -0.8281
    7CHTO  H215 2576   6.155   2.998   3.418 -0.6949  2.2020  1.7105
    7CHTO   N19 2577   6.142   2.789   3.371 -0.8632  0.0071 -0.5398
    7CHTO  H207 2578   6.113   2.697   3.420 -1.8761  0.9434  0.6669
    7CHTO  H208 2579   6.074   2.802   3.289  1.0491 -0.8036 -2.2804
    7CHTO   O74 2580   6.370   2.983   3.757  0.0360 -0.1322 -0.1933
    7CHTO  C115 2581   6.499   3.075   3.728 -0.0892  0.2245  0.3124
    7CHTO  H219 2582   6.499   3.112   3.625 -2.1130 -2.8176 -0.8608
    7CHTO   O76 2583   6.512   3.211   3.831  0.3936  0.0176  0.2803
    7CHTO  C122 2584   6.530   3.166   3.965  0.0869 -0.6131 -0.4399
    7CHTO  H226 2585   6.449   3.098   3.993 -2.2313  1.6537 -1.4011
    7CHTO  C126 2586   6.517   3.291   4.064  0.5727 -0.0998 -0.2157
    7CHTO   O85 2587   6.395   3.362   4.083 -0.2058 -0.7802  0.3375
    7CHTO  H206 2588   6.390   3.417   4.007  0.2422  1.8201  2.1218
    7CHTO  C121 2589   6.662   3.082   3.985  0.5304  0.1159 -0.0207
    7CHTO  H225 2590   6.745   3.144   3.944  0.8206  0.3829  0.9493
    7CHTO   O81 2591   6.693   3.062   4.120 -0.0049  0.2531  0.6691
    7CHTO  H202 2592   6.626   3.021   4.171 -0.4290  0.2826  0.1448
    7CHTO  C119 2593   6.648   2.951   3.892 -1.5267  0.0012 -0.0451
    7CHTO  H223 2594   6.742   2.899   3.908 -1.4391  0.0250 -0.4803
    7CHTO  C117 2595   6.623   2.981   3.740  0.8933 -0.3558  0.5755
    7CHTO  H221 2596   6.592   2.896   3.680  2.2958 -0.6658  0.2710
    7CHTO   N20 2597   6.748   3.027   3.675 -0.2343 -0.2895  0.0690
    7CHTO  H209 2598   6.739   2.999   3.571  0.1105  0.2397 -0.1058
    7CHTO  H210 2599   6.760   3.134   3.680  1.7494 -0.4948  0.1086
    7CHTO   O80 2600   6.539   2.843   3.949 -0.3974  0.4404  0.0653
    7CHTO  C103 2601   6.529   2.702   3.883 -0.5190 -0.5053 -0.7305
    7CHTO  H190 2602   6.473   2.715   3.791  0.9391  1.3662 -1.3850
    7CHTO  C101 2603   6.656   2.617   3.859 -0.0996 -0.4897 -0.5809
    7CHTO  H188 2604   6.714   2.623   3.951  0.2639  0.1740 -0.8456
    7CHTO   O68 2605   6.734   2.674   3.750 -0.2083 -0.1246 -0.1414
    7CHTO  H168 2606   6.825   2.672   3.773 -0.4900 -1.5259  0.9893
    7CHTO   C99 2607   6.619   2.461   3.834 -0.7584  0.2583  0.5265
    7CHTO  H186 2608   6.566   2.449   3.738  0.7012  0.8208 -0.3762
    7CHTO   N17 2609   6.741   2.375   3.828  1.1449 -0.1092  0.0432
    7CHTO  H174 2610   6.835   2.427   3.832  0.9807  0.2431 -0.5577
    7CHTO  H175 2611   6.740   2.297   3.754  0.8260  0.1539 -0.2364
    7CHTO   C97 2612   6.521   2.416   3.945 -0.3861  0.2543 -0.4336
    7CHTO  H184 2613   6.569   2.411   4.043 -1.4752 -1.5373  0.0354
    7CHTO   O64 2614   6.404   2.502   3.941 -0.1163 -0.2201  0.0823
    7CHTO  C104 2615   6.445   2.630   3.990  0.0947 -0.1396 -0.1168
    7CHTO  H191 2616   6.506   2.615   4.079 -0.5044 -2.1842 -0.0268
    7CHTO  C108 2617   6.317   2.711   4.034 -0.0204 -0.0659 -0.0591
    7CHTO   O71 2618   6.221   2.703   3.931  0.4654  0.5907  0.7940
    7CHTO  H171 2619   6.248   2.768   3.870 -1.6482  1.5705  0.8619
    7CHTO   O62 2620   6.462   2.283   3.916  0.3253 -0.3440 -0.3170
    7CHTO   C91 2621   6.389   2.205   4.018 -0.0458 -0.1011  0.0197
    7CHTO  H178 2622   6.340   2.122   3.966  1.0001 -1.9920  1.9595
    7CHTO   C92 2623   6.277   2.280   4.096 -0.4139  0.4343 -0.5339
    7CHTO  H179 2624   6.322   2.370   4.139 -0.6367  1.1521 -1.7756
    7CHTO   O66 2625   6.178   2.319   4.006  0.1811 -0.5115  0.1467
    7CHTO  H166 2626   6.146   2.253   3.947  0.2469  1.2329 -1.9129
    7CHTO   C93 2627   6.205   2.186   4.213  0.4071  0.4420 -0.0240
    7CHTO  H180 2628   6.127   2.126   4.163  1.3786 -3.4960  2.9881
    7CHTO   N16 2629   6.125   2.272   4.306 -0.5786  0.7575 -0.1958
    7CHTO  H172 2630   6.191   2.320   4.377 -3.0174  1.9846  1.2921
    7CHTO  H173 2631   6.061   2.342   4.254  2.5124  1.2779 -3.5388
    7CHTO   C94 2632   6.317   2.096   4.282  0.1126  0.1030 -0.2220
    7CHTO  H181 2633   6.377   2.157   4.350 -0.4131  0.6430 -0.2339
    7CHTO   O61 2634   6.396   2.032   4.184 -0.2189  0.1261  0.6555
    7CHTO   C95 2635   6.481   2.128   4.117 -0.0871 -0.0105  0.0106
    7CHTO  H182 2636   6.530   2.193   4.189  1.8694  0.7112 -1.9142
    7CHTO  C106 2637   6.591   2.056   4.041  0.2937 -0.1056 -0.2177
    7CHTO   O69 2638   6.536   1.964   3.948  0.1359  0.2136 -0.6753
    7CHTO  H169 2639   6.466   1.919   3.991  1.2757  2.2137  3.6539
    7CHTO   O63 2640   6.253   1.987   4.345 -0.1034  0.2596  0.0577
    7CHTO   C96 2641   6.327   1.959   4.494  0.0986  1.5228  0.3326
    7CHTO  H183 2642   6.340   2.053   4.546 -1.3540  2.6858 -1.3357
    7CHTO   C98 2643   6.458   1.878   4.485  0.2250 -0.1742  0.6423
    7CHTO  H185 2644   6.503   1.906   4.389  2.1371  0.0239  1.5824
    7CHTO   O67 2645   6.551   1.906   4.588  0.6388  0.2380 -0.3683
    7CHTO  H167 2646   6.634   1.864   4.575  0.3643 -0.7966  1.1833
    7CHTO  C102 2647   6.427   1.716   4.483  0.1842 -0.2242 -0.0374
    7CHTO  H189 2648   6.522   1.666   4.506 -0.9886 -2.0969  0.8475
    7CHTO   N18 2649   6.382   1.661   4.351  0.1605  0.7778 -0.1975
    7CHTO  H176 2650   6.332   1.567   4.362  1.1437  0.3166  0.4441
    7CHTO  H177 2651   6.318   1.727   4.296 -0.0721  0.1193 -0.7164
    7CHTO  C105 2652   6.336   1.669   4.605  0.2927  0.1478 -0.0606
    7CHTO  H192 2653   6.248   1.614   4.569 -1.5447  1.6434  2.0013
    7CHTO   O65 2654   6.278   1.779   4.674  0.8326 -0.1025  0.2234
    7CHTO  C100 2655   6.222   1.879   4.583  0.8506  0.8631 -0.1348
    7CHTO  H187 2656   6.164   1.823   4.507  0.6482  2.0481 -0.8559
    7CHTO  C107 2657   6.134   1.977   4.667 -0.0646  0.2549  0.1755
    7CHTO   O70 2658   6.056   2.074   4.595 -0.0298  0.0477  0.4309
    7CHTO  H170 2659   5.975   2.073   4.642 -0.0391  0.0992  0.4152
    7CHTO   O57 2660   6.450   1.591   4.719 -0.6219 -0.4908 -0.1101
    7CHTO   C85 2661   6.496   1.452   4.735 -0.2774  0.5723  0.5343
    7CHTO  H157 2662   6.518   1.430   4.628 -1.6190 -0.8458  0.5454
    7CHTO   C83 2663   6.380   1.367   4.786 -0.0690  0.1498  0.4569
    7CHTO  H155 2664   6.310   1.383   4.704  0.7427  1.8617  0.0783
    7CHTO   O56 2665   6.325   1.415   4.910 -0.3590  0.3470  0.1601
    7CHTO  H135 2666   6.377   1.380   4.980 -0.5158 -0.5287 -0.1552
    7CHTO   C81 2667   6.429   1.222   4.780 -0.0334  0.3019 -0.0469
    7CHTO  H153 2668   6.466   1.202   4.679 -0.0074  0.3592 -0.0489
    7CHTO   N14 2669   6.325   1.121   4.797  0.0957 -0.4559  0.6736
    7CHTO  H141 2670   6.292   1.117   4.898  2.7048 -0.8266  1.5466
    7CHTO  H142 2671   6.359   1.025   4.764  0.2909  0.2475 -1.2737
    7CHTO   C79 2672   6.549   1.199   4.879 -0.0839 -0.5820 -0.0338
    7CHTO  H151 2673   6.587   1.098   4.866  1.8836  0.2733 -1.1855
    7CHTO   O52 2674   6.657   1.289   4.848  0.2511 -0.0925 -0.3756
    7CHTO   C86 2675   6.614   1.427   4.830 -0.2974  0.2767 -0.1328
    7CHTO  H158 2676   6.591   1.456   4.935 -0.1822  1.3037 -0.3876
    7CHTO   C90 2677   6.736   1.510   4.789  0.0666  0.9440 -0.2507
    7CHTO   O60 2678   6.838   1.522   4.894  0.4050  0.6839 -0.7788
    7CHTO  H138 2679   6.863   1.612   4.896  0.8864  0.5212  1.1945
    7CHTO   O50 2680   6.511   1.228   5.012  0.1221  1.0894  0.7211
    7CHTO   C73 2681   6.515   1.153   5.134  0.5637  0.0786  0.2787
    7CHTO  H145 2682   6.591   1.074   5.128 -0.5321 -0.9146 -1.2001
    7CHTO   C74 2683   6.376   1.080   5.149  0.5974 -0.5730 -0.7846
    7CHTO  H146 2684   6.352   1.019   5.060 -1.8650  0.5967 -0.9572
    7CHTO   O54 2685   6.378   0.989   5.262 -0.5997  0.1254 -0.5571
    7CHTO  H133 2686   6.435   0.924   5.226  0.0408  0.6071 -0.4339
    7CHTO   C75 2687   6.270   1.190   5.168 -0.1816 -0.1288 -0.1569
    7CHTO  H147 2688   6.261   1.242   5.071  1.2549  2.8322  1.2290
    7CHTO   N13 2689   6.127   1.148   5.175  0.1215  0.3252 -0.0843
    7CHTO  H139 2690   6.057   1.224   5.206  1.2529  1.6003 -0.6483
    7CHTO  H140 2691   6.123   1.070   5.251 -0.2285 -1.6844 -2.0999
    7CHTO   C76 2692   6.308   1.293   5.286  0.0723  0.1502  0.2976
    7CHTO  H148 2693   6.309   1.242   5.382 -1.8810  0.2945  0.4167
    7CHTO   O49 2694   6.446   1.345   5.271  0.5277 -0.0147 -0.6854
    7CHTO   C77 2695   6.550   1.248   5.251  0.5957 -0.0833 -0.3436
    7CHTO  H149 2696   6.559   1.190   5.343 -0.0186  2.6329  1.5026
    7CHTO   C88 2697   6.688   1.313   5.231  0.8577  0.8231  0.4536
    7CHTO   O58 2698   6.702   1.420   5.354  0.2934 -0.2469  0.5828
    7CHTO  H136 2699   6.790   1.451   5.351 -0.0458  0.6975  0.1594
    7CHTO   O51 2700   6.225   1.417   5.280  0.5105 -0.0863 -0.0505
    7CHTO   C78 2701   6.167   1.456   5.425 -0.6197  0.1646 -0.1561
    7CHTO  H150 2702   6.242   1.413   5.495  1.3108 -0.5883 -2.6104
    7CHTO   C80 2703   6.026   1.399   5.460  0.5310  0.7039 -0.4180
    7CHTO  H152 2704   5.953   1.424   5.380  0.7420  1.8171 -0.2763
    7CHTO   O55 2705   6.045   1.261   5.481 -0.0990  0.1094  0.3836
    7CHTO  H134 2706   5.959   1.229   5.465 -0.7859  2.1514 -0.2500
    7CHTO   C84 2707   5.975   1.465   5.592  0.2399  0.3095 -0.6201
    7CHTO  H156 2708   6.028   1.434   5.682  0.1860  3.2839  0.5121
    7CHTO   N15 2709   5.834   1.431   5.626  0.2675 -0.9353  0.2916
    7CHTO  H143 2710   5.791   1.379   5.543 -0.1421  0.1853 -0.2120
    7CHTO  H144 2711   5.824   1.369   5.713 -1.9555 -0.0706  0.6912
    7CHTO   C87 2712   5.995   1.618   5.589 -0.0363  0.4277  0.0246
    7CHTO  H159 2713   5.926   1.666   5.519  0.5222 -0.8446 -1.4386
    7CHTO   O53 2714   6.128   1.651   5.563 -0.5630 -0.0095 -0.3683
    7CHTO   C82 2715   6.174   1.613   5.432  0.0167  0.0749  0.4651
    7CHTO  H154 2716   6.103   1.648   5.357 -0.4995 -0.0926  0.8746
    7CHTO   C89 2717   6.321   1.672   5.398 -0.4989 -0.1418  0.5678
    7CHTO   O59 2718   6.320   1.810   5.438 -0.3401 -0.4565  0.2198
    7CHTO  H137 2719   6.294   1.818   5.528  1.7639 -1.6288  0.9934
    7CHTO   O45 2720   5.973   1.678   5.714  0.1592  0.8120 -0.1719
    7CHTO   C67 2721   5.962   1.818   5.715 -0.0168  0.4909  0.1488
    7CHTO  H124 2722   6.015   1.855   5.627  1.0007 -2.4577 -0.5473
    7CHTO   C65 2723   5.809   1.848   5.701  0.3491 -0.3123 -0.4024
    7CHTO  H122 2724   5.757   1.757   5.731 -1.2520  1.1715  1.4689
    7CHTO   O44 2725   5.787   1.866   5.561  0.0733 -0.0194  0.2312
    7CHTO  H102 2726   5.700   1.895   5.544 -1.0182 -3.0362  0.5670
    7CHTO   C63 2727   5.759   1.956   5.800 -0.0370  0.7057  0.5451
    7CHTO  H120 2728   5.743   1.917   5.901 -1.7442 -1.6658 -0.6014
    7CHTO   N11 2729   5.612   2.009   5.781  0.0046 -0.8248  0.4652
    7CHTO  H108 2730   5.539   1.963   5.846 -2.6599  1.6890 -0.6247
    7CHTO  H109 2731   5.582   1.982   5.682 -0.9443 -1.2684  0.8666
    7CHTO   C61 2732   5.867   2.079   5.805  0.2810  0.1925 -1.5413
    7CHTO  H118 2733   5.839   2.153   5.882  2.0550  1.0196 -1.6642
    7CHTO   O40 2734   5.994   2.034   5.843  0.6023 -0.1617  0.5525
    7CHTO   C68 2735   6.019   1.889   5.838  0.4809 -0.7926  0.3307
    7CHTO  H125 2736   5.961   1.835   5.915  0.3936  0.4887  1.1676
    7CHTO   C72 2737   6.168   1.853   5.858  0.2111  0.0023 -0.0734
    7CHTO   O48 2738   6.193   1.861   6.001  0.0483 -0.3444  0.5622
    7CHTO  H105 2739   6.250   1.793   6.031  2.1832  0.0387 -2.4466
    7CHTO   O38 2740   5.886   2.137   5.676 -0.4288 -0.4290 -0.2300
    7CHTO   C55 2741   5.924   2.270   5.668 -0.2636 -0.4045 -0.3659
    7CHTO  H112 2742   5.963   2.305   5.764  0.7386  3.6236 -2.1416
    7CHTO   C56 2743   5.802   2.360   5.625 -0.1454 -0.1102  0.9262
    7CHTO  H113 2744   5.768   2.309   5.534 -0.0208  1.5992 -0.0965
    7CHTO   O42 2745   5.695   2.341   5.720  0.5007 -0.3819 -0.6351
    7CHTO  H100 2746   5.729   2.367   5.803 -1.5320  3.0120 -0.7837
    7CHTO   C57 2747   5.847   2.514   5.592 -1.2667 -1.1038  0.6348
    7CHTO  H114 2748   5.876   2.561   5.686 -0.3082 -0.3332 -0.0459
    7CHTO   N10 2749   5.742   2.583   5.518 -0.3498 -0.0202  0.6628
    7CHTO  H106 2750   5.681   2.513   5.463  0.6374 -0.8300  0.5823
    7CHTO  H107 2751   5.786   2.648   5.444 -3.2459 -0.4774 -1.5545
    7CHTO   C58 2752   5.980   2.514   5.509 -0.0600 -0.3886 -0.2123
    7CHTO  H115 2753   5.959   2.463   5.412  1.3850 -1.2876 -0.0669
    7CHTO   O37 2754   6.083   2.431   5.574 -0.5210  0.5143  0.0624
    7CHTO   C59 2755   6.046   2.291   5.574  0.1532 -0.3365  0.1699
    7CHTO  H116 2756   6.024   2.258   5.473  0.0886  0.2987 -0.0246
    7CHTO   C70 2757   6.159   2.204   5.624  0.6720 -0.6144  0.3421
    7CHTO   O46 2758   6.227   2.246   5.741 -0.3578 -0.5951 -0.1638
    7CHTO  H103 2759   6.312   2.207   5.748 -0.2129 -0.7647 -2.6654
    7CHTO   O39 2760   6.036   2.673   5.498  0.5882 -0.2010 -0.5347
    7CHTO   C60 2761   6.139   2.680   5.397  0.1392 -0.8012  0.3458
    7CHTO  H117 2762   6.204   2.592   5.404 -0.7597 -1.5104 -0.0794
    7CHTO   C62 2763   6.074   2.699   5.255  0.9065  0.1802  0.6163
    7CHTO  H119 2764   6.012   2.609   5.236 -0.7537  1.4777 -0.1547
    7CHTO   O43 2765   5.986   2.810   5.238 -0.6232  0.4655 -0.2225
    7CHTO  H101 2766   5.914   2.803   5.298  0.0917 -2.5375  0.3762
    7CHTO   C66 2767   6.192   2.693   5.150 -0.2323  0.2422 -0.3404
    7CHTO  H123 2768   6.258   2.610   5.173 -0.6646  0.2121  0.8413
    7CHTO   N12 2769   6.152   2.687   5.011  0.6024 -0.1105 -0.2976
    7CHTO  H110 2770   6.126   2.591   4.969  2.5601 -1.6985  1.9944
    7CHTO  H111 2771   6.079   2.765   4.994  1.6745  0.8874 -0.3791
    7CHTO   C69 2772   6.284   2.815   5.179  0.5897 -0.1240  0.6419
    7CHTO  H126 2773   6.237   2.909   5.143  0.1505 -0.1437  1.1690
    7CHTO   O41 2774   6.336   2.813   5.327 -0.3812  0.5506 -0.0074
    7CHTO   C64 2775   6.229   2.801   5.429 -0.3747  0.0961  0.3615
    7CHTO  H121 2776   6.176   2.898   5.428 -0.1902  0.2063  0.9766
    7CHTO   C71 2777   6.301   2.776   5.568 -0.1317 -0.5673  0.0827
    7CHTO   O47 2778   6.328   2.899   5.632 -0.4526  0.6957 -0.1524
    7CHTO  H104 2779   6.260   2.937   5.684 -0.7729 -0.8914  0.6282
    7CHTO   O34 2780   6.401   2.811   5.094 -0.2677  0.1173  0.4333
    7CHTO   C49 2781   6.501   2.888   5.046  0.4939  0.5257  0.3299
    7CHTO   H91 2782   6.460   2.973   4.991  1.8282  1.4422  0.7259
    7CHTO   C47 2783   6.571   2.795   4.943  0.4606 -0.6168  0.5070
    7CHTO   H89 2784   6.628   2.880   4.900 -2.1628  0.4931 -0.8648
    7CHTO   O33 2785   6.482   2.746   4.839  0.0377  0.0685 -0.5405
    7CHTO   H70 2786   6.427   2.815   4.810 -1.6231  0.5399  3.4110
    7CHTO   C45 2787   6.645   2.677   5.018 -0.7814 -0.1937 -0.4809
    7CHTO   H87 2788   6.582   2.588   5.031 -2.3021  1.2467  2.7654
    7CHTO    N8 2789   6.766   2.653   4.940 -0.1352 -0.1581 -0.2501
    7CHTO   H75 2790   6.822   2.584   5.001  0.0834 -2.1952 -2.6988
    7CHTO   H76 2791   6.819   2.741   4.907  1.5586 -1.3689 -0.8175
    7CHTO   C43 2792   6.663   2.703   5.175 -0.1256  1.2352  0.3373
    7CHTO   H85 2793   6.565   2.684   5.218  0.4144  0.4120  1.2269
    7CHTO   O29 2794   6.706   2.835   5.202 -0.1686  0.8182  0.3055
    7CHTO   C50 2795   6.600   2.929   5.158 -0.7569 -0.1198 -0.6162
    7CHTO   H92 2796   6.546   2.956   5.250  0.2970 -1.7502  0.4894
    7CHTO   C54 2797   6.677   3.054   5.122  0.7144 -0.5961 -0.4313
    7CHTO   O36 2798   6.602   3.163   5.053  0.0572  0.3012  0.3696
    7CHTO   H72 2799   6.645   3.246   5.051 -0.8093  0.7435  0.0352
    7CHTO   O27 2800   6.752   2.606   5.235 -0.5530 -0.5410  0.5016
    7CHTO   C37 2801   6.742   2.495   5.321  0.1261  0.2675 -0.2019
    7CHTO   H79 2802   6.687   2.520   5.413 -0.7665 -1.5600 -0.2362
    7CHTO   C38 2803   6.649   2.379   5.262 -0.0060 -0.2079  0.0497
    7CHTO   H80 2804   6.682   2.353   5.160  0.6045 -0.3193  0.2739
    7CHTO   O31 2805   6.509   2.425   5.259  0.3468 -0.0995 -0.0239
    7CHTO   H68 2806   6.488   2.433   5.350 -0.6042  2.1739 -0.4269
    7CHTO   C39 2807   6.668   2.253   5.354 -0.2750 -0.7799  0.1782
    7CHTO   H81 2808   6.623   2.268   5.452 -1.1996 -2.1918 -0.0287
    7CHTO    N7 2809   6.598   2.134   5.295  0.6055  0.1125 -0.0842
    7CHTO   H73 2810   6.541   2.165   5.209  0.5428  3.1957  1.0174
    7CHTO   H74 2811   6.671   2.054   5.295  0.7945  0.2824 -0.5309
    7CHTO   C40 2812   6.823   2.225   5.382  0.9691  0.1210 -0.2938
    7CHTO   H82 2813   6.866   2.200   5.286 -0.7701 -1.3595 -0.7211
    7CHTO   O26 2814   6.886   2.345   5.440  0.1033 -0.2591  0.4498
    7CHTO   C41 2815   6.893   2.455   5.352 -0.0861  0.0107 -0.6810
    7CHTO   H83 2816   6.948   2.437   5.259 -1.2176 -1.4807 -1.0697
    7CHTO   C52 2817   6.973   2.563   5.428 -0.5436  0.1690  0.0051
    7CHTO   O35 2818   7.040   2.654   5.324  0.0175  0.1167  0.4911
    7CHTO   H71 2819   7.112   2.601   5.295  1.6783  1.3225  2.2710
    7CHTO   O28 2820   6.843   2.122   5.476  0.0890 -0.5694 -0.0587
    7CHTO   C42 2821   6.960   2.033   5.461  0.2168  0.0800  0.0506
    7CHTO   H84 2822   6.962   1.989   5.561 -0.4247 -0.6924 -0.2621
    7CHTO   C44 2823   7.098   2.108   5.447 -0.1450  0.7837  0.2461
    7CHTO   H86 2824   7.092   2.191   5.377 -0.5945  0.2765 -0.3253
    7CHTO   O32 2825   7.116   2.163   5.577 -0.1681 -0.3647  0.0738
    7CHTO   H69 2826   7.073   2.247   5.577  2.5718  1.1088 -1.3493
    7CHTO   C48 2827   7.208   2.002   5.395 -0.8545 -0.2418  0.6191
    7CHTO   H90 2828   7.221   1.937   5.481  3.5104 -0.8790 -0.3982
    7CHTO    N9 2829   7.335   2.077   5.374  0.3028  0.3414  0.2953
    7CHTO   H77 2830   7.396   2.002   5.325 -1.9449 -1.2194 -0.2089
    7CHTO   H78 2831   7.323   2.171   5.322  0.7057  0.5733  0.6249
    7CHTO   C51 2832   7.161   1.928   5.267  0.8246  0.5335  0.1830
    7CHTO   H93 2833   7.113   2.000   5.200 -0.0532  0.9404  1.2379
    7CHTO   O30 2834   7.057   1.841   5.327 -0.1457  0.3986 -0.1817
    7CHTO   C46 2835   6.927   1.923   5.364 -0.5148  0.0922  0.4951
    7CHTO   H88 2836   6.885   1.968   5.274 -3.0191  0.0103  1.5730
    7CHTO   C53 2837   6.826   1.826   5.422 -0.1270 -0.4304 -0.5019
    7CHTO   O72 2838   6.753   1.748   5.326 -0.0865 -0.3917  0.3913
    7CHTO  H199 2839   6.824   1.714   5.274 -0.2402 -0.4142  0.1971
    7CHTO   O22 2840   7.255   1.835   5.203 -0.1895 -0.3099 -0.0046
    7CHTO   C31 2841   7.263   1.815   5.056  0.1995 -0.3001  0.0832
    7CHTO   H59 2842   7.318   1.720   5.042  1.0275 -0.4264  3.7882
    7CHTO   C29 2843   7.132   1.793   4.979 -0.6888 -0.2715  0.0990
    7CHTO   H57 2844   7.076   1.887   4.989  0.5824  0.6501 -1.2339
    7CHTO   O21 2845   7.051   1.687   5.030  0.2961  0.3810 -0.0903
    7CHTO   H37 2846   6.964   1.684   4.995 -0.0863 -1.6095  0.9870
    7CHTO   C27 2847   7.172   1.777   4.828  1.3369 -0.0880  0.3496
    7CHTO   H55 2848   7.225   1.682   4.811  2.1349  1.0086 -4.0178
    7CHTO    N5 2849   7.049   1.770   4.748  0.3083 -0.2902 -0.1185
    7CHTO   H43 2850   6.969   1.833   4.782 -0.0983 -0.3212 -0.9975
    7CHTO   H44 2851   7.025   1.665   4.734  0.2474 -0.1823 -0.8122
    7CHTO   C25 2852   7.244   1.904   4.776  0.3518  0.4852 -0.0713
    7CHTO   H53 2853   7.190   2.000   4.775  0.3424  0.4783 -0.4216
    7CHTO   O17 2854   7.360   1.926   4.862  0.2031  0.6263  0.4083
    7CHTO   C32 2855   7.347   1.924   5.004  0.1004 -0.3761 -0.1648
    7CHTO   H60 2856   7.291   2.015   5.025 -2.3035 -1.5263 -1.3916
    7CHTO   C36 2857   7.485   1.932   5.059  0.0825 -0.3193  0.0553
    7CHTO   O25 2858   7.570   1.816   5.043  1.0373  0.3356 -0.3319
    7CHTO   H40 2859   7.606   1.786   5.125  1.0277 -0.2187 -0.5261
    7CHTO   O15 2860   7.305   1.886   4.649 -0.6051 -0.2936  0.3471
    7CHTO   C19 2861   7.312   1.945   4.516 -0.5928  0.5342  0.1685
    7CHTO   H47 2862   7.398   1.888   4.477  0.1612  1.1858  0.8604
    7CHTO   C20 2863   7.190   1.929   4.414 -0.4638  0.3779 -0.5263
    7CHTO   H48 2864   7.100   1.983   4.449 -0.4424  0.0556  0.0378
    7CHTO   O19 2865   7.168   1.789   4.418 -0.8953 -0.2923  0.6919
    7CHTO   H35 2866   7.112   1.778   4.493 -2.0540 -1.0203 -0.2866
    7CHTO   C21 2867   7.234   1.986   4.271  0.3979 -0.2246 -0.1997
    7CHTO   H49 2868   7.322   1.930   4.237 -0.2431 -0.7117 -1.0810
    7CHTO    N4 2869   7.125   1.970   4.171  0.0088 -0.1553  0.4007
    7CHTO   H41 2870   7.074   2.062   4.148 -0.2835 -0.7450 -1.3738
    7CHTO   H42 2871   7.166   1.929   4.080  1.1070  2.3227 -0.2662
    7CHTO   C22 2872   7.287   2.129   4.292 -0.3457 -0.3001  0.2910
    7CHTO   H50 2873   7.201   2.189   4.320 -1.5169 -1.3889 -0.9408
    7CHTO   O14 2874   7.390   2.144   4.393  0.1755  0.4622  0.2420
    7CHTO   C23 2875   7.364   2.093   4.526 -0.0133  0.3620 -0.0247
    7CHTO   H51 2876   7.288   2.157   4.573 -0.5263  1.1900 -1.9408
    7CHTO   C34 2877   7.492   2.101   4.603 -0.6374  0.0846 -0.1951
    7CHTO   O23 2878   7.549   2.233   4.609 -0.6221 -0.0591  0.4281
    7CHTO   H38 2879   7.583   2.257   4.693 -0.3496 -0.8382  0.5472
    7CHTO   O16 2880   7.350   2.174   4.175 -0.1069  0.0133 -0.0034
    7CHTO   C24 2881   7.329   2.344   4.151 -0.8085  0.6726  0.3247
    7CHTO   H52 2882   7.339   2.399   4.244 -1.6915  0.0865  0.7745
    7CHTO   C26 2883   7.195   2.376   4.082  0.2708 -0.3981  0.8928
    7CHTO   H54 2884   7.175   2.288   4.018 -1.8622 -0.3333  1.4422
    7CHTO   O20 2885   7.092   2.360   4.182  0.2854  0.1587  0.1864
    7CHTO   H36 2886   7.065   2.443   4.216 -1.7968 -1.1895  1.9006
    7CHTO   C30 2887   7.190   2.519   4.016 -0.7287  0.2793 -0.3253
    7CHTO   H58 2888   7.158   2.596   4.087 -3.4035 -0.6519 -0.4541
    7CHTO    N6 2889   7.077   2.515   3.922  1.0215 -0.1358  0.3335
    7CHTO   H45 2890   7.093   2.516   3.815 -0.8064 -2.7859 -0.0166
    7CHTO   H46 2891   7.002   2.588   3.943  1.9663  0.9532 -0.0162
    7CHTO   C33 2892   7.324   2.555   3.945  0.3906 -0.4748 -0.2205
    7CHTO   H61 2893   7.333   2.497   3.852 -0.6258 -3.0859  1.2349
    7CHTO   O18 2894   7.429   2.526   4.034 -0.6635 -0.2616  0.0664
    7CHTO   C28 2895   7.450   2.392   4.067  0.0032  0.6209 -0.2715
    7CHTO   H56 2896   7.460   2.332   3.977  0.1509 -0.3849  0.4061
    7CHTO   C35 2897   7.582   2.382   4.145 -0.6532  0.3816  0.0708
    7CHTO   O24 2898   7.698   2.430   4.076  0.5158 -0.2072  0.2272
    7CHTO   H39 2899   7.762   2.365   4.056  0.9470  0.9430 -2.3026
    7CHTO    O9 2900   7.317   2.692   3.917 -0.9428  0.2371  0.6205
    7CHTO   C13 2901   7.424   2.743   3.794 -0.9055 -0.1563 -0.7476
    7CHTO   H26 2902   7.435   2.656   3.726  1.6080 -0.9696  0.6362
    7CHTO   C11 2903   7.566   2.785   3.854  0.6468 -0.0897  0.5562
    7CHTO   H24 2904   7.630   2.696   3.860  0.8518  0.0558  0.5616
    7CHTO    O8 2905   7.558   2.858   3.972 -0.1908  0.4050  0.1785
    7CHTO    H3 2906   7.478   2.906   3.969 -0.5719 -0.2240  0.2117
    7CHTO    C9 2907   7.634   2.868   3.740 -0.2744 -0.2053  0.3772
    7CHTO   H22 2908   7.620   2.813   3.646  1.2960 -0.7335  0.4350
    7CHTO    N2 2909   7.782   2.881   3.744 -0.0042  0.2355  0.7592
    7CHTO   H10 2910   7.831   2.791   3.711  2.1957  1.7994 -0.2954
    7CHTO   H11 2911   7.813   2.945   3.663  0.8368 -1.9430 -0.7059
    7CHTO    C7 2912   7.548   2.998   3.726 -0.2121  0.5808 -0.3550
    7CHTO   H20 2913   7.566   3.032   3.622 -1.0747 -0.2580 -0.7904
    7CHTO    O4 2914   7.408   2.982   3.731  0.1548  0.1046 -0.4493
    7CHTO   C14 2915   7.360   2.851   3.706  0.2915 -0.8204 -0.5001
    7CHTO   H27 2916   7.382   2.837   3.598  1.0998 -1.0357 -0.3132
    7CHTO   C18 2917   7.208   2.841   3.716  0.3790  0.1823  0.4553
    7CHTO   O13 2918   7.153   2.709   3.676  0.3065 -0.0733  0.1240
    7CHTO    H7 2919   7.072   2.718   3.631  0.8395 -0.6933 -0.9687
    7CHTO    O2 2920   7.588   3.121   3.842 -0.4679  0.4397 -0.4100
    7CHTO    C1 2921   7.500   3.234   3.828 -0.7072 -0.0930 -0.4876
    7CHTO   H14 2922   7.407   3.204   3.777 -1.6715  0.1048  1.1422
    7CHTO    C2 2923   7.550   3.355   3.747  0.4365 -0.6009 -0.6997
    7CHTO   H15 2924   7.650   3.380   3.787  0.2383  1.0828 -1.2239
    7CHTO    O6 2925   7.547   3.317   3.611 -0.5642 -0.4340 -0.0790
    7CHTO    H1 2926   7.555   3.392   3.555  1.8382 -0.9766 -0.5111
    7CHTO    C3 2927   7.457   3.485   3.771  0.3864 -0.2870 -0.7409
    7CHTO   H16 2928   7.356   3.485   3.727  0.5638  2.5133 -1.2439
    7CHTO    N1 2929   7.519   3.607   3.717 -0.7664  0.2552  0.4399
    7CHTO    H8 2930   7.613   3.623   3.768 -1.3873  1.6611  1.1605
    7CHTO    H9 2931   7.448   3.687   3.720  0.7618  1.6905 -0.4977
    7CHTO    C4 2932   7.431   3.510   3.926  0.7125  0.4716 -0.3437
    7CHTO   H17 2933   7.521   3.547   3.976  0.2367  2.7226 -1.0912
    7CHTO    O1 2934   7.380   3.387   3.981 -0.5104  0.0933 -0.3804
    7CHTO    C5 2935   7.479   3.283   3.974  0.1773 -0.0089  0.9987
    7CHTO   H18 2936   7.575   3.316   4.013 -0.2675  0.0718  2.0201
    7CHTO   C16 2937   7.439   3.159   4.055 -0.3677 -0.0299 -0.1908
    7CHTO   O11 2938   7.316   3.094   4.013 -0.6007  0.0896  0.0147
    7CHTO    H5 2939   7.237   3.129   4.050 -2.1153 -1.0847 -2.0086
    7CHTO    O3 2940   7.322   3.601   3.945  0.4403 -0.0856  1.0786
    7CHTO    C6 2941   7.310   3.677   4.071 -0.3691  1.0863 -0.7293
    7CHTO   H19 2942   7.206   3.705   4.086 -1.5161 -2.6428 -1.2072
    7CHTO    C8 2943   7.354   3.597   4.197  0.0714 -0.0138 -0.1678
    7CHTO   H21 2944   7.455   3.559   4.182  1.0167  2.9099 -1.5783
    7CHTO    O7 2945   7.252   3.493   4.217 -0.4267  0.4310 -0.2086
    7CHTO    H2 2946   7.283   3.418   4.170 -1.0662  1.1100 -1.7349
    7CHTO   C12 2947   7.373   3.688   4.318  0.2573  0.7628 -0.7166
    7CHTO   H25 2948   7.268   3.714   4.345  0.3881  0.1501  0.3703
    7CHTO    N3 2949   7.436   3.616   4.435  0.9711  0.4208 -0.0484
    7CHTO   H12 2950   7.531   3.664   4.449 -0.0149  2.6880 -0.8364
    7CHTO   H13 2951   7.373   3.628   4.522 -0.7472  0.0839 -1.2113
    7CHTO   C15 2952   7.442   3.821   4.283  0.1860  0.2262 -0.3543
    7CHTO   H28 2953   7.551   3.815   4.279  0.2929  0.4629  1.5596
    7CHTO   O10 2954   7.410   3.934   4.381  0.2748 -0.0194 -0.0146
    7CHTO    H4 2955   7.454   3.912   4.461 -1.1420 -0.7573  0.5782
    7CHTO    O5 2956   7.383   3.881   4.169  0.2812 -0.7308  0.0912
    7CHTO   C10 2957   7.397   3.804   4.052  0.2090 -0.3617 -0.0067
    7CHTO   H23 2958   7.502   3.780   4.040 -0.0614 -1.2449 -0.5788
    7CHTO   C17 2959   7.350   3.905   3.950  0.0979  0.5315  0.5283
    7CHTO   O12 2960   7.439   4.011   3.929 -0.0397  0.0726  0.0162
    7CHTO    H6 2961   7.458   4.030   3.840 -1.2946  1.1193 -0.0425
    8CHTO  H203 2962   7.999   6.964   0.234  1.1301  2.1134 -2.5685
    8CHTO   O82 2963   7.911   6.999   0.236  0.0742 -0.4049  0.4691
    8CHTO  C123 2964   7.843   6.948   0.358 -0.0531  0.1655 -0.4520
    8CHTO  H227 2965   7.911   6.880   0.412 -0.5672 -0.0343 -0.0466
    8CHTO   O77 2966   7.826   7.064   0.438 -0.3057  0.3546 -0.3921
    8CHTO  C118 2967   7.748   7.051   0.564 -0.3923 -0.3217  0.3714
    8CHTO  H222 2968   7.797   6.978   0.630 -1.6024 -0.1201  1.5252
    8CHTO  C125 2969   7.755   7.190   0.641  0.6377 -0.1159  0.3201
    8CHTO   O84 2970   7.690   7.287   0.552 -0.7329  0.0179  0.0719
    8CHTO  H205 2971   7.599   7.296   0.572 -0.7222 -0.0675  0.1599
    8CHTO  C114 2972   7.610   7.005   0.525 -0.4948  0.3102  0.6256
    8CHTO  H218 2973   7.569   7.068   0.446  1.3900  0.1665 -0.4947
    8CHTO  C116 2974   7.623   6.860   0.463  0.2222 -0.0323 -0.3676
    8CHTO  H220 2975   7.672   6.797   0.541  2.0455  0.1741 -1.3088
    8CHTO   O79 2976   7.495   6.807   0.438 -0.1061  0.0541  0.1822
    8CHTO  H201 2977   7.435   6.818   0.509 -1.5099 -3.1181 -0.3831
    8CHTO  C120 2978   7.708   6.873   0.326  0.1264  0.1127 -0.7194
    8CHTO  H224 2979   7.648   6.921   0.246  1.3328  0.4105 -1.4574
    8CHTO   N21 2980   7.744   6.736   0.274  0.2120  0.2504 -0.2886
    8CHTO  H211 2981   7.830   6.700   0.328  0.3011 -0.1512 -0.7018
    8CHTO  H212 2982   7.770   6.756   0.171 -1.1308  0.0281 -0.6873
    8CHTO   O75 2983   7.536   7.020   0.649  0.2217  0.1390 -0.3312
    8CHTO  C112 2984   7.394   7.093   0.636  0.4417 -0.3891  0.4443
    8CHTO  H216 2985   7.337   7.030   0.566  1.1281 -0.0518 -0.4366
    8CHTO   O73 2986   7.416   7.222   0.587  1.0604 -0.7684 -0.6984
    8CHTO  C113 2987   7.288   7.296   0.566 -0.0525  0.1208 -0.6455
    8CHTO  H217 2988   7.214   7.255   0.495 -0.2392 -0.9681  0.1573
    8CHTO  C124 2989   7.331   7.424   0.495 -0.1156 -0.6455  0.6670
    8CHTO   O83 2990   7.212   7.489   0.460 -0.3565 -0.6636  0.0145
    8CHTO  H204 2991   7.167   7.427   0.405 -1.4261  1.0294 -1.0662
    8CHTO  C109 2992   7.233   7.326   0.705 -0.1221  0.0843 -0.5546
    8CHTO  H213 2993   7.309   7.378   0.765 -0.5521  0.6170 -0.4611
    8CHTO  C110 2994   7.200   7.185   0.781  0.3440  0.0292  0.3048
    8CHTO  H214 2995   7.130   7.126   0.721 -2.1939  2.5537  0.6480
    8CHTO   O78 2996   7.134   7.205   0.906 -0.1091 -0.6309 -0.3371
    8CHTO  H200 2997   7.182   7.175   0.981 -1.1272 -1.9500 -0.1876
    8CHTO  C111 2998   7.328   7.096   0.782 -0.3393  0.3942 -0.2945
    8CHTO  H215 2999   7.406   7.151   0.837 -0.4158  0.7112 -0.5028
    8CHTO   N19 3000   7.314   6.973   0.845 -0.2536  0.1059 -0.2816
    8CHTO  H207 3001   7.410   6.924   0.848  1.0656  2.5447 -1.1400
    8CHTO  H208 3002   7.269   6.974   0.943 -2.1384 -1.3642 -1.0847
    8CHTO   O74 3003   7.111   7.402   0.700 -0.0136 -0.2473 -0.4852
    8CHTO  C115 3004   7.111   7.554   0.793  0.1334  0.3294 -0.2063
    8CHTO  H219 3005   7.072   7.540   0.894  1.6093 -2.6124  0.0338
    8CHTO   O76 3006   7.248   7.606   0.815  0.5679  0.5493 -0.0114
    8CHTO  C122 3007   7.259   7.727   0.893 -0.2291  0.3239 -0.1482
    8CHTO  H226 3008   7.367   7.740   0.904 -0.4092  1.5890  0.2630
    8CHTO  C126 3009   7.191   7.709   1.039  0.0710 -0.5945  0.7794
    8CHTO   O85 3010   7.197   7.833   1.117  0.2881  0.1127  0.4669
    8CHTO  H206 3011   7.122   7.830   1.174  1.0279 -0.3991  1.4269
    8CHTO  C121 3012   7.193   7.840   0.799 -0.0513  0.2066  0.6645
    8CHTO  H225 3013   7.192   7.933   0.859 -0.0527  1.9648 -1.9949
    8CHTO   O81 3014   7.269   7.860   0.680 -0.2049  0.4007  0.4303
    8CHTO  H202 3015   7.246   7.947   0.655  0.3491  0.3469 -0.2792
    8CHTO  C119 3016   7.040   7.809   0.766  0.0907  0.1526 -0.0787
    8CHTO  H223 3017   6.983   7.818   0.859 -1.4967 -1.2901 -0.8856
    8CHTO  C117 3018   7.025   7.664   0.709 -0.2252  0.8154 -0.1271
    8CHTO  H221 3019   7.063   7.654   0.607  0.3371  0.4377  0.1207
    8CHTO   N20 3020   6.890   7.617   0.707  0.4430 -0.7262  0.1241
    8CHTO  H209 3021   6.860   7.593   0.808 -0.6072 -0.4705 -0.1199
    8CHTO  H210 3022   6.836   7.689   0.647 -0.6277 -1.0632  0.6658
    8CHTO   O80 3023   6.969   7.921   0.678 -0.0919 -0.2279 -0.5588
    8CHTO  C103 3024   6.889   8.041   0.747  0.4160 -0.3697  0.4576
    8CHTO  H190 3025   6.802   8.003   0.801  1.7910 -1.7763  1.7263
    8CHTO  C101 3026   6.966   8.128   0.847  0.1807 -0.2189 -0.0868
    8CHTO  H188 3027   7.066   8.143   0.806  0.0252  1.1332 -0.0004
    8CHTO   O68 3028   6.973   8.059   0.981 -0.4010  0.1097 -0.4399
    8CHTO  H168 3029   6.888   8.043   1.017 -0.3675  0.9592  0.0343
    8CHTO   C99 3030   6.903   8.274   0.863 -0.0651 -0.0012  0.9164
    8CHTO  H186 3031   6.800   8.255   0.901  0.1425  0.6890  1.8471
    8CHTO   N17 3032   6.982   8.365   0.960  0.1103 -0.0797 -0.4401
    8CHTO  H174 3033   7.070   8.408   0.916 -0.0093  2.0061  1.2910
    8CHTO  H175 3034   6.920   8.436   1.013  0.7912 -0.3555  0.7434
    8CHTO   C97 3035   6.880   8.343   0.724  0.6856 -0.2840 -0.8225
    8CHTO  H184 3036   6.967   8.362   0.660  0.6581  1.3997 -0.4121
    8CHTO   O64 3037   6.780   8.253   0.665 -0.0121  0.2094 -0.0488
    8CHTO  C104 3038   6.837   8.125   0.624  0.1107  0.3494 -0.1361
    8CHTO  H191 3039   6.917   8.139   0.551 -0.4669  2.2321 -0.4425
    8CHTO  C108 3040   6.736   8.040   0.553  0.2331 -0.2408 -0.3936
    8CHTO   O71 3041   6.699   8.106   0.432  0.0445 -0.7719  0.2612
    8CHTO  H171 3042   6.678   8.038   0.371 -0.1654 -1.7392  1.3744
    8CHTO   O62 3043   6.791   8.464   0.734  0.2896  0.0020 -0.1904
    8CHTO   C91 3044   6.858   8.588   0.703 -0.2544  0.5505  0.2351
    8CHTO  H178 3045   6.967   8.580   0.708 -0.2982 -1.0151 -1.0362
    8CHTO   C92 3046   6.811   8.686   0.809  0.7510 -0.1173  0.3065
    8CHTO  H179 3047   6.701   8.683   0.804  0.6687  1.7734  0.6010
    8CHTO   O66 3048   6.859   8.629   0.936 -0.0041  0.1814 -0.4660
    8CHTO  H166 3049   6.950   8.612   0.923  0.5113  1.7734  0.9242
    8CHTO   C93 3050   6.869   8.833   0.791 -1.0425 -0.2439 -0.0211
    8CHTO  H180 3051   6.975   8.829   0.817 -1.3061 -0.7552  1.0497
    8CHTO   N16 3052   6.803   8.927   0.883 -0.1835  0.0919 -0.2199
    8CHTO  H172 3053   6.698   8.906   0.890 -0.0431 -0.7693 -0.5997
    8CHTO  H173 3054   6.852   8.912   0.979  1.7359  1.7465 -0.8887
    8CHTO   C94 3055   6.848   8.894   0.652 -0.2485 -0.5138 -0.2919
    8CHTO  H181 3056   6.743   8.910   0.629 -0.8217 -1.0963  1.8052
    8CHTO   O61 3057   6.893   8.789   0.554 -0.0782 -0.1535  0.1258
    8CHTO   C95 3058   6.821   8.668   0.563  0.0315 -0.6866 -0.4782
    8CHTO  H182 3059   6.716   8.693   0.573  0.7032  1.8524  0.6077
    8CHTO  C106 3060   6.843   8.580   0.433  0.0287 -0.0448 -0.0795
    8CHTO   O69 3061   6.722   8.507   0.399 -0.0438  0.1557 -0.3471
    8CHTO  H169 3062   6.717   8.461   0.317 -0.2754 -2.7654  1.2304
    8CHTO   O63 3063   6.947   9.038   0.625  0.0174 -0.5665  0.1579
    8CHTO   C96 3064   6.922   9.107   0.495 -0.0321  0.3593 -0.1898
    8CHTO  H183 3065   6.842   9.056   0.442 -0.6220 -1.4786  2.4257
    8CHTO   C98 3066   7.040   9.104   0.397 -0.5897  0.6209  0.3158
    8CHTO  H185 3067   7.128   9.147   0.446  0.5740 -0.1059 -1.0939
    8CHTO   O67 3068   7.074   8.969   0.363  0.4694  0.1565 -0.4150
    8CHTO  H167 3069   7.165   8.951   0.348 -0.0933 -0.9258 -2.7671
    8CHTO  C102 3070   7.011   9.196   0.273  0.2020  0.8741  0.0273
    8CHTO  H189 3071   6.929   9.144   0.222  2.5901 -1.6084 -1.3979
    8CHTO   N18 3072   7.121   9.212   0.171  0.2873 -0.3127  0.2986
    8CHTO  H176 3073   7.089   9.251   0.075  1.0453 -1.2401 -0.3345
    8CHTO  H177 3074   7.176   9.120   0.161  1.1035 -0.0518  2.2524
    8CHTO  C105 3075   6.951   9.332   0.310  0.6434  0.4446 -0.8914
    8CHTO  H192 3076   7.026   9.398   0.352  0.8814 -0.6793  0.5036
    8CHTO   O65 3077   6.845   9.321   0.407  0.9747 -0.6659 -0.2737
    8CHTO  C100 3078   6.878   9.247   0.526 -0.2584  0.2551 -0.3339
    8CHTO  H187 3079   6.964   9.297   0.573 -2.2627  0.6197  3.1039
    8CHTO  C107 3080   6.753   9.261   0.626 -0.8009  0.9970 -0.1219
    8CHTO   O70 3081   6.647   9.168   0.607 -0.2735 -0.5205 -0.5939
    8CHTO  H170 3082   6.566   9.203   0.638  0.2870  0.9794 -0.7846
    8CHTO   O57 3083   6.871   9.376   0.183  0.1386 -0.1366  0.4889
    8CHTO   C85 3084   6.897   9.503   0.106 -0.2127  0.5228  1.0455
    8CHTO  H157 3085   7.005   9.527   0.120  0.2990 -1.6773  0.9483
    8CHTO   C83 3086   6.831   9.623   0.171 -0.1537  0.1649  0.0571
    8CHTO  H155 3087   6.873   9.633   0.272 -0.0022  0.4285 -0.0327
    8CHTO   O56 3088   6.689   9.607   0.191  0.6844  0.4832 -0.5936
    8CHTO  H135 3089   6.668   9.519   0.216  1.7693 -0.7573 -3.8315
    8CHTO   C81 3090   6.873   9.745   0.086 -0.3972 -0.2322 -0.4221
    8CHTO  H153 3091   6.982   9.745   0.074 -0.2146  1.0153  1.1203
    8CHTO   N14 3092   6.843   9.875   0.148 -0.4815 -0.9969  0.1945
    8CHTO  H141 3093   6.837   9.862   0.254 -1.0205  0.7374  0.3943
    8CHTO  H142 3094   6.921   9.944   0.124 -1.5734  0.4139  0.6623
    8CHTO   C79 3095   6.809   9.725  -0.055 -0.1028  0.2060 -0.2273
    8CHTO  H151 3096   6.850   9.803  -0.120 -0.1500  0.5436  0.1500
    8CHTO   O52 3097   6.852   9.601  -0.127 -0.3504  0.3574 -0.0919
    8CHTO   C86 3098   6.865   9.479  -0.043  1.1322 -0.0330 -0.1239
    8CHTO  H158 3099   6.765   9.431  -0.045  0.9082  0.2890  2.5584
    8CHTO   C90 3100   6.958   9.375  -0.116 -0.4724  0.6141 -0.1775
    8CHTO   O60 3101   6.889   9.300  -0.216 -0.4081  0.3986 -0.4336
    8CHTO  H138 3102   6.944   9.235  -0.254  0.4103 -0.1851  1.7090
    8CHTO   O50 3103   6.666   9.725  -0.057  0.2549  0.3315  0.5980
    8CHTO   C73 3104   6.541   9.750  -0.123  0.2446 -0.4937  0.2162
    8CHTO  H145 3105   6.544   9.730  -0.231 -0.1101 -0.2220  0.1550
    8CHTO   C74 3106   6.505   9.900  -0.110  0.4381  0.2039  0.2059
    8CHTO  H146 3107   6.587   9.955  -0.157 -0.4520 -0.5170 -2.2623
    8CHTO   O54 3108   6.388   9.919  -0.187  0.0919  0.2876 -0.5186
    8CHTO  H133 3109   6.400   9.902  -0.279  1.0780 -0.2286 -0.3082
    8CHTO   C75 3110   6.481   9.938   0.041 -0.0090  0.0341 -0.6495
    8CHTO  H147 3111   6.576   9.932   0.096 -0.5208  2.1763  0.5564
    8CHTO   N13 3112   6.442  10.078   0.070 -0.1961  0.3529  0.4128
    8CHTO  H139 3113   6.488  10.141  -0.004 -0.1940 -0.3673 -0.2017
    8CHTO  H140 3114   6.458  10.107   0.173 -0.9425  0.1713  0.5788
    8CHTO   C76 3115   6.369   9.836   0.102  0.5658  0.4136  0.1282
    8CHTO  H148 3116   6.272   9.846   0.054 -0.2781  1.0939  1.9352
    8CHTO   O49 3117   6.405   9.693   0.074  0.2962  0.0288  0.1937
    8CHTO   C77 3118   6.438   9.664  -0.064  1.1313 -0.0927  0.7493
    8CHTO  H149 3119   6.343   9.682  -0.115  1.1858  1.1792  1.0640
    8CHTO   C88 3120   6.457   9.518  -0.094  0.5121  0.3423 -0.1534
    8CHTO   O58 3121   6.552   9.483  -0.224  0.5785  0.0021 -0.0978
    8CHTO  H136 3122   6.525   9.523  -0.305  2.5535  0.2455 -0.6679
    8CHTO   O51 3123   6.360   9.837   0.258 -0.2552 -0.6800  0.6010
    8CHTO   C78 3124   6.244   9.732   0.329  0.3835  0.3360 -0.1932
    8CHTO  H150 3125   6.197   9.660   0.260  0.9096 -0.8214  0.6393
    8CHTO   C80 3126   6.144   9.814   0.413  0.4474  0.5891  0.3799
    8CHTO  H152 3127   6.203   9.871   0.487  1.3171 -2.4524  2.1359
    8CHTO   O55 3128   6.093   9.913   0.321  0.3687 -0.3017 -0.8757
    8CHTO  H134 3129   6.015   9.954   0.353  0.7334 -0.7427  0.6275
    8CHTO   C84 3130   6.027   9.727   0.477  0.6231 -0.9010 -0.2474
    8CHTO  H156 3131   5.956   9.696   0.400 -0.9735  1.4968  0.1906
    8CHTO   N15 3132   5.940   9.806   0.574  0.4050 -0.1835  0.4851
    8CHTO  H143 3133   5.996   9.826   0.663  2.0053 -0.5246 -0.4468
    8CHTO  H144 3134   5.842   9.767   0.595 -2.0717  5.1147 -0.4857
    8CHTO   C87 3135   6.092   9.609   0.553 -1.0560 -0.1914 -0.3016
    8CHTO  H159 3136   6.146   9.652   0.637  0.5895  0.0518 -1.4623
    8CHTO   O53 3137   6.192   9.542   0.468  1.0333  0.4037  0.2515
    8CHTO   C82 3138   6.300   9.627   0.426 -0.1705  0.0298  0.7074
    8CHTO  H154 3139   6.345   9.672   0.514 -0.4379 -0.8022  1.2831
    8CHTO   C89 3140   6.414   9.544   0.361  0.4216 -0.0981  0.4426
    8CHTO   O59 3141   6.378   9.452   0.258 -0.1060 -0.0259  0.3185
    8CHTO  H137 3142   6.374   9.363   0.285 -1.5961  0.5760  2.2258
    8CHTO   O45 3143   5.978   9.499   0.606  0.1177  0.2820  0.3608
    8CHTO   C67 3144   6.041   9.391   0.672  0.3262  0.0567 -0.4431
    8CHTO  H124 3145   6.141   9.367   0.637  0.1373  0.4420 -1.2422
    8CHTO   C65 3146   6.049   9.417   0.827  0.0137  0.7183 -0.5899
    8CHTO  H122 3147   5.983   9.500   0.853 -0.0150  0.1577  1.2298
    8CHTO   O44 3148   6.179   9.449   0.860 -0.6555  0.0084 -0.1021
    8CHTO  H102 3149   6.204   9.531   0.823 -1.5426 -0.1484 -1.0500
    8CHTO   C63 3150   5.993   9.299   0.919  0.5292 -0.0578  0.8872
    8CHTO  H120 3151   5.885   9.300   0.905  0.7751 -1.7688 -1.4426
    8CHTO   N11 3152   6.016   9.304   1.064 -0.3903  0.4754  0.3194
    8CHTO  H108 3153   6.023   9.209   1.111  1.0233 -0.4858 -1.7854
    8CHTO  H109 3154   6.110   9.339   1.102 -0.6632  0.8329  0.6793
    8CHTO   C61 3155   6.046   9.170   0.855 -0.1545 -0.5097 -0.0261
    8CHTO  H118 3156   6.014   9.082   0.913 -1.4040  1.2655  2.0506
    8CHTO   O40 3157   5.980   9.149   0.712  0.5760 -0.4025  0.5188
    8CHTO   C68 3158   5.954   9.273   0.633 -0.3731  0.6525  0.7840
    8CHTO  H125 3159   5.846   9.294   0.645 -0.6360 -1.0543  1.6138
    8CHTO   C72 3160   5.978   9.231   0.482  0.3122 -0.1006 -0.6590
    8CHTO   O48 3161   5.934   9.323   0.387  0.0708 -0.1149  0.4179
    8CHTO  H105 3162   5.995   9.394   0.381  1.8752 -1.5428  1.3740
    8CHTO   O38 3163   6.191   9.168   0.832 -0.2888  0.9028  0.6557
    8CHTO   C55 3164   6.242   9.039   0.784 -0.1910 -0.4643  0.6492
    8CHTO  H112 3165   6.157   8.999   0.729  0.1139 -0.3977  0.1314
    8CHTO   C56 3166   6.291   8.939   0.897 -0.5926 -0.3408  0.0378
    8CHTO  H113 3167   6.364   9.002   0.950 -1.1179  1.5050 -1.3831
    8CHTO   O42 3168   6.183   8.913   0.990 -0.0635 -0.2661 -0.6611
    8CHTO  H100 3169   6.157   8.985   1.045  0.1556 -0.3688 -0.4242
    8CHTO   C57 3170   6.354   8.804   0.838 -0.1947 -0.5938  0.5459
    8CHTO  H114 3171   6.273   8.738   0.806 -0.2935  0.4944 -1.4688
    8CHTO   N10 3172   6.430   8.733   0.942 -0.1408 -0.1808 -0.5967
    8CHTO  H106 3173   6.435   8.627   0.918 -0.0326 -1.5641  4.9765
    8CHTO  H107 3174   6.378   8.744   1.036  0.8634 -1.7661  0.1701
    8CHTO   C58 3175   6.442   8.830   0.713  0.2579  0.2659  0.7925
    8CHTO  H115 3176   6.541   8.870   0.744  0.7638 -0.0865 -0.3490
    8CHTO   O37 3177   6.379   8.920   0.623 -0.1355  0.1679 -0.1692
    8CHTO   C59 3178   6.354   9.051   0.670 -0.1290  1.1328 -0.5203
    8CHTO  H116 3179   6.447   9.090   0.712  1.0910 -2.3394  0.1548
    8CHTO   C70 3180   6.328   9.131   0.551  0.4191 -0.2875  0.2979
    8CHTO   O46 3181   6.329   9.276   0.565  0.7082 -0.0860  0.1915
    8CHTO  H103 3182   6.401   9.314   0.518 -0.2313  0.9398 -0.4591
    8CHTO   O39 3183   6.471   8.687   0.633  0.2995  0.0427 -0.2284
    8CHTO   C60 3184   6.361   8.646   0.540 -0.8385  0.5029 -0.3455
    8CHTO  H117 3185   6.261   8.679   0.569 -1.1323 -0.9172  0.2948
    8CHTO   C62 3186   6.379   8.699   0.398  0.3480  0.2390  0.3775
    8CHTO  H119 3187   6.389   8.809   0.388 -0.5281  0.1228 -2.0756
    8CHTO   O43 3188   6.498   8.650   0.330  0.2995 -1.2027  0.2220
    8CHTO  H101 3189   6.566   8.698   0.373 -0.1765 -0.6660  0.3908
    8CHTO   C66 3190   6.246   8.661   0.321  0.4994  0.1058 -0.0153
    8CHTO  H123 3191   6.162   8.690   0.383  0.7376 -0.6223  0.6554
    8CHTO   N12 3192   6.217   8.732   0.192  0.0826 -0.1639  0.6334
    8CHTO  H110 3193   6.291   8.810   0.180 -0.4597  0.5673  1.8687
    8CHTO  H111 3194   6.122   8.783   0.200  1.0809  2.0957 -1.2237
    8CHTO   C69 3195   6.235   8.507   0.310  0.2336 -0.4533  0.2538
    8CHTO  H126 3196   6.317   8.478   0.241 -0.8756  1.0402 -1.7163
    8CHTO   O41 3197   6.245   8.438   0.446  0.0324  0.1939 -0.6815
    8CHTO   C64 3198   6.356   8.487   0.536 -0.6381 -0.1898 -0.2862
    8CHTO  H121 3199   6.453   8.456   0.492 -0.2020  2.7179 -1.5027
    8CHTO   C71 3200   6.337   8.425   0.678 -0.1263 -0.0076  0.1172
    8CHTO   O47 3201   6.458   8.423   0.748 -0.4197 -0.0152  0.0525
    8CHTO  H104 3202   6.481   8.508   0.781 -0.4873 -0.7883  2.1996
    8CHTO   O34 3203   6.094   8.464   0.218 -0.0136  0.3763  0.2762
    8CHTO   C49 3204   5.961   8.429   0.263  0.1841 -0.3750 -0.5451
    8CHTO   H91 3205   5.972   8.331   0.309 -2.9572 -0.5988 -0.1456
    8CHTO   C47 3206   5.861   8.430   0.143 -0.2537  0.2400  0.1122
    8CHTO   H89 3207   5.766   8.383   0.175  1.0229 -0.9056  2.3720
    8CHTO   O33 3208   5.922   8.339   0.048 -0.4548  0.4661 -0.0273
    8CHTO   H70 3209   5.879   8.255   0.046  0.6263 -0.1541  1.8020
    8CHTO   C45 3210   5.839   8.578   0.099  1.2117 -0.1343  0.4712
    8CHTO   H87 3211   5.935   8.613   0.059  1.7150 -4.2252 -2.2438
    8CHTO    N8 3212   5.738   8.585  -0.012 -0.5898  0.1287 -0.1129
    8CHTO   H75 3213   5.731   8.692  -0.030 -0.0601 -0.0440 -1.4508
    8CHTO   H76 3214   5.753   8.535  -0.107  1.3285  0.2535  0.0959
    8CHTO   C43 3215   5.816   8.684   0.219  0.9433 -0.0606  0.5621
    8CHTO   H85 3216   5.842   8.781   0.177  1.5478 -0.6430 -0.4293
    8CHTO   O29 3217   5.889   8.658   0.342  0.2058 -0.1274  0.0715
    8CHTO   C50 3218   5.911   8.519   0.378  0.0484 -0.6325  0.3919
    8CHTO   H92 3219   5.981   8.529   0.463 -2.2723  2.7028  2.0410
    8CHTO   C54 3220   5.775   8.469   0.451 -0.2503  0.0291 -0.1779
    8CHTO   O36 3221   5.782   8.338   0.501  1.0756  0.0624  0.0971
    8CHTO   H72 3222   5.853   8.281   0.476  2.4453  2.2721 -1.1674
    8CHTO   O27 3223   5.676   8.702   0.253 -0.0895 -0.1237  0.6447
    8CHTO   C37 3224   5.591   8.803   0.309 -0.4890 -0.0614 -0.0160
    8CHTO   H79 3225   5.490   8.764   0.329  0.6644 -2.7463  0.7175
    8CHTO   C38 3226   5.645   8.853   0.443  0.2369 -0.6736  0.2029
    8CHTO   H80 3227   5.748   8.885   0.421  0.0518 -0.8267 -0.9218
    8CHTO   O31 3228   5.640   8.756   0.540  0.2829 -0.2196  0.7299
    8CHTO   H68 3229   5.669   8.782   0.625 -2.3153  1.7248  1.0852
    8CHTO   C39 3230   5.570   8.986   0.498  0.1233  1.0146  0.1043
    8CHTO   H81 3231   5.467   8.960   0.522  0.1982  0.9242  0.3264
    8CHTO    N7 3232   5.632   9.059   0.620  0.3225 -0.1190  0.0309
    8CHTO   H73 3233   5.564   9.051   0.704 -1.7729  2.9935 -1.3024
    8CHTO   H74 3234   5.725   9.014   0.653  0.1887 -1.1968 -1.0411
    8CHTO   C40 3235   5.564   9.091   0.380  0.1729 -0.2011 -0.1305
    8CHTO   H82 3236   5.661   9.129   0.347  0.1076 -1.1967 -1.5055
    8CHTO   O26 3237   5.498   9.028   0.275 -0.6446  0.1285  0.5044
    8CHTO   C41 3238   5.583   8.927   0.215 -0.4644 -0.3063 -0.7654
    8CHTO   H83 3239   5.685   8.965   0.199 -0.5711  1.1167  1.6819
    8CHTO   C52 3240   5.529   8.896   0.077 -0.4954 -0.5351 -0.2550
    8CHTO   O35 3241   5.468   9.010  -0.012 -0.1453 -0.1575 -0.2665
    8CHTO   H71 3242   5.375   9.016   0.003 -0.1195  3.0515 -0.8748
    8CHTO   O28 3243   5.482   9.209   0.410 -0.1108 -0.0952  0.3916
    8CHTO   C42 3244   5.466   9.330   0.333 -0.3598  0.6957  1.0557
    8CHTO   H84 3245   5.396   9.389   0.393 -1.0928  2.5100 -1.5147
    8CHTO   C44 3246   5.402   9.312   0.194  0.1108  0.4523 -0.1584
    8CHTO   H86 3247   5.463   9.246   0.134  0.2110 -0.1914  0.6403
    8CHTO   O32 3248   5.267   9.256   0.222 -0.0244 -0.0240 -0.0662
    8CHTO   H69 3249   5.209   9.326   0.246  1.5221  0.3857  2.6300
    8CHTO   C48 3250   5.395   9.442   0.105  0.8852 -0.5618 -0.0638
    8CHTO   H90 3251   5.317   9.508   0.143  1.2019  0.4773 -1.1808
    8CHTO    N9 3252   5.363   9.406  -0.038  0.1863  0.0688  0.6409
    8CHTO   H77 3253   5.260   9.374  -0.032  0.5219 -1.0548  0.5853
    8CHTO   H78 3254   5.374   9.491  -0.104 -1.1829 -0.2617 -0.0416
    8CHTO   C51 3255   5.535   9.517   0.113  0.2051  0.4780 -0.3200
    8CHTO   H93 3256   5.611   9.461   0.059  1.0101 -1.2741  2.5036
    8CHTO   O30 3257   5.572   9.536   0.246  0.5232  0.9075 -0.0594
    8CHTO   C46 3258   5.599   9.410   0.326 -0.0534  0.1375  0.3444
    8CHTO   H88 3259   5.675   9.348   0.278 -0.7492 -1.2765  1.0431
    8CHTO   C53 3260   5.650   9.449   0.462  0.2917  0.1184 -0.2865
    8CHTO   O72 3261   5.567   9.545   0.526  0.0710  0.0434 -0.1437
    8CHTO  H199 3262   5.512   9.588   0.465 -1.2189 -0.8411  0.3786
    8CHTO   O22 3263   5.528   9.658   0.075 -0.3007 -0.2677 -0.2120
    8CHTO   C31 3264   5.629   9.737  -0.001  0.5002  0.4016 -0.7858
    8CHTO   H59 3265   5.578   9.835  -0.009 -1.1466 -0.1413  2.0635
    8CHTO   C29 3266   5.764   9.764   0.059 -0.3708 -0.0365  0.2039
    8CHTO   H57 3267   5.813   9.670   0.089  1.8101  1.5117  1.5634
    8CHTO   O21 3268   5.744   9.833   0.183  0.6395 -0.2040  0.5510
    8CHTO   H37 3269   5.798   9.799   0.252  0.1917  0.8585  1.4465
    8CHTO   C27 3270   5.860   9.856  -0.030 -0.0088  0.5112  0.9630
    8CHTO   H55 3271   5.800   9.944  -0.056  0.1336  0.0844 -0.8442
    8CHTO    N5 3272   5.986   9.905   0.040 -0.5478  0.0408 -0.3898
    8CHTO   H43 3273   6.069   9.924  -0.026 -1.1163 -1.1823 -1.4847
    8CHTO   H44 3274   6.017   9.846   0.125 -0.7851 -0.0824 -0.3864
    8CHTO   C25 3275   5.878   9.765  -0.157  0.4397  0.3064  0.4013
    8CHTO   H53 3276   5.922   9.672  -0.117  0.0682  0.5123  1.2896
    8CHTO   O17 3277   5.747   9.752  -0.222  0.1795 -0.3087  0.1053
    8CHTO   C32 3278   5.650   9.682  -0.151  0.9284 -0.0846 -0.2455
    8CHTO   H60 3279   5.684   9.578  -0.150 -2.2707 -1.1880 -0.9413
    8CHTO   C36 3280   5.515   9.684  -0.229  0.5006  0.3896  0.0702
    8CHTO   O25 3281   5.529   9.627  -0.362 -0.8645 -0.2268  0.0370
    8CHTO   H40 3282   5.577   9.547  -0.367  0.6475  0.7082 -0.7077
    8CHTO   O15 3283   5.982   9.823  -0.264  0.0791 -0.0180  0.1709
    8CHTO   C19 3284   6.045   9.802  -0.391 -0.0806 -0.9042  0.0396
    8CHTO   H47 3285   5.960   9.782  -0.458 -0.7610  0.1311  0.5585
    8CHTO   C20 3286   6.132   9.926  -0.430  0.7555  0.2555  0.6400
    8CHTO   H48 3287   6.205   9.951  -0.351  0.8352 -0.1485  0.6989
    8CHTO   O19 3288   6.052  10.041  -0.456 -0.3090  0.6295  0.4245
    8CHTO   H35 3289   6.022  10.063  -0.370 -1.9326 -2.9324  0.8586
    8CHTO   C21 3290   6.220   9.899  -0.558  0.2095 -0.7173  0.3652
    8CHTO   H49 3291   6.152   9.879  -0.641 -1.9347  0.0654  1.8936
    8CHTO    N4 3292   6.313  10.014  -0.594 -0.4599 -0.5227  0.2590
    8CHTO   H41 3293   6.374  10.000  -0.682 -0.2083 -1.1759  0.5328
    8CHTO   H42 3294   6.254  10.103  -0.611 -0.1933 -0.3215  0.3752
    8CHTO   C22 3295   6.296   9.765  -0.528  0.1860  0.2856  0.3037
    8CHTO   H50 3296   6.353   9.785  -0.437 -0.6034  1.1172  0.6220
    8CHTO   O14 3297   6.203   9.654  -0.504 -0.0836 -0.3319  0.1026
    8CHTO   C23 3298   6.129   9.668  -0.380 -0.5188  0.1574  0.2743
    8CHTO   H51 3299   6.201   9.670  -0.296 -0.5148 -1.1446  0.3201
    8CHTO   C34 3300   6.044   9.544  -0.361  0.6591 -0.0100 -1.1403
    8CHTO   O23 3301   6.144   9.436  -0.339  0.3181  0.3078  0.1743
    8CHTO   H38 3302   6.126   9.384  -0.263  0.0017  1.2887  0.7914
    8CHTO   O16 3303   6.373   9.721  -0.637 -0.1188  0.0814  0.0757
    8CHTO   C24 3304   6.479   9.607  -0.568  0.0061 -0.5102 -0.1258
    8CHTO   H52 3305   6.450   9.578  -0.468  2.9080  1.0868  1.2559
    8CHTO   C26 3306   6.613   9.679  -0.562 -0.2682  0.0245  0.2745
    8CHTO   H54 3307   6.632   9.718  -0.664 -0.6139  0.1852  0.2724
    8CHTO   O20 3308   6.604   9.794  -0.464  0.3943  0.4834  0.3053
    8CHTO   H36 3309   6.614   9.766  -0.375  0.2430  0.1359  0.2109
    8CHTO   C30 3310   6.722   9.568  -0.525  0.4949  0.1106  0.3037
    8CHTO   H58 3311   6.699   9.522  -0.428 -0.5243 -1.1400 -0.5125
    8CHTO    N6 3312   6.852   9.636  -0.516 -0.2362  0.4245  0.4489
    8CHTO   H45 3313   6.918   9.558  -0.484  1.7277  1.3856 -1.1826
    8CHTO   H46 3314   6.838   9.703  -0.432  2.2545  0.4635  0.8653
    8CHTO   C33 3315   6.716   9.455  -0.633 -0.6845  0.9548  0.4928
    8CHTO   H61 3316   6.734   9.505  -0.729 -1.2238  4.4586  2.1325
    8CHTO   O18 3317   6.588   9.392  -0.630 -0.1631  0.5447 -0.3151
    8CHTO   C28 3318   6.483   9.482  -0.662 -0.2757  0.4981  0.1268
    8CHTO   H56 3319   6.482   9.512  -0.766  0.2225  0.3776  0.0894
    8CHTO   C35 3320   6.353   9.405  -0.630  0.3568 -0.0791  0.3587
    8CHTO   O24 3321   6.351   9.262  -0.666  0.1910 -0.1610 -0.0032
    8CHTO   H39 3322   6.410   9.217  -0.609 -1.5089 -1.8880  0.4519
    8CHTO    O9 3323   6.824   9.357  -0.613 -0.6858 -0.2206 -0.0188
    8CHTO   C13 3324   6.869   9.260  -0.734 -0.0675 -0.3269  0.4885
    8CHTO   H26 3325   6.902   9.318  -0.823  0.2529  0.9435  1.4234
    8CHTO   C11 3326   6.748   9.161  -0.768 -0.1363 -0.5382  0.1330
    8CHTO   H24 3327   6.675   9.222  -0.824  2.0462  0.1542 -2.0387
    8CHTO    O8 3328   6.692   9.110  -0.643 -0.0913 -0.3127 -0.3365
    8CHTO    H3 3329   6.614   9.063  -0.662 -1.5134  2.3962 -1.4783
    8CHTO    C9 3330   6.803   9.048  -0.862 -0.1464  0.1244 -0.0984
    8CHTO   H22 3331   6.847   9.096  -0.951 -1.1726 -0.2785 -0.8418
    8CHTO    N2 3332   6.698   8.961  -0.910  0.1952 -0.3887 -0.2633
    8CHTO   H10 3333   6.639   9.012  -0.984 -1.9961 -1.8126  0.4690
    8CHTO   H11 3334   6.742   8.868  -0.941 -1.1642 -1.1119 -0.0562
    8CHTO    C7 3335   6.922   8.973  -0.789 -0.2155 -0.3564  0.2705
    8CHTO   H20 3336   6.958   8.911  -0.874  0.0076  0.1230  0.0125
    8CHTO    O4 3337   7.025   9.069  -0.762  0.4058 -0.0825 -0.7221
    8CHTO   C14 3338   7.000   9.182  -0.681 -0.5331  0.0373 -0.0232
    8CHTO   H27 3339   7.080   9.257  -0.698  1.3618 -1.8134  0.5771
    8CHTO   C18 3340   7.007   9.142  -0.528  0.3163 -0.0990  0.4780
    8CHTO   O13 3341   7.143   9.117  -0.491 -0.3670 -0.2297 -1.0254
    8CHTO    H7 3342   7.152   9.034  -0.448  4.3407  0.7073  0.1713
    8CHTO    O2 3343   6.892   8.873  -0.659 -0.1767 -0.1006  0.1102
    8CHTO    C1 3344   6.952   8.745  -0.653  0.2652  0.8010  0.0682
    8CHTO   H14 3345   6.955   8.704  -0.550  0.4886  0.9178  0.1077
    8CHTO    C2 3346   7.101   8.746  -0.704  0.3216 -0.0830  0.1884
    8CHTO   H15 3347   7.106   8.770  -0.811  0.8449 -1.2815 -0.0663
    8CHTO    O6 3348   7.175   8.842  -0.624  0.0122  0.2529 -0.1557
    8CHTO    H1 3349   7.261   8.852  -0.659  0.3509 -2.0213 -0.0485
    8CHTO    C3 3350   7.168   8.600  -0.698  0.2004 -0.6674 -0.4964
    8CHTO   H16 3351   7.160   8.556  -0.597 -1.0730 -0.7259 -0.6210
    8CHTO    N1 3352   7.314   8.583  -0.741 -0.5338  0.9924 -0.3717
    8CHTO    H8 3353   7.372   8.530  -0.668 -0.4204  1.7156  0.0653
    8CHTO    H9 3354   7.357   8.682  -0.740 -1.0986  1.2359  0.9125
    8CHTO    C4 3355   7.065   8.510  -0.781 -0.1129 -0.4235 -0.5440
    8CHTO   H17 3356   7.076   8.525  -0.888  1.2829  2.3689 -0.0592
    8CHTO    O1 3357   6.925   8.519  -0.744  0.0158  0.6505  0.0430
    8CHTO    C5 3358   6.860   8.646  -0.732 -0.4470 -0.1100  0.0160
    8CHTO   H18 3359   6.853   8.673  -0.838 -1.0632 -2.1457 -0.4950
    8CHTO   C16 3360   6.717   8.631  -0.669 -0.4555  0.2138 -0.2847
    8CHTO   O11 3361   6.725   8.564  -0.550 -0.6527 -0.4907 -0.1595
    8CHTO    H5 3362   6.643   8.554  -0.506  0.9588 -1.3564  2.7209
    8CHTO    O3 3363   7.094   8.373  -0.745  0.4404 -0.0415 -0.0524
    8CHTO    C6 3364   7.050   8.262  -0.846  0.0061 -0.7463  0.1317
    8CHTO   H19 3365   6.980   8.299  -0.921  1.3398  1.1051 -0.2314
    8CHTO    C8 3366   7.185   8.223  -0.916  0.2526 -0.1455 -0.2562
    8CHTO   H21 3367   7.246   8.178  -0.837 -0.5267 -0.9704 -0.1194
    8CHTO    O7 3368   7.245   8.338  -0.979  0.0908 -0.2519  0.5699
    8CHTO    H2 3369   7.336   8.338  -0.958  0.0249  1.9356  0.9547
    8CHTO   C12 3370   7.158   8.103  -1.013 -0.4634 -0.3043  0.4992
    8CHTO   H25 3371   7.092   8.144  -1.093 -0.1034  1.6483  1.1728
    8CHTO    N3 3372   7.291   8.057  -1.079 -0.5037 -0.0453 -0.2725
    8CHTO   H12 3373   7.304   8.109  -1.173  0.4026 -0.6511 -0.4979
    8CHTO   H13 3374   7.295   7.949  -1.081  0.6094 -0.0188  0.0706
    8CHTO   C15 3375   7.078   7.984  -0.938 -0.6715  0.1384 -0.6305
    8CHTO   H28 3376   7.140   7.932  -0.865  1.0426  0.3099 -1.9418
    8CHTO   O10 3377   7.034   7.881  -1.043 -0.1877 -0.4967 -0.5402
    8CHTO    H4 3378   6.954   7.841  -1.014  0.0352 -1.0687 -0.6965
    8CHTO    O5 3379   6.956   8.039  -0.886  0.4097  0.0868 -0.8456
    8CHTO   C10 3380   6.989   8.136  -0.784  0.0823 -0.1153  0.1053
    8CHTO   H23 3381   7.049   8.085  -0.708  1.1672  0.8243 -0.1076
    8CHTO   C17 3382   6.857   8.171  -0.710 -0.2587  0.2138 -0.3299
    8CHTO   O12 3383   6.884   8.259  -0.596 -0.3797 -0.6278  0.1124
    8CHTO    H6 3384   6.935   8.216  -0.529 -0.6236 -0.6661  0.2720
    9CHTO  H203 3385   6.933   4.701   4.165 -1.2161 -0.1501  1.4038
    9CHTO   O82 3386   6.979   4.624   4.139  0.2600  0.9620  0.6652
    9CHTO  C123 3387   7.113   4.657   4.117  0.2110 -0.2695 -0.1478
    9CHTO  H227 3388   7.154   4.704   4.208  1.7419 -2.2646  0.2211
    9CHTO   O77 3389   7.165   4.525   4.104  0.5404 -0.0873 -0.0051
    9CHTO  C118 3390   7.308   4.539   4.077  0.4412 -0.6186 -0.3894
    9CHTO  H222 3391   7.360   4.613   4.140 -0.0953 -0.3144 -0.3053
    9CHTO  C125 3392   7.366   4.397   4.115 -0.6249 -0.1403 -0.3517
    9CHTO   O84 3393   7.389   4.392   4.254  0.2052  0.1169 -0.4513
    9CHTO  H205 3394   7.481   4.382   4.273 -0.1598 -1.6649  0.5364
    9CHTO  C114 3395   7.323   4.579   3.930 -0.1838  0.7604 -0.1484
    9CHTO  H218 3396   7.258   4.519   3.867 -0.9573 -0.0994  1.4493
    9CHTO  C116 3397   7.258   4.717   3.903  0.2460  0.1968  0.0887
    9CHTO  H220 3398   7.327   4.799   3.930 -0.0122  1.2143 -2.2638
    9CHTO   O79 3399   7.231   4.740   3.765  0.2406 -0.5277  0.0293
    9CHTO  H201 3400   7.163   4.688   3.728 -0.6255 -0.0555  0.9669
    9CHTO  C120 3401   7.125   4.741   3.984  0.6176 -0.1860  0.1559
    9CHTO  H224 3402   7.044   4.719   3.911  1.4462  0.3203 -0.9135
    9CHTO   N21 3403   7.108   4.884   4.020  0.3461 -0.9292  0.4820
    9CHTO  H211 3404   7.169   4.958   3.970 -1.3014 -0.5012 -0.9237
    9CHTO  H212 3405   7.006   4.920   4.012 -0.1202 -2.6093 -1.5805
    9CHTO   O75 3406   7.458   4.561   3.881 -0.0613 -0.3584 -0.3638
    9CHTO  C112 3407   7.465   4.512   3.722  0.5024  0.3192 -0.0705
    9CHTO  H216 3408   7.378   4.560   3.674  0.2985 -0.3764 -0.3979
    9CHTO   O73 3409   7.454   4.366   3.724 -0.4429 -0.0174  0.3577
    9CHTO  C113 3410   7.470   4.300   3.600 -0.1381 -0.2872  0.1244
    9CHTO  H217 3411   7.383   4.323   3.535  0.4528 -1.2259 -1.0388
    9CHTO  C124 3412   7.472   4.145   3.630  0.3708  0.3606 -0.3357
    9CHTO   O83 3413   7.345   4.089   3.651  0.2951 -0.1690 -0.8701
    9CHTO  H204 3414   7.355   4.001   3.682  0.3632  0.9087  2.4648
    9CHTO  C109 3415   7.599   4.338   3.518  0.1651  0.3424 -0.4260
    9CHTO  H213 3416   7.681   4.303   3.582  0.5638  0.0969 -1.0657
    9CHTO  C110 3417   7.610   4.493   3.517 -0.3281 -0.6454  0.6082
    9CHTO  H214 3418   7.526   4.524   3.455  0.5243  0.3528 -0.0543
    9CHTO   O78 3419   7.740   4.528   3.459  0.1335 -0.5194  0.4817
    9CHTO  H200 3420   7.752   4.507   3.368  1.4958  0.0599  0.5261
    9CHTO  C111 3421   7.597   4.553   3.656 -0.7261  0.3050  0.4993
    9CHTO  H215 3422   7.673   4.504   3.718  1.4844  1.4446 -1.2331
    9CHTO   N19 3423   7.618   4.700   3.673  0.3095  0.5835 -0.0390
    9CHTO  H207 3424   7.707   4.723   3.730 -2.0074  1.2358  3.4242
    9CHTO  H208 3425   7.606   4.744   3.575 -1.6854  0.4945  0.1525
    9CHTO   O74 3426   7.605   4.272   3.393 -0.7104  0.7130  0.1207
    9CHTO  C115 3427   7.745   4.221   3.342  0.5515  0.1761  0.2173
    9CHTO  H219 3428   7.825   4.292   3.363  0.3192  1.0907 -1.8028
    9CHTO   O76 3429   7.786   4.088   3.417  0.4264  0.6353  0.5732
    9CHTO  C122 3430   7.722   3.969   3.376  0.0132  0.2256  0.5565
    9CHTO  H226 3431   7.623   3.967   3.421  0.1019  2.0268  0.8877
    9CHTO  C126 3432   7.794   3.851   3.442  0.2351 -0.4587  0.4907
    9CHTO   O85 3433   7.766   3.841   3.579  0.1332 -0.0275  0.3435
    9CHTO  H206 3434   7.681   3.873   3.604 -0.9040 -3.7733  2.0077
    9CHTO  C121 3435   7.707   3.951   3.219  0.1294  0.5307 -0.5235
    9CHTO  H225 3436   7.810   3.935   3.179  0.5731 -0.8871  1.1172
    9CHTO   O81 3437   7.644   3.828   3.191  0.9329  0.0783 -0.2266
    9CHTO  H202 3438   7.559   3.829   3.230  0.5816 -2.6647 -0.8016
    9CHTO  C119 3439   7.641   4.083   3.155 -0.4291 -0.4175  0.3340
    9CHTO  H223 3440   7.649   4.074   3.046  1.2830 -1.9469  0.5660
    9CHTO  C117 3441   7.732   4.207   3.187  0.1732  0.1709 -0.3825
    9CHTO  H221 3442   7.690   4.301   3.152 -0.0714  0.0966 -0.2937
    9CHTO   N20 3443   7.870   4.199   3.124 -0.6136 -0.2047  0.0878
    9CHTO  H209 3444   7.946   4.236   3.191 -1.3289  1.6658 -0.0914
    9CHTO  H210 3445   7.890   4.242   3.027  2.2949 -0.0964  0.7123
    9CHTO   O80 3446   7.484   4.109   3.177 -0.0394 -0.0021 -0.0284
    9CHTO  C103 3447   7.404   4.214   3.069  0.3217 -0.0011 -0.0540
    9CHTO  H190 3448   7.442   4.316   3.072 -0.8200  0.4282  0.0474
    9CHTO  C101 3449   7.400   4.172   2.917  0.3363 -0.3214 -0.4854
    9CHTO  H188 3450   7.353   4.074   2.917 -1.4086  0.4852 -0.4272
    9CHTO   O68 3451   7.538   4.157   2.861 -0.6885  0.3306  0.4633
    9CHTO  H168 3452   7.547   4.072   2.822 -0.6739  0.0327  1.1208
    9CHTO   C99 3453   7.311   4.270   2.833 -0.4050  0.1614  0.3157
    9CHTO  H186 3454   7.358   4.370   2.822  0.7880 -0.5884 -1.5794
    9CHTO   N17 3455   7.288   4.226   2.696 -0.0878 -0.3424  0.3657
    9CHTO  H174 3456   7.379   4.214   2.639 -0.5919 -1.2684 -0.2517
    9CHTO  H175 3457   7.239   4.130   2.700 -1.5301  0.4120  1.2789
    9CHTO   C97 3458   7.172   4.293   2.900 -0.3695  0.1574  0.0487
    9CHTO  H184 3459   7.113   4.200   2.889 -0.3513  0.1355  0.1357
    9CHTO   O64 3460   7.188   4.333   3.044  0.2193 -0.3366  0.4577
    9CHTO  C104 3461   7.254   4.225   3.111 -0.9137 -0.0166 -0.6735
    9CHTO  H191 3462   7.211   4.126   3.102  0.5465 -0.8113  0.8268
    9CHTO  C108 3463   7.252   4.258   3.262  0.8147 -0.3099  0.3772
    9CHTO   O71 3464   7.315   4.377   3.306 -0.5282  0.7343  0.5637
    9CHTO  H171 3465   7.273   4.454   3.272 -0.2511  0.4195 -0.5006
    9CHTO   O62 3466   7.097   4.402   2.842 -0.2631  0.0625 -0.6396
    9CHTO   C91 3467   6.981   4.363   2.764 -0.4020 -0.1459  0.9564
    9CHTO  H178 3468   7.012   4.294   2.687 -0.3981 -0.8489  1.5878
    9CHTO   C92 3469   6.922   4.486   2.681 -0.3520 -0.0986 -0.2257
    9CHTO  H179 3470   7.007   4.536   2.631  0.6193 -0.4680  1.0253
    9CHTO   O66 3471   6.836   4.433   2.578  0.1424 -0.1508 -0.0365
    9CHTO  H166 3472   6.772   4.375   2.614  0.5317  0.1121  1.0934
    9CHTO   C93 3473   6.827   4.581   2.772  0.1879  0.1352 -0.3358
    9CHTO  H180 3474   6.777   4.654   2.707  0.4694 -0.7232 -1.5488
    9CHTO   N16 3475   6.906   4.677   2.856 -0.3254 -0.2948  0.1522
    9CHTO  H172 3476   6.984   4.719   2.795 -0.2370 -0.7490 -0.0444
    9CHTO  H173 3477   6.846   4.760   2.891  1.8361  1.2375  0.3453
    9CHTO   C94 3478   6.724   4.496   2.854 -0.0727 -0.6088  0.4362
    9CHTO  H181 3479   6.738   4.503   2.962 -0.4503  3.6107  0.2846
    9CHTO   O61 3480   6.739   4.356   2.824 -0.2356  0.6268 -0.2232
    9CHTO   C95 3481   6.863   4.292   2.842 -0.0705  0.5039 -0.5402
    9CHTO  H182 3482   6.891   4.295   2.948  0.9936  2.2044 -0.8621
    9CHTO  C106 3483   6.865   4.137   2.804  0.5599 -0.3158 -0.1374
    9CHTO   O69 3484   6.731   4.083   2.804 -0.2070  0.2128  0.2712
    9CHTO  H169 3485   6.728   3.989   2.811 -2.8314  0.0486 -1.9975
    9CHTO   O63 3486   6.596   4.541   2.826  0.5571 -0.8134  0.0318
    9CHTO   C96 3487   6.478   4.513   2.940  0.6951 -0.0313 -1.3209
    9CHTO  H183 3488   6.520   4.534   3.038  0.9141 -1.3545 -1.1174
    9CHTO   C98 3489   6.433   4.364   2.944 -0.4009  0.4934  0.8413
    9CHTO  H185 3490   6.400   4.325   2.847  2.4677  1.8703 -0.7315
    9CHTO   O67 3491   6.551   4.288   2.981  0.2121 -0.4351 -0.3643
    9CHTO  H167 3492   6.564   4.222   2.915 -3.2431 -1.2516 -0.3346
    9CHTO  C102 3493   6.312   4.345   3.050  0.2504  0.5297  0.6440
    9CHTO  H189 3494   6.356   4.365   3.149  2.6191  0.8305 -0.4423
    9CHTO   N18 3495   6.254   4.209   3.056  0.2017 -0.0608 -0.1969
    9CHTO  H176 3496   6.230   4.185   3.159 -2.4303  0.3458 -0.6899
    9CHTO  H177 3497   6.168   4.201   2.991 -1.1154 -0.1634  1.5007
    9CHTO  C105 3498   6.201   4.453   3.028 -0.3473  0.5084  0.0051
    9CHTO  H192 3499   6.151   4.430   2.933 -0.2664  0.1299  0.0531
    9CHTO   O65 3500   6.269   4.574   3.029  0.3311  0.0215  0.3678
    9CHTO  C100 3501   6.354   4.602   2.919 -0.4653  0.2936 -0.1321
    9CHTO  H187 3502   6.304   4.564   2.829 -1.0933  1.1124 -0.1231
    9CHTO  C107 3503   6.373   4.756   2.910  0.7109  0.4152  0.0643
    9CHTO   O70 3504   6.262   4.830   2.881  0.9188 -0.3218  0.0569
    9CHTO  H170 3505   6.279   4.881   2.804  1.6316 -0.9657 -0.2197
    9CHTO   O57 3506   6.092   4.462   3.156 -0.8116  0.1349 -0.2658
    9CHTO   C85 3507   5.965   4.532   3.149  0.9263 -0.2254 -0.3038
    9CHTO  H157 3508   5.893   4.473   3.090 -0.8650  1.2589  0.3354
    9CHTO   C83 3509   5.971   4.675   3.082 -0.1529  0.1501 -0.3043
    9CHTO  H155 3510   6.007   4.658   2.980  4.0881  0.3368  1.0867
    9CHTO   O56 3511   6.081   4.744   3.150  0.2434  0.6780  0.2489
    9CHTO  H135 3512   6.047   4.761   3.235  0.9977 -1.7060  1.0595
    9CHTO   C81 3513   5.830   4.743   3.082  0.1943  0.5805  0.1392
    9CHTO  H153 3514   5.760   4.675   3.033  2.4859 -0.8772 -1.2135
    9CHTO   N14 3515   5.827   4.868   3.006 -0.4353  0.1968  0.1514
    9CHTO  H141 3516   5.852   4.848   2.904  0.8858 -0.8930  0.6731
    9CHTO  H142 3517   5.730   4.912   3.009 -0.9505 -0.4182 -4.0384
    9CHTO   C79 3518   5.780   4.757   3.235 -0.0875 -0.0967 -0.3561
    9CHTO  H151 3519   5.674   4.780   3.230 -0.5705 -1.5124  2.4484
    9CHTO   O52 3520   5.785   4.626   3.299  0.1803 -0.0302 -0.1390
    9CHTO   C86 3521   5.906   4.555   3.292 -0.0328 -0.4109 -0.1220
    9CHTO  H158 3522   5.976   4.610   3.358  1.2576 -1.4732 -0.5851
    9CHTO   C90 3523   5.876   4.418   3.358 -1.0354  0.6537 -0.7430
    9CHTO   O60 3524   5.869   4.412   3.502  0.3803 -0.0872 -0.0938
    9CHTO  H138 3525   5.933   4.465   3.545  1.2610 -0.0097 -1.4792
    9CHTO   O50 3526   5.849   4.853   3.319 -0.1348  0.4261 -0.2897
    9CHTO   C73 3527   5.869   4.943   3.428 -0.0603  0.6175  0.4533
    9CHTO  H145 3528   5.785   4.943   3.499 -1.0544 -0.6056 -0.6907
    9CHTO   C74 3529   5.885   5.095   3.372 -0.1760 -0.3009 -0.0082
    9CHTO  H146 3530   5.793   5.127   3.320  0.7433  0.7947 -0.9870
    9CHTO   O54 3531   5.894   5.189   3.482 -0.4528 -0.3118 -0.5327
    9CHTO  H133 3532   5.832   5.166   3.548  0.2070  0.7156  0.4617
    9CHTO   C75 3533   6.015   5.089   3.269  1.3032 -0.2774 -0.0405
    9CHTO  H147 3534   5.992   5.022   3.186  0.6311  0.1922 -0.2390
    9CHTO   N13 3535   6.041   5.223   3.209  0.0879  0.3475  0.2980
    9CHTO  H139 3536   5.948   5.266   3.175 -0.5185 -2.8272 -2.3862
    9CHTO  H140 3537   6.095   5.291   3.273  0.8129 -1.2149  1.3911
    9CHTO   C76 3538   6.140   5.032   3.346  0.4066 -0.5485 -0.0969
    9CHTO  H148 3539   6.183   5.109   3.410  1.7257  0.2996 -1.9501
    9CHTO   O49 3540   6.105   4.904   3.400  0.3971 -0.3894  0.0784
    9CHTO   C77 3541   6.000   4.906   3.499 -0.6650 -0.0574 -0.4166
    9CHTO  H149 3542   6.025   4.988   3.566  0.1965 -1.9549  1.6154
    9CHTO   C88 3543   5.995   4.775   3.565  0.2202  0.6001 -0.2598
    9CHTO   O58 3544   5.885   4.750   3.661  0.6294  0.2420  0.4497
    9CHTO  H136 3545   5.807   4.784   3.622  0.7101 -1.1765 -0.9765
    9CHTO   O51 3546   6.255   4.995   3.238 -0.0870  0.2492  0.1836
    9CHTO   C78 3547   6.410   5.017   3.289 -0.5184 -0.1259  0.2401
    9CHTO  H150 3548   6.414   5.030   3.399 -1.6578  0.5599  0.2112
    9CHTO   C80 3549   6.468   5.141   3.223 -0.0380  0.2304  0.3119
    9CHTO  H152 3550   6.450   5.136   3.114 -1.7836 -3.9069  0.7083
    9CHTO   O55 3551   6.387   5.246   3.274 -0.1727  0.2486 -0.0470
    9CHTO  H134 3552   6.298   5.235   3.244  0.3153  2.9260 -2.7294
    9CHTO   C84 3553   6.618   5.161   3.266  1.0282  0.0847 -0.5405
    9CHTO  H156 3554   6.629   5.166   3.375  1.3934  4.1451 -0.7111
    9CHTO   N15 3555   6.679   5.282   3.212 -0.4846  0.6178 -0.0711
    9CHTO  H143 3556   6.655   5.300   3.109  0.2053  1.3493 -0.1041
    9CHTO  H144 3557   6.649   5.367   3.270 -2.4599 -0.9733  1.2972
    9CHTO   C87 3558   6.695   5.036   3.227  0.0926 -0.0375 -0.2831
    9CHTO  H159 3559   6.687   5.011   3.122  1.2207 -0.0951 -0.3704
    9CHTO   O53 3560   6.632   4.920   3.300  0.5753  0.1777 -0.4072
    9CHTO   C82 3561   6.493   4.897   3.252 -0.1790 -0.2836 -0.3380
    9CHTO  H154 3562   6.506   4.876   3.146  0.1572  0.2622 -0.4052
    9CHTO   C89 3563   6.436   4.765   3.318  0.4044  0.8467  0.3448
    9CHTO   O59 3564   6.521   4.652   3.287 -0.3398 -0.5078 -0.0519
    9CHTO  H137 3565   6.581   4.644   3.358  0.3354  3.0268 -0.1457
    9CHTO   O45 3566   6.860   5.049   3.272  0.5944 -0.0449  1.0858
    9CHTO   C67 3567   6.909   4.931   3.344 -0.1025 -0.9133 -0.0877
    9CHTO  H124 3568   6.829   4.880   3.398  0.2135  0.3311  1.5960
    9CHTO   C65 3569   6.965   4.828   3.237  0.2628  0.6096 -0.0352
    9CHTO  H122 3570   7.006   4.875   3.148  0.0396  2.8303  1.0029
    9CHTO   O44 3571   6.853   4.748   3.204  0.6477  0.1352 -0.1024
    9CHTO  H102 3572   6.812   4.707   3.278 -0.9772 -1.6191 -1.8800
    9CHTO   C63 3573   7.094   4.749   3.300  0.5203 -0.1066  0.2435
    9CHTO  H120 3574   7.176   4.821   3.304  2.0696 -1.8286 -0.2195
    9CHTO   N11 3575   7.149   4.638   3.223 -0.3376 -0.3687  0.4844
    9CHTO  H108 3576   7.139   4.656   3.118  1.0945  1.6903  0.6576
    9CHTO  H109 3577   7.097   4.551   3.256 -0.1635 -1.8410 -2.9044
    9CHTO   C61 3578   7.066   4.729   3.450 -0.0801 -0.3481  0.2396
    9CHTO  H118 3579   7.153   4.674   3.488  0.7892  1.8766  1.5873
    9CHTO   O40 3580   7.059   4.848   3.519  0.2708 -0.5608  0.1277
    9CHTO   C68 3581   7.017   4.971   3.451 -0.2488  0.1471 -0.8783
    9CHTO  H125 3582   7.114   5.011   3.414  1.5836 -0.7864  2.6415
    9CHTO   C72 3583   6.963   5.082   3.551  0.4067  0.0157 -0.4652
    9CHTO   O48 3584   6.832   5.052   3.609  0.1847 -0.4016 -0.6622
    9CHTO  H105 3585   6.824   5.051   3.703 -2.2507  0.7408 -0.8007
    9CHTO   O38 3586   6.947   4.648   3.467  0.0849 -0.3085 -0.3540
    9CHTO   C55 3587   6.922   4.611   3.604 -0.3607  0.1969  0.6451
    9CHTO  H112 3588   6.965   4.690   3.669  1.0659 -0.2717  0.2909
    9CHTO   C56 3589   6.994   4.467   3.633  0.1489 -0.3643 -0.4162
    9CHTO  H113 3590   6.951   4.406   3.552 -2.9703  0.7212  0.3495
    9CHTO   O42 3591   7.135   4.480   3.627 -0.5246  0.4513  0.7265
    9CHTO  H100 3592   7.170   4.399   3.659 -2.5865 -1.2771 -1.2425
    9CHTO   C57 3593   6.952   4.408   3.774 -0.1944 -0.5193  0.1905
    9CHTO  H114 3594   6.994   4.475   3.849  2.2542  1.5970 -2.9804
    9CHTO   N10 3595   6.998   4.271   3.803  0.9376  0.5039 -0.3379
    9CHTO  H106 3596   7.033   4.248   3.903 -0.3968  0.3769  0.0999
    9CHTO  H107 3597   6.927   4.193   3.780  0.9247  0.1162  0.9904
    9CHTO   C58 3598   6.793   4.427   3.789  0.4215  0.2554  0.5187
    9CHTO  H115 3599   6.740   4.369   3.710  2.5698 -0.0290 -0.7598
    9CHTO   O37 3600   6.759   4.566   3.771 -0.1221  0.0948  1.0167
    9CHTO   C59 3601   6.775   4.610   3.632  0.5940  0.3263 -0.7053
    9CHTO  H116 3602   6.727   4.541   3.563 -1.6106  1.3461 -0.2479
    9CHTO   C70 3603   6.696   4.738   3.609  0.1655  0.7601 -0.4200
    9CHTO   O46 3604   6.557   4.715   3.618  0.1161 -0.5870  0.2206
    9CHTO  H103 3605   6.522   4.678   3.696 -1.1356  0.1394  0.0176
    9CHTO   O39 3606   6.742   4.376   3.936 -0.0423 -0.7013 -1.0606
    9CHTO   C60 3607   6.601   4.377   3.962  0.1550  0.0583 -1.4842
    9CHTO  H117 3608   6.559   4.465   3.914  2.8676  1.7503 -0.8443
    9CHTO   C62 3609   6.520   4.248   3.916  0.0004  0.4304 -0.5225
    9CHTO  H119 3610   6.515   4.255   3.806  0.9158  0.2635 -0.5773
    9CHTO   O43 3611   6.568   4.126   3.964 -0.0537  0.1678 -0.2972
    9CHTO  H101 3612   6.658   4.117   3.941  0.0513 -0.2485  0.2906
    9CHTO   C66 3613   6.365   4.264   3.957 -0.3110 -0.1506 -0.6446
    9CHTO  H123 3614   6.320   4.355   3.917  0.1187  1.6365  2.7410
    9CHTO   N12 3615   6.275   4.161   3.898  0.0947  0.0328 -0.3069
    9CHTO  H110 3616   6.174   4.199   3.898  0.8209  2.0659  1.0715
    9CHTO  H111 3617   6.307   4.143   3.796 -1.3990 -1.5542 -0.5270
    9CHTO   C69 3618   6.359   4.267   4.110 -0.1481  0.3749 -0.1641
    9CHTO  H126 3619   6.393   4.166   4.141 -1.7969 -0.2933 -0.4877
    9CHTO   O41 3620   6.442   4.386   4.172 -0.1210 -0.0533  0.2621
    9CHTO   C64 3621   6.589   4.391   4.120  0.2261  0.3731  0.0057
    9CHTO  H121 3622   6.640   4.310   4.177  0.6481  0.3272 -0.4401
    9CHTO   C71 3623   6.642   4.520   4.170  0.0116  0.3250  0.1772
    9CHTO   O47 3624   6.667   4.511   4.306 -0.5852  0.2767 -0.1199
    9CHTO  H104 3625   6.755   4.527   4.336 -0.7128  0.3536  0.2152
    9CHTO   O34 3626   6.220   4.266   4.172 -0.5869  0.2292  0.0990
    9CHTO   C49 3627   6.119   4.226   4.276  0.3610  0.1665  0.1419
    9CHTO   H91 3628   6.020   4.236   4.232  0.8864 -2.9401 -1.9325
    9CHTO   C47 3629   6.153   4.322   4.396 -0.7186  0.3300  0.0419
    9CHTO   H89 3630   6.067   4.313   4.466 -0.4432  4.2649  1.0181
    9CHTO   O33 3631   6.150   4.460   4.358 -0.1286  0.3964 -0.7197
    9CHTO   H70 3632   6.217   4.480   4.295 -0.0966  1.1532 -0.4454
    9CHTO   C45 3633   6.294   4.288   4.474 -0.3295 -0.2084  0.1189
    9CHTO   H87 3634   6.379   4.337   4.424  2.9923 -4.3655  1.4127
    9CHTO    N8 3635   6.293   4.324   4.619  0.1815  0.0822  0.3928
    9CHTO   H75 3636   6.331   4.255   4.693 -1.6989  1.3083  2.5544
    9CHTO   H76 3637   6.191   4.350   4.642  0.8317  0.3454  3.2305
    9CHTO   C43 3638   6.340   4.132   4.440 -0.3508  0.0123  0.3264
    9CHTO   H85 3639   6.394   4.137   4.345  0.6303  2.8856  1.0136
    9CHTO   O29 3640   6.230   4.042   4.433  0.1372  0.4858 -0.3155
    9CHTO   C50 3641   6.139   4.077   4.324 -0.0215 -0.8387  0.1911
    9CHTO   H92 3642   6.177   4.023   4.236  0.0572 -0.5351  0.0362
    9CHTO   C54 3643   6.006   4.007   4.343  0.5389  0.8063  0.8081
    9CHTO   O36 3644   5.996   3.870   4.311  0.2406 -0.0559  0.5849
    9CHTO   H72 3645   5.906   3.847   4.325 -0.3952  0.8134 -1.7350
    9CHTO   O27 3646   6.446   4.080   4.532 -0.1950 -0.0334 -0.1245
    9CHTO   C37 3647   6.593   4.068   4.542  0.4658 -0.4891 -0.0348
    9CHTO   H79 3648   6.628   3.969   4.574 -2.6842 -1.7340 -0.2882
    9CHTO   C38 3649   6.667   4.084   4.411  0.9171 -0.2540  0.2225
    9CHTO   H80 3650   6.624   4.173   4.363 -0.2870  0.1689  2.0763
    9CHTO   O31 3651   6.645   3.972   4.323 -0.1565 -0.1143  0.3008
    9CHTO   H68 3652   6.680   3.897   4.366  0.6250  0.2398  0.2926
    9CHTO   C39 3653   6.819   4.123   4.432 -0.3385 -0.0601 -0.3083
    9CHTO   H81 3654   6.852   4.035   4.487  0.2700  1.8305  2.4789
    9CHTO    N7 3655   6.897   4.158   4.311 -0.1544 -0.1508 -0.5938
    9CHTO   H73 3656   6.874   4.094   4.228  1.8541 -0.4492 -0.9579
    9CHTO   H74 3657   7.001   4.149   4.341 -0.6243 -0.8302  0.8907
    9CHTO   C40 3658   6.833   4.240   4.540  0.7852  0.3368  0.2647
    9CHTO   H82 3659   6.773   4.323   4.504 -1.6129 -1.5146 -0.1587
    9CHTO   O26 3660   6.779   4.181   4.656  0.3280 -0.1922  0.4878
    9CHTO   C41 3661   6.632   4.165   4.653 -0.3412  0.5394  0.3449
    9CHTO   H83 3662   6.577   4.255   4.622 -1.1090 -0.0701 -0.0567
    9CHTO   C52 3663   6.564   4.115   4.792 -0.1704  0.1327 -0.2914
    9CHTO   O35 3664   6.605   4.193   4.906  0.2219  0.1324 -0.5562
    9CHTO   H71 3665   6.584   4.283   4.890 -0.9908  0.2885  1.5942
    9CHTO   O28 3666   6.958   4.297   4.575  0.2868  0.6080  1.1083
    9CHTO   C42 3667   6.979   4.423   4.644 -0.5653  0.8447  0.5532
    9CHTO   H84 3668   7.079   4.413   4.686 -0.6655  0.3087  0.6746
    9CHTO   C44 3669   6.885   4.445   4.773 -0.0603  0.2740 -0.3455
    9CHTO   H86 3670   6.787   4.406   4.747 -0.5150  0.5397  0.9653
    9CHTO   O32 3671   6.936   4.370   4.880 -1.2175 -0.5685  0.7704
    9CHTO   H69 3672   6.903   4.282   4.886  0.3764 -1.2419  0.0658
    9CHTO   C48 3673   6.860   4.593   4.797  0.5662 -0.0018  0.1313
    9CHTO   H90 3674   6.947   4.623   4.856 -0.8350  1.4405  1.5039
    9CHTO    N9 3675   6.754   4.614   4.902  0.6132 -0.1626  0.3832
    9CHTO   H77 3676   6.740   4.721   4.905 -1.1206 -0.3117 -1.6481
    9CHTO   H78 3677   6.662   4.564   4.876 -0.4646  1.0970  1.6804
    9CHTO   C51 3678   6.828   4.663   4.667 -0.9793 -0.2648 -0.4261
    9CHTO   H93 3679   6.745   4.614   4.617 -0.4633 -0.5066 -1.0469
    9CHTO   O30 3680   6.953   4.655   4.594  0.0708  0.2453  0.1518
    9CHTO   C46 3681   6.979   4.534   4.536  0.7261 -0.4933  0.4217
    9CHTO   H88 3682   6.908   4.502   4.461  1.8785  0.8897 -1.2849
    9CHTO   C53 3683   7.117   4.533   4.466  1.0258  0.0911  0.1888
    9CHTO   O72 3684   7.126   4.410   4.390  0.2387  0.5157 -0.3549
    9CHTO  H199 3685   7.178   4.338   4.418 -0.0272  0.1660 -0.7538
    9CHTO   O22 3686   6.797   4.805   4.676 -0.5050  0.1550 -0.3060
    9CHTO   C31 3687   6.719   4.881   4.573 -0.1988 -0.1291 -0.2105
    9CHTO   H59 3688   6.703   4.980   4.619  1.5974 -0.2322  0.6549
    9CHTO   C29 3689   6.784   4.905   4.435  0.5125  0.5461 -0.1003
    9CHTO   H57 3690   6.815   4.804   4.406 -0.7359  0.5060 -1.3393
    9CHTO   O21 3691   6.903   4.991   4.459  0.1469 -0.4512  0.2761
    9CHTO   H37 3692   6.934   5.044   4.389  0.6330 -0.8955  0.1580
    9CHTO   C27 3693   6.688   4.966   4.330 -0.1045 -0.3829  0.8283
    9CHTO   H55 3694   6.662   5.068   4.362 -0.2455 -0.0129 -0.4620
    9CHTO    N5 3695   6.754   4.971   4.192  0.6825  0.5177  0.4751
    9CHTO   H43 3696   6.832   5.042   4.213  2.5798 -1.3092 -0.1589
    9CHTO   H44 3697   6.800   4.874   4.176 -0.6154 -0.2505  1.3578
    9CHTO   C25 3698   6.553   4.887   4.330 -0.0331  1.2995 -0.1581
    9CHTO   H53 3699   6.573   4.788   4.288  0.7334  2.0587 -1.6030
    9CHTO   O17 3700   6.498   4.905   4.462 -0.3629  0.2566 -0.5444
    9CHTO   C32 3701   6.575   4.825   4.556  0.4059 -0.4810  0.0870
    9CHTO   H60 3702   6.589   4.720   4.530 -0.3060 -0.8229  1.0433
    9CHTO   C36 3703   6.484   4.819   4.685 -0.2221  1.0619  0.6531
    9CHTO   O25 3704   6.382   4.720   4.652  0.1350  0.5797 -0.0328
    9CHTO   H40 3705   6.300   4.765   4.653  0.3094  0.9024 -0.2147
    9CHTO   O15 3706   6.453   4.944   4.240 -0.0467  0.2917  0.1728
    9CHTO   C19 3707   6.344   4.874   4.169  0.3999 -0.1500 -0.6872
    9CHTO   H47 3708   6.287   4.961   4.136  1.6023  1.9066  2.4587
    9CHTO   C20 3709   6.383   4.781   4.051  0.4177 -0.5706  0.4205
    9CHTO   H48 3710   6.444   4.695   4.082  1.2350 -0.2219 -0.2163
    9CHTO   O19 3711   6.471   4.863   3.969 -0.5429  0.9196 -0.4029
    9CHTO   H35 3712   6.561   4.866   3.997 -0.3323 -2.6289 -0.4793
    9CHTO   C21 3713   6.255   4.724   3.977 -0.4097  0.1570 -0.6380
    9CHTO   H49 3714   6.196   4.811   3.948 -0.9084  0.6672  1.8100
    9CHTO    N4 3715   6.284   4.635   3.862 -0.2165 -0.2655 -0.3578
    9CHTO   H41 3716   6.193   4.603   3.814  0.9324 -0.2597 -2.6010
    9CHTO   H42 3717   6.345   4.550   3.889 -0.4572  0.3241  2.1982
    9CHTO   C22 3718   6.162   4.655   4.083 -0.0285 -0.1025 -0.0311
    9CHTO   H50 3719   6.205   4.562   4.120 -0.4005 -0.1297  0.3236
    9CHTO   O14 3720   6.140   4.749   4.195  0.3870 -0.1077  0.1494
    9CHTO   C23 3721   6.252   4.791   4.273 -0.2025  0.0745 -0.6874
    9CHTO   H51 3722   6.301   4.701   4.312  1.8558  1.1968 -0.6116
    9CHTO   C34 3723   6.194   4.873   4.394 -0.0747  0.2904  0.0390
    9CHTO   O23 3724   6.100   4.797   4.471 -0.9273  0.0406 -0.2264
    9CHTO   H38 3725   6.151   4.736   4.520 -1.0492  0.7615  0.8221
    9CHTO   O16 3726   6.030   4.641   4.020 -0.0635  0.0948 -0.2486
    9CHTO   C24 3727   5.954   4.478   4.020  0.2046 -0.2296 -0.1576
    9CHTO   H52 3728   6.021   4.404   4.063  1.5427  1.8333  1.3966
    9CHTO   C26 3729   5.912   4.430   3.880  0.4895 -0.4586  0.3789
    9CHTO   H54 3730   5.837   4.503   3.842  0.4480  0.0630  1.4623
    9CHTO   O20 3731   6.037   4.434   3.803 -0.4833 -0.1568 -0.6563
    9CHTO   H36 3732   6.032   4.394   3.718 -2.5918  1.5886 -1.4040
    9CHTO   C30 3733   5.857   4.284   3.896  0.2407  0.5011 -0.4589
    9CHTO   H58 3734   5.940   4.225   3.938 -1.4145  1.0083  3.8204
    9CHTO    N6 3735   5.811   4.231   3.769  0.7098  0.5140  0.6348
    9CHTO   H45 3736   5.854   4.134   3.747 -0.0956  0.3740 -0.3875
    9CHTO   H46 3737   5.703   4.230   3.762  0.7446  0.3267  0.1148
    9CHTO   C33 3738   5.740   4.285   3.998  0.0393 -0.6133 -0.2078
    9CHTO   H61 3739   5.653   4.342   3.961  0.6658  1.7199  1.7866
    9CHTO   O18 3740   5.780   4.351   4.120 -0.1515  0.3991 -0.4723
    9CHTO   C28 3741   5.830   4.479   4.112  0.6975 -0.3664  0.4190
    9CHTO   H56 3742   5.756   4.544   4.066  2.3490 -0.1587 -2.0288
    9CHTO   C35 3743   5.864   4.528   4.255 -0.0065 -0.4455  0.1231
    9CHTO   O24 3744   5.759   4.616   4.306 -0.0310  0.4160  0.0368
    9CHTO   H39 3745   5.693   4.563   4.346  1.5279 -1.5423  0.0728
    9CHTO    O9 3746   5.698   4.149   4.027 -0.2085 -0.1253  0.4656
    9CHTO   C13 3747   5.530   4.108   3.997 -0.5147  0.9631  0.5092
    9CHTO   H26 3748   5.515   4.101   3.888  1.3798 -1.0641  0.3403
    9CHTO   C11 3749   5.433   4.210   4.062  0.6231  0.4050 -0.4242
    9CHTO   H24 3750   5.440   4.303   4.003  1.8621  1.4784  1.3879
    9CHTO    O8 3751   5.453   4.227   4.202  0.5674  0.4025 -0.1752
    9CHTO    H3 3752   5.381   4.269   4.246  0.0888  0.9921 -1.5097
    9CHTO    C9 3753   5.291   4.156   4.023 -0.1559  0.0811 -0.5900
    9CHTO   H22 3754   5.292   4.137   3.915  0.3127  2.3529 -1.0253
    9CHTO    N2 3755   5.176   4.244   4.057 -0.1275  0.1042  0.0984
    9CHTO   H10 3756   5.202   4.341   4.017 -0.4727 -0.3177 -1.1918
    9CHTO   H11 3757   5.174   4.237   4.164  1.7215 -0.5636  0.0993
    9CHTO    C7 3758   5.275   4.013   4.092  0.3402 -0.1001  0.4620
    9CHTO   H20 3759   5.176   3.971   4.065 -0.8463 -0.1379  4.4882
    9CHTO    O4 3760   5.374   3.919   4.058  0.1142 -0.6986 -0.5658
    9CHTO   C14 3761   5.511   3.964   4.049 -0.1285  0.1727  0.3521
    9CHTO   H27 3762   5.558   3.899   3.973  0.0710  2.0852 -1.2161
    9CHTO   C18 3763   5.580   3.933   4.183 -0.2828  0.3110 -0.6256
    9CHTO   O13 3764   5.597   3.791   4.185  0.8973 -0.0635  0.1962
    9CHTO    H7 3765   5.665   3.778   4.248 -1.0376  0.8320  2.5684
    9CHTO    O2 3766   5.279   4.032   4.272  0.0437  0.0703  0.3588
    9CHTO    C1 3767   5.207   3.946   4.365 -0.2517 -0.7134 -0.1845
    9CHTO   H14 3768   5.207   3.844   4.322 -1.6255 -0.0557 -1.8178
    9CHTO    C2 3769   5.054   3.991   4.391  0.2917  0.1118 -0.4917
    9CHTO   H15 3770   5.056   4.100   4.402 -2.9167 -0.1246  3.6109
    9CHTO    O6 3771   4.971   3.960   4.274 -0.0887  0.6198 -0.1117
    9CHTO    H1 3772   4.887   3.998   4.291 -0.0413  0.0116  1.5548
    9CHTO    C3 3773   4.983   3.919   4.513  0.5150 -0.8297  0.7902
    9CHTO   H16 3774   4.949   3.817   4.491 -0.1105 -0.1637 -1.3722
    9CHTO    N1 3775   4.852   3.980   4.562  0.6145 -0.4752  0.2766
    9CHTO    H8 3776   4.798   4.032   4.484  1.0581 -0.0412  0.2517
    9CHTO    H9 3777   4.782   3.908   4.600  0.5026 -1.3322 -1.4987
    9CHTO    C4 3778   5.075   3.906   4.635  0.3919  0.4472 -0.1454
    9CHTO   H17 3779   5.090   3.998   4.690  1.3067 -0.4969  1.2241
    9CHTO    O1 3780   5.204   3.860   4.590  0.1676  0.1921  0.2794
    9CHTO    C5 3781   5.284   3.944   4.505 -0.1349 -0.2019 -0.6804
    9CHTO   H18 3782   5.284   4.046   4.545 -2.6287 -0.1766 -0.6615
    9CHTO   C16 3783   5.429   3.898   4.496  0.3165  0.1565 -0.0858
    9CHTO   O11 3784   5.437   3.760   4.461  0.8360 -0.6897 -0.1548
    9CHTO    H5 3785   5.457   3.743   4.371  1.2641 -0.0743 -0.1748
    9CHTO    O3 3786   5.026   3.805   4.735 -0.3339 -0.0566 -0.2252
    9CHTO    C6 3787   5.118   3.765   4.844  0.0979 -0.5826  0.4086
    9CHTO   H19 3788   5.221   3.799   4.835  0.9665 -3.4047 -1.0225
    9CHTO    C8 3789   5.063   3.827   4.978 -0.4591 -0.7219  0.3413
    9CHTO   H21 3790   4.962   3.789   4.995 -1.8890  2.6189 -0.1894
    9CHTO    O7 3791   5.061   3.972   4.958 -0.0694 -0.8038  0.4497
    9CHTO    H2 3792   5.143   4.010   4.980  0.2954 -0.8942 -0.6995
    9CHTO   C12 3793   5.144   3.784   5.105  0.2041  0.6429 -0.1222
    9CHTO   H25 3794   5.245   3.825   5.083  1.2369 -1.5022  0.5184
    9CHTO    N3 3795   5.102   3.847   5.233 -0.2635  0.5558  0.1340
    9CHTO   H12 3796   5.189   3.895   5.274  0.6694 -1.7419  0.9283
    9CHTO   H13 3797   5.074   3.779   5.313 -1.4617  1.8186  0.8153
    9CHTO   C15 3798   5.146   3.626   5.103 -0.2857  0.5067  0.6505
    9CHTO   H28 3799   5.045   3.588   5.119 -0.5606  0.8598 -0.2314
    9CHTO   O10 3800   5.262   3.578   5.210  0.1002  0.2797 -0.6731
    9CHTO    H4 3801   5.253   3.487   5.227 -0.3234  0.3543 -0.5015
    9CHTO    O5 3802   5.205   3.586   4.974 -0.0604  0.2170 -0.4902
    9CHTO   C10 3803   5.120   3.607   4.861 -0.1549 -1.0654  0.2669
    9CHTO   H23 3804   5.021   3.567   4.879 -1.2147  2.0273  1.7381
    9CHTO   C17 3805   5.179   3.536   4.734 -0.3897  0.5514 -0.0036
    9CHTO   O12 3806   5.189   3.394   4.756  0.6753  0.1380  0.1801
    9CHTO    H6 3807   5.109   3.345   4.748 -0.1283  1.6053 -0.8809
   10CHTO  H203 3808   5.313   6.673  -1.602 -0.0826  0.3997  0.2442
   10CHTO   O82 3809   5.303   6.599  -1.545 -0.0223 -0.4600 -0.8406
   10CHTO  C123 3810   5.180   6.527  -1.528  0.2912  0.0089  0.0940
   10CHTO  H227 3811   5.140   6.511  -1.630  0.6810  0.7581 -0.1843
   10CHTO   O77 3812   5.225   6.405  -1.472 -0.3574  0.4920  0.3180
   10CHTO  C118 3813   5.137   6.290  -1.458  0.3787  0.2905  0.1487
   10CHTO  H222 3814   5.105   6.262  -1.559  0.5856  0.4546  0.0376
   10CHTO  C125 3815   5.222   6.171  -1.391  0.0017  0.1709  0.0779
   10CHTO   O84 3816   5.261   6.207  -1.254  0.3613  0.0372  1.0640
   10CHTO  H205 3817   5.343   6.252  -1.251  0.5961 -0.4446  1.9405
   10CHTO  C114 3818   5.020   6.332  -1.371 -0.3042  0.3165 -0.2283
   10CHTO  H218 3819   5.059   6.345  -1.270  2.7775 -1.6385 -1.0871
   10CHTO  C116 3820   4.957   6.463  -1.413 -0.0715 -0.2283  0.8492
   10CHTO  H220 3821   4.897   6.455  -1.506 -0.2562  3.1527  0.6196
   10CHTO   O79 3822   4.859   6.497  -1.310  0.1848  0.2127  0.3370
   10CHTO  H201 3823   4.857   6.590  -1.293 -1.1308 -0.2626  3.0135
   10CHTO  C120 3824   5.062   6.585  -1.436  0.7655  0.2033 -1.0783
   10CHTO  H224 3825   5.110   6.618  -1.341  0.4038 -0.9867 -0.4829
   10CHTO   N21 3826   5.007   6.704  -1.498  0.1325 -0.1971  0.1341
   10CHTO  H211 3827   5.028   6.711  -1.604 -0.1237  0.0674  0.0999
   10CHTO  H212 3828   4.900   6.716  -1.488  0.0830  1.5418 -1.9758
   10CHTO   O75 3829   4.940   6.215  -1.375  0.0144 -0.3722 -0.6011
   10CHTO  C112 3830   4.901   6.143  -1.211  0.3938 -0.3388 -0.4219
   10CHTO  H216 3831   4.925   6.224  -1.140  1.2897 -1.4886  0.6093
   10CHTO   O73 3832   4.990   6.027  -1.197  0.6095 -0.0282 -0.3163
   10CHTO  C113 3833   4.972   5.975  -1.066 -0.0310 -1.1827 -0.3488
   10CHTO  H217 3834   5.001   6.053  -0.991  1.9795 -1.5407 -0.7166
   10CHTO  C124 3835   5.077   5.865  -1.052  0.2895  0.0964  0.4257
   10CHTO   O83 3836   5.214   5.923  -1.047  0.1628 -0.3248 -0.1243
   10CHTO  H204 3837   5.276   5.861  -1.079 -0.8576 -0.9855 -0.8760
   10CHTO  C109 3838   4.831   5.919  -1.048  0.2105 -0.1030 -0.1044
   10CHTO  H213 3839   4.827   5.840  -1.124 -0.2512 -0.2348  0.0580
   10CHTO  C110 3840   4.720   6.022  -1.076  0.1876 -0.9135  0.2631
   10CHTO  H214 3841   4.727   6.090  -0.990  2.3584 -3.5686  2.2705
   10CHTO   O78 3842   4.591   5.968  -1.069  0.0156  0.2006  0.1511
   10CHTO  H200 3843   4.559   5.991  -0.984  2.5461 -0.2021  1.2667
   10CHTO  C111 3844   4.749   6.104  -1.206  0.2908 -0.7103 -0.5224
   10CHTO  H215 3845   4.716   6.043  -1.291 -1.0050 -1.2040  0.3267
   10CHTO   N19 3846   4.665   6.228  -1.210 -0.1158 -0.1329  0.0314
   10CHTO  H207 3847   4.558   6.213  -1.205 -0.1524  0.6188  1.4321
   10CHTO  H208 3848   4.683   6.283  -1.301 -1.4540  1.8331  0.9223
   10CHTO   O74 3849   4.827   5.861  -0.919 -0.4114 -0.1452 -0.0158
   10CHTO  C115 3850   4.717   5.742  -0.900  0.3454 -0.5659  0.1090
   10CHTO  H219 3851   4.615   5.779  -0.909  0.7092  0.3079 -0.5618
   10CHTO   O76 3852   4.732   5.625  -1.022 -0.3174  0.3648  0.2480
   10CHTO  C122 3853   4.642   5.524  -1.005 -0.1855  0.4742 -0.2539
   10CHTO  H226 3854   4.660   5.443  -1.076  2.8650  0.3449  0.5939
   10CHTO  C126 3855   4.496   5.570  -1.031 -0.4356 -1.0936 -0.3400
   10CHTO   O85 3856   4.401   5.465  -0.996 -0.1083 -0.5791 -0.3043
   10CHTO  H206 3857   4.409   5.394  -1.057 -1.6067  0.0578 -1.2777
   10CHTO  C121 3858   4.650   5.455  -0.857 -0.0737  0.7883 -0.3392
   10CHTO  H225 3859   4.566   5.383  -0.846  1.4684 -0.8625  1.0334
   10CHTO   O81 3860   4.782   5.389  -0.858  0.4697 -0.4331  0.1951
   10CHTO  H202 3861   4.854   5.448  -0.859 -0.2948  0.5186  0.6124
   10CHTO  C119 3862   4.630   5.561  -0.738  0.1065  0.9826  0.6936
   10CHTO  H223 3863   4.530   5.603  -0.752  0.2888  1.6776  1.4231
   10CHTO  C117 3864   4.728   5.679  -0.752 -0.1594  0.2750  0.8062
   10CHTO  H221 3865   4.834   5.653  -0.741 -1.2690 -4.2140  1.9045
   10CHTO   N20 3866   4.692   5.774  -0.641 -0.4691 -0.0773  0.2167
   10CHTO  H209 3867   4.665   5.868  -0.686  3.4833 -0.0764 -2.2985
   10CHTO  H210 3868   4.606   5.755  -0.578 -1.2862 -0.8928 -1.1340
   10CHTO   O80 3869   4.611   5.503  -0.609 -0.0589  0.0857  0.2123
   10CHTO  C103 3870   4.493   5.414  -0.589 -0.3144 -0.2958 -0.1958
   10CHTO  H190 3871   4.438   5.401  -0.682  1.4315 -2.1934 -1.0167
   10CHTO  C101 3872   4.539   5.269  -0.535 -0.0547  0.4658  0.1686
   10CHTO  H188 3873   4.605   5.270  -0.449  1.6743  0.7442 -1.1403
   10CHTO   O68 3874   4.623   5.204  -0.641 -0.5007  0.0734 -0.0177
   10CHTO  H168 3875   4.682   5.141  -0.605 -0.5638  1.1090  1.9428
   10CHTO   C99 3876   4.413   5.177  -0.506 -0.2806  0.0706 -0.1653
   10CHTO  H186 3877   4.351   5.170  -0.598 -0.2492 -1.3348 -0.0982
   10CHTO   N17 3878   4.433   5.041  -0.450 -0.0849 -0.5331 -0.0768
   10CHTO  H174 3879   4.505   4.986  -0.509  0.4357 -1.1497  1.1163
   10CHTO  H175 3880   4.454   5.026  -0.345 -0.4057 -2.0492 -0.2164
   10CHTO   C97 3881   4.326   5.255  -0.408 -0.0624  0.1683  0.5278
   10CHTO  H184 3882   4.386   5.269  -0.317  1.3372 -0.7443 -0.2335
   10CHTO   O64 3883   4.289   5.383  -0.471  0.0965 -0.3909 -0.6321
   10CHTO  C104 3884   4.396   5.479  -0.484  0.5498  0.0529  0.2658
   10CHTO  H191 3885   4.447   5.492  -0.388 -0.5025 -0.4848  0.9038
   10CHTO  C108 3886   4.344   5.614  -0.530 -0.0905 -0.3825  0.0984
   10CHTO   O71 3887   4.280   5.674  -0.421  0.5378  0.5530 -0.1282
   10CHTO  H171 3888   4.260   5.762  -0.449  1.1194  0.4305 -0.9523
   10CHTO   O62 3889   4.192   5.202  -0.393 -0.8241  0.5980  0.1785
   10CHTO   C91 3890   4.134   5.240  -0.263  0.4905 -0.5449 -0.5230
   10CHTO  H178 3891   4.180   5.333  -0.231  0.2906 -0.3360 -0.8327
   10CHTO   C92 3892   4.161   5.121  -0.156  0.2370 -0.2358 -0.1781
   10CHTO  H179 3893   4.111   5.025  -0.176 -1.1685  0.3887  0.2454
   10CHTO   O66 3894   4.302   5.100  -0.148 -0.0670 -0.1372  0.1068
   10CHTO  H166 3895   4.350   5.179  -0.133 -2.0770  1.0404  0.5299
   10CHTO   C93 3896   4.114   5.171  -0.011 -0.3358  0.1882 -0.3358
   10CHTO  H180 3897   4.168   5.262   0.018 -1.1649  0.6830 -0.3391
   10CHTO   N16 3898   4.151   5.078   0.099  0.3618  0.3196 -0.1634
   10CHTO  H172 3899   4.146   5.133   0.192 -1.0784  1.2772 -0.7951
   10CHTO  H173 3900   4.083   4.995   0.096  0.1010  0.5575 -0.8990
   10CHTO   C94 3901   3.961   5.208  -0.017  0.1766 -0.8974 -0.2754
   10CHTO  H181 3902   3.899   5.120  -0.032 -0.0139 -0.7099 -0.6005
   10CHTO   O61 3903   3.930   5.298  -0.126 -0.1226 -0.3950  0.8325
   10CHTO   C95 3904   3.976   5.254  -0.254 -0.5132 -0.5680  0.1875
   10CHTO  H182 3905   3.930   5.158  -0.277 -0.6357 -0.6844  0.8899
   10CHTO  C106 3906   3.918   5.366  -0.358  0.0919 -0.0688  0.2214
   10CHTO   O69 3907   3.983   5.498  -0.349  0.1784  0.1064  0.3159
   10CHTO  H169 3908   3.965   5.561  -0.416  0.4285 -0.5223 -0.3459
   10CHTO   O63 3909   3.900   5.288   0.123  0.1098  0.2308 -0.2092
   10CHTO   C96 3910   3.956   5.439   0.142  0.0504  0.6639  0.5083
   10CHTO  H183 3911   4.019   5.460   0.055 -0.7853 -0.4892 -0.3945
   10CHTO   C98 3912   4.045   5.460   0.268 -0.0711 -0.1172  0.3370
   10CHTO  H185 3913   3.990   5.427   0.357 -2.7003  0.0424 -1.1865
   10CHTO   O67 3914   4.161   5.375   0.265 -0.0760  0.2243  0.0751
   10CHTO  H167 3915   4.215   5.391   0.190  1.4524 -1.0183  0.8921
   10CHTO  C102 3916   4.091   5.615   0.291 -0.3684 -0.5448  0.2523
   10CHTO  H189 3917   4.159   5.638   0.208 -0.2003 -0.1451  0.5015
   10CHTO   N18 3918   4.175   5.642   0.413  0.2694  0.2591 -0.6770
   10CHTO  H176 3919   4.117   5.661   0.502  0.6685  0.8428 -0.5325
   10CHTO  H177 3920   4.233   5.555   0.441 -2.1795 -1.0828  0.2849
   10CHTO  C105 3921   3.969   5.708   0.282  0.3156  0.1997 -0.1661
   10CHTO  H192 3922   3.908   5.703   0.373 -4.1615 -1.5071 -3.1147
   10CHTO   O65 3923   3.883   5.676   0.173  0.2360  0.1505  0.4552
   10CHTO  C100 3924   3.838   5.540   0.165  0.5256  0.3099  0.5525
   10CHTO  H187 3925   3.791   5.514   0.261  0.8241  1.6924  1.0771
   10CHTO  C107 3926   3.724   5.518   0.061  0.1131 -0.4612 -0.9486
   10CHTO   O70 3927   3.764   5.570  -0.070  0.0004  0.2659 -0.3473
   10CHTO  H170 3928   3.682   5.595  -0.109 -0.5411  1.4325  1.4935
   10CHTO   O57 3929   4.038   5.865   0.277  0.2972  0.3030  0.5362
   10CHTO   C85 3930   3.964   5.971   0.313 -0.0362 -0.2458  0.5805
   10CHTO  H157 3931   3.854   5.963   0.300 -0.2092  0.5283  1.5237
   10CHTO   C83 3932   4.002   6.072   0.200 -0.2426 -0.9738 -0.0776
   10CHTO  H155 3933   3.981   6.038   0.099  0.4248 -1.2322 -0.1314
   10CHTO   O56 3934   4.151   6.087   0.202  0.0793 -0.5873  0.2076
   10CHTO  H135 3935   4.184   6.151   0.141 -1.3316 -0.2594 -0.2330
   10CHTO   C81 3936   3.922   6.207   0.228  0.7020 -0.0704 -0.2690
   10CHTO  H153 3937   3.814   6.192   0.233  0.1191  3.6130 -0.6559
   10CHTO   N14 3938   3.944   6.304   0.120 -0.1890 -0.4505 -0.3239
   10CHTO  H141 3939   3.876   6.384   0.138  0.9689  0.1443  1.4728
   10CHTO  H142 3940   4.043   6.342   0.132  0.2886 -1.3701 -1.2176
   10CHTO   C79 3941   3.965   6.264   0.371 -0.6568 -0.3114  0.1673
   10CHTO  H151 3942   3.898   6.347   0.393 -2.5015 -1.4577 -1.0384
   10CHTO   O52 3943   3.948   6.161   0.476 -0.4760  0.1213  0.3140
   10CHTO   C86 3944   4.001   6.029   0.462 -0.1818  0.2118 -0.4253
   10CHTO  H158 3945   4.110   6.037   0.482 -0.1067 -2.3396  0.3729
   10CHTO   C90 3946   3.948   5.940   0.580 -0.4221  0.0540  0.3309
   10CHTO   O60 3947   4.023   5.973   0.698 -0.7719 -0.2798 -1.0548
   10CHTO  H138 3948   4.003   5.908   0.762  0.8675 -1.0386 -1.2768
   10CHTO   O50 3949   4.088   6.333   0.386 -0.3290 -0.0841 -0.1456
   10CHTO   C73 3950   4.222   6.304   0.424  0.3086 -0.1669  0.6578
   10CHTO  H145 3951   4.258   6.204   0.397 -0.2878 -0.2658  0.1928
   10CHTO   C74 3952   4.230   6.302   0.574 -0.0315  1.2373 -0.2631
   10CHTO  H146 3953   4.157   6.226   0.607  0.0810  1.6110  0.8960
   10CHTO   O54 3954   4.362   6.251   0.606  0.4917 -0.7155  0.1853
   10CHTO  H133 3955   4.376   6.165   0.571 -3.0856 -1.7467  1.1157
   10CHTO   C75 3956   4.204   6.439   0.642 -0.4872 -0.2913 -0.3551
   10CHTO  H147 3957   4.105   6.474   0.609 -0.6116  1.6531  1.9462
   10CHTO   N13 3958   4.198   6.438   0.791  0.4163 -0.1438  0.0617
   10CHTO  H139 3959   4.294   6.400   0.821  0.0672 -0.3518  0.9495
   10CHTO  H140 3960   4.209   6.539   0.828 -0.8339  0.1867 -0.4383
   10CHTO   C76 3961   4.306   6.548   0.576 -0.4535  0.1773 -0.6598
   10CHTO  H148 3962   4.401   6.512   0.617 -1.9633 -0.1098  2.7109
   10CHTO   O49 3963   4.307   6.539   0.430 -0.1879 -0.5664  0.6639
   10CHTO   C77 3964   4.329   6.409   0.372 -0.3089 -0.5815 -0.4679
   10CHTO  H149 3965   4.429   6.365   0.376  0.3553  0.9434 -0.1119
   10CHTO   C88 3966   4.325   6.429   0.221  0.1439 -0.1203 -0.0508
   10CHTO   O58 3967   4.380   6.312   0.151 -0.3822  0.1467  0.0558
   10CHTO  H136 3968   4.356   6.323   0.061 -0.4912  1.3152  0.2243
   10CHTO   O51 3969   4.265   6.693   0.620  0.4656  0.9935 -0.1997
   10CHTO   C78 3970   4.374   6.797   0.643 -0.4564 -0.1348  0.3114
   10CHTO  H150 3971   4.461   6.759   0.586 -0.3908 -1.0757  1.0251
   10CHTO   C80 3972   4.421   6.807   0.790 -0.0399 -0.9820 -0.4655
   10CHTO  H152 3973   4.331   6.828   0.852 -2.1187 -0.0506 -3.6920
   10CHTO   O55 3974   4.463   6.675   0.827  0.3858  0.8815  0.2778
   10CHTO  H134 3975   4.515   6.687   0.904  0.0067 -1.2919  0.8889
   10CHTO   C84 3976   4.539   6.916   0.803  1.0740 -0.5222  0.1145
   10CHTO  H156 3977   4.622   6.889   0.738  3.4766  0.6674  2.5882
   10CHTO   N15 3978   4.594   6.929   0.944  0.3659  0.2081  1.2773
   10CHTO  H143 3979   4.515   6.936   1.017  0.1629  0.1829  1.0608
   10CHTO  H144 3980   4.662   6.854   0.978  2.0694  0.3412 -1.7510
   10CHTO   C87 3981   4.508   7.052   0.739 -0.2907  0.2619  0.0734
   10CHTO  H159 3982   4.435   7.104   0.800  0.3226  1.6971 -0.3918
   10CHTO   O53 3983   4.445   7.030   0.613 -0.3611  0.2449  0.2945
   10CHTO   C82 3984   4.332   6.940   0.601 -1.0770  0.1060 -0.7423
   10CHTO  H154 3985   4.246   6.973   0.660 -0.3886 -3.2362  2.2630
   10CHTO   C89 3986   4.272   6.933   0.457  0.9766 -0.1241 -0.3738
   10CHTO   O59 3987   4.372   6.883   0.366 -0.1966  0.7222  0.0676
   10CHTO  H137 3988   4.334   6.852   0.287 -0.3230 -3.6879  1.7094
   10CHTO   O45 3989   4.651   7.138   0.715  0.0583 -0.1010 -0.3224
   10CHTO   C67 3990   4.635   7.279   0.703 -0.2143  0.1488  0.7082
   10CHTO  H124 3991   4.534   7.303   0.667 -0.4380 -1.6835  0.0630
   10CHTO   C65 3992   4.663   7.347   0.848  0.6137 -0.5769  0.0156
   10CHTO  H122 3993   4.607   7.279   0.912 -0.6142 -2.6868 -3.1842
   10CHTO   O44 3994   4.593   7.471   0.862 -0.1836  0.3698 -0.0997
   10CHTO  H102 3995   4.644   7.539   0.822 -1.1122  1.0045 -0.2093
   10CHTO   C63 3996   4.817   7.333   0.878 -0.4834  0.6173 -0.0378
   10CHTO  H120 3997   4.851   7.230   0.867  1.2365  1.1402  0.2886
   10CHTO   N11 3998   4.842   7.369   1.022  0.4168 -0.4795  0.0635
   10CHTO  H108 3999   4.910   7.296   1.061  0.8459 -0.0814  0.0491
   10CHTO  H109 4000   4.753   7.383   1.081 -0.6157 -0.0487 -1.5772
   10CHTO   C61 4001   4.901   7.419   0.776 -0.2559 -0.8227  0.2748
   10CHTO  H118 4002   5.005   7.386   0.788 -0.1913  0.0362  2.4368
   10CHTO   O40 4003   4.868   7.380   0.642 -0.2178 -0.3200  0.0570
   10CHTO   C68 4004   4.730   7.347   0.594  0.3210  0.0289  0.1646
   10CHTO  H125 4005   4.749   7.272   0.516  4.0360  0.6845  0.3626
   10CHTO   C72 4006   4.675   7.479   0.527  0.4600 -0.1560  0.1890
   10CHTO   O48 4007   4.749   7.508   0.412  0.0879 -0.4377  0.3710
   10CHTO  H105 4008   4.697   7.521   0.335  0.6545  1.0613  0.2307
   10CHTO   O38 4009   4.886   7.565   0.809 -0.3410 -0.3840  0.0992
   10CHTO   C55 4010   4.987   7.655   0.765  0.3654  0.0509  0.3656
   10CHTO  H112 4011   5.030   7.607   0.676 -1.7302 -1.0668 -0.0658
   10CHTO   C56 4012   5.092   7.656   0.894  0.4205 -0.8346 -0.2152
   10CHTO  H113 4013   5.032   7.664   0.986  0.3430 -1.6274 -0.1969
   10CHTO   O42 4014   5.163   7.530   0.895  0.0861 -0.2842 -0.5360
   10CHTO  H100 4015   5.203   7.500   0.974  1.8161  1.2781 -0.7583
   10CHTO   C57 4016   5.198   7.775   0.900 -0.5252  0.0344 -0.7889
   10CHTO  H114 4017   5.271   7.733   0.831 -1.4313 -0.3869 -1.4954
   10CHTO   N10 4018   5.272   7.791   1.032 -0.0122 -0.0359  0.2038
   10CHTO  H106 4019   5.341   7.708   1.042  1.0291  1.0828  2.5903
   10CHTO  H107 4020   5.202   7.789   1.113  0.2381  2.1462  0.5037
   10CHTO   C58 4021   5.131   7.900   0.848  0.5296 -0.8486  0.1095
   10CHTO  H115 4022   5.069   7.936   0.933 -0.5395 -3.4990  0.4873
   10CHTO   O37 4023   5.049   7.886   0.731  0.5631 -0.2100  0.0433
   10CHTO   C59 4024   4.930   7.799   0.747 -0.0000  0.6760  0.2309
   10CHTO  H116 4025   4.877   7.817   0.840 -1.2713 -0.9669 -0.1529
   10CHTO   C70 4026   4.831   7.822   0.629  0.0005 -0.1229 -0.3352
   10CHTO   O46 4027   4.896   7.808   0.497  0.1104 -0.2832  0.4728
   10CHTO  H103 4028   4.843   7.845   0.430  0.0604 -0.3369  0.4821
   10CHTO   O39 4029   5.262   8.017   0.822 -0.2108  0.0057 -0.0990
   10CHTO   C60 4030   5.218   8.146   0.767  0.3473 -0.2150 -0.0780
   10CHTO  H117 4031   5.131   8.129   0.703  1.2030  0.5787 -1.4885
   10CHTO   C62 4032   5.207   8.233   0.900 -0.7337  0.2690 -0.0824
   10CHTO  H119 4033   5.131   8.186   0.964  1.2853 -0.1119  2.0983
   10CHTO   O43 4034   5.330   8.226   0.974 -0.4750 -0.3227  0.3369
   10CHTO  H101 4035   5.316   8.155   1.034  1.2198 -1.8578 -1.0382
   10CHTO   C66 4036   5.155   8.382   0.859  0.0507 -0.1033 -0.0142
   10CHTO  H123 4037   5.067   8.366   0.798 -0.0395 -2.2476  0.6499
   10CHTO   N12 4038   5.133   8.466   0.980 -0.4172 -0.9726 -0.3833
   10CHTO  H110 4039   5.175   8.433   1.074  4.1317  0.4918 -1.7892
   10CHTO  H111 4040   5.026   8.478   0.995 -0.4309  1.8783 -2.4163
   10CHTO   C69 4041   5.252   8.441   0.760 -0.2349 -0.1830  0.1732
   10CHTO  H126 4042   5.344   8.463   0.819 -0.7995  4.8020 -0.6147
   10CHTO   O41 4043   5.293   8.350   0.639  0.3492  0.3405 -0.3090
   10CHTO   C64 4044   5.328   8.211   0.675  0.7861  0.3698  0.1376
   10CHTO  H121 4045   5.422   8.221   0.733  0.3326  1.5771  0.6812
   10CHTO   C71 4046   5.340   8.131   0.539 -0.5118  0.3451  0.1428
   10CHTO   O47 4047   5.209   8.124   0.479  0.0576 -0.3295 -0.6453
   10CHTO  H104 4048   5.216   8.088   0.393  0.2845 -0.8804 -0.3986
   10CHTO   O34 4049   5.182   8.579   0.703 -0.2466 -0.1341  0.0068
   10CHTO   C49 4050   5.236   8.723   0.640 -0.1006 -0.8305 -1.1844
   10CHTO   H91 4051   5.330   8.701   0.590  0.8593 -0.1941  0.3326
   10CHTO   C47 4052   5.265   8.831   0.756  0.2334 -0.6216  0.2071
   10CHTO   H89 4053   5.319   8.911   0.702 -0.8768 -0.5823 -0.8666
   10CHTO   O33 4054   5.350   8.767   0.854 -0.3215  0.1103 -0.0269
   10CHTO   H70 4055   5.296   8.711   0.906  0.1672 -0.7162 -0.4001
   10CHTO   C45 4056   5.135   8.878   0.823  0.2326 -0.6247 -0.0071
   10CHTO   H87 4057   5.071   8.795   0.859 -0.6726  1.0789  2.5121
   10CHTO    N8 4058   5.158   8.968   0.940  0.6587 -0.5983 -0.4918
   10CHTO   H75 4059   5.146   8.920   1.036 -0.6120  1.5014  0.4449
   10CHTO   H76 4060   5.263   8.992   0.940  0.4413  0.6171  2.3011
   10CHTO   C43 4061   5.045   8.950   0.719 -0.4640 -0.1862 -0.0969
   10CHTO   H85 4062   4.955   8.974   0.775  1.2770  0.8249  2.3408
   10CHTO   O29 4063   5.020   8.859   0.606  0.4389  0.2285 -0.7001
   10CHTO   C50 4064   5.133   8.786   0.543 -0.1198  0.2966  0.1743
   10CHTO   H92 4065   5.091   8.708   0.479 -2.2040  0.2607  1.5338
   10CHTO   C54 4066   5.206   8.868   0.430 -0.0901 -0.2111 -0.2325
   10CHTO   O36 4067   5.114   8.910   0.325 -0.4153  0.7858  0.3337
   10CHTO   H72 4068   5.154   8.941   0.246  0.1769  1.2985  0.8248
   10CHTO   O27 4069   5.099   9.076   0.677  0.3893 -0.3772 -0.1259
   10CHTO   C37 4070   5.096   9.171   0.566  0.1976 -0.4187 -0.0366
   10CHTO   H79 4071   5.167   9.129   0.494  1.9938  0.6182  1.0916
   10CHTO   C38 4072   4.958   9.180   0.505 -0.1971  0.2742 -0.3375
   10CHTO   H80 4073   4.889   9.210   0.585  1.9495 -0.9290  2.0218
   10CHTO   O31 4074   4.916   9.055   0.446  0.2495  0.9416 -0.3693
   10CHTO   H68 4075   4.933   8.989   0.510  1.5955  3.4256  1.9550
   10CHTO   C39 4076   4.962   9.285   0.389  0.8754  0.0319 -0.1767
   10CHTO   H81 4077   5.021   9.245   0.307 -1.4655  1.9906 -2.8759
   10CHTO    N7 4078   4.825   9.321   0.325  0.1424  0.4169  0.9909
   10CHTO   H73 4079   4.843   9.404   0.258  0.7359 -0.8203 -0.4125
   10CHTO   H74 4080   4.785   9.239   0.267  0.0743  0.1032  1.4818
   10CHTO   C40 4081   5.046   9.418   0.418 -0.1257  0.5792 -0.1144
   10CHTO   H82 4082   4.985   9.495   0.465 -0.8107  0.2425 -0.4427
   10CHTO   O26 4083   5.169   9.390   0.490  0.2476  0.9043  0.0758
   10CHTO   C41 4084   5.150   9.312   0.614 -0.0441 -0.4920  0.5958
   10CHTO   H83 4085   5.086   9.359   0.690 -1.3752 -1.6874  0.2275
   10CHTO   C52 4086   5.295   9.286   0.679 -0.4988 -0.3575  0.2463
   10CHTO   O35 4087   5.372   9.389   0.719  0.2830 -0.4137  0.1801
   10CHTO   H71 4088   5.461   9.371   0.697  0.3945 -0.9633  1.0753
   10CHTO   O28 4089   5.100   9.482   0.301  0.0267 -0.0071 -0.0533
   10CHTO   C42 4090   5.085   9.621   0.254 -0.1441 -0.1866  0.0768
   10CHTO   H84 4091   4.997   9.653   0.311  1.6034  1.1073  2.1262
   10CHTO   C44 4092   5.057   9.635   0.105  0.9167  0.6777  0.0820
   10CHTO   H86 4093   5.131   9.578   0.047 -0.2087 -0.1544 -0.5516
   10CHTO   O32 4094   4.931   9.566   0.082  0.1467 -0.0176  0.2506
   10CHTO   H69 4095   4.858   9.625   0.086  1.2031  1.8150 -4.2489
   10CHTO   C48 4096   5.056   9.788   0.051  0.5906  0.1930  0.0134
   10CHTO   H90 4097   4.973   9.845   0.093 -0.3701 -1.0710 -0.1286
   10CHTO    N9 4098   5.049   9.784  -0.099  0.2956 -0.7548  0.2538
   10CHTO   H77 4099   5.084   9.878  -0.141  0.5191  0.0148  2.0813
   10CHTO   H78 4100   5.078   9.693  -0.149  0.3266 -1.3040  1.2598
   10CHTO   C51 4101   5.182   9.863   0.103  0.4145  0.5120  1.3924
   10CHTO   H93 4102   5.273   9.820   0.062  0.1859  1.3059  0.0114
   10CHTO   O30 4103   5.176   9.852   0.249  0.4386 -0.1156  0.5313
   10CHTO   C46 4104   5.207   9.712   0.303 -0.6275 -0.1259 -0.3407
   10CHTO   H88 4105   5.299   9.669   0.264  0.7103  2.1995  0.1597
   10CHTO   C53 4106   5.218   9.719   0.451  0.6191  0.0415  0.1188
   10CHTO   O72 4107   5.101   9.773   0.514  0.2271 -0.1287 -0.0791
   10CHTO  H199 4108   5.019   9.735   0.490 -0.3969  0.2769  1.3550
   10CHTO   O22 4109   5.177  10.002   0.074  0.4817 -0.7493 -0.6590
   10CHTO   C31 4110   5.302  10.079   0.075 -0.1044  0.1227  0.1680
   10CHTO   H59 4111   5.269  10.185   0.085  1.3007  0.6851 -1.0329
   10CHTO   C29 4112   5.399  10.053   0.193 -0.4193  0.4777  0.7746
   10CHTO   H57 4113   5.445   9.955   0.173  0.9228  1.3267 -0.4512
   10CHTO   O21 4114   5.343  10.059   0.330  0.3798  0.0446  0.1299
   10CHTO   H37 4115   5.412  10.072   0.392  0.0587 -0.8961  0.6947
   10CHTO   C27 4116   5.512  10.166   0.186  0.6470  0.4791  0.2340
   10CHTO   H55 4117   5.457  10.260   0.196  0.3842  0.5661 -1.8795
   10CHTO    N5 4118   5.610  10.165   0.298  0.3473 -1.2425 -1.2047
   10CHTO   H43 4119   5.679  10.245   0.275 -0.4432 -0.9189 -2.5560
   10CHTO   H44 4120   5.671  10.077   0.309  1.7740  0.1184  2.4439
   10CHTO   C25 4121   5.583  10.160   0.044 -0.4338  0.0873 -0.4468
   10CHTO   H53 4122   5.628  10.062   0.021 -2.6946 -1.4432  1.4202
   10CHTO   O17 4123   5.477  10.177  -0.063 -0.5073  0.0730  0.0298
   10CHTO   C32 4124   5.378  10.074  -0.059 -0.1746 -0.0809  0.4780
   10CHTO   H60 4125   5.432   9.980  -0.070 -0.6743 -0.6150  2.3990
   10CHTO   C36 4126   5.295  10.076  -0.189  0.3706  0.4265  0.2142
   10CHTO   O25 4127   5.193  10.176  -0.192  0.0464  0.6573 -0.6488
   10CHTO   H40 4128   5.161  10.186  -0.279  0.6857 -0.7434 -1.0655
   10CHTO   O15 4129   5.691  10.276   0.031 -0.7373 -0.8367  0.5847
   10CHTO   C19 4130   5.705  10.421   0.027  0.1586  0.0010 -0.1355
   10CHTO   H47 4131   5.726  10.442  -0.079 -0.3961  2.4209  0.2086
   10CHTO   C20 4132   5.586  10.510   0.073  0.4192  0.4884  0.4725
   10CHTO   H48 4133   5.569  10.497   0.180 -0.4163 -1.9506  0.0685
   10CHTO   O19 4134   5.473  10.460  -0.007  0.2057 -0.3579 -0.0425
   10CHTO   H35 4135   5.460  10.367  -0.002  0.6618 -0.5099 -1.3910
   10CHTO   C21 4136   5.615  10.668   0.050 -0.0092 -0.5645 -0.8448
   10CHTO   H49 4137   5.615  10.690  -0.057 -0.0505  0.8044 -0.5704
   10CHTO    N4 4138   5.512  10.760   0.109 -0.7364 -0.0819  0.4206
   10CHTO   H41 4139   5.547  10.812   0.196  0.3389 -2.1971  1.2945
   10CHTO   H42 4140   5.427  10.696   0.130  0.0164 -1.4993 -0.7116
   10CHTO   C22 4141   5.758  10.705   0.110  0.3272  0.4086 -0.0840
   10CHTO   H50 4142   5.743  10.707   0.218 -0.6347 -1.5122 -0.1679
   10CHTO   O14 4143   5.857  10.610   0.076 -0.0359 -0.4750  0.4829
   10CHTO   C23 4144   5.829  10.474   0.111 -0.5200  0.0825  0.2439
   10CHTO   H51 4145   5.813  10.466   0.219  0.5912 -0.8043  0.3507
   10CHTO   C34 4146   5.952  10.394   0.098  0.2408 -0.1981  0.3486
   10CHTO   O23 4147   5.979  10.371  -0.035 -0.5625  0.2755 -0.1540
   10CHTO   H38 4148   6.027  10.447  -0.061 -0.3825 -0.0959 -0.9146
   10CHTO   O16 4149   5.808  10.830   0.052  0.1050 -0.0036 -0.0245
   10CHTO   C24 4150   5.919  10.887   0.146  0.9089 -0.2383  0.5304
   10CHTO   H52 4151   5.977  10.806   0.191  1.0794 -1.2636 -1.4449
   10CHTO   C26 4152   5.857  10.979   0.248  0.3909  0.5557 -0.1347
   10CHTO   H54 4153   5.780  11.038   0.194 -0.2505 -2.6744 -2.9369
   10CHTO   O20 4154   5.792  10.898   0.346 -0.1741 -0.1630  0.4490
   10CHTO   H36 4155   5.740  10.945   0.408 -2.5504 -0.6983 -1.0537
   10CHTO   C30 4156   5.966  11.070   0.307 -0.0785 -0.1911  0.0137
   10CHTO   H58 4157   6.018  11.014   0.386  0.7418 -0.7589 -0.9153
   10CHTO    N6 4158   5.897  11.183   0.378  0.0091  0.2120  0.0341
   10CHTO   H45 4159   5.959  11.253   0.433 -0.3744 -0.0928  0.8653
   10CHTO   H46 4160   5.818  11.148   0.443  2.3763 -2.2171  1.7043
   10CHTO   C33 4161   6.070  11.121   0.203  0.6519  0.0504  0.1114
   10CHTO   H61 4162   6.022  11.189   0.130 -0.6665 -1.0455 -0.0501
   10CHTO   O18 4163   6.124  11.013   0.129  0.4797  0.6292 -0.0696
   10CHTO   C28 4164   6.015  10.956   0.047  0.4669 -0.2294  0.4594
   10CHTO   H56 4165   5.968  11.041  -0.004  0.1999  1.1350  2.8862
   10CHTO   C35 4166   6.069  10.858  -0.064 -0.8415 -0.3183  0.1646
   10CHTO   O24 4167   6.138  10.742  -0.018  0.1166  0.6082  0.1312
   10CHTO   H39 4168   6.208  10.770   0.037 -0.6393 -0.5734  1.7034
   10CHTO    O9 4169   6.172  11.199   0.271  0.0003 -0.2811 -0.6486
   10CHTO   C13 4170   6.264  11.297   0.156 -0.1488  1.1182 -0.5470
   10CHTO   H26 4171   6.205  11.315   0.064 -0.1775  1.4140 -0.4725
   10CHTO   C11 4172   6.398  11.219   0.126  0.5433 -0.2826  0.2080
   10CHTO   H24 4173   6.361  11.128   0.075  0.9951 -0.0517 -0.5456
   10CHTO    O8 4174   6.462  11.183   0.254 -0.0965  0.0298  0.0499
   10CHTO    H3 4175   6.497  11.258   0.299 -0.3458 -0.0043  0.3046
   10CHTO    C9 4176   6.483  11.300   0.027  0.3580  0.4747 -0.0769
   10CHTO   H22 4177   6.427  11.309  -0.067 -0.7881  2.0918  0.7383
   10CHTO    N2 4178   6.605  11.221  -0.016  0.2774 -0.5449 -0.1474
   10CHTO   H10 4179   6.622  11.242  -0.120 -0.7337 -1.3267 -0.4747
   10CHTO   H11 4180   6.606  11.114   0.002 -1.0794 -0.2346  1.9600
   10CHTO    C7 4181   6.505  11.449   0.078  0.3120 -0.1738  0.4058
   10CHTO   H20 4182   6.441  11.501   0.003  1.2756 -1.4201 -1.2965
   10CHTO    O4 4183   6.444  11.468   0.207  0.4352  0.1642 -0.0000
   10CHTO   C14 4184   6.306  11.440   0.213  0.1116 -0.0383  0.5390
   10CHTO   H27 4185   6.266  11.519   0.146  0.4392  0.1992  0.6198
   10CHTO   C18 4186   6.256  11.475   0.353 -0.6574 -0.2277  0.2051
   10CHTO   O13 4187   6.296  11.384   0.457  0.0012 -0.0841  0.0037
   10CHTO    H7 4188   6.271  11.295   0.441  0.2003  0.1837 -1.9939
   10CHTO    O2 4189   6.660  11.522   0.087  0.5915  0.0898 -0.4353
   10CHTO    C1 4190   6.677  11.648   0.161  0.4618  0.5545  0.4364
   10CHTO   H14 4191   6.642  11.633   0.265  2.4014  1.3799  1.2245
   10CHTO    C2 4192   6.606  11.768   0.095  0.3384  0.3168 -1.3384
   10CHTO   H15 4193   6.642  11.773  -0.008  0.7321 -1.4966 -1.3032
   10CHTO    O6 4194   6.463  11.751   0.102 -0.3009 -0.4937  0.3279
   10CHTO    H1 4195   6.432  11.798   0.177 -0.3137  0.7065 -0.3986
   10CHTO    C3 4196   6.645  11.910   0.161 -0.4995  0.2447 -0.2081
   10CHTO   H16 4197   6.594  11.918   0.258  1.5922  0.3103  0.9247
   10CHTO    N1 4198   6.593  12.023   0.075  0.1949 -0.2088  0.2578
   10CHTO    H8 4199   6.619  12.012  -0.029 -1.0528  0.0116 -0.0885
   10CHTO    H9 4200   6.485  12.018   0.077  0.2665 -1.5805  1.4153
   10CHTO    C4 4201   6.797  11.916   0.199  0.7106 -0.1779 -0.4248
   10CHTO   H17 4202   6.855  11.942   0.111 -0.6432  3.5078 -0.3034
   10CHTO    O1 4203   6.848  11.796   0.252 -0.3941  0.0859  0.4559
   10CHTO    C5 4204   6.830  11.679   0.173  0.1875 -0.3141  0.7860
   10CHTO   H18 4205   6.866  11.699   0.072 -0.9790  0.7377  0.5673
   10CHTO   C16 4206   6.921  11.567   0.243  0.3257 -0.6364 -0.0122
   10CHTO   O11 4207   6.920  11.443   0.169  0.0401  0.1217 -0.0407
   10CHTO    H5 4208   6.937  11.372   0.229 -0.7201  1.7142  2.1102
   10CHTO    O3 4209   6.814  12.019   0.303 -0.1846 -0.0017 -0.4974
   10CHTO    C6 4210   6.934  12.093   0.289 -0.5005  0.3644  0.2819
   10CHTO   H19 4211   7.012  12.046   0.229 -1.4795 -1.2180  0.2304
   10CHTO    C8 4212   6.901  12.240   0.238 -0.2856  0.1483 -0.3227
   10CHTO   H21 4213   6.824  12.281   0.304  0.1521  0.2649  0.1191
   10CHTO    O7 4214   6.850  12.226   0.104 -0.0591  0.2096 -0.0336
   10CHTO    H2 4215   6.812  12.304   0.068 -0.8734 -0.6752 -1.1341
   10CHTO   C12 4216   7.024  12.342   0.236 -0.3494  0.7705  0.2638
   10CHTO   H25 4217   7.101  12.307   0.165 -2.6730  0.2407 -2.0785
   10CHTO    N3 4218   6.990  12.481   0.188  0.3905  0.0592  0.3586
   10CHTO   H12 4219   6.907  12.522   0.244 -0.6904 -1.2172 -0.2926
   10CHTO   H13 4220   7.082  12.538   0.185  0.3479  0.1231  0.2903
   10CHTO   C15 4221   7.083  12.340   0.388 -0.2231  0.5377  0.0115
   10CHTO   H28 4222   7.022  12.395   0.459 -0.1204  2.1792 -1.1282
   10CHTO   O10 4223   7.215  12.394   0.397 -0.1328  0.3034  0.5011
   10CHTO    H4 4224   7.225  12.468   0.340  1.5169 -1.1247 -1.1563
   10CHTO    O5 4225   7.106  12.200   0.430 -0.0152 -0.3167  0.7601
   10CHTO   C10 4226   6.996  12.121   0.432 -0.1178  0.0933  0.2939
   10CHTO   H23 4227   6.916  12.169   0.488 -0.2045 -1.5357  1.5933
   10CHTO   C17 4228   7.034  11.989   0.499 -0.0264  0.2426 -0.1242
   10CHTO   O12 4229   6.932  11.896   0.530  0.5748 -0.1778  0.0642
   10CHTO    H6 4230   6.901  11.851   0.454 -1.0382 -0.0638  0.6336
   11CHTO  H203 4231   6.441   4.651  -0.247 -0.1035 -0.0623 -0.3684
   11CHTO   O82 4232   6.532   4.656  -0.226 -0.2038  0.5574 -0.0413
   11CHTO  C123 4233   6.529   4.736  -0.107  0.6434  0.5924 -0.0252
   11CHTO  H227 4234   6.634   4.759  -0.082  0.9174  1.2480 -1.7463
   11CHTO   O77 4235   6.455   4.863  -0.138  0.2814 -0.6612  0.7769
   11CHTO  C118 4236   6.468   4.956  -0.031  0.0416  0.4859 -0.0715
   11CHTO  H222 4237   6.570   4.990  -0.009 -0.2202  2.2107 -1.3258
   11CHTO  C125 4238   6.399   5.085  -0.087 -0.3071 -0.5958 -0.1568
   11CHTO   O84 4239   6.479   5.131  -0.193 -0.4680 -0.3187 -0.0967
   11CHTO  H205 4240   6.540   5.192  -0.156 -1.6441  1.3239 -0.8027
   11CHTO  C114 4241   6.401   4.906   0.096  0.4375 -0.3614 -0.1911
   11CHTO  H218 4242   6.295   4.898   0.071  0.3635  0.1457 -0.0377
   11CHTO  C116 4243   6.457   4.764   0.142  0.0747 -0.5558  0.2545
   11CHTO  H220 4244   6.551   4.771   0.201 -1.2524  0.6289  2.2931
   11CHTO   O79 4245   6.356   4.717   0.232  0.0474 -0.2534  0.2418
   11CHTO  H201 4246   6.383   4.677   0.313 -0.1464 -0.6518  0.1109
   11CHTO  C120 4247   6.464   4.664   0.019 -0.9399 -0.0401  0.0443
   11CHTO  H224 4248   6.360   4.652  -0.019  0.0783 -1.5533 -2.3743
   11CHTO   N21 4249   6.531   4.537   0.062  0.1848  0.0954 -0.5698
   11CHTO  H211 4250   6.613   4.551   0.131 -0.5369  1.1021  0.0896
   11CHTO  H212 4251   6.560   4.475  -0.022 -1.2750 -0.3897 -0.7230
   11CHTO   O75 4252   6.414   5.023   0.177 -0.7276  0.0597  0.2457
   11CHTO  C112 4253   6.288   5.059   0.299  0.7554 -0.0866 -0.4923
   11CHTO  H216 4254   6.332   5.054   0.399  1.0152 -0.0578 -0.6057
   11CHTO   O73 4255   6.182   4.968   0.282 -0.5542  0.2438  0.0549
   11CHTO  C113 4256   6.072   4.976   0.377  0.1679  0.4934 -1.2709
   11CHTO  H217 4257   6.111   4.978   0.481 -0.3573 -3.0180 -0.9353
   11CHTO  C124 4258   5.988   4.845   0.369 -0.4448 -0.7549 -0.4303
   11CHTO   O83 4259   6.058   4.732   0.427  0.6930  0.5811 -0.2394
   11CHTO  H204 4260   6.016   4.718   0.510 -0.1980  1.7515 -0.4761
   11CHTO  C109 4261   5.994   5.108   0.353  0.3161 -0.1210 -0.4465
   11CHTO  H213 4262   5.939   5.092   0.259 -0.5555  0.1074  0.0166
   11CHTO  C110 4263   6.090   5.233   0.345  0.4344  0.0127  0.8238
   11CHTO  H214 4264   6.108   5.260   0.449  1.9626 -3.4176  1.5308
   11CHTO   O78 4265   6.027   5.337   0.272 -0.3718  0.3790 -0.5046
   11CHTO  H200 4266   5.944   5.374   0.294 -0.6432 -1.6244  2.0759
   11CHTO  C111 4267   6.229   5.205   0.272  0.5809  0.0352 -0.3524
   11CHTO  H215 4268   6.211   5.208   0.164 -1.5352  0.6425 -0.0034
   11CHTO   N19 4269   6.339   5.303   0.299  0.3009  0.6701 -0.2266
   11CHTO  H207 4270   6.406   5.279   0.218  1.0045 -0.3175  0.6325
   11CHTO  H208 4271   6.299   5.403   0.289  1.2581  1.3591  2.4536
   11CHTO   O74 4272   5.897   5.116   0.464 -0.2073 -0.3312 -0.3377
   11CHTO  C115 4273   5.736   5.131   0.436 -0.2292 -0.3715  0.0012
   11CHTO  H219 4274   5.715   5.113   0.331  0.5135 -3.4636  0.3290
   11CHTO   O76 4275   5.657   5.027   0.521  0.2500  0.0977  0.1498
   11CHTO  C122 4276   5.697   5.038   0.655 -0.0204  0.8702  0.0283
   11CHTO  H226 4277   5.794   4.989   0.664 -0.2818 -0.0483 -1.8474
   11CHTO  C126 4278   5.594   4.946   0.735  0.0529  0.4282  0.1870
   11CHTO   O85 4279   5.634   4.931   0.869  0.5688  0.2030 -0.2674
   11CHTO  H206 4280   5.570   4.963   0.929  0.7971 -0.9506  0.6034
   11CHTO  C121 4281   5.710   5.187   0.711  0.0041  0.4412 -0.3608
   11CHTO  H225 4282   5.659   5.200   0.808  1.1027  2.3668 -0.0261
   11CHTO   O81 4283   5.846   5.211   0.730 -0.3831  0.2319  0.4371
   11CHTO  H202 4284   5.859   5.289   0.781 -2.6797  0.6590  0.4281
   11CHTO  C119 4285   5.645   5.292   0.616  0.1097  0.1032 -0.7422
   11CHTO  H223 4286   5.542   5.257   0.605  0.0137  0.1286  0.0438
   11CHTO  C117 4287   5.710   5.280   0.478 -0.3017 -0.1164 -0.1566
   11CHTO  H221 4288   5.802   5.337   0.487 -1.6111  2.5119 -2.5004
   11CHTO   N20 4289   5.630   5.357   0.378 -0.2709 -0.3327  0.4069
   11CHTO  H209 4290   5.522   5.355   0.385 -0.3127  1.4710  0.4815
   11CHTO  H210 4291   5.666   5.362   0.276 -1.3946  0.0352  0.0248
   11CHTO   O80 4292   5.627   5.456   0.674 -0.6206 -0.0352 -0.1718
   11CHTO  C103 4293   5.747   5.524   0.733  0.1822 -0.3280  0.5860
   11CHTO  H190 4294   5.797   5.451   0.797  0.1119 -1.7831 -0.9891
   11CHTO  C101 4295   5.848   5.604   0.639 -1.1031  0.2122 -0.5438
   11CHTO  H188 4296   5.798   5.671   0.568  1.1612  1.5856 -0.9037
   11CHTO   O68 4297   5.935   5.512   0.562  0.1049 -0.5683  0.5031
   11CHTO  H168 4298   5.930   5.420   0.580 -3.2196 -0.3440  0.8954
   11CHTO   C99 4299   5.950   5.697   0.727  0.1222  0.2649  0.1519
   11CHTO  H186 4300   6.012   5.637   0.797 -1.4619  0.0746  1.4157
   11CHTO   N17 4301   6.050   5.774   0.641 -0.3093  0.4896  1.0859
   11CHTO  H174 4302   6.001   5.840   0.571  0.0451  0.9062  1.2261
   11CHTO  H175 4303   6.133   5.813   0.699  0.4715  1.9959 -0.9866
   11CHTO   C97 4304   5.862   5.781   0.813 -0.5941  0.0299  0.5548
   11CHTO  H184 4305   5.803   5.848   0.749  2.3959  1.8675 -0.4141
   11CHTO   O64 4306   5.785   5.700   0.899  0.2970  0.1833 -0.1680
   11CHTO  C104 4307   5.683   5.633   0.827  0.2175 -0.0577 -1.2292
   11CHTO  H191 4308   5.624   5.702   0.766 -1.7435 -1.3632 -0.8645
   11CHTO  C108 4309   5.585   5.574   0.926  0.0048 -0.7984  0.2872
   11CHTO   O71 4310   5.493   5.657   0.994  0.1553  0.2791 -0.2175
   11CHTO  H171 4311   5.440   5.703   0.932 -3.6671 -0.6957  2.1438
   11CHTO   O62 4312   5.942   5.858   0.907  0.4983  0.0338  0.2093
   11CHTO   C91 4313   5.889   5.983   0.946 -0.4025  0.5596  0.1882
   11CHTO  H178 4314   5.783   5.982   0.921 -0.3050  1.4276 -0.2607
   11CHTO   C92 4315   5.964   6.094   0.865  0.4364  0.5270  0.3470
   11CHTO  H179 4316   6.074   6.085   0.862  0.2528 -1.7570 -1.3616
   11CHTO   O66 4317   5.928   6.072   0.724  0.1021  0.2046 -0.8343
   11CHTO  H166 4318   5.836   6.085   0.717 -0.2955 -2.2264 -0.3776
   11CHTO   C93 4319   5.930   6.244   0.911  0.1055  0.5454 -0.3044
   11CHTO  H180 4320   5.825   6.267   0.887 -0.4285 -1.4499  0.0613
   11CHTO   N16 4321   6.009   6.352   0.843  0.6262  0.0011 -0.4997
   11CHTO  H172 4322   6.113   6.346   0.872  0.9495  0.6761 -1.4920
   11CHTO  H173 4323   5.997   6.347   0.736  2.2341 -1.2302 -0.6489
   11CHTO   C94 4324   5.940   6.248   1.069 -0.2789 -0.1027 -0.4405
   11CHTO  H181 4325   6.042   6.231   1.106 -0.7944  0.3646  1.2199
   11CHTO   O61 4326   5.855   6.148   1.125  0.8295  0.4510 -0.4357
   11CHTO   C95 4327   5.902   6.014   1.103  0.6886  0.1709  0.4108
   11CHTO  H182 4328   6.006   6.001   1.134 -0.0008 -0.4502  2.5192
   11CHTO  C106 4329   5.823   5.921   1.200  0.1091 -0.1122 -0.5948
   11CHTO   O69 4330   5.861   5.787   1.187  0.3851 -0.3375 -0.1143
   11CHTO  H169 4331   5.813   5.732   1.245  0.3849  0.5666  0.7651
   11CHTO   O63 4332   5.898   6.400   1.140  0.3052 -0.1186  0.0677
   11CHTO   C96 4333   6.007   6.452   1.261  0.4520 -0.4181 -0.1129
   11CHTO  H183 4334   6.056   6.362   1.296 -1.6770 -0.9731  1.4818
   11CHTO   C98 4335   5.942   6.529   1.381 -0.6161 -0.2602  0.2261
   11CHTO  H185 4336   5.865   6.595   1.337 -1.0094  0.1851  1.5587
   11CHTO   O67 4337   5.873   6.426   1.447  0.3681 -0.1000 -0.1882
   11CHTO  H167 4338   5.809   6.452   1.511  0.6021 -1.4143  0.5913
   11CHTO  C102 4339   6.029   6.613   1.481  0.1084 -0.5571 -0.6878
   11CHTO  H189 4340   6.078   6.537   1.543  1.1145 -0.1030 -0.9041
   11CHTO   N18 4341   5.949   6.695   1.574 -0.9720 -0.4985  0.2078
   11CHTO  H176 4342   5.897   6.773   1.520  0.2202 -0.0065 -0.2342
   11CHTO  H177 4343   5.884   6.640   1.641 -1.3300  1.1338  1.2161
   11CHTO  C105 4344   6.134   6.689   1.389  0.0223 -0.4421 -0.6456
   11CHTO  H192 4345   6.084   6.759   1.322  0.3574 -0.9022 -1.3700
   11CHTO   O65 4346   6.203   6.590   1.305  0.0068  0.1995 -0.3320
   11CHTO  C100 4347   6.130   6.533   1.196  0.5384  0.6059  0.2535
   11CHTO  H187 4348   6.093   6.616   1.134 -0.2552 -0.7916 -1.2087
   11CHTO  C107 4349   6.235   6.441   1.128  0.1349  0.3984 -0.1633
   11CHTO   O70 4350   6.285   6.333   1.214 -0.1751  0.1171  0.1864
   11CHTO  H170 4351   6.218   6.279   1.250 -0.5874 -0.0719 -0.8499
   11CHTO   O57 4352   6.230   6.749   1.468  0.0589  0.4483  0.4518
   11CHTO   C85 4353   6.317   6.854   1.424 -0.4011  0.0441  0.1142
   11CHTO  H157 4354   6.332   6.906   1.521  1.6526 -0.7198  0.2326
   11CHTO   C83 4355   6.258   6.977   1.341  0.2249  0.0415 -0.0180
   11CHTO  H155 4356   6.174   7.015   1.399 -0.2049 -1.7574  0.5841
   11CHTO   O56 4357   6.201   6.942   1.210 -0.1987 -0.2592 -0.4054
   11CHTO  H135 4358   6.159   6.860   1.223  2.8672 -1.6880  0.9466
   11CHTO   C81 4359   6.363   7.094   1.334 -0.0792  0.2245 -0.0175
   11CHTO  H153 4360   6.397   7.114   1.435  0.3840 -0.1816 -0.0867
   11CHTO   N14 4361   6.310   7.221   1.275  0.0377  0.2614  0.3605
   11CHTO  H141 4362   6.203   7.215   1.277  0.0748  0.0857  2.3582
   11CHTO  H142 4363   6.342   7.308   1.327  0.1449  0.0553  0.6435
   11CHTO   C79 4364   6.498   7.035   1.262  0.0639 -0.4586 -0.0141
   11CHTO  H151 4365   6.572   7.114   1.258 -0.7178  0.2516 -0.5801
   11CHTO   O52 4366   6.553   6.918   1.338  0.0900 -0.0725 -0.4493
   11CHTO   C86 4367   6.452   6.813   1.354 -0.9187  0.0262 -0.0281
   11CHTO  H158 4368   6.428   6.774   1.253  0.4510 -0.9519  0.0070
   11CHTO   C90 4369   6.510   6.689   1.427 -0.3215 -0.1240  0.4117
   11CHTO   O60 4370   6.459   6.559   1.391 -0.8401 -0.3176 -0.6586
   11CHTO  H138 4371   6.368   6.551   1.411 -0.6603 -3.4264 -0.8549
   11CHTO   O50 4372   6.477   6.998   1.126 -0.5213  0.4373  0.1477
   11CHTO   C73 4373   6.539   6.994   0.996 -0.1028  0.1206 -0.1900
   11CHTO  H145 4374   6.580   7.092   0.967  3.8034 -1.7927 -1.4400
   11CHTO   C74 4375   6.418   6.955   0.895  0.3082 -0.3416 -0.3129
   11CHTO  H146 4376   6.335   7.023   0.917  2.1624  1.4310  1.4150
   11CHTO   O54 4377   6.462   6.986   0.765  1.1954 -0.8441 -1.0251
   11CHTO  H133 4378   6.462   7.079   0.760  4.4275 -0.4679  2.9766
   11CHTO   C75 4379   6.383   6.804   0.921 -0.3976  0.0108  0.4787
   11CHTO  H147 4380   6.338   6.793   1.021 -1.0485  0.6629  0.2619
   11CHTO   N13 4381   6.282   6.765   0.826 -0.0036  0.1205  0.1706
   11CHTO  H139 4382   6.316   6.778   0.724  1.3851  0.0997  0.6268
   11CHTO  H140 4383   6.192   6.824   0.841  0.5312  0.9358  0.2297
   11CHTO   C76 4384   6.510   6.712   0.914  0.3062  0.4518  0.4789
   11CHTO  H148 4385   6.562   6.732   0.820 -0.2329  2.7631  0.6254
   11CHTO   O49 4386   6.595   6.760   1.019 -0.8777 -0.8319  0.0873
   11CHTO   C77 4387   6.654   6.888   0.997  0.0048  0.0361  0.0984
   11CHTO  H149 4388   6.704   6.888   0.900  2.6172  1.0632  1.4050
   11CHTO   C88 4389   6.770   6.910   1.094  0.0503 -0.2279  0.4815
   11CHTO   O58 4390   6.813   7.076   1.112  0.5538  0.5738  0.0394
   11CHTO  H136 4391   6.867   7.105   1.040  1.1810 -1.6027 -0.4068
   11CHTO   O51 4392   6.476   6.549   0.939 -0.2227  0.8373 -0.1577
   11CHTO   C78 4393   6.576   6.454   0.884 -0.2886  0.7132 -0.9633
   11CHTO  H150 4394   6.659   6.481   0.816  0.7875  1.6957  0.7187
   11CHTO   C80 4395   6.482   6.355   0.812 -0.1275  0.5049  0.2927
   11CHTO  H152 4396   6.402   6.326   0.883  1.3464 -0.0668  1.7645
   11CHTO   O55 4397   6.413   6.430   0.707 -0.2861  0.4708 -0.8681
   11CHTO  H134 4398   6.382   6.381   0.633 -1.1525 -2.7401  1.4959
   11CHTO   C84 4399   6.560   6.229   0.752  0.2050 -0.6458 -0.0866
   11CHTO  H156 4400   6.626   6.258   0.670 -1.3830 -0.5052 -1.3462
   11CHTO   N15 4401   6.466   6.138   0.684 -0.0868 -0.5487 -0.3957
   11CHTO  H143 4402   6.375   6.184   0.652 -0.7030 -0.5024  1.3648
   11CHTO  H144 4403   6.514   6.091   0.601 -0.0374  1.2196 -1.4027
   11CHTO   C87 4404   6.634   6.157   0.866  0.1677  0.0332 -0.0027
   11CHTO  H159 4405   6.566   6.112   0.938  0.1050 -1.3483 -0.9253
   11CHTO   O53 4406   6.726   6.268   0.947 -0.1647  0.1624  0.3666
   11CHTO   C82 4407   6.645   6.374   1.002  0.3664 -0.4773  1.2075
   11CHTO  H154 4408   6.566   6.332   1.065 -1.8433 -0.4135 -1.4330
   11CHTO   C89 4409   6.719   6.478   1.082 -0.3368  0.7426 -0.0480
   11CHTO   O59 4410   6.790   6.419   1.187 -0.0598  0.2979 -0.0432
   11CHTO  H137 4411   6.882   6.439   1.188 -0.2824  1.5396  3.9691
   11CHTO   O45 4412   6.724   6.029   0.821  0.1555 -0.3661 -0.2416
   11CHTO   C67 4413   6.835   6.045   0.732  0.0560  0.5684 -0.3926
   11CHTO  H124 4414   6.805   6.094   0.640  0.0529  1.1838 -0.0695
   11CHTO   C65 4415   6.952   6.126   0.801 -0.1668 -0.0859 -0.4387
   11CHTO  H122 4416   6.922   6.128   0.906 -1.7476 -2.0331 -0.8234
   11CHTO   O44 4417   6.936   6.251   0.745 -0.0674  0.0205  0.2635
   11CHTO  H102 4418   7.004   6.298   0.791 -0.0521 -1.9465  2.3636
   11CHTO   C63 4419   7.087   6.041   0.803  0.1670  0.4201 -1.0505
   11CHTO  H120 4420   7.065   5.959   0.870  1.1030  0.9392 -0.1023
   11CHTO   N11 4421   7.205   6.102   0.877  0.7188  0.1650 -0.2311
   11CHTO  H108 4422   7.190   6.197   0.924  0.5723  1.4776 -2.8036
   11CHTO  H109 4423   7.247   6.025   0.937 -1.2822 -0.4464  0.4134
   11CHTO   C61 4424   7.107   5.997   0.655  0.5513  0.4252 -0.5492
   11CHTO  H118 4425   7.195   5.932   0.652 -0.6347 -1.1884 -0.6114
   11CHTO   O40 4426   7.002   5.921   0.602  0.0756  0.3860 -0.1165
   11CHTO   C68 4427   6.877   5.895   0.682  0.2538 -1.4698 -0.2018
   11CHTO  H125 4428   6.900   5.832   0.771 -1.8226 -1.2469  0.5186
   11CHTO   C72 4429   6.776   5.819   0.591  0.3225 -0.0266  0.3850
   11CHTO   O48 4430   6.651   5.766   0.651 -0.1629  0.1877 -0.2377
   11CHTO  H105 4431   6.610   5.694   0.608 -1.1544  0.6129 -0.0237
   11CHTO   O38 4432   7.138   6.104   0.566 -0.2611  0.1001 -0.4655
   11CHTO   C55 4433   7.214   6.068   0.450  0.4421  0.2574 -0.2050
   11CHTO  H112 4434   7.204   5.960   0.430 -2.1766 -0.0726  2.5019
   11CHTO   C56 4435   7.360   6.110   0.472 -0.2657  0.1272  0.4022
   11CHTO  H113 4436   7.365   6.210   0.517  1.2984  0.6580 -0.9482
   11CHTO   O42 4437   7.420   6.026   0.571  0.3782  0.1330  0.1537
   11CHTO  H100 4438   7.362   5.972   0.622 -0.9632  1.8335  0.4816
   11CHTO   C57 4439   7.422   6.115   0.326 -0.7078  0.1525  0.8958
   11CHTO  H114 4440   7.426   6.010   0.295 -0.4864  0.1731  0.8586
   11CHTO   N10 4441   7.559   6.167   0.326  0.5331 -0.1206  0.3283
   11CHTO  H106 4442   7.626   6.082   0.324  2.0705  1.0964 -0.7188
   11CHTO  H107 4443   7.572   6.228   0.239  0.9724  1.9085  1.7870
   11CHTO   C58 4444   7.336   6.183   0.212  0.7058  0.0030 -0.6193
   11CHTO  H115 4445   7.332   6.291   0.236  0.5400 -0.9501  4.0221
   11CHTO   O37 4446   7.203   6.124   0.208 -0.4117  0.4181  0.0497
   11CHTO   C59 4447   7.150   6.144   0.333 -0.1080 -0.2713  0.0730
   11CHTO  H116 4448   7.128   6.246   0.362 -0.7165 -0.2796 -0.3670
   11CHTO   C70 4449   7.000   6.103   0.331  0.1336 -0.0988  0.2904
   11CHTO   O46 4450   6.961   5.972   0.295  0.1501 -0.4195  0.3215
   11CHTO  H103 4451   6.909   5.922   0.356  0.1820 -3.5189 -2.0307
   11CHTO   O39 4452   7.410   6.164   0.063 -0.5567  0.0863 -0.4538
   11CHTO   C60 4453   7.325   6.179  -0.052  0.3085 -0.6512  0.4186
   11CHTO  H117 4454   7.233   6.120  -0.049 -0.4055  0.4170 -0.1394
   11CHTO   C62 4455   7.266   6.325  -0.089 -0.1425 -0.4582 -0.3106
   11CHTO  H119 4456   7.185   6.351  -0.017 -0.4037  3.1829 -1.8002
   11CHTO   O43 4457   7.370   6.428  -0.083  0.3638  0.0641 -0.1586
   11CHTO  H101 4458   7.357   6.482  -0.007 -0.7072 -2.1883  1.3006
   11CHTO   C66 4459   7.180   6.329  -0.225  0.4620  0.4592  0.3166
   11CHTO  H123 4460   7.115   6.243  -0.237  0.8866  0.1726  0.0149
   11CHTO   N12 4461   7.095   6.447  -0.243 -0.5202  0.6299 -1.0153
   11CHTO  H110 4462   7.039   6.462  -0.152 -0.7504 -0.3076 -0.9920
   11CHTO  H111 4463   7.036   6.432  -0.332 -0.5997 -1.3118 -0.6703
   11CHTO   C69 4464   7.277   6.299  -0.339 -0.7604  0.0441  0.2356
   11CHTO  H126 4465   7.366   6.365  -0.338 -0.9006  0.2281  0.7459
   11CHTO   O41 4466   7.329   6.143  -0.306 -0.2990  0.0822  0.2950
   11CHTO   C64 4467   7.405   6.128  -0.181 -0.0905  0.0979 -0.7169
   11CHTO  H121 4468   7.503   6.180  -0.188 -0.7651  1.4232 -0.4584
   11CHTO   C71 4469   7.441   5.979  -0.160 -0.7795  0.5345  0.4519
   11CHTO   O47 4470   7.329   5.904  -0.184 -0.4906  0.1287 -0.2626
   11CHTO  H104 4471   7.270   5.924  -0.113 -0.1289  0.3376 -0.0214
   11CHTO   O34 4472   7.203   6.309  -0.482 -0.0910  0.1890 -0.0465
   11CHTO   C49 4473   7.170   6.234  -0.601 -0.5955  0.3322 -0.1105
   11CHTO   H91 4474   7.266   6.201  -0.640 -0.4503 -3.1825  2.8833
   11CHTO   C47 4475   7.096   6.322  -0.700  0.1680  0.6126  0.2193
   11CHTO   H89 4476   7.087   6.259  -0.790 -0.8822  1.5974 -0.3826
   11CHTO   O33 4477   7.173   6.435  -0.734 -0.2473 -0.2179 -0.3605
   11CHTO   H70 4478   7.122   6.514  -0.732  0.9756  0.5618  1.1731
   11CHTO   C45 4479   6.944   6.353  -0.652  0.0080  0.3956 -0.3293
   11CHTO   H87 4480   6.944   6.444  -0.591 -0.7823  0.8108 -0.9404
   11CHTO    N8 4481   6.853   6.381  -0.767  0.6525  0.6992 -0.5940
   11CHTO   H75 4482   6.844   6.299  -0.837 -4.5897 -0.6668  1.4332
   11CHTO   H76 4483   6.893   6.469  -0.814  0.3668  0.5878 -1.0478
   11CHTO   C43 4484   6.889   6.233  -0.559 -0.2895  0.4153  0.2209
   11CHTO   H85 4485   6.926   6.251  -0.458  0.1636 -0.3100  0.1951
   11CHTO   O29 4486   6.948   6.116  -0.620  0.2757  0.8899  0.0771
   11CHTO   C50 4487   7.081   6.104  -0.571  0.0574  0.3142  0.2846
   11CHTO   H92 4488   7.092   6.088  -0.463 -0.2849 -0.0775  0.2657
   11CHTO   C54 4489   7.160   5.981  -0.634  0.0559  0.7741  0.2840
   11CHTO   O36 4490   7.169   5.985  -0.774  0.5806  0.1914 -0.1081
   11CHTO   H72 4491   7.235   5.924  -0.801 -1.8402 -1.3492 -2.7592
   11CHTO   O27 4492   6.749   6.219  -0.544  0.0387  0.2898  0.1221
   11CHTO   C37 4493   6.670   6.138  -0.444 -0.1140 -0.9433 -0.4880
   11CHTO   H79 4494   6.737   6.087  -0.374  0.8530  2.1958  0.9285
   11CHTO   C38 4495   6.599   6.233  -0.341 -0.2344  0.0320  0.3749
   11CHTO   H80 4496   6.532   6.303  -0.393 -0.9381  1.0725  2.5961
   11CHTO   O31 4497   6.703   6.308  -0.275 -0.5767  0.5141 -0.2604
   11CHTO   H68 4498   6.663   6.388  -0.246  0.9732  1.5150 -0.8306
   11CHTO   C39 4499   6.514   6.151  -0.242  0.1693 -0.0127 -0.3771
   11CHTO   H81 4500   6.577   6.087  -0.181 -0.0666 -0.8962 -1.0483
   11CHTO    N7 4501   6.435   6.232  -0.143  0.8237  0.2432  0.0079
   11CHTO   H73 4502   6.502   6.302  -0.096  1.6603 -0.1001 -0.6470
   11CHTO   H74 4503   6.345   6.275  -0.185 -0.3628 -1.8006  0.4070
   11CHTO   C40 4504   6.423   6.049  -0.319 -0.0802  0.3451 -0.6653
   11CHTO   H82 4505   6.348   6.100  -0.379 -1.3760  0.3974  0.9366
   11CHTO   O26 4506   6.505   5.960  -0.393  0.6036  0.6114 -0.0536
   11CHTO   C41 4507   6.573   6.029  -0.501 -0.6336 -0.2299 -0.1648
   11CHTO   H83 4508   6.507   6.074  -0.577  0.6316  0.2506 -0.9918
   11CHTO   C52 4509   6.662   5.929  -0.572  0.0029 -0.1163 -0.5157
   11CHTO   O35 4510   6.713   5.982  -0.712 -0.2502  0.8229 -0.2622
   11CHTO   H71 4511   6.796   6.024  -0.698  0.8426 -0.9621 -1.2823
   11CHTO   O28 4512   6.350   5.959  -0.231  0.8131  0.4532 -0.3987
   11CHTO   C42 4513   6.257   5.859  -0.282  0.2041  0.8428  0.6383
   11CHTO   H84 4514   6.291   5.843  -0.384  1.3682  1.3858  0.9295
   11CHTO   C44 4515   6.112   5.901  -0.297  0.6576 -0.2988  0.3787
   11CHTO   H86 4516   6.084   5.941  -0.199  0.1394 -1.5676  0.7634
   11CHTO   O32 4517   6.108   6.003  -0.394  0.4799  0.2325 -0.3896
   11CHTO   H69 4518   6.162   6.078  -0.379 -0.3765  0.6753  0.5863
   11CHTO   C48 4519   6.013   5.780  -0.332 -0.2008 -0.0296  0.0332
   11CHTO   H90 4520   6.023   5.740  -0.433 -1.7170 -1.6401  0.4924
   11CHTO    N9 4521   5.866   5.816  -0.331 -0.2068 -0.0070  0.6431
   11CHTO   H77 4522   5.842   5.851  -0.431  1.3122  0.2142  0.3435
   11CHTO   H78 4523   5.835   5.880  -0.250 -1.8073 -0.0276  0.0835
   11CHTO   C51 4524   6.036   5.659  -0.240  0.1364  0.1751 -1.0250
   11CHTO   H93 4525   6.009   5.687  -0.138  1.7075  0.0504 -0.5579
   11CHTO   O30 4526   6.181   5.625  -0.250  0.6803 -0.5895  0.0463
   11CHTO   C46 4527   6.279   5.724  -0.205  0.3644  0.0556  0.3388
   11CHTO   H88 4528   6.263   5.743  -0.098  0.4090 -0.6013  0.4622
   11CHTO   C53 4529   6.420   5.667  -0.235 -0.0906  0.4174  0.6667
   11CHTO   O72 4530   6.430   5.535  -0.178  0.0429  0.6473 -0.5928
   11CHTO  H199 4531   6.478   5.483  -0.240  0.0651  1.1467 -1.0015
   11CHTO   O22 4532   5.961   5.546  -0.290  0.5024  0.3470 -0.4267
   11CHTO   C31 4533   5.950   5.429  -0.204  0.2567 -0.9010  0.2775
   11CHTO   H59 4534   6.014   5.449  -0.115 -0.6139 -0.2649  0.7710
   11CHTO   C29 4535   5.812   5.411  -0.155 -0.9216 -0.0694  0.0559
   11CHTO   H57 4536   5.740   5.390  -0.236 -2.8458 -0.2799  1.7662
   11CHTO   O21 4537   5.762   5.540  -0.106 -0.4225 -0.1363  0.4194
   11CHTO   H37 4538   5.815   5.584  -0.042 -1.0574  1.5427 -0.1832
   11CHTO   C27 4539   5.803   5.297  -0.051 -0.3263 -0.3370 -0.6135
   11CHTO   H55 4540   5.870   5.326   0.031 -1.2367  1.6200 -0.5334
   11CHTO    N5 4541   5.670   5.275  -0.000 -0.6472  0.7104  0.2181
   11CHTO   H43 4542   5.653   5.331   0.091  0.3786 -1.9317  2.0925
   11CHTO   H44 4543   5.656   5.171   0.023 -2.2125  1.2764  1.9540
   11CHTO   C25 4544   5.872   5.167  -0.108 -0.3418  0.0247  0.0498
   11CHTO   H53 4545   5.811   5.122  -0.187 -1.8474 -1.7615  2.1693
   11CHTO   O17 4546   6.007   5.200  -0.162 -0.2081  0.0895  0.3213
   11CHTO   C32 4547   6.002   5.297  -0.270 -0.0325 -0.2424 -0.7718
   11CHTO   H60 4548   5.933   5.254  -0.343  0.1465 -1.2268 -0.3738
   11CHTO   C36 4549   6.143   5.295  -0.333  0.3287 -0.6294  0.1117
   11CHTO   O25 4550   6.144   5.360  -0.458 -0.2154  0.4774  0.7849
   11CHTO   H40 4551   6.207   5.311  -0.508 -1.9772 -1.3710  0.3116
   11CHTO   O15 4552   5.907   5.055   0.012  0.4349 -0.0299 -0.1350
   11CHTO   C19 4553   5.856   4.922  -0.011 -0.0203  0.3200  0.1622
   11CHTO   H47 4554   5.909   4.858   0.061  1.8735  0.4854 -1.0501
   11CHTO   C20 4555   5.709   4.890   0.022  0.0616  0.0467 -0.2301
   11CHTO   H48 4556   5.639   4.958  -0.027 -0.5361 -0.1696  0.3200
   11CHTO   O19 4557   5.701   4.889   0.168  0.7763 -0.4353 -0.3130
   11CHTO   H35 4558   5.724   4.806   0.206 -1.1986 -1.0711 -0.4408
   11CHTO   C21 4559   5.665   4.747  -0.028  0.6724 -0.6570 -0.8042
   11CHTO   H49 4560   5.723   4.670   0.023  1.7428  0.9209  0.4170
   11CHTO    N4 4561   5.520   4.718  -0.012  0.4584 -0.9864  0.0611
   11CHTO   H41 4562   5.483   4.696  -0.111 -0.8862  0.6575  0.1864
   11CHTO   H42 4563   5.489   4.636   0.052  2.9473 -0.3218  2.2220
   11CHTO   C22 4564   5.705   4.730  -0.176  0.6283  0.2495  0.6998
   11CHTO   H50 4565   5.662   4.816  -0.228  1.4725 -0.5370 -1.3796
   11CHTO   O14 4566   5.845   4.743  -0.186  0.3097 -0.2874 -0.3644
   11CHTO   C23 4567   5.900   4.870  -0.156 -0.2094 -0.0207 -0.4609
   11CHTO   H51 4568   5.862   4.935  -0.236 -1.2891 -0.0251  0.0539
   11CHTO   C34 4569   6.054   4.867  -0.175 -0.4100  0.7832 -0.7901
   11CHTO   O23 4570   6.094   4.881  -0.308  0.0219  0.0808 -0.0889
   11CHTO   H38 4571   6.184   4.907  -0.314 -0.3487  1.5297  0.3271
   11CHTO   O16 4572   5.681   4.599  -0.240  0.0087 -0.5009 -0.6506
   11CHTO   C24 4573   5.634   4.627  -0.399 -0.2424  1.0865  0.5648
   11CHTO   H52 4574   5.644   4.731  -0.429 -0.6447  0.9451 -0.0719
   11CHTO   C26 4575   5.492   4.588  -0.426  0.2186 -0.7427  0.2601
   11CHTO   H54 4576   5.480   4.479  -0.412 -0.5309 -0.7512 -0.4577
   11CHTO   O20 4577   5.417   4.659  -0.328 -0.4070  0.0481 -0.6064
   11CHTO   H36 4578   5.395   4.746  -0.356  1.4128 -0.1354 -2.7375
   11CHTO   C30 4579   5.452   4.620  -0.573 -0.3670  0.1735 -0.1290
   11CHTO   H58 4580   5.448   4.730  -0.579  2.6753  0.3730  0.5674
   11CHTO    N6 4581   5.315   4.571  -0.603  0.4537 -0.3984  0.0735
   11CHTO   H45 4582   5.275   4.579  -0.703  1.0803  1.0045 -0.0748
   11CHTO   H46 4583   5.248   4.621  -0.533  0.3223 -1.1647  0.4977
   11CHTO   C33 4584   5.558   4.562  -0.673  0.2892 -0.1804  0.4924
   11CHTO   H61 4585   5.552   4.452  -0.673  0.4367 -0.1875  0.3911
   11CHTO   O18 4586   5.687   4.586  -0.626  0.6812  0.3350  0.6754
   11CHTO   C28 4587   5.727   4.547  -0.491 -0.4981  0.5403  0.5015
   11CHTO   H56 4588   5.712   4.440  -0.477  1.0999  0.2262 -0.0916
   11CHTO   C35 4589   5.870   4.593  -0.482  0.0813 -0.2577  0.2373
   11CHTO   O24 4590   5.935   4.535  -0.370  0.4373 -0.0519 -0.0729
   11CHTO   H39 4591   6.027   4.553  -0.363  0.5627 -0.1852 -1.2391
   11CHTO    O9 4592   5.545   4.596  -0.812 -0.1307  0.5113  0.3838
   11CHTO   C13 4593   5.566   4.744  -0.844  0.3143 -0.0609  0.1101
   11CHTO   H26 4594   5.556   4.792  -0.745 -0.1065  1.9007 -0.8558
   11CHTO   C11 4595   5.446   4.782  -0.942 -0.6597 -0.1952 -0.6432
   11CHTO   H24 4596   5.349   4.762  -0.894  0.3510  1.3018  2.1275
   11CHTO    O8 4597   5.454   4.708  -1.065  0.4663 -0.3793 -0.1854
   11CHTO    H3 4598   5.444   4.615  -1.057 -0.6798 -0.3113 -0.6025
   11CHTO    C9 4599   5.457   4.936  -0.966 -0.8493 -0.6188  0.8433
   11CHTO   H22 4600   5.439   4.983  -0.868  0.8687  1.0158  0.4218
   11CHTO    N2 4601   5.347   4.992  -1.048 -0.2763 -0.3494 -0.1689
   11CHTO   H10 4602   5.376   5.063  -1.124 -1.3227  1.1263  0.7914
   11CHTO   H11 4603   5.266   4.924  -1.073 -3.0180  2.6237  0.2601
   11CHTO    C7 4604   5.608   4.986  -1.001  0.1522 -0.4613 -0.3798
   11CHTO   H20 4605   5.634   5.036  -0.905  1.6279  0.6296 -1.3227
   11CHTO    O4 4606   5.685   4.867  -1.021  0.0193 -0.1849 -0.1330
   11CHTO   C14 4607   5.708   4.799  -0.899  0.2087  0.3961 -0.0481
   11CHTO   H27 4608   5.752   4.866  -0.823 -1.3062  1.1135  0.2144
   11CHTO   C18 4609   5.829   4.695  -0.928  0.1082 -0.3492 -0.4016
   11CHTO   O13 4610   5.873   4.606  -0.824 -0.7716 -0.8006  0.0796
   11CHTO    H7 4611   5.804   4.555  -0.786 -0.2959 -0.7031  1.0946
   11CHTO    O2 4612   5.624   5.071  -1.126  0.8038  0.2972 -0.0329
   11CHTO    C1 4613   5.754   5.133  -1.146 -0.3208 -0.0657 -0.1502
   11CHTO   H14 4614   5.841   5.068  -1.121  0.3966  1.2465  0.8656
   11CHTO    C2 4615   5.765   5.272  -1.065 -0.3736  0.1169  0.0894
   11CHTO   H15 4616   5.673   5.330  -1.084 -1.1977 -0.7141  1.4923
   11CHTO    O6 4617   5.774   5.252  -0.926  0.0431  0.1028 -0.5390
   11CHTO    H1 4618   5.860   5.225  -0.901 -0.6432 -0.6257  1.1074
   11CHTO    C3 4619   5.896   5.356  -1.124  0.3876 -1.0194 -0.4820
   11CHTO   H16 4620   5.986   5.305  -1.087  0.1818 -1.9145 -1.2083
   11CHTO    N1 4621   5.904   5.495  -1.069  0.2188  0.4736 -0.0201
   11CHTO    H8 4622   5.806   5.540  -1.065 -0.9113 -1.8772 -0.7612
   11CHTO    H9 4623   5.966   5.555  -1.134 -0.6965 -0.2160 -1.5647
   11CHTO    C4 4624   5.907   5.360  -1.277 -0.7152  0.0290  0.0923
   11CHTO   H17 4625   5.828   5.422  -1.319 -0.4086 -0.0618 -0.6224
   11CHTO    O1 4626   5.892   5.226  -1.331 -0.3787  0.2502  0.4643
   11CHTO    C5 4627   5.768   5.155  -1.302 -0.1988  0.3159 -0.5089
   11CHTO   H18 4628   5.689   5.224  -1.333  0.7507  0.5708 -2.4236
   11CHTO   C16 4629   5.772   5.026  -1.387  0.1374 -0.1052 -0.1187
   11CHTO   O11 4630   5.893   4.946  -1.370  0.2560 -0.0946  0.2298
   11CHTO    H5 4631   5.872   4.867  -1.417 -1.4613  0.1908  0.5006
   11CHTO    O3 4632   6.032   5.421  -1.313 -0.1976  0.0311 -0.0527
   11CHTO    C6 4633   6.075   5.447  -1.454 -0.0882 -0.1213  0.1032
   11CHTO   H19 4634   6.022   5.387  -1.529  0.9931 -1.5399  0.4330
   11CHTO    C8 4635   6.055   5.593  -1.489 -0.4051  0.4143  0.1096
   11CHTO   H21 4636   6.118   5.657  -1.427  1.8347  1.8760 -3.4857
   11CHTO    O7 4637   5.912   5.628  -1.486  0.0788 -0.0897  0.0889
   11CHTO    H2 4638   5.862   5.549  -1.488 -0.8294  0.4401  0.9801
   11CHTO   C12 4639   6.120   5.631  -1.629  0.2756 -0.2188  0.2615
   11CHTO   H25 4640   6.067   5.568  -1.704  1.8872 -1.0473 -0.2039
   11CHTO    N3 4641   6.103   5.777  -1.670 -0.3051 -0.6271  0.1071
   11CHTO   H12 4642   6.135   5.855  -1.601 -2.5877 -0.2089  0.7298
   11CHTO   H13 4643   6.002   5.796  -1.702 -0.1236  0.3814  0.1016
   11CHTO   C15 4644   6.273   5.595  -1.622 -0.1919  0.4058 -0.1495
   11CHTO   H28 4645   6.321   5.658  -1.546 -1.5969  2.5791 -1.0268
   11CHTO   O10 4646   6.346   5.609  -1.764 -0.2228  0.0882 -0.4232
   11CHTO    H4 4647   6.285   5.570  -1.823  0.1465 -1.1791  0.0286
   11CHTO    O5 4648   6.291   5.449  -1.594  0.1750 -0.0681  0.1971
   11CHTO   C10 4649   6.226   5.410  -1.473  0.6842 -0.3530  0.2690
   11CHTO   H23 4650   6.285   5.460  -1.396  0.5683  0.3086 -0.0617
   11CHTO   C17 4651   6.247   5.261  -1.462 -0.0735  0.8178  0.3868
   11CHTO   O12 4652   6.377   5.239  -1.401  0.5682  0.1268  0.6141
   11CHTO    H6 4653   6.438   5.198  -1.459 -1.1159 -0.8614 -0.5135
   12CHTO  H203 4654   5.215  12.344   5.179  0.5570 -0.5010 -0.1120
   12CHTO   O82 4655   5.162  12.271   5.151  0.0927 -0.1914 -0.0486
   12CHTO  C123 4656   5.236  12.156   5.185 -0.0481 -0.8091 -0.1243
   12CHTO  H227 4657   5.174  12.065   5.189  0.8818 -1.3576  2.4231
   12CHTO   O77 4658   5.322  12.142   5.073 -0.4980 -0.0724  0.4428
   12CHTO  C118 4659   5.392  12.019   5.062  0.3820 -0.2762  0.2820
   12CHTO  H222 4660   5.320  11.936   5.055 -2.3882  2.0800  0.2348
   12CHTO  C125 4661   5.474  12.024   4.930  0.6647  0.0591 -0.2060
   12CHTO   O84 4662   5.561  12.138   4.929  0.4299 -0.0509  0.0782
   12CHTO  H205 4663   5.623  12.132   4.999 -0.2744 -0.8587  0.6540
   12CHTO  C114 4664   5.482  11.996   5.185  0.1935 -0.1718 -0.3500
   12CHTO  H218 4665   5.558  12.075   5.188  1.3551 -1.2996  1.4599
   12CHTO  C116 4666   5.407  12.036   5.321  0.0759  0.8764  0.3792
   12CHTO  H220 4667   5.340  11.952   5.349  1.4752 -0.7517 -1.0255
   12CHTO   O79 4668   5.505  12.044   5.426 -0.0293 -0.3035  0.6080
   12CHTO  H201 4669   5.558  12.120   5.416 -1.8312  1.0493  1.1663
   12CHTO  C120 4670   5.326  12.172   5.316  0.3398  0.5418 -0.2102
   12CHTO  H224 4671   5.400  12.254   5.313  1.5217 -0.4670  0.8804
   12CHTO   N21 4672   5.248  12.188   5.441  0.0498  1.1034 -0.3354
   12CHTO  H211 4673   5.161  12.246   5.418 -0.3059  0.4607 -0.6222
   12CHTO  H212 4674   5.314  12.229   5.516  0.2534  0.6827 -0.2815
   12CHTO   O75 4675   5.539  11.864   5.175  0.2086  0.6442  0.8050
   12CHTO  C112 4676   5.457  11.746   5.228  0.6671  0.1145  0.2077
   12CHTO  H216 4677   5.349  11.761   5.212  0.6226 -0.6174 -0.1847
   12CHTO   O73 4678   5.490  11.730   5.365 -0.4291  0.2429 -0.7899
   12CHTO  C113 4679   5.423  11.624   5.441  0.7928  0.0836 -0.2099
   12CHTO  H217 4680   5.314  11.636   5.431  0.8250 -0.3067 -1.0936
   12CHTO  C124 4681   5.463  11.629   5.590 -0.3839 -0.0413 -0.0541
   12CHTO   O83 4682   5.376  11.718   5.659 -0.5494  0.2550 -0.8572
   12CHTO  H204 4683   5.321  11.668   5.717 -1.0119 -0.1917 -1.6798
   12CHTO  C109 4684   5.459  11.487   5.375  0.1788 -0.3765 -0.3491
   12CHTO  H213 4685   5.567  11.470   5.386  0.2180 -1.2044 -1.8360
   12CHTO  C110 4686   5.416  11.497   5.222 -1.3488  0.2887  0.5776
   12CHTO  H214 4687   5.309  11.516   5.223 -1.3324  0.3680  1.0018
   12CHTO   O78 4688   5.439  11.371   5.156  0.2491  0.4877  0.4622
   12CHTO  H200 4689   5.527  11.363   5.125 -0.5224  0.7462 -1.8899
   12CHTO  C111 4690   5.488  11.617   5.148  0.0472  0.2559  0.9271
   12CHTO  H215 4691   5.597  11.604   5.150  0.2917  1.7537 -0.7232
   12CHTO   N19 4692   5.450  11.625   4.999  0.1286 -0.5243  1.6347
   12CHTO  H207 4693   5.365  11.561   4.982  0.4908 -0.9808  1.5219
   12CHTO  H208 4694   5.539  11.604   4.941 -1.1839  0.5990 -0.7981
   12CHTO   O74 4695   5.376  11.381   5.433  0.4658  0.5279  0.0763
   12CHTO  C115 4696   5.467  11.283   5.525  0.0014 -0.6243  0.7003
   12CHTO  H219 4697   5.547  11.340   5.573  0.1919  0.7736 -1.2111
   12CHTO   O76 4698   5.388  11.230   5.646  0.2197  0.3248 -0.0502
   12CHTO  C122 4699   5.285  11.128   5.631  0.0196  0.1214  0.4736
   12CHTO  H226 4700   5.196  11.190   5.622  1.7240  2.3169 -2.1413
   12CHTO  C126 4701   5.275  11.054   5.764 -0.5436 -0.2903  0.2432
   12CHTO   O85 4702   5.255  11.139   5.881  0.8902  0.0747 -0.0024
   12CHTO  H206 4703   5.170  11.179   5.880  1.4860  1.3727  0.8438
   12CHTO  C121 4704   5.306  11.037   5.507 -0.3968 -0.1235  0.3844
   12CHTO  H225 4705   5.277  10.931   5.523 -4.1933  0.7489 -0.1164
   12CHTO   O81 4706   5.216  11.072   5.397 -0.2704 -0.0681 -0.3193
   12CHTO  H202 4707   5.150  11.007   5.389  1.5639 -1.8854 -1.1800
   12CHTO  C119 4708   5.452  11.026   5.460  0.8161  0.0346 -0.7778
   12CHTO  H223 4709   5.503  10.988   5.548  0.6524 -0.7286 -1.0142
   12CHTO  C117 4710   5.512  11.164   5.429  0.0924 -0.2630  0.2589
   12CHTO  H221 4711   5.493  11.198   5.327  0.6328  1.4418  0.7084
   12CHTO   N20 4712   5.663  11.152   5.437 -0.2819  0.1378 -0.3973
   12CHTO  H209 4713   5.689  11.136   5.540 -0.3322  0.8418 -0.2765
   12CHTO  H210 4714   5.711  11.083   5.369 -0.7543 -0.4639 -0.1181
   12CHTO   O80 4715   5.487  10.910   5.345  0.5432  0.2301  0.5812
   12CHTO  C103 4716   5.446  10.752   5.373  0.4194  0.3302 -0.7075
   12CHTO  H190 4717   5.451  10.720   5.477  0.8380  0.6483 -0.6289
   12CHTO  C101 4718   5.321  10.699   5.313 -0.4701 -0.3108  0.2972
   12CHTO  H188 4719   5.302  10.742   5.215 -0.3904 -1.5962 -0.2923
   12CHTO   O68 4720   5.197  10.751   5.405 -0.3332  0.4861 -0.4687
   12CHTO  H168 4721   5.182  10.691   5.475  0.8044  0.3510 -0.3334
   12CHTO   C99 4722   5.316  10.534   5.296 -0.1051 -0.1089 -0.4978
   12CHTO  H186 4723   5.317  10.497   5.401 -0.3926  0.1706 -0.3981
   12CHTO   N17 4724   5.186  10.489   5.230  0.3704 -0.0702 -0.2015
   12CHTO  H174 4725   5.126  10.577   5.246 -0.8746 -0.8131 -0.7544
   12CHTO  H175 4726   5.199  10.473   5.123  1.3394  1.6508 -0.3626
   12CHTO   C97 4727   5.443  10.474   5.233 -0.6543  0.1840 -0.0454
   12CHTO  H184 4728   5.437  10.507   5.128 -0.6159 -1.2067 -0.4845
   12CHTO   O64 4729   5.562  10.530   5.302  0.1215  0.4626  0.0355
   12CHTO  C104 4730   5.570  10.673   5.295  0.7135  0.8727 -0.6420
   12CHTO  H191 4731   5.562  10.703   5.191  0.2841 -0.4879 -1.0059
   12CHTO  C108 4732   5.706  10.715   5.343 -0.4261  0.3644  0.5955
   12CHTO   O71 4733   5.742  10.851   5.317 -0.4539 -0.3084  0.2869
   12CHTO  H171 4734   5.832  10.857   5.291  0.0178 -1.3021  1.6447
   12CHTO   O62 4735   5.457  10.333   5.253 -0.5834  0.7401 -0.2550
   12CHTO   C91 4736   5.507  10.252   5.151  0.4120 -0.6463 -0.0087
   12CHTO  H178 4737   5.582  10.307   5.094  1.6798 -0.2589  1.9560
   12CHTO   C92 4738   5.400  10.207   5.052 -0.5061  0.2198 -0.5328
   12CHTO  H179 4739   5.308  10.181   5.106 -0.9629  0.3553 -1.2340
   12CHTO   O66 4740   5.368  10.321   4.984 -0.2117  0.0557  0.2183
   12CHTO  H166 4741   5.299  10.373   5.020 -0.9279 -0.2087 -0.7690
   12CHTO   C93 4742   5.444  10.098   4.950 -1.7872 -0.5477 -0.8211
   12CHTO  H180 4743   5.503  10.143   4.869  0.0235  0.4345  0.9909
   12CHTO   N16 4744   5.329  10.045   4.872 -0.1489  0.1253  0.0729
   12CHTO  H172 4745   5.298  10.119   4.800 -1.0176 -0.4367 -0.1254
   12CHTO  H173 4746   5.353   9.952   4.823  0.1555 -0.3115  1.0335
   12CHTO   C94 4747   5.534   9.983   5.022 -0.3961 -0.2216 -0.2551
   12CHTO  H181 4748   5.471   9.917   5.082  0.3777 -0.3135  0.4575
   12CHTO   O61 4749   5.642  10.043   5.099 -0.1181 -0.3123 -0.4187
   12CHTO   C95 4750   5.590  10.135   5.200 -0.6811  1.4836  0.0313
   12CHTO  H182 4751   5.527  10.077   5.268 -1.0360  1.3055 -0.4439
   12CHTO  C106 4752   5.719  10.180   5.275 -0.0973  0.3835  0.0350
   12CHTO   O69 4753   5.762  10.085   5.367 -0.2787 -0.3878 -0.1919
   12CHTO  H169 4754   5.813  10.015   5.332 -1.5694 -1.4651  0.0271
   12CHTO   O63 4755   5.586   9.890   4.886 -0.0939  0.3232  0.4938
   12CHTO   C96 4756   5.669   9.760   4.948  0.2821 -0.8608 -0.4616
   12CHTO  H183 4757   5.668   9.760   5.057 -2.9397  0.0036 -0.4293
   12CHTO   C98 4758   5.817   9.757   4.892  0.1976 -0.1067  0.0668
   12CHTO  H185 4759   5.817   9.758   4.782  0.7646 -0.5941  0.0619
   12CHTO   O67 4760   5.875   9.876   4.927  0.1235 -0.4235 -0.0331
   12CHTO  H167 4761   5.966   9.864   4.947  0.2318  0.3590 -0.0385
   12CHTO  C102 4762   5.892   9.625   4.934  1.1047 -0.0272  0.2696
   12CHTO  H189 4763   5.915   9.639   5.041 -0.9840  0.9126  0.6460
   12CHTO   N18 4764   6.019   9.616   4.860 -0.1082 -0.3757 -0.4311
   12CHTO  H176 4765   6.017   9.673   4.768 -0.6757  1.7212  0.8486
   12CHTO  H177 4766   6.052   9.513   4.850  0.0664 -0.4036  0.4046
   12CHTO  C105 4767   5.804   9.501   4.915 -0.0527 -0.2061 -0.2161
   12CHTO  H192 4768   5.848   9.420   4.856  1.1546 -0.7173  1.3339
   12CHTO   O65 4769   5.679   9.525   4.849  0.3844  0.3611 -0.0435
   12CHTO  C100 4770   5.590   9.632   4.893 -0.6751  0.6687  0.3738
   12CHTO  H187 4771   5.536   9.660   4.801  0.6400  2.4260  0.0942
   12CHTO  C107 4772   5.472   9.569   4.984 -0.3292 -0.2008  0.0916
   12CHTO   O70 4773   5.397   9.473   4.906  0.4384 -0.1565  0.3138
   12CHTO  H170 4774   5.381   9.499   4.818 -0.7117 -0.6263  0.3887
   12CHTO   O57 4775   5.794   9.453   5.060 -0.2396  0.6834  0.4022
   12CHTO   C85 4776   5.754   9.319   5.093  0.0828  0.5788 -0.0223
   12CHTO  H157 4777   5.685   9.281   5.016 -0.8436  0.6707  0.7572
   12CHTO   C83 4778   5.666   9.321   5.214  0.1011 -0.1153 -0.6535
   12CHTO  H155 4779   5.577   9.375   5.183 -0.9995 -1.8113 -0.5755
   12CHTO   O56 4780   5.729   9.393   5.320 -0.1717  0.6665  0.1214
   12CHTO  H135 4781   5.676   9.403   5.397  1.4699  0.9928  1.2132
   12CHTO   C81 4782   5.628   9.175   5.247  0.8726  0.3200 -0.5942
   12CHTO  H153 4783   5.592   9.125   5.157 -0.2785 -2.3775  1.2899
   12CHTO   N14 4784   5.510   9.173   5.338  0.0485 -0.2374 -0.2449
   12CHTO  H141 4785   5.528   9.221   5.432  0.1670 -3.4528  1.4575
   12CHTO  H142 4786   5.469   9.077   5.363  0.2014  0.6279  3.6801
   12CHTO   C79 4787   5.748   9.096   5.296 -0.7092 -0.1346  0.8917
   12CHTO  H151 4788   5.715   8.994   5.318  0.6752 -0.9223 -0.5923
   12CHTO   O52 4789   5.841   9.089   5.186 -0.1518  0.9202 -0.0884
   12CHTO   C86 4790   5.879   9.215   5.119 -0.2265  0.0633  0.2559
   12CHTO  H158 4791   5.952   9.261   5.190 -2.1376  1.3464  1.4702
   12CHTO   C90 4792   5.955   9.182   4.985 -0.7638  0.4810 -0.2103
   12CHTO   O60 4793   5.883   9.089   4.908  0.3769  0.5094  0.3183
   12CHTO  H138 4794   5.913   9.094   4.819 -1.6743  0.5772 -0.4011
   12CHTO   O50 4795   5.813   9.147   5.414 -0.4901  0.4660 -0.3722
   12CHTO   C73 4796   5.819   9.110   5.555  0.2053 -0.0756  0.7983
   12CHTO  H145 4797   5.727   9.050   5.564 -0.0001  0.1910  0.4989
   12CHTO   C74 4798   5.833   9.242   5.639 -0.4294 -0.2681 -0.0582
   12CHTO  H146 4799   5.748   9.299   5.598 -1.7846 -1.8480  0.4929
   12CHTO   O54 4800   5.815   9.213   5.776  0.3270  0.3379  0.3604
   12CHTO  H133 4801   5.793   9.293   5.819 -1.1123  0.6773 -0.9540
   12CHTO   C75 4802   5.973   9.319   5.620  0.8575  0.1158  1.4102
   12CHTO  H147 4803   5.977   9.341   5.512  2.1764 -4.9749  0.2881
   12CHTO   N13 4804   5.999   9.436   5.703 -0.0254  0.3021  0.0857
   12CHTO  H139 4805   5.918   9.449   5.774  0.4793 -0.1523  0.7524
   12CHTO  H140 4806   6.009   9.516   5.631  1.2968 -0.0284 -0.1160
   12CHTO   C76 4807   6.083   9.216   5.640  0.1385 -0.3410 -0.4787
   12CHTO  H148 4808   6.076   9.183   5.744 -2.2408 -0.4195 -0.6360
   12CHTO   O49 4809   6.058   9.107   5.549 -0.6523  0.0422  0.5714
   12CHTO   C77 4810   5.949   9.018   5.572  0.3371  0.4000 -0.5143
   12CHTO  H149 4811   5.961   8.990   5.677  2.0307 -1.7353 -1.2481
   12CHTO   C88 4812   5.957   8.894   5.486 -0.7146  0.3404 -0.5793
   12CHTO   O58 4813   6.076   8.829   5.518 -0.0426 -0.3671 -0.0609
   12CHTO  H136 4814   6.153   8.872   5.484 -0.8772  1.1069 -0.1488
   12CHTO   O51 4815   6.223   9.257   5.598 -0.3328 -0.1418  0.1718
   12CHTO   C78 4816   6.330   9.143   5.623 -0.4370  0.1820 -0.2743
   12CHTO  H150 4817   6.286   9.041   5.624  1.4559 -0.6532  0.0620
   12CHTO   C80 4818   6.417   9.164   5.753  0.2671 -0.1147  0.2835
   12CHTO  H152 4819   6.459   9.267   5.748  1.6169 -0.6981 -0.6681
   12CHTO   O55 4820   6.323   9.162   5.867 -0.7452  0.0521  0.2169
   12CHTO  H134 4821   6.280   9.244   5.879 -2.9191 -1.3271  2.2890
   12CHTO   C84 4822   6.535   9.060   5.766 -0.2321  0.4265 -0.0074
   12CHTO  H156 4823   6.505   8.957   5.783  2.4977 -0.8464 -2.4135
   12CHTO   N15 4824   6.618   9.086   5.888 -0.3915  0.2015  0.0366
   12CHTO  H143 4825   6.579   9.171   5.939 -2.0407 -0.1460 -0.6225
   12CHTO  H144 4826   6.718   9.108   5.857 -0.7032  0.6602 -0.6655
   12CHTO   C87 4827   6.620   9.053   5.634  0.4146  0.6568  0.2276
   12CHTO  H159 4828   6.675   9.146   5.625  1.8973 -0.3159 -1.0061
   12CHTO   O53 4829   6.511   9.028   5.504 -0.1051 -0.1943  0.1233
   12CHTO   C82 4830   6.419   9.136   5.493 -0.7235  0.0969 -0.9337
   12CHTO  H154 4831   6.484   9.224   5.494  1.9320 -1.7700 -1.7045
   12CHTO   C89 4832   6.339   9.130   5.358 -0.2283 -0.5815  0.3241
   12CHTO   O59 4833   6.421   9.160   5.247  0.4840 -0.0129 -0.6272
   12CHTO  H137 4834   6.458   9.076   5.225  1.1555 -0.9611  3.5731
   12CHTO   O45 4835   6.710   8.957   5.639 -0.3310 -0.0590  0.9889
   12CHTO   C67 4836   6.811   8.950   5.533 -0.1099 -0.2406 -0.1332
   12CHTO  H124 4837   6.814   9.038   5.470  0.1418  1.2766  1.9256
   12CHTO   C65 4838   6.953   8.927   5.593  0.0311 -0.1741  0.3888
   12CHTO  H122 4839   6.960   8.992   5.680  3.3443  1.4400 -0.9834
   12CHTO   O44 4840   7.056   8.966   5.500 -0.0573 -0.1248 -0.0361
   12CHTO  H102 4841   7.052   8.912   5.424  0.3963  1.0927 -0.9339
   12CHTO   C63 4842   6.964   8.777   5.652 -0.0849  0.0209 -0.1532
   12CHTO  H120 4843   6.877   8.754   5.713 -0.0324 -1.3099 -0.5582
   12CHTO   N11 4844   7.083   8.752   5.737  0.0652  0.5008  0.0067
   12CHTO  H108 4845   7.141   8.667   5.707  0.9543  1.1167 -0.0482
   12CHTO  H109 4846   7.148   8.837   5.730 -0.9458  1.2920  0.1191
   12CHTO   C61 4847   6.952   8.675   5.530 -0.2190 -0.1121 -0.2284
   12CHTO  H118 4848   6.936   8.575   5.571  0.8759  0.3166  1.2999
   12CHTO   O40 4849   6.840   8.698   5.448  0.4646  0.7669 -0.0223
   12CHTO   C68 4850   6.769   8.827   5.433  0.5142 -0.5648  0.6603
   12CHTO  H125 4851   6.662   8.801   5.446  0.4994 -1.8595 -1.7765
   12CHTO   C72 4852   6.783   8.870   5.290 -0.1570 -0.0062 -0.7247
   12CHTO   O48 4853   6.712   8.991   5.262 -0.3027 -0.1118  0.2525
   12CHTO  H105 4854   6.639   8.965   5.208  0.0632  1.0709 -0.8195
   12CHTO   O38 4855   7.060   8.676   5.435 -0.0044 -0.7512 -0.7001
   12CHTO   C55 4856   7.163   8.578   5.435  1.0572  0.0619 -0.2967
   12CHTO  H112 4857   7.170   8.531   5.534  0.1848  0.6964  0.0718
   12CHTO   C56 4858   7.293   8.650   5.391 -0.3397 -0.2416 -0.0045
   12CHTO  H113 4859   7.279   8.706   5.298 -0.2018  0.3128  0.3048
   12CHTO   O42 4860   7.331   8.756   5.488  0.2584 -0.3001  0.0691
   12CHTO  H100 4861   7.320   8.731   5.577  0.6008  1.7791  0.7004
   12CHTO   C57 4862   7.411   8.545   5.376  0.1568 -0.1989 -0.2436
   12CHTO  H114 4863   7.438   8.497   5.471  2.3083 -0.2262 -0.8313
   12CHTO   N10 4864   7.532   8.606   5.319  0.6270 -0.0183 -0.0322
   12CHTO  H106 4865   7.599   8.542   5.263  0.9770  0.4501 -0.1485
   12CHTO  H107 4866   7.588   8.645   5.403  4.7352 -4.1899 -0.6011
   12CHTO   C58 4867   7.360   8.439   5.278 -0.5054  0.0815 -0.0251
   12CHTO  H115 4868   7.331   8.483   5.180 -1.8297 -1.0253 -0.1344
   12CHTO   O37 4869   7.244   8.375   5.333  0.5100 -0.2091 -0.0810
   12CHTO   C59 4870   7.134   8.464   5.337  0.1597  0.1773 -0.5048
   12CHTO  H116 4871   7.123   8.505   5.236  1.2857  1.3485 -0.1668
   12CHTO   C70 4872   7.018   8.372   5.372 -0.3535  0.7056  0.6326
   12CHTO   O46 4873   6.895   8.435   5.322  0.8284 -0.1578  0.0940
   12CHTO  H103 4874   6.821   8.382   5.343 -1.8852  1.2344 -5.1228
   12CHTO   O39 4875   7.464   8.312   5.251 -0.2529  0.0700 -0.3193
   12CHTO   C60 4876   7.456   8.253   5.118  0.4574 -0.0424  0.1749
   12CHTO  H117 4877   7.368   8.279   5.059 -0.4717  3.0171  2.7526
   12CHTO   C62 4878   7.571   8.294   5.034 -0.4608 -0.8267 -0.3963
   12CHTO  H119 4879   7.561   8.402   5.013  2.4858 -0.7023 -1.3482
   12CHTO   O43 4880   7.699   8.272   5.104  0.1342  0.0572  0.6376
   12CHTO  H101 4881   7.771   8.321   5.069  0.1823 -0.4327  0.0443
   12CHTO   C66 4882   7.569   8.229   4.887 -0.0993  0.1741  0.7200
   12CHTO  H123 4883   7.473   8.241   4.838 -0.0740  0.6063  0.7679
   12CHTO   N12 4884   7.660   8.288   4.783 -0.1387  0.0152 -0.2758
   12CHTO  H110 4885   7.738   8.216   4.763  2.3410  2.8362 -1.0573
   12CHTO  H111 4886   7.692   8.391   4.786 -0.8023  0.2222 -0.0829
   12CHTO   C69 4887   7.587   8.072   4.905  0.0557 -0.1439 -0.2560
   12CHTO  H126 4888   7.680   8.053   4.963  1.1094  0.4947 -1.7270
   12CHTO   O41 4889   7.454   8.022   5.009 -0.4526  0.3288 -0.3666
   12CHTO   C64 4890   7.451   8.097   5.137 -0.4073  0.1089  0.5049
   12CHTO  H121 4891   7.543   8.066   5.191 -0.2746  1.2252  0.9389
   12CHTO   C71 4892   7.338   8.043   5.225 -0.6826 -0.1054  0.6976
   12CHTO   O47 4893   7.205   8.062   5.165 -0.4524 -0.0143 -0.3622
   12CHTO  H104 4894   7.136   8.056   5.228  0.1508  0.9347  0.4035
   12CHTO   O34 4895   7.599   7.985   4.779 -0.3443 -0.1437  0.1225
   12CHTO   C49 4896   7.671   7.852   4.738 -0.6947  0.3866  0.7608
   12CHTO   H91 4897   7.764   7.878   4.687 -2.1611  3.1922 -0.6188
   12CHTO   C47 4898   7.575   7.770   4.639 -0.0676 -0.1767 -0.0669
   12CHTO   H89 4899   7.631   7.684   4.597 -1.2480 -0.9076 -0.1958
   12CHTO   O33 4900   7.548   7.858   4.522  0.1952  0.6982  0.2930
   12CHTO   H70 4901   7.468   7.837   4.477 -0.4481  1.3244  1.1136
   12CHTO   C45 4902   7.438   7.718   4.707 -0.2747 -0.3929 -0.4741
   12CHTO   H87 4903   7.366   7.801   4.707 -0.1763 -0.3079 -0.2589
   12CHTO    N8 4904   7.377   7.603   4.630 -0.8228 -0.6086 -0.3095
   12CHTO   H75 4905   7.396   7.606   4.523 -3.1294  0.7409 -0.7082
   12CHTO   H76 4906   7.271   7.603   4.648 -0.7696 -2.0146  0.0453
   12CHTO   C43 4907   7.464   7.701   4.863  1.0166 -0.8398  0.4817
   12CHTO   H85 4908   7.451   7.803   4.898 -3.4844 -0.6516 -1.3996
   12CHTO   O29 4909   7.593   7.648   4.889  0.5668 -0.8149  0.0476
   12CHTO   C50 4910   7.691   7.757   4.857  0.1676  1.1171 -0.5071
   12CHTO   H92 4911   7.718   7.807   4.951 -0.8391 -1.9323  1.4825
   12CHTO   C54 4912   7.824   7.689   4.842 -0.2435 -0.4346 -0.8820
   12CHTO   O36 4913   7.815   7.585   4.750  0.2393 -0.3787  0.4555
   12CHTO   H72 4914   7.899   7.561   4.716 -0.6272 -0.2738 -1.8184
   12CHTO   O27 4915   7.359   7.626   4.926 -0.2138  0.2888  0.5035
   12CHTO   C37 4916   7.271   7.611   5.034  0.5660  0.3145 -1.3111
   12CHTO   H79 4917   7.252   7.506   5.061  0.2062  0.8551  0.6146
   12CHTO   C38 4918   7.337   7.660   5.163  0.4015  0.2499 -0.3530
   12CHTO   H80 4919   7.377   7.761   5.146  2.6666 -0.4288  0.8314
   12CHTO   O31 4920   7.454   7.581   5.189 -0.0530 -0.2123  0.4226
   12CHTO   H68 4921   7.469   7.554   5.277  0.2298  2.7489  1.3330
   12CHTO   C39 4922   7.224   7.646   5.279  0.3269  0.2790 -0.2098
   12CHTO   H81 4923   7.208   7.540   5.298  1.4023  0.7756  3.9176
   12CHTO    N7 4924   7.274   7.700   5.411 -0.3546 -0.4427 -0.9727
   12CHTO   H73 4925   7.292   7.805   5.399 -0.4291 -0.2407  0.5636
   12CHTO   H74 4926   7.365   7.657   5.449  0.7997  2.9906  0.3067
   12CHTO   C40 4927   7.078   7.706   5.247 -0.5539  0.2962  0.3561
   12CHTO   H82 4928   7.079   7.815   5.248 -1.5054  0.3102  0.1018
   12CHTO   O26 4929   7.045   7.654   5.125 -0.3049  0.3434  0.4424
   12CHTO   C41 4930   7.135   7.683   5.012 -0.5411  0.3798  0.8819
   12CHTO   H83 4931   7.159   7.791   5.008  2.6556 -0.3596 -0.9075
   12CHTO   C52 4932   7.061   7.641   4.882 -0.4038  0.1662  0.0077
   12CHTO   O35 4933   6.947   7.709   4.855 -0.3544  0.1753  0.0638
   12CHTO   H71 4934   6.882   7.659   4.902 -0.6889 -0.9064 -1.5387
   12CHTO   O28 4935   6.982   7.686   5.349  0.2244  0.1592 -0.0631
   12CHTO   C42 4936   6.853   7.763   5.346  0.4460  0.3384 -0.1981
   12CHTO   H84 4937   6.783   7.711   5.411 -0.7078 -0.0042 -1.6941
   12CHTO   C44 4938   6.786   7.766   5.202  0.4340  0.2401 -0.4516
   12CHTO   H86 4939   6.855   7.822   5.139  2.3843 -0.4592  0.9973
   12CHTO   O32 4940   6.781   7.625   5.166 -0.0517 -0.2002 -0.3231
   12CHTO   H69 4941   6.864   7.582   5.175  1.0867  1.8759 -0.7823
   12CHTO   C48 4942   6.645   7.843   5.207  0.0016 -0.0496  0.2236
   12CHTO   H90 4943   6.576   7.782   5.265  0.8009 -2.7938 -1.6224
   12CHTO    N9 4944   6.580   7.851   5.075 -0.2008  0.0441  0.3795
   12CHTO   H77 4945   6.543   7.755   5.040 -1.2513  0.2881  0.7831
   12CHTO   H78 4946   6.497   7.920   5.082 -2.5475 -2.3834 -2.1195
   12CHTO   C51 4947   6.663   7.989   5.273 -0.5475 -0.1245 -0.1965
   12CHTO   H93 4948   6.712   8.053   5.201 -1.3752  0.4501 -0.2524
   12CHTO   O30 4949   6.736   7.982   5.399 -0.4394 -0.1924 -0.2572
   12CHTO   C46 4950   6.863   7.905   5.401 -0.1286 -0.3395 -0.3886
   12CHTO   H88 4951   6.933   7.961   5.339 -1.8999  2.0659 -0.2604
   12CHTO   C53 4952   6.903   7.913   5.555 -0.8042 -0.5852  0.1678
   12CHTO   O72 4953   6.986   8.028   5.569 -0.1106 -0.2041 -0.1287
   12CHTO  H199 4954   7.068   8.001   5.605 -0.2501  0.0014  0.3399
   12CHTO   O22 4955   6.526   8.037   5.284 -0.8597  0.3374 -0.1691
   12CHTO   C31 4956   6.493   8.179   5.325 -0.7919  0.2454  0.3597
   12CHTO   H59 4957   6.388   8.178   5.360 -0.1482  3.3139  2.5438
   12CHTO   C29 4958   6.572   8.250   5.440 -0.8489 -0.1026 -0.3858
   12CHTO   H57 4959   6.678   8.264   5.414 -0.9618  1.5115  0.0180
   12CHTO   O21 4960   6.566   8.156   5.552  0.2438 -0.2783  0.6149
   12CHTO   H37 4961   6.631   8.089   5.556  0.7033  0.1599  0.5010
   12CHTO   C27 4962   6.506   8.382   5.483  0.2068 -0.0082  0.1799
   12CHTO   H55 4963   6.399   8.366   5.503 -0.3221  0.2053 -2.4061
   12CHTO    N5 4964   6.568   8.445   5.609  0.1492 -0.0845 -0.4475
   12CHTO   H43 4965   6.663   8.398   5.633  0.9893  0.7240 -2.1412
   12CHTO   H44 4966   6.586   8.551   5.603  0.4464  0.0456  1.9884
   12CHTO   C25 4967   6.498   8.474   5.358  0.1704  0.4752 -0.1116
   12CHTO   H53 4968   6.597   8.515   5.335  0.7118 -0.5297  0.3996
   12CHTO   O17 4969   6.441   8.406   5.249  0.0831 -0.1043  0.1547
   12CHTO   C32 4970   6.504   8.281   5.200  0.1596 -0.5836  0.2857
   12CHTO   H60 4971   6.609   8.292   5.173  0.1817  1.5073  1.0857
   12CHTO   C36 4972   6.422   8.228   5.082 -0.6100  0.4048  0.0771
   12CHTO   O25 4973   6.424   8.328   4.984 -0.4613  0.3665 -0.4920
   12CHTO   H40 4974   6.339   8.368   4.973 -1.5817 -1.3874  1.5621
   12CHTO   O15 4975   6.412   8.611   5.372  0.4602 -0.2015 -0.1393
   12CHTO   C19 4976   6.294   8.678   5.310  0.4957 -0.7369 -0.0606
   12CHTO   H47 4977   6.266   8.753   5.386  2.7763  1.1270 -1.0085
   12CHTO   C20 4978   6.326   8.750   5.179  0.4829 -0.2284 -0.8903
   12CHTO   H48 4979   6.380   8.685   5.108  0.2773 -0.5379 -0.7636
   12CHTO   O19 4980   6.422   8.851   5.210 -0.0678  0.6095 -0.0970
   12CHTO   H35 4981   6.499   8.809   5.242 -0.9115 -1.8575 -1.1757
   12CHTO   C21 4982   6.201   8.817   5.107 -0.2835  0.0260  0.0972
   12CHTO   H49 4983   6.171   8.904   5.166 -0.4903  0.6312 -0.8816
   12CHTO    N4 4984   6.244   8.857   4.964 -0.7525 -0.7069  0.5621
   12CHTO   H41 4985   6.161   8.854   4.894  0.1241  1.5073 -0.6301
   12CHTO   H42 4986   6.318   8.785   4.933 -0.9411 -0.7004  0.1036
   12CHTO   C22 4987   6.078   8.723   5.106  0.1955 -0.5877 -0.3317
   12CHTO   H50 4988   6.098   8.635   5.045  1.1331 -0.4267 -0.2640
   12CHTO   O14 4989   6.061   8.669   5.237 -0.3272  0.3679  0.2103
   12CHTO   C23 4990   6.169   8.588   5.286  0.0056  0.4201  0.1331
   12CHTO   H51 4991   6.187   8.505   5.215  0.4724 -0.1644  0.9312
   12CHTO   C34 4992   6.128   8.515   5.418 -0.1672 -0.4798  0.5550
   12CHTO   O23 4993   6.025   8.422   5.384 -0.3565  0.3969  0.4633
   12CHTO   H38 4994   6.020   8.345   5.437 -1.3217 -0.8505 -1.4284
   12CHTO   O16 4995   5.952   8.789   5.066 -0.5096  0.1451 -0.1794
   12CHTO   C24 4996   5.840   8.698   5.010  0.6712  0.2263  0.4429
   12CHTO   H52 4997   5.862   8.591   5.019  0.7543  0.1666 -0.4363
   12CHTO   C26 4998   5.827   8.729   4.861  0.0703  0.1829  0.4960
   12CHTO   H54 4999   5.794   8.835   4.851 -1.3829 -0.3902 -0.9672
   12CHTO   O20 5000   5.948   8.698   4.793 -0.4481  0.0381  0.9685
   12CHTO   H36 5001   5.952   8.607   4.770 -0.0530  0.6959 -1.7667
   12CHTO   C30 5002   5.706   8.650   4.808 -0.1396 -0.4712 -0.1997
   12CHTO   H58 5003   5.727   8.543   4.827 -2.1185 -0.8754 -0.0833
   12CHTO    N6 5004   5.684   8.669   4.666  0.3108 -0.2823 -0.4561
   12CHTO   H45 5005   5.660   8.769   4.630  2.9917  1.1111  1.4923
   12CHTO   H46 5006   5.612   8.597   4.630 -0.2534  1.2704 -2.5746
   12CHTO   C33 5007   5.572   8.679   4.882 -0.5130  0.4450 -0.2428
   12CHTO   H61 5008   5.534   8.782   4.870  1.4109  1.1499 -0.4363
   12CHTO   O18 5009   5.593   8.659   5.024  0.0470 -0.2157 -0.3212
   12CHTO   C28 5010   5.705   8.729   5.080 -0.3796  0.1560 -1.0314
   12CHTO   H56 5011   5.687   8.835   5.062  3.4654  1.1475  0.5008
   12CHTO   C35 5012   5.710   8.702   5.236 -0.2476 -0.1809 -0.2591
   12CHTO   O24 5013   5.599   8.748   5.312 -0.1011 -0.9975 -0.2551
   12CHTO   H39 5014   5.594   8.690   5.385  0.3734 -1.0393 -0.2570
   12CHTO    O9 5015   5.461   8.597   4.835  0.4370 -0.0710  0.1531
   12CHTO   C13 5016   5.468   8.444   4.868 -0.1261  0.0069  0.0329
   12CHTO   H26 5017   5.554   8.421   4.934 -0.2987 -0.0087  0.2555
   12CHTO   C11 5018   5.473   8.374   4.724 -0.2260 -0.3243  0.6259
   12CHTO   H24 5019   5.573   8.397   4.684  0.6958 -2.1773  1.7909
   12CHTO    O8 5020   5.381   8.440   4.632 -0.4308 -0.2290  0.3875
   12CHTO    H3 5021   5.399   8.533   4.637  0.5635 -0.4579  1.5293
   12CHTO    C9 5022   5.449   8.227   4.751  0.4553  0.0944 -0.1878
   12CHTO   H22 5023   5.531   8.200   4.819  1.0140  1.1676 -0.4294
   12CHTO    N2 5024   5.478   8.143   4.629  0.2434 -0.0374 -0.2521
   12CHTO   H10 5025   5.582   8.117   4.639 -0.1671 -2.2601 -1.4596
   12CHTO   H11 5026   5.414   8.056   4.635 -0.1215  0.2191 -0.4275
   12CHTO    C7 5027   5.316   8.199   4.833  0.4161  0.3149  0.5930
   12CHTO   H20 5028   5.344   8.118   4.904  0.1511 -0.8852 -0.6393
   12CHTO    O4 5029   5.263   8.301   4.912 -0.4699  0.2404 -0.0534
   12CHTO   C14 5030   5.347   8.408   4.963 -0.0237  0.1513  0.0681
   12CHTO   H27 5031   5.376   8.363   5.060  0.8786 -0.3219 -0.4118
   12CHTO   C18 5032   5.254   8.533   4.993  0.2396 -0.5340  0.0187
   12CHTO   O13 5033   5.318   8.633   5.066 -0.2213 -0.4413 -0.1197
   12CHTO    H7 5034   5.269   8.639   5.145  0.2756  3.2978 -0.0022
   12CHTO    O2 5035   5.190   8.138   4.725 -0.0178 -0.3370  0.0679
   12CHTO    C1 5036   5.126   8.018   4.782 -0.6888  0.4507 -0.5366
   12CHTO   H14 5037   5.156   8.000   4.888  1.4944  2.3945 -0.7812
   12CHTO    C2 5038   5.157   7.886   4.704 -0.0948  0.6813  0.1087
   12CHTO   H15 5039   5.109   7.899   4.606  0.3431  0.7798 -0.0939
   12CHTO    O6 5040   5.297   7.858   4.704 -0.5393 -0.0823  0.1179
   12CHTO    H1 5041   5.315   7.827   4.618  2.7498  0.4932  0.5291
   12CHTO    C3 5042   5.065   7.763   4.780  0.3952  0.1298  0.3621
   12CHTO   H16 5043   5.112   7.752   4.879  3.5929 -0.6199 -1.1893
   12CHTO    N1 5044   5.080   7.638   4.705  0.1883 -0.0262  0.9222
   12CHTO    H8 5045   5.123   7.562   4.770  0.4337  0.4900  1.3618
   12CHTO    H9 5046   4.990   7.610   4.652  0.7321  3.4528 -1.9665
   12CHTO    C4 5047   4.918   7.813   4.813 -0.2646  0.2680  0.0984
   12CHTO   H17 5048   4.861   7.818   4.721 -0.2572 -1.1746  0.0087
   12CHTO    O1 5049   4.917   7.945   4.874  0.1428  0.0795  0.1356
   12CHTO    C5 5050   4.970   8.044   4.786 -0.0212  0.0851 -0.6098
   12CHTO   H18 5051   4.936   8.036   4.683  2.0864  0.9209 -1.3933
   12CHTO   C16 5052   4.927   8.181   4.844  0.3251 -0.1617  0.0031
   12CHTO   O11 5053   4.971   8.211   4.975 -0.0108  0.0704 -0.4975
   12CHTO    H5 5054   4.930   8.292   4.998 -0.2175 -0.1788  0.0202
   12CHTO    O3 5055   4.864   7.733   4.926  0.3347  0.7384 -0.1855
   12CHTO    C6 5056   4.719   7.734   4.972 -0.1903  0.0865  0.8242
   12CHTO   H19 5057   4.667   7.820   4.930 -0.8120 -1.0728 -0.8314
   12CHTO    C8 5058   4.651   7.600   4.924  0.2703  0.2313  0.3363
   12CHTO   H21 5059   4.701   7.517   4.974  0.0229 -0.3107 -0.3061
   12CHTO    O7 5060   4.668   7.590   4.782 -0.0300  0.3615 -0.7287
   12CHTO    H2 5061   4.755   7.570   4.752  0.3153  1.8024 -0.7262
   12CHTO   C12 5062   4.497   7.599   4.967  0.1812 -0.3416 -0.3243
   12CHTO   H25 5063   4.439   7.679   4.917 -0.2934 -0.7302 -0.4028
   12CHTO    N3 5064   4.415   7.483   4.934 -0.4148  0.9103  0.5417
   12CHTO   H12 5065   4.401   7.461   4.829  0.6041 -0.0443  0.5983
   12CHTO   H13 5066   4.316   7.499   4.976 -0.3387  0.4841  0.8799
   12CHTO   C15 5067   4.501   7.624   5.122 -0.0105  0.1911  0.0839
   12CHTO   H28 5068   4.547   7.543   5.179 -0.5535  1.1406  1.9216
   12CHTO   O10 5069   4.355   7.674   5.189  0.1656 -0.4025  0.2890
   12CHTO    H4 5070   4.287   7.620   5.154  1.5958 -1.5791 -0.7461
   12CHTO    O5 5071   4.575   7.743   5.159 -0.0464  0.8578  0.6618
   12CHTO   C10 5072   4.710   7.746   5.121 -0.8422 -0.0321  0.1607
   12CHTO   H23 5073   4.758   7.659   5.166 -1.4256 -0.4262  0.0306
   12CHTO   C17 5074   4.765   7.876   5.181  0.7983 -0.1303  0.5683
   12CHTO   O12 5075   4.710   7.993   5.120  0.1447  0.1323  0.0838
   12CHTO    H6 5076   4.713   7.985   5.026  0.2973 -0.0996  0.1089
   13CHTO  H203 5077   7.481   4.303   1.850  0.0533  1.3140  0.2360
   13CHTO   O82 5078   7.414   4.335   1.907 -0.4401 -0.1490  0.4955
   13CHTO  C123 5079   7.418   4.477   1.893 -0.1102 -0.2552  0.1837
   13CHTO  H227 5080   7.502   4.504   1.827  0.5763  1.2132  1.6333
   13CHTO   O77 5081   7.292   4.499   1.825  0.4742 -0.6661  0.1290
   13CHTO  C118 5082   7.262   4.633   1.774  0.7783  0.5439  0.4827
   13CHTO  H222 5083   7.349   4.655   1.710  0.2254 -0.3327 -0.5877
   13CHTO  C125 5084   7.124   4.626   1.685 -0.6213  0.1271 -0.6678
   13CHTO   O84 5085   7.012   4.593   1.770  0.6029  0.1654 -0.6940
   13CHTO  H205 5086   6.944   4.545   1.727  1.8184 -2.0686 -0.1628
   13CHTO  C114 5087   7.252   4.716   1.900 -0.0060 -0.1939 -0.4555
   13CHTO  H218 5088   7.177   4.674   1.966 -0.8415  3.5205  1.0872
   13CHTO  C116 5089   7.392   4.710   1.980  0.7258 -0.0189 -0.0004
   13CHTO  H220 5090   7.471   4.761   1.919 -0.5151  0.6359 -1.1007
   13CHTO   O79 5091   7.390   4.799   2.094  0.6067 -0.3671  0.4203
   13CHTO  H201 5092   7.379   4.889   2.070  0.2364 -0.6908 -0.6400
   13CHTO  C120 5093   7.422   4.559   2.022  0.2419  0.3897  0.8239
   13CHTO  H224 5094   7.339   4.535   2.091 -0.7113 -1.4143 -0.9209
   13CHTO   N21 5095   7.557   4.542   2.081  0.1849  0.0147  0.0596
   13CHTO  H211 5096   7.543   4.550   2.188 -0.2048  1.0843 -0.0686
   13CHTO  H212 5097   7.620   4.625   2.052 -0.5674  0.7963  0.6383
   13CHTO   O75 5098   7.218   4.852   1.858 -0.5865 -0.4239 -0.2141
   13CHTO  C112 5099   7.117   4.937   1.970 -0.0221  0.2239  0.2334
   13CHTO  H216 5100   7.172   4.940   2.065  0.3738 -0.5403  0.0307
   13CHTO   O73 5101   6.993   4.869   1.979 -0.5104 -0.3770  0.7133
   13CHTO  C113 5102   6.887   4.913   2.061 -0.4127 -0.4342  0.3548
   13CHTO  H217 5103   6.923   4.897   2.165  3.5185 -2.6708 -1.2579
   13CHTO  C124 5104   6.765   4.827   2.032 -0.7594 -0.6868 -0.2194
   13CHTO   O83 5105   6.802   4.691   2.028 -0.1914 -0.0739 -0.6502
   13CHTO  H204 5106   6.855   4.678   1.952  0.4064  3.2392 -0.8674
   13CHTO  C109 5107   6.856   5.058   2.030  0.4629  0.1261 -0.0104
   13CHTO  H213 5108   6.814   5.061   1.929  1.4666 -0.6935 -0.4543
   13CHTO  C110 5109   6.990   5.141   2.034 -0.5587  0.6147 -0.1524
   13CHTO  H214 5110   7.035   5.129   2.132  0.5707  1.0031 -0.6195
   13CHTO   O78 5111   6.950   5.280   2.012  0.0258 -0.7851 -0.1917
   13CHTO  H200 5112   6.881   5.305   2.070 -2.2241 -0.5617 -2.8872
   13CHTO  C111 5113   7.079   5.084   1.926  0.8985 -1.4073 -0.5182
   13CHTO  H215 5114   7.026   5.094   1.830  0.3187 -0.1144 -0.0676
   13CHTO   N19 5115   7.204   5.169   1.916 -0.5281  0.2879  0.0330
   13CHTO  H207 5116   7.275   5.120   1.852  0.4022  0.8897  0.5976
   13CHTO  H208 5117   7.187   5.269   1.880 -0.8176  0.3974  0.4668
   13CHTO   O74 5118   6.748   5.102   2.128 -0.0511  0.0461  0.5127
   13CHTO  C115 5119   6.602   5.110   2.057 -0.0494 -0.0116  0.4237
   13CHTO  H219 5120   6.604   5.068   1.956  0.1143 -0.2042  0.5058
   13CHTO   O76 5121   6.504   5.026   2.126  0.2887 -0.3674 -0.2963
   13CHTO  C122 5122   6.482   5.058   2.263  0.1671 -0.5327 -0.5103
   13CHTO  H226 5123   6.575   5.040   2.316  0.1080 -1.7571 -0.7991
   13CHTO  C126 5124   6.387   4.949   2.311 -0.6380  0.0904  0.9883
   13CHTO   O85 5125   6.249   4.971   2.270 -0.1272 -0.7742  0.0487
   13CHTO  H206 5126   6.241   4.952   2.178 -0.0304 -0.2152 -0.0810
   13CHTO  C121 5127   6.420   5.205   2.277 -0.0413  0.4104  0.4097
   13CHTO  H225 5128   6.318   5.202   2.320 -0.2014  0.5976  0.0452
   13CHTO   O81 5129   6.494   5.273   2.379 -0.3211 -0.1209 -0.4476
   13CHTO  H202 5130   6.542   5.344   2.341  0.5113 -1.0853 -1.2474
   13CHTO  C119 5131   6.411   5.276   2.137 -0.4297 -0.9278  0.4526
   13CHTO  H223 5132   6.338   5.225   2.074  0.8159  0.9405 -2.6600
   13CHTO  C117 5133   6.548   5.266   2.062  0.4606  0.7970  0.6104
   13CHTO  H221 5134   6.628   5.325   2.108 -0.3855  1.4808  1.2297
   13CHTO   N20 5135   6.550   5.317   1.922  0.3447 -0.9418 -0.3570
   13CHTO  H209 5136   6.463   5.301   1.860 -1.0636 -0.2998  1.4205
   13CHTO  H210 5137   6.582   5.420   1.920  0.5939 -1.0294 -0.8898
   13CHTO   O80 5138   6.348   5.424   2.147  0.2565  0.0834 -0.1995
   13CHTO  C103 5139   6.187   5.448   2.096 -1.0819  0.0721  0.3498
   13CHTO  H190 5140   6.172   5.553   2.069  0.1438  0.3924  0.8688
   13CHTO  C101 5141   6.125   5.372   1.971 -0.1622 -0.3424  0.1565
   13CHTO  H188 5142   6.131   5.264   1.981 -0.2587 -0.2939  0.7840
   13CHTO   O68 5143   6.199   5.418   1.863  0.1500 -0.1589 -0.2142
   13CHTO  H168 5144   6.266   5.355   1.846  1.3120  0.2347  2.5530
   13CHTO   C99 5145   5.967   5.413   1.959 -0.3011  0.2586 -0.4199
   13CHTO  H186 5146   5.952   5.522   1.943 -0.4627  0.3306  0.2071
   13CHTO   N17 5147   5.902   5.345   1.846  0.0091  0.4021 -0.1577
   13CHTO  H174 5148   5.925   5.239   1.847  0.5186  0.5132  1.1369
   13CHTO  H175 5149   5.937   5.396   1.758 -0.1799 -0.3949 -0.7076
   13CHTO   C97 5150   5.897   5.384   2.096  0.3374 -0.0498  0.3934
   13CHTO  H184 5151   5.896   5.275   2.111  3.4614 -0.0592  0.8007
   13CHTO   O64 5152   5.967   5.450   2.197 -0.1632 -0.5633  0.1279
   13CHTO  C104 5153   6.107   5.411   2.225 -0.3018 -0.0222 -0.5756
   13CHTO  H191 5154   6.130   5.307   2.249  0.5374 -0.0212 -1.3959
   13CHTO  C108 5155   6.157   5.494   2.343 -0.3060  0.3113 -0.1227
   13CHTO   O71 5156   6.086   5.491   2.468 -0.0533  0.4885 -0.0577
   13CHTO  H171 5157   5.998   5.519   2.454 -0.1210  0.6556  0.6733
   13CHTO   O62 5158   5.766   5.448   2.111  0.7551 -0.3535  0.1610
   13CHTO   C91 5159   5.662   5.367   2.161  0.0364  0.1189 -0.0331
   13CHTO  H178 5160   5.710   5.281   2.208  2.3109  0.3946 -1.7822
   13CHTO   C92 5161   5.569   5.315   2.040  0.3602 -0.3190  0.3486
   13CHTO  H179 5162   5.566   5.400   1.971 -2.4241 -1.0481 -0.4735
   13CHTO   O66 5163   5.647   5.224   1.961 -0.4516  0.1490 -0.1607
   13CHTO  H166 5164   5.717   5.271   1.919  0.6657 -2.2565 -1.0562
   13CHTO   C93 5165   5.426   5.257   2.074  0.9250 -0.3767 -0.0822
   13CHTO  H180 5166   5.437   5.148   2.071 -3.3467 -0.9469  1.1846
   13CHTO   N16 5167   5.320   5.282   1.972 -0.4016  0.6837  0.3024
   13CHTO  H172 5168   5.258   5.193   1.964  0.9776 -0.3758  1.1765
   13CHTO  H173 5169   5.368   5.295   1.876 -0.7420 -0.4606 -0.0388
   13CHTO   C94 5170   5.372   5.302   2.214 -1.0037 -0.2417  0.0506
   13CHTO  H181 5171   5.314   5.394   2.204  1.5457  1.0244 -4.0217
   13CHTO   O61 5172   5.473   5.334   2.302  0.1084 -0.1350 -0.1730
   13CHTO   C95 5173   5.566   5.437   2.262 -0.0259  0.1295 -0.6978
   13CHTO  H182 5174   5.509   5.517   2.216  0.0929 -0.3056 -1.6037
   13CHTO  C106 5175   5.637   5.494   2.389  0.1537  0.1774 -0.1061
   13CHTO   O69 5176   5.710   5.618   2.362 -0.2211  0.1424  0.2179
   13CHTO  H169 5177   5.674   5.667   2.291  1.6901  0.4986 -0.5175
   13CHTO   O63 5178   5.301   5.187   2.295  0.1694  0.1823 -0.1907
   13CHTO   C96 5179   5.186   5.256   2.395 -0.5398 -0.2429  0.3491
   13CHTO  H183 5180   5.126   5.325   2.336 -0.4382 -0.0587  0.4643
   13CHTO   C98 5181   5.226   5.334   2.525 -0.0185  0.2048 -0.0445
   13CHTO  H185 5182   5.309   5.404   2.503 -1.4351  1.3619 -1.8478
   13CHTO   O67 5183   5.122   5.419   2.571 -0.3404  0.0031 -0.5969
   13CHTO  H167 5184   5.124   5.505   2.534  2.5597  0.5436  0.6421
   13CHTO  C102 5185   5.274   5.237   2.646 -0.0707 -0.1942  0.1238
   13CHTO  H189 5186   5.247   5.294   2.735 -0.8825  1.5517 -1.2006
   13CHTO   N18 5187   5.419   5.217   2.654 -0.8678 -0.5548  0.4888
   13CHTO  H176 5188   5.470   5.312   2.660  0.2285 -1.1732  1.0573
   13CHTO  H177 5189   5.439   5.149   2.735 -0.4909  0.1105  0.9591
   13CHTO  C105 5190   5.192   5.103   2.642  0.2285  0.1385  0.1592
   13CHTO  H192 5191   5.250   5.020   2.600  0.6546  0.2648  0.4905
   13CHTO   O65 5192   5.072   5.119   2.570 -0.3386 -0.0643 -0.5535
   13CHTO  C100 5193   5.093   5.126   2.428 -0.4707  0.5330  0.3973
   13CHTO  H187 5194   5.138   5.034   2.388 -0.8794  0.8836 -0.8929
   13CHTO  C107 5195   4.961   5.131   2.353  0.3679  0.0533  0.0857
   13CHTO   O70 5196   4.861   5.043   2.398 -0.6034 -0.1831  0.4196
   13CHTO  H170 5197   4.781   5.070   2.357 -0.0498 -0.0571 -0.6177
   13CHTO   O57 5198   5.153   5.075   2.787  0.1905 -0.6443  0.0352
   13CHTO   C85 5199   5.092   4.950   2.829  0.4968  0.7434 -1.2553
   13CHTO  H157 5200   5.127   4.879   2.751  0.1588 -2.1682  1.1417
   13CHTO   C83 5201   4.941   4.952   2.816  0.4741 -0.3485  0.3429
   13CHTO  H155 5202   4.911   4.965   2.713 -1.5053 -2.2575  0.6548
   13CHTO   O56 5203   4.886   5.070   2.883 -0.3192  0.2191 -0.2892
   13CHTO  H135 5204   4.795   5.075   2.861 -0.3877  1.2159  0.1911
   13CHTO   C81 5205   4.884   4.815   2.862 -0.5566 -0.3289 -0.4903
   13CHTO  H153 5206   4.915   4.738   2.791 -0.5164 -0.8843  0.1251
   13CHTO   N14 5207   4.735   4.798   2.834 -0.7460  0.3433  0.6547
   13CHTO  H141 5208   4.681   4.838   2.916  1.1347  1.9717  1.1464
   13CHTO  H142 5209   4.732   4.691   2.835 -0.0418  0.2957 -0.7449
   13CHTO   C79 5210   4.928   4.772   3.008  0.6618  0.5277 -0.3094
   13CHTO  H151 5211   4.900   4.667   3.019 -2.5095  1.1719 -1.7709
   13CHTO   O52 5212   5.074   4.776   3.016 -0.2074 -0.2504  0.2975
   13CHTO   C86 5213   5.136   4.900   2.970  0.2678  0.3597 -0.3715
   13CHTO  H158 5214   5.106   4.974   3.047  1.1869 -1.6833  2.0376
   13CHTO   C90 5215   5.290   4.882   2.998 -0.3373  0.1610  0.2771
   13CHTO   O60 5216   5.366   4.997   2.957 -0.1103  0.1828  0.0183
   13CHTO  H138 5217   5.394   4.971   2.871  1.0131 -1.8602  0.9553
   13CHTO   O50 5218   4.871   4.855   3.103 -0.3041  0.0479 -0.4024
   13CHTO   C73 5219   4.756   4.833   3.183  0.6000  0.8476  0.7287
   13CHTO  H145 5220   4.685   4.768   3.130 -0.5475  1.5821  1.3357
   13CHTO   C74 5221   4.678   4.970   3.197 -0.4840 -0.0337  0.4340
   13CHTO  H146 5222   4.659   5.015   3.098  1.5180  1.1396  0.5573
   13CHTO   O54 5223   4.553   4.946   3.265  0.4514 -0.3422  0.1261
   13CHTO  H133 5224   4.486   5.010   3.250 -0.1147 -0.5904  1.5567
   13CHTO   C75 5225   4.775   5.065   3.278  0.5247  0.4542 -0.1180
   13CHTO  H147 5226   4.873   5.066   3.226 -0.4184  0.0319 -1.9437
   13CHTO   N13 5227   4.733   5.205   3.287 -0.5582 -0.1266  0.0789
   13CHTO  H139 5228   4.812   5.275   3.307 -1.4918  0.9597  0.0183
   13CHTO  H140 5229   4.654   5.224   3.358 -0.4716  2.6644 -0.5362
   13CHTO   C76 5230   4.803   4.997   3.421  0.3589 -0.5952  0.3630
   13CHTO  H148 5231   4.712   4.997   3.481 -0.5803  1.4458 -0.9975
   13CHTO   O49 5232   4.844   4.859   3.417 -0.3215 -0.5939  0.5924
   13CHTO   C77 5233   4.772   4.773   3.318 -0.2815 -0.0945 -0.2302
   13CHTO  H149 5234   4.671   4.765   3.358  0.1257  1.3756  1.1898
   13CHTO   C88 5235   4.849   4.645   3.344  0.6665 -0.3429 -0.0958
   13CHTO   O58 5236   5.006   4.633   3.306  0.3676  0.7432  0.4759
   13CHTO  H136 5237   5.054   4.685   3.368  0.9103  1.2029 -0.3199
   13CHTO   O51 5238   4.936   5.062   3.491 -0.9699 -0.1864 -0.0938
   13CHTO   C78 5239   4.933   5.061   3.619  0.5599 -0.3867  0.2496
   13CHTO  H150 5240   4.885   4.969   3.659  1.4915 -0.3652  1.4580
   13CHTO   C80 5241   4.869   5.188   3.677 -0.0894 -0.3907  0.3968
   13CHTO  H152 5242   4.888   5.276   3.612 -0.9484  1.4708  2.5963
   13CHTO   O55 5243   4.726   5.172   3.670  0.5973 -0.7843 -0.0453
   13CHTO  H134 5244   4.694   5.190   3.584 -1.1487  1.0722  0.9581
   13CHTO   C84 5245   4.909   5.217   3.832  0.3527 -0.4921  0.3950
   13CHTO  H156 5246   4.862   5.140   3.893  0.9575 -0.6150  0.7017
   13CHTO   N15 5247   4.861   5.348   3.872  0.5113 -0.2753  0.3549
   13CHTO  H143 5248   4.844   5.365   3.976 -0.5664 -4.1862  0.8720
   13CHTO  H144 5249   4.928   5.423   3.836  1.6231 -1.3415  0.1785
   13CHTO   C87 5250   5.065   5.207   3.843  0.5439 -0.0482 -0.3059
   13CHTO  H159 5251   5.100   5.277   3.767  1.2880 -0.5879 -0.4641
   13CHTO   O53 5252   5.097   5.073   3.805  0.2493 -0.1091 -0.4095
   13CHTO   C82 5253   5.078   5.049   3.669 -0.2338  0.5319 -0.4976
   13CHTO  H154 5254   5.137   5.114   3.605  0.5586  1.3511  1.0352
   13CHTO   C89 5255   5.132   4.904   3.650  0.3779  0.5478  0.4430
   13CHTO   O59 5256   5.153   4.864   3.516 -0.3700  0.1618 -0.3720
   13CHTO  H137 5257   5.192   4.779   3.514  2.4607  1.3812  0.3287
   13CHTO   O45 5258   5.127   5.237   3.998 -0.5927 -0.6373 -0.2024
   13CHTO   C67 5259   5.267   5.257   3.992 -0.6356 -0.6319  0.4906
   13CHTO  H124 5260   5.301   5.201   3.904 -0.8420 -0.4749  0.3126
   13CHTO   C65 5261   5.299   5.410   3.969 -0.1923 -0.2539 -0.6688
   13CHTO  H122 5262   5.214   5.457   4.020  0.8623  1.7902 -0.7375
   13CHTO   O44 5263   5.284   5.449   3.828 -0.6264 -0.3147 -0.2589
   13CHTO  H102 5264   5.328   5.527   3.799  0.2277 -0.3204  1.0059
   13CHTO   C63 5265   5.428   5.451   4.036 -0.3403 -0.0463 -0.6515
   13CHTO  H120 5266   5.406   5.463   4.142  1.2667 -0.0328 -0.3067
   13CHTO   N11 5267   5.480   5.587   3.999 -0.0672  0.1183 -0.3080
   13CHTO  H108 5268   5.576   5.607   4.042 -0.5343  1.7994  0.0116
   13CHTO  H109 5269   5.423   5.665   4.045  1.1766  2.6806 -2.9450
   13CHTO   C61 5270   5.535   5.332   4.029  0.1740 -0.4623 -0.4578
   13CHTO  H118 5271   5.627   5.367   4.077  0.4295 -0.1262 -1.1897
   13CHTO   O40 5272   5.489   5.211   4.103  0.2547  0.4581  0.0182
   13CHTO   C68 5273   5.343   5.194   4.117  0.5263  0.2045 -0.5073
   13CHTO  H125 5274   5.314   5.250   4.208  0.9909  0.8887 -0.7726
   13CHTO   C72 5275   5.314   5.048   4.138  0.5009  0.3004  0.1513
   13CHTO   O48 5276   5.359   4.953   4.039  0.5013  0.6878  0.1421
   13CHTO  H105 5277   5.348   4.869   4.079 -2.2990 -0.1336 -2.1605
   13CHTO   O38 5278   5.568   5.296   3.891 -0.5543  0.1076  0.1898
   13CHTO   C55 5279   5.699   5.249   3.840 -0.4227  0.0845 -0.0465
   13CHTO  H112 5280   5.680   5.237   3.733 -5.2807  0.3127  0.6912
   13CHTO   C56 5281   5.755   5.121   3.901  0.3690  0.5227 -0.8467
   13CHTO  H113 5282   5.766   5.162   4.002 -3.7262  0.0215 -0.1329
   13CHTO   O42 5283   5.657   5.010   3.905 -0.0316 -0.5146  0.1740
   13CHTO  H100 5284   5.610   5.021   3.985  0.1242  1.3918  0.0444
   13CHTO   C57 5285   5.896   5.079   3.833  0.3095  0.5640 -0.7967
   13CHTO  H114 5286   5.876   5.047   3.731  0.3990  1.0240 -0.9617
   13CHTO   N10 5287   5.962   4.974   3.911 -0.0693 -0.4901 -0.2912
   13CHTO  H106 5288   5.946   4.992   4.016  0.6008 -2.6393  0.2033
   13CHTO  H107 5289   6.068   4.979   3.895  0.0304  1.3379  0.8105
   13CHTO   C58 5290   5.993   5.203   3.820  0.1350  0.7822  0.1537
   13CHTO  H115 5291   6.023   5.229   3.923  2.7348 -1.0730 -0.0682
   13CHTO   O37 5292   5.929   5.327   3.783 -0.3720  0.2926 -0.3202
   13CHTO   C59 5293   5.805   5.367   3.847 -0.4784 -0.7709  0.2374
   13CHTO  H116 5294   5.818   5.409   3.946  1.9059  0.9749 -0.7693
   13CHTO   C70 5295   5.768   5.492   3.771 -0.5146  0.5643 -0.2005
   13CHTO   O46 5296   5.854   5.601   3.791 -0.3521 -0.2778  0.4902
   13CHTO  H103 5297   5.936   5.574   3.828 -0.2667  1.2131  1.4219
   13CHTO   O39 5298   6.126   5.166   3.728 -0.4957  0.0332  0.0150
   13CHTO   C60 5299   6.235   5.257   3.741  0.2653 -0.3410 -0.6725
   13CHTO  H117 5300   6.207   5.339   3.807 -0.5644 -0.9797 -0.2254
   13CHTO   C62 5301   6.363   5.193   3.804 -0.4325  0.4932  0.3280
   13CHTO  H119 5302   6.340   5.153   3.905  0.2211  0.0205  0.2948
   13CHTO   O43 5303   6.393   5.077   3.718 -0.3535  0.1865 -0.2854
   13CHTO  H101 5304   6.484   5.052   3.719  0.7121  3.8207  0.9649
   13CHTO   C66 5305   6.487   5.290   3.816  0.4276 -0.2718 -0.4960
   13CHTO  H123 5306   6.463   5.375   3.880  0.4299 -0.3681 -0.3658
   13CHTO   N12 5307   6.606   5.227   3.883  0.1530  0.4970  0.2151
   13CHTO  H110 5308   6.668   5.309   3.917  1.3154 -0.2217 -0.1709
   13CHTO  H111 5309   6.577   5.162   3.965  1.4009  0.4241  0.6028
   13CHTO   C69 5310   6.516   5.338   3.670 -0.1800 -0.2863  0.2975
   13CHTO  H126 5311   6.542   5.252   3.605 -0.0497 -0.7407  0.9411
   13CHTO   O41 5312   6.411   5.411   3.616  0.1495 -0.6344  0.5803
   13CHTO   C64 5313   6.272   5.320   3.602  0.1957  0.6824  0.0705
   13CHTO  H121 5314   6.300   5.242   3.528 -0.6793 -0.5109  0.9793
   13CHTO   C71 5315   6.157   5.402   3.548  0.3659 -0.0677  0.7148
   13CHTO   O47 5316   6.123   5.519   3.633 -0.2054 -0.2565  0.7968
   13CHTO  H104 5317   6.200   5.571   3.636 -1.1533  1.1477  1.3277
   13CHTO   O34 5318   6.614   5.429   3.671 -0.1237  0.3688 -0.9190
   13CHTO   C49 5319   6.719   5.501   3.575 -0.0987  0.1744  0.3573
   13CHTO   H91 5320   6.755   5.430   3.500  1.5775  1.4921 -0.1216
   13CHTO   C47 5321   6.840   5.555   3.659 -0.5018 -0.6370 -0.3327
   13CHTO   H89 5322   6.913   5.592   3.584 -0.6987 -1.1678 -0.7940
   13CHTO   O33 5323   6.903   5.436   3.712 -0.6286  0.7478 -0.0830
   13CHTO   H70 5324   6.892   5.428   3.804 -2.9929 -1.7630 -0.5084
   13CHTO   C45 5325   6.804   5.670   3.764 -0.3198  0.2217  0.1637
   13CHTO   H87 5326   6.776   5.619   3.857 -0.0072  0.7062  0.5238
   13CHTO    N8 5327   6.920   5.758   3.792  0.4878  0.3335 -0.6395
   13CHTO   H75 5328   6.993   5.729   3.866 -1.0905  1.2180  1.3122
   13CHTO   H76 5329   6.897   5.863   3.776 -0.5807 -0.0147 -1.4372
   13CHTO   C43 5330   6.666   5.738   3.716  0.3380  0.0112 -0.0657
   13CHTO   H85 5331   6.583   5.678   3.752 -0.2821  0.4249 -0.7791
   13CHTO   O29 5332   6.665   5.751   3.576  0.6591  0.8007  0.3771
   13CHTO   C50 5333   6.660   5.628   3.499  0.1802 -0.5554 -0.4717
   13CHTO   H92 5334   6.562   5.614   3.451 -0.3907 -2.0981  1.0914
   13CHTO   C54 5335   6.745   5.655   3.373  0.6415 -0.0666 -0.6418
   13CHTO   O36 5336   6.684   5.755   3.293 -0.0843  0.2238 -0.1981
   13CHTO   H72 5337   6.731   5.836   3.300 -1.0220  0.7452  0.2154
   13CHTO   O27 5338   6.652   5.867   3.771  0.2557 -0.4551  0.1572
   13CHTO   C37 5339   6.557   5.922   3.869  0.3494  1.0298 -0.0520
   13CHTO   H79 5340   6.467   5.860   3.856  1.0529 -0.0458  0.1450
   13CHTO   C38 5341   6.595   5.914   4.017  0.3423 -0.2768 -0.3574
   13CHTO   H80 5342   6.694   5.961   4.029 -0.0157  1.4134 -3.4700
   13CHTO   O31 5343   6.629   5.772   4.043  0.4701  0.0431 -0.1216
   13CHTO   H68 5344   6.551   5.720   4.044  0.5567 -0.0956 -0.9409
   13CHTO   C39 5345   6.485   5.976   4.109  0.5878  0.5916 -0.4423
   13CHTO   H81 5346   6.405   5.905   4.088  0.4797  1.4451 -3.1957
   13CHTO    N7 5347   6.524   5.986   4.255  0.0665 -0.5152  0.3325
   13CHTO   H73 5348   6.622   5.950   4.286  0.1346 -0.5463  0.0892
   13CHTO   H74 5349   6.443   5.960   4.321  0.7496  0.4974  1.5783
   13CHTO   C40 5350   6.434   6.116   4.054  0.0995  1.6288 -1.1688
   13CHTO   H82 5351   6.507   6.195   4.071  2.1469 -0.0555 -1.9280
   13CHTO   O26 5352   6.406   6.103   3.913  0.0689  0.0524  0.0300
   13CHTO   C41 5353   6.519   6.062   3.832  0.7876 -0.2635  0.0646
   13CHTO   H83 5354   6.601   6.134   3.838 -0.1292  0.7739  0.2727
   13CHTO   C52 5355   6.468   6.066   3.687  0.2145 -0.0030  0.6766
   13CHTO   O35 5356   6.546   6.046   3.573 -0.1040 -0.6545  0.0536
   13CHTO   H71 5357   6.616   6.107   3.566  0.5490 -1.3155  0.7188
   13CHTO   O28 5358   6.308   6.150   4.105  0.0567  0.1652  0.2983
   13CHTO   C42 5359   6.263   6.297   4.106 -0.3741  0.4753 -0.2397
   13CHTO   H84 5360   6.318   6.346   4.026 -0.2391  1.6213  0.5509
   13CHTO   C44 5361   6.289   6.378   4.232 -0.3190  0.8502  0.2638
   13CHTO   H86 5362   6.255   6.322   4.319 -0.0774 -1.0854 -0.8613
   13CHTO   O32 5363   6.431   6.370   4.264 -0.2760 -0.7542 -0.4971
   13CHTO   H69 5364   6.463   6.284   4.286  0.9304  0.0229  0.8672
   13CHTO   C48 5365   6.226   6.523   4.233  0.3678 -0.1148 -0.5338
   13CHTO   H90 5366   6.288   6.578   4.162 -1.1019  1.6201 -0.5071
   13CHTO    N9 5367   6.237   6.596   4.366 -0.2323 -0.3534 -0.2383
   13CHTO   H77 5368   6.146   6.617   4.421  0.6492 -1.6186  1.7601
   13CHTO   H78 5369   6.294   6.687   4.355 -0.8977  0.2091  0.8717
   13CHTO   C51 5370   6.078   6.511   4.184  0.1073  0.2834  0.0705
   13CHTO   H93 5371   6.033   6.458   4.268  0.5668 -0.1287  0.0567
   13CHTO   O30 5372   6.065   6.437   4.060  0.2389  0.1691 -0.2778
   13CHTO   C46 5373   6.106   6.302   4.069 -0.0912  0.7252  0.7163
   13CHTO   H88 5374   6.050   6.270   4.157  0.6321 -0.5891  0.7024
   13CHTO   C53 5375   6.069   6.231   3.940  0.2640 -0.3820  0.1815
   13CHTO   O72 5376   5.938   6.171   3.947 -0.1148  0.4164  0.1821
   13CHTO  H199 5377   5.873   6.239   3.935  1.1537  1.3592 -1.5210
   13CHTO   O22 5378   6.018   6.643   4.162 -0.2430  0.3505 -0.4301
   13CHTO   C31 5379   5.895   6.696   4.226 -0.6526  0.2231 -0.7563
   13CHTO   H59 5380   5.895   6.653   4.328 -1.5488 -2.8126 -1.9726
   13CHTO   C29 5381   5.904   6.849   4.241  0.5104 -0.0020  1.0178
   13CHTO   H57 5382   5.899   6.895   4.142 -0.7411  0.5798  1.3436
   13CHTO   O21 5383   6.038   6.889   4.290 -0.0242  0.1044 -0.2818
   13CHTO   H37 5384   6.106   6.844   4.244  0.9295  0.1248  1.0902
   13CHTO   C27 5385   5.790   6.906   4.324  0.3476 -0.6866  0.3031
   13CHTO   H55 5386   5.806   6.872   4.428  0.7269 -0.7691  0.2174
   13CHTO    N5 5387   5.789   7.057   4.325  0.0195  0.1018  0.4173
   13CHTO   H43 5388   5.755   7.094   4.230 -1.5863  0.0855  0.9738
   13CHTO   H44 5389   5.734   7.096   4.409  0.5166  2.9728 -0.5257
   13CHTO   C25 5390   5.654   6.869   4.256 -0.8132  0.2134 -0.0592
   13CHTO   H53 5391   5.655   6.907   4.153 -0.4906 -0.0222 -0.1432
   13CHTO   O17 5392   5.651   6.724   4.236  0.7623 -0.1203  0.2586
   13CHTO   C32 5393   5.761   6.663   4.163 -0.8486  0.8460 -0.1863
   13CHTO   H60 5394   5.762   6.691   4.057 -1.2891  0.7711 -0.2123
   13CHTO   C36 5395   5.728   6.509   4.163 -0.0169 -0.1514 -0.0055
   13CHTO   O25 5396   5.620   6.476   4.076 -0.3219  0.0469 -0.3983
   13CHTO   H40 5397   5.548   6.429   4.113  0.3650 -2.1192 -1.6958
   13CHTO   O15 5398   5.521   6.918   4.317 -0.1487 -0.2046 -0.1339
   13CHTO   C19 5399   5.437   6.889   4.439  0.3458 -0.4982  0.1553
   13CHTO   H47 5400   5.505   6.864   4.522  0.3947 -1.2229 -0.1078
   13CHTO   C20 5401   5.358   7.016   4.477 -0.7723 -0.6056  0.1067
   13CHTO   H48 5402   5.316   7.066   4.389  1.2345 -1.2857 -1.3021
   13CHTO   O19 5403   5.466   7.105   4.514  0.5189 -0.5277  0.1701
   13CHTO   H35 5404   5.494   7.092   4.602 -1.0613 -0.4622  0.6908
   13CHTO   C21 5405   5.246   7.000   4.577 -0.0457 -1.1896 -0.7157
   13CHTO   H49 5406   5.292   6.971   4.671  0.6152  0.2242 -0.5943
   13CHTO    N4 5407   5.171   7.126   4.596  0.4516 -0.3128 -0.6090
   13CHTO   H41 5408   5.176   7.172   4.499  1.6132  0.0698 -0.3722
   13CHTO   H42 5409   5.068   7.099   4.619  0.9381 -1.0141  0.8532
   13CHTO   C22 5410   5.157   6.878   4.530  0.4253 -0.1802  0.1181
   13CHTO   H50 5411   5.115   6.894   4.431  0.1892  0.3836  0.3036
   13CHTO   O14 5412   5.239   6.754   4.520  0.2150 -0.2360  0.7874
   13CHTO   C23 5413   5.341   6.761   4.422 -1.2386 -0.0145 -0.3066
   13CHTO   H51 5414   5.297   6.754   4.321 -2.3623  0.2259  0.1543
   13CHTO   C34 5415   5.426   6.635   4.434 -0.2357  0.0833  0.4218
   13CHTO   O23 5416   5.356   6.514   4.453 -0.2902  0.2152 -0.0222
   13CHTO   H38 5417   5.375   6.447   4.390 -2.0374 -1.7580  1.4471
   13CHTO   O16 5418   5.048   6.847   4.618  0.7010 -0.4260  0.0949
   13CHTO   C24 5419   4.916   6.747   4.559 -0.3574 -0.2670 -0.0559
   13CHTO   H52 5420   4.943   6.696   4.466  1.5485  0.7349 -0.0663
   13CHTO   C26 5421   4.796   6.838   4.540 -0.0737  0.9345 -0.0760
   13CHTO   H54 5422   4.780   6.902   4.630  0.5125  4.4171 -2.3581
   13CHTO   O20 5423   4.825   6.933   4.435 -0.3432 -0.5978 -0.2837
   13CHTO   H36 5424   4.836   6.882   4.357  0.5269 -0.8478 -0.0127
   13CHTO   C30 5425   4.672   6.755   4.510  0.0676 -1.3201  0.5855
   13CHTO   H58 5426   4.678   6.704   4.413  1.7251  0.4199 -0.2540
   13CHTO    N6 5427   4.550   6.846   4.513 -0.3093  0.3883 -0.3165
   13CHTO   H45 5428   4.470   6.776   4.492 -0.5288  0.7444 -0.6676
   13CHTO   H46 5429   4.559   6.917   4.433  2.1130 -0.7736 -1.1230
   13CHTO   C33 5430   4.655   6.632   4.608  0.3187  0.0623 -0.2706
   13CHTO   H61 5431   4.625   6.669   4.707  0.4264 -0.8048  0.0944
   13CHTO   O18 5432   4.773   6.557   4.621 -0.3609 -0.0246  0.1406
   13CHTO   C28 5433   4.886   6.639   4.666  0.2385 -0.5647 -0.7865
   13CHTO   H56 5434   4.872   6.690   4.761  1.5451  0.9726 -1.3886
   13CHTO   C35 5435   5.008   6.540   4.687 -0.2684  0.5823  0.1098
   13CHTO   O24 5436   4.982   6.430   4.777  0.0769 -0.3558  0.9901
   13CHTO   H39 5437   5.017   6.465   4.856  2.0452 -0.9190  0.3793
   13CHTO    O9 5438   4.546   6.552   4.561  0.5343  0.0336 -0.2184
   13CHTO   C13 5439   4.425   6.495   4.680 -0.3109 -0.0608  0.0356
   13CHTO   H26 5440   4.372   6.582   4.723 -1.0236 -0.2756 -0.3966
   13CHTO   C11 5441   4.492   6.399   4.792  0.9396  0.3039  0.6994
   13CHTO   H24 5442   4.548   6.462   4.863 -0.0495  1.0919  0.7799
   13CHTO    O8 5443   4.592   6.306   4.733  0.0612 -0.0380  0.0078
   13CHTO    H3 5444   4.645   6.271   4.802 -1.7752 -2.1619  0.3936
   13CHTO    C9 5445   4.373   6.332   4.872 -0.6779 -0.1808 -0.2841
   13CHTO   H22 5446   4.305   6.414   4.900 -3.7373 -3.0388  1.0143
   13CHTO    N2 5447   4.415   6.262   4.993  0.2037  0.1259 -0.3711
   13CHTO   H10 5448   4.485   6.183   4.970 -0.7790 -0.2242 -2.2139
   13CHTO   H11 5449   4.432   6.332   5.074 -0.6506 -1.3071  1.0642
   13CHTO    C7 5450   4.293   6.240   4.767 -0.2909 -0.4009 -0.4963
   13CHTO   H20 5451   4.190   6.261   4.803 -0.0188 -0.8852  0.5905
   13CHTO    O4 5452   4.318   6.276   4.633  0.3755 -0.3196 -0.1038
   13CHTO   C14 5453   4.306   6.417   4.612 -0.7376  0.3228  0.8025
   13CHTO   H27 5454   4.213   6.454   4.660  0.2702 -1.5253  4.3390
   13CHTO   C18 5455   4.288   6.427   4.463  0.1280  0.8094  0.1650
   13CHTO   O13 5456   4.268   6.564   4.431 -0.3162 -0.0701  0.1326
   13CHTO    H7 5457   4.316   6.599   4.359 -0.2877  0.7612  0.5521
   13CHTO    O2 5458   4.318   6.066   4.790 -0.0402  0.2354 -0.0521
   13CHTO    C1 5459   4.195   5.994   4.794 -0.3849  0.3803  0.4293
   13CHTO   H14 5460   4.113   6.054   4.749 -1.2861  0.1736  1.7612
   13CHTO    C2 5461   4.152   5.954   4.944  0.4325 -0.5000 -0.3205
   13CHTO   H15 5462   4.238   5.911   4.995  0.5496 -0.1356 -0.2069
   13CHTO    O6 5463   4.115   6.075   5.005 -0.0478 -0.8101  0.0799
   13CHTO    H1 5464   4.073   6.068   5.089 -0.7025  1.1191 -0.0573
   13CHTO    C3 5465   4.029   5.842   4.945  0.7957 -0.1025  0.0108
   13CHTO   H16 5466   3.945   5.896   4.898  0.7039 -0.3933 -0.1589
   13CHTO    N1 5467   3.988   5.808   5.092 -0.0030 -0.9106 -0.3025
   13CHTO    H8 5468   4.008   5.704   5.112  2.1307 -0.2363  1.1254
   13CHTO    H9 5469   3.883   5.830   5.108  0.0775 -2.2507  2.2606
   13CHTO    C4 5470   4.062   5.731   4.847  0.0192 -0.1662  0.1056
   13CHTO   H17 5471   4.141   5.665   4.884  0.7117 -0.9727 -2.6398
   13CHTO    O1 5472   4.097   5.781   4.720 -0.1967 -0.3457  0.0222
   13CHTO    C5 5473   4.219   5.862   4.714 -0.8064 -0.2351 -0.5195
   13CHTO   H18 5474   4.304   5.809   4.758 -1.1739 -1.3982 -1.1676
   13CHTO   C16 5475   4.258   5.892   4.568 -0.0725 -0.4075  0.1189
   13CHTO   O11 5476   4.255   5.783   4.477 -1.0469  0.0243 -0.5235
   13CHTO    H5 5477   4.169   5.745   4.478 -0.4667 -1.3952 -2.2711
   13CHTO    O3 5478   3.950   5.641   4.817 -0.0200 -0.5658 -1.0604
   13CHTO    C6 5479   3.986   5.506   4.771 -0.2780  0.1287  0.4931
   13CHTO   H19 5480   4.086   5.498   4.730 -0.5043 -0.1682 -0.0124
   13CHTO    C8 5481   3.982   5.394   4.878  0.3127  0.1523  0.7955
   13CHTO   H21 5482   3.887   5.389   4.932 -1.4457 -0.8287 -2.2456
   13CHTO    O7 5483   4.090   5.426   4.963  0.2633  0.1092  0.0132
   13CHTO    H2 5484   4.054   5.423   5.049 -0.4448 -1.0327 -0.3131
   13CHTO   C12 5485   3.999   5.246   4.817  0.1905 -0.4305 -0.5781
   13CHTO   H25 5486   4.098   5.236   4.768 -1.1049 -3.3347 -2.7779
   13CHTO    N3 5487   3.991   5.133   4.915  0.4287 -0.1467 -0.3827
   13CHTO   H12 5488   3.957   5.170   5.011  0.4033  0.2888 -0.5550
   13CHTO   H13 5489   3.935   5.049   4.876 -0.5501 -1.0706  2.8708
   13CHTO   C15 5490   3.897   5.227   4.697 -0.9005 -0.3320 -0.0568
   13CHTO   H28 5491   3.796   5.231   4.736 -0.1279  1.5270  1.8874
   13CHTO   O10 5492   3.912   5.097   4.605  0.5604 -0.1127  0.1195
   13CHTO    H4 5493   3.985   5.102   4.547 -0.4181 -1.6503 -1.2773
   13CHTO    O5 5494   3.911   5.337   4.599  0.0152 -0.6790  0.0164
   13CHTO   C10 5495   3.880   5.468   4.655  0.9449 -0.3001  0.3353
   13CHTO   H23 5496   3.780   5.460   4.698  0.3750  0.9500 -0.7402
   13CHTO   C17 5497   3.871   5.581   4.549  0.4111  0.1344 -0.0553
   13CHTO   O12 5498   3.761   5.563   4.454 -0.2734  0.0927  0.3894
   13CHTO    H6 5499   3.748   5.638   4.399 -0.5144 -1.1167 -1.2448
   14CHTO  H203 5500   5.519   5.191   3.632 -0.0429  0.0481  0.2900
   14CHTO   O82 5501   5.466   5.118   3.656  0.4697 -0.2171  0.6254
   14CHTO  C123 5502   5.520   4.991   3.605  0.8368 -0.1716 -1.0103
   14CHTO  H227 5503   5.629   4.994   3.619  0.8582 -1.2802 -0.8749
   14CHTO   O77 5504   5.469   4.892   3.696  0.1339  0.1021 -0.1298
   14CHTO  C118 5505   5.519   4.758   3.684 -0.6067  0.4015  0.8181
   14CHTO  H222 5506   5.629   4.756   3.676 -0.7522  1.6202 -1.8523
   14CHTO  C125 5507   5.480   4.674   3.804 -0.0323 -0.2396  0.5159
   14CHTO   O84 5508   5.567   4.566   3.827  0.2124 -0.1447  0.2609
   14CHTO  H205 5509   5.644   4.593   3.872  0.1914  2.8999 -1.4521
   14CHTO  C114 5510   5.476   4.699   3.546 -0.8194  0.1036  0.1786
   14CHTO  H218 5511   5.369   4.678   3.554 -0.6255 -0.1998  2.0719
   14CHTO  C116 5512   5.506   4.800   3.428  0.1981 -0.2605  0.2626
   14CHTO  H220 5513   5.615   4.807   3.409  0.0930  1.8490  0.3804
   14CHTO   O79 5514   5.431   4.770   3.308  0.3337 -0.3922 -0.4266
   14CHTO  H201 5515   5.365   4.704   3.314  2.2160 -2.4343 -1.5762
   14CHTO  C120 5516   5.457   4.947   3.463 -0.3159 -0.4672  0.1153
   14CHTO  H224 5517   5.347   4.947   3.472 -0.3347 -1.7372  0.0146
   14CHTO   N21 5518   5.481   5.055   3.365  0.1863  0.7782  0.8729
   14CHTO  H211 5519   5.403   5.129   3.377  0.6678  0.9157  3.5801
   14CHTO  H212 5520   5.576   5.098   3.395 -0.2333  2.6035 -0.3568
   14CHTO   O75 5521   5.550   4.574   3.545  0.2450  0.6877 -0.2315
   14CHTO  C112 5522   5.481   4.439   3.470 -0.3149 -0.0344 -0.2503
   14CHTO  H216 5523   5.567   4.372   3.459  0.0681  0.5525 -0.8371
   14CHTO   O73 5524   5.429   4.486   3.344 -0.0934 -0.1486  0.4683
   14CHTO  C113 5525   5.367   4.390   3.256  0.4026 -0.0096 -0.3947
   14CHTO  H217 5526   5.441   4.311   3.230 -0.8650 -1.7972  1.2716
   14CHTO  C124 5527   5.314   4.458   3.127  0.1025 -0.5892 -0.1777
   14CHTO   O83 5528   5.236   4.576   3.159 -0.4441 -0.0207 -0.1450
   14CHTO  H204 5529   5.161   4.545   3.205 -0.0632 -0.3820  0.2424
   14CHTO  C109 5530   5.256   4.312   3.326 -0.6249 -0.6234 -0.7010
   14CHTO  H213 5531   5.172   4.382   3.337  1.4956  1.9654 -0.4143
   14CHTO  C110 5532   5.298   4.272   3.474  0.4984  0.4611  0.8005
   14CHTO  H214 5533   5.368   4.189   3.465  0.3212  0.3475  0.4713
   14CHTO   O78 5534   5.182   4.229   3.555 -0.8586  1.0359 -0.0803
   14CHTO  H200 5535   5.159   4.142   3.530  0.6503  0.5338  0.2834
   14CHTO  C111 5536   5.367   4.383   3.555  0.0264  0.1937 -0.3578
   14CHTO  H215 5537   5.297   4.465   3.574  1.1223  1.2951 -1.0245
   14CHTO   N19 5538   5.417   4.335   3.686 -0.8981 -0.0233  0.1448
   14CHTO  H207 5539   5.464   4.411   3.746 -0.9658  0.6518 -0.6519
   14CHTO  H208 5540   5.327   4.315   3.743 -1.7483  1.2290 -0.7403
   14CHTO   O74 5541   5.223   4.198   3.246  0.5722 -0.5821  0.0990
   14CHTO  C115 5542   5.107   4.206   3.135 -0.1489 -0.2754  0.0768
   14CHTO  H219 5543   5.083   4.310   3.113  2.9031  0.4543 -0.0538
   14CHTO   O76 5544   5.155   4.144   3.000  0.1059 -0.3396  1.0872
   14CHTO  C122 5545   5.058   4.172   2.895  0.7734  0.0555 -0.0375
   14CHTO  H226 5546   5.100   4.114   2.813  3.3078  0.8906  0.6080
   14CHTO  C126 5547   5.064   4.330   2.842  0.9969  0.0382  0.8833
   14CHTO   O85 5548   4.946   4.359   2.766 -0.7264  0.3116 -0.0372
   14CHTO  H206 5549   4.963   4.426   2.703 -0.4988  0.6521  0.3766
   14CHTO  C121 5550   4.917   4.112   2.926  0.9582  0.5401 -0.0971
   14CHTO  H225 5551   4.841   4.135   2.848  2.6254 -0.5519 -2.0853
   14CHTO   O81 5552   4.922   3.969   2.921 -0.2981 -0.1372 -0.3467
   14CHTO  H202 5553   4.958   3.940   3.002  1.6334  2.8848 -0.0876
   14CHTO  C119 5554   4.863   4.170   3.060  0.0915  0.6293 -0.1180
   14CHTO  H223 5555   4.876   4.278   3.049  1.4699  0.4611 -0.3219
   14CHTO  C117 5556   4.973   4.137   3.173 -0.1521 -0.1048 -0.0058
   14CHTO  H221 5557   4.996   4.033   3.195 -2.7806 -0.7920 -0.3485
   14CHTO   N20 5558   4.918   4.185   3.298 -0.2951 -0.2897 -0.8307
   14CHTO  H209 5559   4.885   4.286   3.279  0.8251  0.0852 -0.7722
   14CHTO  H210 5560   4.839   4.118   3.329 -0.0282 -0.9581 -1.5688
   14CHTO   O80 5561   4.704   4.153   3.084 -0.3832  0.7507  0.1804
   14CHTO  C103 5562   4.604   4.232   2.985  0.0593  0.0174  0.6797
   14CHTO  H190 5563   4.663   4.295   2.917 -1.0332 -0.7413 -1.0039
   14CHTO  C101 5564   4.511   4.152   2.888 -0.5756  0.3948  0.0392
   14CHTO  H188 5565   4.461   4.073   2.945 -1.5411  1.7056  1.0378
   14CHTO   O68 5566   4.611   4.086   2.774 -0.6859 -0.3376 -1.4342
   14CHTO  H168 5567   4.660   4.154   2.731  1.1830 -0.5407  0.2769
   14CHTO   C99 5568   4.401   4.240   2.817 -0.2389 -0.6234 -0.4932
   14CHTO  H186 5569   4.443   4.305   2.738  0.1388  1.0001  0.9922
   14CHTO   N17 5570   4.300   4.163   2.746 -0.2756 -0.1446 -0.2967
   14CHTO  H174 5571   4.203   4.203   2.717 -0.2260 -0.3795 -0.7799
   14CHTO  H175 5572   4.290   4.060   2.777  2.1711 -0.2443  0.2003
   14CHTO   C97 5573   4.331   4.339   2.923 -0.6251  0.8453 -0.0071
   14CHTO  H184 5574   4.282   4.271   2.994 -3.1277 -2.0212 -4.2838
   14CHTO   O64 5575   4.437   4.409   2.984 -0.4584  0.1452  0.2105
   14CHTO  C104 5576   4.524   4.338   3.078 -0.6618  0.1532  0.2635
   14CHTO  H191 5577   4.462   4.287   3.152 -2.7228 -1.1420 -2.2629
   14CHTO  C108 5578   4.613   4.436   3.152  0.3062  0.8283  0.7171
   14CHTO   O71 5579   4.532   4.542   3.215 -0.0906  0.3551 -0.2068
   14CHTO  H171 5580   4.581   4.622   3.212  1.0129 -0.1128  3.1625
   14CHTO   O62 5581   4.243   4.433   2.863  0.6162  0.2938 -0.3126
   14CHTO   C91 5582   4.141   4.496   2.941 -0.3778  0.3384  0.5073
   14CHTO  H178 5583   4.093   4.421   3.005  1.3335  0.2497  1.7323
   14CHTO   C92 5584   4.034   4.553   2.836  0.5342  0.3216 -0.3865
   14CHTO  H179 5585   3.991   4.476   2.771  0.1010  1.6303 -1.7046
   14CHTO   O66 5586   3.923   4.616   2.904 -0.3194  0.2830 -0.4181
   14CHTO  H166 5587   3.860   4.547   2.915  1.6344 -1.5024 -0.1940
   14CHTO   C93 5588   4.090   4.664   2.748  0.9608  0.7222  0.3407
   14CHTO  H180 5589   4.009   4.733   2.721  0.3623  1.4757  3.8586
   14CHTO   N16 5590   4.154   4.601   2.626 -0.8658 -0.0397 -0.3749
   14CHTO  H172 5591   4.102   4.645   2.542  0.2224 -0.4640 -1.2939
   14CHTO  H173 5592   4.153   4.493   2.620 -1.7571 -0.1209  1.0777
   14CHTO   C94 5593   4.187   4.752   2.833  1.0475  0.2799 -0.5385
   14CHTO  H181 5594   4.292   4.724   2.822  1.8911  2.6087  1.2328
   14CHTO   O61 5595   4.163   4.734   2.976  0.3256 -0.1564  0.1877
   14CHTO   C95 5596   4.199   4.605   3.030 -0.2655 -0.0552 -0.1617
   14CHTO  H182 5597   4.308   4.600   3.037  0.1254  2.4381 -3.1774
   14CHTO  C106 5598   4.142   4.615   3.176  0.0261  0.7697 -0.4606
   14CHTO   O69 5599   4.233   4.685   3.264  0.2980 -0.3227  0.4763
   14CHTO  H169 5600   4.194   4.766   3.290  1.0031 -0.1861  1.1149
   14CHTO   O63 5601   4.169   4.904   2.800 -0.0104  0.6447  0.1076
   14CHTO   C96 5602   4.276   4.993   2.741 -0.2809 -0.6453 -0.1367
   14CHTO  H183 5603   4.244   5.094   2.765  1.9376 -0.1379  0.7109
   14CHTO   C98 5604   4.290   4.969   2.586  0.4207 -0.5488 -0.0163
   14CHTO  H185 5605   4.303   4.861   2.564 -1.0397 -0.5568 -0.9496
   14CHTO   O67 5606   4.165   4.997   2.509  0.8842  0.1374 -0.6722
   14CHTO  H167 5607   4.097   4.943   2.543  0.2587  0.1209 -1.9220
   14CHTO  C102 5608   4.413   5.047   2.515  0.2781  0.4475  1.0731
   14CHTO  H189 5609   4.381   5.152   2.507  0.4650  0.4079 -0.2456
   14CHTO   N18 5610   4.456   5.002   2.378 -0.1309 -0.3021 -0.2687
   14CHTO  H176 5611   4.417   4.902   2.368  1.0282 -0.9394  1.3034
   14CHTO  H177 5612   4.407   5.059   2.301 -1.4903 -2.6791 -1.2140
   14CHTO  C105 5613   4.538   5.040   2.606  0.0670 -0.3355  0.2757
   14CHTO  H192 5614   4.591   4.945   2.594  0.9412  0.3882 -1.7202
   14CHTO   O65 5615   4.517   5.053   2.743  0.0410 -0.7341 -0.2306
   14CHTO  C100 5616   4.416   4.980   2.812 -0.7984  0.0750 -0.5530
   14CHTO  H187 5617   4.442   4.873   2.809 -2.1983 -0.2295 -2.2984
   14CHTO  C107 5618   4.414   5.028   2.960  0.2454  0.2311  0.2673
   14CHTO   O70 5619   4.299   4.979   3.029 -0.7292  0.0935  0.0493
   14CHTO  H170 5620   4.299   4.999   3.120 -0.2254  0.8974 -0.1237
   14CHTO   O57 5621   4.646   5.172   2.553 -0.3676 -0.1551 -0.2103
   14CHTO   C85 5622   4.604   5.306   2.582  0.3119 -0.8635  0.1317
   14CHTO  H157 5623   4.513   5.293   2.645  1.5880 -3.1859  1.5449
   14CHTO   C83 5624   4.571   5.380   2.448 -0.2644 -0.3493  0.4744
   14CHTO  H155 5625   4.495   5.318   2.401 -0.5632  0.7701 -0.5531
   14CHTO   O56 5626   4.685   5.384   2.357 -0.4192 -0.1217  0.1096
   14CHTO  H135 5627   4.767   5.403   2.399 -0.6061 -0.6369  0.7169
   14CHTO   C81 5628   4.506   5.510   2.488  0.3890  0.7439 -0.1658
   14CHTO  H153 5629   4.419   5.483   2.548  1.4417 -2.0050  0.2143
   14CHTO   N14 5630   4.444   5.585   2.372  0.3399 -0.1233  0.5902
   14CHTO  H141 5631   4.343   5.558   2.349  0.5318 -0.8167  0.5509
   14CHTO  H142 5632   4.502   5.559   2.286 -1.1344 -0.8857 -0.1790
   14CHTO   C79 5633   4.601   5.601   2.576 -0.2024  0.0815 -0.2235
   14CHTO  H151 5634   4.535   5.674   2.623 -2.9052 -1.7694 -1.0238
   14CHTO   O52 5635   4.661   5.521   2.687 -0.2918 -0.0747  0.3415
   14CHTO   C86 5636   4.709   5.393   2.657 -0.3558  0.0656  0.5104
   14CHTO  H158 5637   4.799   5.405   2.593 -1.6627  0.2814 -1.3403
   14CHTO   C90 5638   4.759   5.323   2.782 -0.5327  0.1625  0.3470
   14CHTO   O60 5639   4.651   5.280   2.870  0.2494 -0.0980 -0.0411
   14CHTO  H138 5640   4.661   5.331   2.949  2.7848  1.1364 -1.0896
   14CHTO   O50 5641   4.711   5.658   2.503 -0.6415 -0.4482 -0.3243
   14CHTO   C73 5642   4.738   5.796   2.543  0.1062  0.0587 -0.7283
   14CHTO  H145 5643   4.691   5.813   2.641  0.3589  0.7314 -0.7226
   14CHTO   C74 5644   4.665   5.882   2.431  0.0069  0.1933  0.0587
   14CHTO  H146 5645   4.561   5.848   2.421  0.5256 -0.6524 -2.7447
   14CHTO   O54 5646   4.657   6.020   2.472 -1.2058  0.4647 -0.1819
   14CHTO  H133 5647   4.617   6.035   2.555 -1.2402 -1.9018  0.2560
   14CHTO   C75 5648   4.751   5.854   2.296  0.1705  0.1415 -0.2063
   14CHTO  H147 5649   4.734   5.749   2.271 -0.8498 -0.2464  1.9660
   14CHTO   N13 5650   4.704   5.935   2.179  0.6113  0.2271  0.0642
   14CHTO  H139 5651   4.761   5.921   2.088 -0.2839 -1.2346 -0.2865
   14CHTO  H140 5652   4.601   5.907   2.160  0.4321  0.0590  1.2664
   14CHTO   C76 5653   4.900   5.880   2.321  0.3976 -0.0576 -0.8320
   14CHTO  H148 5654   4.902   5.987   2.344  1.7105 -0.6752  2.1902
   14CHTO   O49 5655   4.958   5.802   2.435  0.0286 -0.2207  0.8995
   14CHTO   C77 5656   4.887   5.833   2.550 -0.2804  0.1170 -0.4077
   14CHTO  H149 5657   4.905   5.938   2.573  2.3788 -0.7124  1.6011
   14CHTO   C88 5658   4.949   5.754   2.662  0.3394 -0.0105 -0.1480
   14CHTO   O58 5659   5.076   5.801   2.687 -0.2950 -0.5590 -0.2368
   14CHTO  H136 5660   5.103   5.750   2.761 -0.0481 -2.3234 -1.5174
   14CHTO   O51 5661   4.995   5.837   2.188  0.4194 -0.7836  0.6629
   14CHTO   C78 5662   5.134   5.879   2.169 -0.4154  0.6185  0.6906
   14CHTO  H150 5663   5.172   5.935   2.258  0.2069  1.6470 -0.2151
   14CHTO   C80 5664   5.144   5.968   2.043 -0.6900  0.2244 -0.4268
   14CHTO  H152 5665   5.091   5.913   1.963  1.1965 -2.0514 -0.1705
   14CHTO   O55 5666   5.074   6.088   2.077 -0.5691  0.1265  0.8037
   14CHTO  H134 5667   5.137   6.154   2.095 -0.3840 -0.3996  2.1447
   14CHTO   C84 5668   5.300   5.999   2.007 -0.0706  0.3879 -0.0073
   14CHTO  H156 5669   5.335   6.073   2.079 -0.9024 -0.0454  0.8494
   14CHTO   N15 5670   5.308   6.069   1.878  0.2371 -0.0335  0.0192
   14CHTO  H143 5671   5.362   6.161   1.882  1.7066 -0.9073  0.5014
   14CHTO  H144 5672   5.351   6.002   1.807 -0.7656 -0.2661 -0.3839
   14CHTO   C87 5673   5.387   5.871   2.010 -1.1957 -0.3995  0.2839
   14CHTO  H159 5674   5.367   5.805   1.926 -0.4199  0.7408 -0.7994
   14CHTO   O53 5675   5.363   5.790   2.144  0.1591 -0.4493 -0.2751
   14CHTO   C82 5676   5.222   5.753   2.159 -0.5042 -0.5452  0.1256
   14CHTO  H154 5677   5.189   5.705   2.067 -1.0175 -1.1762  0.6412
   14CHTO   C89 5678   5.211   5.656   2.270 -0.3413  0.2831  0.1213
   14CHTO   O59 5679   5.265   5.702   2.396  0.4109 -0.2329 -0.0725
   14CHTO  H137 5680   5.203   5.760   2.437 -0.7064 -0.6189 -1.1896
   14CHTO   O45 5681   5.547   5.908   2.012  0.4767  0.1094 -0.5833
   14CHTO   C67 5682   5.639   5.802   1.991  0.2734 -0.0818 -0.5411
   14CHTO  H124 5683   5.613   5.713   2.050 -1.4851 -0.4410 -1.8387
   14CHTO   C65 5684   5.642   5.763   1.834  0.2260 -0.6426  0.0104
   14CHTO  H122 5685   5.540   5.779   1.801  1.6954  1.3816 -3.9641
   14CHTO   O44 5686   5.681   5.631   1.805 -0.2600  0.9703  0.1015
   14CHTO  H102 5687   5.747   5.583   1.852 -1.0251 -2.3760 -2.0354
   14CHTO   C63 5688   5.719   5.879   1.755  0.4257  0.3296 -0.0638
   14CHTO  H120 5689   5.671   5.974   1.780 -0.8555 -0.1264 -0.7427
   14CHTO   N11 5690   5.702   5.880   1.605  0.5879  0.0856 -0.0644
   14CHTO  H108 5691   5.626   5.947   1.570 -0.0448 -1.6513 -2.1069
   14CHTO  H109 5692   5.662   5.786   1.573  0.4017  0.0539  0.2533
   14CHTO   C61 5693   5.864   5.893   1.811  0.0306  0.6165  0.1655
   14CHTO  H118 5694   5.908   5.979   1.758  0.3397  1.1407  1.2722
   14CHTO   O40 5695   5.856   5.930   1.951  0.3814  0.6956 -0.2852
   14CHTO   C68 5696   5.777   5.855   2.050  0.7453  0.1832  0.3595
   14CHTO  H125 5697   5.754   5.928   2.131 -2.1629  0.9588 -1.0901
   14CHTO   C72 5698   5.860   5.740   2.111 -0.4402 -0.9384 -1.2950
   14CHTO   O48 5699   5.984   5.798   2.156 -0.9466  0.1890 -0.7359
   14CHTO  H105 5700   6.042   5.794   2.083 -0.9237 -0.4123 -0.6876
   14CHTO   O38 5701   5.944   5.771   1.793 -0.0032  0.2234 -0.1595
   14CHTO   C55 5702   6.063   5.774   1.706 -0.6500 -0.4980 -0.0649
   14CHTO  H112 5703   6.065   5.872   1.656  2.6645  0.8490  2.5050
   14CHTO   C56 5704   6.048   5.655   1.608  0.3466 -0.2395 -0.0557
   14CHTO  H113 5705   6.044   5.569   1.677  1.2618  0.7221  1.2241
   14CHTO   O42 5706   5.924   5.657   1.535  0.2647  0.2313  0.9356
   14CHTO  H100 5707   5.896   5.741   1.506  2.8078  1.0563  0.6992
   14CHTO   C57 5708   6.170   5.644   1.513 -0.6586 -0.7410  0.0596
   14CHTO  H114 5709   6.159   5.727   1.444 -0.5341  0.5800  1.5902
   14CHTO   N10 5710   6.172   5.524   1.425  0.1383  0.0473 -0.2302
   14CHTO  H106 5711   6.211   5.437   1.474 -3.0376  0.1128  2.5904
   14CHTO  H107 5712   6.239   5.554   1.345  0.6889 -0.3858  0.0668
   14CHTO   C58 5713   6.303   5.671   1.589 -0.2373  0.2239  1.0468
   14CHTO  H115 5714   6.326   5.582   1.651 -1.6050  0.7551  2.3465
   14CHTO   O37 5715   6.297   5.785   1.677 -0.0683  0.1160 -0.1356
   14CHTO   C59 5716   6.201   5.775   1.787  0.3590 -0.1102 -0.2898
   14CHTO  H116 5717   6.220   5.685   1.845  0.9641 -1.4702 -2.5207
   14CHTO   C70 5718   6.212   5.897   1.886 -0.4905 -0.3365  0.1486
   14CHTO   O46 5719   6.333   5.905   1.959 -0.1817  0.2457  0.8502
   14CHTO  H103 5720   6.405   5.944   1.913  2.3920 -0.9021  3.7585
   14CHTO   O39 5721   6.443   5.708   1.470 -0.4042 -0.7925 -0.0260
   14CHTO   C60 5722   6.576   5.660   1.501 -0.9645 -0.0094 -0.5800
   14CHTO  H117 5723   6.645   5.692   1.422  0.5936  0.8134  1.0886
   14CHTO   C62 5724   6.630   5.703   1.646 -0.7669  0.7184 -0.6085
   14CHTO  H119 5725   6.635   5.813   1.662  2.4219  0.4521  0.4822
   14CHTO   O43 5726   6.554   5.641   1.749 -0.0699  0.1657 -0.7493
   14CHTO  H101 5727   6.576   5.550   1.749  1.8014  0.5477  2.2516
   14CHTO   C66 5728   6.783   5.658   1.660  1.1593 -0.8572  0.1462
   14CHTO  H123 5729   6.841   5.707   1.582  0.7851 -0.8521 -0.1266
   14CHTO   N12 5730   6.842   5.698   1.789  0.5618  0.4585  0.1687
   14CHTO  H110 5731   6.940   5.739   1.771  0.9794 -0.8463 -0.6033
   14CHTO  H111 5732   6.857   5.612   1.852  1.2393 -2.6302 -4.0081
   14CHTO   C69 5733   6.782   5.503   1.644  0.2012  0.3565  0.6452
   14CHTO  H126 5734   6.749   5.456   1.739  2.3123  0.6183  1.5436
   14CHTO   O41 5735   6.681   5.437   1.524 -0.3222 -0.0974  0.1619
   14CHTO   C64 5736   6.568   5.499   1.485  0.1035 -0.3585 -0.2388
   14CHTO  H121 5737   6.485   5.459   1.547  0.5656 -1.1621 -0.1430
   14CHTO   C71 5738   6.542   5.459   1.336  0.3171 -0.2023 -1.6372
   14CHTO   O47 5739   6.543   5.323   1.295 -0.1831 -1.0786 -0.4519
   14CHTO  H104 5740   6.456   5.291   1.304 -0.9364  0.7917 -0.8093
   14CHTO   O34 5741   6.917   5.466   1.609  0.0123 -0.7579  0.5409
   14CHTO   C49 5742   7.029   5.357   1.554 -0.1130 -0.0911  0.7382
   14CHTO   H91 5743   7.026   5.275   1.627  3.6273 -0.2547  0.7642
   14CHTO   C47 5744   7.166   5.431   1.570  0.0785  0.4457 -0.2650
   14CHTO   H89 5745   7.242   5.353   1.552 -0.5445 -0.3202  0.3705
   14CHTO   O33 5746   7.189   5.483   1.699 -0.3834 -0.1889 -0.5195
   14CHTO   H70 5747   7.158   5.432   1.771  0.6182  0.1993  0.2063
   14CHTO   C45 5748   7.162   5.559   1.469 -0.0769 -0.1007  0.4642
   14CHTO   H87 5749   7.126   5.642   1.532  1.1651 -0.6528  1.9314
   14CHTO    N8 5750   7.301   5.591   1.431 -0.4928 -0.4542 -0.3554
   14CHTO   H75 5751   7.311   5.658   1.347 -0.1972  1.8093  1.4682
   14CHTO   H76 5752   7.340   5.639   1.519 -0.3540 -0.8033 -0.2260
   14CHTO   C43 5753   7.059   5.535   1.354 -0.4340  0.7049  0.4566
   14CHTO   H85 5754   6.962   5.563   1.394 -0.4713  1.6106 -0.2634
   14CHTO   O29 5755   7.062   5.398   1.306 -0.3402 -0.7104  0.2750
   14CHTO   C50 5756   7.024   5.311   1.408 -0.0521  0.2925 -0.0192
   14CHTO   H92 5757   6.917   5.301   1.384 -0.2708 -0.0948  1.0595
   14CHTO   C54 5758   7.090   5.171   1.396  1.0365 -0.4893  0.0039
   14CHTO   O36 5759   7.226   5.186   1.370  0.3879  0.4206 -0.0889
   14CHTO   H72 5760   7.256   5.114   1.319  0.5245  0.9586 -0.7873
   14CHTO   O27 5761   7.085   5.626   1.247  0.2727  0.1728  0.1526
   14CHTO   C37 5762   7.001   5.698   1.156  0.2080  0.7461  0.0310
   14CHTO   H79 5763   7.051   5.725   1.062 -0.9738  1.4368 -0.4171
   14CHTO   C38 5764   6.870   5.616   1.110 -0.0206 -0.2590 -0.1059
   14CHTO   H80 5765   6.831   5.566   1.200  2.6503 -0.4150  1.0031
   14CHTO   O31 5766   6.907   5.520   1.010  0.1908 -0.2135  0.2072
   14CHTO   H68 5767   6.920   5.437   1.052 -0.5371 -0.3292  0.2005
   14CHTO   C39 5768   6.767   5.725   1.050 -0.0919  0.1006  0.2116
   14CHTO   H81 5769   6.800   5.762   0.953  1.8409 -0.4418  0.6515
   14CHTO    N7 5770   6.635   5.655   1.032  0.3538  0.2664  0.3328
   14CHTO   H73 5771   6.645   5.553   0.998  0.3797  0.9176 -1.7388
   14CHTO   H74 5772   6.576   5.711   0.961  1.8859  1.3932 -0.0878
   14CHTO   C40 5773   6.756   5.844   1.157 -0.0515  0.9525  0.4026
   14CHTO   H82 5774   6.714   5.819   1.254 -0.3812 -1.9363 -0.4215
   14CHTO   O26 5775   6.884   5.905   1.170 -0.0001  0.5066 -0.1999
   14CHTO   C41 5776   6.985   5.827   1.229 -0.1687  0.0381  0.1308
   14CHTO   H83 5777   6.960   5.810   1.335  0.6340 -1.6869  0.0673
   14CHTO   C52 5778   7.120   5.903   1.226 -0.4871  0.2849  0.3741
   14CHTO   O35 5779   7.118   6.025   1.315 -0.6376 -0.4254  0.2079
   14CHTO   H71 5780   7.197   6.076   1.309 -1.7947  1.6716  2.1464
   14CHTO   O28 5781   6.679   5.958   1.105  0.5099  0.4915 -0.2244
   14CHTO   C42 5782   6.606   6.055   1.191  0.3224  0.4433 -0.6717
   14CHTO   H84 5783   6.578   6.139   1.127  1.4270  1.8806  0.6912
   14CHTO   C44 5784   6.690   6.116   1.311  0.2339 -0.2379 -1.0354
   14CHTO   H86 5785   6.711   6.035   1.381 -2.3666  0.1606  0.2580
   14CHTO   O32 5786   6.811   6.155   1.256 -0.0982 -0.5394 -0.1497
   14CHTO   H69 5787   6.787   6.217   1.190 -1.1157 -0.2171  0.5065
   14CHTO   C48 5788   6.606   6.237   1.380  0.2451 -0.1067 -0.4524
   14CHTO   H90 5789   6.592   6.309   1.299 -0.1247  1.9152  1.3915
   14CHTO    N9 5790   6.683   6.301   1.486 -0.7815  0.1976 -0.3235
   14CHTO   H77 5791   6.716   6.227   1.558  1.2633  1.5953  0.2045
   14CHTO   H78 5792   6.766   6.355   1.445 -1.3572  1.6739  0.4133
   14CHTO   C51 5793   6.465   6.176   1.429 -0.3003 -1.0561 -0.4849
   14CHTO   H93 5794   6.501   6.110   1.508 -0.4589 -0.2700  0.2548
   14CHTO   O30 5795   6.407   6.106   1.323  0.0216 -0.3277  0.1248
   14CHTO   C46 5796   6.468   5.999   1.255  0.1025 -0.5841 -0.6450
   14CHTO   H88 5797   6.486   5.923   1.331  0.9230 -1.7919 -2.0196
   14CHTO   C53 5798   6.369   5.941   1.144 -0.5665  0.8796  0.1455
   14CHTO   O72 5799   6.250   5.879   1.209  0.1117  0.1659 -0.0476
   14CHTO  H199 5800   6.182   5.863   1.146  0.1199 -1.4612  0.3240
   14CHTO   O22 5801   6.367   6.270   1.484  0.0037 -0.4316  0.5342
   14CHTO   C31 5802   6.291   6.245   1.601  0.1463 -0.3545  0.6108
   14CHTO   H59 5803   6.326   6.150   1.646  1.1655  0.1650  0.9158
   14CHTO   C29 5804   6.313   6.351   1.706  0.1770  0.2179  0.3465
   14CHTO   H57 5805   6.291   6.446   1.655 -0.5164 -1.1954 -2.0724
   14CHTO   O21 5806   6.451   6.334   1.744 -0.2578 -0.3857  0.3128
   14CHTO   H37 5807   6.468   6.256   1.794  0.7200  0.3008  1.0838
   14CHTO   C27 5808   6.220   6.339   1.830 -0.3273 -0.9299  0.0964
   14CHTO   H55 5809   6.248   6.249   1.887  1.1403  1.0178  2.6249
   14CHTO    N5 5810   6.235   6.452   1.927 -0.1578  0.7704 -0.2908
   14CHTO   H43 5811   6.337   6.480   1.950 -0.8920  1.5934  2.1542
   14CHTO   H44 5812   6.178   6.541   1.906 -2.7401 -0.0579  2.8603
   14CHTO   C25 5813   6.075   6.323   1.785  0.3768  0.7786  0.1297
   14CHTO   H53 5814   6.045   6.403   1.716  0.8572  0.1973 -0.7607
   14CHTO   O17 5815   6.064   6.210   1.701 -0.5442 -0.1659  0.4286
   14CHTO   C32 5816   6.140   6.224   1.580  0.5637 -0.0591 -0.0818
   14CHTO   H60 5817   6.099   6.299   1.513  1.7720  0.6697 -0.0218
   14CHTO   C36 5818   6.130   6.097   1.502  0.8868  0.2693 -0.8042
   14CHTO   O25 5819   5.997   6.060   1.457  0.3286  0.3748  0.1068
   14CHTO   H40 5820   5.991   5.982   1.405  0.7737 -0.3234  1.0976
   14CHTO   O15 5821   5.960   6.316   1.922 -0.2885  0.6415  0.3246
   14CHTO   C19 5822   5.913   6.246   2.032 -0.0578 -0.0388 -0.5981
   14CHTO   H47 5823   5.893   6.145   1.995 -2.7784 -0.8147  2.7487
   14CHTO   C20 5824   6.004   6.238   2.157 -0.0231  0.4248 -0.5852
   14CHTO   H48 5825   6.019   6.336   2.205 -1.0867  0.9347 -1.2873
   14CHTO   O19 5826   6.131   6.182   2.113 -0.6368  0.1371  0.2928
   14CHTO   H35 5827   6.182   6.251   2.075 -1.1056 -0.5073 -1.5537
   14CHTO   C21 5828   5.936   6.158   2.266  0.3439 -1.0931 -0.2421
   14CHTO   H49 5829   5.925   6.057   2.226  0.9246 -1.0640 -0.4876
   14CHTO    N4 5830   6.023   6.131   2.387 -0.0990  0.2471  0.1748
   14CHTO   H41 5831   5.962   6.084   2.462  0.8624 -1.2799  0.0093
   14CHTO   H42 5832   6.093   6.055   2.354  1.6998  0.4180  3.4328
   14CHTO   C22 5833   5.800   6.221   2.300  0.2709  0.6041  0.1986
   14CHTO   H50 5834   5.806   6.327   2.325  3.2144  0.1737  1.5832
   14CHTO   O14 5835   5.719   6.217   2.183  0.5842 -0.4788  0.3535
   14CHTO   C23 5836   5.775   6.299   2.082 -0.4346  0.0905 -0.4262
   14CHTO   H51 5837   5.778   6.403   2.119 -0.9209  0.1021 -0.4052
   14CHTO   C34 5838   5.676   6.307   1.963 -0.2989 -0.1239  0.5935
   14CHTO   O23 5839   5.642   6.182   1.906  0.2629  0.1114 -0.2095
   14CHTO   H38 5840   5.603   6.193   1.822  2.6379 -0.8625 -1.4771
   14CHTO   O16 5841   5.723   6.146   2.402  0.2192  0.0178 -0.1346
   14CHTO   C24 5842   5.600   6.232   2.461  0.1467  0.0431  0.0092
   14CHTO   H52 5843   5.563   6.300   2.385  3.2618  2.6274  0.6752
   14CHTO   C26 5844   5.634   6.309   2.587 -0.6371 -0.1888 -0.2014
   14CHTO   H54 5845   5.676   6.235   2.658  1.2453  1.8573  0.8503
   14CHTO   O20 5846   5.735   6.404   2.554  0.4212 -0.0778 -0.2193
   14CHTO   H36 5847   5.687   6.478   2.523  1.7240  0.1457 -1.7825
   14CHTO   C30 5848   5.502   6.371   2.646  0.0183  0.1885 -0.5834
   14CHTO   H58 5849   5.466   6.438   2.566  0.7480  0.9619 -0.2878
   14CHTO    N6 5850   5.518   6.471   2.763  0.6983  0.1132  0.3010
   14CHTO   H45 5851   5.580   6.555   2.738 -0.3741  0.6674 -0.5535
   14CHTO   H46 5852   5.552   6.419   2.851 -0.9676 -0.8902  0.3789
   14CHTO   C33 5853   5.390   6.263   2.670  0.0640  0.0017 -0.8241
   14CHTO   H61 5854   5.435   6.193   2.742  0.2877 -0.7740 -1.7165
   14CHTO   O18 5855   5.375   6.207   2.539  0.1730  0.3848 -0.3902
   14CHTO   C28 5856   5.489   6.135   2.492  0.2777 -0.0880 -0.5236
   14CHTO   H56 5857   5.524   6.056   2.558 -2.0304 -1.3378 -0.7163
   14CHTO   C35 5858   5.450   6.067   2.357 -0.4776  0.2329 -0.7913
   14CHTO   O24 5859   5.555   5.987   2.298  0.5773 -0.2805 -0.2831
   14CHTO   H39 5860   5.636   6.034   2.309  0.4647  0.0844 -1.0174
   14CHTO    O9 5861   5.263   6.310   2.729  0.4989  0.2266  0.0114
   14CHTO   C13 5862   5.179   6.200   2.795 -0.5066 -0.6591 -0.2118
   14CHTO   H26 5863   5.199   6.104   2.743 -1.6559 -0.4615 -1.0388
   14CHTO   C11 5864   5.021   6.230   2.794  0.0165 -0.6587  0.6375
   14CHTO   H24 5865   4.978   6.229   2.693 -1.8442 -1.9553  1.4263
   14CHTO    O8 5866   5.008   6.367   2.843 -0.6684  0.3181  0.4001
   14CHTO    H3 5867   5.045   6.373   2.929 -0.1899  1.4245  0.1226
   14CHTO    C9 5868   4.939   6.123   2.873 -0.4109  0.2738 -0.4368
   14CHTO   H22 5869   4.942   6.029   2.816 -3.3322  0.0323 -0.2981
   14CHTO    N2 5870   4.797   6.155   2.866 -0.4932  0.0851 -0.5024
   14CHTO   H10 5871   4.779   6.205   2.772  2.9500  0.6291 -0.9442
   14CHTO   H11 5872   4.740   6.065   2.881 -1.2677  0.8402  1.2242
   14CHTO    C7 5873   4.998   6.107   3.019  0.9872 -0.1576  0.1842
   14CHTO   H20 5874   4.961   6.009   3.053  1.6990 -0.4974  0.0044
   14CHTO    O4 5875   5.141   6.091   3.019 -0.0410 -0.2063 -0.1442
   14CHTO   C14 5876   5.232   6.171   2.940  0.0990  0.2523  0.3226
   14CHTO   H27 5877   5.331   6.121   2.928 -0.4286 -0.4773 -1.1838
   14CHTO   C18 5878   5.251   6.301   3.020  0.2941  0.5161  0.7413
   14CHTO   O13 5879   5.335   6.262   3.125 -0.0153 -0.1336  0.2477
   14CHTO    H7 5880   5.359   6.342   3.170  0.9945  0.0148 -0.5519
   14CHTO    O2 5881   4.955   6.229   3.117  0.1301 -0.2228  0.3059
   14CHTO    C1 5882   4.902   6.184   3.243  0.2097  0.3397 -0.1082
   14CHTO   H14 5883   4.938   6.081   3.266  2.4842  0.6929 -1.8793
   14CHTO    C2 5884   4.741   6.186   3.247 -0.8957  0.5594 -0.7686
   14CHTO   H15 5885   4.723   6.291   3.220  1.3370  1.6893  1.9106
   14CHTO    O6 5886   4.689   6.094   3.151  0.5464 -0.1686  0.0875
   14CHTO    H1 5887   4.693   6.006   3.183  1.3305 -0.4438 -0.7214
   14CHTO    C3 5888   4.696   6.143   3.381 -0.3484  0.0051  0.2283
   14CHTO   H16 5889   4.724   6.041   3.412 -1.4401  0.5051  2.9669
   14CHTO    N1 5890   4.545   6.141   3.402  0.7493 -0.0096 -0.2453
   14CHTO    H8 5891   4.496   6.063   3.345 -1.8516  0.3859  1.3789
   14CHTO    H9 5892   4.510   6.242   3.382 -0.0088 -0.2902 -0.3561
   14CHTO    C4 5893   4.761   6.235   3.490 -0.1269 -0.0467  0.7309
   14CHTO   H17 5894   4.721   6.336   3.481 -2.1699 -1.0276 -2.3185
   14CHTO    O1 5895   4.907   6.227   3.479  0.0263  0.0087  0.4144
   14CHTO    C5 5896   4.956   6.283   3.351 -0.3820  0.9615 -0.2815
   14CHTO   H18 5897   4.913   6.382   3.334  0.5048  1.1843 -1.2584
   14CHTO   C16 5898   5.108   6.291   3.376 -0.9984 -0.6807  0.0677
   14CHTO   O11 5899   5.189   6.181   3.379  0.2610  0.0148 -0.7851
   14CHTO    H5 5900   5.210   6.156   3.291 -1.6753 -1.4549 -0.8520
   14CHTO    O3 5901   4.730   6.185   3.624  0.2053 -0.0649 -0.0278
   14CHTO    C6 5902   4.722   6.283   3.734 -0.3841 -0.0893  0.3373
   14CHTO   H19 5903   4.792   6.365   3.722 -0.3932  0.1976  2.1801
   14CHTO    C8 5904   4.577   6.333   3.742  0.2841 -0.4821  0.2092
   14CHTO   H21 5905   4.508   6.252   3.719 -0.0410 -0.2926  0.5170
   14CHTO    O7 5906   4.560   6.433   3.634  0.3780 -0.1259 -0.0116
   14CHTO    H2 5907   4.530   6.395   3.554  0.4280 -1.0534  0.4073
   14CHTO   C12 5908   4.531   6.384   3.885  0.1309  0.5005 -0.5098
   14CHTO   H25 5909   4.570   6.487   3.898 -1.2993  1.0941 -0.8574
   14CHTO    N3 5910   4.385   6.405   3.891 -0.1205 -0.7199  0.5333
   14CHTO   H12 5911   4.346   6.314   3.847  0.0978  0.4780 -2.2826
   14CHTO   H13 5912   4.349   6.425   3.991 -0.3882  2.1400 -0.0855
   14CHTO   C15 5913   4.593   6.286   3.996 -0.6512  0.2912 -0.8120
   14CHTO   H28 5914   4.550   6.186   3.992 -2.7108  1.1630 -0.7845
   14CHTO   O10 5915   4.600   6.344   4.139 -0.1034 -0.6601 -0.6105
   14CHTO    H4 5916   4.510   6.362   4.161  0.6849 -0.1872  2.4825
   14CHTO    O5 5917   4.734   6.275   3.977 -0.0801  0.0627 -0.2521
   14CHTO   C10 5918   4.765   6.205   3.859  0.1413  0.1693  0.4701
   14CHTO   H23 5919   4.716   6.109   3.872  1.9745 -0.6313  1.5132
   14CHTO   C17 5920   4.915   6.165   3.842 -0.0077  0.0423  0.1839
   14CHTO   O12 5921   4.996   6.284   3.839 -0.4526  0.5724  0.3483
   14CHTO    H6 5922   4.991   6.328   3.756 -1.6438  1.4280  0.8502
   15CHTO  H203 5923   5.988   5.172   2.752  0.9888 -0.1938 -1.4537
   15CHTO   O82 5924   5.899   5.144   2.745  0.7195  0.1575  0.4067
   15CHTO  C123 5925   5.906   5.043   2.646  0.4426 -0.0730 -0.4678
   15CHTO  H227 5926   5.961   4.955   2.684 -0.0103 -1.2823 -2.5672
   15CHTO   O77 5927   5.767   5.005   2.633 -0.4056 -0.3896 -0.3342
   15CHTO  C118 5928   5.735   4.911   2.532  0.0999 -1.0128 -0.1655
   15CHTO  H222 5929   5.783   4.819   2.568 -0.7637 -1.0912  0.8198
   15CHTO  C125 5930   5.578   4.881   2.517  0.3074  0.7064  0.2216
   15CHTO   O84 5931   5.515   4.865   2.643  0.2028 -0.2434 -0.5610
   15CHTO  H205 5932   5.521   4.776   2.671  1.2086 -0.2838 -0.8871
   15CHTO  C114 5933   5.793   4.939   2.389 -0.4795 -0.4038  0.8070
   15CHTO  H218 5934   5.741   5.024   2.345 -1.3660 -1.6350 -0.5446
   15CHTO  C116 5935   5.938   4.978   2.401 -0.4970  0.3720  0.2041
   15CHTO  H220 5936   6.009   4.895   2.418 -0.2048  0.3813 -0.9224
   15CHTO   O79 5937   5.975   5.028   2.272  0.5175  0.7954  0.3606
   15CHTO  H201 5938   6.063   5.006   2.251  0.8538  0.2012  2.2411
   15CHTO  C120 5939   5.966   5.091   2.507 -0.5098  0.9905 -0.5834
   15CHTO  H224 5940   5.913   5.180   2.468  2.8906  2.1832 -2.6582
   15CHTO   N21 5941   6.104   5.140   2.512 -0.3345  0.2364 -0.2382
   15CHTO  H211 5942   6.172   5.085   2.575  0.8738 -1.2839 -2.7941
   15CHTO  H212 5943   6.112   5.247   2.516 -0.7750  0.2636 -0.0374
   15CHTO   O75 5944   5.758   4.825   2.310 -0.3151  0.1259 -0.1258
   15CHTO  C112 5945   5.854   4.692   2.310 -0.9671 -0.1386 -0.3195
   15CHTO  H216 5946   5.884   4.678   2.414 -0.6748 -2.5783 -0.7125
   15CHTO   O73 5947   5.964   4.727   2.230 -0.5367 -0.1453  0.5912
   15CHTO  C113 5948   6.064   4.618   2.214  0.0935  0.0845  0.5541
   15CHTO  H217 5949   6.120   4.602   2.308 -0.1496 -2.5150  0.2981
   15CHTO  C124 5950   6.177   4.656   2.117  0.3419  0.2288  0.4207
   15CHTO   O83 5951   6.125   4.705   1.989 -0.5605  0.2990 -0.0933
   15CHTO  H204 5952   6.177   4.779   1.969  0.7414 -0.3614  0.7822
   15CHTO  C109 5953   5.997   4.480   2.176 -0.2881 -0.0506  0.2944
   15CHTO  H213 5954   5.980   4.486   2.068 -0.4079  2.5299  0.4419
   15CHTO  C110 5955   5.874   4.443   2.259  0.2435 -0.2164 -0.1679
   15CHTO  H214 5956   5.908   4.418   2.359  1.7332  0.2036 -0.5558
   15CHTO   O78 5957   5.821   4.325   2.201 -0.2423  1.0391 -0.2470
   15CHTO  H200 5958   5.734   4.317   2.235 -0.2526  0.0646 -0.4787
   15CHTO  C111 5959   5.782   4.567   2.253  0.0556  0.2903  0.1275
   15CHTO  H215 5960   5.748   4.590   2.151 -1.4158 -0.7741  0.3495
   15CHTO   N19 5961   5.654   4.547   2.335  0.4788 -0.2085 -0.1691
   15CHTO  H207 5962   5.586   4.628   2.313 -0.8226 -1.4825 -0.9531
   15CHTO  H208 5963   5.673   4.541   2.441  2.2803 -1.0965 -0.5126
   15CHTO   O74 5964   6.099   4.369   2.186  0.6237 -0.4512  0.1110
   15CHTO  C115 5965   6.119   4.263   2.060  0.2333  0.3790 -0.3673
   15CHTO  H219 5966   6.040   4.187   2.059  0.8962 -0.3300  0.5844
   15CHTO   O76 5967   6.120   4.333   1.923 -0.3184  0.0718  0.1192
   15CHTO  C122 5968   6.247   4.352   1.861  0.1128  0.3834  0.6125
   15CHTO  H226 5969   6.305   4.417   1.926  0.1803 -0.8765  1.8317
   15CHTO  C126 5970   6.226   4.424   1.722 -0.6971 -0.6211 -0.4574
   15CHTO   O85 5971   6.194   4.565   1.728  0.0610  0.2976  0.2445
   15CHTO  H206 5972   6.195   4.592   1.638  0.1140  1.3641  0.5575
   15CHTO  C121 5973   6.320   4.210   1.846 -0.2384  0.0677 -0.0630
   15CHTO  H225 5974   6.294   4.165   1.748 -0.3190 -1.0211  0.4545
   15CHTO   O81 5975   6.463   4.226   1.852 -0.1628  0.1654 -0.0753
   15CHTO  H202 5976   6.515   4.236   1.774  3.2314 -0.6142  2.0031
   15CHTO  C119 5977   6.278   4.111   1.954 -0.5675 -0.0430  0.5853
   15CHTO  H223 5978   6.180   4.076   1.919  0.2780 -0.7772 -1.1297
   15CHTO  C117 5979   6.254   4.179   2.083 -0.2485 -0.3618 -0.9753
   15CHTO  H221 5980   6.332   4.241   2.128 -1.1972 -1.3985  2.2274
   15CHTO   N20 5981   6.222   4.078   2.190  0.3341  0.2768 -0.5240
   15CHTO  H209 5982   6.305   4.011   2.209 -0.0901 -0.0198  0.2943
   15CHTO  H210 5983   6.129   4.024   2.179  0.0284  0.4136  1.3629
   15CHTO   O80 5984   6.360   3.972   1.947 -0.4493 -0.2223 -0.5358
   15CHTO  C103 5985   6.292   3.842   1.906 -0.3760  0.4519 -0.5665
   15CHTO  H190 5986   6.366   3.762   1.908  0.1144  0.9150  0.0873
   15CHTO  C101 5987   6.168   3.800   1.989  0.3418  0.2393 -0.5798
   15CHTO  H188 5988   6.104   3.883   2.018 -0.8635 -1.0123  0.3523
   15CHTO   O68 5989   6.215   3.732   2.123 -0.6121 -0.1639 -0.0269
   15CHTO  H168 5990   6.133   3.733   2.167 -0.8136 -0.9095 -0.3744
   15CHTO   C99 5991   6.072   3.693   1.915 -0.3088 -0.4868 -0.9703
   15CHTO  H186 5992   6.114   3.591   1.921 -0.3753 -0.5214 -1.0780
   15CHTO   N17 5993   5.938   3.674   1.988 -0.1845 -0.5061 -0.4857
   15CHTO  H174 5994   5.957   3.707   2.089  2.5418 -2.8070 -0.1934
   15CHTO  H175 5995   5.866   3.738   1.939 -2.7219 -3.0946 -0.2430
   15CHTO   C97 5996   6.054   3.725   1.764  0.0455 -1.0320  0.0012
   15CHTO  H184 5997   5.993   3.816   1.747 -0.3659 -1.7855 -2.9273
   15CHTO   O64 5998   6.180   3.738   1.704 -0.1149 -0.0225 -0.4407
   15CHTO  C104 5999   6.244   3.857   1.758  0.4540  0.8102 -0.7723
   15CHTO  H191 6000   6.180   3.945   1.756 -0.3370  0.2526 -0.3991
   15CHTO  C108 6001   6.356   3.893   1.669 -0.3695 -0.0439  0.1448
   15CHTO   O71 6002   6.316   3.912   1.532 -0.0395 -0.3529 -0.0419
   15CHTO  H171 6003   6.337   3.842   1.473  1.6530 -1.5515  1.9272
   15CHTO   O62 6004   6.015   3.610   1.695 -0.5093  0.8996  0.6358
   15CHTO   C91 6005   5.904   3.614   1.604 -0.3384 -0.3210  0.1922
   15CHTO  H178 6006   5.892   3.715   1.564  0.7883 -0.2301  0.0473
   15CHTO   C92 6007   5.772   3.576   1.676 -0.2504 -0.6576 -0.2156
   15CHTO  H179 6008   5.760   3.631   1.770 -0.8144 -0.2911 -0.4978
   15CHTO   O66 6009   5.669   3.644   1.598 -0.0885  0.3440 -0.4516
   15CHTO  H166 6010   5.591   3.651   1.649  1.5618 -1.5638  2.5139
   15CHTO   C93 6011   5.739   3.421   1.680 -0.3119 -0.1940 -0.8646
   15CHTO  H180 6012   5.630   3.407   1.685 -0.2759 -0.2272 -0.2264
   15CHTO   N16 6013   5.792   3.360   1.800  0.5479  0.0498  0.1427
   15CHTO  H172 6014   5.900   3.361   1.795  0.6143 -1.5018  1.1197
   15CHTO  H173 6015   5.759   3.258   1.815  0.7287 -0.0617 -0.2019
   15CHTO   C94 6016   5.785   3.340   1.553 -0.7698  0.2598 -0.0594
   15CHTO  H181 6017   5.874   3.278   1.571 -0.2141  1.2968  0.8001
   15CHTO   O61 6018   5.833   3.425   1.445  0.6203 -0.7935  0.0069
   15CHTO   C95 6019   5.941   3.516   1.476  0.1434  0.4576  0.4225
   15CHTO  H182 6020   6.024   3.450   1.501  0.4820 -1.2182 -4.6072
   15CHTO  C106 6021   5.995   3.612   1.360  0.3655  0.6891 -0.2651
   15CHTO   O69 6022   5.890   3.709   1.319  0.1815  0.2776 -0.1714
   15CHTO  H169 6023   5.913   3.758   1.243 -1.6911  0.2852 -0.7638
   15CHTO   O63 6024   5.659   3.245   1.499 -0.1199 -0.1017 -0.5561
   15CHTO   C96 6025   5.702   3.122   1.418 -0.2669  0.8855 -0.3584
   15CHTO  H183 6026   5.809   3.122   1.397  0.0898  0.7992  1.3848
   15CHTO   C98 6027   5.637   3.126   1.276  0.3963  0.0902  0.4742
   15CHTO  H185 6028   5.533   3.149   1.300  0.9487  1.0201  2.0653
   15CHTO   O67 6029   5.685   3.242   1.204 -0.3047  0.0223  0.3169
   15CHTO  H167 6030   5.777   3.247   1.187  0.0740  0.9137  2.5188
   15CHTO  C102 6031   5.655   2.989   1.197  0.0544 -0.1566  0.1370
   15CHTO  H189 6032   5.760   2.987   1.163 -0.6727 -1.3943 -2.1850
   15CHTO   N18 6033   5.580   2.997   1.068  0.1136  0.5364 -0.4549
   15CHTO  H176 6034   5.511   2.916   1.053 -1.1038  1.3885  0.4024
   15CHTO  H177 6035   5.525   3.090   1.063 -0.7698  0.0822  0.5829
   15CHTO  C105 6036   5.631   2.866   1.287  0.3532 -0.2864  0.0747
   15CHTO  H192 6037   5.526   2.854   1.314  0.4946 -1.0123  0.3019
   15CHTO   O65 6038   5.711   2.881   1.406  0.4215 -0.4198  0.1785
   15CHTO  C100 6039   5.673   2.988   1.492  0.2469  1.3277 -0.0944
   15CHTO  H187 6040   5.565   2.988   1.515 -0.3734  0.2744 -2.8971
   15CHTO  C107 6041   5.748   2.981   1.625  0.1607 -0.1575 -0.7947
   15CHTO   O70 6042   5.888   2.972   1.605 -0.1812  0.5882  0.0695
   15CHTO  H170 6043   5.906   2.982   1.513  0.5046 -0.0084  0.1364
   15CHTO   O57 6044   5.698   2.743   1.195  0.4486  0.0703  0.5023
   15CHTO   C85 6045   5.678   2.618   1.259 -0.1867 -0.8219  0.1649
   15CHTO  H157 6046   5.593   2.634   1.329  0.3045 -0.0491  0.5897
   15CHTO   C83 6047   5.805   2.581   1.347 -0.0551 -0.2227  0.0503
   15CHTO  H155 6048   5.822   2.660   1.420 -1.3013 -0.8121  1.0118
   15CHTO   O56 6049   5.915   2.580   1.259  0.0636  0.2158  0.4495
   15CHTO  H135 6050   5.959   2.662   1.271  0.3095 -0.1410  2.1493
   15CHTO   C81 6051   5.779   2.447   1.426 -0.2632 -0.4869  0.1717
   15CHTO  H153 6052   5.696   2.464   1.495 -1.0146  0.7941 -1.0162
   15CHTO   N14 6053   5.890   2.396   1.512  0.2586 -0.0466  0.0118
   15CHTO  H141 6054   5.918   2.297   1.481 -1.7104  0.0293 -2.1566
   15CHTO  H142 6055   5.976   2.459   1.501  1.6375 -1.2624  3.2356
   15CHTO   C79 6056   5.737   2.334   1.317  0.6684  0.2804 -0.1557
   15CHTO  H151 6057   5.717   2.244   1.374  1.4484 -0.9549 -1.7985
   15CHTO   O52 6058   5.614   2.378   1.242  0.6320  0.4436  0.6782
   15CHTO   C86 6059   5.641   2.500   1.167 -0.9582  0.3005  0.0847
   15CHTO  H158 6060   5.725   2.479   1.098 -1.9731  0.3511 -1.1735
   15CHTO   C90 6061   5.509   2.516   1.076  0.1230 -0.1006  0.6783
   15CHTO   O60 6062   5.475   2.410   0.986 -0.4949 -0.3645  0.3567
   15CHTO  H138 6063   5.548   2.388   0.932  0.0343  2.0194  0.0283
   15CHTO   O50 6064   5.836   2.289   1.225  0.2990 -0.0956  0.4095
   15CHTO   C73 6065   5.844   2.210   1.106 -1.0555  0.2927  0.1994
   15CHTO  H145 6066   5.752   2.212   1.046  0.5658 -0.6693 -2.4023
   15CHTO   C74 6067   5.873   2.059   1.146  0.7016  0.0981 -0.2586
   15CHTO  H146 6068   5.789   2.031   1.211  1.4851  0.4684  0.9602
   15CHTO   O54 6069   5.878   1.988   1.020 -0.2235 -0.6622 -0.1053
   15CHTO  H133 6070   5.927   2.034   0.955  0.7432  1.2330  1.8880
   15CHTO   C75 6071   6.010   2.057   1.235 -0.4850  0.9617 -0.5531
   15CHTO  H147 6072   6.002   2.125   1.321 -2.5991 -0.0047  0.0704
   15CHTO   N13 6073   6.049   1.934   1.313 -0.9040  0.0738 -0.5552
   15CHTO  H139 6074   6.156   1.918   1.315 -0.9424  0.0079  1.6035
   15CHTO  H140 6075   6.002   1.918   1.409  0.9343  0.1526  0.3727
   15CHTO   C76 6076   6.131   2.094   1.146 -0.0054  0.2451 -0.1499
   15CHTO  H148 6077   6.145   2.025   1.064  2.8417  0.6795 -0.0708
   15CHTO   O49 6078   6.102   2.231   1.087 -0.0561  0.0973  0.0428
   15CHTO   C77 6079   5.976   2.258   1.022 -0.3091 -0.2452 -0.5023
   15CHTO  H149 6080   5.983   2.204   0.927  1.6695  0.0635 -0.5551
   15CHTO   C88 6081   5.979   2.407   0.990 -0.5268  0.0742  0.2734
   15CHTO   O58 6082   5.869   2.436   0.896 -0.1142 -0.4381 -0.3403
   15CHTO  H136 6083   5.809   2.495   0.937 -0.2946 -1.4435  0.8898
   15CHTO   O51 6084   6.258   2.118   1.214  0.2232  0.7568 -0.2182
   15CHTO   C78 6085   6.379   2.112   1.093  0.3611 -0.4798 -0.0839
   15CHTO  H150 6086   6.343   2.142   0.993 -0.6803  1.4977  0.8362
   15CHTO   C80 6087   6.445   1.971   1.085  0.2201 -0.2047  0.4768
   15CHTO  H152 6088   6.468   1.939   1.188 -0.3523  0.9224  0.9679
   15CHTO   O55 6089   6.355   1.874   1.034 -0.3009 -0.3353 -0.2924
   15CHTO  H134 6090   6.393   1.789   1.024  0.1575 -0.1278 -0.3252
   15CHTO   C84 6091   6.577   1.967   0.993 -0.0476 -0.0668 -0.2231
   15CHTO  H156 6092   6.549   1.975   0.888 -1.4147  1.1063  0.2146
   15CHTO   N15 6093   6.659   1.839   1.002  0.6340 -0.7141  0.0222
   15CHTO  H143 6094   6.678   1.823   1.106 -2.0247 -0.4902  0.5753
   15CHTO  H144 6095   6.748   1.840   0.942 -0.8133 -2.3266 -2.2390
   15CHTO   C87 6096   6.672   2.087   1.020 -0.9734 -0.1969 -0.2180
   15CHTO  H159 6097   6.719   2.068   1.117  1.0340 -2.0215 -1.4961
   15CHTO   O53 6098   6.577   2.234   1.020  0.4551  0.1041  0.2772
   15CHTO   C82 6099   6.474   2.228   1.124 -0.5713 -0.0494 -0.0532
   15CHTO  H154 6100   6.532   2.213   1.215 -0.5068 -2.1477 -0.4118
   15CHTO   C89 6101   6.406   2.366   1.131  0.5646  0.4915  0.3705
   15CHTO   O59 6102   6.353   2.417   1.005 -0.0829  0.0905  0.2559
   15CHTO  H137 6103   6.323   2.505   1.022 -0.8891  0.4140 -2.5244
   15CHTO   O45 6104   6.771   2.108   0.891 -0.1845  0.4879 -0.1776
   15CHTO   C67 6105   6.869   2.208   0.911  0.1270 -0.2700  0.8292
   15CHTO  H124 6106   6.828   2.273   0.988  0.1623 -0.2316  0.8155
   15CHTO   C65 6107   7.014   2.164   0.959  0.0651 -0.6557  0.0919
   15CHTO  H122 6108   7.029   2.059   0.935 -0.4996 -0.5698 -0.6638
   15CHTO   O44 6109   7.013   2.165   1.108 -1.4828 -0.5865  0.0574
   15CHTO  H102 6110   7.053   2.089   1.145 -0.1687  0.2161  0.3121
   15CHTO   C63 6111   7.130   2.244   0.887  0.1027 -0.0490 -0.3922
   15CHTO  H120 6112   7.137   2.218   0.782  4.1400 -0.0498 -0.2076
   15CHTO   N11 6113   7.271   2.224   0.933 -0.6202  0.7615  0.4340
   15CHTO  H108 6114   7.270   2.225   1.040 -0.0053  0.1005  0.4471
   15CHTO  H109 6115   7.334   2.302   0.896 -0.6143 -0.1582 -1.5749
   15CHTO   C61 6116   7.089   2.394   0.889 -0.0345  0.7774  0.1845
   15CHTO  H118 6117   7.169   2.456   0.848 -0.6330  2.1433  1.0454
   15CHTO   O40 6118   6.965   2.414   0.803 -0.4133  0.1440 -0.1766
   15CHTO   C68 6119   6.870   2.302   0.782 -0.3774 -0.2213  1.0288
   15CHTO  H125 6120   6.922   2.246   0.702 -0.0995 -0.9867  1.7295
   15CHTO   C72 6121   6.731   2.352   0.735  0.5868  0.0478 -0.3488
   15CHTO   O48 6122   6.747   2.445   0.631  0.2524 -0.0379 -0.1789
   15CHTO  H105 6123   6.707   2.400   0.560 -2.0460  1.2583  0.2436
   15CHTO   O38 6124   7.064   2.448   1.023  0.1801 -0.5443  0.8868
   15CHTO   C55 6125   7.003   2.577   1.028 -0.1530 -0.2531 -0.3690
   15CHTO  H112 6126   6.933   2.602   0.947 -0.4299  2.3325  0.5996
   15CHTO   C56 6127   7.113   2.690   1.041  0.4650 -0.3505  0.8442
   15CHTO  H113 6128   7.188   2.654   1.112 -0.5867 -0.2687  2.0166
   15CHTO   O42 6129   7.181   2.699   0.916  0.3696  0.1748 -0.2466
   15CHTO  H100 6130   7.235   2.626   0.891  2.4329  1.4705  0.2405
   15CHTO   C57 6131   7.061   2.835   1.089  0.4404  0.4649  0.8448
   15CHTO  H114 6132   7.022   2.883   1.000  1.0698 -0.0637  0.2819
   15CHTO   N10 6133   7.165   2.929   1.142  0.9355 -0.2358 -0.6773
   15CHTO  H106 6134   7.139   3.032   1.120  1.5598  0.0327 -0.1772
   15CHTO  H107 6135   7.185   2.921   1.248 -1.2663  2.4615  0.0237
   15CHTO   C58 6136   6.950   2.830   1.198  0.0406  0.1657 -0.8368
   15CHTO  H115 6137   6.991   2.810   1.299  0.7810 -1.8850 -1.5057
   15CHTO   O37 6138   6.861   2.721   1.162  0.0118  0.2338  0.6396
   15CHTO   C59 6139   6.919   2.596   1.162  0.1253  0.1342 -0.0332
   15CHTO  H116 6140   6.982   2.592   1.250 -0.8670 -0.4653  0.6572
   15CHTO   C70 6141   6.814   2.488   1.187 -0.4938 -0.2414 -0.8088
   15CHTO   O46 6142   6.704   2.494   1.093  0.1413  0.4479  0.0961
   15CHTO  H103 6143   6.720   2.535   1.010  1.0421  1.2450  0.6580
   15CHTO   O39 6144   6.858   2.955   1.194  0.4961  0.0377  0.1207
   15CHTO   C60 6145   6.787   2.984   1.320  0.2638 -0.0590 -0.5236
   15CHTO  H117 6146   6.744   2.899   1.372 -0.7242  2.0126  2.1522
   15CHTO   C62 6147   6.875   3.063   1.422 -0.0706 -0.6832 -0.5387
   15CHTO  H119 6148   6.955   2.993   1.455  0.3592  0.1404  0.2176
   15CHTO   O43 6149   6.918   3.194   1.366  0.5962 -0.2281  0.1114
   15CHTO  H101 6150   6.850   3.230   1.312  1.9172  1.6393 -0.3519
   15CHTO   C66 6151   6.780   3.083   1.556 -0.2258  0.4877  0.0661
   15CHTO  H123 6152   6.744   2.985   1.586 -1.4460  1.2391  1.0891
   15CHTO   N12 6153   6.846   3.136   1.676 -0.5177 -0.0372 -0.2359
   15CHTO  H110 6154   6.790   3.130   1.768  0.4992  0.0786  0.4011
   15CHTO  H111 6155   6.933   3.072   1.689 -0.8167 -0.2354  0.8498
   15CHTO   C69 6156   6.656   3.173   1.527 -0.1206 -0.0993  0.3476
   15CHTO  H126 6157   6.692   3.271   1.489 -0.6923 -0.3965 -0.9729
   15CHTO   O41 6158   6.575   3.096   1.403  0.0334  0.3746  0.3327
   15CHTO   C64 6159   6.671   3.064   1.276 -0.0618  0.2834  0.0236
   15CHTO  H121 6160   6.717   3.155   1.232 -0.6647 -0.0630 -1.3562
   15CHTO   C71 6161   6.584   2.999   1.170  0.2607  0.1065 -0.0864
   15CHTO   O47 6162   6.549   2.865   1.207  0.5327 -0.4171  0.2808
   15CHTO  H104 6163   6.478   2.864   1.269 -0.9076  0.3735 -1.3137
   15CHTO   O34 6164   6.554   3.190   1.651  0.1845 -0.2089 -0.1963
   15CHTO   C49 6165   6.453   3.327   1.675 -0.0350 -0.3385  0.8440
   15CHTO   H91 6166   6.513   3.409   1.714  0.5372 -0.6782  0.6860
   15CHTO   C47 6167   6.341   3.282   1.767  0.2901  0.3588  1.0729
   15CHTO   H89 6168   6.291   3.381   1.774  2.2400  1.3399  1.5406
   15CHTO   O33 6169   6.398   3.249   1.890  0.0131  0.1763  0.1403
   15CHTO   H70 6170   6.327   3.245   1.952 -0.2554  0.6269 -0.1326
   15CHTO   C45 6171   6.252   3.161   1.697 -0.1078 -0.3781 -0.2232
   15CHTO   H87 6172   6.289   3.064   1.733 -1.3562  0.1026  2.4950
   15CHTO    N8 6173   6.118   3.179   1.744  0.4488  0.3189  0.4233
   15CHTO   H75 6174   6.098   3.277   1.784 -0.4187  1.3135 -2.3654
   15CHTO   H76 6175   6.100   3.112   1.827 -1.3996 -0.4092 -0.5446
   15CHTO   C43 6176   6.271   3.161   1.542 -0.6855 -0.3837  0.8493
   15CHTO   H85 6177   6.369   3.114   1.535  1.1085  3.0297  1.8385
   15CHTO   O29 6178   6.275   3.295   1.495  0.0239 -0.2357 -0.0105
   15CHTO   C50 6179   6.392   3.371   1.536  0.0580  0.2109  0.3280
   15CHTO   H92 6180   6.470   3.355   1.460  0.3623 -0.9164  0.8635
   15CHTO   C54 6181   6.365   3.520   1.519 -0.4506 -0.8208  0.3075
   15CHTO   O36 6182   6.350   3.543   1.380  0.0338  0.3463  0.0313
   15CHTO   H72 6183   6.434   3.560   1.340 -0.3694 -1.4704 -1.6881
   15CHTO   O27 6184   6.185   3.070   1.459  0.5076  0.2260 -0.6939
   15CHTO   C37 6185   6.192   3.044   1.317 -0.6943  0.2721 -0.6367
   15CHTO   H79 6186   6.284   3.072   1.264 -2.2261 -0.3132 -3.7619
   15CHTO   C38 6187   6.187   2.887   1.293  0.0384 -0.1247  0.0216
   15CHTO   H80 6188   6.091   2.856   1.337 -0.0568 -0.4868 -0.4387
   15CHTO   O31 6189   6.296   2.829   1.366 -0.1597  0.0240 -0.0410
   15CHTO   H68 6190   6.284   2.842   1.459  1.1839  3.1628 -0.2589
   15CHTO   C39 6191   6.186   2.856   1.140  0.3156 -0.2661  0.2962
   15CHTO   H81 6192   6.280   2.887   1.094  0.4281  1.2846  1.5561
   15CHTO    N7 6193   6.162   2.712   1.102 -0.0741 -0.0856  0.2191
   15CHTO   H73 6194   6.249   2.665   1.059 -0.7784 -1.4719  0.2636
   15CHTO   H74 6195   6.077   2.708   1.035  2.1495  1.6529 -2.8058
   15CHTO   C40 6196   6.069   2.937   1.078  0.5572 -0.0047 -1.1090
   15CHTO   H82 6197   5.968   2.911   1.111  0.2780  1.4170 -0.8081
   15CHTO   O26 6198   6.096   3.075   1.113 -0.0992  0.2887  0.2194
   15CHTO   C41 6199   6.075   3.106   1.247 -0.0110 -0.1643  0.0276
   15CHTO   H83 6200   5.979   3.070   1.288 -0.9055  1.2972 -0.7346
   15CHTO   C52 6201   6.080   3.255   1.257 -0.6221 -0.3082 -0.6597
   15CHTO   O35 6202   5.983   3.322   1.199  0.6358 -0.0492 -0.0440
   15CHTO   H71 6203   5.995   3.324   1.106 -0.0514  1.0138 -0.1142
   15CHTO   O28 6204   6.062   2.940   0.933 -0.0281  0.0841  0.2164
   15CHTO   C42 6205   6.145   3.017   0.835 -0.1687 -0.6570  0.3386
   15CHTO   H84 6206   6.122   2.962   0.743  0.6609 -2.3285  1.1166
   15CHTO   C44 6207   6.297   3.022   0.853  0.0475  0.2618 -0.0489
   15CHTO   H86 6208   6.314   3.080   0.944 -1.5617  0.4564  0.1367
   15CHTO   O32 6209   6.351   2.890   0.872  0.3906 -0.5750  0.6762
   15CHTO   H69 6210   6.438   2.900   0.906  0.8388  0.1248 -0.6368
   15CHTO   C48 6211   6.373   3.112   0.742 -0.8256 -0.2821  0.8810
   15CHTO   H90 6212   6.378   3.046   0.656 -0.0627  1.9213 -0.8057
   15CHTO    N9 6213   6.517   3.123   0.772  0.7330  0.0725  0.6697
   15CHTO   H77 6214   6.568   3.166   0.687  1.2275  0.4166  1.1346
   15CHTO   H78 6215   6.527   3.179   0.864 -2.2296  1.2141  0.3519
   15CHTO   C51 6216   6.307   3.249   0.705 -0.3994 -0.6541 -0.2576
   15CHTO   H93 6217   6.337   3.316   0.786  2.2078 -0.9023 -0.9718
   15CHTO   O30 6218   6.168   3.238   0.690 -0.1449 -0.0247  1.0403
   15CHTO   C46 6219   6.091   3.165   0.815  0.1592 -0.2050  0.3074
   15CHTO   H88 6220   6.114   3.228   0.901  0.0191  0.5840 -0.2292
   15CHTO   C53 6221   5.943   3.162   0.781 -0.2330  0.6937  0.2853
   15CHTO   O72 6222   5.880   3.167   0.904 -0.0953 -0.3649  0.1037
   15CHTO  H199 6223   5.805   3.112   0.899 -0.3301 -0.1676  1.3858
   15CHTO   O22 6224   6.355   3.306   0.586  0.6894 -0.3866  0.5768
   15CHTO   C31 6225   6.354   3.447   0.553 -0.5205 -0.0562 -0.0100
   15CHTO   H59 6226   6.379   3.452   0.445 -0.1635 -3.9964 -0.1607
   15CHTO   C29 6227   6.220   3.521   0.571 -0.5452 -0.5715 -0.0320
   15CHTO   H57 6228   6.206   3.508   0.680  1.5604 -4.3647 -0.1147
   15CHTO   O21 6229   6.116   3.456   0.494 -0.7658 -0.3703 -0.1254
   15CHTO   H37 6230   6.045   3.514   0.477 -3.1042 -3.0025  0.1926
   15CHTO   C27 6231   6.237   3.675   0.541 -0.2083  0.5068 -0.7561
   15CHTO   H55 6232   6.258   3.691   0.434  1.1402 -2.0082 -0.9043
   15CHTO    N5 6233   6.111   3.744   0.580 -0.5772 -0.9133 -0.5592
   15CHTO   H43 6234   6.037   3.716   0.507 -1.9078  1.2635 -0.1120
   15CHTO   H44 6235   6.085   3.714   0.681  0.5312  0.0111  0.0239
   15CHTO   C25 6236   6.371   3.735   0.609  0.3433  0.2230  0.3241
   15CHTO   H53 6237   6.368   3.738   0.719  2.8277  0.1552  0.4293
   15CHTO   O17 6238   6.486   3.657   0.573 -0.1374  0.2062 -0.1267
   15CHTO   C32 6239   6.474   3.521   0.619  0.5763 -0.2110  0.4752
   15CHTO   H60 6240   6.460   3.522   0.727  0.9622 -2.1502  0.5633
   15CHTO   C36 6241   6.612   3.446   0.594 -0.2297  0.9435 -0.0552
   15CHTO   O25 6242   6.714   3.484   0.681  0.1518  0.2023  0.3682
   15CHTO   H40 6243   6.796   3.489   0.635 -0.2279 -0.5873 -0.4032
   15CHTO   O15 6244   6.410   3.869   0.559 -0.0596  0.0393 -0.5248
   15CHTO   C19 6245   6.437   4.002   0.611 -0.7504 -0.5917 -0.3217
   15CHTO   H47 6246   6.494   4.049   0.530  2.5377 -0.9956  1.6907
   15CHTO   C20 6247   6.307   4.084   0.641  0.2858  0.4779 -0.7149
   15CHTO   H48 6248   6.242   4.039   0.717  1.2548 -0.8187 -0.6342
   15CHTO   O19 6249   6.222   4.075   0.523 -0.3114 -0.4087  0.5223
   15CHTO   H35 6250   6.132   4.059   0.542 -0.3320  0.7280  1.4502
   15CHTO   C21 6251   6.355   4.230   0.691 -0.7563  0.0519 -0.2120
   15CHTO   H49 6252   6.418   4.277   0.615 -0.5899  0.7372  0.3465
   15CHTO    N4 6253   6.238   4.318   0.718 -0.2624  0.1310  0.2305
   15CHTO   H41 6254   6.216   4.387   0.638  1.0945 -0.6585 -0.8388
   15CHTO   H42 6255   6.149   4.259   0.732  1.1287 -1.9455  0.4753
   15CHTO   C22 6256   6.452   4.212   0.815  0.5444 -0.0830 -0.3513
   15CHTO   H50 6257   6.401   4.168   0.900  1.1885  0.3132  0.2388
   15CHTO   O14 6258   6.565   4.137   0.771  0.4220 -0.1186  0.4931
   15CHTO   C23 6259   6.529   4.003   0.736 -0.5815  0.6094 -0.4573
   15CHTO   H51 6260   6.479   3.962   0.825  1.0317  2.7354  1.4764
   15CHTO   C34 6261   6.658   3.918   0.723  0.3409 -0.6164 -0.8359
   15CHTO   O23 6262   6.756   3.990   0.647  0.0700  0.6034  0.2302
   15CHTO   H38 6263   6.719   4.025   0.568  1.3022  1.6622  0.1089
   15CHTO   O16 6264   6.499   4.343   0.855  0.5084 -0.3963  0.3956
   15CHTO   C24 6265   6.509   4.364   1.015  0.0881  0.0522 -0.0881
   15CHTO   H52 6266   6.518   4.267   1.065  1.5206  0.6056  0.7580
   15CHTO   C26 6267   6.386   4.446   1.065  0.3833 -0.0163  0.1668
   15CHTO   H54 6268   6.379   4.539   1.003 -2.8814 -0.0787  0.3530
   15CHTO   O20 6269   6.262   4.373   1.035 -0.1348  0.0622 -0.3963
   15CHTO   H36 6270   6.189   4.419   1.071  1.1333  2.9537 -1.3962
   15CHTO   C30 6271   6.404   4.478   1.220  0.4465  0.0553  0.1120
   15CHTO   H58 6272   6.386   4.386   1.279  1.9179  0.8561  1.8585
   15CHTO    N6 6273   6.296   4.570   1.254  0.2310 -0.4053  0.4864
   15CHTO   H45 6274   6.271   4.626   1.165  1.0033  0.0317  0.5345
   15CHTO   H46 6275   6.206   4.520   1.285 -1.8133  1.7684 -1.7034
   15CHTO   C33 6276   6.550   4.533   1.252 -0.6877 -0.0050 -0.0685
   15CHTO   H61 6277   6.566   4.636   1.219  1.8306 -0.6315 -0.8502
   15CHTO   O18 6278   6.649   4.458   1.183 -0.2658 -0.0407  0.2201
   15CHTO   C28 6279   6.642   4.435   1.042 -0.2855 -0.4461 -0.0149
   15CHTO   H56 6280   6.641   4.525   0.981  0.5734 -0.5777 -0.2284
   15CHTO   C35 6281   6.757   4.355   0.986 -0.1231  0.4026 -0.0650
   15CHTO   O24 6282   6.761   4.211   1.015  0.2832  0.3182 -0.0499
   15CHTO   H39 6283   6.796   4.160   0.944 -0.3002  2.3506 -1.8666
   15CHTO    O9 6284   6.573   4.535   1.395 -0.3228  0.1277 -0.3924
   15CHTO   C13 6285   6.671   4.447   1.457  0.1088 -0.0519  0.2311
   15CHTO   H26 6286   6.771   4.459   1.409  0.5273 -1.6679  0.6816
   15CHTO   C11 6287   6.630   4.292   1.458  1.1344 -0.6024  0.2923
   15CHTO   H24 6288   6.605   4.258   1.356  0.9677 -0.3057  0.2342
   15CHTO    O8 6289   6.510   4.288   1.537 -0.6293  0.0490 -0.7557
   15CHTO    H3 6290   6.516   4.215   1.596  0.8020 -0.4846 -1.5486
   15CHTO    C9 6291   6.749   4.209   1.524 -0.3768 -0.1236 -0.0619
   15CHTO   H22 6292   6.824   4.204   1.445  1.5090 -2.1321  1.7799
   15CHTO    N2 6293   6.728   4.062   1.548  0.1723  0.1051 -0.0500
   15CHTO   H10 6294   6.626   4.029   1.553 -0.2318  1.2109 -0.8059
   15CHTO   H11 6295   6.796   4.036   1.628 -0.8800 -1.3105  0.3992
   15CHTO    C7 6296   6.818   4.289   1.647  0.0338  0.2048  0.1391
   15CHTO   H20 6297   6.912   4.331   1.605 -0.9766  1.8744 -0.4910
   15CHTO    O4 6298   6.736   4.400   1.693 -0.1091  0.0109  0.0098
   15CHTO   C14 6299   6.700   4.507   1.602  0.0738 -0.7445  0.1758
   15CHTO   H27 6300   6.786   4.578   1.593 -0.8285  0.3771  0.3100
   15CHTO   C18 6301   6.585   4.591   1.654 -0.0906  0.3618  0.0051
   15CHTO   O13 6302   6.625   4.682   1.762 -0.0298  0.5624  0.3248
   15CHTO    H7 6303   6.569   4.736   1.815 -0.0605 -0.3442  1.2579
   15CHTO    O2 6304   6.869   4.200   1.791 -0.2932 -0.0472  0.0220
   15CHTO    C1 6305   7.010   4.200   1.815 -0.1950  0.5671  0.4816
   15CHTO   H14 6306   7.055   4.294   1.776 -0.0511  0.3623  0.1595
   15CHTO    C2 6307   7.095   4.084   1.739 -0.4814 -0.8454  0.0184
   15CHTO   H15 6308   7.040   3.991   1.759 -1.4866 -0.8059 -2.3870
   15CHTO    O6 6309   7.082   4.112   1.600  0.1663 -0.8974  0.2182
   15CHTO    H1 6310   7.010   4.066   1.562  0.5136 -2.1290  1.0475
   15CHTO    C3 6311   7.248   4.077   1.782  0.5629 -0.2329  0.2208
   15CHTO   H16 6312   7.310   4.162   1.749  1.7623 -1.0005  0.4713
   15CHTO    N1 6313   7.304   3.943   1.723  0.3643  0.3265  0.0313
   15CHTO    H8 6314   7.335   3.966   1.622  1.0554  0.0580  0.1808
   15CHTO    H9 6315   7.388   3.912   1.784  0.3024 -0.3354 -0.2145
   15CHTO    C4 6316   7.245   4.083   1.939 -0.9487  0.2880  0.6184
   15CHTO   H17 6317   7.197   3.994   1.980  0.5864  0.6303  3.2192
   15CHTO    O1 6318   7.179   4.195   1.987  0.3315  0.3697 -0.0370
   15CHTO    C5 6319   7.035   4.189   1.967  0.5840 -0.5530  0.7215
   15CHTO   H18 6320   6.990   4.097   2.006 -1.2509 -0.6480 -1.5504
   15CHTO   C16 6321   6.983   4.307   2.041 -0.5494  0.0111  0.4412
   15CHTO   O11 6322   6.842   4.322   2.040 -0.4738 -0.5664  0.1693
   15CHTO    H5 6323   6.788   4.276   2.101 -0.0181  0.4521  1.3836
   15CHTO    O3 6324   7.382   4.082   1.997 -0.1806  0.0715  0.0440
   15CHTO    C6 6325   7.395   4.034   2.140 -0.2816 -0.5025 -0.2759
   15CHTO   H19 6326   7.304   4.004   2.191 -1.7792  0.8877 -2.0293
   15CHTO    C8 6327   7.479   3.902   2.134 -0.0543  0.2270 -0.1007
   15CHTO   H21 6328   7.569   3.920   2.076  1.4330  1.8735  2.6353
   15CHTO    O7 6329   7.401   3.803   2.064  0.9830 -0.0114 -0.8324
   15CHTO    H2 6330   7.372   3.835   1.981 -0.4142  1.9052  0.3615
   15CHTO   C12 6331   7.526   3.860   2.283  0.2148  0.2010 -0.0913
   15CHTO   H25 6332   7.430   3.840   2.336  1.4188 -0.3968  1.8874
   15CHTO    N3 6333   7.598   3.725   2.287  0.3610  0.2344  0.2216
   15CHTO   H12 6334   7.546   3.639   2.327 -0.4284  1.0304  0.9395
   15CHTO   H13 6335   7.649   3.698   2.196 -0.8412 -1.4368  0.0286
   15CHTO   C15 6336   7.603   3.978   2.337 -0.1328  0.4135  0.3659
   15CHTO   H28 6337   7.689   4.001   2.275 -0.1556  0.7719  0.4663
   15CHTO   O10 6338   7.650   3.975   2.492  0.4016 -0.2940 -0.3028
   15CHTO    H4 6339   7.733   3.932   2.497  0.5519  0.0239 -0.0608
   15CHTO    O5 6340   7.508   4.090   2.346 -0.5512  0.6393  0.2285
   15CHTO   C10 6341   7.466   4.147   2.224 -0.5059 -0.2080 -0.0239
   15CHTO   H23 6342   7.547   4.177   2.159 -1.2988 -0.8635 -1.3339
   15CHTO   C17 6343   7.385   4.272   2.269  0.5159  0.5882 -0.6806
   15CHTO   O12 6344   7.268   4.235   2.335 -0.4097 -0.1982  0.1215
   15CHTO    H6 6345   7.228   4.306   2.382 -0.3446 -0.4788  0.6129
   16CHTO  H203 6346   5.497   3.642   0.554  0.5676  0.8652 -0.1059
   16CHTO   O82 6347   5.496   3.666   0.645  0.2063 -0.3900  0.2300
   16CHTO  C123 6348   5.626   3.699   0.704 -0.5393 -0.3710  1.0004
   16CHTO  H227 6349   5.705   3.667   0.634  0.9340  1.0591  1.9578
   16CHTO   O77 6350   5.615   3.846   0.732 -0.0873 -0.2013 -0.0338
   16CHTO  C118 6351   5.726   3.893   0.802 -0.5531 -0.0630 -0.3019
   16CHTO  H222 6352   5.811   3.865   0.738 -0.2227  2.4470 -0.9980
   16CHTO  C125 6353   5.709   4.046   0.806 -0.7400 -0.1171  0.3006
   16CHTO   O84 6354   5.596   4.091   0.879  0.0379 -0.4073  0.2836
   16CHTO  H205 6355   5.516   4.079   0.831  0.9505  0.9547 -1.6444
   16CHTO  C114 6356   5.743   3.840   0.945  0.4170 -0.0029  0.3778
   16CHTO  H218 6357   5.648   3.858   0.995 -0.6083 -1.0372 -1.1377
   16CHTO  C116 6358   5.752   3.678   0.934  0.0582  0.2854  0.0325
   16CHTO  H220 6359   5.854   3.663   0.895  0.5871 -1.1830  1.8784
   16CHTO   O79 6360   5.746   3.620   1.064 -0.1883 -0.0795  0.0918
   16CHTO  H201 6361   5.828   3.589   1.095  0.2437  0.4080 -0.5428
   16CHTO  C120 6362   5.639   3.619   0.835 -0.2676 -0.2810 -0.2790
   16CHTO  H224 6363   5.542   3.625   0.888  1.4170  0.6037  2.8060
   16CHTO   N21 6364   5.669   3.470   0.816 -0.2786  0.0511 -0.0229
   16CHTO  H211 6365   5.737   3.461   0.733  1.2781  1.2872  1.0778
   16CHTO  H212 6366   5.577   3.417   0.800 -0.5293 -0.6687  3.3797
   16CHTO   O75 6367   5.854   3.915   1.008  0.0744  0.4417  0.4962
   16CHTO  C112 6368   6.004   3.878   0.982 -0.3678 -0.3179 -0.5478
   16CHTO  H216 6369   6.017   3.883   0.873 -1.3488 -0.2664 -0.6636
   16CHTO   O73 6370   6.033   3.750   1.036 -0.6333  0.5957  0.2952
   16CHTO  C113 6371   6.170   3.703   0.997  0.2473  0.6100  0.0191
   16CHTO  H217 6372   6.184   3.720   0.888 -0.7034  1.1101 -0.0266
   16CHTO  C124 6373   6.184   3.549   1.030  0.1850  0.0279 -0.3265
   16CHTO   O83 6374   6.106   3.474   0.948 -0.6636  0.0333  0.0225
   16CHTO  H204 6375   6.115   3.384   0.972  1.4306  0.1579 -0.1987
   16CHTO  C109 6376   6.272   3.792   1.074  0.4936  0.0534  0.9568
   16CHTO  H213 6377   6.252   3.775   1.181 -0.6858  2.9189  1.2541
   16CHTO  C110 6378   6.249   3.941   1.037  0.0658 -0.3435  0.3692
   16CHTO  H214 6379   6.265   3.949   0.930  0.0433 -2.3136  0.2011
   16CHTO   O78 6380   6.345   4.023   1.111  0.4857  0.5488  0.0766
   16CHTO  H200 6381   6.430   3.996   1.082 -0.7995 -2.9200 -0.7001
   16CHTO  C111 6382   6.100   3.982   1.058 -1.2804  0.1960  0.2107
   16CHTO  H215 6383   6.079   3.973   1.166  0.8109 -0.4012  0.5910
   16CHTO   N19 6384   6.067   4.123   1.019  0.1691  0.3612 -0.2605
   16CHTO  H207 6385   5.960   4.141   1.018 -0.3937 -2.6039  0.5581
   16CHTO  H208 6386   6.111   4.154   0.925 -1.5129 -0.4294 -1.3390
   16CHTO   O74 6387   6.411   3.772   1.036 -0.1831  0.7826 -0.6776
   16CHTO  C115 6388   6.499   3.663   1.097 -0.3828  0.9154  0.0327
   16CHTO  H219 6389   6.446   3.601   1.169  1.1975  0.2369  0.6487
   16CHTO   O76 6390   6.548   3.561   0.991  0.0641  0.3061  0.3081
   16CHTO  C122 6391   6.621   3.452   1.048  0.1590 -0.4104  0.1556
   16CHTO  H226 6392   6.662   3.393   0.966  0.9658  0.3020  0.0310
   16CHTO  C126 6393   6.531   3.347   1.127 -0.0550 -0.2939  0.3279
   16CHTO   O85 6394   6.408   3.314   1.054 -0.0967 -0.0062 -0.3249
   16CHTO  H206 6395   6.439   3.259   0.985 -0.1304 -1.6962  0.9711
   16CHTO  C121 6396   6.747   3.498   1.140  0.0273  0.5967  0.7819
   16CHTO  H225 6397   6.775   3.410   1.201 -1.9208 -1.4476 -1.1383
   16CHTO   O81 6398   6.862   3.540   1.060  0.4844  0.6443 -0.1311
   16CHTO  H202 6399   6.914   3.474   1.018 -0.8758 -1.3369  1.2013
   16CHTO  C119 6400   6.707   3.613   1.237 -0.2479 -0.5181 -1.0965
   16CHTO  H223 6401   6.641   3.563   1.308  0.8131  1.6278  1.4804
   16CHTO  C117 6402   6.629   3.729   1.165 -0.1087 -0.2005 -0.4003
   16CHTO  H221 6403   6.682   3.776   1.083 -0.4823 -0.4032 -0.7601
   16CHTO   N20 6404   6.593   3.839   1.254  0.3388  0.3608  0.0372
   16CHTO  H209 6405   6.680   3.902   1.265  1.3091 -1.2729  2.0754
   16CHTO  H210 6406   6.570   3.797   1.351  0.1269  0.3090 -0.0352
   16CHTO   O80 6407   6.844   3.663   1.346 -0.2195  0.5533 -0.5882
   16CHTO  C103 6408   6.907   3.560   1.442  0.3101 -0.0686 -0.0171
   16CHTO  H190 6409   6.869   3.461   1.417 -1.3104  0.8032 -1.1029
   16CHTO  C101 6410   7.064   3.550   1.428  0.4572 -0.4604 -1.2738
   16CHTO  H188 6411   7.105   3.647   1.455 -2.9313 -0.2339  3.9116
   16CHTO   O68 6412   7.108   3.499   1.289 -0.3496  0.4558  0.3537
   16CHTO  H168 6413   7.078   3.564   1.227 -0.4427  0.2715  0.2056
   16CHTO   C99 6414   7.106   3.441   1.542  0.6312 -0.1286  0.6414
   16CHTO  H186 6415   7.067   3.338   1.528 -1.4123  0.6947  0.0217
   16CHTO   N17 6416   7.258   3.425   1.561 -0.7673 -0.2578 -0.2168
   16CHTO  H174 6417   7.290   3.468   1.655 -3.3224  1.4155 -0.0487
   16CHTO  H175 6418   7.279   3.319   1.556  0.5800  0.0908 -2.2203
   16CHTO   C97 6419   7.049   3.484   1.682 -0.1787  0.4183 -0.1092
   16CHTO  H184 6420   7.092   3.582   1.708 -0.1176  0.3428  0.0789
   16CHTO   O64 6421   6.910   3.488   1.672  0.5765  0.3525  0.0160
   16CHTO  C104 6422   6.859   3.594   1.586 -0.2008  0.2093 -0.2205
   16CHTO  H191 6423   6.906   3.689   1.610  1.3129 -0.2898 -1.1264
   16CHTO  C108 6424   6.703   3.605   1.599 -0.5525 -0.9215 -0.2216
   16CHTO   O71 6425   6.669   3.642   1.736  0.1289  0.1043  0.5761
   16CHTO  H171 6426   6.669   3.734   1.753 -0.8158  0.2570 -0.2285
   16CHTO   O62 6427   7.081   3.384   1.779  0.1353  0.1495  0.4030
   16CHTO   C91 6428   7.106   3.438   1.911  0.8641 -0.4508 -0.2164
   16CHTO  H178 6429   7.184   3.510   1.886 -0.1184 -0.4615 -3.6075
   16CHTO   C92 6430   7.166   3.320   1.990  0.1128  0.1348 -1.2805
   16CHTO  H179 6431   7.128   3.227   1.945  2.3478 -1.3930 -0.1376
   16CHTO   O66 6432   7.309   3.299   1.972 -0.6264 -0.3616  0.5511
   16CHTO  H166 6433   7.328   3.299   1.880  0.9596 -0.4859  0.8593
   16CHTO   C93 6434   7.130   3.320   2.148 -0.0743 -0.6422  0.4654
   16CHTO  H180 6435   7.185   3.398   2.203 -1.0678 -0.1405  0.7690
   16CHTO   N16 6436   7.163   3.191   2.209  0.3093  0.4608 -0.0513
   16CHTO  H172 6437   7.127   3.188   2.311 -0.5716  1.5476 -0.3116
   16CHTO  H173 6438   7.270   3.177   2.213  0.5300  2.1788  0.8497
   16CHTO   C94 6439   6.979   3.352   2.148  0.1339 -0.4868  0.1238
   16CHTO  H181 6440   6.925   3.296   2.072 -0.4046 -0.3255  0.3863
   16CHTO   O61 6441   6.965   3.491   2.119 -0.3836 -0.3999 -0.3034
   16CHTO   C95 6442   6.984   3.512   1.981 -0.3098  0.0610  0.1535
   16CHTO  H182 6443   6.890   3.483   1.935 -0.7321 -0.5587  1.3767
   16CHTO  C106 6444   6.982   3.662   1.955  0.5147 -0.1150  0.1317
   16CHTO   O69 6445   7.081   3.732   2.031 -0.2597 -0.0916 -0.3412
   16CHTO  H169 6446   7.136   3.678   2.084 -1.5928 -0.5269  0.6461
   16CHTO   O63 6447   6.907   3.326   2.293 -0.5286  0.2336 -0.6495
   16CHTO   C96 6448   6.829   3.202   2.317 -0.0184 -0.2527  0.1221
   16CHTO  H183 6449   6.902   3.122   2.329 -1.4010 -1.3057  1.7695
   16CHTO   C98 6450   6.725   3.161   2.203 -0.0645  0.0894  0.9007
   16CHTO  H185 6451   6.772   3.148   2.105 -1.0287 -0.0868  0.4526
   16CHTO   O67 6452   6.662   3.028   2.236  0.4500  0.0636 -0.0973
   16CHTO  H167 6453   6.607   3.002   2.164  2.1157 -2.1478 -0.6530
   16CHTO  C102 6454   6.605   3.267   2.185  0.0874 -0.6228 -0.8728
   16CHTO  H189 6455   6.518   3.205   2.157 -1.5755  0.1024  2.4913
   16CHTO   N18 6456   6.621   3.365   2.080 -0.0345  0.0396  0.3691
   16CHTO  H176 6457   6.662   3.460   2.111 -0.0451  0.8923 -2.0955
   16CHTO  H177 6458   6.527   3.381   2.029 -0.8263 -1.5951  1.2571
   16CHTO  C105 6459   6.563   3.319   2.326  0.2703 -0.7738  0.1163
   16CHTO  H192 6460   6.608   3.417   2.337 -0.3131 -0.2086 -2.1909
   16CHTO   O65 6461   6.600   3.232   2.434 -0.2468  0.3330  0.2106
   16CHTO  C100 6462   6.744   3.223   2.452 -0.1474  0.0324 -0.3369
   16CHTO  H187 6463   6.779   3.314   2.505 -0.0571 -1.0491  1.5134
   16CHTO  C107 6464   6.775   3.111   2.547  0.6334  0.2343 -0.0148
   16CHTO   O70 6465   6.775   3.155   2.681  0.2036  0.3981 -0.3135
   16CHTO  H170 6466   6.864   3.172   2.704  0.0138  0.8873  0.0643
   16CHTO   O57 6467   6.397   3.335   2.324  0.2816 -0.1452  0.3000
   16CHTO   C85 6468   6.322   3.453   2.368 -0.4040 -0.1720  0.1912
   16CHTO  H157 6469   6.361   3.524   2.292  1.6201 -0.0999  1.2676
   16CHTO   C83 6470   6.373   3.506   2.509  0.0754 -0.3783 -0.2815
   16CHTO  H155 6471   6.473   3.548   2.508  0.0042 -0.0188  2.6047
   16CHTO   O56 6472   6.386   3.401   2.611 -0.1718  0.1525 -0.0313
   16CHTO  H135 6473   6.451   3.430   2.673 -0.5143  0.3830  0.2257
   16CHTO   C81 6474   6.280   3.624   2.559 -0.2857  0.0421  0.2313
   16CHTO  H153 6475   6.283   3.705   2.486  1.1379 -0.4122 -0.2333
   16CHTO   N14 6476   6.321   3.683   2.688  0.6133  0.0293 -0.2619
   16CHTO  H141 6477   6.427   3.695   2.681  0.8300 -2.5739 -1.9465
   16CHTO  H142 6478   6.279   3.777   2.718 -1.0011  0.0866 -2.5832
   16CHTO   C79 6479   6.130   3.581   2.565 -0.0608 -0.2351 -0.0818
   16CHTO  H151 6480   6.074   3.673   2.583  1.1121  0.4079  0.3606
   16CHTO   O52 6481   6.085   3.525   2.436 -0.4056  0.4344 -0.1107
   16CHTO   C86 6482   6.167   3.427   2.364  0.1323  0.3093  0.2965
   16CHTO  H158 6483   6.149   3.333   2.420 -0.4160  1.2078  1.6693
   16CHTO   C90 6484   6.114   3.404   2.226 -0.6156 -0.1313 -0.1918
   16CHTO   O60 6485   5.972   3.387   2.230  0.0812 -0.3872 -0.4430
   16CHTO  H138 6486   5.963   3.312   2.175 -2.1731 -0.1652 -0.4148
   16CHTO   O50 6487   6.093   3.484   2.666  0.0608  0.3805 -0.1867
   16CHTO   C73 6488   6.010   3.390   2.735  0.8594 -0.4787  0.7808
   16CHTO  H145 6489   6.073   3.334   2.807  0.1696  0.5669  2.2234
   16CHTO   C74 6490   5.952   3.284   2.626 -0.1681 -0.7085 -0.0410
   16CHTO  H146 6491   6.030   3.254   2.555 -0.4818  0.8377 -1.0832
   16CHTO   O54 6492   5.918   3.164   2.697 -0.3148  0.0415 -0.3082
   16CHTO  H133 6493   5.916   3.089   2.641 -0.6880  0.0160 -0.2617
   16CHTO   C75 6494   5.831   3.349   2.557  0.1026 -0.4319  0.6777
   16CHTO  H147 6495   5.866   3.418   2.478  0.7706  0.4785  1.7610
   16CHTO   N13 6496   5.742   3.254   2.474 -0.1137  0.1449  0.4460
   16CHTO  H139 6497   5.807   3.190   2.416  1.2801  1.5107  0.4857
   16CHTO  H140 6498   5.669   3.304   2.412  0.6730  1.1678  0.3463
   16CHTO   C76 6499   5.736   3.437   2.654  0.8463 -0.9191 -0.1991
   16CHTO  H148 6500   5.677   3.370   2.716  1.8238 -1.0017  0.6380
   16CHTO   O49 6501   5.818   3.532   2.728  0.4790 -0.0415  0.3937
   16CHTO   C77 6502   5.908   3.464   2.816 -0.4025  0.9594 -0.1392
   16CHTO  H149 6503   5.849   3.392   2.872  1.9974 -1.7743 -0.9568
   16CHTO   C88 6504   5.967   3.561   2.927 -0.1028  0.0152  0.0340
   16CHTO   O58 6505   6.039   3.492   3.033  0.2404 -0.5628 -0.2343
   16CHTO  H136 6506   5.965   3.462   3.083  0.0026 -0.0603 -0.2909
   16CHTO   O51 6507   5.647   3.521   2.564  0.2328  0.0230  0.5869
   16CHTO   C78 6508   5.580   3.658   2.648  0.2736 -0.3732  0.3311
   16CHTO  H150 6509   5.628   3.672   2.748 -2.7755  2.4394  1.5038
   16CHTO   C80 6510   5.426   3.642   2.664  0.0290 -0.6580  0.6484
   16CHTO  H152 6511   5.378   3.615   2.568  0.2560 -2.1143  0.9336
   16CHTO   O55 6512   5.386   3.522   2.740 -0.5846 -0.2167 -0.4479
   16CHTO  H134 6513   5.460   3.487   2.787 -1.7155 -0.4954  1.1506
   16CHTO   C84 6514   5.356   3.772   2.725  0.4479 -0.5282  0.9269
   16CHTO  H156 6515   5.393   3.781   2.827 -1.3953  1.8845  1.4499
   16CHTO   N15 6516   5.207   3.765   2.744  0.0100  0.1785  0.7773
   16CHTO  H143 6517   5.172   3.861   2.774 -1.2106  0.0452 -0.1572
   16CHTO  H144 6518   5.158   3.740   2.652 -1.4833  0.2422  1.5489
   16CHTO   C87 6519   5.392   3.903   2.647 -0.2486  0.1955 -0.4121
   16CHTO  H159 6520   5.336   3.902   2.553 -0.2776  0.0251 -0.3927
   16CHTO   O53 6521   5.561   3.897   2.625 -0.0673 -0.0000  0.0231
   16CHTO   C82 6522   5.618   3.779   2.558  0.5181  0.8427 -0.3581
   16CHTO  H154 6523   5.569   3.760   2.462  0.0464 -2.9878  0.5704
   16CHTO   C89 6524   5.768   3.803   2.528 -0.2699  0.4066 -0.4835
   16CHTO   O59 6525   5.852   3.799   2.637 -0.3626 -0.0009 -0.4132
   16CHTO  H137 6526   5.847   3.882   2.680 -1.6722  1.1531 -2.6699
   16CHTO   O45 6527   5.343   4.046   2.743 -0.0701 -0.2925  0.0484
   16CHTO   C67 6528   5.448   4.139   2.754 -0.0730 -0.1318 -0.2895
   16CHTO  H124 6529   5.540   4.104   2.708  0.7101  1.1078  0.3030
   16CHTO   C65 6530   5.412   4.273   2.678  0.4543  0.2361  0.0971
   16CHTO  H122 6531   5.303   4.275   2.672  0.4109  2.5659  1.0944
   16CHTO   O44 6532   5.461   4.269   2.542  0.4023  0.0863 -1.0065
   16CHTO  H102 6533   5.448   4.346   2.491 -0.7144  0.9754  0.5724
   16CHTO   C63 6534   5.454   4.403   2.765 -0.3976 -0.2392 -0.3665
   16CHTO  H120 6535   5.385   4.398   2.850 -1.0780 -1.6202 -0.9818
   16CHTO   N11 6536   5.426   4.536   2.708 -0.0433  0.8443  0.2072
   16CHTO  H108 6537   5.393   4.529   2.607  1.4507 -0.1186 -0.2198
   16CHTO  H109 6538   5.355   4.592   2.766  0.4999  1.4927  0.2482
   16CHTO   C61 6539   5.601   4.380   2.813  0.3978 -0.0173  0.9124
   16CHTO  H118 6540   5.631   4.467   2.872 -1.6093  1.6075 -0.3722
   16CHTO   O40 6541   5.617   4.260   2.900 -0.2087 -0.3311 -0.3350
   16CHTO   C68 6542   5.497   4.169   2.904  0.0889 -0.9869  0.3822
   16CHTO  H125 6543   5.417   4.213   2.967  0.3903  3.1960 -2.0300
   16CHTO   C72 6544   5.550   4.045   2.976  0.1946 -0.1574  0.1805
   16CHTO   O48 6545   5.437   3.968   3.032 -0.1186  0.1938 -0.3862
   16CHTO  H105 6546   5.451   3.876   3.023 -2.4296 -0.4524  1.8920
   16CHTO   O38 6547   5.690   4.379   2.696 -0.1673 -0.9125 -0.3951
   16CHTO   C55 6548   5.830   4.391   2.720 -0.2843 -0.5245 -0.2465
   16CHTO  H112 6549   5.846   4.361   2.824 -0.4740 -1.3676 -0.4559
   16CHTO   C56 6550   5.885   4.536   2.685 -0.6257  0.1753 -0.2291
   16CHTO  H113 6551   5.845   4.548   2.583 -0.9825 -3.5874 -0.5860
   16CHTO   O42 6552   5.820   4.624   2.774 -0.6412 -0.1045  0.3823
   16CHTO  H100 6553   5.854   4.711   2.764 -1.5324  0.2176  0.0443
   16CHTO   C57 6554   6.043   4.543   2.681 -0.1097 -0.2579  0.2647
   16CHTO  H114 6555   6.063   4.540   2.788 -0.2803 -0.3190  0.2950
   16CHTO   N10 6556   6.091   4.672   2.622  0.2688  0.1824  0.0008
   16CHTO  H106 6557   6.123   4.735   2.703  0.9856  0.3602 -0.4215
   16CHTO  H107 6558   6.175   4.660   2.556  0.9043  2.0003  0.4526
   16CHTO   C58 6559   6.108   4.421   2.617  0.1683 -0.2951  0.7486
   16CHTO  H115 6560   6.101   4.432   2.506  2.8344  0.0002  0.5930
   16CHTO   O37 6561   6.052   4.298   2.661  0.3385  0.1822  0.4278
   16CHTO   C59 6562   5.910   4.283   2.639 -0.9582  0.5215 -0.0514
   16CHTO  H116 6563   5.889   4.283   2.532  1.4164  2.2398 -0.5684
   16CHTO   C70 6564   5.867   4.143   2.681  0.1322 -0.6652 -0.0090
   16CHTO   O46 6565   5.930   4.080   2.796  0.2272 -0.1280 -0.5981
   16CHTO  H103 6566   5.895   3.995   2.811 -1.2372  0.5246 -0.1595
   16CHTO   O39 6567   6.277   4.413   2.642  0.6414  0.0582 -0.0818
   16CHTO   C60 6568   6.341   4.357   2.527  0.6062 -0.2920 -0.8436
   16CHTO  H117 6569   6.270   4.314   2.456 -0.7676  0.0282  0.3175
   16CHTO   C62 6570   6.421   4.465   2.459 -0.9121  0.2416 -0.0486
   16CHTO  H119 6571   6.363   4.558   2.443  1.1768  1.5332 -0.4142
   16CHTO   O43 6572   6.535   4.501   2.535  0.0856 -0.6251 -0.2070
   16CHTO  H101 6573   6.533   4.592   2.558  0.0672 -0.6206 -0.2264
   16CHTO   C66 6574   6.482   4.392   2.326  0.4899 -1.4213  0.0852
   16CHTO  H123 6575   6.402   4.336   2.277  0.4118 -0.8451 -0.4573
   16CHTO   N12 6576   6.544   4.475   2.220  0.4829 -0.3438 -0.0229
   16CHTO  H110 6577   6.632   4.425   2.183 -0.9902 -2.9796 -0.0654
   16CHTO  H111 6578   6.563   4.576   2.253  1.7185 -0.1231 -1.3333
   16CHTO   C69 6579   6.578   4.279   2.366  0.5569  0.6085  0.9174
   16CHTO  H126 6580   6.673   4.315   2.409 -0.3637  1.4126  2.3347
   16CHTO   O41 6581   6.497   4.174   2.465 -0.1476 -0.3698  0.2802
   16CHTO   C64 6582   6.434   4.249   2.586  0.5154  0.2718 -0.0457
   16CHTO  H121 6583   6.509   4.292   2.654 -0.2281  1.7663 -0.1639
   16CHTO   C71 6584   6.344   4.146   2.674 -0.6448  0.1168 -0.1384
   16CHTO   O47 6585   6.434   4.059   2.743 -0.5268 -0.7427  0.3227
   16CHTO  H104 6586   6.391   3.976   2.747  0.4685 -1.1877  2.5027
   16CHTO   O34 6587   6.625   4.187   2.238  0.0749  0.0167  0.2561
   16CHTO   C49 6588   6.745   4.094   2.224 -1.0986  0.4099  0.0100
   16CHTO   H91 6589   6.826   4.145   2.172  0.3464 -2.5425 -0.6911
   16CHTO   C47 6590   6.711   3.960   2.164 -0.0760  0.0845  0.7850
   16CHTO   H89 6591   6.806   3.911   2.134  0.0959  0.9589 -0.1211
   16CHTO   O33 6592   6.642   3.990   2.042 -0.1572 -0.2446 -0.0631
   16CHTO   H70 6593   6.682   4.045   1.978  0.0325  0.5196  0.7148
   16CHTO   C45 6594   6.622   3.865   2.253  0.0630  0.4402 -0.6604
   16CHTO   H87 6595   6.526   3.917   2.263  0.5226  0.9592  1.2500
   16CHTO    N8 6596   6.598   3.736   2.178  0.5419  0.5137 -0.2460
   16CHTO   H75 6597   6.492   3.717   2.180  0.7403 -0.5794  0.1345
   16CHTO   H76 6598   6.648   3.652   2.224 -1.3441  0.8215  2.5393
   16CHTO   C43 6599   6.683   3.847   2.397  0.7290  0.9751  0.2489
   16CHTO   H85 6600   6.607   3.796   2.457  1.5106  0.1190  0.5274
   16CHTO   O29 6601   6.723   3.974   2.454  0.4558  0.7386  0.1100
   16CHTO   C50 6602   6.797   4.063   2.365  0.3789  0.4310  0.1770
   16CHTO   H92 6603   6.793   4.151   2.432  0.3464 -0.3464  1.2120
   16CHTO   C54 6604   6.951   4.033   2.359  0.3225  0.2840 -0.1061
   16CHTO   O36 6605   7.025   4.044   2.485 -0.2007  0.2384  0.8362
   16CHTO   H72 6606   7.108   4.006   2.463 -1.0896 -1.3435  0.1218
   16CHTO   O27 6607   6.788   3.748   2.398 -0.2269 -0.1309 -0.1990
   16CHTO   C37 6608   6.859   3.716   2.519 -0.0633  0.0138  0.3379
   16CHTO   H79 6609   6.904   3.810   2.555 -0.9393  0.5184  0.1264
   16CHTO   C38 6610   6.765   3.657   2.628  0.1409  1.0175 -0.1660
   16CHTO   H80 6611   6.695   3.589   2.578 -0.4477  0.4859  1.3606
   16CHTO   O31 6612   6.690   3.763   2.687 -0.0515  0.4123  0.6474
   16CHTO   H68 6613   6.616   3.734   2.737  1.4772 -1.0674  2.1156
   16CHTO   C39 6614   6.840   3.570   2.741  0.2585  0.0343 -0.4417
   16CHTO   H81 6615   6.877   3.647   2.808 -0.3500  1.5347 -1.7972
   16CHTO    N7 6616   6.742   3.487   2.814  0.2132  0.4183  0.9488
   16CHTO   H73 6617   6.702   3.547   2.895  0.5692  1.1685  0.5789
   16CHTO   H74 6618   6.789   3.400   2.858  1.3313  0.6719  0.2659
   16CHTO   C40 6619   6.968   3.493   2.688  0.3079  0.6845  0.1782
   16CHTO   H82 6620   6.940   3.398   2.644  1.6866  0.4525 -0.2223
   16CHTO   O26 6621   7.048   3.573   2.602  0.0895  0.4001 -0.0822
   16CHTO   C41 6622   6.973   3.618   2.483  0.0461 -0.0893  0.7253
   16CHTO   H83 6623   6.937   3.535   2.420  0.0924 -0.7451  1.5583
   16CHTO   C52 6624   7.085   3.690   2.401 -0.2352  0.6507  0.8717
   16CHTO   O35 6625   7.199   3.603   2.377 -0.3474 -0.4167  0.2910
   16CHTO   H71 6626   7.274   3.657   2.362 -0.9626  0.1326 -0.8168
   16CHTO   O28 6627   7.067   3.461   2.787  0.3127 -0.1037 -0.2457
   16CHTO   C42 6628   7.123   3.329   2.801  0.0050  0.1946 -0.6029
   16CHTO   H84 6629   7.226   3.349   2.828 -0.7008  1.6145  1.1253
   16CHTO   C44 6630   7.123   3.235   2.677 -0.0393  0.3552  0.1609
   16CHTO   H86 6631   7.023   3.224   2.636  1.0833 -1.5669 -2.1772
   16CHTO   O32 6632   7.195   3.294   2.568 -0.2133 -0.2005 -0.3062
   16CHTO   H69 6633   7.274   3.328   2.605 -0.9401  1.3507 -0.1634
   16CHTO   C48 6634   7.173   3.090   2.713  0.1991 -0.2791 -0.1634
   16CHTO   H90 6635   7.273   3.114   2.749 -0.1188  1.8086 -0.6216
   16CHTO    N9 6636   7.192   2.999   2.592  0.3769 -0.2131 -0.4869
   16CHTO   H77 6637   7.170   2.896   2.614  1.8100 -0.5880 -0.7385
   16CHTO   H78 6638   7.288   3.018   2.546  1.1852 -1.0142  0.8507
   16CHTO   C51 6639   7.078   3.035   2.830 -0.0692  0.1199 -0.2266
   16CHTO   H93 6640   6.976   3.027   2.794 -0.7425  1.6185  1.3098
   16CHTO   O30 6641   7.096   3.123   2.945  0.2565  0.2786  0.4484
   16CHTO   C46 6642   7.057   3.247   2.926 -0.0076 -0.5365 -0.1185
   16CHTO   H88 6643   6.949   3.244   2.913 -0.3241  1.2708  1.7742
   16CHTO   C53 6644   7.069   3.321   3.063 -0.4618  0.3778 -0.0652
   16CHTO   O72 6645   7.010   3.449   3.079  0.5018  0.4623  0.3203
   16CHTO  H199 6646   6.918   3.438   3.095 -0.0304  3.2752 -0.4873
   16CHTO   O22 6647   7.118   2.910   2.881  0.1202 -0.1341  0.6049
   16CHTO   C31 6648   7.026   2.833   2.967 -0.4591  0.2043  0.0436
   16CHTO   H59 6649   7.091   2.749   2.999 -0.0066  0.2443 -0.7625
   16CHTO   C29 6650   6.971   2.899   3.098  0.8132 -0.2507 -0.0101
   16CHTO   H57 6651   6.906   2.982   3.068 -0.2704 -0.6734  1.1147
   16CHTO   O21 6652   7.091   2.930   3.175  0.0967  0.4125 -0.3353
   16CHTO   H37 6653   7.121   3.018   3.159  1.7458  0.0416  0.5934
   16CHTO   C27 6654   6.881   2.798   3.186 -0.7333 -0.3356  0.4570
   16CHTO   H55 6655   6.948   2.717   3.219  0.3088 -0.6581 -2.3196
   16CHTO    N5 6656   6.824   2.863   3.304 -0.3138 -0.1997 -0.1273
   16CHTO   H43 6657   6.716   2.863   3.309 -0.3258 -2.1832  0.1249
   16CHTO   H44 6658   6.867   2.818   3.393  1.0518 -2.4491 -1.8916
   16CHTO   C25 6659   6.770   2.743   3.089  0.3489  0.8748 -1.0473
   16CHTO   H53 6660   6.697   2.818   3.058 -0.9082  0.8681  1.7382
   16CHTO   O17 6661   6.837   2.691   2.970 -0.2565  0.5781  0.6712
   16CHTO   C32 6662   6.909   2.779   2.883 -0.6138 -0.0257 -0.4136
   16CHTO   H60 6663   6.854   2.864   2.842 -0.2430 -0.4648 -1.8371
   16CHTO   C36 6664   6.953   2.713   2.746  0.0247 -0.3129  0.2443
   16CHTO   O25 6665   7.050   2.609   2.772  0.1967 -0.0444  0.0530
   16CHTO   H40 6666   7.123   2.646   2.818 -0.9201  1.8086  0.4015
   16CHTO   O15 6667   6.695   2.621   3.159 -0.2469 -0.0405  0.1083
   16CHTO   C19 6668   6.554   2.587   3.184  0.6651  0.4030 -0.3316
   16CHTO   H47 6669   6.504   2.683   3.205 -1.2843 -1.0417  1.9343
   16CHTO   C20 6670   6.484   2.513   3.063 -0.6672  0.3258 -0.4804
   16CHTO   H48 6671   6.543   2.425   3.034  1.3252  1.9732 -1.4877
   16CHTO   O19 6672   6.500   2.607   2.958  0.5229 -0.0102 -0.0376
   16CHTO   H35 6673   6.441   2.680   2.953  3.7628  2.8134  0.6649
   16CHTO   C21 6674   6.328   2.488   3.094 -0.0099  0.7818 -0.7943
   16CHTO   H49 6675   6.280   2.585   3.112 -1.3144  0.4206 -2.3485
   16CHTO    N4 6676   6.256   2.420   2.987  0.5884  0.2778 -0.8623
   16CHTO   H41 6677   6.220   2.499   2.922 -0.7066 -0.4417 -1.0392
   16CHTO   H42 6678   6.312   2.347   2.931  3.0657  1.7833 -0.4304
   16CHTO   C22 6679   6.328   2.407   3.227  1.1599 -0.4403  0.1330
   16CHTO   H50 6680   6.377   2.312   3.206  1.2836 -0.1825 -0.7755
   16CHTO   O14 6681   6.395   2.477   3.337 -0.3478  0.4010  0.4434
   16CHTO   C23 6682   6.532   2.505   3.314  0.3571  0.2529  0.4640
   16CHTO   H51 6683   6.594   2.415   3.319  0.5206  0.2780 -0.9845
   16CHTO   C34 6684   6.579   2.576   3.439  0.2469  0.2904  0.8467
   16CHTO   O23 6685   6.714   2.544   3.465 -0.3424 -0.1209 -0.0536
   16CHTO   H38 6686   6.755   2.628   3.457  0.0181 -0.1624  1.3295
   16CHTO   O16 6687   6.190   2.389   3.273 -0.0459 -0.1031 -0.2103
   16CHTO   C24 6688   6.152   2.267   3.364 -0.7526  0.1857  0.2191
   16CHTO   H52 6689   6.240   2.211   3.397 -1.6689 -0.6926  1.2298
   16CHTO   C26 6690   6.062   2.174   3.285 -0.1110 -0.7369  0.1527
   16CHTO   H54 6691   5.977   2.234   3.245  0.6435 -0.7714 -1.5194
   16CHTO   O20 6692   6.127   2.111   3.169  0.2952 -0.0298 -0.0144
   16CHTO   H36 6693   6.122   2.165   3.093  0.6277  0.1317  0.0773
   16CHTO   C30 6694   6.010   2.059   3.378 -0.1795 -0.3923 -0.1529
   16CHTO   H58 6695   6.098   2.004   3.416  0.1473  1.3241  1.6852
   16CHTO    N6 6696   5.923   1.957   3.307 -0.8223  0.4549  0.2372
   16CHTO   H45 6697   5.991   1.886   3.261 -0.0561  0.9097  0.6555
   16CHTO   H46 6698   5.859   1.904   3.376 -1.6392  0.4076 -0.5486
   16CHTO   C33 6699   5.946   2.114   3.505  0.3734 -0.1798 -0.4038
   16CHTO   H61 6700   5.853   2.169   3.484 -0.4127 -1.2930  0.1435
   16CHTO   O18 6701   6.038   2.206   3.571  0.1893  0.0551  0.0366
   16CHTO   C28 6702   6.087   2.318   3.493 -0.9269  0.7028  0.2943
   16CHTO   H56 6703   6.004   2.381   3.462 -3.0084 -2.0727  0.0306
   16CHTO   C35 6704   6.181   2.405   3.582  0.0915  0.1481 -0.2492
   16CHTO   O24 6705   6.130   2.444   3.715  0.2526 -0.5746 -0.1607
   16CHTO   H39 6706   6.203   2.464   3.769  1.8027  2.1844 -3.0850
   16CHTO    O9 6707   5.907   2.008   3.594 -0.4489  0.0712  0.0117
   16CHTO   C13 6708   5.786   2.066   3.699 -0.1954  0.2770  0.0975
   16CHTO   H26 6709   5.708   2.117   3.639  1.3721  1.3735 -1.0425
   16CHTO   C11 6710   5.863   2.166   3.800 -0.3615 -0.1515 -0.8003
   16CHTO   H24 6711   5.885   2.261   3.749  1.7376 -0.2781 -0.1626
   16CHTO    O8 6712   5.987   2.101   3.839 -0.0186  0.5001  0.8199
   16CHTO    H3 6713   6.051   2.093   3.772 -0.3181 -0.5326  0.6447
   16CHTO    C9 6714   5.776   2.194   3.923 -0.0847  0.0876 -0.2467
   16CHTO   H22 6715   5.681   2.228   3.879 -1.0466  0.1682  1.8459
   16CHTO    N2 6716   5.826   2.312   3.997 -0.4357  0.6509  0.2359
   16CHTO   H10 6717   5.903   2.361   3.940  0.3134  0.5954  1.1746
   16CHTO   H11 6718   5.747   2.381   4.023 -0.7110  1.3443 -2.3658
   16CHTO    C7 6719   5.749   2.066   4.008  0.3608 -0.7379  0.0557
   16CHTO   H20 6720   5.644   2.081   4.042 -0.2770 -3.0963 -0.7759
   16CHTO    O4 6721   5.770   1.945   3.925 -0.6373  0.3700  0.6394
   16CHTO   C14 6722   5.719   1.953   3.787 -0.3129 -0.0464 -0.5945
   16CHTO   H27 6723   5.619   1.993   3.813  1.0048  1.8130  1.8900
   16CHTO   C18 6724   5.698   1.818   3.704 -0.1196  0.4253  0.0781
   16CHTO   O13 6725   5.604   1.732   3.778 -0.1760  0.5932  0.0658
   16CHTO    H7 6726   5.559   1.689   3.708  0.8132 -1.2774  0.5599
   16CHTO    O2 6727   5.836   2.061   4.134  0.5095 -0.2586 -0.6220
   16CHTO    C1 6728   5.800   1.956   4.226  0.1407 -0.7936 -0.4110
   16CHTO   H14 6729   5.741   1.874   4.181  1.8985 -3.0136  1.1919
   16CHTO    C2 6730   5.726   2.005   4.351  0.3886  0.5040  0.3273
   16CHTO   H15 6731   5.786   2.091   4.384  2.0087 -0.9216  1.1432
   16CHTO    O6 6732   5.588   2.047   4.316 -0.3125 -0.0281 -0.1293
   16CHTO    H1 6733   5.574   2.090   4.234 -0.2476  0.1871 -0.0269
   16CHTO    C3 6734   5.717   1.887   4.461  0.1328 -0.9411 -0.0888
   16CHTO   H16 6735   5.631   1.826   4.433  0.8334 -0.8845 -2.4853
   16CHTO    N1 6736   5.687   1.959   4.592 -0.5081 -0.4656  0.0810
   16CHTO    H8 6737   5.696   1.883   4.669  0.4261 -0.6316 -0.1854
   16CHTO    H9 6738   5.764   2.033   4.607  1.0845 -1.4613 -2.7906
   16CHTO    C4 6739   5.838   1.794   4.472 -0.6674 -1.6796  0.1699
   16CHTO   H17 6740   5.913   1.843   4.535 -0.8596  2.3104 -2.5162
   16CHTO    O1 6741   5.885   1.759   4.343 -0.1791  0.3360  0.4479
   16CHTO    C5 6742   5.929   1.875   4.269  0.1328 -1.0636  0.0157
   16CHTO   H18 6743   6.000   1.947   4.312  0.9100 -2.2802  0.8298
   16CHTO   C16 6744   6.002   1.800   4.151  0.4923  0.4866  0.3547
   16CHTO   O11 6745   6.073   1.888   4.063 -0.4318 -0.2462  0.0956
   16CHTO    H5 6746   6.023   1.964   4.039  0.5366  0.7291  1.1036
   16CHTO    O3 6747   5.796   1.677   4.543 -0.2970 -0.4656 -0.1354
   16CHTO    C6 6748   5.903   1.615   4.619 -0.8408 -0.2472  0.1056
   16CHTO   H19 6749   5.999   1.665   4.604 -0.5891 -0.1315  1.9497
   16CHTO    C8 6750   5.849   1.612   4.767  0.1269 -0.5297 -0.5992
   16CHTO   H21 6751   5.742   1.594   4.758 -0.6126  2.0707  2.1237
   16CHTO    O7 6752   5.870   1.746   4.822 -0.3440  0.9799 -0.0509
   16CHTO    H2 6753   5.819   1.802   4.766 -0.4403 -0.5644 -1.5481
   16CHTO   C12 6754   5.926   1.505   4.857 -1.1110  0.2233  0.2694
   16CHTO   H25 6755   6.020   1.540   4.905 -0.6690  0.0315 -0.4684
   16CHTO    N3 6756   5.842   1.472   4.975 -0.1361  0.2114  0.2571
   16CHTO   H12 6757   5.744   1.517   4.974 -1.1120 -1.7475  2.6201
   16CHTO   H13 6758   5.888   1.495   5.070  2.9279  2.0471 -1.5899
   16CHTO   C15 6759   5.952   1.371   4.772  0.2659  0.3114  0.2207
   16CHTO   H28 6760   5.861   1.311   4.762  0.3870  0.2635 -0.5676
   16CHTO   O10 6761   6.071   1.285   4.837  0.1891  0.2082  0.5829
   16CHTO    H4 6762   6.156   1.325   4.843  0.7857 -0.7048 -1.3692
   16CHTO    O5 6763   6.007   1.399   4.643 -0.2440 -0.1814  0.2229
   16CHTO   C10 6764   5.919   1.471   4.560 -0.1612 -0.2488 -0.0761
   16CHTO   H23 6765   5.827   1.412   4.554 -0.4178  0.2180 -0.7382
   16CHTO   C17 6766   5.968   1.460   4.413  0.9378 -0.8636  0.2857
   16CHTO   O12 6767   6.093   1.519   4.386 -0.4041 -0.1824  0.8654
   16CHTO    H6 6768   6.159   1.469   4.429  2.6597  2.5558 -0.4135
   17CHTO  H203 6769   6.575   4.464   5.220 -0.6643 -0.3500  2.3153
   17CHTO   O82 6770   6.504   4.429   5.169  0.5421  0.3820  0.0603
   17CHTO  C123 6771   6.401   4.528   5.158 -0.7010  0.0914  0.0905
   17CHTO  H227 6772   6.347   4.521   5.254  2.3158  0.3984  1.8828
   17CHTO   O77 6773   6.460   4.661   5.135 -0.9983  0.0434  0.1323
   17CHTO  C118 6774   6.371   4.765   5.139 -0.0798 -0.5214 -0.8778
   17CHTO  H222 6775   6.317   4.752   5.234  2.5169 -1.1618  0.5597
   17CHTO  C125 6776   6.462   4.893   5.141 -0.0683 -0.4687  0.1591
   17CHTO   O84 6777   6.551   4.874   5.028 -0.4299 -0.0670 -0.1596
   17CHTO  H205 6778   6.600   4.954   5.020 -0.9183  0.2379 -0.1774
   17CHTO  C114 6779   6.277   4.752   5.023 -0.5672  0.0254  0.1062
   17CHTO  H218 6780   6.335   4.767   4.932 -0.2854 -0.6511  0.1721
   17CHTO  C116 6781   6.199   4.621   5.008 -0.1172  0.5563  0.5585
   17CHTO  H220 6782   6.117   4.613   5.081 -0.4394 -2.9424 -0.0858
   17CHTO   O79 6783   6.124   4.622   4.884  0.2668  0.0511  0.2420
   17CHTO  H201 6784   6.035   4.635   4.908 -0.0396 -1.0521 -0.2476
   17CHTO  C120 6785   6.300   4.497   5.035 -0.5289  0.1845 -0.2014
   17CHTO  H224 6786   6.354   4.490   4.938 -1.1385 -0.2135 -0.5182
   17CHTO   N21 6787   6.234   4.369   5.046  0.1230 -0.2918 -0.1379
   17CHTO  H211 6788   6.199   4.362   5.148  1.3567 -0.3230  0.2952
   17CHTO  H212 6789   6.305   4.288   5.033  1.2159  1.0229 -2.6761
   17CHTO   O75 6790   6.196   4.866   5.037 -0.1701 -0.2141 -0.0561
   17CHTO  C112 6791   6.188   4.972   4.920 -0.0761  0.2362  0.8998
   17CHTO  H216 6792   6.142   4.915   4.838 -1.8151  1.1524  1.2233
   17CHTO   O73 6793   6.314   5.026   4.887 -0.6269 -0.0033  0.4085
   17CHTO  C113 6794   6.322   5.123   4.787  0.5687 -0.0238 -0.3728
   17CHTO  H217 6795   6.290   5.067   4.696 -1.2334  1.3152 -0.5892
   17CHTO  C124 6796   6.471   5.154   4.768  0.5670  0.5619 -0.1898
   17CHTO   O83 6797   6.518   5.206   4.642 -0.5063 -0.1122 -0.8697
   17CHTO  H204 6798   6.576   5.277   4.661 -2.4164  1.0484  0.8285
   17CHTO  C109 6799   6.244   5.251   4.814 -0.1055 -0.4075  0.1416
   17CHTO  H213 6800   6.288   5.301   4.902 -2.3748 -2.2220  2.4143
   17CHTO  C110 6801   6.101   5.207   4.839 -0.3588  0.7197  0.2386
   17CHTO  H214 6802   6.064   5.176   4.741  2.0603  1.4240 -0.9157
   17CHTO   O78 6803   6.024   5.323   4.864  0.6508 -0.7869  0.1173
   17CHTO  H200 6804   5.932   5.303   4.866  0.7890 -1.3923  2.2906
   17CHTO  C111 6805   6.088   5.093   4.951 -0.1506 -0.4737 -0.1226
   17CHTO  H215 6806   6.106   5.138   5.050 -0.8657  0.0426 -0.2219
   17CHTO   N19 6807   5.945   5.052   4.959 -0.3815 -0.0422 -0.1172
   17CHTO  H207 6808   5.910   5.052   5.061  0.3276  2.8337  0.1732
   17CHTO  H208 6809   5.926   4.953   4.920  1.1764 -0.4994  0.2331
   17CHTO   O74 6810   6.259   5.342   4.699 -0.2601 -0.1959  0.2466
   17CHTO  C115 6811   6.358   5.475   4.739  0.3616  0.3965  0.1437
   17CHTO  H219 6812   6.416   5.455   4.829  0.3869 -0.5509 -0.0761
   17CHTO   O76 6813   6.465   5.505   4.615 -0.5405  0.4093 -0.3227
   17CHTO  C122 6814   6.398   5.548   4.497 -0.1019 -0.4352 -0.2278
   17CHTO  H226 6815   6.331   5.468   4.463  0.4114 -0.5281 -1.0516
   17CHTO  C126 6816   6.510   5.557   4.393 -0.0978  0.6889  0.1134
   17CHTO   O85 6817   6.477   5.640   4.280 -0.2734  0.0904 -0.1713
   17CHTO  H206 6818   6.540   5.619   4.214  0.4066 -0.7319  0.7160
   17CHTO  C121 6819   6.313   5.681   4.510  0.6195 -0.0770  0.0258
   17CHTO  H225 6820   6.351   5.768   4.453  1.6112 -1.2594 -1.1557
   17CHTO   O81 6821   6.181   5.661   4.457 -0.4567 -0.0448 -0.1626
   17CHTO  H202 6822   6.148   5.748   4.457 -0.5929 -0.0959 -0.5264
   17CHTO  C119 6823   6.301   5.718   4.665 -0.6995  0.1789  0.2358
   17CHTO  H223 6824   6.402   5.752   4.692 -0.5158 -0.0379 -0.1821
   17CHTO  C117 6825   6.267   5.600   4.763  0.0224 -1.0593  0.3513
   17CHTO  H221 6826   6.165   5.562   4.746  0.9826 -2.8702 -1.6555
   17CHTO   N20 6827   6.271   5.645   4.907 -0.2269 -0.2461  0.0221
   17CHTO  H209 6828   6.359   5.703   4.929  0.7785 -1.9329  0.5622
   17CHTO  H210 6829   6.179   5.697   4.932  0.1722 -1.3491  4.3285
   17CHTO   O80 6830   6.207   5.872   4.685 -0.0225  0.4040  0.3203
   17CHTO  C103 6831   6.259   5.972   4.764  0.5485  0.6575 -0.3700
   17CHTO  H190 6832   6.323   5.936   4.844 -1.5194 -0.4889  0.7987
   17CHTO  C101 6833   6.346   6.083   4.689 -0.4476  0.9759 -0.5017
   17CHTO  H188 6834   6.293   6.137   4.611 -1.0272  1.8434  0.4915
   17CHTO   O68 6835   6.485   6.005   4.621 -0.6795  0.6924  0.0955
   17CHTO  H168 6836   6.499   5.934   4.680 -2.1647  1.4603  1.3969
   17CHTO   C99 6837   6.384   6.200   4.788  0.2605  0.0546 -0.5814
   17CHTO  H186 6838   6.456   6.157   4.861 -0.7963 -0.2120  0.3080
   17CHTO   N17 6839   6.466   6.310   4.733  0.5947 -0.2948 -0.0935
   17CHTO  H174 6840   6.488   6.379   4.813  0.3490  0.1683 -0.4222
   17CHTO  H175 6841   6.412   6.359   4.653 -0.4500 -0.6387  0.3882
   17CHTO   C97 6842   6.260   6.250   4.871 -0.1557  0.2912 -0.0647
   17CHTO  H184 6843   6.207   6.320   4.804 -2.1138 -0.7990  0.3141
   17CHTO   O64 6844   6.170   6.144   4.924 -0.1002 -0.7707 -0.6980
   17CHTO  C104 6845   6.131   6.040   4.835  0.4301 -0.1714  0.2041
   17CHTO  H191 6846   6.064   6.075   4.758 -1.6431 -4.4138 -0.0828
   17CHTO  C108 6847   6.040   5.940   4.916 -0.7710  0.2876 -0.0119
   17CHTO   O71 6848   5.924   6.007   4.963 -0.4076 -0.2102 -0.3094
   17CHTO  H171 6849   5.856   5.944   4.976 -0.8692  0.3829  0.2456
   17CHTO   O62 6850   6.303   6.317   4.993 -0.1423 -0.2183 -0.0288
   17CHTO   C91 6851   6.218   6.423   5.037  0.1358 -0.1031 -0.0923
   17CHTO  H178 6852   6.122   6.429   4.986 -0.6117 -0.0079  1.2936
   17CHTO   C92 6853   6.279   6.563   5.012 -0.2973 -0.0306  0.3443
   17CHTO  H179 6854   6.322   6.561   4.911  1.7190 -1.1957  1.1936
   17CHTO   O66 6855   6.173   6.661   5.016  0.8723 -0.0429 -0.2524
   17CHTO  H166 6856   6.174   6.721   4.944  3.9164  0.0169 -0.2307
   17CHTO   C93 6857   6.385   6.603   5.115 -0.1293  0.3594  0.5802
   17CHTO  H180 6858   6.393   6.712   5.104 -1.5723  0.4523  0.2555
   17CHTO   N16 6859   6.517   6.545   5.077  0.2303  0.2121  0.0939
   17CHTO  H172 6860   6.550   6.470   5.147 -0.7474 -0.8577 -0.5727
   17CHTO  H173 6861   6.599   6.615   5.076  1.3569 -1.0425  1.8202
   17CHTO   C94 6862   6.351   6.574   5.268 -0.4198  0.1842  0.4470
   17CHTO  H181 6863   6.417   6.499   5.311  0.1253 -0.4526 -1.4799
   17CHTO   O61 6864   6.213   6.521   5.274 -0.4024 -0.4959 -0.2632
   17CHTO   C95 6865   6.183   6.402   5.195  0.4210  0.2801 -0.0375
   17CHTO  H182 6866   6.237   6.317   5.238  0.1934 -0.1225 -0.5398
   17CHTO  C106 6867   6.033   6.368   5.217  0.2827  0.0865 -0.5375
   17CHTO   O69 6868   5.995   6.250   5.154 -0.0517 -0.0684  0.0775
   17CHTO  H169 6869   5.908   6.228   5.179 -0.4036  0.7001 -0.4384
   17CHTO   O63 6870   6.381   6.703   5.355 -0.2871  0.4984 -0.3626
   17CHTO   C96 6871   6.251   6.769   5.444  0.0708  0.0834 -0.2839
   17CHTO  H183 6872   6.171   6.695   5.447 -0.5274  0.6771 -1.2357
   17CHTO   C98 6873   6.188   6.894   5.390 -0.3150 -0.1614 -0.2933
   17CHTO  H185 6874   6.264   6.972   5.381  0.7348 -0.9304  1.6675
   17CHTO   O67 6875   6.150   6.860   5.253  0.3189 -0.9570  0.2094
   17CHTO  H167 6876   6.138   6.928   5.190 -0.4718 -2.8706 -1.7749
   17CHTO  C102 6877   6.069   6.956   5.487  0.1206  0.1730  0.1304
   17CHTO  H189 6878   5.988   6.882   5.474  0.1320 -0.0785  1.4219
   17CHTO   N18 6879   6.005   7.085   5.455 -0.0418  0.4495 -0.0814
   17CHTO  H176 6880   6.094   7.145   5.438  1.2843 -1.1411  1.0087
   17CHTO  H177 6881   5.949   7.080   5.363 -1.9360  1.0873  1.0071
   17CHTO  C105 6882   6.116   6.953   5.635 -0.2357 -0.1413  0.3061
   17CHTO  H192 6883   6.188   7.033   5.648 -1.7705  1.4386 -0.7473
   17CHTO   O65 6884   6.195   6.839   5.675 -0.5286  0.2244  0.2307
   17CHTO  C100 6885   6.297   6.795   5.587 -0.8569  0.3205 -0.0649
   17CHTO  H187 6886   6.367   6.880   5.582 -0.6420  0.0867 -1.2228
   17CHTO  C107 6887   6.371   6.665   5.643  0.2471 -0.6499 -0.2330
   17CHTO   O70 6888   6.283   6.553   5.644 -0.3508 -0.2446  0.7958
   17CHTO  H170 6889   6.306   6.481   5.588  0.4172  0.6409 -0.0388
   17CHTO   O57 6890   5.981   6.967   5.739  0.1255  0.7762  0.6054
   17CHTO   C85 6891   5.982   7.056   5.850 -0.4185  0.1124 -0.5862
   17CHTO  H157 6892   6.043   7.138   5.808 -1.5049  0.2108 -2.0088
   17CHTO   C83 6893   6.054   6.986   5.968 -0.1372  0.1719 -0.9098
   17CHTO  H155 6894   6.155   6.956   5.938 -0.5143 -2.9764  0.7441
   17CHTO   O56 6895   5.988   6.864   6.009 -0.0053 -0.1473 -0.1787
   17CHTO  H135 6896   5.945   6.816   5.941  0.4419 -0.7206 -0.0573
   17CHTO   C81 6897   6.069   7.088   6.082 -0.1010  0.2642 -0.3430
   17CHTO  H153 6898   6.125   7.172   6.041  0.9125 -1.2672 -2.1092
   17CHTO   N14 6899   6.152   7.038   6.190 -0.1805  0.1377 -0.7929
   17CHTO  H141 6900   6.103   6.964   6.248 -1.4893  1.4090 -0.2679
   17CHTO  H142 6901   6.246   6.997   6.158 -0.0707 -0.3260  0.1077
   17CHTO   C79 6902   5.921   7.143   6.123  0.6703  0.3764  0.0723
   17CHTO  H151 6903   5.929   7.226   6.193  0.4144  1.2018 -0.8758
   17CHTO   O52 6904   5.849   7.192   6.009 -0.1573 -0.3780  0.0657
   17CHTO   C86 6905   5.847   7.101   5.885 -0.6257  0.1189 -0.1499
   17CHTO  H158 6906   5.785   7.012   5.910  2.6864 -2.4460 -0.7031
   17CHTO   C90 6907   5.790   7.168   5.755  0.2909  0.3192 -0.2355
   17CHTO   O60 6908   5.664   7.238   5.777 -0.0999 -0.0711  0.2347
   17CHTO  H138 6909   5.665   7.273   5.864  1.2124 -0.9860  0.6014
   17CHTO   O50 6910   5.839   7.037   6.178 -0.3972 -0.4781  0.3543
   17CHTO   C73 6911   5.721   7.070   6.256 -0.0873 -0.3707 -0.2426
   17CHTO  H145 6912   5.667   7.164   6.234 -2.3131 -1.4525  0.4418
   17CHTO   C74 6913   5.756   7.074   6.414 -0.8683  0.1346  0.0072
   17CHTO  H146 6914   5.833   7.151   6.422 -0.9700  0.1204  1.0986
   17CHTO   O54 6915   5.642   7.125   6.490 -0.4366 -0.7947 -0.4266
   17CHTO  H133 6916   5.670   7.188   6.554 -1.6034  2.2784 -2.8050
   17CHTO   C75 6917   5.808   6.928   6.452 -0.4668  0.0480 -0.0792
   17CHTO  H147 6918   5.904   6.911   6.400  0.5799  1.8129  1.1981
   17CHTO   N13 6919   5.843   6.920   6.598  0.6592 -0.1649 -0.5115
   17CHTO  H139 6920   5.887   7.014   6.630  2.6396 -1.2110 -0.0855
   17CHTO  H140 6921   5.752   6.890   6.648 -0.4815  1.1984 -1.7214
   17CHTO   C76 6922   5.703   6.812   6.402  0.0776 -1.0924  0.8544
   17CHTO  H148 6923   5.610   6.824   6.456  0.0450 -1.4649  0.8837
   17CHTO   O49 6924   5.683   6.824   6.259 -0.1242 -0.3577 -0.0822
   17CHTO   C77 6925   5.621   6.951   6.228  0.1019 -0.9937  0.1975
   17CHTO  H149 6926   5.530   6.968   6.286  0.1688 -1.0807  0.3286
   17CHTO   C88 6927   5.575   6.944   6.080 -0.1116 -0.1793 -0.0197
   17CHTO   O58 6928   5.499   7.063   6.043 -0.3244 -0.5586 -0.4519
   17CHTO  H136 6929   5.542   7.102   5.969  2.4116  0.4165  1.5888
   17CHTO   O51 6930   5.752   6.674   6.418 -0.5413  0.4833 -0.0554
   17CHTO   C78 6931   5.646   6.579   6.394  0.7278  0.9470 -0.2972
   17CHTO  H150 6932   5.548   6.622   6.361  0.5129 -0.2338 -1.2379
   17CHTO   C80 6933   5.615   6.509   6.529  0.5588  0.0665  0.2358
   17CHTO  H152 6934   5.713   6.490   6.579  0.9077  0.8239 -0.1490
   17CHTO   O55 6935   5.544   6.603   6.608 -0.6532  0.1958 -0.1284
   17CHTO  H134 6936   5.548   6.587   6.701 -1.0209 -0.1643 -0.1684
   17CHTO   C84 6937   5.531   6.375   6.511  0.6875  0.1865 -0.4398
   17CHTO  H156 6938   5.426   6.402   6.501  0.9633  1.0422 -1.0952
   17CHTO   N15 6939   5.525   6.284   6.634 -0.7834 -0.1245  0.7028
   17CHTO  H143 6940   5.604   6.296   6.705 -0.5594 -1.9567  0.7810
   17CHTO  H144 6941   5.428   6.303   6.675 -1.5202  2.1413 -1.9011
   17CHTO   C87 6942   5.562   6.289   6.389 -0.3163  0.3128  0.2135
   17CHTO  H159 6943   5.658   6.237   6.395  0.0879  1.2023  1.5423
   17CHTO   O53 6944   5.578   6.381   6.277  0.6600  0.5223 -0.0223
   17CHTO   C82 6945   5.685   6.472   6.285  0.3504 -0.2333 -0.5809
   17CHTO  H154 6946   5.774   6.418   6.317 -1.7463 -2.8635  1.0151
   17CHTO   C89 6947   5.715   6.533   6.142 -0.0846  0.6038  0.7026
   17CHTO   O59 6948   5.852   6.570   6.125 -0.7648  0.2554  0.0980
   17CHTO  H137 6949   5.876   6.637   6.186 -0.2894  0.0161  0.1797
   17CHTO   O45 6950   5.442   6.196   6.346 -0.2187  0.8651  0.7171
   17CHTO   C67 6951   5.465   6.065   6.295  0.3182  0.5699 -0.5308
   17CHTO  H124 6952   5.546   6.012   6.344 -0.2162 -0.8429 -1.1568
   17CHTO   C65 6953   5.342   5.975   6.305  0.0260 -0.1365 -0.4971
   17CHTO  H122 6954   5.305   5.978   6.408  2.6578 -1.3426  0.5116
   17CHTO   O44 6955   5.393   5.841   6.285 -0.1576  0.2305 -0.1280
   17CHTO  H102 6956   5.392   5.825   6.193  0.8203 -0.5481 -0.0189
   17CHTO   C63 6957   5.229   6.019   6.208  0.3594 -0.0479  0.3522
   17CHTO  H120 6958   5.191   6.116   6.240  0.4870  0.1962 -0.2264
   17CHTO   N11 6959   5.105   5.940   6.228  0.5045  0.2372 -0.2347
   17CHTO  H108 6960   5.062   5.893   6.142  1.6502 -1.3698  0.0489
   17CHTO  H109 6961   5.025   5.994   6.275 -1.1204 -1.9836 -0.3793
   17CHTO   C61 6962   5.278   6.034   6.055  0.4325 -0.0115  0.4857
   17CHTO  H118 6963   5.202   6.094   6.004  0.9923  0.9596  0.7775
   17CHTO   O40 6964   5.404   6.115   6.045 -0.8518 -0.3644  0.4040
   17CHTO   C68 6965   5.512   6.083   6.141  0.2244  0.5350  0.0806
   17CHTO  H125 6966   5.575   6.174   6.146  0.9510  0.0295  0.0388
   17CHTO   C72 6967   5.607   5.970   6.093 -0.5592 -0.2935 -0.8576
   17CHTO   O48 6968   5.747   5.990   6.122 -0.2535 -0.5640 -0.2911
   17CHTO  H105 6969   5.793   5.909   6.127 -2.9239 -1.9917  2.4706
   17CHTO   O38 6970   5.298   5.904   5.996  0.3034  0.0386  0.2065
   17CHTO   C55 6971   5.286   5.871   5.856 -0.1221  0.9602  0.6372
   17CHTO  H112 6972   5.359   5.791   5.835 -0.1033  1.4115 -1.0705
   17CHTO   C56 6973   5.299   5.989   5.750  0.2329 -0.5738  0.6379
   17CHTO  H113 6974   5.245   6.075   5.793 -1.5068 -0.0367 -2.4397
   17CHTO   O42 6975   5.440   6.024   5.758 -0.2582 -0.2997  0.1235
   17CHTO  H100 6976   5.456   6.115   5.774 -0.4046 -0.4819  1.3464
   17CHTO   C57 6977   5.250   5.956   5.605 -1.4408 -0.2150  0.3474
   17CHTO  H114 6978   5.320   5.880   5.570 -0.2402  0.5176  1.1074
   17CHTO   N10 6979   5.248   6.065   5.510  0.3934  0.2917 -0.2591
   17CHTO  H106 6980   5.146   6.099   5.511  0.1126 -0.5285 -0.0865
   17CHTO  H107 6981   5.310   6.147   5.542 -0.6639  1.6883 -1.7086
   17CHTO   C58 6982   5.112   5.891   5.622 -0.9098  0.1653  0.1848
   17CHTO  H115 6983   5.043   5.970   5.659 -0.7434  0.5637 -0.3405
   17CHTO   O37 6984   5.112   5.777   5.706  0.4165  0.6961 -0.5004
   17CHTO   C59 6985   5.150   5.794   5.846  0.0423 -0.3006 -0.0140
   17CHTO  H116 6986   5.068   5.850   5.891  1.1186  1.2847  0.0172
   17CHTO   C70 6987   5.156   5.661   5.923  0.8402  0.2804 -0.2238
   17CHTO   O46 6988   5.266   5.568   5.923  0.4090 -0.1920  0.4267
   17CHTO  H103 6989   5.349   5.604   5.897  0.1998 -1.3790 -2.0715
   17CHTO   O39 6990   5.047   5.835   5.485  0.2762  0.2469 -0.0274
   17CHTO   C60 6991   4.904   5.837   5.474  0.4303 -0.2976  0.3734
   17CHTO  H117 6992   4.870   5.877   5.570  3.5620  0.0107  1.4253
   17CHTO   C62 6993   4.853   5.927   5.365  0.4478  0.7033  0.0856
   17CHTO  H119 6994   4.907   6.024   5.372 -1.4340  1.6872  1.1876
   17CHTO   O43 6995   4.870   5.867   5.234  0.4843  0.4132  0.1745
   17CHTO  H101 6996   4.831   5.782   5.223 -0.3354  0.7501  0.4240
   17CHTO   C66 6997   4.696   5.952   5.385  0.3644  0.4112 -0.4315
   17CHTO  H123 6998   4.680   5.975   5.491 -0.0711 -1.6732 -0.0246
   17CHTO   N12 6999   4.647   6.066   5.310 -0.9080 -0.2935  0.2905
   17CHTO  H110 7000   4.540   6.070   5.291 -0.8684 -0.0316  0.1238
   17CHTO  H111 7001   4.674   6.151   5.371  0.5320  0.9024 -1.9756
   17CHTO   C69 7002   4.615   5.827   5.360  0.2382  0.2994 -0.1673
   17CHTO  H126 7003   4.618   5.806   5.251 -1.0417  0.2095 -0.1891
   17CHTO   O41 7004   4.682   5.705   5.447 -0.0217  0.3506  0.3001
   17CHTO   C64 7005   4.845   5.695   5.456 -0.1476 -0.2002  0.4983
   17CHTO  H121 7006   4.892   5.651   5.365 -1.0338  2.0778 -1.0858
   17CHTO   C71 7007   4.873   5.598   5.573  0.0546  0.6101 -0.2693
   17CHTO   O47 7008   4.839   5.639   5.701 -0.2845  0.3167  0.2158
   17CHTO  H104 7009   4.877   5.723   5.721 -1.0582  0.3327  1.7156
   17CHTO   O34 7010   4.452   5.852   5.397 -0.0597  0.4113  0.4049
   17CHTO   C49 7011   4.329   5.900   5.497  0.1960  0.0624 -0.8190
   17CHTO   H91 7012   4.280   5.975   5.436 -0.3941 -1.5873 -2.4425
   17CHTO   C47 7013   4.386   5.966   5.627  0.6457  0.0648 -0.0330
   17CHTO   H89 7014   4.297   6.012   5.673  0.0340 -0.7598 -0.3832
   17CHTO   O33 7015   4.483   6.069   5.600 -0.4981 -0.2726 -0.0836
   17CHTO   H70 7016   4.531   6.044   5.523  0.1300  3.4396 -1.0209
   17CHTO   C45 7017   4.452   5.857   5.729 -0.3602 -0.5900 -0.0366
   17CHTO   H87 7018   4.560   5.847   5.712 -0.2877 -0.7640  0.5108
   17CHTO    N8 7019   4.434   5.898   5.869  0.3424  0.5130 -0.7105
   17CHTO   H75 7020   4.460   6.001   5.886 -0.2805  0.4414  0.7895
   17CHTO   H76 7021   4.509   5.841   5.921  2.2345  2.6814 -1.0025
   17CHTO   C43 7022   4.403   5.710   5.686 -0.0240  0.2064  0.3119
   17CHTO   H85 7023   4.471   5.692   5.603 -0.2464 -2.5813  0.6854
   17CHTO   O29 7024   4.266   5.705   5.647 -0.1567 -0.0048 -0.3488
   17CHTO   C50 7025   4.238   5.776   5.528  0.0976 -0.7710  0.1697
   17CHTO   H92 7026   4.240   5.716   5.436  2.5271  0.7292 -0.8252
   17CHTO   C54 7027   4.094   5.832   5.542 -0.5463  0.5084  0.0239
   17CHTO   O36 7028   3.995   5.729   5.552  0.0367 -0.0701 -0.4503
   17CHTO   H72 7029   4.002   5.696   5.640 -0.4621 -1.1499 -0.8112
   17CHTO   O27 7030   4.425   5.610   5.787 -0.1131  0.3853  0.4044
   17CHTO   C37 7031   4.532   5.518   5.785 -0.1536  0.0360 -0.0486
   17CHTO   H79 7032   4.615   5.552   5.722 -0.4878 -0.5284 -0.7998
   17CHTO   C38 7033   4.591   5.497   5.930 -0.1640  0.6119  0.2168
   17CHTO   H80 7034   4.509   5.479   6.001  0.4342  2.2481  1.3621
   17CHTO   O31 7035   4.655   5.620   5.969  0.0250 -0.6262  0.5151
   17CHTO   H68 7036   4.607   5.658   6.040 -3.8458  1.2956 -2.9338
   17CHTO   C39 7037   4.691   5.376   5.931 -0.7116  0.2853 -0.3150
   17CHTO   H81 7038   4.773   5.402   5.864 -1.8666 -1.4422 -2.4779
   17CHTO    N7 7039   4.745   5.350   6.070 -0.4604 -0.0724 -0.1375
   17CHTO   H73 7040   4.780   5.438   6.122  0.1719  0.4603 -1.4425
   17CHTO   H74 7041   4.814   5.268   6.064 -1.4617 -0.9601  0.1765
   17CHTO   C40 7042   4.636   5.240   5.862 -0.4629  0.0167 -0.2832
   17CHTO   H82 7043   4.569   5.190   5.932 -1.1424 -0.9466 -1.5962
   17CHTO   O26 7044   4.568   5.270   5.736 -0.3131 -0.8391 -0.0039
   17CHTO   C41 7045   4.480   5.382   5.723 -0.2700 -0.2892  0.2536
   17CHTO   H83 7046   4.385   5.361   5.775 -0.0491  0.8111  1.0985
   17CHTO   C52 7047   4.449   5.398   5.573 -0.5785  0.3352 -0.3877
   17CHTO   O35 7048   4.574   5.414   5.495  0.4591 -0.0756  0.4990
   17CHTO   H71 7049   4.593   5.331   5.455  0.3356 -1.5167  3.2634
   17CHTO   O28 7050   4.731   5.131   5.836 -0.1073  0.2586  0.1179
   17CHTO   C42 7051   4.858   5.120   5.755 -1.0580  0.0661  0.1838
   17CHTO   H84 7052   4.872   5.012   5.753 -3.1206 -0.2248 -0.0837
   17CHTO   C44 7053   4.991   5.184   5.814  0.0680 -0.1874  0.0267
   17CHTO   H86 7054   4.966   5.287   5.841 -2.4743 -0.4175 -1.2661
   17CHTO   O32 7055   5.020   5.112   5.937 -0.0044 -0.3124  0.7278
   17CHTO   H69 7056   4.995   5.167   6.009 -0.0594 -0.4868  0.8421
   17CHTO   C48 7057   5.120   5.185   5.718  0.2656  0.0260 -0.0582
   17CHTO   H90 7058   5.152   5.081   5.708 -1.0229 -0.6963  2.8106
   17CHTO    N9 7059   5.240   5.263   5.768  0.0178  0.1539  0.6366
   17CHTO   H77 7060   5.263   5.245   5.872  0.7125  0.9094  0.6207
   17CHTO   H78 7061   5.325   5.227   5.712 -1.1426  1.2462 -1.9069
   17CHTO   C51 7062   5.076   5.223   5.575  0.0511 -0.1228  0.5081
   17CHTO   H93 7063   5.038   5.326   5.570  1.2400  0.4537  2.7437
   17CHTO   O30 7064   4.981   5.133   5.528 -0.4219  0.1910  0.0081
   17CHTO   C46 7065   4.840   5.161   5.606 -0.1412  0.5609 -0.6270
   17CHTO   H88 7066   4.816   5.267   5.606  1.2506  0.8968  0.3943
   17CHTO   C53 7067   4.736   5.085   5.526  0.3668 -0.1083 -0.1098
   17CHTO   O72 7068   4.735   5.130   5.389 -0.9552  0.0536  0.2302
   17CHTO  H199 7069   4.699   5.216   5.381 -1.6604 -0.1921  0.7126
   17CHTO   O22 7070   5.182   5.216   5.481  0.4581 -0.2108  0.3540
   17CHTO   C31 7071   5.197   5.308   5.371  0.6118 -0.3764  0.1830
   17CHTO   H59 7072   5.280   5.263   5.312  0.1735  0.7630 -1.3139
   17CHTO   C29 7073   5.076   5.316   5.273  0.8037  0.1118 -0.1122
   17CHTO   H57 7074   4.983   5.335   5.329  0.9662 -1.6843  0.7959
   17CHTO   O21 7075   5.061   5.181   5.230  0.6233  0.3581  0.1615
   17CHTO   H37 7076   5.041   5.124   5.302  0.0581 -1.1768 -1.1651
   17CHTO   C27 7077   5.089   5.410   5.153 -0.2330  0.3046  1.0663
   17CHTO   H55 7078   5.172   5.375   5.090 -0.8050 -0.2772  0.6233
   17CHTO    N5 7079   4.962   5.431   5.078  1.1543 -0.7678 -0.3924
   17CHTO   H43 7080   4.901   5.343   5.093  0.8365 -0.5035 -0.1261
   17CHTO   H44 7081   4.968   5.455   4.973 -1.2152  3.5460  0.3507
   17CHTO   C25 7082   5.143   5.554   5.200 -0.5041  0.6705 -0.3980
   17CHTO   H53 7083   5.059   5.604   5.251 -0.5897 -0.3826  0.5307
   17CHTO   O17 7084   5.260   5.536   5.291 -0.0861  0.4578  0.1941
   17CHTO   C32 7085   5.242   5.453   5.406 -0.2044  0.4616 -0.9354
   17CHTO   H60 7086   5.167   5.487   5.478 -2.1882 -0.7035 -2.4199
   17CHTO   C36 7087   5.383   5.438   5.484 -0.4372  0.6885 -0.5792
   17CHTO   O25 7088   5.448   5.556   5.527 -0.2387  0.0466  0.1261
   17CHTO   H40 7089   5.379   5.615   5.552  0.5018  0.4619  1.2001
   17CHTO   O15 7090   5.199   5.639   5.058  0.7339 -0.0134 -0.1329
   17CHTO   C19 7091   5.241   5.778   5.020  0.2662  0.5403 -0.2495
   17CHTO   H47 7092   5.298   5.767   4.927  0.2574 -0.7823 -0.1045
   17CHTO   C20 7093   5.118   5.870   5.012 -0.2031 -0.0778  0.7107
   17CHTO   H48 7094   5.054   5.863   5.101 -0.1678  2.5724  0.9989
   17CHTO   O19 7095   5.041   5.818   4.902  0.1149  0.0749  0.3115
   17CHTO   H35 7096   5.072   5.843   4.817  2.6372  0.7297  1.3769
   17CHTO   C21 7097   5.158   6.025   4.983  0.0223  0.5695  0.1005
   17CHTO   H49 7098   5.201   6.023   4.883 -1.6564 -2.0245 -0.5989
   17CHTO    N4 7099   5.041   6.119   4.982 -0.3049  0.9750  0.5825
   17CHTO   H41 7100   4.957   6.068   4.938 -0.8948  2.0473  0.4401
   17CHTO   H42 7101   5.048   6.219   4.941 -0.3994  0.7606  0.0483
   17CHTO   C22 7102   5.268   6.070   5.087 -0.4135  0.2662 -0.2505
   17CHTO   H50 7103   5.219   6.075   5.185 -0.3711 -0.2366 -0.2029
   17CHTO   O14 7104   5.375   5.974   5.092  0.2688  0.2150 -0.1416
   17CHTO   C23 7105   5.335   5.840   5.122  0.5299  0.0774  0.7668
   17CHTO   H51 7106   5.289   5.836   5.222  0.2016 -0.8041  0.5872
   17CHTO   C34 7107   5.467   5.770   5.156  0.1567 -0.0140  0.0072
   17CHTO   O23 7108   5.567   5.811   5.057  0.1617 -0.1363 -0.3809
   17CHTO   H38 7109   5.529   5.869   4.993 -1.2388  0.6559  1.1435
   17CHTO   O16 7110   5.328   6.191   5.048  0.0180  0.3786  0.4469
   17CHTO   C24 7111   5.387   6.277   5.169 -0.3309 -0.6892  0.2373
   17CHTO   H52 7112   5.365   6.233   5.266 -2.7800 -3.4008 -1.4699
   17CHTO   C26 7113   5.328   6.418   5.157  0.5217  0.6986 -0.1047
   17CHTO   H54 7114   5.346   6.461   5.056 -1.8442  3.3527  0.5493
   17CHTO   O20 7115   5.181   6.421   5.173  0.6157  0.1730  0.1284
   17CHTO   H36 7116   5.136   6.417   5.090  0.6501  1.0085  0.0646
   17CHTO   C30 7117   5.394   6.513   5.261 -0.2843  0.0102  0.2132
   17CHTO   H58 7118   5.354   6.484   5.360 -0.2735 -0.9913 -0.0685
   17CHTO    N6 7119   5.352   6.656   5.253 -0.3979 -0.0267  0.1363
   17CHTO   H45 7120   5.395   6.720   5.329  1.0477  0.3721 -0.9852
   17CHTO   H46 7121   5.370   6.695   5.154  1.5281 -3.2763 -0.8555
   17CHTO   C33 7122   5.549   6.500   5.277  0.0613 -0.3836 -0.1828
   17CHTO   H61 7123   5.593   6.546   5.187 -0.9631 -0.1766 -0.5778
   17CHTO   O18 7124   5.585   6.360   5.276 -0.0666  0.4742 -0.3446
   17CHTO   C28 7125   5.540   6.289   5.159  0.2091 -0.3443 -0.0799
   17CHTO   H56 7126   5.566   6.337   5.064  1.1550  0.0530  0.3824
   17CHTO   C35 7127   5.609   6.148   5.160  0.2048 -0.3075  0.1367
   17CHTO   O24 7128   5.617   6.109   5.298 -0.1427 -0.1049 -0.0937
   17CHTO   H39 7129   5.682   6.041   5.306 -0.4212 -0.7179 -2.5995
   17CHTO    O9 7130   5.597   6.562   5.394  0.4425 -0.3931  0.4890
   17CHTO   C13 7131   5.754   6.589   5.404 -0.1674 -0.2579 -0.0707
   17CHTO   H26 7132   5.792   6.530   5.318  0.0552 -0.3014  0.0568
   17CHTO   C11 7133   5.815   6.538   5.545  0.9460 -0.3767 -0.3086
   17CHTO   H24 7134   5.911   6.491   5.518 -0.2089 -2.3825 -1.0588
   17CHTO    O8 7135   5.742   6.423   5.591 -0.1678 -0.2001  0.1835
   17CHTO    H3 7136   5.717   6.419   5.682 -0.9493  1.6742  0.0709
   17CHTO    C9 7137   5.835   6.660   5.640 -0.5562  0.0579 -0.3717
   17CHTO   H22 7138   5.931   6.708   5.615  0.2133 -0.6684  1.1416
   17CHTO    N2 7139   5.869   6.623   5.779  0.1251 -0.1385  0.5531
   17CHTO   H10 7140   5.857   6.705   5.849 -5.3923 -1.6844  1.6902
   17CHTO   H11 7141   5.810   6.537   5.808  0.0905 -0.2278  0.2199
   17CHTO    C7 7142   5.718   6.763   5.624 -0.5916 -0.3192  0.2757
   17CHTO   H20 7143   5.741   6.847   5.693 -0.8789  0.3294 -0.4137
   17CHTO    O4 7144   5.724   6.818   5.489 -0.1868 -0.5086  0.0505
   17CHTO   C14 7145   5.779   6.746   5.381  0.1437 -0.1109  0.7320
   17CHTO   H27 7146   5.889   6.758   5.374 -0.2056  2.5322 -0.7601
   17CHTO   C18 7147   5.720   6.804   5.250  0.6811  0.5651 -0.3875
   17CHTO   O13 7148   5.755   6.943   5.239  0.7163  0.4675 -0.6447
   17CHTO    H7 7149   5.676   6.989   5.217  0.1419 -0.0332  0.3444
   17CHTO    O2 7150   5.577   6.699   5.646  0.2620 -0.4124 -0.1326
   17CHTO    C1 7151   5.518   6.698   5.776  0.2749 -0.3054 -0.7851
   17CHTO   H14 7152   5.596   6.724   5.851  0.4313 -1.8089 -0.4009
   17CHTO    C2 7153   5.462   6.555   5.819  0.0577 -0.3556 -0.8843
   17CHTO   H15 7154   5.404   6.521   5.731 -0.1052  0.8090 -1.2351
   17CHTO    O6 7155   5.561   6.452   5.829  0.5603  0.6215 -0.5073
   17CHTO    H1 7156   5.623   6.463   5.899 -0.4243  0.7220  0.3665
   17CHTO    C3 7157   5.365   6.551   5.949 -0.5500  0.4173  0.2964
   17CHTO   H16 7158   5.438   6.567   6.030 -1.4383  1.5355  0.8953
   17CHTO    N1 7159   5.296   6.418   5.973  0.6359 -0.6518  0.2113
   17CHTO    H8 7160   5.241   6.418   6.066  0.7709 -1.7152  0.2952
   17CHTO    H9 7161   5.368   6.340   5.954 -2.4026 -2.7341 -3.3805
   17CHTO    C4 7162   5.270   6.674   5.952  0.1717 -0.1774 -0.2700
   17CHTO   H17 7163   5.181   6.657   5.891  1.1444  3.0007 -2.7562
   17CHTO    O1 7164   5.335   6.797   5.915  0.4153  0.2359  0.2095
   17CHTO    C5 7165   5.399   6.795   5.784 -0.2058 -1.0420 -0.3254
   17CHTO   H18 7166   5.331   6.755   5.708 -1.7876  1.1103 -0.0998
   17CHTO   C16 7167   5.434   6.942   5.740 -0.5209  0.3324  0.3305
   17CHTO   O11 7168   5.320   7.031   5.755  0.1698 -0.0719 -0.0537
   17CHTO    H5 7169   5.321   7.057   5.845  0.5544 -0.1262 -0.0428
   17CHTO    O3 7170   5.222   6.693   6.088 -0.1348  0.3070  0.1112
   17CHTO    C6 7171   5.158   6.818   6.133  0.2304  0.2826  0.1745
   17CHTO   H19 7172   5.207   6.908   6.096 -0.0939 -0.0309 -1.0365
   17CHTO    C8 7173   5.008   6.844   6.090 -0.2303  0.6691 -0.4591
   17CHTO   H21 7174   4.949   6.764   6.134 -2.2530  1.5031 -1.6158
   17CHTO    O7 7175   5.004   6.835   5.947 -0.5624 -0.0493  0.2958
   17CHTO    H2 7176   4.916   6.821   5.918 -1.1284 -0.7153  2.3042
   17CHTO   C12 7177   4.962   6.983   6.153  0.9094 -1.0868  0.4426
   17CHTO   H25 7178   5.027   7.059   6.104 -1.9725  1.6503  0.6407
   17CHTO    N3 7179   4.822   7.003   6.107 -0.1979 -0.0154  0.8675
   17CHTO   H12 7180   4.760   6.934   6.163 -0.8618  1.5822  2.1790
   17CHTO   H13 7181   4.782   7.103   6.123  1.0188  0.4442  1.0568
   17CHTO   C15 7182   4.981   6.983   6.307 -0.7976 -0.1060 -0.0319
   17CHTO   H28 7183   4.913   6.914   6.357 -0.5125 -0.2799  0.1162
   17CHTO   O10 7184   4.971   7.092   6.353  0.4011 -0.1443 -0.2232
   17CHTO    H4 7185   4.884   7.125   6.362  0.5995  0.4443 -0.4467
   17CHTO    O5 7186   5.119   6.952   6.337  0.3371 -0.1407 -0.0709
   17CHTO   C10 7187   5.167   6.827   6.287 -0.9012  0.1151  0.7721
   17CHTO   H23 7188   5.092   6.758   6.324  1.0103 -2.2468  0.3644
   17CHTO   C17 7189   5.313   6.793   6.334  0.3770 -0.6665  0.1983
   17CHTO   O12 7190   5.311   6.781   6.476 -0.9271 -0.1547 -0.1633
   17CHTO    H6 7191   5.359   6.706   6.505 -1.0789 -0.5803 -1.0144
   18CHTO  H203 7192   6.466   7.685   6.689 -0.6579 -0.9341  1.3749
   18CHTO   O82 7193   6.436   7.622   6.626  0.1467 -0.2957  0.3379
   18CHTO  C123 7194   6.499   7.496   6.609 -0.8217  0.3433  0.0165
   18CHTO  H227 7195   6.461   7.420   6.679 -0.1061  0.4189  0.4882
   18CHTO   O77 7196   6.472   7.470   6.471  0.9698  0.2488  0.1438
   18CHTO  C118 7197   6.507   7.339   6.419 -0.4057  0.4895 -0.1187
   18CHTO  H222 7198   6.465   7.252   6.472 -0.1374  0.0937 -0.5620
   18CHTO  C125 7199   6.456   7.341   6.271  0.3338 -0.2768 -0.2583
   18CHTO   O84 7200   6.455   7.217   6.200  0.3184  0.3383 -0.2567
   18CHTO  H205 7201   6.489   7.228   6.113 -0.2644  1.1840 -0.3795
   18CHTO  C114 7202   6.660   7.325   6.432 -0.2406 -0.2215  0.6381
   18CHTO  H218 7203   6.710   7.397   6.367 -3.1649  0.5304 -0.8506
   18CHTO  C116 7204   6.704   7.352   6.585 -0.4179 -0.9153  0.1867
   18CHTO  H220 7205   6.662   7.278   6.657 -1.9906 -1.0307 -0.8339
   18CHTO   O79 7206   6.850   7.327   6.590 -0.2461  0.1300 -0.1525
   18CHTO  H201 7207   6.901   7.370   6.524 -0.4703 -0.0848 -0.4675
   18CHTO  C120 7208   6.653   7.494   6.623 -0.1297 -0.8788 -0.5718
   18CHTO  H224 7209   6.709   7.565   6.558  0.5480  1.2919  2.2870
   18CHTO   N21 7210   6.694   7.534   6.758 -0.4602  0.4254 -0.2397
   18CHTO  H211 7211   6.695   7.447   6.822 -1.0169 -0.1158 -0.9575
   18CHTO  H212 7212   6.786   7.591   6.757  0.3507 -0.8925 -0.7161
   18CHTO   O75 7213   6.696   7.191   6.379 -0.2158  0.3402  0.1074
   18CHTO  C112 7214   6.812   7.193   6.261 -0.0232  0.8185  0.8225
   18CHTO  H216 7215   6.903   7.219   6.317  1.5205 -3.8700  0.7306
   18CHTO   O73 7216   6.775   7.294   6.163  0.0143 -0.0773 -0.0484
   18CHTO  C113 7217   6.883   7.316   6.074  0.0998 -0.0925  0.3431
   18CHTO  H217 7218   6.978   7.342   6.125 -0.5146 -0.1558  1.5358
   18CHTO  C124 7219   6.854   7.440   5.989 -0.0740  0.8909 -0.1607
   18CHTO   O83 7220   6.746   7.430   5.894 -0.4420 -0.6022  0.1072
   18CHTO  H204 7221   6.683   7.495   5.918 -1.0675 -2.3120  3.3762
   18CHTO  C109 7222   6.916   7.193   5.991  0.2615  0.4289 -0.2335
   18CHTO  H213 7223   6.828   7.169   5.929  0.4068  1.2433 -0.7563
   18CHTO  C110 7224   6.942   7.073   6.089 -0.2023  0.8027  0.6707
   18CHTO  H214 7225   7.041   7.090   6.132 -0.5778  2.7334  0.7883
   18CHTO   O78 7226   6.969   6.954   6.003 -0.4375 -0.0301 -0.3548
   18CHTO  H200 7227   7.040   6.968   5.943 -1.7159 -0.7383 -2.0479
   18CHTO  C111 7228   6.828   7.053   6.193 -0.4492 -0.0117  0.7303
   18CHTO  H215 7229   6.733   7.026   6.145  0.4790  0.0659 -1.1867
   18CHTO   N19 7230   6.856   6.946   6.298 -0.7348 -0.2823 -0.6647
   18CHTO  H207 7231   6.767   6.898   6.335 -0.2898  0.4737  1.4586
   18CHTO  H208 7232   6.926   6.975   6.375 -1.0164 -2.1838  0.3253
   18CHTO   O74 7233   7.028   7.215   5.898 -0.0710 -0.2295  0.0245
   18CHTO  C115 7234   7.006   7.140   5.746  0.2404 -0.0849 -0.1130
   18CHTO  H219 7235   6.947   7.049   5.754 -0.3799 -0.1601 -4.1830
   18CHTO   O76 7236   6.917   7.226   5.653  0.3356 -0.5126 -0.2651
   18CHTO  C122 7237   6.985   7.348   5.615  0.0593  0.4742 -0.1255
   18CHTO  H226 7238   7.015   7.399   5.707  0.6479  0.4933 -0.3294
   18CHTO  C126 7239   6.886   7.449   5.542 -0.0891 -0.3103 -0.0896
   18CHTO   O85 7240   6.745   7.457   5.584  0.3901 -0.5091  0.1754
   18CHTO  H206 7241   6.720   7.547   5.591 -0.8767 -0.5815 -2.7097
   18CHTO  C121 7242   7.113   7.317   5.527 -0.0465  0.8714  0.4538
   18CHTO  H225 7243   7.072   7.334   5.426  0.1427  0.0006  0.2268
   18CHTO   O81 7244   7.216   7.409   5.563 -0.0557 -0.5133  0.2665
   18CHTO  H202 7245   7.301   7.384   5.533  1.2354 -2.3483  4.9821
   18CHTO  C119 7246   7.157   7.165   5.537 -0.8921  0.0581 -0.3476
   18CHTO  H223 7247   7.078   7.108   5.489 -0.6363  0.2859 -1.0307
   18CHTO  C117 7248   7.153   7.124   5.688 -0.5265 -0.3001 -0.0252
   18CHTO  H221 7249   7.227   7.177   5.748  0.2811 -1.1587 -0.2569
   18CHTO   N20 7250   7.191   6.979   5.705 -0.0202  0.3362  0.1654
   18CHTO  H209 7251   7.127   6.904   5.662 -0.5652  1.5657 -1.2427
   18CHTO  H210 7252   7.298   6.966   5.708 -0.1335 -0.1821  2.4240
   18CHTO   O80 7253   7.290   7.122   5.440 -0.3157 -0.1085 -0.2021
   18CHTO  C103 7254   7.277   7.056   5.294  0.4431  0.1835 -0.3908
   18CHTO  H190 7255   7.375   7.031   5.254  2.3365  1.9876  2.8999
   18CHTO  C101 7256   7.186   6.929   5.275  0.4964  0.6232 -0.1724
   18CHTO  H188 7257   7.082   6.951   5.300  0.3092  0.2752 -0.6430
   18CHTO   O68 7258   7.245   6.818   5.332  0.1934 -0.2410 -0.5538
   18CHTO  H168 7259   7.178   6.772   5.380 -0.4410  2.0285  0.8220
   18CHTO   C99 7260   7.175   6.898   5.113 -0.1682  0.7107 -0.6379
   18CHTO  H186 7261   7.277   6.878   5.074 -0.3485 -0.2864 -0.5933
   18CHTO   N17 7262   7.096   6.780   5.079 -0.3366  0.5635  0.2584
   18CHTO  H174 7263   7.049   6.742   5.169  0.4974 -1.2746 -0.0642
   18CHTO  H175 7264   7.142   6.696   5.030  2.2262  1.5899  0.8177
   18CHTO   C97 7265   7.128   7.025   5.042 -0.1122 -0.0909  0.0956
   18CHTO  H184 7266   7.028   7.040   5.084 -0.5264 -0.8905 -0.5840
   18CHTO   O64 7267   7.216   7.136   5.068 -0.0830  0.4474  0.5473
   18CHTO  C104 7268   7.213   7.174   5.209 -0.4445 -0.1102  0.3821
   18CHTO  H191 7269   7.115   7.201   5.248 -0.1203  2.0334 -0.1968
   18CHTO  C108 7270   7.299   7.301   5.211 -0.9120 -0.0126 -0.1652
   18CHTO   O71 7271   7.430   7.270   5.158  0.3484  0.8196  0.5381
   18CHTO  H171 7272   7.488   7.260   5.231 -0.0377  1.0940  0.8846
   18CHTO   O62 7273   7.123   7.015   4.897  0.6746  0.4433 -0.4988
   18CHTO   C91 7274   7.004   7.071   4.838  0.2258  0.1831 -0.6353
   18CHTO  H178 7275   6.913   7.036   4.887  0.9542  2.3435  2.4431
   18CHTO   C92 7276   7.005   7.013   4.698  0.4105 -0.4785 -0.1776
   18CHTO  H179 7277   7.096   7.049   4.646  0.1581  1.6565  0.7814
   18CHTO   O66 7278   7.006   6.864   4.706 -0.2238  0.0128  0.1125
   18CHTO  H166 7279   7.088   6.827   4.734 -1.2311 -1.6902  0.9667
   18CHTO   C93 7280   6.880   7.059   4.619  0.0207 -0.2338 -0.1994
   18CHTO  H180 7281   6.800   7.008   4.675  1.3727 -0.2177  1.8069
   18CHTO   N16 7282   6.882   7.012   4.477 -0.4088 -0.2436 -0.2565
   18CHTO  H172 7283   6.963   6.942   4.464  0.3354  0.8404 -1.6637
   18CHTO  H173 7284   6.866   7.093   4.407  3.2892  1.9582  1.2605
   18CHTO   C94 7285   6.851   7.212   4.627  0.5734 -0.1958 -0.0967
   18CHTO  H181 7286   6.861   7.259   4.530  0.2304 -2.4008 -1.2312
   18CHTO   O61 7287   6.948   7.279   4.707  0.3418 -0.1091  0.1689
   18CHTO   C95 7288   6.985   7.233   4.837  0.5767 -0.0479  0.5925
   18CHTO  H182 7289   7.078   7.282   4.865  0.2142  0.3290  1.1426
   18CHTO  C106 7290   6.880   7.277   4.950 -0.6268  0.4355 -0.2217
   18CHTO   O69 7291   6.917   7.255   5.086  0.1454 -0.0219  0.4006
   18CHTO  H169 7292   7.003   7.288   5.103 -0.9156  1.6802  2.7433
   18CHTO   O63 7293   6.704   7.257   4.690 -0.3608  1.0279  0.3454
   18CHTO   C96 7294   6.608   7.350   4.619  0.0417  0.1393 -0.1857
   18CHTO  H183 7295   6.511   7.322   4.661  0.6742  1.9770  2.6484
   18CHTO   C98 7296   6.611   7.344   4.466  0.1953  0.3388 -0.0606
   18CHTO  H185 7297   6.711   7.365   4.427  0.8444  0.1551  1.4576
   18CHTO   O67 7298   6.569   7.213   4.418  0.0032 -0.3216 -0.4602
   18CHTO  H167 7299   6.599   7.196   4.330  1.8572  0.8043 -0.0894
   18CHTO  C102 7300   6.519   7.456   4.394 -0.0693 -0.2639 -0.1216
   18CHTO  H189 7301   6.415   7.439   4.424  0.0402 -0.0468  0.3904
   18CHTO   N18 7302   6.526   7.473   4.246  0.0837 -0.4421  0.4809
   18CHTO  H176 7303   6.430   7.467   4.197  0.9329 -0.1809 -1.2728
   18CHTO  H177 7304   6.591   7.398   4.204 -1.2111 -1.3755  0.1315
   18CHTO  C105 7305   6.540   7.595   4.472 -0.3644  0.4797 -0.0459
   18CHTO  H192 7306   6.638   7.634   4.447  0.2454  0.5681  2.3393
   18CHTO   O65 7307   6.544   7.597   4.621  0.1761  0.1864  0.4259
   18CHTO  C100 7308   6.645   7.496   4.663  0.8950 -0.5176 -0.0669
   18CHTO  H187 7309   6.739   7.532   4.618 -0.7908  0.3236 -3.1309
   18CHTO  C107 7310   6.652   7.516   4.817 -0.1957 -0.0236  0.6438
   18CHTO   O70 7311   6.541   7.461   4.883  0.2809  0.4260 -0.0329
   18CHTO  H170 7312   6.575   7.386   4.928  1.5016 -0.0333 -1.6471
   18CHTO   O57 7313   6.433   7.695   4.416 -0.4412 -0.1499  0.4084
   18CHTO   C85 7314   6.472   7.834   4.411  0.1512  0.2032  0.2854
   18CHTO  H157 7315   6.576   7.831   4.372  0.1490 -0.6357  0.3407
   18CHTO   C83 7316   6.491   7.886   4.560  0.2916  0.0386  0.0839
   18CHTO  H155 7317   6.571   7.828   4.606 -0.1758 -0.2669  0.5080
   18CHTO   O56 7318   6.375   7.853   4.637 -0.5815  0.3046  0.1728
   18CHTO  H135 7319   6.387   7.843   4.729 -0.1233  0.1537  0.0983
   18CHTO   C81 7320   6.525   8.033   4.559  0.6041  0.0841 -0.9958
   18CHTO  H153 7321   6.616   8.043   4.499  0.8009 -1.1886 -0.9219
   18CHTO   N14 7322   6.568   8.084   4.690  0.2084  0.3520 -0.2644
   18CHTO  H141 7323   6.538   8.186   4.704  0.9393  0.4166  0.8466
   18CHTO  H142 7324   6.521   8.022   4.763  0.5680 -0.1120 -0.4222
   18CHTO   C79 7325   6.413   8.120   4.486 -0.1965  0.5988  0.3595
   18CHTO  H151 7326   6.448   8.223   4.477  0.7987  0.1620 -1.0086
   18CHTO   O52 7327   6.406   8.074   4.350 -0.9988 -0.1483 -0.1416
   18CHTO   C86 7328   6.383   7.933   4.338 -1.0812  0.1900 -0.8361
   18CHTO  H158 7329   6.276   7.924   4.366 -0.6368 -0.6881  0.6384
   18CHTO   C90 7330   6.387   7.900   4.188  0.5946 -0.4868  0.5105
   18CHTO   O60 7331   6.337   7.767   4.155 -0.2357 -0.1639 -0.0083
   18CHTO  H138 7332   6.247   7.756   4.180 -0.0862  0.0509  0.6146
   18CHTO   O50 7333   6.285   8.116   4.543 -0.3526  0.1848  0.0773
   18CHTO   C73 7334   6.155   8.165   4.522  0.3830  0.2635 -0.2431
   18CHTO  H145 7335   6.130   8.156   4.415 -2.6395 -0.7655  0.5031
   18CHTO   C74 7336   6.143   8.318   4.563 -0.2853  0.0558 -0.4499
   18CHTO  H146 7337   6.224   8.369   4.510  0.7171  0.5770  1.5365
   18CHTO   O54 7338   6.015   8.368   4.522  0.0487  0.2330  0.3016
   18CHTO  H133 7339   5.999   8.346   4.432  4.1250 -1.4345 -0.1257
   18CHTO   C75 7340   6.168   8.325   4.716  0.0281  0.8726  0.1461
   18CHTO  H147 7341   6.264   8.277   4.741 -1.2694 -1.5200  0.7120
   18CHTO   N13 7342   6.183   8.465   4.766 -0.2197  0.0922  0.2135
   18CHTO  H139 7343   6.116   8.536   4.719 -0.0024  0.7280  0.8550
   18CHTO  H140 7344   6.157   8.461   4.871 -3.9259  1.4909 -0.5670
   18CHTO   C76 7345   6.050   8.245   4.794  0.8054  0.5405  0.4846
   18CHTO  H148 7346   5.956   8.296   4.776  1.5750  1.5110 -0.9286
   18CHTO   O49 7347   6.045   8.108   4.738  0.1357 -0.4517  0.5680
   18CHTO   C77 7348   6.045   8.086   4.594 -0.7190 -0.3407  0.2837
   18CHTO  H149 7349   5.947   8.123   4.563 -1.4548 -0.6548  2.2009
   18CHTO   C88 7350   6.047   7.933   4.553 -0.1051 -0.0553 -0.1820
   18CHTO   O58 7351   5.984   7.913   4.418 -0.5362  0.9479  0.6221
   18CHTO  H136 7352   6.052   7.923   4.354 -0.1034  0.0508  0.9258
   18CHTO   O51 7353   6.080   8.244   4.976 -0.5798  0.0302  0.2345
   18CHTO   C78 7354   5.984   8.178   5.036  0.0894 -0.0429 -0.6816
   18CHTO  H150 7355   5.944   8.101   4.967  0.5192 -0.6254 -0.2841
   18CHTO   C80 7356   5.865   8.275   5.073  0.3872 -0.2911  0.2041
   18CHTO  H152 7357   5.902   8.362   5.131 -1.4492  0.4316  0.3242
   18CHTO   O55 7358   5.810   8.327   4.951 -0.1548 -0.2956  0.0302
   18CHTO  H134 7359   5.865   8.395   4.918 -0.0883 -0.1504  0.4364
   18CHTO   C84 7360   5.756   8.198   5.158  0.2483 -0.1182  0.3324
   18CHTO  H156 7361   5.708   8.122   5.096  0.0346 -0.8185  1.3472
   18CHTO   N15 7362   5.642   8.280   5.205  0.3634  0.3301  0.1977
   18CHTO  H143 7363   5.628   8.285   5.311 -0.9515 -1.3316  0.1220
   18CHTO  H144 7364   5.548   8.267   5.155  1.3982  1.1618 -2.0416
   18CHTO   C87 7365   5.821   8.113   5.272  0.3764 -0.8122 -0.3176
   18CHTO  H159 7366   5.870   8.180   5.343  1.9751  1.3289 -3.3151
   18CHTO   O53 7367   5.937   8.022   5.212 -0.3005  0.4072 -0.4626
   18CHTO   C82 7368   6.040   8.104   5.166 -0.4304 -0.5073  0.1115
   18CHTO  H154 7369   6.076   8.175   5.240 -0.8203  0.3832 -0.5408
   18CHTO   C89 7370   6.152   8.012   5.131  0.1357  0.3176 -0.0893
   18CHTO   O59 7371   6.199   7.934   5.237  0.1090 -0.0820  0.0928
   18CHTO  H137 7372   6.148   7.855   5.242  0.2589 -0.0453  2.8446
   18CHTO   O45 7373   5.700   8.021   5.353  0.4241  0.4662 -0.0906
   18CHTO   C67 7374   5.747   8.010   5.490  0.4572  0.3044 -0.3100
   18CHTO  H124 7375   5.849   8.048   5.494  0.4711  0.5114 -2.2489
   18CHTO   C65 7376   5.660   8.103   5.584  0.1596  0.2465  0.6012
   18CHTO  H122 7377   5.558   8.088   5.549  0.3736  3.3351 -1.5175
   18CHTO   O44 7378   5.704   8.239   5.563 -0.4816  0.1402 -0.5768
   18CHTO  H102 7379   5.648   8.290   5.619  1.3344  1.8604 -0.2608
   18CHTO   C63 7380   5.644   8.053   5.731 -0.4269  0.5818  0.0518
   18CHTO  H120 7381   5.562   7.981   5.733  2.1468 -2.4253  1.8398
   18CHTO   N11 7382   5.595   8.156   5.826 -0.0737  1.0843  0.2452
   18CHTO  H108 7383   5.575   8.118   5.924 -0.7206  1.0820  0.1160
   18CHTO  H109 7384   5.665   8.237   5.835 -2.2659  2.8911  1.5588
   18CHTO   C61 7385   5.780   7.978   5.770 -0.1965  0.7781 -0.1635
   18CHTO  H118 7386   5.772   7.938   5.872  0.8686  0.0404 -0.3517
   18CHTO   O40 7387   5.808   7.861   5.684  0.4176  0.8036  0.0618
   18CHTO   C68 7388   5.747   7.863   5.554 -0.2980 -0.1393 -0.1825
   18CHTO  H125 7389   5.643   7.825   5.556  0.2625 -1.6255  2.7027
   18CHTO   C72 7390   5.832   7.759   5.465 -0.1848 -0.1459 -0.3387
   18CHTO   O48 7391   5.967   7.797   5.456  0.5672  0.3592  0.5586
   18CHTO  H105 7392   6.021   7.720   5.465 -1.5905 -1.0524  1.7755
   18CHTO   O38 7393   5.891   8.071   5.768 -0.3054 -0.1321 -0.5568
   18CHTO   C55 7394   6.011   8.027   5.840  0.1263  0.9365 -0.3967
   18CHTO  H112 7395   6.032   7.922   5.816 -0.9849  0.0681  2.2191
   18CHTO   C56 7396   6.011   8.050   6.002  0.7005  0.0862 -0.5632
   18CHTO  H113 7397   6.007   8.158   6.025  0.2726 -0.2037  0.8081
   18CHTO   O42 7398   5.893   7.988   6.057  0.4960 -0.2813 -0.0263
   18CHTO  H100 7399   5.860   8.038   6.129 -0.3415 -1.0018  0.1061
   18CHTO   C57 7400   6.144   7.994   6.055 -0.7540 -0.7430 -0.2558
   18CHTO  H114 7401   6.144   7.889   6.026 -1.6873 -0.5915 -0.8468
   18CHTO   N10 7402   6.161   8.000   6.203  0.3066 -0.3142  0.1295
   18CHTO  H106 7403   6.059   7.988   6.237 -1.5269  0.3060 -4.7451
   18CHTO  H107 7404   6.215   7.909   6.223 -1.7246 -1.4968  0.4479
   18CHTO   C58 7405   6.263   8.070   5.986  0.9799 -0.0236 -0.3920
   18CHTO  H115 7406   6.256   8.176   6.021 -2.2056 -0.3369  0.1137
   18CHTO   O37 7407   6.251   8.054   5.842  0.2135 -0.5589  0.3032
   18CHTO   C59 7408   6.130   8.103   5.782  0.5634  0.1037 -0.7586
   18CHTO  H116 7409   6.112   8.210   5.798  0.0400 -0.1752  0.5937
   18CHTO   C70 7410   6.146   8.083   5.636 -0.7464  0.2094 -0.0487
   18CHTO   O46 7411   6.238   8.164   5.562 -0.0710 -0.2681  0.1012
   18CHTO  H103 7412   6.257   8.132   5.475  1.8732 -0.5098  0.5875
   18CHTO   O39 7413   6.398   8.012   6.025 -0.0742 -0.3353 -0.9786
   18CHTO   C60 7414   6.421   7.884   5.957  0.1864 -0.0805  0.8359
   18CHTO  H117 7415   6.326   7.835   5.937 -0.1631  0.9956 -0.2105
   18CHTO   C62 7416   6.509   7.914   5.826 -0.2413 -0.4242  0.6155
   18CHTO  H119 7417   6.457   7.996   5.773 -1.0571 -1.8089 -0.7612
   18CHTO   O43 7418   6.650   7.949   5.836 -0.2664  0.3873  0.1295
   18CHTO  H101 7419   6.679   7.988   5.756 -1.7857  2.9173  0.7799
   18CHTO   C66 7420   6.486   7.782   5.738  0.4187 -0.1239  0.7617
   18CHTO  H123 7421   6.382   7.751   5.744  1.0101 -2.3052 -0.0086
   18CHTO   N12 7422   6.515   7.805   5.594  0.1742  0.6622  0.1508
   18CHTO  H110 7423   6.589   7.731   5.567 -0.0368  0.6179 -0.3012
   18CHTO  H111 7424   6.431   7.776   5.533  1.5957 -3.1181 -0.1614
   18CHTO   C69 7425   6.563   7.669   5.799 -0.5428  0.5872  0.3160
   18CHTO  H126 7426   6.673   7.677   5.791 -0.5953  1.0274  0.0570
   18CHTO   O41 7427   6.524   7.662   5.956  0.0891 -0.5502  0.8300
   18CHTO   C64 7428   6.507   7.786   6.042 -0.0140 -0.2273  0.5169
   18CHTO  H121 7429   6.596   7.848   6.065  0.4518  0.4121 -2.7900
   18CHTO   C71 7430   6.433   7.744   6.173  0.0086  0.4851 -0.5464
   18CHTO   O47 7431   6.466   7.843   6.268  0.3992  0.0174 -0.3250
   18CHTO  H104 7432   6.559   7.837   6.278  0.2005 -2.7472  0.2116
   18CHTO   O34 7433   6.520   7.539   5.746 -0.3103  0.8292  0.7413
   18CHTO   C49 7434   6.449   7.412   5.713  0.5736 -0.4981  0.1256
   18CHTO   H91 7435   6.523   7.350   5.664 -0.3169 -1.4622 -0.0168
   18CHTO   C47 7436   6.332   7.438   5.615  0.4284 -0.3010  0.1287
   18CHTO   H89 7437   6.304   7.340   5.571  0.9268 -1.4248  2.2647
   18CHTO   O33 7438   6.376   7.513   5.496  0.3809  0.0604 -0.5621
   18CHTO   H70 7439   6.362   7.472   5.413 -0.8123 -1.4749  0.3737
   18CHTO   C45 7440   6.211   7.511   5.690 -0.1611  0.2367 -0.8532
   18CHTO   H87 7441   6.225   7.620   5.680 -0.0141  0.3237  0.3162
   18CHTO    N8 7442   6.086   7.472   5.614  0.3260 -0.0343 -0.2824
   18CHTO   H75 7443   6.011   7.533   5.660  0.4127 -0.8564  0.9519
   18CHTO   H76 7444   6.061   7.368   5.628 -1.4956  0.5219  0.6475
   18CHTO   C43 7445   6.208   7.488   5.849  0.2803  0.3608  0.2653
   18CHTO   H85 7446   6.273   7.564   5.893 -2.1940  1.1407  2.6661
   18CHTO   O29 7447   6.251   7.351   5.882  0.2448 -0.1948  0.0862
   18CHTO   C50 7448   6.392   7.341   5.843  0.2928 -0.3431  0.0049
   18CHTO   H92 7449   6.456   7.379   5.924 -0.5856 -0.3669  0.7176
   18CHTO   C54 7450   6.419   7.183   5.862  0.4928 -0.1857 -0.3115
   18CHTO   O36 7451   6.560   7.155   5.875 -0.2078 -0.0497 -0.2532
   18CHTO   H72 7452   6.604   7.183   5.798 -2.2942  0.8133 -1.1871
   18CHTO   O27 7453   6.082   7.522   5.909 -0.1808 -0.0378 -0.2362
   18CHTO   C37 7454   6.008   7.528   6.035  0.2166 -0.1866  0.0777
   18CHTO   H79 7455   5.970   7.427   6.056  0.8115 -0.3889  0.1844
   18CHTO   C38 7456   6.097   7.553   6.160 -0.6657 -0.5838 -0.2456
   18CHTO   H80 7457   6.156   7.645   6.143 -1.1939  0.1762  1.9085
   18CHTO   O31 7458   6.183   7.435   6.171  0.6724  0.0795  0.1628
   18CHTO   H68 7459   6.255   7.445   6.112  0.1722  0.9255 -0.3185
   18CHTO   C39 7460   6.012   7.591   6.287 -0.1421  0.1540  0.4976
   18CHTO   H81 7461   5.964   7.503   6.329 -0.0055  0.8987  2.2502
   18CHTO    N7 7462   6.105   7.637   6.395 -0.1162  0.1133 -0.3565
   18CHTO   H73 7463   6.199   7.583   6.398 -0.9634 -1.4167 -0.6270
   18CHTO   H74 7464   6.125   7.739   6.367  1.8379  0.6146  2.5353
   18CHTO   C40 7465   5.895   7.681   6.256  0.6233  0.2367  0.7225
   18CHTO   H82 7466   5.929   7.783   6.239 -1.8030  0.5781 -2.6819
   18CHTO   O26 7467   5.824   7.636   6.146  0.6806  0.3160 -0.1181
   18CHTO   C41 7468   5.890   7.626   6.021 -0.1430  0.6866 -0.3144
   18CHTO   H83 7469   5.922   7.726   5.986  0.1475  0.2156 -1.4202
   18CHTO   C52 7470   5.794   7.576   5.917  0.0649  0.2126  0.2153
   18CHTO   O35 7471   5.654   7.623   5.922  0.2656 -0.1048  0.2832
   18CHTO   H71 7472   5.649   7.715   5.908  1.1982  0.3521  2.7187
   18CHTO   O28 7473   5.804   7.685   6.366 -0.0627 -0.2109  0.4635
   18CHTO   C42 7474   5.660   7.655   6.367  0.4143  0.8371 -0.7237
   18CHTO   H84 7475   5.631   7.682   6.469  1.1954 -1.0892  0.0309
   18CHTO   C44 7476   5.618   7.503   6.349 -0.3445  0.6166  0.2640
   18CHTO   H86 7477   5.679   7.462   6.270 -0.2281  1.3686 -0.0420
   18CHTO   O32 7478   5.670   7.427   6.464  0.6561 -0.5361 -0.7771
   18CHTO   H69 7479   5.625   7.345   6.463  0.0607 -0.2183 -2.5824
   18CHTO   C48 7480   5.469   7.473   6.345 -0.1173 -0.4770  0.0628
   18CHTO   H90 7481   5.422   7.491   6.441 -1.7756 -0.4665 -0.7315
   18CHTO    N9 7482   5.436   7.330   6.313  0.0224  0.1404 -0.2094
   18CHTO   H77 7483   5.330   7.331   6.291  0.0472  0.7668 -0.2925
   18CHTO   H78 7484   5.485   7.311   6.219 -1.9288 -0.9803 -1.0261
   18CHTO   C51 7485   5.402   7.572   6.234  0.2352 -0.7819  0.3399
   18CHTO   H93 7486   5.443   7.554   6.134 -1.5782 -1.4506 -0.2992
   18CHTO   O30 7487   5.415   7.708   6.275  0.1473 -0.9774 -0.6211
   18CHTO   C46 7488   5.576   7.743   6.267  0.5799  0.4262  0.1473
   18CHTO   H88 7489   5.590   7.734   6.159 -0.1981  1.8216 -0.0835
   18CHTO   C53 7490   5.583   7.893   6.294 -0.8000 -0.0112  0.6863
   18CHTO   O72 7491   5.719   7.934   6.303 -0.0137 -0.1161  0.1679
   18CHTO  H199 7492   5.736   8.021   6.272  0.6028 -0.2712  0.0554
   18CHTO   O22 7493   5.260   7.552   6.219  0.2566 -0.3389 -0.0290
   18CHTO   C31 7494   5.204   7.567   6.083 -0.2695  0.1039 -0.2740
   18CHTO   H59 7495   5.095   7.562   6.102 -0.1283  0.6731  0.7590
   18CHTO   C29 7496   5.236   7.704   6.024 -0.3408 -0.5141 -0.1777
   18CHTO   H57 7497   5.346   7.717   6.024 -0.1196 -1.7517 -3.8087
   18CHTO   O21 7498   5.185   7.813   6.113 -0.2328 -0.2801  0.2819
   18CHTO   H37 7499   5.096   7.831   6.092 -0.2392 -0.0605  0.5104
   18CHTO   C27 7500   5.188   7.723   5.871 -0.7657  0.5739 -0.1317
   18CHTO   H55 7501   5.079   7.713   5.870 -0.8127  1.0265  0.2936
   18CHTO    N5 7502   5.222   7.856   5.810 -0.3478  0.3574  0.1856
   18CHTO   H43 7503   5.137   7.920   5.788  0.1637  1.2569  0.7620
   18CHTO   H44 7504   5.293   7.843   5.729 -0.1834 -1.9183  0.6700
   18CHTO   C25 7505   5.257   7.605   5.796 -0.3523  0.1085  0.5829
   18CHTO   H53 7506   5.367   7.599   5.808 -0.4006 -1.3468  0.3658
   18CHTO   O17 7507   5.196   7.488   5.839 -0.5000 -0.2649 -0.0044
   18CHTO   C32 7508   5.233   7.450   5.978 -0.4117  0.0642  0.3351
   18CHTO   H60 7509   5.341   7.435   5.969 -0.8479 -2.0782 -2.1803
   18CHTO   C36 7510   5.168   7.320   6.029 -0.1898  0.2166  0.0184
   18CHTO   O25 7511   5.190   7.208   5.949 -0.4814 -0.2741  0.3349
   18CHTO   H40 7512   5.122   7.189   5.887 -1.4521  2.1522  0.6008
   18CHTO   O15 7513   5.245   7.606   5.648 -0.1596 -0.4224 -0.2656
   18CHTO   C19 7514   5.298   7.594   5.513  0.0576  0.4501  0.5398
   18CHTO   H47 7515   5.269   7.494   5.480  1.8024  0.5654 -1.4912
   18CHTO   C20 7516   5.235   7.697   5.412  0.1628  0.9443 -0.3017
   18CHTO   H48 7517   5.242   7.802   5.444 -0.3445  1.4237 -1.7043
   18CHTO   O19 7518   5.096   7.664   5.408 -0.1941 -0.0928  0.3544
   18CHTO   H35 7519   5.054   7.689   5.488 -2.2219 -0.5870 -0.5357
   18CHTO   C21 7520   5.293   7.689   5.266 -0.1770  0.5342  0.7152
   18CHTO   H49 7521   5.261   7.594   5.223 -0.1404  0.9475 -0.2296
   18CHTO    N4 7522   5.252   7.794   5.169 -0.9197  0.3641 -0.5197
   18CHTO   H41 7523   5.144   7.802   5.164 -0.8856  0.6951 -0.7375
   18CHTO   H42 7524   5.287   7.764   5.071 -1.9561  1.7447 -1.3316
   18CHTO   C22 7525   5.447   7.677   5.276  0.0690 -0.0171  0.1234
   18CHTO   H50 7526   5.480   7.778   5.298  2.7281 -0.6046 -0.8816
   18CHTO   O14 7527   5.497   7.579   5.367  0.6172 -0.4143  0.0629
   18CHTO   C23 7528   5.458   7.588   5.509  0.5893  0.7059 -0.5115
   18CHTO   H51 7529   5.503   7.676   5.558  1.0506  0.3811 -0.3608
   18CHTO   C34 7530   5.505   7.462   5.577  0.6695 -0.0226 -0.6356
   18CHTO   O23 7531   5.649   7.449   5.556 -0.4565  0.3268 -0.3234
   18CHTO   H38 7532   5.687   7.488   5.632 -0.6833 -1.0261  0.5029
   18CHTO   O16 7533   5.513   7.628   5.159  0.6577  0.0113  0.4935
   18CHTO   C24 7534   5.643   7.675   5.122 -0.2886 -0.2348  0.5376
   18CHTO   H52 7535   5.693   7.727   5.203  1.0513 -1.8937  0.7954
   18CHTO   C26 7536   5.632   7.777   5.007  0.4908  0.3171  0.2979
   18CHTO   H54 7537   5.560   7.739   4.931  1.5980 -1.4114  0.0970
   18CHTO   O20 7538   5.578   7.895   5.078  0.5039 -0.1402 -0.0336
   18CHTO   H36 7539   5.488   7.905   5.051  0.6827  3.1073  0.3249
   18CHTO   C30 7540   5.767   7.814   4.936  0.1428 -0.2331 -0.2478
   18CHTO   H58 7541   5.828   7.878   5.001  1.1104 -1.7861  0.3914
   18CHTO    N6 7542   5.751   7.893   4.808  0.2627  0.2656 -0.7449
   18CHTO   H45 7543   5.736   7.998   4.829 -1.2927 -0.1247  0.2611
   18CHTO   H46 7544   5.832   7.885   4.738  1.3849  1.3966  0.4018
   18CHTO   C33 7545   5.846   7.681   4.916 -0.4938  0.4804 -0.1919
   18CHTO   H61 7546   5.791   7.615   4.847  2.1222 -4.1578  1.9329
   18CHTO   O18 7547   5.852   7.616   5.042 -0.2032  0.4023 -0.3844
   18CHTO   C28 7548   5.732   7.558   5.082 -1.0415 -0.0493  0.3146
   18CHTO   H56 7549   5.678   7.508   5.001 -0.4315  0.8596 -0.6661
   18CHTO   C35 7550   5.761   7.462   5.198  0.6123  0.2802  0.2020
   18CHTO   O24 7551   5.874   7.373   5.177  0.0105 -0.2004  0.1202
   18CHTO   H39 7552   5.929   7.383   5.253 -1.1442 -1.4413  1.1451
   18CHTO    O9 7553   5.978   7.710   4.865 -0.2652 -0.5843  0.0735
   18CHTO   C13 7554   6.045   7.588   4.761  0.4326 -0.1129  0.4038
   18CHTO   H26 7555   6.038   7.631   4.659 -1.7000 -1.2850  0.0277
   18CHTO   C11 7556   5.976   7.445   4.769  0.6550 -0.7954  0.9502
   18CHTO   H24 7557   5.874   7.467   4.733  1.5159  3.0314  0.6803
   18CHTO    O8 7558   5.970   7.406   4.908 -0.5589  0.3133  0.2840
   18CHTO    H3 7559   5.906   7.449   4.961 -3.3758  0.3446 -2.9492
   18CHTO    C9 7560   6.043   7.344   4.664  0.6424 -0.1712  0.2287
   18CHTO   H22 7561   6.041   7.394   4.566  1.6969  1.3736  0.9731
   18CHTO    N2 7562   5.952   7.226   4.660  0.1932  0.5111  0.0670
   18CHTO   H10 7563   5.851   7.247   4.627  0.1958  0.3720 -0.0346
   18CHTO   H11 7564   5.956   7.179   4.758  1.3756  0.7969  0.1628
   18CHTO    C7 7565   6.184   7.323   4.714 -0.0711 -0.4600 -0.2799
   18CHTO   H20 7566   6.240   7.314   4.619  0.7755  4.0244 -0.3306
   18CHTO    O4 7567   6.243   7.434   4.778 -0.1391  0.5154 -0.0783
   18CHTO   C14 7568   6.203   7.569   4.768 -0.3487  1.1188 -0.2892
   18CHTO   H27 7569   6.247   7.596   4.670 -1.3322 -0.4755 -1.1964
   18CHTO   C18 7570   6.264   7.660   4.877 -0.5396 -0.0702 -0.4450
   18CHTO   O13 7571   6.233   7.619   5.010  0.2692 -0.0566 -0.2775
   18CHTO    H7 7572   6.285   7.542   5.025 -1.5403 -1.4603 -1.0127
   18CHTO    O2 7573   6.197   7.179   4.821  0.5583  0.4083  0.7671
   18CHTO    C1 7574   6.326   7.160   4.892 -0.7008 -0.9418 -0.2393
   18CHTO   H14 7575   6.385   7.253   4.882 -1.1388 -0.5957  0.3397
   18CHTO    C2 7576   6.408   7.046   4.841 -0.7484  0.0490 -0.1518
   18CHTO   H15 7577   6.351   6.960   4.879  0.9243 -1.2198 -0.4552
   18CHTO    O6 7578   6.418   7.042   4.699 -0.4705 -0.4368 -0.5402
   18CHTO    H1 7579   6.466   7.115   4.664 -1.0898  0.2310 -0.0318
   18CHTO    C3 7580   6.550   7.040   4.922 -0.3224  0.3913  0.3756
   18CHTO   H16 7581   6.601   7.136   4.903  0.5264 -0.1740 -0.2218
   18CHTO    N1 7582   6.646   6.933   4.876  0.4420 -0.0160  0.2399
   18CHTO    H8 7583   6.621   6.834   4.910  1.6005 -0.2142  0.5274
   18CHTO    H9 7584   6.669   6.947   4.771  1.1098 -2.3659  0.0469
   18CHTO    C4 7585   6.530   7.029   5.073  0.8009  0.1121  0.0937
   18CHTO   H17 7586   6.508   6.925   5.099 -2.2527  0.7271  0.1796
   18CHTO    O1 7587   6.431   7.128   5.119  0.7607 -0.1239  0.4439
   18CHTO    C5 7588   6.305   7.134   5.049 -0.1065 -0.0239  0.3688
   18CHTO   H18 7589   6.249   7.040   5.052  1.3666 -0.9945 -1.6432
   18CHTO   C16 7590   6.220   7.249   5.116  0.4815  0.5949 -0.6662
   18CHTO   O11 7591   6.300   7.367   5.131  0.3935  0.0640 -0.7795
   18CHTO    H5 7592   6.238   7.432   5.158 -0.2655 -0.0538 -1.9917
   18CHTO    O3 7593   6.640   7.081   5.149 -0.3929  0.1238  0.2000
   18CHTO    C6 7594   6.645   7.025   5.287 -0.0659 -1.3030  0.1397
   18CHTO   H19 7595   6.556   6.974   5.323 -0.4470 -1.2220 -0.6621
   18CHTO    C8 7596   6.766   6.917   5.296  0.1278  0.1848  0.0025
   18CHTO   H21 7597   6.863   6.960   5.273 -0.4874  2.1081  0.9027
   18CHTO    O7 7598   6.727   6.810   5.211  0.4598  0.4063 -0.4606
   18CHTO    H2 7599   6.646   6.767   5.233  1.0107 -1.1710 -1.3857
   18CHTO   C12 7600   6.778   6.852   5.441  0.1839 -0.4417  0.5005
   18CHTO   H25 7601   6.687   6.789   5.454 -0.4129 -0.5520 -3.6439
   18CHTO    N3 7602   6.883   6.747   5.459 -0.4840  0.1752 -0.2260
   18CHTO   H12 7603   6.960   6.784   5.525  0.9688  0.5057 -2.0485
   18CHTO   H13 7604   6.929   6.726   5.363  0.0293  1.7001 -0.3231
   18CHTO   C15 7605   6.775   6.969   5.549 -0.1685  0.1581 -0.1042
   18CHTO   H28 7606   6.875   7.010   5.553  0.2432 -0.7679 -0.7468
   18CHTO   O10 7607   6.750   6.917   5.704 -0.4998  0.1313  0.6053
   18CHTO    H4 7608   6.697   6.840   5.707 -0.2954  0.0309  2.0854
   18CHTO    O5 7609   6.671   7.069   5.520  0.4769 -0.2411  0.7072
   18CHTO   C10 7610   6.679   7.141   5.395 -0.0545  0.5093  0.6125
   18CHTO   H23 7611   6.778   7.183   5.380  0.0064 -0.7095 -2.8585
   18CHTO   C17 7612   6.572   7.248   5.387 -0.0910  0.2370  0.2964
   18CHTO   O12 7613   6.623   7.352   5.301 -0.0376 -0.0970 -0.0476
   18CHTO    H6 7614   6.653   7.424   5.354  0.7728 -0.6885  0.2910
   19CHTO  H203 7615   6.776   8.355   6.871  0.0772 -0.7397  1.4412
   19CHTO   O82 7616   6.753   8.274   6.829 -0.0317 -0.0383  0.1479
   19CHTO  C123 7617   6.637   8.284   6.743  0.1152 -0.0235 -0.7474
   19CHTO  H227 7618   6.659   8.353   6.659  1.9635  0.7312  0.3351
   19CHTO   O77 7619   6.631   8.153   6.691 -0.0018  0.6791  0.0801
   19CHTO  C118 7620   6.520   8.104   6.610  0.1146  0.2522 -0.1279
   19CHTO  H222 7621   6.518   8.154   6.512  1.2389 -0.1725 -0.3758
   19CHTO  C125 7622   6.539   7.944   6.591 -0.2761 -0.5960 -0.6452
   19CHTO   O84 7623   6.536   7.877   6.720  0.1963 -0.2730 -0.3503
   19CHTO  H205 7624   6.605   7.921   6.766 -0.0094 -0.2660 -0.0435
   19CHTO  C114 7625   6.396   8.131   6.691 -0.6514  0.7120  0.0693
   19CHTO  H218 7626   6.401   8.071   6.782  1.6844 -0.8624 -1.0740
   19CHTO  C116 7627   6.379   8.276   6.751 -0.1081 -0.0193 -0.5379
   19CHTO  H220 7628   6.353   8.351   6.673  1.9368  0.3460 -0.8934
   19CHTO   O79 7629   6.267   8.276   6.844 -0.2371  0.1478  0.5626
   19CHTO  H201 7630   6.202   8.219   6.809  0.4047 -0.0924 -0.2388
   19CHTO  C120 7631   6.507   8.317   6.825  0.3716  0.7426  0.6238
   19CHTO  H224 7632   6.502   8.260   6.920 -2.4427 -2.2780 -1.2484
   19CHTO   N21 7633   6.518   8.461   6.858 -0.0610  0.0083  0.1663
   19CHTO  H211 7634   6.485   8.476   6.959  1.4974 -1.2265  0.8735
   19CHTO  H212 7635   6.477   8.526   6.782  0.1432  1.2794  1.1213
   19CHTO   O75 7636   6.280   8.087   6.605  0.2020  0.4618  0.0200
   19CHTO  C112 7637   6.167   8.006   6.695  0.1090  0.7928  0.6368
   19CHTO  H216 7638   6.137   8.066   6.783 -2.5155  0.4787  0.0199
   19CHTO   O73 7639   6.227   7.879   6.733 -0.2929  0.3712  0.2569
   19CHTO  C113 7640   6.130   7.800   6.811  0.3135 -0.3044 -1.2203
   19CHTO  H217 7641   6.107   7.863   6.900  1.0891 -2.5503  0.6216
   19CHTO  C124 7642   6.198   7.673   6.872 -0.3616 -0.1805 -0.2757
   19CHTO   O83 7643   6.312   7.695   6.962 -0.1848 -0.1952 -0.1472
   19CHTO  H204 7644   6.353   7.618   6.996  3.5714  0.8669 -1.9270
   19CHTO  C109 7645   5.997   7.776   6.736  0.4628 -0.1616 -0.6621
   19CHTO  H213 7646   6.017   7.720   6.643 -0.0639 -2.2609  0.4480
   19CHTO  C110 7647   5.937   7.908   6.693 -0.0111 -0.6657 -0.1556
   19CHTO  H214 7648   5.921   7.958   6.789  0.8985 -1.4522  0.4252
   19CHTO   O78 7649   5.814   7.881   6.625  0.4038 -0.7447  0.2556
   19CHTO  H200 7650   5.771   7.962   6.603  2.5667  0.7655  1.3520
   19CHTO  C111 7651   6.038   7.987   6.606  0.2736  0.2909  0.0850
   19CHTO  H215 7652   6.056   7.926   6.516  0.6453  2.2450 -1.1889
   19CHTO   N19 7653   5.984   8.114   6.557  0.2503 -0.4548 -0.7622
   19CHTO  H207 7654   6.042   8.164   6.481  0.0742  0.5113 -0.2645
   19CHTO  H208 7655   5.886   8.100   6.512  0.0955 -2.1382  0.0559
   19CHTO   O74 7656   5.902   7.696   6.821 -0.5117 -0.0690  0.7882
   19CHTO  C115 7657   5.811   7.586   6.734  0.1390  0.4938  0.4772
   19CHTO  H219 7658   5.742   7.635   6.666  2.1265 -0.2000 -2.1011
   19CHTO   O76 7659   5.905   7.488   6.645 -0.2259 -0.2178  0.1440
   19CHTO  C122 7660   5.972   7.379   6.706 -0.5569  0.0956  0.1101
   19CHTO  H226 7661   6.060   7.425   6.751 -1.0957  1.2136  0.0562
   19CHTO  C126 7662   6.026   7.286   6.589 -0.2549  0.5728 -0.3119
   19CHTO   O85 7663   6.110   7.348   6.486  0.0067  0.5458 -0.4008
   19CHTO  H206 7664   6.137   7.284   6.423 -0.1343  0.1144 -0.0332
   19CHTO  C121 7665   5.887   7.301   6.819  0.4983 -0.0018  0.3760
   19CHTO  H225 7666   5.888   7.195   6.785  1.7056  0.5838 -1.4889
   19CHTO   O81 7667   5.946   7.296   6.954  0.7234 -0.6112 -0.0281
   19CHTO  H202 7668   5.941   7.385   6.984 -1.3359 -0.2737 -1.3107
   19CHTO  C119 7669   5.732   7.352   6.820  0.1226  0.5209 -0.0670
   19CHTO  H223 7670   5.694   7.336   6.719  1.4798  1.1505 -0.6890
   19CHTO  C117 7671   5.720   7.507   6.845  0.0744  0.1779 -0.0570
   19CHTO  H221 7672   5.752   7.549   6.940 -1.9697  0.3266  0.5858
   19CHTO   N20 7673   5.582   7.563   6.837  0.2127 -0.3587  0.2837
   19CHTO  H209 7674   5.518   7.539   6.921  0.4275 -1.1802  0.2157
   19CHTO  H210 7675   5.535   7.539   6.743  1.3866 -3.0181  0.3404
   19CHTO   O80 7676   5.641   7.250   6.913 -0.2234  0.1481  0.2617
   19CHTO  C103 7677   5.596   7.131   6.865  0.1142  1.2313 -0.0943
   19CHTO  H190 7678   5.613   7.115   6.759  2.0221  1.3241  0.1767
   19CHTO  C101 7679   5.653   7.004   6.945 -0.2002  1.1647 -0.4512
   19CHTO  H188 7680   5.628   7.027   7.048  1.1027  0.9264 -0.0717
   19CHTO   O68 7681   5.813   6.982   6.917 -0.0900 -0.2561 -0.3061
   19CHTO  H168 7682   5.825   6.889   6.916  0.2136 -0.2218  0.1184
   19CHTO   C99 7683   5.563   6.872   6.911  0.7679 -0.2156 -0.4063
   19CHTO  H186 7684   5.576   6.847   6.804 -2.0065  0.7957 -1.0314
   19CHTO   N17 7685   5.609   6.747   6.984  0.6345 -0.3089 -0.0521
   19CHTO  H174 7686   5.577   6.656   6.936 -0.4281  0.8844 -1.7013
   19CHTO  H175 7687   5.710   6.753   7.022  1.4028 -0.4306 -2.0022
   19CHTO   C97 7688   5.408   6.905   6.928  0.0810  0.4838  0.0103
   19CHTO  H184 7689   5.386   6.923   7.034  0.9007  1.3024  0.0540
   19CHTO   O64 7690   5.376   7.021   6.849 -0.2758  0.3222  0.0865
   19CHTO  C104 7691   5.439   7.137   6.893 -0.6094  0.7882 -0.0938
   19CHTO  H191 7692   5.420   7.139   7.000  1.2965  2.1416  0.2454
   19CHTO  C108 7693   5.355   7.249   6.826 -0.0740  0.0633  0.1396
   19CHTO   O71 7694   5.381   7.272   6.691 -0.0442  0.3738  0.1580
   19CHTO  H171 7695   5.316   7.227   6.642  1.7971 -0.7865 -1.2735
   19CHTO   O62 7696   5.327   6.796   6.879 -0.3350 -0.3803 -0.2890
   19CHTO   C91 7697   5.189   6.811   6.902 -0.1231  0.2530 -0.2180
   19CHTO  H178 7698   5.165   6.905   6.951  1.8668  0.5049  0.3136
   19CHTO   C92 7699   5.144   6.695   6.994  0.2691 -0.5210  0.2381
   19CHTO  H179 7700   5.219   6.700   7.075  0.7283  2.7739 -0.3424
   19CHTO   O66 7701   5.016   6.727   7.043  0.0802 -0.1073 -0.0493
   19CHTO  H166 7702   5.019   6.796   7.106  1.6152  0.8327 -1.0982
   19CHTO   C93 7703   5.143   6.546   6.917 -0.0170  0.2402 -0.2287
   19CHTO  H180 7704   5.059   6.488   6.960  0.6232  0.5160  1.4453
   19CHTO   N16 7705   5.268   6.467   6.931 -0.1079 -0.2137 -0.1546
   19CHTO  H172 7706   5.285   6.443   7.035  0.1996  1.2407  0.1423
   19CHTO  H173 7707   5.269   6.387   6.859  2.5434 -0.0565 -0.3395
   19CHTO   C94 7708   5.118   6.566   6.761  0.1003  0.5345  0.8370
   19CHTO  H181 7709   5.213   6.572   6.707  0.6243 -0.6425  1.6071
   19CHTO   O61 7710   5.034   6.683   6.744  0.1814 -0.2488  1.1600
   19CHTO   C95 7711   5.100   6.809   6.764 -0.5858 -0.7185  0.1012
   19CHTO  H182 7712   5.178   6.821   6.688  1.3571  0.4941  2.2149
   19CHTO  C106 7713   4.996   6.927   6.762  0.4304 -0.4539  0.0868
   19CHTO   O69 7714   4.979   6.993   6.633  0.1491  0.0012  0.1319
   19CHTO  H169 7715   4.943   7.078   6.654 -0.3873 -0.4440  1.0354
   19CHTO   O63 7716   5.037   6.452   6.710  0.2319 -0.4308  0.0131
   19CHTO   C96 7717   5.098   6.402   6.573  0.2412  0.5588  0.8086
   19CHTO  H183 7718   5.200   6.372   6.595  1.7797  3.2334 -2.2729
   19CHTO   C98 7719   5.088   6.512   6.461 -0.4882 -0.3574 -0.2068
   19CHTO  H185 7720   5.105   6.607   6.515  2.3353 -0.6254 -0.5429
   19CHTO   O67 7721   5.200   6.496   6.368  0.6193  0.7102  0.1265
   19CHTO  H167 7722   5.284   6.505   6.407  0.7119 -1.2855  0.4748
   19CHTO  C102 7723   4.953   6.499   6.379 -0.6198 -0.0531  0.5522
   19CHTO  H189 7724   4.966   6.558   6.287  1.0491  1.5249  1.7609
   19CHTO   N18 7725   4.831   6.565   6.444 -0.0464  0.1515 -0.0767
   19CHTO  H176 7726   4.849   6.565   6.550  0.6544  1.4127 -0.1810
   19CHTO  H177 7727   4.829   6.669   6.413 -1.4859 -0.3865 -1.8504
   19CHTO  C105 7728   4.921   6.352   6.335  0.1146  0.2261 -0.0116
   19CHTO  H192 7729   4.820   6.324   6.364  0.3425 -0.3716  0.2051
   19CHTO   O65 7730   5.011   6.253   6.393 -0.1445  0.5579 -0.2355
   19CHTO  C100 7731   5.019   6.265   6.533  0.0790  0.4144 -0.0282
   19CHTO  H187 7732   4.921   6.265   6.583 -0.2748  2.9870 -0.6332
   19CHTO  C107 7733   5.095   6.136   6.582 -0.4016 -0.5048  0.3555
   19CHTO   O70 7734   5.022   6.015   6.546 -0.1780  0.6964 -0.4515
   19CHTO  H170 7735   4.930   6.031   6.554 -0.5812 -0.4412 -2.2516
   19CHTO   O57 7736   4.934   6.355   6.179 -0.1280  0.3474  0.0185
   19CHTO   C85 7737   4.833   6.309   6.088 -0.1339 -0.6006 -0.3325
   19CHTO  H157 7738   4.746   6.287   6.153 -0.5119  0.2952 -0.5407
   19CHTO   C83 7739   4.882   6.180   6.022  0.5108 -0.0757 -1.1690
   19CHTO  H155 7740   4.903   6.110   6.104  0.9630  2.4307  0.9409
   19CHTO   O56 7741   5.007   6.210   5.951 -0.3819  0.1231 -0.0439
   19CHTO  H135 7742   5.052   6.128   5.955 -0.2037  0.2146 -0.1784
   19CHTO   C81 7743   4.767   6.123   5.932 -0.0428 -0.1360  1.0957
   19CHTO  H153 7744   4.682   6.083   5.988  0.0987 -0.3855  1.1366
   19CHTO   N14 7745   4.812   5.991   5.869 -0.9396  0.3675  0.2842
   19CHTO  H141 7746   4.845   5.923   5.945 -0.1332 -0.5737 -0.8779
   19CHTO  H142 7747   4.732   5.948   5.813  1.8432 -1.8723 -2.1900
   19CHTO   C79 7748   4.715   6.226   5.822 -1.0733 -0.4344 -0.2362
   19CHTO  H151 7749   4.623   6.187   5.777 -0.1492 -0.8716 -1.7674
   19CHTO   O52 7750   4.687   6.353   5.892 -0.3348 -0.4100 -0.3641
   19CHTO   C86 7751   4.799   6.400   5.976 -0.0539  0.0255 -0.4241
   19CHTO  H158 7752   4.883   6.408   5.903 -2.4612  2.1069 -3.0955
   19CHTO   C90 7753   4.773   6.547   6.026 -0.2122  0.3859  0.0672
   19CHTO   O60 7754   4.654   6.546   6.105  0.0501 -0.3944  0.0656
   19CHTO  H138 7755   4.654   6.619   6.163 -0.3782 -0.1076 -0.2919
   19CHTO   O50 7756   4.802   6.266   5.714  0.2337 -0.3182 -0.0876
   19CHTO   C73 7757   4.817   6.292   5.571 -0.1419  0.3336 -0.1559
   19CHTO  H145 7758   4.786   6.205   5.511  3.6714 -0.7992 -0.6113
   19CHTO   C74 7759   4.960   6.320   5.552  0.3832  0.4571 -0.7457
   19CHTO  H146 7760   5.009   6.232   5.596  2.6197  3.0987  2.2842
   19CHTO   O54 7761   4.995   6.318   5.410  0.2490  0.1802  0.2381
   19CHTO  H133 7762   5.080   6.356   5.398  0.3298 -0.4629 -1.3364
   19CHTO   C75 7763   5.007   6.456   5.623 -0.5913 -0.6320  0.0192
   19CHTO  H147 7764   4.990   6.452   5.732  1.5148 -0.0803  0.3979
   19CHTO   N13 7765   5.151   6.491   5.604 -0.1366  0.3136  0.1522
   19CHTO  H139 7766   5.207   6.438   5.680  1.6516  0.6141 -0.9358
   19CHTO  H140 7767   5.190   6.499   5.504  0.6005 -0.4803  0.3684
   19CHTO   C76 7768   4.907   6.572   5.571  0.1305 -0.3138  0.2948
   19CHTO  H148 7769   4.934   6.589   5.467 -1.0231  1.0125  0.1899
   19CHTO   O49 7770   4.769   6.535   5.588  0.0427 -0.3439  0.6688
   19CHTO   C77 7771   4.732   6.413   5.523  0.0675  0.0771 -0.5904
   19CHTO  H149 7772   4.754   6.430   5.418  0.5802  0.2937 -0.4499
   19CHTO   C88 7773   4.577   6.383   5.545 -0.5083 -0.0203  0.2515
   19CHTO   O58 7774   4.508   6.471   5.497 -0.2857 -0.8341  0.0953
   19CHTO  H136 7775   4.509   6.547   5.552  0.1325 -0.3516 -0.5707
   19CHTO   O51 7776   4.938   6.704   5.661 -0.2442 -0.3307 -0.3713
   19CHTO   C78 7777   4.926   6.842   5.580  0.0907  0.0556 -0.6425
   19CHTO  H150 7778   4.887   6.823   5.478  1.3190 -1.6345 -0.8179
   19CHTO   C80 7779   5.050   6.932   5.580 -0.2114  0.1618  0.5753
   19CHTO  H152 7780   5.096   6.936   5.681 -0.3632 -0.7311  0.6838
   19CHTO   O55 7781   5.148   6.863   5.498  0.8160  0.1681 -0.0501
   19CHTO  H134 7782   5.111   6.781   5.470 -0.7168  0.4842  0.9840
   19CHTO   C84 7783   5.020   7.078   5.520 -0.0215  0.1242 -0.1988
   19CHTO  H156 7784   4.999   7.062   5.414  0.8321  0.6839 -0.4599
   19CHTO   N15 7785   5.141   7.170   5.522  0.8417 -0.2175  0.5892
   19CHTO  H143 7786   5.167   7.205   5.425 -1.5340  0.6023  0.2197
   19CHTO  H144 7787   5.229   7.153   5.581  0.1873 -3.4968  0.6947
   19CHTO   C87 7788   4.891   7.140   5.583 -0.1886  0.2913  1.3584
   19CHTO  H159 7789   4.904   7.167   5.688 -0.6936 -0.8323  1.7180
   19CHTO   O53 7790   4.787   7.048   5.565  0.4044 -0.2377 -0.4407
   19CHTO   C82 7791   4.810   6.925   5.642  1.1340  0.4272  0.6639
   19CHTO  H154 7792   4.827   6.956   5.745 -0.3739 -0.5104  1.2222
   19CHTO   C89 7793   4.671   6.850   5.637 -0.1178 -0.2232  0.3794
   19CHTO   O59 7794   4.561   6.937   5.662  0.3304  0.1298  0.0330
   19CHTO  H137 7795   4.538   6.941   5.753 -1.0103 -0.8958 -0.2482
   19CHTO   O45 7796   4.840   7.282   5.482 -0.1751  0.2124  0.2604
   19CHTO   C67 7797   4.742   7.366   5.548  0.0442  1.0038 -0.2138
   19CHTO  H124 7798   4.695   7.297   5.617  0.3682  2.3659  1.3804
   19CHTO   C65 7799   4.811   7.477   5.615 -0.3759 -0.5394  0.1928
   19CHTO  H122 7800   4.896   7.509   5.555  0.4378  0.4031  1.8145
   19CHTO   O44 7801   4.875   7.426   5.734 -0.2361 -0.3280  0.1274
   19CHTO  H102 7802   4.942   7.365   5.709  0.1847 -0.9582  2.6939
   19CHTO   C63 7803   4.722   7.609   5.633  0.5075  0.2173  0.2073
   19CHTO  H120 7804   4.729   7.664   5.539  1.1735 -1.8763 -0.9862
   19CHTO   N11 7805   4.765   7.713   5.735 -0.5359 -0.1336  0.3524
   19CHTO  H108 7806   4.728   7.813   5.722 -0.9040 -0.5562 -2.0398
   19CHTO  H109 7807   4.871   7.708   5.743 -0.4859  0.9646  0.4479
   19CHTO   C61 7808   4.572   7.564   5.647 -0.5314 -0.2523 -0.0359
   19CHTO  H118 7809   4.517   7.659   5.642 -0.2280 -0.0488  0.4723
   19CHTO   O40 7810   4.531   7.485   5.524 -0.0247  0.0080  0.0465
   19CHTO   C68 7811   4.634   7.406   5.454 -0.4066  0.1078  0.4234
   19CHTO  H125 7812   4.670   7.468   5.369 -1.6315  1.0434  0.5651
   19CHTO   C72 7813   4.567   7.285   5.389  0.1827 -0.5593 -0.1300
   19CHTO   O48 7814   4.525   7.183   5.476 -0.3093 -0.6926 -0.0986
   19CHTO  H105 7815   4.588   7.115   5.468  0.7350  0.4891 -2.3915
   19CHTO   O38 7816   4.539   7.497   5.769 -0.4349  0.0945 -0.2823
   19CHTO   C55 7817   4.424   7.409   5.777  0.0163 -0.1226  0.5066
   19CHTO  H112 7818   4.414   7.355   5.681 -1.8533  0.4281  0.3781
   19CHTO   C56 7819   4.290   7.483   5.809  0.0980  0.3933 -0.5913
   19CHTO  H113 7820   4.292   7.514   5.915  0.1102 -0.1387 -0.4365
   19CHTO   O42 7821   4.281   7.601   5.723 -0.4091  0.5930 -0.5854
   19CHTO  H100 7822   4.203   7.652   5.734 -0.1444  1.0805 -0.9410
   19CHTO   C57 7823   4.177   7.380   5.791 -0.1456 -0.4651 -0.0735
   19CHTO  H114 7824   4.180   7.354   5.686  0.0774 -1.1720  0.1034
   19CHTO   N10 7825   4.048   7.448   5.821 -0.5047  0.0695 -0.6237
   19CHTO  H106 7826   3.976   7.380   5.865  1.5788 -0.2621  2.4782
   19CHTO  H107 7827   4.005   7.488   5.731 -0.2781  0.4727 -0.5518
   19CHTO   C58 7828   4.198   7.249   5.873 -0.1235 -0.5228  0.1324
   19CHTO  H115 7829   4.169   7.263   5.980 -1.9617 -0.2602 -0.3773
   19CHTO   O37 7830   4.333   7.199   5.876  0.0391  0.1315  0.7354
   19CHTO   C59 7831   4.437   7.295   5.883  0.2715 -0.0774 -0.2624
   19CHTO  H116 7832   4.444   7.336   5.984  0.7914  0.6250 -0.5831
   19CHTO   C70 7833   4.564   7.208   5.872 -0.2087 -0.1261  0.2257
   19CHTO   O46 7834   4.691   7.274   5.900  0.5218  0.5075 -0.2017
   19CHTO  H103 7835   4.746   7.256   5.827 -0.9426  1.3279 -1.5409
   19CHTO   O39 7836   4.090   7.131   5.815 -0.3253 -0.1084  0.3033
   19CHTO   C60 7837   4.099   7.094   5.673  0.2425 -1.1743 -0.0967
   19CHTO  H117 7838   4.151   7.171   5.616  0.5930 -1.1284  0.2811
   19CHTO   C62 7839   4.168   6.951   5.671 -0.1298  0.0367 -0.0212
   19CHTO  H119 7840   4.273   6.970   5.702 -0.3530  1.0651  0.1441
   19CHTO   O43 7841   4.101   6.865   5.767  0.3067  0.0218 -0.3654
   19CHTO  H101 7842   4.083   6.913   5.845 -2.1516  0.0755 -0.9221
   19CHTO   C66 7843   4.175   6.891   5.530 -0.1025  0.3829 -0.3201
   19CHTO  H123 7844   4.234   6.957   5.465 -0.3037  1.0675  0.1838
   19CHTO   N12 7845   4.247   6.764   5.536 -0.5612  0.4172  0.4077
   19CHTO  H110 7846   4.176   6.684   5.526  1.1401 -1.3148  1.7121
   19CHTO  H111 7847   4.320   6.752   5.457 -0.3223  0.1751  0.6636
   19CHTO   C69 7848   4.030   6.877   5.485 -0.0465  0.9313  0.0911
   19CHTO  H126 7849   3.968   6.816   5.554  0.4818  0.7586  0.4204
   19CHTO   O41 7850   3.988   7.020   5.478  0.6029 -0.1324 -0.2532
   19CHTO   C64 7851   3.956   7.082   5.614  0.2655  0.2359 -0.7415
   19CHTO  H121 7852   3.891   7.024   5.682  0.7439  0.5991  0.0367
   19CHTO   C71 7853   3.889   7.216   5.590 -0.3811 -0.2324  0.2392
   19CHTO   O47 7854   3.806   7.261   5.699 -0.0407  0.2636 -0.2315
   19CHTO  H104 7855   3.761   7.340   5.674 -0.3499 -0.8496 -3.5865
   19CHTO   O34 7856   4.014   6.817   5.354  0.4955 -0.0953 -0.2482
   19CHTO   C49 7857   3.957   6.775   5.222  0.0805  0.6548  0.2147
   19CHTO   H91 7858   3.850   6.796   5.223  0.1752  1.2181 -0.8705
   19CHTO   C47 7859   3.975   6.623   5.204 -0.2414 -1.1163 -0.1232
   19CHTO   H89 7860   3.912   6.596   5.116 -1.8646  0.7536  0.4346
   19CHTO   O33 7861   3.922   6.548   5.315  0.3780 -0.1610 -0.0149
   19CHTO   H70 7862   3.832   6.562   5.336 -0.0049 -1.0532 -0.9945
   19CHTO   C45 7863   4.124   6.575   5.183  0.6524 -0.3634  0.4496
   19CHTO   H87 7864   4.165   6.566   5.285 -1.5099  1.6944  1.5510
   19CHTO    N8 7865   4.131   6.440   5.113  0.5411 -0.1873 -0.2600
   19CHTO   H75 7866   4.230   6.401   5.133  0.3886 -0.9190 -0.9005
   19CHTO   H76 7867   4.061   6.373   5.161 -1.2800  2.6190  1.1423
   19CHTO   C43 7868   4.208   6.697   5.112 -0.5947 -0.2639 -0.0364
   19CHTO   H85 7869   4.239   6.752   5.201 -0.2199 -0.4002 -0.0803
   19CHTO   O29 7870   4.124   6.777   5.033  0.5209 -0.5775  0.3863
   19CHTO   C50 7871   4.019   6.851   5.099 -0.5604  0.0872 -0.2318
   19CHTO   H92 7872   4.059   6.949   5.127  2.2781 -1.6035  1.8733
   19CHTO   C54 7873   3.914   6.892   4.992  0.1208  0.1396 -0.3203
   19CHTO   O36 7874   3.868   6.779   4.914  0.0318  0.5737 -0.0318
   19CHTO   H72 7875   3.780   6.768   4.944 -0.7282 -0.3131 -2.4549
   19CHTO   O27 7876   4.334   6.657   5.053 -0.2473 -0.5061 -0.2465
   19CHTO   C37 7877   4.439   6.727   4.997 -0.1529  1.1562  0.0759
   19CHTO   H79 7878   4.488   6.674   4.914 -1.4197  2.0486 -1.2705
   19CHTO   C38 7879   4.397   6.859   4.933 -0.0373  0.1731  0.1777
   19CHTO   H80 7880   4.330   6.913   5.003 -0.9368 -0.3934 -0.2328
   19CHTO   O31 7881   4.308   6.829   4.824  0.6098 -0.1200  0.3155
   19CHTO   H68 7882   4.217   6.811   4.840  0.7474 -1.3617 -0.2461
   19CHTO   C39 7883   4.525   6.944   4.892  0.4858  0.0209  0.1014
   19CHTO   H81 7884   4.572   6.894   4.807 -1.7814  0.7921 -1.6405
   19CHTO    N7 7885   4.491   7.082   4.848 -0.4032 -0.0839  0.5491
   19CHTO   H73 7886   4.440   7.085   4.753  0.8269  2.6468 -0.0502
   19CHTO   H74 7887   4.424   7.137   4.912 -1.2740  0.4485 -0.7965
   19CHTO   C40 7888   4.642   6.947   4.999 -0.1134  0.2436 -0.0597
   19CHTO   H82 7889   4.603   7.019   5.070 -0.7352 -1.0044  0.8864
   19CHTO   O26 7890   4.672   6.818   5.062 -0.0440  0.4616 -0.2729
   19CHTO   C41 7891   4.546   6.756   5.114 -0.7711  0.0033  0.0777
   19CHTO   H83 7892   4.504   6.822   5.192  2.2281  0.3416  1.4721
   19CHTO   C52 7893   4.590   6.629   5.190  0.4690 -0.5594 -0.0312
   19CHTO   O35 7894   4.649   6.532   5.091  0.1139 -0.1274  0.3198
   19CHTO   H71 7895   4.652   6.450   5.136  2.3604 -1.2153 -1.6957
   19CHTO   O28 7896   4.754   7.011   4.930 -0.8455  0.2864  0.0393
   19CHTO   C42 7897   4.869   7.065   5.008 -0.5794 -0.0664 -0.1195
   19CHTO   H84 7898   4.864   7.012   5.103  0.0822  0.2152  0.0801
   19CHTO   C44 7899   4.858   7.220   5.046 -0.3650  0.4672  0.4598
   19CHTO   H86 7900   4.841   7.272   4.952  2.3668 -0.3652 -0.5256
   19CHTO   O32 7901   4.734   7.237   5.113  0.3433 -0.2541  0.2116
   19CHTO   H69 7902   4.749   7.234   5.205 -0.2639 -1.3635  0.2857
   19CHTO   C48 7903   4.987   7.272   5.124 -0.0713  0.1400  0.4347
   19CHTO   H90 7904   5.012   7.217   5.215  1.4304 -0.3690 -0.2726
   19CHTO    N9 7905   4.968   7.411   5.174  0.2792  0.0086  0.3025
   19CHTO   H77 7906   4.901   7.408   5.259 -1.3541  1.3008 -0.8923
   19CHTO   H78 7907   4.911   7.458   5.094 -0.2901 -1.5496 -0.2378
   19CHTO   C51 7908   5.112   7.249   5.033  0.5285  0.0912  0.0083
   19CHTO   H93 7909   5.090   7.298   4.938 -3.3303 -1.7025 -0.1054
   19CHTO   O30 7910   5.121   7.107   5.017  0.6569  0.3854 -0.1267
   19CHTO   C46 7911   5.006   7.032   4.949 -0.1778  0.1121  0.6744
   19CHTO   H88 7912   5.011   7.067   4.846  0.8482  0.9016  0.9823
   19CHTO   C53 7913   5.028   6.884   4.959 -0.0039 -0.4267 -0.2548
   19CHTO   O72 7914   5.160   6.854   4.920  0.1440  0.3574  0.1949
   19CHTO  H199 7915   5.224   6.881   4.984  0.5943 -1.9035  0.7667
   19CHTO   O22 7916   5.231   7.292   5.097 -0.2644 -0.3839 -0.0941
   19CHTO   C31 7917   5.362   7.264   5.040 -0.4668  0.0721  0.6141
   19CHTO   H59 7918   5.355   7.164   4.992  1.6450  1.6633 -3.2664
   19CHTO   C29 7919   5.417   7.358   4.929  0.0322  0.4452  0.2287
   19CHTO   H57 7920   5.441   7.460   4.964 -1.4231  0.6062  0.8251
   19CHTO   O21 7921   5.307   7.375   4.843  0.5156 -0.0329  0.0535
   19CHTO   H37 7922   5.321   7.453   4.793  1.7302 -0.9379 -1.0303
   19CHTO   C27 7923   5.540   7.299   4.853  0.4065  0.0733  0.1838
   19CHTO   H55 7924   5.508   7.208   4.800 -2.2677  0.2181  1.4576
   19CHTO    N5 7925   5.604   7.390   4.752 -0.2668  0.6000  0.4441
   19CHTO   H43 7926   5.580   7.491   4.780 -0.1692  1.4135 -2.2899
   19CHTO   H44 7927   5.559   7.378   4.655  1.3297  0.2755 -0.2794
   19CHTO   C25 7928   5.648   7.223   4.943 -0.1774  0.0362 -0.4360
   19CHTO   H53 7929   5.733   7.289   4.967  0.3805 -1.0116  0.5157
   19CHTO   O17 7930   5.589   7.180   5.068  0.5536 -0.0587 -0.1642
   19CHTO   C32 7931   5.478   7.250   5.138  0.1414 -0.2896  1.2366
   19CHTO   H60 7932   5.511   7.345   5.180 -1.9189  1.3522 -0.7311
   19CHTO   C36 7933   5.438   7.162   5.265 -0.5163 -0.2097  0.1294
   19CHTO   O25 7934   5.388   7.028   5.238  0.2308  0.4082  0.1808
   19CHTO   H40 7935   5.341   7.027   5.157 -2.4895  2.0189  1.6523
   19CHTO   O15 7936   5.715   7.098   4.871  0.6322  0.1458 -0.5473
   19CHTO   C19 7937   5.694   6.954   4.891 -0.4732  0.0168  0.0949
   19CHTO   H47 7938   5.702   6.941   5.000  0.3040 -1.0739 -0.0924
   19CHTO   C20 7939   5.556   6.900   4.841  0.6539 -0.1435 -0.4620
   19CHTO   H48 7940   5.541   6.927   4.735 -0.2950  0.7002 -0.1145
   19CHTO   O19 7941   5.445   6.966   4.905  0.3295  0.6985 -0.1427
   19CHTO   H35 7942   5.373   6.949   4.847 -0.0064  0.8724  0.2216
   19CHTO   C21 7943   5.537   6.745   4.866  0.0623 -0.2886 -0.3445
   19CHTO   H49 7944   5.522   6.736   4.973 -0.5058  0.3720 -0.3639
   19CHTO    N4 7945   5.412   6.697   4.799  0.2649  0.2629 -0.3399
   19CHTO   H41 7946   5.333   6.687   4.872  1.0727  0.0175  0.5141
   19CHTO   H42 7947   5.376   6.746   4.709  0.4682  0.3679 -0.3638
   19CHTO   C22 7948   5.666   6.666   4.833  0.9415 -0.2715 -0.0615
   19CHTO   H50 7949   5.674   6.667   4.724  1.3575  0.2077 -0.0300
   19CHTO   O14 7950   5.784   6.724   4.889  0.1528 -0.8655 -0.4677
   19CHTO   C23 7951   5.799   6.853   4.826  0.6471  0.0953  0.3604
   19CHTO   H51 7952   5.790   6.850   4.717  2.1372  1.5523  0.1665
   19CHTO   C34 7953   5.946   6.887   4.854  0.1088 -0.2466 -0.7067
   19CHTO   O23 7954   5.967   6.920   4.995  0.1943  0.7859  0.3090
   19CHTO   H38 7955   5.998   6.848   5.046 -2.6436  0.6109  1.8742
   19CHTO   O16 7956   5.653   6.534   4.890 -0.2739  1.1190 -0.0094
   19CHTO   C24 7957   5.700   6.396   4.787 -0.4410 -0.0214 -0.6331
   19CHTO   H52 7958   5.706   6.306   4.847  1.1443  1.7149  1.9168
   19CHTO   C26 7959   5.837   6.430   4.730  0.1663 -0.0342 -0.6555
   19CHTO   H54 7960   5.839   6.528   4.678  2.1248  1.4589  2.0791
   19CHTO   O20 7961   5.919   6.444   4.847 -0.0266  0.2888  0.2236
   19CHTO   H36 7962   5.923   6.533   4.876  0.6485  1.3527 -2.9322
   19CHTO   C30 7963   5.895   6.320   4.635  0.8497 -0.2246 -0.4314
   19CHTO   H58 7964   5.918   6.238   4.704  2.9235  1.4219  0.8914
   19CHTO    N6 7965   6.022   6.348   4.563 -0.2553 -0.1613 -0.0430
   19CHTO   H45 7966   6.049   6.452   4.571 -0.4170 -0.1119 -0.1272
   19CHTO   H46 7967   6.095   6.282   4.607  0.9599  1.0004 -0.2752
   19CHTO   C33 7968   5.783   6.265   4.543 -0.0054 -0.1984 -0.3051
   19CHTO   H61 7969   5.770   6.341   4.464  1.9457 -1.0437 -1.4902
   19CHTO   O18 7970   5.658   6.256   4.613  0.6946 -0.0224 -0.1223
   19CHTO   C28 7971   5.598   6.366   4.679  0.3118  0.0405 -0.5828
   19CHTO   H56 7972   5.586   6.457   4.620  2.0266  1.2436  0.8561
   19CHTO   C35 7973   5.473   6.331   4.754  0.2312  0.1480 -0.0550
   19CHTO   O24 7974   5.361   6.289   4.678  0.0208  0.5460  0.0306
   19CHTO   H39 7975   5.345   6.362   4.622 -0.8098 -0.7222 -1.4261
   19CHTO    O9 7976   5.818   6.141   4.479  0.2168 -0.0544  0.0032
   19CHTO   C13 7977   5.814   6.145   4.314  0.8360 -0.3347 -0.8993
   19CHTO   H26 7978   5.874   6.229   4.275 -0.1822  0.2176 -1.3078
   19CHTO   C11 7979   5.662   6.141   4.246 -0.2875 -0.2860  1.0552
   19CHTO   H24 7980   5.661   6.205   4.157 -0.5099 -0.2588  1.0760
   19CHTO    O8 7981   5.556   6.178   4.342 -0.7076 -0.0151  0.2909
   19CHTO    H3 7982   5.507   6.247   4.300  0.9681  1.1966  0.2575
   19CHTO    C9 7983   5.648   5.998   4.186  0.4780 -0.0265 -0.4450
   19CHTO   H22 7984   5.714   5.993   4.098  0.8599  2.2535 -0.3096
   19CHTO    N2 7985   5.513   5.974   4.127  0.3116 -0.2807 -0.3105
   19CHTO   H10 7986   5.432   5.965   4.198  2.6703 -1.3586  2.3397
   19CHTO   H11 7987   5.489   6.057   4.062  1.9514  0.7853  0.4126
   19CHTO    C7 7988   5.688   5.875   4.281 -0.2492  0.6387  0.5795
   19CHTO   H20 7989   5.676   5.780   4.225  2.7037 -0.0916  1.0468
   19CHTO    O4 7990   5.827   5.881   4.302  0.1167  0.0781 -0.0721
   19CHTO   C14 7991   5.902   6.008   4.283  0.0030  0.5911  0.6447
   19CHTO   H27 7992   5.924   6.002   4.174  2.2345  1.3063  1.0237
   19CHTO   C18 7993   6.035   5.998   4.361  0.5902 -0.5108  0.5167
   19CHTO   O13 7994   6.134   5.932   4.281 -0.2101 -0.1241  0.0315
   19CHTO    H7 7995   6.137   5.844   4.313 -2.5842 -0.2698 -0.0911
   19CHTO    O2 7996   5.603   5.890   4.429  0.1103  0.1202 -0.5760
   19CHTO    C1 7997   5.588   5.772   4.501  0.1379  0.5110  0.3391
   19CHTO   H14 7998   5.677   5.712   4.472  0.4903  0.9542  0.4998
   19CHTO    C2 7999   5.457   5.687   4.475 -0.9351  0.3164  0.9442
   19CHTO   H15 8000   5.364   5.743   4.494 -0.9625  0.5464  0.1406
   19CHTO    O6 8001   5.464   5.658   4.333 -0.0435  0.0887  0.0881
   19CHTO    H1 8002   5.403   5.593   4.306 -1.6889  2.2483 -1.5596
   19CHTO    C3 8003   5.469   5.563   4.567  0.1429  0.2589 -0.1583
   19CHTO   H16 8004   5.546   5.503   4.516  0.4193  0.6206 -0.1610
   19CHTO    N1 8005   5.346   5.482   4.565 -0.3726 -0.2175 -1.0348
   19CHTO    H8 8006   5.279   5.510   4.485  0.8202  2.1226 -1.2458
   19CHTO    H9 8007   5.297   5.482   4.661  0.8249  1.8581 -0.3817
   19CHTO    C4 8008   5.522   5.590   4.713  0.1468  0.6700  0.2597
   19CHTO   H17 8009   5.439   5.615   4.779 -1.3295 -5.1049  0.8573
   19CHTO    O1 8010   5.620   5.690   4.728  0.1335  0.0376  0.0374
   19CHTO    C5 8011   5.597   5.806   4.656 -0.0417 -0.5340  0.6977
   19CHTO   H18 8012   5.503   5.855   4.679  0.2306 -0.4090  1.5502
   19CHTO   C16 8013   5.714   5.904   4.686  0.3968  0.0925 -0.4420
   19CHTO   O11 8014   5.847   5.854   4.658  1.1234 -0.4442  0.6958
   19CHTO    H5 8015   5.856   5.767   4.693  1.4627 -1.2967 -1.4485
   19CHTO    O3 8016   5.581   5.474   4.767  0.1173  0.0870 -0.3904
   19CHTO    C6 8017   5.552   5.439   4.911  0.0566  0.0066 -0.5615
   19CHTO   H19 8018   5.508   5.518   4.973 -0.9703 -1.0766  0.1069
   19CHTO    C8 8019   5.459   5.317   4.922 -0.2245  0.3388 -0.5521
   19CHTO   H21 8020   5.492   5.243   4.850 -0.5089 -1.0078  0.6598
   19CHTO    O7 8021   5.331   5.376   4.880  0.1862  0.5681 -0.6177
   19CHTO    H2 8022   5.257   5.320   4.890 -0.4085  1.2218 -1.2899
   19CHTO   C12 8023   5.455   5.243   5.065  0.7535  0.9948  0.8427
   19CHTO   H25 8024   5.381   5.301   5.125 -0.0686  1.6168 -0.7413
   19CHTO    N3 8025   5.385   5.113   5.059  0.0287 -0.4785  0.1978
   19CHTO   H12 8026   5.328   5.104   5.151  0.1309  2.0650  0.5619
   19CHTO   H13 8027   5.460   5.036   5.054  0.1230 -0.3740 -0.0003
   19CHTO   C15 8028   5.593   5.240   5.140 -0.0096  0.5419 -0.4540
   19CHTO   H28 8029   5.658   5.161   5.102 -0.1827  1.5519 -2.9368
   19CHTO   O10 8030   5.576   5.222   5.305 -0.0563 -0.6547  0.0870
   19CHTO    H4 8031   5.653   5.239   5.355 -1.0764  1.0754  1.1384
   19CHTO    O5 8032   5.651   5.373   5.127 -0.6550 -0.5133  0.0857
   19CHTO   C10 8033   5.687   5.403   4.994 -0.2503 -0.5917  0.1802
   19CHTO   H23 8034   5.742   5.318   4.952  2.0668  0.6435  0.6372
   19CHTO   C17 8035   5.776   5.526   5.000 -0.2062 -0.2404 -0.2441
   19CHTO   O12 8036   5.836   5.570   4.879 -0.5669  0.0749 -0.1672
   19CHTO    H6 8037   5.928   5.559   4.892 -0.7724 -0.3761  0.9296
   20CHTO  H203 8038   5.679   1.397   5.900 -0.4427  1.9724 -0.2178
   20CHTO   O82 8039   5.738   1.431   5.964  0.1772  0.2360  0.1441
   20CHTO  C123 8040   5.695   1.565   6.001 -0.3842 -0.6436  0.5380
   20CHTO  H227 8041   5.717   1.634   5.919  0.4100 -1.2405  0.2426
   20CHTO   O77 8042   5.551   1.560   6.016  0.5288  0.1340 -0.4186
   20CHTO  C118 8043   5.502   1.692   6.043  0.3799 -0.6095 -1.0721
   20CHTO  H222 8044   5.543   1.775   5.983 -0.2381  1.2446  0.9967
   20CHTO  C125 8045   5.341   1.679   6.017 -0.0323 -0.0355 -0.2394
   20CHTO   O84 8046   5.276   1.597   6.111  0.2027  0.3529 -0.2941
   20CHTO  H205 8047   5.294   1.622   6.199 -1.8041 -2.0101  0.8381
   20CHTO  C114 8048   5.536   1.723   6.191 -0.6679 -0.2930 -0.1239
   20CHTO  H218 8049   5.510   1.643   6.260 -2.4907  0.5916  0.2669
   20CHTO  C116 8050   5.689   1.728   6.211 -0.4355 -0.4340  0.8234
   20CHTO  H220 8051   5.726   1.824   6.170  0.6136 -2.1424 -2.3924
   20CHTO   O79 8052   5.721   1.732   6.353 -0.1756 -0.1577 -0.8408
   20CHTO  H201 8053   5.811   1.729   6.376 -0.5543  0.1164  0.7712
   20CHTO  C120 8054   5.767   1.612   6.137  0.2371 -0.8085  0.2254
   20CHTO  H224 8055   5.761   1.523   6.203  1.5795 -2.4827 -1.8739
   20CHTO   N21 8056   5.912   1.640   6.122 -0.5629  0.0461  0.1737
   20CHTO  H211 8057   5.966   1.606   6.209 -1.6764  0.6372  1.1152
   20CHTO  H212 8058   5.945   1.591   6.032 -0.2842 -0.2717  0.4501
   20CHTO   O75 8059   5.466   1.846   6.225  0.0113 -0.1617 -0.8322
   20CHTO  C112 8060   5.502   1.994   6.161  0.4480  0.3604  0.0120
   20CHTO  H216 8061   5.498   1.984   6.051  1.6473 -1.1136  0.0893
   20CHTO   O73 8062   5.630   2.034   6.204  0.1142 -0.0511 -0.1705
   20CHTO  C113 8063   5.673   2.152   6.142  0.3182  0.6846 -0.1560
   20CHTO  H217 8064   5.670   2.135   6.032 -1.6173 -0.6846  0.0825
   20CHTO  C124 8065   5.817   2.163   6.178 -0.1098  0.0240 -0.0688
   20CHTO   O83 8066   5.887   2.250   6.087 -0.1786 -0.0058  0.3322
   20CHTO  H204 8067   5.979   2.239   6.105 -0.3929 -2.6981 -0.0596
   20CHTO  C109 8068   5.587   2.273   6.176  0.2915 -0.7773  0.2060
   20CHTO  H213 8069   5.615   2.298   6.279 -1.9665  0.1574  0.6108
   20CHTO  C110 8070   5.436   2.237   6.156 -1.1871  0.0522  0.7392
   20CHTO  H214 8071   5.420   2.230   6.048 -0.4499 -1.0819  0.6906
   20CHTO   O78 8072   5.360   2.351   6.198 -0.2969  0.2855 -0.1830
   20CHTO  H200 8073   5.370   2.367   6.290 -0.9862  1.8885 -0.3676
   20CHTO  C111 8074   5.398   2.101   6.212 -0.4504  1.1005  0.3750
   20CHTO  H215 8075   5.402   2.105   6.322 -4.2014  0.0165  0.6113
   20CHTO   N19 8076   5.258   2.061   6.183  0.0340 -0.4854 -0.3097
   20CHTO  H207 8077   5.196   2.145   6.213 -3.0649 -1.9189 -2.4415
   20CHTO  H208 8078   5.248   2.065   6.075 -0.1533 -0.6528 -0.2977
   20CHTO   O74 8079   5.633   2.383   6.087  0.4896  0.1687  0.4307
   20CHTO  C115 8080   5.677   2.518   6.141  0.1439 -0.3358  0.5607
   20CHTO  H219 8081   5.592   2.572   6.183  0.6251  0.2163  0.8251
   20CHTO   O76 8082   5.771   2.500   6.260 -0.0299  0.0108  0.6789
   20CHTO  C122 8083   5.860   2.613   6.282 -0.1248  0.4917  0.0474
   20CHTO  H226 8084   5.947   2.583   6.342 -0.5148  0.6916  0.7165
   20CHTO  C126 8085   5.793   2.730   6.362  0.0379  0.7417  0.5935
   20CHTO   O85 8086   5.754   2.685   6.494 -0.8317 -0.4094 -0.5454
   20CHTO  H206 8087   5.665   2.698   6.519 -0.3081  2.4513  0.0018
   20CHTO  C121 8088   5.931   2.677   6.156 -0.0119  0.4076  0.0010
   20CHTO  H225 8089   5.986   2.768   6.187 -1.3851  1.3265 -0.2030
   20CHTO   O81 8090   6.027   2.583   6.104 -0.7223  0.1082 -1.0273
   20CHTO  H202 8091   6.104   2.624   6.070  0.2331 -0.5372  0.3333
   20CHTO  C119 8092   5.835   2.706   6.037 -0.5977 -0.3208 -0.2308
   20CHTO  H223 8093   5.775   2.793   6.063  0.3077  1.0804 -2.6230
   20CHTO  C117 8094   5.731   2.586   6.010 -0.7466  0.5990  0.1429
   20CHTO  H221 8095   5.768   2.507   5.945 -0.3951  0.5630  0.3845
   20CHTO   N20 8096   5.608   2.644   5.940 -0.3791 -0.3708  0.6219
   20CHTO  H209 8097   5.628   2.677   5.839  0.1847  0.7699  1.0996
   20CHTO  H210 8098   5.521   2.580   5.946  1.8230 -3.6505 -0.8211
   20CHTO   O80 8099   5.927   2.756   5.909 -0.6880  0.1653  0.5944
   20CHTO  C103 8100   5.952   2.913   5.897 -0.0731 -0.2516 -0.2657
   20CHTO  H190 8101   5.890   2.978   5.959 -1.6881 -1.3939 -0.6635
   20CHTO  C101 8102   6.102   2.957   5.931 -0.5737  0.0694 -0.3788
   20CHTO  H188 8103   6.172   2.888   5.884 -0.2957 -0.2908  0.5576
   20CHTO   O68 8104   6.128   2.949   6.088 -0.5402 -0.4767  0.0254
   20CHTO  H168 8105   6.166   3.032   6.109 -1.5828 -0.2918  1.2595
   20CHTO   C99 8106   6.135   3.101   5.868  0.4448  0.5699 -0.1043
   20CHTO  H186 8107   6.074   3.178   5.919 -1.7072 -0.2003 -1.4405
   20CHTO   N17 8108   6.279   3.135   5.891 -0.5207  0.2685  0.0786
   20CHTO  H174 8109   6.335   3.050   5.855 -1.2844 -0.5427  0.7575
   20CHTO  H175 8110   6.311   3.159   5.991  2.1006 -2.2022 -0.0973
   20CHTO   C97 8111   6.085   3.104   5.723 -0.2515 -0.0387  0.5083
   20CHTO  H184 8112   6.136   3.020   5.674  2.0464  1.6532 -0.0849
   20CHTO   O64 8113   5.945   3.086   5.725  0.3648  0.4215  0.0825
   20CHTO  C104 8114   5.913   2.948   5.753  0.5226 -0.2898  0.0815
   20CHTO  H191 8115   5.956   2.872   5.688 -1.7909 -0.4385 -1.2950
   20CHTO  C108 8116   5.764   2.934   5.738 -0.2176 -0.3416 -0.2012
   20CHTO   O71 8117   5.731   2.945   5.600  0.2404 -0.8622 -0.1953
   20CHTO  H171 8118   5.763   2.872   5.550  0.6205 -0.8351  0.0064
   20CHTO   O62 8119   6.117   3.217   5.645 -0.0033  0.1165  0.2111
   20CHTO   C91 8120   6.129   3.208   5.497  0.4797 -0.3148  0.3696
   20CHTO  H178 8121   6.141   3.104   5.468 -1.1538 -1.2461  2.8572
   20CHTO   C92 8122   6.255   3.278   5.435 -0.4564 -0.7217  0.5977
   20CHTO  H179 8123   6.265   3.377   5.481  0.5924  0.3013 -1.7566
   20CHTO   O66 8124   6.364   3.194   5.479  0.0662 -0.2159 -0.2112
   20CHTO  H166 8125   6.449   3.231   5.466 -0.0213  0.7033  1.6101
   20CHTO   C93 8126   6.256   3.289   5.276 -0.4833  0.1235 -0.2836
   20CHTO  H180 8127   6.268   3.188   5.234 -3.5984 -0.9868  1.3640
   20CHTO   N16 8128   6.372   3.362   5.219 -0.3787 -0.2486  0.1485
   20CHTO  H172 8129   6.439   3.398   5.296 -1.3154  0.9078  0.4386
   20CHTO  H173 8130   6.434   3.303   5.153 -0.8037 -0.8108  0.2495
   20CHTO   C94 8131   6.124   3.346   5.222  0.6634  0.1192 -0.1251
   20CHTO  H181 8132   6.111   3.451   5.249 -0.5180 -0.5222  1.8806
   20CHTO   O61 8133   6.011   3.278   5.286 -0.3295 -0.2885 -0.4386
   20CHTO   C95 8134   6.008   3.278   5.427  0.4057  0.1972 -0.4160
   20CHTO  H182 8135   6.000   3.380   5.463  1.4691 -0.3441  1.4392
   20CHTO  C106 8136   5.863   3.221   5.463  0.2331 -0.5082 -0.1832
   20CHTO   O69 8137   5.828   3.090   5.416 -0.2769 -0.2575  0.7655
   20CHTO  H169 8138   5.802   3.085   5.326 -0.3911 -0.9451  0.8390
   20CHTO   O63 8139   6.110   3.331   5.059 -0.0083 -0.0128 -0.3336
   20CHTO   C96 8140   6.064   3.188   5.005 -0.0943  0.4202 -0.3496
   20CHTO  H183 8141   6.064   3.123   5.093  0.3067  0.9364  0.0311
   20CHTO   C98 8142   6.159   3.121   4.898 -0.4085 -0.8055  0.2288
   20CHTO  H185 8143   6.261   3.104   4.935 -0.7661  1.0844  2.1744
   20CHTO   O67 8144   6.116   2.986   4.862  0.0635  0.1960  0.3593
   20CHTO  H167 8145   6.022   2.983   4.858 -0.0216 -0.1186  2.1415
   20CHTO  C102 8146   6.151   3.206   4.764 -0.1710 -0.1145 -0.1214
   20CHTO  H189 8147   6.186   3.140   4.684  0.1054  0.4932 -0.5037
   20CHTO   N18 8148   6.237   3.333   4.769  0.2392  0.3845 -0.1748
   20CHTO  H176 8149   6.182   3.403   4.831 -1.6922 -0.8293 -0.4549
   20CHTO  H177 8150   6.337   3.328   4.809  0.7221  1.1905 -1.2964
   20CHTO  C105 8151   6.000   3.237   4.730  0.2154  0.0932  0.3198
   20CHTO  H192 8152   5.985   3.345   4.726 -1.9044 -0.2015 -0.0673
   20CHTO   O65 8153   5.904   3.180   4.816 -0.5963 -0.2901  0.0310
   20CHTO  C100 8154   5.917   3.191   4.958  0.2169  0.3651 -0.2299
   20CHTO  H187 8155   5.880   3.288   4.993 -1.4008  0.3129 -1.7391
   20CHTO  C107 8156   5.825   3.083   5.025 -0.1187 -0.5318 -0.2392
   20CHTO   O70 8157   5.866   2.948   4.983 -0.3142  0.2902  0.1031
   20CHTO  H170 8158   5.837   2.925   4.897  0.2190  2.6075 -0.7252
   20CHTO   O57 8159   5.981   3.175   4.579  0.1669  0.5650 -0.2072
   20CHTO   C85 8160   5.862   3.206   4.503  0.3043 -0.1238 -0.8583
   20CHTO  H157 8161   5.803   3.286   4.552 -0.6325 -1.6915  0.6397
   20CHTO   C83 8162   5.757   3.081   4.514  0.7702 -0.2155  0.2724
   20CHTO  H155 8163   5.745   3.053   4.619  0.7913  1.3735  0.7180
   20CHTO   O56 8164   5.824   2.964   4.468 -0.3378 -0.3024  0.0162
   20CHTO  H135 8165   5.863   2.977   4.384  1.4456  1.9652  1.1697
   20CHTO   C81 8166   5.622   3.112   4.449  0.2579  0.6434 -0.4812
   20CHTO  H153 8167   5.583   3.204   4.492 -1.0688  0.0377 -0.3815
   20CHTO   N14 8168   5.520   3.008   4.473 -0.3482 -0.1646  0.1478
   20CHTO  H141 8169   5.425   3.052   4.498  0.5290  2.0685 -0.3242
   20CHTO  H142 8170   5.515   2.939   4.391  1.9877  1.2268 -1.2047
   20CHTO   C79 8171   5.653   3.131   4.293 -0.7049 -0.4915  0.3057
   20CHTO  H151 8172   5.562   3.172   4.250 -0.4698  0.2052  0.4589
   20CHTO   O52 8173   5.759   3.226   4.262 -0.4297 -0.5632 -0.0990
   20CHTO   C86 8174   5.885   3.232   4.343  0.2620 -0.1038 -0.0561
   20CHTO  H158 8175   5.942   3.151   4.293 -0.8420 -0.1821 -1.2506
   20CHTO   C90 8176   5.956   3.365   4.320 -0.2705  0.8119  0.7836
   20CHTO   O60 8177   6.090   3.368   4.374  0.2852  0.3211 -0.1928
   20CHTO  H138 8178   6.126   3.283   4.354  0.0550  0.0485  0.5250
   20CHTO   O50 8179   5.693   3.004   4.228  0.0261 -0.1987 -0.2735
   20CHTO   C73 8180   5.734   2.989   4.091  0.0108  0.2766  0.7163
   20CHTO  H145 8181   5.831   3.041   4.082 -0.8066  1.7883  0.4606
   20CHTO   C74 8182   5.631   3.054   3.991  0.5627  0.4796 -0.6306
   20CHTO  H146 8183   5.625   3.159   4.023  2.5630  0.7900 -1.2358
   20CHTO   O54 8184   5.677   3.047   3.853 -0.3690 -0.1116 -0.4648
   20CHTO  H133 8185   5.749   3.101   3.829 -1.2490  0.7623 -1.2379
   20CHTO   C75 8186   5.482   2.975   4.001 -0.0199  0.2024 -0.0305
   20CHTO  H147 8187   5.447   2.975   4.105 -0.7509 -1.8957 -0.2405
   20CHTO   N13 8188   5.370   3.029   3.918  0.4208 -0.3274  0.0853
   20CHTO  H139 8189   5.283   3.042   3.980  0.5472  2.1094 -0.1933
   20CHTO  H140 8190   5.384   3.121   3.864 -0.9415  0.1475  0.5218
   20CHTO   C76 8191   5.514   2.822   3.970  0.5113  0.1594  0.1341
   20CHTO  H148 8192   5.550   2.828   3.867 -1.6921  1.5548 -0.5822
   20CHTO   O49 8193   5.623   2.777   4.064  0.1429 -0.2465  0.0225
   20CHTO   C77 8194   5.752   2.844   4.044  0.6968  0.6715  0.3627
   20CHTO  H149 8195   5.788   2.840   3.941 -2.0481  0.1704 -0.6328
   20CHTO   C88 8196   5.857   2.771   4.132  0.6977  0.8458  0.2063
   20CHTO   O58 8197   5.866   2.630   4.109 -0.3417  0.0432  0.3513
   20CHTO  H136 8198   5.920   2.582   4.168 -0.9341 -1.5828 -0.3928
   20CHTO   O51 8199   5.372   2.728   3.989 -0.3073 -0.2755 -0.7716
   20CHTO   C78 8200   5.404   2.581   4.049 -0.7376  0.2154 -0.0457
   20CHTO  H150 8201   5.510   2.581   4.080 -0.6783 -0.2882 -0.2541
   20CHTO   C80 8202   5.385   2.470   3.941 -0.2860 -0.5784 -0.5343
   20CHTO  H152 8203   5.284   2.484   3.898 -0.8926 -0.3167  0.9578
   20CHTO   O55 8204   5.473   2.494   3.834 -0.5415  0.0110  0.4150
   20CHTO  H134 8205   5.434   2.474   3.751 -1.1107 -0.4968  0.8109
   20CHTO   C84 8206   5.394   2.328   4.012 -0.0741  0.5787 -0.0847
   20CHTO  H156 8207   5.498   2.314   4.040 -0.5554  0.2876  1.6223
   20CHTO   N15 8208   5.365   2.221   3.910  0.6382 -0.7261 -0.2845
   20CHTO  H143 8209   5.457   2.178   3.877  0.8927 -0.1218 -0.3778
   20CHTO  H144 8210   5.297   2.145   3.942 -2.6960  1.0517 -2.7803
   20CHTO   C87 8211   5.288   2.321   4.126 -0.2202  0.1053 -0.8126
   20CHTO  H159 8212   5.189   2.337   4.085 -0.3779  0.3096 -0.3581
   20CHTO   O53 8213   5.334   2.428   4.238  0.0957 -0.4667  0.3918
   20CHTO   C82 8214   5.314   2.558   4.168 -0.3707  0.5611 -0.1526
   20CHTO  H154 8215   5.209   2.564   4.137 -0.3405  0.0914 -0.3531
   20CHTO   C89 8216   5.333   2.670   4.276 -0.2899  0.7202  0.2296
   20CHTO   O59 8217   5.217   2.700   4.358 -0.1356 -0.3459 -0.1354
   20CHTO  H137 8218   5.172   2.618   4.362 -0.6154 -0.1231 -0.9141
   20CHTO   O45 8219   5.297   2.175   4.225 -0.3057 -0.6552  0.3191
   20CHTO   C67 8220   5.202   2.180   4.336 -0.3799  0.3240  0.0246
   20CHTO  H124 8221   5.188   2.278   4.381  0.8970  0.4381  0.1869
   20CHTO   C65 8222   5.061   2.128   4.292 -0.1788 -0.1121  0.1713
   20CHTO  H122 8223   5.059   2.097   4.187  1.9769 -1.4175  0.4793
   20CHTO   O44 8224   4.982   2.249   4.294  0.0685  0.4388 -0.3932
   20CHTO  H102 8225   4.914   2.243   4.229 -0.9320 -0.2013  0.6933
   20CHTO   C63 8226   5.007   2.003   4.376  0.8266  0.7203 -0.7299
   20CHTO  H120 8227   5.073   1.919   4.355 -0.6338 -0.9417  1.2510
   20CHTO   N11 8228   4.871   1.946   4.344 -0.5044  1.2220  0.2486
   20CHTO  H108 8229   4.876   1.850   4.391 -0.0842  1.4810  0.7333
   20CHTO  H109 8230   4.878   1.916   4.241  1.3226  0.3959  0.6008
   20CHTO   C61 8231   5.020   2.034   4.528  0.9333 -0.5162 -0.5378
   20CHTO  H118 8232   5.001   1.941   4.583  1.4170 -0.0141  0.4914
   20CHTO   O40 8233   5.160   2.065   4.556  0.0931 -0.1213  0.0996
   20CHTO   C68 8234   5.263   2.097   4.450 -0.4003  0.1426 -0.4607
   20CHTO  H125 8235   5.310   1.999   4.426 -2.5434 -1.1555  0.4387
   20CHTO   C72 8236   5.378   2.173   4.513  0.3734 -0.4119 -0.1218
   20CHTO   O48 8237   5.351   2.282   4.605 -0.1595 -0.3479  0.4050
   20CHTO  H105 8238   5.298   2.342   4.557  1.1389 -1.6018 -2.6873
   20CHTO   O38 8239   4.928   2.134   4.584  0.0447  0.0842  0.0788
   20CHTO   C55 8240   4.938   2.175   4.716  0.2123 -0.3691  0.6055
   20CHTO  H112 8241   5.044   2.198   4.731 -0.1095  1.9239 -0.5722
   20CHTO   C56 8242   4.883   2.065   4.818 -0.9537 -0.1045 -0.3979
   20CHTO  H113 8243   4.790   2.032   4.769  0.5995  0.6521 -4.0427
   20CHTO   O42 8244   4.958   1.942   4.835  0.3053 -0.6849 -0.0230
   20CHTO  H100 8245   5.051   1.954   4.845  0.2599 -0.4929  0.1748
   20CHTO   C57 8246   4.843   2.121   4.957 -0.2297 -0.0143  0.1974
   20CHTO  H114 8247   4.935   2.136   5.014 -2.1733  0.0680  3.4083
   20CHTO   N10 8248   4.745   2.036   5.021  0.4231  0.2474  0.1239
   20CHTO  H106 8249   4.796   1.958   5.076  0.4649  0.8682  0.9720
   20CHTO  H107 8250   4.688   1.986   4.943  2.4849 -0.8981 -0.6894
   20CHTO   C58 8251   4.774   2.259   4.945  0.6248 -0.0433 -0.1952
   20CHTO  H115 8252   4.677   2.253   4.892 -0.9230  2.7692  2.1073
   20CHTO   O37 8253   4.861   2.350   4.872  0.2478 -0.1157 -0.1077
   20CHTO   C59 8254   4.865   2.310   4.737 -0.4821  0.1240 -0.0095
   20CHTO  H116 8255   4.765   2.318   4.694 -0.9891  1.4610  1.3569
   20CHTO   C70 8256   4.939   2.424   4.667  0.0927 -0.4934  0.8004
   20CHTO   O46 8257   4.935   2.407   4.525 -0.4617 -0.4852 -0.2698
   20CHTO  H103 8258   4.934   2.490   4.480  0.5244  0.5860  1.6346
   20CHTO   O39 8259   4.731   2.327   5.094 -0.2064 -0.2470  0.1611
   20CHTO   C60 8260   4.840   2.409   5.150  0.0205  0.0824 -0.3921
   20CHTO  H117 8261   4.930   2.365   5.106  0.0968  0.3041 -0.4538
   20CHTO   C62 8262   4.823   2.559   5.115  0.4723  0.0836  0.4970
   20CHTO  H119 8263   4.795   2.562   5.007 -0.1432 -1.3253  0.6080
   20CHTO   O43 8264   4.706   2.620   5.175 -0.8782  0.0373 -0.4178
   20CHTO  H101 8265   4.656   2.677   5.119 -1.4576  0.3649  0.4188
   20CHTO   C66 8266   4.941   2.646   5.165  0.2728 -0.1852 -0.7338
   20CHTO  H123 8267   5.037   2.604   5.134  1.0227 -0.4755  1.8325
   20CHTO   N12 8268   4.939   2.779   5.114 -0.1299  0.2869  0.2929
   20CHTO  H110 8269   4.840   2.821   5.105  0.2544  0.8777 -1.3654
   20CHTO  H111 8270   4.995   2.843   5.181  0.4492  0.8982 -0.7546
   20CHTO   C69 8271   4.951   2.636   5.319  0.6472  0.1124  0.0704
   20CHTO  H126 8272   4.858   2.671   5.368 -0.3611  0.9866 -2.3922
   20CHTO   O41 8273   4.975   2.471   5.340 -0.4753 -0.0443  0.6979
   20CHTO   C64 8274   4.853   2.387   5.300 -0.4655 -0.3602  0.1763
   20CHTO  H121 8275   4.756   2.429   5.332  1.0608  1.9964  1.8861
   20CHTO   C71 8276   4.868   2.246   5.337  0.4937  0.2300  0.2866
   20CHTO   O47 8277   4.853   2.228   5.479  0.4228 -0.2422  0.4594
   20CHTO  H104 8278   4.882   2.306   5.522 -0.7723 -0.2564  1.3119
   20CHTO   O34 8279   5.069   2.714   5.370 -0.3296 -0.2371  0.5534
   20CHTO   C49 8280   5.163   2.722   5.485  0.4641  0.2047 -0.2397
   20CHTO   H91 8281   5.104   2.740   5.574  0.7020 -0.5540  0.0736
   20CHTO   C47 8282   5.257   2.841   5.456  0.9460  0.0301  0.2763
   20CHTO   H89 8283   5.314   2.853   5.550 -1.7030  0.1513  1.8988
   20CHTO   O33 8284   5.183   2.960   5.435  0.0128 -0.0270 -0.0919
   20CHTO   H70 8285   5.127   2.968   5.360  0.5839 -0.2916 -0.5472
   20CHTO   C45 8286   5.359   2.816   5.336  0.0351 -0.5979  0.6754
   20CHTO   H87 8287   5.318   2.865   5.246  0.5610  0.4954  1.0298
   20CHTO    N8 8288   5.496   2.874   5.366 -0.1584  0.1337  0.1570
   20CHTO   H75 8289   5.560   2.787   5.368 -2.3435 -1.5469 -0.7501
   20CHTO   H76 8290   5.489   2.931   5.457 -0.1917 -1.3544  1.0856
   20CHTO   C43 8291   5.359   2.660   5.291  0.1935  0.2383  0.3785
   20CHTO   H85 8292   5.266   2.656   5.235 -0.1038 -0.5507  0.9287
   20CHTO   O29 8293   5.356   2.569   5.403 -0.3484  0.7478  0.4387
   20CHTO   C50 8294   5.250   2.588   5.500  0.1847 -0.1546 -0.2127
   20CHTO   H92 8295   5.184   2.500   5.491  0.3786 -0.3761  0.5345
   20CHTO   C54 8296   5.308   2.565   5.644 -0.1303  0.3110  0.1002
   20CHTO   O36 8297   5.349   2.436   5.657 -0.7286 -0.4114  0.7064
   20CHTO   H72 8298   5.276   2.377   5.666 -1.5449  0.9255  3.0441
   20CHTO   O27 8299   5.466   2.633   5.193 -0.2263 -0.2046  0.1313
   20CHTO   C37 8300   5.474   2.543   5.087 -0.7858  0.0788 -0.0074
   20CHTO   H79 8301   5.425   2.448   5.112 -0.6612  0.3311  1.2177
   20CHTO   C38 8302   5.395   2.598   4.969 -1.1726 -0.4061  0.3779
   20CHTO   H80 8303   5.408   2.707   4.971 -0.0905 -0.5130 -0.2241
   20CHTO   O31 8304   5.263   2.578   5.009  0.2480 -0.3246  0.1760
   20CHTO   H68 8305   5.224   2.663   5.019  0.2124 -0.6378  3.1560
   20CHTO   C39 8306   5.423   2.531   4.830 -1.0313  0.5141 -0.2902
   20CHTO   H81 8307   5.380   2.431   4.829  0.4020 -0.1438  1.7032
   20CHTO    N7 8308   5.359   2.611   4.724  0.9975 -0.5730  0.0545
   20CHTO   H73 8309   5.314   2.702   4.759 -0.4164 -0.8103 -1.1087
   20CHTO   H74 8310   5.312   2.549   4.649  1.9046 -1.8124  0.4965
   20CHTO   C40 8311   5.577   2.518   4.813 -0.3940 -0.3862  0.1582
   20CHTO   H82 8312   5.636   2.609   4.804  0.7852 -1.1042  0.4765
   20CHTO   O26 8313   5.626   2.437   4.925  0.1462 -0.1062 -0.4735
   20CHTO   C41 8314   5.619   2.513   5.047 -0.0809  0.2055  0.4326
   20CHTO   H83 8315   5.673   2.608   5.037 -0.1938  0.2748  0.4871
   20CHTO   C52 8316   5.706   2.428   5.155  0.0280  0.0879  0.7028
   20CHTO   O35 8317   5.840   2.411   5.104  0.0588  0.0851  0.0363
   20CHTO   H71 8318   5.876   2.489   5.066 -3.2419  2.0239  0.6985
   20CHTO   O28 8319   5.617   2.444   4.694 -0.0366  0.2473  0.1077
   20CHTO   C42 8320   5.759   2.456   4.644  0.4579 -0.0784  0.6540
   20CHTO   H84 8321   5.767   2.374   4.573 -0.2027  1.2484 -0.9747
   20CHTO   C44 8322   5.878   2.440   4.736  0.2532  0.1319 -0.4680
   20CHTO   H86 8323   5.888   2.530   4.797  0.6940 -1.0315  1.1965
   20CHTO   O32 8324   5.863   2.323   4.817  0.0105  0.3303  0.4618
   20CHTO   H69 8325   5.806   2.328   4.890 -3.4431  1.2350 -2.1733
   20CHTO   C48 8326   6.010   2.432   4.647 -0.0191  0.7341  0.0240
   20CHTO   H90 8327   5.990   2.344   4.585  4.2906  0.0437 -0.5415
   20CHTO    N9 8328   6.126   2.404   4.743  0.1378 -0.0502 -0.0805
   20CHTO   H77 8329   6.114   2.441   4.844 -1.2042  0.7156 -0.5005
   20CHTO   H78 8330   6.186   2.316   4.726 -1.4060 -1.1657  0.0553
   20CHTO   C51 8331   6.029   2.557   4.557  0.1481 -0.5392  0.0821
   20CHTO   H93 8332   6.049   2.642   4.622  1.7196 -0.5292 -0.3957
   20CHTO   O30 8333   5.905   2.574   4.484 -0.2364 -0.2854 -0.8752
   20CHTO   C46 8334   5.772   2.581   4.562 -0.0868 -0.4857  0.0657
   20CHTO   H88 8335   5.765   2.670   4.624 -0.9672 -1.0891  0.8424
   20CHTO   C53 8336   5.665   2.595   4.451 -0.4107  0.2015  0.7045
   20CHTO   O72 8337   5.673   2.501   4.349  0.1522 -0.4811 -0.0088
   20CHTO  H199 8338   5.646   2.416   4.378 -0.5601 -0.0205  0.6988
   20CHTO   O22 8339   6.146   2.542   4.477 -0.1984  0.2700  0.1965
   20CHTO   C31 8340   6.246   2.642   4.429  1.1492 -0.0584 -0.1923
   20CHTO   H59 8341   6.254   2.626   4.320 -0.9636 -1.4965 -0.1536
   20CHTO   C29 8342   6.206   2.793   4.456  0.0402  0.4972 -0.4648
   20CHTO   H57 8343   6.196   2.810   4.564  1.5471  2.1720 -0.5669
   20CHTO   O21 8344   6.075   2.826   4.396  0.1035  0.1485  0.1424
   20CHTO   H37 8345   6.009   2.803   4.459  0.5743 -1.1658  0.1637
   20CHTO   C27 8346   6.311   2.895   4.394 -0.5130  0.0958  0.3121
   20CHTO   H55 8347   6.310   2.885   4.284  0.6967  0.2390  0.2796
   20CHTO    N5 8348   6.290   3.034   4.424  0.4945 -0.3279  0.3953
   20CHTO   H43 8349   6.299   3.044   4.531 -0.0287 -1.6861  0.5772
   20CHTO   H44 8350   6.189   3.034   4.385 -0.5298 -1.8837  2.9414
   20CHTO   C25 8351   6.448   2.852   4.450  0.5592  0.4901  0.3255
   20CHTO   H53 8352   6.457   2.875   4.558  1.0183  0.8547  0.2122
   20CHTO   O17 8353   6.474   2.711   4.427 -0.0067 -0.4994  0.0168
   20CHTO   C32 8354   6.382   2.620   4.488  0.0801 -0.1347  0.3087
   20CHTO   H60 8355   6.374   2.625   4.597 -0.4600 -0.2648  0.2757
   20CHTO   C36 8356   6.428   2.467   4.472 -0.1905 -0.1746  0.4349
   20CHTO   O25 8357   6.446   2.437   4.338  0.3693  0.5015 -0.2595
   20CHTO   H40 8358   6.475   2.349   4.323 -0.2000  0.2994 -0.1481
   20CHTO   O15 8359   6.578   2.927   4.402  0.1074 -0.0333 -0.1604
   20CHTO   C19 8360   6.709   2.933   4.449  0.0500  0.2447 -0.7560
   20CHTO   H47 8361   6.765   2.999   4.382  1.4198  1.4795  1.5760
   20CHTO   C20 8362   6.720   3.006   4.590 -0.0409 -0.0596  0.0443
   20CHTO   H48 8363   6.662   2.956   4.670  0.3283  0.6486  0.7676
   20CHTO   O19 8364   6.672   3.140   4.571  0.0920 -0.0619  0.3153
   20CHTO   H35 8365   6.579   3.138   4.559  0.1499  0.6639 -0.3444
   20CHTO   C21 8366   6.865   3.010   4.648 -0.0434  0.8301 -0.0017
   20CHTO   H49 8367   6.922   3.083   4.592  0.8474  0.3451  0.2674
   20CHTO    N4 8368   6.876   3.054   4.791 -0.6546  0.0554  0.2965
   20CHTO   H41 8369   6.868   2.973   4.862  1.3864 -1.8357 -1.5674
   20CHTO   H42 8370   6.965   3.111   4.813  0.0309 -1.2576  1.0000
   20CHTO   C22 8371   6.936   2.873   4.632 -0.4151  0.3522  0.3900
   20CHTO   H50 8372   6.882   2.809   4.702 -0.1164  0.9643  1.1953
   20CHTO   O14 8373   6.927   2.838   4.495 -0.0036  0.2315  0.1783
   20CHTO   C23 8374   6.791   2.800   4.456 -0.1006 -0.5947 -0.4597
   20CHTO   H51 8375   6.750   2.731   4.531 -0.8156  1.7553  1.3733
   20CHTO   C34 8376   6.801   2.754   4.315 -0.2710 -0.1425 -0.7073
   20CHTO   O23 8377   6.881   2.637   4.303  0.0243  0.5612  0.5869
   20CHTO   H38 8378   6.970   2.662   4.284 -0.2315 -0.3679 -1.9176
   20CHTO   O16 8379   7.081   2.865   4.658 -0.2245 -0.6980  0.6392
   20CHTO   C24 8380   7.127   2.730   4.714  0.5252  0.3629 -0.6722
   20CHTO   H52 8381   7.045   2.658   4.725  1.6633 -0.8787 -0.2587
   20CHTO   C26 8382   7.185   2.763   4.852 -0.2464  0.8977  0.5768
   20CHTO   H54 8383   7.235   2.862   4.845 -0.6601  0.9530 -2.1055
   20CHTO   O20 8384   7.075   2.770   4.938  0.0454  1.0078 -0.5231
   20CHTO   H36 8385   7.096   2.805   5.023 -0.8802 -0.4506  0.3332
   20CHTO   C30 8386   7.278   2.652   4.911 -0.1960  0.0831  0.2523
   20CHTO   H58 8387   7.246   2.620   5.011 -0.7708 -2.1836 -0.6284
   20CHTO    N6 8388   7.413   2.706   4.936  0.1991 -0.1259 -0.3951
   20CHTO   H45 8389   7.467   2.757   4.857 -0.4571 -0.6959 -1.2204
   20CHTO   H46 8390   7.478   2.627   4.970  0.0863 -0.9414 -1.9966
   20CHTO   C33 8391   7.266   2.524   4.826 -0.4351 -0.2350 -0.0808
   20CHTO   H61 8392   7.344   2.457   4.863  0.3895 -0.3221 -1.9351
   20CHTO   O18 8393   7.290   2.544   4.685  0.2591 -0.0817  0.0883
   20CHTO   C28 8394   7.236   2.664   4.625  0.6597  0.2715  0.4077
   20CHTO   H56 8395   7.312   2.739   4.609  2.1904 -1.6027 -1.3428
   20CHTO   C35 8396   7.182   2.628   4.484  0.4502  0.7267 -0.0429
   20CHTO   O24 8397   7.291   2.600   4.397  0.0692  0.0326 -0.1998
   20CHTO   H39 8398   7.267   2.543   4.327  0.0360  1.0970 -1.0678
   20CHTO    O9 8399   7.134   2.465   4.848 -0.1470 -0.3400  0.1486
   20CHTO   C13 8400   7.104   2.317   4.794 -0.0384  0.3409 -0.3444
   20CHTO   H26 8401   7.193   2.275   4.743  0.9185  2.6935 -0.6685
   20CHTO   C11 8402   6.981   2.329   4.693 -0.0490  0.1454  0.9135
   20CHTO   H24 8403   7.013   2.390   4.608  0.0808 -0.1806  0.7280
   20CHTO    O8 8404   6.876   2.416   4.752 -0.3995  0.0506  0.2459
   20CHTO    H3 8405   6.788   2.387   4.739 -0.0325 -0.4496 -1.3007
   20CHTO    C9 8406   6.941   2.184   4.657  0.7364 -0.0983  0.0789
   20CHTO   H22 8407   7.037   2.136   4.634  0.2368 -1.4217  0.6708
   20CHTO    N2 8408   6.872   2.178   4.528  0.8851  0.1746  0.0270
   20CHTO   H10 8409   6.874   2.081   4.479  0.5853 -0.9959  2.2627
   20CHTO   H11 8410   6.767   2.201   4.539  0.7733 -0.0771 -0.4627
   20CHTO    C7 8411   6.882   2.120   4.789 -1.3904  0.2336  0.4263
   20CHTO   H20 8412   6.913   2.013   4.788  1.1760  0.9293 -2.8098
   20CHTO    O4 8413   6.928   2.170   4.911  0.6510 -0.1098  0.1573
   20CHTO   C14 8414   7.066   2.213   4.909 -0.9895 -0.1491  0.3548
   20CHTO   H27 8415   7.133   2.126   4.899  0.6096  1.1848 -0.9402
   20CHTO   C18 8416   7.091   2.268   5.054 -0.0820 -0.4093 -0.1631
   20CHTO   O13 8417   7.225   2.317   5.056 -0.0784 -0.1368 -0.1886
   20CHTO    H7 8418   7.283   2.251   5.089  1.2296  0.5644 -1.0150
   20CHTO    O2 8419   6.718   2.135   4.779  0.5661 -0.0639  0.7220
   20CHTO    C1 8420   6.640   2.097   4.894 -0.0345 -0.5670  0.0374
   20CHTO   H14 8421   6.683   2.140   4.987 -0.9793  0.1928  0.1466
   20CHTO    C2 8422   6.620   1.938   4.905  0.4797  0.0751  0.4578
   20CHTO   H15 8423   6.584   1.904   4.807 -0.5230  0.0342  0.8351
   20CHTO    O6 8424   6.746   1.868   4.939  0.3984  0.3490  0.5619
   20CHTO    H1 8425   6.787   1.933   4.991  1.3419  0.2824 -0.0910
   20CHTO    C3 8426   6.511   1.901   5.018 -0.0611 -0.1928  0.0384
   20CHTO   H16 8427   6.562   1.929   5.112 -0.0396 -0.7616  0.1976
   20CHTO    N1 8428   6.479   1.750   5.033  0.0458  0.0720 -0.1663
   20CHTO    H8 8429   6.567   1.687   5.032  0.6411  0.7165  4.0327
   20CHTO    H9 8430   6.437   1.748   5.132  0.1624 -0.8538 -0.1300
   20CHTO    C4 8431   6.386   1.993   5.001  0.4463 -0.9517  0.0062
   20CHTO   H17 8432   6.329   1.964   4.913  0.6356 -0.0928 -0.4098
   20CHTO    O1 8433   6.424   2.133   5.000 -0.0922 -0.2640 -1.0624
   20CHTO    C5 8434   6.502   2.170   4.887  0.0758 -0.1962 -0.1339
   20CHTO   H18 8435   6.452   2.143   4.794 -2.2196  0.2497  0.9314
   20CHTO   C16 8436   6.528   2.318   4.886 -0.1362  0.2231 -0.9618
   20CHTO   O11 8437   6.406   2.397   4.888 -0.6076  0.5055 -0.0694
   20CHTO    H5 8438   6.368   2.403   4.973 -0.0719  1.3843  0.1086
   20CHTO    O3 8439   6.302   1.988   5.126  0.1967  0.1434  0.3757
   20CHTO    C6 8440   6.162   2.006   5.118 -0.0200 -0.5109 -0.0646
   20CHTO   H19 8441   6.120   2.040   5.023  0.3712 -3.0103 -1.1772
   20CHTO    C8 8442   6.088   1.878   5.155  0.3933 -0.4343 -0.5792
   20CHTO   H21 8443   6.142   1.835   5.239  0.2322  0.7520  0.1486
   20CHTO    O7 8444   6.093   1.802   5.034 -0.2240  0.2780 -0.1761
   20CHTO    H2 8445   6.144   1.724   5.047 -0.9797 -0.5120 -1.8718
   20CHTO   C12 8446   5.935   1.914   5.191  0.2044  0.0987 -0.0565
   20CHTO   H25 8447   5.884   1.947   5.098  1.3447  0.4434 -0.5613
   20CHTO    N3 8448   5.856   1.792   5.237 -0.0555 -0.5865  0.7636
   20CHTO   H12 8449   5.931   1.723   5.272 -1.6727 -2.6455  0.2700
   20CHTO   H13 8450   5.785   1.822   5.313 -0.1273  0.5640  0.2541
   20CHTO   C15 8451   5.921   2.035   5.292  0.0614  0.7190  0.1687
   20CHTO   H28 8452   5.951   2.014   5.395 -0.7924  0.0212  0.2792
   20CHTO   O10 8453   5.778   2.086   5.296 -0.4124 -1.0077  0.4996
   20CHTO    H4 8454   5.718   2.041   5.351 -1.9337 -0.8174 -0.9672
   20CHTO    O5 8455   5.992   2.147   5.233 -0.5179  0.0800 -0.2920
   20CHTO   C10 8456   6.133   2.122   5.221 -0.7621 -0.0425 -0.2263
   20CHTO   H23 8457   6.168   2.094   5.320  0.5712 -0.2909 -0.7597
   20CHTO   C17 8458   6.195   2.257   5.179 -0.7728 -0.6981 -0.0245
   20CHTO   O12 8459   6.197   2.353   5.283 -0.6173  0.1896  0.0965
   20CHTO    H6 8460   6.234   2.432   5.248 -1.9399  1.1951  0.9201
   21GLOH   H03 8461   8.670   4.185   2.507  0.2756  0.2715  1.1218
   21GLOH    O1 8462   8.751   4.139   2.536  0.4819 -0.5501 -0.7381
   21GLOH    C1 8463   8.862   4.142   2.446 -0.4093  0.4074 -0.4386
   21GLOH   H02 8464   8.950   4.099   2.494 -0.5556  1.6669  0.9918
   21GLOH   H08 8465   8.892   4.245   2.424  0.6449  0.0629 -0.6289
   21GLOH    C2 8466   8.828   4.080   2.307  0.1976 -0.6412 -0.1273
   21GLOH   H04 8467   8.795   3.978   2.330 -0.3253 -1.1216 -2.8443
   21GLOH    O2 8468   8.712   4.150   2.244  0.1591 -0.8596  0.5688
   21GLOH   H05 8469   8.697   4.128   2.150  0.4016 -1.6834  0.7145
   21GLOH    C3 8470   8.961   4.068   2.226  0.3422  0.3262 -0.2615
   21GLOH   H06 8471   8.956   4.014   2.131  1.3831  1.6113 -1.0736
   21GLOH   H07 8472   9.022   4.009   2.294 -1.6133 -0.3784  0.9177
   21GLOH    O3 8473   9.020   4.198   2.208  0.1469  0.4496 -0.4611
   21GLOH   H01 8474   9.113   4.188   2.179 -0.0648 -1.7037 -0.4025
   22GLOH   H03 8475   3.913   5.913   3.123  0.1114 -1.1266  0.7729
   22GLOH    O1 8476   3.957   5.898   3.038 -0.0702  0.3788  0.3973
   22GLOH    C1 8477   3.857   5.828   2.955  0.6601  0.0800  0.1966
   22GLOH   H02 8478   3.850   5.721   2.977 -0.9178 -0.3602 -2.3004
   22GLOH   H08 8479   3.891   5.821   2.852  0.4000  0.7765  0.0653
   22GLOH    C2 8480   3.716   5.882   2.971 -0.5296 -0.5771 -0.1261
   22GLOH   H04 8481   3.715   5.990   2.949 -1.9843 -0.5278  0.1271
   22GLOH    O2 8482   3.637   5.813   2.871 -0.1193 -0.4149 -0.3343
   22GLOH   H05 8483   3.549   5.848   2.892  0.9660  0.3387  3.2708
   22GLOH    C3 8484   3.658   5.861   3.113 -0.4460  0.7704  0.6010
   22GLOH   H06 8485   3.667   5.755   3.136  1.8436  1.2417  1.9351
   22GLOH   H07 8486   3.553   5.890   3.120 -0.7881  0.1264 -1.4762
   22GLOH    O3 8487   3.740   5.928   3.214  0.4705 -0.0157 -0.3659
   22GLOH   H01 8488   3.680   5.975   3.274 -0.1275  0.6927 -1.4969
   23GLOH   H03 8489   8.057   8.353   3.743  0.4067  1.5167 -1.1934
   23GLOH    O1 8490   8.143   8.307   3.731 -0.0782 -0.0018  0.8766
   23GLOH    C1 8491   8.119   8.164   3.718  0.0576 -0.1943  0.2748
   23GLOH   H02 8492   8.017   8.138   3.746  0.3240 -0.4187  1.0502
   23GLOH   H08 8493   8.180   8.126   3.800 -1.1696  1.6163  2.0724
   23GLOH    C2 8494   8.171   8.106   3.588 -0.1398 -0.0219  0.0741
   23GLOH   H04 8495   8.133   8.157   3.498 -2.5783 -1.3820  0.3132
   23GLOH    O2 8496   8.317   8.103   3.574 -0.2824  0.2511 -0.1611
   23GLOH   H05 8497   8.349   8.040   3.508  0.4257 -0.7974  1.1517
   23GLOH    C3 8498   8.124   7.956   3.584 -0.0329  0.3013  0.0261
   23GLOH   H06 8499   8.183   7.908   3.662  1.1281  1.8996  0.1624
   23GLOH   H07 8500   8.159   7.910   3.492 -0.0354 -0.7964  0.5666
   23GLOH    O3 8501   7.987   7.935   3.596  0.2160  0.5333  0.7596
   23GLOH   H01 8502   7.966   7.873   3.668 -1.5157  3.0781  2.5557
   24GLOH   H03 8503   8.108   3.931   2.533 -0.9022 -1.7470 -0.5040
   24GLOH    O1 8504   8.155   3.880   2.603  0.2735 -0.1560 -0.1133
   24GLOH    C1 8505   8.276   3.962   2.644  0.3670  1.0342 -0.1492
   24GLOH   H02 8506   8.355   3.901   2.687 -0.7509 -0.1116  0.3144
   24GLOH   H08 8507   8.236   4.020   2.727  0.6915  2.1237 -0.7435
   24GLOH    C2 8508   8.325   4.057   2.536 -0.1008  0.2723  0.4192
   24GLOH   H04 8509   8.231   4.111   2.514 -0.3608 -0.6988 -0.9363
   24GLOH    O2 8510   8.414   4.157   2.596 -0.2249 -0.1168  0.0189
   24GLOH   H05 8511   8.455   4.212   2.527  1.6436 -0.3190  0.9305
   24GLOH    C3 8512   8.384   3.976   2.415 -0.4976 -0.1837  0.2761
   24GLOH   H06 8513   8.442   3.891   2.452  0.8405 -0.3169 -2.0745
   24GLOH   H07 8514   8.461   4.037   2.368 -0.2142 -0.4846  0.3516
   24GLOH    O3 8515   8.289   3.941   2.314  0.4296 -0.4625  0.3294
   24GLOH   H01 8516   8.232   4.019   2.302  1.3900  0.2024  0.0081
   25GLOH   H03 8517   4.918   8.598   2.241  0.9597 -0.1607  0.2682
   25GLOH    O1 8518   4.938   8.673   2.183  0.2811 -0.3317 -0.1918
   25GLOH    C1 8519   4.827   8.693   2.096  0.9900  0.2442  0.4486
   25GLOH   H02 8520   4.795   8.797   2.100 -2.2249 -0.5792 -2.1289
   25GLOH   H08 8521   4.743   8.630   2.124  1.7339 -0.7432  0.5009
   25GLOH    C2 8522   4.852   8.665   1.946  0.1205  0.9946 -0.1542
   25GLOH   H04 8523   4.935   8.733   1.920  2.4365 -1.6933 -0.1013
   25GLOH    O2 8524   4.901   8.530   1.924  0.4547 -0.1825 -0.1102
   25GLOH   H05 8525   4.984   8.528   1.975 -0.3235 -4.9880  1.1098
   25GLOH    C3 8526   4.718   8.676   1.872 -0.0296 -0.4087  0.5368
   25GLOH   H06 8527   4.645   8.599   1.897 -0.4019 -0.8454 -1.7993
   25GLOH   H07 8528   4.738   8.665   1.766  0.7207 -1.4873  0.7741
   25GLOH    O3 8529   4.654   8.804   1.881  0.4662  0.1721  0.1719
   25GLOH   H01 8530   4.559   8.788   1.863  0.6039 -0.2368 -0.2225
   26GLOH   H03 8531   6.069   9.085   4.708  3.5775 -0.1417  1.9023
   26GLOH    O1 8532   6.073   8.992   4.681 -0.0102 -0.0110  0.6471
   26GLOH    C1 8533   5.957   8.960   4.600 -0.0009 -0.2936 -0.2974
   26GLOH   H02 8534   5.869   8.948   4.663 -1.0614 -1.1812 -1.8818
   26GLOH   H08 8535   5.977   8.871   4.541  2.6831  0.3834 -0.4896
   26GLOH    C2 8536   5.920   9.076   4.505  0.0769  0.4339  0.8099
   26GLOH   H04 8537   6.006   9.074   4.437  1.3860 -2.4341  2.4783
   26GLOH    O2 8538   5.796   9.054   4.427 -0.1603 -0.1114  0.7272
   26GLOH   H05 8539   5.828   8.993   4.359 -3.3916 -0.9981 -0.0609
   26GLOH    C3 8540   5.912   9.210   4.578 -0.0606 -0.7869 -0.2637
   26GLOH   H06 8541   5.827   9.216   4.646 -1.2816  0.4681 -1.8994
   26GLOH   H07 8542   5.887   9.280   4.499  0.3304  0.0529  0.3431
   26GLOH    O3 8543   6.035   9.245   4.645 -0.4725 -0.0305 -0.7248
   26GLOH   H01 8544   6.080   9.314   4.593 -1.8583 -0.7542 -2.9150
   27GLOH   H03 8545   1.645   6.929   4.138  1.1864 -1.2307  0.3123
   27GLOH    O1 8546   1.567   6.921   4.196  0.3693  0.5438 -0.5050
   27GLOH    C1 8547   1.590   7.008   4.305 -0.6207 -0.7711  0.0722
   27GLOH   H02 8548   1.541   7.104   4.286 -0.6130 -0.7139  0.3373
   27GLOH   H08 8549   1.698   7.021   4.310 -0.4075 -1.7135 -1.7465
   27GLOH    C2 8550   1.538   6.945   4.438 -0.3662  0.7545 -0.1074
   27GLOH   H04 8551   1.611   6.872   4.475 -0.4721  0.4673 -0.4664
   27GLOH    O2 8552   1.524   7.040   4.547 -0.1372 -0.3667 -0.3022
   27GLOH   H05 8553   1.601   7.096   4.564 -1.8432  1.8159  0.4824
   27GLOH    C3 8554   1.403   6.866   4.416  0.2978 -0.8142 -0.1999
   27GLOH   H06 8555   1.435   6.776   4.363  0.4968 -2.0180  1.9441
   27GLOH   H07 8556   1.332   6.924   4.357  1.1036 -0.1545 -0.5307
   27GLOH    O3 8557   1.327   6.837   4.534 -0.3391 -0.2306 -0.1106
   27GLOH   H01 8558   1.389   6.861   4.606  0.7674  1.6913 -1.6352
   28GLOH   H03 8559   4.400   3.486   1.118 -0.1046 -0.1189  1.7124
   28GLOH    O1 8560   4.315   3.533   1.128 -0.0553  0.5470 -0.6815
   28GLOH    C1 8561   4.343   3.675   1.140  0.1576 -0.1795 -0.7081
   28GLOH   H02 8562   4.436   3.696   1.193 -0.1226 -2.8475  0.9210
   28GLOH   H08 8563   4.267   3.728   1.198  0.5659  0.6962 -0.9635
   28GLOH    C2 8564   4.334   3.742   1.001  0.0601  0.3887 -0.4676
   28GLOH   H04 8565   4.350   3.850   0.993 -1.9111  0.5903 -2.0079
   28GLOH    O2 8566   4.442   3.683   0.916 -0.2968  0.2613 -0.0513
   28GLOH   H05 8567   4.458   3.592   0.945  1.1368  0.6808  0.4872
   28GLOH    C3 8568   4.199   3.717   0.936  0.2158 -0.9291  0.4789
   28GLOH   H06 8569   4.122   3.750   1.005 -0.6842  1.1055 -1.4598
   28GLOH   H07 8570   4.173   3.612   0.921  0.7226 -1.3932  2.7528
   28GLOH    O3 8571   4.190   3.797   0.813 -0.2283  0.6211  0.0871
   28GLOH   H01 8572   4.183   3.736   0.737 -0.3706  0.9251 -0.1443
   29GLOH   H03 8573   3.804   3.802   3.846  0.1801  0.3235  0.2475
   29GLOH    O1 8574   3.718   3.845   3.829  0.2896  0.4985  0.1416
   29GLOH    C1 8575   3.717   3.975   3.886 -0.3850  0.5082  0.5333
   29GLOH   H02 8576   3.807   4.035   3.874  1.3237 -2.1584 -0.5730
   29GLOH   H08 8577   3.705   3.962   3.993  0.8474 -0.6607  0.5376
   29GLOH    C2 8578   3.592   4.040   3.822 -0.4038 -0.3113 -0.0318
   29GLOH   H04 8579   3.587   4.140   3.866 -0.6428 -0.5192  0.4175
   29GLOH    O2 8580   3.623   4.067   3.684  0.6024 -0.1552 -0.1606
   29GLOH   H05 8581   3.654   3.987   3.639 -3.1465 -1.0720 -1.2513
   29GLOH    C3 8582   3.454   3.970   3.848 -0.1596 -0.1769  0.8429
   29GLOH   H06 8583   3.450   3.874   3.796 -2.3098 -0.1883  1.0246
   29GLOH   H07 8584   3.376   4.028   3.800  1.6432  0.4402 -1.4321
   29GLOH    O3 8585   3.428   3.954   3.981 -0.1276  0.5616 -0.6192
   29GLOH   H01 8586   3.410   4.041   4.021 -0.9288  0.6827 -1.2301
   30GLOH   H03 8587   8.702   6.898   0.143 -0.3568  1.5272  0.4872
   30GLOH    O1 8588   8.742   6.905   0.232  0.4166 -0.8759  0.3582
   30GLOH    C1 8589   8.753   7.042   0.263 -0.0016 -0.8111 -0.2535
   30GLOH   H02 8590   8.692   7.104   0.197  0.9408  2.9014  2.1931
   30GLOH   H08 8591   8.854   7.078   0.243 -0.1555  0.5335  1.2820
   30GLOH    C2 8592   8.721   7.080   0.405  0.0170  0.0216 -0.6907
   30GLOH   H04 8593   8.801   7.036   0.466 -1.0984 -0.4276  0.4995
   30GLOH    O2 8594   8.718   7.224   0.430 -0.3635  0.1379  0.4709
   30GLOH   H05 8595   8.809   7.255   0.445 -0.4961  0.9160 -0.2670
   30GLOH    C3 8596   8.588   7.007   0.452  0.3827 -0.2930  0.5624
   30GLOH   H06 8597   8.521   7.027   0.367  2.8916 -0.0281 -1.4229
   30GLOH   H07 8598   8.553   7.057   0.542  1.4670 -0.5590  1.1328
   30GLOH    O3 8599   8.600   6.866   0.484  0.6239  0.4793  0.1173
   30GLOH   H01 8600   8.560   6.802   0.423 -0.6663  0.2410  1.1933
   31GLOH   H03 8601   1.338   5.150   0.110  0.9172 -0.1958  1.1265
   31GLOH    O1 8602   1.407   5.217   0.130 -0.3357  1.1433  1.0264
   31GLOH    C1 8603   1.503   5.168   0.220 -1.0460 -0.1300  0.0745
   31GLOH   H02 8604   1.573   5.111   0.160 -0.9998  0.8604 -0.8364
   31GLOH   H08 8605   1.461   5.094   0.287  0.1344 -0.7638  0.1178
   31GLOH    C2 8606   1.581   5.270   0.306 -0.5756 -0.4243  0.1150
   31GLOH   H04 8607   1.503   5.320   0.365 -0.5917  0.5694 -0.7308
   31GLOH    O2 8608   1.678   5.195   0.383  0.1055 -0.1612 -0.2648
   31GLOH   H05 8609   1.636   5.155   0.461 -0.6596  0.3516 -0.4137
   31GLOH    C3 8610   1.655   5.381   0.225  0.3675  0.1515  1.0092
   31GLOH   H06 8611   1.724   5.333   0.156 -0.3330  0.9739 -0.2861
   31GLOH   H07 8612   1.712   5.441   0.296  0.8215  0.3319  0.4914
   31GLOH    O3 8613   1.567   5.451   0.133 -0.2942  0.0943  0.9510
   31GLOH   H01 8614   1.576   5.404   0.048  0.7068 -0.3690  1.2986
   32GLOH   H03 8615   0.560   0.411   4.397  3.4192  1.8937 -1.5224
   32GLOH    O1 8616   0.620   0.363   4.458  0.5804  0.1844  0.0299
   32GLOH    C1 8617   0.722   0.445   4.513  0.3086 -0.1921  0.8608
   32GLOH   H02 8618   0.676   0.509   4.588 -0.8422  0.0074 -0.0064
   32GLOH   H08 8619   0.760   0.513   4.436 -2.4415 -0.8947 -1.1861
   32GLOH    C2 8620   0.837   0.367   4.580 -0.4985  0.4100  0.5489
   32GLOH   H04 8621   0.883   0.299   4.507  0.8271 -0.8587  2.5039
   32GLOH    O2 8622   0.933   0.462   4.633  0.2323 -0.1194  0.4914
   32GLOH   H05 8623   1.018   0.468   4.587 -0.1098  2.3017  0.0920
   32GLOH    C3 8624   0.793   0.278   4.699  0.5560 -0.1749 -0.8954
   32GLOH   H06 8625   0.779   0.334   4.791  2.4046 -0.0493 -0.6725
   32GLOH   H07 8626   0.873   0.205   4.714  0.1961 -0.0821  1.5446
   32GLOH    O3 8627   0.668   0.198   4.665 -0.2783  0.2704 -0.0072
   32GLOH   H01 8628   0.625   0.239   4.588 -1.1319 -0.6131 -0.0101
   33GLOH   H03 8629   1.619  10.103   4.357  0.6301 -1.3319  0.2242
   33GLOH    O1 8630   1.541  10.077   4.409 -0.0038 -0.0840 -0.0867
   33GLOH    C1 8631   1.556   9.960   4.490 -0.0836  0.2868  0.7358
   33GLOH   H02 8632   1.477   9.956   4.564  2.3297  0.5125  3.4395
   33GLOH   H08 8633   1.649   9.979   4.545  0.1002 -0.3550  0.6446
   33GLOH    C2 8634   1.563   9.823   4.415 -0.4028  0.5787 -0.4057
   33GLOH   H04 8635   1.657   9.821   4.358  1.7885  1.4963  3.0662
   33GLOH    O2 8636   1.569   9.709   4.511 -0.4665 -0.6321 -0.6444
   33GLOH   H05 8637   1.648   9.717   4.567 -1.8536 -0.4129  1.3295
   33GLOH    C3 8638   1.443   9.803   4.323  0.1316  0.5729 -0.2562
   33GLOH   H06 8639   1.347   9.817   4.374 -0.5698  0.4711 -1.5317
   33GLOH   H07 8640   1.439   9.700   4.286 -1.6655  1.0176 -1.3403
   33GLOH    O3 8641   1.443   9.893   4.212  0.6495 -0.3503 -0.1734
   33GLOH   H01 8642   1.350   9.899   4.182  1.1521  0.8645 -1.5331
   34GLOH   H03 8643   7.938   8.693   5.782  0.5882  2.4944 -2.1661
   34GLOH    O1 8644   7.951   8.629   5.709  0.2123  0.1601 -0.2506
   34GLOH    C1 8645   7.878   8.667   5.587 -0.1064  0.7585 -0.1051
   34GLOH   H02 8646   7.887   8.775   5.582 -0.7549  0.7307 -2.1940
   34GLOH   H08 8647   7.772   8.644   5.594  0.1245  0.2310  1.8906
   34GLOH    C2 8648   7.929   8.607   5.450 -0.0090 -0.0874  0.0375
   34GLOH   H04 8649   7.898   8.502   5.446  1.0324 -0.4743  1.6159
   34GLOH    O2 8650   7.873   8.687   5.347 -0.0081  0.4001 -0.3853
   34GLOH   H05 8651   7.880   8.645   5.260 -3.2241  0.7022 -0.8497
   34GLOH    C3 8652   8.084   8.611   5.448 -0.0858 -0.2819  0.2923
   34GLOH   H06 8653   8.125   8.712   5.440 -0.2995 -0.1975  0.2711
   34GLOH   H07 8654   8.123   8.552   5.365  1.8923  1.6413 -0.1881
   34GLOH    O3 8655   8.147   8.550   5.564  0.2342  0.4446  0.1354
   34GLOH   H01 8656   8.089   8.559   5.642 -1.7485  2.1217 -1.4827
   35GLOH   H03 8657   3.908   2.006   0.080 -0.1663  0.3791  1.9320
   35GLOH    O1 8658   4.003   2.007   0.103  0.3169  0.1571  0.0696
   35GLOH    C1 8659   4.082   2.066   0.001  0.2701  0.6977 -0.2231
   35GLOH   H02 8660   4.033   2.153  -0.043  2.6570  0.5957 -3.3247
   35GLOH   H08 8661   4.097   1.997  -0.082 -0.7326 -0.6655  0.7026
   35GLOH    C2 8662   4.214   2.114   0.044  0.2557 -0.4399 -0.0763
   35GLOH   H04 8663   4.266   2.022   0.073 -0.4250 -1.3015 -1.4933
   35GLOH    O2 8664   4.304   2.171  -0.059  0.1990  0.1085  0.0949
   35GLOH   H05 8665   4.256   2.195  -0.140  0.4381  0.1703 -0.0295
   35GLOH    C3 8666   4.190   2.212   0.156  0.3265 -0.6025 -0.3433
   35GLOH   H06 8667   4.287   2.234   0.200 -1.0765  3.9043  0.7986
   35GLOH   H07 8668   4.128   2.167   0.234 -0.4725  1.2781  0.1346
   35GLOH    O3 8669   4.134   2.338   0.122 -0.1183 -0.7127  0.0141
   35GLOH   H01 8670   4.173   2.361   0.036  1.1828 -1.6374  0.3305
   36GLOH   H03 8671   4.843   8.507   0.148 -1.3034 -1.1959 -1.1105
   36GLOH    O1 8672   4.865   8.453   0.225 -0.4393  0.6214 -0.0453
   36GLOH    C1 8673   4.783   8.335   0.221  0.1231  0.2143 -0.4874
   36GLOH   H02 8674   4.734   8.335   0.124 -0.4087 -1.7711 -0.2276
   36GLOH   H08 8675   4.709   8.342   0.301  0.6665 -3.5912  0.4419
   36GLOH    C2 8676   4.862   8.205   0.238  0.7232  0.1699  0.4839
   36GLOH   H04 8677   4.867   8.183   0.346 -2.7188 -2.7012  0.1416
   36GLOH    O2 8678   4.796   8.089   0.177  0.6079 -0.3872 -0.5226
   36GLOH   H05 8679   4.731   8.047   0.235  2.3485 -1.4932  0.6586
   36GLOH    C3 8680   5.008   8.216   0.181 -0.0235  0.6640  0.2600
   36GLOH   H06 8681   4.996   8.244   0.076 -1.0209 -1.4867 -0.2074
   36GLOH   H07 8682   5.051   8.116   0.180 -1.6566 -0.0871  2.3231
   36GLOH    O3 8683   5.082   8.325   0.243 -0.0007 -0.3947  0.0967
   36GLOH   H01 8684   5.030   8.405   0.226 -1.3389 -1.2919 -0.1567
   37GLOH   H03 8685   4.437   4.020   4.229 -0.5635  0.7469 -1.1065
   37GLOH    O1 8686   4.392   3.940   4.195 -0.1602 -0.1043  0.3276
   37GLOH    C1 8687   4.452   3.924   4.071 -0.2368 -0.0116  0.0560
   37GLOH   H02 8688   4.553   3.962   4.081  0.5398 -0.8735 -3.5459
   37GLOH   H08 8689   4.413   3.982   3.987  1.9022  1.9705  0.4043
   37GLOH    C2 8690   4.458   3.773   4.016  0.1624  0.3080 -0.6147
   37GLOH   H04 8691   4.355   3.734   4.009 -0.8316  2.9967 -1.9693
   37GLOH    O2 8692   4.508   3.770   3.881 -0.4398  0.1441 -0.5664
   37GLOH   H05 8693   4.433   3.801   3.827 -1.6049  0.6479  1.2845
   37GLOH    C3 8694   4.547   3.687   4.109 -0.1255  0.3072 -0.0161
   37GLOH   H06 8695   4.647   3.730   4.116 -0.1379 -0.0953  3.7699
   37GLOH   H07 8696   4.566   3.591   4.061 -0.3313  0.7118 -0.9104
   37GLOH    O3 8697   4.493   3.671   4.236 -0.1101 -0.3047  0.6629
   37GLOH   H01 8698   4.440   3.752   4.247 -0.6097 -0.5620  0.1533
   38GLOH   H03 8699   7.116   4.069   0.093  0.1460 -2.4496  1.6745
   38GLOH    O1 8700   7.209   4.094   0.111 -0.1206 -0.0076 -0.0711
   38GLOH    C1 8701   7.244   4.093   0.254 -0.3340 -0.3595  0.1533
   38GLOH   H02 8702   7.197   4.176   0.308 -1.1468 -1.3612  0.9888
   38GLOH   H08 8703   7.351   4.107   0.268 -1.0046  2.5856  3.1037
   38GLOH    C2 8704   7.209   3.962   0.320 -0.6720  0.4054  0.0901
   38GLOH   H04 8705   7.109   3.935   0.283 -0.2940 -0.7932 -0.1197
   38GLOH    O2 8706   7.294   3.855   0.264 -0.2673 -0.4178 -0.9851
   38GLOH   H05 8707   7.282   3.837   0.169  0.6048 -2.4860 -0.7248
   38GLOH    C3 8708   7.208   3.982   0.473  0.3162  0.0712  0.3495
   38GLOH   H06 8709   7.301   4.014   0.520  0.2125 -0.7021  1.1022
   38GLOH   H07 8710   7.200   3.881   0.513  0.0741 -0.3267 -0.6944
   38GLOH    O3 8711   7.093   4.067   0.503 -0.6719 -0.0439 -0.0084
   38GLOH   H01 8712   7.095   4.075   0.600  0.1241  1.9241 -0.1564
   39GLOH   H03 8713   7.208   3.498   0.595  0.7511  0.4140  0.7984
   39GLOH    O1 8714   7.160   3.469   0.674  0.3743 -0.2169  0.3427
   39GLOH    C1 8715   7.102   3.597   0.717  0.2448 -0.0040  0.4029
   39GLOH   H02 8716   7.020   3.573   0.784  0.5092  0.8910  1.0639
   39GLOH   H08 8717   7.068   3.649   0.628 -2.0835 -1.0693  0.6355
   39GLOH    C2 8718   7.209   3.686   0.788  0.8322 -0.3008  0.1739
   39GLOH   H04 8719   7.275   3.733   0.713 -0.2391  2.6682  0.9934
   39GLOH    O2 8720   7.139   3.788   0.867  0.2174  0.1832  0.5602
   39GLOH   H05 8721   7.129   3.745   0.954 -0.6921 -0.0030  0.3609
   39GLOH    C3 8722   7.305   3.608   0.875 -0.7753  0.4465  0.2119
   39GLOH   H06 8723   7.389   3.669   0.908 -0.3169 -0.1602  0.1626
   39GLOH   H07 8724   7.352   3.533   0.812  1.6262  0.2636  2.1633
   39GLOH    O3 8725   7.232   3.547   0.978  0.4451 -0.1039 -0.3398
   39GLOH   H01 8726   7.272   3.460   1.000 -0.2495  0.1359  2.0730
   40GLOH   H03 8727   5.819   0.150   2.796  0.9075 -0.2142 -0.4578
   40GLOH    O1 8728   5.847   0.218   2.860  0.0220  0.1038 -0.4098
   40GLOH    C1 8729   5.960   0.276   2.804 -0.5981 -0.3198 -0.1504
   40GLOH   H02 8730   5.956   0.271   2.696 -2.7350  0.3736 -0.1206
   40GLOH   H08 8731   6.049   0.222   2.836  0.6524  0.4787 -2.1857
   40GLOH    C2 8732   5.971   0.423   2.848 -1.4440 -0.2959  0.4295
   40GLOH   H04 8733   5.963   0.420   2.958  1.4398  0.5498  0.6878
   40GLOH    O2 8734   6.109   0.465   2.823  0.7282 -0.1256  0.1620
   40GLOH   H05 8735   6.118   0.559   2.847 -1.3781 -0.2081  1.4485
   40GLOH    C3 8736   5.860   0.515   2.802  0.1584 -0.1224 -0.4133
   40GLOH   H06 8737   5.864   0.611   2.853 -1.5971  0.0311 -0.5553
   40GLOH   H07 8738   5.761   0.476   2.828 -0.2050  0.3461 -1.1013
   40GLOH    O3 8739   5.851   0.527   2.660 -0.3506 -0.1463  0.7905
   40GLOH   H01 8740   5.930   0.578   2.635 -0.5222 -0.3794 -0.2455
   41GLOH   H03 8741   7.055   3.448   5.572 -0.6001  0.0379  3.1168
   41GLOH    O1 8742   7.081   3.355   5.585 -0.0259 -0.1736  0.7112
   41GLOH    C1 8743   7.220   3.354   5.574  0.4598  0.0427  0.5205
   41GLOH   H02 8744   7.269   3.263   5.608  0.0264 -0.1402  0.6557
   41GLOH   H08 8745   7.265   3.435   5.631 -0.8830 -0.1549  1.8788
   41GLOH    C2 8746   7.265   3.388   5.431 -0.2900 -0.5919  0.1224
   41GLOH   H04 8747   7.264   3.497   5.421  2.3257 -0.5526 -0.1282
   41GLOH    O2 8748   7.401   3.349   5.411  0.3996 -0.5061  0.0979
   41GLOH   H05 8749   7.453   3.427   5.389  0.7282 -0.4843  0.9245
   41GLOH    C3 8750   7.184   3.328   5.314  0.0776 -0.7122  0.8328
   41GLOH   H06 8751   7.211   3.224   5.296 -0.6319 -0.7456 -0.0760
   41GLOH   H07 8752   7.214   3.379   5.222 -0.0764  1.2997  1.8756
   41GLOH    O3 8753   7.046   3.343   5.334  0.5477  0.5565 -0.3324
   41GLOH   H01 8754   7.034   3.339   5.431  0.5960 -1.7614 -0.4053
   42GLOH   H03 8755   4.433   4.535   4.993  0.1739 -0.9733 -0.8404
   42GLOH    O1 8756   4.519   4.538   4.947  0.4068  0.0308 -0.3349
   42GLOH    C1 8757   4.557   4.675   4.947 -1.3256 -0.3250 -0.2332
   42GLOH   H02 8758   4.469   4.737   4.952 -2.4052 -1.4323 -3.7514
   42GLOH   H08 8759   4.604   4.705   4.853 -2.0174  0.7510 -0.2425
   42GLOH    C2 8760   4.652   4.713   5.059 -0.3379  0.3227 -0.7276
   42GLOH   H04 8761   4.736   4.643   5.059 -0.4640  0.1638 -1.5507
   42GLOH    O2 8762   4.701   4.842   5.037 -0.4687 -0.3127 -0.0634
   42GLOH   H05 8763   4.716   4.891   5.120 -1.2084  1.7823 -1.1155
   42GLOH    C3 8764   4.583   4.711   5.196  0.2883  0.4110 -0.0141
   42GLOH   H06 8765   4.557   4.607   5.217 -0.4128  0.7243  0.7327
   42GLOH   H07 8766   4.492   4.770   5.183  1.2590  1.8498 -0.3474
   42GLOH    O3 8767   4.647   4.786   5.301 -0.4368 -0.6497 -0.4276
   42GLOH   H01 8768   4.581   4.791   5.372  1.0974 -1.0620  1.0663
   43GLOH   H03 8769   7.004   4.152   0.400  0.2545 -0.2274 -0.7851
   43GLOH    O1 8770   6.935   4.190   0.343 -0.1232 -0.0893 -0.2422
   43GLOH    C1 8771   6.822   4.240   0.415  0.2736 -0.0727  0.0530
   43GLOH   H02 8772   6.830   4.343   0.450  2.9171 -0.6788  1.3010
   43GLOH   H08 8773   6.814   4.172   0.499  1.2999  0.9058  0.9605
   43GLOH    C2 8774   6.691   4.225   0.327  0.2548  0.2928 -0.9977
   43GLOH   H04 8775   6.687   4.117   0.307  0.6920  0.3804 -1.5771
   43GLOH    O2 8776   6.586   4.267   0.417 -0.8738 -0.6612 -0.0125
   43GLOH   H05 8777   6.505   4.252   0.366  0.7019 -1.2698 -2.4479
   43GLOH    C3 8778   6.703   4.308   0.200  0.5484 -0.0790  0.7532
   43GLOH   H06 8779   6.734   4.407   0.234 -0.3655  0.5907 -0.3167
   43GLOH   H07 8780   6.610   4.306   0.142  1.0064  0.4338 -0.0134
   43GLOH    O3 8781   6.807   4.243   0.125  0.0664  0.1530 -0.0129
   43GLOH   H01 8782   6.875   4.230   0.194 -1.5525 -0.3875  1.4921
   44GLOH   H03 8783   1.086   1.392   1.793  0.4024 -0.5917  0.1553
   44GLOH    O1 8784   1.051   1.357   1.708  0.2220 -0.0287 -0.0063
   44GLOH    C1 8785   0.905   1.354   1.702 -0.4394 -0.1405  0.3585
   44GLOH   H02 8786   0.885   1.460   1.686 -4.5814 -0.5391  2.3246
   44GLOH   H08 8787   0.868   1.319   1.798  1.2015 -0.4313  0.9050
   44GLOH    C2 8788   0.860   1.250   1.597  0.5888  0.0266 -0.3120
   44GLOH   H04 8789   0.880   1.144   1.620 -2.7470 -0.6999 -0.6043
   44GLOH    O2 8790   0.719   1.259   1.592  0.0703 -0.5782  0.3618
   44GLOH   H05 8791   0.685   1.206   1.518 -0.6998  1.1022 -0.5193
   44GLOH    C3 8792   0.919   1.300   1.460  0.3575 -0.1888 -0.5847
   44GLOH   H06 8793   1.015   1.351   1.470 -0.7482  2.0264 -0.9507
   44GLOH   H07 8794   0.856   1.373   1.409 -0.2611 -2.6375 -3.4086
   44GLOH    O3 8795   0.937   1.186   1.377 -0.1294 -0.1344 -0.4145
   44GLOH   H01 8796   0.906   1.209   1.287 -0.2038 -0.3468 -0.4443
   45GLOH   H03 8797   7.347   1.526   1.315  1.2600 -2.3938  0.1521
   45GLOH    O1 8798   7.348   1.541   1.411  0.1738 -0.0225 -0.1708
   45GLOH    C1 8799   7.372   1.680   1.434  0.9744 -0.3611 -0.2960
   45GLOH   H02 8800   7.275   1.730   1.436  1.1916  0.0815 -0.7725
   45GLOH   H08 8801   7.431   1.727   1.355  2.3813 -0.5973  0.5896
   45GLOH    C2 8802   7.439   1.716   1.571 -0.4885  0.1363 -0.7796
   45GLOH   H04 8803   7.533   1.659   1.571 -0.2005  0.5249  2.0784
   45GLOH    O2 8804   7.472   1.848   1.597 -0.3461  0.5094  0.0732
   45GLOH   H05 8805   7.511   1.859   1.685 -0.2930 -1.5839  0.3405
   45GLOH    C3 8806   7.362   1.654   1.688 -0.8921  0.3508  0.0733
   45GLOH   H06 8807   7.270   1.706   1.713 -0.7263  0.4149  0.5687
   45GLOH   H07 8808   7.431   1.655   1.772  0.0290  1.1623 -0.6837
   45GLOH    O3 8809   7.330   1.522   1.655  0.2294 -0.2240  0.4696
   45GLOH   H01 8810   7.306   1.517   1.561  2.7096 -2.2262 -0.1191
   46GLOH   H03 8811   2.769   4.848   2.388 -1.0865 -1.0839 -0.8708
   46GLOH    O1 8812   2.694   4.858   2.449  0.0118 -0.1741  0.3815
   46GLOH    C1 8813   2.719   4.816   2.583  0.1728 -0.5210  0.1385
   46GLOH   H02 8814   2.691   4.885   2.663 -1.3047  0.0280 -0.8327
   46GLOH   H08 8815   2.823   4.788   2.602  0.1502  0.7944  2.4978
   46GLOH    C2 8816   2.647   4.686   2.610 -0.1526  0.3008 -0.6447
   46GLOH   H04 8817   2.680   4.613   2.535  2.1563 -0.3064  0.8843
   46GLOH    O2 8818   2.685   4.635   2.738 -0.4457 -0.1641 -0.1656
   46GLOH   H05 8819   2.612   4.577   2.766 -0.6013 -0.4185 -1.0603
   46GLOH    C3 8820   2.495   4.689   2.589  0.1375 -0.0145  0.1284
   46GLOH   H06 8821   2.476   4.720   2.486 -0.1899  0.4554  0.3303
   46GLOH   H07 8822   2.456   4.768   2.652 -1.4485 -1.2513  0.7326
   46GLOH    O3 8823   2.428   4.565   2.613 -0.1352 -0.0763 -0.2408
   46GLOH   H01 8824   2.333   4.580   2.633 -0.5412  0.2148 -2.2891
   47GLOH   H03 8825   3.237   7.364   3.556 -0.2989  0.0635  0.2121
   47GLOH    O1 8826   3.260   7.287   3.611  0.2814  0.0738 -0.0144
   47GLOH    C1 8827   3.385   7.233   3.551  0.5023 -0.1073 -0.0800
   47GLOH   H02 8828   3.378   7.234   3.443  0.2973 -1.5011 -0.0813
   47GLOH   H08 8829   3.408   7.130   3.578 -1.9555 -0.5527  0.3841
   47GLOH    C2 8830   3.511   7.307   3.595  0.4313  0.0503  0.4952
   47GLOH   H04 8831   3.505   7.413   3.565 -3.3871  0.4561  2.3487
   47GLOH    O2 8832   3.517   7.306   3.737 -0.5460  0.2074 -0.0663
   47GLOH   H05 8833   3.548   7.394   3.765 -2.3024  0.6244  0.6862
   47GLOH    C3 8834   3.636   7.256   3.523  0.6233 -1.0896  0.2884
   47GLOH   H06 8835   3.657   7.153   3.550  1.5479 -1.0375 -0.2158
   47GLOH   H07 8836   3.721   7.315   3.557  0.2329  0.9918 -2.1570
   47GLOH    O3 8837   3.616   7.272   3.379 -0.7011 -0.3165  0.0947
   47GLOH   H01 8838   3.692   7.313   3.332 -1.7616  0.3795 -1.0324
   48GLOH   H03 8839   0.332   3.690   3.723  0.9834  1.5945 -2.8329
   48GLOH    O1 8840   0.416   3.717   3.764  0.1177 -0.0283  0.1462
   48GLOH    C1 8841   0.396   3.841   3.839  1.5630 -0.1984  0.5006
   48GLOH   H02 8842   0.479   3.846   3.909  0.6855  1.9668  1.4281
   48GLOH   H08 8843   0.302   3.828   3.894 -0.2478  0.5927 -2.2897
   48GLOH    C2 8844   0.382   3.962   3.757 -0.4588  0.1214 -0.0528
   48GLOH   H04 8845   0.473   3.962   3.696 -0.2403 -0.4109  0.2712
   48GLOH    O2 8846   0.278   3.960   3.653 -0.3760 -0.3563  0.0365
   48GLOH   H05 8847   0.198   3.932   3.700 -0.0040  0.3786  1.1179
   48GLOH    C3 8848   0.386   4.095   3.843 -0.5316 -0.2952  0.7413
   48GLOH   H06 8849   0.394   4.182   3.779 -0.8974 -0.1680  0.8663
   48GLOH   H07 8850   0.474   4.091   3.907 -1.6590 -0.8668  2.3055
   48GLOH    O3 8851   0.264   4.105   3.916  0.2958 -0.5475 -0.0847
   48GLOH   H01 8852   0.197   4.147   3.860 -0.3290 -2.1500 -0.5801
   49GLOH   H03 8853  10.068   7.244   2.704  1.3481  1.4301  0.5128
   49GLOH    O1 8854  10.022   7.319   2.662 -0.7572  0.2123  0.5360
   49GLOH    C1 8855   9.923   7.259   2.577  0.8761  0.2750 -0.4872
   49GLOH   H02 8856   9.878   7.171   2.623 -0.7682  1.1954 -0.2789
   49GLOH   H08 8857   9.964   7.215   2.487  0.0260 -1.0639 -0.2352
   49GLOH    C2 8858   9.803   7.350   2.547  0.2662  0.3964 -0.1425
   49GLOH   H04 8859   9.843   7.439   2.496  1.0488 -0.9968 -2.0082
   49GLOH    O2 8860   9.714   7.306   2.443 -0.1485 -0.2071 -0.7326
   49GLOH   H05 8861   9.721   7.209   2.439  2.1208 -0.0152 -2.7121
   49GLOH    C3 8862   9.718   7.386   2.668  0.4423 -0.1417 -0.2857
   49GLOH   H06 8863   9.713   7.294   2.726  0.8621 -0.0512 -0.1019
   49GLOH   H07 8864   9.618   7.418   2.637 -0.3038  0.3194  2.4753
   49GLOH    O3 8865   9.775   7.491   2.752  0.2089  0.3663 -0.1730
   49GLOH   H01 8866   9.835   7.460   2.821 -0.0419  1.5629  0.5965
   50GLOH   H03 8867   9.650   5.532   2.128  0.4432 -2.4785  0.0073
   50GLOH    O1 8868   9.585   5.522   2.056 -0.0173  0.0634  0.0245
   50GLOH    C1 8869   9.615   5.397   1.992  0.5645 -0.1437  0.0619
   50GLOH   H02 8870   9.518   5.358   1.960 -0.0792 -0.2992  2.1106
   50GLOH   H08 8871   9.672   5.328   2.054  2.6095  1.0478 -0.4428
   50GLOH    C2 8872   9.696   5.420   1.859 -0.2259 -0.3918 -0.4981
   50GLOH   H04 8873   9.797   5.461   1.874 -0.4684 -0.2970  0.9865
   50GLOH    O2 8874   9.712   5.294   1.790  0.0396 -0.3433 -0.1213
   50GLOH   H05 8875   9.762   5.230   1.843  0.4125 -0.3532 -0.4820
   50GLOH    C3 8876   9.627   5.530   1.770  0.1003 -0.0326  0.2701
   50GLOH   H06 8877   9.534   5.488   1.731  0.2870 -0.7533  0.5923
   50GLOH   H07 8878   9.695   5.543   1.686 -2.2612 -0.8876 -1.8255
   50GLOH    O3 8879   9.604   5.649   1.830  0.2758 -0.1985  0.1225
   50GLOH   H01 8880   9.534   5.642   1.898 -1.7635  0.4259 -1.8463
   51GLOH   H03 8881   8.488   7.839   2.559 -0.2644  2.2681  0.4608
   51GLOH    O1 8882   8.566   7.823   2.502 -0.5569 -0.1374  0.6939
   51GLOH    C1 8883   8.522   7.757   2.377 -0.3110  0.1252  0.2886
   51GLOH   H02 8884   8.598   7.757   2.299 -0.7019 -1.8534 -0.1323
   51GLOH   H08 8885   8.447   7.814   2.323 -0.9570 -1.4239 -0.4772
   51GLOH    C2 8886   8.480   7.609   2.393  0.2126  0.0738  0.1226
   51GLOH   H04 8887   8.445   7.565   2.298 -0.2465 -1.3639  0.9416
   51GLOH    O2 8888   8.585   7.530   2.451  0.1288 -0.0363  0.1472
   51GLOH   H05 8889   8.637   7.486   2.382 -0.2170  1.5454 -1.1538
   51GLOH    C3 8890   8.356   7.628   2.475 -0.3320  0.1110 -0.3464
   51GLOH   H06 8891   8.381   7.636   2.580  2.7946 -0.0671 -1.0343
   51GLOH   H07 8892   8.308   7.531   2.462  0.5402 -0.1971 -1.4019
   51GLOH    O3 8893   8.268   7.737   2.436 -0.2141 -0.1563  0.1164
   51GLOH   H01 8894   8.203   7.746   2.508  1.0474 -0.4231  1.3066
   52GLOH   H03 8895   9.656   0.598   0.055  1.3970  0.3071  2.4261
   52GLOH    O1 8896   9.629   0.690   0.075  0.5903  0.4723  0.7060
   52GLOH    C1 8897   9.494   0.713   0.029  0.3544 -0.9136 -0.1394
   52GLOH   H02 8898   9.495   0.724  -0.079 -1.1938 -0.1024 -0.0759
   52GLOH   H08 8899   9.455   0.809   0.063 -1.4927 -1.5468 -0.4078
   52GLOH    C2 8900   9.401   0.598   0.074  0.7229  0.3358  0.0235
   52GLOH   H04 8901   9.456   0.507   0.046  0.3447  0.2086 -0.3076
   52GLOH    O2 8902   9.377   0.614   0.211  0.0164  0.7145  0.2133
   52GLOH   H05 8903   9.309   0.548   0.232  2.3804 -1.2214  2.1291
   52GLOH    C3 8904   9.270   0.604  -0.005  0.3507 -0.0740 -0.0037
   52GLOH   H06 8905   9.238   0.707   0.010  0.7560  0.2230 -1.1828
   52GLOH   H07 8906   9.201   0.527   0.032  0.1977  0.8352  1.6569
   52GLOH    O3 8907   9.301   0.583  -0.148 -0.2370 -0.4734 -0.2091
   52GLOH   H01 8908   9.321   0.667  -0.194 -1.9320 -0.4174 -0.9102
   53GLOH   H03 8909   8.151   1.798   4.919  0.5293  1.8769 -1.4011
   53GLOH    O1 8910   8.098   1.750   4.853  0.7127 -0.3294 -0.0248
   53GLOH    C1 8911   8.180   1.687   4.755 -0.2390  0.6685  0.1767
   53GLOH   H02 8912   8.206   1.589   4.795  0.1110  0.1630 -1.2373
   53GLOH   H08 8913   8.275   1.732   4.728  1.0016 -1.2251  1.2509
   53GLOH    C2 8914   8.102   1.680   4.618  0.9479  0.1251  0.6207
   53GLOH   H04 8915   8.071   1.780   4.582  0.6759 -0.4646 -0.8253
   53GLOH    O2 8916   8.171   1.617   4.504 -0.0198  0.3000  0.2846
   53GLOH   H05 8917   8.115   1.630   4.426  0.0894 -0.7178  0.0228
   53GLOH    C3 8918   7.977   1.598   4.643 -0.7499 -0.4329 -0.1712
   53GLOH   H06 8919   7.918   1.602   4.551 -2.2151 -2.9836  0.6318
   53GLOH   H07 8920   7.914   1.637   4.723 -1.1795  0.4887 -0.9403
   53GLOH    O3 8921   8.008   1.459   4.670 -0.3823  0.1695 -0.0683
   53GLOH   H01 8922   8.037   1.445   4.762  0.7535  1.6632 -0.1999
   54GLOH   H03 8923   3.608   6.171   1.162  0.6434 -0.2645 -1.6194
   54GLOH    O1 8924   3.698   6.180   1.200 -0.0068  0.0251 -0.1130
   54GLOH    C1 8925   3.754   6.313   1.205 -0.2873 -0.3716  0.8184
   54GLOH   H02 8926   3.860   6.313   1.180 -0.4920  0.7966 -0.0957
   54GLOH   H08 8927   3.755   6.356   1.305 -0.9218 -1.4012  1.2653
   54GLOH    C2 8928   3.693   6.406   1.098  0.1939  0.8257 -0.4538
   54GLOH   H04 8929   3.681   6.348   1.005  1.5358 -0.9200  0.4125
   54GLOH    O2 8930   3.557   6.453   1.138 -0.4551 -0.4719 -0.2687
   54GLOH   H05 8931   3.495   6.384   1.107  0.7846 -1.2381 -1.0949
   54GLOH    C3 8932   3.788   6.523   1.063  0.3438  0.0299  0.3872
   54GLOH   H06 8933   3.805   6.582   1.153  0.2096 -0.3375  0.6549
   54GLOH   H07 8934   3.752   6.593   0.987  0.6086  1.6668  1.7438
   54GLOH    O3 8935   3.917   6.471   1.021 -0.3328  0.3784 -0.6347
   54GLOH   H01 8936   3.898   6.419   0.942 -1.2608 -0.1554 -0.0678
   55GLOH   H03 8937   1.160   1.523   1.298  0.1127 -0.0611  0.1968
   55GLOH    O1 8938   1.241   1.472   1.315 -0.0738 -0.4167  0.0122
   55GLOH    C1 8939   1.370   1.531   1.274  1.0235 -0.3032  0.0958
   55GLOH   H02 8940   1.447   1.474   1.326  2.0113 -0.1121 -1.1183
   55GLOH   H08 8941   1.382   1.635   1.303 -0.2238 -0.5640  1.5731
   55GLOH    C2 8942   1.397   1.517   1.126  0.0634 -0.1993  0.7784
   55GLOH   H04 8943   1.396   1.412   1.094 -1.5440  0.1621 -0.4331
   55GLOH    O2 8944   1.302   1.585   1.038  0.5787 -0.5110 -0.8971
   55GLOH   H05 8945   1.342   1.587   0.949  3.2377  1.7744  0.2743
   55GLOH    C3 8946   1.536   1.571   1.087  0.3936 -0.3303 -0.1763
   55GLOH   H06 8947   1.534   1.678   1.106 -0.9018 -0.3129 -0.4140
   55GLOH   H07 8948   1.553   1.550   0.981 -1.9141 -0.2333 -0.5913
   55GLOH    O3 8949   1.643   1.510   1.155 -0.1430 -0.6198  0.2038
   55GLOH   H01 8950   1.678   1.579   1.214 -0.1850 -0.6641  0.2798
   56GLOH   H03 8951  -0.010   1.050   5.090  1.2512  0.9793 -1.9842
   56GLOH    O1 8952   0.045   0.970   5.100 -0.6100 -0.0074  0.8041
   56GLOH    C1 8953   0.185   0.996   5.074  0.9191 -0.0370  0.0950
   56GLOH   H02 8954   0.219   1.060   5.156  2.0557 -0.2902 -0.1721
   56GLOH   H08 8955   0.189   1.058   4.984  1.1421 -1.3736 -0.8304
   56GLOH    C2 8956   0.277   0.874   5.069 -0.5231 -0.7179 -0.0402
   56GLOH   H04 8957   0.379   0.915   5.066 -1.1133  0.7092 -2.5441
   56GLOH    O2 8958   0.274   0.805   5.197 -0.4158  0.1571 -0.0903
   56GLOH   H05 8959   0.181   0.780   5.212  0.0278 -0.3341  2.0461
   56GLOH    C3 8960   0.258   0.780   4.952 -0.1976  0.0555 -0.1826
   56GLOH   H06 8961   0.152   0.758   4.946 -0.0919 -0.7808  0.8899
   56GLOH   H07 8962   0.313   0.687   4.966  2.6219  1.5751 -0.5678
   56GLOH    O3 8963   0.302   0.842   4.827 -0.1645  0.9078  0.1469
   56GLOH   H01 8964   0.221   0.887   4.796 -0.8635 -0.1613  0.4098
   57GLOH   H03 8965   2.268   8.884   5.095 -1.2895  0.4869  2.8144
   57GLOH    O1 8966   2.216   8.802   5.084  0.1299 -0.0960  0.1898
   57GLOH    C1 8967   2.080   8.832   5.060  0.2266  0.2305 -0.6904
   57GLOH   H02 8968   2.057   8.827   4.954 -1.9137 -2.2982 -0.1648
   57GLOH   H08 8969   2.050   8.928   5.103 -0.4665 -0.2983  0.0177
   57GLOH    C2 8970   1.995   8.726   5.130 -0.6128 -0.2506  0.8614
   57GLOH   H04 8971   2.023   8.732   5.236  2.8097  0.9692 -0.0140
   57GLOH    O2 8972   1.856   8.762   5.109 -0.2645  0.2960  0.2011
   57GLOH   H05 8973   1.841   8.746   5.014  3.2833  0.1631 -0.4292
   57GLOH    C3 8974   2.019   8.586   5.072 -0.1240 -0.4511 -0.0947
   57GLOH   H06 8975   1.967   8.525   5.146 -0.7565 -1.4210 -1.3103
   57GLOH   H07 8976   2.120   8.547   5.078  0.3432  0.8006  0.1586
   57GLOH    O3 8977   1.966   8.570   4.937 -0.2021 -0.4472  0.1508
   57GLOH   H01 8978   2.003   8.486   4.903 -0.0247 -1.7283  3.3340
   58GLOH   H03 8979   7.218   4.828   4.821 -1.6505 -1.1355  0.1591
   58GLOH    O1 8980   7.189   4.854   4.731 -0.1442 -0.3172 -0.0926
   58GLOH    C1 8981   7.312   4.865   4.646 -0.4183 -0.2400 -0.3272
   58GLOH   H02 8982   7.360   4.768   4.642  0.5738  0.2696 -1.0860
   58GLOH   H08 8983   7.386   4.937   4.683 -1.5189  0.9541 -0.3981
   58GLOH    C2 8984   7.271   4.912   4.508  0.4345 -0.2196 -0.0054
   58GLOH   H04 8985   7.197   4.842   4.467  0.5001  0.7335 -1.7975
   58GLOH    O2 8986   7.207   5.039   4.521 -0.2245 -0.1173  0.5571
   58GLOH   H05 8987   7.152   5.040   4.601  0.7900 -0.6727  1.2578
   58GLOH    C3 8988   7.394   4.935   4.416  0.4254 -0.0909 -0.2012
   58GLOH   H06 8989   7.449   5.021   4.454  0.8487 -0.0093 -0.9705
   58GLOH   H07 8990   7.354   4.957   4.317  2.8056  0.7425 -1.0288
   58GLOH    O3 8991   7.484   4.821   4.409 -0.3380  0.1554 -0.2550
   58GLOH   H01 8992   7.541   4.817   4.330 -0.3305 -0.3839 -0.2251
   59GLOH   H03 8993   3.125   9.718   3.917  0.0790 -0.1378  1.4367
   59GLOH    O1 8994   3.035   9.725   3.953 -0.3633  0.5520  0.2213
   59GLOH    C1 8995   2.938   9.681   3.857  1.0845  0.1686  0.0117
   59GLOH   H02 8996   2.866   9.618   3.909 -0.5546  1.4177 -0.6880
   59GLOH   H08 8997   2.974   9.610   3.783 -1.4154  0.3049 -1.3549
   59GLOH    C2 8998   2.861   9.798   3.792  0.2299 -0.0190  0.0361
   59GLOH   H04 8999   2.778   9.833   3.856 -1.3414  0.1814 -2.0596
   59GLOH    O2 9000   2.942   9.910   3.745  0.2372  0.2056 -0.6530
   59GLOH   H05 9001   2.926   9.979   3.813  0.7788 -1.7895  1.5738
   59GLOH    C3 9002   2.776   9.756   3.675  0.6255  0.4810 -0.4223
   59GLOH   H06 9003   2.841   9.715   3.598 -0.1827  2.2821 -2.1154
   59GLOH   H07 9004   2.727   9.845   3.635  1.7881  1.0556 -0.5959
   59GLOH    O3 9005   2.669   9.657   3.701  0.0089  0.6413 -0.4058
   59GLOH   H01 9006   2.674   9.595   3.625  0.3262 -0.9963  0.9312
   60GLOH   H03 9007   1.913   4.148   0.748 -1.1192  1.2315  1.9064
   60GLOH    O1 9008   1.927   4.060   0.788 -0.0723  0.3053 -0.4156
   60GLOH    C1 9009   1.801   3.987   0.774  0.9908 -0.8855  0.1563
   60GLOH   H02 9010   1.812   3.900   0.839  1.0689 -0.6863  0.4118
   60GLOH   H08 9011   1.783   3.956   0.671  0.8514 -1.1720  0.2693
   60GLOH    C2 9012   1.677   4.064   0.819  0.1517  0.5942 -0.7217
   60GLOH   H04 9013   1.686   4.083   0.927  1.5272 -2.2073 -0.3229
   60GLOH    O2 9014   1.640   4.185   0.756  0.0289 -0.1435 -0.4603
   60GLOH   H05 9015   1.720   4.240   0.747  0.3832 -0.3925  0.9919
   60GLOH    C3 9016   1.553   3.963   0.814 -0.5365  1.0840 -0.2132
   60GLOH   H06 9017   1.542   3.935   0.710 -0.3248  0.5295 -0.0878
   60GLOH   H07 9018   1.461   4.011   0.848 -0.4703  0.4142  0.9303
   60GLOH    O3 9019   1.568   3.842   0.891  0.0246  0.2652 -0.1130
   60GLOH   H01 9020   1.606   3.779   0.827 -1.7322  0.1605 -1.0982
   61GLOH   H03 9021   2.775   1.063   3.224 -0.5081  0.6264  0.0541
   61GLOH    O1 9022   2.696   1.024   3.180 -0.2313 -0.0410  0.1423
   61GLOH    C1 9023   2.741   0.951   3.064  0.2552 -0.5441  0.0351
   61GLOH   H02 9024   2.672   0.871   3.040  1.2708 -0.8551 -2.0179
   61GLOH   H08 9025   2.834   0.897   3.082  1.1228  1.2240  0.9821
   61GLOH    C2 9026   2.766   1.037   2.934  0.4408  0.2683  0.1157
   61GLOH   H04 9027   2.792   1.140   2.962 -3.0102  1.2475 -0.0542
   61GLOH    O2 9028   2.862   0.975   2.848 -0.1012  0.2172  0.6961
   61GLOH   H05 9029   2.946   0.979   2.898 -1.5196  0.3590  3.1584
   61GLOH    C3 9030   2.633   1.059   2.862 -0.5928 -0.5719  0.0008
   61GLOH   H06 9031   2.588   0.961   2.847  2.4959 -2.4776  2.5405
   61GLOH   H07 9032   2.652   1.091   2.759  0.0434 -3.3972 -0.8024
   61GLOH    O3 9033   2.548   1.151   2.928  0.3522 -0.3239  0.2924
   61GLOH   H01 9034   2.504   1.098   2.997 -0.9696  1.5093  0.9347
   62GLOH   H03 9035   5.795   9.725   2.321 -0.4963  1.2031  0.4364
   62GLOH    O1 9036   5.735   9.747   2.247  0.4935  0.5764 -0.5752
   62GLOH    C1 9037   5.680   9.880   2.242  0.6578  0.2168 -0.1999
   62GLOH   H02 9038   5.636   9.900   2.145  0.4414  0.5422 -0.0357
   62GLOH   H08 9039   5.755   9.953   2.274 -0.5858  0.0943  3.2744
   62GLOH    C2 9040   5.559   9.895   2.342  0.5752 -0.6089 -0.0481
   62GLOH   H04 9041   5.597   9.856   2.438 -2.8339  0.1520  1.6582
   62GLOH    O2 9042   5.517  10.031   2.352  0.0217  0.0350  0.5723
   62GLOH   H05 9043   5.511  10.067   2.442  0.6561 -0.5055  0.8368
   62GLOH    C3 9044   5.443   9.797   2.309 -0.1017 -0.8639  0.8027
   62GLOH   H06 9045   5.376   9.836   2.232  1.8712 -2.0078 -1.5542
   62GLOH   H07 9046   5.390   9.799   2.404  1.4660  2.9242  1.6958
   62GLOH    O3 9047   5.479   9.662   2.274 -0.2656 -0.2717  0.3387
   62GLOH   H01 9048   5.564   9.644   2.228 -1.0314 -2.7313 -0.2221
   63GLOH   H03 9049   6.822   7.921   4.059 -1.6462  2.3064  0.0681
   63GLOH    O1 9050   6.811   7.908   4.155 -0.3736 -0.1187 -0.0756
   63GLOH    C1 9051   6.938   7.894   4.220 -0.3054  0.5247 -0.3336
   63GLOH   H02 9052   6.930   7.944   4.316 -0.3928  2.2941 -1.2386
   63GLOH   H08 9053   7.020   7.950   4.177 -0.4265  1.1371  0.2236
   63GLOH    C2 9054   6.981   7.751   4.249 -0.1638  0.7101 -0.2302
   63GLOH   H04 9055   6.998   7.702   4.151  1.3583 -1.5939  1.1186
   63GLOH    O2 9056   7.114   7.756   4.311 -0.2084 -0.3281 -0.1567
   63GLOH   H05 9057   7.138   7.662   4.319 -2.3695 -0.9032 -0.2993
   63GLOH    C3 9058   6.881   7.672   4.337  1.1519 -0.6106 -0.3358
   63GLOH   H06 9059   6.780   7.690   4.300  0.7171 -1.1539  0.5751
   63GLOH   H07 9060   6.875   7.711   4.438 -1.9780  1.4128 -1.1994
   63GLOH    O3 9061   6.903   7.531   4.342 -0.3692  0.4856 -0.0962
   63GLOH   H01 9062   6.993   7.522   4.378 -0.0788 -0.1909 -1.0098
   64GLOH   H03 9063   9.633   3.095   4.895 -1.7161  0.6411 -0.4967
   64GLOH    O1 9064   9.633   3.049   4.809  0.1093 -0.4307  0.0314
   64GLOH    C1 9065   9.611   2.909   4.834  0.0182  0.0465  0.2051
   64GLOH   H02 9066   9.516   2.904   4.887 -0.0839  3.7376  0.4738
   64GLOH   H08 9067   9.690   2.862   4.894 -0.7586 -2.4610 -0.6558
   64GLOH    C2 9068   9.612   2.827   4.700 -0.5002 -0.5076 -0.2343
   64GLOH   H04 9069   9.704   2.846   4.642 -0.2652  0.3042  0.3891
   64GLOH    O2 9070   9.592   2.693   4.720 -0.5389 -0.0750  0.1326
   64GLOH   H05 9071   9.601   2.649   4.633 -1.4244 -0.6908  0.3411
   64GLOH    C3 9072   9.489   2.880   4.617 -0.0501  0.6809  0.0854
   64GLOH   H06 9073   9.484   2.989   4.625  2.1454  0.8799 -0.9881
   64GLOH   H07 9074   9.393   2.852   4.661 -0.0623  0.7454  0.1002
   64GLOH    O3 9075   9.492   2.843   4.480 -0.0625 -0.3583 -0.4564
   64GLOH   H01 9076   9.531   2.755   4.469 -0.2530 -0.5448  0.3437
   65GLOH   H03 9077   3.302   9.983   2.600  0.7070 -0.4382 -0.1649
   65GLOH    O1 9078   3.246   9.976   2.520  0.3686 -0.1809  0.0473
   65GLOH    C1 9079   3.252   9.841   2.472 -0.0520  0.0738 -0.0155
   65GLOH   H02 9080   3.221   9.843   2.368  0.9029 -1.2172 -0.3407
   65GLOH   H08 9081   3.180   9.774   2.518  0.5940 -1.1798 -0.8033
   65GLOH    C2 9082   3.393   9.781   2.472  0.2354  0.4742  0.4546
   65GLOH   H04 9083   3.459   9.849   2.417 -1.4646  0.9891 -0.9743
   65GLOH    O2 9084   3.451   9.766   2.607 -0.4321  0.0365  0.4744
   65GLOH   H05 9085   3.491   9.678   2.599  0.6196  0.6705 -1.3456
   65GLOH    C3 9086   3.400   9.641   2.399  0.3914 -0.4649  0.2179
   65GLOH   H06 9087   3.506   9.621   2.386  1.2388  2.0630  2.7287
   65GLOH   H07 9088   3.356   9.650   2.299 -2.0048  1.2936  1.3684
   65GLOH    O3 9089   3.323   9.546   2.477  0.0943  0.0460  0.0788
   65GLOH   H01 9090   3.233   9.547   2.440  1.5609  0.1422 -3.7685
   66GLOH   H03 9091   5.443   1.351   1.419  0.6089 -0.5793 -2.9987
   66GLOH    O1 9092   5.523   1.363   1.473 -0.6626  0.0849 -1.2000
   66GLOH    C1 9093   5.626   1.268   1.444 -0.0742  0.4793 -0.3262
   66GLOH   H02 9094   5.720   1.319   1.422  1.4337 -0.0550  4.1501
   66GLOH   H08 9095   5.604   1.191   1.370  0.3555 -1.1756  1.2011
   66GLOH    C2 9096   5.649   1.181   1.569  0.0949 -1.0319 -0.4220
   66GLOH   H04 9097   5.550   1.144   1.599  0.5068 -1.9421 -0.1875
   66GLOH    O2 9098   5.737   1.077   1.548 -0.1188  0.0152  0.0463
   66GLOH   H05 9099   5.801   1.102   1.480  0.1724 -3.1666 -0.9400
   66GLOH    C3 9100   5.685   1.266   1.694  0.3130 -0.0735 -0.6454
   66GLOH   H06 9101   5.794   1.270   1.696  0.5422 -2.2189  7.0812
   66GLOH   H07 9102   5.662   1.204   1.781  0.6782  0.2764 -0.2968
   66GLOH    O3 9103   5.620   1.396   1.701  0.0081  0.1284  0.3466
   66GLOH   H01 9104   5.567   1.390   1.620  0.1186  0.3585  0.2550
   67GLOH   H03 9105   5.852   7.080   3.181 -0.6344 -1.9862  0.9670
   67GLOH    O1 9106   5.867   7.009   3.115  0.2375 -0.3738 -0.6182
   67GLOH    C1 9107   5.833   7.065   2.979 -0.1187  0.0068  0.1490
   67GLOH   H02 9108   5.726   7.086   2.978 -0.0467  0.3664 -0.3063
   67GLOH   H08 9109   5.860   6.998   2.897 -0.8646 -0.8924  0.6351
   67GLOH    C2 9110   5.891   7.203   2.934  0.3164 -0.8046  0.0998
   67GLOH   H04 9111   5.811   7.245   2.872 -0.3459 -1.0533  0.7748
   67GLOH    O2 9112   5.920   7.289   3.048 -0.3651 -0.0520 -0.1273
   67GLOH   H05 9113   6.001   7.254   3.089  0.7352 -1.3205 -3.2263
   67GLOH    C3 9114   6.020   7.174   2.855  0.7177 -0.2440 -0.0763
   67GLOH   H06 9115   6.087   7.121   2.923  0.7224 -1.7015 -1.1928
   67GLOH   H07 9116   6.064   7.273   2.843 -1.4943  0.7577 -0.1756
   67GLOH    O3 9117   6.009   7.103   2.734  0.0301 -0.1408 -0.0008
   67GLOH   H01 9118   5.928   7.120   2.683 -1.3744  1.1887  2.5967
   68GLOH   H03 9119   0.733   4.888   0.714 -0.5634 -0.7702 -0.9687
   68GLOH    O1 9120   0.821   4.911   0.679 -0.3771  0.4755  0.2443
   68GLOH    C1 9121   0.809   5.021   0.585 -0.4028 -0.6770  0.6857
   68GLOH   H02 9122   0.755   5.101   0.636  0.3358 -0.2883  0.8576
   68GLOH   H08 9123   0.743   4.991   0.504 -0.3164  0.8304  0.0532
   68GLOH    C2 9124   0.946   5.077   0.536  0.4292  0.4918 -0.0257
   68GLOH   H04 9125   1.006   4.985   0.524 -1.2207 -0.5650 -0.3317
   68GLOH    O2 9126   0.933   5.150   0.417  0.3552 -0.1053  0.0742
   68GLOH   H05 9127   1.020   5.155   0.373 -0.2629 -0.3029 -1.1709
   68GLOH    C3 9128   1.003   5.161   0.657 -0.1964 -0.0307  0.7295
   68GLOH   H06 9129   0.928   5.240   0.658 -0.6481 -0.4624  1.2857
   68GLOH   H07 9130   1.093   5.216   0.629 -0.4370  0.3142  0.6333
   68GLOH    O3 9131   1.015   5.083   0.776  0.2266  0.1540 -0.1708
   68GLOH   H01 9132   0.953   5.009   0.767 -0.2411  0.7038 -1.5716
   69GLOH   H03 9133   3.919   3.501   4.421 -0.9420 -0.3809 -1.9798
   69GLOH    O1 9134   3.845   3.550   4.461  0.2170  0.1086 -0.3755
   69GLOH    C1 9135   3.736   3.552   4.371  0.0412  0.4667  0.2107
   69GLOH   H02 9136   3.778   3.579   4.274 -0.1140  0.0542  0.0276
   69GLOH   H08 9137   3.662   3.628   4.396  0.5859  1.1999 -0.3816
   69GLOH    C2 9138   3.657   3.426   4.341  0.0975  0.1993  0.2552
   69GLOH   H04 9139   3.611   3.389   4.433  0.2020  0.7430  0.5336
   69GLOH    O2 9140   3.547   3.441   4.247 -0.1059  0.1188  0.2846
   69GLOH   H05 9141   3.580   3.479   4.163  0.7706 -0.3517  0.4102
   69GLOH    C3 9142   3.740   3.311   4.287  0.0194  0.0828 -0.5361
   69GLOH   H06 9143   3.784   3.342   4.192  0.8825  0.9021  0.1330
   69GLOH   H07 9144   3.669   3.230   4.269  0.8416 -1.3066  2.2500
   69GLOH    O3 9145   3.851   3.269   4.375  0.2247  0.2812 -0.1333
   69GLOH   H01 9146   3.927   3.236   4.324  1.9232  1.5396  1.4580
   70GLOH   H03 9147   3.362   3.279   0.911 -0.0648  1.5590  0.2253
   70GLOH    O1 9148   3.457   3.259   0.907 -0.3975 -0.0541 -0.1154
   70GLOH    C1 9149   3.510   3.295   0.776 -0.7012  0.7185 -0.0230
   70GLOH   H02 9150   3.492   3.401   0.758  0.8188  1.2664  1.5916
   70GLOH   H08 9151   3.469   3.233   0.696 -1.8302  0.2930  0.8623
   70GLOH    C2 9152   3.666   3.274   0.773  0.1448  0.2473 -0.0938
   70GLOH   H04 9153   3.706   3.326   0.861 -0.5390 -1.9170  1.5328
   70GLOH    O2 9154   3.703   3.134   0.794  0.0851  0.1809 -0.2068
   70GLOH   H05 9155   3.799   3.122   0.781  0.1887  0.0148  0.6863
   70GLOH    C3 9156   3.723   3.343   0.649 -0.0889 -0.7996  0.2114
   70GLOH   H06 9157   3.666   3.300   0.567  1.1787 -1.4353 -0.3475
   70GLOH   H07 9158   3.829   3.323   0.634  0.7817  0.8813  3.4190
   70GLOH    O3 9159   3.710   3.481   0.648  0.3149 -0.1483 -0.1454
   70GLOH   H01 9160   3.740   3.514   0.735 -1.5010 -0.0288  0.4471
   71GLOH   H03 9161   4.705   7.234   4.101  0.1581 -0.0351 -0.3571
   71GLOH    O1 9162   4.642   7.163   4.124 -0.1427  0.3110 -0.1127
   71GLOH    C1 9163   4.691   7.043   4.069 -0.0700  0.5171  0.2418
   71GLOH   H02 9164   4.752   6.992   4.143  0.1987  0.8713  0.2668
   71GLOH   H08 9165   4.764   7.068   3.991 -1.1990 -0.0265 -1.0204
   71GLOH    C2 9166   4.583   6.945   4.016  0.2040 -0.7624 -0.7610
   71GLOH   H04 9167   4.531   6.993   3.932  1.7531  0.8737 -0.8098
   71GLOH    O2 9168   4.639   6.824   3.965 -0.6302 -0.1892 -0.6079
   71GLOH   H05 9169   4.620   6.757   4.033 -1.3321 -0.5772 -1.1880
   71GLOH    C3 9170   4.470   6.937   4.115  0.1360  0.3803 -0.4685
   71GLOH   H06 9171   4.430   7.036   4.138  0.0874 -0.0509  1.4593
   71GLOH   H07 9172   4.502   6.899   4.212 -2.8335  1.3158  0.9474
   71GLOH    O3 9173   4.364   6.861   4.065  0.1451  0.7202  0.1208
   71GLOH   H01 9174   4.289   6.920   4.048 -0.5879  0.0091  0.7995
   72GLOH   H03 9175   9.988   1.771   2.023  0.7765 -0.3104 -1.2535
   72GLOH    O1 9176   9.970   1.682   2.056  0.1191  0.0857 -0.5358
   72GLOH    C1 9177   9.862   1.637   1.971 -0.3088 -0.7726  0.0799
   72GLOH   H02 9178   9.898   1.633   1.868 -1.1708  1.6180 -0.3486
   72GLOH   H08 9179   9.778   1.706   1.980  0.0079 -0.2772 -0.7076
   72GLOH    C2 9180   9.802   1.501   2.017  0.7345  0.9208  0.0534
   72GLOH   H04 9181   9.734   1.504   2.104 -0.8868  0.1415 -1.1743
   72GLOH    O2 9182   9.735   1.437   1.907  0.0345 -0.7174 -0.1604
   72GLOH   H05 9183   9.791   1.433   1.827 -2.5033  1.5716 -2.1589
   72GLOH    C3 9184   9.902   1.401   2.081 -0.1577  0.6268  0.4596
   72GLOH   H06 9185   9.964   1.372   1.997 -0.0781  1.1891  0.3221
   72GLOH   H07 9186   9.869   1.306   2.121  1.1349  0.8996  2.2361
   72GLOH    O3 9187   9.978   1.469   2.185  0.4666 -0.0044  0.5682
   72GLOH   H01 9188   9.970   1.564   2.165 -0.9869 -0.3102 -0.3628
   73GLOH   H03 9189   1.631   8.929   4.661 -0.4278  2.1213  1.6400
   73GLOH    O1 9190   1.715   8.892   4.694 -0.5339 -0.1107 -0.4414
   73GLOH    C1 9191   1.793   8.851   4.580  0.7891  0.2569 -0.2494
   73GLOH   H02 9192   1.897   8.864   4.610  0.1407  1.8963  1.3667
   73GLOH   H08 9193   1.771   8.910   4.490  1.0826 -1.2478 -1.3205
   73GLOH    C2 9194   1.772   8.699   4.550 -0.0966 -0.2376  0.3123
   73GLOH   H04 9195   1.788   8.682   4.442  1.5680  0.5024  0.4436
   73GLOH    O2 9196   1.870   8.620   4.621  0.2104  0.8778  0.3278
   73GLOH   H05 9197   1.825   8.543   4.661 -1.2767  0.7998 -1.4016
   73GLOH    C3 9198   1.628   8.647   4.578  0.1948  0.2498  0.2693
   73GLOH   H06 9199   1.598   8.679   4.678 -0.9455 -0.0221  0.0166
   73GLOH   H07 9200   1.608   8.541   4.568  0.3977  0.2004  0.3746
   73GLOH    O3 9201   1.552   8.716   4.480 -0.2383 -0.1130 -0.5421
   73GLOH   H01 9202   1.590   8.692   4.394  1.3660  1.1553 -0.2171
   74GLOH   H03 9203   3.446   4.229   4.186  0.3127 -0.8023 -0.0738
   74GLOH    O1 9204   3.402   4.148   4.155 -0.9312 -0.1385 -0.0699
   74GLOH    C1 9205   3.333   4.097   4.275 -0.4321  0.3075  0.1940
   74GLOH   H02 9206   3.236   4.055   4.251  0.9080 -1.5029 -2.3319
   74GLOH   H08 9207   3.326   4.189   4.333  2.2847  1.4526 -1.1516
   74GLOH    C2 9208   3.402   3.990   4.365  1.1593 -0.5303 -0.1386
   74GLOH   H04 9209   3.496   4.034   4.400  0.0262  2.4115 -0.7084
   74GLOH    O2 9210   3.324   3.958   4.482 -0.0053 -0.1191 -0.2209
   74GLOH   H05 9211   3.249   3.898   4.464  0.2895 -0.9639  1.2852
   74GLOH    C3 9212   3.443   3.855   4.300 -0.7739  0.6476  0.9191
   74GLOH   H06 9213   3.364   3.822   4.232  1.5301 -0.1546 -1.4184
   74GLOH   H07 9214   3.460   3.775   4.372 -1.9237 -0.4165  0.0296
   74GLOH    O3 9215   3.565   3.867   4.218  0.5183  0.3203 -0.5516
   74GLOH   H01 9216   3.560   3.792   4.156  2.2149  0.5127 -0.9549
   75GLOH   H03 9217   0.691   9.667   1.758 -0.1073  0.4642  0.1909
   75GLOH    O1 9218   0.746   9.623   1.826 -0.5659 -0.4470 -0.0175
   75GLOH    C1 9219   0.765   9.693   1.948 -0.4288 -0.2920 -0.4772
   75GLOH   H02 9220   0.667   9.689   1.994  0.2048  0.5715  0.9702
   75GLOH   H08 9221   0.793   9.798   1.934  0.0513 -0.3794 -0.1874
   75GLOH    C2 9222   0.866   9.624   2.046 -0.3273 -0.5752  0.8227
   75GLOH   H04 9223   0.968   9.614   2.004 -0.2417 -1.8086  1.2808
   75GLOH    O2 9224   0.875   9.709   2.161  0.4988  0.3231  0.5784
   75GLOH   H05 9225   0.930   9.663   2.227  1.6237  0.1921 -0.4239
   75GLOH    C3 9226   0.827   9.480   2.071  0.2505  0.3113 -0.3574
   75GLOH   H06 9227   0.913   9.438   2.124 -0.5598 -1.5106 -0.4431
   75GLOH   H07 9228   0.838   9.432   1.974  0.4773  0.2684 -0.3110
   75GLOH    O3 9229   0.697   9.449   2.128  0.1470  0.1051  0.1288
   75GLOH   H01 9230   0.621   9.471   2.071 -0.6562  0.8453  1.4559
   76GLOH   H03 9231   0.590   9.204   3.497 -1.7095  0.5973 -0.1460
   76GLOH    O1 9232   0.591   9.173   3.589 -0.1177  0.5993 -0.1541
   76GLOH    C1 9233   0.450   9.181   3.637 -0.4469 -0.3048  0.4349
   76GLOH   H02 9234   0.390   9.110   3.580 -1.6778  1.8732 -1.0386
   76GLOH   H08 9235   0.414   9.280   3.611  2.6744  0.7261 -0.2224
   76GLOH    C2 9236   0.452   9.168   3.788 -0.1074  0.8200 -0.2490
   76GLOH   H04 9237   0.533   9.235   3.821  1.2753 -0.2940 -1.2652
   76GLOH    O2 9238   0.334   9.208   3.858 -0.2728 -0.1883 -0.2431
   76GLOH   H05 9239   0.336   9.182   3.952 -1.6689 -1.1646 -0.4552
   76GLOH    C3 9240   0.490   9.027   3.836  0.8519  0.4404  0.1932
   76GLOH   H06 9241   0.436   8.951   3.780  0.3826 -0.4606  1.8578
   76GLOH   H07 9242   0.472   9.003   3.941 -1.0567 -1.3935 -0.5099
   76GLOH    O3 9243   0.626   9.001   3.799 -0.4368  0.3386  0.6541
   76GLOH   H01 9244   0.650   9.051   3.719  2.2514 -2.1749 -0.2105
   77GLOH   H03 9245   7.996   6.517   5.415  0.1144 -0.3319  0.5912
   77GLOH    O1 9246   8.043   6.508   5.330  0.1537  0.0028  0.5771
   77GLOH    C1 9247   7.950   6.528   5.226  0.0586  0.6839 -1.0537
   77GLOH   H02 9248   7.873   6.596   5.263  0.6418  2.2391 -2.6500
   77GLOH   H08 9249   7.898   6.435   5.207  0.4372  0.3309 -0.3710
   77GLOH    C2 9250   8.021   6.575   5.099  0.8614 -0.4879 -0.2112
   77GLOH   H04 9251   8.124   6.538   5.088  1.4674  0.9927  0.3088
   77GLOH    O2 9252   7.944   6.528   4.981  0.2416  0.6206 -0.1351
   77GLOH   H05 9253   7.949   6.431   4.990  1.3073  0.6152 -0.6131
   77GLOH    C3 9254   8.025   6.726   5.102 -0.3523 -0.5339 -0.3950
   77GLOH   H06 9255   7.924   6.765   5.120  0.4671  0.9000  1.2366
   77GLOH   H07 9256   8.060   6.761   5.005 -2.0464  0.3564 -0.7050
   77GLOH    O3 9257   8.116   6.778   5.200 -0.4087  0.0233 -0.2260
   77GLOH   H01 9258   8.183   6.709   5.221 -0.6113  0.6244  2.5309
   78GLOH   H03 9259   8.224   9.064   0.884 -0.2223 -0.6600 -1.0986
   78GLOH    O1 9260   8.285   8.990   0.901  0.1323 -0.1976 -0.3071
   78GLOH    C1 9261   8.409   9.044   0.913 -0.0950 -0.3266 -0.1264
   78GLOH   H02 9262   8.420   9.149   0.940  3.6241 -0.1976 -1.8561
   78GLOH   H08 9263   8.465   9.039   0.820  1.2321 -1.1214  0.6978
   78GLOH    C2 9264   8.486   8.987   1.031 -0.7840  0.5201  0.9134
   78GLOH   H04 9265   8.483   8.878   1.027  2.6076  0.4602 -1.6541
   78GLOH    O2 9266   8.619   9.017   1.016  0.3863 -0.5176 -0.0417
   78GLOH   H05 9267   8.653   9.086   1.076 -1.7956  0.2152  0.3943
   78GLOH    C3 9268   8.415   9.036   1.163  0.1375 -0.1544  0.3898
   78GLOH   H06 9269   8.308   9.016   1.155 -0.5543  3.4535 -0.5197
   78GLOH   H07 9270   8.428   9.144   1.170 -0.3195 -0.1497  1.2192
   78GLOH    O3 9271   8.469   8.965   1.278 -0.0447  0.0873  0.3062
   78GLOH   H01 9272   8.405   8.903   1.318  0.4242  0.2989  1.3842
   79GLOH   H03 9273   4.310   3.374   4.842  0.4247  1.2288  0.8380
   79GLOH    O1 9274   4.217   3.363   4.869  0.3029 -0.0970 -0.0729
   79GLOH    C1 9275   4.125   3.417   4.771  0.4913 -0.0184 -0.0350
   79GLOH   H02 9276   4.036   3.354   4.775  0.3200  0.2784  1.0214
   79GLOH   H08 9277   4.171   3.397   4.675  1.2904 -1.3892  0.6158
   79GLOH    C2 9278   4.090   3.567   4.787  0.1272  0.1592 -0.4083
   79GLOH   H04 9279   4.072   3.619   4.692 -4.5592  1.5511  1.1155
   79GLOH    O2 9280   3.969   3.583   4.863 -0.1675  0.0762  0.0433
   79GLOH   H05 9281   3.888   3.548   4.823  0.7586  1.6412 -3.3492
   79GLOH    C3 9282   4.208   3.642   4.846  0.2677  0.1187 -0.2599
   79GLOH   H06 9283   4.297   3.617   4.789 -1.2164  0.4302 -2.7769
   79GLOH   H07 9284   4.227   3.600   4.945 -1.5350  1.1415  0.5543
   79GLOH    O3 9285   4.191   3.785   4.852  0.1094 -0.2427 -0.5759
   79GLOH   H01 9286   4.228   3.815   4.767  0.5279  1.8155  0.3009
   80GLOH   H03 9287   5.366   8.945   4.619 -1.1890  0.0772 -0.4079
   80GLOH    O1 9288   5.316   8.948   4.703  0.1625 -0.3355  0.4127
   80GLOH    C1 9289   5.395   9.049   4.767  0.1038  0.5659  0.1836
   80GLOH   H02 9290   5.500   9.023   4.780  1.3888  3.7349 -3.1730
   80GLOH   H08 9291   5.356   9.075   4.865 -1.6079  2.3402 -0.9399
   80GLOH    C2 9292   5.398   9.185   4.692  0.0872  0.4721 -0.1400
   80GLOH   H04 9293   5.444   9.266   4.751  0.9687 -0.7079  0.8113
   80GLOH    O2 9294   5.476   9.174   4.573  0.3067  0.6228  0.2828
   80GLOH   H05 9295   5.478   9.080   4.550 -3.8746  0.5487 -0.2316
   80GLOH    C3 9296   5.254   9.236   4.662  0.6348  0.3387  0.1860
   80GLOH   H06 9297   5.221   9.180   4.575  1.6112  0.1688 -0.0748
   80GLOH   H07 9298   5.254   9.342   4.638 -1.9903  0.6265  1.1971
   80GLOH    O3 9299   5.162   9.229   4.775  0.5893 -0.1345 -0.1808
   80GLOH   H01 9300   5.099   9.161   4.745  0.9390  0.5409 -2.4800
   81GLOH   H03 9301   4.580   2.022   3.311  1.0646  1.3176 -0.9538
   81GLOH    O1 9302   4.629   1.941   3.286 -0.1786  0.0702  0.5264
   81GLOH    C1 9303   4.544   1.827   3.296 -0.1505 -0.3438  0.2766
   81GLOH   H02 9304   4.598   1.750   3.241 -3.4134 -2.1354 -0.5527
   81GLOH   H08 9305   4.451   1.835   3.239 -0.3094 -0.1035  0.5697
   81GLOH    C2 9306   4.511   1.798   3.441  0.6694 -0.3306 -0.5480
   81GLOH   H04 9307   4.445   1.710   3.442  0.2043 -0.0085 -1.7518
   81GLOH    O2 9308   4.631   1.777   3.522 -0.0896  0.6054 -0.4138
   81GLOH   H05 9309   4.644   1.683   3.541  1.5212  0.7011 -1.0060
   81GLOH    C3 9310   4.435   1.914   3.505 -0.5823 -0.0176 -0.0911
   81GLOH   H06 9311   4.500   2.002   3.504  1.3685 -1.4194 -0.0500
   81GLOH   H07 9312   4.417   1.891   3.610  2.4454  1.7994  0.9211
   81GLOH    O3 9313   4.313   1.934   3.437 -0.2735  0.8461  0.7833
   81GLOH   H01 9314   4.258   1.854   3.442 -2.1713  2.0865  0.1237
   82GLOH   H03 9315   4.761   1.248   1.105 -1.6859  0.8000  0.0637
   82GLOH    O1 9316   4.794   1.323   1.051  0.4922  0.2860  0.6255
   82GLOH    C1 9317   4.773   1.440   1.137  0.0917  0.2518 -0.0108
   82GLOH   H02 9318   4.817   1.413   1.233 -0.0281 -0.0294 -0.0333
   82GLOH   H08 9319   4.668   1.452   1.164  0.2962 -1.0034  1.3934
   82GLOH    C2 9320   4.838   1.563   1.075  0.7063  1.0135 -0.0633
   82GLOH   H04 9321   4.779   1.591   0.987 -0.7213 -3.4218 -0.6031
   82GLOH    O2 9322   4.836   1.675   1.168  0.4299  0.0308  0.4624
   82GLOH   H05 9323   4.892   1.749   1.139 -0.5320  0.0815 -1.3326
   82GLOH    C3 9324   4.975   1.533   1.012 -0.2607 -0.2448  0.0087
   82GLOH   H06 9325   5.002   1.428   1.010  3.5926  0.6793 -0.4749
   82GLOH   H07 9326   5.056   1.583   1.066 -0.5717 -0.6218  0.8379
   82GLOH    O3 9327   4.982   1.590   0.877 -0.0176 -0.0274  0.0214
   82GLOH   H01 9328   4.949   1.682   0.880  3.0316  1.1131  0.8969
   83GLOH   H03 9329   3.443   5.242   3.239  0.8931  0.6887  0.4674
   83GLOH    O1 9330   3.439   5.306   3.165  0.2506  0.1800  0.0501
   83GLOH    C1 9331   3.435   5.434   3.238 -0.5527  0.1169  0.4346
   83GLOH   H02 9332   3.527   5.453   3.293  0.1776 -1.1758 -0.3197
   83GLOH   H08 9333   3.365   5.426   3.321 -1.5230  2.2929 -0.1333
   83GLOH    C2 9334   3.393   5.547   3.143  0.0065 -0.1594  0.0488
   83GLOH   H04 9335   3.293   5.509   3.115  0.5244 -2.0433  0.7158
   83GLOH    O2 9336   3.401   5.678   3.211  0.0838  0.2900  0.3121
   83GLOH   H05 9337   3.333   5.735   3.172 -0.1398  1.8936  2.9193
   83GLOH    C3 9338   3.486   5.546   3.022  0.0203  0.5804  0.1644
   83GLOH   H06 9339   3.586   5.572   3.057  1.2024  3.3979 -4.8601
   83GLOH   H07 9340   3.467   5.635   2.962  0.7131  1.1170  0.7233
   83GLOH    O3 9341   3.484   5.427   2.947 -0.0464  0.1874  0.5768
   83GLOH   H01 9342   3.490   5.352   3.009 -0.5207 -1.9661 -1.8907
   84GLOH   H03 9343   8.509   5.680   0.129  0.3048  0.5922  0.2332
   84GLOH    O1 9344   8.534   5.591   0.158 -0.3966  0.0997 -0.6476
   84GLOH    C1 9345   8.448   5.489   0.122 -0.2192  0.1408 -0.1091
   84GLOH   H02 9346   8.345   5.523   0.127  0.5987  2.8363 -0.4765
   84GLOH   H08 9347   8.466   5.400   0.183 -0.5194 -1.5082 -2.3666
   84GLOH    C2 9348   8.471   5.439  -0.018 -0.1353  0.0387  0.2073
   84GLOH   H04 9349   8.388   5.369  -0.035 -0.9160  1.0298 -0.1165
   84GLOH    O2 9350   8.461   5.554  -0.105 -0.2777  0.6410  0.0975
   84GLOH   H05 9351   8.381   5.544  -0.160  0.1809 -1.0695 -0.2894
   84GLOH    C3 9352   8.605   5.361  -0.034  0.0011 -0.0632  0.0317
   84GLOH   H06 9353   8.698   5.418  -0.029 -0.5795  0.8581  0.4155
   84GLOH   H07 9354   8.599   5.337  -0.140  1.0586  0.6669 -0.2026
   84GLOH    O3 9355   8.612   5.243   0.053 -0.2037  0.2283  0.2264
   84GLOH   H01 9356   8.521   5.207   0.052  0.0123 -0.3770  1.3254
   85GLOH   H03 9357   4.859   1.759   4.966 -1.2069 -1.4675  0.1086
   85GLOH    O1 9358   4.911   1.720   5.038  0.1387 -0.1996 -0.1444
   85GLOH    C1 9359   4.952   1.805   5.143 -0.7227 -0.4452  0.1339
   85GLOH   H02 9360   4.860   1.824   5.199  0.6909  1.1530  1.9930
   85GLOH   H08 9361   4.985   1.903   5.108 -0.1797 -1.2959 -1.7558
   85GLOH    C2 9362   5.068   1.746   5.226 -0.0237  0.6919  1.1308
   85GLOH   H04 9363   5.157   1.727   5.165 -1.2838 -1.7262 -0.0226
   85GLOH    O2 9364   5.097   1.834   5.332 -0.9507 -0.1087  0.2359
   85GLOH   H05 9365   5.167   1.794   5.385 -2.2787  0.8693  2.8043
   85GLOH    C3 9366   5.025   1.610   5.285  0.1614  0.3700 -0.4750
   85GLOH   H06 9367   4.946   1.629   5.358 -0.9515 -2.6307 -0.8413
   85GLOH   H07 9368   5.110   1.560   5.333  0.0745 -0.6971 -1.4148
   85GLOH    O3 9369   4.971   1.533   5.181 -0.1275 -0.7797  0.5156
   85GLOH   H01 9370   4.922   1.584   5.114  1.6834  0.9088  0.4196
   86GLOH   H03 9371   9.802   0.934   3.763 -0.4058  1.5466 -0.0792
   86GLOH    O1 9372   9.712   0.949   3.728 -0.5604  0.2924 -0.2346
   86GLOH    C1 9373   9.702   0.891   3.596 -0.3794 -0.2682  0.3171
   86GLOH   H02 9374   9.633   0.946   3.532  0.8574  0.7986 -0.1165
   86GLOH   H08 9375   9.659   0.791   3.603  0.6450 -0.8056 -0.9250
   86GLOH    C2 9376   9.846   0.882   3.543 -0.3358 -0.7432  0.1245
   86GLOH   H04 9377   9.893   0.981   3.540 -1.4006 -0.2670 -2.3213
   86GLOH    O2 9378   9.915   0.785   3.618  0.8852 -0.7720 -0.1614
   86GLOH   H05 9379   9.941   0.820   3.704 -1.9872  2.3651 -0.4734
   86GLOH    C3 9380   9.834   0.845   3.390 -0.5872 -0.0246 -0.3543
   86GLOH   H06 9381   9.775   0.754   3.380 -0.0973 -0.3678 -0.1506
   86GLOH   H07 9382   9.933   0.828   3.348 -0.6713 -0.1810 -0.4901
   86GLOH    O3 9383   9.768   0.954   3.317  0.2954 -0.4321  0.2342
   86GLOH   H01 9384   9.830   1.029   3.326 -1.3279  0.8760  0.6636
   87GLOH   H03 9385   7.513   2.074   2.304 -1.3721 -1.7075 -1.8470
   87GLOH    O1 9386   7.525   2.124   2.222 -0.2727  0.0377 -0.6303
   87GLOH    C1 9387   7.422   2.221   2.195  0.0901  0.0265  1.1046
   87GLOH   H02 9388   7.345   2.234   2.271 -2.1201 -2.6947 -0.5720
   87GLOH   H08 9389   7.373   2.194   2.102  0.1528  0.9739  0.7939
   87GLOH    C2 9390   7.500   2.356   2.159  0.9825  0.3746 -0.1225
   87GLOH   H04 9391   7.562   2.352   2.068  2.4104  2.2989  0.7251
   87GLOH    O2 9392   7.409   2.463   2.154  0.2169  0.3611  0.3741
   87GLOH   H05 9393   7.446   2.544   2.193 -0.7516 -0.3913  2.9519
   87GLOH    C3 9394   7.604   2.375   2.269 -0.8936  0.2587  0.5062
   87GLOH   H06 9395   7.671   2.288   2.273  0.3047  1.1632  0.4892
   87GLOH   H07 9396   7.551   2.365   2.364 -0.9823 -1.4425  0.2989
   87GLOH    O3 9397   7.687   2.495   2.258  0.3201  0.3270  0.4873
   87GLOH   H01 9398   7.755   2.490   2.189  1.2645  1.8178  1.2769
   88GLOH   H03 9399   4.409   7.012   2.758  0.2428  0.4422 -2.8825
   88GLOH    O1 9400   4.504   7.027   2.771 -0.0117 -0.1197 -0.1994
   88GLOH    C1 9401   4.551   6.978   2.895  0.2545 -0.4565 -0.1025
   88GLOH   H02 9402   4.563   7.058   2.969  1.9279  0.5249 -1.3873
   88GLOH   H08 9403   4.650   6.933   2.882  0.3019 -0.4524  0.2477
   88GLOH    C2 9404   4.463   6.869   2.961  0.0258 -0.4425 -0.2386
   88GLOH   H04 9405   4.368   6.906   3.003 -1.0719 -0.9401 -2.2412
   88GLOH    O2 9406   4.437   6.762   2.871 -0.4697 -0.1998 -0.5081
   88GLOH   H05 9407   4.353   6.713   2.883 -0.3143 -0.0749  1.1586
   88GLOH    C3 9408   4.546   6.815   3.082  0.0186  0.1405  0.3804
   88GLOH   H06 9409   4.639   6.789   3.031 -0.6217  0.8875 -1.2170
   88GLOH   H07 9410   4.504   6.721   3.117  4.3495 -2.3031 -0.5067
   88GLOH    O3 9411   4.574   6.908   3.194 -0.2126 -0.2851  0.0739
   88GLOH   H01 9412   4.614   6.840   3.251 -0.7542 -0.8458 -0.2111
   89GLOH   H03 9413   7.019   7.100   3.282 -0.7477 -0.0501 -1.0388
   89GLOH    O1 9414   7.037   7.033   3.213 -0.3012 -0.8188 -0.1938
   89GLOH    C1 9415   6.920   7.023   3.137 -0.2520 -0.5505 -0.1708
   89GLOH   H02 9416   6.954   7.019   3.034 -0.1912  1.6125 -0.2576
   89GLOH   H08 9417   6.858   7.112   3.147 -0.9707 -1.1813  1.0640
   89GLOH    C2 9418   6.833   6.908   3.181  0.1939  0.3838  0.3919
   89GLOH   H04 9419   6.898   6.820   3.174  1.3351  1.1179  1.6002
   89GLOH    O2 9420   6.788   6.919   3.314 -0.1664 -0.0996 -0.5078
   89GLOH   H05 9421   6.849   6.864   3.366 -0.7004 -0.4815 -0.2858
   89GLOH    C3 9422   6.717   6.888   3.078 -0.0001 -0.2232 -0.0524
   89GLOH   H06 9423   6.654   6.977   3.083 -3.6175 -2.6939  0.5830
   89GLOH   H07 9424   6.652   6.809   3.116 -0.1042  0.6735  1.6981
   89GLOH    O3 9425   6.758   6.849   2.947 -0.1123 -0.2175 -0.2008
   89GLOH   H01 9426   6.676   6.862   2.896  0.0700 -1.4112 -0.8048
   90GLOH   H03 9427   8.030   4.432   3.580  0.6130 -0.7937  0.1228
   90GLOH    O1 9428   8.007   4.382   3.661 -0.3123 -0.6832 -0.0621
   90GLOH    C1 9429   8.010   4.241   3.631 -0.4252 -0.3574  0.2627
   90GLOH   H02 9430   7.919   4.215   3.576 -0.1654  0.9247 -0.7817
   90GLOH   H08 9431   8.015   4.175   3.718 -1.3630 -0.5316  0.1893
   90GLOH    C2 9432   8.132   4.208   3.539 -0.2372  0.0005  0.2549
   90GLOH   H04 9433   8.224   4.204   3.598 -0.8334  0.0752  1.1901
   90GLOH    O2 9434   8.108   4.072   3.490  0.1808  0.7472 -0.2628
   90GLOH   H05 9435   8.132   4.005   3.557  0.7816  0.0214 -1.1846
   90GLOH    C3 9436   8.164   4.309   3.429 -0.0184 -0.0365 -0.1238
   90GLOH   H06 9437   8.079   4.303   3.360  0.2701  1.6634 -0.6236
   90GLOH   H07 9438   8.249   4.274   3.371  0.6015 -1.4011  1.5601
   90GLOH    O3 9439   8.168   4.446   3.460 -0.1814  0.2692  0.5114
   90GLOH   H01 9440   8.176   4.496   3.377  1.7749 -0.6575  0.1044
   91GLOH   H03 9441   7.740   2.142   4.227 -0.7372 -0.1519  0.1483
   91GLOH    O1 9442   7.729   2.090   4.145 -0.4537  0.5365 -0.3313
   91GLOH    C1 9443   7.658   1.970   4.182  0.5388  0.1989 -0.4100
   91GLOH   H02 9444   7.571   1.999   4.241  0.8869  0.6606 -0.1217
   91GLOH   H08 9445   7.723   1.902   4.238  1.7829  0.3325 -1.6687
   91GLOH    C2 9446   7.607   1.894   4.058  0.1132  0.0593  0.0340
   91GLOH   H04 9447   7.689   1.830   4.021  0.6395  2.1449 -2.5734
   91GLOH    O2 9448   7.496   1.804   4.093 -0.2132 -0.3186 -0.2402
   91GLOH   H05 9449   7.497   1.727   4.034 -0.9356  1.0696 -2.0957
   91GLOH    C3 9450   7.564   1.984   3.937 -0.0045  0.2392  0.6240
   91GLOH   H06 9451   7.462   2.019   3.955 -0.3590 -1.3660  1.7861
   91GLOH   H07 9452   7.553   1.914   3.854 -1.1749 -0.6612  1.5338
   91GLOH    O3 9453   7.655   2.087   3.905 -0.1692 -1.0373 -0.1415
   91GLOH   H01 9454   7.701   2.092   3.991 -1.3059 -1.3608  0.5059
   92GLOH   H03 9455   2.283   3.509   1.612  0.3540 -3.4066  0.6144
   92GLOH    O1 9456   2.349   3.481   1.546  0.9181  0.0589 -0.3909
   92GLOH    C1 9457   2.348   3.336   1.537  0.1107  0.0997 -0.5142
   92GLOH   H02 9458   2.375   3.285   1.630  0.1931 -0.9139 -1.0856
   92GLOH   H08 9459   2.416   3.302   1.459 -0.0249 -0.6069 -0.3302
   92GLOH    C2 9460   2.211   3.281   1.506  0.2536  0.1957  0.4766
   92GLOH   H04 9461   2.175   3.332   1.415  0.7718 -1.4892 -0.7007
   92GLOH    O2 9462   2.213   3.142   1.474  0.2995  0.3107  0.4131
   92GLOH   H05 9463   2.263   3.110   1.398 -0.6500  1.1928 -0.5958
   92GLOH    C3 9464   2.112   3.298   1.622  0.3388  0.6326 -0.2980
   92GLOH   H06 9465   2.174   3.268   1.706  0.5195 -2.3467 -1.4285
   92GLOH   H07 9466   2.028   3.228   1.617 -0.4316  1.5029  0.2932
   92GLOH    O3 9467   2.065   3.434   1.625  0.6220  0.5987  0.1704
   92GLOH   H01 9468   2.065   3.464   1.532  0.1075  0.9779  0.2868
   93GLOH   H03 9469   4.609   8.603   5.393  0.2987 -0.4142 -0.0709
   93GLOH    O1 9470   4.688   8.643   5.435 -0.0130  0.1540 -0.0215
   93GLOH    C1 9471   4.705   8.777   5.385  0.4765 -0.3612 -0.2828
   93GLOH   H02 9472   4.687   8.773   5.277  0.6247 -0.1836 -0.3144
   93GLOH   H08 9473   4.808   8.801   5.410 -0.0094 -0.5459  1.9926
   93GLOH    C2 9474   4.616   8.880   5.455  0.4096  0.3063 -0.5264
   93GLOH   H04 9475   4.627   8.867   5.564  2.8184  1.4353 -0.5965
   93GLOH    O2 9476   4.661   9.013   5.426  0.3876  0.9699  0.3952
   93GLOH   H05 9477   4.721   9.040   5.497 -1.0322  2.7668  0.9703
   93GLOH    C3 9478   4.472   8.874   5.402 -0.1207 -0.9916  0.0995
   93GLOH   H06 9479   4.439   8.771   5.405 -0.1122 -0.9697  1.2042
   93GLOH   H07 9480   4.469   8.896   5.295  2.4540 -2.3686 -0.2998
   93GLOH    O3 9481   4.378   8.958   5.476 -0.0472 -0.6068 -0.5974
   93GLOH   H01 9482   4.297   8.954   5.423 -1.9223 -0.8338  2.1810
   94GLOH   H03 9483   7.294   4.446   0.224 -0.8621 -0.8493 -2.2827
   94GLOH    O1 9484   7.207   4.429   0.264  0.1554  0.0719  0.4227
   94GLOH    C1 9485   7.118   4.423   0.153 -0.4898 -0.1718  0.0422
   94GLOH   H02 9486   7.017   4.407   0.191 -0.2361 -1.8383  0.0167
   94GLOH   H08 9487   7.140   4.341   0.085 -0.7630  1.0219 -1.5192
   94GLOH    C2 9488   7.124   4.544   0.063 -0.3806 -0.1892 -0.0702
   94GLOH   H04 9489   7.100   4.636   0.118  1.7586 -0.5630  1.5562
   94GLOH    O2 9490   7.256   4.573   0.000  0.2229  0.2861 -0.3974
   94GLOH   H05 9491   7.294   4.499  -0.050 -1.1293 -2.8102  2.9167
   94GLOH    C3 9492   7.031   4.528  -0.058  0.5480  0.4251  0.1848
   94GLOH   H06 9493   7.038   4.615  -0.123 -3.1665  1.8980  1.6254
   94GLOH   H07 9494   6.931   4.531  -0.015  0.6105 -0.4841  0.4029
   94GLOH    O3 9495   7.042   4.413  -0.138  0.8091 -0.2910  0.1099
   94GLOH   H01 9496   6.963   4.421  -0.194 -0.4279 -0.2925  1.8211
   95GLOH   H03 9497   4.734   1.444  -0.051  0.8807  0.6795 -0.1578
   95GLOH    O1 9498   4.812   1.387  -0.041 -0.2080 -0.6545  0.8698
   95GLOH    C1 9499   4.803   1.311   0.082  0.4463  0.1722 -0.9075
   95GLOH   H02 9500   4.704   1.267   0.089  0.4941  0.1007 -0.6630
   95GLOH   H08 9501   4.818   1.381   0.164 -1.3149 -0.4070 -0.0832
   95GLOH    C2 9502   4.912   1.201   0.106 -0.0716 -0.5147 -0.2101
   95GLOH   H04 9503   5.007   1.252   0.128 -0.2620 -0.3019  0.1146
   95GLOH    O2 9504   4.868   1.131   0.224  0.1593  0.5381 -0.2557
   95GLOH   H05 9505   4.853   1.190   0.300  0.1150 -0.1338  0.2633
   95GLOH    C3 9506   4.930   1.116  -0.023 -0.1035 -0.2468 -0.3076
   95GLOH   H06 9507   4.840   1.055  -0.026  1.2180 -2.2026 -1.5430
   95GLOH   H07 9508   5.017   1.053  -0.003 -0.0259  0.5983  2.2052
   95GLOH    O3 9509   4.948   1.191  -0.143 -0.0430  0.2861  0.1349
   95GLOH   H01 9510   4.904   1.278  -0.134  2.6253  1.9165 -1.9140
   96GLOH   H03 9511   7.299   9.009   2.467 -2.1533  0.7895  1.2501
   96GLOH    O1 9512   7.256   8.924   2.448 -0.0844  0.0653 -0.3451
   96GLOH    C1 9513   7.145   8.935   2.366  0.0201 -0.1743 -0.8508
   96GLOH   H02 9514   7.098   9.031   2.387  0.9743  0.1738 -0.2537
   96GLOH   H08 9515   7.073   8.859   2.397 -0.5402  0.9699  0.6915
   96GLOH    C2 9516   7.188   8.925   2.220 -0.2619 -0.5598 -0.0983
   96GLOH   H04 9517   7.250   8.834   2.212 -1.4247 -1.1593 -2.8508
   96GLOH    O2 9518   7.075   8.913   2.131 -0.3269 -0.2853 -0.6789
   96GLOH   H05 9519   7.110   8.872   2.050  0.8537  0.2938 -0.4790
   96GLOH    C3 9520   7.265   9.049   2.189 -0.2718  0.3524 -0.5108
   96GLOH   H06 9521   7.200   9.133   2.215 -0.6257  0.2912 -1.1882
   96GLOH   H07 9522   7.281   9.037   2.082 -2.2072 -1.2122 -0.6649
   96GLOH    O3 9523   7.393   9.056   2.247 -0.1201  0.2969 -0.2535
   96GLOH   H01 9524   7.442   8.976   2.223 -0.5517  0.9885 -3.7686
   97GLOH   H03 9525   1.548   5.745   2.330 -0.7291 -0.0188  1.2053
   97GLOH    O1 9526   1.519   5.657   2.299  0.4527  0.0817 -0.2435
   97GLOH    C1 9527   1.491   5.651   2.157  0.1743 -0.1571  0.1300
   97GLOH   H02 9528   1.579   5.689   2.105 -0.2742  0.3092 -0.2897
   97GLOH   H08 9529   1.407   5.715   2.131 -1.4104 -2.2164  0.0519
   97GLOH    C2 9530   1.473   5.512   2.096  0.6202 -0.8001  0.1389
   97GLOH   H04 9531   1.453   5.537   1.991 -1.1077  1.6615  1.0065
   97GLOH    O2 9532   1.585   5.423   2.105  0.2248  0.6764  0.5906
   97GLOH   H05 9533   1.657   5.448   2.045 -1.1226 -1.0304 -1.8153
   97GLOH    C3 9534   1.359   5.445   2.175 -0.2539  0.1057  0.0766
   97GLOH   H06 9535   1.398   5.421   2.274  1.5831 -1.9332 -1.0671
   97GLOH   H07 9536   1.355   5.347   2.127  1.0744 -0.3936  0.9329
   97GLOH    O3 9537   1.231   5.511   2.189 -0.0109 -0.1669 -0.1684
   97GLOH   H01 9538   1.220   5.556   2.104  1.8543 -1.2778 -1.0338
   98GLOH   H03 9539   5.169   8.907   2.599  1.9026  2.0609  2.0239
   98GLOH    O1 9540   5.123   8.991   2.578  0.1499  0.5400 -0.4602
   98GLOH    C1 9541   5.072   9.039   2.702 -0.1681 -0.5663  0.5366
   98GLOH   H02 9542   5.013   9.131   2.696  0.2034 -0.2193  1.9024
   98GLOH   H08 9543   5.152   9.067   2.770  1.3709 -1.7692 -0.7530
   98GLOH    C2 9544   4.987   8.944   2.784  0.2110  0.6325  0.5677
   98GLOH   H04 9545   5.032   8.844   2.788 -1.8837 -0.3822 -0.2773
   98GLOH    O2 9546   4.978   8.994   2.920 -0.2431 -0.2704 -0.1073
   98GLOH   H05 9547   4.920   8.938   2.975 -3.6412  3.2341  0.0702
   98GLOH    C3 9548   4.844   8.943   2.722 -0.2085  0.0025  0.6283
   98GLOH   H06 9549   4.866   8.951   2.615  0.3149 -1.2200  0.6269
   98GLOH   H07 9550   4.800   9.038   2.753 -0.5854 -0.3524  1.1923
   98GLOH    O3 9551   4.762   8.826   2.762 -0.3329  0.1277 -0.1411
   98GLOH   H01 9552   4.669   8.843   2.741  0.0155  0.7067 -1.2778
   99GLOH   H03 9553   3.952   5.391   2.470  2.3088 -3.0527  0.6627
   99GLOH    O1 9554   4.013   5.442   2.413 -0.3159 -0.0505  0.4244
   99GLOH    C1 9555   4.052   5.562   2.476  0.1531 -0.5361 -0.0828
   99GLOH   H02 9556   4.096   5.632   2.404 -0.6876 -2.1030 -2.1711
   99GLOH   H08 9557   4.123   5.551   2.558  0.3343  2.8026  0.2586
   99GLOH    C2 9558   3.928   5.649   2.523 -0.1395  0.4128 -0.1937
   99GLOH   H04 9559   3.873   5.592   2.599 -0.0775 -0.8940 -1.1110
   99GLOH    O2 9560   3.972   5.767   2.590 -0.6622 -0.1980 -1.1896
   99GLOH   H05 9561   3.897   5.820   2.623 -1.5135 -1.4783 -1.0646
   99GLOH    C3 9562   3.836   5.685   2.402  0.5278 -0.0439 -0.0392
   99GLOH   H06 9563   3.898   5.711   2.317  0.3384  1.1505  0.1813
   99GLOH   H07 9564   3.787   5.780   2.423 -0.4418 -0.7498  0.9577
   99GLOH    O3 9565   3.735   5.581   2.376 -0.3864 -0.4131 -1.3280
   99GLOH   H01 9566   3.663   5.611   2.435  0.7431 -1.1758  0.4832
  100GLOH   H03 9567   4.934   8.644   5.216  0.1857 -0.2746  0.5169
  100GLOH    O1 9568   4.930   8.681   5.126 -0.0109  0.1259  0.6893
  100GLOH    C1 9569   4.964   8.823   5.115 -0.0129  0.5729  0.0120
  100GLOH   H02 9570   5.069   8.825   5.142  0.6390 -0.7157 -2.3223
  100GLOH   H08 9571   4.912   8.877   5.195 -1.8643 -2.5782  1.0042
  100GLOH    C2 9572   4.944   8.871   4.970  0.0634 -0.5599  0.1689
  100GLOH   H04 9573   4.838   8.856   4.943 -0.1221 -1.8405  1.5346
  100GLOH    O2 9574   4.975   9.014   4.963  0.2348  0.3221 -0.5241
  100GLOH   H05 9575   4.893   9.066   4.953  0.4770  1.4091  2.7435
  100GLOH    C3 9576   5.046   8.793   4.881  0.3629 -0.5652 -0.5961
  100GLOH   H06 9577   5.041   8.684   4.891  0.2074 -0.4851  0.2573
  100GLOH   H07 9578   5.141   8.819   4.926 -0.3748  1.0863  0.0252
  100GLOH    O3 9579   5.027   8.829   4.743  0.2713  0.2846  0.2995
  100GLOH   H01 9580   5.104   8.802   4.691 -0.4926  0.2011 -0.7968
  101GLOH   H03 9581   4.749   4.113   2.450 -1.0104 -1.3231  0.3855
  101GLOH    O1 9582   4.772   4.115   2.545 -0.8059 -0.3397  0.3273
  101GLOH    C1 9583   4.883   4.025   2.562 -0.2394  0.7208  1.0280
  101GLOH   H02 9584   4.864   3.927   2.517 -0.1723  1.1652  0.0069
  101GLOH   H08 9585   4.895   4.003   2.668  0.5241  0.8435  0.9650
  101GLOH    C2 9586   5.008   4.085   2.498 -0.4856  0.3780  0.4338
  101GLOH   H04 9587   5.046   4.167   2.561  2.4565 -0.3369 -0.3448
  101GLOH    O2 9588   5.118   3.994   2.494 -0.9793  0.2138  0.7695
  101GLOH   H05 9589   5.089   3.909   2.458 -1.5981  0.6166  0.3011
  101GLOH    C3 9590   4.979   4.153   2.358  0.7888 -0.2197  0.0194
  101GLOH   H06 9591   5.074   4.187   2.317  0.4073  2.6988  1.4130
  101GLOH   H07 9592   4.919   4.241   2.381  0.6709 -0.5577  1.0390
  101GLOH    O3 9593   4.921   4.060   2.267  0.0351  0.0519  0.1793
  101GLOH   H01 9594   4.922   4.101   2.179 -2.1453  0.1116  0.1682
  102GLOH   H03 9595   5.160   2.610   3.762 -2.7283  0.5997 -1.0250
  102GLOH    O1 9596   5.172   2.544   3.692 -0.4693 -0.0625 -0.0744
  102GLOH    C1 9597   5.055   2.543   3.610  0.3587 -0.0724 -0.4886
  102GLOH   H02 9598   5.050   2.625   3.538 -0.6308 -0.0401 -0.3841
  102GLOH   H08 9599   4.962   2.542   3.667  0.5081  0.6398 -0.2222
  102GLOH    C2 9600   5.044   2.408   3.531 -0.4435 -0.7562  0.4762
  102GLOH   H04 9601   4.999   2.331   3.595 -0.6533  1.5994  3.2654
  102GLOH    O2 9602   4.937   2.429   3.433  0.1169 -0.2194 -0.0098
  102GLOH   H05 9603   4.890   2.344   3.423 -0.5206  0.1223  0.0118
  102GLOH    C3 9604   5.173   2.354   3.463 -0.0809  0.0711  0.1735
  102GLOH   H06 9605   5.190   2.416   3.375  1.9365 -0.2450  0.3173
  102GLOH   H07 9606   5.147   2.260   3.414  0.6856 -0.7030  1.2253
  102GLOH    O3 9607   5.290   2.352   3.543  0.1905 -0.3403 -0.5826
  102GLOH   H01 9608   5.282   2.432   3.598  0.8749 -0.6866  0.0389
  103GLOH   H03 9609   0.933   5.621   0.503 -1.7302 -0.1618  1.2738
  103GLOH    O1 9610   1.012   5.640   0.557 -0.3578 -0.2354 -0.6607
  103GLOH    C1 9611   1.055   5.519   0.625 -0.1899 -0.1637 -0.5727
  103GLOH   H02 9612   1.090   5.447   0.551  0.8871  2.0033 -2.2417
  103GLOH   H08 9613   0.976   5.471   0.683  1.0683 -2.6419 -0.8862
  103GLOH    C2 9614   1.164   5.556   0.717 -0.0876  0.5439 -0.6739
  103GLOH   H04 9615   1.110   5.603   0.801  2.0023  0.1101  0.9683
  103GLOH    O2 9616   1.228   5.443   0.776 -0.1739 -0.0777 -0.3743
  103GLOH   H05 9617   1.272   5.395   0.704  0.3429 -1.5097  0.8609
  103GLOH    C3 9618   1.267   5.654   0.652  0.5756  0.5346 -0.0117
  103GLOH   H06 9619   1.293   5.609   0.556  1.3099 -0.0060  0.4439
  103GLOH   H07 9620   1.359   5.657   0.709 -0.4581 -1.5420  1.7891
  103GLOH    O3 9621   1.203   5.780   0.621 -0.6885  0.6235 -0.0933
  103GLOH   H01 9622   1.110   5.753   0.604 -0.2736 -0.6512 -0.4056
  104GLOH   H03 9623   7.102   7.112   1.997 -1.5426 -1.6184 -2.2920
  104GLOH    O1 9624   7.112   7.021   2.028  0.2836 -0.6021  0.2105
  104GLOH    C1 9625   7.194   6.967   1.926 -0.4005 -0.3279  0.1150
  104GLOH   H02 9626   7.169   7.009   1.828  1.2332  0.0649 -0.1484
  104GLOH   H08 9627   7.178   6.860   1.914  1.3424 -0.8864  2.4760
  104GLOH    C2 9628   7.342   6.978   1.935  0.1010 -0.0868 -0.0659
  104GLOH   H04 9629   7.356   7.077   1.978 -1.2313 -0.2322  0.7122
  104GLOH    O2 9630   7.386   6.882   2.038  0.1526  0.0347  0.1132
  104GLOH   H05 9631   7.472   6.916   2.069 -0.3785  2.7518 -1.2430
  104GLOH    C3 9632   7.421   6.960   1.800  0.3519  0.0713 -0.5766
  104GLOH   H06 9633   7.374   6.871   1.759  1.0182 -0.9932  0.8885
  104GLOH   H07 9634   7.525   6.934   1.819  0.8496  0.8370 -2.1479
  104GLOH    O3 9635   7.404   7.076   1.719  0.1494 -0.1877  0.1070
  104GLOH   H01 9636   7.497   7.099   1.698 -0.1352  0.6276 -0.2753
  105GLOH   H03 9637   3.512   5.119   4.334 -0.6524 -0.4605 -0.6942
  105GLOH    O1 9638   3.560   5.059   4.393 -0.4286  0.3189 -0.0649
  105GLOH    C1 9639   3.647   5.144   4.467  0.1873 -0.2130  0.7641
  105GLOH   H02 9640   3.738   5.169   4.413  1.4271 -1.1065  2.3849
  105GLOH   H08 9641   3.688   5.087   4.550  0.3377  0.2249  0.9922
  105GLOH    C2 9642   3.580   5.263   4.530 -0.1637  0.3342 -0.0200
  105GLOH   H04 9643   3.646   5.317   4.600 -0.6505  0.1450  0.5824
  105GLOH    O2 9644   3.531   5.359   4.430 -0.5512 -0.1344 -0.2979
  105GLOH   H05 9645   3.596   5.368   4.359  0.3571  2.5941  0.8284
  105GLOH    C3 9646   3.462   5.214   4.618 -0.3336  0.4567 -0.2459
  105GLOH   H06 9647   3.386   5.167   4.556  0.6137 -0.5476 -0.6673
  105GLOH   H07 9648   3.420   5.303   4.665 -0.3829  0.6751 -0.7086
  105GLOH    O3 9649   3.504   5.130   4.725 -0.3621  0.1165  0.1810
  105GLOH   H01 9650   3.548   5.189   4.788  0.2916  0.8143 -0.9145
  106GLOH   H03 9651   4.222   3.953   5.129  0.8049  0.8746  0.2716
  106GLOH    O1 9652   4.146   3.983   5.181  0.2611 -0.1286  0.0594
  106GLOH    C1 9653   4.082   3.871   5.251 -0.7752  0.1800  0.3511
  106GLOH   H02 9654   4.150   3.828   5.325  1.4265  0.6943 -1.3221
  106GLOH   H08 9655   4.072   3.789   5.180  1.4522  1.3755 -1.4026
  106GLOH    C2 9656   3.957   3.906   5.333  0.2697  0.4167  0.2502
  106GLOH   H04 9657   3.881   3.947   5.265  0.2944  0.3044  0.1548
  106GLOH    O2 9658   3.897   3.782   5.395  0.6933 -0.1267 -0.0898
  106GLOH   H05 9659   3.875   3.716   5.328 -2.9631  0.4583  0.4277
  106GLOH    C3 9660   3.980   4.005   5.446  0.5647 -0.5618  1.2095
  106GLOH   H06 9661   4.027   4.091   5.399 -1.2409  0.1016  0.5411
  106GLOH   H07 9662   4.053   3.956   5.510 -1.9275 -3.0878  2.2153
  106GLOH    O3 9663   3.865   4.034   5.528  0.3963  0.1314 -0.2278
  106GLOH   H01 9664   3.908   4.087   5.597 -2.0220 -0.5333  1.8668
  107GLOH   H03 9665   9.619   0.988   0.418 -2.0040 -0.8085 -1.9447
  107GLOH    O1 9666   9.565   1.055   0.464 -0.2329 -0.5979 -0.0921
  107GLOH    C1 9667   9.638   1.145   0.549  0.3474  0.1662  0.5749
  107GLOH   H02 9668   9.587   1.149   0.645  3.2874  0.2435  2.2011
  107GLOH   H08 9669   9.643   1.243   0.500 -0.2108 -0.8155 -1.5069
  107GLOH    C2 9670   9.779   1.103   0.589  0.3318 -0.0289  0.2164
  107GLOH   H04 9671   9.771   0.997   0.619 -0.3433 -0.6007 -1.8916
  107GLOH    O2 9672   9.886   1.113   0.494 -0.3640 -0.1118  0.2139
  107GLOH   H05 9673   9.972   1.121   0.538 -1.4714  3.5465  1.9120
  107GLOH    C3 9674   9.825   1.176   0.715 -0.3858  0.6407  0.4471
  107GLOH   H06 9675   9.907   1.129   0.769 -0.8701 -0.4412  0.2701
  107GLOH   H07 9676   9.739   1.175   0.782 -0.1702  3.1353  0.7763
  107GLOH    O3 9677   9.857   1.314   0.690 -0.0152  0.4606  0.1052
  107GLOH   H01 9678   9.808   1.374   0.749 -1.9897  0.2455 -1.2936
  108GLOH   H03 9679   4.407   2.606   4.931 -2.6699 -0.5025  2.9905
  108GLOH    O1 9680   4.467   2.533   4.957  0.2360  0.5792 -0.2447
  108GLOH    C1 9681   4.457   2.425   4.866 -0.5856  0.4334  0.3248
  108GLOH   H02 9682   4.462   2.336   4.929 -0.3830  0.4881  0.3847
  108GLOH   H08 9683   4.547   2.425   4.804 -1.0394  3.0673 -0.3747
  108GLOH    C2 9684   4.337   2.424   4.767 -0.1229 -0.1023  0.3569
  108GLOH   H04 9685   4.359   2.339   4.701  0.3415  0.1003  0.2574
  108GLOH    O2 9686   4.211   2.397   4.828  0.1099 -0.1778  0.4528
  108GLOH   H05 9687   4.204   2.442   4.914 -0.2200  1.8138 -0.5658
  108GLOH    C3 9688   4.345   2.544   4.670 -0.3029 -0.3491  0.0975
  108GLOH   H06 9689   4.316   2.637   4.718  1.0474  0.0838  0.0933
  108GLOH   H07 9690   4.274   2.537   4.587  2.1252  1.4766 -2.2387
  108GLOH    O3 9691   4.476   2.555   4.615 -0.4586 -0.5406 -0.4652
  108GLOH   H01 9692   4.477   2.610   4.535  2.4340  0.6848  0.3219
  109GLOH   H03 9693   3.290   2.402   3.121  0.0277 -0.3536  1.3085
  109GLOH    O1 9694   3.312   2.315   3.083  0.0901  0.3379 -0.2698
  109GLOH    C1 9695   3.448   2.339   3.038 -0.2042 -0.0135 -0.0769
  109GLOH   H02 9696   3.501   2.410   3.103  0.4401  0.7253 -1.3863
  109GLOH   H08 9697   3.430   2.394   2.946 -1.6525 -0.8682 -0.3089
  109GLOH    C2 9698   3.539   2.218   3.003 -0.0821 -0.3741  0.3760
  109GLOH   H04 9699   3.628   2.272   2.967 -0.5388  0.2594  0.1809
  109GLOH    O2 9700   3.581   2.140   3.115  0.3397  0.2090 -0.3900
  109GLOH   H05 9701   3.633   2.191   3.179  1.0664 -0.7368 -0.2014
  109GLOH    C3 9702   3.482   2.142   2.881 -0.3073 -0.0885 -0.5114
  109GLOH   H06 9703   3.379   2.170   2.861  0.1745  0.9807 -1.6016
  109GLOH   H07 9704   3.470   2.036   2.903  1.9098 -0.3193 -0.3041
  109GLOH    O3 9705   3.566   2.174   2.764 -0.5413 -0.3503 -0.2224
  109GLOH   H01 9706   3.657   2.145   2.783 -0.7456  0.7326  2.6417
  110GLOH   H03 9707   4.973   0.475   2.373  0.3965  0.3957 -0.4301
  110GLOH    O1 9708   5.065   0.470   2.341  0.3658 -0.6742 -0.3441
  110GLOH    C1 9709   5.133   0.384   2.435  0.8334  0.3541 -0.1420
  110GLOH   H02 9710   5.228   0.355   2.392  1.7640  0.3681  1.8249
  110GLOH   H08 9711   5.077   0.293   2.457  1.5891 -0.5347 -1.8283
  110GLOH    C2 9712   5.160   0.452   2.571 -0.3449  0.5362 -0.8366
  110GLOH   H04 9713   5.066   0.494   2.610  0.3731 -0.8101  2.4615
  110GLOH    O2 9714   5.223   0.361   2.666  0.4463 -0.4891 -0.1582
  110GLOH   H05 9715   5.195   0.376   2.758  1.6250 -0.0238  0.1376
  110GLOH    C3 9716   5.255   0.565   2.540 -0.6878  0.1170  0.3809
  110GLOH   H06 9717   5.337   0.522   2.483 -0.2822 -1.1298  1.8815
  110GLOH   H07 9718   5.286   0.607   2.636  0.2900 -0.9281  0.5246
  110GLOH    O3 9719   5.192   0.663   2.456  0.1766  0.0137  0.3263
  110GLOH   H01 9720   5.141   0.604   2.399 -2.2594  0.1958  2.2137
  111GLOH   H03 9721   4.555   3.358   4.980  2.7414 -0.4904  0.4724
  111GLOH    O1 9722   4.558   3.374   5.076  0.1241 -0.0268  0.5235
  111GLOH    C1 9723   4.500   3.497   5.119 -0.4287 -0.2667  0.1251
  111GLOH   H02 9724   4.507   3.495   5.227 -1.4002  3.2227  0.3022
  111GLOH   H08 9725   4.394   3.503   5.094 -0.1652  1.0390 -0.7126
  111GLOH    C2 9726   4.575   3.618   5.064 -0.2727  0.1525 -0.0627
  111GLOH   H04 9727   4.572   3.603   4.955 -0.1823  0.6548 -0.1381
  111GLOH    O2 9728   4.512   3.743   5.104  0.7825 -0.6521 -0.0121
  111GLOH   H05 9729   4.579   3.796   5.150  0.0031  0.2079  0.1592
  111GLOH    C3 9730   4.722   3.614   5.105  0.3687 -0.2557  0.1400
  111GLOH   H06 9731   4.763   3.709   5.073 -2.0751  0.6263 -0.4763
  111GLOH   H07 9732   4.761   3.528   5.050 -1.6406 -0.5582 -0.8561
  111GLOH    O3 9733   4.748   3.602   5.241  0.1448  0.1296 -0.1691
  111GLOH   H01 9734   4.845   3.592   5.247  0.4768  2.1320 -1.6354
  112GLOH   H03 9735   6.591   0.770   1.390 -0.1506  1.5872 -0.4174
  112GLOH    O1 9736   6.669   0.759   1.334 -0.2808  0.0512 -0.2970
  112GLOH    C1 9737   6.680   0.871   1.250  0.7225  0.1986  0.9297
  112GLOH   H02 9738   6.677   0.959   1.314 -1.8108 -0.7774  2.1751
  112GLOH   H08 9739   6.591   0.889   1.189 -0.0363 -0.1366  1.9284
  112GLOH    C2 9740   6.812   0.860   1.161  0.2471  0.2981  1.0381
  112GLOH   H04 9741   6.815   0.771   1.097  0.2536  0.9857  0.0717
  112GLOH    O2 9742   6.806   0.971   1.071 -0.2741  0.0082 -0.1106
  112GLOH   H05 9743   6.885   1.028   1.077  0.6537 -1.2396 -0.1974
  112GLOH    C3 9744   6.941   0.856   1.243 -0.3788 -0.3680 -0.4875
  112GLOH   H06 9745   6.963   0.958   1.272 -1.8570 -1.0054  3.1734
  112GLOH   H07 9746   7.026   0.815   1.189  0.3446 -0.6778  0.8756
  112GLOH    O3 9747   6.928   0.771   1.360 -0.0446 -0.1387  0.1226
  112GLOH   H01 9748   6.834   0.753   1.379  0.6221 -2.5258  1.3488
  113GLOH   H03 9749   8.931  10.008   3.219  1.2308 -1.4284 -0.6412
  113GLOH    O1 9750   8.857   9.961   3.176 -0.0460  0.1218 -0.1930
  113GLOH    C1 9751   8.734  10.032   3.193 -0.0508  0.5258 -0.7187
  113GLOH   H02 9752   8.750  10.137   3.165  1.1321  0.2601 -1.0614
  113GLOH   H08 9753   8.708  10.035   3.299  1.9472 -0.5931 -0.1793
  113GLOH    C2 9754   8.614   9.981   3.109  0.2490  1.0239 -0.0634
  113GLOH   H04 9755   8.597   9.879   3.146  1.2580  2.4181  4.4967
  113GLOH    O2 9756   8.492  10.054   3.140 -0.0315 -0.1774  0.2615
  113GLOH   H05 9757   8.411  10.003   3.127 -0.2622  0.3677 -0.4718
  113GLOH    C3 9758   8.645   9.985   2.956  0.7558  0.7201 -0.7093
  113GLOH   H06 9759   8.646  10.089   2.925  1.0500  0.1692 -2.6111
  113GLOH   H07 9760   8.568   9.940   2.894  1.4328 -1.9973  0.3112
  113GLOH    O3 9761   8.766   9.915   2.917  0.3352  0.3118 -0.1505
  113GLOH   H01 9762   8.827   9.924   2.993  1.4130 -1.9244 -0.6939
  114GLOH   H03 9763   2.840   1.185   3.431  0.8748 -2.2495 -0.5042
  114GLOH    O1 9764   2.830   1.219   3.340 -0.7278 -0.4294  0.3347
  114GLOH    C1 9765   2.955   1.262   3.282 -0.2115  0.5974  0.3222
  114GLOH   H02 9766   2.976   1.203   3.193 -1.5769 -1.2061  1.1718
  114GLOH   H08 9767   3.042   1.238   3.343  0.8873  1.5455 -0.8443
  114GLOH    C2 9768   2.960   1.413   3.243 -0.2710 -0.3725  0.1597
  114GLOH   H04 9769   2.917   1.458   3.333 -0.0884 -0.5274  0.3243
  114GLOH    O2 9770   3.096   1.460   3.222 -0.0099  0.1518 -0.2628
  114GLOH   H05 9771   3.132   1.447   3.133  1.1523  0.3208  0.1687
  114GLOH    C3 9772   2.875   1.445   3.119  0.2978 -0.1902 -0.8199
  114GLOH   H06 9773   2.890   1.547   3.083  0.7612 -0.0831 -0.3341
  114GLOH   H07 9774   2.769   1.446   3.145  0.6207 -0.3935  0.5626
  114GLOH    O3 9775   2.915   1.348   3.018  0.1682 -0.3658  0.0560
  114GLOH   H01 9776   2.994   1.381   2.971 -0.6188  0.3285 -0.7978
  115GLOH   H03 9777   5.921   8.302   1.631 -2.2786 -1.0062  0.0249
  115GLOH    O1 9778   5.923   8.303   1.534  0.2664 -0.4095  0.0539
  115GLOH    C1 9779   5.822   8.395   1.504 -1.0027 -0.1421  0.9379
  115GLOH   H02 9780   5.772   8.370   1.411 -1.7173 -0.6934  1.4659
  115GLOH   H08 9781   5.857   8.498   1.497  0.2314 -0.6723 -1.1523
  115GLOH    C2 9782   5.705   8.395   1.603 -0.2396  0.2278 -0.3942
  115GLOH   H04 9783   5.637   8.309   1.596  0.3278 -0.5963  3.2257
  115GLOH    O2 9784   5.761   8.406   1.735 -0.4390  0.0761  0.5039
  115GLOH   H05 9785   5.802   8.494   1.746  0.2570 -0.1364 -0.3077
  115GLOH    C3 9786   5.624   8.521   1.569  0.2808 -0.0247 -0.3568
  115GLOH   H06 9787   5.683   8.610   1.594  1.7650 -1.4409  1.3110
  115GLOH   H07 9788   5.544   8.532   1.642  0.0978  0.2587 -0.5970
  115GLOH    O3 9789   5.579   8.533   1.435  0.3145 -0.4261 -0.0308
  115GLOH   H01 9790   5.508   8.600   1.439  1.6970  1.0077  1.8340
  116GLOH   H03 9791  10.010   0.684   5.326 -0.7539  0.6942  0.2757
  116GLOH    O1 9792  10.030   0.687   5.231  0.0014  1.0612  0.4402
  116GLOH    C1 9793   9.902   0.682   5.164  0.4616 -0.5190 -0.5274
  116GLOH   H02 9794   9.924   0.660   5.060  1.5214  0.2550 -0.4721
  116GLOH   H08 9795   9.863   0.783   5.163  1.0516 -0.2921 -0.5975
  116GLOH    C2 9796   9.817   0.573   5.226  0.5960 -0.1868  0.1508
  116GLOH   H04 9797   9.800   0.599   5.331  1.3691  1.2074 -0.0590
  116GLOH    O2 9798   9.688   0.586   5.162  0.1635  0.1022  0.1767
  116GLOH   H05 9799   9.672   0.682   5.156  0.9023  0.1823 -0.6499
  116GLOH    C3 9800   9.881   0.435   5.214 -0.1236 -0.1998  0.9703
  116GLOH   H06 9801   9.989   0.448   5.218 -0.2096  1.2308 -0.8383
  116GLOH   H07 9802   9.861   0.402   5.112  0.5640 -3.0304  1.7254
  116GLOH    O3 9803   9.828   0.325   5.291  0.1896  1.0582 -0.5578
  116GLOH   H01 9804   9.743   0.347   5.334  1.6030 -0.5289  3.3136
  117GLOH   H03 9805   7.517   5.247  -0.072 -0.1062 -0.6389 -0.9878
  117GLOH    O1 9806   7.427   5.257  -0.037  0.2019  0.1218 -0.3810
  117GLOH    C1 9807   7.409   5.159   0.072 -0.6433  0.6252  0.1265
  117GLOH   H02 9808   7.458   5.064   0.049 -2.3863 -0.2534 -0.0519
  117GLOH   H08 9809   7.304   5.136   0.088 -0.5281  0.7909  1.1293
  117GLOH    C2 9810   7.474   5.201   0.208 -0.0337 -0.4547 -0.4861
  117GLOH   H04 9811   7.398   5.266   0.252  2.4310  0.6927  2.2425
  117GLOH    O2 9812   7.490   5.087   0.295  0.4630 -0.4261  0.3304
  117GLOH   H05 9813   7.454   5.005   0.257  0.4350 -0.8148  1.1890
  117GLOH    C3 9814   7.609   5.277   0.196  0.2679  0.0293  0.1876
  117GLOH   H06 9815   7.691   5.219   0.155 -0.0244  0.1388 -0.5630
  117GLOH   H07 9816   7.644   5.312   0.293 -0.4874  1.9075 -0.1808
  117GLOH    O3 9817   7.583   5.402   0.130  0.2512  0.4365  0.2465
  117GLOH   H01 9818   7.518   5.378   0.061  3.2479  1.0270 -2.8737
  118GLOH   H03 9819   3.103   5.889   3.442  3.3536  1.4484  3.1026
  118GLOH    O1 9820   3.037   5.934   3.498  0.1508  0.0374  0.6259
  118GLOH    C1 9821   3.104   6.045   3.562  0.0412  0.3394 -0.1041
  118GLOH   H02 9822   3.043   6.134   3.572 -0.1947  0.1112  0.5718
  118GLOH   H08 9823   3.195   6.077   3.511 -0.1951  0.4457 -0.4623
  118GLOH    C2 9824   3.150   6.006   3.706  0.5351  0.0838  0.2538
  118GLOH   H04 9825   3.190   5.905   3.690 -2.9183 -1.2896 -0.0900
  118GLOH    O2 9826   3.250   6.093   3.769  0.1491 -0.2665 -0.4877
  118GLOH   H05 9827   3.246   6.081   3.865  0.2741 -1.4373 -0.6235
  118GLOH    C3 9828   3.028   5.990   3.793 -0.1167  0.0333  0.3343
  118GLOH   H06 9829   2.983   6.089   3.802 -1.9484 -0.7523  0.1008
  118GLOH   H07 9830   3.054   5.958   3.893 -0.7220 -2.1069 -0.1601
  118GLOH    O3 9831   2.937   5.897   3.738  0.5078  0.6161 -0.7322
  118GLOH   H01 9832   2.965   5.891   3.645 -0.3076  0.7484 -1.0002
  119GLOH   H03 9833   6.528   8.835   4.171 -1.5746  0.2468 -1.8844
  119GLOH    O1 9834   6.478   8.776   4.230  1.0307  0.0120  0.2134
  119GLOH    C1 9835   6.337   8.797   4.224  0.0559 -0.1802 -1.1262
  119GLOH   H02 9836   6.309   8.864   4.305 -1.9664 -0.9178 -1.1880
  119GLOH   H08 9837   6.284   8.706   4.250  1.5180 -0.8276 -0.3329
  119GLOH    C2 9838   6.290   8.848   4.085 -0.5646  0.7283 -0.5275
  119GLOH   H04 9839   6.344   8.941   4.065 -0.2181  0.6111 -0.1344
  119GLOH    O2 9840   6.312   8.740   3.987 -0.1259  0.0839 -0.0253
  119GLOH   H05 9841   6.301   8.778   3.899 -0.2745  0.1640  0.0278
  119GLOH    C3 9842   6.145   8.878   4.078  0.0839 -0.1375  0.0775
  119GLOH   H06 9843   6.099   8.791   4.124  1.8359 -0.1843  1.8063
  119GLOH   H07 9844   6.111   8.886   3.974  0.0450 -1.6176 -0.0423
  119GLOH    O3 9845   6.093   8.994   4.145  0.0370  0.2078 -0.0274
  119GLOH   H01 9846   6.171   9.037   4.184 -0.2788  1.0506 -0.3159
  120GLOH   H03 9847   2.432   9.001   4.708 -1.0264  1.4426 -1.2801
  120GLOH    O1 9848   2.400   9.057   4.781 -0.2581  0.1967  0.0367
  120GLOH    C1 9849   2.498   9.044   4.886 -0.2637  0.8293  1.1265
  120GLOH   H02 9850   2.600   9.048   4.850  0.4883  1.5560  3.2619
  120GLOH   H08 9851   2.483   8.942   4.920 -1.4797  0.1320 -1.3700
  120GLOH    C2 9852   2.484   9.145   5.006  0.0042  0.5589  0.1880
  120GLOH   H04 9853   2.569   9.138   5.076 -0.8017 -0.3342  1.0926
  120GLOH    O2 9854   2.473   9.281   4.965  0.5118 -0.3536  0.1046
  120GLOH   H05 9855   2.389   9.303   4.921  0.6925  1.6802  0.7082
  120GLOH    C3 9856   2.362   9.108   5.092 -0.3575 -0.1568  0.1497
  120GLOH   H06 9857   2.275   9.092   5.028  2.1811 -0.4067 -3.3925
  120GLOH   H07 9858   2.337   9.191   5.158  1.0315 -2.2217  3.4351
  120GLOH    O3 9859   2.375   8.984   5.170 -0.0328 -0.4242  0.1277
  120GLOH   H01 9860   2.395   9.004   5.264  1.1481 -1.5182  0.1143
  121ACOH    H4 9861   4.516   3.006   4.787  1.9483  0.2614 -0.9510
  121ACOH    O2 9862   4.557   2.942   4.847 -0.0168 -0.0968  0.0382
  121ACOH    C2 9863   4.599   2.849   4.763  0.7967  0.5740 -0.2281
  121ACOH    O1 9864   4.570   2.833   4.649 -0.1541 -0.1767  0.1536
  121ACOH    C1 9865   4.688   2.757   4.843  0.5393  0.4684 -0.6196
  121ACOH    H1 9866   4.782   2.804   4.870  0.7567 -0.0557 -0.4483
  121ACOH    H2 9867   4.708   2.663   4.790 -1.2470 -0.1497 -0.2573
  121ACOH    H3 9868   4.624   2.734   4.929  1.7076  0.2575  0.2034
  122ACOH    H4 9869   3.434   7.108   5.263 -0.0017 -0.6522  2.2501
  122ACOH    O2 9870   3.514   7.163   5.268 -0.0158 -0.4496  0.5941
  122ACOH    C2 9871   3.591   7.140   5.157 -0.0934 -0.7544 -0.3047
  122ACOH    O1 9872   3.568   7.065   5.066 -0.0571  0.4469  1.0406
  122ACOH    C1 9873   3.721   7.201   5.158 -0.2724 -0.0721  0.2379
  122ACOH    H1 9874   3.774   7.198   5.063 -0.9552 -1.8503 -0.1146
  122ACOH    H2 9875   3.793   7.149   5.222 -0.6118 -0.4533  0.3121
  122ACOH    H3 9876   3.698   7.303   5.188 -1.2754  0.4166 -2.0895
  123ACOH    H4 9877   6.031   7.233   4.206  1.0734 -0.0868 -1.1510
  123ACOH    O2 9878   6.076   7.175   4.269 -0.0773 -0.3564 -0.5570
  123ACOH    C2 9879   6.208   7.204   4.267 -0.8929  0.1705  0.4845
  123ACOH    O1 9880   6.262   7.264   4.172 -0.0869  0.1887 -0.1210
  123ACOH    C1 9881   6.280   7.130   4.374  0.0436  0.0326 -0.1362
  123ACOH    H1 9882   6.342   7.201   4.429 -0.9527  1.1369 -0.4188
  123ACOH    H2 9883   6.332   7.045   4.330  0.0633  0.8020 -1.6527
  123ACOH    H3 9884   6.209   7.091   4.447 -0.1228  2.7384  1.2046
  124ACOH    H4 9885   4.697   5.445   2.056  0.0058  2.6295  2.6592
  124ACOH    O2 9886   4.791   5.426   2.072 -0.0148 -0.1279 -0.0484
  124ACOH    C2 9887   4.827   5.320   2.013 -0.7777  0.1897 -0.0299
  124ACOH    O1 9888   4.768   5.261   1.923 -0.1056 -0.3041  0.1200
  124ACOH    C1 9889   4.966   5.295   2.061  0.0047 -0.3551 -0.4739
  124ACOH    H1 9890   5.002   5.203   2.014 -0.0343 -0.4224 -0.3712
  124ACOH    H2 9891   4.961   5.298   2.170 -3.3204 -2.2823 -0.5041
  124ACOH    H3 9892   5.026   5.380   2.029  1.8362 -1.5713 -0.3741
  125ACOH    H4 9893   5.350   9.191   1.041  0.1039  3.6532  0.3178
  125ACOH    O2 9894   5.408   9.192   0.963  0.4096 -0.3447  0.3977
  125ACOH    C2 9895   5.457   9.317   0.978 -0.4167 -0.0906 -0.3548
  125ACOH    O1 9896   5.386   9.413   1.019 -0.4051  0.1378  0.6416
  125ACOH    C1 9897   5.591   9.336   0.915 -0.5161 -0.1108 -0.2456
  125ACOH    H1 9898   5.651   9.411   0.965 -0.7278  1.2022 -1.8973
  125ACOH    H2 9899   5.590   9.371   0.811  1.7119 -0.9840 -0.5840
  125ACOH    H3 9900   5.643   9.241   0.924  2.7408  1.3479 -2.8774
  126ACOH    H4 9901   5.962   3.639   5.557  0.5268  1.7121  0.8023
  126ACOH    O2 9902   6.015   3.640   5.476 -0.1585  1.1321  0.3389
  126ACOH    C2 9903   6.060   3.764   5.449 -0.5816 -0.9328 -0.6765
  126ACOH    O1 9904   6.050   3.858   5.523  0.5193  0.7698  0.9316
  126ACOH    C1 9905   6.133   3.773   5.327  0.3445 -0.4299 -0.1093
  126ACOH    H1 9906   6.136   3.675   5.280  2.7706  0.4303 -1.8436
  126ACOH    H2 9907   6.231   3.815   5.346 -0.3127  0.0184  2.4980
  126ACOH    H3 9908   6.077   3.840   5.262  2.5458  1.5762 -0.0045
  127ACOH    H4 9909   8.297   7.850   5.536 -1.2116  1.1452 -2.1052
  127ACOH    O2 9910   8.227   7.783   5.541  0.0144 -0.0193  0.3708
  127ACOH    C2 9911   8.210   7.737   5.415  0.4520  0.3322 -0.2571
  127ACOH    O1 9912   8.231   7.799   5.312 -0.4938  0.8932  0.1169
  127ACOH    C1 9913   8.137   7.610   5.410 -0.3371 -0.0197 -0.3226
  127ACOH    H1 9914   8.149   7.551   5.501  0.4551  0.3739 -0.1715
  127ACOH    H2 9915   8.170   7.566   5.316 -0.7864 -0.4417 -0.2863
  127ACOH    H3 9916   8.030   7.631   5.401 -0.0491  1.0972 -1.2254
  128ACOH    H4 9917   7.836   5.626   4.008  0.1786  0.1174  0.2162
  128ACOH    O2 9918   7.756   5.678   4.022 -0.1092 -0.0585 -0.7257
  128ACOH    C2 9919   7.657   5.636   3.936 -0.2969  0.7423 -0.5673
  128ACOH    O1 9920   7.674   5.548   3.852  0.3269  0.0468 -0.1583
  128ACOH    C1 9921   7.522   5.696   3.956  0.1784 -0.2287 -0.2034
  128ACOH    H1 9922   7.520   5.782   3.888  2.1471 -2.0438 -2.6740
  128ACOH    H2 9923   7.508   5.730   4.058  1.3995  1.7400 -0.6681
  128ACOH    H3 9924   7.447   5.621   3.930 -1.7069  1.7195 -0.4346
  129ACOH    H4 9925   7.045   3.294   0.091  2.0977  2.6480  1.8746
  129ACOH    O2 9926   7.037   3.237   0.170  0.2263  0.5665  0.2758
  129ACOH    C2 9927   7.009   3.319   0.275  0.2995  0.1498  0.3072
  129ACOH    O1 9928   6.972   3.433   0.269 -0.1165  0.6107 -0.3682
  129ACOH    C1 9929   7.055   3.256   0.404 -0.6430  0.1721  0.1699
  129ACOH    H1 9930   7.152   3.296   0.433  0.1484 -0.7680 -1.1200
  129ACOH    H2 9931   7.073   3.149   0.395 -2.6354 -0.1524 -0.1905
  129ACOH    H3 9932   6.981   3.267   0.483  0.2532 -1.5981  1.2823
  130ACOH    H4 9933   5.123   3.290   5.717 -1.1255 -1.9614  0.5206
  130ACOH    O2 9934   5.168   3.272   5.632  0.0851  0.2070  0.6812
  130ACOH    C2 9935   5.294   3.248   5.633 -0.2422 -0.2827  0.8005
  130ACOH    O1 9936   5.345   3.188   5.729 -0.0057 -0.0873  0.6208
  130ACOH    C1 9937   5.369   3.253   5.502 -0.4691 -0.0424 -0.3210
  130ACOH    H1 9938   5.470   3.290   5.517 -0.7047 -0.2724  2.1101
  130ACOH    H2 9939   5.310   3.312   5.432 -0.1812 -1.2115 -1.5534
  130ACOH    H3 9940   5.372   3.157   5.450 -1.1264 -0.8476  1.0813
  131ACOH    H4 9941   5.790   8.921   0.909 -0.9468  1.4125 -1.2093
  131ACOH    O2 9942   5.782   8.993   0.975  0.3344  0.6962 -0.2503
  131ACOH    C2 9943   5.684   8.959   1.064 -0.2407 -0.1757  0.0618
  131ACOH    O1 9944   5.605   8.870   1.044 -0.5844 -0.4607 -0.6878
  131ACOH    C1 9945   5.670   9.069   1.164  0.4009 -0.5162 -0.0875
  131ACOH    H1 9946   5.758   9.129   1.144  1.0619 -1.6065 -0.4380
  131ACOH    H2 9947   5.672   9.031   1.266  0.3040 -0.6705 -0.1421
  131ACOH    H3 9948   5.581   9.124   1.132  1.1069  0.9307  0.4038
  132ACOH    H4 9949   3.355   6.158   4.602  1.0678 -0.4487 -0.7069
  132ACOH    O2 9950   3.330   6.077   4.649 -0.5349  0.1694 -0.4521
  132ACOH    C2 9951   3.293   6.104   4.774  0.8819  0.1820  0.3657
  132ACOH    O1 9952   3.264   6.214   4.818 -0.5998  0.3978  0.1986
  132ACOH    C1 9953   3.271   5.982   4.853 -0.5268  0.4915 -0.2400
  132ACOH    H1 9954   3.261   5.896   4.786 -0.1636 -0.8321  1.3830
  132ACOH    H2 9955   3.182   5.998   4.913 -0.3974 -0.8878  0.3347
  132ACOH    H3 9956   3.354   5.962   4.920 -1.3623 -0.3938  0.5383
  133ACOH    H4 9957   5.113   5.301   1.233  0.7327  1.4076 -0.6344
  133ACOH    O2 9958   5.190   5.251   1.200 -0.1824 -0.6335  0.2205
  133ACOH    C2 9959   5.208   5.284   1.070  0.5553  0.2978  0.1320
  133ACOH    O1 9960   5.212   5.392   1.022  0.4896  0.5353  0.1804
  133ACOH    C1 9961   5.283   5.183   1.001 -0.5679  0.4235  0.4996
  133ACOH    H1 9962   5.252   5.185   0.896 -0.2528  0.3160  0.4037
  133ACOH    H2 9963   5.262   5.082   1.034 -0.6437 -0.7752 -2.9715
  133ACOH    H3 9964   5.390   5.203   1.014  0.3590 -4.0799  0.6428
  134ACOH    H4 9965   6.269   6.635   3.936  1.8153  0.4271  0.0929
  134ACOH    O2 9966   6.280   6.549   3.892 -0.3972 -0.0546  0.4553
  134ACOH    C2 9967   6.392   6.562   3.818  0.2847 -0.5380 -0.0667
  134ACOH    O1 9968   6.457   6.661   3.806 -0.1035 -0.7150 -0.4675
  134ACOH    C1 9969   6.427   6.438   3.752 -0.2704 -0.0369  0.0731
  134ACOH    H1 9970   6.515   6.455   3.689 -0.3212  1.4421  0.3867
  134ACOH    H2 9971   6.345   6.398   3.693 -0.2218 -0.3908  0.2435
  134ACOH    H3 9972   6.453   6.370   3.833 -2.6968 -2.3253 -0.9983
  135ACOH    H4 9973   7.188   3.730   4.722  0.4236  0.4661 -1.2817
  135ACOH    O2 9974   7.204   3.634   4.715  0.2606  0.3273  0.2703
  135ACOH    C2 9975   7.088   3.587   4.659  0.4313  0.0797 -0.5045
  135ACOH    O1 9976   6.996   3.654   4.610 -0.3284  0.9277 -0.7304
  135ACOH    C1 9977   7.084   3.444   4.653 -0.5054  0.8043 -0.1783
  135ACOH    H1 9978   7.171   3.408   4.598 -0.7514  2.2897 -1.5473
  135ACOH    H2 9979   6.998   3.407   4.597  0.4742 -0.7749 -0.6666
  135ACOH    H3 9980   7.082   3.397   4.752  1.4271  1.1621  0.0545
  136ACOH    H4 9981   5.039   2.053   1.623  1.5437 -3.3545 -0.3764
  136ACOH    O2 9982   5.100   2.068   1.697 -0.1209  0.5000  0.3733
  136ACOH    C2 9983   5.144   1.944   1.727 -0.2675 -0.2090  0.0485
  136ACOH    O1 9984   5.107   1.841   1.679  0.3490  0.1560 -0.4515
  136ACOH    C1 9985   5.253   1.939   1.830 -0.7753 -0.1188 -1.0038
  136ACOH    H1 9986   5.199   1.945   1.924  2.6064 -2.1893  1.1823
  136ACOH    H2 9987   5.313   2.030   1.825 -1.6662  0.6617  1.6627
  136ACOH    H3 9988   5.310   1.846   1.825  0.3535  0.3797  1.7587
  137ACOH    H4 9989   7.948   8.434   5.194  1.5733 -1.8652 -3.2359
  137ACOH    O2 9990   7.976   8.356   5.247  0.2347 -0.3411 -0.1437
  137ACOH    C2 9991   8.112   8.343   5.243 -0.6179 -0.6942 -0.0809
  137ACOH    O1 9992   8.190   8.409   5.178  0.0834  0.1815  0.1558
  137ACOH    C1 9993   8.143   8.204   5.298  0.3474  0.4550 -0.0105
  137ACOH    H1 9994   8.064   8.133   5.271 -0.6606  0.8464  1.8181
  137ACOH    H2 9995   8.167   8.211   5.404  0.0332 -1.3881  0.2061
  137ACOH    H3 9996   8.235   8.173   5.248 -0.2145 -2.4692  0.6711
  138ACOH    H4 9997   2.354   6.478   0.171  1.6243  0.1255 -1.9519
  138ACOH    O2 9998   2.338   6.574   0.163 -0.3830 -0.0334 -0.0795
  138ACOH    C2 9999   2.454   6.640   0.183  0.1445 -0.1512  0.0256
  138ACOH    O110000   2.553   6.604   0.238 -0.8876 -0.7105 -0.2420
  138ACOH    C110001   2.451   6.771   0.117  1.0614  1.0511 -0.0368
  138ACOH    H110002   2.518   6.839   0.170  1.2231 -0.1715  1.3525
  138ACOH    H210003   2.353   6.819   0.113 -0.2105 -1.5235 -0.3046
  138ACOH    H310004   2.479   6.757   0.012 -2.3798 -0.1677 -0.8646
  139ACOH    H410005   9.236   7.285   4.286 -0.0067  0.1175  0.1031
  139ACOH    O210006   9.219   7.299   4.191  0.1277  0.1018  0.0754
  139ACOH    C210007   9.194   7.430   4.171 -0.1532  0.2755  0.0135
  139ACOH    O110008   9.142   7.508   4.248  0.6409 -0.0246 -0.1404
  139ACOH    C110009   9.204   7.453   4.025 -0.4645  0.2844 -0.4299
  139ACOH    H110010   9.153   7.373   3.971  1.7613 -1.8658  0.5469
  139ACOH    H210011   9.308   7.440   3.995 -0.2825  0.7109  0.0133
  139ACOH    H310012   9.166   7.551   3.996  1.2990  1.2859  0.5494
  140ACOH    H410013   2.728   0.259   1.359  2.1598  0.7142  0.4716
  140ACOH    O210014   2.675   0.292   1.434  0.6117  0.0931 -0.3284
  140ACOH    C210015   2.561   0.355   1.386  0.4564 -0.2449  0.4571
  140ACOH    O110016   2.530   0.369   1.271 -0.2652 -0.8219  0.0118
  140ACOH    C110017   2.492   0.438   1.487 -0.2069 -0.1097  0.0139
  140ACOH    H110018   2.507   0.539   1.450  0.5335 -0.7505 -1.5061
  140ACOH    H210019   2.522   0.429   1.592  0.8945 -0.3851 -0.3097
  140ACOH    H310020   2.385   0.416   1.484 -0.3243 -0.0422  2.6617
  141ACOH    H410021   3.198   5.121   3.720  0.2092  1.9646  2.7901
  141ACOH    O210022   3.290   5.150   3.708  0.3738  0.1119 -0.8354
  141ACOH    C210023   3.363   5.057   3.768  0.1038 -0.0602  0.0128
  141ACOH    O110024   3.320   4.957   3.826 -0.2067  0.0679 -0.0349
  141ACOH    C110025   3.506   5.087   3.738  0.6344  0.1103 -0.4173
  141ACOH    H110026   3.572   5.014   3.783  0.7387  0.1535 -0.5022
  141ACOH    H210027   3.523   5.188   3.776 -0.2643 -0.1261  0.6649
  141ACOH    H310028   3.518   5.077   3.631 -1.5642 -0.0484 -0.6774
  142ACOH    H410029   8.124   7.019   4.676  0.8347  0.6380 -1.0881
  142ACOH    O210030   8.121   7.116   4.675 -0.7024  0.6274  0.2205
  142ACOH    C210031   8.003   7.150   4.733  1.2169 -0.1188  0.6271
  142ACOH    O110032   7.903   7.083   4.722  0.0816 -0.1126 -0.1719
  142ACOH    C110033   8.002   7.291   4.740 -0.3609  0.6299 -0.2181
  142ACOH    H110034   7.966   7.331   4.645  2.8142 -1.2304 -2.3233
  142ACOH    H210035   8.100   7.333   4.764 -0.7017 -0.5211  3.5554
  142ACOH    H310036   7.940   7.332   4.820 -0.3199  2.7476 -1.2246
  143ACOH    H410037   9.205   3.539   3.349 -0.0794 -0.2563 -0.6060
  143ACOH    O210038   9.190   3.561   3.256 -0.5537  0.4475 -0.3694
  143ACOH    C210039   9.091   3.654   3.261  0.3832 -0.9721 -0.7567
  143ACOH    O110040   9.018   3.693   3.351  0.3953 -0.1709  0.1544
  143ACOH    C110041   9.070   3.709   3.123  0.2479 -0.3348  0.3894
  143ACOH    H110042   9.073   3.624   3.055 -0.9707  0.2347 -0.3776
  143ACOH    H210043   9.158   3.772   3.110 -0.9395  1.9812  3.0769
  143ACOH    H310044   8.982   3.769   3.105  1.2070  0.4526 -1.8621
  144ACOH    H410045   3.320   5.858   0.237  0.6653 -0.7574  0.5510
  144ACOH    O210046   3.399   5.913   0.227 -0.2119  0.3902 -0.1700
  144ACOH    C210047   3.485   5.832   0.161 -0.3272 -0.1267 -0.1980
  144ACOH    O110048   3.459   5.739   0.087 -0.3407 -0.4245 -0.1595
  144ACOH    C110049   3.610   5.905   0.149 -0.1428 -0.0041 -0.0986
  144ACOH    H110050   3.690   5.832   0.161 -1.3896 -1.1905  1.0310
  144ACOH    H210051   3.615   5.970   0.237  0.0845 -0.7054  0.4050
  144ACOH    H310052   3.614   5.945   0.048 -0.2817 -0.9060 -0.4630
  145ACOH    H410053   5.750   4.555   0.230 -0.8692  0.1867 -0.4601
  145ACOH    O210054   5.711   4.602   0.306 -0.3209 -0.1068  0.0013
  145ACOH    C210055   5.739   4.531   0.420  0.6124 -0.9046  0.1939
  145ACOH    O110056   5.835   4.460   0.427  0.3963  0.3470  0.3294
  145ACOH    C110057   5.671   4.590   0.538  0.1991  0.1069 -1.1033
  145ACOH    H110058   5.737   4.627   0.616 -1.1479  0.1332  0.0462
  145ACOH    H210059   5.617   4.508   0.586 -0.2134 -0.4424 -2.4652
  145ACOH    H310060   5.598   4.667   0.513 -0.2329  0.6728  1.7292
  146ACOH    H410061   7.429   4.441   4.627  0.9367 -0.1415  0.2970
  146ACOH    O210062   7.468   4.442   4.538  0.3847  0.8192  0.0597
  146ACOH    C210063   7.582   4.511   4.527  0.5166  0.5273  0.2125
  146ACOH    O110064   7.631   4.598   4.601 -0.9762 -0.4100 -0.7184
  146ACOH    C110065   7.655   4.466   4.404  0.7510  0.0911 -0.0347
  146ACOH    H110066   7.593   4.497   4.320 -0.2910  0.3253  0.8103
  146ACOH    H210067   7.657   4.357   4.401 -0.3607 -0.0286  2.0903
  146ACOH    H310068   7.758   4.501   4.412  0.4334  0.7988  1.0165
  147ACOH    H410069   3.954   7.158   4.570 -0.6722 -1.5758  0.7641
  147ACOH    O210070   4.023   7.185   4.633 -0.0726 -0.1730 -0.4872
  147ACOH    C210071   3.990   7.314   4.669  0.0969  0.1564 -0.2985
  147ACOH    O110072   3.878   7.365   4.670  0.2834  0.7675 -0.4517
  147ACOH    C110073   4.104   7.367   4.746 -0.3111 -0.0507 -0.0812
  147ACOH    H110074   4.072   7.430   4.828  0.1057  1.7136 -1.2511
  147ACOH    H210075   4.166   7.427   4.680  0.9973 -0.8674  0.3953
  147ACOH    H310076   4.168   7.286   4.780  2.1101  1.4868 -0.8729
  148ACOH    H410077   4.952   2.087   0.168  0.8678 -0.9750 -0.8321
  148ACOH    O210078   5.044   2.113   0.184  0.6239 -0.4582 -0.2271
  148ACOH    C210079   5.120   2.025   0.115 -0.2856 -0.1115  0.1084
  148ACOH    O110080   5.079   1.958   0.025 -0.4283  0.0067  0.5993
  148ACOH    C110081   5.266   2.037   0.157 -0.1493 -0.0489  0.0955
  148ACOH    H110082   5.299   1.948   0.210  2.5369  0.1843 -1.1017
  148ACOH    H210083   5.285   2.126   0.217 -1.0892  1.0970 -1.2755
  148ACOH    H310084   5.326   2.051   0.067  0.6175 -1.1229  0.4388
  149ACOH    H410085   7.125   2.678   0.406  1.3331 -0.4998  1.0515
  149ACOH    O210086   7.045   2.706   0.453  0.7566 -0.1278 -0.1225
  149ACOH    C210087   7.064   2.671   0.578 -0.2483  0.0238 -0.0409
  149ACOH    O110088   7.153   2.603   0.622 -0.6182 -0.0338  0.3043
  149ACOH    C110089   6.968   2.743   0.667  0.3896 -0.1829  0.2951
  149ACOH    H110090   7.003   2.761   0.769 -2.0826  2.1511  0.7699
  149ACOH    H210091   6.875   2.685   0.659 -0.0733  0.3843  1.4773
  149ACOH    H310092   6.941   2.838   0.623  2.8410 -0.5749 -2.1287
  150ACOH    H410093   5.162   1.673   4.240 -0.7053 -1.1007 -0.8551
  150ACOH    O210094   5.136   1.747   4.183 -0.0746 -0.1787  0.0385
  150ACOH    C210095   5.251   1.792   4.124  0.4193 -0.1974  0.5343
  150ACOH    O110096   5.358   1.810   4.175  0.3050 -0.4148 -0.4538
  150ACOH    C110097   5.212   1.875   4.002 -0.2560  0.8424 -0.0209
  150ACOH    H110098   5.106   1.870   3.979 -0.3893 -0.5981  0.8901
  150ACOH    H210099   5.272   1.842   3.917 -1.5192 -1.1952 -0.1518
  150ACOH    H310100   5.237   1.979   4.024  1.3852  1.1748 -3.1499
  151ACOH    H410101   1.237   2.290   4.545  0.3073  1.4325  1.8660
  151ACOH    O210102   1.290   2.215   4.578  0.0586  0.4250  0.0586
  151ACOH    C210103   1.203   2.154   4.664 -0.2975  0.4180  0.2246
  151ACOH    O110104   1.101   2.207   4.707  0.0531  0.3461  0.7714
  151ACOH    C110105   1.275   2.042   4.730 -0.4508  0.2839  0.0875
  151ACOH    H110106   1.288   1.951   4.670 -0.3727 -0.1648  0.7788
  151ACOH    H210107   1.203   2.004   4.802 -0.9436  1.4355  0.2082
  151ACOH    H310108   1.360   2.078   4.787  0.6296 -1.8902 -0.0981
  152ACOH    H410109   3.398   5.725   3.612  1.6780 -2.1485 -1.7720
  152ACOH    O210110   3.359   5.672   3.683  0.0299  0.1899 -0.8582
  152ACOH    C210111   3.287   5.565   3.639  0.1481 -0.1268 -0.1648
  152ACOH    O110112   3.246   5.550   3.529  0.1644  0.7975 -0.4031
  152ACOH    C110113   3.249   5.475   3.748  0.5412 -0.9116  0.8123
  152ACOH    H110114   3.339   5.437   3.796  0.7591  1.5556  2.4619
  152ACOH    H210115   3.189   5.392   3.712 -0.8764  1.0696 -1.5792
  152ACOH    H310116   3.195   5.536   3.820  2.1908  1.6299 -0.0175
  153ACOH    H410117   6.585   6.985   4.059 -1.0663  0.2553  2.8248
  153ACOH    O210118   6.633   6.901   4.071 -0.2824  0.4203  0.9640
  153ACOH    C210119   6.554   6.812   4.133 -0.6513  0.0602 -0.2867
  153ACOH    O110120   6.464   6.844   4.205 -0.1419  0.3288 -0.0371
  153ACOH    C110121   6.598   6.671   4.126 -0.2031 -0.2486 -0.1131
  153ACOH    H110122   6.679   6.672   4.053 -0.5384  0.2548 -0.4827
  153ACOH    H210123   6.510   6.611   4.099 -0.5161 -0.4483  1.3347
  153ACOH    H310124   6.644   6.643   4.220  2.2014 -1.2054 -1.5078
  154ACOH    H410125   4.709   4.675   2.175 -0.4929 -1.3546  0.4072
  154ACOH    O210126   4.802   4.695   2.196 -0.5189  0.0152 -0.7084
  154ACOH    C210127   4.837   4.793   2.107 -0.3152  0.1900 -0.3128
  154ACOH    O110128   4.766   4.861   2.043  0.1983 -0.2088 -0.2102
  154ACOH    C110129   4.988   4.797   2.093  0.1730  0.1582 -0.0592
  154ACOH    H110130   5.007   4.705   2.039 -1.9428 -0.4792  0.2400
  154ACOH    H210131   5.047   4.798   2.185 -0.9476  1.6490  0.6726
  154ACOH    H310132   5.013   4.888   2.039 -0.9438  0.6898  0.2994
  155ACOH    H410133   7.293   2.651   2.629 -0.4214  1.3706  0.5357
  155ACOH    O210134   7.243   2.660   2.546 -0.2836 -0.0577  0.2796
  155ACOH    C210135   7.274   2.551   2.472  0.1568  0.0769  0.0963
  155ACOH    O110136   7.354   2.462   2.499  0.3247  0.1864  0.1652
  155ACOH    C110137   7.202   2.549   2.341  0.5191 -0.7254 -0.0085
  155ACOH    H110138   7.253   2.612   2.268  0.1592  1.1290  1.3074
  155ACOH    H210139   7.097   2.577   2.349 -0.4700 -4.3084  0.6697
  155ACOH    H310140   7.201   2.451   2.293 -0.0207  0.0748 -1.6706
  156ACOH    H410141   4.259   3.642   3.206 -2.5267 -0.0072  2.6389
  156ACOH    O210142   4.275   3.737   3.219 -0.4032 -0.0592  0.6099
  156ACOH    C210143   4.171   3.779   3.294  0.0378 -1.0877  0.2346
  156ACOH    O110144   4.070   3.712   3.312 -0.5672 -0.4903  0.0072
  156ACOH    C110145   4.192   3.925   3.317  0.3869 -0.2940 -0.4918
  156ACOH    H110146   4.117   3.964   3.386 -0.0929 -0.0478 -1.1484
  156ACOH    H210147   4.200   3.977   3.222  2.7062  0.4688  0.1061
  156ACOH    H310148   4.287   3.945   3.365 -0.6138 -1.0152  1.8899
  157ACOH    H410149   1.339   5.377   0.200 -0.0541  0.5672  0.0650
  157ACOH    O210150   1.295   5.462   0.214 -0.1912  0.4396  0.4084
  157ACOH    C210151   1.168   5.448   0.194  0.1573 -0.2107 -0.0333
  157ACOH    O110152   1.111   5.344   0.156 -0.3444 -0.5732  0.0303
  157ACOH    C110153   1.104   5.580   0.207 -0.1120 -0.5787 -0.4083
  157ACOH    H110154   1.172   5.647   0.153  0.2743  0.5917  1.4505
  157ACOH    H210155   1.100   5.621   0.308  0.5894  1.7680 -1.2878
  157ACOH    H310156   1.005   5.586   0.161  0.0400  0.0573 -0.6635
  158ACOH    H410157   7.177   2.493   3.104  0.6084  0.7676 -2.2674
  158ACOH    O210158   7.211   2.573   3.149  0.5258 -0.5205  0.2158
  158ACOH    C210159   7.173   2.569   3.277 -0.0579 -0.1241 -0.5182
  158ACOH    O110160   7.120   2.475   3.331  0.1756  0.2177 -0.4905
  158ACOH    C110161   7.216   2.680   3.368 -0.8489  0.1988 -0.7934
  158ACOH    H110162   7.288   2.645   3.443 -0.0079  1.0981 -1.1658
  158ACOH    H210163   7.141   2.738   3.422 -1.4733 -0.0872 -1.3502
  158ACOH    H310164   7.269   2.754   3.307  0.2626 -1.0353 -1.3562
  159ACOH    H410165   9.593   6.108   4.919 -1.0517  0.0406 -0.6322
  159ACOH    O210166   9.646   6.045   4.866 -0.0614  0.1976  0.1525
  159ACOH    C210167   9.624   5.917   4.900 -0.4607  0.1121 -0.3013
  159ACOH    O110168   9.538   5.866   4.970 -0.0757  0.8976 -0.1091
  159ACOH    C110169   9.732   5.833   4.841  0.3015 -0.4081  0.2190
  159ACOH    H110170   9.728   5.728   4.869 -1.1196 -0.1265  1.0535
  159ACOH    H210171   9.821   5.860   4.899  1.1794 -0.1283 -1.2166
  159ACOH    H310172   9.745   5.853   4.734 -0.0004  1.3111  0.4983
  160ACOH    H410173   1.409   5.485   5.213  0.8076  0.1626  3.3862
  160ACOH    O210174   1.314   5.486   5.234 -0.2143  0.0285 -0.9213
  160ACOH    C210175   1.299   5.470   5.367  0.1408  1.0242 -0.2382
  160ACOH    O110176   1.391   5.446   5.442  0.5372  0.2709  0.3667
  160ACOH    C110177   1.157   5.458   5.405  0.2946 -0.9328  0.6032
  160ACOH    H110178   1.107   5.468   5.309  2.0938 -0.2372 -0.2926
  160ACOH    H210179   1.134   5.547   5.464  3.4859  1.1554 -1.1532
  160ACOH    H310180   1.124   5.373   5.464 -0.9898 -0.1911  0.9743
  161ACOH    H410181   6.150   0.458   4.970 -0.3625  3.2085  1.1073
  161ACOH    O210182   6.079   0.446   5.035 -0.5167  0.3599  0.4957
  161ACOH    C210183   6.132   0.462   5.158  0.5864 -0.4642  0.4465
  161ACOH    O110184   6.247   0.480   5.186 -0.4234  0.3227  0.3736
  161ACOH    C110185   6.020   0.466   5.258 -0.0385 -0.0914 -0.4108
  161ACOH    H110186   6.003   0.563   5.303  0.1225  0.1067 -0.7748
  161ACOH    H210187   6.050   0.390   5.329  0.5059 -1.8852 -2.4916
  161ACOH    H310188   5.930   0.434   5.204  0.3906 -4.1963  1.0918
  162ACOH    H410189   4.929   1.071   0.610  2.6243  1.5237  1.3718
  162ACOH    O210190   4.871   1.101   0.682 -0.1930 -0.0469 -0.1607
  162ACOH    C210191   4.847   1.003   0.766  0.6997  0.0132 -0.9159
  162ACOH    O110192   4.774   1.018   0.864  0.6745 -0.1627 -0.3208
  162ACOH    C110193   4.897   0.866   0.736 -0.0105 -0.0021 -0.3624
  162ACOH    H110194   4.916   0.866   0.629 -2.4541 -1.6003 -0.8314
  162ACOH    H210195   4.836   0.781   0.767  1.4095  0.0017  2.5835
  162ACOH    H310196   4.990   0.855   0.791 -0.4568 -0.9640  0.2208
  163ACOH    H410197   7.978   6.135   0.767  2.6352  0.0429 -0.1786
  163ACOH    O210198   7.956   6.112   0.675 -0.3389  0.8641  0.2548
  163ACOH    C210199   8.064   6.161   0.610  0.0356  0.1679  1.0829
  163ACOH    O110200   8.180   6.159   0.648  0.1395 -0.1253 -0.2537
  163ACOH    C110201   8.026   6.177   0.467 -0.8353 -0.4018  0.0889
  163ACOH    H110202   7.937   6.116   0.451 -1.5993  0.8445 -0.4309
  163ACOH    H210203   8.103   6.137   0.401 -0.0527  0.8922  0.2016
  163ACOH    H310204   8.011   6.283   0.448 -3.5884 -0.8013 -0.2216
  164ACOH    H410205   1.077   3.615   4.489 -0.2600 -0.2491 -0.4004
  164ACOH    O210206   1.011   3.674   4.448 -0.4154 -0.4478 -0.4381
  164ACOH    C210207   1.014   3.788   4.517  0.0957 -0.5429  0.3407
  164ACOH    O110208   1.074   3.811   4.618 -0.4992 -0.1004 -0.0795
  164ACOH    C110209   0.954   3.905   4.449 -0.6481 -0.2958  0.6147
  164ACOH    H110210   0.965   3.890   4.341 -3.2867  1.1343  0.1106
  164ACOH    H210211   0.997   4.000   4.480 -1.1967 -0.2420  1.2247
  164ACOH    H310212   0.851   3.895   4.481 -0.5401  0.8509  1.3303
  165ACOH    H410213   8.077   5.354   1.649  1.3778 -1.4384 -1.1000
  165ACOH    O210214   8.026   5.398   1.578 -0.3730 -0.6448  0.5932
  165ACOH    C210215   7.963   5.308   1.506  0.0242 -0.0207 -0.1333
  165ACOH    O110216   7.944   5.194   1.530  0.2120  0.2275  0.1725
  165ACOH    C110217   7.890   5.374   1.390 -0.1451 -0.1854  0.0655
  165ACOH    H110218   7.950   5.462   1.365  0.5735 -0.7366 -0.1763
  165ACOH    H210219   7.794   5.408   1.430  0.3820 -0.1025  1.2962
  165ACOH    H310220   7.867   5.321   1.298  2.3224 -1.0398 -0.1039
  166ACOH    H410221   5.146   8.745   4.509  0.4924 -0.3798 -0.4764
  166ACOH    O210222   5.141   8.681   4.582  0.3075 -0.4409 -0.5419
  166ACOH    C210223   5.073   8.579   4.532 -0.5276 -0.1283  0.5245
  166ACOH    O110224   5.094   8.534   4.419  0.4034  0.3980 -0.4709
  166ACOH    C110225   5.020   8.494   4.637  0.2236 -0.0909 -0.6418
  166ACOH    H110226   5.061   8.393   4.630 -3.9658 -2.0241  0.9223
  166ACOH    H210227   4.912   8.484   4.628  0.1019 -0.8891  1.3811
  166ACOH    H310228   5.045   8.541   4.732 -1.3055 -1.0739  0.2656
  167ACOH    H410229   5.346   9.634   0.931 -0.2096  1.5558 -0.8896
  167ACOH    O210230   5.416   9.665   0.872  0.4575  0.8355 -0.4885
  167ACOH    C210231   5.521   9.682   0.952  0.5726 -0.0244 -0.3636
  167ACOH    O110232   5.533   9.675   1.075 -0.1351 -0.2784  0.0483
  167ACOH    C110233   5.639   9.704   0.863  0.2563  0.1200 -0.2506
  167ACOH    H110234   5.734   9.663   0.895 -0.4410  0.4479  2.3387
  167ACOH    H210235   5.641   9.811   0.841  1.2852 -0.0601 -1.0918
  167ACOH    H310236   5.619   9.659   0.766 -1.3104 -3.2487  1.5660
  168ACOH    H410237   2.440   7.279   4.336  1.9988 -0.1733  1.1341
  168ACOH    O210238   2.495   7.309   4.262  0.2259  0.1113 -0.0855
  168ACOH    C210239   2.581   7.399   4.313  0.5072  0.3116 -1.0775
  168ACOH    O110240   2.551   7.480   4.408  0.2643 -0.1743  0.3360
  168ACOH    C110241   2.702   7.399   4.232 -0.0136 -0.4467 -0.0193
  168ACOH    H110242   2.760   7.308   4.248 -0.7408 -0.3789  3.4384
  168ACOH    H210243   2.758   7.492   4.244 -1.7858  0.7630 -1.0270
  168ACOH    H310244   2.657   7.397   4.133  0.7803  1.2281 -0.4309
  169ACOH    H410245   7.193   1.388   5.558  0.2723 -0.1233  0.3851
  169ACOH    O210246   7.248   1.435   5.493  0.0569  0.0010  0.2925
  169ACOH    C210247   7.226   1.569   5.524  0.1089 -0.5084 -0.2995
  169ACOH    O110248   7.154   1.610   5.613 -0.2584  0.4604  1.1537
  169ACOH    C110249   7.312   1.642   5.438  0.6747 -0.3651  0.2711
  169ACOH    H110250   7.407   1.633   5.489  0.9334 -3.1021 -0.5633
  169ACOH    H210251   7.284   1.746   5.425  1.3589 -0.0215  1.5852
  169ACOH    H310252   7.325   1.590   5.343 -0.8257 -1.6845  0.7547
  170ACOH    H410253   5.048   3.893   3.501  0.8896 -1.1598  0.1087
  170ACOH    O210254   5.055   3.956   3.575 -0.3476 -1.0620  0.1553
  170ACOH    C210255   4.931   4.001   3.594  0.8540  0.5261  0.4626
  170ACOH    O110256   4.829   3.961   3.536  0.5310 -0.1229 -0.8953
  170ACOH    C110257   4.925   4.093   3.707  1.0778 -0.3840 -0.0562
  170ACOH    H110258   4.864   4.059   3.790  2.1438 -1.2174  0.3881
  170ACOH    H210259   4.892   4.192   3.674  1.9426 -0.2201 -0.4426
  170ACOH    H310260   5.023   4.103   3.752  1.4572  0.7279 -1.0820
  171ACOH    H410261   4.839   2.187   2.217 -0.0724  1.7385 -1.3144
  171ACOH    O210262   4.889   2.183   2.134  0.7352 -0.2041 -0.7631
  171ACOH    C210263   5.011   2.240   2.151  0.1164  0.0870  0.5533
  171ACOH    O110264   5.042   2.303   2.249  0.8633 -0.2362 -0.5087
  171ACOH    C110265   5.109   2.199   2.046  0.0629 -0.4556 -0.1886
  171ACOH    H110266   5.209   2.239   2.055 -1.0707  2.3957  0.2121
  171ACOH    H210267   5.068   2.224   1.948  1.2459 -0.2125 -0.6236
  171ACOH    H310268   5.116   2.090   2.049  1.8689 -0.3141  1.3473
  172ACOH    H410269   7.605   2.897   3.177 -0.6966 -0.8578  1.8186
  172ACOH    O210270   7.545   2.962   3.219 -1.1241  0.2176 -0.3767
  172ACOH    C210271   7.610   3.023   3.320 -0.3212 -0.1368 -0.4649
  172ACOH    O110272   7.701   2.977   3.384  0.0294  0.2219  0.2713
  172ACOH    C110273   7.545   3.154   3.355 -0.3327  0.3015  0.1246
  172ACOH    H110274   7.447   3.136   3.399 -1.1076 -3.3978 -2.7489
  172ACOH    H210275   7.527   3.213   3.265  1.9030  1.4182  0.3960
  172ACOH    H310276   7.614   3.210   3.417 -0.4139  1.0405 -0.4447
  173ACOH    H410277   2.178   1.807   2.251  1.5189  0.3024 -0.3836
  173ACOH    O210278   2.173   1.759   2.167 -0.1023 -0.1769 -0.0216
  173ACOH    C210279   2.260   1.814   2.080  0.2912 -0.6324 -0.1688
  173ACOH    O110280   2.355   1.882   2.106  0.1294 -0.7187  0.3439
  173ACOH    C110281   2.237   1.747   1.951 -0.2123 -0.4204  0.1188
  173ACOH    H110282   2.152   1.787   1.895 -0.5783  0.1371  1.0611
  173ACOH    H210283   2.235   1.639   1.967  0.2991 -0.2836  1.1206
  173ACOH    H310284   2.331   1.766   1.899 -0.6947  1.0586 -0.2403
  174ACOH    H410285   3.127   1.533   2.821 -1.2708  0.1010 -0.2272
  174ACOH    O210286   3.135   1.581   2.737 -0.2479 -0.2843 -0.3678
  174ACOH    C210287   3.006   1.618   2.705 -0.0462  0.3556 -0.2563
  174ACOH    O110288   2.907   1.613   2.775 -0.7211  0.6904 -0.6211
  174ACOH    C110289   3.006   1.697   2.579 -0.7071  0.2698  0.0020
  174ACOH    H110290   2.977   1.799   2.604  1.5699  0.1330  3.5281
  174ACOH    H210291   2.939   1.666   2.498  0.0690 -0.4294 -0.3691
  174ACOH    H310292   3.106   1.701   2.536 -1.1599  1.0988 -1.0249
  175ACOH    H410293   5.827   6.598   3.549  0.0057  0.0504  0.9133
  175ACOH    O210294   5.849   6.549   3.630  0.0625  0.2644  1.0250
  175ACOH    C210295   5.887   6.655   3.709 -0.1180  0.2868  0.4788
  175ACOH    O110296   5.863   6.777   3.702 -0.3495  0.1310 -0.2978
  175ACOH    C110297   5.955   6.606   3.826  0.4485 -0.0457  0.1941
  175ACOH    H110298   6.038   6.540   3.804  1.4912  0.3251  2.7763
  175ACOH    H210299   5.886   6.558   3.895  2.5303  0.5222  2.7635
  175ACOH    H310300   5.998   6.696   3.872  0.1356  1.3727 -2.2150
  176ACOH    H410301   8.362   7.956   1.403 -0.8623  0.1193 -0.1553
  176ACOH    O210302   8.330   8.045   1.422  0.1047  0.4558 -0.0944
  176ACOH    C210303   8.232   8.040   1.512  0.3885  0.4457  0.4273
  176ACOH    O110304   8.198   7.948   1.583  0.6606  0.0930 -0.0661
  176ACOH    C110305   8.170   8.171   1.522 -0.7111 -0.0551 -0.3281
  176ACOH    H110306   8.114   8.192   1.431 -0.7538 -1.3859 -0.6292
  176ACOH    H210307   8.248   8.246   1.530 -0.0101 -0.9233  1.2117
  176ACOH    H310308   8.103   8.177   1.607  1.9365 -1.1784  1.9127
  177ACOH    H410309   7.381   7.079   4.418  0.1530  0.4808  0.2707
  177ACOH    O210310   7.386   7.096   4.513 -0.6023 -0.2396  0.4385
  177ACOH    C210311   7.313   7.207   4.535  0.1446 -0.3017  0.0157
  177ACOH    O110312   7.243   7.270   4.452 -1.0478  0.3922 -0.0666
  177ACOH    C110313   7.303   7.231   4.684 -0.4167 -0.0682 -0.8542
  177ACOH    H110314   7.300   7.138   4.741 -0.2250 -1.5693 -3.2598
  177ACOH    H210315   7.220   7.296   4.715 -0.2639  0.9682 -2.5708
  177ACOH    H310316   7.392   7.289   4.710  1.2275 -2.0627 -1.9439
  178ACOH    H410317   5.388   3.712   1.909 -0.1513  0.6661 -2.3179
  178ACOH    O210318   5.437   3.793   1.932 -0.5750  0.2206  0.2021
  178ACOH    C210319   5.445   3.795   2.063  0.0211 -0.0349 -0.2232
  178ACOH    O110320   5.407   3.718   2.147  0.3300 -0.4699  0.0986
  178ACOH    C110321   5.527   3.909   2.109 -0.4461  0.3961  0.1671
  178ACOH    H110322   5.630   3.876   2.107 -0.4611  0.3596 -2.0647
  178ACOH    H210323   5.503   3.939   2.211 -2.6374  2.1184 -0.8104
  178ACOH    H310324   5.512   3.997   2.046 -0.4660  0.3308  0.0813
  179ACOH    H410325   2.367   8.038   4.126 -0.4348  3.1576  1.6507
  179ACOH    O210326   2.383   7.984   4.205  0.1328 -0.0169 -0.5177
  179ACOH    C210327   2.466   7.885   4.173  0.1929 -0.3946  0.1395
  179ACOH    O110328   2.501   7.857   4.060  0.1283 -0.1126  0.0639
  179ACOH    C110329   2.530   7.823   4.290  0.1122  0.7871 -0.8567
  179ACOH    H110330   2.618   7.764   4.265  0.7248  1.2709  0.1269
  179ACOH    H210331   2.457   7.765   4.346 -0.7418  1.4210 -1.3037
  179ACOH    H310332   2.565   7.898   4.361 -1.8023 -0.0206  0.9836
  180ACOH    H410333   4.998   6.095   1.734 -3.1957 -0.0929 -2.0001
  180ACOH    O210334   5.015   6.003   1.711  0.2576 -0.0211 -0.0373
  180ACOH    C210335   4.920   5.934   1.764  0.1539  0.1358 -0.0680
  180ACOH    O110336   4.826   5.971   1.837  0.4750 -0.5489 -0.1881
  180ACOH    C110337   4.946   5.791   1.734 -0.2302 -0.2183  0.0134
  180ACOH    H110338   4.922   5.772   1.629  3.4109 -2.4396 -0.5415
  180ACOH    H210339   4.877   5.727   1.789 -0.1601  0.1991  0.5940
  180ACOH    H310340   5.049   5.758   1.750  0.3530  1.0592 -1.0560
  181ACOH    H410341   4.312   6.211   2.989  0.4286  1.1124 -1.4670
  181ACOH    O210342   4.328   6.274   3.061 -0.1011  0.3484 -0.6630
  181ACOH    C210343   4.414   6.373   3.026 -0.1886 -0.5851 -0.1075
  181ACOH    O110344   4.463   6.382   2.918  0.4899  0.3341  1.0011
  181ACOH    C110345   4.461   6.447   3.146  0.0819  0.3960  0.7297
  181ACOH    H110346   4.563   6.481   3.127  0.2606 -0.7816 -0.4976
  181ACOH    H210347   4.461   6.376   3.229  2.1236  1.3766  1.6140
  181ACOH    H310348   4.392   6.531   3.159  0.0630  0.4848  0.0418
  182ACOH    H410349   0.213  10.020   0.463  0.1335 -0.4008  0.8534
  182ACOH    O210350   0.146   9.976   0.409  0.2448  0.0575  0.3381
  182ACOH    C210351   0.067   9.906   0.495 -0.0857 -0.6923  0.2384
  182ACOH    O110352   0.107   9.860   0.599 -0.8525 -0.0159  0.1520
  182ACOH    C110353  -0.056   9.865   0.425  0.4721  0.4681  0.1003
  182ACOH    H110354  -0.064   9.899   0.322 -0.3011 -1.5799 -0.5533
  182ACOH    H210355  -0.143   9.903   0.480  0.3227 -0.4159  0.4965
  182ACOH    H310356  -0.047   9.756   0.430  0.4676  0.5492  2.5982
  183ACOH    H410357   6.627   4.385   0.535 -0.8799 -0.3907 -0.1203
  183ACOH    O210358   6.650   4.447   0.606 -0.1603 -0.6834 -0.0852
  183ACOH    C210359   6.609   4.567   0.590 -0.4367  0.4332 -0.2376
  183ACOH    O110360   6.526   4.601   0.507 -0.2162 -0.4009  0.0194
  183ACOH    C110361   6.657   4.643   0.707  0.2071  0.5436  0.1439
  183ACOH    H110362   6.592   4.632   0.794 -0.7254  0.4950 -0.5547
  183ACOH    H210363   6.652   4.747   0.677  0.0905  0.6670  0.5927
  183ACOH    H310364   6.760   4.610   0.720  0.2261  0.8889  0.8524
  184ACOH    H410365   5.519   1.523   4.656  1.2103  0.3426  0.2034
  184ACOH    O210366   5.513   1.608   4.609  0.0625 -0.2306 -0.6999
  184ACOH    C210367   5.378   1.629   4.598  0.4188 -0.3814  0.1611
  184ACOH    O110368   5.284   1.561   4.635  0.3403 -0.0950  0.1155
  184ACOH    C110369   5.352   1.756   4.529 -0.1150 -0.7734 -0.6566
  184ACOH    H110370   5.420   1.772   4.446 -0.1198 -0.4853 -0.6050
  184ACOH    H210371   5.350   1.840   4.597  1.6681 -1.6598  0.5258
  184ACOH    H310372   5.254   1.751   4.480 -1.5948  0.8068  2.0385
  185ACOH    H410373   1.811   9.805   2.829 -1.0108 -0.8516  0.6854
  185ACOH    O210374   1.853   9.745   2.765 -0.3465 -0.0294  0.3401
  185ACOH    C210375   1.881   9.817   2.654  0.0554  0.0449  0.8858
  185ACOH    O110376   1.883   9.937   2.633  1.2454 -0.0727 -0.7639
  185ACOH    C110377   1.879   9.724   2.538  0.0057 -0.5134  0.1026
  185ACOH    H110378   1.872   9.622   2.574  1.1330 -0.7099 -0.2085
  185ACOH    H210379   1.960   9.740   2.467 -0.5822 -0.5141 -0.5828
  185ACOH    H310380   1.786   9.747   2.485  0.8848 -0.3312 -1.4092
  186ACOH    H410381   5.334   6.514   2.402  0.6825 -1.0486  0.4754
  186ACOH    O210382   5.308   6.437   2.348  0.0320 -0.3387 -0.2551
  186ACOH    C210383   5.380   6.459   2.237 -0.0315 -0.0164  0.0326
  186ACOH    O110384   5.483   6.521   2.233 -0.5664 -0.2746  0.4715
  186ACOH    C110385   5.341   6.359   2.132  0.3943 -0.0205 -0.1119
  186ACOH    H110386   5.317   6.266   2.183 -0.9649  0.6389  0.4901
  186ACOH    H210387   5.422   6.348   2.060  0.8268  0.6479  0.2704
  186ACOH    H310388   5.254   6.390   2.074 -1.0381 -2.4568  0.6410
  187ACOH    H410389   7.261   2.083   1.403 -2.0316 -1.4951 -0.8729
  187ACOH    O210390   7.179   2.128   1.428 -0.8890  0.1692 -0.0058
  187ACOH    C210391   7.205   2.222   1.519 -0.0564 -0.2645  0.3148
  187ACOH    O110392   7.311   2.271   1.548 -0.7129 -0.3049 -0.1094
  187ACOH    C110393   7.084   2.298   1.566  0.0496 -0.0284 -0.0109
  187ACOH    H110394   7.021   2.230   1.624 -2.3761  0.9652 -1.4124
  187ACOH    H210395   7.031   2.338   1.480  0.2328 -0.4875 -0.3386
  187ACOH    H310396   7.123   2.385   1.618 -1.4754  0.7928 -0.2119
  188ACOH    H410397   5.812   0.957   5.050 -0.3762 -0.7683  1.2461
  188ACOH    O210398   5.899   0.935   5.088 -0.0763 -0.0321  0.9934
  188ACOH    C210399   5.958   0.850   5.004  0.1319  0.6803 -0.4654
  188ACOH    O110400   5.902   0.781   4.922  0.3560  0.5335  0.2104
  188ACOH    C110401   6.098   0.809   5.051  0.5456 -0.7929  0.5103
  188ACOH    H110402   6.162   0.887   5.009 -1.1032 -0.2244 -0.9831
  188ACOH    H210403   6.129   0.710   5.017 -0.1855  0.0905 -2.8668
  188ACOH    H310404   6.111   0.814   5.159  1.3583 -0.1829  0.3939
  189ACOH    H410405   0.598   0.765   4.619 -0.1137 -0.4769  0.9623
  189ACOH    O210406   0.692   0.780   4.640  0.0440  0.1810 -0.1500
  189ACOH    C210407   0.753   0.785   4.522 -0.3170 -0.4466  0.0422
  189ACOH    O110408   0.705   0.758   4.410 -0.0611 -0.1156  0.1657
  189ACOH    C110409   0.894   0.825   4.524  0.3403  0.0436  0.0206
  189ACOH    H110410   0.941   0.818   4.426 -1.2752  1.0361 -0.8658
  189ACOH    H210411   0.939   0.755   4.593  0.1445  1.7410  1.9102
  189ACOH    H310412   0.900   0.926   4.565 -1.0788 -0.0930  0.6030
  190ACOH    H410413   7.728   7.699   1.434  1.1561 -1.2525 -1.1264
  190ACOH    O210414   7.749   7.769   1.370  0.2480  0.1168  0.0606
  190ACOH    C210415   7.884   7.788   1.368 -0.1063 -0.0793  0.1657
  190ACOH    O110416   7.963   7.714   1.423 -0.2230 -1.1382 -0.2810
  190ACOH    C110417   7.940   7.910   1.296 -0.0406 -0.2195  0.5404
  190ACOH    H110418   8.040   7.882   1.263 -0.3835  0.0099 -0.6973
  190ACOH    H210419   7.950   7.996   1.363  2.2666  0.7074 -0.9534
  190ACOH    H310420   7.884   7.925   1.204  0.9218 -1.0035 -0.1855
  191ACOH    H410421   3.629   4.904   2.804  2.5800 -1.4656  1.6246
  191ACOH    O210422   3.647   4.997   2.829 -0.4414 -0.2597 -0.2788
  191ACOH    C210423   3.786   5.003   2.814  0.0798 -0.0072  0.7961
  191ACOH    O110424   3.854   4.919   2.757  0.3640 -0.5334  0.0883
  191ACOH    C110425   3.844   5.137   2.861  0.5467 -0.4861  0.4418
  191ACOH    H110426   3.953   5.135   2.856  0.5282  1.2469 -1.6689
  191ACOH    H210427   3.808   5.152   2.962 -0.2065  0.6102  0.0252
  191ACOH    H310428   3.807   5.213   2.791  2.4759 -0.6682 -0.8171
  192ACOH    H410429   8.282   8.478   5.486 -0.2060 -0.0629  0.9339
  192ACOH    O210430   8.366   8.448   5.447 -0.3727 -0.2168  0.6895
  192ACOH    C210431   8.438   8.552   5.398 -0.6887 -0.9588 -0.0260
  192ACOH    O110432   8.411   8.669   5.414  0.0321 -0.0418  0.3210
  192ACOH    C110433   8.560   8.506   5.326 -0.0583 -0.0650 -0.3875
  192ACOH    H110434   8.633   8.587   5.317  1.5780 -1.4705 -0.1743
  192ACOH    H210435   8.530   8.467   5.228  0.6657  0.6144 -0.8842
  192ACOH    H310436   8.609   8.427   5.384 -0.8892 -0.0798  0.2944
  193ACOH    H410437   1.934   0.864   2.072  1.8776  3.7135  0.2577
  193ACOH    O210438   2.002   0.813   2.119 -0.9811 -0.6234 -0.0371
  193ACOH    C210439   1.943   0.715   2.181  0.3004  0.3590 -0.0411
  193ACOH    O110440   1.826   0.711   2.205  0.2144 -0.3843  0.0048
  193ACOH    C110441   2.039   0.614   2.248 -0.3340 -0.7194 -0.0823
  193ACOH    H110442   2.053   0.644   2.352 -0.4586 -1.2845  0.1010
  193ACOH    H210443   2.135   0.609   2.197 -0.8289  1.3427 -1.2887
  193ACOH    H310444   1.991   0.517   2.256 -2.2055  0.2748  1.0567
  194ACOH    H410445   4.702   4.285   2.588  1.3266  0.7207 -1.4382
  194ACOH    O210446   4.663   4.372   2.609 -0.1234 -0.2882  0.1458
  194ACOH    C210447   4.693   4.450   2.499 -0.2329 -0.4740 -0.0437
  194ACOH    O110448   4.776   4.432   2.416 -0.4556  0.0299  0.2836
  194ACOH    C110449   4.611   4.571   2.479  0.3200 -0.0372 -0.1421
  194ACOH    H110450   4.532   4.542   2.410  0.2433 -0.1770  0.0034
  194ACOH    H210451   4.666   4.656   2.438  0.8379  0.5007  1.5959
  194ACOH    H310452   4.564   4.595   2.575  1.5554 -0.0177  0.4708
  195ACOH    H410453   7.914   3.884   2.034 -1.2625  0.9847  0.7503
  195ACOH    O210454   7.875   3.918   1.952 -0.0549  0.1873 -0.1796
  195ACOH    C210455   7.897   4.048   1.954 -0.9205  0.1908 -0.4250
  195ACOH    O110456   7.967   4.109   2.037  0.5715 -0.2414  0.1336
  195ACOH    C110457   7.844   4.120   1.837  0.3535  0.1901  0.4250
  195ACOH    H110458   7.896   4.099   1.743 -0.2222 -0.3816  0.2289
  195ACOH    H210459   7.856   4.228   1.848  0.8445  0.0899  0.8738
  195ACOH    H310460   7.738   4.096   1.827  0.1992  0.6125  1.0506
  196ACOH    H410461   0.874   4.342   2.832 -1.8174  1.0620  1.1893
  196ACOH    O210462   0.909   4.308   2.916 -0.0659  0.4101  0.2397
  196ACOH    C210463   0.801   4.280   2.992 -0.0926 -0.3936  0.5522
  196ACOH    O110464   0.692   4.257   2.940 -0.1022  0.2287  0.0195
  196ACOH    C110465   0.841   4.256   3.135  0.1522  0.1923 -0.5438
  196ACOH    H110466   0.883   4.346   3.180  2.0719  0.5668 -2.9944
  196ACOH    H210467   0.914   4.176   3.135  1.7727  1.6189  0.8397
  196ACOH    H310468   0.752   4.223   3.190  1.2789 -1.4817  0.3197
  197ACOH    H410469   8.410   8.167   3.722 -1.3924 -3.4027  1.4271
  197ACOH    O210470   8.478   8.169   3.791 -0.0892  0.1742  0.1513
  197ACOH    C210471   8.601   8.163   3.737  0.2722 -0.0502  0.0380
  197ACOH    O110472   8.629   8.188   3.622 -0.3818  0.6601 -0.2010
  197ACOH    C110473   8.708   8.150   3.843 -0.1422  0.1818 -0.1189
  197ACOH    H110474   8.658   8.127   3.937 -0.6294 -2.9863 -1.0850
  197ACOH    H210475   8.778   8.233   3.844 -0.2906  0.2938  1.3507
  197ACOH    H310476   8.764   8.060   3.816 -1.2446  0.4267 -3.4640
  198ACOH    H410477   5.721   0.096   0.596 -1.2129  1.1199 -0.9363
  198ACOH    O210478   5.659   0.023   0.580  0.1471 -0.2530 -0.0588
  198ACOH    C210479   5.538   0.045   0.639  0.3066 -0.1280  0.6103
  198ACOH    O110480   5.496   0.145   0.690  0.0160 -0.5186 -0.5620
  198ACOH    C110481   5.454  -0.077   0.630  0.2284 -0.5676  0.4541
  198ACOH    H110482   5.475  -0.134   0.540 -0.9518 -1.8349  0.9607
  198ACOH    H210483   5.350  -0.044   0.637  0.7264  0.8210  1.7435
  198ACOH    H310484   5.467  -0.137   0.720 -0.7489  0.2854  1.1817
  199ACOH    H410485   4.412   5.498   0.663  0.3566  0.8918  3.9993
  199ACOH    O210486   4.450   5.587   0.654  0.0622  0.6844  0.0029
  199ACOH    C210487   4.577   5.574   0.690 -0.5859 -0.1148  0.4188
  199ACOH    O110488   4.626   5.488   0.759  0.0848  0.4026  0.3565
  199ACOH    C110489   4.650   5.701   0.660  0.1307  0.3353  1.0609
  199ACOH    H110490   4.595   5.751   0.581  0.6939 -2.4717 -1.1839
  199ACOH    H210491   4.744   5.668   0.615 -0.9272 -0.3921 -0.6829
  199ACOH    H310492   4.674   5.754   0.752  1.8450  0.3458  0.6278
  200ACOH    H410493   5.160   6.598   3.557 -0.3871  0.9122 -0.9438
  200ACOH    O210494   5.088   6.590   3.622  0.2509  0.2438 -0.3087
  200ACOH    C210495   4.970   6.629   3.578 -0.7692 -0.2269 -0.4428
  200ACOH    O110496   4.946   6.657   3.461  0.1477  0.3985 -0.0925
  200ACOH    C110497   4.867   6.654   3.685 -0.6354 -0.7592  0.1948
  200ACOH    H110498   4.849   6.761   3.700  1.0766 -0.3448 -0.6217
  200ACOH    H210499   4.918   6.630   3.779 -2.6401 -0.2247  1.4662
  200ACOH    H310500   4.780   6.590   3.672 -0.5467 -0.8259 -0.0666
  201ACOH    H410501   6.516   7.706   1.671 -2.5541  0.1708  0.4271
  201ACOH    O210502   6.491   7.645   1.599  0.4037 -0.7872  0.1343
  201ACOH    C210503   6.588   7.555   1.593 -0.0813 -0.1667  0.7486
  201ACOH    O110504   6.700   7.584   1.629 -0.3158 -0.3619  0.3601
  201ACOH    C110505   6.563   7.434   1.506 -0.4796  0.4303  0.4860
  201ACOH    H110506   6.613   7.445   1.410  1.7159 -0.6624  1.4759
  201ACOH    H210507   6.455   7.423   1.493 -0.5900  0.3644  1.4659
  201ACOH    H310508   6.592   7.337   1.548 -1.9567 -1.2486 -2.1951
  202ACOH    H410509   7.789   5.900   4.554  1.0376  1.4636  2.0410
  202ACOH    O210510   7.758   5.831   4.616  0.1526  0.3281  0.3722
  202ACOH    C210511   7.710   5.900   4.720  0.2762  0.3912  0.4176
  202ACOH    O110512   7.719   6.021   4.743  0.0151 -0.5724  0.2573
  202ACOH    C110513   7.641   5.804   4.806  0.5245 -0.2279  0.3506
  202ACOH    H110514   7.569   5.854   4.871 -0.6368  0.7852 -1.6767
  202ACOH    H210515   7.721   5.751   4.859  0.4946 -0.6432 -0.0162
  202ACOH    H310516   7.580   5.734   4.750  2.3107 -1.7827  0.2720
  203ACOH    H410517   7.145   4.489   0.405 -0.3477 -1.7502  1.5492
  203ACOH    O210518   7.141   4.549   0.481 -0.3528  0.0897  0.1222
  203ACOH    C210519   7.036   4.628   0.460 -0.6641 -0.0198  0.2068
  203ACOH    O110520   6.947   4.617   0.376  0.5181 -0.4361  0.1293
  203ACOH    C110521   7.040   4.732   0.563 -0.7083 -0.5867 -0.4814
  203ACOH    H110522   6.959   4.799   0.533  0.4613  1.3629  0.5781
  203ACOH    H210523   7.133   4.785   0.539 -1.2480  1.1180  1.0680
  203ACOH    H310524   7.032   4.695   0.665 -1.5489 -0.8951 -0.6622
  204ACOH    H410525   1.976   9.599   2.000  1.2300  0.6290 -1.5679
  204ACOH    O210526   2.064   9.557   2.003  0.7229 -0.3520 -0.0860
  204ACOH    C210527   2.080   9.506   1.877  0.1584  0.0093  0.0733
  204ACOH    O110528   1.999   9.496   1.784  1.0817  0.2941 -0.1530
  204ACOH    C110529   2.203   9.426   1.878 -0.0672  0.0742 -0.1067
  204ACOH    H110530   2.275   9.463   1.805 -2.0754  2.1630 -1.1080
  204ACOH    H210531   2.183   9.321   1.859 -3.9502 -0.1824  4.6004
  204ACOH    H310532   2.246   9.429   1.978 -1.5585  0.1258  0.5443
  205ACOH    H410533   7.694   5.289   0.741 -0.4605  0.9338  0.4760
  205ACOH    O210534   7.625   5.299   0.672 -0.4991  0.4245  0.4401
  205ACOH    C210535   7.523   5.229   0.718 -0.3014  0.0982  0.6545
  205ACOH    O110536   7.525   5.149   0.812 -0.6500 -0.4783 -0.1132
  205ACOH    C110537   7.400   5.253   0.638 -0.5938 -0.1166 -0.8455
  205ACOH    H110538   7.364   5.355   0.654 -1.6547 -0.6184  0.0257
  205ACOH    H210539   7.323   5.181   0.666 -0.8447  0.4534 -0.0402
  205ACOH    H310540   7.422   5.232   0.534 -2.1470 -3.2480 -0.5937
  206ACOH    H410541   6.179   4.225   0.115 -0.5524 -0.7613  1.7003
  206ACOH    O210542   6.158   4.305   0.166  0.4539  0.4816  0.1710
  206ACOH    C210543   6.256   4.305   0.264 -0.1977  0.4502 -0.9336
  206ACOH    O110544   6.363   4.252   0.265  0.3571 -0.1242 -0.9007
  206ACOH    C110545   6.226   4.422   0.351  1.1022 -0.5965  0.0736
  206ACOH    H110546   6.182   4.410   0.449  0.0705 -0.5794 -0.3813
  206ACOH    H210547   6.158   4.486   0.294  4.8828  3.1624 -0.5166
  206ACOH    H310548   6.318   4.479   0.368  1.4806 -1.0987 -0.2755
  207ACOH    H410549   5.858   4.197   0.056 -3.4131 -0.5348 -0.5431
  207ACOH    O210550   5.867   4.246  -0.027 -0.1195  0.4013  0.2879
  207ACOH    C210551   5.885   4.369   0.016  0.6058  0.3187  0.9587
  207ACOH    O110552   5.820   4.436   0.097 -0.7660  0.9896  0.0989
  207ACOH    C110553   5.977   4.445  -0.076  0.2063  0.5023 -0.5276
  207ACOH    H110554   5.910   4.498  -0.143 -1.4146  0.9779  1.4232
  207ACOH    H210555   6.042   4.381  -0.136 -0.7032 -0.3814 -0.5683
  207ACOH    H310556   6.044   4.515  -0.026 -2.2793  1.5822  1.3800
  208ACOH    H410557   6.204   7.669   1.756  1.5822 -1.0524 -2.1094
  208ACOH    O210558   6.246   7.590   1.792  0.3454 -0.7896  0.0265
  208ACOH    C210559   6.222   7.496   1.695  0.0365  0.6334  0.7630
  208ACOH    O110560   6.208   7.510   1.570  0.1776  0.1610  0.0984
  208ACOH    C110561   6.253   7.370   1.760  0.8750  0.3096  0.4656
  208ACOH    H110562   6.228   7.367   1.866 -1.7708 -1.5011 -0.1538
  208ACOH    H210563   6.358   7.348   1.743 -0.2156 -3.3104 -2.0780
  208ACOH    H310564   6.201   7.286   1.714  1.6435 -0.8176  1.6415
  209ACOH    H410565   7.368   4.541   5.248 -1.1549 -0.7181  0.6422
  209ACOH    O210566   7.290   4.599   5.246 -0.4791  0.1763 -0.2168
  209ACOH    C210567   7.206   4.521   5.171  0.1074 -0.6400  0.0134
  209ACOH    O110568   7.240   4.430   5.105  0.7345 -0.4939  0.1359
  209ACOH    C110569   7.062   4.566   5.176 -0.0264  0.5772  0.5081
  209ACOH    H110570   7.048   4.605   5.277 -0.5511  0.9155  0.3021
  209ACOH    H210571   6.989   4.487   5.158 -2.6182  3.5113 -2.5608
  209ACOH    H310572   7.048   4.639   5.097 -0.8257  1.4222  1.4112
  210ACOH    H410573   6.593   3.890   0.301  0.2929 -0.5019 -0.0090
  210ACOH    O210574   6.634   3.842   0.374  0.2336 -0.2876  0.1647
  210ACOH    C210575   6.741   3.786   0.315  0.3903 -0.1263 -1.1508
  210ACOH    O110576   6.805   3.834   0.221  0.4358 -0.6523 -0.1134
  210ACOH    C110577   6.808   3.704   0.416 -0.2833 -0.4704 -0.2034
  210ACOH    H110578   6.748   3.695   0.506 -0.9351  3.5537 -0.1452
  210ACOH    H210579   6.897   3.763   0.440 -0.0459  0.1456 -2.4474
  210ACOH    H310580   6.852   3.607   0.388  0.8705  0.4324 -1.6552
  211ACOH    H410581   7.061   4.954   4.734  0.0708  1.1166  2.4295
  211ACOH    O210582   6.989   5.019   4.720 -0.0876  0.4507 -0.0725
  211ACOH    C210583   6.956   5.042   4.849 -0.2506  1.0743  0.4509
  211ACOH    O110584   6.986   4.982   4.951  0.5590 -0.2316  0.2461
  211ACOH    C110585   6.857   5.149   4.846  0.3978  0.5418 -0.1673
  211ACOH    H110586   6.755   5.112   4.836  0.7198 -0.0851 -1.2454
  211ACOH    H210587   6.874   5.220   4.764 -1.0063 -1.5729 -2.3601
  211ACOH    H310588   6.864   5.204   4.939  1.0500  1.7289 -0.9049
  212ACOH    H410589   1.130   6.889   4.044  0.3667  1.6261 -1.1373
  212ACOH    O210590   1.160   6.927   4.129 -0.1697 -0.2490 -0.0731
  212ACOH    C210591   1.129   7.057   4.117  0.0100  0.1929 -0.2769
  212ACOH    O110592   1.062   7.107   4.026  0.1025 -0.1725 -0.7964
  212ACOH    C110593   1.155   7.127   4.242 -0.3167 -0.3887 -0.0500
  212ACOH    H110594   1.263   7.142   4.249 -0.7867  3.7057 -0.0108
  212ACOH    H210595   1.125   7.065   4.326  0.9502 -0.3086  0.4701
  212ACOH    H310596   1.109   7.226   4.249  2.4424  1.1475 -2.5225
  213ACOH    H410597   4.721   7.516   4.524 -0.1301 -0.0722 -0.1725
  213ACOH    O210598   4.779   7.442   4.549 -0.1914  0.2239  0.8471
  213ACOH    C210599   4.700   7.341   4.574  0.2282  0.4805 -0.1955
  213ACOH    O110600   4.577   7.339   4.564  0.0985 -0.5424  0.9601
  213ACOH    C110601   4.772   7.226   4.638  0.2847 -0.4935  0.2309
  213ACOH    H110602   4.869   7.216   4.591  0.6868 -1.1202  1.1687
  213ACOH    H210603   4.712   7.138   4.614 -0.0393  0.2925 -1.9261
  213ACOH    H310604   4.778   7.231   4.747 -0.8064  0.4062  0.2624
  214ACOH    H410605   7.077   0.743   1.378  0.1651  1.1330 -0.6347
  214ACOH    O210606   7.170   0.717   1.371 -0.1685 -0.3214  0.1317
  214ACOH    C210607   7.235   0.789   1.464  0.4084 -0.1637 -0.6844
  214ACOH    O110608   7.194   0.898   1.490  0.6583 -0.4653 -0.0549
  214ACOH    C110609   7.368   0.731   1.491 -0.2719 -0.9409 -0.2525
  214ACOH    H110610   7.362   0.622   1.498 -0.3601 -0.8409  1.5380
  214ACOH    H210611   7.418   0.769   1.581 -0.1567 -1.4761 -0.0838
  214ACOH    H310612   7.424   0.755   1.400 -1.2763 -0.6168 -0.7836
  215ACOH    H410613   3.162   2.375   3.885  0.1162  1.9398  0.9798
  215ACOH    O210614   3.067   2.387   3.904 -0.3042  0.8373 -0.3461
  215ACOH    C210615   3.014   2.266   3.916 -0.8892  0.4178  0.3822
  215ACOH    O110616   3.070   2.171   3.971 -0.0284  0.4000  0.4607
  215ACOH    C110617   2.870   2.268   3.882  0.2899  0.3689 -0.1982
  215ACOH    H110618   2.844   2.354   3.821 -1.3410 -0.5493 -0.8394
  215ACOH    H210619   2.813   2.268   3.975  0.3257 -1.2032 -0.1621
  215ACOH    H310620   2.855   2.184   3.815  3.7222 -0.3795 -0.1348
  216ACOH    H410621   6.599   3.781   5.180 -1.3608  0.2950  0.1889
  216ACOH    O210622   6.578   3.869   5.145  0.3887  0.5541 -0.2800
  216ACOH    C210623   6.535   3.934   5.256  0.0157  0.5296 -0.3756
  216ACOH    O110624   6.503   3.880   5.360 -0.4833 -0.1907  0.3219
  216ACOH    C110625   6.509   4.077   5.234 -0.3069  0.0675  0.3884
  216ACOH    H110626   6.547   4.119   5.141  1.3219 -2.0684  0.0478
  216ACOH    H210627   6.549   4.138   5.315 -1.7215  1.5095  0.0177
  216ACOH    H310628   6.401   4.088   5.235 -0.1373  2.0561 -0.4027
  217ACOH    H410629   4.898   8.728   1.108  1.8725  0.2312 -0.2402
  217ACOH    O210630   4.893   8.735   1.011  0.5297 -0.4101 -0.2340
  217ACOH    C210631   4.815   8.640   0.970  0.4231  0.7356 -0.2009
  217ACOH    O110632   4.764   8.546   1.032  0.3797 -0.0300  0.0078
  217ACOH    C110633   4.788   8.633   0.824  0.1299 -0.2165 -0.5704
  217ACOH    H110634   4.881   8.662   0.776  0.0835  0.0553 -0.4955
  217ACOH    H210635   4.720   8.711   0.792  0.4299 -0.1510 -1.0549
  217ACOH    H310636   4.762   8.531   0.795  1.8852 -0.3598 -1.6868
  218ACOH    H410637   4.864   0.019   0.357 -0.5776 -2.1124  2.0909
  218ACOH    O210638   4.837  -0.036   0.282  0.1744  0.4277 -0.1460
  218ACOH    C210639   4.811   0.054   0.189 -0.3591  0.3398  0.0954
  218ACOH    O110640   4.848   0.171   0.178  0.0036  0.0728  0.0796
  218ACOH    C110641   4.745  -0.014   0.075  0.0828 -0.0227 -0.5383
  218ACOH    H110642   4.696  -0.103   0.113 -0.2649  0.9590  1.3814
  218ACOH    H210643   4.813  -0.036  -0.008  1.3723  1.7803  0.0037
  218ACOH    H310644   4.670   0.053   0.033  0.4515  1.1175  0.5956
  219ACOH    H410645   7.837   8.698   0.629  2.7362 -0.8298  1.2269
  219ACOH    O210646   7.839   8.619   0.572  0.2634 -0.1858  0.2076
  219ACOH    C210647   7.834   8.513   0.651 -0.1281  0.3400 -0.0506
  219ACOH    O110648   7.852   8.506   0.770  0.0737 -0.1192 -0.7611
  219ACOH    C110649   7.821   8.384   0.574 -0.4044  0.0530  0.2968
  219ACOH    H110650   7.888   8.379   0.488  0.9668  2.6637  1.1290
  219ACOH    H210651   7.717   8.366   0.546 -0.5393  0.8128  0.2953
  219ACOH    H310652   7.850   8.303   0.641 -3.0033  2.0513  4.0442
  220ACOH    H410653   2.666   2.174   4.442 -0.1634 -1.4667  1.9502
  220ACOH    O210654   2.600   2.102   4.435 -0.9623 -0.5379 -0.2110
  220ACOH    C210655   2.631   2.017   4.529  0.0968  0.3366 -0.4125
  220ACOH    O110656   2.735   2.002   4.590  0.3927  0.3373  0.4519
  220ACOH    C110657   2.502   1.936   4.543 -0.4282 -0.0870 -0.7951
  220ACOH    H110658   2.492   1.878   4.636 -1.9433  0.0310 -0.8701
  220ACOH    H210659   2.496   1.861   4.464 -0.3526 -0.4325 -0.4759
  220ACOH    H310660   2.412   1.996   4.536  0.5217  1.6127  0.8171
  221ACOH    H410661   6.161   8.857   4.679  0.9096  1.9019 -1.1777
  221ACOH    O210662   6.245   8.811   4.657  0.3557  0.2627  0.0264
  221ACOH    C210663   6.239   8.715   4.562  0.7847  0.1676  0.2531
  221ACOH    O110664   6.148   8.705   4.478 -0.7519 -0.1758 -0.3539
  221ACOH    C110665   6.376   8.668   4.534  0.1406 -0.2377  0.1841
  221ACOH    H110666   6.389   8.595   4.454 -0.1685 -0.7671  0.6109
  221ACOH    H210667   6.418   8.616   4.620 -0.8368 -1.2916  0.0340
  221ACOH    H310668   6.437   8.754   4.507  0.7993 -0.8244 -0.2487
  222ACOH    H410669   5.138   5.493   1.711  0.8992 -0.8474  0.4136
  222ACOH    O210670   5.225   5.535   1.711  0.5648 -0.1469 -0.3935
  222ACOH    C210671   5.222   5.615   1.602  0.1429  0.5168 -0.1932
  222ACOH    O110672   5.161   5.599   1.499 -0.2234 -0.2503 -0.4173
  222ACOH    C110673   5.330   5.720   1.605  0.4232 -0.3638  0.3258
  222ACOH    H110674   5.426   5.676   1.575  0.1128 -0.6409 -0.2824
  222ACOH    H210675   5.342   5.759   1.706  2.8687 -0.7813  0.2309
  222ACOH    H310676   5.320   5.800   1.532  1.6688 -1.6087 -1.2649
  223ACOH    H410677   9.496   1.949   1.993  1.9838 -1.2677 -0.9754
  223ACOH    O210678   9.470   1.856   2.002  0.4582 -0.7175  0.3706
  223ACOH    C210679   9.478   1.778   1.891  0.1885 -0.1724  0.2716
  223ACOH    O110680   9.533   1.813   1.789  0.8792 -0.1304 -0.6599
  223ACOH    C110681   9.403   1.654   1.920  0.7177 -0.0641  0.2543
  223ACOH    H110682   9.396   1.584   1.837  4.0603 -0.8272  0.5648
  223ACOH    H210683   9.302   1.678   1.952  1.5839  0.1813  2.8536
  223ACOH    H310684   9.450   1.600   2.001 -1.7002 -0.5017  1.4022
  224ACOH    H410685   0.220   0.230   0.185  1.5151 -1.5792 -0.0852
  224ACOH    O210686   0.159   0.155   0.187 -0.3029 -0.1232 -0.3105
  224ACOH    C210687   0.234   0.054   0.138  0.4846  0.3059  0.3152
  224ACOH    O110688   0.353   0.050   0.133  0.4601  0.2871  0.0912
  224ACOH    C110689   0.159  -0.060   0.089 -0.5860 -0.1561  0.2419
  224ACOH    H110690   0.225  -0.147   0.094 -2.4295 -1.5561  0.6135
  224ACOH    H210691   0.115  -0.055  -0.010 -0.1968  0.1847  0.0866
  224ACOH    H310692   0.078  -0.078   0.160  0.5137  0.3222  1.6503
  225ACOH    H410693   2.584   4.707   3.941  0.5014 -0.7638 -0.5323
  225ACOH    O210694   2.663   4.740   3.986  0.1084  0.0240 -0.4037
  225ACOH    C210695   2.629   4.793   4.106 -1.0519 -0.7809  0.1842
  225ACOH    O110696   2.516   4.821   4.149  0.2686 -0.0893  0.1488
  225ACOH    C110697   2.746   4.843   4.185 -0.0066 -0.4967  0.5369
  225ACOH    H110698   2.719   4.886   4.281 -1.9457 -1.0771  0.2740
  225ACOH    H210699   2.809   4.909   4.124  0.1408 -0.3991  0.7974
  225ACOH    H310700   2.811   4.761   4.212  0.8040 -0.9297 -2.4995
  226ACOH    H410701   7.996   9.020   2.761 -0.3417  2.4706  0.7795
  226ACOH    O210702   8.004   8.989   2.853 -0.3139  0.1178  0.0107
  226ACOH    C210703   7.917   8.891   2.863 -0.3212 -0.2442 -0.1914
  226ACOH    O110704   7.895   8.797   2.787 -0.3674  0.4141 -0.1888
  226ACOH    C110705   7.873   8.880   3.004 -0.1069  1.1992 -0.5100
  226ACOH    H110706   7.871   8.971   3.063 -1.5613  1.1656 -0.4676
  226ACOH    H210707   7.940   8.810   3.053  0.0911  0.9238 -1.1670
  226ACOH    H310708   7.769   8.846   3.001 -0.5823  2.4346  1.2382
  227ACOH    H410709   5.676   7.286   1.577 -1.1067 -0.6738  2.0387
  227ACOH    O210710   5.688   7.190   1.586  0.1239 -0.7220  0.2495
  227ACOH    C210711   5.794   7.172   1.664 -1.5288 -0.1846  0.3656
  227ACOH    O110712   5.856   7.262   1.718  0.1963  0.5856 -0.3714
  227ACOH    C110713   5.820   7.030   1.694  0.5022  0.3993  0.2454
  227ACOH    H110714   5.765   6.964   1.627  2.8489 -1.4376  0.0474
  227ACOH    H210715   5.787   7.004   1.794 -1.1329  3.3825  0.5349
  227ACOH    H310716   5.926   7.006   1.680  0.3832 -1.5329  2.3858
  228ACOH    H410717   8.497   5.817   4.159  1.6852  0.7087  1.2288
  228ACOH    O210718   8.569   5.777   4.106  0.3567  0.0175 -0.1014
  228ACOH    C210719   8.505   5.699   4.016 -0.1829  0.1035  1.0263
  228ACOH    O110720   8.392   5.671   4.013  0.3437  0.1148  0.2862
  228ACOH    C110721   8.593   5.660   3.909  0.3999  0.7853  0.2122
  228ACOH    H110722   8.568   5.562   3.867  0.2441  0.4117  1.1573
  228ACOH    H210723   8.693   5.655   3.950  0.8614  1.4786 -0.8249
  228ACOH    H310724   8.580   5.732   3.828  1.3848 -0.2656 -0.8991
  229ACOH    H410725   2.219   2.095   3.651 -1.9499  1.5528 -1.6786
  229ACOH    O210726   2.175   2.123   3.733  0.0955 -0.5630  0.2050
  229ACOH    C210727   2.235   2.041   3.823 -0.2631  0.2007  0.1235
  229ACOH    O110728   2.323   1.959   3.814  0.1350  0.1150  0.3945
  229ACOH    C110729   2.168   2.066   3.951 -0.0562  0.4375 -0.2854
  229ACOH    H110730   2.192   1.988   4.023 -0.4810  2.1420  1.7548
  229ACOH    H210731   2.060   2.073   3.937 -0.0118 -0.3176 -1.0597
  229ACOH    H310732   2.217   2.155   3.989  1.0687  0.1029 -0.9573
  230ACOH    H410733   0.347   8.136   4.626  0.8981  0.5902  1.0210
  230ACOH    O210734   0.414   8.069   4.604 -0.0136 -0.0563  0.1359
  230ACOH    C210735   0.408   7.980   4.705 -0.0034 -0.3418 -0.1351
  230ACOH    O110736   0.347   7.987   4.811 -0.4763 -1.1476  0.2357
  230ACOH    C110737   0.499   7.873   4.679  0.7879  0.0467 -0.3086
  230ACOH    H110738   0.495   7.804   4.763  1.9002  1.8092  1.2310
  230ACOH    H210739   0.602   7.905   4.664  0.8795 -1.2534 -2.5699
  230ACOH    H310740   0.459   7.818   4.595  0.2849 -0.2036  0.0922
  231ACOH    H410741   3.960   4.693   4.615 -0.6891 -0.1990  0.3936
  231ACOH    O210742   4.010   4.753   4.673 -0.1677 -0.4057  0.1569
  231ACOH    C210743   4.124   4.699   4.716  0.0744 -0.6023 -1.4663
  231ACOH    O110744   4.165   4.589   4.682  0.4559 -1.0320  0.3995
  231ACOH    C110745   4.197   4.789   4.800  0.9886 -0.6408 -0.6336
  231ACOH    H110746   4.233   4.878   4.749 -0.9633 -0.0310 -0.9965
  231ACOH    H210747   4.282   4.745   4.851 -0.2212 -1.2595  0.8968
  231ACOH    H310748   4.123   4.814   4.876  0.5133 -1.5418 -0.7867
  232ACOH    H410749   2.068   0.735   4.136  0.7407  0.5698 -2.6442
  232ACOH    O210750   2.007   0.670   4.097  0.1729 -0.4381 -0.1790
  232ACOH    C210751   1.953   0.717   3.982  0.4506 -0.0521 -0.5986
  232ACOH    O110752   1.993   0.814   3.923  0.7257 -0.1302  0.0629
  232ACOH    C110753   1.870   0.618   3.909 -0.1997 -0.2497  0.3158
  232ACOH    H110754   1.846   0.533   3.972 -0.9142  0.4703  1.0417
  232ACOH    H210755   1.916   0.574   3.821 -1.1394 -1.8673  0.6031
  232ACOH    H310756   1.780   0.668   3.873  0.1785 -0.7074 -1.2704
  233ACOH    H410757   6.478   1.755   2.985  0.0886 -1.7510 -0.7188
  233ACOH    O210758   6.390   1.745   2.946 -0.4263  0.2444 -0.1446
  233ACOH    C210759   6.320   1.680   3.036  0.4854 -0.0314 -0.7292
  233ACOH    O110760   6.348   1.654   3.151  0.0626  0.1432 -0.5961
  233ACOH    C110761   6.178   1.661   2.990  0.4069 -0.3204  0.5194
  233ACOH    H110762   6.187   1.615   2.892  1.2803 -1.0863  0.9557
  233ACOH    H210763   6.122   1.755   2.990  2.0438  0.6984  0.9638
  233ACOH    H310764   6.129   1.596   3.062 -1.4565  2.6883  2.0698
  234ACOH    H410765   4.839   1.684   0.231  2.1810 -0.6964 -1.7208
  234ACOH    O210766   4.906   1.678   0.302  0.2859  0.0788  0.1714
  234ACOH    C210767   4.865   1.768   0.398  0.4631  0.3498  0.4068
  234ACOH    O110768   4.786   1.858   0.379  0.2462 -0.1461  0.0419
  234ACOH    C110769   4.968   1.762   0.500  0.6484 -0.1086  0.0124
  234ACOH    H110770   4.998   1.865   0.522  0.5327 -0.2144  0.6965
  234ACOH    H210771   5.056   1.702   0.475  0.4884 -0.6651  0.7531
  234ACOH    H310772   4.931   1.721   0.594 -1.6320 -0.0652 -0.8398
  235ACOH    H410773   7.971   7.305   4.314 -0.8930 -0.3912  0.2991
  235ACOH    O210774   7.942   7.318   4.406  0.0082 -0.4614  0.5978
  235ACOH    C210775   7.816   7.274   4.410  0.5586  0.5830  1.3485
  235ACOH    O110776   7.775   7.207   4.316 -0.4284 -0.3439 -0.3246
  235ACOH    C110777   7.733   7.309   4.526  0.4401 -0.6485 -0.3142
  235ACOH    H110778   7.629   7.297   4.496 -0.2397 -0.2568  1.7856
  235ACOH    H210779   7.751   7.408   4.566  1.4277 -0.4448 -1.2589
  235ACOH    H310780   7.751   7.233   4.602 -1.1343  0.5339  1.2852
  236ACOH    H410781   4.219   4.600   0.330 -1.9260  1.2020  0.7125
  236ACOH    O210782   4.163   4.605   0.251 -0.0864  0.5018 -0.6762
  236ACOH    C210783   4.047   4.539   0.282 -0.5241 -0.5202 -0.4108
  236ACOH    O110784   4.008   4.509   0.396  0.3220 -0.1345 -0.3863
  236ACOH    C110785   3.952   4.537   0.174  0.9278 -0.0335  0.6326
  236ACOH    H110786   3.849   4.525   0.208  1.2205 -1.8006  0.9463
  236ACOH    H210787   3.981   4.466   0.096  1.7052 -1.2543  2.0153
  236ACOH    H310788   3.963   4.628   0.115  1.3227  1.4250  2.8914
  237ACOH    H410789   5.183   3.121   1.015 -1.7677  1.1870 -1.2453
  237ACOH    O210790   5.195   3.188   1.085  0.0951 -0.3138 -0.0743
  237ACOH    C210791   5.132   3.137   1.194 -0.5965 -0.1524 -0.7546
  237ACOH    O110792   5.094   3.020   1.203 -0.0727  0.0681 -0.4110
  237ACOH    C110793   5.116   3.224   1.308  0.4801 -0.2125 -0.0945
  237ACOH    H110794   5.056   3.178   1.387  2.3372  0.1153  1.5481
  237ACOH    H210795   5.070   3.320   1.284  0.9703 -0.0343 -0.3278
  237ACOH    H310796   5.214   3.250   1.348  0.0184  1.4781 -0.0304
  238ACOH    H410797   4.683   8.187   0.596  0.5126 -0.2972  0.9714
  238ACOH    O210798   4.737   8.241   0.536 -0.0799 -0.6104  0.1456
  238ACOH    C210799   4.825   8.305   0.619  0.0875  0.0575 -0.6925
  238ACOH    O110800   4.829   8.296   0.740 -0.0922  0.3845 -0.1852
  238ACOH    C110801   4.924   8.396   0.545 -0.1796  0.1945  0.2438
  238ACOH    H110802   4.967   8.468   0.614  0.0216 -2.1403  2.6090
  238ACOH    H210803   4.867   8.427   0.457  0.9888  0.8255 -0.2986
  238ACOH    H310804   5.012   8.342   0.511 -0.7540  0.2244 -1.3278
  239ACOH    H410805   7.330   6.741   2.080  0.4946  0.0550  1.5276
  239ACOH    O210806   7.264   6.673   2.102  0.0470 -0.0582 -0.0879
  239ACOH    C210807   7.339   6.567   2.138 -0.0857 -0.2896 -0.1688
  239ACOH    O110808   7.461   6.568   2.145  0.0614  1.2239  0.0656
  239ACOH    C110809   7.266   6.445   2.175 -0.0212 -0.2743  0.4061
  239ACOH    H110810   7.171   6.472   2.222  0.2118  0.7402  0.3141
  239ACOH    H210811   7.323   6.385   2.246  0.0976  0.5740  1.0415
  239ACOH    H310812   7.243   6.394   2.082 -1.5279  1.2918 -0.1132
  240ACOH    H410813   4.644   3.814   3.833 -0.3548 -1.0778 -3.7202
  240ACOH    O210814   4.729   3.858   3.819 -0.0359 -0.1804  0.4103
  240ACOH    C210815   4.808   3.749   3.816  0.2537  0.4871  0.4411
  240ACOH    O110816   4.781   3.631   3.818  0.2218  0.3268 -0.5336
  240ACOH    C110817   4.952   3.780   3.837  0.3747 -0.1965 -0.0875
  240ACOH    H110818   4.971   3.887   3.843 -0.4465 -0.0364 -0.2609
  240ACOH    H210819   5.002   3.734   3.751  1.1140  0.7051 -0.1523
  240ACOH    H310820   4.974   3.730   3.931 -1.9181 -0.2538  0.4332
  241ACOH    H410821   7.111   1.226   1.653  0.1166  1.6043  2.1816
  241ACOH    O210822   7.016   1.206   1.660  0.2171 -0.0977 -0.5593
  241ACOH    C210823   6.979   1.157   1.537 -0.1333 -0.1643 -0.8810
  241ACOH    O110824   7.021   1.194   1.428 -0.0508  0.5172  0.3373
  241ACOH    C110825   6.869   1.058   1.550  0.4368 -0.1919  0.3302
  241ACOH    H110826   6.897   0.987   1.628 -0.8389  1.2036  2.0721
  241ACOH    H210827   6.845   1.008   1.456 -2.4891  1.4696  0.1507
  241ACOH    H310828   6.787   1.117   1.589 -0.9316 -1.0432 -1.2044
  242ACOH    H410829   6.840   2.137   3.230 -1.5285  0.6187  1.4657
  242ACOH    O210830   6.763   2.107   3.179 -0.4165  0.1513  0.0256
  242ACOH    C210831   6.650   2.114   3.257  0.2539  0.1997  0.1296
  242ACOH    O110832   6.650   2.115   3.378  0.0337 -0.1778  1.2311
  242ACOH    C110833   6.519   2.091   3.188 -0.0013 -0.4266  0.2318
  242ACOH    H110834   6.520   2.143   3.092 -0.0883  0.5749  0.7621
  242ACOH    H210835   6.441   2.139   3.247 -1.7019  1.3221 -3.2806
  242ACOH    H310836   6.515   1.983   3.180 -0.2158 -0.4169  0.2024
  243ACOH    H410837   7.915   5.950   1.103  2.2295  1.1407 -1.5929
  243ACOH    O210838   7.889   6.041   1.126  0.3614  0.1323  0.3755
  243ACOH    C210839   7.958   6.128   1.051  0.7391 -0.9352 -0.5246
  243ACOH    O110840   8.013   6.109   0.946  0.0781 -0.0566  0.3047
  243ACOH    C110841   7.933   6.259   1.104  0.0702  0.0641 -0.2591
  243ACOH    H110842   8.018   6.327   1.101 -0.1125  0.5160  2.8820
  243ACOH    H210843   7.912   6.254   1.211 -0.3537  2.3806 -0.2197
  243ACOH    H310844   7.850   6.301   1.046  0.2895  2.7174  1.2755
  244ACOH    H410845   4.570   3.214   1.105 -0.0894  0.0913  0.2330
  244ACOH    O210846   4.477   3.190   1.095 -0.0409  0.0421 -0.1148
  244ACOH    C210847   4.418   3.202   1.216 -0.7000 -0.8711 -0.3529
  244ACOH    O110848   4.479   3.227   1.324  0.3189  0.2082  0.3365
  244ACOH    C110849   4.278   3.167   1.211  0.7638  0.2586 -0.4843
  244ACOH    H110850   4.266   3.071   1.260  1.3971 -0.2973 -1.4069
  244ACOH    H210851   4.243   3.167   1.108  0.5678 -1.8821 -0.4404
  244ACOH    H310852   4.212   3.231   1.269  0.4382 -0.5141 -0.0030
  245ACOH    H410853   7.809   5.462   2.345 -0.2337  1.4664  2.7493
  245ACOH    O210854   7.788   5.374   2.382  0.0280  0.1510 -0.0700
  245ACOH    C210855   7.693   5.399   2.475 -0.1223 -0.1278 -0.5215
  245ACOH    O110856   7.626   5.500   2.486  0.1007 -0.0424 -0.4495
  245ACOH    C110857   7.677   5.296   2.572  0.0099 -0.6995  0.3323
  245ACOH    H110858   7.769   5.285   2.628  0.4912 -0.9414 -0.4987
  245ACOH    H210859   7.660   5.198   2.528  0.3528 -1.3558  1.6579
  245ACOH    H310860   7.590   5.320   2.633 -0.8803  0.6899 -1.4158
  246ACOH    H410861   4.922   4.688   2.338 -0.2119 -2.0185 -0.1139
  246ACOH    O210862   4.964   4.685   2.426 -0.4770  0.0271  0.1157
  246ACOH    C210863   5.049   4.581   2.417 -0.0170  0.0759  0.3109
  246ACOH    O110864   5.083   4.541   2.309 -0.3824  0.5698 -0.1932
  246ACOH    C110865   5.103   4.534   2.548  0.5494 -0.7082 -0.3091
  246ACOH    H110866   5.036   4.568   2.627  0.6870 -2.1632  0.4539
  246ACOH    H210867   5.203   4.576   2.559  0.7906 -1.3352 -0.1112
  246ACOH    H310868   5.099   4.426   2.539  1.5549 -0.7836  0.1281
  247ACOH    H410869   8.251   0.882   3.744 -0.1555  0.9789 -0.4240
  247ACOH    O210870   8.168   0.851   3.705 -0.2362  0.0931  0.4447
  247ACOH    C210871   8.167   0.720   3.711  0.0089  0.1502 -0.1058
  247ACOH    O110872   8.261   0.648   3.681 -0.3469 -0.1713 -0.4868
  247ACOH    C110873   8.026   0.675   3.715 -0.6707 -0.9084 -0.4537
  247ACOH    H110874   7.951   0.736   3.765 -1.0819 -1.0058 -0.9417
  247ACOH    H210875   8.027   0.580   3.767 -1.2521 -1.7359 -1.9254
  247ACOH    H310876   8.002   0.650   3.611  0.7005 -2.0267 -0.5112
  248ACOH    H410877   5.361   4.515   0.682  0.2962  0.6614 -0.8389
  248ACOH    O210878   5.417   4.563   0.746 -0.3122 -0.1458  0.3234
  248ACOH    C210879   5.382   4.501   0.860 -0.1389 -0.2110  0.0260
  248ACOH    O110880   5.321   4.396   0.870 -0.2285  0.4301 -1.0499
  248ACOH    C110881   5.413   4.594   0.971 -0.7163  0.0675 -0.8906
  248ACOH    H110882   5.373   4.695   0.966 -1.2356 -0.0715  0.2583
  248ACOH    H210883   5.522   4.596   0.977 -0.6509  0.9426 -2.3538
  248ACOH    H310884   5.368   4.548   1.059  0.7571  0.7605  0.2592
  249ACOH    H410885   7.852   4.692   1.183  2.3962 -0.5764 -0.5899
  249ACOH    O210886   7.870   4.654   1.270 -0.3062 -0.3067  0.1424
  249ACOH    C210887   7.948   4.549   1.243 -1.0099 -0.1411  0.1069
  249ACOH    O110888   8.013   4.529   1.141  0.0083  0.7686 -0.0043
  249ACOH    C110889   7.959   4.454   1.358 -0.8555 -0.6012 -0.1527
  249ACOH    H110890   8.062   4.425   1.375 -0.4005 -0.5262 -2.5230
  249ACOH    H210891   7.900   4.365   1.337 -0.6090 -1.0781  1.1422
  249ACOH    H310892   7.918   4.501   1.447  0.3254 -0.9959  0.6027
  250ACOH    H410893   7.001   9.561   0.689  3.0762  0.8153 -1.6297
  250ACOH    O210894   6.947   9.634   0.656  0.9817  0.0916  0.0632
  250ACOH    C210895   6.826   9.613   0.706  0.5327 -0.4292  0.5764
  250ACOH    O110896   6.787   9.581   0.817  0.4774 -0.2386  0.0027
  250ACOH    C110897   6.730   9.647   0.595  0.3737  0.0626 -0.2886
  250ACOH    H110898   6.776   9.626   0.498  1.3104 -1.2734  0.4402
  250ACOH    H210899   6.708   9.754   0.598  0.5970  0.1793 -2.1278
  250ACOH    H310900   6.635   9.597   0.611  0.7157 -0.9789 -1.4286
  251ACOH    H410901   0.704  10.037   4.646  2.9100  0.1570  0.5008
  251ACOH    O210902   0.705   9.940   4.639 -0.2123  0.0941  0.2373
  251ACOH    C210903   0.823   9.901   4.695 -0.1800 -0.0467  0.0304
  251ACOH    O110904   0.882   9.952   4.785 -0.3453 -1.2663  0.2326
  251ACOH    C110905   0.856   9.762   4.663  0.3703 -0.1431 -0.3682
  251ACOH    H110906   0.767   9.700   4.675 -0.7399  1.3842 -0.5678
  251ACOH    H210907   0.939   9.712   4.713  0.2811  0.2958  0.2227
  251ACOH    H310908   0.877   9.758   4.556  0.5066 -1.8653 -0.2994
  252ACOH    H410909   7.035   1.991   3.677 -0.3693  1.4460 -1.3238
  252ACOH    O210910   7.093   2.020   3.749 -0.5985 -0.3086 -0.3884
  252ACOH    C210911   7.169   2.121   3.701 -0.2723 -0.4353 -0.2544
  252ACOH    O110912   7.159   2.159   3.583  0.2286  0.0748  0.0458
  252ACOH    C110913   7.269   2.162   3.800  0.5847 -0.0176  0.0365
  252ACOH    H110914   7.234   2.127   3.897 -1.9945  0.7337 -0.5806
  252ACOH    H210915   7.274   2.271   3.805 -0.6873  0.0696 -0.4675
  252ACOH    H310916   7.370   2.128   3.777  1.9777  3.6541  0.4854
  253ACOH    H410917   8.059   7.972   4.777  1.2526  1.4423 -0.7318
  253ACOH    O210918   8.023   8.026   4.850  0.5797 -0.1483  0.1594
  253ACOH    C210919   8.022   8.155   4.815  0.4386  0.4199 -0.8056
  253ACOH    O110920   8.076   8.201   4.716 -0.1546  0.3022 -0.2734
  253ACOH    C110921   7.985   8.243   4.933 -0.1826  0.2747 -0.0012
  253ACOH    H110922   7.922   8.326   4.902  2.1601  0.8989 -3.4123
  253ACOH    H210923   8.075   8.275   4.986  0.4254  0.2594 -0.9979
  253ACOH    H310924   7.931   8.177   5.000  0.8322 -0.1261  0.4324
  254ACOH    H410925   7.334   6.189   3.906 -0.3520  0.8138 -1.8408
  254ACOH    O210926   7.330   6.279   3.943  0.2238 -0.0600  0.4514
  254ACOH    C210927   7.217   6.284   4.010  0.5992 -0.1249  0.7106
  254ACOH    O110928   7.138   6.195   4.016  0.7033  0.3128  0.5671
  254ACOH    C110929   7.203   6.412   4.082  0.2785 -0.7763  0.1578
  254ACOH    H110930   7.100   6.430   4.111  0.6978  0.4905  0.9055
  254ACOH    H210931   7.236   6.495   4.021  0.0706  0.1651  1.3013
  254ACOH    H310932   7.265   6.405   4.172 -1.6571  1.5291  1.7382
  255ACOH    H410933   7.071   3.380   0.766  0.6671  0.1223  0.1527
  255ACOH    O210934   6.991   3.337   0.801  0.1412  0.6668 -0.3802
  255ACOH    C210935   7.039   3.226   0.859 -0.8876  0.6027 -0.6232
  255ACOH    O110936   7.152   3.176   0.866  0.3451 -0.2949  0.3667
  255ACOH    C110937   6.917   3.157   0.914 -0.1297 -0.2394 -0.3554
  255ACOH    H110938   6.923   3.049   0.900 -0.5451 -0.3035 -0.0624
  255ACOH    H210939   6.827   3.193   0.865 -0.1608  1.8287  1.1275
  255ACOH    H310940   6.911   3.185   1.019  0.8742  1.8397 -0.8308
  256ACOH    H410941   4.058   4.711   1.006 -0.6543 -1.5921  0.8963
  256ACOH    O210942   4.139   4.664   1.031  0.4541  0.0147  0.4390
  256ACOH    C210943   4.235   4.683   0.942  0.3125 -0.5986 -0.2830
  256ACOH    O110944   4.221   4.733   0.829  0.5720 -0.4873 -0.6591
  256ACOH    C110945   4.366   4.615   0.971  0.0511 -0.1218  0.6141
  256ACOH    H110946   4.369   4.522   0.914 -0.9248 -1.0231  1.9897
  256ACOH    H210947   4.373   4.573   1.072  1.6839 -0.5559  0.3452
  256ACOH    H310948   4.452   4.681   0.963 -1.7381  2.2674  0.7001
  257ACOH    H410949   6.911   4.876   5.432  3.0133 -1.9033 -0.0918
  257ACOH    O210950   6.897   4.839   5.521  0.4614  0.0256  0.3529
  257ACOH    C210951   6.868   4.936   5.604  0.2707  0.3849 -0.5655
  257ACOH    O110952   6.822   5.041   5.564 -0.7861 -0.0588 -0.3228
  257ACOH    C110953   6.898   4.897   5.745  0.3161  0.0238 -0.1193
  257ACOH    H110954   6.836   4.810   5.769 -0.2863  0.4875  0.0111
  257ACOH    H210955   6.857   4.972   5.812 -1.4723 -0.2329 -0.9101
  257ACOH    H310956   7.003   4.879   5.768  0.4330  1.4769  0.4979
  258ACOH    H410957   5.519   3.326   2.198  2.3089  1.8035 -2.5882
  258ACOH    O210958   5.530   3.238   2.159 -0.1407  0.1897  0.1793
  258ACOH    C210959   5.430   3.162   2.208 -0.5438  0.1052  0.1486
  258ACOH    O110960   5.322   3.216   2.236 -0.1446 -0.2510  0.3844
  258ACOH    C110961   5.439   3.025   2.160 -0.4186  0.1479  0.1167
  258ACOH    H110962   5.543   2.996   2.175 -1.1381 -1.8360  1.3710
  258ACOH    H210963   5.405   3.018   2.057 -3.6201 -0.1710  1.1310
  258ACOH    H310964   5.383   2.953   2.220 -0.3701 -0.6325 -0.7802
  259ACOH    H410965   8.274   9.101   3.366 -1.4314 -1.8668 -0.3993
  259ACOH    O210966   8.241   9.174   3.312 -0.1465 -1.2370 -0.3413
  259ACOH    C210967   8.159   9.247   3.389  1.0706  0.4452 -0.5379
  259ACOH    O110968   8.133   9.227   3.509  0.0296  0.2151 -0.0647
  259ACOH    C110969   8.108   9.361   3.316 -0.5105 -0.2224  0.3054
  259ACOH    H110970   7.999   9.360   3.325 -0.6954 -1.6488 -1.7055
  259ACOH    H210971   8.146   9.378   3.216 -0.7316  1.1473  0.4555
  259ACOH    H310972   8.144   9.451   3.365 -2.2820  1.6915 -1.8517
  260ACOH    H410973   5.944   6.608   3.162 -0.5354  0.2809 -0.0905
  260ACOH    O210974   5.856   6.582   3.129 -0.3237 -0.2388 -0.2485
  260ACOH    C210975   5.781   6.549   3.233  0.2619 -0.2099 -0.4576
  260ACOH    O110976   5.807   6.579   3.349  0.2122  0.0441  0.9058
  260ACOH    C110977   5.669   6.461   3.197  0.8405  0.5908 -0.3913
  260ACOH    H110978   5.580   6.502   3.244 -0.3443 -0.3950 -1.7220
  260ACOH    H210979   5.695   6.363   3.236  1.5978  1.6640  1.9144
  260ACOH    H310980   5.651   6.438   3.092 -0.9930 -1.7705  0.3900
  261ACOH    H410981   4.228   4.313   4.267 -1.4293 -0.2919  0.8378
  261ACOH    O210982   4.276   4.234   4.298  0.0891  0.0073 -0.6398
  261ACOH    C210983   4.407   4.271   4.315 -0.0479 -0.0860 -0.0858
  261ACOH    O110984   4.494   4.188   4.316 -0.2129  0.6095  0.1078
  261ACOH    C110985   4.429   4.414   4.352  0.2031 -0.4436 -0.4204
  261ACOH    H110986   4.409   4.474   4.263  1.6702 -2.5308 -2.2058
  261ACOH    H210987   4.534   4.428   4.378 -0.4039  0.0315  1.9027
  261ACOH    H310988   4.363   4.442   4.434  1.0018 -0.3191  0.1931
  262ACOH    H410989   9.988   0.899   2.458 -0.9332  0.8366 -1.1449
  262ACOH    O210990   9.911   0.847   2.428 -0.6715 -0.2954  0.0755
  262ACOH    C210991   9.948   0.733   2.375  0.2700  0.7893  0.5267
  262ACOH    O110992  10.052   0.698   2.324 -0.3460 -0.1514 -0.1167
  262ACOH    C110993   9.823   0.656   2.367 -0.2780  0.0369 -0.0714
  262ACOH    H110994   9.843   0.579   2.293 -0.0793 -1.1543  1.1893
  262ACOH    H210995   9.741   0.720   2.334  0.6447  0.2786 -1.9462
  262ACOH    H310996   9.805   0.607   2.463  3.2116 -0.2311  0.4872
  263ACOH    H410997   7.142   3.639   1.094 -0.7524 -0.3044 -2.1482
  263ACOH    O210998   7.089   3.719   1.112  0.0817 -0.0400 -0.7844
  263ACOH    C210999   7.167   3.802   1.179 -0.1925  0.0105  0.2935
  263ACOH    O111000   7.288   3.800   1.184 -0.3993 -0.7960  0.1619
  263ACOH    C111001   7.087   3.916   1.225 -0.2438 -0.4281 -0.1909
  263ACOH    H111002   6.980   3.908   1.203 -0.1196 -0.3411 -0.8386
  263ACOH    H211003   7.131   4.002   1.173  1.3626 -0.0039  1.8091
  263ACOH    H311004   7.096   3.942   1.330  0.4350 -1.8237  0.1026
  264ACOH    H411005   0.014   8.331   1.388  2.0594 -2.2087 -0.0572
  264ACOH    O211006  -0.012   8.320   1.295  0.0100 -0.2602  0.2237
  264ACOH    C211007   0.024   8.421   1.220 -0.6162 -0.5170 -0.5773
  264ACOH    O111008   0.121   8.488   1.256 -0.5844  0.0962 -0.1768
  264ACOH    C111009  -0.002   8.404   1.074 -0.0992 -0.0585 -0.0931
  264ACOH    H111010  -0.021   8.507   1.041 -0.7167 -0.5179 -1.2227
  264ACOH    H211011  -0.085   8.335   1.056 -0.3283  0.2130 -0.0916
  264ACOH    H311012   0.087   8.372   1.020 -0.5529  1.1752 -1.6423
  265ACOH    H411013   4.767   6.381   1.226 -1.2695 -0.6765  0.0846
  265ACOH    O211014   4.729   6.465   1.196 -0.1439 -0.3435 -0.4461
  265ACOH    C211015   4.733   6.555   1.293  0.0308  0.4740 -0.0285
  265ACOH    O111016   4.771   6.535   1.410 -0.4099 -0.2508 -0.6029
  265ACOH    C111017   4.677   6.685   1.258  0.2557  0.2237 -0.1069
  265ACOH    H111018   4.755   6.760   1.273  2.2542 -1.1824 -2.7824
  265ACOH    H211019   4.593   6.703   1.324 -0.1817  0.4872 -0.7347
  265ACOH    H311020   4.647   6.694   1.153  0.4832 -1.7481 -0.3688
  266ACOH    H411021   4.180   4.879   0.475  0.8279  2.2108  0.8809
  266ACOH    O211022   4.107   4.933   0.443 -0.1845  0.6371  0.4465
  266ACOH    C211023   4.134   5.053   0.494 -0.5803  0.4285 -0.2283
  266ACOH    O111024   4.241   5.100   0.536 -0.2495 -0.1431 -0.5863
  266ACOH    C111025   4.023   5.143   0.472  0.3396 -0.4918 -0.1563
  266ACOH    H111026   3.928   5.105   0.510  0.8799 -1.1032  0.6218
  266ACOH    H211027   4.017   5.155   0.364 -0.7030 -4.8417 -0.6771
  266ACOH    H311028   4.043   5.243   0.513  0.2946 -0.6233  0.1904
  267ACOH    H411029   3.191   5.052   0.415  0.9175  1.5388 -1.8209
  267ACOH    O211030   3.113   5.025   0.363 -0.0377 -0.0089  0.3578
  267ACOH    C211031   3.003   5.060   0.433  0.5251  1.0195  0.0666
  267ACOH    O111032   2.999   5.135   0.527  0.3854  0.8759 -0.1424
  267ACOH    C111033   2.888   5.003   0.360  0.4196  0.6611 -0.2213
  267ACOH    H111034   2.907   5.009   0.253  3.0242 -0.5063  0.1397
  267ACOH    H211035   2.798   5.063   0.375 -0.1416  0.1129 -1.3387
  267ACOH    H311036   2.879   4.898   0.389 -0.2419  0.4110 -1.3312
  268ACOH    H411037   7.736   0.895   5.560 -2.9684  1.3142 -4.1617
  268ACOH    O211038   7.734   0.802   5.533 -0.1531  0.0347 -0.5099
  268ACOH    C211039   7.599   0.786   5.546 -0.0084 -0.0262 -0.1752
  268ACOH    O111040   7.513   0.866   5.580  0.0096 -0.5519 -0.6462
  268ACOH    C111041   7.572   0.641   5.526  0.0646  0.0185 -0.2726
  268ACOH    H111042   7.590   0.606   5.424  0.4441 -0.2644 -0.1147
  268ACOH    H211043   7.472   0.618   5.562 -0.3886  1.1763 -0.7752
  268ACOH    H311044   7.635   0.588   5.598  0.4613  0.1905 -0.4883
  269ACOH    H411045   7.921   6.581   0.555  0.6901 -0.5027  1.4981
  269ACOH    O211046   7.837   6.534   0.569  0.3321 -0.2224  0.3560
  269ACOH    C211047   7.848   6.446   0.667  0.6500  0.7175  0.4973
  269ACOH    O111048   7.948   6.415   0.724 -0.1892  0.0694  0.0015
  269ACOH    C111049   7.734   6.354   0.679  0.1089  0.2467 -0.6911
  269ACOH    H111050   7.768   6.255   0.648 -0.9744 -0.0574 -0.9357
  269ACOH    H211051   7.648   6.381   0.617  0.7174  0.5835 -1.3948
  269ACOH    H311052   7.712   6.358   0.786  0.0567 -1.7671 -0.5981
  270ACOH    H411053   6.959   4.099   4.960  1.3075  1.0468 -1.0991
  270ACOH    O211054   6.939   4.026   4.898 -0.1809  0.1337  0.4213
  270ACOH    C211055   6.908   3.921   4.978 -0.3131 -0.6565 -0.3567
  270ACOH    O111056   6.936   3.908   5.095 -0.3445 -0.3284  0.2485
  270ACOH    C111057   6.854   3.807   4.900  0.1350  0.2774  0.4551
  270ACOH    H111058   6.780   3.760   4.965 -0.8917  0.7912 -0.3320
  270ACOH    H211059   6.930   3.730   4.885 -0.3849 -0.7079  2.7055
  270ACOH    H311060   6.817   3.839   4.803  1.9548 -0.7422 -0.6210
  271ACOH    H411061   3.732   2.429   3.174 -1.8105  0.9628 -0.8774
  271ACOH    O211062   3.754   2.460   3.085  0.4242  0.0497 -0.6887
  271ACOH    C211063   3.882   2.479   3.084 -0.1914  0.6018  0.3770
  271ACOH    O111064   3.964   2.459   3.174 -0.2440  0.0405 -0.2484
  271ACOH    C111065   3.921   2.542   2.954  0.0333  0.6860 -0.4157
  271ACOH    H111066   3.933   2.649   2.974 -0.3900  0.5160  0.8088
  271ACOH    H211067   3.856   2.530   2.868 -1.0859  0.5659  0.4403
  271ACOH    H311068   4.013   2.492   2.925  0.5595  2.5865 -2.1947
  272ACOH    H411069   8.712   0.562   4.737 -0.3226 -0.4969 -2.7273
  272ACOH    O211070   8.648   0.635   4.740  0.4271  0.1130  0.0403
  272ACOH    C211071   8.692   0.732   4.659 -0.0435 -0.0151 -0.1917
  272ACOH    O111072   8.801   0.741   4.607  0.3456  0.1560  0.3443
  272ACOH    C111073   8.586   0.833   4.632  0.4792 -0.7583 -0.4127
  272ACOH    H111074   8.633   0.930   4.616 -3.7479  1.5330  0.2675
  272ACOH    H211075   8.517   0.846   4.715 -0.6056 -1.6793 -1.1533
  272ACOH    H311076   8.535   0.806   4.539  0.7543 -2.4766 -0.0729
  273ACOH    H411077   6.190   0.138   0.675  1.3055 -0.5099  0.3036
  273ACOH    O211078   6.252   0.172   0.608  0.8958 -0.8802 -0.2680
  273ACOH    C211079   6.184   0.210   0.504 -0.5477 -0.0157  0.0998
  273ACOH    O111080   6.065   0.204   0.487  0.0600  0.2947 -0.4860
  273ACOH    C111081   6.271   0.268   0.402  0.1620  1.0387 -0.5577
  273ACOH    H111082   6.260   0.376   0.390 -0.4881  1.0766  0.3524
  273ACOH    H211083   6.243   0.225   0.306 -0.4048  0.6221 -0.2111
  273ACOH    H311084   6.378   0.246   0.414 -0.6362 -2.4919  0.8877
  274ACOH    H411085   8.048   3.875   2.723 -1.4219  0.9286 -2.1225
  274ACOH    O211086   7.976   3.894   2.786 -0.2093 -0.5030 -0.2710
  274ACOH    C211087   7.869   3.815   2.756  0.3259 -0.0086  0.1387
  274ACOH    O111088   7.865   3.729   2.666  0.3355 -0.4108 -0.4428
  274ACOH    C111089   7.748   3.852   2.827 -0.0317 -0.4123 -0.0028
  274ACOH    H111090   7.785   3.939   2.882  0.4261 -0.5157 -0.1401
  274ACOH    H211091   7.714   3.774   2.895 -1.7904  0.2944 -0.0564
  274ACOH    H311092   7.673   3.881   2.755  0.0836  1.3757  0.5746
  275ACOH    H411093   6.214   8.078   3.889  1.8523 -0.3470  0.4909
  275ACOH    O211094   6.161   8.028   3.954  0.2332  0.6003 -0.0592
  275ACOH    C211095   6.109   8.119   4.036 -1.2211  0.2926  0.0389
  275ACOH    O111096   6.144   8.233   4.054  0.5572 -0.6231 -0.3712
  275ACOH    C111097   6.000   8.059   4.123  0.0240  0.4677  0.4819
  275ACOH    H111098   5.939   8.137   4.168  0.6375  1.8382 -0.9644
  275ACOH    H211099   6.053   7.999   4.196  1.1851  1.2409  0.2947
  275ACOH    H311100   5.936   7.999   4.059  0.4535 -1.0706  1.4868
  276ACOH    H411101   5.392   4.227   2.249 -1.5717  0.9153  0.9455
  276ACOH    O211102   5.429   4.306   2.205 -0.1415 -0.0696  0.3780
  276ACOH    C211103   5.384   4.309   2.080  0.0603  0.9130  0.2070
  276ACOH    O111104   5.307   4.225   2.032 -0.3039 -0.0242 -0.1092
  276ACOH    C111105   5.417   4.443   2.027  0.0269 -0.1940  0.4978
  276ACOH    H111106   5.517   4.476   2.053  1.0906 -1.9013 -1.3299
  276ACOH    H211107   5.352   4.523   2.063 -0.0860 -1.2737  2.8035
  276ACOH    H311108   5.410   4.456   1.919 -1.9260  0.6749  0.7014
  277ACOH    H411109   7.222   2.838   5.372  0.8029  0.8362 -0.4348
  277ACOH    O211110   7.160   2.863   5.442  0.6644 -0.2366 -0.1632
  277ACOH    C211111   7.222   2.945   5.524 -0.4845 -0.3794 -0.5734
  277ACOH    O111112   7.296   3.036   5.494  0.1961 -0.2330  0.3381
  277ACOH    C111113   7.160   2.928   5.659  0.2842 -1.1485 -0.4341
  277ACOH    H111114   7.197   2.992   5.739  1.6397  0.3966 -2.2471
  277ACOH    H211115   7.179   2.828   5.698 -2.8140 -1.0855  1.4017
  277ACOH    H311116   7.051   2.931   5.652  0.4191  1.6078 -2.0352
  278ACOH    H411117   1.693   4.072   4.377 -0.8538 -0.2635 -0.0939
  278ACOH    O211118   1.744   4.007   4.326 -1.2777 -0.3828 -0.3695
  278ACOH    C211119   1.846   3.963   4.404 -0.1375 -0.4960 -0.1590
  278ACOH    O111120   1.848   3.984   4.522 -0.1557  0.1784 -0.7038
  278ACOH    C111121   1.921   3.854   4.336 -0.1524 -0.2405 -0.8355
  278ACOH    H111122   1.888   3.761   4.383 -0.7298  0.7018  0.6573
  278ACOH    H211123   2.028   3.863   4.354 -0.2433  0.9787 -0.8787
  278ACOH    H311124   1.893   3.855   4.231 -1.0701  0.9516 -0.5809
  279ACOH    H411125   5.228   2.700   2.419 -2.9687  1.2309  2.8420
  279ACOH    O211126   5.276   2.664   2.495 -0.0038 -0.4315  0.2966
  279ACOH    C211127   5.186   2.612   2.576 -0.4031 -0.4819  0.1665
  279ACOH    O111128   5.069   2.643   2.570 -0.0720  0.2187  0.6139
  279ACOH    C111129   5.248   2.556   2.699  0.1263  0.1422  0.2432
  279ACOH    H111130   5.196   2.478   2.754  1.3159 -1.9387 -1.4805
  279ACOH    H211131   5.268   2.642   2.762  1.0260  0.5340 -0.5627
  279ACOH    H311132   5.345   2.520   2.663 -0.6673  1.7055 -3.7830
  280ACOH    H411133   7.123   5.126   4.395 -0.2314 -1.7360 -1.8365
  280ACOH    O211134   7.072   5.185   4.337  0.0257 -0.3710 -0.7199
  280ACOH    C211135   7.004   5.270   4.428  0.5182  0.0937 -0.0687
  280ACOH    O111136   7.055   5.311   4.527 -0.1228  0.1682  0.0330
  280ACOH    C111137   6.888   5.342   4.365 -0.4196 -0.1608  0.0401
  280ACOH    H111138   6.806   5.324   4.434 -1.4675  0.3631 -1.0407
  280ACOH    H211139   6.866   5.299   4.267 -1.3387  0.6563 -0.1275
  280ACOH    H311140   6.915   5.448   4.369  1.7648 -0.6449 -1.1908
  281ACOH    H411141   6.533   2.144   3.492 -3.5650 -0.6570 -2.6187
  281ACOH    O211142   6.469   2.163   3.563 -0.2802  0.5805  0.1455
  281ACOH    C211143   6.374   2.066   3.554  0.3945 -0.5250 -0.7385
  281ACOH    O111144   6.341   1.994   3.459  0.5537  0.3319  0.0309
  281ACOH    C111145   6.299   2.070   3.680  0.4686  0.7911  0.2933
  281ACOH    H111146   6.352   2.006   3.751 -0.7874  0.3203  0.8219
  281ACOH    H211147   6.196   2.038   3.664  1.1008 -1.5971  0.8497
  281ACOH    H311148   6.297   2.172   3.720 -3.8241 -0.0386  2.4482
  282ACOH    H411149   4.596   8.221   5.411 -2.1507  0.1169  0.8377
  282ACOH    O211150   4.610   8.137   5.459 -0.4616 -0.0881 -0.0061
  282ACOH    C211151   4.525   8.051   5.400  0.0407  0.6381  0.3894
  282ACOH    O111152   4.457   8.057   5.299  0.2969  0.0288 -0.4886
  282ACOH    C111153   4.524   7.927   5.485  0.7576  0.9877 -0.5674
  282ACOH    H111154   4.424   7.915   5.525  1.8571 -1.6793  1.5853
  282ACOH    H211155   4.598   7.920   5.565  0.3463  1.0558 -0.1827
  282ACOH    H311156   4.545   7.838   5.425 -1.6260  1.0133 -1.4901
  283ACOH    H411157   3.725   5.719   4.131 -0.5060 -0.5620  1.1836
  283ACOH    O211158   3.796   5.754   4.187 -0.1231  0.1717  0.2595
  283ACOH    C211159   3.892   5.666   4.206  0.0743 -0.1573  1.7335
  283ACOH    O111160   3.889   5.545   4.190 -0.3034 -1.0378 -0.2097
  283ACOH    C111161   4.008   5.733   4.267 -0.6983  0.6894 -0.9100
  283ACOH    H111162   4.071   5.661   4.320 -1.4531 -0.5382 -1.6668
  283ACOH    H211163   3.964   5.799   4.342  0.5507 -1.4882  1.8393
  283ACOH    H311164   4.072   5.786   4.198  2.9185 -0.0810  1.7090
  284ACOH    H411165   6.958   3.360   5.202  0.5536 -1.4685 -1.3335
  284ACOH    O211166   6.877   3.343   5.151 -0.5629 -0.5560  0.0993
  284ACOH    C211167   6.887   3.426   5.038  0.0034  0.0124 -0.0533
  284ACOH    O111168   6.787   3.458   4.986 -0.4220 -0.5906  0.4234
  284ACOH    C111169   7.013   3.492   5.020 -0.2597  0.3071  0.2445
  284ACOH    H111170   7.021   3.552   5.111 -0.6641 -0.1848  0.6098
  284ACOH    H211171   7.015   3.558   4.933 -0.9968  2.0120  1.5046
  284ACOH    H311172   7.098   3.424   5.019 -0.6624 -0.2852  2.6835
  285ACOH    H411173   8.832   6.896   5.364  3.0068 -1.0796 -0.8941
  285ACOH    O211174   8.867   6.986   5.378 -0.1175  0.1215 -0.2992
  285ACOH    C211175   8.836   6.997   5.514 -0.6369 -0.1115  0.0988
  285ACOH    O111176   8.761   6.935   5.577  0.1144  1.1733  0.0724
  285ACOH    C111177   8.897   7.116   5.576 -0.8535  0.4459  0.2522
  285ACOH    H111178   8.908   7.202   5.510 -0.4871 -0.4473 -0.8848
  285ACOH    H211179   8.997   7.093   5.612  0.2356  1.9672 -1.6790
  285ACOH    H311180   8.834   7.150   5.658 -1.6071 -1.8831  0.6770
  286ACOH    H411181   6.622   2.144   2.896  0.9646 -0.6435  0.7035
  286ACOH    O211182   6.661   2.232   2.908 -0.7576  0.3148 -0.4966
  286ACOH    C211183   6.763   2.260   2.828 -0.0365  0.5080 -0.6450
  286ACOH    O111184   6.813   2.184   2.750 -0.2057 -0.3231  0.4579
  286ACOH    C111185   6.803   2.405   2.845  0.4031  0.1979  0.1003
  286ACOH    H111186   6.786   2.454   2.749  0.8872  0.5956  0.2196
  286ACOH    H211187   6.906   2.427   2.874  1.0102 -0.8133 -1.2381
  286ACOH    H311188   6.743   2.452   2.922 -0.5043  2.2681 -1.8099
  287ACOH    H411189   2.588   3.140   3.441 -0.4419  2.7422  1.6840
  287ACOH    O211190   2.655   3.179   3.383 -0.0709 -0.4888 -0.1952
  287ACOH    C211191   2.611   3.171   3.252  0.0886 -0.8916 -0.2482
  287ACOH    O111192   2.508   3.117   3.219 -0.1614  0.0159  0.2256
  287ACOH    C111193   2.703   3.256   3.165  0.1705  0.1614 -0.7373
  287ACOH    H111194   2.751   3.189   3.094  0.4461  1.9193 -2.2615
  287ACOH    H211195   2.780   3.304   3.226  1.0802  0.6084 -2.1931
  287ACOH    H311196   2.654   3.335   3.108 -1.5673  1.8094  2.8773
  288ACOH    H411197   5.648   3.566   0.430  0.0061 -0.1334  0.5779
  288ACOH    O211198   5.674   3.479   0.464  0.4527 -0.2698 -0.1066
  288ACOH    C211199   5.795   3.435   0.416 -0.4263  0.0083 -0.6782
  288ACOH    O111200   5.860   3.487   0.327 -0.2887  0.3170  0.6789
  288ACOH    C111201   5.823   3.297   0.468 -0.2846  0.2028  0.2029
  288ACOH    H111202   5.841   3.229   0.384 -1.8084  0.1364 -0.0970
  288ACOH    H211203   5.732   3.261   0.517 -0.3496 -1.3016 -0.9786
  288ACOH    H311204   5.908   3.297   0.535 -0.2467 -1.2556  0.1785
  289ACOH    H411205   5.336   5.267   0.607 -1.6321 -0.4507  0.5919
  289ACOH    O211206   5.327   5.360   0.633  0.3384 -0.2129  0.5165
  289ACOH    C211207   5.197   5.392   0.616  0.2127 -0.1212 -0.9630
  289ACOH    O111208   5.108   5.315   0.605  0.9814 -0.3161 -0.7921
  289ACOH    C111209   5.166   5.536   0.651  0.0388  0.1211 -0.1306
  289ACOH    H111210   5.250   5.603   0.636 -0.6204  1.0048  0.0575
  289ACOH    H211211   5.117   5.546   0.748  0.2656  1.6420 -0.1605
  289ACOH    H311212   5.086   5.573   0.586  0.6847  1.7616  0.0010
  290ACOH    H411213   5.282   8.618   0.011 -1.2892 -0.2793 -0.0281
  290ACOH    O211214   5.327   8.583   0.090  0.3579  0.7298 -0.4849
  290ACOH    C211215   5.242   8.589   0.192 -1.1597  0.0456  0.5612
  290ACOH    O111216   5.133   8.632   0.188  0.1934 -0.7855  0.1955
  290ACOH    C111217   5.301   8.527   0.309  0.0226  0.7304 -0.1764
  290ACOH    H111218   5.333   8.596   0.387  1.3470 -1.0990  0.9597
  290ACOH    H211219   5.387   8.468   0.277  0.9074  1.6105  0.5716
  290ACOH    H311220   5.235   8.459   0.364  0.4950  2.0791  2.1058
  291ACOH    H411221   7.631   5.212   3.640  0.0783 -0.0260 -0.4378
  291ACOH    O211222   7.571   5.138   3.661  0.1571 -0.2316 -0.9168
  291ACOH    C211223   7.452   5.158   3.598 -0.3380 -0.7907  0.2455
  291ACOH    O111224   7.408   5.267   3.564 -0.6272 -0.1971  0.6193
  291ACOH    C111225   7.368   5.035   3.618 -0.2538  0.6764  0.3079
  291ACOH    H111226   7.410   4.956   3.556 -0.5775 -0.0780  1.0366
  291ACOH    H211227   7.263   5.059   3.599 -0.3165  0.2160  0.0687
  291ACOH    H311228   7.386   4.996   3.718 -0.9723 -0.7556 -0.1212
  292ACOH    H411229   4.558   3.768   2.876 -1.0708  0.4279 -0.2728
  292ACOH    O211230   4.587   3.827   2.948 -0.3763 -0.0867 -0.1313
  292ACOH    C211231   4.600   3.748   3.055 -0.0497 -1.1399  0.5941
  292ACOH    O111232   4.570   3.630   3.071  0.2456  0.5503 -0.2339
  292ACOH    C111233   4.649   3.826   3.170  0.0223  0.2869 -0.6801
  292ACOH    H111234   4.588   3.815   3.259  0.3194  0.1438 -0.4917
  292ACOH    H211235   4.656   3.931   3.141 -0.9132  0.7996  0.9252
  292ACOH    H311236   4.750   3.788   3.191 -0.5118 -0.3663  0.7760
  293ACOH    H411237   7.361   1.513   5.152 -0.3255 -1.6600  1.9645
  293ACOH    O211238   7.270   1.485   5.134 -0.4359 -0.0114 -0.1888
  293ACOH    C211239   7.231   1.376   5.206  0.2187  0.0398  0.0333
  293ACOH    O111240   7.307   1.286   5.241  0.0462  1.0517  0.2276
  293ACOH    C111241   7.086   1.353   5.204  0.0772 -0.0351  0.3536
  293ACOH    H111242   7.052   1.331   5.305 -2.0293 -0.4689 -0.4169
  293ACOH    H211243   7.058   1.266   5.144  0.2648 -0.4044  0.7978
  293ACOH    H311244   7.033   1.441   5.167  2.7109  0.9076 -1.3226
  294ACOH    H411245   5.029   4.136   1.712  0.1882  3.1612 -1.2260
  294ACOH    O211246   5.117   4.097   1.699 -1.0879 -0.4226  0.1448
  294ACOH    C211247   5.135   3.970   1.748 -0.2231  0.0423 -0.0661
  294ACOH    O111248   5.045   3.908   1.801  0.1336 -0.2833 -0.2755
  294ACOH    C111249   5.262   3.901   1.698  0.6272 -0.1399 -0.0229
  294ACOH    H111250   5.267   3.939   1.596  1.5901 -1.1477 -0.3655
  294ACOH    H211251   5.256   3.793   1.694  0.5917 -0.1553  0.4410
  294ACOH    H311252   5.357   3.920   1.747 -0.4061  1.5735  1.3759
  295ACOH    H411253   4.128   5.412   2.324  1.7073  0.1052  0.5503
  295ACOH    O211254   4.194   5.411   2.253  0.9022 -0.0224 -0.2035
  295ACOH    C211255   4.188   5.288   2.196  0.7066 -0.0612 -0.0183
  295ACOH    O111256   4.088   5.212   2.199  0.1825 -0.3863  0.1327
  295ACOH    C111257   4.312   5.267   2.127  0.2108  0.8448 -0.4855
  295ACOH    H111258   4.313   5.170   2.076  0.8428 -0.0483  1.2071
  295ACOH    H211259   4.402   5.279   2.187 -0.7667  0.3638  1.1108
  295ACOH    H311260   4.323   5.344   2.050  0.7484 -1.6425 -2.9988
  296ACOH    H411261   7.714   3.446   2.425 -0.7960  0.0375 -0.9011
  296ACOH    O211262   7.639   3.386   2.414 -0.8399 -0.1849  0.4886
  296ACOH    C211263   7.638   3.324   2.293 -0.0837  0.8235  0.5896
  296ACOH    O111264   7.700   3.358   2.193  0.0323 -0.0844 -0.2548
  296ACOH    C111265   7.524   3.224   2.287  0.6128 -0.5869 -0.3153
  296ACOH    H111266   7.518   3.194   2.183 -0.4452 -0.1741 -0.3759
  296ACOH    H211267   7.431   3.276   2.310  0.5194 -0.8227 -0.1476
  296ACOH    H311268   7.539   3.139   2.354 -1.5451 -1.2370 -0.6147
  297ACOH    H411269   5.339   7.321   4.150 -0.7310 -0.2445  2.6721
  297ACOH    O211270   5.355   7.227   4.131  0.6831  0.4025  0.3532
  297ACOH    C211271   5.242   7.153   4.125  0.3271  0.0471  0.5662
  297ACOH    O111272   5.123   7.199   4.132 -0.2377  0.5253  0.0113
  297ACOH    C111273   5.267   7.010   4.084 -0.6798  0.1754 -0.4115
  297ACOH    H111274   5.372   6.990   4.107  0.0785  1.2746 -2.7321
  297ACOH    H211275   5.237   7.000   3.980 -3.5968 -1.1319  0.5068
  297ACOH    H311276   5.201   6.949   4.145 -0.2597  0.0831 -0.0448
  298ACOH    H411277   5.667   2.244   2.702  0.1286  0.5167 -1.1222
  298ACOH    O211278   5.697   2.256   2.794 -0.2672  0.0594 -0.9334
  298ACOH    C211279   5.824   2.209   2.788  0.3011 -0.5558 -0.1660
  298ACOH    O111280   5.876   2.157   2.692  0.0598 -0.3490 -0.2480
  298ACOH    C111281   5.902   2.271   2.900  0.3311 -0.1953 -0.3176
  298ACOH    H111282   6.005   2.237   2.887  1.1554  2.5674 -1.3542
  298ACOH    H211283   5.856   2.229   2.990 -0.5726 -3.6168 -2.2810
  298ACOH    H311284   5.910   2.379   2.893  4.0499 -0.4461 -1.0885
  299ACOH    H411285   3.900   5.350   0.789 -2.7150 -1.8470  0.3923
  299ACOH    O211286   3.855   5.423   0.743  0.1847 -0.1359  0.1321
  299ACOH    C211287   3.891   5.535   0.806  0.5996 -0.4148  0.5016
  299ACOH    O111288   4.004   5.563   0.832 -0.2453  0.2708 -0.6311
  299ACOH    C111289   3.800   5.644   0.765 -0.0559 -0.3335 -0.5056
  299ACOH    H111290   3.704   5.612   0.806 -1.5196  2.6833 -1.4766
  299ACOH    H211291   3.791   5.648   0.657  0.5165  1.3625 -0.4933
  299ACOH    H311292   3.829   5.743   0.798  0.1936 -0.1664 -1.2353
  300ACOH    H411293   2.818   4.648   2.837  0.9134  0.5977 -1.2125
  300ACOH    O211294   2.897   4.629   2.890  0.2340  0.7490 -0.1393
  300ACOH    C211295   2.873   4.550   2.998  0.5613  0.4633  0.2910
  300ACOH    O111296   2.762   4.501   3.023 -0.0821 -0.7154  0.5708
  300ACOH    C111297   2.996   4.498   3.054  0.2785  0.0142  0.0196
  300ACOH    H111298   3.066   4.581   3.058 -2.3037  2.2096  1.4711
  300ACOH    H211299   3.043   4.417   2.998 -1.5134 -0.9198 -0.1932
  300ACOH    H311300   2.977   4.457   3.154  0.1254 -0.9776 -0.4121
  301ACOH    H411301   7.983   2.526   4.182  0.6382 -0.9973  1.1397
  301ACOH    O211302   7.913   2.571   4.232  0.0068 -0.4522 -0.1901
  301ACOH    C211303   7.873   2.686   4.177 -0.3365  0.1108  0.3018
  301ACOH    O111304   7.875   2.702   4.056 -0.5203  0.3350  0.4806
  301ACOH    C111305   7.783   2.760   4.262  0.3538  0.4394  0.3453
  301ACOH    H111306   7.833   2.774   4.358  0.9365  1.0867 -0.0520
  301ACOH    H211307   7.692   2.701   4.274  0.0356  0.7178 -0.6040
  301ACOH    H311308   7.751   2.853   4.217  3.3041  0.8991 -0.9298
  302ACOH    H411309   7.246   1.427   4.405 -0.5420  0.3330  0.6554
  302ACOH    O211310   7.190   1.411   4.326  0.1825 -0.3728  0.2703
  302ACOH    C211311   7.254   1.473   4.218  0.4574 -0.7480  0.3898
  302ACOH    O111312   7.357   1.538   4.223 -0.0269 -0.1180 -0.0583
  302ACOH    C111313   7.165   1.473   4.095  0.0931  0.9072 -0.7088
  302ACOH    H111314   7.102   1.561   4.095 -1.4680 -0.1861 -0.0356
  302ACOH    H211315   7.105   1.382   4.100  1.7020 -0.2344 -1.4789
  302ACOH    H311316   7.227   1.470   4.005  0.7871 -2.7250 -0.2120
  303ACOH    H411317   2.538   3.257   1.862  0.0436 -0.3318  2.9223
  303ACOH    O211318   2.470   3.188   1.855 -0.1032  0.0370  0.2223
  303ACOH    C211319   2.367   3.219   1.934  0.8109  0.3247  0.2294
  303ACOH    O111320   2.346   3.337   1.963  0.7954 -0.7499 -0.5603
  303ACOH    C111321   2.272   3.106   1.929  0.2476 -0.0079 -0.3085
  303ACOH    H111322   2.182   3.143   1.880 -0.2103  0.1760  0.6714
  303ACOH    H211323   2.254   3.080   2.033  3.3157 -1.1743 -0.0053
  303ACOH    H311324   2.303   3.016   1.876 -0.9876 -0.5776 -0.0823
  304ACOH    H411325   4.942   4.586   4.912  3.7204 -1.0654 -0.4094
  304ACOH    O211326   4.907   4.506   4.870 -0.2961  0.3061  0.0817
  304ACOH    C211327   4.934   4.405   4.958  0.0777 -0.5422  0.3567
  304ACOH    O111328   4.984   4.423   5.068  0.1882 -0.5326 -0.3114
  304ACOH    C111329   4.886   4.267   4.918  0.0433  0.6925 -0.5519
  304ACOH    H111330   4.920   4.202   4.998  0.9572  1.5198 -0.2468
  304ACOH    H211331   4.913   4.236   4.817 -0.7164 -0.5254 -0.3816
  304ACOH    H311332   4.777   4.268   4.919 -0.0749 -3.7064  2.6366
  305ACOH    H411333   7.797   2.414   3.195  0.7656  0.1746  0.4240
  305ACOH    O211334   7.741   2.478   3.243  0.5271  0.1566  0.1681
  305ACOH    C211335   7.800   2.479   3.368  0.0961 -0.1053 -0.1566
  305ACOH    O111336   7.902   2.427   3.409  0.3864  0.0968 -0.7337
  305ACOH    C111337   7.715   2.552   3.463 -0.4457 -0.2341 -0.3325
  305ACOH    H111338   7.709   2.503   3.560  0.1104 -0.1684 -0.2647
  305ACOH    H211339   7.612   2.548   3.429 -0.7950  1.8051  0.4199
  305ACOH    H311340   7.746   2.656   3.469  1.1169 -0.6433 -0.9609
  306ACOH    H411341   9.489   1.812   3.908  2.6644  1.0308  2.1550
  306ACOH    O211342   9.487   1.884   3.842 -0.0309 -1.0730 -0.2175
  306ACOH    C211343   9.455   1.829   3.727  0.8881  0.5826 -0.5272
  306ACOH    O111344   9.443   1.707   3.704  0.4254  0.3231 -0.1001
  306ACOH    C111345   9.483   1.922   3.613  0.4049  0.1909  0.1446
  306ACOH    H111346   9.560   1.882   3.548  1.1713 -0.1574  1.2441
  306ACOH    H211347   9.507   2.026   3.636 -0.5157  0.2579  0.8327
  306ACOH    H311348   9.390   1.922   3.557 -0.1411 -0.9642  1.0274
  307ACOH    H411349   1.429   5.789   5.206  0.5820 -1.9538 -1.1234
  307ACOH    O211350   1.333   5.802   5.210  0.9380  0.4815  0.0271
  307ACOH    C211351   1.302   5.801   5.343 -0.3010  0.3946 -0.4075
  307ACOH    O111352   1.387   5.816   5.432  0.4222 -0.1602  0.6874
  307ACOH    C111353   1.157   5.828   5.359 -0.5694 -0.2871 -0.0645
  307ACOH    H111354   1.128   5.762   5.441  0.6682 -0.9744 -0.1589
  307ACOH    H211355   1.094   5.806   5.273 -1.6586  1.8655  0.1522
  307ACOH    H311356   1.139   5.928   5.399  0.2071  0.0199 -0.4876
  308ACOH    H411357   3.859   6.990   4.366  0.1008  0.7384 -0.5105
  308ACOH    O211358   3.888   6.942   4.287  0.4046  0.4022 -0.1949
  308ACOH    C211359   3.979   6.855   4.331  0.0713 -0.1909  0.7988
  308ACOH    O111360   4.034   6.861   4.441 -0.4305  0.0719  0.0318
  308ACOH    C111361   4.016   6.757   4.224 -0.0116  0.3424  0.5271
  308ACOH    H111362   4.030   6.816   4.134  0.7059 -1.9002 -0.8511
  308ACOH    H211363   3.952   6.669   4.230 -0.9383  1.0216  0.9447
  308ACOH    H311364   4.117   6.726   4.248 -0.3649 -2.0123 -0.8332
  309ACOH    H411365   7.935   5.810   0.314 -2.2978 -0.9370  2.0911
  309ACOH    O211366   7.861   5.817   0.251 -0.3329  0.0869 -0.1711
  309ACOH    C211367   7.880   5.923   0.173 -0.3554 -0.0450  0.1065
  309ACOH    O111368   7.973   5.997   0.176  0.7917  0.0788  0.1469
  309ACOH    C111369   7.787   5.934   0.058  0.2172 -0.0193 -0.7146
  309ACOH    H111370   7.744   6.034   0.067 -1.4109 -0.4383 -3.3392
  309ACOH    H211371   7.712   5.855   0.051  0.9585 -0.7428 -0.5231
  309ACOH    H311372   7.847   5.924  -0.033  2.0579  0.3822  0.4387
  310ACOH    H411373   5.675   1.835   2.608 -0.7192 -0.6158 -0.0841
  310ACOH    O211374   5.599   1.884   2.643 -0.3544 -0.0380 -0.0803
  310ACOH    C211375   5.613   1.895   2.773  0.1001  0.1527 -0.3577
  310ACOH    O111376   5.713   1.869   2.839 -0.9956  0.0848 -0.8167
  310ACOH    C111377   5.492   1.957   2.847 -0.1304 -0.9623  0.3147
  310ACOH    H111378   5.524   1.989   2.946  1.4128  0.3147 -0.5735
  310ACOH    H211379   5.410   1.885   2.846  0.1929 -1.3323 -0.0599
  310ACOH    H311380   5.463   2.041   2.784 -0.0143 -1.2501 -0.1308
  311ACOH    H411381   5.924   0.955   0.677  2.8622 -0.8509  5.2518
  311ACOH    O211382   6.004   0.994   0.637  0.0164 -0.2403 -0.2824
  311ACOH    C211383   6.084   1.041   0.735  0.0515 -0.4806 -0.0156
  311ACOH    O111384   6.073   1.040   0.854 -0.7057 -0.2347 -0.4021
  311ACOH    C111385   6.209   1.106   0.682 -0.0144 -0.0426 -0.6377
  311ACOH    H111386   6.176   1.197   0.631  1.9823  0.0740 -1.7819
  311ACOH    H211387   6.257   1.032   0.618 -0.7484 -1.2917  0.2494
  311ACOH    H311388   6.277   1.135   0.763 -2.1937  1.9661  0.5558
  312ACOH    H411389   7.697   3.358   1.822 -0.6540 -0.9129  0.7619
  312ACOH    O211390   7.727   3.428   1.882 -0.6162 -0.2899  0.0192
  312ACOH    C211391   7.645   3.530   1.851 -0.2549 -0.2082  1.2152
  312ACOH    O111392   7.532   3.518   1.800 -0.0663 -0.3844 -0.1610
  312ACOH    C111393   7.681   3.662   1.895  0.7235 -0.4505 -0.7604
  312ACOH    H111394   7.697   3.725   1.808 -0.8671  2.3128  0.8698
  312ACOH    H211395   7.775   3.656   1.950 -0.0653  0.4732  0.7316
  312ACOH    H311396   7.607   3.711   1.959  1.4074  0.6056 -0.7663
  313ACOH    H411397   5.194   2.971   1.746 -0.6762  1.9050  0.3914
  313ACOH    O211398   5.280   2.986   1.788  0.1114  0.5418 -0.6934
  313ACOH    C211399   5.333   3.092   1.731 -0.2784  0.2032 -0.4244
  313ACOH    O111400   5.289   3.153   1.642  0.9996 -0.5941 -0.0422
  313ACOH    C111401   5.457   3.130   1.804  0.4802  0.0037  0.2844
  313ACOH    H111402   5.527   3.047   1.809  1.9505  1.0718 -1.8673
  313ACOH    H211403   5.442   3.178   1.901  1.6711 -2.0883  1.5401
  313ACOH    H311404   5.511   3.202   1.742 -0.8567  1.2152  0.5103
  314ACOH    H411405   3.655   8.024   4.912  1.0087  0.5119 -0.3327
  314ACOH    O211406   3.727   8.059   4.967  0.4689 -0.0306  0.7240
  314ACOH    C211407   3.735   8.005   5.089  0.0101 -0.2311  0.2147
  314ACOH    O111408   3.671   7.906   5.123  0.6993 -0.2631 -0.2858
  314ACOH    C111409   3.845   8.066   5.167 -0.7653 -0.6825 -0.0028
  314ACOH    H111410   3.848   8.039   5.272 -0.1936  0.7847  0.3660
  314ACOH    H211411   3.838   8.175   5.158  2.5404 -0.4171 -0.1960
  314ACOH    H311412   3.941   8.039   5.123  0.2694  1.5314  0.8035
  315ACOH    H411413   8.619   8.453   0.834 -1.7654 -1.3446 -2.5576
  315ACOH    O211414   8.614   8.519   0.763  0.1833  0.7582 -0.8197
  315ACOH    C211415   8.577   8.636   0.820  0.4173  0.0708 -0.3933
  315ACOH    O111416   8.552   8.653   0.938  0.0607  0.3443  0.3065
  315ACOH    C111417   8.570   8.748   0.727  0.2690  0.4005 -0.5866
  315ACOH    H111418   8.466   8.780   0.717  0.2265  0.3362 -0.3518
  315ACOH    H211419   8.615   8.707   0.637  1.3383  0.2779 -0.0063
  315ACOH    H311420   8.625   8.839   0.748  1.9560 -0.3984 -1.4696
  316ACOH    H411421   5.370   2.220   3.541  1.6858  0.8305  1.4053
  316ACOH    O211422   5.418   2.137   3.556  0.2292 -0.1922  0.5769
  316ACOH    C211423   5.326   2.046   3.583  0.1282  0.7965  0.4226
  316ACOH    O111424   5.209   2.050   3.624 -0.3032  0.1417  0.3701
  316ACOH    C111425   5.382   1.912   3.553  0.1715 -0.2766  0.3647
  316ACOH    H111426   5.311   1.854   3.495 -0.5710  0.4528  0.5246
  316ACOH    H211427   5.415   1.852   3.638  2.7710 -0.0187 -0.4397
  316ACOH    H311428   5.474   1.932   3.499 -0.0306 -0.2423  0.0323
  317ACOH    H411429   4.041   7.802   0.531 -0.3501 -0.8834  1.7498
  317ACOH    O211430   4.126   7.757   0.514  0.2138  0.6101  0.4068
  317ACOH    C211431   4.124   7.659   0.597 -0.0137  0.3765  0.7557
  317ACOH    O111432   4.040   7.642   0.683 -0.2430  0.4098 -0.0451
  317ACOH    C111433   4.255   7.583   0.585 -0.4213 -0.1067  0.1065
  317ACOH    H111434   4.348   7.641   0.591  0.4111 -1.5976  2.7357
  317ACOH    H211435   4.262   7.525   0.494 -2.8392 -0.6587  0.2507
  317ACOH    H311436   4.250   7.516   0.671 -0.3754 -2.3092 -1.5663
  318ACOH    H411437   5.347   3.536   5.691  1.6095 -1.1178 -0.8688
  318ACOH    O211438   5.335   3.575   5.603 -0.7211  0.9977  0.3455
  318ACOH    C211439   5.456   3.623   5.580 -0.7201 -0.4253 -0.5586
  318ACOH    O111440   5.556   3.623   5.653  0.2307 -0.3947 -0.0450
  318ACOH    C111441   5.450   3.699   5.455  0.5068  0.2651 -0.3870
  318ACOH    H111442   5.370   3.773   5.464  0.4088 -0.0198  1.2620
  318ACOH    H211443   5.424   3.628   5.377  1.0299  0.0795 -0.3957
  318ACOH    H311444   5.544   3.748   5.429  0.1076  0.6345 -1.1583
  319ACOH    H411445   5.472   7.693   4.498  0.1982 -1.8421  1.8831
  319ACOH    O211446   5.564   7.712   4.524  0.3418 -0.3747  0.3494
  319ACOH    C211447   5.625   7.615   4.460 -0.1795 -0.2315  0.1851
  319ACOH    O111448   5.585   7.502   4.427  0.2474  0.2296  0.2343
  319ACOH    C111449   5.771   7.639   4.474  0.2396  0.6568  0.0881
  319ACOH    H111450   5.791   7.658   4.579 -2.0531  0.4957  0.5945
  319ACOH    H211451   5.810   7.719   4.411 -1.2963  0.7363 -0.7817
  319ACOH    H311452   5.830   7.550   4.455  1.5670  1.5073  0.1760
  320ACOH    H411453   3.999   8.211   3.921 -1.0528  0.0303 -1.9277
  320ACOH    O211454   3.927   8.154   3.953 -0.3679  0.0888 -0.2071
  320ACOH    C211455   3.842   8.145   3.850  0.2805 -0.5098  0.3323
  320ACOH    O111456   3.841   8.223   3.758 -0.4775 -0.1615  0.1635
  320ACOH    C111457   3.734   8.050   3.875 -0.1883  0.0512  0.0394
  320ACOH    H111458   3.669   8.077   3.958 -0.8811 -1.0106 -0.1535
  320ACOH    H211459   3.773   7.949   3.883  1.0858  0.1728 -3.4941
  320ACOH    H311460   3.675   8.038   3.784  0.2507 -1.4784 -0.0531
  321ACOH    H411461   5.606   8.484   1.294 -0.3628  0.2061 -0.1268
  321ACOH    O211462   5.612   8.459   1.200  0.3930 -0.2214  0.0304
  321ACOH    C211463   5.690   8.543   1.133  0.5290 -0.8865 -0.4859
  321ACOH    O111464   5.766   8.618   1.184  0.6908 -0.7664 -0.4762
  321ACOH    C111465   5.675   8.512   0.996 -0.3607  0.4268  0.1270
  321ACOH    H111466   5.709   8.591   0.928  0.9331 -0.4015 -0.2079
  321ACOH    H211467   5.575   8.481   0.965 -0.4996  0.7465  0.2541
  321ACOH    H311468   5.747   8.433   0.975 -2.2669 -0.5704 -3.0149
  322ACOH    H411469   7.435   2.897   4.348 -1.0690  0.7741  0.8611
  322ACOH    O211470   7.374   2.856   4.284  0.0876 -0.3853  0.4866
  322ACOH    C211471   7.256   2.921   4.299 -0.2470 -0.2377  0.4518
  322ACOH    O111472   7.236   3.009   4.374  0.2810  0.5923  0.1227
  322ACOH    C111473   7.167   2.858   4.198 -0.6129 -0.0478  0.0075
  322ACOH    H111474   7.213   2.879   4.102  0.6009  2.1745  1.0233
  322ACOH    H211475   7.067   2.900   4.205 -0.4271  0.5807 -0.9510
  322ACOH    H311476   7.159   2.751   4.219 -4.4196  0.1919  0.0156
  323ACOH    H411477   6.460   0.845   3.691  1.9548  1.0513 -0.3252
  323ACOH    O211478   6.495   0.765   3.732 -0.2500  0.0631 -0.3004
  323ACOH    C211479   6.397   0.676   3.741  0.2776  0.4407  0.0089
  323ACOH    O111480   6.289   0.676   3.683  1.0237 -0.2225 -0.0033
  323ACOH    C111481   6.453   0.562   3.816  0.5883  0.0475  0.3303
  323ACOH    H111482   6.383   0.559   3.899  0.7281  0.0487  0.4499
  323ACOH    H211483   6.555   0.571   3.854  0.7870  0.2019 -0.2437
  323ACOH    H311484   6.440   0.470   3.760 -0.1017 -0.9504  2.0965
  324ACOH    H411485   7.910   2.457   4.587 -0.2547 -0.4080  0.3842
  324ACOH    O211486   7.839   2.476   4.524 -0.1935 -0.3446  0.3342
  324ACOH    C211487   7.739   2.537   4.589  0.0951  0.4996 -0.2501
  324ACOH    O111488   7.725   2.518   4.709  0.1298 -0.0136  0.0841
  324ACOH    C111489   7.621   2.557   4.505  0.6217 -0.1049 -0.1268
  324ACOH    H111490   7.542   2.497   4.552  2.9557 -1.5421  2.0608
  324ACOH    H211491   7.633   2.540   4.398  1.9275 -1.2709  0.1892
  324ACOH    H311492   7.589   2.659   4.524  2.9797  0.6021  0.1760
  325ACOH    H411493   8.089   9.182   5.295  0.0750 -2.0218 -0.5872
  325ACOH    O211494   8.105   9.210   5.203 -0.1176 -0.5239 -0.1781
  325ACOH    C211495   8.128   9.343   5.190 -0.1430  0.5564  0.2233
  325ACOH    O111496   8.142   9.423   5.276 -0.4380 -0.7588  0.1566
  325ACOH    C111497   8.122   9.394   5.051 -0.1369  0.1828  0.5946
  325ACOH    H111498   8.199   9.340   4.996 -1.1648 -0.7222  0.0266
  325ACOH    H211499   8.119   9.503   5.054  0.4644  0.1673  3.9426
  325ACOH    H311500   8.026   9.351   5.022 -1.2441  1.9846  1.4925
  326ACOH    H411501   1.356   8.192   1.455 -0.1975  0.6776  0.7938
  326ACOH    O211502   1.280   8.140   1.426  0.5458  0.1240 -0.1721
  326ACOH    C211503   1.290   8.125   1.294  0.0094 -0.3375  0.3809
  326ACOH    O111504   1.356   8.191   1.210 -0.0650  0.1856  0.7187
  326ACOH    C111505   1.186   8.025   1.248 -0.6590 -0.5444 -0.0703
  326ACOH    H111506   1.092   8.054   1.296 -1.2203 -0.7267 -1.0478
  326ACOH    H211507   1.212   7.926   1.285 -3.1905 -1.6245 -1.0560
  326ACOH    H311508   1.177   8.019   1.140  0.7452 -2.6051 -0.1106
  327ACOH    H411509   4.542   4.166   3.851  1.0036 -1.6959  0.4051
  327ACOH    O211510   4.614   4.206   3.903  0.2537  0.6751 -0.2942
  327ACOH    C211511   4.556   4.298   3.988  0.0654  0.1247 -0.4671
  327ACOH    O111512   4.442   4.325   3.998 -0.3417  0.3689 -0.3738
  327ACOH    C111513   4.665   4.361   4.075 -0.3139 -0.0885 -0.3941
  327ACOH    H111514   4.761   4.331   4.033 -0.2303 -0.0493 -0.2341
  327ACOH    H211515   4.658   4.336   4.181  1.0857 -3.0569 -0.9483
  327ACOH    H311516   4.648   4.469   4.069  2.8464  0.3367 -2.9937
  328ACOH    H411517   5.092   9.046   5.032  0.3123 -2.5183  0.0199
  328ACOH    O211518   5.167   9.087   5.077 -0.7415  0.1345 -0.5304
  328ACOH    C211519   5.122   9.197   5.142  0.0506  0.9998 -0.0113
  328ACOH    O111520   5.004   9.218   5.166  0.0381  0.0954  0.4206
  328ACOH    C111521   5.223   9.301   5.180  0.0664 -0.3294  0.4819
  328ACOH    H111522   5.178   9.400   5.177 -0.7822 -0.7667 -2.1254
  328ACOH    H211523   5.302   9.296   5.104 -0.3971  0.4133 -0.0472
  328ACOH    H311524   5.264   9.282   5.279  2.0321  1.6331  0.0797
  329ACOH    H411525   0.717   0.286   4.044  0.5093 -3.1507 -0.6172
  329ACOH    O211526   0.707   0.315   3.952  0.0961  0.3730  0.4666
  329ACOH    C211527   0.583   0.366   3.941 -1.1223 -0.2563 -0.5999
  329ACOH    O111528   0.492   0.345   4.019 -0.1879 -0.1415  0.0811
  329ACOH    C111529   0.564   0.454   3.815  0.3696 -1.1541  0.0219
  329ACOH    H111530   0.658   0.487   3.771  0.2299 -0.3612  0.3059
  329ACOH    H211531   0.501   0.536   3.850 -0.5493 -2.4206  1.3729
  329ACOH    H311532   0.502   0.414   3.734 -0.6866  0.4268  0.0289
  330ACOH    H411533   7.473   7.960   1.111 -3.3176  1.7810  0.3387
  330ACOH    O211534   7.470   7.980   1.016 -0.5250 -0.7465 -0.3765
  330ACOH    C211535   7.570   7.917   0.949 -0.2005  0.3704 -0.3848
  330ACOH    O111536   7.656   7.855   1.007 -0.3565  0.9558 -0.5030
  330ACOH    C111537   7.570   7.971   0.811  0.2110  1.0105  0.0525
  330ACOH    H111538   7.585   7.888   0.742 -0.8971 -0.4059  1.4784
  330ACOH    H211539   7.657   8.036   0.805  1.0509  0.0066  1.0276
  330ACOH    H311540   7.481   8.031   0.789 -1.4608 -1.3864  0.1103
  331ACOH    H411541   7.504   2.917   1.598  1.3204  0.9395  2.0373
  331ACOH    O211542   7.417   2.926   1.640  0.1961  0.0536 -0.0211
  331ACOH    C211543   7.338   2.966   1.540 -0.6761  0.1154  0.5249
  331ACOH    O111544   7.370   3.007   1.427  0.2176  0.5101 -0.1615
  331ACOH    C111545   7.197   2.974   1.592  0.4199 -0.4777  0.4730
  331ACOH    H111546   7.145   2.882   1.567 -0.5952  1.3370 -4.7418
  331ACOH    H211547   7.149   3.059   1.544 -1.6317  0.7409  4.4676
  331ACOH    H311548   7.192   2.980   1.700  0.7564 -0.6266  0.4965
  332ACOH    H411549   5.231   4.874   0.568  1.4505  1.1353  0.8907
  332ACOH    O211550   5.249   4.887   0.473 -0.0327  0.0385  0.4361
  332ACOH    C211551   5.347   4.982   0.458 -0.0757 -0.6220  0.3384
  332ACOH    O111552   5.366   5.078   0.528  0.6924  0.2078  0.0426
  332ACOH    C111553   5.415   4.967   0.331 -0.3302 -0.2539 -0.0228
  332ACOH    H111554   5.458   4.867   0.324 -0.4335 -0.3255  0.3356
  332ACOH    H211555   5.489   5.046   0.317  1.7451 -1.8578  1.4035
  332ACOH    H311556   5.340   4.974   0.253  1.1139 -1.5586 -1.5707
  333ACOH    H411557   4.822   4.892   4.960 -0.3803 -0.0034  0.3508
  333ACOH    O211558   4.905   4.933   4.931 -0.1761 -0.6840 -0.0241
  333ACOH    C211559   5.008   4.855   4.968 -0.4135 -0.0769 -0.3280
  333ACOH    O111560   4.993   4.736   4.989  0.0919 -0.0220  0.4111
  333ACOH    C111561   5.136   4.913   4.925 -0.4618  0.3856 -0.0486
  333ACOH    H111562   5.130   5.021   4.934  0.3702  0.3360  1.2483
  333ACOH    H211563   5.150   4.890   4.819 -2.7623  1.8155 -0.6815
  333ACOH    H311564   5.223   4.865   4.972 -0.4660  0.2130 -0.2140
  334ACOH    H411565   6.790   8.194   4.430 -0.2785 -1.8656  1.3689
  334ACOH    O211566   6.807   8.250   4.507  0.6308 -0.1239 -0.0670
  334ACOH    C211567   6.718   8.354   4.504  0.3814 -0.1852 -0.1638
  334ACOH    O111568   6.651   8.390   4.409  0.0314 -0.1747 -0.1419
  334ACOH    C111569   6.748   8.451   4.609 -0.4413  0.1217 -0.3106
  334ACOH    H111570   6.855   8.461   4.630 -0.5147  1.1916 -0.4110
  334ACOH    H211571   6.693   8.421   4.698  0.3269 -0.2210  0.0567
  334ACOH    H311572   6.708   8.550   4.589  0.5318  0.5854  0.0087
  335ACOH    H411573   7.483   5.992   5.056  0.0192  0.3426  0.3493
  335ACOH    O211574   7.455   6.075   5.013 -0.0310 -0.0247 -0.3439
  335ACOH    C211575   7.561   6.152   5.006  0.4103  0.6453 -0.1531
  335ACOH    O111576   7.649   6.161   5.088 -0.7167 -0.1683 -0.1360
  335ACOH    C111577   7.536   6.263   4.905 -0.0582 -0.1784  0.5732
  335ACOH    H111578   7.532   6.359   4.956  2.5567  0.9928 -1.3394
  335ACOH    H211579   7.442   6.250   4.852 -0.5777  0.8376  1.2328
  335ACOH    H311580   7.616   6.261   4.831 -0.0313  1.8943  0.5191
  336ACOH    H411581   3.637   4.997   5.307 -0.0688  1.7216 -2.0013
  336ACOH    O211582   3.652   5.072   5.366  0.0601  0.2621 -0.1046
  336ACOH    C211583   3.597   5.174   5.291 -0.1968 -0.5065 -0.7769
  336ACOH    O111584   3.538   5.160   5.188  0.0186 -0.4167  0.2073
  336ACOH    C111585   3.578   5.290   5.378 -0.1739  0.0754  0.2358
  336ACOH    H111586   3.591   5.381   5.319  0.6053 -0.0752  0.1766
  336ACOH    H211587   3.645   5.298   5.464 -1.8231  0.6005  1.5132
  336ACOH    H311588   3.476   5.270   5.413 -0.5692  0.6362 -0.5831
  337ACOH    H411589   5.054   2.609   3.963 -2.2048  1.0630 -0.1830
  337ACOH    O211590   5.083   2.675   3.898  0.3677 -0.2247 -0.3931
  337ACOH    C211591   5.001   2.783   3.908  0.2906  0.1695 -0.3502
  337ACOH    O111592   5.009   2.883   3.831 -0.2382  0.4602  0.1895
  337ACOH    C111593   4.889   2.770   4.005  0.3627 -0.1670  0.0708
  337ACOH    H111594   4.818   2.696   3.968 -1.0054  1.0278  0.2443
  337ACOH    H211595   4.831   2.862   4.009  2.4226  1.4631 -4.3603
  337ACOH    H311596   4.925   2.735   4.102  0.6106  0.5434  0.2445
  338ACOH    H411597   9.276   7.086   0.354  0.1126  1.0186  0.5607
  338ACOH    O211598   9.346   7.114   0.293 -0.0118  0.1368  0.0133
  338ACOH    C211599   9.372   7.245   0.327 -0.6280 -0.2938 -0.0878
  338ACOH    O111600   9.322   7.312   0.417  0.5398 -0.2569  0.3259
  338ACOH    C111601   9.496   7.283   0.262 -0.2833 -0.5976 -0.2594
  338ACOH    H111602   9.538   7.378   0.296 -0.5590 -0.1456 -1.1357
  338ACOH    H211603   9.474   7.285   0.155 -1.1128  3.0341 -0.0659
  338ACOH    H311604   9.575   7.211   0.287  0.7801  0.3267 -0.8687
  339ACOH    H411605   7.384   9.134   4.759  0.7689  1.1452 -1.3213
  339ACOH    O211606   7.371   9.071   4.686 -0.2430 -0.0661 -0.1122
  339ACOH    C211607   7.456   8.966   4.695  0.3794 -0.0233 -0.1589
  339ACOH    O111608   7.530   8.946   4.793  0.2030 -1.0842  0.2334
  339ACOH    C111609   7.435   8.862   4.594 -0.1312 -0.5526 -0.3453
  339ACOH    H111610   7.334   8.879   4.556  0.6220  0.1434 -2.0691
  339ACOH    H211611   7.448   8.763   4.638 -0.7847 -0.4909 -0.0035
  339ACOH    H311612   7.509   8.873   4.514  0.1791  0.2481  0.0511
  340ACOH    H411613   5.047   8.712   5.409  1.5062 -1.7895 -1.3195
  340ACOH    O211614   5.093   8.796   5.389 -0.5751 -0.2624  0.1661
  340ACOH    C211615   5.225   8.776   5.406 -0.2318 -0.9033 -0.5248
  340ACOH    O111616   5.279   8.690   5.477  0.4825  0.1008  0.0380
  340ACOH    C111617   5.304   8.878   5.329 -0.2710  0.0092  0.7377
  340ACOH    H111618   5.334   8.828   5.237 -0.6236 -0.3733  0.8290
  340ACOH    H211619   5.394   8.900   5.387  0.4428 -0.8582 -0.0069
  340ACOH    H311620   5.246   8.965   5.300 -2.2295 -1.4600  0.1308
  341ACOH    H411621   8.438   0.302   5.208 -0.9766  0.0486 -0.8284
  341ACOH    O211622   8.499   0.297   5.133 -0.0179 -0.0908 -0.0603
  341ACOH    C211623   8.585   0.397   5.158 -0.0438 -0.7949 -0.0360
  341ACOH    O111624   8.585   0.470   5.250 -0.0553 -0.0091 -0.9016
  341ACOH    C111625   8.682   0.413   5.046  0.2870  0.5300 -0.3397
  341ACOH    H111626   8.661   0.357   4.955 -0.8723 -0.7989  0.7192
  341ACOH    H211627   8.787   0.396   5.072 -0.0408 -1.0517 -0.0190
  341ACOH    H311628   8.680   0.519   5.021 -0.9922 -0.0173 -2.7268
  342ACOH    H411629   4.168   7.376   4.432  0.8982  0.4824 -1.3396
  342ACOH    O211630   4.241   7.316   4.452  0.0890 -0.2893 -0.6866
  342ACOH    C211631   4.236   7.218   4.365 -0.0209  0.2039 -0.2654
  342ACOH    O111632   4.169   7.211   4.260 -0.4388 -0.1290 -0.1755
  342ACOH    C111633   4.322   7.102   4.402 -0.2483  0.1256  0.2905
  342ACOH    H111634   4.420   7.115   4.358 -0.4320  1.5629  0.2972
  342ACOH    H211635   4.271   7.007   4.382 -1.3288  0.7172  0.1947
  342ACOH    H311636   4.326   7.103   4.511  1.4434 -2.1601  0.2962
  343ACOH    H411637   6.320   1.777   2.096  1.9935 -0.7984 -0.5404
  343ACOH    O211638   6.322   1.859   2.043 -0.3744 -0.1229  0.3586
  343ACOH    C211639   6.319   1.965   2.129 -0.2833  1.0361 -0.4334
  343ACOH    O111640   6.327   1.954   2.249  0.0338 -0.3871  0.0391
  343ACOH    C111641   6.307   2.093   2.058 -0.2488 -0.0823  0.0854
  343ACOH    H111642   6.406   2.120   2.023  0.6808 -3.6301 -0.2114
  343ACOH    H211643   6.265   2.174   2.117 -0.5944  0.3493 -0.7391
  343ACOH    H311644   6.245   2.083   1.969  0.0170 -0.4270 -0.0597
  344ACOH    H411645   7.360   6.053   2.683  3.1099  0.3407 -1.4167
  344ACOH    O211646   7.372   5.959   2.701  0.6894  0.4015  0.8692
  344ACOH    C211647   7.374   5.897   2.583  0.3420  0.2589 -0.3262
  344ACOH    O111648   7.379   5.943   2.477  0.6785 -0.0258 -0.0329
  344ACOH    C111649   7.384   5.752   2.603 -0.7512 -0.6655  0.2971
  344ACOH    H111650   7.467   5.739   2.672 -1.1384  0.8668  1.0540
  344ACOH    H211651   7.410   5.695   2.514 -0.0138  0.0185  0.0688
  344ACOH    H311652   7.290   5.713   2.641 -1.7666 -1.5424 -2.9459
  345ACOH    H411653   5.304   4.245   5.327  0.0637  0.2196 -1.9740
  345ACOH    O211654   5.398   4.228   5.340 -0.2532 -0.4656 -0.4689
  345ACOH    C211655   5.437   4.309   5.442 -0.8989  0.3785 -0.0885
  345ACOH    O111656   5.372   4.400   5.489  0.2448 -0.4433 -0.2547
  345ACOH    C111657   5.584   4.293   5.461 -0.3610  0.1594  0.0692
  345ACOH    H111658   5.606   4.199   5.511 -2.7156 -2.0361 -2.7989
  345ACOH    H211659   5.633   4.378   5.508 -0.8848 -0.3348  1.5502
  345ACOH    H311660   5.620   4.292   5.358 -1.8951 -2.8732 -0.5066
  346ACOH    H411661   2.211   0.185   4.566 -1.7767  0.8873 -0.0443
  346ACOH    O211662   2.163   0.191   4.481 -1.0342  0.2869 -0.5205
  346ACOH    C211663   2.157   0.320   4.450 -0.0338  0.7238 -0.2704
  346ACOH    O111664   2.206   0.414   4.510  0.0244  0.0685  0.2829
  346ACOH    C111665   2.075   0.341   4.329 -0.0848 -0.3894 -0.5641
  346ACOH    H111666   1.973   0.376   4.345  0.0144  0.9841 -2.7173
  346ACOH    H211667   2.075   0.247   4.275  1.1468 -0.4258 -0.5192
  346ACOH    H311668   2.131   0.415   4.271  1.0181 -0.0331  0.9009
  347ACOH    H411669   5.265   1.348   0.561  0.2930 -1.6384 -0.4861
  347ACOH    O211670   5.362   1.356   0.571  0.1683 -0.7307 -0.0105
  347ACOH    C211671   5.424   1.239   0.545  0.4793  0.9092 -0.2931
  347ACOH    O111672   5.363   1.130   0.548  0.5119  0.7676  0.5949
  347ACOH    C111673   5.573   1.250   0.570 -0.5270 -0.1119 -0.0544
  347ACOH    H111674   5.635   1.242   0.481  2.0068 -1.6443  1.7386
  347ACOH    H211675   5.605   1.173   0.640 -0.4044 -0.9906 -1.0745
  347ACOH    H311676   5.587   1.349   0.615 -2.4297 -1.2771  3.2624
  348ACOH    H411677   6.024   8.661   0.903 -1.3357  0.3281 -0.0366
  348ACOH    O211678   6.048   8.722   0.830  0.0964 -0.1441  0.0279
  348ACOH    C211679   5.939   8.763   0.757  0.1101  0.2904  0.2144
  348ACOH    O111680   5.829   8.791   0.802  0.4845 -0.4336  0.1142
  348ACOH    C111681   5.985   8.822   0.627 -0.1657  0.1655  0.7430
  348ACOH    H111682   5.970   8.747   0.549  2.4244  0.7351 -0.3542
  348ACOH    H211683   6.092   8.842   0.623 -0.3805  1.3044  0.1047
  348ACOH    H311684   5.924   8.912   0.611 -0.7459 -0.0984  1.4422
  349ACOH    H411685   7.111   5.583   4.161 -0.6278 -0.3314 -0.5068
  349ACOH    O211686   7.052   5.659   4.156  0.2934  0.3867 -0.4937
  349ACOH    C211687   7.104   5.778   4.115 -0.0373  0.0411 -0.1799
  349ACOH    O111688   7.217   5.809   4.084 -0.4535 -0.8766 -0.7611
  349ACOH    C111689   6.998   5.874   4.096 -0.5036  0.1290  0.4685
  349ACOH    H111690   6.904   5.824   4.120 -1.2824  1.2513 -0.2217
  349ACOH    H211691   6.991   5.926   4.001  1.1194  0.4825  0.5202
  349ACOH    H311692   7.005   5.953   4.171  1.0495 -0.0338  0.5181
  350ACOH    H411693   7.270   2.462   2.070 -0.0391  2.6031  0.3312
  350ACOH    O211694   7.176   2.452   2.046  0.3542  0.1439 -0.2745
  350ACOH    C211695   7.166   2.516   1.932  0.4309  0.8170 -0.5871
  350ACOH    O111696   7.261   2.573   1.874 -0.2104 -0.0386 -0.2969
  350ACOH    C111697   7.028   2.524   1.884 -0.4757 -0.1663  0.6912
  350ACOH    H111698   6.953   2.551   1.958 -1.4181 -1.7463  0.3338
  350ACOH    H211699   7.011   2.421   1.850 -1.2551 -0.4602  1.9550
  350ACOH    H311700   7.025   2.583   1.792 -2.9528 -1.4332 -0.0832
  351ACOH    H411701   8.094   4.048   2.955  0.4744 -0.1543 -0.1345
  351ACOH    O211702   8.093   4.136   2.913 -0.0217 -0.2096 -0.2444
  351ACOH    C211703   8.198   4.208   2.953  0.7254  0.7629 -0.8280
  351ACOH    O111704   8.276   4.172   3.037 -0.1513  0.7209 -0.5773
  351ACOH    C111705   8.213   4.338   2.883  0.3608  0.6840  0.2572
  351ACOH    H111706   8.131   4.356   2.814 -0.8863  0.3038  1.6150
  351ACOH    H211707   8.305   4.329   2.824  1.1628 -0.4795  1.6468
  351ACOH    H311708   8.216   4.423   2.951 -0.3960  0.2548  0.8373
  352ACOH    H411709   5.325   1.975   3.227  0.9226 -2.2227  0.1904
  352ACOH    O211710   5.417   2.004   3.235  0.2750 -0.1065  0.1924
  352ACOH    C211711   5.419   2.128   3.196 -0.1637 -0.5045 -0.6897
  352ACOH    O111712   5.329   2.190   3.141 -0.2222 -1.0050 -0.0986
  352ACOH    C111713   5.547   2.200   3.231 -0.2881  0.1572 -0.3915
  352ACOH    H111714   5.524   2.282   3.299  1.1680 -0.1074  0.4498
  352ACOH    H211715   5.601   2.241   3.146  0.6893 -1.4374 -0.5810
  352ACOH    H311716   5.614   2.139   3.293 -1.7922 -1.1951 -0.0385
  353ACOH    H411717   8.143   8.251   1.103 -0.2579  0.2485 -2.7639
  353ACOH    O211718   8.127   8.155   1.094 -0.0332 -0.1466  0.4413
  353ACOH    C211719   8.134   8.127   0.964 -0.7780  0.1246 -0.0100
  353ACOH    O111720   8.150   8.193   0.865 -0.2452  0.2386 -0.4626
  353ACOH    C111721   8.094   7.987   0.961 -0.4144  0.3523  0.9693
  353ACOH    H111722   8.039   7.952   1.049  2.0283 -0.6124  2.1783
  353ACOH    H211723   8.190   7.935   0.964 -1.3044 -1.5043 -1.0316
  353ACOH    H311724   8.054   7.960   0.864  1.8629  1.4191 -0.2962
  354ACOH    H411725   2.162   6.433   4.535 -0.3311 -0.0075 -2.2271
  354ACOH    O211726   2.078   6.388   4.553 -0.1430  0.3692 -0.2740
  354ACOH    C211727   1.993   6.455   4.640  0.2852 -0.1106 -0.1067
  354ACOH    O111728   2.017   6.562   4.696 -0.3242  0.0420  0.7060
  354ACOH    C111729   1.858   6.395   4.657  0.0107 -0.4622 -0.0641
  354ACOH    H111730   1.854   6.306   4.595  1.0814 -0.1320 -0.6117
  354ACOH    H211731   1.785   6.470   4.624  2.2089  1.7652 -0.0059
  354ACOH    H311732   1.839   6.369   4.761  1.0842  0.2302  0.3093
  355ACOH    H411733   5.269   6.457   1.821 -0.0355 -0.0676 -0.5201
  355ACOH    O211734   5.324   6.399   1.766  0.1786 -0.7093  0.3694
  355ACOH    C211735   5.429   6.461   1.709  0.0348 -0.2396  0.3982
  355ACOH    O111736   5.446   6.582   1.699 -0.2070 -0.1163  0.1914
  355ACOH    C111737   5.499   6.358   1.624  0.3780  0.2144  0.3443
  355ACOH    H111738   5.604   6.388   1.621  1.3968 -2.9455  2.4259
  355ACOH    H211739   5.456   6.368   1.525 -0.2858 -0.7698  0.5258
  355ACOH    H311740   5.493   6.254   1.655  1.0640 -1.1162 -3.7197
  356ACOH    H411741   1.865   4.129   4.790  1.3698  2.2186  2.0366
  356ACOH    O211742   1.774   4.124   4.824  0.7405 -0.5294  0.1372
  356ACOH    C211743   1.785   4.104   4.955 -0.9349  0.1520 -0.6802
  356ACOH    O111744   1.888   4.141   5.010 -0.2194  0.7258 -0.2857
  356ACOH    C111745   1.653   4.066   5.023 -0.0008 -0.3934  0.8672
  356ACOH    H111746   1.648   3.959   5.045  5.2023 -0.8248  0.5955
  356ACOH    H211747   1.563   4.095   4.970  0.2568 -0.1877  0.5373
  356ACOH    H311748   1.651   4.121   5.117 -3.5294  1.6909 -0.3433
  357ACOH    H411749   7.749   1.797   4.451  0.2673 -0.1397 -0.4016
  357ACOH    O211750   7.794   1.867   4.502 -0.5352  0.0113  0.1075
  357ACOH    C211751   7.744   1.857   4.627  0.2393 -0.0841  0.6985
  357ACOH    O111752   7.658   1.790   4.671 -0.0919  0.3099 -0.0739
  357ACOH    C111753   7.825   1.957   4.703  0.5062 -0.2519 -0.4272
  357ACOH    H111754   7.927   1.924   4.688  0.4717 -1.2692  1.4208
  357ACOH    H211755   7.803   1.964   4.810  0.3999  1.9078 -0.5511
  357ACOH    H311756   7.816   2.056   4.658 -0.2443 -0.5646 -0.9834
  358ACOH    H411757   8.025   3.786   3.201  1.3115  1.9023 -0.5999
  358ACOH    O211758   8.005   3.749   3.113 -0.1306 -0.1867  0.5514
  358ACOH    C211759   7.989   3.618   3.130 -0.2955  0.3270  0.1159
  358ACOH    O111760   7.990   3.551   3.230  0.1934 -0.0520 -0.2625
  358ACOH    C111761   7.999   3.566   2.991 -0.8389 -0.2647 -0.0213
  358ACOH    H111762   7.908   3.591   2.936 -1.2032  1.1586  1.2186
  358ACOH    H211763   8.015   3.458   2.991 -0.0710 -0.1554 -0.5502
  358ACOH    H311764   8.085   3.611   2.942 -0.8220  1.2241  1.3370
  359ACOH    H411765   6.920   1.880   3.461 -1.0277 -1.0172  0.1953
  359ACOH    O211766   6.905   1.912   3.552 -0.1585 -0.0520  0.0082
  359ACOH    C211767   6.776   1.877   3.587 -0.4392 -0.1064  0.1254
  359ACOH    O111768   6.696   1.829   3.510  0.4860  0.2342  0.5023
  359ACOH    C111769   6.758   1.881   3.738  0.1328 -0.4466 -0.2904
  359ACOH    H111770   6.772   1.981   3.778  0.4943 -1.1699  1.4739
  359ACOH    H211771   6.812   1.803   3.793 -0.4856 -0.5403  0.1811
  359ACOH    H311772   6.654   1.860   3.759 -0.1963  0.1070 -1.3423
  360ACOH    H411773   5.670   1.744   2.041  0.1870 -3.3732  0.4755
  360ACOH    O211774   5.733   1.745   1.966 -0.3881 -0.1335 -0.0376
  360ACOH    C211775   5.851   1.785   2.024 -0.3071  0.1030 -0.2682
  360ACOH    O111776   5.873   1.814   2.141 -0.2127 -0.4788  0.1133
  360ACOH    C111777   5.958   1.788   1.924 -0.1316  0.2995  0.4301
  360ACOH    H111778   6.058   1.809   1.960 -0.1932  0.9539  0.2282
  360ACOH    H211779   5.941   1.868   1.851  1.3359  0.9022  0.7194
  360ACOH    H311780   5.955   1.693   1.870 -0.2075 -0.0095  0.9820
  361ACOH    H411781   7.507   1.797   0.036  0.0041 -0.3763 -1.5022
  361ACOH    O211782   7.427   1.852   0.040 -0.0273 -0.5154  0.0996
  361ACOH    C211783   7.351   1.805   0.137  0.4571 -0.3308  0.5807
  361ACOH    O111784   7.384   1.734   0.236 -0.4275 -0.4163  0.8758
  361ACOH    C111785   7.229   1.886   0.149  0.0485  0.5390 -0.5424
  361ACOH    H111786   7.244   1.975   0.209 -2.1384  0.1581  0.6241
  361ACOH    H211787   7.148   1.824   0.190  1.5157 -0.2677  1.2241
  361ACOH    H311788   7.200   1.919   0.050 -2.0446 -0.4616 -0.2877
  362ACOH    H411789   7.204   3.229   4.978 -0.8014 -0.1234 -0.7402
  362ACOH    O211790   7.117   3.201   5.009 -0.4595 -0.4399 -0.0646
  362ACOH    C211791   7.143   3.099   5.097  0.7672  0.5986 -0.5506
  362ACOH    O111792   7.251   3.042   5.097 -0.4671 -0.1196 -0.3171
  362ACOH    C111793   7.033   3.039   5.164  0.4850  0.0724 -1.1928
  362ACOH    H111794   7.052   2.960   5.237 -0.6099 -1.0325 -2.0667
  362ACOH    H211795   6.967   2.984   5.096 -1.0158 -0.6358  0.7726
  362ACOH    H311796   6.973   3.119   5.206 -0.1982 -1.3561  0.6443
  363ACOH    H411797   7.805   3.284   3.982  1.9882 -0.4691  0.3610
  363ACOH    O211798   7.831   3.363   3.932 -0.3923 -0.2211 -0.5751
  363ACOH    C211799   7.797   3.473   4.000  0.5979 -1.1148  0.4366
  363ACOH    O111800   7.727   3.472   4.100 -0.4996  0.1119  0.1772
  363ACOH    C111801   7.872   3.585   3.949  0.3433  0.1483 -0.5920
  363ACOH    H111802   7.806   3.671   3.952  0.2826  0.0808 -0.0216
  363ACOH    H211803   7.914   3.573   3.849 -1.0087 -3.9625 -0.7768
  363ACOH    H311804   7.951   3.593   4.024 -0.2673  0.0076  0.0666
  364ACOH    H411805   4.266   4.243   3.335  1.8702 -2.2424 -2.5925
  364ACOH    O211806   4.180   4.220   3.295  0.2421 -0.5464 -0.2496
  364ACOH    C211807   4.092   4.305   3.355  0.0729 -0.4688  1.0651
  364ACOH    O111808   4.111   4.367   3.459  0.3760 -0.1217 -0.4427
  364ACOH    C111809   3.969   4.293   3.276 -0.5697  0.8825 -0.2355
  364ACOH    H111810   3.919   4.200   3.302 -0.1167  0.4511 -0.9196
  364ACOH    H211811   3.993   4.279   3.171 -0.6795 -2.6407  0.1598
  364ACOH    H311812   3.894   4.370   3.295 -1.5276 -0.1114  0.0895
  365ACOH    H411813   6.936   6.499   3.973  2.5377 -0.3213  0.8282
  365ACOH    O211814   6.901   6.442   4.044 -0.2823  0.0013 -0.2358
  365ACOH    C211815   6.809   6.364   3.988  0.4294  0.2209  0.6590
  365ACOH    O111816   6.721   6.406   3.908 -0.1266  0.6734 -0.4160
  365ACOH    C111817   6.792   6.236   4.064  0.4881 -0.7561  0.5406
  365ACOH    H111818   6.891   6.214   4.105  2.0478  4.1672 -0.2853
  365ACOH    H211819   6.760   6.169   3.984 -0.8886  0.5003  0.0108
  365ACOH    H311820   6.724   6.234   4.149 -0.1938  1.4022  0.0851
  366ACOH    H411821   5.130   9.634   4.957 -2.6791  0.1004  2.1189
  366ACOH    O211822   5.157   9.720   4.992  0.1889  0.1935 -0.1931
  366ACOH    C211823   5.153   9.738   5.124  0.3534  0.3264  0.3075
  366ACOH    O111824   5.163   9.656   5.213  0.8423 -0.2274  0.0350
  366ACOH    C111825   5.177   9.878   5.165  1.0673 -0.6061 -0.2001
  366ACOH    H111826   5.154   9.945   5.082  0.9420  2.3126  2.1023
  366ACOH    H211827   5.282   9.892   5.192  0.7021  1.1251  0.3826
  366ACOH    H311828   5.114   9.907   5.249 -1.6796 -1.5372 -1.8623
  367ACOH    H411829   6.769   7.546   2.771  0.5510  0.2165 -0.6602
  367ACOH    O211830   6.761   7.561   2.867  0.1355 -0.3154 -0.6097
  367ACOH    C211831   6.685   7.664   2.879  0.1034 -0.6097 -0.1516
  367ACOH    O111832   6.671   7.754   2.800  0.1052  0.2012 -0.0532
  367ACOH    C111833   6.654   7.698   3.019 -0.5031 -0.5427  0.0026
  367ACOH    H111834   6.563   7.758   3.019  0.9441  1.7380  1.6779
  367ACOH    H211835   6.729   7.762   3.065 -1.7801  0.0136  1.3145
  367ACOH    H311836   6.651   7.604   3.075 -0.3766  0.4771  1.7420
  368ACOH    H411837   4.691   8.668   1.367  0.7596 -1.4032  2.2634
  368ACOH    O211838   4.639   8.749   1.381  1.1917 -0.7202  0.0354
  368ACOH    C211839   4.674   8.805   1.493 -0.3540  0.5141 -0.0463
  368ACOH    O111840   4.780   8.798   1.551 -0.2893 -0.3127  0.0676
  368ACOH    C111841   4.592   8.917   1.523 -0.0393  0.0093 -0.7979
  368ACOH    H111842   4.495   8.916   1.474  0.3612  2.5841 -1.7109
  368ACOH    H211843   4.638   9.015   1.516 -0.9286  0.5301  0.3996
  368ACOH    H311844   4.567   8.901   1.628  2.2673 -1.5920 -0.4664
  369ACOH    H411845   8.620   9.174   5.719 -0.6917  2.6570 -4.4454
  369ACOH    O211846   8.640   9.101   5.658 -0.2937 -0.3487 -0.9560
  369ACOH    C211847   8.547   9.115   5.561  0.2694 -0.2853 -0.4634
  369ACOH    O111848   8.457   9.195   5.560  0.0305 -0.7124  0.0322
  369ACOH    C111849   8.568   9.012   5.461 -0.3242 -0.2001  0.0945
  369ACOH    H111850   8.559   8.917   5.514  1.7644 -0.2982  0.2962
  369ACOH    H211851   8.658   9.028   5.401 -0.7733  0.8025 -0.3234
  369ACOH    H311852   8.481   9.013   5.395  0.6703  1.0207 -1.2334
  370ACOH    H411853   4.232   8.698   4.546  1.6333  0.9048 -1.3127
  370ACOH    O211854   4.291   8.637   4.591 -0.6675 -0.6234 -0.2692
  370ACOH    C211855   4.392   8.717   4.627  0.2445  0.3626 -0.8478
  370ACOH    O111856   4.425   8.823   4.580  0.0977 -0.4696  0.0829
  370ACOH    C111857   4.473   8.641   4.723  0.3911 -0.0502  0.4525
  370ACOH    H111858   4.544   8.716   4.759 -0.8601  0.7374  1.3442
  370ACOH    H211859   4.524   8.555   4.680 -0.3326 -0.5712  0.6264
  370ACOH    H311860   4.415   8.602   4.807  1.7882  0.8300  1.8525
  371ACOH    H411861   5.698   1.187   4.488  0.7675  1.6095 -1.5296
  371ACOH    O211862   5.773   1.126   4.479  0.0752  0.4251  0.4874
  371ACOH    C211863   5.756   1.047   4.587 -0.4220 -0.0554  0.2320
  371ACOH    O111864   5.705   1.085   4.689 -0.2016 -0.0628 -0.3279
  371ACOH    C111865   5.860   0.943   4.582 -0.4395  0.0710 -0.4506
  371ACOH    H111866   5.955   0.979   4.621 -1.7910  3.6139 -0.1798
  371ACOH    H211867   5.877   0.923   4.476 -0.1716  1.7461 -0.7480
  371ACOH    H311868   5.832   0.855   4.639 -2.4538  1.6518  1.0920
  372ACOH    H411869   5.090   1.563   1.961  0.1889  0.6339 -0.8835
  372ACOH    O211870   5.018   1.537   1.900  0.1977 -0.4689 -0.4352
  372ACOH    C211871   4.949   1.648   1.891 -0.3990 -0.0838 -0.4034
  372ACOH    O111872   4.977   1.754   1.949 -0.1895  0.2516 -0.2187
  372ACOH    C111873   4.844   1.652   1.784  0.8831  0.4023 -0.1884
  372ACOH    H111874   4.879   1.701   1.693 -2.1640  2.6080 -0.2329
  372ACOH    H211875   4.751   1.692   1.824  0.2896 -1.6968  0.6154
  372ACOH    H311876   4.825   1.545   1.774  0.4512  0.3386  1.2158
  373ACOH    H411877   7.222   6.232   3.120 -0.0683  3.6484  1.5560
  373ACOH    O211878   7.281   6.207   3.193  0.6718  0.2767 -0.1118
  373ACOH    C211879   7.376   6.127   3.145  0.0076 -0.3764  0.1544
  373ACOH    O111880   7.382   6.066   3.042  0.4079 -0.3624 -0.1623
  373ACOH    C111881   7.480   6.104   3.247  0.2491  0.2395 -0.3820
  373ACOH    H111882   7.435   6.058   3.335 -0.7268 -1.2188 -1.6152
  373ACOH    H211883   7.515   6.200   3.284 -0.7622  1.4793 -2.5473
  373ACOH    H311884   7.561   6.038   3.217 -0.5462 -2.2831  2.6615
  374ACOH    H411885   7.538   7.628   2.571 -0.1962 -0.4191 -0.1979
  374ACOH    O211886   7.516   7.570   2.646 -0.1309  0.3459  0.4150
  374ACOH    C211887   7.504   7.648   2.758  0.1747 -0.7123 -0.2626
  374ACOH    O111888   7.589   7.734   2.783 -0.3625 -0.1686  0.7448
  374ACOH    C111889   7.433   7.582   2.872  0.7288  0.1298 -0.2759
  374ACOH    H111890   7.331   7.564   2.837  0.7210 -0.1003 -0.1329
  374ACOH    H211891   7.425   7.646   2.959  2.5455 -1.6313  1.2367
  374ACOH    H311892   7.475   7.484   2.898  1.0098  0.4697  0.5438
  375ACOH    H411893   4.531   8.053   0.243 -1.7135 -2.2302 -0.6466
  375ACOH    O211894   4.566   8.000   0.317  0.0914  0.1086  0.2293
  375ACOH    C211895   4.500   7.883   0.305 -0.8364 -0.0376  0.1808
  375ACOH    O111896   4.414   7.863   0.219  0.1248 -0.0673  0.1195
  375ACOH    C111897   4.544   7.780   0.397 -0.3794 -0.3821 -0.1081
  375ACOH    H111898   4.501   7.685   0.366 -0.7428  0.0693 -1.0172
  375ACOH    H211899   4.500   7.807   0.492 -1.2127 -0.9407 -0.3385
  375ACOH    H311900   4.653   7.767   0.399 -0.1917  0.4266 -2.6257
  376ACOH    H411901   8.223   4.619   1.531  0.3818 -0.7658 -1.0480
  376ACOH    O211902   8.278   4.678   1.477 -0.2388  0.4295 -0.4059
  376ACOH    C211903   8.214   4.797   1.471 -0.0251 -0.2291  0.6306
  376ACOH    O111904   8.095   4.810   1.477 -0.1105 -0.3429 -0.4102
  376ACOH    C111905   8.310   4.897   1.431 -0.2096  0.6938 -0.5082
  376ACOH    H111906   8.393   4.908   1.501 -0.1230 -1.9820 -0.1510
  376ACOH    H211907   8.253   4.990   1.435 -1.9746 -0.4401  2.0626
  376ACOH    H311908   8.347   4.876   1.330  0.4769 -1.9066  0.2341
  377ACOH    H411909   3.550   5.725   4.518 -0.9217 -0.2719 -0.0588
  377ACOH    O211910   3.566   5.817   4.490  0.4833 -0.4132  0.2434
  377ACOH    C211911   3.516   5.835   4.365 -0.2451 -0.0897 -0.3085
  377ACOH    O111912   3.450   5.753   4.311 -0.2840 -0.6311 -0.2643
  377ACOH    C111913   3.533   5.976   4.313 -0.0394  0.4341 -0.2442
  377ACOH    H111914   3.533   6.038   4.403 -0.4668 -0.5881  0.4636
  377ACOH    H211915   3.454   5.997   4.240  0.4536  1.8275 -0.3880
  377ACOH    H311916   3.630   5.989   4.265 -0.0967  0.8461 -0.2541
  378ACOH    H411917   4.993   8.056   5.466 -1.3223  0.1336 -1.6123
  378ACOH    O211918   5.074   8.071   5.414 -0.4304  0.8855 -0.0354
  378ACOH    C211919   5.063   8.184   5.337  0.8246  0.5697 -0.5775
  378ACOH    O111920   4.970   8.262   5.336  0.5898 -0.0708  0.5923
  378ACOH    C111921   5.199   8.217   5.281  0.0505 -0.0644 -0.2397
  378ACOH    H111922   5.203   8.323   5.256 -1.2441 -0.5758 -2.7394
  378ACOH    H211923   5.217   8.147   5.200 -1.5739 -0.3354 -0.3749
  378ACOH    H311924   5.265   8.199   5.367 -1.1937 -1.3565  0.4785
  379ACOH    H411925   5.039   3.323   3.321 -0.7210 -1.6417 -0.2534
  379ACOH    O211926   5.120   3.272   3.332  0.2155 -0.1268  0.0023
  379ACOH    C211927   5.206   3.341   3.410  0.3518 -0.3150  0.1515
  379ACOH    O111928   5.194   3.459   3.440 -0.3425 -0.7495  0.3747
  379ACOH    C111929   5.312   3.255   3.459  0.2115 -0.6056  0.0802
  379ACOH    H111930   5.396   3.322   3.473  1.6392 -2.2997 -0.2563
  379ACOH    H211931   5.342   3.173   3.393  0.9565  0.4244 -0.8835
  379ACOH    H311932   5.274   3.209   3.550  1.8610 -3.4945 -0.6282
  380ACOH    H411933   5.043   8.953   5.652 -0.7567  1.2149 -0.4992
  380ACOH    O211934   5.075   9.044   5.639 -0.2779  1.0847 -0.2248
  380ACOH    C211935   4.975   9.107   5.576 -0.1547 -0.4484  0.8835
  380ACOH    O111936   4.857   9.079   5.590  0.4300 -0.3434 -0.1192
  380ACOH    C111937   5.024   9.243   5.533 -0.4708  0.3634 -0.7234
  380ACOH    H111938   4.936   9.305   5.517  0.2973  1.4203 -0.9283
  380ACOH    H211939   5.087   9.235   5.444  0.6531  0.4980  0.0439
  380ACOH    H311940   5.088   9.288   5.610  1.4041  1.4894 -2.8497
  381ACOH    H411941   7.675   7.784   4.266 -0.1114 -0.7973 -0.9567
  381ACOH    O211942   7.587   7.744   4.274 -0.2551 -0.2637  0.2624
  381ACOH    C211943   7.612   7.612   4.256 -0.2086  0.1316 -0.4381
  381ACOH    O111944   7.726   7.565   4.239  0.0009  0.0068 -0.2069
  381ACOH    C111945   7.488   7.524   4.266 -0.2926 -0.9462  0.2221
  381ACOH    H111946   7.527   7.427   4.234  0.6533 -0.3102 -0.5985
  381ACOH    H211947   7.416   7.551   4.190  0.1635 -0.6075 -0.0944
  381ACOH    H311948   7.439   7.517   4.363 -0.8331  0.1698  0.0293
  382ACOH    H411949   4.869   4.857   0.332  5.2095  0.1645  3.8035
  382ACOH    O211950   4.917   4.814   0.260  0.1038 -0.1586  0.3512
  382ACOH    C211951   5.003   4.744   0.332 -0.2714  0.2304  0.7190
  382ACOH    O111952   4.994   4.685   0.436  0.2512 -0.7050  0.6016
  382ACOH    C111953   5.119   4.706   0.241  0.7942  0.2205 -0.3007
  382ACOH    H111954   5.081   4.672   0.145 -1.3551 -1.6833  1.1719
  382ACOH    H211955   5.182   4.635   0.294  0.0843 -0.5889 -0.5326
  382ACOH    H311956   5.164   4.803   0.221  1.2368  0.5827  2.2026
  383ACOH    H411957   5.135   0.380   1.099 -3.4310 -0.7515 -3.1366
  383ACOH    O211958   5.086   0.458   1.131 -0.3278  0.1103 -0.2381
  383ACOH    C211959   5.068   0.542   1.036 -0.4937 -0.7182  0.5734
  383ACOH    O111960   5.086   0.511   0.921 -0.6722 -0.1095 -0.4198
  383ACOH    C111961   5.001   0.675   1.076  0.1532 -0.1179  0.2223
  383ACOH    H111962   5.016   0.689   1.184  0.2594  4.1162 -0.2657
  383ACOH    H211963   4.896   0.664   1.051  0.5753 -2.8228 -0.5239
  383ACOH    H311964   5.049   0.762   1.030  0.4352  1.4087  3.2200
  384ACOH    H411965   6.677   1.702   4.111 -0.4048 -0.1819  0.1924
  384ACOH    O211966   6.702   1.720   4.203  0.0866  0.2767 -0.0258
  384ACOH    C211967   6.796   1.631   4.245 -0.6493 -0.3960  0.4809
  384ACOH    O111968   6.842   1.545   4.175 -0.2025  0.7151 -0.2387
  384ACOH    C111969   6.822   1.661   4.390  0.2575 -0.0371  0.5015
  384ACOH    H111970   6.808   1.768   4.407 -1.0882  0.1238 -1.4938
  384ACOH    H211971   6.926   1.635   4.412  0.4490  0.2799 -0.0294
  384ACOH    H311972   6.751   1.608   4.453 -0.0652  1.2057  1.1964
  385ACOH    H411973   6.942   6.225   2.412 -1.6866  1.1544 -0.4161
  385ACOH    O211974   6.948   6.183   2.325 -0.0478  0.2608  0.1020
  385ACOH    C211975   7.068   6.127   2.341 -0.2216  0.9079  0.0887
  385ACOH    O111976   7.152   6.172   2.417 -0.3718  0.1120 -0.8322
  385ACOH    C111977   7.101   6.051   2.216 -0.0371  0.0537 -0.2103
  385ACOH    H111978   7.179   5.979   2.240 -0.3060 -0.4650 -0.8860
  385ACOH    H211979   7.147   6.119   2.145  0.7101 -0.9011 -0.6478
  385ACOH    H311980   7.013   6.002   2.176 -0.8285  0.7996  0.5846
  386ACOH    H411981   0.246   7.555   0.603  1.4382  0.6204  0.3067
  386ACOH    O211982   0.275   7.462   0.613 -0.3270 -0.0098 -0.2611
  386ACOH    C211983   0.223   7.379   0.523  0.3480 -0.0822 -0.2690
  386ACOH    O111984   0.138   7.419   0.440 -0.3939  0.6868 -0.1561
  386ACOH    C111985   0.274   7.241   0.539  0.5041  0.0247 -0.0758
  386ACOH    H111986   0.245   7.176   0.457 -1.1408 -0.4464  0.8652
  386ACOH    H211987   0.233   7.205   0.633 -1.4834 -1.5111 -1.5036
  386ACOH    H311988   0.382   7.233   0.554  0.5580 -0.1808 -0.5718
  387ACOH    H411989   8.241   8.589   0.344 -0.1507 -0.1790 -0.2191
  387ACOH    O211990   8.286   8.513   0.383  0.0460  0.0250 -0.0432
  387ACOH    C211991   8.263   8.517   0.515 -0.6731 -0.0952  0.5346
  387ACOH    O111992   8.208   8.605   0.576 -0.2046  0.3947 -0.7262
  387ACOH    C111993   8.336   8.406   0.582 -0.3692 -0.5148  0.1091
  387ACOH    H111994   8.273   8.319   0.565 -0.1528  0.1004 -4.3608
  387ACOH    H211995   8.347   8.426   0.688  0.3616  0.1322 -0.0875
  387ACOH    H311996   8.438   8.401   0.543  0.2579  0.9220  1.4932
  388ACOH    H411997   4.699   2.575   1.203 -0.8136  0.6761  2.0124
  388ACOH    O211998   4.789   2.613   1.214 -0.2878  0.1713 -0.2983
  388ACOH    C211999   4.875   2.516   1.167  0.2505 -0.4373  0.4929
  388ACOH    O112000   4.842   2.424   1.103 -0.2076 -0.0621 -0.2821
  388ACOH    C112001   5.015   2.567   1.190 -0.4312 -0.8027  0.1108
  388ACOH    H112002   5.084   2.485   1.208 -1.5029 -1.7786 -0.1710
  388ACOH    H212003   5.012   2.640   1.271  2.2224  3.2014 -3.1966
  388ACOH    H312004   5.057   2.626   1.109  1.7446 -0.1696  1.6555
  389ACOH    H412005   6.674   0.285   1.912 -1.3836 -2.6620 -0.9080
  389ACOH    O212006   6.611   0.338   1.860  0.2331 -0.0849 -0.2982
  389ACOH    C212007   6.598   0.266   1.752  0.0896 -0.0769  1.0025
  389ACOH    O112008   6.629   0.148   1.730  0.0961 -0.3154  0.1778
  389ACOH    C112009   6.500   0.345   1.665 -0.3726  0.2943 -0.0356
  389ACOH    H112010   6.420   0.390   1.723 -1.2130 -0.7710 -0.3670
  389ACOH    H212011   6.460   0.285   1.584 -0.1963  3.4387 -2.5477
  389ACOH    H312012   6.549   0.426   1.611 -1.0006  0.4714 -0.3399
  390ACOH    H412013   3.574   5.692   0.445 -1.1271 -1.5815  1.2242
  390ACOH    O212014   3.645   5.626   0.450 -0.0701 -0.5665  0.0641
  390ACOH    C212015   3.578   5.513   0.420  0.4285  0.2258 -0.5545
  390ACOH    O112016   3.470   5.511   0.360 -0.6270  0.2234  0.4410
  390ACOH    C112017   3.665   5.398   0.434 -0.0601  0.0637  0.2141
  390ACOH    H112018   3.696   5.356   0.338 -0.6330  0.7531 -0.2653
  390ACOH    H212019   3.622   5.314   0.488 -0.2391  0.7178  1.0844
  390ACOH    H312020   3.758   5.418   0.487 -1.0781  1.7393  1.3889
  391ACOH    H412021   6.723   1.015   0.957  1.5086  0.2290  0.2418
  391ACOH    O212022   6.686   1.022   0.867  0.1423 -0.3110  0.7561
  391ACOH    C212023   6.760   1.098   0.787  0.1055 -0.2262 -0.1114
  391ACOH    O112024   6.846   1.172   0.816  0.2036 -0.3081 -0.5731
  391ACOH    C112025   6.707   1.102   0.646  0.1756  1.2826  0.2191
  391ACOH    H112026   6.771   1.038   0.584 -2.7339  1.0488 -2.6451
  391ACOH    H212027   6.712   1.207   0.617 -0.5681  0.5132 -2.8949
  391ACOH    H312028   6.604   1.069   0.644  0.0276  1.6797  1.1559
  392ACOH    H412029   7.898   1.999   5.163 -0.6789 -1.4727 -1.4905
  392ACOH    O212030   7.882   2.060   5.089  0.5368  0.5875 -0.0653
  392ACOH    C212031   7.808   2.162   5.142  0.1178  0.4920  0.0004
  392ACOH    O112032   7.748   2.162   5.245  0.1232  0.0488 -0.0047
  392ACOH    C112033   7.801   2.277   5.053  0.4217 -0.2297 -0.4282
  392ACOH    H112034   7.699   2.309   5.031  0.0897  0.3305  1.9039
  392ACOH    H212035   7.850   2.249   4.959  1.6368 -0.8462  0.3770
  392ACOH    H312036   7.856   2.365   5.086 -0.6701  1.2882 -2.4976
  393ACOH    H412037   8.618   7.330   4.498  0.1432  1.0636 -2.0876
  393ACOH    O212038   8.709   7.294   4.491  0.0318  0.3080 -0.0525
  393ACOH    C212039   8.775   7.366   4.402 -0.0437 -0.3480  0.0091
  393ACOH    O112040   8.749   7.483   4.367  0.3717 -0.2814 -0.7504
  393ACOH    C112041   8.876   7.288   4.329  0.2136  0.0373  0.2445
  393ACOH    H112042   8.973   7.338   4.333 -0.5130  1.3962  1.5223
  393ACOH    H212043   8.841   7.278   4.227  0.6533  2.1252 -0.1468
  393ACOH    H312044   8.889   7.188   4.370  0.7243 -0.4911 -1.1916
  394ACOH    H412045   7.106   6.418   2.814  0.8206  0.2804 -1.8362
  394ACOH    O212046   7.097   6.332   2.770 -0.3024 -0.4236 -0.2782
  394ACOH    C212047   7.111   6.237   2.863 -0.0629  0.9195  0.7915
  394ACOH    O112048   7.118   6.259   2.983 -0.4640  0.1304  0.0935
  394ACOH    C112049   7.092   6.101   2.800 -0.6268 -0.1725  0.2774
  394ACOH    H112050   7.116   6.015   2.862 -0.9581 -0.6092 -0.2006
  394ACOH    H212051   7.147   6.089   2.707 -1.9162 -2.8219 -0.1725
  394ACOH    H312052   6.986   6.091   2.775 -0.4028  1.1378 -1.2715
  395ACOH    H412053   7.238   3.951   4.846  1.0721 -0.3559 -0.2039
  395ACOH    O212054   7.206   3.919   4.760 -0.2135 -0.2969  0.2402
  395ACOH    C212055   7.180   4.035   4.690 -0.0750  0.6883  0.3889
  395ACOH    O112056   7.244   4.138   4.700  0.3814  0.7802 -0.7396
  395ACOH    C112057   7.126   3.992   4.559  0.2225 -0.3261  0.1255
  395ACOH    H112058   7.103   4.083   4.505  3.3212  0.7267  0.4725
  395ACOH    H212059   7.039   3.927   4.559 -0.5923  0.7580  0.2213
  395ACOH    H312060   7.205   3.946   4.500  1.3185  1.8674 -0.1693
  396ACOH    H412061   4.776   4.785   5.365 -0.0007  0.3170 -1.2422
  396ACOH    O212062   4.863   4.779   5.409 -0.4332 -0.2793 -0.4652
  396ACOH    C212063   4.944   4.849   5.323 -0.0115 -0.3585 -0.1790
  396ACOH    O112064   4.909   4.930   5.237 -0.0015 -0.4642 -1.1887
  396ACOH    C112065   5.082   4.839   5.372 -0.1414 -0.6907 -0.0804
  396ACOH    H112066   5.135   4.931   5.344  1.2410 -2.1961 -2.6270
  396ACOH    H212067   5.125   4.761   5.309 -0.0350  0.3203 -1.2834
  396ACOH    H312068   5.085   4.821   5.480  0.4599  1.0400  0.2162
  397ACOH    H412069   4.218   5.133   1.195 -2.8844 -1.7149 -0.1281
  397ACOH    O212070   4.227   5.129   1.099 -0.6004  0.0038 -0.0181
  397ACOH    C212071   4.299   5.018   1.070  0.6755 -0.5657  0.0714
  397ACOH    O112072   4.325   4.924   1.144  0.1126  1.0094  0.0030
  397ACOH    C112073   4.337   5.025   0.925  0.2042  0.5701 -1.1114
  397ACOH    H112074   4.249   5.026   0.861  0.3854 -0.0751 -1.3668
  397ACOH    H212075   4.406   4.949   0.891  0.8429  0.4763  0.3285
  397ACOH    H312076   4.384   5.123   0.915 -2.1584  1.7956 -0.6744
  398ACOH    H412077   4.782   9.537   5.127 -0.3814  2.3494  1.3292
  398ACOH    O212078   4.760   9.490   5.209  0.0214 -0.1023  0.0853
  398ACOH    C212079   4.720   9.589   5.295 -0.4565  0.1016  0.1474
  398ACOH    O112080   4.685   9.701   5.270  0.4435  0.2975 -0.3247
  398ACOH    C112081   4.741   9.530   5.435  0.2856  0.3536 -0.7569
  398ACOH    H112082   4.702   9.428   5.438 -0.8314  0.6289 -3.8148
  398ACOH    H212083   4.694   9.595   5.509  0.2874  0.7160 -1.0756
  398ACOH    H312084   4.849   9.520   5.450 -0.0180 -0.8373  0.8336
  399ACOH    H412085   5.221   3.552   0.876 -0.8877  0.2916  0.9735
  399ACOH    O212086   5.252   3.480   0.934  0.4204 -0.2492 -0.3510
  399ACOH    C212087   5.317   3.549   1.031  0.4576  0.5332  0.2850
  399ACOH    O112088   5.321   3.672   1.030  0.1764  0.4768  0.1116
  399ACOH    C112089   5.386   3.445   1.121 -0.4280 -0.0517 -1.1309
  399ACOH    H112090   5.306   3.398   1.178 -0.0678  0.2021 -0.4154
  399ACOH    H212091   5.460   3.490   1.187 -0.9480  1.7114 -1.7326
  399ACOH    H312092   5.441   3.372   1.061 -0.2342 -0.7472 -0.1319
  400ACOH    H412093   3.601   4.520   3.146  0.1086 -0.3728 -0.7328
  400ACOH    O212094   3.662   4.593   3.127  0.3589 -0.3694  0.0601
  400ACOH    C212095   3.735   4.614   3.234  0.3859 -1.1479  0.2329
  400ACOH    O112096   3.746   4.561   3.337  0.1416 -0.0885  0.2863
  400ACOH    C112097   3.806   4.744   3.204  0.0571 -0.2268  0.2493
  400ACOH    H112098   3.903   4.740   3.254 -0.6904 -2.0110  1.6597
  400ACOH    H212099   3.748   4.821   3.255 -1.4964 -1.0795 -0.1971
  400ACOH    H312100   3.817   4.755   3.097 -1.0397 -0.5057  0.0975
  401ACOH    H412101   3.352   5.959   5.256 -0.4533 -0.2108 -0.2561
  401ACOH    O212102   3.411   5.883   5.243  0.5194  0.5051 -0.0647
  401ACOH    C212103   3.424   5.847   5.372 -0.3727 -0.3343  0.0627
  401ACOH    O112104   3.349   5.870   5.464  0.0422  0.1819  0.2587
  401ACOH    C112105   3.540   5.759   5.394 -0.8464 -0.3066 -0.2416
  401ACOH    H112106   3.557   5.693   5.309  0.2173  1.7988 -1.7291
  401ACOH    H212107   3.520   5.694   5.479  1.0788 -0.3501  0.2182
  401ACOH    H312108   3.629   5.819   5.412 -0.0003 -1.1901 -1.4109
  402ACOH    H412109   1.814   2.361   3.310 -0.7247 -1.3507  0.4820
  402ACOH    O212110   1.726   2.396   3.284 -0.2357 -0.1969  0.3490
  402ACOH    C212111   1.748   2.476   3.177 -0.6824  0.5428  0.5593
  402ACOH    O112112   1.857   2.517   3.144  0.2525 -0.0218 -0.1821
  402ACOH    C112113   1.634   2.537   3.109  0.7236  0.1998 -0.6538
  402ACOH    H112114   1.660   2.615   3.037  1.4031  0.7216  0.1351
  402ACOH    H212115   1.565   2.568   3.188 -0.0285  0.4407 -1.4031
  402ACOH    H312116   1.583   2.457   3.055  1.4762 -1.9715  1.7237
  403ACOH    H412117   4.563   6.304   0.915 -1.9042 -0.4408 -0.3484
  403ACOH    O212118   4.583   6.248   0.838  0.0878  0.1072 -0.2539
  403ACOH    C212119   4.659   6.150   0.874  0.1491 -0.1699  0.8125
  403ACOH    O112120   4.672   6.107   0.982 -0.4075 -0.4344  0.1937
  403ACOH    C112121   4.689   6.074   0.749 -0.4107 -0.2867 -0.4656
  403ACOH    H112122   4.618   6.087   0.667 -0.0574  1.0079 -0.5804
  403ACOH    H212123   4.708   5.972   0.782  0.9898 -0.5518 -2.0140
  403ACOH    H312124   4.784   6.106   0.704 -1.0531  1.4749 -0.6042
  404ACOH    H412125   4.090   7.449   5.148  0.1110 -0.3471 -0.2565
  404ACOH    O212126   4.133   7.361   5.149  0.4412 -0.1889 -0.6685
  404ACOH    C212127   4.164   7.322   5.272  0.9020 -0.4686 -0.1185
  404ACOH    O112128   4.172   7.396   5.363  0.4247  0.0460  0.2436
  404ACOH    C112129   4.195   7.173   5.264  0.4038 -0.2748 -0.1027
  404ACOH    H112130   4.259   7.151   5.178  0.4094 -0.5463 -0.0260
  404ACOH    H212131   4.109   7.106   5.257 -1.3572  2.0047 -0.9632
  404ACOH    H312132   4.250   7.154   5.355 -0.0857  2.2250  0.7550
  405ACOH    H412133   5.419   5.729   1.254 -2.1518  0.3323  2.5785
  405ACOH    O212134   5.481   5.796   1.287  0.3688 -0.3228 -0.5298
  405ACOH    C212135   5.416   5.906   1.242  0.0197  0.1294 -0.3901
  405ACOH    O112136   5.335   5.915   1.151  0.0372  0.1568  0.2420
  405ACOH    C112137   5.461   6.026   1.318 -0.0916  0.2082 -0.0294
  405ACOH    H112138   5.569   6.015   1.325 -0.1061 -2.1787 -2.8777
  405ACOH    H212139   5.412   6.029   1.415  0.5500  2.0167  0.2729
  405ACOH    H312140   5.443   6.113   1.254  0.8850 -2.2132 -3.7328
  406ACOH    H412141   9.409   7.478  -0.058 -0.9976  1.2609 -0.6121
  406ACOH    O212142   9.360   7.481   0.026  0.1232 -0.3134  0.1347
  406ACOH    C212143   9.235   7.461  -0.010 -0.5658  0.0070  0.9258
  406ACOH    O112144   9.180   7.495  -0.112 -0.2950 -0.4168 -0.0177
  406ACOH    C112145   9.155   7.421   0.108  0.0442 -0.2667  0.4614
  406ACOH    H112146   9.170   7.320   0.145 -0.5380 -0.3489  0.4866
  406ACOH    H212147   9.052   7.432   0.074 -0.0229 -0.9687  0.4421
  406ACOH    H312148   9.159   7.500   0.184 -4.7143  0.5269  0.0385
  407SOL     OW12149   1.195   2.986   1.647  0.2255 -0.7796 -0.1611
  407SOL    HW112150   1.146   2.947   1.726 -2.6208  0.9256 -1.0400
  407SOL    HW212151   1.268   3.046   1.680 -1.5743  0.7042  1.2216
  408SOL     OW12152   3.447   9.498   5.613  0.1261  0.4720 -0.7565
  408SOL    HW112153   3.436   9.455   5.524  3.8431 -1.2005 -0.4821
  408SOL    HW212154   3.481   9.591   5.601 -0.9007  0.8085 -1.1109
  409SOL     OW12155   9.852   3.243   4.142 -0.0336 -0.1976 -0.0464
  409SOL    HW112156   9.945   3.281   4.132 -0.2303  0.1064 -0.7693
  409SOL    HW212157   9.848   3.154   4.098  0.5226 -1.2375  1.9537
  410SOL     OW12158   2.784   7.592   3.941  0.0296  0.1826  0.0900
  410SOL    HW112159   2.829   7.599   4.029 -1.2772 -0.3722  0.8133
  410SOL    HW212160   2.690   7.626   3.948 -0.6931 -1.6149 -0.6197
  411SOL     OW12161   9.061   5.022   0.530 -0.2772  0.6190 -0.2169
  411SOL    HW112162   8.969   5.052   0.504 -0.2103  0.6723 -0.3865
  411SOL    HW212163   9.053   4.942   0.589 -0.3870 -0.1077 -1.2065
  412SOL     OW12164   9.288   7.848   4.770  0.3413 -0.4908 -0.1792
  412SOL    HW112165   9.365   7.897   4.809 -1.4759  1.4813  1.0414
  412SOL    HW212166   9.291   7.856   4.670  1.2143  0.3169 -0.0978
  413SOL     OW12167   4.636   6.991   1.882 -0.0289 -0.0390 -0.4658
  413SOL    HW112168   4.619   7.003   1.784  1.6084  1.3503 -0.6001
  413SOL    HW212169   4.587   7.062   1.933 -1.3030 -1.0740 -0.2161
  414SOL     OW12170   8.401   9.865   0.900 -0.4398 -0.1245 -0.3027
  414SOL    HW112171   8.322   9.881   0.959  0.3871  0.0689  0.7638
  414SOL    HW212172   8.480   9.913   0.937  0.6706 -1.9754 -0.2435
  415SOL     OW12173   3.304   7.009   5.277 -0.1452 -0.4117  0.0741
  415SOL    HW112174   3.303   6.926   5.333  0.7965 -0.7713 -0.4374
  415SOL    HW212175   3.280   6.986   5.182  1.9947 -0.4145 -0.4777
  416SOL     OW12176   9.725   9.060   0.539  0.2559  0.3821 -0.2574
  416SOL    HW112177   9.707   8.982   0.480  1.4535 -0.0335 -0.0803
  416SOL    HW212178   9.801   9.039   0.601 -0.8158  0.8972  1.2690
  417SOL     OW12179   9.238   6.184   5.117  0.3146  0.1742 -0.0627
  417SOL    HW112180   9.189   6.227   5.041  0.4021 -2.5622 -1.7383
  417SOL    HW212181   9.232   6.084   5.108  3.7768 -0.2051  1.2847
  418SOL     OW12182   8.462   1.158   0.703  0.3573  0.7033  0.5825
  418SOL    HW112183   8.484   1.200   0.614  0.2359  2.4662  1.3776
  418SOL    HW212184   8.547   1.141   0.753  0.2935  1.5844  0.9827
  419SOL     OW12185   7.624   2.373   2.945 -0.4287  0.5469 -0.1774
  419SOL    HW112186   7.709   2.396   2.898  0.5207 -0.6382  0.9199
  419SOL    HW212187   7.638   2.292   3.001 -2.1685  0.6007  0.3638
  420SOL     OW12188   4.495   9.352   5.007  0.3025 -0.1804 -0.1385
  420SOL    HW112189   4.566   9.334   5.075  0.1400 -0.0926  0.0546
  420SOL    HW212190   4.533   9.340   4.915  0.3607 -0.8779 -0.0233
  421SOL     OW12191   8.721   1.185   2.853 -0.1918 -0.4090  0.2036
  421SOL    HW112192   8.700   1.164   2.949  1.8333  0.8711  0.9590
  421SOL    HW212193   8.724   1.284   2.840 -2.0855 -0.5487 -1.5907
  422SOL     OW12194   5.926   0.756   3.474  0.5077  0.1164  0.5040
  422SOL    HW112195   5.985   0.676   3.483  0.0602 -0.1115  1.4902
  422SOL    HW212196   5.983   0.837   3.458  1.0450 -0.2096  0.7256
  423SOL     OW12197   3.819   7.878   1.410 -0.0468 -0.1106 -0.1899
  423SOL    HW112198   3.803   7.961   1.465  0.7999 -0.4660  0.6002
  423SOL    HW212199   3.906   7.887   1.361  1.7545 -1.9415  2.5609
  424SOL     OW12200   9.483   8.671   1.108 -0.2365 -0.0594  0.7418
  424SOL    HW112201   9.409   8.646   1.045  1.2636  1.5094 -1.7004
  424SOL    HW212202   9.462   8.758   1.152 -0.2569 -0.0960  0.8048
  425SOL     OW12203   9.370   1.203   4.831 -0.1332  0.0700 -1.0427
  425SOL    HW112204   9.424   1.286   4.816  0.3161 -0.1574 -0.6656
  425SOL    HW212205   9.429   1.130   4.866 -1.2220  0.6515  2.1237
  426SOL     OW12206   1.654   4.395   5.148 -0.1386 -0.3287 -0.5430
  426SOL    HW112207   1.718   4.414   5.073  0.4181 -0.1835 -0.0392
  426SOL    HW212208   1.673   4.457   5.224  0.6370 -1.7904  0.4977
  427SOL     OW12209   8.409   8.119   2.273  0.6341 -0.6938 -0.2061
  427SOL    HW112210   8.387   8.034   2.227 -0.8353 -1.6480  2.1786
  427SOL    HW212211   8.505   8.118   2.303  0.3661 -1.9205  0.6338
  428SOL     OW12212   7.563   7.467   2.289 -0.4169 -0.3711 -0.0930
  428SOL    HW112213   7.607   7.432   2.372 -1.2165 -0.8586  0.1264
  428SOL    HW212214   7.468   7.438   2.287 -0.0884 -1.3640 -1.7934
  429SOL     OW12215   0.193   0.376   2.245  0.0125  0.1855  0.0690
  429SOL    HW112216   0.205   0.452   2.309  0.2374  0.5895 -0.4462
  429SOL    HW212217   0.102   0.380   2.205  0.3019  0.6701 -0.5671
  430SOL     OW12218   5.339   3.555   1.911  0.4736 -0.0367  0.0535
  430SOL    HW112219   5.279   3.542   1.990  0.4421  2.1283  0.4156
  430SOL    HW212220   5.300   3.506   1.832 -1.0846  0.2652  0.6094
  431SOL     OW12221   2.540   5.335   5.335  0.3513  0.3268 -0.0930
  431SOL    HW112222   2.586   5.418   5.305  0.4574  0.1777 -0.3500
  431SOL    HW212223   2.567   5.259   5.276 -1.2874  0.5113 -1.1082
  432SOL     OW12224   7.629   4.501   0.713 -0.0290  0.5426  0.0222
  432SOL    HW112225   7.535   4.516   0.744  0.4543 -0.2382  1.9249
  432SOL    HW212226   7.683   4.583   0.731  0.0736  0.3636  0.5114
  433SOL     OW12227   1.004   6.500   4.150  0.5989 -0.2834 -0.0739
  433SOL    HW112228   0.955   6.452   4.224 -0.0150 -0.4321 -0.5747
  433SOL    HW212229   1.075   6.557   4.190  1.6133 -1.9157  0.5231
  434SOL     OW12230   8.093   3.246   1.361 -0.9937  0.7845 -0.1406
  434SOL    HW112231   8.078   3.255   1.460  1.2083 -1.3224  0.4426
  434SOL    HW212232   8.141   3.327   1.327  0.6286  0.3725  1.0725
  435SOL     OW12233   8.472   4.180   1.589 -0.1852  0.0556  0.0018
  435SOL    HW112234   8.382   4.169   1.631 -0.7339  0.5644 -1.0491
  435SOL    HW212235   8.467   4.245   1.514  1.0277 -0.0430 -0.1802
  436SOL     OW12236   3.304   8.652   2.984 -0.0507  0.5353  0.0793
  436SOL    HW112237   3.222   8.595   2.990 -0.4570  0.8798 -1.9670
  436SOL    HW212238   3.314   8.686   2.891  1.8363  1.3776  0.5751
  437SOL     OW12239   9.394   3.358   4.086 -0.2101  0.3062 -0.6344
  437SOL    HW112240   9.319   3.414   4.049 -1.4907 -1.5427 -0.8643
  437SOL    HW212241   9.413   3.387   4.180 -1.2825  0.7091 -0.5335
  438SOL     OW12242   5.014   1.478   2.210 -0.1298  0.3742 -0.2046
  438SOL    HW112243   5.035   1.555   2.270  0.4747  0.4095 -0.4543
  438SOL    HW212244   4.920   1.485   2.178  0.1618  1.4432 -0.8567
  439SOL     OW12245   1.821   5.264   4.924  0.5508  0.7036 -0.3414
  439SOL    HW112246   1.783   5.330   4.859 -0.0640  1.3945  0.7086
  439SOL    HW212247   1.902   5.302   4.967 -0.5297  1.3103  1.2061
  440SOL     OW12248   4.132   0.361   0.387  0.0048 -0.0475 -0.1321
  440SOL    HW112249   4.077   0.294   0.437  0.8842 -0.6052  0.0908
  440SOL    HW212250   4.208   0.315   0.342  0.9886  0.8819  0.5517
  441SOL     OW12251   3.893   9.235   5.221 -0.5213 -0.2461  0.4240
  441SOL    HW112252   3.955   9.180   5.166 -0.1510  0.5823  0.0204
  441SOL    HW212253   3.798   9.216   5.194 -0.2649  2.0847 -2.3346
  442SOL     OW12254   1.547   0.903   3.775  0.0065 -0.2815  0.6308
  442SOL    HW112255   1.645   0.906   3.758 -0.3593  1.0387 -1.3854
  442SOL    HW212256   1.523   0.967   3.848  0.6005 -0.4518  0.9767
  443SOL     OW12257   7.257   1.265   1.639  0.0810  0.2775  0.5246
  443SOL    HW112258   7.283   1.357   1.670 -0.3890  0.3467  0.7193
  443SOL    HW212259   7.315   1.238   1.562  1.6296 -0.1216  1.8022
  444SOL     OW12260   4.091   9.132   2.466 -0.0663  0.8658  0.2376
  444SOL    HW112261   4.146   9.196   2.413 -1.0406  0.8284 -0.8454
  444SOL    HW212262   4.142   9.049   2.484  0.1505  0.7556 -0.9233
  445SOL     OW12263   9.415   8.566   1.468 -0.4072 -0.0473 -0.0438
  445SOL    HW112264   9.511   8.575   1.496 -0.0471  1.5518 -1.6909
  445SOL    HW212265   9.355   8.598   1.541  0.2992 -1.0147  0.9779
  446SOL     OW12266   6.402   0.267   4.765  0.1682 -0.2916 -0.1000
  446SOL    HW112267   6.457   0.207   4.708 -0.8393 -0.5608 -0.8096
  446SOL    HW212268   6.305   0.256   4.741 -0.3892 -1.2985  2.4768
  447SOL     OW12269   7.259   8.916   2.723 -0.1535 -0.2996  0.1545
  447SOL    HW112270   7.293   8.997   2.674  1.6126 -0.1246  1.6130
  447SOL    HW212271   7.208   8.858   2.660 -2.6244  2.6206 -0.6129
  448SOL     OW12272   2.032   0.948   1.858 -0.0568  0.7011  0.5676
  448SOL    HW112273   1.939   0.960   1.891 -0.1659 -0.6151  0.7677
  448SOL    HW212274   2.033   0.949   1.758 -0.4359 -0.2347  0.5463
  449SOL     OW12275   1.615   2.802   4.802  0.1282 -0.4079  0.3634
  449SOL    HW112276   1.622   2.891   4.757  0.2443 -0.2872  0.6150
  449SOL    HW212277   1.699   2.784   4.853 -0.5981  0.1693  1.8149
  450SOL     OW12278   1.119   5.192   2.229 -0.1461  0.4664 -0.0358
  450SOL    HW112279   1.171   5.260   2.178  0.5568 -1.0743 -1.4296
  450SOL    HW212280   1.182   5.137   2.284 -0.4244 -0.6781 -0.8560
  451SOL     OW12281   7.785   4.184   0.099  0.5021 -0.2881  0.4704
  451SOL    HW112282   7.805   4.186   0.197  0.5155 -0.3162  0.4683
  451SOL    HW212283   7.700   4.232   0.081 -0.3423 -1.6892  0.6856
  452SOL     OW12284   9.675   5.350   0.436  0.3130 -0.4780 -0.1151
  452SOL    HW112285   9.761   5.300   0.447  0.5128 -0.4190 -1.3992
  452SOL    HW212286   9.672   5.393   0.346 -0.4933  0.6286  0.4251
  453SOL     OW12287   7.274   6.435   3.449 -0.4081 -0.0123 -0.5946
  453SOL    HW112288   7.186   6.480   3.466 -0.3437 -0.4407  0.9231
  453SOL    HW212289   7.264   6.369   3.374 -1.1122  0.6818 -1.1243
  454SOL     OW12290   6.729   0.450   0.085  0.2545  0.4609 -0.1073
  454SOL    HW112291   6.669   0.481   0.011 -0.6305 -1.2098 -0.1090
  454SOL    HW212292   6.682   0.459   0.172  0.5269  0.4799  0.0378
  455SOL     OW12293   9.338   0.844   1.637 -0.0853 -0.0142  0.0076
  455SOL    HW112294   9.335   0.879   1.731  0.7403  0.8624 -0.2911
  455SOL    HW212295   9.374   0.751   1.638 -1.1052 -0.4157  0.6680
  456SOL     OW12296   9.230   1.247   1.820  0.0093  0.4379  0.2462
  456SOL    HW112297   9.202   1.159   1.782 -3.6375  0.3043  2.8718
  456SOL    HW212298   9.232   1.316   1.748 -0.5587 -1.0628 -1.2383
  457SOL     OW12299   1.638   1.447   1.764  0.8853 -0.2087 -0.3853
  457SOL    HW112300   1.609   1.413   1.674 -0.9015 -0.1917  0.1541
  457SOL    HW212301   1.710   1.388   1.800  0.3150 -1.3239 -1.0330
  458SOL     OW12302   1.628   5.972   0.737  0.6836  0.0018  0.5715
  458SOL    HW112303   1.670   6.016   0.817  0.5271  1.8054 -0.3123
  458SOL    HW212304   1.531   5.993   0.735  0.8722  0.8365 -0.6363
  459SOL     OW12305   2.529   1.180   1.243  0.0874 -0.1690  0.4011
  459SOL    HW112306   2.579   1.129   1.312  0.6838  0.7248  0.6417
  459SOL    HW212307   2.482   1.258   1.287  0.6841  0.5558 -0.2322
  460SOL     OW12308   0.233   7.454   1.024  0.2216  0.1984 -0.0062
  460SOL    HW112309   0.150   7.422   0.978 -0.2349  2.2039 -0.6266
  460SOL    HW212310   0.304   7.474   0.957  0.0033  1.8651  0.2299
  461SOL     OW12311   3.777   0.088   1.771  0.0745 -0.3378  0.2939
  461SOL    HW112312   3.837   0.165   1.746  0.0649 -0.4182  0.0195
  461SOL    HW212313   3.771   0.082   1.871 -0.9519  0.8172  0.3158
  462SOL     OW12314   8.837   4.512   5.435 -0.1456 -0.2608 -0.3183
  462SOL    HW112315   8.896   4.487   5.512  0.7533 -1.0560 -1.2487
  462SOL    HW212316   8.839   4.611   5.422 -2.9030  0.2415  2.7469
  463SOL     OW12317   7.271   0.433   0.672 -0.1262 -0.0077  0.2643
  463SOL    HW112318   7.298   0.513   0.618 -0.6175  0.6311  0.9638
  463SOL    HW212319   7.251   0.461   0.766  1.1223 -1.1770  0.8957
  464SOL     OW12320   2.857   0.053   0.886  0.0634 -0.2156 -0.0256
  464SOL    HW112321   2.898  -0.033   0.917  0.4127  0.1313  0.5051
  464SOL    HW212322   2.880   0.125   0.952 -0.8365  0.1265 -0.0871
  465SOL     OW12323   2.866   8.900   2.295 -0.0543  0.0747 -0.1458
  465SOL    HW112324   2.826   8.967   2.358 -0.2333  0.7878 -1.0116
  465SOL    HW212325   2.962   8.886   2.319  0.0545  0.8318 -0.1201
  466SOL     OW12326   8.690   1.649   2.580  0.0352 -0.2469 -0.4133
  466SOL    HW112327   8.686   1.564   2.633 -2.0093  0.8129  1.2170
  466SOL    HW212328   8.598   1.671   2.546  0.7756  0.7003 -1.8557
  467SOL     OW12329   4.648   0.843   5.312 -0.3004  0.1485  0.1195
  467SOL    HW112330   4.647   0.943   5.314  0.2549  0.1447  0.3809
  467SOL    HW212331   4.739   0.811   5.287  0.3127 -0.3625  2.9364
  468SOL     OW12332   0.088   3.253   3.707 -0.3042 -0.8333 -0.1578
  468SOL    HW112333   0.167   3.276   3.650  0.7857  2.1748  2.3919
  468SOL    HW212334   0.116   3.188   3.777 -0.4006 -0.7500 -0.0424
  469SOL     OW12335   4.308   9.770   4.326  0.0451 -0.1127  0.7034
  469SOL    HW112336   4.259   9.778   4.413  0.4514 -0.6682  0.9899
  469SOL    HW212337   4.264   9.827   4.257 -0.4304  0.1369  1.2089
  470SOL     OW12338   3.882   3.550   0.868  0.2332 -0.4935 -0.4631
  470SOL    HW112339   3.885   3.530   0.966  2.5492  1.8897  0.0051
  470SOL    HW212340   3.972   3.533   0.827 -0.1525  0.4694 -1.7529
  471SOL     OW12341   2.437   8.525   2.258  0.6261 -0.1531 -0.1349
  471SOL    HW112342   2.528   8.495   2.228  2.0703  1.0607  2.8548
  471SOL    HW212343   2.369   8.458   2.227  2.5053 -1.1037 -2.3970
  472SOL     OW12344   8.532   9.992   2.271 -0.2791  0.0547  0.1600
  472SOL    HW112345   8.540   9.892   2.267 -0.6937  0.0771 -1.3215
  472SOL    HW212346   8.606  10.033   2.219 -0.7675  0.5017 -0.1831
  473SOL     OW12347   8.864   0.417   0.379  0.3795  0.2159 -0.1976
  473SOL    HW112348   8.823   0.339   0.333  2.0526 -1.5188  1.1220
  473SOL    HW212349   8.862   0.497   0.320  0.0894 -1.2604 -2.2179
  474SOL     OW12350   1.737   7.885   3.263 -0.0939 -0.2182  0.5339
  474SOL    HW112351   1.757   7.878   3.360 -1.6397 -1.2233  0.7900
  474SOL    HW212352   1.647   7.846   3.244  0.1368  0.0752 -1.2817
  475SOL     OW12353   6.294   8.495   1.756  0.6775 -0.4039 -0.4978
  475SOL    HW112354   6.351   8.487   1.838  0.5495 -2.6235 -0.6023
  475SOL    HW212355   6.219   8.428   1.760  0.1591  0.0660 -2.0111
  476SOL     OW12356   0.681   6.713   4.830 -0.1352 -0.2406  0.0001
  476SOL    HW112357   0.695   6.805   4.865  0.8354 -0.4194  0.1103
  476SOL    HW212358   0.606   6.713   4.764 -1.8242  0.1449  1.8565
  477SOL     OW12359   4.211   3.230   4.423  0.3759 -0.3687  0.4287
  477SOL    HW112360   4.143   3.195   4.358  0.0997 -1.5778  1.3493
  477SOL    HW212361   4.302   3.202   4.394  0.3274 -0.2155  0.1262
  478SOL     OW12362   1.870   6.089   4.428 -0.4206 -0.0842 -0.3962
  478SOL    HW112363   1.786   6.127   4.390  0.2738  2.2519  0.3626
  478SOL    HW212364   1.948   6.118   4.372  0.1150 -0.4478  0.1572
  479SOL     OW12365   3.748   2.938   2.910 -0.0432 -0.2737 -0.1016
  479SOL    HW112366   3.846   2.918   2.913 -0.1334 -0.5405  1.5668
  479SOL    HW212367   3.709   2.897   2.828  0.8497 -2.0649  0.3384
  480SOL     OW12368   8.427   3.109   2.257 -0.1474  0.1567 -0.1221
  480SOL    HW112369   8.460   3.182   2.197  0.3980 -0.5818 -0.7390
  480SOL    HW212370   8.381   3.039   2.202 -0.8171  0.1144  0.4830
  481SOL     OW12371   9.126   5.375   2.061 -0.7154  0.2609 -0.2425
  481SOL    HW112372   9.174   5.410   1.980 -0.2458  1.7546  0.6544
  481SOL    HW212373   9.182   5.392   2.143 -0.7594 -2.0919  0.2962
  482SOL     OW12374   4.222   2.647   0.532  0.4637  0.0076 -0.0842
  482SOL    HW112375   4.215   2.554   0.497  0.7161  0.3909 -1.1727
  482SOL    HW212376   4.266   2.645   0.622 -0.2073 -0.9878  0.2222
  483SOL     OW12377   9.874   2.805   5.265 -0.0736  0.3362 -0.3900
  483SOL    HW112378   9.927   2.836   5.187  1.2011  0.5329  0.5433
  483SOL    HW212379   9.785   2.770   5.234  0.7681 -0.3966 -1.9891
  484SOL     OW12380   8.064   1.970   4.320 -0.5972  0.1318  0.0624
  484SOL    HW112381   8.012   1.885   4.326  1.5968 -1.4631 -2.1077
  484SOL    HW212382   8.092   1.999   4.412 -0.9039 -1.8081  0.7916
  485SOL     OW12383   2.206   8.797   5.421  0.7365  0.0720 -0.4570
  485SOL    HW112384   2.120   8.834   5.388  0.6901 -0.5948 -1.1094
  485SOL    HW212385   2.193   8.702   5.448  1.2068  0.0457 -0.3240
  486SOL     OW12386   3.223   5.206   1.938 -0.2075 -0.0278  0.0859
  486SOL    HW112387   3.270   5.242   1.858 -2.0159  0.7293 -0.6745
  486SOL    HW212388   3.130   5.244   1.942 -1.0451 -2.0859  1.0667
  487SOL     OW12389   9.662   5.755   4.054  0.1172  0.1180 -0.0692
  487SOL    HW112390   9.664   5.708   4.142  0.2143 -0.4154 -0.3525
  487SOL    HW212391   9.718   5.838   4.059  0.1663  0.0585  0.3519
  488SOL     OW12392   9.624   1.127   0.034 -0.2730 -0.5168  0.2051
  488SOL    HW112393   9.667   1.168   0.115  1.1497 -0.7181 -0.4385
  488SOL    HW212394   9.596   1.199  -0.029  1.0162 -0.4633 -0.3166
  489SOL     OW12395   2.999   7.636   4.088 -0.3679 -0.4311 -0.4894
  489SOL    HW112396   2.953   7.696   4.153 -0.5885  0.4538 -1.4448
  489SOL    HW212397   3.025   7.551   4.133  0.8139  0.7589  1.1583
  490SOL     OW12398   0.328   5.258   3.797  0.0770  0.0860 -0.2133
  490SOL    HW112399   0.405   5.223   3.744  0.4448  2.0282 -0.9832
  490SOL    HW212400   0.289   5.183   3.852  2.0121 -1.0764 -0.3778
  491SOL     OW12401   0.016   1.663   3.086 -0.0732 -0.0904  0.1489
  491SOL    HW112402   0.008   1.606   3.167 -0.9028  0.6981  0.6405
  491SOL    HW212403  -0.010   1.611   3.005  1.8951 -1.2289  0.2275
  492SOL     OW12404   5.207   0.007   2.667  0.0316 -0.0668  0.4429
  492SOL    HW112405   5.286   0.066   2.650  0.2921 -0.3879  0.5292
  492SOL    HW212406   5.237  -0.088   2.669  0.1319 -0.0168  3.4457
  493SOL     OW12407   9.400   5.028   2.833 -0.3411  0.4188 -0.0952
  493SOL    HW112408   9.368   4.936   2.809 -1.1281  0.1457  1.9149
  493SOL    HW212409   9.379   5.047   2.928 -1.6916  3.3366 -0.9162
  494SOL     OW12410   5.341   8.787   2.191 -0.3892 -0.5400  0.3818
  494SOL    HW112411   5.397   8.870   2.189 -1.3046  0.0826  0.1802
  494SOL    HW212412   5.245   8.811   2.173 -0.3403 -1.9328 -1.9628
  495SOL     OW12413   0.553   8.776   0.553  0.4396 -0.2726  0.2682
  495SOL    HW112414   0.596   8.866   0.553 -0.7748  0.4197 -4.0438
  495SOL    HW212415   0.618   8.708   0.522  0.0449 -0.1146 -0.9252
  496SOL     OW12416   2.666   1.661   0.422 -0.0266  0.4870 -0.2522
  496SOL    HW112417   2.657   1.760   0.438  0.9318  0.9529 -2.3886
  496SOL    HW212418   2.758   1.641   0.389  0.1937 -1.3223  1.4008
  497SOL     OW12419   9.648   5.145   2.770 -0.4670 -0.7520 -0.4455
  497SOL    HW112420   9.693   5.118   2.855  1.3363  0.3368 -1.0377
  497SOL    HW212421   9.559   5.099   2.764  0.4875 -2.8346  0.7944
  498SOL     OW12422   2.611   8.468   3.244 -0.1895 -0.9846  0.6839
  498SOL    HW112423   2.678   8.483   3.171 -0.9718  1.0527  0.3412
  498SOL    HW212424   2.520   8.456   3.204 -0.2867 -2.0681  1.2227
  499SOL     OW12425   7.668   4.258   5.291  0.0448 -0.3724  0.3589
  499SOL    HW112426   7.724   4.252   5.373  1.2120 -0.7598 -0.4640
  499SOL    HW212427   7.607   4.338   5.298 -0.1071 -0.5993  1.7398
  500SOL     OW12428   1.158   5.334   1.536  0.3849  0.2237 -0.2205
  500SOL    HW112429   1.219   5.376   1.603  1.6269  0.0707 -1.2566
  500SOL    HW212430   1.171   5.377   1.447  0.1225 -0.9045 -0.8077
  501SOL     OW12431   1.048   2.064   4.032 -0.1445  0.5350  0.2932
  501SOL    HW112432   0.995   2.133   4.081 -0.4699 -0.1190  0.8815
  501SOL    HW212433   1.095   2.005   4.098  0.7995  0.7099 -0.2198
  502SOL     OW12434   7.101   1.729   3.862 -0.2875 -0.5750 -0.1890
  502SOL    HW112435   7.077   1.826   3.868 -0.3527 -0.4330 -2.3558
  502SOL    HW212436   7.196   1.721   3.831 -0.4594 -1.2005 -0.5611
  503SOL     OW12437   3.839   4.411   1.642  0.1772  0.4405 -0.4323
  503SOL    HW112438   3.798   4.439   1.729 -0.9837 -1.0672 -0.4599
  503SOL    HW212439   3.938   4.425   1.646 -0.0965  2.2614  0.3877
  504SOL     OW12440   7.796   9.418   2.559  0.8737  0.2582  0.1009
  504SOL    HW112441   7.724   9.437   2.626 -0.1048  2.1213 -1.4507
  504SOL    HW212442   7.882   9.460   2.590  0.7075  0.1526  0.7210
  505SOL     OW12443   6.997   9.584   2.479 -0.3158  0.3758  0.2266
  505SOL    HW112444   6.928   9.655   2.464 -0.7021  0.2338  1.3330
  505SOL    HW212445   6.953   9.495   2.485 -0.0813  0.3150  1.1952
  506SOL     OW12446   9.191   5.844   0.312 -0.0868 -0.2711  0.3496
  506SOL    HW112447   9.219   5.753   0.283 -0.3983 -0.3611  0.3318
  506SOL    HW212448   9.264   5.909   0.291 -0.5005 -0.2541 -1.0818
  507SOL     OW12449   3.229   6.106   0.597  0.9534 -0.3420  0.3456
  507SOL    HW112450   3.310   6.072   0.645  1.4342  0.0089 -0.2347
  507SOL    HW212451   3.148   6.058   0.633  1.4529 -0.9782  0.6418
  508SOL     OW12452   3.674   0.837   1.389  0.2733 -0.1807 -0.1846
  508SOL    HW112453   3.640   0.787   1.309 -0.6304 -0.8196  0.5860
  508SOL    HW212454   3.597   0.867   1.445  0.9508 -1.5368  1.5305
  509SOL     OW12455   4.353   3.645   1.999 -0.0783 -0.4276 -0.4376
  509SOL    HW112456   4.438   3.608   2.035 -1.1982 -0.9482  1.7692
  509SOL    HW212457   4.279   3.579   2.012 -1.1892  0.7529 -0.6414
  510SOL     OW12458   0.205   7.826   4.532  0.2056 -0.0893 -0.2064
  510SOL    HW112459   0.241   7.898   4.472  0.6725  0.3045  0.5392
  510SOL    HW212460   0.204   7.739   4.483  1.1559  0.1115 -0.5863
  511SOL     OW12461   0.809   5.656   2.290  0.0799 -0.4214  0.0682
  511SOL    HW112462   0.766   5.676   2.378  0.4373 -0.9373  0.3670
  511SOL    HW212463   0.863   5.735   2.260 -1.3787  0.3653 -0.4982
  512SOL     OW12464   9.262   7.803   4.480 -0.2556  0.1299  0.1728
  512SOL    HW112465   9.311   7.744   4.416  0.2701  1.3959 -0.6145
  512SOL    HW212466   9.298   7.896   4.473 -0.8184  0.4708  1.6647
  513SOL     OW12467   1.135   7.303   3.072 -0.6518 -0.2454 -0.1514
  513SOL    HW112468   1.130   7.277   3.168 -3.3528  1.0462  0.0991
  513SOL    HW212469   1.124   7.402   3.063 -0.9703 -0.4102 -1.7999
  514SOL     OW12470   8.680   2.293   4.855 -0.4174  0.4626  0.2661
  514SOL    HW112471   8.739   2.243   4.791 -1.8560 -0.1973 -0.5944
  514SOL    HW212472   8.730   2.314   4.938  0.8149 -0.6936 -0.1708
  515SOL     OW12473   5.010   6.780   1.745  0.6994  0.1766  0.0658
  515SOL    HW112474   5.101   6.802   1.781  0.0741  1.8275  0.6986
  515SOL    HW212475   4.951   6.749   1.819  0.4258  0.1614 -0.1562
  516SOL     OW12476   1.390   2.232   5.009  0.0193 -0.3053 -0.4246
  516SOL    HW112477   1.357   2.222   5.103  2.1596 -0.7162  0.3131
  516SOL    HW212478   1.317   2.269   4.952 -1.0184  0.8698  1.6065
  517SOL     OW12479   1.927   2.279   3.758 -0.6639  0.3314 -0.0843
  517SOL    HW112480   2.020   2.266   3.722 -1.1701  0.6593 -1.5299
  517SOL    HW212481   1.929   2.269   3.858  0.4616 -2.3107 -0.3255
  518SOL     OW12482   0.783   3.906   3.353  0.1926 -0.9953  0.2364
  518SOL    HW112483   0.701   3.958   3.328  0.4832 -0.5850  0.1323
  518SOL    HW212484   0.758   3.832   3.415 -0.6463 -2.3687 -1.6672
  519SOL     OW12485   0.312   7.166   3.213  0.7506 -0.3516 -0.1227
  519SOL    HW112486   0.327   7.124   3.303  0.7664 -0.3422 -0.1209
  519SOL    HW212487   0.312   7.266   3.223 -1.6114 -0.3581  0.2604
  520SOL     OW12488   6.864   9.921   4.000 -0.4065  0.3423 -0.8239
  520SOL    HW112489   6.800   9.874   3.940  1.1325 -1.8729 -0.7942
  520SOL    HW212490   6.958   9.902   3.971  0.3132  1.0852  0.9166
  521SOL     OW12491   8.006   1.029   3.033  0.0691 -0.1202 -0.1576
  521SOL    HW112492   8.049   0.950   3.076 -0.8551 -1.2169 -1.2328
  521SOL    HW212493   8.072   1.104   3.029  0.4930 -0.3145  2.2493
  522SOL     OW12494   3.257   1.469   3.543 -0.3217 -0.3657  0.4782
  522SOL    HW112495   3.336   1.412   3.568 -0.6238 -0.4006  1.3886
  522SOL    HW212496   3.283   1.565   3.546  0.7967 -0.4894 -3.1968
  523SOL     OW12497   6.058   9.995   2.400 -0.1606 -0.2934  0.0719
  523SOL    HW112498   6.078  10.090   2.375 -1.6792  0.1725  0.5873
  523SOL    HW212499   6.032   9.943   2.319  1.3070 -0.4528 -0.3190
  524SOL     OW12500   8.876   6.090   2.012  0.6328  0.0637 -0.0766
  524SOL    HW112501   8.953   6.040   2.049  0.6368  0.4702  0.4675
  524SOL    HW212502   8.908   6.150   1.938  0.7840  0.0130 -0.0530
  525SOL     OW12503   8.794   2.814   1.148 -0.0761 -0.2186 -0.1040
  525SOL    HW112504   8.861   2.745   1.121 -1.2455 -0.9900 -1.0787
  525SOL    HW212505   8.732   2.775   1.216 -0.0131  0.2414  0.2137
  526SOL     OW12506   7.890   0.333   1.087 -0.2646  0.5492 -0.8996
  526SOL    HW112507   7.960   0.285   1.139  0.5269  0.6074 -1.8831
  526SOL    HW212508   7.886   0.429   1.116 -1.4162  0.0469  0.6309
  527SOL     OW12509   0.436   4.889   0.066  0.2103 -0.0055  0.1550
  527SOL    HW112510   0.524   4.934   0.081  0.7229 -1.2186  0.8723
  527SOL    HW212511   0.397   4.861   0.155 -0.3474 -0.4931 -0.2383
  528SOL     OW12512   1.715   8.607   1.661 -0.0682  0.8061 -0.2224
  528SOL    HW112513   1.737   8.540   1.732 -0.8297  0.3035 -0.4419
  528SOL    HW212514   1.796   8.659   1.636  0.5643 -0.1481 -0.1504
  529SOL     OW12515   1.663   6.603   5.158  0.2248  0.9249 -0.3178
  529SOL    HW112516   1.670   6.703   5.165 -0.6860  0.9505  0.3538
  529SOL    HW212517   1.716   6.561   5.232  1.4242  0.8834 -1.1957
  530SOL     OW12518   4.141   2.265   5.371 -0.1300 -0.6440 -0.3216
  530SOL    HW112519   4.060   2.210   5.353  1.3789 -2.8221 -0.6931
  530SOL    HW212520   4.191   2.281   5.286 -0.9135  1.9373 -0.3295
  531SOL     OW12521   5.377   3.872   0.224  0.3941 -0.0447 -0.2389
  531SOL    HW112522   5.373   3.971   0.232  1.1903  0.1509 -1.9902
  531SOL    HW212523   5.303   3.840   0.165  0.4444 -0.4440 -0.0889
  532SOL     OW12524   8.143   4.558   1.673 -0.0542  0.3518  0.6166
  532SOL    HW112525   8.172   4.465   1.693  0.1450  0.4635  0.8382
  532SOL    HW212526   8.075   4.587   1.740  0.6644  0.7510  1.1645
  533SOL     OW12527   3.153   8.329   5.418  0.2463 -0.0086 -0.5491
  533SOL    HW112528   3.167   8.249   5.359  2.6264  1.5274 -2.1858
  533SOL    HW212529   3.103   8.399   5.367 -0.6445  0.0859  0.4322
  534SOL     OW12530   4.486   2.369   5.591  0.5385 -0.5695  0.0824
  534SOL    HW112531   4.487   2.361   5.691  1.2085  0.1485  0.1354
  534SOL    HW212532   4.416   2.308   5.554  0.3225 -0.8842  0.9858
  535SOL     OW12533   9.693   4.749   1.702  0.0407  0.3076  0.3177
  535SOL    HW112534   9.761   4.791   1.761 -1.2694 -0.3287  2.3336
  535SOL    HW212535   9.622   4.815   1.679  0.7855  0.6831 -0.9416
  536SOL     OW12536   8.582   9.588   5.316  0.2840  0.4523 -0.5528
  536SOL    HW112537   8.507   9.607   5.380 -1.1893 -0.5250 -1.9308
  536SOL    HW212538   8.642   9.518   5.355 -0.4398  0.0821 -0.0893
  537SOL     OW12539   8.236   9.006   2.491  0.4182  0.4370 -0.2109
  537SOL    HW112540   8.269   9.101   2.489  0.3536  0.4388 -1.6835
  537SOL    HW212541   8.137   9.005   2.494  0.4492  0.4204  3.2208
  538SOL     OW12542   7.904   6.565   3.122 -0.4845  0.3819 -0.0123
  538SOL    HW112543   7.858   6.634   3.179  0.8833  1.8923 -0.7062
  538SOL    HW212544   7.876   6.577   3.027 -1.0259 -0.6944  0.0023
  539SOL     OW12545   4.797   8.575   3.287 -0.8014 -0.1073 -0.1308
  539SOL    HW112546   4.878   8.627   3.262  0.6860 -1.4980  1.6006
  539SOL    HW212547   4.766   8.602   3.378  0.1283 -2.2938  0.8944
  540SOL     OW12548   0.323   8.381   1.553 -0.4183  0.0339  0.0752
  540SOL    HW112549   0.394   8.435   1.598 -0.5228  0.1309  0.1235
  540SOL    HW212550   0.345   8.371   1.456  0.8400 -1.8484  0.5079
  541SOL     OW12551   8.579   2.715   4.254 -0.1526 -0.1898 -0.0298
  541SOL    HW112552   8.623   2.790   4.304  0.8404 -1.1749  0.5742
  541SOL    HW212553   8.494   2.689   4.301 -1.1764  1.3994 -0.9429
  542SOL     OW12554   9.068   4.850   2.392  0.5477 -0.1322  0.2789
  542SOL    HW112555   9.051   4.764   2.440 -0.3436 -1.0703 -1.6617
  542SOL    HW212556   9.014   4.923   2.433 -0.8196 -1.0885  0.1891
  543SOL     OW12557   5.583   0.278   1.252 -0.7958  0.1053  0.7941
  543SOL    HW112558   5.575   0.376   1.269 -1.0197  0.3476 -0.6163
  543SOL    HW212559   5.547   0.257   1.161  1.6766 -0.8866 -0.0128
  544SOL     OW12560   7.377   8.235   3.813  0.1269 -0.6823  0.3239
  544SOL    HW112561   7.298   8.229   3.752  0.9605 -1.3115 -0.7085
  544SOL    HW212562   7.380   8.155   3.873 -1.1842  0.3560  1.8222
  545SOL     OW12563   4.484   1.253   0.303 -0.2596 -0.1577 -0.0844
  545SOL    HW112564   4.450   1.162   0.277  0.8362 -1.0085  1.4101
  545SOL    HW212565   4.408   1.319   0.298 -1.4817 -1.4900  0.4990
  546SOL     OW12566   4.257   2.827   2.909  0.4257  0.0939 -0.2915
  546SOL    HW112567   4.260   2.901   2.975  0.3469  0.6018 -0.8567
  546SOL    HW212568   4.164   2.817   2.873  1.2553  2.3924 -3.2247
  547SOL     OW12569   3.775   3.342   3.587 -0.6024  0.0256  0.4646
  547SOL    HW112570   3.701   3.342   3.519  1.2234 -1.2191 -1.5846
  547SOL    HW212571   3.833   3.422   3.573 -0.4912  0.0216  0.8903
  548SOL     OW12572   3.474   0.363   0.222 -0.1859 -0.2768 -0.2577
  548SOL    HW112573   3.483   0.385   0.125  1.8359  1.5601  0.3053
  548SOL    HW212574   3.484   0.265   0.235 -1.0551 -0.6219 -1.9449
  549SOL     OW12575   2.354   6.457   3.463 -0.2624  1.0964  0.4178
  549SOL    HW112576   2.415   6.480   3.387  0.9762 -1.4972  0.5675
  549SOL    HW212577   2.408   6.423   3.540 -1.8340 -0.6161  0.7960
  550SOL     OW12578   6.562   8.225   3.539  0.3024  0.4347  0.1374
  550SOL    HW112579   6.583   8.128   3.554 -1.5493 -0.2066 -1.2784
  550SOL    HW212580   6.636   8.280   3.577  1.9459 -1.5687 -0.0074
  551SOL     OW12581   6.548   6.886   2.792 -0.0525 -0.1219 -0.1401
  551SOL    HW112582   6.615   6.922   2.727  0.2574 -1.5144 -0.6157
  551SOL    HW212583   6.456   6.900   2.756  0.1206 -0.9403 -0.9173
  552SOL     OW12584   4.534   0.141   2.243 -0.1753  0.5178 -0.1071
  552SOL    HW112585   4.551   0.217   2.180 -1.8845  0.1997 -0.9892
  552SOL    HW212586   4.534   0.055   2.192  1.6059 -0.0844  0.8628
  553SOL     OW12587   1.326   0.366   4.640  0.3562  0.0898  0.0071
  553SOL    HW112588   1.258   0.370   4.567  2.2596 -0.3217 -1.8304
  553SOL    HW212589   1.291   0.311   4.716 -1.6492  0.5382 -0.5808
  554SOL     OW12590   4.049   2.702   3.768  0.1656  0.0983 -0.8151
  554SOL    HW112591   4.021   2.643   3.693  2.0204  1.3806 -2.5741
  554SOL    HW212592   3.983   2.695   3.843 -1.8176 -1.0448 -2.6328
  555SOL     OW12593   3.712   6.639   1.997 -0.2086 -0.2921  0.0547
  555SOL    HW112594   3.620   6.675   2.010 -0.2102  0.2895 -1.4203
  555SOL    HW212595   3.714   6.582   1.914  0.7957 -0.1509 -0.0283
  556SOL     OW12596   9.653   9.501   2.936  0.2297 -0.6707  0.1761
  556SOL    HW112597   9.578   9.480   2.999  0.2950 -1.8841 -0.1403
  556SOL    HW212598   9.725   9.433   2.946  0.6578 -0.3277 -0.5441
  557SOL     OW12599   8.796   9.243   1.004 -0.6847  0.0925 -0.1365
  557SOL    HW112600   8.891   9.272   1.009  0.4445 -3.7506  3.0340
  557SOL    HW212601   8.770   9.230   0.908  2.5098 -0.4231 -0.9887
  558SOL     OW12602   1.656   2.055   5.299  0.2344 -0.1040  0.4435
  558SOL    HW112603   1.687   2.150   5.305  3.1138 -1.0440  1.2966
  558SOL    HW212604   1.621   2.037   5.207 -0.0403  1.6819  0.1808
  559SOL     OW12605   3.862   1.516   1.301 -0.0951  0.3353 -0.1824
  559SOL    HW112606   3.820   1.448   1.241 -1.2829  0.5687  0.3664
  559SOL    HW212607   3.841   1.608   1.267 -0.4801  0.4618  0.3896
  560SOL     OW12608   9.484   1.311   0.237  0.1197  0.3644  0.3955
  560SOL    HW112609   9.522   1.393   0.194  2.6094  0.1149  1.9707
  560SOL    HW212610   9.553   1.271   0.298 -2.3985 -0.7166  2.6227
  561SOL     OW12611   5.458   9.430   2.754 -0.1015  0.4290  0.0258
  561SOL    HW112612   5.491   9.356   2.695  0.3500  0.7885 -0.1771
  561SOL    HW212613   5.366   9.458   2.724 -0.6473 -0.6527  0.6662
  562SOL     OW12614   8.821   0.683   2.517 -0.4654  0.2793  0.3561
  562SOL    HW112615   8.888   0.620   2.556 -0.0968  0.9906  0.8877
  562SOL    HW212616   8.866   0.768   2.491 -0.8375  0.0803 -0.9741
  563SOL     OW12617   5.607   1.091   2.293  0.2249 -0.6244 -0.4260
  563SOL    HW112618   5.636   1.060   2.202 -0.0718 -0.7561 -0.4762
  563SOL    HW212619   5.508   1.083   2.301  0.0455  1.0820 -0.7222
  564SOL     OW12620   7.450   2.340   1.795  0.3598 -0.1236  0.3326
  564SOL    HW112621   7.395   2.333   1.712 -0.3537  0.0522  0.7790
  564SOL    HW212622   7.433   2.429   1.839  0.0825 -0.5494  1.1050
  565SOL     OW12623   1.489   5.378   3.912 -0.2127  0.1796  0.1078
  565SOL    HW112624   1.441   5.466   3.912  0.3395  0.4818  0.9740
  565SOL    HW212625   1.567   5.384   3.850 -0.2681  0.2480  0.0434
  566SOL     OW12626   3.952   2.523   3.578  0.4941 -0.3851 -0.2257
  566SOL    HW112627   3.993   2.444   3.532  1.6601  0.2669 -0.3003
  566SOL    HW212628   3.863   2.543   3.536  0.5668 -1.1361 -0.7563
  567SOL     OW12629   7.907   4.819   4.074 -0.2966 -0.1004  0.3920
  567SOL    HW112630   7.846   4.751   4.115 -3.0694  1.3552 -1.2246
  567SOL    HW212631   7.985   4.772   4.032 -1.1795 -2.1209  0.9432
  568SOL     OW12632   1.653   1.572   3.751 -0.0164 -0.2157 -0.2402
  568SOL    HW112633   1.641   1.490   3.696  2.6985  0.0044 -1.2315
  568SOL    HW212634   1.689   1.547   3.841  1.0819 -0.1306 -0.6410
  569SOL     OW12635   3.027   7.435   4.307  0.1482  0.4430  0.7988
  569SOL    HW112636   3.115   7.400   4.340  0.2580 -1.1184 -1.0479
  569SOL    HW212637   2.953   7.393   4.359  0.3657 -1.0815 -0.0925
  570SOL     OW12638   9.746   8.809   5.306  0.6043  0.7043 -0.0087
  570SOL    HW112639   9.661   8.811   5.254  0.1863  0.6307  0.6718
  570SOL    HW212640   9.811   8.874   5.266  0.6605 -0.1045 -1.2573
  571SOL     OW12641   8.712   8.403   2.016 -0.4827 -0.3705 -0.4253
  571SOL    HW112642   8.770   8.415   1.936  2.3952 -1.1689  1.4325
  571SOL    HW212643   8.704   8.306   2.038 -2.2705 -0.2489 -0.4464
  572SOL     OW12644   1.243   9.484   5.436  0.3854  0.3719 -0.1656
  572SOL    HW112645   1.279   9.391   5.427 -2.3260 -0.5833 -1.7823
  572SOL    HW212646   1.287   9.530   5.514  0.3053 -2.9587  1.9254
  573SOL     OW12647   0.943   0.419   1.190  0.4429 -0.1961  0.2425
  573SOL    HW112648   0.865   0.361   1.165 -0.1982  1.4409 -1.7203
  573SOL    HW212649   0.973   0.397   1.282 -2.3167 -0.9141  1.0083
  574SOL     OW12650   5.575   9.390   3.926 -0.1151  0.1796  0.2638
  574SOL    HW112651   5.612   9.449   3.855  0.9284 -0.1897  0.4807
  574SOL    HW212652   5.519   9.318   3.885 -1.6803  1.5086  0.0278
  575SOL     OW12653   1.961   3.687   0.164 -0.6087  0.4844  0.4588
  575SOL    HW112654   1.987   3.777   0.200  0.4722 -0.4486  2.0867
  575SOL    HW212655   1.862   3.674   0.176 -0.8481  1.6358 -0.2130
  576SOL     OW12656   1.344   6.599   2.598 -0.2109  0.0565 -0.1704
  576SOL    HW112657   1.296   6.685   2.619 -0.7903 -0.1428 -0.6500
  576SOL    HW212658   1.288   6.545   2.534  0.7599 -0.0833 -0.9075
  577SOL     OW12659   1.751   9.401   0.174  0.1718  0.2607 -0.9254
  577SOL    HW112660   1.751   9.472   0.104  1.7195 -0.4278 -1.6505
  577SOL    HW212661   1.806   9.432   0.252 -0.1112  0.3317 -0.7554
  578SOL     OW12662   8.766   7.530   1.976  0.1550  0.1586 -0.3044
  578SOL    HW112663   8.821   7.507   1.896  2.2905  0.8094  0.9251
  578SOL    HW212664   8.753   7.629   1.981 -1.4670 -0.0167 -0.7795
  579SOL     OW12665   2.055   7.590   0.894  0.2208  0.2366  0.2205
  579SOL    HW112666   2.089   7.581   0.801  1.2366 -0.7624  0.6771
  579SOL    HW212667   1.955   7.582   0.894  0.3617 -2.1595 -0.5321
  580SOL     OW12668   1.646   3.483   3.174 -0.2153  0.2618 -0.2845
  580SOL    HW112669   1.707   3.559   3.193 -1.8907  1.5806 -0.1024
  580SOL    HW212670   1.692   3.417   3.114  0.9821  1.7919 -1.0726
  581SOL     OW12671   2.259   8.696   0.445  0.3861 -0.0133  0.2171
  581SOL    HW112672   2.244   8.793   0.425 -0.9392 -0.3012 -0.2697
  581SOL    HW212673   2.343   8.685   0.497  0.4102  1.4249  0.5010
  582SOL     OW12674   1.450   0.818   0.741  0.2185 -0.3844  1.5204
  582SOL    HW112675   1.511   0.741   0.722 -0.2190 -0.8572  2.0312
  582SOL    HW212676   1.355   0.789   0.731  0.0059 -0.3742  3.4177
  583SOL     OW12677   8.526   2.298   2.818 -0.0507  0.0906  0.1143
  583SOL    HW112678   8.553   2.266   2.909 -2.2825 -0.6193  0.5732
  583SOL    HW212679   8.604   2.293   2.756  1.0285 -1.1937  1.5355
  584SOL     OW12680   1.849   8.632   0.894 -0.3528 -0.8136  0.2876
  584SOL    HW112681   1.858   8.731   0.878 -1.1562 -1.1026 -2.1881
  584SOL    HW212682   1.832   8.616   0.991  1.1793  1.3811  0.9628
  585SOL     OW12683   8.640   8.408   2.704  0.4715 -0.1885 -0.5423
  585SOL    HW112684   8.719   8.441   2.651  0.2753 -0.1586 -0.8155
  585SOL    HW212685   8.636   8.458   2.791  1.9749 -1.6424  0.3900
  586SOL     OW12686   8.211   9.838   5.227  0.0653  0.5434 -0.1107
  586SOL    HW112687   8.133   9.775   5.227  0.4780  0.0261 -0.3327
  586SOL    HW212688   8.212   9.891   5.312 -1.5055  1.7813 -0.8468
  587SOL     OW12689   1.145   2.813   1.245 -0.1588  0.1007 -0.0018
  587SOL    HW112690   1.107   2.762   1.322  0.9940 -0.5080  0.1677
  587SOL    HW212691   1.237   2.846   1.268  0.3962 -0.5012 -1.2939
  588SOL     OW12692   3.002   6.273   2.190 -0.5505 -0.0154 -0.0649
  588SOL    HW112693   3.027   6.367   2.165 -0.1617  0.1197  0.7996
  588SOL    HW212694   2.985   6.269   2.289 -0.5909 -0.8556 -0.1069
  589SOL     OW12695   1.961   6.355   2.975  0.3163  0.4810  0.6381
  589SOL    HW112696   1.925   6.262   2.973 -2.2047  1.4347 -2.5051
  589SOL    HW212697   2.026   6.368   2.900  0.1886  1.3978  0.6723
  590SOL     OW12698   9.901   2.366   2.322 -0.1524 -0.4218 -0.3761
  590SOL    HW112699   9.830   2.333   2.260 -0.4860  1.0771 -0.7999
  590SOL    HW212700   9.989   2.325   2.297 -0.8468 -2.2862  0.1540
  591SOL     OW12701   3.641   5.517   1.082 -0.2015  0.3459 -0.1268
  591SOL    HW112702   3.556   5.465   1.084 -0.6898  1.1742  3.0129
  591SOL    HW212703   3.710   5.470   1.136  0.0216  1.7718  0.8696
  592SOL     OW12704   2.668   3.662   0.765 -0.0261 -0.4527  0.7196
  592SOL    HW112705   2.708   3.613   0.843  0.2161 -1.0375  0.2341
  592SOL    HW212706   2.738   3.718   0.721  0.2810 -1.4998 -0.1485
  593SOL     OW12707   0.497   4.951   2.310 -0.1839  0.3331  0.1567
  593SOL    HW112708   0.522   5.004   2.392  0.1874 -0.5456  0.6139
  593SOL    HW212709   0.501   4.854   2.331 -1.4862  0.1309 -0.5172
  594SOL     OW12710   9.229   4.220   2.473 -0.1808  0.4225 -0.0878
  594SOL    HW112711   9.320   4.212   2.432  0.8901  1.8486  1.9432
  594SOL    HW212712   9.211   4.139   2.529 -0.7237 -0.4639 -1.4999
  595SOL     OW12713   2.247   6.168   3.383 -0.4426  0.4023 -0.0565
  595SOL    HW112714   2.270   6.141   3.289 -2.2891 -1.8053  0.0683
  595SOL    HW212715   2.305   6.244   3.411  1.4799 -0.1740 -2.2903
  596SOL     OW12716   3.489   2.627   0.211  0.3982 -0.2010  0.1433
  596SOL    HW112717   3.433   2.610   0.292 -0.3588  2.0091  0.1315
  596SOL    HW212718   3.585   2.609   0.232  0.1239 -0.2975  1.3329
  597SOL     OW12719   1.651   2.126   4.094 -0.0321  0.2646  0.8198
  597SOL    HW112720   1.727   2.165   4.041 -0.2574  0.2477  0.4852
  597SOL    HW212721   1.573   2.109   4.034  0.2160 -1.1244  0.8784
  598SOL     OW12722   4.322   6.521   3.465  0.6304  0.0343 -0.9564
  598SOL    HW112723   4.374   6.606   3.469 -0.0156  0.4599 -1.3921
  598SOL    HW212724   4.373   6.448   3.510  0.6139  0.9591  0.6171
  599SOL     OW12725   1.434   6.269   1.273 -0.0307  0.3336  0.1185
  599SOL    HW112726   1.520   6.246   1.318 -0.2372 -0.8642 -0.0778
  599SOL    HW212727   1.378   6.327   1.333 -0.1434 -0.9386  1.2557
  600SOL     OW12728   2.161   6.552   3.302  1.0212  0.3240  0.0726
  600SOL    HW112729   2.206   6.641   3.292  2.1720 -0.2678 -0.0035
  600SOL    HW212730   2.207   6.499   3.373  1.3273 -0.8296 -0.9797
  601SOL     OW12731   1.551   7.165   4.800  0.7903 -0.0152  0.1513
  601SOL    HW112732   1.497   7.117   4.731  0.7153 -0.3288  0.4253
  601SOL    HW212733   1.579   7.254   4.764  1.3451 -0.4637 -0.5430
  602SOL     OW12734   3.452   3.504   2.580  0.1212 -0.5880 -0.3997
  602SOL    HW112735   3.446   3.465   2.488  2.0333 -1.8694 -0.0255
  602SOL    HW212736   3.377   3.470   2.636  0.0098 -1.2853 -0.9618
  603SOL     OW12737   8.112   4.440   5.614 -1.2536  0.2947 -0.2824
  603SOL    HW112738   8.115   4.387   5.529 -0.7688 -0.6001  0.2791
  603SOL    HW212739   8.153   4.530   5.599 -0.2535 -0.2308 -0.7509
  604SOL     OW12740   9.837   5.927   2.117  0.3718 -0.0439 -0.2773
  604SOL    HW112741   9.902   5.972   2.177 -0.7592 -1.1583  1.8381
  604SOL    HW212742   9.876   5.841   2.083  0.7777  0.2898 -0.6544
  605SOL     OW12743   4.942   5.062   0.639  0.3067 -0.0658  0.0796
  605SOL    HW112744   4.997   5.145   0.632  0.3315 -0.1195 -0.3793
  605SOL    HW212745   4.864   5.078   0.700 -1.7465  1.4239 -2.8394
  606SOL     OW12746  10.001   3.402   1.506 -0.0871  0.5806 -0.0187
  606SOL    HW112747  10.034   3.314   1.472  0.8623  0.5691  0.9348
  606SOL    HW212748   9.926   3.387   1.570  0.4255  0.4324  0.5527
  607SOL     OW12749   0.703   8.568   3.856 -0.3214  0.3237  0.1160
  607SOL    HW112750   0.707   8.655   3.905 -0.4219  0.5163 -0.2196
  607SOL    HW212751   0.790   8.551   3.810 -0.8769  1.0480 -1.2009
  608SOL     OW12752   0.902   1.389   0.538 -0.0716  0.3633  0.4306
  608SOL    HW112753   0.960   1.334   0.478 -1.1749 -0.3337 -0.0133
  608SOL    HW212754   0.821   1.419   0.489  0.4197  2.2478  0.7341
  609SOL     OW12755   0.716   7.576   0.303  0.3744 -0.2650  0.7833
  609SOL    HW112756   0.710   7.659   0.358 -2.3639 -0.1626  0.4169
  609SOL    HW212757   0.790   7.586   0.236 -1.5965  3.0487 -1.0503
  610SOL     OW12758   8.618   5.763   5.431 -0.7539  0.1017 -0.6605
  610SOL    HW112759   8.558   5.699   5.479 -1.1589  0.0726 -1.1966
  610SOL    HW212760   8.711   5.726   5.429 -0.5312  0.5408  0.9127
  611SOL     OW12761   0.344   4.978   4.279 -0.8087 -0.5229 -0.0440
  611SOL    HW112762   0.371   5.060   4.229  1.3560 -1.2107 -0.0555
  611SOL    HW212763   0.319   4.906   4.214 -0.2474 -0.6803 -0.0842
  612SOL     OW12764   3.425   2.362   1.128  0.2761 -0.0191 -0.5113
  612SOL    HW112765   3.440   2.263   1.117  0.5521 -0.0954  0.5022
  612SOL    HW212766   3.360   2.393   1.058  0.3258 -0.8797 -0.9573
  613SOL     OW12767   9.115   0.512   4.543  1.1419 -0.3691  0.0813
  613SOL    HW112768   9.072   0.553   4.623 -0.9603 -2.0997 -0.1555
  613SOL    HW212769   9.062   0.534   4.461  2.6163  0.3790 -0.7041
  614SOL     OW12770   8.136   8.910   3.838 -0.0484  0.1294  0.2305
  614SOL    HW112771   8.074   8.832   3.826  1.6728 -0.8682 -2.6841
  614SOL    HW212772   8.230   8.877   3.847  0.8460  1.8336 -2.1920
  615SOL     OW12773   3.674   1.690   3.058 -0.0398  0.0275 -0.3540
  615SOL    HW112774   3.672   1.688   3.158  1.7828 -0.6218 -0.3173
  615SOL    HW212775   3.582   1.713   3.024 -0.7918 -0.1888  1.4389
  616SOL     OW12776   1.271   9.521   4.761  0.3911  0.1517 -0.2452
  616SOL    HW112777   1.244   9.519   4.857  2.0261 -0.4137  0.2348
  616SOL    HW212778   1.318   9.435   4.738  0.3933  0.4633 -1.4291
  617SOL     OW12779   2.504   1.904   1.154  0.3174  0.4232  0.2779
  617SOL    HW112780   2.433   1.963   1.192 -1.2441 -0.0039 -1.8769
  617SOL    HW212781   2.501   1.815   1.198 -0.9091  0.2131 -0.1977
  618SOL     OW12782   1.605   0.148   5.370 -0.1830 -0.0779  0.0453
  618SOL    HW112783   1.624   0.223   5.434 -2.7833  0.6382  0.0553
  618SOL    HW212784   1.589   0.186   5.279  0.9863 -0.8767 -0.5074
  619SOL     OW12785   2.384   4.366   0.765  0.2652 -0.1952 -0.2204
  619SOL    HW112786   2.461   4.333   0.709  0.8110 -1.0185  0.9823
  619SOL    HW212787   2.375   4.307   0.845 -0.9826  0.5284  0.1696
  620SOL     OW12788   3.365   6.997   4.489 -0.6954 -0.2517  0.2348
  620SOL    HW112789   3.336   7.060   4.561 -2.1872 -0.5639 -0.0693
  620SOL    HW212790   3.289   6.981   4.427  0.3199 -0.6901 -0.9052
  621SOL     OW12791   1.861   0.605   3.084  0.2644 -0.4523 -0.6661
  621SOL    HW112792   1.876   0.631   2.988 -0.0140  1.5255 -0.1957
  621SOL    HW212793   1.928   0.651   3.142 -1.2647  0.5474  0.3576
  622SOL     OW12794   8.534   5.048   3.648  0.2009 -0.7046 -0.6252
  622SOL    HW112795   8.440   5.033   3.617 -0.1377  3.0385 -1.7339
  622SOL    HW212796   8.533   5.079   3.742  0.3365 -0.7363 -0.6139
  623SOL     OW12797   3.495   1.057   3.043  0.3692 -0.2690  0.5545
  623SOL    HW112798   3.417   1.045   3.105 -0.0082 -0.3863  0.0626
  623SOL    HW212799   3.549   1.136   3.073  0.6566 -0.8249  1.5109
  624SOL     OW12800   4.696   0.671   3.106  0.2758  0.2843 -0.5005
  624SOL    HW112801   4.691   0.710   3.198  0.7893  0.6038 -0.6084
  624SOL    HW212802   4.760   0.724   3.051  2.1256 -1.6034 -0.2106
  625SOL     OW12803   1.280   9.344   2.879 -0.0120  0.0205  0.0391
  625SOL    HW112804   1.372   9.323   2.913  0.4661  0.4368 -0.9791
  625SOL    HW212805   1.280   9.435   2.837 -1.1667  0.5033  1.0385
  626SOL     OW12806   9.362   6.267   0.949 -0.0541  0.3410  0.0470
  626SOL    HW112807   9.420   6.343   0.918 -0.5022  0.5326 -0.3280
  626SOL    HW212808   9.394   6.235   1.038  0.5147  0.5678 -0.0761
  627SOL     OW12809   1.690   5.947   2.100 -0.5612  0.2491  0.6922
  627SOL    HW112810   1.765   6.011   2.084 -0.3124 -0.2049  0.0282
  627SOL    HW212811   1.607   5.998   2.123  0.1678  0.7150  2.3259
  628SOL     OW12812   0.977   1.475   3.873 -0.6525  0.5018  0.8168
  628SOL    HW112813   1.061   1.520   3.904  1.3027 -0.4844 -2.7147
  628SOL    HW212814   0.933   1.533   3.804 -0.4335 -0.9519 -0.5854
  629SOL     OW12815   7.897   8.998   0.993 -0.4849 -0.0618 -0.0948
  629SOL    HW112816   7.879   8.969   1.087  0.3292 -2.5433 -0.6944
  629SOL    HW212817   7.812   9.031   0.952 -1.1536 -0.3646  1.0257
  630SOL     OW12818   0.876   0.921   3.574 -0.1529 -0.3226 -0.0169
  630SOL    HW112819   0.835   0.840   3.615  1.0901 -0.2729  1.3498
  630SOL    HW212820   0.811   0.962   3.510 -1.6176 -1.1498  0.9128
  631SOL     OW12821   5.264   8.349   4.293 -0.1396 -0.0950 -0.3299
  631SOL    HW112822   5.364   8.357   4.293 -0.2893  1.8962 -0.4829
  631SOL    HW212823   5.225   8.418   4.353 -1.4122 -1.3494  0.3094
  632SOL     OW12824   8.124   0.574   2.427 -0.1785 -0.0982  0.1083
  632SOL    HW112825   8.211   0.584   2.475  0.8703  1.5789 -2.0732
  632SOL    HW212826   8.107   0.655   2.372 -2.5832 -0.9111 -0.3926
  633SOL     OW12827   0.889   2.450   1.186  0.2179  0.1960 -0.0470
  633SOL    HW112828   0.903   2.468   1.284  0.6521 -3.1766  0.5684
  633SOL    HW212829   0.792   2.431   1.170 -0.4816  4.0671 -0.9222
  634SOL     OW12830   9.573   3.775   2.858  0.7015 -0.3196  0.0110
  634SOL    HW112831   9.615   3.698   2.906  2.3138  0.0211 -0.8313
  634SOL    HW212832   9.552   3.848   2.924  0.7210 -0.7876  0.5439
  635SOL     OW12833   1.961   1.498   1.670 -0.5690  0.2654 -0.0153
  635SOL    HW112834   1.952   1.412   1.719  0.1762 -0.1780 -0.6510
  635SOL    HW212835   1.915   1.491   1.582  0.8360 -0.0157 -0.7360
  636SOL     OW12836   9.566   9.337   3.328 -0.1889 -0.2874 -0.0320
  636SOL    HW112837   9.649   9.366   3.375 -0.9433  2.0173 -0.0446
  636SOL    HW212838   9.538   9.247   3.361  0.9785 -0.0234  1.7212
  637SOL     OW12839   3.677   0.807   3.102  0.3944  0.5836  0.3551
  637SOL    HW112840   3.607   0.854   3.049  0.2553  1.7507  1.5457
  637SOL    HW212841   3.666   0.829   3.199  1.3812 -0.5512  0.7428
  638SOL     OW12842   8.554   3.511   4.758 -0.6234 -0.5318  0.6125
  638SOL    HW112843   8.596   3.600   4.738  0.7056 -1.5089 -1.0977
  638SOL    HW212844   8.540   3.502   4.857  1.3910  0.6412  1.0291
  639SOL     OW12845   2.597   4.170   2.078  0.3392  0.0335 -0.1296
  639SOL    HW112846   2.575   4.129   2.167  1.5524 -0.6987 -0.1542
  639SOL    HW212847   2.677   4.228   2.088  0.1513  0.3794 -0.6386
  640SOL     OW12848   4.095   1.231   2.574 -0.0130  0.0210 -0.0769
  640SOL    HW112849   4.147   1.213   2.490  1.1412 -0.2834  0.6877
  640SOL    HW212850   4.003   1.193   2.565 -0.3240  1.1038 -1.6909
  641SOL     OW12851   7.693   7.090   4.061 -0.6317  0.7807 -0.2087
  641SOL    HW112852   7.710   7.134   4.149  0.6236 -0.6563  0.2877
  641SOL    HW212853   7.725   6.995   4.064 -3.0289 -0.1106 -1.3397
  642SOL     OW12854   4.579   4.064   1.042  0.1227  0.7364 -0.1424
  642SOL    HW112855   4.679   4.062   1.051  0.1039 -1.7742 -0.1750
  642SOL    HW212856   4.548   4.159   1.047  2.6573  1.7279 -1.9356
  643SOL     OW12857   0.643   6.853   2.098 -0.2127  0.4633  0.4220
  643SOL    HW112858   0.639   6.951   2.117  1.8455  0.3978  1.3477
  643SOL    HW212859   0.606   6.835   2.007  0.6227  2.2891 -0.3033
  644SOL     OW12860   8.106   9.998   5.046 -0.4271 -0.0712 -0.2626
  644SOL    HW112861   8.183   9.957   5.095 -0.0506  1.8754  0.8182
  644SOL    HW212862   8.030   9.933   5.043  0.4287 -1.1298  0.7472
  645SOL     OW12863   1.955   9.145   3.277 -0.6310  0.3403 -0.2186
  645SOL    HW112864   2.014   9.199   3.217 -1.0827  1.3968  0.2612
  645SOL    HW212865   1.963   9.048   3.255 -0.4811  0.6874 -1.7087
  646SOL     OW12866   9.292   0.510   3.373 -0.0188 -0.8992  0.0758
  646SOL    HW112867   9.195   0.497   3.349 -0.6189  1.5957  0.9844
  646SOL    HW212868   9.305   0.603   3.409  2.8435 -0.9827 -0.6292
  647SOL     OW12869   2.858   7.460   0.971 -0.3200 -0.1014  0.3515
  647SOL    HW112870   2.831   7.556   0.981  1.1307  0.3102  0.4254
  647SOL    HW212871   2.923   7.436   1.043 -1.8683 -1.6077  1.2913
  648SOL     OW12872   7.872   5.806   5.227  0.0088  0.3829  0.6916
  648SOL    HW112873   7.844   5.893   5.267  1.9547  1.1018  0.5421
  648SOL    HW212874   7.968   5.789   5.247 -0.6785 -2.3943  1.8470
  649SOL     OW12875   1.786   0.125   4.705  0.6164  0.3258 -0.1902
  649SOL    HW112876   1.783   0.095   4.800 -0.4406 -0.1764 -0.3715
  649SOL    HW212877   1.719   0.198   4.691 -0.0191 -0.3585 -0.7922
  650SOL     OW12878   6.323   8.001   1.835  0.1125 -0.7014  0.2779
  650SOL    HW112879   6.259   8.007   1.912  0.9152 -1.4294  1.0048
  650SOL    HW212880   6.274   8.023   1.750  0.0281  3.8117  1.3535
  651SOL     OW12881   8.173   7.510   3.827  0.2224 -0.3793 -0.5410
  651SOL    HW112882   8.180   7.556   3.739  1.0675 -1.1490 -0.8797
  651SOL    HW212883   8.111   7.432   3.818  0.0569 -0.2663 -0.3737
  652SOL     OW12884   8.400   7.299   1.678  0.1943 -0.0452 -0.5996
  652SOL    HW112885   8.302   7.305   1.660  0.0882  2.3306  0.5875
  652SOL    HW212886   8.423   7.356   1.757  2.0741 -2.9920  1.0792
  653SOL     OW12887   7.410   5.354   5.174 -0.1938  0.0164  0.0082
  653SOL    HW112888   7.327   5.307   5.144 -0.2601 -1.3455  2.1874
  653SOL    HW212889   7.386   5.425   5.240  0.4465 -1.4484  1.8774
  654SOL     OW12890   2.540   2.370   3.703 -0.6410 -0.4307 -0.1693
  654SOL    HW112891   2.450   2.408   3.678  0.3494  1.1122 -1.4703
  654SOL    HW212892   2.534   2.329   3.794 -2.7132 -0.4962 -0.3090
  655SOL     OW12893   8.502   0.434   2.429  0.0332  0.0436 -0.0960
  655SOL    HW112894   8.596   0.442   2.464  0.1217 -0.4406 -0.2256
  655SOL    HW212895   8.463   0.346   2.456 -0.1506 -0.0346 -0.6062
  656SOL     OW12896   8.350   4.258   5.552 -0.1993  0.0718 -0.1782
  656SOL    HW112897   8.388   4.190   5.613  1.1649  0.2589 -0.8082
  656SOL    HW212898   8.335   4.344   5.602  0.5054  0.0945 -0.0093
  657SOL     OW12899   5.726   1.370   1.962 -0.4478 -0.4426  0.0811
  657SOL    HW112900   5.821   1.395   1.979 -2.0109  4.2683  2.4617
  657SOL    HW212901   5.706   1.381   1.864  1.3133 -1.1654 -0.3834
  658SOL     OW12902   0.426   2.610   2.321 -0.0239  0.2180  0.4508
  658SOL    HW112903   0.393   2.629   2.414 -1.8089 -1.4851  0.2187
  658SOL    HW212904   0.358   2.554   2.273  2.0345 -1.1157 -0.9977
  659SOL     OW12905   1.358   8.152   1.812  0.0357  0.1402 -0.2822
  659SOL    HW112906   1.430   8.207   1.769 -0.0896  1.3896  1.0657
  659SOL    HW212907   1.298   8.212   1.866  0.9455 -1.5361  2.7030
  660SOL     OW12908   0.622   1.930   4.389  0.3156 -0.4042 -0.6312
  660SOL    HW112909   0.530   1.928   4.430  0.0026 -2.4782 -1.3480
  660SOL    HW212910   0.686   1.972   4.452 -1.0410  0.6540  0.0741
  661SOL     OW12911   0.856   5.231   3.860  0.0608  0.2190  0.0029
  661SOL    HW112912   0.842   5.172   3.781  1.0524 -1.1503  0.8259
  661SOL    HW212913   0.919   5.305   3.836 -0.6086  0.5295 -0.8198
  662SOL     OW12914   2.132   9.642   2.682 -0.5154  0.6530  0.0064
  662SOL    HW112915   2.111   9.597   2.595 -0.0446  2.7448 -1.2177
  662SOL    HW212916   2.166   9.734   2.665  2.0504  0.1969  2.2940
  663SOL     OW12917   3.113   4.808   5.628 -0.0153 -0.2361  0.1083
  663SOL    HW112918   3.094   4.710   5.621  0.7245 -0.3478 -0.4415
  663SOL    HW212919   3.180   4.824   5.700  0.7084 -0.2628 -0.5469
  664SOL     OW12920   0.298   6.125   1.485 -0.0402  0.3228  0.3893
  664SOL    HW112921   0.348   6.134   1.399 -1.0744  1.0694 -0.1459
  664SOL    HW212922   0.348   6.064   1.547  1.3108  0.7352 -0.2823
  665SOL     OW12923   5.497   7.964   2.016 -0.3301 -0.1589 -0.4962
  665SOL    HW112924   5.407   7.985   1.977  0.0426 -0.1460 -1.3646
  665SOL    HW212925   5.500   7.867   2.043 -1.4904  0.4520  1.9913
  666SOL     OW12926   9.264   3.223   1.455  0.9075 -0.5786  0.4131
  666SOL    HW112927   9.355   3.221   1.414  0.4919  1.1206 -0.6497
  666SOL    HW212928   9.260   3.297   1.522  0.2124 -0.4322  0.2130
  667SOL     OW12929   0.265   3.184   2.316 -0.7201  0.8520 -0.5818
  667SOL    HW112930   0.201   3.110   2.336  1.1648 -0.1825  1.9958
  667SOL    HW212931   0.350   3.146   2.279  0.7230  1.5156  1.8769
  668SOL     OW12932   9.972   6.222   3.618 -0.1895  0.2962  0.0846
  668SOL    HW112933   9.875   6.218   3.638  0.1298 -2.4276  1.1713
  668SOL    HW212934   9.999   6.144   3.562  1.8615 -0.5093  2.0847
  669SOL     OW12935   4.033   2.208   2.719 -0.6512  0.2616 -0.0232
  669SOL    HW112936   4.107   2.216   2.785 -0.2521  0.0487 -0.4467
  669SOL    HW212937   4.069   2.180   2.630 -1.2278  0.2107 -0.2481
  670SOL     OW12938   3.057   5.491   4.553 -0.5330 -0.3550 -0.0206
  670SOL    HW112939   2.975   5.531   4.593 -0.2832 -1.1957  1.3579
  670SOL    HW212940   3.137   5.513   4.609  0.2198  0.5646 -1.4137
  671SOL     OW12941   1.812   2.711   1.578  0.3060 -0.1654 -0.1921
  671SOL    HW112942   1.845   2.805   1.586 -2.0339  0.8048 -1.4800
  671SOL    HW212943   1.714   2.708   1.599  0.3567 -2.3406 -0.1321
  672SOL     OW12944   8.333   9.953   5.497  0.6587 -0.4438 -0.2586
  672SOL    HW112945   8.415  10.008   5.484 -0.2958  0.6698 -1.8298
  672SOL    HW212946   8.260  10.010   5.536  0.2637 -1.1046 -0.0245
  673SOL     OW12947   3.996   2.012   1.498 -0.6000  0.0436 -0.3965
  673SOL    HW112948   4.030   1.933   1.447 -0.2861  2.2894 -3.8041
  673SOL    HW212949   4.073   2.059   1.542 -0.3107  0.6040 -1.5036
  674SOL     OW12950   7.676   1.302   0.969  0.6110 -0.3887 -0.2674
  674SOL    HW112951   7.774   1.301   0.950  0.7604 -1.0026  0.5209
  674SOL    HW212952   7.626   1.270   0.888  1.1513 -1.6018 -0.1240
  675SOL     OW12953   2.759   2.239   5.312  0.6088 -0.6421  0.4698
  675SOL    HW112954   2.834   2.305   5.314  0.9119 -0.9321 -0.9800
  675SOL    HW212955   2.684   2.273   5.368  0.9056  0.7670  0.0480
  676SOL     OW12956   9.886   8.512   2.814 -0.0512 -0.2114 -0.0189
  676SOL    HW112957   9.971   8.529   2.864  0.3116 -2.8442  0.3677
  676SOL    HW212958   9.893   8.548   2.721  0.9083  0.9396  0.4991
  677SOL     OW12959   0.364   8.142   1.728  0.2768  0.5110  0.0852
  677SOL    HW112960   0.451   8.093   1.736 -0.0051  0.0670  0.4663
  677SOL    HW212961   0.375   8.221   1.668  0.8340  0.1993 -0.2240
  678SOL     OW12962   7.472   6.713   4.107 -0.2262 -0.4021 -0.0194
  678SOL    HW112963   7.388   6.760   4.137 -0.6527 -1.9126  1.1935
  678SOL    HW212964   7.550   6.752   4.156 -0.3966 -0.0296 -0.0360
  679SOL     OW12965   3.713   3.755   4.617  0.2046 -0.1830  0.4031
  679SOL    HW112966   3.781   3.793   4.680 -0.8798  0.1780  1.3940
  679SOL    HW212967   3.731   3.658   4.603  0.3476 -0.3135  1.4458
  680SOL     OW12968   2.086   6.181   4.277  0.3480 -0.1487  0.3389
  680SOL    HW112969   2.116   6.141   4.189 -0.1184  0.0983  0.0677
  680SOL    HW212970   2.155   6.162   4.346  1.7857  1.5585 -0.5894
  681SOL     OW12971   1.443   5.845   4.456  0.5936 -0.1073 -0.5096
  681SOL    HW112972   1.458   5.865   4.359  0.1878  0.0006 -0.5530
  681SOL    HW212973   1.406   5.926   4.501  0.3724 -0.2917 -0.3580
  682SOL     OW12974   6.494   3.988   0.211 -0.3995 -0.1555  0.0098
  682SOL    HW112975   6.415   4.028   0.258 -1.0416 -0.0427 -1.1481
  682SOL    HW212976   6.507   4.034   0.123  1.0227 -0.1050  0.2351
  683SOL     OW12977   0.617   9.669   3.290  0.3581 -0.0830 -0.2517
  683SOL    HW112978   0.568   9.643   3.373 -0.7485  0.5366 -0.6942
  683SOL    HW212979   0.611   9.595   3.223  0.7644 -0.3535  0.0079
  684SOL     OW12980   3.527   1.334   1.381 -0.2145  0.1537 -0.0722
  684SOL    HW112981   3.608   1.314   1.437 -0.3622  0.4923  0.2665
  684SOL    HW212982   3.471   1.251   1.373 -0.5535  0.2813  0.8856
  685SOL     OW12983   9.688   4.126   2.023 -0.5464 -0.2692  0.1149
  685SOL    HW112984   9.679   4.097   2.118  0.6685 -1.9620 -0.2728
  685SOL    HW212985   9.683   4.047   1.962 -0.1712  0.6617 -1.1690
  686SOL     OW12986   2.013   3.904   3.006  0.3459  0.6837  0.7652
  686SOL    HW112987   2.026   3.884   3.103 -0.9481  1.0642  1.0330
  686SOL    HW212988   2.049   3.994   2.986 -0.2151  0.9913  1.1066
  687SOL     OW12989   1.130   6.605   2.193 -0.1768 -0.2821 -0.0307
  687SOL    HW112990   1.095   6.538   2.128 -0.4834 -1.3096  1.1727
  687SOL    HW212991   1.104   6.697   2.164 -3.4145 -0.9684  0.5485
  688SOL     OW12992   8.120   0.642   2.129  0.3296  0.4736  0.2197
  688SOL    HW112993   8.120   0.665   2.032 -2.1308  1.0279  0.3139
  688SOL    HW212994   8.110   0.543   2.139 -1.4453  0.6085 -0.0950
  689SOL     OW12995   5.767   0.943   2.044 -0.0781 -0.6099 -0.3649
  689SOL    HW112996   5.747   0.944   1.946 -0.9314 -2.5529 -0.2330
  689SOL    HW212997   5.866   0.937   2.058  0.1883  1.7338 -1.0742
  690SOL     OW12998   9.654   6.239   2.540  0.1147  0.5428  0.3002
  690SOL    HW112999   9.621   6.256   2.447  0.2405  0.1699  0.1873
  690SOL    HW213000   9.631   6.318   2.598 -1.1953  0.1856  0.2827
  691SOL     OW13001   3.180   0.344   3.051 -0.6532 -0.8763  0.3248
  691SOL    HW113002   3.207   0.288   3.129 -1.9186  0.4439  1.7624
  691SOL    HW213003   3.258   0.396   3.018 -0.0899 -1.5124  0.6626
  692SOL     OW13004   6.277   1.163   4.398  0.1697  0.6786  0.4392
  692SOL    HW113005   6.323   1.182   4.311 -0.4915  1.1489  0.1935
  692SOL    HW213006   6.241   1.248   4.436 -1.3781  0.1586  0.1463
  693SOL     OW13007   5.016   3.434   0.623 -0.5251  0.0726  0.0790
  693SOL    HW113008   5.079   3.498   0.667 -0.6210  0.9288 -1.0266
  693SOL    HW213009   4.924   3.473   0.623 -0.5880 -0.0831 -0.5993
  694SOL     OW13010   2.811   3.360   4.633  0.2812 -1.1389  0.2894
  694SOL    HW113011   2.844   3.375   4.540 -1.2012 -2.5584 -0.4808
  694SOL    HW213012   2.728   3.413   4.648  0.8462 -0.4475  1.0110
  695SOL     OW13013   1.334   2.693   4.503  0.3089  0.5200 -0.7846
  695SOL    HW113014   1.319   2.791   4.488  2.3618  0.7358 -1.6193
  695SOL    HW213015   1.395   2.658   4.432 -0.6925 -1.4575 -0.6935
  696SOL     OW13016   0.755   8.419   2.867  0.1727 -0.5589 -0.0057
  696SOL    HW113017   0.668   8.466   2.855  2.4575  3.8014 -0.9947
  696SOL    HW213018   0.766   8.394   2.964 -2.2426 -1.4299  0.0741
  697SOL     OW13019   7.988   2.215   4.025 -0.3815  0.0317  0.6700
  697SOL    HW113020   8.021   2.238   4.117  0.4873 -0.0546  0.3856
  697SOL    HW213021   7.888   2.222   4.023 -0.2054  3.2825  0.7425
  698SOL     OW13022   2.877   3.814   0.951 -0.0998  0.5721  0.0355
  698SOL    HW113023   2.948   3.850   1.012  0.3854 -2.2712  1.2055
  698SOL    HW213024   2.794   3.796   1.004 -0.7950  1.2512 -0.8072
  699SOL     OW13025   5.174   2.982   3.597  0.6663 -1.1183 -0.3388
  699SOL    HW113026   5.170   2.933   3.684 -2.4544  0.6770  0.5920
  699SOL    HW213027   5.144   2.922   3.523  1.0959 -1.9196  0.1259
  700SOL     OW13028   4.092   1.285   3.181  0.5398 -0.8972 -0.0984
  700SOL    HW113029   4.068   1.189   3.165  0.3588 -1.0911  1.2976
  700SOL    HW213030   4.071   1.338   3.099 -0.4485 -1.8492 -0.4786
  701SOL     OW13031   3.753   9.320   4.715 -0.0378  0.3892  0.4643
  701SOL    HW113032   3.749   9.359   4.623 -1.8965  1.6285  1.0443
  701SOL    HW213033   3.836   9.351   4.761  0.9718 -0.3559 -0.8317
  702SOL     OW13034   0.205   4.130   0.695  0.4064  0.3485  0.7410
  702SOL    HW113035   0.271   4.176   0.637  0.7788  0.0271  0.9112
  702SOL    HW213036   0.242   4.120   0.787  1.1017 -1.9777  0.2395
  703SOL     OW13037   6.878   6.288   2.582  0.0239  0.3456  0.0998
  703SOL    HW113038   6.797   6.328   2.626 -0.2898  0.7754 -0.8556
  703SOL    HW213039   6.958   6.307   2.638 -0.6061 -0.5388  1.3264
  704SOL     OW13040   9.904   7.907   4.925 -0.1385 -0.1064 -0.2336
  704SOL    HW113041   9.816   7.882   4.884 -1.2916  3.6935 -0.2798
  704SOL    HW213042   9.978   7.886   4.861 -1.2649 -0.7982 -1.3305
  705SOL     OW13043   8.282   0.530   5.089  0.3768 -0.4999 -0.0489
  705SOL    HW113044   8.337   0.506   5.008 -2.0609 -1.7162 -1.4123
  705SOL    HW213045   8.237   0.618   5.073  0.7441 -0.2173  0.4550
  706SOL     OW13046   0.052   5.523   0.772  0.0713 -0.6276  0.1874
  706SOL    HW113047   0.001   5.442   0.745 -2.1634  0.5844  0.6490
  706SOL    HW213048   0.013   5.561   0.856  0.8419  1.1036 -0.2049
  707SOL     OW13049   7.338   8.388   1.616  0.7506 -0.5368 -0.5439
  707SOL    HW113050   7.397   8.467   1.598  0.6205 -0.5369 -0.9834
  707SOL    HW213051   7.323   8.379   1.714 -2.4369  2.3444 -0.6436
  708SOL     OW13052   2.236   3.040   3.693 -0.1562 -0.2368  0.3185
  708SOL    HW113053   2.296   3.040   3.772 -0.5399 -1.2455  0.6150
  708SOL    HW213054   2.172   2.964   3.699 -1.4142  0.7623 -0.0270
  709SOL     OW13055   6.044   1.996   2.510  0.6121 -0.2983  0.1765
  709SOL    HW113056   5.986   2.049   2.570  1.2939  0.5280  0.1142
  709SOL    HW213057   6.118   2.053   2.475  1.8628 -1.5004  0.7851
  710SOL     OW13058   4.438   3.119   4.695 -0.2737  0.0088 -0.3304
  710SOL    HW113059   4.453   3.128   4.597 -1.7075 -1.6646 -0.7253
  710SOL    HW213060   4.342   3.096   4.712  0.1471 -0.5272  1.3950
  711SOL     OW13061   1.001   2.433   2.636  0.0516 -0.4448  0.2456
  711SOL    HW113062   0.911   2.426   2.678 -0.2896 -0.3168 -0.4606
  711SOL    HW213063   1.070   2.445   2.707 -0.4229 -1.1425  0.8271
  712SOL     OW13064   8.754   1.460   0.057 -0.3805  0.3661 -0.0928
  712SOL    HW113065   8.783   1.472   0.152 -0.6721  1.3374 -0.1167
  712SOL    HW213066   8.780   1.369   0.025  1.5672  0.7900  0.2531
  713SOL     OW13067   0.470   6.476   0.969  0.4003  0.3171 -0.4893
  713SOL    HW113068   0.411   6.490   1.049  1.7675  2.3789  0.2028
  713SOL    HW213069   0.554   6.530   0.980  0.7207  0.4153 -3.1992
  714SOL     OW13070   3.337   8.069   4.911  0.1068 -0.9454 -0.0640
  714SOL    HW113071   3.306   8.164   4.901 -1.8968 -1.5625  0.1190
  714SOL    HW213072   3.421   8.056   4.858  0.4886  0.9624  0.0155
  715SOL     OW13073   8.244   9.362   3.985 -0.4849 -0.4703  0.6223
  715SOL    HW113074   8.145   9.355   3.975 -0.5371 -0.1225  0.8989
  715SOL    HW213075   8.288   9.324   3.904 -0.8366 -0.9471  0.6512
  716SOL     OW13076   7.077   7.150   3.960  0.7602  0.1407 -0.0085
  716SOL    HW113077   7.110   7.163   4.053  2.4307  0.3032 -0.6110
  716SOL    HW213078   7.070   7.053   3.940 -1.8278  0.0530  1.0281
  717SOL     OW13079   8.418   9.867   3.493  0.7354 -0.3825  0.2219
  717SOL    HW113080   8.502   9.826   3.456  0.2671 -0.8799 -0.2845
  717SOL    HW213081   8.417   9.965   3.472  0.1028 -0.8001 -1.7726
  718SOL     OW13082   3.729   6.182   3.562 -0.1494  0.3297 -0.4394
  718SOL    HW113083   3.740   6.279   3.586 -0.6889  0.0880  0.8362
  718SOL    HW213084   3.804   6.153   3.503 -0.3936  1.7232 -1.4464
  719SOL     OW13085   9.798   4.782   1.101  0.2200 -0.7844  0.3796
  719SOL    HW113086   9.735   4.849   1.064  0.2222 -0.7975  0.3522
  719SOL    HW213087   9.770   4.690   1.074  0.4393 -0.7665  0.0902
  720SOL     OW13088   8.275   8.892   5.073 -0.2973 -0.2661 -0.4534
  720SOL    HW113089   8.235   8.899   5.165  0.2766 -0.5229 -0.1746
  720SOL    HW213090   8.309   8.981   5.044 -0.0726 -0.2734 -0.2208
  721SOL     OW13091   8.031   4.952   1.706  0.0501  0.3396  0.0143
  721SOL    HW113092   7.976   5.036   1.704 -1.0052 -0.3124  1.1476
  721SOL    HW213093   8.027   4.908   1.616  1.8779  2.2867 -1.0698
  722SOL     OW13094   3.781   9.600   4.920  0.1200 -0.2747 -0.5682
  722SOL    HW113095   3.856   9.537   4.901  0.7240  0.4225 -0.5233
  722SOL    HW213096   3.804   9.691   4.886 -0.9035 -0.1581 -0.9737
  723SOL     OW13097   1.327   9.121   3.263  0.1721 -0.2022 -0.6449
  723SOL    HW113098   1.236   9.155   3.242 -0.0732 -1.3718 -1.5437
  723SOL    HW213099   1.368   9.176   3.336 -1.2275  0.3447 -0.2659
  724SOL     OW13100   7.993   3.242   0.641 -0.5927 -0.2101 -0.2273
  724SOL    HW113101   7.932   3.217   0.565 -0.2201 -1.5656 -0.1032
  724SOL    HW213102   8.059   3.168   0.655  0.8714  1.0987 -0.1403
  725SOL     OW13103   4.131   0.606   2.178 -0.1465 -0.7390 -0.5226
  725SOL    HW113104   4.183   0.689   2.200  1.2148 -1.3593 -1.3281
  725SOL    HW213105   4.035   0.621   2.199  0.1352  0.9266 -0.3156
  726SOL     OW13106   9.560   5.777   0.871  0.0616  0.5655  0.2408
  726SOL    HW113107   9.472   5.775   0.824 -0.2777  3.1418  0.7114
  726SOL    HW213108   9.604   5.687   0.863 -2.7062 -0.8501  0.2433
  727SOL     OW13109   8.070   3.278   3.277 -0.1024  0.5690  0.3180
  727SOL    HW113110   8.155   3.271   3.226 -0.9723  0.0277 -1.0944
  727SOL    HW213111   8.041   3.373   3.282 -1.0962  0.4412 -2.0791
  728SOL     OW13112   5.332   3.515   0.242 -0.4404 -0.0248  0.5439
  728SOL    HW113113   5.414   3.552   0.286 -0.4606 -0.6262  1.0930
  728SOL    HW213114   5.253   3.532   0.301 -0.4567 -0.9028  0.7869
  729SOL     OW13115   9.238   4.557   3.030 -0.4891  0.0072  0.6231
  729SOL    HW113116   9.287   4.577   3.115 -0.0133 -0.2596  0.4161
  729SOL    HW213117   9.204   4.642   2.991  0.3574  0.2691  0.4424
  730SOL     OW13118   0.639   1.287   0.294 -0.3313 -0.0794  0.2169
  730SOL    HW113119   0.737   1.268   0.288 -0.1782  0.1222  1.8241
  730SOL    HW213120   0.624   1.386   0.306 -0.7928  0.0250 -1.1109
  731SOL     OW13121   3.195   4.375   4.488  0.1368  0.0277  0.1525
  731SOL    HW113122   3.145   4.431   4.555  0.4166  1.8934 -1.1431
  731SOL    HW213123   3.291   4.400   4.489  0.1834 -0.0961 -0.7676
  732SOL     OW13124   8.390   1.251   2.812 -0.0538  0.2034 -0.0387
  732SOL    HW113125   8.363   1.291   2.724 -0.4077 -1.5332 -0.7346
  732SOL    HW213126   8.487   1.228   2.809 -0.0604  0.1676  0.0312
  733SOL     OW13127   1.614   3.383   5.461  0.2005 -0.3894 -0.2529
  733SOL    HW113128   1.608   3.310   5.529 -1.3987 -0.1339 -0.0826
  733SOL    HW213129   1.523   3.399   5.423  0.5309  1.5321 -0.2670
  734SOL     OW13130   9.257   4.216   0.517  0.4966 -0.8494  0.1154
  734SOL    HW113131   9.159   4.199   0.528  0.3319  0.3078  0.5224
  734SOL    HW213132   9.306   4.129   0.518 -0.7335 -1.5949 -2.3731
  735SOL     OW13133   1.590   8.131   0.855  0.0353 -0.4853 -0.6100
  735SOL    HW113134   1.563   8.206   0.915 -1.6228 -1.4859 -0.0854
  735SOL    HW213135   1.559   8.044   0.894  1.5615 -1.4127 -1.4209
  736SOL     OW13136   1.357   4.850   4.435  0.5065 -0.7934 -0.2152
  736SOL    HW113137   1.353   4.935   4.384  1.3483  0.9285  2.4944
  736SOL    HW213138   1.265   4.827   4.468  0.3276 -0.8213 -0.7189
  737SOL     OW13139   6.535   9.626   1.882  0.7732  0.2783  0.1361
  737SOL    HW113140   6.503   9.659   1.970 -0.4719 -0.4513 -0.0329
  737SOL    HW213141   6.515   9.693   1.811 -0.4688 -0.1973  0.0211
  738SOL     OW13142   1.624   7.614   3.542  0.4316 -0.1718 -0.0073
  738SOL    HW113143   1.655   7.539   3.484 -0.5687 -2.2228  1.9901
  738SOL    HW213144   1.527   7.631   3.526  0.0941 -0.9023  1.1802
  739SOL     OW13145   9.265   1.367   0.069  0.1741  0.5310  0.1198
  739SOL    HW113146   9.229   1.447   0.116 -0.9805 -0.5122  1.0249
  739SOL    HW213147   9.327   1.317   0.130  0.2996  0.3182 -0.1781
  740SOL     OW13148   9.905   8.878   0.675  0.1593 -0.1026  0.3086
  740SOL    HW113149   9.844   8.813   0.629 -2.7818  1.4564  1.8320
  740SOL    HW213150   9.930   8.842   0.765  1.3486 -0.6285 -0.2167
  741SOL     OW13151   4.186   9.121   3.877  0.5178  0.7147  0.1999
  741SOL    HW113152   4.228   9.031   3.868  1.9109  1.4921 -1.3110
  741SOL    HW213153   4.104   9.126   3.820  0.2082  0.2776  0.6021
  742SOL     OW13154   9.767   5.921   0.483 -1.2175  0.5059 -0.1036
  742SOL    HW113155   9.712   5.844   0.450 -1.6218  0.6551  0.2175
  742SOL    HW213156   9.720   5.964   0.561  0.2590 -0.5491  1.3992
  743SOL     OW13157   3.712   0.769   4.236  0.1144 -0.4118  0.0395
  743SOL    HW113158   3.668   0.838   4.293  0.0040 -0.3468 -0.1241
  743SOL    HW213159   3.807   0.795   4.220 -0.2115  0.2305 -0.8765
  744SOL     OW13160   2.341   0.673   1.734  0.0178  0.3529 -0.1647
  744SOL    HW113161   2.389   0.748   1.688  1.5353  0.0141  0.8368
  744SOL    HW213162   2.304   0.610   1.666  0.7257  0.7845 -0.9517
  745SOL     OW13163   0.238   2.159   4.473  0.4528  0.0970  0.3109
  745SOL    HW113164   0.196   2.079   4.431 -0.9880  1.4973 -0.9504
  745SOL    HW213165   0.304   2.129   4.543 -0.1116 -2.1659 -0.0934
  746SOL     OW13166   8.223   7.627   2.866  0.2048 -0.1404 -0.5671
  746SOL    HW113167   8.200   7.625   2.963  0.8561  0.5678 -0.3911
  746SOL    HW213168   8.310   7.579   2.852  0.3079  0.1061 -0.7519
  747SOL     OW13169   9.651   4.958   5.076 -0.7347  0.6121 -0.4127
  747SOL    HW113170   9.606   4.882   5.124 -1.4781  0.7111 -0.9581
  747SOL    HW213171   9.698   4.922   4.995  0.2811  0.4893  0.2272
  748SOL     OW13172   9.506   7.082   0.785 -0.1256  0.3158  0.2561
  748SOL    HW113173   9.515   7.005   0.848 -0.4512 -0.1475 -0.2597
  748SOL    HW213174   9.440   7.059   0.714 -1.5628  1.7582  1.1022
  749SOL     OW13175   5.281   0.889   2.800 -0.3006  0.1150 -0.6880
  749SOL    HW113176   5.248   0.806   2.845  1.6937 -0.0907  0.4524
  749SOL    HW213177   5.204   0.935   2.754 -1.8553 -1.1439  0.5880
  750SOL     OW13178   0.201   5.243   1.313  0.0001 -1.5332 -0.2042
  750SOL    HW113179   0.101   5.246   1.310  0.0482  0.5310 -0.5984
  750SOL    HW213180   0.237   5.267   1.222  0.8514 -1.9882  0.0171
  751SOL     OW13181   8.734   0.852   2.254  0.9015 -0.3699  0.3938
  751SOL    HW113182   8.750   0.755   2.238 -0.0125 -0.5882  0.7856
  751SOL    HW213183   8.667   0.863   2.328  0.6609  0.5419  0.0458
  752SOL     OW13184   7.443   5.369   4.301  0.6222 -0.0985 -0.4546
  752SOL    HW113185   7.516   5.346   4.237 -0.9202 -0.1335 -2.2481
  752SOL    HW213186   7.393   5.448   4.267 -2.0334 -1.8724 -0.7478
  753SOL     OW13187   8.889   8.712   1.715  0.0346 -0.6907 -0.1733
  753SOL    HW113188   8.867   8.768   1.794 -0.9811 -0.9937 -0.2380
  753SOL    HW213189   8.856   8.756   1.632  1.4147 -0.1941 -0.4811
  754SOL     OW13190   2.611   8.274   2.626  0.1241 -1.0063  0.4004
  754SOL    HW113191   2.603   8.210   2.549  0.7126 -2.1752  1.2859
  754SOL    HW213192   2.595   8.367   2.594  2.4006 -1.2304 -1.5616
  755SOL     OW13193   8.674   2.287   3.699  0.1168  0.0103 -0.5252
  755SOL    HW113194   8.595   2.243   3.656 -0.2979  0.4711 -0.2439
  755SOL    HW213195   8.749   2.222   3.705 -1.3211 -1.5040  2.2598
  756SOL     OW13196   2.056   0.959   5.603  0.4507 -0.2200 -0.4432
  756SOL    HW113197   2.010   0.872   5.621  2.2386 -0.9316  0.9140
  756SOL    HW213198   2.084   0.962   5.507 -1.8775 -0.0077 -1.1470
  757SOL     OW13199   3.864   6.368   0.773  0.1806 -0.4100  0.9975
  757SOL    HW113200   3.783   6.316   0.747  0.4709 -2.3142  3.7025
  757SOL    HW213201   3.905   6.408   0.691 -2.0875 -1.4574 -0.7087
  758SOL     OW13202   8.212   4.397   2.390 -0.2145  0.0399 -0.1693
  758SOL    HW113203   8.229   4.371   2.485 -0.1550 -0.7011 -0.3770
  758SOL    HW213204   8.280   4.464   2.361  0.1100 -0.1544  0.1380
  759SOL     OW13205   7.639   0.366   4.060 -0.6006 -0.6100 -0.1955
  759SOL    HW113206   7.634   0.318   4.147 -0.4924 -1.1279 -0.4729
  759SOL    HW213207   7.618   0.302   3.985 -3.5769  0.4804 -0.3547
  760SOL     OW13208   0.636   7.030   0.646  0.7471 -0.8773  0.0662
  760SOL    HW113209   0.665   6.948   0.597 -0.2212 -0.2912 -1.5388
  760SOL    HW213210   0.695   7.107   0.620 -0.7196 -0.2213 -1.3769
  761SOL     OW13211   2.320   0.689   4.610  0.1685  0.1143 -0.2779
  761SOL    HW113212   2.332   0.592   4.628  0.1614  0.1489 -0.0821
  761SOL    HW213213   2.292   0.702   4.515 -0.7933 -0.1453 -0.0328
  762SOL     OW13214   1.960   0.953   2.846 -0.2758 -0.1153 -0.2512
  762SOL    HW113215   2.053   0.989   2.848 -0.2899 -0.0219 -1.0259
  762SOL    HW213216   1.909   0.987   2.925  0.7150 -1.1736  0.8776
  763SOL     OW13217   2.574   5.503   4.910  0.0665  0.1255  0.3031
  763SOL    HW113218   2.657   5.509   4.966  0.1017 -1.5293  0.4492
  763SOL    HW213219   2.552   5.407   4.893  0.3471  0.5771 -2.9622
  764SOL     OW13220   8.214   0.877   4.532  0.2198  0.0515  0.3220
  764SOL    HW113221   8.229   0.810   4.605 -0.7985 -2.1040 -1.3836
  764SOL    HW213222   8.151   0.948   4.564 -1.1424 -1.5081  1.1949
  765SOL     OW13223   1.694   4.250   4.134  0.4906 -0.1583  0.2468
  765SOL    HW113224   1.757   4.324   4.110  1.5060 -0.9180  0.5224
  765SOL    HW213225   1.746   4.167   4.152 -0.6940 -1.1208 -0.7083
  766SOL     OW13226   0.227   2.460   3.811  0.2498 -0.1486  0.3506
  766SOL    HW113227   0.174   2.457   3.895 -1.8267 -1.2585 -0.9549
  766SOL    HW213228   0.171   2.499   3.738  2.0242  0.8091 -0.5197
  767SOL     OW13229   0.908   5.758   5.079 -0.3882 -0.4491  0.3547
  767SOL    HW113230   0.832   5.810   5.040 -1.2016 -1.8740  0.0083
  767SOL    HW213231   0.894   5.746   5.177  0.3586  0.9093  0.6440
  768SOL     OW13232   4.606   3.346   2.687  0.3321  0.3442 -0.0192
  768SOL    HW113233   4.654   3.259   2.683  0.6615  0.4707  1.0739
  768SOL    HW213234   4.643   3.401   2.762 -1.9271  0.2154  1.2268
  769SOL     OW13235   4.869   7.843   2.218 -0.0117  0.1219  0.5443
  769SOL    HW113236   4.800   7.849   2.290 -0.3068  0.2354  0.2512
  769SOL    HW213237   4.947   7.901   2.241  0.0530 -0.1313  0.9532
  770SOL     OW13238   9.418   4.878   3.414  0.3335  0.1240 -0.6839
  770SOL    HW113239   9.340   4.830   3.374 -1.0100  0.6514  1.1946
  770SOL    HW213240   9.483   4.811   3.450  0.4729 -0.3141 -1.7272
  771SOL     OW13241   0.573   7.897   3.481 -0.2066  0.2945 -0.0850
  771SOL    HW113242   0.519   7.981   3.487 -0.4524  0.0861  0.6779
  771SOL    HW213243   0.669   7.917   3.501 -0.5080  0.1439  1.6132
  772SOL     OW13244   7.696   9.154   5.612  0.7605 -0.5840 -0.2288
  772SOL    HW113245   7.691   9.098   5.528  3.5621  0.1179 -0.9037
  772SOL    HW213246   7.734   9.243   5.590 -0.1633  0.2604  1.5262
  773SOL     OW13247   9.752   0.863   4.388  0.2402  0.3498 -0.4294
  773SOL    HW113248   9.680   0.856   4.318  0.2169 -0.8585 -0.2833
  773SOL    HW213249   9.710   0.882   4.476 -0.0981 -2.5106  0.0604
  774SOL     OW13250   1.980   0.010   3.521 -0.2359  0.2473  0.3471
  774SOL    HW113251   1.897  -0.016   3.471 -0.5259  0.4119  0.7402
  774SOL    HW213252   2.020   0.092   3.480  0.3285 -0.4456 -0.5053
  775SOL     OW13253   2.935   9.415   2.005  0.2324 -0.1448  0.2657
  775SOL    HW113254   2.934   9.509   1.970 -0.9136 -0.6828 -1.1947
  775SOL    HW213255   2.894   9.413   2.096 -2.1983  0.3891 -0.7742
  776SOL     OW13256   4.754   1.416   4.158  0.4622  0.7552  0.1889
  776SOL    HW113257   4.780   1.465   4.242 -0.5736 -1.3824  1.8060
  776SOL    HW213258   4.761   1.318   4.174 -0.4024  0.3181 -2.0431
  777SOL     OW13259   6.997   0.209   4.365 -0.5379 -0.1756  0.0092
  777SOL    HW113260   6.984   0.253   4.276  0.8413  0.0130 -0.0999
  777SOL    HW213261   7.043   0.273   4.427  1.6451 -1.4927 -0.2032
  778SOL     OW13262   4.156   4.684   1.545  0.8334  0.2203  0.5980
  778SOL    HW113263   4.209   4.766   1.524  0.8741 -0.5863 -2.7198
  778SOL    HW213264   4.069   4.687   1.497  0.2791 -1.1037  1.4813
  779SOL     OW13265   8.440   2.768   1.776  0.2525 -0.4473  0.6171
  779SOL    HW113266   8.439   2.850   1.718 -1.1617  0.5921  2.0551
  779SOL    HW213267   8.526   2.719   1.763  0.4689  0.4175 -1.4316
  780SOL     OW13268   0.098   5.412   5.149  0.3400  0.4047  0.2918
  780SOL    HW113269   0.013   5.394   5.198 -0.1943  0.1511 -0.7279
  780SOL    HW213270   0.078   5.443   5.056  1.3688 -0.7798 -0.3347
  781SOL     OW13271   2.281   4.984   4.211 -0.3974 -0.0823  0.0481
  781SOL    HW113272   2.348   4.911   4.201 -1.1976 -0.8530  0.2339
  781SOL    HW213273   2.328   5.071   4.225  0.5818 -0.3328 -1.6502
  782SOL     OW13274   9.576   7.932   1.847 -0.7981  0.2928  0.5697
  782SOL    HW113275   9.631   7.948   1.928 -0.6822  0.2362  0.5013
  782SOL    HW213276   9.618   7.976   1.768 -0.3246 -0.5870  0.3274
  783SOL     OW13277   9.640   2.608   4.469 -0.2183 -0.0302  0.4578
  783SOL    HW113278   9.570   2.550   4.426 -0.1667  0.0428  0.2768
  783SOL    HW213279   9.730   2.572   4.449 -0.1100  0.9444 -0.9195
  784SOL     OW13280   7.522   8.124   1.838 -0.7044  0.1531 -0.0937
  784SOL    HW113281   7.553   8.063   1.911 -0.6946  0.6202  0.2954
  784SOL    HW213282   7.586   8.120   1.762  1.5291  2.7178  1.5427
  785SOL     OW13283   4.579   6.396   1.737 -0.1975 -0.0545  0.0039
  785SOL    HW113284   4.596   6.339   1.817  0.8888 -2.1936 -1.6802
  785SOL    HW213285   4.620   6.486   1.751 -1.0422  0.0000  2.3003
  786SOL     OW13286   2.880   5.304   4.807  0.1306 -0.2470  0.2134
  786SOL    HW113287   2.785   5.326   4.785  0.1948 -0.2382 -0.0612
  786SOL    HW213288   2.930   5.287   4.722 -0.0922 -2.1800  0.4416
  787SOL     OW13289   9.502   4.811   1.307  0.5190  0.2250 -0.6222
  787SOL    HW113290   9.440   4.868   1.360  0.0485 -0.1820 -0.7267
  787SOL    HW213291   9.533   4.861   1.226  0.2638  0.4032 -0.6084
  788SOL     OW13292   8.849   1.842   3.645 -0.3007  0.4789  0.2327
  788SOL    HW113293   8.854   1.751   3.603  1.1347  1.4556 -1.7557
  788SOL    HW213294   8.768   1.890   3.611  2.1977  2.2396 -3.5440
  789SOL     OW13295   0.760   6.799   1.759  0.5629 -0.1043 -0.6946
  789SOL    HW113296   0.772   6.834   1.666  1.2492  0.1146 -0.5221
  789SOL    HW213297   0.663   6.801   1.782  0.4778  0.6626 -1.0896
  790SOL     OW13298   4.346   6.689   1.148 -0.1538  0.2257 -0.1322
  790SOL    HW113299   4.248   6.681   1.132 -0.0530 -1.9687  0.3148
  790SOL    HW213300   4.381   6.605   1.188  1.6949  1.4487  0.8920
  791SOL     OW13301   8.614   3.512   4.417  0.1585  0.6265  0.0573
  791SOL    HW113302   8.683   3.458   4.368  0.3282  0.4532  0.4851
  791SOL    HW213303   8.573   3.457   4.489 -1.3417  0.3220 -1.0099
  792SOL     OW13304   0.565   1.022   5.594  0.0813 -0.3490 -0.3148
  792SOL    HW113305   0.650   1.016   5.541  0.5917 -1.1566  0.5882
  792SOL    HW213306   0.518   0.934   5.592 -0.8900  0.1759 -1.0494
  793SOL     OW13307   1.186   3.209   3.040 -0.4126 -0.2177  0.0304
  793SOL    HW113308   1.184   3.173   2.947 -0.5596  1.7236 -0.7541
  793SOL    HW213309   1.246   3.289   3.044  1.2162 -1.4994  2.0871
  794SOL     OW13310   7.176   7.142   2.255  0.2590 -0.1106  0.2807
  794SOL    HW113311   7.162   7.068   2.190  0.5244 -0.1451  0.2658
  794SOL    HW213312   7.089   7.191   2.269 -0.2083 -1.2036  1.2395
  795SOL     OW13313   3.582   9.930   4.189 -0.1540  0.0031 -0.1074
  795SOL    HW113314   3.505   9.869   4.204 -0.4695  0.4343  0.0347
  795SOL    HW213315   3.631   9.902   4.106 -0.5354 -0.1949 -0.2694
  796SOL     OW13316   1.169   1.314   3.307  0.6188  0.0820  0.3880
  796SOL    HW113317   1.152   1.340   3.212 -2.8070 -1.7552  0.4135
  796SOL    HW213318   1.102   1.359   3.367  0.1206 -1.9764  1.4186
  797SOL     OW13319   8.849   1.474   0.327 -0.0512  0.0664  0.1632
  797SOL    HW113320   8.886   1.420   0.402  1.3731  1.1071  0.2431
  797SOL    HW213321   8.764   1.518   0.356  0.6436  0.6945  1.2658
  798SOL     OW13322   3.751   8.635   0.030 -0.1432 -0.8242  0.4848
  798SOL    HW113323   3.784   8.706   0.093  0.2386  0.1588 -0.7996
  798SOL    HW213324   3.825   8.570   0.013  0.4809  0.1869 -0.7259
  799SOL     OW13325   4.468   0.645   2.938 -0.2273 -0.0419 -0.3606
  799SOL    HW113326   4.406   0.668   3.013  0.0363  0.1454 -0.2008
  799SOL    HW213327   4.562   0.662   2.966 -0.0438 -1.1854 -0.2999
  800SOL     OW13328   2.035   0.019   1.400  0.8390  0.0586  0.6195
  800SOL    HW113329   2.127   0.026   1.440  1.1801 -0.1999 -0.1162
  800SOL    HW213330   2.027   0.084   1.325 -0.3874  1.7922  2.2190
  801SOL     OW13331   2.266   5.641   5.502 -0.3751 -0.3076 -0.5525
  801SOL    HW113332   2.304   5.621   5.412 -0.8981 -1.9378 -0.4293
  801SOL    HW213333   2.284   5.737   5.525  0.8183 -0.1921 -1.8654
  802SOL     OW13334   8.757   3.685   2.902  0.1446 -0.0250  0.5499
  802SOL    HW113335   8.688   3.742   2.947 -1.0037 -0.9335 -0.0527
  802SOL    HW213336   8.712   3.614   2.849  1.5237  0.1549 -0.8983
  803SOL     OW13337   2.997   1.688   5.155  0.2398  0.2976  0.4846
  803SOL    HW113338   3.081   1.672   5.207  0.6419  1.4648  0.1969
  803SOL    HW213339   2.948   1.766   5.193 -0.1208  0.3513 -0.0858
  804SOL     OW13340   9.766   0.783   1.394  0.0257  0.1073 -0.2585
  804SOL    HW113341   9.757   0.684   1.382  3.1758 -0.3905  1.1208
  804SOL    HW213342   9.761   0.805   1.492  1.8169  1.0374 -0.3663
  805SOL     OW13343   1.155   2.050   2.567 -0.0774 -0.0975  0.2660
  805SOL    HW113344   1.244   2.096   2.566  0.2283 -0.6886  0.0645
  805SOL    HW213345   1.089   2.105   2.619  0.2276  0.6666 -0.1486
  806SOL     OW13346   5.226   0.866   0.471  0.3654 -0.4564  0.0247
  806SOL    HW113347   5.297   0.933   0.494 -0.7810  0.9016 -0.3261
  806SOL    HW213348   5.221   0.797   0.543 -0.3003  1.3792  1.7857
  807SOL     OW13349   2.785   3.389   5.042 -0.7330  0.4799 -0.1559
  807SOL    HW113350   2.750   3.299   5.016  0.9770 -0.2151 -0.1198
  807SOL    HW213351   2.860   3.415   4.981 -2.5459  2.8168 -1.4682
  808SOL     OW13352   1.890   3.986   2.316  0.1794  0.1000  0.0400
  808SOL    HW113353   1.841   3.913   2.268 -0.0757 -0.1689  0.7021
  808SOL    HW213354   1.902   3.961   2.412 -0.2283  1.0708  0.3581
  809SOL     OW13355   3.666   5.036   1.527 -0.2069  0.0371  0.8805
  809SOL    HW113356   3.649   4.977   1.606  3.0915 -2.2848 -0.0376
  809SOL    HW213357   3.593   5.023   1.460 -2.7739  1.6604  3.2397
  810SOL     OW13358   3.089   8.447   2.932 -0.1305  0.1666  0.2551
  810SOL    HW113359   3.098   8.411   2.839  2.8320 -0.9384  0.8962
  810SOL    HW213360   3.055   8.375   2.993 -1.6343  0.7579  0.1282
  811SOL     OW13361   5.106   2.799   2.284  0.6241  0.3318 -0.4145
  811SOL    HW113362   5.132   2.769   2.193  1.4798  2.2170 -0.8209
  811SOL    HW213363   5.013   2.837   2.282  0.1756 -0.7550 -0.2433
  812SOL     OW13364   8.786   9.301   1.883 -0.5223  0.0916 -0.9957
  812SOL    HW113365   8.774   9.400   1.885 -0.9234  0.0402 -0.8063
  812SOL    HW213366   8.840   9.273   1.963 -0.7171  0.1190 -0.8534
  813SOL     OW13367   2.518   5.625   1.435 -0.4144 -0.1279 -0.1490
  813SOL    HW113368   2.526   5.609   1.337 -2.4830 -0.5813 -0.2765
  813SOL    HW213369   2.447   5.693   1.452 -0.0162  0.0053  1.0276
  814SOL     OW13370   0.325   2.103   1.877  0.1841  0.0457 -0.8867
  814SOL    HW113371   0.289   2.186   1.921  1.4013 -0.3121  0.8342
  814SOL    HW213372   0.295   2.100   1.782 -1.8635  1.2549 -0.3184
  815SOL     OW13373   8.455   2.263   3.866  0.8034  0.2740  0.4556
  815SOL    HW113374   8.531   2.287   3.806  0.8705  1.2162  0.9009
  815SOL    HW213375   8.466   2.309   3.954 -0.7019  1.1073  0.2303
  816SOL     OW13376   2.099   9.414   0.201  0.2444 -0.3353 -0.1157
  816SOL    HW113377   2.067   9.333   0.249  1.5598 -0.7925  0.0098
  816SOL    HW213378   2.154   9.471   0.263 -0.9408  0.8361 -0.1026
  817SOL     OW13379   0.930   8.630   4.792 -0.5528 -0.4195  0.8679
  817SOL    HW113380   0.866   8.554   4.777  0.5383 -1.3267  0.7752
  817SOL    HW213381   0.942   8.680   4.707 -1.4938  0.0498  0.9959
  818SOL     OW13382   0.994   5.894   4.317 -0.5670  0.1351  0.5957
  818SOL    HW113383   1.037   5.864   4.403 -0.5710  0.2486  0.6366
  818SOL    HW213384   0.992   5.994   4.314  0.0817  0.1293  0.1342
  819SOL     OW13385   3.012   2.513   0.585 -0.3283  0.0288 -0.2805
  819SOL    HW113386   2.913   2.514   0.596 -0.6165  1.0591 -2.6774
  819SOL    HW213387   3.053   2.586   0.640 -0.7524 -1.0817  1.5724
  820SOL     OW13388   3.106   5.344   1.168 -0.0605  0.3435  0.1003
  820SOL    HW113389   3.077   5.248   1.164 -1.8653  0.8695 -0.3410
  820SOL    HW213390   3.025   5.402   1.181  0.8405  1.8841 -0.9771
  821SOL     OW13391   6.543   8.390   3.312  0.2697  0.9757 -0.4049
  821SOL    HW113392   6.473   8.349   3.255 -0.2193  2.5375 -0.9727
  821SOL    HW213393   6.554   8.337   3.396  1.0629 -1.4044 -1.9566
  822SOL     OW13394   3.426   8.261   0.110  0.3361 -0.1257  1.0380
  822SOL    HW113395   3.477   8.341   0.077 -0.3537 -0.5108 -1.0689
  822SOL    HW213396   3.383   8.282   0.197  1.4503  1.2808  1.2630
  823SOL     OW13397   8.972   6.439   5.051  0.3882  0.3232  0.0144
  823SOL    HW113398   8.956   6.396   5.140  0.0554  0.7872  0.1814
  823SOL    HW213399   9.057   6.491   5.054 -0.7767  2.2167  0.7758
  824SOL     OW13400   9.739   2.801   1.606  0.8469  0.4384 -0.1693
  824SOL    HW113401   9.717   2.818   1.510  0.2550 -1.6166 -0.4277
  824SOL    HW213402   9.693   2.869   1.663  0.4307  1.1018 -1.2740
  825SOL     OW13403   9.552   7.717   1.333  0.5474 -0.4708 -0.3360
  825SOL    HW113404   9.638   7.737   1.285  0.7294 -2.7196 -1.0499
  825SOL    HW213405   9.563   7.732   1.431  0.2300  4.0349 -0.8879
  826SOL     OW13406   8.173   2.689   2.348  0.2176  0.0292  0.2754
  826SOL    HW113407   8.216   2.604   2.380  0.7290  0.2156  0.0879
  826SOL    HW213408   8.077   2.691   2.377 -0.3766 -1.5922 -1.4849
  827SOL     OW13409   2.143   9.114   3.020 -0.0178 -0.1278 -0.5356
  827SOL    HW113410   2.170   9.206   3.046  0.6716 -0.5836  0.3885
  827SOL    HW213411   2.174   9.095   2.927 -0.4190  0.6639 -0.8407
  828SOL     OW13412   2.058   9.434   2.879 -0.1265 -0.5094  0.1515
  828SOL    HW113413   2.064   9.467   2.974 -0.2638 -1.0539  0.3491
  828SOL    HW213414   2.103   9.500   2.819 -1.3212  0.5642  0.4213
  829SOL     OW13415   2.800   9.796   1.690 -0.1833 -0.4117 -1.0420
  829SOL    HW113416   2.837   9.828   1.603  0.8075 -0.6150 -0.7003
  829SOL    HW213417   2.706   9.830   1.701 -0.0844  0.1449 -1.8946
  830SOL     OW13418   2.228   8.708   1.940  0.0700 -0.2458 -0.1682
  830SOL    HW113419   2.290   8.657   1.881 -0.2277  0.3679 -1.0160
  830SOL    HW213420   2.278   8.743   2.019  0.3733 -1.4532  0.1819
  831SOL     OW13421   7.454   3.039   4.897 -0.4551 -0.2317 -0.0047
  831SOL    HW113422   7.408   3.054   4.809 -0.7304 -1.3490 -0.0604
  831SOL    HW213423   7.387   3.044   4.971 -0.0765  1.5919  0.2311
  832SOL     OW13424   8.697   7.805   4.406  0.0573  0.1351 -0.4439
  832SOL    HW113425   8.773   7.740   4.401 -0.9663 -1.1138  0.0875
  832SOL    HW213426   8.624   7.776   4.343 -0.0963  1.1849 -0.7615
  833SOL     OW13427   1.910   1.304   4.713 -0.6134  0.5513  0.0201
  833SOL    HW113428   1.885   1.314   4.809  0.8796  0.2556  0.4570
  833SOL    HW213429   1.988   1.363   4.692 -1.0267  0.7314 -1.0481
  834SOL     OW13430   4.858   8.873   3.139 -0.7450 -0.1626 -0.0422
  834SOL    HW113431   4.941   8.912   3.179 -1.6609  0.1059  1.6516
  834SOL    HW213432   4.779   8.929   3.164 -1.5718 -0.9673 -0.8000
  835SOL     OW13433   0.431   3.038   1.221  0.7136 -0.4704 -0.1977
  835SOL    HW113434   0.418   3.106   1.149 -0.8391  0.2723  0.7697
  835SOL    HW213435   0.497   2.970   1.190  1.3932  0.8024 -1.6466
  836SOL     OW13436   2.125   0.433   0.872  0.0874  0.0483 -0.3028
  836SOL    HW113437   2.211   0.449   0.822  0.4277 -0.3227  0.1551
  836SOL    HW213438   2.146   0.408   0.966 -0.5498  0.5249 -0.0346
  837SOL     OW13439   1.060   8.410   5.293  0.1214  0.2913 -0.6002
  837SOL    HW113440   1.154   8.443   5.281  0.2553 -0.2048 -0.9453
  837SOL    HW213441   1.016   8.402   5.204  0.0718 -0.4078 -0.5156
  838SOL     OW13442   9.430   9.406   2.231 -0.1208 -0.7373 -0.3669
  838SOL    HW113443   9.368   9.476   2.267 -0.1893 -0.8302 -0.3023
  838SOL    HW213444   9.511   9.450   2.191 -0.9218 -0.5427 -1.7903
  839SOL     OW13445   5.518   8.931   4.494 -0.4700  0.3669 -0.4514
  839SOL    HW113446   5.618   8.928   4.493 -0.4223  1.7552 -0.4194
  839SOL    HW213447   5.482   8.856   4.438  0.6017  0.7626 -1.6929
  840SOL     OW13448   0.963   2.027   5.240 -0.4070  0.0076  0.0966
  840SOL    HW113449   1.049   1.985   5.268 -1.1742 -0.7890  1.3477
  840SOL    HW213450   0.932   1.987   5.154  1.3388  1.5509 -1.2698
  841SOL     OW13451   8.468   2.714   5.023  0.0139  0.1262 -0.0392
  841SOL    HW113452   8.483   2.797   4.971 -1.6760  0.0483 -0.6921
  841SOL    HW213453   8.488   2.731   5.120  2.0560  0.5796 -0.5303
  842SOL     OW13454   0.326   3.776   3.465  0.5103  0.8765 -0.0968
  842SOL    HW113455   0.269   3.813   3.391  2.0507  0.5726 -1.4493
  842SOL    HW213456   0.324   3.839   3.543 -1.5981  0.9110 -0.1456
  843SOL     OW13457   3.462   0.187   5.336 -0.5203  0.6403 -0.7816
  843SOL    HW113458   3.476   0.099   5.292  0.9529  0.6709 -0.4125
  843SOL    HW213459   3.368   0.194   5.370 -0.7833 -0.5739 -1.2602
  844SOL     OW13460   1.307   4.295   3.311  0.0594 -0.1792 -0.0820
  844SOL    HW113461   1.362   4.296   3.394  1.1820  0.0637 -0.8194
  844SOL    HW213462   1.230   4.358   3.322 -1.0691 -1.8025  1.5925
  845SOL     OW13463   8.885   0.405   1.544  0.0189  0.0612  0.0207
  845SOL    HW113464   8.975   0.445   1.564 -0.0315  1.2206 -1.9752
  845SOL    HW213465   8.888   0.307   1.565  1.6115  0.1612  0.3954
  846SOL     OW13466   7.652   7.714   2.153  0.4082  0.0710  0.7134
  846SOL    HW113467   7.584   7.656   2.198 -1.4780  0.8282 -1.0995
  846SOL    HW213468   7.693   7.665   2.077 -0.0328  0.5374  0.1692
  847SOL     OW13469   9.657   2.498   3.941 -0.1325 -0.0840 -0.3657
  847SOL    HW113470   9.614   2.455   3.862  1.7642 -0.7220 -1.0702
  847SOL    HW213471   9.752   2.521   3.919  0.0212  0.9217  1.2902
  848SOL     OW13472   7.209   8.612   1.268 -0.1379  0.1466 -0.1524
  848SOL    HW113473   7.306   8.593   1.255 -0.3850 -0.7823 -0.6922
  848SOL    HW213474   7.182   8.586   1.361  0.3707  1.4444  0.3630
  849SOL     OW13475   4.524   2.704   4.110 -0.1255  0.0703  0.0864
  849SOL    HW113476   4.542   2.777   4.045 -0.5938  1.5488  1.5705
  849SOL    HW213477   4.452   2.645   4.075  1.5818 -0.8589 -2.0085
  850SOL     OW13478   2.375   9.345   5.357  0.4994 -0.5545  0.3466
  850SOL    HW113479   2.402   9.383   5.446  2.5968  0.5652 -0.7276
  850SOL    HW213480   2.330   9.257   5.371  1.0612 -0.5316  2.5066
  851SOL     OW13481   5.465   8.459   3.996 -0.0942  0.3631 -0.4878
  851SOL    HW113482   5.548   8.464   3.939  0.4253  0.2507  0.2591
  851SOL    HW213483   5.438   8.364   4.007 -2.0710  0.5263 -3.2285
  852SOL     OW13484   4.148   0.615   5.013 -0.1908 -0.3374  0.4487
  852SOL    HW113485   4.103   0.541   4.962  0.6464 -0.9893  0.6362
  852SOL    HW213486   4.247   0.604   5.006 -0.0445  1.6000 -0.7040
  853SOL     OW13487   7.750   2.330   0.648  0.0853 -0.0173 -0.7362
  853SOL    HW113488   7.762   2.429   0.655 -0.7672  0.1325 -1.2341
  853SOL    HW213489   7.775   2.300   0.556  0.1818 -0.2351 -0.6373
  854SOL     OW13490   9.014   8.369   1.023  0.3477 -0.3771 -0.0931
  854SOL    HW113491   9.067   8.445   0.987  2.4101 -1.0964  1.2807
  854SOL    HW213492   8.989   8.388   1.118  0.9348 -1.4332  0.2809
  855SOL     OW13493   3.435   5.069   1.395 -0.6450 -0.3269 -0.1346
  855SOL    HW113494   3.456   5.135   1.323 -1.2550 -1.1830 -1.1014
  855SOL    HW213495   3.356   5.101   1.447 -1.3514 -0.6246 -1.0229
  856SOL     OW13496   3.260   0.183   1.266 -0.2587  0.6042  0.4625
  856SOL    HW113497   3.202   0.135   1.200  0.9937  1.6461 -1.4512
  856SOL    HW213498   3.219   0.272   1.287  0.4758  1.2311 -0.6907
  857SOL     OW13499   3.524   1.792   2.096 -0.1827 -0.3330 -0.1588
  857SOL    HW113500   3.573   1.759   2.177 -2.0201 -0.2535  0.9968
  857SOL    HW213501   3.467   1.870   2.120 -0.6509 -0.2205 -1.5689
  858SOL     OW13502   7.516   3.395   1.204 -0.0186 -0.0769  0.4282
  858SOL    HW113503   7.505   3.494   1.218  0.6817 -0.0811  1.0558
  858SOL    HW213504   7.555   3.354   1.286  0.1002 -0.8112  0.0100
  859SOL     OW13505   9.652   6.502   2.269 -0.4986  0.2320  0.2211
  859SOL    HW113506   9.603   6.584   2.300  0.8655 -0.4830  4.5391
  859SOL    HW213507   9.589   6.425   2.266 -1.5483  1.1291 -2.8486
  860SOL     OW13508   9.299   2.912   2.069 -0.6580 -0.1912 -0.2164
  860SOL    HW113509   9.313   2.859   1.986 -0.8400 -1.0621  0.3028
  860SOL    HW213510   9.377   2.900   2.131 -1.2258 -0.7820  0.3934
  861SOL     OW13511   0.657   9.989   1.172 -0.6280  0.3810 -0.4801
  861SOL    HW113512   0.560  10.008   1.156 -0.5254  0.6098 -0.8366
  861SOL    HW213513   0.673   9.972   1.269 -0.7439  1.9726 -0.1773
  862SOL     OW13514   9.097   4.593   1.897  0.2804 -0.0250  0.4200
  862SOL    HW113515   9.037   4.518   1.871 -0.5738  1.5650 -2.4204
  862SOL    HW213516   9.052   4.648   1.968 -0.1730 -0.7276  0.6868
  863SOL     OW13517   1.635   8.863   1.713  0.0003 -0.4770 -0.3480
  863SOL    HW113518   1.641   8.769   1.678  2.6600 -0.7214  0.6144
  863SOL    HW213519   1.675   8.926   1.647 -0.4325 -0.2070 -0.3531
  864SOL     OW13520   9.268   9.246   2.957  0.2402 -0.5502 -0.1052
  864SOL    HW113521   9.319   9.185   2.895 -0.8395 -0.8765 -0.6861
  864SOL    HW213522   9.191   9.196   2.995 -0.3212  0.3004 -0.1343
  865SOL     OW13523   0.223   9.754   3.207 -0.8173  0.3865 -0.0580
  865SOL    HW113524   0.265   9.671   3.170 -0.8668  0.1728  0.3637
  865SOL    HW213525   0.142   9.778   3.153 -0.1987  0.7545 -0.8264
  866SOL     OW13526   2.368   1.000   4.106 -0.0446 -0.1710 -0.2409
  866SOL    HW113527   2.380   1.028   4.201 -2.0138 -0.7117  0.1897
  866SOL    HW213528   2.326   1.075   4.054  1.4646  0.2987 -0.8153
  867SOL     OW13529   4.393   3.802   1.436 -0.3717 -0.3886 -0.3035
  867SOL    HW113530   4.318   3.757   1.485  0.1235  0.9892  1.7901
  867SOL    HW213531   4.359   3.836   1.349 -2.0129 -0.4293  0.2968
  868SOL     OW13532   4.744   3.208   1.085  0.4529  0.4872 -0.3633
  868SOL    HW113533   4.829   3.259   1.069  1.0595 -0.6860 -0.9514
  868SOL    HW213534   4.752   3.117   1.045 -0.7859  0.0779  0.3023
  869SOL     OW13535   4.411   3.429   3.393  0.3484 -0.2319  0.0126
  869SOL    HW113536   4.338   3.408   3.328  1.5491  0.0356 -1.4226
  869SOL    HW213537   4.384   3.396   3.484 -1.9257  0.6002 -0.3118
  870SOL     OW13538   1.005   1.948   3.785 -0.7055  0.0346  0.2793
  870SOL    HW113539   1.083   1.889   3.765 -1.5075 -1.6522  2.0410
  870SOL    HW213540   1.014   1.986   3.877 -0.7226  1.8603 -0.4479
  871SOL     OW13541   2.273   3.290   2.572  0.2782 -0.0299  0.2265
  871SOL    HW113542   2.347   3.332   2.519  0.7229  0.2543  1.0755
  871SOL    HW213543   2.298   3.287   2.669 -1.0262  0.4994  0.5860
  872SOL     OW13544   2.191   9.968   0.517 -0.5314 -0.6539  0.5313
  872SOL    HW113545   2.130   9.977   0.596  0.6819 -0.4458  1.4531
  872SOL    HW213546   2.285   9.953   0.548 -0.1629 -1.4157 -0.8771
  873SOL     OW13547   0.215   1.402   2.276  0.1713  0.5748  0.3206
  873SOL    HW113548   0.125   1.423   2.237  0.5040  0.0045 -0.7671
  873SOL    HW213549   0.250   1.483   2.324  0.2890  1.6977 -1.6117
  874SOL     OW13550   7.569   4.861   0.894 -0.1176 -0.1667  0.2040
  874SOL    HW113551   7.509   4.827   0.822  1.1789 -1.4715 -0.2761
  874SOL    HW213552   7.545   4.956   0.914 -0.2376  0.3619 -2.2222
  875SOL     OW13553   7.919   8.738   3.509  0.5245  0.0360 -0.0096
  875SOL    HW113554   7.898   8.702   3.600 -1.9639 -1.2534 -1.0449
  875SOL    HW213555   8.016   8.724   3.490  0.8299 -0.7909  1.9522
  876SOL     OW13556   3.922   8.747   0.999  0.1256  0.1295 -0.3671
  876SOL    HW113557   3.890   8.769   1.092  1.0233  1.6681 -0.3955
  876SOL    HW213558   3.931   8.832   0.947  1.0647 -0.5914 -1.3920
  877SOL     OW13559   0.480   8.383   2.901 -0.1191  0.0574  0.3298
  877SOL    HW113560   0.453   8.301   2.951 -2.8981  1.6569  1.5923
  877SOL    HW213561   0.438   8.463   2.945  1.0236  1.9591 -1.9695
  878SOL     OW13562   5.161   4.351   0.328 -0.0289  0.0929 -0.2004
  878SOL    HW113563   5.156   4.378   0.232  1.5244 -1.0870 -0.6265
  878SOL    HW213564   5.068   4.342   0.365 -0.6216  1.7251 -1.2415
  879SOL     OW13565   2.239   7.452   4.532 -0.0462  0.1390  0.4840
  879SOL    HW113566   2.286   7.461   4.620  0.6181  0.6712  0.0859
  879SOL    HW213567   2.286   7.383   4.476  1.0339  1.5443 -0.3891
  880SOL     OW13568   2.542   3.016   4.587 -0.1492  0.8573  0.2634
  880SOL    HW113569   2.560   2.942   4.653  1.7504  2.0386  1.1235
  880SOL    HW213570   2.612   3.087   4.597  0.2729  0.9929 -3.1543
  881SOL     OW13571   8.583   8.721   4.866 -0.2361  0.2950 -0.5901
  881SOL    HW113572   8.556   8.814   4.842  0.2651  0.2960 -1.1639
  881SOL    HW213573   8.533   8.691   4.947 -2.4551  0.0932 -1.9714
  882SOL     OW13574   2.117   1.098   3.771  0.2942  0.0738  0.2987
  882SOL    HW113575   2.187   1.146   3.824  1.1442 -0.3634 -0.4254
  882SOL    HW213576   2.040   1.160   3.756 -0.1304  0.0899  2.3496
  883SOL     OW13577   2.892   4.789   5.261 -0.3728  0.2353 -0.2100
  883SOL    HW113578   2.890   4.710   5.322 -1.2389  0.4817  0.0791
  883SOL    HW213579   2.869   4.760   5.168  0.4316 -0.0472 -0.3263
  884SOL     OW13580   2.201   0.025   5.199 -0.3757  0.1055  0.5259
  884SOL    HW113581   2.104   0.050   5.192 -0.2213  0.6927  0.4184
  884SOL    HW213582   2.218  -0.058   5.146 -0.5624  0.7619 -0.5873
  885SOL     OW13583   8.604   3.592   2.243 -0.1306  0.0027  0.1283
  885SOL    HW113584   8.665   3.546   2.308  1.5340  1.1983 -0.5399
  885SOL    HW213585   8.648   3.594   2.153 -1.5191  0.2017 -0.5506
  886SOL     OW13586   1.871   1.428   5.480 -0.5503  0.1021  0.1345
  886SOL    HW113587   1.961   1.420   5.522 -0.9985 -0.6607  0.9670
  886SOL    HW213588   1.853   1.349   5.422 -0.0850  0.9726 -1.2263
  887SOL     OW13589   9.186   1.405   2.050  0.3699 -0.7097  0.3255
  887SOL    HW113590   9.224   1.372   1.964  1.4409 -1.9120  1.2350
  887SOL    HW213591   9.107   1.350   2.075  0.5335 -0.8776  0.4864
  888SOL     OW13592   0.721   2.037   3.787 -0.3187  0.3912  0.1302
  888SOL    HW113593   0.805   1.986   3.770  1.0922  2.5066  0.5763
  888SOL    HW213594   0.743   2.134   3.804 -2.6962  0.7018  1.7493
  889SOL     OW13595   7.774   7.384   3.752  0.0986  0.2880  0.2946
  889SOL    HW113596   7.758   7.454   3.821  1.3671 -0.4046  1.3113
  889SOL    HW213597   7.745   7.418   3.663  1.8117  2.5788  0.5693
  890SOL     OW13598   2.476   4.644   3.814 -0.3379  0.1026 -0.1489
  890SOL    HW113599   2.417   4.654   3.734  0.3358  0.4805 -0.5982
  890SOL    HW213600   2.565   4.608   3.786  0.2107  1.0843  0.3034
  891SOL     OW13601   1.509   1.622   2.760 -0.2388  0.4901  0.0675
  891SOL    HW113602   1.475   1.563   2.833  0.2951  2.0629  1.6403
  891SOL    HW213603   1.604   1.598   2.738 -0.0295  0.7297  0.6909
  892SOL     OW13604   0.679   3.739   0.699  0.2408  0.9682 -0.4406
  892SOL    HW113605   0.593   3.783   0.673  0.3600  2.1463  1.0912
  892SOL    HW213606   0.732   3.801   0.756  0.8839 -0.7906  0.9218
  893SOL     OW13607   9.491   8.937   1.430 -0.3775  0.1623  0.0404
  893SOL    HW113608   9.404   8.899   1.400 -0.6044 -0.4022  1.3931
  893SOL    HW213609   9.535   8.874   1.494  0.3771  1.0757  0.4310
  894SOL     OW13610   9.735   5.591   3.854  0.1367  0.2950 -0.1727
  894SOL    HW113611   9.704   5.656   3.924  0.4272  0.6222 -0.3441
  894SOL    HW213612   9.736   5.499   3.893 -0.1780  0.4050  0.1054
  895SOL     OW13613   0.724   0.004   5.239  0.1573  0.2288 -0.0675
  895SOL    HW113614   0.797  -0.062   5.252 -0.6728 -0.9389 -1.1491
  895SOL    HW213615   0.724   0.036   5.144 -1.4690 -0.7111 -0.4126
  896SOL     OW13616   9.335   7.130   1.695 -0.1579  0.0917  0.4616
  896SOL    HW113617   9.252   7.163   1.651  0.0649 -0.1231 -0.1141
  896SOL    HW213618   9.330   7.031   1.707 -0.1752  0.1353  0.8294
  897SOL     OW13619   8.731   6.005   1.003 -0.2731 -0.3713  0.2938
  897SOL    HW113620   8.675   5.948   1.063 -0.2545 -0.7101 -0.0093
  897SOL    HW213621   8.819   5.961   0.988 -1.2925 -1.6559 -2.2103
  898SOL     OW13622   7.700   7.622   1.590 -0.1285 -0.4450 -0.1010
  898SOL    HW113623   7.622   7.647   1.648 -0.0935 -4.9554  2.0930
  898SOL    HW213624   7.784   7.627   1.644  0.4284 -0.6887 -0.9441
  899SOL     OW13625   9.907   5.464   4.328 -0.0830  0.5062  0.2581
  899SOL    HW113626   9.987   5.413   4.359 -0.4979 -0.7720 -0.7214
  899SOL    HW213627   9.936   5.552   4.290  0.9566 -0.2917 -0.8639
  900SOL     OW13628   5.755   0.286   2.494  0.1755  0.1466  0.2042
  900SOL    HW113629   5.774   0.199   2.540 -1.3262 -0.3822 -0.1409
  900SOL    HW213630   5.723   0.353   2.561 -0.7724 -0.2385  0.1513
  901SOL     OW13631   1.895   6.829   1.528  0.2397  0.0204 -0.2038
  901SOL    HW113632   1.911   6.859   1.622 -0.7046 -1.2144  0.3664
  901SOL    HW213633   1.800   6.799   1.518  1.0328 -2.3807 -0.8507
  902SOL     OW13634   2.227   7.720   4.483 -0.3225  0.0400  0.1938
  902SOL    HW113635   2.173   7.747   4.403  2.1963  1.9424 -0.9114
  902SOL    HW213636   2.231   7.620   4.489 -2.6309 -0.1379 -0.5603
  903SOL     OW13637   2.133   6.104   1.409  0.2504 -0.0116 -0.2624
  903SOL    HW113638   2.131   6.036   1.336 -0.4206 -1.2378  0.8944
  903SOL    HW213639   2.202   6.174   1.387  0.0452 -0.3567 -2.0626
  904SOL     OW13640   4.988   8.140   1.774  0.0662 -0.0394  0.3995
  904SOL    HW113641   4.993   8.093   1.686  1.5616 -1.3033  1.1348
  904SOL    HW213642   4.917   8.210   1.770 -0.0469 -0.2362 -1.7317
  905SOL     OW13643   2.056   8.007   5.506 -0.0339 -0.3626  0.2487
  905SOL    HW113644   2.055   7.967   5.598  0.2623 -0.2903  0.2822
  905SOL    HW213645   2.150   8.031   5.481 -0.2238  0.4206  0.2772
  906SOL     OW13646   3.390   0.818   0.379 -0.4005 -0.2344  0.0522
  906SOL    HW113647   3.428   0.888   0.439  1.0715 -0.1535 -0.9251
  906SOL    HW213648   3.333   0.861   0.309  2.5197  0.3324 -2.0933
  907SOL     OW13649   3.753   6.397   1.809 -0.0901 -0.8313 -0.0641
  907SOL    HW113650   3.713   6.440   1.728 -1.3924 -2.6456 -0.4244
  907SOL    HW213651   3.852   6.387   1.797  0.2179  1.9315  0.0036
  908SOL     OW13652   8.902   3.342   5.299  0.2460  0.0283 -0.1524
  908SOL    HW113653   8.805   3.357   5.316 -0.2604 -0.7359 -2.1972
  908SOL    HW213654   8.955   3.414   5.343 -1.2002  0.1891  1.3886
  909SOL     OW13655   9.997   5.027   5.493 -0.0203 -0.0576  0.0877
  909SOL    HW113656   9.910   5.061   5.457 -0.5046 -1.8810 -0.4795
  909SOL    HW213657  10.044   5.101   5.541 -2.9792  0.3536  2.4721
  910SOL     OW13658   1.535   6.183   3.755  0.4930 -0.2830  0.0332
  910SOL    HW113659   1.515   6.278   3.777  1.1835 -0.2470  0.5362
  910SOL    HW213660   1.505   6.163   3.662  0.0390  0.3308  0.0485
  911SOL     OW13661   4.301   4.551   5.097 -0.7275  0.1319 -0.1844
  911SOL    HW113662   4.300   4.618   5.172 -1.6088  0.2147 -0.2672
  911SOL    HW213663   4.232   4.480   5.115 -0.6086 -0.1086 -0.6842
  912SOL     OW13664   1.868   9.597   3.775 -0.0381  0.0865  0.3054
  912SOL    HW113665   1.947   9.630   3.826 -0.6184  1.4097  0.3572
  912SOL    HW213666   1.823   9.525   3.827  1.5039 -1.1594 -0.0230
  913SOL     OW13667   9.591   8.168   1.613  0.2318  0.2300 -0.6962
  913SOL    HW113668   9.665   8.101   1.606 -0.3101 -0.4577  0.1343
  913SOL    HW213669   9.626   8.251   1.658  0.8874  0.5101 -1.6889
  914SOL     OW13670   7.350   8.723   3.953 -0.2283 -0.2891  0.3661
  914SOL    HW113671   7.349   8.625   3.972  1.0847  0.1026  2.5915
  914SOL    HW213672   7.264   8.764   3.983 -0.1734 -0.5095  0.8240
  915SOL     OW13673   3.939   0.733   5.191  0.0293 -0.9402 -0.2108
  915SOL    HW113674   3.898   0.801   5.130 -0.5506 -0.1409  1.0507
  915SOL    HW213675   4.006   0.679   5.140  1.2524  1.2395 -0.9950
  916SOL     OW13676   1.003   6.982   0.712  0.0813  0.4619 -0.0744
  916SOL    HW113677   0.979   6.896   0.667 -0.5281  1.3886 -1.5514
  916SOL    HW213678   0.942   7.054   0.681  2.4969  2.0896 -1.1969
  917SOL     OW13679   1.445   6.035   3.194 -0.3512  0.0009 -0.4619
  917SOL    HW113680   1.367   5.975   3.212  0.6840 -1.0297  0.6661
  917SOL    HW213681   1.415   6.130   3.200 -1.4736 -0.3780  0.2375
  918SOL     OW13682   3.910   7.464   4.154 -0.1153 -0.4373  0.3559
  918SOL    HW113683   3.983   7.518   4.196 -0.3632 -0.4377  0.7895
  918SOL    HW213684   3.845   7.525   4.108  0.2946 -0.4530 -0.2558
  919SOL     OW13685   9.953   5.371   3.422  0.2373  0.0208 -0.0734
  919SOL    HW113686   9.910   5.446   3.471 -1.5922  0.2984 -1.9874
  919SOL    HW213687   9.982   5.402   3.331 -0.6971 -1.5804 -0.9529
  920SOL     OW13688   6.322   0.089   3.166 -0.1359 -0.4341  0.1870
  920SOL    HW113689   6.243   0.065   3.223 -0.2847 -1.5994 -0.5026
  920SOL    HW213690   6.304   0.063   3.072  1.2018 -0.9794  0.0770
  921SOL     OW13691   9.877   2.088   4.741  0.0777  0.0599 -0.2110
  921SOL    HW113692   9.974   2.075   4.720 -0.1199 -1.2923 -0.3481
  921SOL    HW213693   9.829   2.001   4.729 -1.3581  0.9691 -1.2582
  922SOL     OW13694   4.278   0.102   2.351 -0.7648 -0.2624  0.3712
  922SOL    HW113695   4.222   0.154   2.286 -1.0231 -0.8072  0.1543
  922SOL    HW213696   4.375   0.114   2.329 -0.7003  1.8989  1.6545
  923SOL     OW13697   2.762   5.912   2.522  0.6969  0.1808 -0.2578
  923SOL    HW113698   2.747   6.004   2.485  0.7405 -0.3212 -1.5328
  923SOL    HW213699   2.854   5.905   2.559  0.8475  0.5110 -0.5698
  924SOL     OW13700   1.918   3.074   0.177 -0.3671 -0.3884 -1.0724
  924SOL    HW113701   1.969   3.160   0.185 -2.3877  0.6478  1.3122
  924SOL    HW213702   1.943   3.013   0.252 -0.0473 -1.2727 -1.8977
  925SOL     OW13703   4.936   6.942   2.456 -0.3630  0.5545  0.2055
  925SOL    HW113704   4.843   6.934   2.491 -0.0432 -0.5481  0.8325
  925SOL    HW213705   4.999   6.962   2.531  0.1751 -0.7458  0.1334
  926SOL     OW13706   4.421   8.259   0.596 -0.5117 -0.0744  0.1809
  926SOL    HW113707   4.452   8.165   0.614 -1.6257 -0.1592  1.7779
  926SOL    HW213708   4.450   8.318   0.672 -1.4928  0.4806  0.1256
  927SOL     OW13709   5.183   0.394   3.273  0.1064  0.0545 -0.6392
  927SOL    HW113710   5.179   0.323   3.202 -0.4434 -1.4054  0.8244
  927SOL    HW213711   5.093   0.406   3.314  0.4439  0.8119 -0.0985
  928SOL     OW13712   8.649   7.184   3.718  0.1208  0.2323  0.3217
  928SOL    HW113713   8.738   7.206   3.758 -0.7229  0.4851  2.1365
  928SOL    HW213714   8.577   7.229   3.771 -1.3761 -3.3499  1.5051
  929SOL     OW13715   9.605   3.757   3.968  0.2486  0.3205 -0.0161
  929SOL    HW113716   9.666   3.818   4.017 -0.6266  0.6742  0.6481
  929SOL    HW213717   9.521   3.743   4.021 -0.8129  0.8965 -1.4939
  930SOL     OW13718   5.080   0.800   5.048 -0.0613  0.2185  0.5134
  930SOL    HW113719   5.172   0.768   5.025 -0.7703 -0.8090 -0.9230
  930SOL    HW213720   5.073   0.897   5.026  0.2941  0.0137 -0.5531
  931SOL     OW13721   7.112   7.118   2.800  0.2420  0.7353 -0.0793
  931SOL    HW113722   7.089   7.170   2.718 -0.6688  1.7170  0.7749
  931SOL    HW213723   7.058   7.034   2.803  0.3248  0.6658 -0.5070
  932SOL     OW13724   7.212   8.876   1.534  0.3881  0.1029 -0.2702
  932SOL    HW113725   7.137   8.858   1.598 -0.6249  2.2581 -0.7972
  932SOL    HW213726   7.294   8.826   1.563 -0.7774 -0.9626  1.2541
  933SOL     OW13727   9.048   0.306   0.098 -0.3918  0.2134 -0.3239
  933SOL    HW113728   9.098   0.363   0.163  0.5980 -0.9221 -0.0735
  933SOL    HW213729   8.958   0.285   0.136  1.1771 -2.6971  1.9594
  934SOL     OW13730   7.776   2.709   1.387 -0.4342  0.1254 -0.0263
  934SOL    HW113731   7.867   2.670   1.401  0.1432  1.2151 -0.6487
  934SOL    HW213732   7.708   2.636   1.388  0.4216 -0.6771  0.6369
  935SOL     OW13733   4.462   9.008   4.096  0.3131 -0.3610  0.0595
  935SOL    HW113734   4.431   8.946   4.168 -1.1992 -0.0658 -0.3321
  935SOL    HW213735   4.473   9.100   4.134 -1.8236  0.1018 -0.3668
  936SOL     OW13736   0.780   2.095   4.581  0.6494 -0.0179 -0.2917
  936SOL    HW113737   0.698   2.152   4.577  1.1441  0.6998 -0.3123
  936SOL    HW213738   0.792   2.059   4.673  0.1208 -0.4026 -0.3753
  937SOL     OW13739   8.491   3.341   2.107  0.6308  0.5442  0.2246
  937SOL    HW113740   8.513   3.385   2.020  0.3498  2.3862  1.0819
  937SOL    HW213741   8.470   3.410   2.176 -0.0062 -0.9309  1.5417
  938SOL     OW13742   5.040   8.034   2.017 -0.2850  0.0924  0.3627
  938SOL    HW113743   5.049   7.935   2.005 -1.8319 -0.0371  0.1396
  938SOL    HW213744   5.014   8.075   1.929  0.9520  0.7807  0.3130
  939SOL     OW13745   2.338   1.324   2.909  0.3929  0.4410 -0.2854
  939SOL    HW113746   2.410   1.271   2.953  0.8025 -0.1496 -1.6311
  939SOL    HW213747   2.379   1.394   2.850 -0.1410  2.2336  1.4136
  940SOL     OW13748   7.501   0.740   4.514  0.1493 -0.9936  0.2737
  940SOL    HW113749   7.477   0.770   4.421  0.8391 -1.0334  0.0804
  940SOL    HW213750   7.559   0.659   4.508  4.1305  1.7205  0.5764
  941SOL     OW13751   3.257   3.841   5.484 -0.1014  0.2662 -0.3466
  941SOL    HW113752   3.299   3.868   5.397  1.5737  0.6276  0.5471
  941SOL    HW213753   3.306   3.885   5.559 -1.9010  0.4177  0.7578
  942SOL     OW13754   2.337   2.780   5.263 -0.1649  0.3625  0.2329
  942SOL    HW113755   2.267   2.847   5.239 -2.5261 -2.2074 -0.2564
  942SOL    HW213756   2.316   2.739   5.352  1.8601  1.0441  1.0496
  943SOL     OW13757   5.901   7.218   3.887 -0.0022  0.6218 -0.3816
  943SOL    HW113758   5.896   7.257   3.979  1.3222 -0.2849  0.1039
  943SOL    HW213759   5.818   7.240   3.836 -1.9877 -1.1390  1.9471
  944SOL     OW13760   8.490   3.462   1.875 -0.2513 -0.2380  0.3292
  944SOL    HW113761   8.418   3.518   1.833 -0.2116 -0.9214 -0.6909
  944SOL    HW213762   8.545   3.419   1.802 -0.3583 -1.6788  1.0781
  945SOL     OW13763   1.304   0.459   5.331  0.5077  0.1791  0.5901
  945SOL    HW113764   1.377   0.497   5.388  1.3801 -0.1360 -0.2921
  945SOL    HW213765   1.281   0.367   5.363 -0.2789  0.7097  1.5539
  946SOL     OW13766   4.331   1.214   1.652 -0.1121 -0.4356  0.5513
  946SOL    HW113767   4.315   1.122   1.687 -0.6746 -1.1447 -1.5207
  946SOL    HW213768   4.398   1.210   1.577  1.0534  1.0487  1.4762
  947SOL     OW13769   4.007   1.437   2.961  0.3616 -0.3730 -0.2454
  947SOL    HW113770   3.970   1.529   2.969 -0.8545 -0.7426 -1.4916
  947SOL    HW213771   4.048   1.425   2.871 -0.6796 -1.4743 -0.5835
  948SOL     OW13772   4.901   1.603   2.918 -0.8756 -0.0584 -0.4171
  948SOL    HW113773   4.807   1.633   2.899 -1.0831 -0.2695  0.2568
  948SOL    HW213774   4.964   1.679   2.903 -1.1433  0.0629 -0.9511
  949SOL     OW13775   6.545   0.593   0.524  0.2645  0.1974  0.0218
  949SOL    HW113776   6.635   0.629   0.548 -0.5035  1.1013  1.5897
  949SOL    HW213777   6.552   0.537   0.441  2.1618  0.7184 -0.1738
  950SOL     OW13778   3.638   8.482   1.262 -0.3305  0.8173  0.4774
  950SOL    HW113779   3.577   8.561   1.271  0.8771  2.1995 -2.7040
  950SOL    HW213780   3.587   8.405   1.225 -0.7131  1.2464  0.0923
  951SOL     OW13781   0.316   0.134   5.394 -0.0137  0.2084 -0.5492
  951SOL    HW113782   0.370   0.211   5.360  1.0458  1.5595  3.9242
  951SOL    HW213783   0.378   0.062   5.427 -1.0003 -0.8351 -0.9247
  952SOL     OW13784   6.482   7.555   1.961 -0.2887 -0.0134  0.6718
  952SOL    HW113785   6.397   7.588   1.921 -0.2829 -1.4614 -0.5930
  952SOL    HW213786   6.560   7.599   1.917 -0.3226 -0.5844  0.0286
  953SOL     OW13787   7.972   1.015   5.263 -0.3320  0.2906 -0.4733
  953SOL    HW113788   7.991   0.974   5.352 -2.5534  1.7015  0.6905
  953SOL    HW213789   7.915   0.953   5.210 -2.1068  1.0276  0.5479
  954SOL     OW13790   3.299   2.045   1.378  0.2127  0.2665  0.2618
  954SOL    HW113791   3.386   2.040   1.328  0.2104 -0.6917  0.3373
  954SOL    HW213792   3.316   2.026   1.475  0.1038  1.3486  0.4998
  955SOL     OW13793   9.467   0.155   2.735 -0.0452 -0.3153  0.3052
  955SOL    HW113794   9.445   0.069   2.780  0.0015  0.3707  1.6616
  955SOL    HW213795   9.425   0.231   2.786 -0.9920  0.3935 -1.4587
  956SOL     OW13796   1.810   8.584   1.186 -0.0162 -0.1655 -0.6315
  956SOL    HW113797   1.829   8.671   1.231 -0.2488 -0.5464  0.2190
  956SOL    HW213798   1.809   8.511   1.255 -0.7462 -0.7028 -1.2033
  957SOL     OW13799   5.787   9.042   2.021 -0.1342  0.0850  0.3519
  957SOL    HW113800   5.749   9.043   2.114 -2.2556 -3.8899 -0.3451
  957SOL    HW213801   5.885   9.022   2.026 -0.4195 -1.0823  1.7384
  958SOL     OW13802   8.124   2.842   2.936  0.0726 -0.2569  0.1351
  958SOL    HW113803   8.086   2.750   2.927  1.1740 -0.6740 -0.3538
  958SOL    HW213804   8.173   2.866   2.852  0.5798  0.4183  0.6204
  959SOL     OW13805   4.925   3.075   3.589 -0.3804 -0.0276 -0.0026
  959SOL    HW113806   5.023   3.056   3.587 -0.0136  1.8094 -0.1675
  959SOL    HW213807   4.910   3.174   3.593 -2.2215 -0.3210  0.7307
  960SOL     OW13808   4.314   7.167   2.456 -0.1184 -0.2294 -0.0550
  960SOL    HW113809   4.238   7.169   2.391 -1.0956  1.3852  1.1271
  960SOL    HW213810   4.279   7.180   2.549  1.6987  1.4964  0.4051
  961SOL     OW13811   0.212   3.518   3.324  0.0899 -0.7052  0.2774
  961SOL    HW113812   0.159   3.484   3.403 -0.2820  0.8892  0.7238
  961SOL    HW213813   0.273   3.591   3.354 -0.7345  0.5722 -1.0812
  962SOL     OW13814   7.223   0.787   5.416 -0.0774 -0.3461  0.1119
  962SOL    HW113815   7.248   0.720   5.486  0.1380  0.1096  0.4755
  962SOL    HW213816   7.295   0.792   5.347  1.6311  2.0473  1.9417
  963SOL     OW13817   8.403   8.338   3.326 -0.1115 -0.3399 -0.2474
  963SOL    HW113818   8.395   8.257   3.269 -2.1753  1.6938 -3.0285
  963SOL    HW213819   8.349   8.326   3.409 -1.3780 -1.3641 -1.2038
  964SOL     OW13820   4.429   9.885   2.345 -0.0589 -0.4449  0.2504
  964SOL    HW113821   4.335   9.914   2.364 -0.3282 -1.9062  1.1990
  964SOL    HW213822   4.492   9.947   2.392 -0.4767  1.2416 -1.3070
  965SOL     OW13823   9.320   2.163   5.036  0.1924 -0.3508  0.1902
  965SOL    HW113824   9.385   2.156   4.961  0.9675 -0.3609  0.8518
  965SOL    HW213825   9.257   2.084   5.033  2.2403 -2.0796  1.4170
  966SOL     OW13826   2.649   3.846   2.563  0.3163 -0.1394 -0.2931
  966SOL    HW113827   2.645   3.781   2.639 -2.1912 -0.1543 -0.4177
  966SOL    HW213828   2.669   3.796   2.478 -0.6430 -0.6392 -0.2341
  967SOL     OW13829   2.648   4.220   0.629  0.1487  0.2162  0.1405
  967SOL    HW113830   2.638   4.139   0.572 -2.7104  0.6477 -0.0663
  967SOL    HW213831   2.722   4.207   0.695  1.7339 -1.3279 -1.8803
  968SOL     OW13832   2.227   6.046   0.628  0.5400  0.1607  0.0137
  968SOL    HW113833   2.278   6.040   0.543  0.7647 -0.4194  0.1858
  968SOL    HW213834   2.216   6.142   0.654  2.6215  0.2534  0.6144
  969SOL     OW13835   3.093   1.793   3.542  0.1164  0.4321  0.0467
  969SOL    HW113836   3.052   1.701   3.543  0.7182  0.0890 -2.7261
  969SOL    HW213837   3.023   1.861   3.561 -0.2359 -0.6064  2.6808
  970SOL     OW13838   1.107   8.274   3.723  0.4889  0.5806 -0.0796
  970SOL    HW113839   1.103   8.243   3.818  2.6365 -0.2769 -0.2297
  970SOL    HW213840   1.202   8.297   3.699  0.2265 -0.6330 -2.4478
  971SOL     OW13841   0.974   4.919   4.680  0.1028 -0.4146  0.2667
  971SOL    HW113842   1.030   4.984   4.628  2.2375 -1.8340  0.7286
  971SOL    HW213843   0.878   4.930   4.655  0.6781  1.4929 -1.1833
  972SOL     OW13844   4.418   4.274   2.101 -0.2380 -0.0029 -0.0758
  972SOL    HW113845   4.415   4.177   2.077 -1.2540 -0.3920  1.5521
  972SOL    HW213846   4.511   4.299   2.128  0.1023 -0.4326 -0.8373
  973SOL     OW13847   4.647   9.138   4.425  0.1807  0.0931  0.3003
  973SOL    HW113848   4.577   9.114   4.492 -0.9611  0.1452 -0.8528
  973SOL    HW213849   4.638   9.235   4.401  1.4300  0.4002  1.0521
  974SOL     OW13850   0.344   4.376   4.859  0.4147 -0.7521  0.1466
  974SOL    HW113851   0.409   4.307   4.890  0.2400 -0.2607  1.6467
  974SOL    HW213852   0.389   4.439   4.796  1.3508 -0.4887  1.0832
  975SOL     OW13853   8.292   9.445   1.257 -0.1868  0.3276  0.3971
  975SOL    HW113854   8.390   9.453   1.275  0.2836 -1.4515 -1.1220
  975SOL    HW213855   8.278   9.414   1.162 -2.1790 -0.6959  0.9894
  976SOL     OW13856   7.927   1.878   0.810  0.5127  0.3121 -0.1881
  976SOL    HW113857   8.018   1.851   0.842  1.4036  1.2419 -1.8399
  976SOL    HW213858   7.924   1.977   0.800 -0.9416  0.3468  0.5833
  977SOL     OW13859   7.576   1.017   1.187  0.1548  0.0593 -0.0985
  977SOL    HW113860   7.478   1.025   1.208  0.4309  0.7513  0.9309
  977SOL    HW213861   7.618   1.108   1.189  0.8637 -0.2589 -0.3714
  978SOL     OW13862   9.156   0.935   3.686  0.5393  0.3854 -0.0042
  978SOL    HW113863   9.095   0.910   3.761 -0.9720 -0.6505 -1.5406
  978SOL    HW213864   9.251   0.931   3.717  0.1387 -3.3703  0.9388
  979SOL     OW13865   0.328   7.310   0.211 -0.6234  0.4378  0.3631
  979SOL    HW113866   0.408   7.368   0.194  0.1308 -0.0165  2.2014
  979SOL    HW213867   0.245   7.366   0.213 -0.1083  1.2016  0.4614
  980SOL     OW13868   1.189   7.048   5.001 -0.0433 -0.6467  0.7561
  980SOL    HW113869   1.168   7.143   4.980 -0.8762 -1.0050 -0.1153
  980SOL    HW213870   1.274   7.042   5.051  1.2859  0.4037 -1.3097
  981SOL     OW13871   5.943   9.394   1.886 -0.4973  0.0465 -0.1050
  981SOL    HW113872   5.862   9.390   1.828  0.1017 -3.8401 -0.8316
  981SOL    HW213873   5.934   9.328   1.961  0.7364  1.7083  1.5724
  982SOL     OW13874   3.850   8.141   4.576  0.2323  0.1866  0.0780
  982SOL    HW113875   3.814   8.217   4.630  0.5720  1.4994 -1.4766
  982SOL    HW213876   3.919   8.091   4.629  0.2804  1.2081  0.9845
  983SOL     OW13877   1.373   9.909   5.382 -0.0253 -0.2043 -0.1801
  983SOL    HW113878   1.332   9.952   5.302  2.8783 -0.7381 -2.0270
  983SOL    HW213879   1.429   9.976   5.431 -0.7344 -0.2232  0.6721
  984SOL     OW13880   0.157   5.041   3.892 -0.4601  0.1326  0.2522
  984SOL    HW113881   0.190   4.959   3.845  1.5313  0.2504  1.3829
  984SOL    HW213882   0.088   5.086   3.836  0.8453 -0.4867 -1.8994
  985SOL     OW13883   2.460   5.029   2.621  0.0721 -0.1692  0.4140
  985SOL    HW113884   2.448   5.027   2.522  0.5666  2.4753  0.2675
  985SOL    HW213885   2.373   5.009   2.666 -0.5098  0.1762 -0.5539
  986SOL     OW13886   9.068   1.235   3.208 -0.0922  0.4184 -0.3967
  986SOL    HW113887   9.107   1.144   3.195 -1.0841 -0.0355 -0.2251
  986SOL    HW213888   9.004   1.234   3.285  0.2871  1.3873 -0.0586
  987SOL     OW13889   9.403   1.409   3.260  0.2228  0.3007 -0.1880
  987SOL    HW113890   9.473   1.431   3.192  0.7391 -2.0984 -0.4865
  987SOL    HW213891   9.437   1.337   3.320 -1.2500  0.5234  0.9252
  988SOL     OW13892   8.148   5.323   5.615  0.3657  0.0127  0.2617
  988SOL    HW113893   8.207   5.242   5.624 -1.0287 -0.8412  2.1059
  988SOL    HW213894   8.128   5.338   5.519  1.7865 -1.0087 -0.2195
  989SOL     OW13895   7.603   1.565   2.407  0.6280  0.4827 -0.2488
  989SOL    HW113896   7.541   1.627   2.360 -2.4281  0.5422  3.6330
  989SOL    HW213897   7.641   1.611   2.488  0.6157 -1.7330  1.0534
  990SOL     OW13898   4.872   0.654   1.423 -0.5272 -0.1669 -0.4834
  990SOL    HW113899   4.885   0.689   1.515 -0.3053 -0.0686 -0.5535
  990SOL    HW213900   4.924   0.569   1.411 -0.5423 -0.1701 -0.5260
  991SOL     OW13901   7.719   2.901   0.852  0.0124  0.5006  0.4780
  991SOL    HW113902   7.633   2.854   0.872 -0.1426  0.4669 -0.2590
  991SOL    HW213903   7.754   2.871   0.763 -0.5592  2.4400 -0.4487
  992SOL     OW13904   3.344   2.074   5.363  0.1589 -0.6309  0.3979
  992SOL    HW113905   3.373   2.038   5.274  1.4698  1.2363  0.0440
  992SOL    HW213906   3.281   2.150   5.349  0.3127 -0.3796  1.0805
  993SOL     OW13907   9.452   1.374   3.703  0.4890  0.3399 -0.2954
  993SOL    HW113908   9.538   1.337   3.669  0.9891  0.1932  1.1033
  993SOL    HW213909   9.457   1.474   3.707  0.2178  0.3993 -1.1679
  994SOL     OW13910   9.245   9.230   0.688  0.6059 -0.3499  0.1331
  994SOL    HW113911   9.228   9.329   0.685 -0.0328 -0.4699 -0.2451
  994SOL    HW213912   9.297   9.208   0.771 -1.3731 -0.0189  1.4966
  995SOL     OW13913   2.008   5.025   4.333  0.0120 -0.7439 -0.0267
  995SOL    HW113914   2.017   5.124   4.321  3.5259 -0.8888  0.7767
  995SOL    HW213915   2.082   4.979   4.283 -1.1765 -2.9564  0.1683
  996SOL     OW13916   3.077   0.326   3.681 -0.0050  0.1060 -0.4745
  996SOL    HW113917   3.022   0.334   3.598  0.2092  0.4269 -0.5875
  996SOL    HW213918   3.141   0.250   3.671  0.1876  0.2989 -0.7006
  997SOL     OW13919   7.944   3.883   1.560  0.3089  0.1198 -0.5401
  997SOL    HW113920   7.908   3.800   1.603  0.0123  0.4930 -0.0651
  997SOL    HW213921   8.032   3.863   1.518  0.6950 -0.2042  0.4073
  998SOL     OW13922   8.453   9.817   0.187 -0.8752  0.0713  0.1082
  998SOL    HW113923   8.417   9.788   0.275  0.9478  1.9565  1.5465
  998SOL    HW213924   8.508   9.743   0.147  1.0371  0.3046  2.1677
  999SOL     OW13925   2.016   4.117   2.064  0.2004 -0.3541 -0.4061
  999SOL    HW113926   1.934   4.137   2.012  0.5980  1.3359 -0.4342
  999SOL    HW213927   1.992   4.067   2.148 -0.6529 -1.2836 -1.2020
 1000SOL     OW13928   7.473   8.526   1.278 -0.2457  0.0181 -0.7657
 1000SOL    HW113929   7.540   8.547   1.350 -1.4648  0.2369  0.3311
 1000SOL    HW213930   7.481   8.430   1.252  1.6883  0.4615 -1.9206
 1001SOL     OW13931   1.699   8.965   5.023  0.2679 -0.1616  0.0511
 1001SOL    HW113932   1.756   8.883   5.036  2.0637  0.8173 -1.3998
 1001SOL    HW213933   1.750   9.046   5.053 -0.3455  0.7361 -1.2836
 1002SOL     OW13934   9.897   4.973   3.730 -0.3615 -0.1883  0.1145
 1002SOL    HW113935   9.804   4.938   3.735 -0.0177 -1.0610  0.5211
 1002SOL    HW213936   9.897   5.072   3.749 -1.1442 -0.2746  0.5752
 1003SOL     OW13937   1.785   1.535   2.739 -0.2820  0.0730 -0.0221
 1003SOL    HW113938   1.762   1.440   2.716  2.0884 -0.9552  1.6200
 1003SOL    HW213939   1.833   1.537   2.827 -0.7860  2.8745  0.2317
 1004SOL     OW13940   8.829   5.390   1.690 -0.3200  0.1436 -0.5074
 1004SOL    HW113941   8.894   5.453   1.731 -2.1268  1.2252  0.7527
 1004SOL    HW213942   8.837   5.300   1.734 -0.0238  0.4005 -0.0310
 1005SOL     OW13943   8.313   7.050   1.860  0.3638  0.0001 -0.3964
 1005SOL    HW113944   8.331   6.962   1.815 -0.7628  0.6039 -2.0783
 1005SOL    HW213945   8.345   7.124   1.801  1.6250  0.7187  1.1684
 1006SOL     OW13946   1.506   5.730   0.418 -0.1948  0.4023 -0.2449
 1006SOL    HW113947   1.574   5.692   0.356  0.1955 -1.0538  1.0507
 1006SOL    HW213948   1.416   5.727   0.375  0.1444 -0.1434 -0.9183
 1007SOL     OW13949   1.352   7.213   3.498 -0.0226  0.0293 -0.2721
 1007SOL    HW113950   1.433   7.157   3.485  0.1522 -0.0260  0.9602
 1007SOL    HW213951   1.375   7.291   3.557 -1.2055 -0.7867  1.2944
 1008SOL     OW13952   1.779   5.285   4.543 -0.2565  0.4669  0.6154
 1008SOL    HW113953   1.745   5.191   4.540 -0.1639  0.4471  0.0908
 1008SOL    HW213954   1.869   5.286   4.586  0.8348 -0.0365 -1.5632
 1009SOL     OW13955   5.003   9.375   3.844 -0.3220 -0.4704 -0.0691
 1009SOL    HW113956   4.914   9.353   3.803  0.4101 -1.4127 -1.1832
 1009SOL    HW213957   5.051   9.440   3.785 -0.3055  0.1005  0.5748
 1010SOL     OW13958   2.311   7.583   2.064  0.3948 -0.7519  0.1908
 1010SOL    HW113959   2.282   7.492   2.093  0.4978 -0.6073  0.7564
 1010SOL    HW213960   2.238   7.649   2.083  0.0985 -0.8095 -0.7408
 1011SOL     OW13961   9.875   2.656   3.835 -0.3575  0.1664  0.1372
 1011SOL    HW113962   9.851   2.675   3.740 -0.4180  0.9042  0.2899
 1011SOL    HW213963   9.956   2.710   3.860  0.0946 -0.5857  0.2860
 1012SOL     OW13964   8.998   9.374   0.383 -0.2786 -0.3778  0.2000
 1012SOL    HW113965   9.004   9.282   0.345 -3.3074 -0.1874 -0.9050
 1012SOL    HW213966   8.902   9.401   0.390  0.5413  2.7235  0.4840
 1013SOL     OW13967   0.537   5.512   1.779  0.1413  0.2068  0.2312
 1013SOL    HW113968   0.493   5.435   1.733 -0.5519  1.1332 -0.6909
 1013SOL    HW213969   0.468   5.568   1.826  0.5549  0.6238  0.3496
 1014SOL     OW13970   9.364   2.594   4.837 -0.3629  0.3179  0.0476
 1014SOL    HW113971   9.463   2.587   4.842 -0.4697 -0.2736  1.7182
 1014SOL    HW213972   9.337   2.632   4.748  1.3200  0.0103 -0.6067
 1015SOL     OW13973   4.300   9.508   0.150  0.0470  0.5645 -0.5401
 1015SOL    HW113974   4.359   9.429   0.132 -1.3057 -0.2970 -1.2083
 1015SOL    HW213975   4.341   9.563   0.223  0.4805 -1.3112  0.6708
 1016SOL     OW13976   0.376   7.293   2.791  0.3947  0.6356  0.1823
 1016SOL    HW113977   0.431   7.308   2.873 -0.9706  0.4245  1.1761
 1016SOL    HW213978   0.301   7.230   2.813 -0.2530  0.9303 -1.1158
 1017SOL     OW13979   4.863   9.199   2.405  0.2958  0.1967  0.2577
 1017SOL    HW113980   4.847   9.174   2.309  0.6579  1.1007 -0.0428
 1017SOL    HW213981   4.810   9.138   2.464 -0.1512 -0.1876 -0.5254
 1018SOL     OW13982   8.465   2.380   1.489  0.0291 -0.0072  0.2055
 1018SOL    HW113983   8.536   2.431   1.538 -1.5310  2.3272  0.0965
 1018SOL    HW213984   8.495   2.362   1.396  0.9420 -0.0437  0.4978
 1019SOL     OW13985   8.202   4.305   1.727 -0.0943  0.3314  0.2165
 1019SOL    HW113986   8.230   4.316   1.823 -1.0608 -0.7140  0.6239
 1019SOL    HW213987   8.164   4.214   1.713  0.4560  0.3182 -1.2806
 1020SOL     OW13988   8.832   3.178   3.214  0.4850 -0.7699  0.4970
 1020SOL    HW113989   8.732   3.177   3.225  0.2952  1.2919 -0.8026
 1020SOL    HW213990   8.874   3.212   3.298 -0.0939  0.8693  0.1565
 1021SOL     OW13991   6.112   8.712   1.811 -0.4847  0.0433 -0.1221
 1021SOL    HW113992   6.150   8.802   1.786  0.4988 -0.2816  0.1940
 1021SOL    HW213993   6.182   8.642   1.800 -1.5668 -0.8767 -1.4525
 1022SOL     OW13994   6.056   8.366   2.972 -0.1644 -0.2196 -0.2210
 1022SOL    HW113995   6.036   8.272   2.998 -1.8496 -0.5222 -2.5022
 1022SOL    HW213996   6.148   8.371   2.932 -0.1052 -0.9061 -0.1655
 1023SOL     OW13997   5.072   3.744   2.374 -0.3605 -1.1882 -0.7327
 1023SOL    HW113998   5.123   3.659   2.366 -2.1199 -2.4204  0.7629
 1023SOL    HW213999   4.983   3.735   2.329 -1.1788 -0.6806  0.7443
 1024SOL     OW14000   3.986   3.034   5.614  0.4315 -0.4647 -0.4836
 1024SOL    HW114001   3.999   2.938   5.636 -1.1219 -0.9656 -1.6866
 1024SOL    HW214002   3.947   3.043   5.522  0.1173  1.2866 -0.2037
 1025SOL     OW14003   9.136   3.179   5.558 -0.0307 -0.2665 -0.2338
 1025SOL    HW114004   9.142   3.095   5.611 -0.3581  0.6978  1.3653
 1025SOL    HW214005   9.100   3.252   5.616 -1.1923  0.6078 -2.0271
 1026SOL     OW14006   9.211   4.146   4.175  0.1377 -0.5975 -0.0383
 1026SOL    HW114007   9.190   4.239   4.145 -0.3063 -0.5651  0.3690
 1026SOL    HW214008   9.308   4.126   4.158 -0.0219 -0.4475 -1.1306
 1027SOL     OW14009   8.250   7.021   2.129  0.2778 -0.6823  0.3934
 1027SOL    HW114010   8.290   7.018   2.038 -0.1761 -1.3786  0.2072
 1027SOL    HW214011   8.315   6.985   2.196 -0.3044 -2.5924 -0.0214
 1028SOL     OW14012   9.323   6.957   0.576  0.3185  0.3716  0.0813
 1028SOL    HW114013   9.295   6.874   0.624  1.4042  0.2838  0.5777
 1028SOL    HW214014   9.382   6.933   0.498 -2.4083  0.4245 -2.0658
 1029SOL     OW14015   0.767   1.633   4.706  0.2413 -0.4387 -0.2492
 1029SOL    HW114016   0.772   1.610   4.609 -2.8626 -1.4664 -0.2221
 1029SOL    HW214017   0.802   1.557   4.761  2.0132  0.1495 -0.5334
 1030SOL     OW14018   2.707   3.143   1.568 -0.3480  0.2295 -0.0003
 1030SOL    HW114019   2.640   3.070   1.558  1.2476 -1.1374 -0.9052
 1030SOL    HW214020   2.782   3.112   1.626 -0.3654  1.6807  0.8351
 1031SOL     OW14021   0.234   0.841   1.096  0.4068 -0.1466  0.3458
 1031SOL    HW114022   0.260   0.801   1.184  1.3491 -0.1830  0.0520
 1031SOL    HW214023   0.295   0.917   1.075 -1.8628  2.0319  1.3037
 1032SOL     OW14024   8.509   5.011   4.652 -0.3052  0.3633 -0.2146
 1032SOL    HW114025   8.514   4.935   4.588 -1.2561  0.6069 -0.5806
 1032SOL    HW214026   8.423   5.006   4.703 -0.2129  1.0053  0.0067
 1033SOL     OW14027   1.302   6.025   1.472 -0.4007 -1.0452 -0.6769
 1033SOL    HW114028   1.320   6.122   1.454 -0.8540 -0.3499  2.3615
 1033SOL    HW214029   1.381   5.971   1.442  0.8891  0.5296 -0.2193
 1034SOL     OW14030   9.591   6.530   3.452 -0.3011 -0.0536  0.7101
 1034SOL    HW114031   9.640   6.555   3.536  1.5001 -1.3954  0.0866
 1034SOL    HW214032   9.625   6.442   3.418 -0.6989  0.6582 -1.6439
 1035SOL     OW14033   2.956   5.278   2.001 -0.3616 -0.2035 -0.2245
 1035SOL    HW114034   2.918   5.300   2.090  0.4548  0.4591 -0.0280
 1035SOL    HW214035   2.904   5.324   1.929 -1.0764 -0.8143 -0.0988
 1036SOL     OW14036   9.008   9.066   2.586  0.3211  0.0236 -0.5968
 1036SOL    HW114037   9.031   9.161   2.606  0.7167  0.0630 -1.2144
 1036SOL    HW214038   9.021   9.011   2.669 -0.5476  0.6111 -0.0602
 1037SOL     OW14039   8.007   3.929   4.498 -0.8876  0.0800  0.2449
 1037SOL    HW114040   8.073   3.960   4.430 -0.1367  2.1292  1.8296
 1037SOL    HW214041   7.943   3.865   4.457 -0.4634  1.2924 -2.3783
 1038SOL     OW14042   9.754   0.505   2.902  0.7951 -0.0199  0.7263
 1038SOL    HW114043   9.678   0.493   2.965  1.6879 -0.4461  1.7404
 1038SOL    HW214044   9.785   0.600   2.903  0.2056  0.1776  0.2271
 1039SOL     OW14045   2.849   0.949   0.573 -0.3173 -0.2918  0.3082
 1039SOL    HW114046   2.763   0.998   0.557 -1.3303 -1.9787  0.4041
 1039SOL    HW214047   2.915   1.011   0.615 -1.8444  0.7721  1.2147
 1040SOL     OW14048   3.391   6.488   3.799  0.6828 -0.4184  0.0144
 1040SOL    HW114049   3.328   6.560   3.768 -0.6145 -1.0688  1.0905
 1040SOL    HW214050   3.360   6.452   3.887  0.4438 -3.3266 -1.1901
 1041SOL     OW14051   3.482   1.362   0.839  0.0479  0.3080 -0.5410
 1041SOL    HW114052   3.553   1.432   0.833 -1.0945  1.5294  0.0356
 1041SOL    HW214053   3.481   1.323   0.931  0.0357  0.2130 -0.5807
 1042SOL     OW14054   3.064   2.866   0.334  0.6908  0.4397 -0.4147
 1042SOL    HW114055   3.117   2.943   0.371 -0.4871  0.5497  1.1044
 1042SOL    HW214056   2.988   2.846   0.396  1.0193 -1.9961 -0.7716
 1043SOL     OW14057   3.777   0.440   5.420  0.6741 -0.2899 -0.0473
 1043SOL    HW114058   3.818   0.352   5.395  0.4005 -1.0357  2.0708
 1043SOL    HW214059   3.849   0.502   5.451  0.4559 -1.0195  1.9960
 1044SOL     OW14060   8.918   2.155   2.304 -0.1489 -0.3949 -0.2236
 1044SOL    HW114061   8.887   2.249   2.290  0.0709 -0.4256 -0.9033
 1044SOL    HW214062   8.857   2.092   2.255 -1.5680 -0.7730  1.9346
 1045SOL     OW14063   2.806   1.282   0.780  0.0306  0.1718  0.6507
 1045SOL    HW114064   2.727   1.337   0.752 -0.4289 -0.9306 -0.2865
 1045SOL    HW214065   2.799   1.260   0.877 -0.4890  0.6048  0.7133
 1046SOL     OW14066   3.707   0.036   2.043  0.4552  0.5049 -0.4206
 1046SOL    HW114067   3.742   0.101   2.111  0.0534 -0.0924  0.3717
 1046SOL    HW214068   3.625  -0.008   2.079  0.7266 -0.4445 -0.9501
 1047SOL     OW14069   8.618   2.415   4.610 -0.3922  0.1385 -0.3488
 1047SOL    HW114070   8.641   2.420   4.707  0.3967  1.5879 -0.5832
 1047SOL    HW214071   8.593   2.322   4.586 -0.6321 -0.2258  1.2558
 1048SOL     OW14072   1.080   1.765   4.164 -0.1279  0.0248  0.2130
 1048SOL    HW114073   0.986   1.772   4.196 -0.6804  0.0467 -1.4032
 1048SOL    HW214074   1.142   1.788   4.239 -1.4081  0.4568  1.1557
 1049SOL     OW14075   0.103   9.373   1.334  0.0548 -0.6159 -0.3589
 1049SOL    HW114076   0.082   9.358   1.238 -1.6109 -0.8294  0.0286
 1049SOL    HW214077   0.169   9.304   1.365 -0.0401 -1.0525 -1.1240
 1050SOL     OW14078   0.477   0.834   3.088  0.3568  0.6565  0.1181
 1050SOL    HW114079   0.403   0.860   3.149  1.1888 -0.2061  1.5398
 1050SOL    HW214080   0.563   0.874   3.121  0.6401  1.0584 -1.0975
 1051SOL     OW14081   2.974   8.777   4.060 -0.3609 -0.3309  0.0852
 1051SOL    HW114082   2.965   8.876   4.045 -1.4882 -0.3955  0.2456
 1051SOL    HW214083   3.004   8.761   4.154  1.0006 -0.1058 -0.3080
 1052SOL     OW14084   2.841   5.157   1.087  0.0476 -0.2355  0.1492
 1052SOL    HW114085   2.770   5.226   1.073  0.2307 -0.0936 -0.0679
 1052SOL    HW214086   2.857   5.146   1.185  0.4384  0.4528  0.1645
 1053SOL     OW14087   9.187   6.999   3.810 -0.4280  0.2658 -0.3427
 1053SOL    HW114088   9.116   6.966   3.872 -0.2384 -2.0704 -1.2868
 1053SOL    HW214089   9.157   7.083   3.765 -2.4197 -0.4514 -0.4038
 1054SOL     OW14090   4.127   7.754   0.998 -0.0791 -0.1112 -0.1785
 1054SOL    HW114091   4.153   7.667   0.956 -1.5075  0.5700 -2.5390
 1054SOL    HW214092   4.089   7.736   1.089  1.8250 -1.7281  0.3336
 1055SOL     OW14093   4.345   2.857   4.475 -0.4085  0.4219 -0.5663
 1055SOL    HW114094   4.275   2.817   4.534 -0.8667 -1.5261 -2.3598
 1055SOL    HW214095   4.417   2.897   4.531 -0.9106 -1.2351  1.3156
 1056SOL     OW14096   4.013   6.608   3.579  0.3563  0.4866  0.0658
 1056SOL    HW114097   4.100   6.579   3.538  0.3526  0.3645  0.1429
 1056SOL    HW214098   3.951   6.530   3.583  0.0465  0.7061 -0.4896
 1057SOL     OW14099   0.891   1.324   2.229 -0.3441  0.0579 -0.4330
 1057SOL    HW114100   0.911   1.420   2.249  0.9016  0.2981 -2.7050
 1057SOL    HW214101   0.827   1.318   2.153  1.4080 -0.9229 -1.8665
 1058SOL     OW14102   1.105   4.423   1.843 -0.2704 -0.3950  0.0469
 1058SOL    HW114103   1.143   4.346   1.791 -0.8854 -0.5036 -0.2423
 1058SOL    HW214104   1.121   4.407   1.941 -0.4359 -0.9171 -0.0067
 1059SOL     OW14105   0.192   7.114   2.723  0.7016  0.2086 -0.0842
 1059SOL    HW114106   0.169   7.049   2.795 -0.1957  1.1836  0.5326
 1059SOL    HW214107   0.220   7.065   2.641  1.7853 -0.9191  0.9431
 1060SOL     OW14108   0.519   7.010   5.484 -0.2631 -0.0179 -0.3179
 1060SOL    HW114109   0.513   6.938   5.554  0.6380  1.7149  1.6184
 1060SOL    HW214110   0.596   6.991   5.424  1.2464  0.3938  1.4583
 1061SOL     OW14111   0.946   8.521   3.746 -0.2987  0.2625 -0.2258
 1061SOL    HW114112   1.008   8.443   3.745 -0.4515  0.1306  0.8160
 1061SOL    HW214113   0.994   8.602   3.710 -0.1134 -0.2781 -1.2050
 1062SOL     OW14114   3.544   5.224   1.168  0.1441  0.3647 -0.8075
 1062SOL    HW114115   3.505   5.139   1.132 -0.7974  0.2759  0.3751
 1062SOL    HW214116   3.481   5.299   1.151  0.8975  0.8004 -1.6940
 1063SOL     OW14117   0.707   2.182   1.740 -0.2881  0.1985  0.4308
 1063SOL    HW114118   0.663   2.251   1.683 -1.0160 -0.4146  0.2497
 1063SOL    HW214119   0.724   2.219   1.831  0.7845  1.1474 -0.1422
 1064SOL     OW14120   9.618   7.703   2.851  0.1395 -0.5255 -0.3132
 1064SOL    HW114121   9.669   7.626   2.814 -0.1210 -0.0805 -1.6182
 1064SOL    HW214122   9.680   7.778   2.872  0.0702 -0.1140 -1.5651
 1065SOL     OW14123   4.076   4.370   5.243  0.6589  0.4692  0.0135
 1065SOL    HW114124   4.080   4.271   5.227  0.8173  0.1598  1.8240
 1065SOL    HW214125   3.982   4.402   5.234  0.3561 -0.1357  0.9644
 1066SOL     OW14126   2.900   8.252   0.890 -0.0906 -0.1880  0.3694
 1066SOL    HW114127   2.840   8.281   0.965 -1.4539 -1.4404 -0.2112
 1066SOL    HW214128   2.994   8.244   0.924 -0.1269  2.2649  1.1674
 1067SOL     OW14129   9.601   0.976   1.887 -0.0544 -0.4333  0.5775
 1067SOL    HW114130   9.631   1.070   1.869 -0.7372 -0.6103 -1.6272
 1067SOL    HW214131   9.503   0.968   1.870  0.0398 -1.6185  0.5263
 1068SOL     OW14132   7.231   5.230   4.781  0.5807  0.6203  0.1566
 1068SOL    HW114133   7.234   5.268   4.689 -2.7960 -1.9161 -1.1226
 1068SOL    HW214134   7.194   5.298   4.844  0.2480  1.4558 -0.9244
 1069SOL     OW14135   5.250   1.023   0.777  0.5837  0.0779 -0.2260
 1069SOL    HW114136   5.292   1.064   0.696 -2.9859 -0.8719 -2.6596
 1069SOL    HW214137   5.182   1.086   0.815  0.6408 -0.4141  0.7175
 1070SOL     OW14138   9.489   2.605   0.845 -0.6362 -0.5413  0.1663
 1070SOL    HW114139   9.492   2.507   0.863 -1.6624 -0.5491  0.3332
 1070SOL    HW214140   9.510   2.622   0.749  0.4822 -0.8442  0.3503
 1071SOL     OW14141   3.160   1.826   1.560 -1.4464  0.0282  0.3125
 1071SOL    HW114142   3.186   1.758   1.493 -1.4264  0.0890  0.2584
 1071SOL    HW214143   3.242   1.867   1.600 -1.4511  0.8899 -0.5380
 1072SOL     OW14144   7.454   9.192   0.703 -0.0802 -0.3437 -0.5223
 1072SOL    HW114145   7.451   9.291   0.715 -0.1605 -0.0795 -2.4654
 1072SOL    HW214146   7.369   9.152   0.737 -0.6293  0.4198 -0.9778
 1073SOL     OW14147   0.589   3.273   0.486  0.3281  0.1005  0.4221
 1073SOL    HW114148   0.636   3.361   0.493 -0.6216  0.6685 -0.1776
 1073SOL    HW214149   0.495   3.288   0.456  0.3780 -1.1909 -0.4246
 1074SOL     OW14150   7.977   3.995   2.415  0.9895  0.2323  0.0121
 1074SOL    HW114151   7.903   4.037   2.467 -0.0261 -0.2749 -0.9932
 1074SOL    HW214152   8.003   4.054   2.339  0.5736 -0.2600 -0.5239
 1075SOL     OW14153   0.015   9.466   2.726 -0.7492 -0.2097  0.1506
 1075SOL    HW114154  -0.074   9.447   2.768 -0.7890 -0.9354 -0.2682
 1075SOL    HW214155   0.005   9.470   2.627 -0.2804 -0.4490  0.0950
 1076SOL     OW14156   9.435   3.384   3.672 -0.0918 -0.2998 -0.1845
 1076SOL    HW114157   9.469   3.383   3.766  0.9965 -0.9063 -0.5740
 1076SOL    HW214158   9.406   3.292   3.647  2.8861 -0.9143 -1.5880
 1077SOL     OW14159   7.889   6.859   4.131 -0.0732 -0.4253 -0.1066
 1077SOL    HW114160   7.939   6.871   4.046 -0.0722 -1.6379 -0.2907
 1077SOL    HW214161   7.921   6.775   4.177 -1.8427 -1.1570 -0.1681
 1078SOL     OW14162   9.873   1.641   3.579  0.0083  0.5391  0.1010
 1078SOL    HW114163   9.829   1.728   3.558 -0.9545  0.6896  2.6191
 1078SOL    HW214164   9.940   1.654   3.652 -0.0162 -0.8014  0.3733
 1079SOL     OW14165   0.033   9.395   4.059 -0.4434  0.2093  0.1034
 1079SOL    HW114166  -0.040   9.462   4.072  0.3294  1.0414  0.1452
 1079SOL    HW214167   0.116   9.425   4.105 -0.2501 -1.0581  0.6121
 1080SOL     OW14168   0.193   8.595   2.800  0.7894 -0.4411  0.4225
 1080SOL    HW114169   0.259   8.583   2.874  1.5969  1.6274  0.0852
 1080SOL    HW214170   0.237   8.643   2.724 -1.5101  2.5724  0.8966
 1081SOL     OW14171   7.696   0.036   2.286 -0.0701 -0.1392  0.0208
 1081SOL    HW114172   7.626   0.103   2.262 -0.9879 -0.3694  2.0406
 1081SOL    HW214173   7.732   0.056   2.377  0.5948 -1.6114  0.0972
 1082SOL     OW14174   8.436   0.039   5.022 -0.2246 -0.1148  0.1572
 1082SOL    HW114175   8.364   0.071   5.084 -0.8382 -0.7985 -0.1907
 1082SOL    HW214176   8.444  -0.061   5.029  1.2828  0.0359  0.8130
 1083SOL     OW14177   3.158   2.347   1.964  0.3313  0.0229  0.4399
 1083SOL    HW114178   3.175   2.366   1.867  1.0646 -0.2549  0.5113
 1083SOL    HW214179   3.139   2.432   2.012 -0.0852  0.1582  0.0430
 1084SOL     OW14180   2.327   9.368   0.899  0.1284 -0.1660  0.5402
 1084SOL    HW114181   2.320   9.465   0.875  0.1365 -0.6662 -1.5900
 1084SOL    HW214182   2.423   9.341   0.901  0.1513 -0.0356  1.5993
 1085SOL     OW14183   0.310   1.045   0.384  0.2780 -0.1233  0.4380
 1085SOL    HW114184   0.257   0.963   0.407 -1.2604  0.7947  0.1580
 1085SOL    HW214185   0.372   1.023   0.308  0.8284 -1.3828  1.2194
 1086SOL     OW14186   4.597   1.374   4.472  0.2090 -0.3076 -0.2096
 1086SOL    HW114187   4.691   1.405   4.459  0.7223 -1.7137  0.0982
 1086SOL    HW214188   4.557   1.422   4.551  0.9922 -0.4168  0.2560
 1087SOL     OW14189   2.288   1.720   4.032  0.0257  0.3465 -0.6198
 1087SOL    HW114190   2.337   1.742   3.947  0.3762  1.0739 -0.2359
 1087SOL    HW214191   2.194   1.752   4.025 -0.4411 -1.1609 -1.4064
 1088SOL     OW14192   8.992   9.930   2.361  0.2547  0.9992  0.0326
 1088SOL    HW114193   9.088   9.954   2.374  0.4358  1.9916 -2.7317
 1088SOL    HW214194   8.984   9.863   2.287 -1.0554 -0.4757  1.4651
 1089SOL     OW14195   9.412   9.332   1.906 -0.4842 -0.1694 -0.4987
 1089SOL    HW114196   9.449   9.246   1.872  1.9646  0.3389  0.7670
 1089SOL    HW214197   9.483   9.402   1.905 -1.4562  0.9005  1.8034
 1090SOL     OW14198   2.992   2.209   3.148 -0.0341  0.1901  0.0748
 1090SOL    HW114199   2.970   2.262   3.065 -0.7727 -2.1981 -1.2897
 1090SOL    HW214200   3.074   2.154   3.132 -1.9792 -2.7124 -0.2135
 1091SOL     OW14201   9.153   2.942   0.060  0.1603  0.2986  0.3335
 1091SOL    HW114202   9.220   2.905   0.125 -0.8881 -0.7313  0.8436
 1091SOL    HW214203   9.111   2.867   0.008 -3.2280  0.5240  2.5742
 1092SOL     OW14204   7.216   6.862   4.121  0.1009 -0.9430 -0.5400
 1092SOL    HW114205   7.128   6.863   4.168  0.6043  2.1229  0.4637
 1092SOL    HW214206   7.202   6.879   4.023 -0.4298 -0.3988 -0.3717
 1093SOL     OW14207   9.038   9.868   3.594 -0.4214 -0.1062  0.2535
 1093SOL    HW114208   8.952   9.852   3.642 -0.7987  1.4559  0.1330
 1093SOL    HW214209   9.074   9.959   3.618  1.1516 -0.7009  0.2433
 1094SOL     OW14210   0.192   3.087   1.975 -0.4619 -0.4382 -0.0714
 1094SOL    HW114211   0.156   3.176   2.000 -0.2890 -0.0638 -1.1415
 1094SOL    HW214212   0.119   3.019   1.980  0.0126 -0.7965  3.4740
 1095SOL     OW14213   8.273   8.218   2.052  0.4325 -0.4645 -0.4124
 1095SOL    HW114214   8.318   8.242   2.138 -2.5625  0.0146  1.0772
 1095SOL    HW214215   8.281   8.294   1.988  2.1258 -0.5703 -0.3317
 1096SOL     OW14216   0.528   9.611   2.389  0.1113 -0.0968  0.2268
 1096SOL    HW114217   0.614   9.576   2.426  0.2558  0.2826  0.2429
 1096SOL    HW214218   0.479   9.536   2.345 -0.5565 -0.7767  2.0943
 1097SOL     OW14219   9.585   6.697   4.319  0.3201 -0.4684  0.0889
 1097SOL    HW114220   9.632   6.748   4.391 -2.9561  0.9557  1.3267
 1097SOL    HW214221   9.601   6.742   4.231 -1.4325  1.9896  0.9787
 1098SOL     OW14222   3.560   2.030   4.183  0.3015  0.5586  0.2137
 1098SOL    HW114223   3.468   2.053   4.149  0.0112 -0.8437  0.0312
 1098SOL    HW214224   3.556   2.015   4.281  0.3914  0.7814  0.2516
 1099SOL     OW14225   0.604   5.157   1.807  0.0172  0.1607 -0.5865
 1099SOL    HW114226   0.622   5.244   1.853  0.7992  0.8157 -2.0978
 1099SOL    HW214227   0.602   5.084   1.874  1.1687  1.0973  0.4943
 1100SOL     OW14228   7.726   8.674   3.277  0.5120 -0.2706  0.0143
 1100SOL    HW114229   7.763   8.585   3.249  0.9657 -0.1929  0.3583
 1100SOL    HW214230   7.784   8.713   3.349  1.1304  0.9409 -1.1024
 1101SOL     OW14231   4.591   1.699   0.803 -0.0033 -0.2449  0.6004
 1101SOL    HW114232   4.510   1.757   0.807 -1.6276 -2.3620 -0.4339
 1101SOL    HW214233   4.567   1.606   0.832  2.0397 -0.9046  0.2764
 1102SOL     OW14234   1.840   3.336   3.026 -0.3963  0.1714 -0.1110
 1102SOL    HW114235   1.798   3.260   2.977  2.6610 -0.1745 -2.3538
 1102SOL    HW214236   1.898   3.301   3.100  1.4735  0.2035 -1.5087
 1103SOL     OW14237   4.082   9.630   4.546 -0.0951  0.1274  0.5072
 1103SOL    HW114238   4.032   9.699   4.493 -0.7028 -0.4492  0.3234
 1103SOL    HW214239   4.149   9.676   4.604 -0.5721  0.8906  0.4743
 1104SOL     OW14240   5.981   8.360   2.049 -0.0224 -0.3386 -0.6765
 1104SOL    HW114241   5.970   8.409   2.136 -1.2958 -0.7619 -0.5947
 1104SOL    HW214242   6.008   8.266   2.067 -0.5748 -0.5089 -0.7199
 1105SOL     OW14243   2.600   5.738   4.761 -0.3227 -0.5933  0.0567
 1105SOL    HW114244   2.583   5.652   4.809  0.7263 -0.2041  1.1209
 1105SOL    HW214245   2.683   5.780   4.795 -0.7715  0.8063 -0.5423
 1106SOL     OW14246   4.457   7.484   3.096 -0.5388 -0.0578 -0.2005
 1106SOL    HW114247   4.410   7.432   3.168  0.8206 -0.6026  0.3135
 1106SOL    HW214248   4.535   7.532   3.135  0.3108 -0.4893 -1.3387
 1107SOL     OW14249   0.704   3.024   3.119 -0.0254 -0.2164 -0.3821
 1107SOL    HW114250   0.647   3.058   3.193  0.4139 -0.5736  0.1241
 1107SOL    HW214251   0.779   3.089   3.102 -0.6485  0.3156 -1.1326
 1108SOL     OW14252   1.736   1.672   0.853 -0.7054 -0.0280  0.0381
 1108SOL    HW114253   1.826   1.657   0.895 -1.6600 -0.1638  2.0594
 1108SOL    HW214254   1.693   1.583   0.835 -0.6831  0.0517 -0.4205
 1109SOL     OW14255   8.069   1.392   4.933 -0.7334  0.0346  0.1196
 1109SOL    HW114256   8.014   1.347   5.004 -0.2905  1.6369  1.5321
 1109SOL    HW214257   8.162   1.408   4.968 -0.2044 -0.0954 -1.2059
 1110SOL     OW14258   8.747   1.095   4.420  0.5453  0.0485  0.0314
 1110SOL    HW114259   8.679   1.119   4.490 -0.6338  0.5204 -1.2465
 1110SOL    HW214260   8.835   1.078   4.463 -0.0709  0.7406  1.5843
 1111SOL     OW14261   4.188   1.390   4.494 -0.0264  0.5524  0.0028
 1111SOL    HW114262   4.221   1.361   4.583  1.6165  0.5248 -0.6043
 1111SOL    HW214263   4.097   1.431   4.504 -0.7943 -1.4246  1.3702
 1112SOL     OW14264   3.626   1.207   4.807  0.3793  0.1180  0.4856
 1112SOL    HW114265   3.717   1.207   4.848  0.9552  1.2281 -0.7789
 1112SOL    HW214266   3.612   1.291   4.755 -0.7674 -0.7658 -0.6669
 1113SOL     OW14267   4.517   9.250   1.289 -0.3214 -0.1737 -0.0403
 1113SOL    HW114268   4.507   9.151   1.302  0.4510 -0.0401  1.7728
 1113SOL    HW214269   4.613   9.275   1.301 -0.5218  0.8104 -0.4494
 1114SOL     OW14270   2.261   7.607   0.389  0.0591  0.1346  0.7374
 1114SOL    HW114271   2.280   7.534   0.324 -1.0968  0.4705  0.0090
 1114SOL    HW214272   2.238   7.567   0.478 -0.7555 -0.4085  0.2934
 1115SOL     OW14273   9.406   3.138   2.509 -0.0691 -0.1831  0.2478
 1115SOL    HW114274   9.404   3.169   2.604 -0.1807  0.4337  0.0470
 1115SOL    HW214275   9.343   3.194   2.455 -0.3706 -0.8544 -0.0887
 1116SOL     OW14276   1.847   8.801   0.119 -0.4025  0.0068 -0.8910
 1116SOL    HW114277   1.774   8.819   0.185  0.5105  0.9489 -0.1246
 1116SOL    HW214278   1.880   8.707   0.130 -0.1659  0.2055  0.0763
 1117SOL     OW14279   5.963   0.133   1.240 -0.1815 -0.0079  0.0164
 1117SOL    HW114280   5.892   0.200   1.263 -1.2405 -1.4853  1.1908
 1117SOL    HW214281   6.036   0.137   1.308  0.4233  0.8782 -0.6766
 1118SOL     OW14282   1.837   9.717   5.296 -0.1268 -0.3195  0.9572
 1118SOL    HW114283   1.887   9.630   5.291  0.0150 -0.1900 -0.0804
 1118SOL    HW214284   1.891   9.784   5.346  1.1698  0.0996 -0.9662
 1119SOL     OW14285   4.772   2.858   2.532 -0.0645  0.5454 -0.5136
 1119SOL    HW114286   4.740   2.948   2.561  2.4622  0.7960  1.7241
 1119SOL    HW214287   4.839   2.868   2.459  1.1661  0.6006  0.6023
 1120SOL     OW14288   2.194   7.306   2.130 -0.1710  0.0490  0.2386
 1120SOL    HW114289   2.234   7.338   2.216 -0.9541 -0.1839  0.6925
 1120SOL    HW214290   2.095   7.297   2.140 -0.4370  1.3009 -1.0894
 1121SOL     OW14291   8.984   2.922   3.212  0.5178 -0.3271 -0.1704
 1121SOL    HW114292   8.919   2.846   3.204  0.8575 -0.5633 -0.7836
 1121SOL    HW214293   8.938   3.008   3.192  0.5530 -0.5692 -1.3444
 1122SOL     OW14294   9.527   8.827   2.088 -0.3507 -0.7017 -0.4444
 1122SOL    HW114295   9.540   8.735   2.126 -0.1461 -1.4642 -2.3069
 1122SOL    HW214296   9.616   8.867   2.067 -0.5475 -1.2636 -2.3757
 1123SOL     OW14297   2.721   5.831   1.088  0.6432  0.2113  0.6719
 1123SOL    HW114298   2.658   5.906   1.108 -0.5658 -0.8298  0.8236
 1123SOL    HW214299   2.670   5.755   1.047  1.8791 -0.4589  0.3700
 1124SOL     OW14300   3.081   6.749   4.305 -0.7765 -0.0061 -0.0011
 1124SOL    HW114301   2.996   6.742   4.253  0.1237 -1.3725 -1.3521
 1124SOL    HW214302   3.112   6.844   4.307 -1.4778  0.2469 -0.9295
 1125SOL     OW14303   8.525   0.563   0.785  0.3518 -0.1936  0.2763
 1125SOL    HW114304   8.508   0.661   0.791  1.5146 -0.0569  1.3904
 1125SOL    HW214305   8.470   0.525   0.711 -0.2134  1.2704 -0.0773
 1126SOL     OW14306   2.510   4.182   3.374  0.6207  0.2520  0.0660
 1126SOL    HW114307   2.415   4.174   3.343  0.4764 -0.1163  0.5933
 1126SOL    HW214308   2.571   4.188   3.294  0.0414  1.9155 -0.2673
 1127SOL     OW14309   7.903   8.368   4.236  0.0908  0.4057  0.4693
 1127SOL    HW114310   7.825   8.376   4.298 -1.6519 -0.2180 -1.5649
 1127SOL    HW214311   7.963   8.447   4.247 -0.4903  0.5753  2.5284
 1128SOL     OW14312   6.176   9.434   4.525 -0.2278  0.0642  0.7361
 1128SOL    HW114313   6.093   9.483   4.501 -0.7288 -0.1316  2.0241
 1128SOL    HW214314   6.247   9.499   4.551 -0.9093  0.1256  2.4953
 1129SOL     OW14315   9.039   5.282   1.384  0.2983 -0.3968  0.0519
 1129SOL    HW114316   9.024   5.185   1.401  0.5280 -0.3737  0.3996
 1129SOL    HW214317   8.959   5.334   1.414  0.6726 -0.3626  1.0436
 1130SOL     OW14318   4.422   6.431   2.252 -0.2112 -0.2149  0.2214
 1130SOL    HW114319   4.336   6.471   2.284 -1.7381 -2.8118 -0.4943
 1130SOL    HW214320   4.440   6.461   2.158  0.3299  1.3150  0.7978
 1131SOL     OW14321   4.309   4.299   0.813  0.3579  0.3264 -0.2374
 1131SOL    HW114322   4.396   4.348   0.813 -1.0227  2.8781 -0.1255
 1131SOL    HW214323   4.287   4.269   0.720 -0.1416  2.4797 -0.8355
 1132SOL     OW14324   1.815   5.017   0.086 -0.1602 -0.6632 -0.2625
 1132SOL    HW114325   1.880   5.091   0.103 -0.0956 -0.9259  0.6835
 1132SOL    HW214326   1.817   4.953   0.163 -2.2105 -0.1612  0.2558
 1133SOL     OW14327   1.177   1.721   3.727  0.9163  0.4260  0.0394
 1133SOL    HW114328   1.265   1.725   3.681  0.1256 -1.7727 -1.7996
 1133SOL    HW214329   1.189   1.683   3.819  2.1414  2.2118  0.6393
 1134SOL     OW14330   3.912   6.211   2.467 -0.2056  0.2792  0.4518
 1134SOL    HW114331   3.877   6.191   2.559 -1.9576  2.7781  0.4031
 1134SOL    HW214332   4.004   6.250   2.475  0.2277 -0.8208  1.0215
 1135SOL     OW14333   1.772   8.892   1.968  0.4047 -0.1368  0.6120
 1135SOL    HW114334   1.723   8.875   1.882  2.1762  1.2119 -0.7086
 1135SOL    HW214335   1.714   8.943   2.030 -0.2569  0.4901 -0.5047
 1136SOL     OW14336   9.236   3.282   2.343 -1.3524  0.2204 -0.0818
 1136SOL    HW114337   9.261   3.262   2.248 -2.0157  0.8343 -0.3893
 1136SOL    HW214338   9.187   3.369   2.347 -0.6526  0.5723  0.9292
 1137SOL     OW14339   9.632   3.281   3.076 -0.2940  0.8673 -0.2778
 1137SOL    HW114340   9.641   3.194   3.123 -2.1446 -0.2457 -1.9158
 1137SOL    HW214341   9.713   3.296   3.019 -0.4068 -0.2615 -0.7473
 1138SOL     OW14342   3.867   1.900   0.721 -0.1422  0.0196  0.1557
 1138SOL    HW114343   3.867   1.913   0.820 -0.1140 -2.4656  0.5260
 1138SOL    HW214344   3.815   1.974   0.677  1.3821  2.1491  1.8474
 1139SOL     OW14345   3.096   0.347   2.336  0.5576 -0.6348  0.4300
 1139SOL    HW114346   3.136   0.414   2.273  1.3950  0.2118  1.8417
 1139SOL    HW214347   2.998   0.340   2.319  0.8589 -0.8174 -1.3291
 1140SOL     OW14348   4.570   0.942   2.345 -0.1084  0.2783  0.5235
 1140SOL    HW114349   4.629   1.007   2.392 -1.0855  1.0872  0.6371
 1140SOL    HW214350   4.605   0.925   2.253 -0.0230  1.1872  0.3908
 1141SOL     OW14351   2.423   3.051   2.943  0.3440 -0.4162  0.0477
 1141SOL    HW114352   2.500   3.045   2.880 -0.0044 -0.4547 -0.3819
 1141SOL    HW214353   2.455   3.041   3.037  0.8159 -0.7722 -0.1496
 1142SOL     OW14354   3.632   9.756   0.077 -1.0769 -0.7438  0.1657
 1142SOL    HW114355   3.606   9.823   0.008  1.8581  0.1905 -0.0893
 1142SOL    HW214356   3.585   9.776   0.163 -0.7590  1.2220 -0.1040
 1143SOL     OW14357   4.510   6.639   4.115 -0.5535 -0.0554  0.0410
 1143SOL    HW114358   4.441   6.700   4.076 -0.6215 -0.4438 -0.4493
 1143SOL    HW214359   4.467   6.555   4.147 -0.3169 -0.2957 -0.2576
 1144SOL     OW14360   0.101   8.443   2.009  0.1680 -0.5303 -0.4509
 1144SOL    HW114361   0.014   8.440   2.058  0.6911  2.2648  0.7421
 1144SOL    HW214362   0.084   8.447   1.911 -1.0931  0.6914 -0.1992
 1145SOL     OW14363   1.310   5.573   3.150  0.3615  0.1652  0.3478
 1145SOL    HW114364   1.321   5.508   3.225  1.4702 -0.9186 -0.7227
 1145SOL    HW214365   1.368   5.545   3.073  1.1453  2.6552  0.0125
 1146SOL     OW14366   9.891   4.114   0.361  0.1451 -0.0111 -0.2520
 1146SOL    HW114367   9.808   4.168   0.348  1.3302  1.4250 -2.2821
 1146SOL    HW214368   9.966   4.174   0.388  1.3255 -0.7259 -1.8587
 1147SOL     OW14369   0.739   5.411   0.905 -0.6213 -0.1663  0.8054
 1147SOL    HW114370   0.802   5.335   0.924 -1.1222 -0.6896  0.4285
 1147SOL    HW214371   0.703   5.446   0.991  0.6506  0.5427  1.0567
 1148SOL     OW14372   5.365   4.156   0.265  0.1038 -0.2386 -0.0399
 1148SOL    HW114373   5.438   4.218   0.294 -0.6919  0.5669  0.3009
 1148SOL    HW214374   5.276   4.199   0.285 -0.4903 -2.2866  1.9889
 1149SOL     OW14375   9.578   0.505   4.927 -0.0196 -0.1458 -0.5266
 1149SOL    HW114376   9.631   0.430   4.887  0.6761  0.6896 -1.2104
 1149SOL    HW214377   9.620   0.534   5.013 -1.3451 -1.7471  0.6846
 1150SOL     OW14378   9.314   8.989   0.252  0.4177  0.6181  0.0905
 1150SOL    HW114379   9.270   8.900   0.263  0.3458  0.4236 -1.7441
 1150SOL    HW214380   9.245   9.059   0.233  0.5196  1.0027  1.0900
 1151SOL     OW14381   4.694   9.289   4.055 -0.1221 -0.1899 -0.4463
 1151SOL    HW114382   4.706   9.343   4.138 -0.7512 -0.8128  0.0528
 1151SOL    HW214383   4.695   9.349   3.975  0.3012  0.4305  0.0241
 1152SOL     OW14384   2.816   3.238   1.101 -0.5457 -0.1043 -0.2304
 1152SOL    HW114385   2.753   3.315   1.094 -0.6617  0.0173  1.7573
 1152SOL    HW214386   2.832   3.216   1.197  1.4369 -0.9735 -0.7149
 1153SOL     OW14387   8.021   6.524   2.449 -0.3105  0.0904  0.1230
 1153SOL    HW114388   7.979   6.581   2.378  0.3110  0.0291 -0.3067
 1153SOL    HW214389   8.057   6.582   2.522 -0.5835  0.1817  0.1833
 1154SOL     OW14390   7.335   0.219   1.507 -0.6117  0.7054 -0.3189
 1154SOL    HW114391   7.317   0.182   1.416 -0.7504 -0.3183  0.1222
 1154SOL    HW214392   7.275   0.175   1.574  0.0878  0.8301  0.3990
 1155SOL     OW14393   4.444   1.466   4.683 -0.1738 -0.5686 -0.2009
 1155SOL    HW114394   4.476   1.511   4.766  1.3629  0.1284 -1.1514
 1155SOL    HW214395   4.397   1.381   4.707 -0.8675  0.2792  1.4469
 1156SOL     OW14396   4.936   3.183   2.615  0.6233  0.1324 -0.4110
 1156SOL    HW114397   4.856   3.130   2.642  0.1225  0.8170 -0.5395
 1156SOL    HW214398   5.008   3.121   2.583  0.4425 -0.5383  0.4549
 1157SOL     OW14399   3.395   3.866   5.256 -0.1231  0.2712 -0.1431
 1157SOL    HW114400   3.462   3.803   5.295 -0.0539  1.4405  1.7013
 1157SOL    HW214401   3.443   3.939   5.205 -0.0511  0.3995  0.1062
 1158SOL     OW14402   3.579   3.276   5.549  0.2820 -0.1786 -0.1004
 1158SOL    HW114403   3.525   3.229   5.619 -0.5290 -0.8637 -1.1709
 1158SOL    HW214404   3.547   3.371   5.541 -0.1486 -0.3228 -0.0931
 1159SOL     OW14405   9.884   1.384   3.745  0.3510 -0.4076  0.0144
 1159SOL    HW114406   9.870   1.461   3.684 -1.2156  0.1775  1.1063
 1159SOL    HW214407   9.969   1.396   3.795  0.4590  0.2485 -0.3274
 1160SOL     OW14408   3.750   7.161   3.875  0.6072 -0.6568 -0.1353
 1160SOL    HW114409   3.742   7.120   3.966 -1.6826 -1.9891 -0.9138
 1160SOL    HW214410   3.693   7.243   3.869  0.2559 -0.9345 -0.5876
 1161SOL     OW14411   3.401   2.441   4.873 -0.7286 -0.5926  0.6047
 1161SOL    HW114412   3.370   2.386   4.795 -1.1290 -0.5743  0.7503
 1161SOL    HW214413   3.430   2.531   4.841  0.8375 -1.2107  0.2371
 1162SOL     OW14414   8.704   4.145   0.619 -0.3869  0.4082  0.8179
 1162SOL    HW114415   8.717   4.230   0.566  0.0611 -0.0287  0.2101
 1162SOL    HW214416   8.737   4.159   0.712  1.7370  0.2608  0.1311
 1163SOL     OW14417   0.612   8.325   0.426 -0.0528 -0.0243  0.2391
 1163SOL    HW114418   0.585   8.345   0.520 -0.2742  2.2652 -0.2783
 1163SOL    HW214419   0.698   8.370   0.405 -0.6923  0.6195 -1.0732
 1164SOL     OW14420   9.429   7.641   3.025  0.2104  0.6007  0.4098
 1164SOL    HW114421   9.509   7.668   2.971 -0.4512  1.2999 -0.2240
 1164SOL    HW214422   9.394   7.720   3.075 -1.5779  0.9042 -1.2570
 1165SOL     OW14423   7.574   1.020   2.129  0.0527 -0.4514 -0.2430
 1165SOL    HW114424   7.579   1.115   2.159 -1.3530 -0.4643  0.0533
 1165SOL    HW214425   7.627   0.962   2.191  1.2798  0.1931 -0.6789
 1166SOL     OW14426   2.227   1.469   3.774  0.3197  0.3778 -0.7521
 1166SOL    HW114427   2.309   1.525   3.769  0.9935 -0.4789  0.6998
 1166SOL    HW214428   2.244   1.388   3.831 -1.1634 -0.4147 -1.3940
 1167SOL     OW14429   9.202   3.488   3.957 -0.4643 -0.1439 -0.0440
 1167SOL    HW114430   9.142   3.566   3.941 -0.6914 -0.3419 -0.1643
 1167SOL    HW214431   9.148   3.405   3.964 -0.1535 -0.4134 -0.7845
 1168SOL     OW14432   2.625   9.476   1.240  0.0998  0.2677 -0.3778
 1168SOL    HW114433   2.622   9.571   1.209 -0.5625  0.3268 -0.1459
 1168SOL    HW214434   2.720   9.444   1.241  0.5438  1.5971  1.5764
 1169SOL     OW14435   2.873   1.051   4.696 -0.0701  0.3400 -0.0410
 1169SOL    HW114436   2.934   1.130   4.704  0.6862 -0.4749  2.8565
 1169SOL    HW214437   2.911   0.974   4.749 -2.0652 -1.1532 -0.7214
 1170SOL     OW14438   7.778   0.991   0.305  0.1465  0.1164 -0.5471
 1170SOL    HW114439   7.699   0.932   0.291  0.3361 -0.2433 -0.1334
 1170SOL    HW214440   7.756   1.084   0.278 -0.6571  0.1714  0.2628
 1171SOL     OW14441   2.715   0.769   2.496 -0.4339  0.6238  0.4384
 1171SOL    HW114442   2.655   0.700   2.536 -1.2070  1.5423  0.8908
 1171SOL    HW214443   2.760   0.820   2.570  1.9189 -0.9118  0.1156
 1172SOL     OW14444   1.140   2.903   3.296 -0.0760 -1.0140  0.2591
 1172SOL    HW114445   1.056   2.921   3.245  0.5697 -1.1016 -0.8585
 1172SOL    HW214446   1.162   2.983   3.352  0.7465  0.2666 -1.8159
 1173SOL     OW14447   8.544   5.878   1.183  0.2715  0.2410 -0.0758
 1173SOL    HW114448   8.467   5.820   1.156  0.6719 -0.6052  0.5791
 1173SOL    HW214449   8.509   5.966   1.216 -0.3763  0.1055 -0.3856
 1174SOL     OW14450   7.496   2.577   3.174  0.2293 -0.4568 -0.0023
 1174SOL    HW114451   7.410   2.547   3.134  1.3723 -0.7576 -2.3134
 1174SOL    HW214452   7.562   2.501   3.174  0.9442  0.1502  0.4353
 1175SOL     OW14453   2.868   5.660   3.337 -0.3268  0.0761 -0.0807
 1175SOL    HW114454   2.873   5.574   3.388 -0.3661 -0.7497 -1.4624
 1175SOL    HW214455   2.957   5.707   3.342 -0.6755  0.5748  1.7240
 1176SOL     OW14456   5.749   8.092   2.972  0.0736 -0.4082  0.0242
 1176SOL    HW114457   5.835   8.111   2.924  0.6817 -0.9659  0.8764
 1176SOL    HW214458   5.708   8.008   2.937 -0.4423  0.1808 -0.8044
 1177SOL     OW14459   4.549   8.931   4.999 -0.1525  0.1810 -0.2685
 1177SOL    HW114460   4.550   8.997   5.074 -0.1182  1.1765 -1.1320
 1177SOL    HW214461   4.530   8.840   5.035 -1.4177  0.8413  0.7919
 1178SOL     OW14462   0.351   2.005   4.982 -0.1922  0.5443 -0.3002
 1178SOL    HW114463   0.441   1.976   5.016 -1.1455 -1.5769  0.5449
 1178SOL    HW214464   0.301   2.052   5.054  0.0259  1.2019 -0.5826
 1179SOL     OW14465   0.905   4.594   5.077  0.6212  0.2311 -0.2117
 1179SOL    HW114466   0.945   4.563   4.991  0.6083  3.0314 -1.2778
 1179SOL    HW214467   0.817   4.637   5.060  0.4515  0.4886  1.2544
 1180SOL     OW14468   4.885   2.034   1.899  0.2096  0.1497  0.4877
 1180SOL    HW114469   4.878   2.064   1.994  1.2672  0.0117  0.6180
 1180SOL    HW214470   4.931   1.945   1.895 -1.2217 -0.5878 -0.0366
 1181SOL     OW14471   0.275   9.622   0.248 -0.0499  0.4144  0.1187
 1181SOL    HW114472   0.346   9.604   0.180  0.1233 -1.0081  0.6566
 1181SOL    HW214473   0.194   9.660   0.203  0.8055  1.4152 -0.5847
 1182SOL     OW14474   7.758   9.995   2.646 -0.1331 -0.2028  0.1886
 1182SOL    HW114475   7.773   9.911   2.593  0.7084  0.8217 -1.2239
 1182SOL    HW214476   7.734   9.971   2.740  0.0616 -2.0263 -0.2037
 1183SOL     OW14477   9.976   8.194   5.264  0.1808 -0.1689 -0.5632
 1183SOL    HW114478   9.964   8.216   5.361 -1.2639 -0.6527 -0.6184
 1183SOL    HW214479   9.993   8.278   5.213 -0.3941  0.2546 -0.0681
 1184SOL     OW14480   6.230   0.194   4.100 -0.3308  0.2120 -0.1924
 1184SOL    HW114481   6.274   0.104   4.108 -0.7871  0.0573  0.7010
 1184SOL    HW214482   6.256   0.251   4.178 -0.0618  0.8467 -0.7450
 1185SOL     OW14483   4.777   5.541   1.215 -0.1316 -0.5855  0.1215
 1185SOL    HW114484   4.686   5.522   1.178 -0.3046 -0.4631  0.4746
 1185SOL    HW214485   4.847   5.510   1.151 -0.4086 -2.3065  0.6382
 1186SOL     OW14486   1.394   1.791   2.572  0.2038  0.0018  0.7855
 1186SOL    HW114487   1.446   1.736   2.637  0.5920 -0.1444  0.3507
 1186SOL    HW214488   1.455   1.852   2.522  0.2166 -1.3093 -0.8795
 1187SOL     OW14489   6.904   7.430   3.608 -0.5118 -0.2197 -0.3008
 1187SOL    HW114490   6.944   7.340   3.620 -1.8051 -0.8797 -0.7691
 1187SOL    HW214491   6.804   7.424   3.618 -0.5129  1.3830  0.9779
 1188SOL     OW14492   3.520   1.276   2.044  0.2680 -0.2265 -0.1722
 1188SOL    HW114493   3.579   1.328   1.983 -0.7240 -0.3371 -1.2351
 1188SOL    HW214494   3.466   1.338   2.101  0.9946 -0.1243  0.4174
 1189SOL     OW14495   9.297   9.704   0.287 -0.1299 -0.2002 -0.5797
 1189SOL    HW114496   9.322   9.796   0.316  0.2648 -0.4269 -0.1993
 1189SOL    HW214497   9.338   9.637   0.348  2.0656 -0.7573 -2.5966
 1190SOL     OW14498   1.339   3.228   1.878 -0.7687  0.0435  0.0900
 1190SOL    HW114499   1.332   3.316   1.831 -1.2896  0.1931  0.4572
 1190SOL    HW214500   1.410   3.233   1.948 -0.4225  0.0047 -0.2520
 1191SOL     OW14501   7.367   8.410   2.635  0.0396 -0.3918 -0.2871
 1191SOL    HW114502   7.359   8.509   2.645 -1.2754 -0.4962 -0.2930
 1191SOL    HW214503   7.429   8.375   2.705  0.6217  0.4493 -0.3709
 1192SOL     OW14504   9.482   2.631   1.733  0.0401 -0.5530 -0.1242
 1192SOL    HW114505   9.419   2.694   1.780  0.2941  0.5514 -1.2217
 1192SOL    HW214506   9.576   2.656   1.756  0.1809  0.2531 -1.5050
 1193SOL     OW14507   9.155   9.025   5.534  0.0982  0.5454  0.4164
 1193SOL    HW114508   9.232   9.087   5.519  0.8180 -0.7430 -1.3176
 1193SOL    HW214509   9.189   8.937   5.567 -0.5199 -0.3382 -1.2333
 1194SOL     OW14510   0.963   0.422   4.133 -0.1792  0.2998  0.1474
 1194SOL    HW114511   0.877   0.471   4.123 -0.8901 -1.1976 -1.1485
 1194SOL    HW214512   0.997   0.395   4.043 -0.4327 -2.7027  0.9247
 1195SOL     OW14513   2.931   7.783   4.835  0.2767 -0.0420  0.0363
 1195SOL    HW114514   2.923   7.722   4.914  0.6867 -1.3002 -0.8924
 1195SOL    HW214515   3.028   7.796   4.813  0.0908 -1.4516 -1.6266
 1196SOL     OW14516   7.301   9.223   3.474 -0.1995 -0.1721 -0.3650
 1196SOL    HW114517   7.231   9.219   3.546 -1.0169 -1.3866 -1.1948
 1196SOL    HW214518   7.390   9.243   3.515 -0.5604 -1.3609  1.0570
 1197SOL     OW14519   4.259   8.907   1.139 -0.1760 -0.5342 -0.0154
 1197SOL    HW114520   4.357   8.920   1.122 -0.1069 -0.9652  0.0533
 1197SOL    HW214521   4.234   8.812   1.120 -0.8577 -0.1041 -1.3917
 1198SOL     OW14522   6.614   9.690   4.651 -0.0405 -0.0544 -0.4262
 1198SOL    HW114523   6.642   9.673   4.556 -0.6577  1.7799 -0.9658
 1198SOL    HW214524   6.676   9.756   4.692 -0.6059  0.2061 -0.0007
 1199SOL     OW14525   1.183   3.738   5.359 -0.5269  0.1832 -0.4924
 1199SOL    HW114526   1.101   3.697   5.399 -0.0857 -0.8364 -0.6265
 1199SOL    HW214527   1.172   3.838   5.355 -1.5606  0.0883 -0.0735
 1200SOL     OW14528   9.898   0.275   1.413  0.0780  0.3701 -0.0554
 1200SOL    HW114529   9.880   0.335   1.491 -1.0596  1.6678 -1.2797
 1200SOL    HW214530   9.922   0.184   1.446 -0.2946  0.9165  1.8020
 1201SOL     OW14531   9.200   7.703   1.600 -0.2850 -0.1738 -0.2662
 1201SOL    HW114532   9.292   7.738   1.585 -0.3901  0.5494  0.7539
 1201SOL    HW214533   9.159   7.678   1.512  0.9071 -0.5841 -0.7157
 1202SOL     OW14534   3.688   8.307   4.768 -0.3818  0.0393 -0.3113
 1202SOL    HW114535   3.636   8.342   4.691 -1.3455  0.4978  0.5351
 1202SOL    HW214536   3.715   8.382   4.828 -0.4221 -0.3962  0.2676
 1203SOL     OW14537   3.960   7.119   3.423 -0.2625  0.4807  0.9894
 1203SOL    HW114538   3.893   7.149   3.355 -0.8710  2.1447  2.2893
 1203SOL    HW214539   3.933   7.030   3.458  1.4414 -1.6397 -2.7550
 1204SOL     OW14540   5.570   9.252   3.432 -0.2820 -0.7889 -0.3568
 1204SOL    HW114541   5.492   9.261   3.370 -0.4989  0.5618  0.1008
 1204SOL    HW214542   5.652   9.231   3.379 -0.4863  0.2434 -1.0853
 1205SOL     OW14543   1.630   4.799   2.230  0.1309  0.1672 -0.1790
 1205SOL    HW114544   1.539   4.828   2.258  0.4546  0.1668  0.9047
 1205SOL    HW214545   1.684   4.879   2.204  0.2294  0.2923  0.4118
 1206SOL     OW14546   1.084   3.216   4.159  0.0009  0.0215  0.3989
 1206SOL    HW114547   1.047   3.304   4.187 -0.6788 -0.8763  2.4316
 1206SOL    HW214548   1.070   3.203   4.061 -1.3420  1.4646  0.3910
 1207SOL     OW14549   7.351   7.988   3.934  0.4852 -0.6745 -0.2903
 1207SOL    HW114550   7.335   7.986   4.033 -2.6497 -1.7912 -0.7643
 1207SOL    HW214551   7.365   7.895   3.901  2.0220 -0.2593 -0.8701
 1208SOL     OW14552   3.452   7.506   4.109  0.5555 -0.1791 -0.2010
 1208SOL    HW114553   3.545   7.509   4.071  0.9073 -2.0357  0.4392
 1208SOL    HW214554   3.391   7.459   4.045  0.3693 -0.1939 -0.0133
 1209SOL     OW14555   1.504   6.807   4.746 -0.0559  0.3605 -0.3337
 1209SOL    HW114556   1.455   6.818   4.832 -0.2689  0.6298 -0.4880
 1209SOL    HW214557   1.602   6.803   4.764 -0.1186  0.0767 -0.0490
 1210SOL     OW14558   2.213   3.548   5.523 -0.6861 -0.3430  0.1826
 1210SOL    HW114559   2.239   3.552   5.619 -0.2120 -0.4757  0.0593
 1210SOL    HW214560   2.134   3.487   5.513 -2.5690  1.8830  0.8703
 1211SOL     OW14561   2.003   4.366   1.788  0.3643 -0.6204  0.1011
 1211SOL    HW114562   2.021   4.453   1.742 -3.0365  1.6500  2.7368
 1211SOL    HW214563   2.055   4.362   1.873 -0.3742 -0.5989  0.5616
 1212SOL     OW14564   4.052   7.733   3.179 -0.2199  0.1039 -0.0266
 1212SOL    HW114565   4.071   7.734   3.278 -0.6334 -0.2432  0.0590
 1212SOL    HW214566   4.138   7.723   3.129  0.0615  1.0035  0.2746
 1213SOL     OW14567   1.723   7.529   2.928  0.6260 -0.3636  0.1312
 1213SOL    HW114568   1.803   7.523   2.869 -0.1269 -0.7968 -0.8610
 1213SOL    HW214569   1.750   7.563   3.018  1.7307  0.5854 -0.5525
 1214SOL     OW14570   4.558   5.910   1.855  0.3252 -0.0895  0.1525
 1214SOL    HW114571   4.657   5.915   1.849  0.2323  1.4630 -0.4176
 1214SOL    HW214572   4.532   5.880   1.947  1.2837  2.7520  1.3975
 1215SOL     OW14573   2.252   4.145   0.016 -0.3437  0.2532 -0.2616
 1215SOL    HW114574   2.292   4.074   0.076  0.0241  1.1716  0.6011
 1215SOL    HW214575   2.171   4.108  -0.030  1.3125 -1.5759 -1.8320
 1216SOL     OW14576   0.514   3.827   5.635  0.8335 -0.0886 -0.4823
 1216SOL    HW114577   0.562   3.744   5.604  0.4675 -0.3694 -0.3010
 1216SOL    HW214578   0.423   3.829   5.594  0.5305 -0.2082  0.1887
 1217SOL     OW14579   9.578   3.319   4.709  0.0371  0.2641  0.5562
 1217SOL    HW114580   9.480   3.322   4.689  0.4091 -0.4091 -1.4573
 1217SOL    HW214581   9.608   3.224   4.717  0.6302  0.4583  0.6871
 1218SOL     OW14582   5.729   1.040   3.784  0.0984 -0.6263  0.1971
 1218SOL    HW114583   5.707   0.962   3.726 -1.8429  0.5612 -0.7085
 1218SOL    HW214584   5.644   1.086   3.811  1.2690  1.8313 -0.2281
 1219SOL     OW14585   3.428   0.492   2.983 -0.0984 -0.2087  0.3184
 1219SOL    HW114586   3.520   0.480   3.022 -0.1799 -2.6583 -0.1489
 1219SOL    HW214587   3.434   0.497   2.884 -0.3010  1.7268  0.3868
 1220SOL     OW14588   5.691   6.815   3.079  0.5862 -0.1264  0.1351
 1220SOL    HW114589   5.731   6.726   3.100  0.1440  0.6576  5.0121
 1220SOL    HW214590   5.761   6.886   3.090  0.1136  0.4262 -0.3738
 1221SOL     OW14591   3.410   5.821   1.746  0.3948  0.2547  0.1104
 1221SOL    HW114592   3.319   5.785   1.724  0.0416  0.5467  1.0826
 1221SOL    HW214593   3.471   5.746   1.770  0.3721  0.0739 -0.3827
 1222SOL     OW14594   6.983   7.510   3.187 -0.3515  0.7974  0.5357
 1222SOL    HW114595   6.906   7.467   3.141 -0.4293 -2.2172  3.3012
 1222SOL    HW214596   6.951   7.559   3.268  0.3151  2.1895 -0.0172
 1223SOL     OW14597   7.940   0.136   1.719 -0.2212 -0.0917 -0.4016
 1223SOL    HW114598   8.033   0.146   1.685 -0.4161 -1.2985 -1.3195
 1223SOL    HW214599   7.878   0.189   1.662 -0.2439 -0.2314 -0.5071
 1224SOL     OW14600   3.801   1.268   2.954 -0.0323 -0.1732 -0.6305
 1224SOL    HW114601   3.801   1.169   2.942  0.4439 -0.0723 -1.5024
 1224SOL    HW214602   3.895   1.302   2.955 -0.0864 -0.0249  2.3353
 1225SOL     OW14603   4.978   5.412   1.710 -0.0768  0.1044 -0.5968
 1225SOL    HW114604   4.902   5.456   1.663  0.1740 -0.1266 -1.2327
 1225SOL    HW214605   4.947   5.326   1.752 -0.3937  0.5153  0.0098
 1226SOL     OW14606   9.847   9.148   3.598  0.2909 -0.5720  0.0894
 1226SOL    HW114607   9.803   9.194   3.676  0.4901 -1.3834  0.6842
 1226SOL    HW214608   9.829   9.200   3.515  1.6679  1.3933  0.9422
 1227SOL     OW14609   6.877   8.659   3.576  0.0701 -0.1285 -0.1257
 1227SOL    HW114610   6.788   8.655   3.623  0.6969 -2.6914  0.9132
 1227SOL    HW214611   6.863   8.680   3.479 -1.6089  0.2486  0.1850
 1228SOL     OW14612   3.971   1.205   4.750 -0.0446  0.3588 -0.4180
 1228SOL    HW114613   4.069   1.192   4.737 -0.0180 -0.8677  0.8467
 1228SOL    HW214614   3.937   1.139   4.817 -1.8161  0.4869 -1.1526
 1229SOL     OW14615   0.461   3.899   4.745  0.5008 -0.1226  0.1772
 1229SOL    HW114616   0.492   3.993   4.729  2.5055 -0.3670  2.3903
 1229SOL    HW214617   0.513   3.836   4.686 -0.7129  0.1215 -1.1710
 1230SOL     OW14618   8.237   3.321   2.802  0.0846  0.0560  0.0514
 1230SOL    HW114619   8.223   3.413   2.763  0.3668  0.3095  0.5449
 1230SOL    HW214620   8.264   3.258   2.729  0.9915  0.6144 -0.0990
 1231SOL     OW14621   7.904   8.439   2.937 -0.3158  0.2196 -0.5447
 1231SOL    HW114622   7.825   8.485   2.895  0.4871  1.0471 -1.1889
 1231SOL    HW214623   7.952   8.386   2.868 -0.6737 -0.8006 -0.0092
 1232SOL     OW14624   9.191   9.276   2.083 -0.0945  0.5617  0.4776
 1232SOL    HW114625   9.251   9.251   2.159 -0.5485 -0.9746  0.3422
 1232SOL    HW214626   9.245   9.289   2.000  0.2301  0.7655  0.7241
 1233SOL     OW14627   6.455   9.479   3.865  0.2672  0.2861  0.1685
 1233SOL    HW114628   6.407   9.567   3.854  0.3080  0.0979 -1.6292
 1233SOL    HW214629   6.388   9.405   3.871  0.2807  0.2766  0.1888
 1234SOL     OW14630   9.416   4.664   0.855 -0.3793  0.0524  0.2938
 1234SOL    HW114631   9.384   4.577   0.816  0.1609 -0.3849  0.8143
 1234SOL    HW214632   9.514   4.673   0.839 -0.6096  1.0342 -0.6257
 1235SOL     OW14633   9.411   6.044   0.336  0.5905 -0.1740 -0.1199
 1235SOL    HW114634   9.454   6.111   0.275 -1.7239  1.4306 -0.0587
 1235SOL    HW214635   9.409   6.080   0.429  0.1702 -0.7221  0.0880
 1236SOL     OW14636   0.373   7.686   3.958  0.2594  0.1981 -0.0688
 1236SOL    HW114637   0.351   7.719   4.050 -0.6599  2.5678 -1.0987
 1236SOL    HW214638   0.471   7.697   3.942  0.0786  1.8026 -0.1337
 1237SOL     OW14639   7.442   2.205   0.369 -0.1321 -0.2729  0.1067
 1237SOL    HW114640   7.404   2.225   0.278  1.5185 -1.6796 -0.9246
 1237SOL    HW214641   7.461   2.290   0.417 -2.4232  0.4726 -0.2695
 1238SOL     OW14642   5.792   7.429   3.427 -0.0851  0.8301 -0.2218
 1238SOL    HW114643   5.713   7.473   3.470 -1.3516 -1.2605 -0.3072
 1238SOL    HW214644   5.861   7.497   3.404 -1.2806  2.5242  1.1188
 1239SOL     OW14645   2.120   2.407   2.407 -0.0498 -0.3847  0.4166
 1239SOL    HW114646   2.132   2.506   2.393  0.8398  0.3314  5.1004
 1239SOL    HW214647   2.209   2.363   2.407 -0.3428 -0.9772 -0.3431
 1240SOL     OW14648   3.353   0.099   2.143  0.9099  0.2842  0.4542
 1240SOL    HW114649   3.344   0.143   2.233 -0.3216 -1.1359  1.0404
 1240SOL    HW214650   3.384   0.005   2.155 -1.3899 -0.6307 -0.4348
 1241SOL     OW14651   3.442   8.005   0.522 -0.2874  0.0357 -0.2716
 1241SOL    HW114652   3.517   8.070   0.536 -0.0076 -0.0070 -1.5242
 1241SOL    HW214653   3.443   7.973   0.427 -1.9500  0.0950 -0.3129
 1242SOL     OW14654   0.306   6.265   4.414 -0.2695 -0.1932  0.5116
 1242SOL    HW114655   0.389   6.241   4.364 -0.7934  0.9884 -0.9883
 1242SOL    HW214656   0.253   6.331   4.360 -1.6495 -0.1127  1.9283
 1243SOL     OW14657   3.078   8.320   1.227 -0.0241  0.2979  0.1320
 1243SOL    HW114658   3.013   8.395   1.228 -0.3802 -0.0068  0.5496
 1243SOL    HW214659   3.125   8.316   1.139 -0.8184  0.3129 -0.2972
 1244SOL     OW14660   3.352   5.547   1.886 -0.0875 -0.3154 -0.2969
 1244SOL    HW114661   3.446   5.575   1.864  0.1134 -0.8484 -0.1418
 1244SOL    HW214662   3.331   5.573   1.980 -0.1827  0.0182 -0.4084
 1245SOL     OW14663   1.269   6.701   0.444  0.3202 -0.1703 -0.4472
 1245SOL    HW114664   1.201   6.692   0.517  1.7452 -1.7826  0.7118
 1245SOL    HW214665   1.331   6.623   0.446  1.8493  0.9708 -1.8801
 1246SOL     OW14666   3.859   3.989   3.389  0.0576 -0.0713  0.0113
 1246SOL    HW114667   3.779   3.983   3.330 -0.3273  0.8119  0.4313
 1246SOL    HW214668   3.927   3.922   3.360  0.3017  1.0310 -2.0676
 1247SOL     OW14669   0.831   7.489   2.358  0.4147  0.4529 -0.3053
 1247SOL    HW114670   0.842   7.529   2.266  0.4386  1.1586  0.0018
 1247SOL    HW214671   0.900   7.528   2.419 -0.0284  0.4808  0.1753
 1248SOL     OW14672   1.426   3.106   4.867  0.4186  0.2555  0.1335
 1248SOL    HW114673   1.407   3.022   4.916  0.6883  0.8778  1.3258
 1248SOL    HW214674   1.342   3.139   4.823 -0.4780  1.0756  2.3634
 1249SOL     OW14675   0.135   6.627   1.881 -0.2474  0.4368 -0.0517
 1249SOL    HW114676   0.115   6.612   1.784  0.3465  1.7670 -0.3984
 1249SOL    HW214677   0.063   6.587   1.937  0.6153 -2.4342 -0.9466
 1250SOL     OW14678   2.984   7.173   1.069  0.4667  0.0741 -0.4265
 1250SOL    HW114679   3.071   7.124   1.061  0.1828 -0.8112  1.4937
 1250SOL    HW214680   2.941   7.180   0.979  2.0117 -0.4465 -1.2203
 1251SOL     OW14681   9.151   2.357   4.648 -0.1684 -0.4595 -0.4810
 1251SOL    HW114682   9.101   2.331   4.566 -1.1811  0.3402 -0.1315
 1251SOL    HW214683   9.185   2.451   4.639 -0.2716 -0.3715  0.0069
 1252SOL     OW14684   7.100   1.695   3.005  0.3280 -0.0713 -0.0831
 1252SOL    HW114685   7.113   1.739   2.916 -0.5474  0.2650 -0.0445
 1252SOL    HW214686   7.185   1.699   3.057 -0.2082  3.2275  0.6593
 1253SOL     OW14687   1.982   1.516   3.947 -0.1893 -0.0926  0.3018
 1253SOL    HW114688   2.029   1.467   4.021 -0.0256  1.0198  0.9503
 1253SOL    HW214689   2.044   1.526   3.869  0.4955  0.9335  0.9703
 1254SOL     OW14690   0.153   6.054   4.203 -0.3049  0.3331  0.3752
 1254SOL    HW114691   0.197   6.110   4.133  0.6745 -0.5379  0.2779
 1254SOL    HW214692   0.091   6.111   4.257 -0.1114  1.2803 -0.3869
 1255SOL     OW14693   4.966   0.682   1.710 -0.3271 -0.0757 -0.1905
 1255SOL    HW114694   4.995   0.586   1.711 -0.4953 -0.1708 -1.9977
 1255SOL    HW214695   5.034   0.738   1.756  0.2944 -0.9423 -0.0375
 1256SOL     OW14696   2.960   6.156   4.068  0.3744 -0.2401 -0.2464
 1256SOL    HW114697   2.870   6.119   4.047  0.5632 -0.1367 -1.2740
 1256SOL    HW214698   2.964   6.182   4.164 -1.3432  1.5786 -0.6308
 1257SOL     OW14699   7.707   0.330   5.457 -0.0215 -0.5262  0.7017
 1257SOL    HW114700   7.666   0.302   5.544  0.0835 -1.0902  0.5723
 1257SOL    HW214701   7.759   0.414   5.470  0.7897 -1.1286  1.4037
 1258SOL     OW14702   8.659   8.218   2.374 -0.2695 -0.5887  0.1551
 1258SOL    HW114703   8.692   8.179   2.460  0.8480 -2.2297 -0.9993
 1258SOL    HW214704   8.711   8.180   2.298  0.0270  2.2530 -1.1214
 1259SOL     OW14705   1.033   6.609   2.772 -0.8400  0.0951  0.1537
 1259SOL    HW114706   0.935   6.597   2.753 -0.6472 -2.2242  0.5282
 1259SOL    HW214707   1.086   6.540   2.723  0.5509  0.8593  0.5486
 1260SOL     OW14708   9.038   3.024   3.474 -0.3501 -0.4194  0.6920
 1260SOL    HW114709   9.019   3.121   3.464 -0.5806 -0.3904  1.3872
 1260SOL    HW214710   9.013   2.976   3.390  0.1943  0.1880  0.1866
 1261SOL     OW14711   7.523   0.895   1.911 -0.2621  0.1706  0.5999
 1261SOL    HW114712   7.549   0.939   1.998 -0.9444  0.0808  0.8523
 1261SOL    HW214713   7.437   0.934   1.879  0.3008  0.6556 -0.3743
 1262SOL     OW14714   2.225   2.379   5.218  0.1031 -0.1472  0.2173
 1262SOL    HW114715   2.179   2.419   5.297 -0.4331 -1.6648  0.6778
 1262SOL    HW214716   2.300   2.321   5.249  0.3716 -0.1425 -0.4154
 1263SOL     OW14717   5.371   6.632   3.536  0.1814  0.3467  0.1358
 1263SOL    HW114718   5.393   6.630   3.439 -0.0643 -0.3189  0.0955
 1263SOL    HW214719   5.398   6.721   3.574 -1.3605  1.2953 -0.9253
 1264SOL     OW14720   1.481   1.759   1.619  0.8639 -0.0658  0.1516
 1264SOL    HW114721   1.559   1.736   1.676  0.6785  1.4822  1.0674
 1264SOL    HW214722   1.408   1.798   1.675 -0.3494 -0.9434 -0.7779
 1265SOL     OW14723   3.937   8.919   3.173  0.4394  0.0683  0.0331
 1265SOL    HW114724   3.922   8.987   3.101 -0.2399 -0.5407 -0.4273
 1265SOL    HW214725   3.862   8.923   3.239  0.6353  0.0852  0.2512
 1266SOL     OW14726   2.515   2.335   4.839  0.3526  0.0588 -0.4841
 1266SOL    HW114727   2.458   2.380   4.770 -0.2518  0.3556  0.1994
 1266SOL    HW214728   2.465   2.256   4.876  0.6164 -0.0149 -0.2859
 1267SOL     OW14729   1.653   9.781   2.273 -0.4563 -0.0515 -0.5462
 1267SOL    HW114730   1.575   9.744   2.324 -0.7839 -1.0111 -1.7356
 1267SOL    HW214731   1.624   9.808   2.182  0.8468 -1.5540 -1.4348
 1268SOL     OW14732   9.553   6.676   5.179 -0.1095  0.3657  0.0185
 1268SOL    HW114733   9.628   6.621   5.141 -0.7231  0.5642 -1.5238
 1268SOL    HW214734   9.486   6.617   5.221  0.0357  0.0546 -0.1865
 1269SOL     OW14735   4.831   8.222   2.276 -0.1393  0.3572 -0.0064
 1269SOL    HW114736   4.811   8.270   2.190  0.2716 -0.7350 -0.7331
 1269SOL    HW214737   4.919   8.175   2.268  0.2391  0.8357  1.2757
 1270SOL     OW14738   0.895   4.008   1.882  0.2127  0.6518 -0.7014
 1270SOL    HW114739   0.871   4.045   1.972  0.1698  1.4633 -1.0418
 1270SOL    HW214740   0.866   3.912   1.876 -1.7129  1.1980 -0.6067
 1271SOL     OW14741   1.998   0.904   3.179 -0.1943  0.2929 -0.2532
 1271SOL    HW114742   1.932   0.866   3.244 -1.2890 -0.3037 -1.6716
 1271SOL    HW214743   2.012   1.001   3.198  0.9315 -0.2940  2.0201
 1272SOL     OW14744   2.126   7.668   2.276 -1.1591 -0.2905  0.0496
 1272SOL    HW114745   2.154   7.578   2.310 -1.6081  0.0934  1.4312
 1272SOL    HW214746   2.052   7.656   2.209 -1.0088 -0.9577 -0.0059
 1273SOL     OW14747   0.425   2.396   5.270 -0.2227  0.5646  0.2755
 1273SOL    HW114748   0.325   2.392   5.265 -0.2154  0.5285  0.1507
 1273SOL    HW214749   0.462   2.303   5.264 -0.0352  0.7717 -2.9602
 1274SOL     OW14750   5.326   1.351   2.086 -0.0335  0.1563  0.1767
 1274SOL    HW114751   5.342   1.280   2.017  0.4760  1.1201 -0.7181
 1274SOL    HW214752   5.251   1.323   2.147  0.1525 -1.1278 -0.1793
 1275SOL     OW14753   7.716   5.589   5.281  0.2870  0.0825 -0.4827
 1275SOL    HW114754   7.783   5.651   5.239  0.6779  0.8499  1.2061
 1275SOL    HW214755   7.634   5.586   5.225 -0.7068  4.1150  0.5866
 1276SOL     OW14756   8.152   1.667   2.794  0.0761 -1.2936  0.2340
 1276SOL    HW114757   8.159   1.708   2.704 -0.2945  1.1378  1.2677
 1276SOL    HW214758   8.243   1.650   2.831  0.2369 -0.9514 -0.0075
 1277SOL     OW14759   8.654   4.895   0.878  1.0447 -0.1729 -0.3153
 1277SOL    HW114760   8.612   4.829   0.816  2.1086 -1.4502  0.2959
 1277SOL    HW214761   8.659   4.984   0.834 -1.3578 -0.2320 -0.7847
 1278SOL     OW14762   1.500   3.774   1.640  0.3116  0.1611  0.0627
 1278SOL    HW114763   1.418   3.753   1.694  0.3857  1.0913  0.5704
 1278SOL    HW214764   1.536   3.863   1.669  2.4747 -0.9829  1.0312
 1279SOL     OW14765   7.526   0.500   3.466  0.1764 -0.0122  0.9686
 1279SOL    HW114766   7.608   0.454   3.499 -0.0280 -1.8386 -0.9893
 1279SOL    HW214767   7.447   0.469   3.519  0.1876 -1.1868  0.3109
 1280SOL     OW14768   2.562   6.593   4.611  0.2500  0.2868 -0.0812
 1280SOL    HW114769   2.620   6.512   4.621  1.2322  0.9776 -0.1375
 1280SOL    HW214770   2.546   6.634   4.700 -0.3788 -0.0592 -0.0346
 1281SOL     OW14771   4.588   8.491   1.582  0.0953  0.3110 -0.2992
 1281SOL    HW114772   4.493   8.460   1.588  0.7761 -2.2731 -2.2075
 1281SOL    HW214773   4.615   8.497   1.487  2.8845 -2.3273  0.2794
 1282SOL     OW14774   3.079   4.265   5.086 -0.0129  0.4229  0.3384
 1282SOL    HW114775   2.981   4.282   5.087 -0.3260 -1.3149  0.1749
 1282SOL    HW214776   3.098   4.174   5.123  1.4116  0.1287 -1.0469
 1283SOL     OW14777   4.556   7.755   1.459 -0.2343  0.3294  0.1296
 1283SOL    HW114778   4.535   7.849   1.432  0.4242  0.6341  0.6776
 1283SOL    HW214779   4.522   7.738   1.551 -1.1881 -0.2653 -0.3256
 1284SOL     OW14780   9.984   2.148   1.849  0.6523  0.2462 -0.1276
 1284SOL    HW114781  10.049   2.106   1.786  1.5809  0.2875  0.7868
 1284SOL    HW214782   9.973   2.244   1.826  1.0897  0.2937 -0.1393
 1285SOL     OW14783   9.273   8.151   1.697 -0.1181 -0.4092  0.2005
 1285SOL    HW114784   9.369   8.127   1.684  0.3680  0.9042  1.2262
 1285SOL    HW214785   9.230   8.166   1.609 -0.3586 -4.5610 -0.4955
 1286SOL     OW14786   9.471   7.203   1.164  0.3155  0.3532 -0.5611
 1286SOL    HW114787   9.470   7.173   1.259  0.4502  0.3230 -0.5702
 1286SOL    HW214788   9.377   7.220   1.134  0.3239  0.9559 -0.2394
 1287SOL     OW14789   8.511   0.258   0.825 -0.1475  0.6091  0.1205
 1287SOL    HW114790   8.553   0.264   0.734 -1.2582  0.5763 -0.4046
 1287SOL    HW214791   8.577   0.286   0.894  0.0771  2.6003 -0.8675
 1288SOL     OW14792   4.735   7.878   2.904 -0.1950 -0.2450 -0.3875
 1288SOL    HW114793   4.752   7.870   3.002  1.3052 -0.5223 -0.6583
 1288SOL    HW214794   4.820   7.903   2.857 -0.8869 -0.1616 -1.6234
 1289SOL     OW14795   1.935   5.651   2.600 -0.6101 -0.4073  0.2650
 1289SOL    HW114796   1.994   5.725   2.570  1.0513 -2.0269 -0.5632
 1289SOL    HW214797   1.986   5.565   2.599 -2.8651 -1.7883 -0.0822
 1290SOL     OW14798   3.816   0.404   0.693  0.7747  0.1320 -0.1818
 1290SOL    HW114799   3.837   0.501   0.683  1.3810  0.0800  0.5311
 1290SOL    HW214800   3.720   0.388   0.672  0.7796  0.8155 -0.7393
 1291SOL     OW14801   9.394   9.178   0.920  0.4704  0.2672 -0.0399
 1291SOL    HW114802   9.409   9.254   0.984 -0.7233  0.4749 -0.0076
 1291SOL    HW214803   9.333   9.111   0.961 -0.2664  0.3754 -0.9354
 1292SOL     OW14804   9.900   1.807   4.268 -0.1668  0.5518 -0.0158
 1292SOL    HW114805   9.986   1.756   4.261  0.2227  1.1326  0.4903
 1292SOL    HW214806   9.882   1.853   4.181  1.6376  2.9534  0.8408
 1293SOL     OW14807   0.282   7.409   5.511 -0.3984  0.1471 -0.2001
 1293SOL    HW114808   0.254   7.369   5.599  1.0319  0.5824  0.4750
 1293SOL    HW214809   0.345   7.485   5.528  1.7166 -1.2370 -1.6930
 1294SOL     OW14810   4.223   0.825   3.680  0.1474  0.2448  0.4277
 1294SOL    HW114811   4.175   0.850   3.596 -0.0125 -0.9645  0.1454
 1294SOL    HW214812   4.267   0.906   3.719 -0.8917  1.0743 -0.1009
 1295SOL     OW14813   3.523   0.542   3.429  0.5965  0.1598  0.0340
 1295SOL    HW114814   3.615   0.506   3.414  0.3445  0.3156 -2.0417
 1295SOL    HW214815   3.473   0.482   3.490  1.9044 -0.2122  0.7507
 1296SOL     OW14816   2.129   0.013   2.075 -0.4717  0.2245 -0.0014
 1296SOL    HW114817   2.177   0.099   2.092 -0.3069 -0.1489  1.5235
 1296SOL    HW214818   2.108  -0.031   2.162 -0.1075 -1.5240 -0.7667
 1297SOL     OW14819   4.114   1.206   0.773  0.1467 -0.0918  0.1722
 1297SOL    HW114820   4.063   1.270   0.717 -1.1147 -0.6090  0.7043
 1297SOL    HW214821   4.183   1.160   0.717  0.7101  1.3321 -0.3256
 1298SOL     OW14822   4.778   1.939   1.108  0.0368 -0.5877 -0.5208
 1298SOL    HW114823   4.686   1.910   1.135 -0.6149 -0.0660 -2.0910
 1298SOL    HW214824   4.806   2.019   1.161 -0.0499 -1.2758  0.5767
 1299SOL     OW14825   6.280   0.293   4.377 -0.6580 -0.6038  0.1366
 1299SOL    HW114826   6.269   0.386   4.411  2.6562 -0.0787 -0.0040
 1299SOL    HW214827   6.191   0.247   4.373 -2.3275  2.5242  0.2429
 1300SOL     OW14828   0.316   0.568   3.045 -0.0932 -0.0617  0.1022
 1300SOL    HW114829   0.386   0.625   3.087  0.5722 -1.7016  1.3073
 1300SOL    HW214830   0.225   0.599   3.073  0.3118 -0.5928  2.1384
 1301SOL     OW14831   8.479   2.473   1.131 -0.1124  0.6016  0.5406
 1301SOL    HW114832   8.381   2.467   1.152 -0.9156  2.4908 -2.4347
 1301SOL    HW214833   8.519   2.549   1.181 -0.0782 -0.2828  1.9032
 1302SOL     OW14834   9.618   2.730   2.236  0.4883  0.0796  0.5429
 1302SOL    HW114835   9.552   2.799   2.265  0.8363  1.0333 -0.8565
 1302SOL    HW214836   9.616   2.653   2.300 -0.7144  0.8715  1.4950
 1303SOL     OW14837   8.453   2.946   3.572  0.0384  0.0292  0.4065
 1303SOL    HW114838   8.434   3.019   3.638 -1.6223  1.2271 -1.3387
 1303SOL    HW214839   8.389   2.871   3.586  0.5318 -0.2889  0.9880
 1304SOL     OW14840   9.608   6.926   1.202  0.2702 -0.4991 -0.0380
 1304SOL    HW114841   9.661   6.847   1.233  0.8397  0.3897  1.2958
 1304SOL    HW214842   9.609   6.997   1.273 -0.9962  0.3476 -0.8427
 1305SOL     OW14843   3.392   5.845   3.953  0.2355 -0.0893  0.0531
 1305SOL    HW114844   3.372   5.827   3.857  1.2738  2.5748 -0.7221
 1305SOL    HW214845   3.350   5.932   3.980  0.3424 -0.5852  1.8754
 1306SOL     OW14846   2.061   3.841   3.954  0.1514 -0.6994  0.2198
 1306SOL    HW114847   2.055   3.898   4.037 -0.1099  1.5357 -1.2961
 1306SOL    HW214848   1.974   3.796   3.938  0.6180 -2.2661  1.9154
 1307SOL     OW14849   2.900   7.661   5.078  0.0171  0.0852  0.4769
 1307SOL    HW114850   2.893   7.599   5.156 -0.3129  0.8160  1.0318
 1307SOL    HW214851   2.935   7.750   5.109  1.1463 -0.0313 -0.4184
 1308SOL     OW14852   3.415   9.273   0.420 -0.5238  0.0203 -0.4595
 1308SOL    HW114853   3.420   9.355   0.362  1.7760 -0.4641 -0.9953
 1308SOL    HW214854   3.384   9.299   0.511 -0.2552  1.4074 -0.7517
 1309SOL     OW14855   2.186   3.842   2.775 -0.5126 -0.7094 -0.7464
 1309SOL    HW114856   2.180   3.939   2.752 -0.3458 -0.2348  1.1489
 1309SOL    HW214857   2.094   3.804   2.780 -0.6332 -0.3591 -0.2911
 1310SOL     OW14858   9.840   6.323   3.145  0.4362  0.5344 -0.2598
 1310SOL    HW114859   9.747   6.345   3.115  0.2842 -0.9441 -0.9582
 1310SOL    HW214860   9.906   6.360   3.080  0.1892 -0.9216 -1.3822
 1311SOL     OW14861   1.455   8.298   0.230  0.0112  0.5625  0.5130
 1311SOL    HW114862   1.515   8.219   0.217 -0.5526  0.1280  0.5280
 1311SOL    HW214863   1.406   8.289   0.317  0.3360  1.1908  0.7665
 1312SOL     OW14864   9.384   0.627   0.535 -0.1613 -0.4923  0.0465
 1312SOL    HW114865   9.397   0.534   0.502  0.8706 -0.0515 -0.8103
 1312SOL    HW214866   9.401   0.692   0.461 -3.5907  0.3030 -0.1315
 1313SOL     OW14867   2.184   8.213   0.866  0.3523  0.3666  0.7316
 1313SOL    HW114868   2.271   8.208   0.817  1.2578  0.1020  2.3361
 1313SOL    HW214869   2.199   8.251   0.957 -1.2784  0.6734  0.8854
 1314SOL     OW14870   8.047   2.478   2.890 -0.0615  0.2426  0.0260
 1314SOL    HW114871   7.994   2.525   2.820 -0.6016 -1.3921 -0.6982
 1314SOL    HW214872   8.098   2.403   2.849 -0.0012 -0.4395  1.2995
 1315SOL     OW14873   8.557   9.034   2.690 -0.3791  0.0345  0.5221
 1315SOL    HW114874   8.610   9.030   2.605 -1.3697  1.2645 -0.1698
 1315SOL    HW214875   8.531   9.129   2.709 -0.8124 -0.3311  1.7954
 1316SOL     OW14876   6.803   0.443   5.013 -0.1447 -0.7329 -0.5508
 1316SOL    HW114877   6.799   0.496   5.098  2.3407 -0.6563 -0.4415
 1316SOL    HW214878   6.811   0.346   5.034  1.8199 -0.6233 -0.6136
 1317SOL     OW14879   4.996   7.967   1.577  0.0017  0.4364  0.3914
 1317SOL    HW114880   4.912   7.932   1.536  0.8615  0.5929 -1.5574
 1317SOL    HW214881   5.046   7.892   1.620  0.3425 -0.2122 -1.1035
 1318SOL     OW14882   1.251   6.488   1.361 -0.2461 -0.0062 -0.4631
 1318SOL    HW114883   1.285   6.570   1.406  0.8343 -0.4556 -0.4341
 1318SOL    HW214884   1.228   6.508   1.266  2.8885 -0.3290 -1.3458
 1319SOL     OW14885   9.432   6.378   4.907  0.3902  0.2931  0.5971
 1319SOL    HW114886   9.483   6.321   4.971  0.9648 -0.3436 -0.4015
 1319SOL    HW214887   9.336   6.350   4.906 -0.0328  1.5806  2.5793
 1320SOL     OW14888   6.351   1.570   2.707 -0.4194  0.0598 -0.3117
 1320SOL    HW114889   6.362   1.666   2.731 -0.5763  0.1987 -0.7896
 1320SOL    HW214890   6.404   1.550   2.624 -0.2418 -0.3090 -0.1126
 1321SOL     OW14891   8.625   7.029   1.061  0.6066  0.3107 -0.0347
 1321SOL    HW114892   8.615   6.958   1.130 -0.6016  0.3925 -0.1171
 1321SOL    HW214893   8.706   7.084   1.081  0.1712  0.4490  1.4073
 1322SOL     OW14894   3.047   3.834   2.258  0.0958 -0.0301  0.2459
 1322SOL    HW114895   3.077   3.761   2.320  0.5434 -0.6533 -0.6950
 1322SOL    HW214896   3.044   3.799   2.165  2.6562  1.7727 -0.5842
 1323SOL     OW14897   3.747   0.185   2.278  0.0865 -0.6060 -0.3770
 1323SOL    HW114898   3.796   0.125   2.341  0.2438  0.0840  0.1615
 1323SOL    HW214899   3.656   0.206   2.315  1.4241  2.5693  1.3321
 1324SOL     OW14900   9.083   3.884   1.026 -0.2048  0.4526 -0.6429
 1324SOL    HW114901   9.078   3.795   0.982 -1.2086  0.6219 -0.8931
 1324SOL    HW214902   9.062   3.874   1.124  1.7141  0.1234 -0.2457
 1325SOL     OW14903   1.709   9.317   2.017 -0.2021 -0.1825 -0.5049
 1325SOL    HW114904   1.744   9.390   2.076  1.7167 -1.1799 -0.3722
 1325SOL    HW214905   1.784   9.277   1.965 -0.9779 -2.9896  0.4227
 1326SOL     OW14906   0.979   2.136   1.542 -0.2315 -0.8256  0.1901
 1326SOL    HW114907   1.003   2.229   1.513  1.5351 -1.4788 -0.4950
 1326SOL    HW214908   0.884   2.116   1.517 -0.7123  0.8838  0.6021
 1327SOL     OW14909   8.004   5.815   1.109 -0.2402 -0.7102 -0.0839
 1327SOL    HW114910   8.102   5.830   1.096 -0.1960 -1.3626 -0.5332
 1327SOL    HW214911   7.975   5.738   1.053 -0.8955 -0.9028  0.5188
 1328SOL     OW14912   7.666   4.930   4.599 -0.2273 -0.3075  0.3095
 1328SOL    HW114913   7.612   4.878   4.533 -1.1505  1.4839 -0.3698
 1328SOL    HW214914   7.608   4.998   4.643  1.2499  1.0287  0.2331
 1329SOL     OW14915   8.224   8.964   4.512 -0.0010 -0.3139 -0.2236
 1329SOL    HW114916   8.245   9.056   4.478  1.0769 -0.4266  0.1002
 1329SOL    HW214917   8.278   8.897   4.460 -1.2572 -0.8178 -0.8861
 1330SOL     OW14918   7.029   8.298   1.316 -0.0434 -0.0395 -0.8391
 1330SOL    HW114919   7.125   8.290   1.292  0.2286  1.5315 -0.3337
 1330SOL    HW214920   6.994   8.386   1.283 -0.8463  0.1548  0.5027
 1331SOL     OW14921   4.508   0.289   2.742  0.1548  0.5375  0.2272
 1331SOL    HW114922   4.545   0.197   2.735  1.6525  0.8968  2.6461
 1331SOL    HW214923   4.424   0.296   2.689  0.9388 -1.7222 -1.3586
 1332SOL     OW14924   1.340   0.608   1.232  0.1127 -0.0915  0.1640
 1332SOL    HW114925   1.402   0.678   1.267 -0.5922  0.3721  0.5119
 1332SOL    HW214926   1.351   0.600   1.133 -0.1657  0.8953  0.0406
 1333SOL     OW14927   7.398   8.159   2.992 -0.5675  0.0685  0.1445
 1333SOL    HW114928   7.438   8.151   3.083 -0.3662 -1.2814 -0.0469
 1333SOL    HW214929   7.459   8.214   2.934  1.3080 -2.3549 -0.2705
 1334SOL     OW14930   5.922   6.614   1.961 -0.6647 -0.4502  0.6194
 1334SOL    HW114931   5.947   6.518   1.944 -0.4809 -0.0534 -1.6025
 1334SOL    HW214932   5.824   6.626   1.951 -0.4198  0.0083 -1.4493
 1335SOL     OW14933   8.361   9.208   3.788  0.2478  0.0823 -0.5140
 1335SOL    HW114934   8.413   9.226   3.704 -1.2364 -0.3260 -1.5346
 1335SOL    HW214935   8.331   9.112   3.788  0.2348  0.0854  0.4874
 1336SOL     OW14936   8.614   1.996   0.955 -0.3608 -0.0005  0.5578
 1336SOL    HW114937   8.610   2.095   0.975 -0.5698 -0.3380  2.2989
 1336SOL    HW214938   8.559   1.977   0.874  1.5057  1.6245 -1.1277
 1337SOL     OW14939   0.875   9.865   0.535  0.3047  0.2492  0.4754
 1337SOL    HW114940   0.811   9.807   0.586 -0.0208 -1.0773 -1.4041
 1337SOL    HW214941   0.967   9.855   0.574  0.1335 -1.0675  0.5653
 1338SOL     OW14942   8.984   2.638   5.617 -0.5524 -0.1383  0.8991
 1338SOL    HW114943   8.952   2.731   5.598  0.0749  0.0028  0.5018
 1338SOL    HW214944   8.988   2.623   5.716  0.5727  0.7007  0.9945
 1339SOL     OW14945   4.342   6.181   2.589  0.2346 -0.0974  0.0654
 1339SOL    HW114946   4.358   6.084   2.605  0.3139  0.0823  1.1202
 1339SOL    HW214947   4.410   6.216   2.524  0.9533 -0.4835  0.6005
 1340SOL     OW14948   2.286   5.277   5.475  0.0649 -0.5595 -0.2393
 1340SOL    HW114949   2.381   5.308   5.475 -0.1874  0.2775  1.4114
 1340SOL    HW214950   2.282   5.184   5.511  0.5095 -1.4817 -2.5324
 1341SOL     OW14951   2.408   7.881   3.568 -0.3626 -0.6935  0.4618
 1341SOL    HW114952   2.399   7.807   3.502  0.0654  1.5744 -2.2277
 1341SOL    HW214953   2.504   7.890   3.596 -0.4286 -1.1923  0.8562
 1342SOL     OW14954   8.375   4.002   3.447  0.1814  0.1886  0.2890
 1342SOL    HW114955   8.434   3.922   3.434  0.3298  0.2832  0.3818
 1342SOL    HW214956   8.314   3.985   3.524 -0.8604 -0.4722 -0.6477
 1343SOL     OW14957   0.256   5.212   3.051  0.3713 -0.0234 -0.7708
 1343SOL    HW114958   0.270   5.113   3.059  1.2661  0.1929  0.5245
 1343SOL    HW214959   0.164   5.229   3.014 -0.3136 -1.3253  0.2622
 1344SOL     OW14960   9.398   4.797   4.894  0.0544  0.1052  0.4195
 1344SOL    HW114961   9.335   4.722   4.878  0.4077 -0.2116  0.4963
 1344SOL    HW214962   9.483   4.780   4.845 -0.0081  0.6484  0.1193
 1345SOL     OW14963   2.955   9.810   3.324 -0.0761  0.3848 -0.7430
 1345SOL    HW114964   2.994   9.721   3.346 -0.4194  0.4025 -0.0343
 1345SOL    HW214965   2.908   9.804   3.235  2.6116  0.7184 -2.2371
 1346SOL     OW14966   4.352   7.532   4.573  0.1462 -0.5008 -0.0415
 1346SOL    HW114967   4.414   7.456   4.591  1.0378  0.3162  0.3948
 1346SOL    HW214968   4.321   7.528   4.477  4.0963  1.3423 -1.4986
 1347SOL     OW14969   3.207   3.604   2.353 -0.2441 -0.0275  0.3548
 1347SOL    HW114970   3.307   3.611   2.346 -0.0376 -1.3217  1.6499
 1347SOL    HW214971   3.174   3.532   2.292 -0.4000  0.5024 -0.1839
 1348SOL     OW14972   7.932   8.407   3.867  0.1796 -0.5380  0.2833
 1348SOL    HW114973   7.888   8.319   3.884 -0.3564 -0.2501  0.3971
 1348SOL    HW214974   7.999   8.425   3.938 -1.4098  0.2469  1.6253
 1349SOL     OW14975   2.401   9.916   3.352 -1.1400  1.0089 -0.4661
 1349SOL    HW114976   2.309   9.876   3.360  1.0177 -4.5343 -1.0239
 1349SOL    HW214977   2.456   9.887   3.431  1.3056  0.7235 -2.2346
 1350SOL     OW14978   8.404   6.655   2.590 -0.2092  0.0572  0.3101
 1350SOL    HW114979   8.427   6.703   2.675 -0.9274 -0.6995  0.9416
 1350SOL    HW214980   8.343   6.711   2.535  0.2673  0.5545  0.2860
 1351SOL     OW14981   2.088   8.758   3.572 -0.0251 -0.6836 -0.3427
 1351SOL    HW114982   2.122   8.729   3.482  0.0233 -2.3054  0.1867
 1351SOL    HW214983   2.093   8.858   3.578  0.2156 -0.5665 -2.0395
 1352SOL     OW14984   3.380   0.848   2.000 -0.0362 -0.3312 -0.0313
 1352SOL    HW114985   3.431   0.766   1.974  1.5458  1.4948 -2.9978
 1352SOL    HW214986   3.439   0.908   2.053 -0.9249 -0.7034  1.3971
 1353SOL     OW14987   2.316   8.068   5.345 -0.2193  0.0619 -0.1842
 1353SOL    HW114988   2.313   7.993   5.278  1.2821  1.0074 -1.3568
 1353SOL    HW214989   2.403   8.064   5.395 -0.2731  0.8352 -0.0282
 1354SOL     OW14990   3.044   0.683   0.809 -0.2999 -0.2293 -0.5816
 1354SOL    HW114991   2.978   0.666   0.737  0.1325  0.5974 -1.1799
 1354SOL    HW214992   3.124   0.729   0.771 -0.0569  0.1810  0.4163
 1355SOL     OW14993   0.551   8.861   4.637 -0.1691  0.3375  0.1792
 1355SOL    HW114994   0.467   8.810   4.617 -0.3639  0.8688 -0.4067
 1355SOL    HW214995   0.531   8.935   4.701 -0.0935  0.2788  0.2680
 1356SOL     OW14996   4.412   9.550   2.934 -0.3635 -0.0903 -0.0976
 1356SOL    HW114997   4.502   9.516   2.962 -0.0217  1.1433  0.3335
 1356SOL    HW214998   4.416   9.583   2.839 -0.0507  1.0378  0.2968
 1357SOL     OW14999   9.279   1.139   0.878 -0.2931  0.0695  0.2944
 1357SOL    HW115000   9.339   1.067   0.911 -0.7915 -0.2056  0.6122
 1357SOL    HW215001   9.191   1.100   0.852 -0.6769  0.6013  0.7671
 1358SOL     OW15002   4.919   9.094   4.364  0.1747  0.7293  0.3570
 1358SOL    HW115003   4.957   9.186   4.349  0.7319  0.3719 -0.4534
 1358SOL    HW215004   4.820   9.100   4.378  0.1223  1.3946 -0.2857
 1359SOL     OW15005   8.422   2.616   4.636 -0.0436 -0.4336 -0.3938
 1359SOL    HW115006   8.479   2.542   4.601 -0.1200 -0.6867  0.0110
 1359SOL    HW215007   8.390   2.593   4.728 -0.5575 -0.1574 -0.5033
 1360SOL     OW15008   1.900   4.355   5.356 -0.2138  0.7996 -0.3360
 1360SOL    HW115009   1.957   4.435   5.339 -0.9421  1.2237 -0.8540
 1360SOL    HW215010   1.841   4.372   5.435 -0.9546  1.1076 -0.9464
 1361SOL     OW15011   8.742   9.299   2.731 -0.3718 -0.7478  0.3368
 1361SOL    HW115012   8.832   9.297   2.687 -0.6904 -0.3682 -0.3311
 1361SOL    HW215013   8.754   9.287   2.829  0.5833  1.5566  0.5216
 1362SOL     OW15014   7.307   9.629   2.747  0.0080  0.3728 -0.4504
 1362SOL    HW115015   7.362   9.704   2.710  0.3910 -0.2483 -1.1589
 1362SOL    HW215016   7.319   9.548   2.690  0.2107 -0.4654  0.7539
 1363SOL     OW15017   1.304   0.770   1.578 -0.5883 -0.3203 -0.5123
 1363SOL    HW115018   1.227   0.809   1.629  0.6915  1.5128  0.0976
 1363SOL    HW215019   1.328   0.682   1.617 -0.2414  0.6164  1.4738
 1364SOL     OW15020   2.363   0.228   0.822  0.4845 -0.0479 -0.3933
 1364SOL    HW115021   2.448   0.184   0.851 -0.0232 -0.5983  0.2832
 1364SOL    HW215022   2.367   0.249   0.724  2.3080  2.0088  0.0898
 1365SOL     OW15023   9.153   8.111   0.987  0.0812 -0.5539  0.0613
 1365SOL    HW115024   9.067   8.117   1.038 -1.0140  3.2918 -1.9799
 1365SOL    HW215025   9.224   8.163   1.035  0.4882 -1.3358  0.3057
 1366SOL     OW15026   4.384   1.621   0.024 -0.1225  0.0439  0.6547
 1366SOL    HW115027   4.358   1.618   0.120  1.1367  1.7494  1.0649
 1366SOL    HW215028   4.304   1.647  -0.031 -0.3954  0.8690  1.4377
 1367SOL     OW15029   2.914   6.588   1.412 -0.2790 -0.5541  0.2823
 1367SOL    HW115030   2.979   6.530   1.461  0.9158  1.5751  1.2560
 1367SOL    HW215031   2.831   6.599   1.467  0.3594  0.4219  1.0375
 1368SOL     OW15032   0.925   2.103   0.811 -0.3079  0.3113 -0.1438
 1368SOL    HW115033   1.002   2.065   0.760  0.7445  0.9412  0.9813
 1368SOL    HW215034   0.958   2.162   0.884 -1.8336  0.1616  0.6968
 1369SOL     OW15035   8.219   9.434   5.540  0.3987 -0.1390  0.4278
 1369SOL    HW115036   8.186   9.429   5.446 -1.0058 -0.7389  0.9494
 1369SOL    HW215037   8.262   9.347   5.565 -2.2307 -1.1715  1.4397
 1370SOL     OW15038   2.188   5.318   2.412 -0.0711 -0.0254  0.6358
 1370SOL    HW115039   2.157   5.227   2.386 -0.6098  0.4487 -0.4226
 1370SOL    HW215040   2.130   5.354   2.484 -0.4513 -0.1363  0.3831
 1371SOL     OW15041   2.354   9.048   3.256  0.3714  0.3966 -0.0163
 1371SOL    HW115042   2.367   9.136   3.211  1.1094  0.5409  0.4621
 1371SOL    HW215043   2.326   8.980   3.189  1.3942  0.6262 -0.6803
 1372SOL     OW15044   9.968   1.011   4.264 -0.3934 -0.2731  0.0309
 1372SOL    HW115045   9.910   1.090   4.243  0.1090  1.0392  3.3534
 1372SOL    HW215046   9.911   0.936   4.296 -0.5808 -0.0871  0.1389
 1373SOL     OW15047   5.567   1.372   4.238  0.1092  0.1083 -0.0981
 1373SOL    HW115048   5.615   1.319   4.169  0.9188  2.3884 -1.3180
 1373SOL    HW215049   5.575   1.469   4.218 -2.6389  0.6726  1.2540
 1374SOL     OW15050   3.026   8.096   4.277  0.0754  0.0964  0.2100
 1374SOL    HW115051   2.956   8.048   4.224 -0.2372  1.3990 -0.5864
 1374SOL    HW215052   3.023   8.066   4.372 -0.0136 -1.5545 -0.2950
 1375SOL     OW15053   7.416   2.443   0.676 -0.5950  0.5729  0.0066
 1375SOL    HW115054   7.470   2.461   0.594 -0.4730  3.1111  0.5854
 1375SOL    HW215055   7.323   2.476   0.662 -0.3440  1.8307  1.1771
 1376SOL     OW15056   0.320   4.798   3.223  0.3424 -0.1023  0.5008
 1376SOL    HW115057   0.411   4.760   3.242  0.1084 -0.7387  0.3673
 1376SOL    HW215058   0.321   4.843   3.133  0.6059  0.1645  0.6341
 1377SOL     OW15059   8.457   1.743   2.456  0.6461 -0.1129  0.7880
 1377SOL    HW115060   8.359   1.746   2.475  0.7334 -1.7801  1.6334
 1377SOL    HW215061   8.487   1.831   2.418 -1.2998  0.1864 -0.1304
 1378SOL     OW15062   0.358   0.293   1.537  0.3774  0.1609  0.1110
 1378SOL    HW115063   0.354   0.384   1.580 -0.1104  0.0749  0.2546
 1378SOL    HW215064   0.411   0.299   1.452  1.4121  0.3158  0.7570
 1379SOL     OW15065   4.116   0.052   0.708  0.3234  0.2181  0.2249
 1379SOL    HW115066   4.144   0.135   0.756 -1.7471 -0.2545  2.3383
 1379SOL    HW215067   4.178  -0.023   0.730  0.7483  0.5844  0.2774
 1380SOL     OW15068   3.626   1.675   3.917  0.1717  0.0961 -0.1410
 1380SOL    HW115069   3.631   1.643   3.822  1.4877 -0.6696  0.1834
 1380SOL    HW215070   3.649   1.772   3.920  0.4475  0.0465 -0.5582
 1381SOL     OW15071   1.917   8.546   0.662  0.2598  0.0177  0.2700
 1381SOL    HW115072   1.902   8.572   0.757  1.8649  0.2942  0.4660
 1381SOL    HW215073   1.923   8.628   0.605  3.5727  0.0884  0.6170
 1382SOL     OW15074   7.936   0.875   3.460 -0.0804 -0.2790 -0.3358
 1382SOL    HW115075   7.859   0.871   3.398 -0.6311 -1.8172  0.4257
 1382SOL    HW215076   7.905   0.903   3.551 -0.0634 -2.6817  0.4369
 1383SOL     OW15077   0.873   1.438   4.880  0.1076 -0.0343  0.1518
 1383SOL    HW115078   0.967   1.454   4.908 -0.3149  0.5051  1.2901
 1383SOL    HW215079   0.843   1.347   4.909 -0.0910  0.2392  0.8096
 1384SOL     OW15080   7.820   9.283   1.262 -0.3133  0.3771 -0.0398
 1384SOL    HW115081   7.900   9.318   1.309  0.5337  0.1588 -1.3011
 1384SOL    HW215082   7.826   9.183   1.257 -1.5300  0.2103  1.4043
 1385SOL     OW15083   1.260   2.140   3.049 -0.4402 -0.2624 -0.3137
 1385SOL    HW115084   1.187   2.177   3.106 -0.1660  0.7050 -0.5780
 1385SOL    HW215085   1.226   2.061   2.998 -1.7996  1.1888 -1.7144
 1386SOL     OW15086   1.986   6.085   1.132  0.0122 -0.3509  0.0737
 1386SOL    HW115087   1.931   6.090   1.215 -1.1684  0.3543 -0.7399
 1386SOL    HW215088   2.063   6.023   1.147 -1.5986 -2.2024  0.8904
 1387SOL     OW15089   2.614   1.697   0.705  0.4143  0.0470  0.0793
 1387SOL    HW115090   2.711   1.680   0.694  0.6997  0.8614  1.1970
 1387SOL    HW215091   2.570   1.704   0.615  1.5658  0.6974 -0.4312
 1388SOL     OW15092   2.581   9.987   1.993 -0.0464  0.0017  0.0622
 1388SOL    HW115093   2.679   9.983   2.011  0.2265  0.7990 -1.2016
 1388SOL    HW215094   2.552  10.083   1.987 -1.1622 -0.2002  1.7734
 1389SOL     OW15095   2.983   6.802   5.352 -0.7269 -0.3491 -0.3962
 1389SOL    HW115096   2.919   6.878   5.337  0.1286  0.5752  0.5923
 1389SOL    HW215097   3.058   6.809   5.287  1.4278  1.9616  2.2101
 1390SOL     OW15098   0.469   8.906   4.198 -0.0859 -0.1229 -0.5534
 1390SOL    HW115099   0.563   8.885   4.225 -0.2688 -1.2069 -0.7417
 1390SOL    HW215100   0.434   8.833   4.140 -1.0241  0.3116 -0.5403
 1391SOL     OW15101   1.538   9.132   5.281 -0.5299  0.2478 -0.5702
 1391SOL    HW115102   1.609   9.149   5.212  0.3074 -1.6678 -0.2112
 1391SOL    HW215103   1.538   9.035   5.305 -2.5534  0.4271  0.2444
 1392SOL     OW15104   2.834   0.203   1.236 -0.6544  0.2223 -0.3424
 1392SOL    HW115105   2.864   0.256   1.157 -2.3796  0.0081 -1.1693
 1392SOL    HW215106   2.821   0.107   1.209  2.0191 -0.5663  1.0356
 1393SOL     OW15107   3.572   8.025   1.831 -0.0346  0.5056 -0.3263
 1393SOL    HW115108   3.480   8.063   1.842  0.0469  0.7601 -0.5516
 1393SOL    HW215109   3.565   7.931   1.797 -0.2203  0.4153 -0.0458
 1394SOL     OW15110   8.216   1.111   4.969  0.2337 -0.2023  0.4745
 1394SOL    HW115111   8.121   1.092   4.947 -0.7152  1.7541  2.6058
 1394SOL    HW215112   8.270   1.117   4.885 -1.5566 -1.1239 -0.7620
 1395SOL     OW15113   4.379   0.599   3.689 -0.1295  0.0046  0.1262
 1395SOL    HW115114   4.387   0.570   3.593  1.4356  3.0983 -0.7681
 1395SOL    HW215115   4.306   0.667   3.696 -0.1035 -0.0719  1.0906
 1396SOL     OW15116   0.953   4.952   2.457  0.1609  0.5916  0.6289
 1396SOL    HW115117   0.891   4.894   2.510  1.5810  0.2123  1.9005
 1396SOL    HW215118   0.955   4.921   2.362  0.3370 -0.9671  1.1314
 1397SOL     OW15119   5.403   7.382   3.140  0.1190 -0.3021 -0.0899
 1397SOL    HW115120   5.502   7.392   3.126  0.1434  0.8898  0.8917
 1397SOL    HW215121   5.357   7.383   3.051  0.7907  1.4948 -0.4437
 1398SOL     OW15122   6.499   0.605   3.439  0.2048  0.0621 -0.1523
 1398SOL    HW115123   6.541   0.519   3.468 -1.2546 -0.0666  1.6911
 1398SOL    HW215124   6.551   0.682   3.476 -0.0730 -0.0714  0.5229
 1399SOL     OW15125   2.284   0.341   1.056 -0.1490 -0.7267 -0.1754
 1399SOL    HW115126   2.297   0.296   0.967  1.2011 -0.0687 -0.3183
 1399SOL    HW215127   2.244   0.275   1.120  0.7703 -1.8143 -0.6916
 1400SOL     OW15128   8.429   4.958   2.402  0.2009 -0.3131 -0.3494
 1400SOL    HW115129   8.521   4.973   2.364  1.0740  0.4672  1.9506
 1400SOL    HW215130   8.421   5.007   2.489 -2.2882 -0.6876 -0.3365
 1401SOL     OW15131   0.075   7.050   3.151  0.5148  0.2242  0.1362
 1401SOL    HW115132  -0.006   7.073   3.206 -0.2101  0.2408 -0.9372
 1401SOL    HW215133   0.149   7.112   3.176  0.6908 -0.7663  2.2250
 1402SOL     OW15134   5.675   9.892   3.686 -0.5103 -0.2322  0.3062
 1402SOL    HW115135   5.704   9.987   3.675  0.7495 -0.3914  2.1373
 1402SOL    HW215136   5.741   9.831   3.641  0.4848 -0.4242  2.0020
 1403SOL     OW15137   7.636   9.787   5.249 -0.4888  0.2953  0.2426
 1403SOL    HW115138   7.579   9.782   5.167  0.7143  2.1917 -0.7313
 1403SOL    HW215139   7.578   9.798   5.330 -1.6050 -0.1464 -0.4875
 1404SOL     OW15140   1.796   2.274   5.363 -0.6889  0.1844 -0.1488
 1404SOL    HW115141   1.849   2.358   5.359 -0.9260  0.4801  2.0598
 1404SOL    HW215142   1.736   2.276   5.443 -1.8914 -1.3945 -0.9741
 1405SOL     OW15143   2.708   6.606   3.433 -0.1980 -0.1711 -0.4536
 1405SOL    HW115144   2.656   6.660   3.499 -0.4209 -0.4534 -0.3957
 1405SOL    HW215145   2.784   6.660   3.397 -1.1409  0.5940 -1.3101
 1406SOL     OW15146   8.902   2.049   4.432  0.1392 -0.5207 -0.5376
 1406SOL    HW115147   8.911   1.950   4.426 -0.0189 -0.6781  1.6475
 1406SOL    HW215148   8.984   2.092   4.394  0.8462 -1.5140 -0.1510
 1407SOL     OW15149   2.551   7.095   2.397 -0.2400 -0.2030 -0.0987
 1407SOL    HW115150   2.536   7.020   2.332 -0.5734  1.1030 -1.5853
 1407SOL    HW215151   2.490   7.085   2.475 -2.6161  0.2599 -1.8372
 1408SOL     OW15152   9.305   7.910   1.331  0.1808 -0.1674 -0.9022
 1408SOL    HW115153   9.315   7.876   1.237  0.2317 -0.9991 -0.5995
 1408SOL    HW215154   9.351   7.848   1.394 -0.5801 -0.0684 -0.2358
 1409SOL     OW15155   0.345   4.741   5.447 -0.3940  0.5081 -0.2794
 1409SOL    HW115156   0.324   4.816   5.384 -1.4246  0.6383  0.2050
 1409SOL    HW215157   0.406   4.775   5.519 -1.9574  1.2698  0.7239
 1410SOL     OW15158   3.671   0.742   0.319 -0.2197 -0.6211 -0.3372
 1410SOL    HW115159   3.574   0.763   0.308 -0.4407 -1.0198  0.7949
 1410SOL    HW215160   3.726   0.803   0.261 -0.9711  1.4815  1.1384
 1411SOL     OW15161   2.725   4.803   3.604  0.8005  0.5248  0.1733
 1411SOL    HW115162   2.730   4.707   3.631 -0.4425  0.0779 -1.0994
 1411SOL    HW215163   2.745   4.812   3.506 -0.7937  1.3383 -0.1008
 1412SOL     OW15164   1.071   7.472   1.537  0.1264  0.1112 -0.1282
 1412SOL    HW115165   1.015   7.456   1.456 -0.9831  2.4024  0.1515
 1412SOL    HW215166   1.117   7.387   1.563 -0.8329 -1.0613 -2.1416
 1413SOL     OW15167   2.074   6.712   5.606  0.6926  0.0306  0.2410
 1413SOL    HW115168   1.992   6.743   5.557 -1.0639  0.0817  3.0457
 1413SOL    HW215169   2.089   6.615   5.589  0.0891  0.0386 -0.3553
 1414SOL     OW15170   4.679   8.846   4.339 -0.4681 -0.2489 -0.1449
 1414SOL    HW115171   4.590   8.822   4.301 -0.1898 -0.5627 -0.5939
 1414SOL    HW215172   4.671   8.933   4.389 -1.0030 -0.2338 -0.2511
 1415SOL     OW15173   3.147   3.205   3.448  0.2616 -0.5574 -0.1698
 1415SOL    HW115174   3.125   3.171   3.539  3.2844  0.4900  1.0201
 1415SOL    HW215175   3.131   3.134   3.381 -0.4480 -1.8827  1.3694
 1416SOL     OW15176   9.112   1.044   1.730 -0.0197 -0.1094  0.4567
 1416SOL    HW115177   9.057   1.045   1.647  1.4748  0.1796 -0.5379
 1416SOL    HW215178   9.090   0.963   1.784 -1.5342  0.0879  0.1636
 1417SOL     OW15179   0.119   6.365   4.831 -0.2425  0.0765  0.4148
 1417SOL    HW115180   0.212   6.375   4.865 -0.8857  2.0492  1.6769
 1417SOL    HW215181   0.070   6.297   4.887  0.1802 -0.3516  0.2695
 1418SOL     OW15182   9.992   4.890   2.192 -0.6302  0.0576  0.2963
 1418SOL    HW115183  10.067   4.870   2.255 -0.6957 -0.4806  0.2094
 1418SOL    HW215184   9.988   4.819   2.121 -2.5784 -1.1691  1.5644
 1419SOL     OW15185   8.447   4.453   3.201  0.5031  0.4424 -0.0461
 1419SOL    HW115186   8.388   4.449   3.120  1.6954 -0.9410 -0.8611
 1419SOL    HW215187   8.450   4.363   3.244  2.0740  0.4976 -0.0458
 1420SOL     OW15188   3.581   4.054   5.221 -0.0772  0.3022  0.0348
 1420SOL    HW115189   3.618   4.111   5.148  1.0130 -0.2163  0.1731
 1420SOL    HW215190   3.550   4.112   5.296 -0.6584  0.8043 -0.5876
 1421SOL     OW15191   7.166   1.285   2.349 -0.2639 -0.1638 -0.2121
 1421SOL    HW115192   7.075   1.320   2.330  0.1054  1.0517  0.2124
 1421SOL    HW215193   7.160   1.203   2.405 -1.2118 -1.7006 -2.4827
 1422SOL     OW15194   7.626   2.124   3.097  0.0704  0.1996 -0.4175
 1422SOL    HW115195   7.687   2.096   3.171  2.3229  0.6149 -2.0891
 1422SOL    HW215196   7.543   2.164   3.136 -0.8371 -3.7565  1.9556
 1423SOL     OW15197   8.183   6.292   3.450  0.7424 -0.1178  0.1525
 1423SOL    HW115198   8.120   6.241   3.509  1.5413 -0.0386  1.0911
 1423SOL    HW215199   8.132   6.337   3.378 -0.2475 -0.2524  0.7586
 1424SOL     OW15200   2.339   7.410   0.219 -0.1656 -0.3457  0.1281
 1424SOL    HW115201   2.328   7.313   0.197  1.3944 -0.5196  0.0401
 1424SOL    HW215202   2.425   7.423   0.269  1.0398  1.3458 -2.2546
 1425SOL     OW15203   1.687   4.852   1.646 -0.0856 -0.3705 -0.2917
 1425SOL    HW115204   1.755   4.787   1.681 -0.0322 -1.0512 -1.6221
 1425SOL    HW215205   1.601   4.841   1.697  1.2397  1.5875  2.4785
 1426SOL     OW15206   2.678   8.166   3.993 -0.4366 -0.3617  0.1784
 1426SOL    HW115207   2.754   8.228   3.975 -0.3013 -0.3782  0.6931
 1426SOL    HW215208   2.593   8.219   3.996 -0.1277  0.0678  2.3098
 1427SOL     OW15209   2.444   4.634   2.896 -0.7475 -0.3343 -0.0404
 1427SOL    HW115210   2.451   4.576   2.977 -0.1541 -2.3621 -1.5216
 1427SOL    HW215211   2.379   4.594   2.831  0.4262  0.0912 -1.5196
 1428SOL     OW15212   4.604   8.561   0.513 -0.3396 -0.3958  0.2810
 1428SOL    HW115213   4.607   8.588   0.417  0.4754 -0.1490  0.3653
 1428SOL    HW215214   4.632   8.466   0.522  2.2797  0.3425  0.5198
 1429SOL     OW15215   0.072   2.401   1.768 -0.0218 -0.4271 -0.0072
 1429SOL    HW115216  -0.017   2.446   1.767  0.9699  1.6848  1.9126
 1429SOL    HW215217   0.107   2.393   1.675 -1.6766 -0.1874 -0.6534
 1430SOL     OW15218   9.260   8.146   3.806 -0.2202 -0.1236 -0.2737
 1430SOL    HW115219   9.299   8.115   3.720  2.7429 -0.1326  1.0318
 1430SOL    HW215220   9.217   8.069   3.853 -0.8281 -0.3492 -1.1875
 1431SOL     OW15221   1.413   8.102   2.279  0.2646 -0.2239  0.0795
 1431SOL    HW115222   1.460   8.070   2.197  1.4265 -1.1141  1.0727
 1431SOL    HW215223   1.464   8.178   2.320 -1.0045  1.0901 -0.7268
 1432SOL     OW15224   1.612   6.965   0.590  0.1238  0.0343 -0.1351
 1432SOL    HW115225   1.513   6.957   0.574 -0.4589  2.4118  1.8603
 1432SOL    HW215226   1.642   7.056   0.561  1.6948 -0.5790 -0.4558
 1433SOL     OW15227   2.547   5.174   3.043 -0.2252 -0.4155 -0.4961
 1433SOL    HW115228   2.538   5.186   2.944  1.2302 -0.1285 -0.6054
 1433SOL    HW215229   2.626   5.116   3.063  2.3602  3.2872  0.6311
 1434SOL     OW15230   3.972   0.972   4.534  0.4301 -0.2681 -0.5124
 1434SOL    HW115231   4.038   0.898   4.549 -0.0313 -0.4722  0.5112
 1434SOL    HW215232   4.021   1.059   4.526  0.8266 -0.4144  0.2690
 1435SOL     OW15233   8.794   5.658   2.571  0.3234  0.2282  0.3636
 1435SOL    HW115234   8.754   5.610   2.493 -1.1372  0.4436  0.9651
 1435SOL    HW215235   8.887   5.685   2.549 -0.6839  1.9176 -1.9727
 1436SOL     OW15236   9.903   4.039   1.196 -0.0236 -1.2337  0.2501
 1436SOL    HW115237   9.876   4.102   1.269  1.8349 -1.1759  0.9047
 1436SOL    HW215238   9.886   4.082   1.107 -0.1861 -0.4129  0.6759
 1437SOL     OW15239   9.014   9.708   0.974 -0.3030 -0.2130 -0.0695
 1437SOL    HW115240   8.986   9.686   1.067  1.3807  1.0541  0.7530
 1437SOL    HW215241   8.937   9.694   0.912 -1.6518 -0.3454  1.6047
 1438SOL     OW15242   1.167   3.966   5.027 -0.3132  0.1428  0.0104
 1438SOL    HW115243   1.184   3.871   4.998 -0.7576  0.0356  0.1126
 1438SOL    HW215244   1.193   3.977   5.123 -1.4950 -0.2026  0.3741
 1439SOL     OW15245   4.502   3.683   3.483 -0.3412  0.2359  0.4899
 1439SOL    HW115246   4.470   3.602   3.434 -2.1267  1.2835 -0.1139
 1439SOL    HW215247   4.447   3.696   3.565 -1.3228  1.9012 -0.4064
 1440SOL     OW15248   1.842   0.933   0.608  0.8471  0.1425  0.0623
 1440SOL    HW115249   1.796   0.988   0.538  0.8964  1.2781  0.9026
 1440SOL    HW215250   1.817   0.967   0.699  0.5944 -1.4697  0.6196
 1441SOL     OW15251   1.033   9.031   5.184 -0.4111 -0.4315  0.3503
 1441SOL    HW115252   0.942   9.003   5.153 -1.0915  1.3763  0.6137
 1441SOL    HW215253   1.061   8.976   5.262 -1.3878 -0.8361  0.4201
 1442SOL     OW15254   4.111   8.801   4.501 -0.1492 -0.2168 -0.5476
 1442SOL    HW115255   4.016   8.825   4.518  0.1567  1.0989 -0.6808
 1442SOL    HW215256   4.149   8.862   4.432  0.4635 -1.4670 -1.3300
 1443SOL     OW15257   3.785   7.130   4.470  0.1468  0.0134  0.1110
 1443SOL    HW115258   3.723   7.194   4.427  0.2892  1.0666  1.4447
 1443SOL    HW215259   3.739   7.086   4.547  0.4825 -0.5093  0.0143
 1444SOL     OW15260   2.092   7.867   0.111  0.2342  0.1933  0.1890
 1444SOL    HW115261   2.053   7.780   0.140  0.6053  0.0442  0.2411
 1444SOL    HW215262   2.083   7.934   0.184  0.6711 -0.0275  0.4487
 1445SOL     OW15263   0.059   3.134   4.518  0.5326  0.4137  0.0434
 1445SOL    HW115264   0.146   3.139   4.469 -0.3708  1.7728 -1.4774
 1445SOL    HW215265  -0.011   3.092   4.460 -0.3577  1.2826  0.4548
 1446SOL     OW15266   0.435   3.859   0.632 -0.1781 -0.4073  0.1466
 1446SOL    HW115267   0.394   3.874   0.542 -0.7855 -0.4171  0.4198
 1446SOL    HW215268   0.488   3.940   0.658 -1.3160  0.2627  0.4739
 1447SOL     OW15269   1.194   9.172   0.814  0.2579  0.5520 -0.0545
 1447SOL    HW115270   1.116   9.155   0.874 -0.4201  2.6333 -0.2864
 1447SOL    HW215271   1.161   9.195   0.722  1.1016  1.9717 -0.0212
 1448SOL     OW15272   1.417   8.572   5.303 -0.2478 -0.3708  1.0551
 1448SOL    HW115273   1.348   8.642   5.284 -0.7701 -1.3655 -0.8348
 1448SOL    HW215274   1.508   8.611   5.289 -0.5145  0.1325  0.6898
 1449SOL     OW15275   0.850   8.768   2.182 -0.4182 -0.2087  0.1532
 1449SOL    HW115276   0.754   8.752   2.158 -0.1177 -1.2180 -0.3667
 1449SOL    HW215277   0.854   8.813   2.271 -1.4222  0.9599 -0.3689
 1450SOL     OW15278   2.385   5.384   2.225  0.4686 -0.1601  0.5496
 1450SOL    HW115279   2.463   5.323   2.216 -0.4074 -1.2533  0.2516
 1450SOL    HW215280   2.318   5.344   2.288 -0.3032  0.2934  0.0268
 1451SOL     OW15281   1.864   4.687   2.312 -0.3416  0.3768 -0.0117
 1451SOL    HW115282   1.768   4.712   2.303 -0.4972 -0.4174 -0.5237
 1451SOL    HW215283   1.903   4.670   2.222  0.1071  0.0477  0.2439
 1452SOL     OW15284   6.817   9.164   1.188 -0.2859  0.1966  0.0255
 1452SOL    HW115285   6.845   9.253   1.153  0.8532 -0.0101  0.3929
 1452SOL    HW215286   6.717   9.160   1.193 -0.3294  1.6405  0.4956
 1453SOL     OW15287   2.399   8.981   3.688 -0.1917 -0.0525 -0.0266
 1453SOL    HW115288   2.324   8.987   3.622 -1.5276 -1.7508  1.3009
 1453SOL    HW215289   2.367   8.936   3.771  1.8953  0.6261  1.1844
 1454SOL     OW15290   5.185   3.207   0.545  0.1175  0.3677 -0.4095
 1454SOL    HW115291   5.272   3.256   0.540 -1.7266  3.7686 -0.6379
 1454SOL    HW215292   5.119   3.261   0.598 -1.5200 -2.7016  0.8010
 1455SOL     OW15293   0.583   3.127   2.846  0.0242 -0.2845  0.3364
 1455SOL    HW115294   0.485   3.132   2.826 -0.2143 -0.7568  1.3413
 1455SOL    HW215295   0.596   3.080   2.934  1.1074  0.4593  0.5759
 1456SOL     OW15296   4.239   2.573   1.352  0.7516 -0.1054  0.3076
 1456SOL    HW115297   4.282   2.562   1.441  0.7233  0.5912  0.4161
 1456SOL    HW215298   4.204   2.667   1.344 -0.6680 -0.6349  0.1912
 1457SOL     OW15299   0.526   1.466   1.452 -0.3947 -0.2368  0.3242
 1457SOL    HW115300   0.567   1.482   1.542 -0.9398  0.3362  0.4726
 1457SOL    HW215301   0.535   1.370   1.428  4.0206  0.4141 -1.1092
 1458SOL     OW15302   9.785   4.950   4.824 -0.0332 -0.4691  0.3200
 1458SOL    HW115303   9.737   4.885   4.766 -0.6643  0.1557  0.1377
 1458SOL    HW215304   9.845   5.008   4.768  0.9355 -1.2391  0.5444
 1459SOL     OW15305   7.459   8.377   4.299  0.1247  0.0914  0.1701
 1459SOL    HW115306   7.459   8.328   4.212  0.4534  0.2868  0.0589
 1459SOL    HW215307   7.366   8.380   4.335 -0.0663  0.2747 -0.3232
 1460SOL     OW15308   1.800   4.406   2.179 -0.1340 -0.1507  0.2705
 1460SOL    HW115309   1.701   4.421   2.174  0.0809  1.0511 -0.7028
 1460SOL    HW215310   1.821   4.316   2.140 -1.0584 -1.4129  2.5920
 1461SOL     OW15311   0.634   0.344   2.637  0.1712 -0.3670 -0.2480
 1461SOL    HW115312   0.540   0.324   2.664 -0.5016  0.9729 -1.5435
 1461SOL    HW215313   0.652   0.306   2.546  0.4065  0.6610 -0.6336
 1462SOL     OW15314   5.878   1.158   2.576 -0.2601  0.3910  0.3832
 1462SOL    HW115315   5.975   1.159   2.551 -0.4844 -0.1283 -0.5176
 1462SOL    HW215316   5.834   1.077   2.537 -1.4854  1.6193 -0.8623
 1463SOL     OW15317   5.781   6.750   2.623 -0.7051  0.3810 -0.2503
 1463SOL    HW115318   5.788   6.652   2.607  1.9401  0.4847  0.0969
 1463SOL    HW215319   5.738   6.766   2.712  1.0702 -0.5306  0.7884
 1464SOL     OW15320   8.338   2.504   4.906 -0.1971  0.1426  0.2709
 1464SOL    HW115321   8.390   2.558   4.971 -0.2765  0.5760 -0.0222
 1464SOL    HW215322   8.248   2.546   4.891  0.4198  0.9366 -1.3304
 1465SOL     OW15323   6.260   9.350   2.088 -0.0327  0.4198  0.2217
 1465SOL    HW115324   6.163   9.330   2.105  0.5358 -2.0695  0.6270
 1465SOL    HW215325   6.310   9.347   2.175  0.7400 -0.2398 -0.2440
 1466SOL     OW15326   8.497   1.709   5.196 -0.0865 -0.1372 -0.4808
 1466SOL    HW115327   8.434   1.633   5.215 -2.0806  1.0930 -2.0255
 1466SOL    HW215328   8.506   1.765   5.278  1.0978 -1.7824  0.5602
 1467SOL     OW15329   4.397   0.812   3.994  0.6901 -0.2484 -0.3790
 1467SOL    HW115330   4.365   0.738   3.933  1.2021  0.3164 -1.3490
 1467SOL    HW215331   4.468   0.865   3.947 -0.6968  1.7661 -0.2546
 1468SOL     OW15332   4.593   6.580   2.748 -0.1150 -0.5059  0.0706
 1468SOL    HW115333   4.597   6.499   2.806 -2.1110 -0.5313  0.2021
 1468SOL    HW215334   4.527   6.645   2.785  0.8272  0.8145 -0.5079
 1469SOL     OW15335   3.576   1.112   4.199  0.1245 -0.2538 -0.1391
 1469SOL    HW115336   3.564   1.160   4.286  1.7336 -1.4902  0.7815
 1469SOL    HW215337   3.667   1.070   4.196 -0.1151 -0.6821 -2.2020
 1470SOL     OW15338   1.550   5.696   0.900  0.1776 -0.7733 -0.1312
 1470SOL    HW115339   1.461   5.732   0.873  0.3354 -1.2950 -1.3982
 1470SOL    HW215340   1.574   5.619   0.841  1.7868 -0.1970 -0.2510
 1471SOL     OW15341   7.979   1.808   3.116 -0.2658  0.5544  0.6588
 1471SOL    HW115342   7.969   1.717   3.077  0.0944  1.2272 -1.0632
 1471SOL    HW215343   8.022   1.869   3.049  2.3104  1.2354  2.8125
 1472SOL     OW15344   6.341   0.491   0.660 -0.3128 -0.0575  0.0759
 1472SOL    HW115345   6.361   0.405   0.706  1.3207  1.2220  1.8474
 1472SOL    HW215346   6.420   0.521   0.607 -0.9770  0.2164 -0.7824
 1473SOL     OW15347   0.117   8.148   3.601  0.1653  0.3808  0.6524
 1473SOL    HW115348   0.088   8.241   3.624 -1.3361 -0.1219  0.8239
 1473SOL    HW215349   0.059   8.112   3.528 -0.1171 -0.9064  1.5047
 1474SOL     OW15350   8.421   6.487   5.005  0.2254  0.5635 -0.2124
 1474SOL    HW115351   8.346   6.509   5.068  1.1016  0.9673  0.7039
 1474SOL    HW215352   8.452   6.570   4.959  1.0722  0.6601  0.5037
 1475SOL     OW15353   9.295   5.948   3.193  0.2379  0.1672  0.0902
 1475SOL    HW115354   9.222   5.982   3.252  0.3726  1.0238 -0.2243
 1475SOL    HW215355   9.263   5.948   3.098 -0.0818 -1.4829  0.1912
 1476SOL     OW15356   0.310   4.625   2.855  0.6495 -0.1764 -0.0862
 1476SOL    HW115357   0.228   4.649   2.907 -0.0638  0.8143 -1.6605
 1476SOL    HW215358   0.327   4.526   2.864  0.9149  0.0630  2.5325
 1477SOL     OW15359   6.990   1.465   3.100 -0.3240 -0.6365  0.0030
 1477SOL    HW115360   7.019   1.547   3.052 -1.3698 -1.6998 -2.5128
 1477SOL    HW215361   7.031   1.385   3.058  1.3239 -1.4197  2.9290
 1478SOL     OW15362   4.886   3.760   5.540 -0.8939 -0.2442  0.0363
 1478SOL    HW115363   4.815   3.813   5.494  2.5098  1.8412 -3.0780
 1478SOL    HW215364   4.907   3.679   5.485 -0.6393 -0.7443  0.8538
 1479SOL     OW15365   9.021   8.877   5.340  0.4515  0.2991 -0.2615
 1479SOL    HW115366   9.067   8.935   5.408 -0.6641  2.0138 -0.9195
 1479SOL    HW215367   8.970   8.805   5.386  1.0033  0.4693  0.6306
 1480SOL     OW15368   9.522   2.278   0.160  0.0518  0.0573  0.0298
 1480SOL    HW115369   9.526   2.378   0.171 -1.1730  0.0814  0.3393
 1480SOL    HW215370   9.595   2.249   0.098 -0.5712  1.3345 -1.3402
 1481SOL     OW15371   9.560   7.057   3.617 -0.0575 -0.7611  0.1192
 1481SOL    HW115372   9.480   7.015   3.573 -0.9403  0.3625  0.6369
 1481SOL    HW215373   9.562   7.155   3.596  0.1873 -0.4515  1.5706
 1482SOL     OW15374   7.496   0.310   4.837 -0.2054  0.2173 -0.2211
 1482SOL    HW115375   7.436   0.242   4.793 -0.6825 -0.2359  1.0827
 1482SOL    HW215376   7.527   0.274   4.925  0.3114  1.3123  0.0514
 1483SOL     OW15377   9.401   9.085   2.788  0.0645 -0.1781  0.3269
 1483SOL    HW115378   9.470   9.143   2.744  0.7014  0.4099  2.0467
 1483SOL    HW215379   9.408   8.992   2.752  0.5855  0.2755 -0.7760
 1484SOL     OW15380   0.922   5.570   1.389  0.0500  0.4976  0.7361
 1484SOL    HW115381   0.872   5.488   1.418 -0.6134 -0.2651 -2.3945
 1484SOL    HW215382   1.014   5.543   1.358  0.2377  1.0955  0.7735
 1485SOL     OW15383   4.408   1.991   2.672  0.0153  0.3790 -0.2376
 1485SOL    HW115384   4.469   2.037   2.736  0.2534 -0.2965  0.0293
 1485SOL    HW215385   4.317   2.032   2.676 -0.7236 -1.3607  2.4871
 1486SOL     OW15386   2.781   4.337   2.251 -0.4334  0.2325  0.6772
 1486SOL    HW115387   2.864   4.371   2.208 -0.0439 -0.1470  1.1240
 1486SOL    HW215388   2.804   4.291   2.337 -0.9175 -1.4615 -0.0756
 1487SOL     OW15389   1.415   9.019   1.509  0.5768 -0.2413  0.3442
 1487SOL    HW115390   1.390   8.932   1.468 -0.1908  0.3389 -0.4353
 1487SOL    HW215391   1.344   9.047   1.573  0.0534  0.5611 -0.5713
 1488SOL     OW15392   0.361   7.160   4.493  0.6108 -0.0226  0.3314
 1488SOL    HW115393   0.421   7.082   4.479  0.5108 -0.2617  1.2038
 1488SOL    HW215394   0.413   7.235   4.534  0.3309 -0.2217  1.0652
 1489SOL     OW15395   9.814   8.725   5.564  0.8691  0.0387 -0.6813
 1489SOL    HW115396   9.718   8.720   5.594  1.1598 -0.0292  0.2440
 1489SOL    HW215397   9.819   8.776   5.478 -0.2050 -1.4844 -1.6660
 1490SOL     OW15398   2.130   0.798   3.473  0.2280  0.0043 -0.3025
 1490SOL    HW115399   2.147   0.889   3.435 -0.0205  0.2697  0.2106
 1490SOL    HW215400   2.181   0.788   3.558 -0.5907  0.0715  0.2054
 1491SOL     OW15401   1.109   0.979   4.271  0.6221 -0.0040  0.1036
 1491SOL    HW115402   1.100   0.989   4.370  1.4421 -0.2595  0.2082
 1491SOL    HW215403   1.026   1.012   4.226  0.4595  0.5914  0.8434
 1492SOL     OW15404   4.538   0.436   1.727 -0.4988 -0.5112 -0.0505
 1492SOL    HW115405   4.447   0.460   1.759 -0.2648 -1.5173  1.4344
 1492SOL    HW215406   4.601   0.433   1.805  0.1286 -2.8029 -0.6064
 1493SOL     OW15407   2.875   1.433   5.274 -0.8183  0.3297  0.1807
 1493SOL    HW115408   2.920   1.521   5.266 -0.8437  0.3836  0.5787
 1493SOL    HW215409   2.899   1.375   5.196 -1.1593  0.8446 -0.3089
 1494SOL     OW15410   1.063   3.130   5.517  0.0375 -0.2138 -0.6811
 1494SOL    HW115411   0.977   3.115   5.565  0.6258  0.3373  0.5507
 1494SOL    HW215412   1.118   3.046   5.520  0.0647 -0.1865 -0.4066
 1495SOL     OW15413   3.745   0.382   3.353  0.3992  0.3735 -0.0863
 1495SOL    HW115414   3.836   0.401   3.390  0.3463  1.2780 -0.4274
 1495SOL    HW215415   3.712   0.295   3.390  0.5952  0.9712  1.5343
 1496SOL     OW15416   8.837   1.554   1.110 -0.1871  0.1703  0.2201
 1496SOL    HW115417   8.845   1.460   1.076 -0.4022  0.7591 -1.5259
 1496SOL    HW215418   8.902   1.612   1.060 -1.1654  1.2364  0.1833
 1497SOL     OW15419   0.528   1.871   3.885  0.3609  0.4991  0.5237
 1497SOL    HW115420   0.594   1.936   3.848 -0.3126  0.1932 -1.2560
 1497SOL    HW215421   0.564   1.778   3.876 -0.8141  0.2060 -1.6897
 1498SOL     OW15422   1.516   5.336   4.365 -0.1929 -0.2136 -0.4287
 1498SOL    HW115423   1.462   5.405   4.413 -0.4494 -2.3058  2.3515
 1498SOL    HW215424   1.602   5.320   4.414 -0.1085 -1.8350 -1.0818
 1499SOL     OW15425   0.890   7.646   2.871  0.1980  0.1698 -0.7552
 1499SOL    HW115426   0.945   7.602   2.799  0.3918  0.0954 -0.5625
 1499SOL    HW215427   0.814   7.695   2.829  0.9213  1.0173 -1.0866
 1500SOL     OW15428   9.310   1.387   2.499  0.0932  0.0651 -0.4891
 1500SOL    HW115429   9.380   1.328   2.460 -0.4694 -0.5591 -0.5635
 1500SOL    HW215430   9.339   1.483   2.492  0.1029 -0.0499 -2.2093
 1501SOL     OW15431   0.918   3.532   3.921 -0.2517 -0.4913  0.0328
 1501SOL    HW115432   0.836   3.514   3.976 -0.7428  0.6271 -0.3160
 1501SOL    HW215433   0.998   3.529   3.980 -0.7557  0.4818  0.7803
 1502SOL     OW15434   3.265   4.753   4.899 -0.4671  0.3429 -0.0189
 1502SOL    HW115435   3.303   4.660   4.897  0.9413  0.8616  1.2972
 1502SOL    HW215436   3.340   4.819   4.898 -1.3809  1.4272  1.3107
 1503SOL     OW15437   3.505   9.382   4.958 -0.0680  0.0731  0.2654
 1503SOL    HW115438   3.569   9.447   4.999 -0.7894  0.3573  0.9653
 1503SOL    HW215439   3.507   9.391   4.859 -0.0886  1.1050  0.3529
 1504SOL     OW15440   0.294   6.186   3.995  0.1668 -0.4306  0.4915
 1504SOL    HW115441   0.354   6.261   4.022 -0.5914  0.8912 -1.4192
 1504SOL    HW215442   0.213   6.223   3.949 -0.6008 -2.3774  0.2329
 1505SOL     OW15443   7.361   8.107   2.178  0.6731  0.4286 -0.2076
 1505SOL    HW115444   7.398   8.172   2.113 -1.6469  2.7874  0.7317
 1505SOL    HW215445   7.400   8.124   2.269  1.5567 -0.8176 -0.3417
 1506SOL     OW15446   3.883   1.316   4.118  0.0200 -0.4737  0.0856
 1506SOL    HW115447   3.889   1.323   4.018 -0.8703 -0.5725  0.0290
 1506SOL    HW215448   3.799   1.359   4.149 -0.4755 -1.8522  0.6599
 1507SOL     OW15449   9.368   6.947   2.166  0.0592  0.5552 -0.4698
 1507SOL    HW115450   9.465   6.954   2.141  0.1480  0.3611 -0.1786
 1507SOL    HW215451   9.318   7.022   2.124 -0.2421 -1.1696 -3.3837
 1508SOL     OW15452   0.841   6.571   3.541 -0.1331 -0.3116 -0.4463
 1508SOL    HW115453   0.773   6.512   3.584  0.2336 -0.3602  0.0787
 1508SOL    HW215454   0.799   6.622   3.466 -0.9762  0.3932  0.5017
 1509SOL     OW15455   4.744   2.966   5.332 -0.5668 -0.4281 -0.0786
 1509SOL    HW115456   4.683   2.983   5.255 -1.2886  1.2974  0.8561
 1509SOL    HW215457   4.704   2.897   5.391 -1.0952 -0.1119 -0.0591
 1510SOL     OW15458   1.788   3.253   1.236  0.1273  0.1609  0.7515
 1510SOL    HW115459   1.731   3.189   1.184  2.5849 -1.9339  0.5489
 1510SOL    HW215460   1.783   3.344   1.193 -1.3044 -0.4989 -0.5521
 1511SOL     OW15461   3.244   1.304   5.006 -0.3636 -0.1233  0.0363
 1511SOL    HW115462   3.284   1.386   4.966 -0.4146  0.4406  1.1361
 1511SOL    HW215463   3.291   1.223   4.971 -0.2647  0.3760 -0.9939
 1512SOL     OW15464   1.327   8.232   5.625 -0.0178 -0.5350 -0.1963
 1512SOL    HW115465   1.261   8.157   5.627 -1.0921  0.4173  0.6867
 1512SOL    HW215466   1.371   8.240   5.714  0.6132 -0.5765 -0.5072
 1513SOL     OW15467   2.867   4.854   3.823  0.1585  0.0761 -0.0762
 1513SOL    HW115468   2.821   4.813   3.902  0.8247  0.0433  0.2979
 1513SOL    HW215469   2.803   4.860   3.747 -0.5905  0.4103  0.5649
 1514SOL     OW15470   3.856   3.199   3.028  0.0573 -0.6569  0.8290
 1514SOL    HW115471   3.812   3.127   2.974  0.3692 -0.5466  0.4244
 1514SOL    HW215472   3.795   3.278   3.036 -0.7625 -1.4059  2.2639
 1515SOL     OW15473   4.485   2.955   0.558  0.8345  0.0247  0.0798
 1515SOL    HW115474   4.513   3.048   0.536  0.6564  0.2065  0.6195
 1515SOL    HW215475   4.392   2.938   0.524  1.2335 -0.2829 -0.8978
 1516SOL     OW15476   2.906   7.143   3.278 -0.1144 -0.0329  0.4496
 1516SOL    HW115477   3.004   7.158   3.287 -0.3828  0.7688  2.2233
 1516SOL    HW215478   2.885   7.118   3.183  1.7071  0.3968 -0.0937
 1517SOL     OW15479   9.620   8.508   0.715 -1.0512  0.5172  0.5614
 1517SOL    HW115480   9.571   8.424   0.740 -0.3138 -0.0468  0.1448
 1517SOL    HW215481   9.580   8.586   0.763 -2.0469 -0.0056  0.5971
 1518SOL     OW15482   3.021   6.991   5.009 -0.2132 -0.3271 -0.2544
 1518SOL    HW115483   3.121   6.989   5.012 -0.1710  0.1546 -0.9687
 1518SOL    HW215484   2.987   7.053   5.080 -0.1201 -2.2349  1.4849
 1519SOL     OW15485   2.930   0.321   3.399 -0.2146 -0.2265  0.3779
 1519SOL    HW115486   2.923   0.385   3.323  2.1437  0.2948  0.5507
 1519SOL    HW215487   2.956   0.231   3.364 -2.3395 -0.8080  0.2571
 1520SOL     OW15488   9.481   6.225   3.999  0.8362  0.2816  0.0127
 1520SOL    HW115489   9.480   6.172   3.914  1.9726  1.7717 -0.9571
 1520SOL    HW215490   9.388   6.254   4.021  0.9849  3.4182 -3.0350
 1521SOL     OW15491   8.069   4.370   0.231 -0.5381  0.0896 -0.0053
 1521SOL    HW115492   8.092   4.390   0.136  0.1035  0.4159  0.2110
 1521SOL    HW215493   7.971   4.351   0.239 -0.1941 -2.2670 -1.1056
 1522SOL     OW15494   8.865   7.160   1.118 -0.1546 -0.3440  0.1665
 1522SOL    HW115495   8.878   7.245   1.067  1.6779  0.0449  1.2494
 1522SOL    HW215496   8.920   7.087   1.077  2.2902  0.2717  2.2775
 1523SOL     OW15497   3.866   3.548   3.210 -0.1510  0.1535  0.0630
 1523SOL    HW115498   3.790   3.595   3.256  0.1205 -0.1144  0.7988
 1523SOL    HW215499   3.946   3.607   3.210 -0.4681  0.5992 -1.0798
 1524SOL     OW15500   7.864   9.146   1.561  0.4142  0.4412 -0.0785
 1524SOL    HW115501   7.769   9.167   1.584  0.1200 -0.8291 -0.1399
 1524SOL    HW215502   7.922   9.224   1.587 -0.6758  1.3432 -0.3313
 1525SOL     OW15503   2.293   4.167   3.216  0.3493 -0.3728  0.3072
 1525SOL    HW115504   2.204   4.213   3.215  0.8900  0.7091  1.6426
 1525SOL    HW215505   2.288   4.084   3.161 -1.5204 -0.3761  0.4708
 1526SOL     OW15506   1.218   5.088   5.315 -0.1021  0.3543 -0.1866
 1526SOL    HW115507   1.234   5.004   5.263  0.4506  0.2040  0.2214
 1526SOL    HW215508   1.302   5.116   5.360 -0.3138  1.0662 -0.2206
 1527SOL     OW15509   3.855   9.728   5.277 -0.4685  0.1267  0.3615
 1527SOL    HW115510   3.897   9.765   5.194 -1.4994 -1.0469 -0.7175
 1527SOL    HW215511   3.921   9.672   5.326  0.2831  1.1916  0.5840
 1528SOL     OW15512   0.506   3.512   3.897 -0.1229  0.5117  0.0624
 1528SOL    HW115513   0.596   3.539   3.931  1.4416 -1.8452 -2.0026
 1528SOL    HW215514   0.460   3.591   3.858  1.0788  1.7285  1.0307
 1529SOL     OW15515   3.483   9.572   4.525  0.3507 -0.6325  0.0431
 1529SOL    HW115516   3.490   9.475   4.502 -0.4242 -1.0473  1.4680
 1529SOL    HW215517   3.459   9.582   4.622 -2.1994  0.9331 -0.7061
 1530SOL     OW15518   1.152   1.031   4.546  0.3569  0.1788 -0.0858
 1530SOL    HW115519   1.225   0.964   4.535 -0.5763 -1.0419  1.1017
 1530SOL    HW215520   1.144   1.057   4.642 -1.8757 -0.9633  0.0601
 1531SOL     OW15521   7.309   0.522   2.115 -0.2793  0.1645  0.0883
 1531SOL    HW115522   7.378   0.539   2.185  0.0537 -1.7130  0.2416
 1531SOL    HW215523   7.327   0.580   2.035  0.2652  1.1591  0.9339
 1532SOL     OW15524   8.346   3.002   0.940  0.3098 -0.4526 -0.2012
 1532SOL    HW115525   8.338   3.096   0.906  0.2913 -0.9470 -1.5738
 1532SOL    HW215526   8.282   2.943   0.891 -0.2679 -1.0427  1.2328
 1533SOL     OW15527   8.789   8.181   2.628 -0.3539 -1.1570 -0.3440
 1533SOL    HW115528   8.804   8.099   2.684  2.1053 -0.4903  0.0239
 1533SOL    HW215529   8.739   8.249   2.681  3.0028 -0.0641  1.5128
 1534SOL     OW15530   9.836   1.900   1.419  0.2327  0.3116 -0.2808
 1534SOL    HW115531   9.806   1.849   1.500 -0.0666 -1.3886 -1.4536
 1534SOL    HW215532   9.918   1.953   1.443 -1.2442  1.7703  1.7989
 1535SOL     OW15533   2.690   9.714   0.432 -0.3720  0.6049  0.2134
 1535SOL    HW115534   2.761   9.659   0.388  0.3853  0.3170  1.7670
 1535SOL    HW215535   2.601   9.669   0.421  0.1330 -0.5480  0.8443
 1536SOL     OW15536   0.485   4.468   5.582 -0.5839 -0.1820 -0.0392
 1536SOL    HW115537   0.443   4.514   5.504 -0.0748  1.0768  0.4124
 1536SOL    HW215538   0.518   4.536   5.647 -0.8533 -1.2188  1.2051
 1537SOL     OW15539   1.728   7.649   5.403 -0.2925  0.0805  0.1147
 1537SOL    HW115540   1.783   7.610   5.476  1.7905  0.2152 -1.3426
 1537SOL    HW215541   1.683   7.732   5.435  0.2598 -0.0961  1.3528
 1538SOL     OW15542   3.627   8.390   3.379  0.3733 -0.2109  0.1687
 1538SOL    HW115543   3.530   8.398   3.357  0.7242 -0.3989 -1.4540
 1538SOL    HW215544   3.671   8.327   3.315  1.1454 -1.8086  2.1724
 1539SOL     OW15545   8.423   6.890   4.548  0.1499  0.1410 -0.0378
 1539SOL    HW115546   8.520   6.867   4.534  0.4251  0.8744  0.6149
 1539SOL    HW215547   8.392   6.951   4.475  0.4057  0.5482  0.1896
 1540SOL     OW15548   3.203   1.900   0.461  0.5608 -0.0379  0.3724
 1540SOL    HW115549   3.163   1.930   0.547  1.7628 -2.3543  1.7805
 1540SOL    HW215550   3.282   1.958   0.439 -1.4950  2.4288 -0.7252
 1541SOL     OW15551   8.368   4.709   0.992 -0.0969 -0.0345  0.1080
 1541SOL    HW115552   8.353   4.657   1.076 -1.1274 -1.9120 -1.1918
 1541SOL    HW215553   8.293   4.691   0.928  0.3916  1.7858 -1.0337
 1542SOL     OW15554   9.133   1.803   2.498  0.2355  0.3232  0.6215
 1542SOL    HW115555   9.037   1.824   2.515 -0.1280 -0.7230 -0.0947
 1542SOL    HW215556   9.190   1.850   2.566 -0.8572  0.0259  1.7560
 1543SOL     OW15557   2.527   1.335   4.021 -0.4530 -0.0479 -0.0585
 1543SOL    HW115558   2.477   1.413   4.057 -1.0393 -0.6207  0.3790
 1543SOL    HW215559   2.616   1.365   3.986  0.1624  0.5106  1.9160
 1544SOL     OW15560   9.174   8.440   3.775 -0.2459  0.8681  0.1418
 1544SOL    HW115561   9.204   8.345   3.764 -1.7056  0.2062  1.7565
 1544SOL    HW215562   9.095   8.457   3.716  0.1418  1.1589 -0.3034
 1545SOL     OW15563   3.596   0.680   1.172 -0.2371  0.1674  0.0381
 1545SOL    HW115564   3.601   0.647   1.078  1.5691  0.1443  0.1318
 1545SOL    HW215565   3.631   0.610   1.234 -0.1269  0.7097  0.5954
 1546SOL     OW15566   1.145   0.193   1.326 -0.3933  0.2774  0.2642
 1546SOL    HW115567   1.140   0.286   1.364 -0.9268 -0.0153  0.9221
 1546SOL    HW215568   1.207   0.193   1.247  0.4247  0.9788  0.8898
 1547SOL     OW15569   0.040   4.313   1.057  1.1021 -0.0241 -0.1096
 1547SOL    HW115570   0.061   4.273   1.146  0.0739 -0.4727 -0.0633
 1547SOL    HW215571  -0.026   4.255   1.009  0.6658  0.8872 -0.6230
 1548SOL     OW15572   4.931   9.589   1.379 -0.4959 -0.5768  0.3453
 1548SOL    HW115573   4.901   9.600   1.474  0.8792 -0.2268  0.7594
 1548SOL    HW215574   4.953   9.493   1.362  0.6190 -0.4082  0.8090
 1549SOL     OW15575   2.736   7.466   4.939 -0.3122 -0.2000  0.4512
 1549SOL    HW115576   2.654   7.513   4.907 -1.3241 -0.6754  2.2744
 1549SOL    HW215577   2.800   7.532   4.979  0.2252  0.1715 -0.9778
 1550SOL     OW15578   1.777   5.533   3.207  0.2142  0.0869 -0.2402
 1550SOL    HW115579   1.713   5.572   3.274  1.0234 -1.3643  1.4335
 1550SOL    HW215580   1.743   5.550   3.115 -1.8944  0.5229  0.5753
 1551SOL     OW15581   3.664   6.148   0.766  0.1026 -0.4259 -0.5215
 1551SOL    HW115582   3.710   6.084   0.828  1.8603  1.7125  0.4679
 1551SOL    HW215583   3.593   6.197   0.816  0.9277  0.6740 -0.4157
 1552SOL     OW15584   8.181   0.071   0.678 -0.3373 -0.3332  0.2763
 1552SOL    HW115585   8.203   0.125   0.758 -1.9614  0.1326  0.4221
 1552SOL    HW215586   8.264   0.056   0.623  0.8916 -1.1541  2.3182
 1553SOL     OW15587   9.956   4.631   0.796 -0.1163  0.0278  0.0204
 1553SOL    HW115588   9.860   4.654   0.783  0.4800  2.4581 -0.4177
 1553SOL    HW215589   9.970   4.533   0.779 -2.4405 -0.2908 -0.1812
 1554SOL     OW15590   5.382   8.703   2.462  0.4707  0.4904 -0.2875
 1554SOL    HW115591   5.333   8.616   2.473  0.3658  0.6507  0.5772
 1554SOL    HW215592   5.381   8.730   2.366 -0.7296  0.2544 -0.3496
 1555SOL     OW15593   1.491   3.933   4.052 -0.2373  0.1516  0.2756
 1555SOL    HW115594   1.484   3.858   3.987 -0.2748  0.8141 -0.4982
 1555SOL    HW215595   1.499   4.020   4.003  1.5047  0.5119  1.1436
 1556SOL     OW15596   7.711   1.516   5.005 -0.1090 -0.6530 -0.0807
 1556SOL    HW115597   7.772   1.444   4.971  0.6694 -0.1217  0.1748
 1556SOL    HW215598   7.764   1.598   5.025 -0.9985 -0.0017 -0.3751
 1557SOL     OW15599   6.958   0.298   3.300 -0.1241  0.1567  0.5988
 1557SOL    HW115600   6.989   0.391   3.285 -1.0529  0.1869 -1.4179
 1557SOL    HW215601   6.862   0.299   3.329 -0.3282 -0.1693 -0.0416
 1558SOL     OW15602   9.331   3.875   0.396 -0.0576  0.3216  0.7687
 1558SOL    HW115603   9.391   3.931   0.339 -0.1774 -2.5396 -2.3295
 1558SOL    HW215604   9.247   3.855   0.346 -0.5290 -1.5904  2.2676
 1559SOL     OW15605   0.167   0.473   1.339  0.2103 -0.2292  0.3192
 1559SOL    HW115606   0.189   0.390   1.286  1.4751 -0.0004  0.4646
 1559SOL    HW215607   0.089   0.455   1.399  1.3922 -1.7831  1.4248
 1560SOL     OW15608   7.688   1.257   0.498  0.0762  0.3923 -0.3306
 1560SOL    HW115609   7.751   1.184   0.521 -1.3565 -0.6598  0.3584
 1560SOL    HW215610   7.721   1.343   0.535  0.9879 -0.1888  0.2182
 1561SOL     OW15611   1.908   7.011   3.095  0.1914 -0.3227 -0.1163
 1561SOL    HW115612   1.926   7.091   3.036  0.6299 -0.3913 -0.0821
 1561SOL    HW215613   1.831   7.030   3.155 -0.1673 -0.1957 -0.6156
 1562SOL     OW15614   1.562   2.374   4.184  0.3311 -0.0993  0.1270
 1562SOL    HW115615   1.524   2.282   4.191  0.5547 -0.2322 -0.3810
 1562SOL    HW215616   1.655   2.374   4.221 -0.9465  0.7274  3.4894
 1563SOL     OW15617   2.947   7.473   0.690  0.0528 -0.4567 -0.1804
 1563SOL    HW115618   2.972   7.386   0.648  0.1299 -0.6815  0.3409
 1563SOL    HW215619   2.930   7.461   0.787 -0.1351  0.0714 -0.1434
 1564SOL     OW15620   2.500   0.887   4.357 -0.2281 -0.1947 -0.5594
 1564SOL    HW115621   2.438   0.813   4.329 -1.2227  0.4775 -0.1797
 1564SOL    HW215622   2.446   0.964   4.390  0.8126  0.6578 -0.8380
 1565SOL     OW15623   9.322   4.212   1.680  0.2948  0.0816 -0.1871
 1565SOL    HW115624   9.247   4.169   1.731 -0.1876  1.8332  0.6189
 1565SOL    HW215625   9.371   4.276   1.740  0.5517  1.1761 -1.5347
 1566SOL     OW15626   7.746   0.905   4.139  0.0515 -0.1321  0.4272
 1566SOL    HW115627   7.697   0.818   4.149 -0.7750  0.4960  2.0819
 1566SOL    HW215628   7.779   0.935   4.228  1.4049  0.6416 -0.3295
 1567SOL     OW15629   0.815   1.804   3.459 -0.6223  0.6542  0.8661
 1567SOL    HW115630   0.716   1.813   3.475 -0.1896  2.6067  2.6894
 1567SOL    HW215631   0.831   1.775   3.365 -2.8956  2.3570 -0.1000
 1568SOL     OW15632   8.069   9.818   2.738  0.4326 -0.1993  0.4705
 1568SOL    HW115633   8.001   9.814   2.812 -1.6036 -0.5136 -1.3651
 1568SOL    HW215634   8.128   9.898   2.751 -1.6330  1.2766  0.9946
 1569SOL     OW15635   9.797   8.209   0.801  0.1386 -0.2686 -0.5275
 1569SOL    HW115636   9.740   8.171   0.874 -0.5874 -0.6329 -1.2743
 1569SOL    HW215637   9.770   8.304   0.782  0.2180 -0.2277 -0.4359
 1570SOL     OW15638   2.226   6.854   3.996 -0.3339 -0.8614  0.6990
 1570SOL    HW115639   2.216   6.948   3.961  1.5402 -2.2793 -4.0359
 1570SOL    HW215640   2.137   6.808   3.994 -0.6471 -0.2364 -0.2874
 1571SOL     OW15641   4.751   2.692   0.397  0.2301  0.6152  0.1511
 1571SOL    HW115642   4.659   2.695   0.358  0.6938  1.9589 -0.8733
 1571SOL    HW215643   4.807   2.627   0.346 -0.1852 -0.3248  0.8773
 1572SOL     OW15644   7.580   4.976   0.519  0.6048 -0.7143 -0.5936
 1572SOL    HW115645   7.549   5.020   0.435 -2.0314 -1.2208  0.0599
 1572SOL    HW215646   7.534   4.888   0.529  1.0288 -0.7493  1.2925
 1573SOL     OW15647   1.426   8.124   4.379  0.1119  0.2359  0.2550
 1573SOL    HW115648   1.488   8.171   4.315 -0.2263  0.3442  0.0030
 1573SOL    HW215649   1.464   8.128   4.471 -0.7280  2.4870  0.5381
 1574SOL     OW15650   0.666   3.386   3.634  0.2927  0.3148  0.0274
 1574SOL    HW115651   0.705   3.388   3.542  1.7084  0.4669  0.6165
 1574SOL    HW215652   0.660   3.291   3.666  0.0823  0.2836 -0.1042
 1575SOL     OW15653   3.669   4.329   0.099  0.0550 -0.3805  0.4132
 1575SOL    HW115654   3.654   4.347   0.002  1.7526 -0.4456  0.1103
 1575SOL    HW215655   3.632   4.403   0.154 -0.5065 -0.1226 -0.3165
 1576SOL     OW15656   1.642   8.918   5.447  0.0591  0.4229 -0.3956
 1576SOL    HW115657   1.626   8.950   5.541 -1.7832  2.9485 -1.5270
 1576SOL    HW215658   1.555   8.897   5.404  0.8653 -0.2080 -1.7292
 1577SOL     OW15659   8.389   3.689   2.935 -0.2098 -0.0351 -0.0044
 1577SOL    HW115660   8.358   3.614   2.994 -2.0881 -1.1520 -2.3443
 1577SOL    HW215661   8.323   3.763   2.938 -1.3512 -0.9212 -2.1968
 1578SOL     OW15662   4.695   4.176   1.383 -0.9190 -0.2212  0.1864
 1578SOL    HW115663   4.738   4.162   1.294 -0.5763  2.9346 -0.2063
 1578SOL    HW215664   4.613   4.232   1.371 -1.4614 -0.6619  1.7404
 1579SOL     OW15665   9.981   9.467   3.641  0.1428  0.2081 -0.0227
 1579SOL    HW115666  10.033   9.522   3.707  0.3736 -0.3616  0.2657
 1579SOL    HW215667   9.999   9.370   3.656 -1.2449 -0.0136  0.2811
 1580SOL     OW15668   9.170   8.228   4.619 -0.1179  0.0290  0.2193
 1580SOL    HW115669   9.102   8.156   4.612 -0.7742  0.4138  2.3737
 1580SOL    HW215670   9.139   8.309   4.570 -2.0034  0.7595  2.5338
 1581SOL     OW15671   1.829   5.906   3.518  0.1841  0.1891 -0.4471
 1581SOL    HW115672   1.841   5.857   3.604 -0.0061  0.4202 -0.2880
 1581SOL    HW215673   1.828   6.004   3.535 -0.9932  0.2013 -0.5626
 1582SOL     OW15674   1.913   7.978   0.830 -0.3121 -0.5158  0.6943
 1582SOL    HW115675   1.947   8.022   0.747  1.2110  0.1538  1.6444
 1582SOL    HW215676   1.829   7.928   0.810 -0.5160  0.4907 -1.0158
 1583SOL     OW15677   4.875   3.342   3.600 -0.0628  0.5524  0.3748
 1583SOL    HW115678   4.874   3.380   3.507 -0.2242  0.4534  0.3349
 1583SOL    HW215679   4.888   3.415   3.666  2.1623  0.3792  0.1560
 1584SOL     OW15680   0.786   1.210   4.648 -0.1107  0.0815 -0.1500
 1584SOL    HW115681   0.855   1.258   4.701  1.0219 -2.7164  1.0174
 1584SOL    HW215682   0.707   1.189   4.705 -0.8019  0.9197 -0.7750
 1585SOL     OW15683   8.262   3.610   2.659 -1.0407 -0.5792 -0.1166
 1585SOL    HW115684   8.219   3.698   2.637 -0.0068 -0.6832 -2.6892
 1585SOL    HW215685   8.362   3.621   2.657 -0.9097 -1.8758 -0.7857
 1586SOL     OW15686   2.626   8.609   5.565  0.4068 -0.0311 -0.1504
 1586SOL    HW115687   2.558   8.642   5.499 -0.9179 -3.2584 -0.5132
 1586SOL    HW215688   2.715   8.600   5.519 -0.2498 -1.1727 -1.2211
 1587SOL     OW15689   8.766   0.669   1.036  0.0085  0.4775  0.7416
 1587SOL    HW115690   8.692   0.606   1.011 -0.6958  1.2242  0.9380
 1587SOL    HW215691   8.841   0.617   1.078  0.8491 -0.7169 -2.0510
 1588SOL     OW15692   3.475   8.052   4.246  0.4355  0.1390  0.4851
 1588SOL    HW115693   3.542   7.978   4.252  0.1569  0.0424  2.6588
 1588SOL    HW215694   3.389   8.015   4.212  0.6365 -0.3079  0.4474
 1589SOL     OW15695   4.301   6.713   2.080 -0.1442  0.0450 -0.5835
 1589SOL    HW115696   4.264   6.633   2.031  0.2266 -1.8428  2.1313
 1589SOL    HW215697   4.393   6.733   2.045  0.3623 -1.6498 -0.2990
 1590SOL     OW15698   1.302   0.925   5.500 -0.1065 -0.1742  0.4682
 1590SOL    HW115699   1.254   0.873   5.429 -1.4374  1.0002  0.5050
 1590SOL    HW215700   1.307   0.870   5.583  3.5273 -2.5449 -1.1375
 1591SOL     OW15701   8.389   1.984   3.933 -0.1635  0.4177  0.4760
 1591SOL    HW115702   8.420   2.079   3.931 -0.0321  0.4138  1.6044
 1591SOL    HW215703   8.290   1.980   3.920 -0.1264  0.6803  0.1075
 1592SOL     OW15704   1.366   8.804   0.760 -0.2391  0.4341 -0.1883
 1592SOL    HW115705   1.376   8.720   0.813  0.6318  0.7546  0.1645
 1592SOL    HW215706   1.452   8.825   0.713 -1.9338 -1.6344 -4.4251
 1593SOL     OW15707   0.905   8.998   1.429  0.1620 -0.2896  0.1355
 1593SOL    HW115708   0.824   9.056   1.430  0.7343  0.5127  0.4123
 1593SOL    HW215709   0.898   8.931   1.354  0.4482  1.5218 -1.5454
 1594SOL     OW15710   7.773   8.361   3.386 -0.2476  0.4146  0.8415
 1594SOL    HW115711   7.684   8.379   3.342 -0.2154 -0.4514  0.3936
 1594SOL    HW215712   7.772   8.395   3.480 -1.0811  0.3490  0.8591
 1595SOL     OW15713   6.843   1.228   2.388  0.2726  0.5282 -0.5613
 1595SOL    HW115714   6.854   1.282   2.472  2.0521 -0.0559 -0.3984
 1595SOL    HW215715   6.807   1.138   2.412  1.2003  0.2021 -0.3487
 1596SOL     OW15716   8.381   6.016   1.536 -0.7929 -0.0388 -0.2637
 1596SOL    HW115717   8.379   5.916   1.536 -1.0671 -0.0432  1.8504
 1596SOL    HW215718   8.296   6.051   1.575  0.1926  0.9935  0.9741
 1597SOL     OW15719   3.201   4.097   2.772  0.0668  0.3971 -0.5933
 1597SOL    HW115720   3.126   4.037   2.802  0.6843 -0.4924 -0.8085
 1597SOL    HW215721   3.222   4.078   2.676  1.5691 -0.4026 -0.1122
 1598SOL     OW15722   4.304   4.309   4.691 -0.8311 -0.2134 -0.1882
 1598SOL    HW115723   4.274   4.405   4.690 -0.1112  0.0109 -1.0732
 1598SOL    HW215724   4.401   4.305   4.714 -1.6223 -0.9768  3.2083
 1599SOL     OW15725   0.080   5.589   4.124 -0.9092  0.4990  0.4550
 1599SOL    HW115726   0.105   5.522   4.195  0.8867  0.9366  0.2678
 1599SOL    HW215727   0.089   5.546   4.034 -1.7092  0.4000  0.4201
 1600SOL     OW15728   2.891   1.277   0.354  0.2199 -0.0082 -0.0390
 1600SOL    HW115729   2.985   1.279   0.387  0.1437  1.0720  0.1056
 1600SOL    HW215730   2.891   1.259   0.255  0.7675  3.5465 -0.7509
 1601SOL     OW15731   6.613   7.744   3.372  0.1019 -0.6177  0.4845
 1601SOL    HW115732   6.574   7.682   3.440  0.8183 -2.0922 -0.4408
 1601SOL    HW215733   6.705   7.715   3.348  0.2719  0.5364 -0.3250
 1602SOL     OW15734   7.962   9.605   4.606  0.2280 -0.1101 -0.1711
 1602SOL    HW115735   8.005   9.584   4.517 -0.5735  0.0520 -0.5998
 1602SOL    HW215736   7.914   9.524   4.639  0.9885 -0.3413  0.3920
 1603SOL     OW15737   3.049   0.386   2.803  0.1710  0.2255  0.0130
 1603SOL    HW115738   3.099   0.359   2.885  0.6991  0.2184 -0.3107
 1603SOL    HW215739   3.056   0.485   2.790  0.0332  0.2353  0.0118
 1604SOL     OW15740   0.933   0.248   0.202 -0.6031 -0.2652  0.1776
 1604SOL    HW115741   0.873   0.173   0.229 -0.3366 -0.9179 -0.9961
 1604SOL    HW215742   0.900   0.287   0.116 -0.0609  0.1877  0.1760
 1605SOL     OW15743   9.422   3.964   0.618 -0.2489 -0.1079  0.2159
 1605SOL    HW115744   9.510   3.926   0.593  0.1128  0.7212  0.2172
 1605SOL    HW215745   9.350   3.924   0.561  0.2888  0.1545 -0.6451
 1606SOL     OW15746   3.232   8.756   5.593 -0.5001 -0.6454 -0.0322
 1606SOL    HW115747   3.240   8.787   5.688  1.4086 -1.0971 -0.0203
 1606SOL    HW215748   3.241   8.657   5.590 -1.1757 -0.6940 -0.6386
 1607SOL     OW15749   7.894   6.308   2.520 -0.0026  0.5064  0.0531
 1607SOL    HW115750   7.938   6.398   2.522  1.4363 -0.1787  0.2091
 1607SOL    HW215751   7.950   6.243   2.570 -1.5133 -0.2829  0.7486
 1608SOL     OW15752   2.620   1.911   1.455  0.3073 -0.1888  0.0988
 1608SOL    HW115753   2.616   1.972   1.376  0.7868 -3.1228 -2.2538
 1608SOL    HW215754   2.710   1.920   1.499  0.3019  0.9212 -0.1075
 1609SOL     OW15755   8.641   0.633   2.735 -0.6400 -0.4165 -0.2852
 1609SOL    HW115756   8.670   0.537   2.738  0.1994 -0.2031 -1.3632
 1609SOL    HW215757   8.684   0.679   2.658  0.0677  1.1943  1.0340
 1610SOL     OW15758   9.371   6.506   4.151 -0.3177  0.0009  0.2489
 1610SOL    HW115759   9.333   6.458   4.230 -0.0026 -0.1364  0.3167
 1610SOL    HW215760   9.450   6.560   4.179 -0.1359 -0.1378  0.0026
 1611SOL     OW15761   0.170   3.120   1.099 -0.2361 -0.4574  0.1468
 1611SOL    HW115762   0.179   3.024   1.073  0.0597 -0.0220 -1.3943
 1611SOL    HW215763   0.076   3.150   1.081 -0.1856 -0.3167  0.1180
 1612SOL     OW15764   0.206   0.665   3.975 -0.3852  0.2310 -0.3360
 1612SOL    HW115765   0.243   0.720   3.900 -1.6846 -0.2707 -1.3635
 1612SOL    HW215766   0.254   0.577   3.979 -0.0225  0.4294 -0.2939
 1613SOL     OW15767   7.473   4.464   0.188 -0.1492  0.5128  0.0608
 1613SOL    HW115768   7.456   4.553   0.146  2.3693  0.7694 -0.4938
 1613SOL    HW215769   7.543   4.473   0.259 -0.7361 -0.8099  0.8210
 1614SOL     OW15770   8.208   3.215   5.157 -0.1280 -0.0876 -0.5066
 1614SOL    HW115771   8.187   3.305   5.119  0.1544 -0.1285 -0.7671
 1614SOL    HW215772   8.157   3.144   5.107 -0.6104 -0.0428 -0.0784
 1615SOL     OW15773   9.004   9.299   3.974 -0.2859 -0.4060 -0.5760
 1615SOL    HW115774   8.983   9.381   4.027  0.1174 -1.0721  0.6408
 1615SOL    HW215775   9.074   9.320   3.906 -0.9997  0.5215 -1.0344
 1616SOL     OW15776   8.522   2.457   1.950  0.2066  0.8758  0.2847
 1616SOL    HW115777   8.508   2.361   1.975  1.1735  0.1365 -1.9430
 1616SOL    HW215778   8.437   2.495   1.914  0.5629  0.0397 -1.4544
 1617SOL     OW15779   6.683   7.252   2.172  0.0229  0.5819  0.3351
 1617SOL    HW115780   6.658   7.232   2.077 -1.5599 -0.8636  1.0498
 1617SOL    HW215781   6.643   7.340   2.198 -1.5999 -0.1563  0.4128
 1618SOL     OW15782   3.316   8.186   3.993  0.2340 -0.0407  0.1839
 1618SOL    HW115783   3.403   8.235   3.988  0.2441 -0.0495  0.2742
 1618SOL    HW215784   3.246   8.239   3.946  0.3209 -0.1038 -0.0190
 1619SOL     OW15785   8.235   5.506   3.009  0.2627 -0.2924  0.1053
 1619SOL    HW115786   8.328   5.495   3.046  1.0852  1.8691 -1.2304
 1619SOL    HW215787   8.183   5.567   3.069  0.2438 -0.1985 -0.0061
 1620SOL     OW15788   7.860   8.624   1.709 -0.0359  0.4603 -0.1246
 1620SOL    HW115789   7.917   8.662   1.782 -0.7021 -1.3615  1.3782
 1620SOL    HW215790   7.919   8.580   1.641  0.4737  0.5735  0.2375
 1621SOL     OW15791   8.559   3.503   0.609  0.2550  0.1113  0.4830
 1621SOL    HW115792   8.503   3.537   0.684 -0.3962 -1.8300  0.9127
 1621SOL    HW215793   8.627   3.438   0.645  0.5699 -0.1078 -0.4796
 1622SOL     OW15794   5.152   4.224   0.637  0.1331 -0.1219 -0.1433
 1622SOL    HW115795   5.083   4.161   0.603  0.0545 -0.8618  1.3248
 1622SOL    HW215796   5.215   4.175   0.697  1.5854  0.6784 -1.0108
 1623SOL     OW15797   4.765   9.213   5.023 -0.2499  0.1476  0.1151
 1623SOL    HW115798   4.709   9.153   5.079  0.5177 -0.7942 -0.1140
 1623SOL    HW215799   4.840   9.250   5.078 -1.2739  1.6684  0.5091
 1624SOL     OW15800   3.871   3.256   5.124 -0.2512  0.0090 -0.0135
 1624SOL    HW115801   3.843   3.347   5.093  0.5181  0.5998  1.0073
 1624SOL    HW215802   3.858   3.249   5.223  2.8267  0.1883  0.4495
 1625SOL     OW15803   8.054   0.471   3.458 -0.0892  0.1804 -0.8737
 1625SOL    HW115804   8.116   0.396   3.479 -0.5043 -0.2293 -1.1010
 1625SOL    HW215805   8.104   0.543   3.410  0.2397 -0.0782 -0.9213
 1626SOL     OW15806   9.423   4.345   3.577 -0.1692  0.1052 -0.4866
 1626SOL    HW115807   9.436   4.250   3.605 -0.9555 -0.5599 -2.2955
 1626SOL    HW215808   9.412   4.402   3.658  0.6439 -1.2871  0.6341
 1627SOL     OW15809   8.247   3.439   4.352  0.0090  0.2057 -0.3687
 1627SOL    HW115810   8.252   3.529   4.397  0.7953 -0.4429  0.8661
 1627SOL    HW215811   8.153   3.404   4.360  0.1806  0.0021  1.0066
 1628SOL     OW15812   0.822   6.806   2.521 -0.6906 -0.0247  0.2657
 1628SOL    HW115813   0.792   6.741   2.590 -0.1327 -2.6198 -1.8355
 1628SOL    HW215814   0.761   6.884   2.519 -0.4558  0.3012  3.9435
 1629SOL     OW15815   2.750   6.440   5.192 -0.0964 -0.2078  0.2920
 1629SOL    HW115816   2.686   6.517   5.185 -3.0898 -2.6514 -0.1076
 1629SOL    HW215817   2.773   6.407   5.101  1.1067  0.1017  0.4673
 1630SOL     OW15818   5.354   7.292   1.626 -0.3144 -0.3704 -0.0882
 1630SOL    HW115819   5.449   7.262   1.628 -0.3345 -0.3712  1.7457
 1630SOL    HW215820   5.329   7.331   1.715 -1.8120  0.3083 -0.7810
 1631SOL     OW15821   1.263   7.389   2.627 -0.3217 -0.2036  0.5868
 1631SOL    HW115822   1.203   7.339   2.565 -0.9904 -0.6892  1.6136
 1631SOL    HW215823   1.273   7.337   2.713  0.9302  0.2473  0.7275
 1632SOL     OW15824   3.726   9.058   2.762 -0.4127  0.3084 -0.8223
 1632SOL    HW115825   3.728   8.958   2.763 -0.9584  0.2895  1.6196
 1632SOL    HW215826   3.662   9.090   2.692  1.0121 -1.0064 -2.7620
 1633SOL     OW15827   2.876   3.259   0.632  0.4113  0.5992  0.0736
 1633SOL    HW115828   2.787   3.230   0.666  1.4999 -0.1722  2.4014
 1633SOL    HW215829   2.886   3.234   0.536 -0.5449 -2.4386  0.7400
 1634SOL     OW15830   8.685   9.659   2.898  0.1511  0.4183  0.1887
 1634SOL    HW115831   8.745   9.736   2.874 -1.1449  1.9171  1.5863
 1634SOL    HW215832   8.704   9.631   2.992  1.8799 -2.2286 -0.8966
 1635SOL     OW15833   8.005   9.128   4.243 -0.3358  0.3533 -0.0788
 1635SOL    HW115834   7.953   9.080   4.314 -1.2859  0.2861 -0.8037
 1635SOL    HW215835   7.947   9.141   4.162  0.0629  2.2794 -0.0758
 1636SOL     OW15836   1.013   5.647   1.817  0.0543 -0.0049  0.6250
 1636SOL    HW115837   0.954   5.580   1.770 -0.6786 -0.1163  1.6843
 1636SOL    HW215838   0.967   5.736   1.819  0.2581  0.0971  0.7889
 1637SOL     OW15839   3.059   8.895   1.586 -0.5334  0.6040  0.3070
 1637SOL    HW115840   3.104   8.912   1.674 -0.4540  1.9178  0.0310
 1637SOL    HW215841   3.007   8.977   1.560 -0.6736  0.1625 -0.8019
 1638SOL     OW15842   0.756   2.393   2.776  0.2354 -0.0207  0.0293
 1638SOL    HW115843   0.711   2.467   2.726  0.0966 -0.7386 -0.9179
 1638SOL    HW215844   0.787   2.427   2.864  1.5224  1.5772 -1.0182
 1639SOL     OW15845   3.288   7.646   1.059  0.1064  0.4912  0.0709
 1639SOL    HW115846   3.219   7.715   1.040  0.3373  0.1935 -1.9260
 1639SOL    HW215847   3.313   7.599   0.975 -0.2490 -2.2387  1.4140
 1640SOL     OW15848   5.292   4.077   2.303 -0.1554 -0.1768  0.0778
 1640SOL    HW115849   5.261   4.068   2.209  1.0124 -2.3024 -0.1474
 1640SOL    HW215850   5.215   4.066   2.365 -1.2208  2.8495 -0.6175
 1641SOL     OW15851   0.611   2.125   4.212 -0.2420  0.0734 -0.3446
 1641SOL    HW115852   0.581   2.069   4.290  0.1572  0.2050 -0.0935
 1641SOL    HW215853   0.545   2.116   4.137 -1.7770  1.6455  0.7736
 1642SOL     OW15854   8.814   9.588   1.844 -0.2267  0.4045  0.2366
 1642SOL    HW115855   8.905   9.572   1.883 -0.7742 -0.7292  1.0656
 1642SOL    HW215856   8.823   9.621   1.750  1.0232 -0.5038  0.0328
 1643SOL     OW15857   5.041   0.349   1.918  0.0612  0.1145  0.2092
 1643SOL    HW115858   5.070   0.272   1.974 -1.7205 -0.5180  0.2992
 1643SOL    HW215859   5.086   0.345   1.829  0.9356 -0.3199  0.6730
 1644SOL     OW15860   1.115   2.883   0.608 -0.1385  0.1108 -0.2138
 1644SOL    HW115861   1.182   2.913   0.676  1.4274 -2.8534 -0.3378
 1644SOL    HW215862   1.144   2.913   0.518  0.5698 -0.3830 -0.1585
 1645SOL     OW15863   7.423   9.165   5.536 -0.0201 -0.7306  0.2227
 1645SOL    HW115864   7.360   9.215   5.596  0.9415 -0.5590  1.1086
 1645SOL    HW215865   7.516   9.176   5.570  0.7026  0.4224 -2.0530
 1646SOL     OW15866   9.980   6.438   2.938 -0.1408  0.1412  0.0438
 1646SOL    HW115867   9.940   6.367   2.880  0.5300  0.5766 -0.9719
 1646SOL    HW215868  10.009   6.515   2.881 -0.3355  0.9853  1.0701
 1647SOL     OW15869   7.542   9.109   1.556 -1.0298 -0.4440 -0.0259
 1647SOL    HW115870   7.587   9.021   1.572 -1.2368 -0.6295 -0.4628
 1647SOL    HW215871   7.461   9.095   1.499 -1.5707 -0.0988  0.6541
 1648SOL     OW15872   7.963   5.372   4.795  0.0514  0.0523  0.9211
 1648SOL    HW115873   7.955   5.447   4.731  0.5902  1.2733  2.2663
 1648SOL    HW215874   8.011   5.296   4.752  2.1970  1.6007  0.5358
 1649SOL     OW15875   7.340   0.740   2.675  0.7252  0.6584  0.4915
 1649SOL    HW115876   7.390   0.755   2.590  0.9565 -0.5270  0.4147
 1649SOL    HW215877   7.242   0.738   2.657  0.8159 -0.5517  0.0984
 1650SOL     OW15878   8.320   0.181   4.578  0.0743 -0.4330  0.4772
 1650SOL    HW115879   8.305   0.089   4.544  0.3780 -0.3898  0.2310
 1650SOL    HW215880   8.268   0.246   4.523  1.2305 -0.2731 -0.4371
 1651SOL     OW15881   7.027   7.223   3.397  1.1288 -0.0873 -0.0337
 1651SOL    HW115882   7.078   7.309   3.410 -2.1045  1.8949  0.1481
 1651SOL    HW215883   7.006   7.183   3.486  0.3656  0.3535 -0.0098
 1652SOL     OW15884   8.730   8.223   1.307  0.0491  0.0293 -0.1470
 1652SOL    HW115885   8.719   8.126   1.329 -0.6471  0.0354 -0.4573
 1652SOL    HW215886   8.655   8.253   1.247  0.6232  0.5926 -0.5955
 1653SOL     OW15887   2.292   8.521   3.427 -0.1462  0.2313  0.2894
 1653SOL    HW115888   2.233   8.602   3.422  0.9922  1.0106 -0.6535
 1653SOL    HW215889   2.382   8.543   3.391  0.2030 -1.4437  0.1109
 1654SOL     OW15890   7.855   9.521   1.077  0.0382 -0.1049  0.1690
 1654SOL    HW115891   7.905   9.457   1.134 -1.8468 -0.6149  1.2813
 1654SOL    HW215892   7.795   9.471   1.014 -0.5679  0.5273  0.2328
 1655SOL     OW15893   0.531   9.141   1.695 -0.0483 -0.2193  0.1121
 1655SOL    HW115894   0.558   9.050   1.665 -0.3083 -0.8343  1.6891
 1655SOL    HW215895   0.431   9.149   1.693 -0.1037 -0.4945  1.4162
 1656SOL     OW15896   8.904   1.293   5.083  0.1723 -0.0598  0.1606
 1656SOL    HW115897   8.856   1.357   5.023  2.0171  0.8109 -0.4217
 1656SOL    HW215898   8.885   1.315   5.179  0.0739  0.7812 -0.0567
 1657SOL     OW15899   1.124   6.838   5.500  0.2182  0.0880 -0.0270
 1657SOL    HW115900   1.085   6.860   5.589  1.0046  1.0042  0.0923
 1657SOL    HW215901   1.149   6.922   5.452  1.8079 -0.4634 -0.2023
 1658SOL     OW15902   2.564   4.518   5.235 -0.3628  0.1252 -0.1993
 1658SOL    HW115903   2.589   4.506   5.331 -1.7027 -0.5344  0.0870
 1658SOL    HW215904   2.528   4.431   5.199  0.9113  0.1295 -1.5423
 1659SOL     OW15905   9.937   3.086   1.695 -0.0166  0.1614  0.5633
 1659SOL    HW115906   9.984   3.026   1.761  0.2272  0.3442  0.5593
 1659SOL    HW215907   9.934   3.041   1.606 -1.2790 -0.5318  0.9470
 1660SOL     OW15908   5.532   7.013   1.851  0.2646  0.5299  0.4619
 1660SOL    HW115909   5.516   6.971   1.941 -0.8974  0.3234  0.1756
 1660SOL    HW215910   5.508   6.947   1.779 -2.2079  1.8521  0.0015
 1661SOL     OW15911   7.776   2.549   2.681  0.3903  0.4767 -0.0356
 1661SOL    HW115912   7.862   2.598   2.667  0.1159  1.7146  2.2645
 1661SOL    HW215913   7.700   2.604   2.647  0.0450  1.9316  2.9074
 1662SOL     OW15914   9.288   8.641   0.688 -0.0375  0.0596 -0.1260
 1662SOL    HW115915   9.289   8.596   0.777 -0.1805  0.0021 -0.1529
 1662SOL    HW215916   9.267   8.738   0.699 -0.4867 -0.0356 -0.1357
 1663SOL     OW15917   0.340   1.569   4.838  0.3858  0.7689  0.1621
 1663SOL    HW115918   0.258   1.622   4.815  0.4157  1.6069  1.9314
 1663SOL    HW215919   0.419   1.629   4.843  0.9025  0.1398 -0.4228
 1664SOL     OW15920   1.335   5.021   2.005  0.0935 -0.3192  0.2702
 1664SOL    HW115921   1.296   5.113   1.998 -3.9024 -1.9915 -0.7336
 1664SOL    HW215922   1.350   4.999   2.102 -1.6251  0.3589  0.7161
 1665SOL     OW15923   8.789   6.840   2.397  0.2498  0.4166 -0.4741
 1665SOL    HW115924   8.787   6.904   2.320  1.9499  0.0299 -0.8498
 1665SOL    HW215925   8.872   6.854   2.450 -0.7671  0.4805  1.1423
 1666SOL     OW15926   7.783   1.051   5.559 -0.5025 -0.4876  0.7671
 1666SOL    HW115927   7.878   1.080   5.544 -0.3693 -0.4553  1.6453
 1666SOL    HW215928   7.740   1.110   5.627 -1.4977  0.1697 -0.4241
 1667SOL     OW15929   3.684   0.921   0.738 -0.1731  0.1287 -0.8728
 1667SOL    HW115930   3.691   0.936   0.837 -2.3589  0.1922 -0.7027
 1667SOL    HW215931   3.708   0.827   0.716  1.5748  0.4631 -0.4429
 1668SOL     OW15932   1.400   2.372   3.452 -0.3901 -0.3852 -0.3834
 1668SOL    HW115933   1.427   2.315   3.375  0.2316  0.0784 -0.5101
 1668SOL    HW215934   1.478   2.425   3.484 -0.9403  0.3297 -0.2038
 1669SOL     OW15935   3.406   1.442   4.613  0.0528  0.1530  0.5960
 1669SOL    HW115936   3.358   1.423   4.528  0.7359  1.3161 -0.0692
 1669SOL    HW215937   3.346   1.491   4.676  0.2328  1.2810 -0.0944
 1670SOL     OW15938   3.314   8.091   1.864  0.2037 -0.2161  0.1828
 1670SOL    HW115939   3.278   8.048   1.947  0.2024  0.1416  0.3683
 1670SOL    HW215940   3.257   8.169   1.839  0.3450 -0.1778 -0.0184
 1671SOL     OW15941   3.297   2.790   0.877 -0.0397  0.2898  0.2715
 1671SOL    HW115942   3.296   2.746   0.967 -0.2109 -2.3233 -0.9477
 1671SOL    HW215943   3.383   2.840   0.865  0.0198  0.5825  1.8410
 1672SOL     OW15944   6.661   1.020   2.024 -0.2229  0.3042 -0.6432
 1672SOL    HW115945   6.591   1.091   2.034 -1.2690 -0.6924 -0.8504
 1672SOL    HW215946   6.751   1.063   2.022 -0.9131  1.7509 -2.0227
 1673SOL     OW15947   7.919   4.237   4.631 -0.2775  0.4818  0.0837
 1673SOL    HW115948   7.935   4.204   4.538  0.6015  2.2099 -0.4017
 1673SOL    HW215949   7.979   4.187   4.694  0.0100  0.1537 -0.4372
 1674SOL     OW15950   8.824   7.601   3.813 -0.0023  0.0976  0.1370
 1674SOL    HW115951   8.899   7.537   3.796 -0.4690 -0.3772 -0.1286
 1674SOL    HW215952   8.758   7.596   3.738 -0.1984  0.6653  0.2671
 1675SOL     OW15953   3.353   4.498   4.852  0.0396  0.1473 -0.0156
 1675SOL    HW115954   3.430   4.445   4.816  0.2098  0.2439  0.2009
 1675SOL    HW215955   3.298   4.441   4.913  0.8919  0.5297  1.1533
 1676SOL     OW15956   4.057   1.632   1.089 -0.2182 -0.1364  0.4944
 1676SOL    HW115957   4.016   1.556   1.039 -0.1453  0.0812  0.0954
 1676SOL    HW215958   4.103   1.598   1.171 -1.0170 -0.4015  0.8333
 1677SOL     OW15959   2.548   1.431   4.367 -1.0215  0.0876  0.4537
 1677SOL    HW115960   2.482   1.477   4.309 -0.2464  1.6090  0.7674
 1677SOL    HW215961   2.529   1.451   4.463 -0.0435  0.6051  0.5395
 1678SOL     OW15962   1.479   4.126   1.901 -0.1101 -0.0204  0.1666
 1678SOL    HW115963   1.520   4.095   1.815 -0.0716 -1.8159  0.8163
 1678SOL    HW215964   1.429   4.211   1.884  1.6033  0.7591 -1.1941
 1679SOL     OW15965   8.611   3.741   1.192 -0.2350 -0.3348  0.2802
 1679SOL    HW115966   8.652   3.733   1.101  1.6264  0.3588  1.0403
 1679SOL    HW215967   8.671   3.795   1.251 -2.0093  0.2507  1.5817
 1680SOL     OW15968   5.659   7.964   3.218  0.6600 -0.1826  1.0836
 1680SOL    HW115969   5.676   8.026   3.142  0.3210 -0.6404  0.6329
 1680SOL    HW215970   5.694   8.004   3.302  0.9732  0.3545  0.6975
 1681SOL     OW15971   2.620   3.158   0.688  0.0250  0.6844 -0.1548
 1681SOL    HW115972   2.540   3.158   0.747 -0.4415  0.4272 -0.7822
 1681SOL    HW215973   2.603   3.215   0.608  0.4227  0.5345 -0.3504
 1682SOL     OW15974   4.330   8.436   5.030 -0.0021 -0.2659 -0.0785
 1682SOL    HW115975   4.296   8.428   4.936  0.7424  0.0971 -0.3830
 1682SOL    HW215976   4.407   8.373   5.043  0.9900  0.8951 -0.2219
 1683SOL     OW15977   7.852   2.493   2.048  0.1929 -0.7325  0.4286
 1683SOL    HW115978   7.842   2.438   1.965  1.5207 -2.6252  1.4610
 1683SOL    HW215979   7.906   2.574   2.028  2.3977 -2.2802 -0.1404
 1684SOL     OW15980   8.652   2.020   3.553 -0.4388  0.1620  0.3984
 1684SOL    HW115981   8.651   1.933   3.504  1.7494 -0.0171  0.6494
 1684SOL    HW215982   8.633   2.094   3.488 -0.9265 -0.3616 -0.0726
 1685SOL     OW15983   7.855   3.158   5.081 -0.0935  0.2978  0.4016
 1685SOL    HW115984   7.879   3.207   5.164  0.3827 -1.2892  1.2137
 1685SOL    HW215985   7.765   3.115   5.092 -0.6247  1.1740 -0.4015
 1686SOL     OW15986   1.927   9.349   4.818 -0.5931 -0.3327  0.4463
 1686SOL    HW115987   1.924   9.418   4.891  0.4206 -0.7870  0.9279
 1686SOL    HW215988   1.944   9.395   4.731 -0.0263  0.0510  0.7497
 1687SOL     OW15989   0.996   2.702   1.024 -0.1908 -0.4166  0.3444
 1687SOL    HW115990   1.057   2.744   1.091 -1.7200  0.2525  1.3550
 1687SOL    HW215991   0.916   2.761   1.010  0.9087  0.2938 -3.4038
 1688SOL     OW15992   7.560   9.831   0.355 -0.1864 -0.5903 -0.3115
 1688SOL    HW115993   7.630   9.821   0.427 -0.4013  0.2723  0.0186
 1688SOL    HW215994   7.599   9.804   0.267  0.8499  0.7784 -0.2849
 1689SOL     OW15995   6.344   6.994   3.824 -0.7901 -0.3290 -0.5006
 1689SOL    HW115996   6.272   6.927   3.846  0.6461 -1.9738 -0.6917
 1689SOL    HW215997   6.371   6.983   3.729 -0.3765  0.3862 -0.4669
 1690SOL     OW15998   8.773   6.735   5.294 -0.1601  0.0860 -0.0238
 1690SOL    HW115999   8.803   6.646   5.328 -0.6547  0.0277  0.2586
 1690SOL    HW216000   8.674   6.743   5.304 -0.0721  0.8107  0.2737
 1691SOL     OW16001   0.368   9.168   0.268 -0.2061  0.1332 -0.1877
 1691SOL    HW116002   0.372   9.181   0.367 -1.1860 -0.4556 -0.0629
 1691SOL    HW216003   0.282   9.207   0.233  0.6051  1.2725 -0.9550
 1692SOL     OW16004   9.846   9.682   2.116  0.2489  0.8769 -0.2579
 1692SOL    HW116005   9.828   9.691   2.214  0.8860  0.7317 -0.1271
 1692SOL    HW216006   9.885   9.767   2.081  0.2089  0.8589 -0.3458
 1693SOL     OW16007   1.689   3.137   5.197  0.1022 -0.5456 -0.7780
 1693SOL    HW116008   1.758   3.171   5.261  0.5826 -0.1940 -1.4817
 1693SOL    HW216009   1.643   3.215   5.154 -1.8465 -0.7506  0.8647
 1694SOL     OW16010   2.511   9.733   0.950 -0.2098 -0.1666  0.1588
 1694SOL    HW116011   2.421   9.745   0.991 -0.6412 -0.1228 -0.7915
 1694SOL    HW216012   2.502   9.688   0.862  0.7802 -0.9828  0.4600
 1695SOL     OW16013   3.335   5.603   0.889 -0.4898 -0.1352  0.2101
 1695SOL    HW116014   3.242   5.641   0.895 -1.2028 -1.7179 -0.4177
 1695SOL    HW216015   3.353   5.548   0.971 -0.9962 -1.7060 -0.7004
 1696SOL     OW16016   2.989   9.328   1.693 -0.1698  0.6486 -0.0414
 1696SOL    HW116017   2.896   9.293   1.709 -0.0031 -1.1223 -2.5711
 1696SOL    HW216018   3.043   9.319   1.777 -1.8099  0.1211  0.9871
 1697SOL     OW16019   4.992   0.543   0.548 -0.1660  0.0357 -0.9469
 1697SOL    HW116020   5.005   0.603   0.469 -0.6129  0.2660 -0.8502
 1697SOL    HW216021   4.915   0.482   0.530  0.1100 -0.3187 -0.9304
 1698SOL     OW16022   2.352   6.598   0.690  0.2515  0.1578  0.8403
 1698SOL    HW116023   2.421   6.641   0.749  0.4031 -0.0318  0.7993
 1698SOL    HW216024   2.381   6.606   0.594  0.9937 -1.3320  0.9293
 1699SOL     OW16025   9.004   0.059   0.571 -0.5748  0.2942  0.6022
 1699SOL    HW116026   9.045  -0.032   0.576 -1.0566  0.0895  0.8868
 1699SOL    HW216027   8.999   0.098   0.663 -0.3319  0.6263  0.4757
 1700SOL     OW16028   4.998   7.592   4.139  0.0959 -0.0574  0.0063
 1700SOL    HW116029   4.986   7.557   4.232 -0.0855 -0.8119 -0.2915
 1700SOL    HW216030   4.951   7.679   4.129 -0.7122 -0.4486  0.3416
 1701SOL     OW16031   6.365   0.444   5.471  0.0853 -0.0316 -0.3296
 1701SOL    HW116032   6.287   0.460   5.410  0.9533 -0.0206 -1.4524
 1701SOL    HW216033   6.392   0.348   5.466  1.6514  0.4484 -1.8072
 1702SOL     OW16034   2.853   2.063   0.652 -0.0474 -0.0844  0.6568
 1702SOL    HW116035   2.770   2.090   0.701 -0.3934  1.3684 -0.6862
 1702SOL    HW216036   2.861   2.117   0.568  1.0197 -1.8746 -0.4218
 1703SOL     OW16037   1.201   4.332   2.990 -0.2638  0.1906  0.3027
 1703SOL    HW116038   1.134   4.259   2.980  0.9867 -0.6008 -2.9517
 1703SOL    HW216039   1.291   4.299   2.961  0.5466  2.6925 -0.1377
 1704SOL     OW16040   8.776   6.094   4.810  0.1914  0.7749  0.3352
 1704SOL    HW116041   8.871   6.061   4.813  0.5519  1.8532  1.2134
 1704SOL    HW216042   8.776   6.193   4.819 -1.1205  0.6278  2.3947
 1705SOL     OW16043   8.850   7.985   2.802 -0.5833 -0.1212 -0.4566
 1705SOL    HW116044   8.831   7.892   2.772  1.6567 -1.0327  0.8459
 1705SOL    HW216045   8.814   7.998   2.895 -0.3963  0.1445 -0.4199
 1706SOL     OW16046   2.539   9.126   2.183  0.4277  0.3200 -0.4281
 1706SOL    HW116047   2.565   9.056   2.117 -2.2390 -1.1328 -0.0193
 1706SOL    HW216048   2.586   9.110   2.269  1.1128  0.0228 -0.8559
 1707SOL     OW16049   4.095   2.863   3.538  0.1241  0.2068  0.5099
 1707SOL    HW116050   4.066   2.836   3.629 -0.4621 -0.0311  0.2508
 1707SOL    HW216051   4.177   2.920   3.545  0.1575  0.0785  1.1737
 1708SOL     OW16052   8.515   6.696   5.402 -0.3929  0.0539 -0.6201
 1708SOL    HW116053   8.485   6.783   5.362 -0.5584 -1.4463 -3.9516
 1708SOL    HW216054   8.516   6.703   5.501 -2.2952  3.2388 -0.7660
 1709SOL     OW16055   1.626   4.637   2.659 -0.6496 -0.1271  0.1409
 1709SOL    HW116056   1.603   4.555   2.710  0.1556 -1.7398 -1.9942
 1709SOL    HW216057   1.543   4.678   2.622 -1.1615  0.6602  2.1320
 1710SOL     OW16058   6.864   1.325   3.568  0.0857 -0.1367 -0.2339
 1710SOL    HW116059   6.813   1.249   3.608 -0.6921  1.1077  1.2283
 1710SOL    HW216060   6.803   1.404   3.559  0.9070  0.3531 -1.6140
 1711SOL     OW16061   7.703   8.947   3.545 -0.1741  0.3012 -0.9100
 1711SOL    HW116062   7.722   8.989   3.457  0.0546  0.2053 -0.9066
 1711SOL    HW216063   7.767   8.872   3.561 -2.1656 -1.7204 -2.0510
 1712SOL     OW16064   9.744   1.141   4.176  0.2451 -0.3137  0.1856
 1712SOL    HW116065   9.690   1.150   4.259  0.7376  0.4173  0.4336
 1712SOL    HW216066   9.706   1.068   4.119 -0.0207 -0.8899  1.0993
 1713SOL     OW16067   0.153   3.516   1.742 -0.1929 -0.0902  0.3980
 1713SOL    HW116068   0.253   3.524   1.743 -0.2234  0.3550 -0.0759
 1713SOL    HW216069   0.120   3.518   1.648 -0.6088 -0.8093  0.5195
 1714SOL     OW16070   3.713   7.858   3.276 -0.3932 -0.0895  0.0666
 1714SOL    HW116071   3.693   7.925   3.204  0.8528  2.2323  1.8487
 1714SOL    HW216072   3.798   7.810   3.254  1.3393  2.4132  1.2508
 1715SOL     OW16073   2.326   0.101   5.441 -0.1407  0.2492  0.0041
 1715SOL    HW116074   2.287   0.053   5.363  1.0982 -0.4455 -0.2155
 1715SOL    HW216075   2.365   0.188   5.411  1.2706 -0.4926 -0.3656
 1716SOL     OW16076   4.122   2.198   3.725 -0.3846  0.6507  0.0105
 1716SOL    HW116077   4.128   2.150   3.637  2.5544  1.2626 -0.1700
 1716SOL    HW216078   4.151   2.293   3.712 -1.3178  1.1395  1.3857
 1717SOL     OW16079   0.300   1.962   0.105  0.2732  0.0755 -0.3980
 1717SOL    HW116080   0.251   2.004   0.181  1.3763  0.1641  0.2802
 1717SOL    HW216081   0.398   1.960   0.126  0.3338 -2.1051 -0.7460
 1718SOL     OW16082   7.063   1.023   0.077  0.4281 -0.0205  0.2235
 1718SOL    HW116083   7.126   0.954   0.114  0.0076 -0.7651 -0.4287
 1718SOL    HW216084   7.082   1.036  -0.020 -1.0509 -0.9622 -0.2115
 1719SOL     OW16085   9.625   1.099   5.104 -0.6411  0.3584  0.4449
 1719SOL    HW116086   9.554   1.157   5.145 -0.5505  1.6709 -1.1550
 1719SOL    HW216087   9.593   1.065   5.016  0.3021  0.0600  0.2074
 1720SOL     OW16088   1.103   8.497   1.876 -0.7893  0.0572 -0.5419
 1720SOL    HW116089   1.098   8.566   1.803 -0.1793 -0.7773 -1.3970
 1720SOL    HW216090   1.088   8.540   1.964 -0.0474  1.3488 -1.0344
 1721SOL     OW16091   5.952   1.458   2.114 -0.7831  0.3905 -0.1635
 1721SOL    HW116092   5.887   1.417   2.178  1.1199 -0.2401  1.4296
 1721SOL    HW216093   6.007   1.526   2.163  0.2683  0.3683 -1.3043
 1722SOL     OW16094   6.637   9.288   1.965 -0.1098 -0.2019 -0.1516
 1722SOL    HW116095   6.614   9.194   1.990 -0.6162  0.3308  1.4215
 1722SOL    HW216096   6.558   9.332   1.922  0.3793 -0.7401 -1.6138
 1723SOL     OW16097   8.136   4.184   0.527  0.0720 -0.3600  0.0892
 1723SOL    HW116098   8.150   4.239   0.609 -0.8814 -0.1547  0.1264
 1723SOL    HW216099   8.131   4.087   0.552  1.2097 -0.4232  0.0914
 1724SOL     OW16100   8.462   0.572   3.104 -0.3126 -0.0931  0.4924
 1724SOL    HW116101   8.364   0.589   3.120 -0.3740  0.6272 -0.6720
 1724SOL    HW216102   8.476   0.473   3.095 -0.5617 -0.4177  3.0238
 1725SOL     OW16103   8.888   4.743   0.887 -0.5947  0.1695  0.1905
 1725SOL    HW116104   8.826   4.821   0.884 -1.9492 -0.8287  1.7526
 1725SOL    HW216105   8.932   4.738   0.976  0.5540 -0.0450 -0.3773
 1726SOL     OW16106   9.698   7.543   4.237  0.0599 -0.2300 -0.0678
 1726SOL    HW116107   9.689   7.447   4.264 -0.5462 -0.4044 -0.8871
 1726SOL    HW216108   9.743   7.548   4.148  0.6774  0.2840  0.2627
 1727SOL     OW16109   3.154   8.839   2.278 -0.2283 -0.1727  0.1847
 1727SOL    HW116110   3.180   8.935   2.270  1.2572 -0.6104 -0.5241
 1727SOL    HW216111   3.150   8.799   2.187 -0.5821 -0.8448  0.4969
 1728SOL     OW16112   9.965   2.649   2.677 -0.2859  0.3137 -0.2748
 1728SOL    HW116113   9.994   2.633   2.583 -0.0651  0.2821 -0.2018
 1728SOL    HW216114   9.973   2.564   2.729 -0.8991  0.2064 -0.3579
 1729SOL     OW16115   8.900   2.780   1.913  0.1954  0.3289 -0.0909
 1729SOL    HW116116   8.972   2.714   1.891 -0.1265 -0.3765  0.9079
 1729SOL    HW216117   8.923   2.827   1.999  0.9956  2.3828 -1.3950
 1730SOL     OW16118   0.496   5.423   4.825  0.7791  0.1198 -0.5477
 1730SOL    HW116119   0.464   5.498   4.882 -0.2570 -0.5038 -0.2970
 1730SOL    HW216120   0.424   5.353   4.818  1.6223 -0.7146 -1.0083
 1731SOL     OW16121   8.146   2.289   4.397  0.4281  0.3420 -0.3438
 1731SOL    HW116122   8.139   2.224   4.472 -0.3874  1.4879  0.5986
 1731SOL    HW216123   8.184   2.243   4.316  0.6191 -1.0821  0.5355
 1732SOL     OW16124   1.137   7.706   1.711  0.3456  0.0527 -0.1207
 1732SOL    HW116125   1.192   7.782   1.675  0.4628 -0.4052 -0.9217
 1732SOL    HW216126   1.119   7.641   1.638 -0.8373 -0.0584  0.2580
 1733SOL     OW16127   2.521   2.271   1.550 -0.0764  0.2042  0.2600
 1733SOL    HW116128   2.609   2.223   1.545  0.6591  1.3413  1.7577
 1733SOL    HW216129   2.492   2.296   1.458  0.3865 -1.5592 -0.3846
 1734SOL     OW16130   9.138   6.268   4.884 -0.5723 -0.2630  0.5508
 1734SOL    HW116131   9.053   6.321   4.896 -0.2326  0.9482 -2.0743
 1734SOL    HW216132   9.116   6.179   4.843 -0.7448 -0.6181  1.4110
 1735SOL     OW16133   3.048   8.187   0.048 -0.1714  0.2997  0.3656
 1735SOL    HW116134   3.080   8.262   0.106 -0.2309  2.9417 -2.8850
 1735SOL    HW216135   3.100   8.187  -0.038 -2.3085 -1.4546 -0.9700
 1736SOL     OW16136   2.875   2.794   0.521 -0.4460 -0.3154  0.5068
 1736SOL    HW116137   2.933   2.769   0.597 -0.4752 -0.5043  0.4665
 1736SOL    HW216138   2.786   2.825   0.555 -0.5870 -0.7471  0.5324
 1737SOL     OW16139   3.088   4.137   4.596 -0.1198  0.0463 -0.0817
 1737SOL    HW116140   3.160   4.072   4.573 -0.3281 -0.6734  1.2970
 1737SOL    HW216141   3.124   4.230   4.587  1.7138 -0.3168  2.8133
 1738SOL     OW16142   3.831   4.229   2.052 -0.5905  0.0897 -0.1177
 1738SOL    HW116143   3.737   4.209   2.080 -0.4612 -0.9396 -0.4065
 1738SOL    HW216144   3.889   4.150   2.072  0.1160  0.5269 -0.4208
 1739SOL     OW16145   0.358   8.903   3.205  0.4516 -0.0466 -0.0815
 1739SOL    HW116146   0.316   8.825   3.251  0.5922  0.2592  0.5683
 1739SOL    HW216147   0.458   8.894   3.208  0.4685  0.1961  0.0476
 1740SOL     OW16148   4.385   8.665   3.934 -0.0260 -0.1159 -0.5251
 1740SOL    HW116149   4.484   8.667   3.915 -0.0924 -0.3222 -0.9082
 1740SOL    HW216150   4.341   8.739   3.883 -0.2897 -1.0502 -1.6937
 1741SOL     OW16151   3.870   1.864   2.591  0.3243 -0.0928  0.0831
 1741SOL    HW116152   3.787   1.905   2.553 -0.4793 -0.6167  1.2401
 1741SOL    HW216153   3.863   1.765   2.587  0.8512 -0.1400  0.2861
 1742SOL     OW16154   0.085   3.680   4.994  0.1967 -0.2996 -0.2162
 1742SOL    HW116155   0.137   3.683   4.909  1.6826  0.8530  0.7069
 1742SOL    HW216156   0.144   3.707   5.070 -1.7344  0.8806  0.8936
 1743SOL     OW16157   8.778   6.384   2.360  0.0226  0.0037 -0.2868
 1743SOL    HW116158   8.779   6.483   2.347  0.1044 -0.0727 -0.9177
 1743SOL    HW216159   8.768   6.362   2.457  1.5788  0.6488  0.0452
 1744SOL     OW16160   4.918   1.033   5.270  0.0408  0.2082  0.2168
 1744SOL    HW116161   4.930   1.067   5.363  0.4695  0.3454  0.1115
 1744SOL    HW216162   4.943   0.936   5.266  2.0082  0.7116 -0.1915
 1745SOL     OW16163   9.946   4.319   2.390 -0.3924  0.1771  0.0896
 1745SOL    HW116164   9.988   4.308   2.300 -0.3902  0.6270  0.0348
 1745SOL    HW216165   9.964   4.238   2.445 -1.1403 -0.4685 -0.6151
 1746SOL     OW16166   9.559   9.178   2.347  0.0903  0.1629 -0.0167
 1746SOL    HW116167   9.624   9.135   2.285  1.0361 -1.0148  1.7473
 1746SOL    HW216168   9.501   9.242   2.296  0.9059 -0.6997 -2.0651
 1747SOL     OW16169   9.596   4.702   2.204 -0.4211  0.4334 -0.1508
 1747SOL    HW116170   9.657   4.647   2.260 -0.6043  1.7013  1.3218
 1747SOL    HW216171   9.510   4.653   2.189 -0.2566 -0.0319  0.4473
 1748SOL     OW16172   3.477   4.866   0.571 -0.5198  0.2985  0.4023
 1748SOL    HW116173   3.553   4.832   0.627 -0.8541  0.3801  0.9037
 1748SOL    HW216174   3.416   4.790   0.547 -0.7458  0.3828  0.7166
 1749SOL     OW16175   8.558   8.120   5.243  0.7869  0.3298  0.3467
 1749SOL    HW116176   8.479   8.172   5.275  2.1482  2.2458  0.6636
 1749SOL    HW216177   8.551   8.105   5.144  0.5882  1.4818  0.1840
 1750SOL     OW16178   3.765   8.195   3.237 -0.1746 -0.2131 -0.3078
 1750SOL    HW116179   3.835   8.207   3.166 -1.7983  0.9407 -1.7479
 1750SOL    HW216180   3.693   8.135   3.203 -2.1247  2.1885 -0.5346
 1751SOL     OW16181   7.671   0.567   5.043 -0.1937 -0.1796 -0.3092
 1751SOL    HW116182   7.644   0.598   4.952 -0.1622 -0.4828 -0.4217
 1751SOL    HW216183   7.590   0.561   5.102 -0.1551  0.4589 -0.1796
 1752SOL     OW16184   2.229   8.525   0.829  0.3857 -0.4204  0.0362
 1752SOL    HW116185   2.195   8.509   0.736  2.2485  1.5066 -1.0277
 1752SOL    HW216186   2.155   8.508   0.895 -0.9347 -1.9107 -1.7685
 1753SOL     OW16187   3.849   7.599   2.126 -0.4074  0.6820 -0.0892
 1753SOL    HW116188   3.792   7.644   2.057  0.9761  1.4547 -0.7624
 1753SOL    HW216189   3.872   7.664   2.198  0.1155  0.5624 -0.1403
 1754SOL     OW16190   2.455   4.969   1.494 -0.4070 -0.4805 -0.0272
 1754SOL    HW116191   2.408   4.984   1.580  1.9177 -1.5814  1.4796
 1754SOL    HW216192   2.469   4.871   1.479  2.0845 -0.1612 -0.0077
 1755SOL     OW16193   4.278   2.345   0.494 -0.6543  0.4526  0.0431
 1755SOL    HW116194   4.205   2.297   0.445  0.5457 -0.8462 -0.5027
 1755SOL    HW216195   4.367   2.318   0.456  0.2412  0.3230  2.1690
 1756SOL     OW16196   2.172   6.954   5.603  0.0453  0.1961  0.3483
 1756SOL    HW116197   2.130   6.864   5.617 -0.6908  0.6982  1.4333
 1756SOL    HW216198   2.223   6.954   5.517  0.3998 -1.3862  0.5440
 1757SOL     OW16199   4.944   3.259   2.142 -0.3362  0.1936  0.4915
 1757SOL    HW116200   4.991   3.324   2.083 -1.3084 -1.1691 -1.8712
 1757SOL    HW216201   4.966   3.278   2.238  1.2798  2.4554 -0.2922
 1758SOL     OW16202   0.640   1.660   2.682  0.7584  0.2932 -0.2410
 1758SOL    HW116203   0.647   1.645   2.583 -3.0828 -0.1447 -0.5440
 1758SOL    HW216204   0.682   1.747   2.707  0.2450  1.2143 -2.5265
 1759SOL     OW16205   9.553   6.933   5.072  0.1898 -0.2622 -0.3909
 1759SOL    HW116206   9.646   6.938   5.037 -0.1082 -2.3324 -1.5717
 1759SOL    HW216207   9.542   6.850   5.126 -1.3059 -0.6772 -1.2961
 1760SOL     OW16208   3.645   3.555   2.760 -0.1413 -0.0572  0.1182
 1760SOL    HW116209   3.609   3.518   2.846 -0.2730  0.7323  0.4131
 1760SOL    HW216210   3.578   3.542   2.687 -1.5595  2.4763  0.9217
 1761SOL     OW16211   1.522   8.760   2.434 -0.3277 -0.2324  0.6265
 1761SOL    HW116212   1.605   8.804   2.466 -0.0914 -0.4905  0.3749
 1761SOL    HW216213   1.462   8.827   2.391  0.6421 -0.3818 -1.0165
 1762SOL     OW16214   3.549   7.060   1.764  0.3134 -0.2970  0.2706
 1762SOL    HW116215   3.525   7.087   1.671  0.9467  1.9325  0.7213
 1762SOL    HW216216   3.615   6.986   1.762  0.5142 -0.0895 -1.0645
 1763SOL     OW16217   0.334   6.802   5.282  0.1692  0.2698  0.2165
 1763SOL    HW116218   0.293   6.893   5.286 -0.7635 -0.0163 -1.8185
 1763SOL    HW216219   0.290   6.749   5.209 -0.8285 -2.5778  2.7296
 1764SOL     OW16220   6.970   9.883   2.460 -0.0486  0.0988 -0.0546
 1764SOL    HW116221   7.060   9.842   2.446 -0.2065  0.4245 -2.1924
 1764SOL    HW216222   6.972   9.942   2.540  1.2970 -0.8537  0.6348
 1765SOL     OW16223   8.418   9.850   1.761  0.2775 -0.4295  0.3405
 1765SOL    HW116224   8.404   9.756   1.791 -0.7681 -0.5682 -0.5334
 1765SOL    HW216225   8.503   9.886   1.800 -0.1504 -1.1744  1.9984
 1766SOL     OW16226   7.716   9.956   0.897 -0.1390 -0.5257  0.4453
 1766SOL    HW116227   7.638   9.931   0.839 -1.1551 -1.7502  2.3016
 1766SOL    HW216228   7.731   9.885   0.965  1.9111  0.2493  0.8405
 1767SOL     OW16229   5.811   1.792   2.530  0.3641 -0.3567 -0.2187
 1767SOL    HW116230   5.902   1.831   2.542  0.1840  0.3487 -1.0761
 1767SOL    HW216231   5.819   1.693   2.517  0.9454 -0.3999  0.4336
 1768SOL     OW16232   9.621   5.272   3.473 -0.3900  0.1489 -0.2408
 1768SOL    HW116233   9.551   5.203   3.493 -0.0752 -0.2024 -0.3450
 1768SOL    HW216234   9.609   5.350   3.534 -0.7585  0.0070 -0.1289
 1769SOL     OW16235   6.172   1.138   3.773 -0.1577  0.0603 -0.4962
 1769SOL    HW116236   6.255   1.169   3.728  1.5003 -0.6991  1.9111
 1769SOL    HW216237   6.131   1.214   3.824  0.1497 -0.0315 -0.1076
 1770SOL     OW16238   3.811   0.464   2.752 -0.2435 -0.3097 -0.0282
 1770SOL    HW116239   3.847   0.534   2.813 -0.0070 -1.1539  0.8059
 1770SOL    HW216240   3.720   0.436   2.783 -0.0211 -0.9191  0.0874
 1771SOL     OW16241   2.471   4.173   5.488 -0.9184 -0.4238 -0.1887
 1771SOL    HW116242   2.512   4.264   5.494 -0.3617 -0.7846  1.8442
 1771SOL    HW216243   2.382   4.173   5.533 -1.0206 -0.8399 -0.3864
 1772SOL     OW16244   8.151   5.697   1.757  0.5355  0.1814  0.1034
 1772SOL    HW116245   8.231   5.656   1.801 -0.3656  0.3586  1.9541
 1772SOL    HW216246   8.070   5.680   1.814 -1.2058 -2.1621 -2.9222
 1773SOL     OW16247   4.706   8.331   5.293 -0.3548 -0.0351 -0.0454
 1773SOL    HW116248   4.804   8.328   5.314 -0.0663  0.0415 -1.3537
 1773SOL    HW216249   4.693   8.339   5.194 -1.6694  1.4324  0.2331
 1774SOL     OW16250   0.986   3.220   1.929 -0.1140 -0.0390  0.1012
 1774SOL    HW116251   1.038   3.244   1.847 -2.0515 -2.2156 -1.8546
 1774SOL    HW216252   0.975   3.120   1.933 -1.7722  0.1861  1.9187
 1775SOL     OW16253   3.339   3.587   2.959  0.5420 -0.4641  0.3625
 1775SOL    HW116254   3.351   3.560   3.054  0.6863  0.9656  0.7520
 1775SOL    HW216255   3.364   3.683   2.947  1.1038 -0.7854 -1.2396
 1776SOL     OW16256   0.183   8.831   1.136 -0.1146  0.4127 -0.4558
 1776SOL    HW116257   0.261   8.824   1.198 -1.3430 -0.5350  1.0252
 1776SOL    HW216258   0.105   8.871   1.185 -1.2046 -0.6436 -1.3009
 1777SOL     OW16259   5.343   9.542   4.512  0.1183  0.5268  0.2630
 1777SOL    HW116260   5.340   9.630   4.560 -0.6413  0.5401  0.1949
 1777SOL    HW216261   5.436   9.506   4.515  0.9342  2.3990 -1.6364
 1778SOL     OW16262   0.300   8.718   4.590  0.0689 -0.1854 -0.0438
 1778SOL    HW116263   0.292   8.652   4.664 -0.5084 -0.4044 -0.2968
 1778SOL    HW216264   0.209   8.742   4.557  0.1191  2.3721  1.4824
 1779SOL     OW16265   9.757   8.688   3.064 -0.5862 -0.1624  0.4701
 1779SOL    HW116266   9.718   8.777   3.086 -0.3637 -0.0341  0.3554
 1779SOL    HW216267   9.689   8.616   3.079 -1.1517  0.1402 -0.5566
 1780SOL     OW16268   8.952   0.727   5.173 -0.3815 -0.6427 -0.2474
 1780SOL    HW116269   8.964   0.807   5.232  1.6949 -0.5692 -0.7243
 1780SOL    HW216270   8.912   0.652   5.225 -0.1353 -0.0459  0.8073
 1781SOL     OW16271   1.116   8.284   3.104 -0.3327 -0.1446  0.6867
 1781SOL    HW116272   1.090   8.243   3.017 -0.6392  0.2456  0.5940
 1781SOL    HW216273   1.034   8.309   3.156 -0.1623 -1.0802  1.4277
 1782SOL     OW16274   3.603   0.519   0.957 -0.8107  0.5411  0.1107
 1782SOL    HW116275   3.604   0.508   0.857 -1.6410 -1.2363  0.2922
 1782SOL    HW216276   3.623   0.432   1.001 -0.3950  1.3291  1.5190
 1783SOL     OW16277   8.763   4.515   2.760  0.5548 -0.3657  0.1748
 1783SOL    HW116278   8.813   4.476   2.837  1.0182 -1.0365 -0.4642
 1783SOL    HW216279   8.688   4.455   2.733 -1.2196  1.0905  1.7421
 1784SOL     OW16280   8.409   5.596   1.834  0.1892  0.3705 -0.2449
 1784SOL    HW116281   8.490   5.542   1.855 -0.4298 -0.0021  1.2124
 1784SOL    HW216282   8.435   5.676   1.780  1.5340  0.2867  0.2771
 1785SOL     OW16283   9.638   6.885   2.108  0.1950 -0.3256  0.4428
 1785SOL    HW116284   9.591   6.807   2.068  2.6990 -1.0850 -1.1693
 1785SOL    HW216285   9.731   6.858   2.134  0.0970  1.3415  2.7028
 1786SOL     OW16286   4.272   1.598   0.257 -0.5482 -0.8404 -1.1043
 1786SOL    HW116287   4.340   1.598   0.331 -1.2129  0.2023 -0.4880
 1786SOL    HW216288   4.216   1.680   0.263 -0.1478 -0.3890 -3.2026
 1787SOL     OW16289   9.688   4.165   5.082 -0.1278  0.4637  0.1086
 1787SOL    HW116290   9.764   4.181   5.145 -0.2553  2.4420 -0.2188
 1787SOL    HW216291   9.671   4.066   5.075  2.5086 -0.0165  0.0508
 1788SOL     OW16292   1.004   2.199   0.222 -0.1572 -0.5257  0.2943
 1788SOL    HW116293   0.956   2.115   0.247 -1.1523  0.0264  0.2642
 1788SOL    HW216294   0.939   2.276   0.222  0.4150 -0.0233 -1.1830
 1789SOL     OW16295   8.118   4.246   5.409  0.2408 -0.3934  0.2548
 1789SOL    HW116296   8.090   4.151   5.421  1.3755 -1.1210 -2.5236
 1789SOL    HW216297   8.208   4.260   5.449  0.5383 -0.7545 -0.2909
 1790SOL     OW16298   4.694   4.708   1.786 -0.5729 -0.1344 -0.1661
 1790SOL    HW116299   4.696   4.775   1.860 -2.5930 -0.2935  0.0434
 1790SOL    HW216300   4.600   4.692   1.757  0.1364 -0.7090 -2.2073
 1791SOL     OW16301   8.228   9.750   1.333  0.0943 -0.5335 -0.3106
 1791SOL    HW116302   8.261   9.771   1.425 -0.0991  1.0153 -0.5652
 1791SOL    HW216303   8.257   9.659   1.306  2.2871 -0.0436  0.3316
 1792SOL     OW16304   1.630   3.799   3.667  0.4437  0.6167  0.2498
 1792SOL    HW116305   1.617   3.735   3.742  1.0124  1.0144  0.6795
 1792SOL    HW216306   1.628   3.749   3.580 -1.2736  0.2898  0.4478
 1793SOL     OW16307   4.060   2.419   2.266  0.1039  0.3604 -0.0468
 1793SOL    HW116308   4.049   2.417   2.167  0.1014  2.2578 -0.1121
 1793SOL    HW216309   4.005   2.347   2.307  1.1157 -1.2806 -1.4925
 1794SOL     OW16310   0.345   9.350   4.962  0.1909 -0.0993 -0.0630
 1794SOL    HW116311   0.388   9.276   4.911  0.8293  1.5100 -1.9020
 1794SOL    HW216312   0.416   9.406   5.006  0.0446  2.3706 -2.8454
 1795SOL     OW16313   8.357   5.116   0.007  0.0743 -0.8564 -0.2375
 1795SOL    HW116314   8.270   5.077   0.036  0.4034 -1.1552  0.3521
 1795SOL    HW216315   8.427   5.044   0.004  0.4570 -0.4939 -0.0772
 1796SOL     OW16316   9.733   9.014   2.024  0.1476  0.2130 -0.2655
 1796SOL    HW116317   9.685   9.066   1.954 -1.1049  1.2741  1.3212
 1796SOL    HW216318   9.831   9.035   2.021 -0.0088  0.8238 -1.2009
 1797SOL     OW16319   7.742   9.095   3.336 -0.1636 -0.1732 -0.1490
 1797SOL    HW116320   7.738   9.157   3.415 -0.0821  0.5257 -0.6944
 1797SOL    HW216321   7.658   9.102   3.283 -0.2804 -0.7550 -0.0505
 1798SOL     OW16322   7.360   9.812   1.920 -0.0215  0.1009  0.1869
 1798SOL    HW116323   7.357   9.763   1.833  1.5461  1.9654 -0.9596
 1798SOL    HW216324   7.267   9.841   1.945 -0.4139  0.0508 -1.1627
 1799SOL     OW16325   7.536   8.346   2.823  0.6087 -0.4886 -0.5312
 1799SOL    HW116326   7.563   8.436   2.859  0.5026 -0.5706 -0.2463
 1799SOL    HW216327   7.618   8.292   2.804  0.6873 -0.1722 -1.1169
 1800SOL     OW16328   0.749   0.611   4.124  0.0614 -0.0239 -0.2760
 1800SOL    HW116329   0.723   0.666   4.204  0.0617 -0.8607  0.3009
 1800SOL    HW216330   0.813   0.663   4.067  0.4235  0.3964  0.5056
 1801SOL     OW16331   8.352   6.349   3.650 -0.1973 -0.3202  0.1375
 1801SOL    HW116332   8.307   6.321   3.565  1.2290 -0.6430 -0.5161
 1801SOL    HW216333   8.292   6.412   3.699 -0.7421  0.4366 -1.4429
 1802SOL     OW16334   7.800   1.390   3.731 -0.1117 -0.1810 -0.1629
 1802SOL    HW116335   7.730   1.406   3.801  1.1771  1.3878  0.8155
 1802SOL    HW216336   7.758   1.393   3.641 -1.4421  0.0009  0.4487
 1803SOL     OW16337   8.843   8.775   1.467 -0.5341  0.4347 -0.3901
 1803SOL    HW116338   8.917   8.837   1.440 -0.1361  0.7611  1.3473
 1803SOL    HW216339   8.818   8.717   1.390  2.4943 -0.6623 -0.6195
 1804SOL     OW16340   2.491   2.619   1.457  0.6080 -0.0766  0.6213
 1804SOL    HW116341   2.563   2.552   1.475  0.4098 -0.7072 -0.8195
 1804SOL    HW216342   2.532   2.709   1.441  0.9276 -0.0073  1.8233
 1805SOL     OW16343   0.645   4.574   1.665 -0.0027 -0.6556 -0.2044
 1805SOL    HW116344   0.576   4.562   1.736  0.8921  0.9270  0.9825
 1805SOL    HW216345   0.725   4.516   1.686  0.8743  0.9252  0.9309
 1806SOL     OW16346   2.684   3.307   1.367  0.0366 -0.0121  0.1928
 1806SOL    HW116347   2.677   3.251   1.449  0.3905  0.3308  0.4564
 1806SOL    HW216348   2.605   3.289   1.307 -1.2416  1.1712  1.4933
 1807SOL     OW16349   3.093   9.919   2.052  0.0722 -0.4295  0.3643
 1807SOL    HW116350   3.123   9.833   2.011  1.9993  0.6067 -0.4573
 1807SOL    HW216351   3.159   9.946   2.123 -0.2585  0.6201  0.2715
 1808SOL     OW16352   1.178   0.324   3.344 -0.4592  0.3941  0.4558
 1808SOL    HW116353   1.212   0.360   3.431  0.1203  0.5519  0.1665
 1808SOL    HW216354   1.239   0.252   3.311 -0.0915  1.0537 -0.3387
 1809SOL     OW16355   9.890   1.174   5.135  0.6618 -0.2237  0.2725
 1809SOL    HW116356   9.874   1.260   5.184  2.2868 -0.1622  0.7024
 1809SOL    HW216357   9.802   1.132   5.113 -0.2260  2.1976 -1.1158
 1810SOL     OW16358   9.087   7.120   1.537 -0.6677 -0.8176  0.0759
 1810SOL    HW116359   9.013   7.084   1.481 -0.8666  0.2369 -0.3599
 1810SOL    HW216360   9.141   7.186   1.484 -0.1840 -0.6351  0.7747
 1811SOL     OW16361   2.316   1.690   4.866  0.1126 -0.1983 -0.4623
 1811SOL    HW116362   2.368   1.763   4.821 -0.1571 -0.5562 -1.3584
 1811SOL    HW216363   2.374   1.645   4.934 -0.1051  1.6884  1.0230
 1812SOL     OW16364   0.095   7.077   1.182  0.0288 -0.2534  0.5114
 1812SOL    HW116365   0.138   7.055   1.095 -0.5432  0.6528 -0.0146
 1812SOL    HW216366   0.153   7.142   1.232 -1.0366  1.5132 -0.5081
 1813SOL     OW16367   7.696   8.656   4.670  0.0605 -0.3617  0.2326
 1813SOL    HW116368   7.596   8.651   4.679 -0.0246 -2.6061 -1.5334
 1813SOL    HW216369   7.739   8.612   4.749 -0.4566 -3.4700 -1.1293
 1814SOL     OW16370   9.950   5.100   4.225 -0.1066 -0.0669  0.3553
 1814SOL    HW116371  10.005   5.047   4.289 -1.0622  0.1236  1.3439
 1814SOL    HW216372  10.002   5.180   4.194  1.7003 -2.0336 -1.8673
 1815SOL     OW16373   3.967   0.939   2.729 -0.4469 -0.6772  0.2733
 1815SOL    HW116374   3.934   0.855   2.687 -0.8910 -0.6041  0.4764
 1815SOL    HW216375   4.058   0.960   2.694  0.0167 -1.6850  0.8353
 1816SOL     OW16376   8.918   2.416   1.331 -0.7092  0.0028  0.1269
 1816SOL    HW116377   8.951   2.502   1.291  1.2555 -0.9948 -0.4814
 1816SOL    HW216378   8.980   2.387   1.404 -0.2856 -1.8284 -0.9128
 1817SOL     OW16379   1.525   6.158   2.453  0.1733 -0.0768 -0.5094
 1817SOL    HW116380   1.506   6.249   2.416 -2.2136 -0.0815  0.6142
 1817SOL    HW216381   1.594   6.165   2.525 -0.7510  0.9760  0.2726
 1818SOL     OW16382   0.698   7.469   0.556 -0.1963 -0.4035  0.6269
 1818SOL    HW116383   0.694   7.370   0.571 -1.1662 -0.5687 -0.5957
 1818SOL    HW216384   0.712   7.487   0.459 -0.6928  0.6589  0.7462
 1819SOL     OW16385   4.674   7.739   4.159  0.0357  0.3709 -0.1694
 1819SOL    HW116386   4.601   7.807   4.163  0.1915  0.6138 -1.2786
 1819SOL    HW216387   4.656   7.675   4.084  0.6027  0.0170 -0.0101
 1820SOL     OW16388   3.130   0.508   2.093  0.1048 -0.2950 -0.2409
 1820SOL    HW116389   3.210   0.469   2.048  0.7546 -0.2470  0.8461
 1820SOL    HW216390   3.135   0.608   2.090  0.0175 -0.2926 -0.3004
 1821SOL     OW16391   7.949   5.054   5.436 -0.1228  0.5956 -0.3097
 1821SOL    HW116392   7.992   5.016   5.518 -1.1784  1.2705  0.5707
 1821SOL    HW216393   7.972   5.150   5.427 -0.8898  0.7895 -0.2093
 1822SOL     OW16394   5.601   9.409   4.513 -0.1463  0.3980  0.1607
 1822SOL    HW116395   5.549   9.326   4.533 -1.6509  0.9017 -1.5421
 1822SOL    HW216396   5.646   9.400   4.425  0.8580  0.8401  0.6252
 1823SOL     OW16397   6.912   0.253   5.612  0.3045 -0.0371  0.7216
 1823SOL    HW116398   6.879   0.274   5.519 -0.0541  0.0103  0.8579
 1823SOL    HW216399   6.860   0.307   5.678 -0.5949 -1.3193  1.0771
 1824SOL     OW16400   3.457   8.500   0.334  0.6203  0.4468 -0.3960
 1824SOL    HW116401   3.450   8.595   0.364 -0.5661 -0.3235  1.9048
 1824SOL    HW216402   3.487   8.443   0.411  0.9157 -1.1021 -1.6393
 1825SOL     OW16403   3.839   1.979   0.979  0.1560  0.5821 -0.4214
 1825SOL    HW116404   3.923   1.996   1.030 -0.2527 -0.9576  0.8056
 1825SOL    HW216405   3.767   2.042   1.011  0.1421  0.2006  0.3051
 1826SOL     OW16406   9.931   4.957   2.863  0.1636 -0.5119 -0.0671
 1826SOL    HW116407   9.863   4.922   2.798  1.1730  0.8054 -1.8667
 1826SOL    HW216408  10.019   4.966   2.817  0.6099  1.5976  1.1412
 1827SOL     OW16409   7.343   8.012   2.494  0.4460  0.2012  0.3592
 1827SOL    HW116410   7.331   7.982   2.589 -0.7932  1.2442  0.5471
 1827SOL    HW216411   7.253   8.036   2.455  1.0800  0.9225 -0.6785
 1828SOL     OW16412   0.056   9.606   5.530  0.2638  0.6749 -0.3615
 1828SOL    HW116413   0.022   9.610   5.624  0.7320 -0.0540 -0.1588
 1828SOL    HW216414  -0.001   9.664   5.472  0.5723  1.9219  0.5513
 1829SOL     OW16415   5.993   1.000   1.141 -0.1333  0.2585  0.2957
 1829SOL    HW116416   6.065   1.030   1.077  0.9431 -0.3344  1.2007
 1829SOL    HW216417   5.917   0.961   1.089 -0.1036  1.5034 -0.7212
 1830SOL     OW16418   3.069   2.366   5.062  0.5900 -0.8003  0.1029
 1830SOL    HW116419   3.076   2.341   4.966  2.6815  0.8428 -0.1959
 1830SOL    HW216420   2.985   2.419   5.077  0.4819 -0.6837 -0.8765
 1831SOL     OW16421   6.965   8.878   1.638 -0.6252  0.3591 -0.2834
 1831SOL    HW116422   6.931   8.960   1.592 -1.3218 -0.2106 -0.7987
 1831SOL    HW216423   6.905   8.800   1.616  0.2609 -0.3696 -0.1298
 1832SOL     OW16424   7.990   9.940   0.850  0.2631  1.0394  0.7612
 1832SOL    HW116425   8.028   9.994   0.775 -0.1166  1.6211  0.9901
 1832SOL    HW216426   7.892   9.955   0.856  0.4194  1.6428  1.9137
 1833SOL     OW16427   3.559   4.202   0.908 -0.2542  0.2152 -0.1904
 1833SOL    HW116428   3.507   4.147   0.974  2.2067 -0.5125  1.2014
 1833SOL    HW216429   3.540   4.169   0.816 -2.7469  0.4047  0.2080
 1834SOL     OW16430   4.489   2.128   5.302  0.4653  0.0746 -0.1058
 1834SOL    HW116431   4.546   2.126   5.384  1.6149 -0.4138 -0.9057
 1834SOL    HW216432   4.473   2.223   5.275  0.5748  0.2219  0.3444
 1835SOL     OW16433   3.052   5.294   0.895  0.8828 -0.0683  0.1922
 1835SOL    HW116434   3.041   5.374   0.954 -1.0596 -1.8887  2.4011
 1835SOL    HW216435   2.981   5.295   0.824  1.2623  0.4685 -0.1894
 1836SOL     OW16436   2.870   2.675   5.446  0.0786  0.4223 -0.0752
 1836SOL    HW116437   2.936   2.728   5.500 -1.5361  2.2333  0.1895
 1836SOL    HW216438   2.867   2.710   5.353 -2.0131  1.8189  0.4610
 1837SOL     OW16439   0.141   4.960   2.693  0.1740 -0.3618 -0.0727
 1837SOL    HW116440   0.115   5.045   2.648 -0.9801 -0.3667  0.5646
 1837SOL    HW216441   0.079   4.887   2.665  0.5278 -0.7559  0.1682
 1838SOL     OW16442   1.852   7.539   2.067  0.4154  0.0941  0.3252
 1838SOL    HW116443   1.758   7.512   2.045 -0.0787  1.0527  1.1683
 1838SOL    HW216444   1.881   7.611   2.004  1.0165 -1.0355 -0.6856
 1839SOL     OW16445   4.910   0.800   2.135 -0.2375  0.7185 -0.7719
 1839SOL    HW116446   4.847   0.737   2.181 -1.2417  1.8312 -0.5921
 1839SOL    HW216447   4.952   0.861   2.202 -0.9512  1.6879 -1.1884
 1840SOL     OW16448   8.576   6.173   0.856  0.3519  0.1301 -0.5469
 1840SOL    HW116449   8.607   6.267   0.841  1.0193 -0.1810 -1.1223
 1840SOL    HW216450   8.641   6.125   0.915 -0.4023  0.2628  0.4119
 1841SOL     OW16451   2.859   1.051   2.319 -0.2725  0.2599 -0.4197
 1841SOL    HW116452   2.858   1.069   2.418 -1.5714  0.3439 -0.4391
 1841SOL    HW216453   2.771   1.079   2.280 -0.4755 -1.5638 -1.2844
 1842SOL     OW16454   0.927   5.178   3.163  0.2474  0.2283 -0.2122
 1842SOL    HW116455   0.897   5.199   3.070 -0.1320 -0.5895 -0.2815
 1842SOL    HW216456   1.026   5.166   3.165  0.1462 -0.6520 -0.6811
 1843SOL     OW16457   3.358   7.312   0.537  0.4301 -0.0999  0.4876
 1843SOL    HW116458   3.321   7.338   0.448 -0.0635 -1.0847  0.4074
 1843SOL    HW216459   3.454   7.340   0.542  0.5826 -0.4282 -0.5193
 1844SOL     OW16460   3.204   7.778   3.608 -0.0727 -0.0787  0.5533
 1844SOL    HW116461   3.296   7.791   3.644 -0.1194  1.8245  0.0542
 1844SOL    HW216462   3.140   7.838   3.658 -1.3857 -2.6768  2.1389
 1845SOL     OW16463   2.735   0.274   5.278 -0.3251  0.1347 -0.4213
 1845SOL    HW116464   2.741   0.371   5.301 -1.3828  0.2036 -0.4097
 1845SOL    HW216465   2.748   0.219   5.361  2.3062  0.1800 -0.7429
 1846SOL     OW16466   2.367   2.092   3.062  0.5750  0.0970 -0.0665
 1846SOL    HW116467   2.365   2.014   3.125  1.3987  0.4094  0.3542
 1846SOL    HW216468   2.369   2.059   2.967  1.2531 -0.4013  0.1185
 1847SOL     OW16469   3.558   3.388   1.157  0.5705  0.5294  0.0060
 1847SOL    HW116470   3.474   3.424   1.118  1.1744  1.5587 -0.3525
 1847SOL    HW216471   3.581   3.302   1.112  0.0152  0.5313 -0.2901
 1848SOL     OW16472   2.086   8.154   2.352  0.3484 -0.1678  0.4147
 1848SOL    HW116473   2.052   8.069   2.310  1.2145 -0.9851  1.3399
 1848SOL    HW216474   2.008   8.208   2.384 -0.2332 -0.4152 -0.5433
 1849SOL     OW16475   4.701   4.804   0.906 -0.3240 -1.1590 -0.5331
 1849SOL    HW116476   4.792   4.763   0.902 -0.1103 -0.7850  0.5474
 1849SOL    HW216477   4.672   4.813   1.001 -0.9982 -0.1644 -0.8241
 1850SOL     OW16478   8.804   9.753   1.601  0.3391 -0.0026 -0.6138
 1850SOL    HW116479   8.858   9.752   1.517  1.5597  0.4578  0.1505
 1850SOL    HW216480   8.766   9.844   1.616 -1.8803 -0.6817 -1.8991
 1851SOL     OW16481   0.022   1.199   4.870  0.2367 -0.2729 -0.1512
 1851SOL    HW116482  -0.068   1.210   4.911 -0.0923  0.2018 -0.9956
 1851SOL    HW216483   0.035   1.104   4.841 -0.5785 -0.0228 -1.3775
 1852SOL     OW16484   4.835   3.596   1.880 -0.4117  0.2569 -0.7332
 1852SOL    HW116485   4.884   3.608   1.794  1.8845 -0.1814  0.4747
 1852SOL    HW216486   4.864   3.665   1.946  0.1032 -1.2181  0.6487
 1853SOL     OW16487   0.279   0.615   0.037  0.0008  0.3013 -0.6725
 1853SOL    HW116488   0.192   0.570   0.018 -1.9198  3.3286  0.4842
 1853SOL    HW216489   0.311   0.664  -0.044  1.5506 -2.1440 -1.6054
 1854SOL     OW16490   9.799   7.740   2.572  0.2105  0.4219  0.1070
 1854SOL    HW116491   9.827   7.650   2.603 -1.0367  0.5936  1.7833
 1854SOL    HW216492   9.710   7.733   2.525  0.6009  0.6309 -0.6715
 1855SOL     OW16493   7.658   0.587   0.678 -0.2365 -0.1078 -0.5963
 1855SOL    HW116494   7.624   0.564   0.769  1.1512  1.3357  0.3030
 1855SOL    HW216495   7.709   0.509   0.641 -1.2137 -0.8757 -0.3658
 1856SOL     OW16496   8.510   1.307   4.992  0.1737 -0.6756 -0.3767
 1856SOL    HW116497   8.456   1.277   4.913 -0.8794  0.5291 -0.1416
 1856SOL    HW216498   8.592   1.354   4.960 -1.1445  1.4238 -0.8268
 1857SOL     OW16499   9.189   2.796   5.354 -0.3561 -0.0542 -0.0228
 1857SOL    HW116500   9.223   2.751   5.272 -0.9338 -0.5753  0.0175
 1857SOL    HW216501   9.183   2.895   5.338  1.0360  0.0261 -0.0647
 1858SOL     OW16502   4.048   8.710   3.988 -0.1947  0.1469 -0.6627
 1858SOL    HW116503   4.129   8.658   4.017  1.4328  2.4484 -0.9623
 1858SOL    HW216504   4.022   8.773   4.061 -1.0490  0.1849 -1.0032
 1859SOL     OW16505   2.917   1.243   5.454  0.1200  0.1253 -0.4739
 1859SOL    HW116506   3.003   1.194   5.436 -0.1993 -1.1548  1.3350
 1859SOL    HW216507   2.908   1.319   5.390  0.4044 -2.4455 -3.6660
 1860SOL     OW16508   7.574   1.425   1.176 -0.4696  0.5044  0.6220
 1860SOL    HW116509   7.613   1.391   1.090 -2.1079  0.3978 -0.0907
 1860SOL    HW216510   7.476   1.438   1.166 -0.3931  2.3601  1.8851
 1861SOL     OW16511   3.264   0.597   3.519 -0.4821  0.0665 -0.4665
 1861SOL    HW116512   3.272   0.584   3.420 -1.2829 -1.1231 -0.3918
 1861SOL    HW216513   3.311   0.522   3.566  0.1114  0.7639  0.0627
 1862SOL     OW16514   7.456   6.736   3.813  0.3886  0.8720 -0.1210
 1862SOL    HW116515   7.468   6.735   3.913  0.1744  1.7859 -0.0865
 1862SOL    HW216516   7.424   6.826   3.784 -5.1367 -0.9394 -0.3465
 1863SOL     OW16517   9.782   5.374   3.102  0.7453  0.6473 -0.0507
 1863SOL    HW116518   9.708   5.309   3.111  0.0476  1.5469  0.7864
 1863SOL    HW216519   9.748   5.467   3.119  2.3501  0.9266  1.7866
 1864SOL     OW16520   1.156   4.750   3.335  0.0499  0.1299  0.4833
 1864SOL    HW116521   1.183   4.694   3.257  0.9977  1.4764 -0.1753
 1864SOL    HW216522   1.076   4.805   3.311 -0.0359  0.0885  0.6724
 1865SOL     OW16523   8.627   6.397   4.055 -0.5192  0.5703 -0.0718
 1865SOL    HW116524   8.564   6.472   4.074  0.5329  1.6929 -0.9828
 1865SOL    HW216525   8.710   6.432   4.013  0.3937 -0.9976  0.3685
 1866SOL     OW16526   9.514   5.134   0.549  0.4001 -0.3995  0.2031
 1866SOL    HW116527   9.417   5.161   0.555  0.6251  0.4083  0.2430
 1866SOL    HW216528   9.567   5.208   0.509  0.9390 -1.0113 -0.2291
 1867SOL     OW16529   9.485   0.571   3.669  0.6433  0.5162  0.0233
 1867SOL    HW116530   9.506   0.474   3.664  1.9316  0.7539  0.6082
 1867SOL    HW216531   9.548   0.616   3.733 -0.0800  1.6917 -0.0630
 1868SOL     OW16532   0.028   4.051   5.165  0.0101 -0.3290 -0.2947
 1868SOL    HW116533   0.016   4.142   5.125  0.3031  1.1063  2.6546
 1868SOL    HW216534   0.125   4.027   5.163 -0.2152 -1.1305 -2.1645
 1869SOL     OW16535   1.465   6.845   3.947 -0.4209  0.7651  0.0495
 1869SOL    HW116536   1.532   6.853   4.020 -1.0415  1.2759  0.5752
 1869SOL    HW216537   1.377   6.815   3.985 -0.5864  0.4415 -0.5736
 1870SOL     OW16538   4.383   3.561   0.222  0.0592 -0.0053 -0.2800
 1870SOL    HW116539   4.287   3.586   0.229  0.0186 -0.1279 -0.3818
 1870SOL    HW216540   4.434   3.598   0.300 -0.2086 -0.5887  0.1765
 1871SOL     OW16541   8.975   6.816   1.243 -0.0739  0.0853 -0.3736
 1871SOL    HW116542   9.024   6.901   1.224  0.2190 -0.1473 -0.6594
 1871SOL    HW216543   8.916   6.793   1.166 -1.4772  0.9463  0.4250
 1872SOL     OW16544   8.790   9.240   1.609 -0.2665 -0.6336  0.5535
 1872SOL    HW116545   8.724   9.169   1.583  0.1540 -1.0763  0.6720
 1872SOL    HW216546   8.777   9.265   1.704  0.2997 -1.3570  0.8303
 1873SOL     OW16547   0.681   9.045   0.564  0.5119  0.1696 -0.8961
 1873SOL    HW116548   0.755   9.029   0.630  0.4533 -0.1873 -0.9134
 1873SOL    HW216549   0.707   9.118   0.502  0.0217  1.4301  0.3482
 1874SOL     OW16550   4.292   9.478   2.494 -0.0911  0.4390  0.9545
 1874SOL    HW116551   4.219   9.543   2.474 -1.4554 -1.0806  0.9094
 1874SOL    HW216552   4.363   9.486   2.424 -0.5477  1.4271  0.5846
 1875SOL     OW16553   9.630   9.876   3.139  0.4699  0.4865 -0.1884
 1875SOL    HW116554   9.638   9.975   3.156 -0.6707  1.1412 -3.1514
 1875SOL    HW216555   9.547   9.842   3.184 -0.5192  1.4166 -1.2800
 1876SOL     OW16556   1.539   1.630   4.704  0.2537  0.2465  0.3362
 1876SOL    HW116557   1.573   1.705   4.761 -0.7078  1.3533 -0.5094
 1876SOL    HW216558   1.535   1.660   4.609  1.7911 -1.5596 -0.3309
 1877SOL     OW16559   3.872   8.622   2.127 -0.2639  0.4449 -0.0365
 1877SOL    HW116560   3.925   8.636   2.044  0.1472 -1.7906 -0.1869
 1877SOL    HW216561   3.819   8.538   2.120 -2.4452  1.6831  0.8584
 1878SOL     OW16562   2.104   4.012   4.777 -0.0693  0.1773 -0.7235
 1878SOL    HW116563   2.069   4.099   4.744 -0.2911  0.4022  0.0912
 1878SOL    HW216564   2.199   4.022   4.807 -1.1421  1.0082  2.6578
 1879SOL     OW16565   0.821   6.402   4.381  0.4006 -0.3319 -0.6816
 1879SOL    HW116566   0.742   6.345   4.360 -1.4189  2.5173 -1.8155
 1879SOL    HW216567   0.825   6.419   4.480 -0.7056 -0.0945 -0.6711
 1880SOL     OW16568   9.537   5.804   0.396 -0.4466  0.7375  0.4326
 1880SOL    HW116569   9.485   5.781   0.479  0.8979  1.8876  1.6263
 1880SOL    HW216570   9.490   5.877   0.347 -0.5668  0.9581  0.8758
 1881SOL     OW16571   2.590   6.633   3.891 -0.0898  0.0887  0.0382
 1881SOL    HW116572   2.507   6.644   3.947 -1.3034  0.7713 -1.8250
 1881SOL    HW216573   2.610   6.536   3.879 -0.0781 -0.0696  1.2514
 1882SOL     OW16574   9.627   8.863   1.669  0.2728  0.3466  0.0172
 1882SOL    HW116575   9.691   8.800   1.713 -2.2916 -0.5452  2.5639
 1882SOL    HW216576   9.534   8.830   1.681 -0.8947  2.9668 -1.4239
 1883SOL     OW16577   4.605   0.148   5.403 -0.2329  0.4280  0.3576
 1883SOL    HW116578   4.585   0.053   5.425 -0.0193  0.7193  1.8669
 1883SOL    HW216579   4.581   0.166   5.308  1.7398 -1.6969 -0.5913
 1884SOL     OW16580   5.150   8.864   4.408  0.5377 -0.3950  0.8627
 1884SOL    HW116581   5.164   8.825   4.317 -2.0877 -1.1871  0.7329
 1884SOL    HW216582   5.110   8.955   4.400 -0.2303 -0.6891  1.1868
 1885SOL     OW16583   0.307   8.987   4.403  0.4219  0.1474 -0.5293
 1885SOL    HW116584   0.293   8.906   4.459  2.8950  0.5978  0.8041
 1885SOL    HW216585   0.373   8.967   4.330  0.1819  0.6452 -0.8929
 1886SOL     OW16586   5.370   8.854   1.217 -0.4929  0.3837  0.4653
 1886SOL    HW116587   5.390   8.773   1.271 -1.2010 -0.8847 -1.1532
 1886SOL    HW216588   5.440   8.864   1.146 -1.9459 -0.3919 -1.0931
 1887SOL     OW16589   5.303   0.979   3.060  0.3701 -0.6437  0.2235
 1887SOL    HW116590   5.336   1.072   3.079  0.0592 -0.9798  2.4202
 1887SOL    HW216591   5.302   0.965   2.961 -0.9874  2.2118 -0.2235
 1888SOL     OW16592   1.609   4.193   5.354  0.4242 -0.7815 -0.5907
 1888SOL    HW116593   1.557   4.237   5.428 -0.9846 -2.1783 -0.7254
 1888SOL    HW216594   1.647   4.263   5.294  0.0250  0.3118  0.3963
 1889SOL     OW16595   8.873   4.588   4.501  0.3031 -0.3094 -0.1690
 1889SOL    HW116596   8.895   4.684   4.485 -1.1934  0.2186  0.7473
 1889SOL    HW216597   8.952   4.541   4.538  1.7632  0.0088 -2.7652
 1890SOL     OW16598   7.461   0.824   4.962  0.2762 -0.1145  0.1302
 1890SOL    HW116599   7.549   0.801   4.920  0.4752 -0.2674  0.6262
 1890SOL    HW216600   7.436   0.918   4.938 -1.1234 -1.2161 -2.8991
 1891SOL     OW16601   7.579   3.987   4.997  0.1686  0.5113 -0.1809
 1891SOL    HW116602   7.568   3.959   5.092 -0.8019  0.6292 -0.2493
 1891SOL    HW216603   7.652   3.934   4.954 -1.4013 -1.6916 -0.2141
 1892SOL     OW16604   9.677   0.024   1.332 -0.2719 -0.3432  0.0032
 1892SOL    HW116605   9.679   0.041   1.233 -3.4592 -2.7442 -0.5811
 1892SOL    HW216606   9.763  -0.017   1.361  0.7603  0.5433 -1.7176
 1893SOL     OW16607   2.749   4.687   0.667  0.0507 -0.4305 -0.0983
 1893SOL    HW116608   2.664   4.701   0.718  0.7946  1.6831  0.5948
 1893SOL    HW216609   2.727   4.667   0.571 -1.2323 -0.1468  0.1205
 1894SOL     OW16610   9.823   7.576   1.327  0.0925 -0.4100 -0.8021
 1894SOL    HW116611   9.798   7.635   1.250 -1.7990  0.0257  0.1082
 1894SOL    HW216612   9.827   7.481   1.297  0.5451 -0.1107 -1.6960
 1895SOL     OW16613   0.008   2.726   5.538  0.5572 -0.6427  0.6057
 1895SOL    HW116614   0.102   2.715   5.505  0.5107  0.9645 -0.1189
 1895SOL    HW216615  -0.053   2.737   5.460 -0.1041 -0.7116  1.1160
 1896SOL     OW16616   8.426   5.675   4.344  0.0927 -0.2762  0.1388
 1896SOL    HW116617   8.425   5.691   4.443  1.3340 -0.1763  0.1441
 1896SOL    HW216618   8.416   5.762   4.296  1.2248 -0.1199  0.1782
 1897SOL     OW16619   8.537   8.180   0.050  0.1322  0.2697  0.2506
 1897SOL    HW116620   8.578   8.183  -0.041 -1.5647 -1.1237 -0.5850
 1897SOL    HW216621   8.502   8.270   0.074  0.9004  0.7229 -0.3367
 1898SOL     OW16622   0.707   0.207   2.385  0.1039  0.0739 -0.1070
 1898SOL    HW116623   0.794   0.213   2.336  0.8518  2.7571  1.4359
 1898SOL    HW216624   0.650   0.286   2.360 -2.0145 -1.7681 -1.2716
 1899SOL     OW16625   0.152   0.208   1.231 -0.1798  0.3796  0.6649
 1899SOL    HW116626   0.118   0.124   1.189  1.4373 -0.7714  1.5816
 1899SOL    HW216627   0.104   0.225   1.317 -0.3091  0.2393  0.6201
 1900SOL     OW16628   3.847   1.961   0.394  0.0663 -0.6348 -0.0260
 1900SOL    HW116629   3.774   1.956   0.461 -1.6804  0.5262 -1.7931
 1900SOL    HW216630   3.809   1.986   0.305  2.5335 -0.6341 -1.1180
 1901SOL     OW16631   2.816   8.905   0.593  0.6387 -0.2926 -0.3054
 1901SOL    HW116632   2.845   8.997   0.619 -2.0058 -0.2879  3.0156
 1901SOL    HW216633   2.755   8.910   0.513  3.4394  0.4080 -2.4630
 1902SOL     OW16634   9.136   2.450   2.578 -0.2899 -0.4960 -0.1385
 1902SOL    HW116635   9.185   2.404   2.504  0.8662 -1.0376  0.9552
 1902SOL    HW216636   9.152   2.549   2.572  1.2183 -0.6990  0.4048
 1903SOL     OW16637   9.991   9.813   4.375 -0.1082 -0.7549  0.5058
 1903SOL    HW116638   9.939   9.898   4.370  2.1055  0.5115 -3.2225
 1903SOL    HW216639   9.929   9.735   4.377 -2.1814  0.7940 -1.4907
 1904SOL     OW16640   1.673   7.761   2.236 -0.5114 -0.0431 -0.3701
 1904SOL    HW116641   1.733   7.684   2.262  2.1118  1.5472 -1.4966
 1904SOL    HW216642   1.680   7.833   2.305 -1.3443  0.0416 -0.3767
 1905SOL     OW16643   4.209   8.760   3.498  0.6308  1.3366 -0.3026
 1905SOL    HW116644   4.159   8.846   3.493  0.5689  1.4768  2.0833
 1905SOL    HW216645   4.146   8.683   3.490  0.3317  1.5169  0.2928
 1906SOL     OW16646   7.568   2.714   2.524 -0.2202  0.6858 -0.3695
 1906SOL    HW116647   7.623   2.797   2.520 -0.2617  0.7257 -0.0867
 1906SOL    HW216648   7.548   2.683   2.431  1.5825 -0.1817 -0.5079
 1907SOL     OW16649   6.403   7.899   2.119 -0.0387  0.4368 -0.0022
 1907SOL    HW116650   6.465   7.944   2.056 -0.5205  1.6387  0.3592
 1907SOL    HW216651   6.373   7.965   2.189 -1.7199 -0.1043 -0.1782
 1908SOL     OW16652   0.195   8.646   4.169  0.0192 -0.0349  0.8058
 1908SOL    HW116653   0.139   8.725   4.194  0.5095  0.7116 -0.3955
 1908SOL    HW216654   0.265   8.675   4.103  0.1404 -1.4931  0.2852
 1909SOL     OW16655   8.233   6.480   4.271 -0.7810  0.1365 -0.3036
 1909SOL    HW116656   8.297   6.408   4.299  0.2320  1.2710  0.3396
 1909SOL    HW216657   8.205   6.533   4.350 -1.2687  0.6638 -0.8230
 1910SOL     OW16658   2.802   0.274   2.749 -0.3692  0.1142  0.7014
 1910SOL    HW116659   2.870   0.334   2.792  1.6456 -1.6713  0.0941
 1910SOL    HW216660   2.836   0.180   2.749 -1.6559 -0.4012 -2.0457
 1911SOL     OW16661   8.359   6.584   3.802  0.3135 -0.4486 -0.2833
 1911SOL    HW116662   8.399   6.612   3.889 -0.8659 -3.2286  1.2137
 1911SOL    HW216663   8.262   6.562   3.814  0.0295 -0.5182 -2.3820
 1912SOL     OW16664   0.783   2.803   0.040 -0.0056  0.2403  0.1183
 1912SOL    HW116665   0.783   2.821  -0.059  0.0063  1.3142  0.3043
 1912SOL    HW216666   0.689   2.797   0.072 -0.0725  2.7228  0.5138
 1913SOL     OW16667   3.396   5.178   3.388 -0.3586  0.0052  0.1250
 1913SOL    HW116668   3.307   5.219   3.368  0.8801  2.6930 -0.1178
 1913SOL    HW216669   3.401   5.155   3.485 -0.0710  3.2043  0.9291
 1914SOL     OW16670   1.387   2.505   2.099  0.6319 -0.5036 -0.3262
 1914SOL    HW116671   1.358   2.488   2.193 -3.1534  1.4868 -1.0383
 1914SOL    HW216672   1.362   2.428   2.041 -2.5944  0.7790 -0.7471
 1915SOL     OW16673   0.473   8.156   2.708 -0.6921  0.0804 -0.1322
 1915SOL    HW116674   0.383   8.115   2.692 -1.1271  0.4362  1.3303
 1915SOL    HW216675   0.463   8.238   2.764  0.5678 -0.0438  0.2953
 1916SOL     OW16676   2.328   8.966   2.420 -0.1191  0.1136 -0.1991
 1916SOL    HW116677   2.233   8.953   2.451  0.1963  0.4284  0.9167
 1916SOL    HW216678   2.344   8.909   2.340 -0.5922 -1.6839  0.9569
 1917SOL     OW16679   4.079   1.461   2.708  0.6865  0.3969 -0.5241
 1917SOL    HW116680   4.091   1.377   2.655  0.3298  1.1629 -1.8574
 1917SOL    HW216681   4.131   1.535   2.664 -1.2161  1.5053 -0.9483
 1918SOL     OW16682   4.007   1.583   3.588  0.1138  0.4129  0.4769
 1918SOL    HW116683   4.029   1.562   3.683  0.0275  1.8102  0.8188
 1918SOL    HW216684   3.969   1.675   3.582  0.2158  0.3806 -0.9225
 1919SOL     OW16685   8.951   5.606   5.024 -0.1581  0.1317 -0.5147
 1919SOL    HW116686   8.978   5.515   4.992 -1.0390 -0.5897  0.7439
 1919SOL    HW216687   8.875   5.639   4.968  0.1464  0.0882 -0.9566
 1920SOL     OW16688   7.672   3.289   5.501 -0.1160 -0.8190  0.1418
 1920SOL    HW116689   7.698   3.325   5.590  0.6904  1.9231 -1.1370
 1920SOL    HW216690   7.573   3.278   5.497 -0.4164  1.3880  0.6033
 1921SOL     OW16691   9.563   8.598   2.669  0.5565  0.7217 -0.2427
 1921SOL    HW116692   9.525   8.539   2.740 -0.5786 -0.3610 -1.7108
 1921SOL    HW216693   9.563   8.549   2.582 -0.0962  2.7729 -1.4201
 1922SOL     OW16694   4.821   1.634   4.034 -0.2915 -0.1959 -0.6362
 1922SOL    HW116695   4.797   1.547   4.076  1.3952 -0.5324 -0.3528
 1922SOL    HW216696   4.754   1.704   4.061 -1.0370 -1.1445 -0.0073
 1923SOL     OW16697   2.291   7.913   2.246 -0.0607 -0.2132  0.1421
 1923SOL    HW116698   2.257   7.819   2.251 -0.0019 -0.2829 -0.7654
 1923SOL    HW216699   2.301   7.949   2.339 -1.5434 -0.5802  0.4680
 1924SOL     OW16700   8.924   6.123   0.819  0.0775 -0.6865  0.3992
 1924SOL    HW116701   8.866   6.079   0.887 -0.5445 -0.1150  0.2388
 1924SOL    HW216702   8.970   6.052   0.764  0.3535 -1.1403  1.2135
 1925SOL     OW16703   5.180   3.500   2.381  0.5726  0.4013  0.4163
 1925SOL    HW116704   5.264   3.469   2.425  0.6869  0.4544  0.2344
 1925SOL    HW216705   5.110   3.429   2.388  0.7971  0.1518  0.1048
 1926SOL     OW16706   4.135   1.158   2.321 -0.3416  0.3259  0.1066
 1926SOL    HW116707   4.118   1.064   2.353  0.5232  0.2698  0.4024
 1926SOL    HW216708   4.232   1.169   2.300 -0.6160  0.8746 -0.8590
 1927SOL     OW16709   8.649   3.274   4.679 -0.2069 -0.0334 -0.8717
 1927SOL    HW116710   8.609   3.358   4.716 -0.1775  0.0364 -0.9992
 1927SOL    HW216711   8.749   3.284   4.673 -0.0234 -0.7064  0.7367
 1928SOL     OW16712   3.066   4.325   4.229 -0.1725  0.7453  0.1770
 1928SOL    HW116713   3.069   4.399   4.162  0.1791  1.1236  0.6044
 1928SOL    HW216714   3.123   4.349   4.308  0.2073 -0.1179  0.1760
 1929SOL     OW16715   0.029   2.437   4.075  0.3836 -0.2892 -0.1645
 1929SOL    HW116716   0.017   2.355   4.130 -2.5758  0.2955  0.1355
 1929SOL    HW216717   0.057   2.513   4.134  1.1701 -0.5977 -0.1330
 1930SOL     OW16718   8.570   8.628   2.517 -0.0757 -0.3197  0.4318
 1930SOL    HW116719   8.519   8.701   2.471  1.0608  0.1995 -0.0384
 1930SOL    HW216720   8.551   8.541   2.472 -0.0970 -0.0386 -0.1093
 1931SOL     OW16721   8.253   8.556   1.553  0.0930  0.6654 -0.6363
 1931SOL    HW116722   8.233   8.637   1.608 -0.2826  0.7794 -0.9379
 1931SOL    HW216723   8.348   8.528   1.569  0.0441  0.8076 -0.0794
 1932SOL     OW16724   6.481   8.806   1.558 -0.0135 -0.2040  0.4717
 1932SOL    HW116725   6.476   8.819   1.460 -0.5735  2.8709  0.8852
 1932SOL    HW216726   6.393   8.771   1.592 -0.3629  0.3511  0.1299
 1933SOL     OW16727   0.737   0.932   1.286  0.3667  0.1337 -0.0234
 1933SOL    HW116728   0.836   0.924   1.299  0.6242 -0.0570 -1.9272
 1933SOL    HW216729   0.702   0.846   1.251 -0.6359 -0.0849  1.4817
 1934SOL     OW16730   0.891   7.256   0.324  0.3473  0.3607 -0.2484
 1934SOL    HW116731   0.852   7.231   0.235  0.3153 -0.4670 -0.0037
 1934SOL    HW216732   0.940   7.343   0.315 -2.4091  1.9631 -0.3309
 1935SOL     OW16733   4.552   4.338   4.769  0.3635 -0.2067 -0.3603
 1935SOL    HW116734   4.562   4.264   4.836  1.4547 -0.4706 -0.8135
 1935SOL    HW216735   4.539   4.425   4.817 -1.0938 -0.7050  0.1774
 1936SOL     OW16736   0.260   3.710   4.783  0.0637 -0.2687 -0.2835
 1936SOL    HW116737   0.327   3.654   4.832 -0.2443  0.5552  1.1156
 1936SOL    HW216738   0.305   3.791   4.746  0.2377 -0.7394 -1.1000
 1937SOL     OW16739   3.425   3.045   4.483 -0.5652 -0.2645 -0.4234
 1937SOL    HW116740   3.443   3.065   4.386 -0.0379  0.4044 -0.1896
 1937SOL    HW216741   3.362   3.114   4.519 -2.5870 -1.8005 -0.8744
 1938SOL     OW16742   3.802   9.017   3.552 -0.1142 -0.0071 -0.3508
 1938SOL    HW116743   3.849   8.952   3.610  0.9587  1.2308  0.1837
 1938SOL    HW216744   3.768   8.971   3.470 -2.3633 -1.9500  1.6017
 1939SOL     OW16745   6.013   9.565   2.243 -0.0250  0.1401  0.0614
 1939SOL    HW116746   5.968   9.574   2.332  0.0294  1.4672 -0.0361
 1939SOL    HW216747   5.985   9.479   2.200 -0.8760 -0.0126  0.9016
 1940SOL     OW16748   1.284   2.916   5.113  0.3737  0.7450 -0.3510
 1940SOL    HW116749   1.249   2.841   5.168 -0.4357  1.2774 -0.1240
 1940SOL    HW216750   1.297   2.885   5.019 -1.0636  0.6226 -0.5253
 1941SOL     OW16751   9.285   2.341   1.680 -0.2192  0.3867  0.6413
 1941SOL    HW116752   9.359   2.385   1.731  1.4718 -0.1372 -1.2498
 1941SOL    HW216753   9.315   2.250   1.650 -0.8484  0.9739 -1.8731
 1942SOL     OW16754   7.632   6.670   2.414  0.2217  0.2715 -0.4014
 1942SOL    HW116755   7.598   6.612   2.340 -2.6737  3.0959 -1.3745
 1942SOL    HW216756   7.701   6.734   2.378  0.6047  0.0203 -0.1254
 1943SOL     OW16757   6.758   8.901   3.856 -0.2204  0.6352 -0.2975
 1943SOL    HW116758   6.843   8.920   3.808  0.9587 -1.3760  0.9346
 1943SOL    HW216759   6.759   8.947   3.945 -0.5058  0.7740 -0.3648
 1944SOL     OW16760   0.956   2.062   3.408  0.2625 -0.2783  0.5951
 1944SOL    HW116761   0.900   1.980   3.421  1.5361 -1.0436  1.3902
 1944SOL    HW216762   0.965   2.110   3.495 -0.5410  0.7646  0.1158
 1945SOL     OW16763   7.532   8.791   2.915  0.2977 -0.1047  0.2191
 1945SOL    HW116764   7.464   8.721   2.894 -1.8943  1.7398  0.9826
 1945SOL    HW216765   7.529   8.812   3.012  0.9379  1.0642 -0.0080
 1946SOL     OW16766   3.876   0.978   2.154  0.3652 -1.1808  0.0517
 1946SOL    HW116767   3.912   0.996   2.063 -0.0516 -1.7885 -0.2398
 1946SOL    HW216768   3.952   0.963   2.217  0.7266  1.6872  0.3558
 1947SOL     OW16769   7.809   0.244   0.848  0.4706 -0.4304 -0.9430
 1947SOL    HW116770   7.759   0.159   0.863 -2.3356  1.3682  0.3973
 1947SOL    HW216771   7.851   0.274   0.933  2.1975 -0.8826 -1.6087
 1948SOL     OW16772   2.001   3.260   3.254  0.0577 -0.2339 -0.7881
 1948SOL    HW116773   2.065   3.303   3.318 -1.2100 -0.2565  0.5130
 1948SOL    HW216774   2.047   3.182   3.209  1.5662  0.9470 -1.3605
 1949SOL     OW16775   0.651   3.115   1.938 -0.1328  0.4805  0.8318
 1949SOL    HW116776   0.669   3.031   1.886 -1.0116  1.1859 -0.6387
 1949SOL    HW216777   0.738   3.154   1.970  0.4127 -0.0294 -0.0074
 1950SOL     OW16778   3.241   5.594   4.719  0.1666 -0.2834 -0.0210
 1950SOL    HW116779   3.206   5.652   4.792 -1.9168  0.9452 -1.9527
 1950SOL    HW216780   3.233   5.498   4.746 -0.4271  0.1555  1.4081
 1951SOL     OW16781   9.642   4.382   4.020  0.3955 -0.4174 -0.3349
 1951SOL    HW116782   9.658   4.460   4.082 -1.7767 -1.1614  1.2130
 1951SOL    HW216783   9.699   4.393   3.939  2.0071  1.5058  0.9769
 1952SOL     OW16784   8.392   3.010   1.561  0.3461  0.5058 -0.4643
 1952SOL    HW116785   8.359   3.101   1.588  0.9014  0.7074 -0.4584
 1952SOL    HW216786   8.478   3.019   1.510 -0.2055  0.0673 -1.5082
 1953SOL     OW16787   0.103   0.702   2.013  0.1195 -0.0530 -0.2349
 1953SOL    HW116788   0.116   0.675   2.109  1.3273  0.4140 -0.2511
 1953SOL    HW216789   0.130   0.798   2.002  1.1717 -0.4601 -1.2847
 1954SOL     OW16790   2.367   8.260   1.426  0.0248 -0.3061  0.2519
 1954SOL    HW116791   2.426   8.192   1.382 -0.1147 -0.0890 -0.2722
 1954SOL    HW216792   2.406   8.351   1.413  0.1504 -0.2728  0.8543
 1955SOL     OW16793   8.407   1.193   4.773  0.8567  0.9234  0.1977
 1955SOL    HW116794   8.360   1.261   4.717  1.9178  0.7446 -0.9343
 1955SOL    HW216795   8.495   1.171   4.731  0.0614 -1.9713 -0.0324
 1956SOL     OW16796   7.377   2.029   0.562 -0.3745 -0.1699  0.5419
 1956SOL    HW116797   7.396   2.077   0.476  0.2708  0.8160  1.2186
 1956SOL    HW216798   7.436   2.067   0.634 -0.7612 -1.1346  1.3654
 1957SOL     OW16799   3.796   9.035   1.052 -0.0581  0.1461  0.1259
 1957SOL    HW116800   3.729   9.092   1.004 -0.8858 -0.5721  0.4098
 1957SOL    HW216801   3.751   8.987   1.127  1.2137  1.2300  1.6300
 1958SOL     OW16802   0.830   1.359   0.814  0.1621  0.6800  0.3112
 1958SOL    HW116803   0.772   1.280   0.794  2.5801 -1.0904  0.1188
 1958SOL    HW216804   0.882   1.384   0.733  2.0772  0.1977  1.3717
 1959SOL     OW16805   1.911   8.225   1.201 -0.2457  0.1121  0.2362
 1959SOL    HW116806   1.893   8.128   1.188  0.7419 -0.2002  1.1304
 1959SOL    HW216807   1.937   8.266   1.114 -0.5199 -0.4513 -0.1159
 1960SOL     OW16808   4.478   9.294   0.186 -0.7458 -0.6133 -0.2985
 1960SOL    HW116809   4.508   9.276   0.279 -0.0044  0.6658 -0.2704
 1960SOL    HW216810   4.426   9.216   0.151 -2.3865 -0.4806  1.7473
 1961SOL     OW16811   0.580   9.224   0.086  0.3679 -0.1323  0.3985
 1961SOL    HW116812   0.498   9.217   0.143 -1.2615  1.4020 -1.6731
 1961SOL    HW216813   0.564   9.180  -0.002  2.3888 -1.3072  0.5814
 1962SOL     OW16814   9.710   7.280   5.471 -0.4868  0.3190  0.2708
 1962SOL    HW116815   9.734   7.190   5.435  2.5849  0.9422  0.6937
 1962SOL    HW216816   9.758   7.295   5.557 -0.2863  2.7376 -0.2506
 1963SOL     OW16817   8.976   3.099   1.467 -0.1101 -0.4326 -0.2142
 1963SOL    HW116818   9.055   3.160   1.460  0.5454 -1.4692 -2.4119
 1963SOL    HW216819   9.006   3.008   1.494 -0.7388 -0.4590  0.3940
 1964SOL     OW16820   7.025   1.063   4.013  0.0336 -0.0608 -0.1809
 1964SOL    HW116821   6.968   1.144   4.026 -1.6260 -1.2767  0.3556
 1964SOL    HW216822   6.986   1.006   3.941 -0.0698 -1.4592  0.9525
 1965SOL     OW16823   3.710   9.735   2.258 -0.0303 -0.8330 -0.7141
 1965SOL    HW116824   3.773   9.804   2.292 -0.4780  0.3520 -2.2627
 1965SOL    HW216825   3.759   9.668   2.203  0.2298 -1.1966 -0.0520
 1966SOL     OW16826   8.454   4.478   1.428  0.4592 -0.2695 -0.3325
 1966SOL    HW116827   8.400   4.560   1.446 -1.7060 -1.6194 -0.5374
 1966SOL    HW216828   8.460   4.463   1.329  0.2703 -0.7620 -0.2662
 1967SOL     OW16829   8.517   2.350   5.564  0.1188 -0.3512  0.1002
 1967SOL    HW116830   8.603   2.400   5.548 -0.0250  0.7571  2.6022
 1967SOL    HW216831   8.451   2.374   5.494  1.0127  0.7480 -0.3784
 1968SOL     OW16832   5.211   0.412   3.934 -0.0154 -0.3778 -0.7171
 1968SOL    HW116833   5.298   0.449   3.901  0.5082  0.6225  1.6688
 1968SOL    HW216834   5.216   0.398   4.033 -1.7471 -2.6785 -0.9177
 1969SOL     OW16835   1.322   6.950   0.544 -0.3930 -0.4594  0.0519
 1969SOL    HW116836   1.225   6.965   0.525 -0.3840 -0.9652 -0.4249
 1969SOL    HW216837   1.350   6.863   0.504 -0.6378 -2.1420  3.3884
 1970SOL     OW16838   7.421   6.024   4.057 -0.1651 -0.1135 -0.5428
 1970SOL    HW116839   7.392   6.051   3.965 -0.3034 -0.2472 -0.5373
 1970SOL    HW216840   7.356   5.959   4.096 -0.5401  0.5628 -0.0314
 1971SOL     OW16841   3.829   2.152   5.005 -0.4570 -0.4328  0.3910
 1971SOL    HW116842   3.834   2.209   5.087 -2.0416  0.3468 -0.0415
 1971SOL    HW216843   3.811   2.210   4.925  0.4879 -1.2524 -0.4379
 1972SOL     OW16844   0.737   6.653   3.024 -0.0950  0.6562  0.7763
 1972SOL    HW116845   0.797   6.605   3.087 -0.0392  1.0941  1.0580
 1972SOL    HW216846   0.675   6.587   2.980  1.2663  0.0502 -0.2867
 1973SOL     OW16847   2.861   4.929   4.891  0.4005 -0.1151 -0.0302
 1973SOL    HW116848   2.776   4.878   4.898  0.3366 -0.0271 -0.1569
 1973SOL    HW216849   2.869   4.968   4.799 -0.2475  1.3239  0.5043
 1974SOL     OW16850   9.812   3.587   0.292 -0.2216  0.1800 -1.0043
 1974SOL    HW116851   9.752   3.664   0.314  0.8687  0.4874  0.9646
 1974SOL    HW216852   9.849   3.599   0.200 -0.6188  1.6511 -0.9856
 1975SOL     OW16853   4.912   9.858   4.298  0.5578  0.1542 -0.8523
 1975SOL    HW116854   4.996   9.810   4.320  1.0334 -0.1637 -3.2813
 1975SOL    HW216855   4.933   9.953   4.276  0.1197  0.3877 -0.2838
 1976SOL     OW16856   1.483   4.880   0.962 -0.3680  0.7004 -0.0127
 1976SOL    HW116857   1.572   4.838   0.983 -0.7777  0.0614  0.4490
 1976SOL    HW216858   1.486   4.977   0.987  0.0362  0.5675  0.4681
 1977SOL     OW16859   8.721   1.454   2.828  0.8503 -0.1536  0.3758
 1977SOL    HW116860   8.666   1.519   2.881  2.4359  0.3675  1.4283
 1977SOL    HW216861   8.818   1.474   2.842  1.3242 -1.2852 -1.1601
 1978SOL     OW16862   1.690   7.442   3.333  0.5275 -0.5499 -0.2749
 1978SOL    HW116863   1.609   7.428   3.277 -1.2119  0.2203  1.9861
 1978SOL    HW216864   1.761   7.488   3.279 -1.0777  0.1531 -1.8302
 1979SOL     OW16865   8.339   0.184   0.152 -0.0307 -0.6910  0.3204
 1979SOL    HW116866   8.292   0.203   0.238 -2.6703 -0.9361 -1.0374
 1979SOL    HW216867   8.274   0.187   0.076  2.4619  0.8094 -1.8659
 1980SOL     OW16868   2.967   3.708   2.981  0.5443  0.3776 -0.5270
 1980SOL    HW116869   2.906   3.686   3.058  1.1349  0.2254 -0.1026
 1980SOL    HW216870   2.961   3.636   2.912 -0.1387  0.6130 -0.7146
 1981SOL     OW16871   6.685   1.481   2.975 -0.1535 -0.3546 -0.4112
 1981SOL    HW116872   6.617   1.415   2.945 -1.0799  1.0111 -1.3718
 1981SOL    HW216873   6.776   1.439   2.973 -0.5193 -1.0805 -2.6021
 1982SOL     OW16874   9.798   5.641   2.498 -0.6604 -0.2631 -0.0259
 1982SOL    HW116875   9.865   5.711   2.525 -0.7929 -0.7373  1.5824
 1982SOL    HW216876   9.723   5.640   2.564 -1.0231 -1.4334 -0.4511
 1983SOL     OW16877   3.139   4.692   2.275  0.4892  0.5428 -0.1410
 1983SOL    HW116878   3.132   4.622   2.346 -0.7622  0.8453  0.0386
 1983SOL    HW216879   3.115   4.781   2.313  1.4861  0.9887 -0.5205
 1984SOL     OW16880   8.589   5.360   0.594 -0.6938 -0.5913 -0.0171
 1984SOL    HW116881   8.561   5.406   0.678  3.4949  3.6243 -0.7288
 1984SOL    HW216882   8.540   5.400   0.516 -0.4324 -0.5441 -0.1575
 1985SOL     OW16883   3.618   9.826   1.860 -0.4600 -0.3575  0.4602
 1985SOL    HW116884   3.668   9.909   1.837 -0.4824 -0.9975 -2.0704
 1985SOL    HW216885   3.551   9.806   1.788 -0.9663 -2.1665  1.3881
 1986SOL     OW16886   2.896   8.156   3.721  0.3015 -0.3316  0.3417
 1986SOL    HW116887   2.856   8.111   3.641 -1.6786 -0.3229  1.2899
 1986SOL    HW216888   2.847   8.241   3.739 -0.2575 -1.0591  2.4107
 1987SOL     OW16889   3.378   9.144   5.141  0.1351 -0.2909 -0.6821
 1987SOL    HW116890   3.400   9.242   5.143  2.0592 -0.6475 -2.5130
 1987SOL    HW216891   3.318   9.125   5.063 -0.4945 -0.5393 -0.1435
 1988SOL     OW16892   8.682   6.889   4.496  0.4665  0.0882 -0.2612
 1988SOL    HW116893   8.761   6.946   4.519 -1.9256  3.3548  0.2161
 1988SOL    HW216894   8.688   6.859   4.401  2.7293 -0.5494  0.0531
 1989SOL     OW16895   1.401   5.090   1.355  0.7450 -0.3741 -0.1150
 1989SOL    HW116896   1.348   5.080   1.439  0.2955 -1.3322 -0.5077
 1989SOL    HW216897   1.424   5.000   1.319  0.9527  0.0341 -1.0153
 1990SOL     OW16898   1.180   2.068   0.646  0.0656  0.6910  0.1881
 1990SOL    HW116899   1.264   2.020   0.670 -0.6097 -1.1328 -0.9944
 1990SOL    HW216900   1.192   2.115   0.558  0.5258  2.2372  1.0511
 1991SOL     OW16901   8.626   7.155   3.434  0.0824 -0.3504  0.3348
 1991SOL    HW116902   8.528   7.144   3.420 -0.1467  1.9494 -0.0751
 1991SOL    HW216903   8.643   7.198   3.523  0.5197  1.9560 -0.8121
 1992SOL     OW16904   1.328   3.411   2.199 -0.0308  0.3382 -0.3891
 1992SOL    HW116905   1.268   3.422   2.120  0.7849  1.1358 -0.9077
 1992SOL    HW216906   1.300   3.474   2.271 -0.8871 -0.5159  0.0415
 1993SOL     OW16907   6.320   8.769   1.287 -0.2733  0.6084  1.4583
 1993SOL    HW116908   6.257   8.841   1.316 -0.5781  1.7627 -1.7760
 1993SOL    HW216909   6.268   8.688   1.261 -0.1392  0.2191  2.4052
 1994SOL     OW16910   8.950   8.514   3.610  0.3180  0.4629 -0.1035
 1994SOL    HW116911   8.987   8.542   3.521 -0.5114  1.4995 -0.1359
 1994SOL    HW216912   8.907   8.424   3.601  1.5374 -0.0912 -0.4041
 1995SOL     OW16913   3.482   1.230   2.683 -0.2162  0.2620  0.1240
 1995SOL    HW116914   3.480   1.250   2.585  0.5362 -0.8460 -0.1328
 1995SOL    HW216915   3.576   1.236   2.716 -0.1581 -1.4768  0.3147
 1996SOL     OW16916   9.949   1.378   5.414 -0.1931 -0.1820 -0.1774
 1996SOL    HW116917   9.968   1.423   5.327  1.8992 -0.1374  0.2847
 1996SOL    HW216918  10.035   1.363   5.464 -1.4637  0.9174  2.4502
 1997SOL     OW16919   6.488   6.833   3.305  0.0907 -0.5099 -0.2619
 1997SOL    HW116920   6.428   6.841   3.226 -0.3951  1.2518  0.2693
 1997SOL    HW216921   6.581   6.859   3.279 -0.2229  0.7960 -0.0664
 1998SOL     OW16922   5.065   3.963   1.448  0.1712  0.2941 -0.1997
 1998SOL    HW116923   5.128   4.040   1.455 -2.7566  2.6471  1.3505
 1998SOL    HW216924   5.033   3.954   1.353 -0.6107  1.9600 -0.1040
 1999SOL     OW16925   7.286   7.792   3.245  0.0345 -0.4908  0.1347
 1999SOL    HW116926   7.195   7.798   3.204 -0.5152  1.3072  1.5577
 1999SOL    HW216927   7.355   7.823   3.179 -0.1565 -3.3919 -1.5340
 2000SOL     OW16928   5.065   0.519   4.248  0.3447 -0.0584 -0.1234
 2000SOL    HW116929   5.120   0.439   4.226 -2.9707 -2.1836 -1.0492
 2000SOL    HW216930   5.032   0.562   4.164 -2.1046 -0.8281  0.3848
 2001SOL     OW16931   8.768   4.252   5.208 -0.1459 -0.2872  0.7690
 2001SOL    HW116932   8.812   4.215   5.290 -1.7253 -3.2518  0.3120
 2001SOL    HW216933   8.675   4.282   5.230  0.6684  2.3163  0.8384
 2002SOL     OW16934   0.461   4.397   3.435  0.3260  0.1899  0.4831
 2002SOL    HW116935   0.463   4.297   3.430 -1.6692  0.1187  0.8290
 2002SOL    HW216936   0.469   4.435   3.342 -0.9944 -0.3429  0.1392
 2003SOL     OW16937   0.218   7.441   4.697 -0.1567  0.4044 -0.2966
 2003SOL    HW116938   0.147   7.372   4.684  0.2910  0.1787 -1.5983
 2003SOL    HW216939   0.181   7.532   4.677  0.0070  0.2505 -1.3181
 2004SOL     OW16940   8.721   2.546   5.533 -0.5151  0.7304  0.3183
 2004SOL    HW116941   8.814   2.533   5.567 -0.7001  0.5268  0.7534
 2004SOL    HW216942   8.722   2.609   5.455 -0.1265  1.4419  0.8976
 2005SOL     OW16943   0.667   7.960   0.914 -0.6565 -0.2309  0.2688
 2005SOL    HW116944   0.579   7.914   0.917  0.4213 -2.2612  1.5548
 2005SOL    HW216945   0.719   7.939   0.997  0.8455  1.3613 -0.2227
 2006SOL     OW16946   4.669   9.264   4.785 -0.4420 -1.0786  0.1250
 2006SOL    HW116947   4.670   9.171   4.746 -1.3235 -1.5774  1.2774
 2006SOL    HW216948   4.720   9.265   4.870  3.1661  0.4654 -1.9427
 2007SOL     OW16949   0.090   4.856   0.735  0.5992 -0.1044  0.2386
 2007SOL    HW116950   0.031   4.775   0.737  0.4589 -0.0644 -1.2957
 2007SOL    HW216951   0.181   4.829   0.702  0.1933  0.5564 -1.4764
 2008SOL     OW16952   0.443   5.191   4.157 -0.0623  0.3166 -0.2124
 2008SOL    HW116953   0.496   5.142   4.088 -1.2945  0.7786 -1.5133
 2008SOL    HW216954   0.481   5.283   4.169  1.9831 -0.7394  1.9168
 2009SOL     OW16955   1.642   5.877   1.104 -0.2590  0.2717  0.6129
 2009SOL    HW116956   1.609   5.813   1.034 -1.0849  1.9682 -0.5918
 2009SOL    HW216957   1.672   5.961   1.060  0.6740  0.7779  2.1906
 2010SOL     OW16958   0.630   0.961   5.043 -0.4594 -0.0946  0.7139
 2010SOL    HW116959   0.606   0.999   5.132 -0.2905 -0.2911  0.8442
 2010SOL    HW216960   0.589   0.870   5.034 -1.4589  0.4091  0.1197
 2011SOL     OW16961   0.931   3.603   2.256  0.1485  0.3458  0.5416
 2011SOL    HW116962   0.929   3.699   2.229 -1.0968  0.2247  0.1902
 2011SOL    HW216963   0.931   3.546   2.174  1.3300  0.0504  0.7452
 2012SOL     OW16964   2.462   1.640   1.232 -0.7585  0.6907  0.2066
 2012SOL    HW116965   2.466   1.551   1.276  0.6332  0.4316 -0.4276
 2012SOL    HW216966   2.474   1.629   1.133  1.8795  1.7882  0.3747
 2013SOL     OW16967   4.960   8.390   1.402 -0.1090 -0.0732  0.1169
 2013SOL    HW116968   4.865   8.411   1.381  0.3201  0.2797 -1.5293
 2013SOL    HW216969   4.973   8.290   1.401 -0.4893 -0.1288  0.5104
 2014SOL     OW16970   8.020   3.212   3.544 -0.4838 -0.6479  0.0858
 2014SOL    HW116971   8.023   3.112   3.538  0.3830 -0.6222  0.0144
 2014SOL    HW216972   8.017   3.250   3.452 -0.7457 -0.6115  0.1111
 2015SOL     OW16973   8.044   3.148   2.227  0.0043 -0.3637 -1.1486
 2015SOL    HW116974   8.098   3.231   2.246 -0.9636  0.4638 -1.9539
 2015SOL    HW216975   8.094   3.089   2.165  1.2551 -0.9903  0.4193
 2016SOL     OW16976   1.444   7.578   1.376 -0.0911 -0.4814  0.1470
 2016SOL    HW116977   1.531   7.544   1.342  0.0808 -0.0240  0.1230
 2016SOL    HW216978   1.409   7.516   1.447  0.0521 -0.8842 -0.1356
 2017SOL     OW16979   9.532   1.248   1.896 -0.2697  0.2990 -0.4255
 2017SOL    HW116980   9.440   1.280   1.874 -0.5450 -0.4300 -0.3446
 2017SOL    HW216981   9.594   1.327   1.902 -0.5924  0.6894 -1.8712
 2018SOL     OW16982   4.836   4.225   5.555  0.3608 -0.1440  0.3365
 2018SOL    HW116983   4.798   4.248   5.644  1.1486  1.7087  0.2373
 2018SOL    HW216984   4.895   4.145   5.563 -2.3734 -2.1577  0.7584
 2019SOL     OW16985   8.960   0.186   2.691  1.2143 -0.2181 -0.2359
 2019SOL    HW116986   9.021   0.123   2.739  1.0518 -1.7349 -1.9546
 2019SOL    HW216987   8.896   0.133   2.634  0.2461  1.4619 -0.7269
 2020SOL     OW16988   8.017   9.582   0.049  0.1503  0.1675 -0.1523
 2020SOL    HW116989   8.046   9.669   0.088  1.8369 -1.5836  2.6422
 2020SOL    HW216990   8.097   9.531   0.018 -0.6609 -1.0979 -0.1923
 2021SOL     OW16991   2.633   0.231   3.809  0.0461 -0.1858  0.4183
 2021SOL    HW116992   2.719   0.185   3.830 -0.8086 -1.5643  0.9411
 2021SOL    HW216993   2.562   0.163   3.793 -0.5660  0.9030 -1.7201
 2022SOL     OW16994   0.094   0.227   3.232 -0.2023 -0.1338 -0.1777
 2022SOL    HW116995   0.122   0.261   3.142  0.5228 -0.3952 -0.0625
 2022SOL    HW216996   0.038   0.295   3.278  1.1947  0.9024  0.0398
 2023SOL     OW16997   1.166   6.305   3.431 -0.2409 -0.7313  0.1218
 2023SOL    HW116998   1.104   6.375   3.394  0.6037 -0.3588 -0.5948
 2023SOL    HW216999   1.116   6.218   3.438 -1.1349 -0.2011  0.4942
 2024SOL     OW17000   8.312   1.005   5.252  0.1903  0.8355 -0.6300
 2024SOL    HW117001   8.263   1.089   5.229  1.1419  1.1971 -1.3362
 2024SOL    HW217002   8.253   0.926   5.234 -0.7378  1.3457  0.1297
 2025SOL     OW17003   0.374   6.542   1.922 -0.3227  0.7159 -0.3915
 2025SOL    HW117004   0.288   6.586   1.899  0.9130  2.8393 -1.0701
 2025SOL    HW217005   0.376   6.521   2.020 -1.4374  0.9831 -0.3073
 2026SOL     OW17006   1.974   4.578   2.819 -0.0480 -0.2565 -0.0194
 2026SOL    HW117007   1.896   4.576   2.881 -0.2147  1.4140 -0.1723
 2026SOL    HW217008   2.010   4.485   2.809 -0.0055 -0.5423  2.5643
 2027SOL     OW17009   2.460   8.670   5.375  0.0801  0.0878 -0.6180
 2027SOL    HW117010   2.517   8.710   5.303 -0.6174  0.4375 -0.9742
 2027SOL    HW217011   2.372   8.717   5.378  0.4606  0.7095  1.1052
 2028SOL     OW17012   0.501   7.703   2.835 -0.2563  0.1383  0.1665
 2028SOL    HW117013   0.402   7.702   2.852  0.1525 -1.8991  2.7109
 2028SOL    HW217014   0.521   7.656   2.750 -1.2718 -1.9991  1.0718
 2029SOL     OW17015   7.630   1.685   0.017  0.5578 -0.0108  0.1516
 2029SOL    HW117016   7.722   1.695   0.053  0.0372 -1.9147  2.0882
 2029SOL    HW217017   7.635   1.641  -0.074  1.6405  1.5742 -0.5773
 2030SOL     OW17018   9.087   9.802   0.620  0.1562  0.7633 -0.2668
 2030SOL    HW117019   9.178   9.809   0.660  0.5698 -0.2000 -1.0103
 2030SOL    HW217020   9.080   9.717   0.567 -2.1791 -0.7407  2.3249
 2031SOL     OW17021   3.429   2.951   0.613  0.1016  0.4079 -0.6203
 2031SOL    HW117022   3.501   2.965   0.682  0.5170 -1.2045 -0.7184
 2031SOL    HW217023   3.346   2.997   0.643  1.1196  2.2339 -0.4558
 2032SOL     OW17024   2.012   0.780   0.445 -0.3570  0.5966  0.2130
 2032SOL    HW117025   1.949   0.816   0.514 -0.6965  1.6127 -0.6139
 2032SOL    HW217026   2.078   0.851   0.420  0.0709  0.0744 -0.1397
 2033SOL     OW17027   9.759   4.396   2.039 -0.5169  0.1511  0.8130
 2033SOL    HW117028   9.765   4.438   1.948  0.7376  0.5637  1.0840
 2033SOL    HW217029   9.734   4.300   2.029  1.2730 -0.2414 -0.0699
 2034SOL     OW17030   4.108   0.327   1.811 -0.4240  0.3286  0.2502
 2034SOL    HW117031   4.149   0.334   1.720 -1.0704 -2.0065 -0.2662
 2034SOL    HW217032   4.016   0.367   1.809 -1.0770 -1.1748 -0.5781
 2035SOL     OW17033   2.660   2.497   5.463  0.2175 -0.1249 -0.3416
 2035SOL    HW117034   2.733   2.563   5.443 -0.5098  0.4256 -1.2115
 2035SOL    HW217035   2.587   2.506   5.395 -1.5152  0.5885  1.5340
 2036SOL     OW17036   8.302   5.506   2.379 -0.4509  0.1606 -0.0760
 2036SOL    HW117037   8.267   5.538   2.291  1.0127  2.4455  0.1409
 2036SOL    HW217038   8.351   5.420   2.366  1.6130  1.5677 -1.8554
 2037SOL     OW17039   9.485   2.971   3.758 -0.0336 -0.2246 -0.4337
 2037SOL    HW117040   9.532   3.023   3.829 -0.2025 -0.1781 -0.3560
 2037SOL    HW217041   9.451   3.034   3.687  2.0298 -0.4517 -1.6749
 2038SOL     OW17042   1.676   1.758   3.407  0.6215  0.4762 -0.1753
 2038SOL    HW117043   1.585   1.737   3.373  1.4685 -0.2271 -2.0674
 2038SOL    HW217044   1.723   1.819   3.343  2.0407 -0.4209 -0.0273
 2039SOL     OW17045   3.089   2.439   0.094 -0.1052  0.3122 -0.3675
 2039SOL    HW117046   3.065   2.504   0.167 -1.6872 -0.9834  0.2929
 2039SOL    HW217047   3.173   2.391   0.118 -0.8649 -0.4403  0.8609
 2040SOL     OW17048   1.668   8.668   2.153  0.3803  0.2706  0.1655
 2040SOL    HW117049   1.570   8.653   2.165  0.5778 -1.9179 -0.7830
 2040SOL    HW217050   1.689   8.674   2.055  1.1795  0.9518  0.3688
 2041SOL     OW17051   1.644   2.874   3.077 -0.2516  0.2301  0.1486
 2041SOL    HW117052   1.650   2.869   3.176  0.4197  2.0812  0.2110
 2041SOL    HW217053   1.548   2.860   3.049 -0.6210  0.7956  1.1154
 2042SOL     OW17054   0.620   4.829   2.741  0.0239 -1.2945 -0.0436
 2042SOL    HW117055   0.678   4.897   2.695  1.0364 -2.0920  0.0472
 2042SOL    HW217056   0.530   4.827   2.696  0.7368 -1.4968 -1.4942
 2043SOL     OW17057   8.584   1.034   4.962  0.1955 -0.4448 -0.7113
 2043SOL    HW117058   8.533   1.119   4.974 -0.5206 -0.7993 -1.2110
 2043SOL    HW217059   8.535   0.960   5.008  1.2937 -0.4275  0.5339
 2044SOL     OW17060   5.237   0.551   0.356 -0.1148  0.1651  0.1577
 2044SOL    HW117061   5.196   0.624   0.301  0.9384 -1.1657 -2.4752
 2044SOL    HW217062   5.164   0.491   0.389 -0.7123  0.5684 -0.3956
 2045SOL     OW17063   1.614   5.485   1.114  0.1683  0.0876 -0.0876
 2045SOL    HW117064   1.526   5.512   1.075  1.3645  1.9424 -1.5942
 2045SOL    HW217065   1.599   5.434   1.199 -2.2851  1.8382  0.5711
 2046SOL     OW17066   3.233   2.060   4.307 -0.8499  0.3038  0.4635
 2046SOL    HW117067   3.142   2.057   4.346  0.6089  0.6394  4.0469
 2046SOL    HW217068   3.282   1.976   4.327 -0.3492  0.0791 -1.5244
 2047SOL     OW17069   1.789   6.351   0.861 -0.3758 -0.9356 -0.2625
 2047SOL    HW117070   1.793   6.415   0.939  4.1545  0.5956 -1.5926
 2047SOL    HW217071   1.743   6.395   0.784 -2.6250 -1.5369  0.7076
 2048SOL     OW17072   5.206   6.894   2.280 -0.4291  0.2352 -0.1133
 2048SOL    HW117073   5.115   6.922   2.313 -0.4371 -0.8184  0.7552
 2048SOL    HW217074   5.271   6.898   2.356 -0.1171 -0.6730 -0.3321
 2049SOL     OW17075   2.267   0.198   3.626  0.2559 -0.6040  0.1338
 2049SOL    HW117076   2.271   0.193   3.526  3.2152 -0.3015  0.2034
 2049SOL    HW217077   2.263   0.294   3.654  2.4221 -0.5458  0.3439
 2050SOL     OW17078   8.334   4.246   5.065 -0.2150  0.1779 -0.0921
 2050SOL    HW117079   8.366   4.314   4.999 -0.5302 -0.4706 -0.9191
 2050SOL    HW217080   8.405   4.230   5.134 -0.4472  1.9292  0.5748
 2051SOL     OW17081   9.480   7.769   1.656  0.4521  0.5528  0.6725
 2051SOL    HW117082   9.475   7.674   1.685 -1.6419  0.2373 -0.6681
 2051SOL    HW217083   9.482   7.829   1.736  0.4858 -0.5420  1.4938
 2052SOL     OW17084   9.213   0.760   5.066  0.0252  0.0802 -0.3075
 2052SOL    HW117085   9.246   0.853   5.082 -0.2381 -0.0056  0.7942
 2052SOL    HW217086   9.131   0.743   5.121  0.1177 -0.8240 -0.4336
 2053SOL     OW17087   4.647   1.560   2.389 -0.1615  0.0933  0.0883
 2053SOL    HW117088   4.653   1.660   2.394  2.4954  0.0210 -0.9463
 2053SOL    HW217089   4.712   1.526   2.321 -0.2593 -2.4333  1.2051
 2054SOL     OW17090   1.342   7.259   0.072 -0.0097 -0.1058 -0.4569
 2054SOL    HW117091   1.245   7.286   0.072  0.4111  1.5149  1.2618
 2054SOL    HW217092   1.358   7.197   0.149  0.2706 -0.6531 -0.9500
 2055SOL     OW17093   1.187   7.674   2.040  0.8409 -0.3134  0.2243
 2055SOL    HW117094   1.185   7.666   1.940  1.1544 -2.0082  0.3263
 2055SOL    HW217095   1.104   7.632   2.078  2.2295 -2.6433  0.8066
 2056SOL     OW17096   8.570   6.927   3.873 -0.4428  0.2760  0.1807
 2056SOL    HW117097   8.651   6.880   3.910 -0.1956 -0.0079 -0.6889
 2056SOL    HW217098   8.600   7.001   3.813 -0.8367  1.0182  0.9027
 2057SOL     OW17099   3.619   1.047   0.113 -0.4272 -0.2557 -0.0998
 2057SOL    HW117100   3.646   1.118   0.179 -2.2853 -0.4365  0.8945
 2057SOL    HW217101   3.556   1.086   0.046  0.2134 -0.4694 -0.8362
 2058SOL     OW17102   4.480   0.054   1.945  0.0484  0.2582  0.0457
 2058SOL    HW117103   4.489   0.153   1.939  0.0921  0.1726 -1.2816
 2058SOL    HW217104   4.526   0.010   1.868 -0.3445 -0.7716  0.3789
 2059SOL     OW17105   7.186   0.152   2.484 -0.5603 -0.5478  0.5413
 2059SOL    HW117106   7.134   0.145   2.399  1.2466 -1.4335 -0.5084
 2059SOL    HW217107   7.149   0.087   2.551 -2.2904  0.4855  0.6159
 2060SOL     OW17108   4.329   1.616   1.345 -0.3355  0.0457 -0.0997
 2060SOL    HW117109   4.396   1.576   1.407  0.6152 -1.6667 -2.1710
 2060SOL    HW217110   4.251   1.554   1.334 -0.4120  0.2561 -0.7590
 2061SOL     OW17111   0.193   6.258   2.677  0.5752 -0.3267 -0.3010
 2061SOL    HW117112   0.094   6.257   2.690  0.6559 -0.6540  0.3302
 2061SOL    HW217113   0.219   6.336   2.619 -0.0703 -0.3735 -0.6523
 2062SOL     OW17114   0.316   1.325   4.032 -0.5181  0.0852 -0.3015
 2062SOL    HW117115   0.287   1.261   4.104 -0.7829  0.1946 -0.3107
 2062SOL    HW217116   0.388   1.282   3.978 -0.8520 -0.2972 -0.4477
 2063SOL     OW17117   8.584   2.859   4.612  0.4073 -0.3364  0.7142
 2063SOL    HW117118   8.668   2.852   4.558  0.4194 -1.0989  0.8211
 2063SOL    HW217119   8.544   2.768   4.622  0.1513 -0.1285  1.5902
 2064SOL     OW17120   4.775   1.612   1.408  0.6515  0.6517 -0.5760
 2064SOL    HW117121   4.834   1.538   1.437  1.3999  1.1495 -0.8224
 2064SOL    HW217122   4.802   1.644   1.317  0.3476  1.2297 -0.4705
 2065SOL     OW17123   2.571   7.648   5.620 -0.2344 -0.5808 -0.4696
 2065SOL    HW117124   2.514   7.730   5.612  0.7110  0.1309 -0.0297
 2065SOL    HW217125   2.643   7.665   5.687  1.9633 -0.6112 -2.7425
 2066SOL     OW17126   4.714   7.284   3.789 -0.7420  0.1326 -0.3399
 2066SOL    HW117127   4.759   7.212   3.735 -0.5148 -0.6051  0.8195
 2066SOL    HW217128   4.767   7.369   3.781  0.2441 -0.4319  0.1149
 2067SOL     OW17129   9.995   8.661   3.420  0.4907  0.4459 -0.1429
 2067SOL    HW117130   9.944   8.585   3.460  0.0201  0.6456 -0.3474
 2067SOL    HW217131   9.938   8.744   3.423  0.7700  0.6509 -0.4582
 2068SOL     OW17132   8.358   1.549   1.570 -0.2980 -0.1425 -0.3845
 2068SOL    HW117133   8.312   1.633   1.599 -1.8215 -0.8231 -0.8092
 2068SOL    HW217134   8.290   1.480   1.546  0.9328 -0.8389 -1.9840
 2069SOL     OW17135   0.152   8.399   4.003 -0.3116 -0.3049  0.3602
 2069SOL    HW117136   0.164   8.467   4.076  1.6352 -0.3316  0.1050
 2069SOL    HW217137   0.236   8.346   3.994 -0.8794 -0.9445 -1.2603
 2070SOL     OW17138   2.751   9.764   5.458  0.2408 -0.1283  0.2716
 2070SOL    HW117139   2.733   9.741   5.554  0.2204  0.4232  0.4001
 2070SOL    HW217140   2.664   9.771   5.409  0.2253  0.0657  0.3249
 2071SOL     OW17141   0.268   5.571   2.931  0.5541  0.6858  0.1351
 2071SOL    HW117142   0.285   5.475   2.909 -0.6152  0.5227 -0.0715
 2071SOL    HW217143   0.174   5.582   2.965 -0.1572  2.1525 -2.2241
 2072SOL     OW17144   4.571   2.187   2.030  0.5557 -0.3043 -0.3121
 2072SOL    HW117145   4.559   2.088   2.041  0.0050 -0.0886  1.1792
 2072SOL    HW217146   4.666   2.207   2.007  0.6594 -1.1849 -0.6639
 2073SOL     OW17147   0.457   9.939   2.897  0.1092  0.4040 -0.3562
 2073SOL    HW117148   0.363   9.975   2.900  0.4949  1.3983 -0.2619
 2073SOL    HW217149   0.486   9.913   2.989 -0.0567  0.1103 -0.3828
 2074SOL     OW17150   2.725   8.025   2.927  0.3486  0.3337 -0.1740
 2074SOL    HW117151   2.690   8.118   2.917  1.2408  0.5590 -1.2466
 2074SOL    HW217152   2.821   8.028   2.958  0.3756 -0.2237 -0.1854
 2075SOL     OW17153   3.900   1.684   2.877 -0.1721  0.6443  0.4462
 2075SOL    HW117154   3.870   1.639   2.793 -0.4066  1.9393 -0.1685
 2075SOL    HW217155   3.821   1.707   2.933 -0.0959  0.9457  0.4285
 2076SOL     OW17156   1.868   0.597   0.968 -0.4958  0.0768 -0.1974
 2076SOL    HW117157   1.908   0.685   0.994  0.7055 -0.5789  0.2395
 2076SOL    HW217158   1.935   0.545   0.915 -0.3121 -1.5295  1.5632
 2077SOL     OW17159   2.439   9.326   4.300 -0.9071 -0.3376  0.4348
 2077SOL    HW117160   2.408   9.334   4.205 -0.0631 -2.1445 -0.0074
 2077SOL    HW217161   2.503   9.401   4.320 -1.0366  0.0134 -0.4384
 2078SOL     OW17162   7.784   1.041   1.558  0.2845  0.0321 -0.1274
 2078SOL    HW117163   7.758   1.085   1.473  0.5679  1.4994  0.5308
 2078SOL    HW217164   7.883   1.024   1.559  0.7012  2.3049  0.9153
 2079SOL     OW17165   9.688   8.343   0.108 -0.1788 -0.3853  0.4026
 2079SOL    HW117166   9.771   8.289   0.110 -0.0215 -0.2087 -1.2095
 2079SOL    HW217167   9.614   8.293   0.154 -0.0991 -2.0929 -1.2739
 2080SOL     OW17168   8.531   5.828   0.524  0.2491 -0.6671  0.1854
 2080SOL    HW117169   8.626   5.806   0.504 -0.0265 -0.2843 -1.6466
 2080SOL    HW217170   8.526   5.916   0.570  0.7896 -0.7400  0.3872
 2081SOL     OW17171   0.817   6.660   2.072  0.1003  0.2221 -0.1473
 2081SOL    HW117172   0.862   6.649   1.983  0.9053  1.3930  0.0993
 2081SOL    HW217173   0.746   6.730   2.065 -0.8746 -0.7626 -0.2333
 2082SOL     OW17174   4.008   9.292   3.099 -0.3218  0.1761 -0.4864
 2082SOL    HW117175   4.095   9.342   3.101  0.5058 -1.2232 -1.1839
 2082SOL    HW217176   3.982   9.266   3.192  0.3991 -0.0980 -0.3649
 2083SOL     OW17177   2.571   3.531   4.919 -0.1742 -0.4525  0.3722
 2083SOL    HW117178   2.514   3.590   4.976  0.2798  0.4891 -0.1302
 2083SOL    HW217179   2.654   3.507   4.968  0.1532  0.2459  0.1777
 2084SOL     OW17180   7.838   8.157   3.915  0.0340 -0.1690  0.1117
 2084SOL    HW117181   7.776   8.111   3.978 -0.1653  0.2078  0.1959
 2084SOL    HW217182   7.788   8.181   3.831  0.4662 -1.2632 -0.4598
 2085SOL     OW17183   0.349   0.435   0.792 -0.3180 -0.0320  0.0481
 2085SOL    HW117184   0.284   0.457   0.865 -1.2290 -0.1886 -0.7072
 2085SOL    HW217185   0.369   0.337   0.793  0.6208  0.1537  0.8510
 2086SOL     OW17186   1.380   8.119   0.687 -0.4950  0.7602  0.0737
 2086SOL    HW117187   1.471   8.125   0.728  0.0313 -0.0645 -0.9714
 2086SOL    HW217188   1.320   8.067   0.748  0.1280  0.0386  0.0701
 2087SOL     OW17189   2.972   5.205   1.624 -0.1189  0.5112  0.3441
 2087SOL    HW117190   2.924   5.145   1.688 -1.5999  1.3950  0.0668
 2087SOL    HW217191   2.998   5.290   1.670 -0.6756  0.9066 -0.0629
 2088SOL     OW17192   6.201   0.588   1.836  0.2445 -0.4227 -0.2240
 2088SOL    HW117193   6.119   0.629   1.876  0.0851 -0.1816 -0.7993
 2088SOL    HW217194   6.175   0.529   1.760  0.6627  0.2457 -0.8922
 2089SOL     OW17195   1.599   8.941   3.565 -0.0421 -0.6726 -0.2805
 2089SOL    HW117196   1.551   8.955   3.652  2.4033 -1.9580  1.3329
 2089SOL    HW217197   1.670   9.010   3.554  1.3011 -2.0078 -0.0542
 2090SOL     OW17198   9.620   8.114   0.982 -0.4168  0.2714 -0.3431
 2090SOL    HW117199   9.579   8.023   0.980  0.3665 -0.1302  1.4087
 2090SOL    HW217200   9.671   8.126   1.067  0.6606  1.8322 -1.1816
 2091SOL     OW17201   3.162   1.097   4.797  0.2568  0.4606 -0.5520
 2091SOL    HW117202   3.260   1.105   4.818  0.0942  1.3749 -0.1303
 2091SOL    HW217203   3.126   1.187   4.771 -0.9899  0.6080  1.5717
 2092SOL     OW17204   8.792   8.039   3.066 -0.6636 -0.4753  0.2699
 2092SOL    HW117205   8.731   7.968   3.101  0.9124 -1.6513  0.6510
 2092SOL    HW217206   8.844   8.079   3.141 -0.2315 -0.1599 -0.1930
 2093SOL     OW17207   3.276   8.500   5.614 -0.3341 -0.6197 -0.0606
 2093SOL    HW117208   3.375   8.504   5.603  0.1057 -1.5897  3.1461
 2093SOL    HW217209   3.237   8.438   5.546  1.3210 -0.8392 -0.8304
 2094SOL     OW17210   4.802   1.244   4.827 -0.0074 -0.2021  0.0481
 2094SOL    HW117211   4.783   1.180   4.901  0.2259  0.5567  0.7832
 2094SOL    HW217212   4.779   1.337   4.857 -0.3567  0.0634 -1.0015
 2095SOL     OW17213   2.252   8.276   0.412 -0.1893 -0.0655  0.3299
 2095SOL    HW117214   2.342   8.301   0.377 -0.3146  1.3958  1.0190
 2095SOL    HW217215   2.224   8.342   0.482 -1.7576 -0.5609  0.1845
 2096SOL     OW17216   0.884   5.133   5.067  0.8358  0.1961  0.0613
 2096SOL    HW117217   0.926   5.223   5.058  0.5976  0.3342  0.3423
 2096SOL    HW217218   0.953   5.062   5.052  1.1466  0.4223  0.4242
 2097SOL     OW17219   2.014   5.767   0.017  0.0400  0.4540 -0.2887
 2097SOL    HW117220   2.052   5.800   0.104  0.2972 -3.2477  1.0674
 2097SOL    HW217221   2.083   5.716  -0.033 -0.7788  0.6889 -1.6951
 2098SOL     OW17222   9.399   7.491   3.330 -0.6285  0.6486 -0.4646
 2098SOL    HW117223   9.461   7.547   3.384  1.4250 -2.4241  0.4989
 2098SOL    HW217224   9.417   7.504   3.233 -1.2324  2.7735 -0.3030
 2099SOL     OW17225   5.493   0.602   4.838  0.1983  0.4764 -0.0742
 2099SOL    HW117226   5.583   0.592   4.796 -0.8596  1.1679 -2.6275
 2099SOL    HW217227   5.432   0.531   4.803  0.2845 -1.3365  3.2821
 2100SOL     OW17228   1.360   8.361   3.694  0.2892  0.0017 -0.1512
 2100SOL    HW117229   1.427   8.344   3.766  0.3597 -0.1026 -0.2415
 2100SOL    HW217230   1.390   8.437   3.637  0.1767  0.1586  0.0013
 2101SOL     OW17231   0.384   7.662   0.031  0.2936 -0.2972 -0.3377
 2101SOL    HW117232   0.454   7.592   0.044  1.8871  1.3001 -0.0344
 2101SOL    HW217233   0.385   7.724   0.110 -1.8320 -0.5510 -0.0828
 2102SOL     OW17234   0.848   7.950   3.527  0.0654  0.1495  0.4020
 2102SOL    HW117235   0.863   7.885   3.603 -0.1302 -0.3762 -0.0050
 2102SOL    HW217236   0.936   7.987   3.497  0.0159  1.5331  1.8980
 2103SOL     OW17237   6.634   1.672   3.942  0.2430 -0.1825 -0.3563
 2103SOL    HW117238   6.725   1.652   3.906  0.5335  0.5753 -0.0497
 2103SOL    HW217239   6.567   1.612   3.898  0.9464 -1.0690 -0.2372
 2104SOL     OW17240   6.658   1.120   3.869  0.4412 -0.3581 -0.1825
 2104SOL    HW117241   6.664   1.127   3.770  0.5344 -1.1397 -0.2294
 2104SOL    HW217242   6.576   1.168   3.901 -0.0379 -0.8248 -0.7104
 2105SOL     OW17243   8.755   2.543   3.558 -0.0604  0.2073 -0.0606
 2105SOL    HW117244   8.854   2.547   3.566 -0.0426  2.8755 -0.9376
 2105SOL    HW217245   8.726   2.448   3.547  2.4643 -0.5300 -0.7462
 2106SOL     OW17246   9.506   8.552   4.634  0.1463 -0.1393 -0.4414
 2106SOL    HW117247   9.589   8.550   4.577  0.3737  0.8173 -0.1538
 2106SOL    HW217248   9.438   8.491   4.595  1.1278 -1.2348 -0.4696
 2107SOL     OW17249   9.419   8.238   2.593 -0.2377  0.2965 -0.0560
 2107SOL    HW117250   9.362   8.288   2.528  0.9950  1.5857 -0.1737
 2107SOL    HW217251   9.507   8.283   2.602  1.1525 -2.1961 -0.5995
 2108SOL     OW17252   1.448   5.621   1.387 -0.7570  0.2588 -0.3266
 2108SOL    HW117253   1.499   5.536   1.373 -1.1415 -0.0444  0.1137
 2108SOL    HW217254   1.441   5.640   1.484 -0.6151  0.8358 -0.4252
 2109SOL     OW17255   5.223   1.316   3.326 -0.0421 -0.2034  0.0010
 2109SOL    HW117256   5.128   1.296   3.302 -0.2422  0.4573  0.2067
 2109SOL    HW217257   5.226   1.401   3.379  0.9888  1.5727 -2.7865
 2110SOL     OW17258   2.051   7.733   1.170 -0.0220 -0.3629 -0.0130
 2110SOL    HW117259   2.094   7.646   1.143 -0.9162 -0.6045 -0.6896
 2110SOL    HW217260   2.074   7.803   1.103  2.2153  0.4114  1.4961
 2111SOL     OW17261   7.519   0.248   4.421 -0.1932 -0.5539  0.0861
 2111SOL    HW117262   7.590   0.184   4.451  0.2065 -0.4032 -0.5467
 2111SOL    HW217263   7.449   0.254   4.492  0.0559 -1.2548  0.4004
 2112SOL     OW17264   3.488   7.915   2.275 -0.2259  0.3025  0.5636
 2112SOL    HW117265   3.408   7.860   2.298 -0.5171  0.4446 -0.0840
 2112SOL    HW217266   3.543   7.866   2.207 -0.3618  0.6954  0.1637
 2113SOL     OW17267   3.439   5.060   2.001 -0.7902  0.5210  0.1209
 2113SOL    HW117268   3.358   5.117   1.986  0.6065  2.4640 -0.2155
 2113SOL    HW217269   3.494   5.097   2.075  0.2860 -0.2318 -0.2755
 2114SOL     OW17270   6.437   7.918   2.401  0.6715 -0.2321  0.3853
 2114SOL    HW117271   6.378   7.992   2.433  0.0930  0.6490 -2.5021
 2114SOL    HW217272   6.442   7.846   2.470 -3.2798 -0.0205  0.9974
 2115SOL     OW17273   0.028   0.984   1.370 -0.3298  0.0057  0.2909
 2115SOL    HW117274  -0.046   0.932   1.327 -2.1637  1.4539  1.6325
 2115SOL    HW217275   0.008   1.082   1.363  1.0323  0.3687  1.4206
 2116SOL     OW17276   8.570   9.846   0.655 -0.3184 -0.0637  0.1502
 2116SOL    HW117277   8.654   9.898   0.669  0.2495 -0.4274 -1.7352
 2116SOL    HW217278   8.513   9.851   0.737 -0.0396  3.1179  0.1984
 2117SOL     OW17279   2.655   7.255   4.748 -0.0330  0.5864 -0.5085
 2117SOL    HW117280   2.574   7.313   4.745 -0.3384  0.1386 -0.9504
 2117SOL    HW217281   2.733   7.308   4.781 -0.0636  1.5546 -1.9335
 2118SOL     OW17282   8.247   0.999   1.392  0.2212  0.0992 -0.4134
 2118SOL    HW117283   8.216   0.923   1.335 -2.0344  0.2008  0.6453
 2118SOL    HW217284   8.252   1.082   1.337  3.0843 -0.8472 -1.6751
 2119SOL     OW17285   4.999   1.273   4.609 -0.3379  0.1628 -1.1240
 2119SOL    HW117286   4.957   1.314   4.689  0.9550  0.2692 -0.4879
 2119SOL    HW217287   4.952   1.188   4.586  0.4147 -0.7909  0.8230
 2120SOL     OW17288   3.047   3.806   1.159  0.2191 -0.0500  0.5140
 2120SOL    HW117289   3.052   3.710   1.129  0.6922 -0.4691  1.8844
 2120SOL    HW217290   3.064   3.810   1.258 -1.4575  1.2604  0.7680
 2121SOL     OW17291   1.164   3.976   1.939 -0.9283 -0.5777 -0.7002
 2121SOL    HW117292   1.065   3.966   1.933 -1.2306  2.4047 -1.5895
 2121SOL    HW217293   1.196   4.035   1.865  1.4949 -1.3300 -0.2943
 2122SOL     OW17294   3.517   7.261   4.822  0.1187 -0.0227  0.2357
 2122SOL    HW117295   3.574   7.179   4.823 -0.0009 -0.1025  0.4384
 2122SOL    HW217296   3.570   7.339   4.856 -0.3645 -0.4003  1.8501
 2123SOL     OW17297   1.469   9.274   3.446  0.5484 -0.3064  0.2448
 2123SOL    HW117298   1.542   9.238   3.388 -0.6119 -1.0495 -0.7835
 2123SOL    HW217299   1.507   9.340   3.511  2.0169 -0.1819 -0.7242
 2124SOL     OW17300   7.871   8.688   4.133 -0.4050 -0.5589  1.0480
 2124SOL    HW117301   7.930   8.655   4.206 -1.4668 -1.9745  1.2756
 2124SOL    HW217302   7.883   8.787   4.124  1.0086 -0.6183  1.9651
 2125SOL     OW17303   1.613   0.870   1.074 -0.1820  0.2435 -0.7125
 2125SOL    HW117304   1.701   0.847   1.115 -0.5283 -1.3923 -0.8797
 2125SOL    HW217305   1.543   0.872   1.146 -0.4857 -1.0215 -0.9659
 2126SOL     OW17306   1.186   1.648   2.722 -0.2108  0.9715 -0.1157
 2126SOL    HW117307   1.271   1.699   2.713  0.4944  0.0873  1.1673
 2126SOL    HW217308   1.207   1.552   2.740 -1.4943  0.5811 -0.6077
 2127SOL     OW17309   5.748   8.767   4.019 -0.2242 -0.0975  0.8795
 2127SOL    HW117310   5.702   8.855   4.004  1.5746  0.5415 -1.2716
 2127SOL    HW217311   5.754   8.718   3.931  2.5284 -0.4598  1.2227
 2128SOL     OW17312   3.426   6.574   2.758  0.3652  1.0355 -0.1371
 2128SOL    HW117313   3.493   6.533   2.696 -0.2333 -0.2287  0.0384
 2128SOL    HW217314   3.409   6.668   2.731  2.4302  1.4756 -0.0189
 2129SOL     OW17315   8.125   4.734   5.396 -0.2148 -0.2885 -0.4494
 2129SOL    HW117316   8.131   4.808   5.330  0.4614 -0.5771 -0.7211
 2129SOL    HW217317   8.049   4.674   5.372 -0.5788  0.1466 -0.3973
 2130SOL     OW17318   0.381   5.943   2.234 -0.3506  0.5173 -0.8192
 2130SOL    HW117319   0.316   5.910   2.166  0.4897  0.9145 -1.8197
 2130SOL    HW217320   0.389   6.042   2.228 -1.7871  0.7875  1.2274
 2131SOL     OW17321   1.441   7.574   2.521 -0.2445  0.0148 -0.3716
 2131SOL    HW117322   1.496   7.517   2.460  1.5533  0.3588  0.8782
 2131SOL    HW217323   1.362   7.522   2.552  1.7324 -2.1481  1.3026
 2132SOL     OW17324   1.836   0.452   1.401 -0.5350 -0.2781  0.4247
 2132SOL    HW117325   1.767   0.399   1.451 -0.2329 -1.0476  0.0450
 2132SOL    HW217326   1.792   0.500   1.325 -0.8505  0.2046  0.9090
 2133SOL     OW17327   1.248   1.913   2.365 -0.5063  0.2135  0.0049
 2133SOL    HW117328   1.322   1.868   2.414  1.2212  2.2630 -0.6447
 2133SOL    HW217329   1.192   1.965   2.429 -0.6642 -0.3371  0.3218
 2134SOL     OW17330   7.656   5.284   5.493 -0.7208 -0.2895  0.6140
 2134SOL    HW117331   7.745   5.292   5.539 -0.7341  2.5865  0.2623
 2134SOL    HW217332   7.667   5.308   5.396 -2.1231  1.6883  0.9098
 2135SOL     OW17333   1.925   3.883   1.173  0.0532  0.1911 -0.7900
 2135SOL    HW117334   1.830   3.872   1.145 -1.3148  0.8652  3.3388
 2135SOL    HW217335   1.970   3.794   1.174 -0.9267 -0.3141 -1.3618
 2136SOL     OW17336   8.030   6.067   2.125 -0.3466 -0.2092  0.2534
 2136SOL    HW117337   8.047   6.062   2.223  0.4506  0.7139  0.1604
 2136SOL    HW217338   8.114   6.047   2.075 -0.0920  1.9845 -0.2212
 2137SOL     OW17339   5.357   0.998   4.703 -0.5056 -0.2847  0.5349
 2137SOL    HW117340   5.268   0.964   4.734 -0.7402  1.0651  1.3722
 2137SOL    HW217341   5.346   1.049   4.618 -0.3551 -1.1139  0.0137
 2138SOL     OW17342   8.385   4.705   2.797  0.6546 -0.2940 -0.2582
 2138SOL    HW117343   8.343   4.757   2.723 -0.8521 -0.8561  0.1664
 2138SOL    HW217344   8.467   4.751   2.829  1.2191  0.0414 -2.1636
 2139SOL     OW17345   1.927   7.127   1.980 -0.3173  0.2685  0.1785
 2139SOL    HW117346   1.910   7.167   2.071  0.1168  0.7772  0.0413
 2139SOL    HW217347   1.928   7.200   1.912  1.1231  0.1015  0.0074
 2140SOL     OW17348   9.642   8.457   1.187 -0.1818  0.0503 -0.2927
 2140SOL    HW117349   9.615   8.391   1.117 -0.9859 -1.3063  1.2468
 2140SOL    HW217350   9.567   8.521   1.204 -1.1745 -1.5526  1.5080
 2141SOL     OW17351   4.090   8.364   1.449 -0.2171  0.4435 -0.7640
 2141SOL    HW117352   4.059   8.313   1.529  1.1864 -2.0944 -1.7636
 2141SOL    HW217353   4.033   8.444   1.436 -1.1254  0.3223  2.1534
 2142SOL     OW17354   7.938   3.673   0.180 -0.0348 -0.2003  0.0826
 2142SOL    HW117355   8.017   3.646   0.235 -0.2155 -0.0439  0.4213
 2142SOL    HW217356   7.862   3.610   0.198 -0.1722 -0.0027  0.1999
 2143SOL     OW17357   7.853   1.273   5.082  0.0366 -0.1968  1.1109
 2143SOL    HW117358   7.882   1.269   5.177  1.2915 -1.0457  0.7058
 2143SOL    HW217359   7.775   1.211   5.067  0.7062 -1.0959  1.2967
 2144SOL     OW17360   9.220   7.253   1.090 -0.0314  0.5008 -0.4897
 2144SOL    HW117361   9.144   7.289   1.143 -0.2881 -0.4220 -0.2358
 2144SOL    HW217362   9.195   7.250   0.993 -0.6749 -0.7164 -0.2935
 2145SOL     OW17363   0.437   9.222   1.978 -0.2995 -0.3770  0.3990
 2145SOL    HW117364   0.413   9.155   1.907 -0.7837  1.0304 -0.7969
 2145SOL    HW217365   0.533   9.210   2.004 -0.8181 -2.6171  1.4223
 2146SOL     OW17366   2.185   1.448   3.131  0.1341 -0.2450 -0.4837
 2146SOL    HW117367   2.248   1.406   3.065 -1.3376 -0.8273 -1.5487
 2146SOL    HW217368   2.145   1.530   3.090  2.2163  1.6862  1.2026
 2147SOL     OW17369   5.207   0.004   4.527  0.1025 -0.1788  0.1127
 2147SOL    HW117370   5.240   0.006   4.432 -0.9603 -1.2072 -0.2917
 2147SOL    HW217371   5.157   0.089   4.546  1.7831  0.7862  0.3084
 2148SOL     OW17372   6.060   7.577   2.751  0.1958 -0.0524  0.0826
 2148SOL    HW117373   6.084   7.554   2.845  1.4190 -1.9916 -0.6858
 2148SOL    HW217374   6.026   7.671   2.747  2.6942  0.9685  2.0209
 2149SOL     OW17375   7.537   6.434   4.044 -0.2659 -0.2925 -0.3706
 2149SOL    HW117376   7.493   6.517   4.079 -0.0129  0.4278 -1.7203
 2149SOL    HW217377   7.467   6.368   4.016 -0.4689 -0.6645  0.9547
 2150SOL     OW17378   1.888   2.116   1.670 -0.1659 -0.1446 -0.0029
 2150SOL    HW117379   1.970   2.126   1.727 -0.8079 -0.9546  1.0841
 2150SOL    HW217380   1.851   2.206   1.649  0.2794  0.1793  0.5811
 2151SOL     OW17381   3.956   1.998   3.820 -0.3044  0.4297 -0.5803
 2151SOL    HW117382   4.024   2.071   3.817  1.5887 -1.3100 -0.8372
 2151SOL    HW217383   3.954   1.949   3.733 -1.9023  0.4541 -0.5799
 2152SOL     OW17384   0.020   4.488   1.783 -0.2596  0.0511 -0.1183
 2152SOL    HW117385   0.078   4.509   1.861  1.2858 -3.8048 -0.1220
 2152SOL    HW217386   0.074   4.445   1.711 -2.5941 -1.2201 -1.1942
 2153SOL     OW17387   4.440   9.543   3.788 -0.1493  0.2670 -0.2980
 2153SOL    HW117388   4.374   9.513   3.857 -1.4851  0.6034 -1.4115
 2153SOL    HW217389   4.399   9.535   3.697  1.5402 -0.0257 -1.0520
 2154SOL     OW17390   2.842   0.445   2.529 -0.4577  0.5484 -0.3184
 2154SOL    HW117391   2.844   0.378   2.604 -1.3952 -0.1430 -0.8988
 2154SOL    HW217392   2.791   0.407   2.452  0.3110  1.3398 -1.2368
 2155SOL     OW17393   3.143   2.440   2.589 -0.3520  0.0370  0.0529
 2155SOL    HW117394   3.196   2.396   2.662  0.6964  1.3033  0.0722
 2155SOL    HW217395   3.090   2.371   2.540  0.9520 -1.1907  0.3310
 2156SOL     OW17396   1.196   8.623   2.671  0.2322 -1.0409 -0.1003
 2156SOL    HW117397   1.285   8.609   2.714  0.6325  1.3775 -0.0778
 2156SOL    HW217398   1.130   8.559   2.710  1.6072 -1.8570  0.9508
 2157SOL     OW17399   2.633   2.533   4.993 -0.7194 -0.3132  0.0252
 2157SOL    HW117400   2.595   2.473   4.922 -0.3586  0.1178 -0.5447
 2157SOL    HW217401   2.574   2.613   5.003  0.0102  0.3621 -0.8679
 2158SOL     OW17402   9.385   6.833   2.799 -0.3117  0.3958  0.0236
 2158SOL    HW117403   9.453   6.849   2.727  0.9347  1.2955  1.3807
 2158SOL    HW217404   9.361   6.919   2.843 -2.2454  0.0770 -0.3195
 2159SOL     OW17405   1.296   9.373   0.440 -0.2301 -0.2595  0.5090
 2159SOL    HW117406   1.341   9.409   0.522 -2.0974  3.1929  0.1133
 2159SOL    HW217407   1.212   9.325   0.466  0.1255 -0.7529  0.7469
 2160SOL     OW17408   1.429   8.958   0.444 -0.5791 -0.0729  0.4103
 2160SOL    HW117409   1.418   9.040   0.387 -1.6609 -0.3550  0.2045
 2160SOL    HW217410   1.430   8.984   0.540 -1.7361  0.1043  0.3804
 2161SOL     OW17411   7.532   5.861   5.147 -0.1460 -0.0424 -0.1637
 2161SOL    HW117412   7.534   5.772   5.102  1.5941 -0.0708 -0.0583
 2161SOL    HW217413   7.604   5.865   5.217  0.5033  1.8110 -0.9052
 2162SOL     OW17414   3.932   3.541   0.121 -0.0484 -0.1234  0.2099
 2162SOL    HW117415   3.961   3.487   0.041 -0.6928 -0.7816  0.4170
 2162SOL    HW217416   3.865   3.489   0.173 -2.4814  1.8626 -0.8720
 2163SOL     OW17417   5.561   0.289   2.245 -0.3674  0.0194 -0.1768
 2163SOL    HW117418   5.654   0.263   2.269 -1.1279 -1.0610  1.6830
 2163SOL    HW217419   5.501   0.209   2.255 -1.2953  0.3655 -2.5709
 2164SOL     OW17420   0.059   6.316   0.458  0.1131 -0.3412 -0.4876
 2164SOL    HW117421  -0.001   6.242   0.429  1.1926 -1.1112 -0.7789
 2164SOL    HW217422   0.152   6.297   0.428  0.8647 -0.0942  1.6465
 2165SOL     OW17423   1.194   4.477   2.766 -0.1081  0.4322  0.1060
 2165SOL    HW117424   1.135   4.557   2.776  1.5866  1.5522  1.2365
 2165SOL    HW217425   1.179   4.414   2.842  1.6190  1.6904  1.5165
 2166SOL     OW17426   1.878   1.211   3.697 -0.1332  0.0979  0.1320
 2166SOL    HW117427   1.861   1.120   3.735  0.2804 -0.7059 -1.5521
 2166SOL    HW217428   1.790   1.253   3.673 -0.2397 -0.6201 -0.7816
 2167SOL     OW17429   0.787   0.146   1.548 -0.0803 -0.0619 -0.7407
 2167SOL    HW117430   0.855   0.086   1.505 -1.0501 -1.2340 -0.6666
 2167SOL    HW217431   0.833   0.227   1.584  1.0843 -0.2004 -1.8642
 2168SOL     OW17432   8.149   0.630   2.884 -0.1541  0.1797  0.1603
 2168SOL    HW117433   8.237   0.677   2.883  0.6481 -1.2509 -2.8353
 2168SOL    HW217434   8.118   0.620   2.978  2.4195  1.5363  1.2129
 2169SOL     OW17435   0.970   7.516   2.122 -0.1571 -0.2669  0.2018
 2169SOL    HW117436   1.021   7.434   2.147 -0.3492 -0.5607 -0.3457
 2169SOL    HW217437   0.877   7.490   2.095 -0.4920  0.2277  0.8765
 2170SOL     OW17438   1.811   2.380   2.207  0.2721 -0.1091  0.0845
 2170SOL    HW117439   1.905   2.371   2.174  0.3054  0.2360  0.0798
 2170SOL    HW217440   1.763   2.447   2.151  0.7117  1.4808  1.5312
 2171SOL     OW17441   1.163   0.915   3.492 -0.1503 -0.1737  0.0986
 2171SOL    HW117442   1.078   0.890   3.537 -0.9661  0.4562 -1.0756
 2171SOL    HW217443   1.211   0.832   3.464 -1.5489 -0.4896 -1.3994
 2172SOL     OW17444   7.392   5.240   4.523 -0.0989  0.8514  0.3254
 2172SOL    HW117445   7.327   5.165   4.507  1.8375 -0.8567  0.2633
 2172SOL    HW217446   7.408   5.289   4.437 -0.2929  0.4362  0.0505
 2173SOL     OW17447   2.489   9.273   4.612 -0.2692 -0.2620 -0.2440
 2173SOL    HW117448   2.513   9.214   4.535 -1.0103 -0.6040 -0.2238
 2173SOL    HW217449   2.439   9.219   4.681 -1.1491  0.4272 -0.3259
 2174SOL     OW17450   2.587   7.196   5.049  0.2644  0.3857 -0.2839
 2174SOL    HW117451   2.490   7.216   5.067 -0.4967 -1.6633 -1.9295
 2174SOL    HW217452   2.602   7.191   4.951  1.7396 -0.8473 -0.0037
 2175SOL     OW17453   0.102   2.864   0.978  0.0364 -0.8621  0.4261
 2175SOL    HW117454   0.127   2.798   1.048  0.1837  0.1051  1.3070
 2175SOL    HW217455   0.106   2.821   0.887  0.9158 -1.8164  0.9109
 2176SOL     OW17456   9.173   1.879   5.063 -0.6376  0.0166 -0.5755
 2176SOL    HW117457   9.161   1.869   4.964 -3.9757 -0.7601 -0.1494
 2176SOL    HW217458   9.085   1.899   5.105  0.9351  1.4621  2.1397
 2177SOL     OW17459   2.235   7.008   2.342  0.0560  0.2040 -0.8855
 2177SOL    HW117460   2.317   6.958   2.316 -0.2898  0.0933 -1.8160
 2177SOL    HW217461   2.158   6.976   2.286 -0.8049 -0.3122  0.5870
 2178SOL     OW17462   9.560   0.827   4.657  0.1119  0.5056  0.0864
 2178SOL    HW117463   9.497   0.767   4.706  0.1201  0.7317  0.3745
 2178SOL    HW217464   9.547   0.815   4.559 -0.4571  0.6308  0.1431
 2179SOL     OW17465   3.503   7.742   1.823 -0.6535 -0.0535 -0.2181
 2179SOL    HW117466   3.530   7.646   1.826 -0.1985  0.1381  2.2712
 2179SOL    HW217467   3.411   7.750   1.784 -0.7701 -1.5078 -0.2440
 2180SOL     OW17468   1.339   3.963   0.193  0.4591 -0.4316 -0.1112
 2180SOL    HW117469   1.260   4.017   0.163 -0.6571 -0.5911  2.4081
 2180SOL    HW217470   1.351   3.885   0.131 -1.0051 -0.0897 -0.8519
 2181SOL     OW17471   2.186   9.580   0.699  0.1921 -0.0977 -0.2938
 2181SOL    HW117472   2.115   9.512   0.678 -1.1327  0.9083  0.7600
 2181SOL    HW217473   2.142   9.666   0.725  1.8269  0.6234  0.1263
 2182SOL     OW17474   1.239   3.303   2.666 -0.0624 -0.5397  0.1157
 2182SOL    HW117475   1.226   3.399   2.689  1.3314 -0.1986 -0.4432
 2182SOL    HW217476   1.271   3.296   2.571 -0.5593 -1.5745  0.0230
 2183SOL     OW17477   4.541   0.259   4.165  0.1511 -0.0171 -0.3314
 2183SOL    HW117478   4.456   0.213   4.137 -0.5633  0.5105  0.9141
 2183SOL    HW217479   4.559   0.239   4.262  0.6527  1.0779 -0.1881
 2184SOL     OW17480   3.314   2.476   5.110 -0.6269  0.4946  0.3368
 2184SOL    HW117481   3.357   2.459   5.022  2.6448 -1.6783  2.2406
 2184SOL    HW217482   3.232   2.420   5.119  0.7408 -1.6375 -0.1287
 2185SOL     OW17483   4.153   0.168   0.052 -0.2367  0.3568 -0.1683
 2185SOL    HW117484   4.204   0.189  -0.032  0.1708  0.1188  0.0172
 2185SOL    HW217485   4.193   0.218   0.128 -1.0785  1.1687 -0.2418
 2186SOL     OW17486   9.321   6.590   5.312  0.8253 -0.0564 -0.5371
 2186SOL    HW117487   9.249   6.555   5.373  0.8982  0.3361 -0.2234
 2186SOL    HW217488   9.283   6.610   5.222  0.8160 -1.1206 -0.7748
 2187SOL     OW17489   0.513   2.729   1.993 -0.4003  0.2573  0.0292
 2187SOL    HW117490   0.530   2.814   1.944  2.4426 -0.1988  0.1524
 2187SOL    HW217491   0.553   2.734   2.084 -3.9912  0.3780  1.6816
 2188SOL     OW17492   4.237   2.223   5.103 -0.0250 -0.0583 -0.0801
 2188SOL    HW117493   4.320   2.276   5.120  0.0047 -0.1467  0.0485
 2188SOL    HW217494   4.171   2.280   5.053 -1.3131  1.2361  2.9780
 2189SOL     OW17495   1.552   3.628   2.793  0.4289 -0.3286 -0.0151
 2189SOL    HW117496   1.565   3.691   2.717  0.0129  0.3327  0.4525
 2189SOL    HW217497   1.639   3.586   2.817  0.4690 -0.9559 -1.2051
 2190SOL     OW17498   2.046   9.745   1.516 -0.1669 -0.0241 -0.1938
 2190SOL    HW117499   2.025   9.821   1.454 -1.1752 -0.3409 -0.2477
 2190SOL    HW217500   2.046   9.659   1.465  0.0987 -0.1624  0.0380
 2191SOL     OW17501   2.116   1.669   0.640 -0.5003 -0.0966 -0.1809
 2191SOL    HW117502   2.092   1.593   0.700  0.5728  0.2117  0.6346
 2191SOL    HW217503   2.210   1.659   0.607 -0.4768  0.6715 -0.3807
 2192SOL     OW17504   9.101   5.741   5.515  0.3188  0.4972  0.0779
 2192SOL    HW117505   9.094   5.727   5.417 -0.3783  0.2695  0.1559
 2192SOL    HW217506   9.197   5.746   5.542  0.4973  1.7293 -0.7702
 2193SOL     OW17507   3.162   0.504   5.389  0.1577  0.0040  0.1209
 2193SOL    HW117508   3.254   0.503   5.351  0.4928  0.3134  0.9105
 2193SOL    HW217509   3.095   0.515   5.315  0.8407  1.6055 -0.2869
 2194SOL     OW17510   8.985   7.177   1.803 -0.0411  0.1681 -0.0611
 2194SOL    HW117511   9.014   7.152   1.711 -2.8872  0.4644 -1.1180
 2194SOL    HW217512   8.885   7.173   1.807  0.0600  0.1323  3.0392
 2195SOL     OW17513   7.671   0.606   2.859 -0.2782 -0.3134 -0.8787
 2195SOL    HW117514   7.746   0.552   2.821 -0.1442 -0.6702 -0.1018
 2195SOL    HW217515   7.584   0.563   2.835 -0.2352  0.0199 -1.6536
 2196SOL     OW17516   0.209   2.279   2.229  0.2017  0.1229 -0.2088
 2196SOL    HW117517   0.283   2.223   2.266 -0.4382  0.0554  0.9918
 2196SOL    HW217518   0.216   2.283   2.129  1.9804  0.3483 -0.0770
 2197SOL     OW17519   2.872   3.059   5.470 -0.2087  0.4689  0.2591
 2197SOL    HW117520   2.950   3.121   5.467  0.6727 -0.6500 -0.2464
 2197SOL    HW217521   2.803   3.090   5.403  0.4090  0.6449 -0.2989
 2198SOL     OW17522   9.666   3.369   3.529 -0.5062 -0.3225 -0.5188
 2198SOL    HW117523   9.578   3.366   3.576 -1.0961  1.7523 -1.4548
 2198SOL    HW217524   9.738   3.390   3.595 -1.1062  0.8163 -0.2050
 2199SOL     OW17525   6.096   0.276   3.189  0.1854  0.4040 -0.8117
 2199SOL    HW117526   6.005   0.272   3.146 -0.2638  3.4089 -0.2967
 2199SOL    HW217527   6.166   0.282   3.117 -0.2170  0.5391 -1.1982
 2200SOL     OW17528   3.713   4.443   0.930 -0.1974  0.0285  0.3861
 2200SOL    HW117529   3.792   4.472   0.875 -2.3202  1.4393 -1.9925
 2200SOL    HW217530   3.682   4.354   0.898 -0.7142  0.3218  0.0682
 2201SOL     OW17531   2.162   8.926   4.751 -0.7258  0.1264  0.3717
 2201SOL    HW117532   2.084   8.988   4.752  0.2524  1.4173 -0.7374
 2201SOL    HW217533   2.245   8.976   4.773  0.3425 -0.3842 -2.2634
 2202SOL     OW17534   4.515   9.580   4.199 -0.3595  0.4670  0.5034
 2202SOL    HW117535   4.445   9.622   4.256 -0.2038 -1.3317  2.0669
 2202SOL    HW217536   4.494   9.599   4.103 -1.1724  2.6811  1.0791
 2203SOL     OW17537   8.789   3.412   1.169  0.5519  0.7711 -0.6349
 2203SOL    HW117538   8.723   3.398   1.243  0.5276 -1.0031 -0.9728
 2203SOL    HW217539   8.742   3.407   1.081  1.2541 -1.4202 -0.9123
 2204SOL     OW17540   9.840   3.019   3.988 -0.6967  0.1297  0.4004
 2204SOL    HW117541   9.786   3.056   3.913 -1.1004 -2.4125 -0.5879
 2204SOL    HW217542   9.794   2.940   4.027  1.0100 -0.4464  1.2982
 2205SOL     OW17543   5.104   8.890   2.207  0.4266 -0.3061  0.1806
 2205SOL    HW117544   5.033   8.821   2.213  0.1600 -0.1680 -1.1512
 2205SOL    HW217545   5.118   8.933   2.297 -0.4080 -1.0801  0.6774
 2206SOL     OW17546   7.887   2.505   3.827 -0.0212  0.5008 -0.4471
 2206SOL    HW117547   7.885   2.559   3.910  1.4614  0.5380 -0.4239
 2206SOL    HW217548   7.793   2.483   3.799 -0.5275  0.3678  1.2957
 2207SOL     OW17549   7.118   0.091   5.585  0.5809  0.2359  0.1614
 2207SOL    HW117550   7.043   0.156   5.593  0.0423 -0.2226 -0.9155
 2207SOL    HW217551   7.140   0.052   5.674 -0.4344  0.4152  0.4867
 2208SOL     OW17552   2.339   5.000   1.759 -0.0935 -0.2060  0.3354
 2208SOL    HW117553   2.355   4.903   1.744 -0.2983 -0.1304 -0.3963
 2208SOL    HW217554   2.254   5.013   1.811 -0.2363 -0.4028  0.1501
 2209SOL     OW17555   1.516   0.476   3.364 -0.0427  0.2847  0.0719
 2209SOL    HW117556   1.560   0.389   3.341 -0.0281  0.2426  0.2584
 2209SOL    HW217557   1.506   0.531   3.281  0.1432  0.1945 -0.0102
 2210SOL     OW17558   9.210   4.297   5.157 -0.1890  0.6788 -0.1199
 2210SOL    HW117559   9.254   4.259   5.238  0.5230 -0.0599 -0.8492
 2210SOL    HW217560   9.206   4.397   5.165 -1.7633  0.4945  1.6411
 2211SOL     OW17561   8.870   7.001   3.551  0.2863  0.0927  0.4342
 2211SOL    HW117562   8.862   6.904   3.576  1.2464 -0.1791 -0.2435
 2211SOL    HW217563   8.780   7.036   3.525  0.3655 -1.3924 -2.0050
 2212SOL     OW17564   2.816   2.723   4.380 -0.5966  0.4625 -0.5564
 2212SOL    HW117565   2.782   2.658   4.448 -0.6591  1.3047  0.2335
 2212SOL    HW217566   2.742   2.783   4.350 -0.0909  1.5224  0.2813
 2213SOL     OW17567   8.075   9.684   1.910 -0.0652  0.1378 -0.1752
 2213SOL    HW117568   8.054   9.782   1.915  1.8641  0.7362 -2.7303
 2213SOL    HW217569   8.033   9.645   1.828 -2.1913 -1.5946  1.6590
 2214SOL     OW17570   7.756   6.776   1.893 -0.5203  0.2234  0.0802
 2214SOL    HW117571   7.751   6.854   1.956 -2.2630 -0.9012  1.3694
 2214SOL    HW217572   7.718   6.802   1.804 -2.8529  0.2980  1.0813
 2215SOL     OW17573   7.350   8.830   0.463  0.0056 -0.4136 -0.6593
 2215SOL    HW117574   7.328   8.767   0.389  1.2933 -0.6867 -0.8114
 2215SOL    HW217575   7.403   8.907   0.426  2.6011 -1.6681  0.3236
 2216SOL     OW17576   6.627   0.239   4.105 -0.0536 -0.3879  0.3108
 2216SOL    HW117577   6.565   0.221   4.028 -0.1002 -1.4594  0.5871
 2216SOL    HW217578   6.612   0.331   4.140 -0.5245 -0.1485 -0.5106
 2217SOL     OW17579   4.540   1.352   5.188  0.1917 -0.4194 -0.3091
 2217SOL    HW117580   4.609   1.361   5.259 -1.0738  2.7344  0.6108
 2217SOL    HW217581   4.452   1.329   5.229 -0.2754  0.1517 -0.9763
 2218SOL     OW17582   4.331   9.557   1.491  0.4156  0.0563 -0.0315
 2218SOL    HW117583   4.347   9.655   1.500  0.1381 -0.0909  2.3105
 2218SOL    HW217584   4.241   9.542   1.449  1.7188  0.7784 -3.2480
 2219SOL     OW17585   2.815   0.678   4.698  0.1138 -0.2296  0.1842
 2219SOL    HW117586   2.735   0.630   4.735  1.0435  1.0475  4.0058
 2219SOL    HW217587   2.784   0.750   4.636 -1.6883 -0.0902  1.2104
 2220SOL     OW17588   0.289   9.255   4.403 -0.1609  0.9879 -0.0909
 2220SOL    HW117589   0.298   9.156   4.416 -0.5795  0.7096 -1.8037
 2220SOL    HW217590   0.253   9.296   4.487  1.6595 -0.0620  1.2290
 2221SOL     OW17591   7.715   6.853   1.610  0.5991 -0.0579  0.7241
 2221SOL    HW117592   7.642   6.912   1.575  1.3674 -0.0690 -0.9374
 2221SOL    HW217593   7.803   6.882   1.572  1.1107 -1.6809  0.6192
 2222SOL     OW17594   9.541   0.292   2.047  0.7161 -0.1530 -0.2547
 2222SOL    HW117595   9.612   0.252   2.105  0.5614  0.8496  0.6377
 2222SOL    HW217596   9.581   0.316   1.958  1.5276  0.5283  0.2852
 2223SOL     OW17597   3.476   1.308   1.101 -0.6394  0.9176  0.0773
 2223SOL    HW117598   3.412   1.376   1.137 -0.2249  1.2898  0.1092
 2223SOL    HW217599   3.462   1.221   1.149 -0.7258  1.1592  0.4924
 2224SOL     OW17600   0.560   1.268   1.790 -0.3298 -0.2276 -0.1794
 2224SOL    HW117601   0.509   1.185   1.770  0.2151 -0.7004  0.3965
 2224SOL    HW217602   0.627   1.284   1.717 -0.5764 -0.1761 -0.3960
 2225SOL     OW17603   4.092   3.091   5.066  0.0051 -0.0896  0.5764
 2225SOL    HW117604   4.030   3.164   5.095  0.9231 -0.0439  2.4778
 2225SOL    HW217605   4.062   3.004   5.106  0.0867 -0.4001 -0.0341
 2226SOL     OW17606   1.922   6.542   3.153  0.2824  0.5713  0.0054
 2226SOL    HW117607   2.000   6.542   3.215 -0.0745  0.8187  0.4598
 2226SOL    HW217608   1.937   6.475   3.081  1.1137  0.9421 -0.1697
 2227SOL     OW17609   1.194   6.592   1.860  0.1802  0.0633 -0.5021
 2227SOL    HW117610   1.245   6.669   1.897  0.6290 -0.5803  0.2444
 2227SOL    HW217611   1.097   6.616   1.851  0.2284  0.5255  0.2244
 2228SOL     OW17612   3.796   3.608   5.210 -0.2876 -0.2858  0.1038
 2228SOL    HW117613   3.723   3.576   5.150  0.8299  0.3531 -1.6303
 2228SOL    HW217614   3.884   3.577   5.174  0.5145  1.3738  0.5856
 2229SOL     OW17615   1.226   8.320   2.281 -0.3411 -0.3115 -0.2479
 2229SOL    HW117616   1.237   8.407   2.329 -1.7762 -0.6424  0.7114
 2229SOL    HW217617   1.314   8.274   2.275  0.0393  0.2013  1.1757
 2230SOL     OW17618   1.043   3.009   3.855 -0.6440 -0.0095 -0.0833
 2230SOL    HW117619   0.989   3.093   3.849  0.3614  0.4969 -3.7696
 2230SOL    HW217620   0.986   2.931   3.830 -1.0660 -0.1634  1.3674
 2231SOL     OW17621   5.815   0.907   3.258  0.0632 -0.3569 -0.4753
 2231SOL    HW117622   5.845   0.861   3.341  0.3716  0.8162  0.0764
 2231SOL    HW217623   5.777   0.997   3.281 -1.0068 -0.5276 -1.4742
 2232SOL     OW17624   9.070   2.784   0.886 -0.8428 -0.8412 -0.2500
 2232SOL    HW117625   9.009   2.862   0.899 -2.9927 -1.9789 -2.9229
 2232SOL    HW217626   9.043   2.709   0.947 -0.3878 -0.3963  0.5011
 2233SOL     OW17627   3.455   9.592   1.509  0.8776 -0.0632  0.0116
 2233SOL    HW117628   3.471   9.589   1.411  2.2685 -1.6968  0.2654
 2233SOL    HW217629   3.527   9.541   1.556 -0.7881 -0.8778  1.7519
 2234SOL     OW17630   3.333   8.565   1.483  0.2456 -0.2556  0.4387
 2234SOL    HW117631   3.330   8.485   1.424 -0.3116 -0.4009  0.6576
 2234SOL    HW217632   3.252   8.621   1.467  1.8308  1.5680 -1.5173
 2235SOL     OW17633   1.811   2.936   2.397  0.0647  0.0518 -0.0155
 2235SOL    HW117634   1.772   2.875   2.328  1.2697  0.1321 -0.7893
 2235SOL    HW217635   1.904   2.907   2.417 -0.5489 -0.4564  2.1935
 2236SOL     OW17636   7.144   0.058   0.241 -0.1089  0.2025  0.2464
 2236SOL    HW117637   7.101   0.047   0.331 -0.8256 -0.7199 -0.2119
 2236SOL    HW217638   7.231   0.009   0.240  0.6740  1.5329  0.9555
 2237SOL     OW17639   6.805   9.201   4.376  0.2728  0.0562  1.0867
 2237SOL    HW117640   6.730   9.234   4.433 -1.6574 -0.2936 -1.1896
 2237SOL    HW217641   6.842   9.277   4.322 -2.0969 -0.7903 -1.8278
 2238SOL     OW17642   2.901   6.763   3.324  0.0231 -0.1141 -0.1191
 2238SOL    HW117643   2.949   6.787   3.239  0.6670 -0.7948  0.0398
 2238SOL    HW217644   2.937   6.818   3.399 -0.2498  0.1917 -0.2164
 2239SOL     OW17645   9.370   4.578   1.289 -0.6551 -0.7450 -0.8073
 2239SOL    HW117646   9.397   4.514   1.218  0.8777 -1.6808  0.5867
 2239SOL    HW217647   9.440   4.649   1.298  1.0151 -2.6617  2.1939
 2240SOL     OW17648   9.897   4.998   0.309 -0.2082 -0.1357 -0.3035
 2240SOL    HW117649   9.816   4.965   0.261 -0.1004  1.4556 -1.6312
 2240SOL    HW217650   9.892   5.098   0.317  1.8791  0.0274 -0.8773
 2241SOL     OW17651   9.797   6.019   3.136  0.2505  0.5017 -0.8255
 2241SOL    HW117652   9.805   6.116   3.111  0.1389  0.9062  0.6427
 2241SOL    HW217653   9.702   6.001   3.165  0.6496  0.3496  0.4335
 2242SOL     OW17654   5.126   6.100   1.315 -0.4471  0.5346 -0.1296
 2242SOL    HW117655   5.175   6.044   1.249 -1.7191 -1.4977  0.6298
 2242SOL    HW217656   5.183   6.114   1.396 -0.7804 -1.1602  0.4183
 2243SOL     OW17657   8.241   5.968   2.001 -0.2136 -0.2294 -0.7219
 2243SOL    HW117658   8.299   6.015   2.068  1.6339  0.0995 -2.4820
 2243SOL    HW217659   8.255   5.870   2.007 -0.1020 -0.2026 -0.5606
 2244SOL     OW17660   8.410   4.980   1.057 -0.3442  0.0582 -0.1495
 2244SOL    HW117661   8.466   5.026   1.126 -0.0846  1.2133 -1.1018
 2244SOL    HW217662   8.466   4.912   1.009  0.1376  0.9220 -0.8205
 2245SOL     OW17663   9.924   7.285   1.689  0.1173 -0.1930 -0.3538
 2245SOL    HW117664   9.875   7.231   1.757 -0.0423 -1.0573 -1.1555
 2245SOL    HW217665   9.860   7.346   1.642 -0.1533 -1.1684 -1.2522
 2246SOL     OW17666   9.719   0.440   5.587 -0.3728  0.1084  0.0849
 2246SOL    HW117667   9.774   0.359   5.571  0.2782  0.5194  0.2232
 2246SOL    HW217668   9.648   0.446   5.517 -1.7324 -1.6832  1.2709
 2247SOL     OW17669   2.046   0.918   1.586 -0.1627  0.1586  0.0807
 2247SOL    HW117670   1.973   0.978   1.552 -1.6546 -0.2617  2.4287
 2247SOL    HW217671   2.133   0.946   1.547 -1.3275  1.8068 -1.3948
 2248SOL     OW17672   9.181   2.321   2.067  0.2274 -0.5081 -0.1760
 2248SOL    HW117673   9.201   2.229   2.099 -0.8308 -0.1967  1.4692
 2248SOL    HW217674   9.122   2.317   1.986  2.0230 -1.2910 -1.4732
 2249SOL     OW17675   8.223   5.955   4.572  0.1684 -0.2688  0.1556
 2249SOL    HW117676   8.249   5.983   4.665  1.2043 -0.8213  0.0376
 2249SOL    HW217677   8.193   6.035   4.521 -0.0511  0.1019  0.8531
 2250SOL     OW17678   1.024   7.318   0.739 -0.4347 -0.3723  0.8944
 2250SOL    HW117679   1.121   7.297   0.753 -0.3295  0.1575  0.9713
 2250SOL    HW217680   0.981   7.336   0.827 -0.3944  0.2858  0.7815
 2251SOL     OW17681   0.146   2.787   2.205  0.0092  0.1641  0.3912
 2251SOL    HW117682   0.189   2.774   2.116  0.4539  1.6516  0.3742
 2251SOL    HW217683   0.058   2.832   2.193 -0.0466  0.1300  0.6783
 2252SOL     OW17684   3.997   1.889   3.546  0.1501  0.3034 -0.2938
 2252SOL    HW117685   3.929   1.956   3.516  1.4183  1.7589  0.0294
 2252SOL    HW217686   4.056   1.865   3.469 -1.8840 -2.4123 -1.0668
 2253SOL     OW17687   7.251   0.081   3.790 -0.3155 -0.2916 -0.5134
 2253SOL    HW117688   7.347   0.075   3.820 -0.6411 -0.5212  0.5135
 2253SOL    HW217689   7.191   0.060   3.867 -1.2697  3.1547 -0.2084
 2254SOL     OW17690   1.901   7.593   2.600 -0.3125  0.3103 -0.2641
 2254SOL    HW117691   1.967   7.591   2.675  0.2207  0.6364 -0.7205
 2254SOL    HW217692   1.831   7.662   2.619  0.5724  1.3465 -0.6907
 2255SOL     OW17693   7.679   2.927   1.521  0.8404 -0.4212  0.0645
 2255SOL    HW117694   7.719   2.848   1.474  0.0887 -1.1279  0.5880
 2255SOL    HW217695   7.747   2.965   1.585  0.7644 -1.4833  0.7956
 2256SOL     OW17696   4.030   7.302   3.957  0.0250  0.1972 -0.0743
 2256SOL    HW117697   3.995   7.355   4.034 -0.9529 -0.7290  0.1426
 2256SOL    HW217698   3.962   7.232   3.931  0.1112  0.8278 -2.1030
 2257SOL     OW17699   2.578   0.436   3.018  0.6723  0.3934 -0.4413
 2257SOL    HW117700   2.607   0.420   3.112  0.0471 -1.4766 -0.5515
 2257SOL    HW217701   2.581   0.351   2.967  2.3029  1.6333 -2.5154
 2258SOL     OW17702   1.677   0.659   0.712  0.3442 -0.0696 -0.6566
 2258SOL    HW117703   1.706   0.634   0.805 -0.8836 -0.8981 -0.4754
 2258SOL    HW217704   1.744   0.721   0.671  0.9543  0.2107  0.7425
 2259SOL     OW17705   8.127   0.696   1.595 -0.0890  0.7308 -0.0484
 2259SOL    HW117706   8.222   0.670   1.575 -0.5742 -0.5416 -0.7368
 2259SOL    HW217707   8.067   0.661   1.524 -1.3160 -0.1393  1.3737
 2260SOL     OW17708   0.210   7.208   1.737 -0.0157  0.5876  0.3428
 2260SOL    HW117709   0.115   7.218   1.709  0.2776  3.1196  0.0678
 2260SOL    HW217710   0.214   7.182   1.834 -0.9756 -1.1806 -0.0765
 2261SOL     OW17711   3.245   2.432   1.321  0.6209  0.2666  0.1792
 2261SOL    HW117712   3.268   2.431   1.418 -0.0496 -1.5569  0.3360
 2261SOL    HW217713   3.321   2.395   1.268  0.5137  0.1167  0.1288
 2262SOL     OW17714   2.203   8.975   0.422  0.1204 -0.2219 -0.6437
 2262SOL    HW117715   2.156   9.021   0.347 -1.2466  1.6761  1.3240
 2262SOL    HW217716   2.278   9.034   0.455 -0.3069 -0.3196  0.5174
 2263SOL     OW17717   0.022   1.207   2.383  0.1675 -0.1705 -0.0139
 2263SOL    HW117718   0.090   1.279   2.368 -1.2235  1.0701 -0.4613
 2263SOL    HW217719  -0.035   1.230   2.462 -1.2144 -0.0676 -1.0206
 2264SOL     OW17720   3.829   3.904   2.601  0.6683 -0.2819 -0.0819
 2264SOL    HW117721   3.783   3.892   2.689  0.7599 -0.6854 -0.0901
 2264SOL    HW217722   3.898   3.975   2.609 -1.4419  1.9115 -0.6193
 2265SOL     OW17723   8.709   8.023   0.952 -0.2941 -0.2642  0.2114
 2265SOL    HW117724   8.703   8.043   0.854  1.3043 -2.0011 -0.2750
 2265SOL    HW217725   8.701   7.925   0.967 -1.6645  0.0866  1.9461
 2266SOL     OW17726   6.553   7.511   2.211 -0.0567  0.2453  0.1800
 2266SOL    HW117727   6.534   7.526   2.114 -1.3371  1.2846  0.5892
 2266SOL    HW217728   6.468   7.498   2.261  0.4444  1.9366  1.5269
 2267SOL     OW17729   1.182   8.250   4.317 -0.0736  0.1626  0.2998
 2267SOL    HW117730   1.280   8.250   4.340  0.1890 -0.2713 -0.7791
 2267SOL    HW217731   1.156   8.160   4.283 -0.5706  0.6258 -0.5640
 2268SOL     OW17732   0.641   5.340   2.872  0.2742  0.5114  0.0875
 2268SOL    HW117733   0.617   5.434   2.898 -0.4959  0.5336 -0.7039
 2268SOL    HW217734   0.678   5.339   2.779 -0.2272 -0.0423 -0.1112
 2269SOL     OW17735   1.776   7.748   5.139 -0.0805  0.0516  0.3284
 2269SOL    HW117736   1.743   7.842   5.131 -0.9543 -0.1815  1.0982
 2269SOL    HW217737   1.734   7.705   5.219  1.3083 -0.5859  0.7227
 2270SOL     OW17738   2.287   4.211   0.974  0.5219 -0.3266  0.3924
 2270SOL    HW117739   2.299   4.273   1.051 -0.7315  0.8036 -0.3117
 2270SOL    HW217740   2.190   4.194   0.959  0.7921 -1.2316 -0.3999
 2271SOL     OW17741   1.593   8.386   3.076  0.2396  0.0095  0.4286
 2271SOL    HW117742   1.519   8.445   3.109  2.6823  2.2008  2.1315
 2271SOL    HW217743   1.639   8.430   2.999  3.2965  1.3600  2.9020
 2272SOL     OW17744   2.521   7.143   3.956 -0.3724  0.5853 -0.2784
 2272SOL    HW117745   2.555   7.138   3.862 -1.2269  1.2185 -0.6292
 2272SOL    HW217746   2.509   7.050   3.991  2.0981  0.3452  0.0175
 2273SOL     OW17747   7.682   0.988   4.644  0.4558 -0.0129  0.1832
 2273SOL    HW117748   7.594   1.031   4.666  0.2763 -0.4577  0.3335
 2273SOL    HW217749   7.667   0.912   4.582  0.6075 -0.8089  1.1128
 2274SOL     OW17750   2.529   0.251   2.798 -0.0178  0.6601  0.0084
 2274SOL    HW117751   2.627   0.272   2.793  0.0596 -0.0238 -1.5890
 2274SOL    HW217752   2.500   0.207   2.713 -1.6120  0.4037  0.6706
 2275SOL     OW17753   0.208   9.334   0.142  0.2577  0.2679 -0.1614
 2275SOL    HW117754   0.203   9.424   0.185  1.6314  0.9225 -1.3306
 2275SOL    HW217755   0.251   9.342   0.053 -0.8903 -1.3530 -0.8926
 2276SOL     OW17756   2.927   4.546   2.068  0.5592  0.1237  0.1586
 2276SOL    HW117757   2.939   4.534   1.969 -0.2660  2.7335 -0.2845
 2276SOL    HW217758   3.016   4.561   2.110  1.0016 -1.7493 -0.0435
 2277SOL     OW17759   0.313   7.059   4.126  0.4392 -0.2857 -0.0785
 2277SOL    HW117760   0.391   7.116   4.154 -0.8061  0.1439  2.6040
 2277SOL    HW217761   0.340   7.004   4.047  2.9554  1.0413 -0.2108
 2278SOL     OW17762   0.507   9.714   4.161  0.8372  0.0692 -0.0752
 2278SOL    HW117763   0.452   9.797   4.151  1.5455  0.5297 -0.1978
 2278SOL    HW217764   0.505   9.662   4.075  1.0468  0.3676 -0.2606
 2279SOL     OW17765   0.301   2.997   5.484 -0.1197 -0.1257  0.1403
 2279SOL    HW117766   0.331   3.025   5.393  0.1441 -0.2140  0.1986
 2279SOL    HW217767   0.240   3.067   5.522  1.5351  1.0074  0.7954
 2280SOL     OW17768   2.347   2.382   4.631 -0.1927  0.3972 -0.5724
 2280SOL    HW117769   2.261   2.334   4.643 -1.0802  1.3115 -2.8980
 2280SOL    HW217770   2.384   2.364   4.540  1.2979  1.2279 -0.1685
 2281SOL     OW17771   4.503   0.971   2.892  0.3938  0.3572  0.3598
 2281SOL    HW117772   4.413   0.994   2.929  0.8847  1.7519  0.7377
 2281SOL    HW217773   4.504   0.877   2.860 -0.7962 -0.0722  1.5864
 2282SOL     OW17774   5.285   8.453   1.679 -0.7447 -0.1421 -0.0878
 2282SOL    HW117775   5.215   8.513   1.641 -1.2379 -1.0602 -0.6323
 2282SOL    HW217776   5.307   8.381   1.613  0.3022 -0.1896  0.3059
 2283SOL     OW17777   7.308   0.188   4.621 -0.7419  0.5803  0.0116
 2283SOL    HW117778   7.293   0.094   4.591 -0.7621  1.7123 -3.8432
 2283SOL    HW217779   7.220   0.234   4.631 -0.6463  0.9169 -0.6731
 2284SOL     OW17780   1.042   1.720   1.902  0.2685 -0.3556 -0.2276
 2284SOL    HW117781   1.009   1.730   1.808 -2.4649 -0.2947  0.6924
 2284SOL    HW217782   1.049   1.622   1.924 -1.9848 -0.4056  0.4248
 2285SOL     OW17783   0.225   0.070   2.928 -0.3620  0.0354 -0.3448
 2285SOL    HW117784   0.152   0.026   2.876 -0.2023 -0.9506  0.2655
 2285SOL    HW217785   0.199   0.165   2.948 -2.0522 -0.7052  1.0147
 2286SOL     OW17786   8.885   2.604   4.810  0.1736  0.1894 -0.1893
 2286SOL    HW117787   8.867   2.565   4.720 -1.7419  0.0915  0.2096
 2286SOL    HW217788   8.954   2.548   4.857  0.4855 -0.3078 -1.2232
 2287SOL     OW17789   8.507   3.821   3.205  0.2527 -0.3912  0.0608
 2287SOL    HW117790   8.431   3.769   3.166  1.2102 -1.7617 -0.0225
 2287SOL    HW217791   8.541   3.773   3.286  1.4769 -0.1460 -0.3115
 2288SOL     OW17792   1.215   2.039   2.127  0.1679 -0.3201  0.0792
 2288SOL    HW117793   1.213   1.966   2.195  0.7059 -0.4113 -0.0086
 2288SOL    HW217794   1.197   2.127   2.173 -3.1827 -0.7870 -0.1920
 2289SOL     OW17795   1.497   8.078   3.344  0.0726 -0.3570 -1.1306
 2289SOL    HW117796   1.499   7.984   3.309  0.3165 -0.9639  0.4455
 2289SOL    HW217797   1.584   8.122   3.326  0.4349 -0.8901 -0.6913
 2290SOL     OW17798   9.077   7.956   2.638  0.4196  0.4068 -0.7728
 2290SOL    HW117799   9.038   8.000   2.558 -2.0468  0.8555  0.6392
 2290SOL    HW217800   9.010   7.955   2.712  2.7209  0.2097  1.3761
 2291SOL     OW17801   3.266   1.634   0.860  0.8150 -0.2902  0.2358
 2291SOL    HW117802   3.271   1.572   0.938  0.9747  0.2712  0.6754
 2291SOL    HW217803   3.301   1.588   0.778 -1.5677 -1.7019 -0.0377
 2292SOL     OW17804   1.085   7.787   4.899 -0.5323 -0.3260 -0.4481
 2292SOL    HW117805   1.175   7.752   4.925 -1.2112 -0.2818  2.1260
 2292SOL    HW217806   1.074   7.881   4.931 -2.4656 -1.2356  1.7545
 2293SOL     OW17807   1.993   4.349   2.365 -0.3931  0.0847 -0.0444
 2293SOL    HW117808   1.916   4.365   2.303  0.9299  0.8770 -1.5595
 2293SOL    HW217809   2.052   4.430   2.365  0.3914 -0.4755  1.1483
 2294SOL     OW17810   8.666   3.184   0.836 -0.1521  0.4176  1.1929
 2294SOL    HW117811   8.661   3.141   0.927  1.3487  0.1400  1.1503
 2294SOL    HW217812   8.582   3.236   0.820 -0.9379 -0.4813  2.2641
 2295SOL     OW17813   3.248   6.502   4.890  0.1886 -0.1647  0.2946
 2295SOL    HW117814   3.334   6.475   4.931 -0.5536 -1.0110  1.3146
 2295SOL    HW217815   3.253   6.598   4.861  2.6097 -1.1046 -2.7254
 2296SOL     OW17816   0.150   7.652   5.411  0.2925  0.1242 -0.1663
 2296SOL    HW117817   0.054   7.624   5.410  0.1417  0.6551 -0.9119
 2296SOL    HW217818   0.208   7.571   5.420 -0.2070 -0.2368 -0.1298
 2297SOL     OW17819   2.468   3.585   5.472  0.2618  0.3467  0.3906
 2297SOL    HW117820   2.370   3.566   5.481  0.0955  1.3373  0.8305
 2297SOL    HW217821   2.481   3.683   5.455  1.1409  0.0994 -0.3957
 2298SOL     OW17822   2.492   9.426   1.658  0.3926 -0.2915  0.5815
 2298SOL    HW117823   2.454   9.404   1.568  0.7640 -0.7931  0.5454
 2298SOL    HW217824   2.588   9.452   1.647 -0.8279  4.4611  0.2045
 2299SOL     OW17825   1.439   4.186   2.884 -0.7299  0.0758  0.3115
 2299SOL    HW117826   1.448   4.158   2.980 -0.9470 -0.2581  0.2351
 2299SOL    HW217827   1.501   4.131   2.828  0.1015  0.9164  0.3752
 2300SOL     OW17828   7.232   7.661   1.926 -0.1545  0.1221 -0.2907
 2300SOL    HW117829   7.156   7.632   1.984 -0.6831  0.5422 -0.7731
 2300SOL    HW217830   7.233   7.761   1.920 -0.2863  0.0670 -1.2622
 2301SOL     OW17831   5.043   8.013   2.981 -0.0392  0.0666  0.0413
 2301SOL    HW117832   5.022   7.943   3.049  0.8319  0.6176  0.9022
 2301SOL    HW217833   5.077   7.970   2.898 -0.7781 -0.5955  0.0801
 2302SOL     OW17834   0.392   6.717   0.406 -0.5241  0.0708 -0.0539
 2302SOL    HW117835   0.394   6.797   0.466 -0.5445  0.4890 -0.6089
 2302SOL    HW217836   0.362   6.637   0.458 -0.9084  0.5102  0.4066
 2303SOL     OW17837   0.048   4.619   3.555  0.0638  0.0230 -0.4615
 2303SOL    HW117838   0.089   4.701   3.516  0.6251 -0.1516 -0.2538
 2303SOL    HW217839   0.120   4.562   3.595 -0.0947 -1.4593 -2.2552
 2304SOL     OW17840   2.762   1.412   0.139  0.2748 -0.1005  0.1180
 2304SOL    HW117841   2.723   1.399   0.230  0.1017  0.9855  0.2073
 2304SOL    HW217842   2.700   1.375   0.070  0.8408 -1.7979  0.4784
 2305SOL     OW17843   1.211   6.682   4.243  0.0415  0.8254  0.0487
 2305SOL    HW117844   1.219   6.662   4.340 -0.3269  0.3873 -0.0101
 2305SOL    HW217845   1.168   6.772   4.231 -1.2768  0.2285  0.2697
 2306SOL     OW17846   4.405   8.165   4.015  0.1215  0.5965 -0.3757
 2306SOL    HW117847   4.367   8.253   4.041 -1.0233  0.1972 -0.6556
 2306SOL    HW217848   4.437   8.169   3.920 -2.6050 -0.0905 -1.3911
 2307SOL     OW17849   5.670   8.379   2.004 -0.1121 -1.1407 -0.6729
 2307SOL    HW117850   5.702   8.414   1.916  1.1388  0.6921  0.4681
 2307SOL    HW217851   5.576   8.410   2.021  1.2007  2.4035  0.6243
 2308SOL     OW17852   1.252   1.196   4.243  0.0371 -0.0053 -0.2016
 2308SOL    HW117853   1.217   1.103   4.252  1.7577 -0.6465  0.1280
 2308SOL    HW217854   1.340   1.194   4.195  1.0560  1.2328  1.5519
 2309SOL     OW17855   1.771   0.693   2.487  0.1479 -0.3854 -0.7027
 2309SOL    HW117856   1.701   0.763   2.502 -0.0988 -1.0150  1.2899
 2309SOL    HW217857   1.772   0.667   2.391 -0.6248  1.4404 -1.2327
 2310SOL     OW17858   8.713   6.462   0.341  0.1252  0.0770 -0.0896
 2310SOL    HW117859   8.709   6.557   0.309  2.3733 -0.1075 -1.0511
 2310SOL    HW217860   8.737   6.460   0.438 -0.3161  0.5012  0.0293
 2311SOL     OW17861   3.893   7.040   2.748  0.3756  0.1013 -0.2816
 2311SOL    HW117862   3.933   6.974   2.812 -1.2019 -1.8510 -1.2647
 2311SOL    HW217863   3.836   6.992   2.681 -0.3051  2.4095 -1.4195
 2312SOL     OW17864   2.743   5.340   2.555  0.5390 -0.0797  0.1838
 2312SOL    HW117865   2.788   5.424   2.583 -0.3785  0.7666 -0.8641
 2312SOL    HW217866   2.798   5.262   2.586 -0.3034  0.7645  4.1379
 2313SOL     OW17867   4.807   7.319   1.877 -0.1928 -1.2366 -0.1176
 2313SOL    HW117868   4.827   7.240   1.936  0.1977 -1.1419 -0.1214
 2313SOL    HW217869   4.709   7.340   1.882 -0.1152 -1.0477  0.7243
 2314SOL     OW17870   0.193   9.056   5.038  0.0622  0.4108  0.0228
 2314SOL    HW117871   0.244   9.130   5.082 -0.1561  0.2014  0.6338
 2314SOL    HW217872   0.188   8.977   5.100 -2.7956  1.1566  0.8256
 2315SOL     OW17873   8.740   7.385   4.033  0.1000  0.1964 -0.0565
 2315SOL    HW117874   8.811   7.334   3.985  0.3535  1.4100 -0.9822
 2315SOL    HW217875   8.751   7.483   4.017 -1.8924  0.3984 -0.4001
 2316SOL     OW17876   7.989   0.140   2.617  0.0380 -0.1142 -0.6335
 2316SOL    HW117877   7.920   0.081   2.659  0.2923 -0.7467 -1.0819
 2316SOL    HW217878   7.957   0.235   2.616 -0.5287 -0.3023 -0.2222
 2317SOL     OW17879   3.088   2.370   4.799 -0.0517  0.1474 -0.0087
 2317SOL    HW117880   3.074   2.465   4.771  0.0998 -0.3426 -1.8459
 2317SOL    HW217881   3.028   2.311   4.745 -0.8833 -0.7262  1.8284
 2318SOL     OW17882   0.195   4.130   1.597 -0.1276  0.0362 -0.1735
 2318SOL    HW117883   0.115   4.105   1.542  0.8913 -0.1394 -1.6085
 2318SOL    HW217884   0.238   4.046   1.632 -0.8101  0.1499  0.9759
 2319SOL     OW17885   7.692   6.261   2.371  0.2750 -0.7682 -0.0332
 2319SOL    HW117886   7.764   6.296   2.431  0.7714 -0.1920 -0.9379
 2319SOL    HW217887   7.709   6.293   2.277 -2.1514  0.8300  0.0358
 2320SOL     OW17888   2.257   9.794   5.065  0.1115  0.0657  0.2349
 2320SOL    HW117889   2.353   9.794   5.039 -0.8328 -2.1562 -3.7167
 2320SOL    HW217890   2.234   9.706   5.107 -0.4605  0.1286  0.0602
 2321SOL     OW17891   0.368   7.796   5.352 -0.1079 -0.8916 -0.0995
 2321SOL    HW117892   0.432   7.733   5.397  0.3782 -0.3658 -0.0577
 2321SOL    HW217893   0.278   7.751   5.344 -0.5810 -0.5282  2.6124
 2322SOL     OW17894   9.760   5.760   4.479 -0.2501 -0.1712 -0.3652
 2322SOL    HW117895   9.710   5.847   4.479 -0.4794 -0.2954  0.8154
 2322SOL    HW217896   9.723   5.701   4.406 -2.1977 -0.4512  0.7926
 2323SOL     OW17897   0.145   2.599   0.821  0.5924 -0.9423  0.5290
 2323SOL    HW117898   0.203   2.567   0.896 -1.1453  0.2476  2.4606
 2323SOL    HW217899   0.049   2.588   0.847 -0.0276  0.3663 -1.1296
 2324SOL     OW17900   9.269   6.877   1.398 -0.6165  0.4576 -0.0512
 2324SOL    HW117901   9.280   6.795   1.453 -0.4174 -0.3186 -1.2384
 2324SOL    HW217902   9.200   6.936   1.440 -0.7261 -0.2806  0.8278
 2325SOL     OW17903   3.995   9.457   4.810  0.4861 -0.2666 -0.0872
 2325SOL    HW117904   4.062   9.393   4.847  1.7191  0.6540 -0.7046
 2325SOL    HW217905   4.028   9.495   4.724 -0.4983  0.7417 -0.0383
 2326SOL     OW17906   7.969   1.555   5.297 -0.2597 -0.1313 -0.3689
 2326SOL    HW117907   8.052   1.602   5.324 -0.0259 -0.6867 -0.1127
 2326SOL    HW217908   7.965   1.548   5.197 -0.3879  0.5870 -0.4176
 2327SOL     OW17909   2.218   1.439   1.759 -0.2240 -0.3856  0.1073
 2327SOL    HW117910   2.220   1.339   1.755  1.7265 -0.2397 -3.6779
 2327SOL    HW217911   2.128   1.471   1.730  0.0333 -0.9660 -1.3759
 2328SOL     OW17912   1.910   7.498   5.155  0.6465  0.3753 -0.3170
 2328SOL    HW117913   1.981   7.485   5.225  1.0529  0.7171 -0.6676
 2328SOL    HW217914   1.890   7.595   5.146 -0.7694  0.1995  0.6770
 2329SOL     OW17915   9.803   9.063   0.211 -0.1029 -0.0594 -0.1088
 2329SOL    HW117916   9.850   8.977   0.232 -0.9586 -0.6663 -0.6509
 2329SOL    HW217917   9.711   9.043   0.175 -1.0087  1.1204  1.4976
 2330SOL     OW17918   9.894   6.385   2.442  0.5516  1.1144  0.0522
 2330SOL    HW117919   9.894   6.333   2.357 -0.3217  0.5690  0.3781
 2330SOL    HW217920   9.852   6.475   2.427 -0.7033  0.5592  0.1683
 2331SOL     OW17921   0.244   9.837   4.332 -0.1070 -0.1091  0.0102
 2331SOL    HW117922   0.148   9.840   4.361 -0.5512 -0.8504 -1.3557
 2331SOL    HW217923   0.302   9.817   4.412 -1.1477 -0.4099  0.7093
 2332SOL     OW17924   1.729   2.789   3.868  0.6397  0.0857  0.2117
 2332SOL    HW117925   1.699   2.878   3.902 -0.0767 -0.0794  0.0072
 2332SOL    HW217926   1.820   2.769   3.904 -0.3772 -0.4038  2.6254
 2333SOL     OW17927   3.855   7.521   0.979  0.4458 -0.2716  0.2662
 2333SOL    HW117928   3.859   7.507   0.880 -0.5670 -2.1624  0.4570
 2333SOL    HW217929   3.777   7.471   1.016 -1.7934  3.9189  1.4874
 2334SOL     OW17930   2.970   4.251   3.572  0.9648 -0.2207 -0.4631
 2334SOL    HW117931   2.917   4.172   3.604 -1.1861  0.0706 -3.1417
 2334SOL    HW217932   2.999   4.236   3.478  2.1688  1.4115 -0.3726
 2335SOL     OW17933   6.565   9.782   3.226 -0.0165  0.0793 -0.2570
 2335SOL    HW117934   6.633   9.838   3.274 -0.1479  0.5248 -0.5823
 2335SOL    HW217935   6.565   9.690   3.265  1.1491 -0.0831 -0.6105
 2336SOL     OW17936   1.467   3.528   3.575 -0.2179  0.2197  0.4721
 2336SOL    HW117937   1.507   3.576   3.497  0.8425  0.5387  1.1988
 2336SOL    HW217938   1.372   3.506   3.555 -0.1850  0.9905 -0.5965
 2337SOL     OW17939   6.937   1.215   3.298 -0.6062 -0.0179 -0.2086
 2337SOL    HW117940   6.948   1.274   3.218 -0.2559  0.8669  0.4831
 2337SOL    HW217941   6.965   1.265   3.380  2.0324 -1.9472  0.1279
 2338SOL     OW17942   0.773   6.477   4.672 -0.1929 -0.5407  0.0102
 2338SOL    HW117943   0.770   6.572   4.703  1.4538 -0.4782  0.0311
 2338SOL    HW217944   0.680   6.440   4.668 -0.8615  1.1169 -0.1559
 2339SOL     OW17945   5.135   8.874   1.341  0.1988 -0.0626  0.2194
 2339SOL    HW117946   5.219   8.860   1.289 -0.8839  2.2952 -2.3012
 2339SOL    HW217947   5.146   8.954   1.401 -0.8200  1.4272 -1.5239
 2340SOL     OW17948   8.610   6.636   1.431 -0.5772 -0.2965  0.2221
 2340SOL    HW117949   8.536   6.570   1.435 -0.7171 -0.1325  0.3519
 2340SOL    HW217950   8.601   6.692   1.349 -0.8579  0.0284  0.4743
 2341SOL     OW17951   8.356   3.797   5.242 -0.3803 -0.5199  0.0937
 2341SOL    HW117952   8.263   3.767   5.262 -0.6152 -0.3822 -0.7660
 2341SOL    HW217953   8.355   3.859   5.164  0.3652 -0.0490  0.4543
 2342SOL     OW17954   2.539   5.594   0.392 -0.3988 -0.7711  0.2797
 2342SOL    HW117955   2.485   5.579   0.475 -0.3999  0.9988  0.6200
 2342SOL    HW217956   2.634   5.566   0.408 -0.1947  0.4112  1.1845
 2343SOL     OW17957   1.063   2.839   3.572  0.2180 -0.1517  0.6941
 2343SOL    HW117958   1.089   2.825   3.476 -1.3845 -0.7195  0.3306
 2343SOL    HW217959   1.128   2.902   3.615  0.8360  0.2737 -0.8248
 2344SOL     OW17960   8.295   3.457   3.752 -0.4372  0.2763  0.4126
 2344SOL    HW117961   8.338   3.445   3.841 -0.2037 -1.0104  0.1368
 2344SOL    HW217962   8.211   3.402   3.748 -0.0635 -0.2436 -0.4089
 2345SOL     OW17963   4.747   3.472   0.539  0.3137  0.0463  0.1287
 2345SOL    HW117964   4.676   3.531   0.500  1.4057  0.5216 -1.1895
 2345SOL    HW217965   4.752   3.387   0.486  0.7084  0.0093  0.2295
 2346SOL     OW17966   1.325   8.897   3.503  0.0293  0.3633 -0.5265
 2346SOL    HW117967   1.421   8.926   3.510  0.5289 -1.2524 -0.3476
 2346SOL    HW217968   1.318   8.820   3.440 -0.7955 -1.0010  1.1833
 2347SOL     OW17969   8.068   5.851   0.730  0.2829  0.5259  0.2348
 2347SOL    HW117970   8.137   5.824   0.663  0.0834  0.9957 -0.1590
 2347SOL    HW217971   8.072   5.950   0.744  0.2155  0.4479  0.7966
 2348SOL     OW17972   9.498   7.322   5.242 -0.1476  0.3417 -0.1681
 2348SOL    HW117973   9.542   7.391   5.300 -0.6551  1.6471 -1.3325
 2348SOL    HW217974   9.466   7.247   5.300 -0.0840  1.3250  1.1758
 2349SOL     OW17975   1.561   9.478   5.435  0.2185  0.5714  0.4127
 2349SOL    HW117976   1.521   9.554   5.384  1.6907  0.1231 -1.5002
 2349SOL    HW217977   1.586   9.405   5.371 -0.2117 -1.0889  2.0998
 2350SOL     OW17978   1.558   3.016   2.065  0.2099  0.3535 -0.1163
 2350SOL    HW117979   1.639   2.971   2.027  0.9102  2.3201 -1.0245
 2350SOL    HW217980   1.477   2.987   2.013  0.7791  0.8381 -1.3126
 2351SOL     OW17981   3.444   8.302   2.755  0.1257 -0.3357  0.2210
 2351SOL    HW117982   3.517   8.239   2.781 -0.8747 -1.1622  1.1327
 2351SOL    HW217983   3.380   8.312   2.832 -1.5601 -0.8948 -1.0623
 2352SOL     OW17984   4.498   7.761   1.722 -0.2092 -0.2462  0.0214
 2352SOL    HW117985   4.401   7.737   1.717 -0.1645 -0.6266  0.8895
 2352SOL    HW217986   4.507   7.856   1.754 -0.4253  1.4616 -4.5387
 2353SOL     OW17987   7.113   8.472   1.500  0.0193 -0.2213  0.1480
 2353SOL    HW117988   7.199   8.447   1.544  1.0453  1.2913 -0.9010
 2353SOL    HW217989   7.070   8.391   1.461  1.6294 -0.8192 -0.4297
 2354SOL     OW17990   4.164   2.530   4.337  0.6428  0.2751  0.2388
 2354SOL    HW117991   4.107   2.530   4.419  1.1000 -0.7161  0.5663
 2354SOL    HW217992   4.209   2.619   4.328 -0.0692  0.6768  0.5931
 2355SOL     OW17993   2.127   7.231   0.850  0.1630  0.2412 -0.3017
 2355SOL    HW117994   2.137   7.305   0.917 -0.1498  0.4756 -0.5097
 2355SOL    HW217995   2.183   7.153   0.878  0.9831  0.7832 -0.4059
 2356SOL     OW17996   3.252   8.333   4.917  0.8226  0.4923  0.0118
 2356SOL    HW117997   3.164   8.306   4.954  1.9617 -2.5820  0.6298
 2356SOL    HW217998   3.295   8.399   4.979 -0.3532  0.8293  0.4794
 2357SOL     OW17999   1.248   6.295   2.133 -0.1709 -0.3905 -0.3266
 2357SOL    HW118000   1.300   6.381   2.133  0.7741 -0.9516  0.1761
 2357SOL    HW218001   1.187   6.294   2.212  0.3338 -0.4781  0.0706
 2358SOL     OW18002   3.401   9.455   2.881  0.0627  0.7651 -0.6248
 2358SOL    HW118003   3.369   9.361   2.885 -0.9849  1.1186 -0.5299
 2358SOL    HW218004   3.411   9.483   2.786 -0.1356  0.7183 -0.6602
 2359SOL     OW18005   7.325   8.425   4.030 -0.6281  0.1916  0.2716
 2359SOL    HW118006   7.269   8.361   4.084 -3.0336  0.4617 -1.7770
 2359SOL    HW218007   7.363   8.376   3.951 -0.0062  0.5899  0.3299
 2360SOL     OW18008   8.663   3.595   3.810  0.7351  0.7636  0.2372
 2360SOL    HW118009   8.647   3.497   3.824 -2.5345  1.2751  0.6424
 2360SOL    HW218010   8.691   3.638   3.896 -1.3899  0.7664  0.9622
 2361SOL     OW18011   2.304   2.460   2.050 -0.1967  0.2307 -0.5724
 2361SOL    HW118012   2.392   2.482   2.008  0.0164 -1.8025 -1.2793
 2361SOL    HW218013   2.279   2.532   2.114  1.9156  0.9137 -0.4573
 2362SOL     OW18014   4.776   9.293   1.664  0.3451 -0.4779  0.1954
 2362SOL    HW118015   4.833   9.211   1.671  1.9789  0.5853 -0.3831
 2362SOL    HW218016   4.729   9.309   1.751 -0.1968 -2.1688  0.2237
 2363SOL     OW18017   0.619   3.231   3.283  0.1265  0.1637 -0.3441
 2363SOL    HW118018   0.521   3.251   3.291  0.2824  0.7166  0.2230
 2363SOL    HW218019   0.672   3.311   3.311  0.7488 -0.4154  0.1596
 2364SOL     OW18020   4.773   1.138   4.194 -0.0926  0.3635 -0.5610
 2364SOL    HW118021   4.787   1.045   4.228 -2.3085  0.3519  0.3402
 2364SOL    HW218022   4.825   1.150   4.109  0.5370 -1.5588 -0.4722
 2365SOL     OW18023   0.656   5.053   1.566  0.2254 -0.1419 -0.4819
 2365SOL    HW118024   0.601   5.109   1.503  3.0095  1.1447 -1.8957
 2365SOL    HW218025   0.645   5.087   1.659 -0.6732  0.6834 -0.8763
 2366SOL     OW18026   5.142   8.099   3.719 -0.2070  0.0100  0.0797
 2366SOL    HW118027   5.089   8.184   3.715  0.1914  0.2887  0.6403
 2366SOL    HW218028   5.105   8.041   3.791  0.2622  0.2157  0.4892
 2367SOL     OW18029   1.556   0.915   2.924 -0.9400  0.4644  0.0654
 2367SOL    HW118030   1.518   0.842   2.869  0.4277 -0.3780  0.2091
 2367SOL    HW218031   1.536   0.899   3.021  0.9709 -0.7567  0.2880
 2368SOL     OW18032   9.134   4.814   3.291 -0.3641 -0.6458  0.6563
 2368SOL    HW118033   9.070   4.787   3.219 -1.5354 -0.0944  1.4788
 2368SOL    HW218034   9.131   4.913   3.303  1.8827 -0.4249 -0.4367
 2369SOL     OW18035   1.628   7.561   4.966  0.1105  0.0372 -0.6604
 2369SOL    HW118036   1.531   7.544   4.979  0.2773  0.4238  1.1216
 2369SOL    HW218037   1.647   7.658   4.979  1.0081 -0.3100  0.7090
 2370SOL     OW18038   1.166   0.574   3.217 -0.1930 -0.2611  0.2707
 2370SOL    HW118039   1.121   0.522   3.289  0.5294  0.3728  1.1866
 2370SOL    HW218040   1.242   0.520   3.179 -1.2011 -1.0102 -0.7395
 2371SOL     OW18041   1.161   7.292   2.098 -0.1824  0.2354 -0.0290
 2371SOL    HW118042   1.105   7.287   2.015  0.1598  0.3335 -0.2671
 2371SOL    HW218043   1.257   7.296   2.072 -0.0775  0.2688  0.3753
 2372SOL     OW18044   2.226   3.912   2.402 -0.3375  0.1575  0.2012
 2372SOL    HW118045   2.243   3.837   2.466  1.5904  1.2044  0.9678
 2372SOL    HW218046   2.132   3.944   2.411 -0.2436 -0.0831  2.1086
 2373SOL     OW18047   0.891   2.466   5.420 -0.1468  0.8499  0.3372
 2373SOL    HW118048   0.898   2.505   5.328 -0.8650  2.1230  0.8146
 2373SOL    HW218049   0.937   2.525   5.485  0.0370  0.1423  0.8584
 2374SOL     OW18050   0.547   9.134   5.040 -0.4986 -0.0004  0.4166
 2374SOL    HW118051   0.643   9.125   5.066 -0.2232 -0.2659 -0.7000
 2374SOL    HW218052   0.491   9.075   5.100 -0.1728  1.4117  2.1680
 2375SOL     OW18053   3.862   0.626   2.137 -0.2841 -0.4474 -0.1026
 2375SOL    HW118054   3.800   0.674   2.198  0.0577 -0.3231  0.1499
 2375SOL    HW218055   3.858   0.667   2.046  0.0770  0.1232  0.1348
 2376SOL     OW18056   0.650   7.964   3.126 -0.0412  0.3491 -0.0969
 2376SOL    HW118057   0.741   7.920   3.124  0.3624  1.1720  0.1105
 2376SOL    HW218058   0.587   7.905   3.175  0.7994  0.5462  1.2459
 2377SOL     OW18059   8.093   1.628   0.572 -0.0033  0.1226 -0.1980
 2377SOL    HW118060   8.014   1.685   0.551 -0.5948 -1.6515 -3.2062
 2377SOL    HW218061   8.062   1.535   0.592  1.2700 -0.4659 -0.9245
 2378SOL     OW18062   9.632   1.543   2.828 -0.4709 -0.1520  0.4193
 2378SOL    HW118063   9.580   1.628   2.827 -3.3557 -1.8505  0.0281
 2378SOL    HW218064   9.604   1.485   2.752  1.8340 -1.2658  0.3545
 2379SOL     OW18065   7.658   8.240   2.190 -0.5334 -0.6571 -0.0482
 2379SOL    HW118066   7.596   8.256   2.267 -1.0694 -0.8636 -0.4303
 2379SOL    HW218067   7.750   8.271   2.214 -1.0894  1.0013  0.0064
 2380SOL     OW18068   2.017   6.113   5.261 -0.3384  0.1991  0.5221
 2380SOL    HW118069   2.061   6.026   5.239  0.8249  1.4190 -2.2399
 2380SOL    HW218070   1.919   6.100   5.271 -0.1700 -1.4244  0.1373
 2381SOL     OW18071   9.697   7.764   5.441 -0.7542 -0.4586 -0.0184
 2381SOL    HW118072   9.737   7.674   5.460  0.3084  0.0527  0.2180
 2381SOL    HW218073   9.754   7.811   5.373 -2.2814 -0.6666 -1.4738
 2382SOL     OW18074   0.627   8.040   4.996 -0.3244  0.2272  0.2860
 2382SOL    HW118075   0.644   7.960   5.053 -0.9705  0.4767  0.8334
 2382SOL    HW218076   0.556   8.097   5.038  0.5202  1.3734  0.1815
 2383SOL     OW18077   4.032   3.149   4.231 -0.0996 -0.5500 -0.0764
 2383SOL    HW118078   3.971   3.130   4.154 -1.7258 -1.1616  1.3264
 2383SOL    HW218079   4.088   3.068   4.250  0.5493 -0.2833 -0.8049
 2384SOL     OW18080   9.571   4.342   1.545  0.2549  0.2105  0.1542
 2384SOL    HW118081   9.646   4.302   1.597  1.5132  0.2245 -1.6139
 2384SOL    HW218082   9.597   4.433   1.513  0.1208 -0.4137 -1.8075
 2385SOL     OW18083   8.660   6.154   2.196  0.7342 -0.2477 -0.3253
 2385SOL    HW118084   8.715   6.129   2.116 -0.2838  3.2265 -2.2204
 2385SOL    HW218085   8.675   6.250   2.218 -1.0217 -0.4715  2.0727
 2386SOL     OW18086   8.105   2.848   5.179  0.2144 -0.2612  0.0414
 2386SOL    HW118087   8.093   2.894   5.091  1.3519 -1.1130 -0.5808
 2386SOL    HW218088   8.196   2.868   5.215 -0.4459  0.5188  1.3008
 2387SOL     OW18089   1.348   2.649   1.568  0.3463  0.5863  0.5032
 2387SOL    HW118090   1.422   2.598   1.526  0.9643  0.2627  1.9457
 2387SOL    HW218091   1.284   2.586   1.611  0.4204  0.9513  1.1643
 2388SOL     OW18092   3.092   3.836   1.424 -0.2905  0.2936 -0.5490
 2388SOL    HW118093   3.038   3.836   1.508 -1.0860 -1.0259 -1.0493
 2388SOL    HW218094   3.189   3.848   1.447 -0.5775  0.6200  0.5065
 2389SOL     OW18095   4.124   2.154   0.930  0.2064 -0.2192  0.2508
 2389SOL    HW118096   4.050   2.221   0.922 -1.7880 -2.6612 -2.5626
 2389SOL    HW218097   4.199   2.180   0.869 -1.3117 -1.4081 -2.2049
 2390SOL     OW18098   4.103   4.293   2.204 -0.4703  0.4679  0.2570
 2390SOL    HW118099   4.101   4.320   2.108 -1.5057  1.4998  0.5694
 2390SOL    HW218100   4.173   4.346   2.252  0.2187 -0.2204  0.0405
 2391SOL     OW18101   4.110   9.963   4.791  0.3940 -0.1237 -0.1410
 2391SOL    HW118102   4.022  10.004   4.767  0.0792 -0.6337  0.1394
 2391SOL    HW218103   4.180  10.035   4.794 -0.2611  0.4956  0.9217
 2392SOL     OW18104   9.220   7.369   5.157 -0.0251  0.0126  0.5603
 2392SOL    HW118105   9.159   7.293   5.178  0.4117 -0.4744  0.0548
 2392SOL    HW218106   9.309   7.354   5.202  0.3213 -0.1630 -0.1773
 2393SOL     OW18107   4.021   4.765   5.113 -0.5800 -0.3298  0.4190
 2393SOL    HW118108   4.097   4.758   5.178 -0.2823  0.5290  0.1676
 2393SOL    HW218109   4.014   4.681   5.060  1.2876  0.2499 -0.7737
 2394SOL     OW18110   3.710   4.904   0.731 -0.3320 -0.3995  0.6713
 2394SOL    HW118111   3.772   4.879   0.658  0.9703  0.1440  1.5709
 2394SOL    HW218112   3.674   4.996   0.715 -0.6312 -0.5785  0.3259
 2395SOL     OW18113   6.916   6.810   4.047  0.0555 -0.5362  0.2434
 2395SOL    HW118114   6.853   6.809   4.125 -0.9414 -1.4819 -0.5523
 2395SOL    HW218115   6.914   6.721   4.002  2.1172 -0.6345  0.3032
 2396SOL     OW18116   2.122   6.838   0.781 -0.6606 -0.4857 -0.3011
 2396SOL    HW118117   2.028   6.873   0.773 -0.4358  0.2383  0.1406
 2396SOL    HW218118   2.175   6.870   0.702  0.0014  1.6740  0.9664
 2397SOL     OW18119   3.526   5.364   4.064 -0.1340  0.0053 -0.1135
 2397SOL    HW118120   3.615   5.361   4.110 -0.2559 -0.9356  0.0577
 2397SOL    HW218121   3.495   5.459   4.059  1.5073  0.5126 -1.3715
 2398SOL     OW18122   9.918   9.638   4.107  0.2637  0.4552 -0.0216
 2398SOL    HW118123   9.966   9.693   4.176 -0.1244 -0.5872  1.1086
 2398SOL    HW218124   9.952   9.662   4.016  1.6332  1.0144  0.6117
 2399SOL     OW18125   7.492   1.240   0.751  0.3866 -0.9019 -0.5974
 2399SOL    HW118126   7.393   1.246   0.739  0.2387 -0.3563  0.8344
 2399SOL    HW218127   7.536   1.305   0.689 -0.3032  0.8664  0.6999
 2400SOL     OW18128   1.258   9.655   2.881  0.2157  0.2907  0.4122
 2400SOL    HW118129   1.311   9.670   2.798  0.3154  1.6242  0.7036
 2400SOL    HW218130   1.165   9.626   2.857  0.0130  1.4224 -0.1900
 2401SOL     OW18131   3.963   0.291   2.605 -0.3009 -0.3016  0.1142
 2401SOL    HW118132   3.917   0.341   2.678 -2.6139 -0.0945 -1.4026
 2401SOL    HW218133   4.046   0.248   2.640 -1.7028 -0.7495  3.0122
 2402SOL     OW18134   9.305   0.123   3.857  0.1034 -0.0789  0.2936
 2402SOL    HW118135   9.254   0.110   3.772 -1.8964 -1.4771  1.6491
 2402SOL    HW218136   9.367   0.046   3.871  1.4694  0.8449 -0.5712
 2403SOL     OW18137   3.063   1.311   4.669 -0.0672  0.2997 -0.1392
 2403SOL    HW118138   3.101   1.349   4.585  2.4137  0.6279  1.1003
 2403SOL    HW218139   3.025   1.385   4.725 -0.1684  0.2845 -0.1871
 2404SOL     OW18140   9.700   3.589   2.993 -0.5714 -0.0518 -0.1758
 2404SOL    HW118141   9.767   3.526   2.955 -0.4248  0.4974 -0.8252
 2404SOL    HW218142   9.735   3.627   3.079  0.6284  1.4585 -1.3278
 2405SOL     OW18143   0.367   6.035   0.556  0.6599 -0.3562  0.1906
 2405SOL    HW118144   0.397   5.995   0.469 -0.8625 -1.8661  0.3311
 2405SOL    HW218145   0.417   5.993   0.631  0.5723 -0.4848  0.1781
 2406SOL     OW18146   0.895   6.764   1.330  0.6179 -0.6570  0.1980
 2406SOL    HW118147   0.803   6.732   1.352  0.9121 -1.1184  0.7741
 2406SOL    HW218148   0.903   6.777   1.231 -0.1017 -0.4979  0.1607
 2407SOL     OW18149   0.185   3.269   2.965 -0.0799 -0.5607  0.0035
 2407SOL    HW118150   0.271   3.231   2.933 -0.2340 -0.9523  0.0494
 2407SOL    HW218151   0.112   3.245   2.901 -0.6717 -2.6258  1.3747
 2408SOL     OW18152   1.333   2.718   3.383 -0.4000 -0.2517  0.4830
 2408SOL    HW118153   1.259   2.786   3.381 -0.7608 -0.5983  1.4162
 2408SOL    HW218154   1.342   2.683   3.477 -1.0865 -2.4256 -0.2362
 2409SOL     OW18155   6.532   7.818   1.772  0.5624  0.4062  0.4198
 2409SOL    HW118156   6.450   7.876   1.775 -0.0450 -0.4734  1.0475
 2409SOL    HW218157   6.613   7.875   1.786  0.0074  1.1901  0.4800
 2410SOL     OW18158   8.874   6.768   0.402  0.3014 -0.2967  0.1836
 2410SOL    HW118159   8.842   6.786   0.494 -1.0358 -0.1920 -0.2949
 2410SOL    HW218160   8.827   6.828   0.337 -0.2037 -1.6807 -0.7814
 2411SOL     OW18161   4.068   5.776   1.209  0.3163 -0.4418 -0.3948
 2411SOL    HW118162   4.024   5.847   1.155  1.4700  1.1370  0.7086
 2411SOL    HW218163   4.114   5.817   1.288 -0.3264 -2.5720  1.1439
 2412SOL     OW18164   1.540   5.358   1.350 -0.2969  0.6268  0.2324
 2412SOL    HW118165   1.623   5.332   1.399 -0.2110  1.9942  0.8216
 2412SOL    HW218166   1.481   5.278   1.339  1.1751 -0.3983 -0.3634
 2413SOL     OW18167   1.661   3.145   0.402  0.1590  0.4090 -0.2032
 2413SOL    HW118168   1.692   3.061   0.447  0.4652  0.5809 -0.0893
 2413SOL    HW218169   1.715   3.222   0.435  0.6127  0.4898 -1.1025
 2414SOL     OW18170   3.234   1.222   2.781  0.0125  0.5910 -0.1448
 2414SOL    HW118171   3.328   1.229   2.749 -0.2180  2.4797 -0.4574
 2414SOL    HW218172   3.187   1.150   2.731  0.8390  0.7258 -1.1261
 2415SOL     OW18173   9.283   1.871   3.271 -0.1406 -0.4826  0.0487
 2415SOL    HW118174   9.310   1.791   3.324 -0.3653 -1.8808 -1.8591
 2415SOL    HW218175   9.355   1.893   3.206 -1.2029 -0.8191 -1.2710
 2416SOL     OW18176   6.213   0.930   1.422  0.0408 -0.0182 -0.7868
 2416SOL    HW118177   6.296   0.893   1.464  1.2809  3.1115 -0.3646
 2416SOL    HW218178   6.192   1.019   1.462 -2.1394  0.3343 -2.6119
 2417SOL     OW18179   1.200   1.734   0.178  0.6201  0.7122  0.2602
 2417SOL    HW118180   1.286   1.686   0.159  0.6492  1.5918 -2.0466
 2417SOL    HW218181   1.221   1.821   0.223  0.6807 -0.6294  2.8762
 2418SOL     OW18182   2.892   0.358   1.016 -0.6072 -0.7382 -0.2894
 2418SOL    HW118183   2.930   0.446   1.045  0.7771 -1.1125 -0.9370
 2418SOL    HW218184   2.818   0.374   0.950  1.8100 -0.1235 -2.9280
 2419SOL     OW18185   2.859   0.034   1.992  0.7834  0.0587  0.0515
 2419SOL    HW118186   2.935  -0.025   2.018 -0.2912 -1.5701 -0.4309
 2419SOL    HW218187   2.883   0.130   2.011  2.3210 -0.5694  1.3882
 2420SOL     OW18188   9.139   1.764   4.095  0.5070 -0.3824  0.2333
 2420SOL    HW118189   9.101   1.673   4.113  0.4313 -0.2491  0.7652
 2420SOL    HW218190   9.131   1.785   3.998 -0.1600 -0.6349  0.2332
 2421SOL     OW18191   3.934   6.004   2.290  0.2425 -0.6026  0.1068
 2421SOL    HW118192   3.945   6.087   2.345  0.3581 -0.6484  0.1536
 2421SOL    HW218193   4.001   5.936   2.319  1.3448 -0.0719 -1.1296
 2422SOL     OW18194   1.164   8.680   3.705 -0.3933  0.3786 -0.0621
 2422SOL    HW118195   1.188   8.744   3.632  1.0397 -1.0932 -0.9198
 2422SOL    HW218196   1.233   8.608   3.711 -2.3753 -1.5689  0.3125
 2423SOL     OW18197   0.567   8.854   5.590  0.2051 -0.0582 -0.6406
 2423SOL    HW118198   0.527   8.762   5.589  0.7472 -0.3961  2.5181
 2423SOL    HW218199   0.493   8.922   5.594 -0.1801 -0.5432  1.1507
 2424SOL     OW18200   3.208   9.368   4.520  0.2584  0.2364 -0.2135
 2424SOL    HW118201   3.213   9.392   4.617 -0.5406  0.9798 -0.3544
 2424SOL    HW218202   3.301   9.353   4.485  0.4838 -1.3481  0.9800
 2425SOL     OW18203   1.897   7.534   3.163  0.0916  0.4597  0.2487
 2425SOL    HW118204   1.974   7.494   3.111 -1.1678  0.0426 -1.3349
 2425SOL    HW218205   1.933   7.581   3.244  1.8577 -1.4753  0.6412
 2426SOL     OW18206   9.440   4.718   0.131  0.4001  0.4706 -0.0260
 2426SOL    HW118207   9.423   4.705   0.034 -1.1236  0.2875  0.2511
 2426SOL    HW218208   9.515   4.783   0.144 -0.4638  1.7569 -1.3026
 2427SOL     OW18209   6.430   7.131   2.503  0.2482  0.1734 -0.1752
 2427SOL    HW118210   6.391   7.136   2.411  0.3036 -0.3392 -0.2249
 2427SOL    HW218211   6.528   7.116   2.497  0.1984 -0.2122 -0.0296
 2428SOL     OW18212   1.616   4.871   4.885 -0.7476 -0.3408  0.1672
 2428SOL    HW118213   1.550   4.826   4.824 -0.5872 -1.1962  0.6135
 2428SOL    HW218214   1.691   4.909   4.831 -1.4107  0.3033 -0.3110
 2429SOL     OW18215   3.039   4.555   3.428 -0.4177  0.5260 -0.7027
 2429SOL    HW118216   2.965   4.598   3.376 -1.4030 -0.0305  0.2170
 2429SOL    HW218217   3.008   4.467   3.464  0.6633  0.3320 -0.2298
 2430SOL     OW18218   0.663   5.242   1.200  0.0135  0.4832 -1.1572
 2430SOL    HW118219   0.699   5.205   1.114  0.8598  1.5492 -1.2682
 2430SOL    HW218220   0.604   5.321   1.180 -2.7203 -1.4624 -1.0094
 2431SOL     OW18221   0.733   2.155   0.566 -0.0160  0.0607  0.3400
 2431SOL    HW118222   0.646   2.190   0.600  0.4080  3.2846 -1.5967
 2431SOL    HW218223   0.804   2.171   0.635 -0.6499 -0.9936  1.2337
 2432SOL     OW18224   9.006   2.593   0.351 -0.2266 -0.6066  0.3737
 2432SOL    HW118225   8.914   2.582   0.390 -0.1445  1.8820  1.3791
 2432SOL    HW218226   9.063   2.645   0.415  1.4034 -0.7289 -0.9518
 2433SOL     OW18227   7.529   4.510   5.312  0.0582  0.2590 -0.0063
 2433SOL    HW118228   7.491   4.589   5.361 -0.7502  1.3900 -2.3698
 2433SOL    HW218229   7.579   4.542   5.231  1.3843 -1.5618  0.0730
 2434SOL     OW18230   6.611   0.212   0.392  0.1351  0.2505 -0.4799
 2434SOL    HW118231   6.687   0.190   0.332  0.7342 -0.1409  0.4123
 2434SOL    HW218232   6.628   0.175   0.483 -1.7258 -0.9913 -0.6050
 2435SOL     OW18233   3.753   8.981   5.563  0.0533  0.2259  0.1630
 2435SOL    HW118234   3.686   8.949   5.496  1.5290  0.8360 -1.6454
 2435SOL    HW218235   3.779   9.075   5.542  0.7853  0.3107  1.4062
 2436SOL     OW18236   5.312   1.485   3.560 -0.1779  0.4676  0.0825
 2436SOL    HW118237   5.272   1.409   3.611  0.4653 -0.3001 -0.5433
 2436SOL    HW218238   5.272   1.571   3.591 -1.9690 -0.2434 -0.1788
 2437SOL     OW18239   3.541   6.632   3.477 -0.0842 -1.1685  0.6016
 2437SOL    HW118240   3.611   6.701   3.458 -0.6845 -1.4900 -3.1277
 2437SOL    HW218241   3.451   6.669   3.454 -0.6739 -2.3473  1.0055
 2438SOL     OW18242   0.709   3.469   3.352  0.2148 -0.0411 -0.1164
 2438SOL    HW118243   0.676   3.545   3.408  1.1760  0.7588 -0.6159
 2438SOL    HW218244   0.801   3.491   3.317 -0.9061  0.0915 -3.1566
 2439SOL     OW18245   5.602   7.694   3.275 -0.2349 -0.0818  0.0913
 2439SOL    HW118246   5.594   7.789   3.244  1.2357  0.0931  0.2366
 2439SOL    HW218247   5.667   7.645   3.217 -1.3354 -1.1346 -0.2716
 2440SOL     OW18248   7.874   8.667   1.406  0.0702  0.1503 -0.1757
 2440SOL    HW118249   7.887   8.584   1.352  0.3492  1.2929 -1.9018
 2440SOL    HW218250   7.955   8.724   1.400 -0.4468  0.9509  0.3127
 2441SOL     OW18251   9.517   1.617   4.348 -0.3776  0.2140  0.1759
 2441SOL    HW118252   9.479   1.550   4.284  1.3912 -0.6634  0.0048
 2441SOL    HW218253   9.458   1.698   4.350 -2.1931 -1.0597 -0.1172
 2442SOL     OW18254   3.274   8.625   3.941  0.3533 -0.6984  0.3431
 2442SOL    HW118255   3.365   8.638   3.903  0.7812  3.1625  2.4359
 2442SOL    HW218256   3.206   8.666   3.881  0.6100  1.5354  1.5243
 2443SOL     OW18257   1.389   6.416   2.798  0.0016 -0.0900 -0.3957
 2443SOL    HW118258   1.368   6.478   2.722 -0.4552 -0.6958 -0.7742
 2443SOL    HW218259   1.420   6.469   2.877  2.4460  0.4148 -1.6423
 2444SOL     OW18260   8.767   4.866   3.851  0.0195  0.1693 -0.2345
 2444SOL    HW118261   8.825   4.945   3.833  0.0160  0.1834 -0.1865
 2444SOL    HW218262   8.721   4.837   3.766 -0.4862  0.6189 -0.1177
 2445SOL     OW18263   4.719   7.985   1.115  0.3537 -0.0497 -0.1630
 2445SOL    HW118264   4.703   8.072   1.067  1.6132 -0.5259 -1.5114
 2445SOL    HW218265   4.714   7.999   1.213  0.0792  1.4709 -0.3849
 2446SOL     OW18266   2.603   5.224   2.167  0.5751  0.3750 -0.9704
 2446SOL    HW118267   2.695   5.263   2.178  0.3590  0.9547 -1.2464
 2446SOL    HW218268   2.587   5.202   2.071  1.3421 -1.9893 -0.5969
 2447SOL     OW18269   0.039   4.692   5.411  0.3486  0.2329 -0.1326
 2447SOL    HW118270   0.089   4.705   5.497  1.7997  1.4774 -1.1432
 2447SOL    HW218271   0.043   4.776   5.357 -0.0059 -0.7467 -1.7099
 2448SOL     OW18272   8.142   9.207   1.957  0.5269 -0.1478 -0.4032
 2448SOL    HW118273   8.159   9.252   2.044  1.2460 -1.3915  0.1202
 2448SOL    HW218274   8.057   9.155   1.962  1.1307 -1.1309 -0.0442
 2449SOL     OW18275   0.624   5.257   5.028  0.3071  0.1332  0.5073
 2449SOL    HW118276   0.716   5.220   5.042  0.2510  0.5068  1.9162
 2449SOL    HW218277   0.626   5.325   4.955  1.0602 -0.2005  0.2122
 2450SOL     OW18278   9.019   6.593   0.745 -0.7739 -0.0382  0.0160
 2450SOL    HW118279   9.030   6.668   0.811  0.1554 -0.5882  0.5068
 2450SOL    HW218280   9.016   6.506   0.795 -2.2195 -0.3086 -0.5200
 2451SOL     OW18281   5.000   0.256   4.993 -0.1322  0.6388  0.1304
 2451SOL    HW118282   4.980   0.270   5.090  1.1134  0.2458  0.4656
 2451SOL    HW218283   4.977   0.162   4.968  0.6582  0.3747  0.3605
 2452SOL     OW18284   9.575   5.989   5.405  0.6402 -0.5808  0.0693
 2452SOL    HW118285   9.608   5.919   5.341 -0.3419 -0.4401 -0.5908
 2452SOL    HW218286   9.480   5.970   5.429  0.4450  0.3946  0.0675
 2453SOL     OW18287   3.734   4.181   5.027  0.0637  0.5916  0.5100
 2453SOL    HW118288   3.705   4.252   4.962 -0.3001  0.7129  0.8026
 2453SOL    HW218289   3.823   4.145   4.999  0.1134  0.9535  0.1912
 2454SOL     OW18290   0.909   4.054   4.963 -0.2181 -0.1642 -0.0146
 2454SOL    HW118291   1.002   4.019   4.972 -0.3585 -0.0801  1.9981
 2454SOL    HW218292   0.844   3.979   4.974 -0.4073 -0.0512 -0.3681
 2455SOL     OW18293   8.858   7.149   1.378 -0.1675  0.0444  0.0977
 2455SOL    HW118294   8.867   7.122   1.282 -0.4405 -1.9342  0.6019
 2455SOL    HW218295   8.764   7.177   1.396 -0.1448  0.3073 -0.1906
 2456SOL     OW18296   6.536   8.904   1.287  0.8908 -0.3288  0.0380
 2456SOL    HW118297   6.456   8.846   1.272  1.0078 -0.4377 -0.1788
 2456SOL    HW218298   6.614   8.865   1.237  1.0992 -0.2698  0.3159
 2457SOL     OW18299   4.308   1.792   4.114 -0.3426  0.1237  0.0721
 2457SOL    HW118300   4.249   1.757   4.041 -0.1091  1.2557 -0.6710
 2457SOL    HW218301   4.403   1.792   4.083 -0.0267 -0.9678  0.9900
 2458SOL     OW18302   0.745   6.643   2.717  0.4252 -0.3770 -0.1453
 2458SOL    HW118303   0.692   6.702   2.778  0.1679  0.4077 -1.1167
 2458SOL    HW218304   0.746   6.550   2.753 -1.4632 -0.3652 -0.0255
 2459SOL     OW18305   4.003   2.830   5.196  0.3367  0.2492 -0.1487
 2459SOL    HW118306   4.088   2.798   5.236 -0.1566 -1.1103 -0.1815
 2459SOL    HW218307   3.947   2.752   5.168 -0.4570  1.1389 -1.1093
 2460SOL     OW18308   4.380   2.359   3.176 -0.0258 -0.5295 -0.2216
 2460SOL    HW118309   4.324   2.278   3.194 -0.3844  0.1238  1.6543
 2460SOL    HW218310   4.323   2.441   3.177  0.9934  0.1894  2.1580
 2461SOL     OW18311   9.355   5.949   1.544 -0.0654 -0.1088 -0.1376
 2461SOL    HW118312   9.342   6.046   1.526  0.0207 -0.2102 -0.7390
 2461SOL    HW218313   9.430   5.937   1.609 -0.5332  0.2648  0.4792
 2462SOL     OW18314   0.427   3.553   4.926 -0.0901  0.0533  0.5277
 2462SOL    HW118315   0.418   3.616   5.003 -0.3677 -0.7882  1.1873
 2462SOL    HW218316   0.491   3.480   4.950 -1.4814 -1.1604  0.5908
 2463SOL     OW18317   3.564   5.559   4.869  0.0234  0.0888 -0.0270
 2463SOL    HW118318   3.558   5.588   4.773  1.9591 -0.2731 -0.2886
 2463SOL    HW218319   3.479   5.581   4.916 -1.0338  0.0872 -1.8780
 2464SOL     OW18320   1.720   0.376   4.375 -0.6722  0.3823  0.2840
 2464SOL    HW118321   1.765   0.447   4.320 -0.2176 -0.1710 -0.0666
 2464SOL    HW218322   1.760   0.287   4.353 -1.0724  0.0490  0.9010
 2465SOL     OW18323   3.464   2.698   4.324 -0.9284  0.0906  0.1320
 2465SOL    HW118324   3.468   2.610   4.372 -1.0679  0.0566  0.0816
 2465SOL    HW218325   3.543   2.754   4.351 -0.4966 -0.2953 -0.3157
 2466SOL     OW18326   6.547   7.486   2.642 -0.1848  0.0765  0.0413
 2466SOL    HW118327   6.502   7.572   2.620 -2.0720 -1.0041 -0.4580
 2466SOL    HW218328   6.639   7.484   2.601 -0.8250  1.1012 -1.4849
 2467SOL     OW18329   9.792   6.618   0.402  0.3616  0.1406  0.6658
 2467SOL    HW118330   9.798   6.526   0.361  2.3644  0.1705  0.8054
 2467SOL    HW218331   9.858   6.625   0.477 -0.8045  1.2394  1.6109
 2468SOL     OW18332   2.139   8.574   5.570 -0.2063 -0.6033 -0.3375
 2468SOL    HW118333   2.154   8.476   5.583 -1.3595 -0.7349  0.0115
 2468SOL    HW218334   2.169   8.623   5.652  0.5608 -0.6404 -0.5913
 2469SOL     OW18335   1.428   1.108   4.829 -0.0453 -0.4950 -0.3874
 2469SOL    HW118336   1.331   1.095   4.847  0.1896  1.5535  2.6291
 2469SOL    HW218337   1.479   1.028   4.859 -0.2258  0.7996  3.6118
 2470SOL     OW18338   6.890   0.703   0.776 -0.3941 -0.5088 -0.2767
 2470SOL    HW118339   6.868   0.727   0.681  0.7573 -2.7324 -1.1297
 2470SOL    HW218340   6.812   0.656   0.817 -0.2382 -1.1202 -0.6826
 2471SOL     OW18341   0.926   7.033   5.128  0.1294 -0.3044 -0.6065
 2471SOL    HW118342   0.850   7.033   5.063  0.4197 -1.8502 -0.9644
 2471SOL    HW218343   1.012   7.025   5.079  0.4835  0.4904 -0.1369
 2472SOL     OW18344   2.790   3.852   4.137  0.3218 -0.5382  0.3361
 2472SOL    HW118345   2.887   3.854   4.160  1.0482 -2.2788 -2.4361
 2472SOL    HW218346   2.757   3.945   4.123  1.3806  0.1126  1.9751
 2473SOL     OW18347   3.082   4.342   0.361  0.2782  0.5869 -0.7290
 2473SOL    HW118348   3.108   4.437   0.348 -0.0438  0.6422 -0.9892
 2473SOL    HW218349   3.073   4.297   0.272  2.2893 -0.2052 -0.5661
 2474SOL     OW18350   9.667   1.744   3.263  0.3229  0.5694  0.0946
 2474SOL    HW118351   9.582   1.710   3.303 -0.0901  0.3851 -0.9419
 2474SOL    HW218352   9.743   1.724   3.325 -0.1829 -0.5606  0.3538
 2475SOL     OW18353   9.853   7.979   4.534 -0.0049 -0.0954  0.3212
 2475SOL    HW118354   9.807   8.053   4.582  1.9947 -0.0443  2.2074
 2475SOL    HW218355   9.812   7.968   4.443 -1.0504  2.5768  0.4294
 2476SOL     OW18356   2.643   6.276   0.730 -0.3551  0.0595  0.0673
 2476SOL    HW118357   2.665   6.368   0.764  5.6032 -1.7312  1.6627
 2476SOL    HW218358   2.674   6.268   0.636 -1.2323 -0.2431 -0.1994
 2477SOL     OW18359   8.417   7.448   3.439 -0.0977 -0.4995  0.6654
 2477SOL    HW118360   8.489   7.500   3.392  1.1526 -1.6698  1.2366
 2477SOL    HW218361   8.359   7.403   3.371 -0.3384  0.4881  0.1974
 2478SOL     OW18362   1.357   0.317   4.087  0.1848 -0.3732 -0.6507
 2478SOL    HW118363   1.420   0.385   4.049 -1.6450  1.0930 -1.1574
 2478SOL    HW218364   1.377   0.304   4.184  2.6956 -1.6122 -1.2818
 2479SOL     OW18365   8.714   1.492   2.297  0.4310 -0.1341 -0.1529
 2479SOL    HW118366   8.634   1.507   2.356  1.6044  0.9867  1.1711
 2479SOL    HW218367   8.733   1.576   2.246 -0.4627 -1.0393 -2.0276
 2480SOL     OW18368   1.329   0.613   0.929  0.5662  1.0005 -0.1306
 2480SOL    HW118369   1.367   0.683   0.868  0.1072  0.5032 -0.9789
 2480SOL    HW218370   1.233   0.634   0.948 -0.1191 -0.4062 -1.8858
 2481SOL     OW18371   2.179   7.919   3.710 -0.5040 -0.0582 -0.4393
 2481SOL    HW118372   2.183   8.012   3.745  1.7352 -0.3658  0.2055
 2481SOL    HW218373   2.253   7.905   3.644  1.2979 -2.3196  1.9315
 2482SOL     OW18374   2.309   7.558   1.430 -0.4651  0.4127 -1.0463
 2482SOL    HW118375   2.238   7.621   1.459 -0.3785  1.1481 -2.3829
 2482SOL    HW218376   2.341   7.583   1.338  1.4770  0.0793 -0.4944
 2483SOL     OW18377   8.586   6.795   3.057 -0.3666  0.0278  0.4797
 2483SOL    HW118378   8.638   6.722   3.101 -2.5556 -1.8599  0.0527
 2483SOL    HW218379   8.599   6.881   3.106  2.9699 -0.4157  0.4750
 2484SOL     OW18380   4.085   4.037   0.583  0.1313 -0.3955  0.0100
 2484SOL    HW118381   4.011   4.101   0.566  1.7302  1.7239  0.7716
 2484SOL    HW218382   4.056   3.968   0.648 -0.8344  1.0961  1.1972
 2485SOL     OW18383   0.175   1.393   4.994 -0.1557  0.5186 -0.5985
 2485SOL    HW118384   0.230   1.454   4.936  1.2616 -0.9385 -0.8377
 2485SOL    HW218385   0.151   1.311   4.942  2.0883 -1.3201  1.1827
 2486SOL     OW18386   0.308   0.380   2.007  0.5292  0.5433  1.0974
 2486SOL    HW118387   0.272   0.295   1.969  1.1795 -0.0407  1.7875
 2486SOL    HW218388   0.282   0.388   2.103 -0.3128  1.5740  0.7971
 2487SOL     OW18389   1.591   4.571   5.494  0.0106 -0.2331  0.1404
 2487SOL    HW118390   1.666   4.587   5.429  0.8199  0.6998  1.2864
 2487SOL    HW218391   1.528   4.648   5.492 -0.1203 -0.3376  0.2412
 2488SOL     OW18392   0.348   9.387   5.538  0.5008 -0.3935  0.3534
 2488SOL    HW118393   0.424   9.438   5.579 -0.5792  0.6616  1.0672
 2488SOL    HW218394   0.297   9.448   5.477  0.9287 -1.4248 -1.0747
 2489SOL     OW18395   2.096   8.653   4.115  0.1209 -0.5290  0.3842
 2489SOL    HW118396   2.120   8.639   4.019  0.0671 -0.8858  0.4213
 2489SOL    HW218397   2.081   8.564   4.159  2.0430 -0.4841  1.2075
 2490SOL     OW18398   4.748   0.770   3.353  0.0641  0.1945 -0.3907
 2490SOL    HW118399   4.838   0.813   3.355  1.2937 -2.2541  3.8628
 2490SOL    HW218400   4.684   0.825   3.407  0.0596 -0.0678 -0.1233
 2491SOL     OW18401   8.266   5.069   0.339 -0.4346  0.4675  0.7258
 2491SOL    HW118402   8.239   5.164   0.329 -1.0457  0.0687 -1.5542
 2491SOL    HW218403   8.360   5.064   0.375  0.0453  1.9265 -0.3201
 2492SOL     OW18404   2.436   9.787   1.910  0.1861  0.2121 -0.1001
 2492SOL    HW118405   2.373   9.822   1.841  0.0051 -0.3010 -0.2011
 2492SOL    HW218406   2.483   9.863   1.955 -0.6083  0.6066  0.0701
 2493SOL     OW18407   8.499   0.978   3.350  0.2712  0.2020 -0.3466
 2493SOL    HW118408   8.550   1.033   3.285  1.5645  1.8868  2.0111
 2493SOL    HW218409   8.558   0.906   3.387 -0.1508 -0.1095 -0.2747
 2494SOL     OW18410   1.592   6.986   2.401 -0.2785 -0.3252  0.6277
 2494SOL    HW118411   1.539   7.057   2.447  0.8238  0.0827  1.2859
 2494SOL    HW218412   1.684   7.020   2.381 -0.5049 -0.7472 -1.2281
 2495SOL     OW18413   9.124   3.528   2.420 -0.1373 -0.1470 -0.6540
 2495SOL    HW118414   9.063   3.600   2.387 -0.6940 -0.4054 -0.2132
 2495SOL    HW218415   9.087   3.490   2.505  2.1840  1.7528  1.2933
 2496SOL     OW18416   0.859   2.524   1.495  0.0259  0.5815 -0.1683
 2496SOL    HW118417   0.874   2.622   1.484 -2.1192  0.5710 -4.1294
 2496SOL    HW218418   0.945   2.480   1.520  1.7572  3.0603 -1.5474
 2497SOL     OW18419   7.642   8.919   0.676  0.5648  0.0598  0.3967
 2497SOL    HW118420   7.549   8.886   0.666  1.0960 -0.9730 -1.4232
 2497SOL    HW218421   7.697   8.851   0.724  0.6181  0.2271  0.5722
 2498SOL     OW18422   9.579   7.360   3.091  0.0648 -0.0983 -1.3062
 2498SOL    HW118423   9.672   7.356   3.055  0.4603  0.9104 -0.4252
 2498SOL    HW218424   9.514   7.370   3.015  0.7753  0.4986 -1.8382
 2499SOL     OW18425   1.497   3.624   2.397  0.1369 -0.1869  0.0642
 2499SOL    HW118426   1.429   3.606   2.468 -1.3493  0.6906 -1.0984
 2499SOL    HW218427   1.500   3.722   2.378  3.7209  0.1807  1.9997
 2500SOL     OW18428   9.394   9.205   4.095 -0.2594  0.0661  0.3321
 2500SOL    HW118429   9.382   9.292   4.142  0.9558  0.9138 -0.8904
 2500SOL    HW218430   9.476   9.160   4.130  0.2134  0.3367 -0.4345
 2501SOL     OW18431   3.622   6.809   1.512  0.3418 -0.1254  0.0334
 2501SOL    HW118432   3.691   6.823   1.441  1.5946  0.6299  1.3578
 2501SOL    HW218433   3.561   6.888   1.515  0.8831  0.2834  0.4288
 2502SOL     OW18434   4.130   0.128   3.332  0.0890 -0.1923  0.1600
 2502SOL    HW118435   4.158   0.224   3.341  0.8728 -0.2803 -1.2631
 2502SOL    HW218436   4.044   0.123   3.283 -0.9096 -0.1138  1.8705
 2503SOL     OW18437   7.329   9.239   4.887  0.0833  0.3392 -0.0678
 2503SOL    HW118438   7.247   9.296   4.895 -0.4308 -0.5013  0.7643
 2503SOL    HW218439   7.374   9.232   4.975 -0.7177 -1.7783  0.2111
 2504SOL     OW18440   1.607   5.168   5.072 -0.4911 -0.2544  0.0595
 2504SOL    HW118441   1.525   5.211   5.035 -1.1446 -0.4898  1.1921
 2504SOL    HW218442   1.688   5.201   5.023 -1.4946 -2.1126 -2.9448
 2505SOL     OW18443   4.950   8.468   2.861  0.0340 -0.0722  0.4100
 2505SOL    HW118444   4.945   8.430   2.769  0.7808  1.5925 -0.3488
 2505SOL    HW218445   4.873   8.530   2.875  0.3487  0.2699  0.6225
 2506SOL     OW18446   1.006   4.669   2.814  0.1252 -0.7163 -0.6385
 2506SOL    HW118447   0.906   4.672   2.819  0.1473 -1.3378  0.2641
 2506SOL    HW218448   1.042   4.762   2.805 -0.4612 -0.3655  0.5337
 2507SOL     OW18449   0.147   2.215   0.328 -0.0616 -0.2346  0.0784
 2507SOL    HW118450   0.070   2.168   0.369  0.7226 -1.0131  0.6701
 2507SOL    HW218451   0.115   2.298   0.281 -1.2168 -0.4619  0.4644
 2508SOL     OW18452   2.624   5.673   4.279 -0.0389 -0.3209 -0.1221
 2508SOL    HW118453   2.610   5.580   4.312  0.5431 -0.9632 -1.6262
 2508SOL    HW218454   2.600   5.678   4.182 -0.8306  1.2933  0.1458
 2509SOL     OW18455   5.451   6.907   3.512  0.0175 -0.2082  0.4953
 2509SOL    HW118456   5.484   7.001   3.522 -1.9363  0.5884 -0.1642
 2509SOL    HW218457   5.467   6.876   3.418 -0.5847 -0.0208  0.3281
 2510SOL     OW18458   8.040   8.329   2.711 -0.3663  0.7740  1.0453
 2510SOL    HW118459   8.038   8.392   2.634 -1.5068 -0.7697 -0.2397
 2510SOL    HW218460   8.134   8.297   2.726 -0.4790 -0.7441 -1.2783
 2511SOL     OW18461   3.655   1.478   2.837  0.1942 -0.2503 -0.5143
 2511SOL    HW118462   3.727   1.408   2.844  1.4305  0.5738 -3.8498
 2511SOL    HW218463   3.582   1.457   2.901  3.1133 -1.4557  2.6125
 2512SOL     OW18464   0.441   8.878   2.435  0.0749  0.0090 -0.0925
 2512SOL    HW118465   0.494   8.813   2.380 -1.2707  0.3881 -1.8621
 2512SOL    HW218466   0.439   8.967   2.390 -2.4216 -0.1125 -0.3098
 2513SOL     OW18467   9.891   2.516   4.406  0.0434  0.2902  0.0134
 2513SOL    HW118468   9.952   2.564   4.343 -1.1234  2.1229  0.2539
 2513SOL    HW218469   9.913   2.542   4.500 -1.4461  1.4037  0.0749
 2514SOL     OW18470   6.708   1.075   4.169  0.5186 -0.0725  0.2426
 2514SOL    HW118471   6.795   1.123   4.179  0.1685  0.7863 -0.7165
 2514SOL    HW218472   6.686   1.065   4.072  0.3774 -1.8187  0.4352
 2515SOL     OW18473   9.433   0.868   3.767 -0.3714 -0.1754 -0.0989
 2515SOL    HW118474   9.408   0.821   3.851 -0.8112 -2.0821 -1.2653
 2515SOL    HW218475   9.524   0.838   3.738 -0.4112  0.1271 -0.5390
 2516SOL     OW18476   2.563   5.607   2.226  0.5535 -0.2219  0.3773
 2516SOL    HW118477   2.474   5.564   2.211 -0.3495  2.1494 -1.3331
 2516SOL    HW218478   2.551   5.704   2.247  2.7690  0.3751 -0.9038
 2517SOL     OW18479   2.581   3.581   1.677 -0.4816  0.6190  0.1696
 2517SOL    HW118480   2.547   3.657   1.733 -1.3301 -0.7432  1.5436
 2517SOL    HW218481   2.505   3.540   1.627  0.1545  1.3331 -1.4075
 2518SOL     OW18482   2.604   2.121   0.764 -0.3935 -0.0891  0.1014
 2518SOL    HW118483   2.655   2.178   0.829  1.1213 -0.9510 -0.3063
 2518SOL    HW218484   2.555   2.050   0.813  0.2007 -0.3184  0.3692
 2519SOL     OW18485   1.876   2.261   4.548  0.3686  0.2708 -0.5125
 2519SOL    HW118486   1.947   2.286   4.615  0.3955 -0.9916 -0.0528
 2519SOL    HW218487   1.788   2.254   4.595 -0.2237  2.7002 -1.2484
 2520SOL     OW18488   0.421   2.911   3.334 -0.0971  0.0813  0.2689
 2520SOL    HW118489   0.458   2.962   3.412 -0.6439  0.4324  0.3013
 2520SOL    HW218490   0.424   2.813   3.355  1.3616  0.0623  0.0227
 2521SOL     OW18491   8.756   2.442   3.287  0.3807  0.1737 -0.4277
 2521SOL    HW118492   8.743   2.520   3.349 -1.0532 -0.2336 -0.1896
 2521SOL    HW218493   8.678   2.436   3.225 -0.3824 -2.1019  0.6988
 2522SOL     OW18494   0.540   0.999   0.585 -0.5598 -0.2295 -0.3445
 2522SOL    HW118495   0.463   1.039   0.535 -1.3295  2.0093  2.4905
 2522SOL    HW218496   0.590   0.936   0.525 -3.8141 -0.7555 -2.6180
 2523SOL     OW18497   2.276   8.038   2.521  0.5838 -0.0742  0.5817
 2523SOL    HW118498   2.284   8.081   2.611 -0.5027  0.4648  0.4222
 2523SOL    HW218499   2.216   8.093   2.463 -0.7000 -1.7251  0.3309
 2524SOL     OW18500   4.046   6.390   1.778  0.3898 -0.2359 -0.0671
 2524SOL    HW118501   4.052   6.483   1.742  0.1377 -0.5475 -0.9261
 2524SOL    HW218502   4.107   6.330   1.727  0.1475 -0.6498  0.1247
 2525SOL     OW18503   2.133   1.466   2.529 -0.1322  0.4009  0.5198
 2525SOL    HW118504   2.074   1.428   2.601  0.4716 -1.3362  0.1432
 2525SOL    HW218505   2.119   1.564   2.522 -2.2105  0.1755  1.1492
 2526SOL     OW18506   6.137   9.891   4.679 -0.2431  0.3794 -0.4118
 2526SOL    HW118507   6.107   9.859   4.769 -0.2821 -0.4090 -0.6948
 2526SOL    HW218508   6.237   9.890   4.675 -0.2054  1.7551  0.0926
 2527SOL     OW18509   3.240   7.620   2.108  0.4485 -0.1548 -0.2362
 2527SOL    HW118510   3.323   7.654   2.153  0.3857  0.0995 -0.3077
 2527SOL    HW218511   3.262   7.539   2.054  0.4661 -0.6162  0.4650
 2528SOL     OW18512   9.326   7.404   2.915 -0.0150  0.3496  0.5380
 2528SOL    HW118513   9.375   7.468   2.975  1.8726  2.1088 -2.7415
 2528SOL    HW218514   9.255   7.454   2.864  1.3950 -0.1340 -1.9757
 2529SOL     OW18515   9.365   4.867   2.541  0.0753  0.1110 -0.0621
 2529SOL    HW118516   9.391   4.820   2.625 -0.4313 -2.3180 -1.1849
 2529SOL    HW218517   9.265   4.873   2.536  0.1057  0.3046 -0.4342
 2530SOL     OW18518   1.498   4.296   1.079  0.2686  0.6361 -0.1481
 2530SOL    HW118519   1.490   4.331   0.986 -0.3266 -0.6546 -0.5963
 2530SOL    HW218520   1.448   4.210   1.087 -0.0008  0.9145  1.4661
 2531SOL     OW18521   1.558   5.866   3.519 -0.6780  0.1432 -0.3032
 2531SOL    HW118522   1.657   5.879   3.519 -0.5175 -0.7241 -2.7995
 2531SOL    HW218523   1.513   5.953   3.498 -0.4384  0.4801  0.5689
 2532SOL     OW18524   0.331   6.101   0.865  0.4371  0.6527 -0.1109
 2532SOL    HW118525   0.261   6.158   0.908  0.9302  0.5256  0.8580
 2532SOL    HW218526   0.396   6.158   0.816  2.0928  1.0923  2.5385
 2533SOL     OW18527   1.452   7.901   0.912 -0.1693  0.6788 -0.1043
 2533SOL    HW118528   1.358   7.935   0.906 -0.5352 -0.4146 -0.7362
 2533SOL    HW218529   1.457   7.830   0.983  0.1778  0.7578 -0.0520
 2534SOL     OW18530   0.808   4.013   5.585  0.6185  0.1898  0.5455
 2534SOL    HW118531   0.739   4.060   5.530  1.1827 -0.6242 -0.8760
 2534SOL    HW218532   0.776   4.007   5.679 -0.4327  1.4618  0.2911
 2535SOL     OW18533   0.076   9.907   2.479  0.5777  0.0229  0.4674
 2535SOL    HW118534   0.167   9.868   2.462  0.5020  0.0083  0.0867
 2535SOL    HW218535   0.046   9.957   2.398  0.5655  0.6596  0.8643
 2536SOL     OW18536   9.925   8.223   1.758  0.4018 -0.1412 -0.0684
 2536SOL    HW118537   9.847   8.277   1.790  2.0364  2.4816 -0.3621
 2536SOL    HW218538   9.987   8.206   1.834 -0.4800 -2.3606  0.2000
 2537SOL     OW18539   1.081   8.030   4.197  0.6361  0.0885  0.8596
 2537SOL    HW118540   1.147   7.956   4.182  0.1572 -0.3394  0.8683
 2537SOL    HW218541   1.008   7.998   4.257 -1.3476 -0.4827 -1.8046
 2538SOL     OW18542   2.930   0.984   0.883  0.0944  0.5260  0.1041
 2538SOL    HW118543   2.954   0.888   0.898 -1.4741  0.0155 -0.5277
 2538SOL    HW218544   2.857   1.010   0.946 -0.4718  0.8870 -0.6895
 2539SOL     OW18545   3.537   6.997   2.032 -0.2010 -0.0469 -0.1365
 2539SOL    HW118546   3.536   7.041   1.943  0.0928 -1.0860 -0.6649
 2539SOL    HW218547   3.488   7.054   2.098 -2.1070 -0.1456 -1.3930
 2540SOL     OW18548   0.910   2.842   4.333 -0.2358 -0.1349  0.0615
 2540SOL    HW118549   0.984   2.865   4.269 -0.7877  0.6513 -0.2982
 2540SOL    HW218550   0.947   2.835   4.425  0.5828 -1.3486 -0.3367
 2541SOL     OW18551   7.283   9.468   2.479 -0.5861  0.2134  0.3224
 2541SOL    HW118552   7.185   9.487   2.469 -0.3866  0.0280 -2.3115
 2541SOL    HW218553   7.336   9.548   2.451  0.0395 -0.2621  0.1383
 2542SOL     OW18554   4.191   5.134   1.838 -0.0951  0.6264  0.0017
 2542SOL    HW118555   4.284   5.145   1.805 -0.1859 -0.4031 -0.6152
 2542SOL    HW218556   4.163   5.038   1.830 -1.6454  1.1417 -0.9956
 2543SOL     OW18557   3.418   0.502   2.671 -0.2141  0.3754 -0.3051
 2543SOL    HW118558   3.436   0.576   2.606 -1.1153 -0.0187 -1.0180
 2543SOL    HW218559   3.332   0.457   2.647 -0.2847 -0.1156  0.8546
 2544SOL     OW18560   3.675   4.398   1.450  0.5289  0.1050  0.3081
 2544SOL    HW118561   3.737   4.393   1.528 -0.4997  0.2185  1.1524
 2544SOL    HW218562   3.727   4.400   1.365  1.6293 -1.3308  0.9378
 2545SOL     OW18563   5.237   1.590   2.024  0.0491  0.7659  0.7792
 2545SOL    HW118564   5.314   1.653   2.019 -0.2462  1.0163 -0.7481
 2545SOL    HW218565   5.267   1.505   2.069  0.9102  1.2818  1.2028
 2546SOL     OW18566   9.170   9.788   1.542 -0.2452  0.4933 -0.1954
 2546SOL    HW118567   9.158   9.820   1.636 -0.9431 -1.9766  0.5897
 2546SOL    HW218568   9.081   9.763   1.503  0.1666  0.4462 -1.1136
 2547SOL     OW18569   7.850   9.583   0.315 -0.4872 -0.2979 -0.1059
 2547SOL    HW118570   7.788   9.622   0.247 -2.8947 -2.1470  0.9292
 2547SOL    HW218571   7.814   9.601   0.407  0.1646 -1.9866  0.4967
 2548SOL     OW18572   1.725   6.073   3.253 -0.1363  0.2779 -0.2119
 2548SOL    HW118573   1.780   5.990   3.249  0.7312  0.9033 -1.6499
 2548SOL    HW218574   1.631   6.052   3.229 -0.1409 -0.4645  0.4317
 2549SOL     OW18575   1.527   8.086   4.029 -0.2322  0.3250 -0.2431
 2549SOL    HW118576   1.522   8.079   4.129  0.1820  1.7241 -0.1083
 2549SOL    HW218577   1.529   7.994   3.989  1.4649 -0.2745  1.1509
 2550SOL     OW18578   7.480   9.828   2.697 -0.3030 -0.3867 -0.4482
 2550SOL    HW118579   7.556   9.795   2.641  0.1107 -0.9391  0.4349
 2550SOL    HW218580   7.464   9.925   2.678  0.2811 -0.3991 -1.0138
 2551SOL     OW18581   1.076   2.854   2.550 -0.2889 -0.7347 -0.1721
 2551SOL    HW118582   1.120   2.909   2.478  0.6478 -1.3719 -0.1025
 2551SOL    HW218583   1.129   2.862   2.635 -1.6156  0.3295  0.5570
 2552SOL     OW18584   2.891   0.229   0.050 -0.1135 -0.0815  0.3246
 2552SOL    HW118585   2.976   0.251   0.098 -0.0197  0.0640  0.0930
 2552SOL    HW218586   2.867   0.134   0.067 -0.1294 -0.0072  0.7358
 2553SOL     OW18587   1.289   6.194   2.923 -0.0125  0.2970 -0.3309
 2553SOL    HW118588   1.314   6.211   3.018 -1.7185 -0.1099  0.2223
 2553SOL    HW218589   1.325   6.267   2.865  1.6049  0.1919  0.5359
 2554SOL     OW18590   2.777   3.356   0.085  0.0287 -0.8421 -0.3842
 2554SOL    HW118591   2.865   3.312   0.064  1.0997  0.1974  1.7032
 2554SOL    HW218592   2.749   3.413   0.008  0.9870 -1.4814 -1.2261
 2555SOL     OW18593   7.920   8.295   2.288  0.0830 -0.3293  0.3310
 2555SOL    HW118594   8.018   8.315   2.285 -0.0683  1.2522  3.5185
 2555SOL    HW218595   7.904   8.209   2.337 -0.1754  0.2064  1.2098
 2556SOL     OW18596   2.534   5.003   0.755 -0.2177  0.2679  0.4350
 2556SOL    HW118597   2.512   5.071   0.825  0.2416 -0.3496  1.1785
 2556SOL    HW218598   2.630   5.012   0.729  0.0958 -0.7060  1.2175
 2557SOL     OW18599   8.858   8.443   5.601  0.5126  0.1761  0.0172
 2557SOL    HW118600   8.848   8.449   5.700  5.1430  1.0443  0.5658
 2557SOL    HW218601   8.836   8.350   5.570 -1.0888 -0.0603  1.8077
 2558SOL     OW18602   8.507   5.208   0.893 -0.0746  0.3047  0.2518
 2558SOL    HW118603   8.523   5.298   0.934  0.0402 -0.5904  2.2541
 2558SOL    HW218604   8.474   5.145   0.964 -2.0553 -0.7145 -1.5357
 2559SOL     OW18605   5.744   0.065   3.285  0.1082  0.5606 -0.1236
 2559SOL    HW118606   5.834   0.041   3.321  0.6645  2.5318 -0.1011
 2559SOL    HW218607   5.678  -0.006   3.307  1.7921 -1.1822 -0.6333
 2560SOL     OW18608   9.212   1.359   4.362 -0.6075  0.0627 -0.7357
 2560SOL    HW118609   9.182   1.453   4.377  0.9175  0.0293  3.2116
 2560SOL    HW218610   9.170   1.299   4.430  3.0302 -1.0610  0.6604
 2561SOL     OW18611   7.697   4.073   4.267 -0.0052 -0.5238  0.0194
 2561SOL    HW118612   7.673   4.018   4.347 -1.9587 -0.7285 -0.6886
 2561SOL    HW218613   7.764   4.142   4.293 -0.3970 -0.7819  1.7640
 2562SOL     OW18614   2.529   6.482   2.985 -0.6604  0.1194  0.1156
 2562SOL    HW118615   2.519   6.530   3.072 -1.3239  0.7330 -0.2920
 2562SOL    HW218616   2.471   6.400   2.986  0.0444 -0.3809  0.5981
 2563SOL     OW18617   3.704   5.994   2.147 -0.6901  0.5017  0.4425
 2563SOL    HW118618   3.778   5.979   2.213  0.2974  3.0048 -0.0528
 2563SOL    HW218619   3.632   5.926   2.162  0.8797 -0.8439  2.1172
 2564SOL     OW18620   0.381   3.288   3.999  0.1752 -0.1663 -0.0074
 2564SOL    HW118621   0.343   3.221   3.936  0.7047  0.5861 -1.1457
 2564SOL    HW218622   0.439   3.352   3.949  2.5990 -1.0036  1.5999
 2565SOL     OW18623   2.634   1.055   3.991 -0.0857  0.0539 -0.2713
 2565SOL    HW118624   2.671   1.123   4.054 -0.9408  0.1193  0.1631
 2565SOL    HW218625   2.555   1.010   4.033 -0.4434 -0.1478 -1.1592
 2566SOL     OW18626   1.083   2.385   1.520 -0.4574  0.1799  0.0834
 2566SOL    HW118627   1.142   2.436   1.458  0.7344 -0.4287  0.6848
 2566SOL    HW218628   1.117   2.397   1.614 -1.2346 -0.2608  0.4184
 2567SOL     OW18629   8.907   2.937   2.794  0.5040  0.0014 -0.0074
 2567SOL    HW118630   8.952   3.008   2.848 -1.2600  0.0924  1.3966
 2567SOL    HW218631   8.859   2.980   2.717  1.3064  0.0890 -0.4622
 2568SOL     OW18632   7.501   9.378   3.987  0.0837  0.1219  0.4368
 2568SOL    HW118633   7.464   9.360   4.078 -0.3866 -0.4374  0.1367
 2568SOL    HW218634   7.538   9.294   3.948 -0.8977  0.0726 -0.4166
 2569SOL     OW18635   0.491   6.792   1.830 -0.6218 -0.1904 -0.3288
 2569SOL    HW118636   0.442   6.711   1.863 -0.5128  0.7595  2.2569
 2569SOL    HW218637   0.429   6.848   1.775 -0.9620 -1.5407 -1.3427
 2570SOL     OW18638   2.768   9.739   0.701 -0.5737  0.2404 -0.2777
 2570SOL    HW118639   2.765   9.640   0.719 -0.5453  0.1735 -0.6332
 2570SOL    HW218640   2.727   9.757   0.612  0.0466  0.4755 -0.5167
 2571SOL     OW18641   4.122   3.662   0.263 -0.2999  0.0176  0.2087
 2571SOL    HW118642   4.108   3.761   0.266 -1.9127 -0.2232  0.6484
 2571SOL    HW218643   4.059   3.620   0.198  0.1626 -0.7722  0.2514
 2572SOL     OW18644   0.438   7.471   3.213 -0.4324 -0.2629  0.4332
 2572SOL    HW118645   0.351   7.496   3.255  0.4196  1.7481  1.0950
 2572SOL    HW218646   0.506   7.456   3.285  0.3368  0.4709 -0.1308
 2573SOL     OW18647   0.665   8.307   3.917  0.7754 -0.7129 -0.2544
 2573SOL    HW118648   0.608   8.284   3.838 -0.6330  0.1122  0.5099
 2573SOL    HW218649   0.714   8.392   3.899  1.1756 -1.0160 -0.6051
 2574SOL     OW18650   0.379   6.365   4.873  0.3166  0.2476 -0.3033
 2574SOL    HW118651   0.446   6.384   4.945  0.7743 -2.2940  0.0045
 2574SOL    HW218652   0.419   6.301   4.807 -1.2094  0.0771 -1.0796
 2575SOL     OW18653   8.627   0.911   4.257  0.0581  0.0328  0.0478
 2575SOL    HW118654   8.663   0.985   4.314  1.1945 -0.3469 -0.1741
 2575SOL    HW218655   8.683   0.901   4.175 -1.1823  0.1358 -0.8295
 2576SOL     OW18656   4.637   8.000   4.649 -0.0626  0.0808 -0.0843
 2576SOL    HW118657   4.731   8.008   4.616  0.2731 -0.9411  0.6178
 2576SOL    HW218658   4.599   7.912   4.622  0.8767 -1.6450  3.8308
 2577SOL     OW18659   9.088   7.510   3.737 -0.6045 -0.6458 -0.2343
 2577SOL    HW118660   9.037   7.485   3.655  1.7980 -0.9229 -1.6798
 2577SOL    HW218661   9.175   7.460   3.739  1.7699  3.3292 -0.2825
 2578SOL     OW18662   7.625   7.019   2.135  0.4100  0.6185 -0.4688
 2578SOL    HW118663   7.592   7.101   2.087 -0.9268  0.5092  0.2328
 2578SOL    HW218664   7.673   7.046   2.218 -0.3484  0.6938 -0.0468
 2579SOL     OW18665   9.324   5.944   5.546 -0.3634  0.6671  0.2787
 2579SOL    HW118666   9.231   5.981   5.549 -0.8941 -0.6591  0.3924
 2579SOL    HW218667   9.340   5.885   5.624  0.1158 -0.2093 -0.4666
 2580SOL     OW18668   9.149   5.244   4.722  0.0478 -0.3504 -0.5678
 2580SOL    HW118669   9.220   5.186   4.763 -0.2873 -0.7467 -0.5524
 2580SOL    HW218670   9.073   5.187   4.691 -0.3942  0.1016 -0.3304
 2581SOL     OW18671   0.607   8.227   3.117  0.2866  0.3051 -0.4244
 2581SOL    HW118672   0.516   8.243   3.154  0.2791  0.7249 -0.6226
 2581SOL    HW218673   0.616   8.130   3.092 -0.1056  0.2635 -0.4081
 2582SOL     OW18674   0.524   3.493   4.667  0.0375  0.2267 -0.5572
 2582SOL    HW118675   0.443   3.470   4.614  0.3994 -0.6032 -0.7516
 2582SOL    HW218676   0.496   3.523   4.759 -0.4068 -2.1839  0.1394
 2583SOL     OW18677   8.611   4.032   3.981 -0.3882 -0.1912  0.3283
 2583SOL    HW118678   8.700   3.989   3.996  0.2783  0.1815 -2.2772
 2583SOL    HW218679   8.539   3.964   3.995  0.3432 -0.6896  1.7168
 2584SOL     OW18680   2.564   5.258   1.105 -0.4453  0.6477  0.0622
 2584SOL    HW118681   2.550   5.235   1.202 -0.2170  1.0516  0.1925
 2584SOL    HW218682   2.527   5.185   1.048  1.7578 -0.8682  0.4994
 2585SOL     OW18683   4.827   3.793   0.183  0.3013  0.7474 -0.3086
 2585SOL    HW118684   4.865   3.764   0.095  1.3174  3.2163 -0.7198
 2585SOL    HW218685   4.730   3.817   0.171  0.7249  2.1372 -1.0009
 2586SOL     OW18686   2.455   1.535   0.948 -0.2870 -0.0692  0.1042
 2586SOL    HW118687   2.396   1.466   0.906  0.6836 -0.2815 -0.9404
 2586SOL    HW218688   2.534   1.551   0.889  0.7470  0.1379  1.5189
 2587SOL     OW18689   0.568   4.013   2.660 -0.0201  0.0722 -0.3836
 2587SOL    HW118690   0.615   3.965   2.734 -2.4275  1.9909  2.5783
 2587SOL    HW218691   0.481   3.967   2.641  0.0755  0.2355 -1.2150
 2588SOL     OW18692   4.137   1.520   5.153  0.1935  0.0828  0.3937
 2588SOL    HW118693   4.077   1.496   5.076  1.4792  2.3417 -1.3579
 2588SOL    HW218694   4.110   1.609   5.189  1.3376  0.2590  0.8085
 2589SOL     OW18695   0.476   2.109   2.551  0.2394 -0.4510 -0.0063
 2589SOL    HW118696   0.540   2.036   2.527  0.4316 -0.1990 -0.2480
 2589SOL    HW218697   0.489   2.187   2.491 -0.8147 -0.6874 -0.5610
 2590SOL     OW18698   5.045   2.912   2.887 -0.1047 -0.1576 -0.1312
 2590SOL    HW118699   5.049   3.012   2.884 -0.5209 -0.0945  1.2426
 2590SOL    HW218700   4.951   2.883   2.908  0.1938 -0.8161  0.3064
 2591SOL     OW18701   8.825   1.446   3.969  0.2467  0.0928  0.0663
 2591SOL    HW118702   8.830   1.410   3.876 -2.4303  2.0362 -0.9112
 2591SOL    HW218703   8.795   1.375   4.032  1.7042 -1.1352 -0.6129
 2592SOL     OW18704   3.432   6.379   2.351 -0.1736 -0.0234  0.1312
 2592SOL    HW118705   3.516   6.329   2.333 -0.2930 -0.2427  0.1761
 2592SOL    HW218706   3.396   6.416   2.266  0.1654  0.3857  0.1668
 2593SOL     OW18707   1.145   3.290   3.894  0.4270 -0.2373 -0.6613
 2593SOL    HW118708   1.087   3.302   3.813  0.7066  0.7817 -0.7184
 2593SOL    HW218709   1.135   3.370   3.953 -1.5570 -1.9916  1.4455
 2594SOL     OW18710   2.248   6.503   5.488 -0.2049  0.6294  0.0452
 2594SOL    HW118711   2.284   6.444   5.560  0.5468  0.2374 -0.6438
 2594SOL    HW218712   2.172   6.456   5.442  0.4832  0.1254 -0.5959
 2595SOL     OW18713   8.709   9.141   0.774 -0.4405  0.3559  0.0865
 2595SOL    HW118714   8.674   9.084   0.848  0.9710 -0.2010  0.3611
 2595SOL    HW218715   8.770   9.086   0.716  0.9166  1.5602  0.3255
 2596SOL     OW18716   4.935   2.518   1.979  0.2252  0.5029 -0.3656
 2596SOL    HW118717   4.900   2.438   1.931 -0.4452  1.2517 -1.1369
 2596SOL    HW218718   4.864   2.557   2.038  0.4705  0.6769 -0.1796
 2597SOL     OW18719   4.832   2.156   1.249 -0.3232  0.1144 -0.4999
 2597SOL    HW118720   4.879   2.220   1.188 -1.8755  0.5907 -1.2265
 2597SOL    HW218721   4.736   2.182   1.256 -1.4299 -3.2212 -2.2872
 2598SOL     OW18722   8.973   6.865   4.286  0.1631 -0.4576 -0.5097
 2598SOL    HW118723   9.055   6.808   4.293 -0.6586 -1.5389  0.3569
 2598SOL    HW218724   8.892   6.807   4.288 -0.5983  0.5379 -2.3860
 2599SOL     OW18725   1.342   8.310   5.361  0.2437  0.0361  0.1619
 2599SOL    HW118726   1.346   8.286   5.458  0.0300  1.5078  0.5454
 2599SOL    HW218727   1.387   8.398   5.346  0.0565 -0.0564 -1.0408
 2600SOL     OW18728   2.780   8.610   3.932  0.1086  0.0233  0.2244
 2600SOL    HW118729   2.859   8.659   3.967  0.2059  0.0785 -0.0725
 2600SOL    HW218730   2.702   8.623   3.993 -0.0135  0.9796 -0.1333
 2601SOL     OW18731   8.446   6.144   1.303  0.2249  0.9340 -0.5110
 2601SOL    HW118732   8.433   6.095   1.389 -1.1591  0.8040 -0.7741
 2601SOL    HW218733   8.516   6.215   1.315  0.6054  0.3990  0.4963
 2602SOL     OW18734   7.341   1.780   3.731  0.0648  0.5047 -0.0406
 2602SOL    HW118735   7.374   1.847   3.665 -0.0484  1.3113  0.7078
 2602SOL    HW218736   7.316   1.696   3.684 -2.4307  1.9224 -1.3461
 2603SOL     OW18737   2.974   7.447   2.669  0.5274  0.0610 -0.0255
 2603SOL    HW118738   2.895   7.386   2.680  0.6605 -0.0806  0.1506
 2603SOL    HW218739   3.058   7.395   2.685  0.6638  0.1740 -0.3768
 2604SOL     OW18740   9.273   4.963   0.106 -0.6669  0.4465  0.2515
 2604SOL    HW118741   9.317   4.873   0.108  0.7143  1.0752 -0.6841
 2604SOL    HW218742   9.195   4.961   0.044  0.6797  0.4536 -1.4856
 2605SOL     OW18743   2.238   4.141   2.717 -0.0109 -0.8401  0.5780
 2605SOL    HW118744   2.303   4.216   2.725 -0.1121 -0.6120 -0.6247
 2605SOL    HW218745   2.170   4.164   2.647 -1.4602 -1.0183  1.9075
 2606SOL     OW18746   1.815   1.855   1.392  0.2450  0.0232  0.0812
 2606SOL    HW118747   1.902   1.855   1.441 -0.3436  1.4631  1.1542
 2606SOL    HW218748   1.802   1.944   1.347  0.3908 -0.9806 -2.0145
 2607SOL     OW18749   2.763   2.136   4.981  0.1007 -0.0371  0.2319
 2607SOL    HW118750   2.710   2.084   5.048 -0.9980 -1.3745 -1.6133
 2607SOL    HW218751   2.725   2.227   4.971 -0.4131 -0.2104  0.6124
 2608SOL     OW18752   2.495   8.332   0.311 -0.5478 -0.3401  0.9126
 2608SOL    HW118753   2.564   8.263   0.289 -1.8644 -1.0548 -1.0263
 2608SOL    HW218754   2.532   8.423   0.292 -0.2069 -0.7282 -0.3356
 2609SOL     OW18755   4.498   0.198   4.448 -0.1035  0.3739  0.0671
 2609SOL    HW118756   4.568   0.132   4.475  0.1211  1.3777  1.9844
 2609SOL    HW218757   4.490   0.269   4.517 -0.5594  2.2119 -1.8164
 2610SOL     OW18758   2.107   9.779   2.920  0.0785  0.3598  0.0413
 2610SOL    HW118759   2.186   9.764   2.980  0.3456 -2.8105 -1.0306
 2610SOL    HW218760   2.119   9.727   2.836 -1.5016  2.7346 -1.6839
 2611SOL     OW18761   4.422   9.956   4.861 -0.5307  0.0617 -0.0629
 2611SOL    HW118762   4.438  10.054   4.847 -0.4592  0.0988  0.2685
 2611SOL    HW218763   4.467   9.927   4.946 -0.8923 -0.1670  0.0501
 2612SOL     OW18764   0.549   5.405   2.581  0.1826 -0.1906 -0.7204
 2612SOL    HW118765   0.469   5.442   2.532 -0.3683 -0.4531 -0.0288
 2612SOL    HW218766   0.624   5.471   2.578 -0.5682  0.7067 -0.0724
 2613SOL     OW18767   4.024   1.006   3.186  1.0533  0.3143 -0.3921
 2613SOL    HW118768   4.104   0.969   3.232  0.9769  0.7828  0.1196
 2613SOL    HW218769   3.942   0.961   3.221  0.9639  0.9265  0.1950
 2614SOL     OW18770   1.353   6.865   3.276  0.5137  0.3086  0.1773
 2614SOL    HW118771   1.261   6.875   3.238  0.8090  0.5386 -0.4820
 2614SOL    HW218772   1.347   6.832   3.370 -0.2672  0.9188  0.3487
 2615SOL     OW18773   2.036   4.172   1.585  0.1223 -0.2251  0.4704
 2615SOL    HW118774   2.042   4.225   1.670 -1.0112 -1.1801  1.1641
 2615SOL    HW218775   1.967   4.100   1.595  0.1081 -0.4750 -1.1973
 2616SOL     OW18776   2.387   5.523   0.614 -0.3158  0.2671  0.1794
 2616SOL    HW118777   2.341   5.511   0.702 -1.9995 -1.9295 -0.9514
 2616SOL    HW218778   2.463   5.459   0.607  0.3222  0.9960  0.3400
 2617SOL     OW18779   7.490   9.980   3.936  0.4986  0.0583  0.2347
 2617SOL    HW118780   7.589   9.967   3.948  0.2706 -0.5689  1.5088
 2617SOL    HW218781   7.442   9.939   4.013 -0.7936 -0.1038 -0.6533
 2618SOL     OW18782   2.757   7.913   1.299  0.0540  0.1184  0.2519
 2618SOL    HW118783   2.798   7.915   1.390  1.2285 -2.8763 -0.1702
 2618SOL    HW218784   2.785   7.995   1.249  1.2491  0.6757  1.7739
 2619SOL     OW18785   9.087   4.593   2.798  0.0262  0.0978  0.2698
 2619SOL    HW118786   9.024   4.671   2.802 -0.0301  0.1474 -1.1175
 2619SOL    HW218787   9.050   4.518   2.852  0.1441  1.0740  1.7276
 2620SOL     OW18788   9.433   1.496   5.335  0.8197 -0.6628  0.1809
 2620SOL    HW118789   9.490   1.577   5.322  0.6321 -0.3470  1.2962
 2620SOL    HW218790   9.339   1.524   5.355  0.6883 -1.1567  0.2577
 2621SOL     OW18791   1.627   0.752   4.078 -0.3271 -0.4729  0.4910
 2621SOL    HW118792   1.654   0.846   4.059  0.2428 -0.8648 -0.7024
 2621SOL    HW218793   1.549   0.751   4.140 -0.8254  0.8021 -0.1053
 2622SOL     OW18794   9.806   0.213   3.491 -0.3066  0.3846  0.3474
 2622SOL    HW118795   9.870   0.158   3.544 -1.5532  0.1715  1.6601
 2622SOL    HW218796   9.857   0.283   3.440  1.3293 -2.1024 -1.5757
 2623SOL     OW18797   7.779   3.875   4.856 -0.0662  0.4595  0.2024
 2623SOL    HW118798   7.729   3.845   4.775 -1.3959  0.0803  1.1432
 2623SOL    HW218799   7.817   3.966   4.841 -0.0861  0.2815 -0.9381
 2624SOL     OW18800   9.332   4.594   4.563  0.0317 -0.2719  0.4930
 2624SOL    HW118801   9.273   4.651   4.507  2.5265  2.3121  0.3987
 2624SOL    HW218802   9.276   4.541   4.627 -2.4915  0.5349 -0.9820
 2625SOL     OW18803   1.246   3.553   1.704 -0.2028 -0.4365  0.0567
 2625SOL    HW118804   1.262   3.614   1.782 -3.5189 -1.6306  1.7602
 2625SOL    HW218805   1.181   3.595   1.641 -0.6399 -1.1701  0.0137
 2626SOL     OW18806   1.657   8.652   5.251  0.0538 -0.2312  0.1657
 2626SOL    HW118807   1.678   8.628   5.346  1.6686 -1.4044 -0.4608
 2626SOL    HW218808   1.727   8.715   5.217 -0.4693  0.1077 -0.2934
 2627SOL     OW18809   2.012   7.867   2.429  0.1992 -0.2163 -0.2497
 2627SOL    HW118810   2.031   7.788   2.370  2.1289  0.8556 -1.0958
 2627SOL    HW218811   2.053   7.852   2.518  0.8607 -0.0159 -0.5217
 2628SOL     OW18812   1.890   1.319   2.918  0.1087  0.2110 -0.4924
 2628SOL    HW118813   1.956   1.307   2.844 -0.5616 -0.0286 -1.0452
 2628SOL    HW218814   1.886   1.236   2.973 -0.4863 -0.1474 -1.0700
 2629SOL     OW18815   1.114   4.185   4.263  0.1232  0.0312  0.2871
 2629SOL    HW118816   1.030   4.186   4.317  0.7618 -1.1991  1.3432
 2629SOL    HW218817   1.152   4.092   4.263  0.0400 -0.0192 -2.4391
 2630SOL     OW18818   2.224   1.789   5.408 -0.0438  0.2305 -0.0159
 2630SOL    HW118819   2.239   1.879   5.367  0.8046 -1.1236 -2.8018
 2630SOL    HW218820   2.145   1.745   5.365  1.7007 -1.7888 -1.2708
 2631SOL     OW18821   2.775   9.237   2.992  0.3073  0.1362 -0.3663
 2631SOL    HW118822   2.681   9.247   2.959  0.6924  0.2154 -1.4825
 2631SOL    HW218823   2.789   9.297   3.070 -1.2325 -1.5686  1.2889
 2632SOL     OW18824   4.802   3.911   1.570 -0.0329  0.2234 -0.0989
 2632SOL    HW118825   4.869   3.957   1.513 -2.3496  0.0704 -3.0447
 2632SOL    HW218826   4.787   3.964   1.654  1.9811  1.4609 -0.4953
 2633SOL     OW18827   2.407   3.785   1.428 -0.0610 -0.5173  0.6232
 2633SOL    HW118828   2.334   3.798   1.495 -1.1188  0.2031 -0.6394
 2633SOL    HW218829   2.402   3.693   1.389 -0.1686 -0.5335  0.6779
 2634SOL     OW18830   2.588   2.208   3.481 -0.4532 -0.2277  0.5975
 2634SOL    HW118831   2.582   2.238   3.576 -0.7552 -2.2677  1.2316
 2634SOL    HW218832   2.632   2.118   3.476  0.6574  0.3746 -1.3029
 2635SOL     OW18833   0.500   8.346   0.671  0.0818  0.5152 -0.4005
 2635SOL    HW118834   0.438   8.301   0.608 -0.2083 -1.1590  1.0174
 2635SOL    HW218835   0.454   8.423   0.715 -0.5136  0.1900 -0.4466
 2636SOL     OW18836   8.359   8.526   1.279 -0.5984  0.7380 -0.0051
 2636SOL    HW118837   8.345   8.582   1.361 -1.0718  3.3358 -1.8099
 2636SOL    HW218838   8.279   8.533   1.219  0.9128  1.1907 -2.0262
 2637SOL     OW18839   8.865   4.275   3.912 -0.2069  0.0208  0.0267
 2637SOL    HW118840   8.803   4.258   3.836  1.1347  0.3879 -1.1665
 2637SOL    HW218841   8.916   4.191   3.933 -0.5858 -0.0844  0.5316
 2638SOL     OW18842   4.763   9.756   4.770  0.5220  0.0007 -0.1458
 2638SOL    HW118843   4.836   9.709   4.719 -0.9036 -1.0818 -1.2351
 2638SOL    HW218844   4.680   9.758   4.715 -0.4316  0.7889  1.2865
 2639SOL     OW18845   1.654   5.126   1.629  0.2316 -0.4513 -0.4861
 2639SOL    HW118846   1.692   5.033   1.634 -1.2287 -1.0323 -0.0669
 2639SOL    HW218847   1.555   5.123   1.643  0.2340  1.2311  0.0393
 2640SOL     OW18848   2.430   9.913   0.625 -0.2394 -0.0565  0.0032
 2640SOL    HW118849   2.493   9.953   0.692 -3.2293  1.8678  1.7556
 2640SOL    HW218850   2.440   9.813   0.626  2.9218  0.2127  0.0385
 2641SOL     OW18851   6.792   9.690   3.883  0.0047  0.1771  0.0891
 2641SOL    HW118852   6.890   9.709   3.897  0.1136 -1.0281  0.9889
 2641SOL    HW218853   6.781   9.606   3.831 -0.5698  0.0734  0.3764
 2642SOL     OW18854   6.849   9.045   2.388 -0.3949  0.2311  0.4210
 2642SOL    HW118855   6.777   9.055   2.319  0.5225  1.0060 -0.4410
 2642SOL    HW218856   6.809   9.012   2.473 -2.0309  2.0710  0.4195
 2643SOL     OW18857   3.295   8.943   1.243  0.3612  0.2100  0.3778
 2643SOL    HW118858   3.247   8.892   1.172  0.7608  0.0074  0.2536
 2643SOL    HW218859   3.257   9.035   1.250  0.7393  0.4352 -0.5253
 2644SOL     OW18860   9.092   0.582   1.125  0.3808  0.1513 -0.3899
 2644SOL    HW118861   9.104   0.643   1.047  1.7372  0.7337  0.2755
 2644SOL    HW218862   9.072   0.635   1.207 -1.5384 -0.4890 -0.4210
 2645SOL     OW18863   4.148   5.472   1.438  0.3910  0.3094  0.1691
 2645SOL    HW118864   4.117   5.393   1.491  1.2606  0.3724  0.7813
 2645SOL    HW218865   4.193   5.538   1.499  2.1165  0.0142 -0.7674
 2646SOL     OW18866   8.322   6.171   1.826 -0.0079 -0.3831 -0.0410
 2646SOL    HW118867   8.279   6.107   1.890  1.2107 -0.0985  1.0906
 2646SOL    HW218868   8.267   6.178   1.743 -1.3050 -1.2065  0.7423
 2647SOL     OW18869   8.790   5.443   3.674 -0.0892 -0.0871  0.2335
 2647SOL    HW118870   8.716   5.437   3.608  1.4014  1.4433 -1.6002
 2647SOL    HW218871   8.811   5.351   3.708  0.1549 -1.1178 -2.5847
 2648SOL     OW18872   8.566   2.741   1.274 -0.5317  0.6572  0.4790
 2648SOL    HW118873   8.583   2.756   1.371 -0.0267 -0.8891  0.6461
 2648SOL    HW218874   8.515   2.818   1.237  1.3978  2.4611  1.4105
 2649SOL     OW18875   0.432   0.371   5.306  0.0164  0.3221  0.1400
 2649SOL    HW118876   0.456   0.385   5.402  2.8208 -0.7747 -0.3584
 2649SOL    HW218877   0.468   0.446   5.251 -2.1757  1.3049 -0.0076
 2650SOL     OW18878   2.670   2.387   2.288 -0.2373 -0.0548 -0.2966
 2650SOL    HW118879   2.724   2.310   2.254 -1.2697 -1.5906  1.4192
 2650SOL    HW218880   2.673   2.388   2.388 -0.6683  1.8363 -0.2828
 2651SOL     OW18881   7.971   9.054   2.598 -0.0742 -0.0526 -0.0189
 2651SOL    HW118882   7.999   9.149   2.583 -0.3655  0.3622  1.8685
 2651SOL    HW218883   7.872   9.046   2.586 -0.3650  0.3606  1.8589
 2652SOL     OW18884   4.026   6.393   2.882 -0.2954 -0.0450  0.4234
 2652SOL    HW118885   4.050   6.298   2.863 -0.8741 -0.1588  0.2599
 2652SOL    HW218886   3.927   6.404   2.875 -0.3782  0.2289  2.0051
 2653SOL     OW18887   3.379   6.756   0.421 -0.2964 -0.0934 -0.2931
 2653SOL    HW118888   3.294   6.708   0.402 -0.3241  0.4603 -1.5962
 2653SOL    HW218889   3.375   6.848   0.382  0.6697  0.1502  0.1574
 2654SOL     OW18890   7.090   9.820   0.522 -0.6320 -0.0535  0.4070
 2654SOL    HW118891   7.189   9.804   0.520 -0.9812 -2.3369 -1.5582
 2654SOL    HW218892   7.046   9.742   0.566 -1.7783 -0.4411 -1.4140
 2655SOL     OW18893   2.094   6.568   2.230 -0.1332  0.1826 -0.2012
 2655SOL    HW118894   2.085   6.667   2.240  1.6657  0.2441  1.1330
 2655SOL    HW218895   2.061   6.523   2.313  0.7329 -0.2250 -0.0743
 2656SOL     OW18896   4.682   9.060   1.964  0.3209  0.4735  0.1854
 2656SOL    HW118897   4.660   9.141   1.911 -0.0075  0.0218 -0.3774
 2656SOL    HW218898   4.681   8.979   1.905  1.5658  0.1779  0.5403
 2657SOL     OW18899   2.571   2.499   4.330 -0.3690  0.5382  0.2555
 2657SOL    HW118900   2.596   2.565   4.401 -3.3576  2.7669 -0.6630
 2657SOL    HW218901   2.487   2.452   4.355 -0.8443  0.5421 -1.2480
 2658SOL     OW18902   4.052   9.846   1.855  0.2213  0.1166  0.5338
 2658SOL    HW118903   4.074   9.936   1.893  1.9149 -0.4957  1.0188
 2658SOL    HW218904   4.034   9.855   1.757  0.5219  0.9615  0.5475
 2659SOL     OW18905   1.761   9.817   1.408  0.1646  0.2874  0.6218
 2659SOL    HW118906   1.765   9.873   1.325  2.5737 -0.6567  0.0696
 2659SOL    HW218907   1.685   9.849   1.465 -0.8936  1.6101 -1.4496
 2660SOL     OW18908   6.654   0.864   2.870 -0.2137  1.1411  0.0797
 2660SOL    HW118909   6.561   0.829   2.877  0.4516 -0.7822 -0.3906
 2660SOL    HW218910   6.651   0.962   2.849 -2.1277  0.9793 -0.5303
 2661SOL     OW18911   0.240   2.020   2.420 -0.1166  0.1996  0.2619
 2661SOL    HW118912   0.314   2.023   2.488 -1.2158 -0.3240  1.5008
 2661SOL    HW218913   0.152   2.019   2.467 -0.8576 -2.3853 -1.1115
 2662SOL     OW18914   8.047   6.213   4.463 -0.7496  0.5477  0.3927
 2662SOL    HW118915   8.107   6.289   4.489 -0.6566  0.5065  0.3037
 2662SOL    HW218916   8.047   6.204   4.363  0.4322 -0.5261  0.4836
 2663SOL     OW18917   9.495   0.054   2.188 -0.3250 -0.0706 -0.5194
 2663SOL    HW118918   9.594   0.058   2.177 -0.3776 -1.2242 -1.5020
 2663SOL    HW218919   9.473   0.040   2.284  0.4756 -0.1440 -0.3421
 2664SOL     OW18920   9.411   5.063   3.154  0.3954 -0.2860  0.0608
 2664SOL    HW118921   9.450   5.155   3.162  0.1288 -0.1590 -0.1074
 2664SOL    HW218922   9.430   5.012   3.238 -1.6027  0.7534  1.1722
 2665SOL     OW18923   1.676   8.365   0.679 -0.2263 -0.3607 -0.6133
 2665SOL    HW118924   1.748   8.419   0.722 -1.2512  0.4426  0.1117
 2665SOL    HW218925   1.644   8.295   0.743 -1.3478  0.4589 -0.2654
 2666SOL     OW18926   9.858   1.199   1.528 -0.4615  0.0824 -0.2633
 2666SOL    HW118927   9.898   1.216   1.438 -0.4487 -1.2390 -0.5127
 2666SOL    HW218928   9.775   1.145   1.518  0.5191 -1.6442  0.6303
 2667SOL     OW18929   1.522   2.516   1.419 -0.1742 -0.2457 -0.2414
 2667SOL    HW118930   1.601   2.545   1.366  0.7805 -0.9395  0.7962
 2667SOL    HW218931   1.536   2.423   1.453 -0.4126  0.4695  1.8889
 2668SOL     OW18932   8.925   1.974   0.978 -0.1742  0.0948 -0.0922
 2668SOL    HW118933   8.833   1.948   0.946  0.1392 -0.5975 -0.4511
 2668SOL    HW218934   8.993   1.920   0.929  0.3890  0.0348  0.7523
 2669SOL     OW18935   7.706   9.560   1.349  0.6645  0.4070 -0.2697
 2669SOL    HW118936   7.774   9.633   1.342  1.3514 -0.2787 -0.8778
 2669SOL    HW218937   7.746   9.474   1.317 -0.3022 -0.1286 -0.0623
 2670SOL     OW18938   7.532   1.296   2.226  0.1557  0.0861  0.2677
 2670SOL    HW118939   7.602   1.364   2.249  0.8912 -0.5511 -0.0519
 2670SOL    HW218940   7.474   1.280   2.305  0.5463  0.4275  0.6267
 2671SOL     OW18941   1.785   6.755   4.783  0.4532 -0.5869 -0.0278
 2671SOL    HW118942   1.842   6.775   4.703  1.5573 -0.6454  0.7275
 2671SOL    HW218943   1.841   6.712   4.854 -0.5962 -0.8799  0.6354
 2672SOL     OW18944   5.711   9.125   4.181  0.2852  0.4540 -0.2257
 2672SOL    HW118945   5.674   9.068   4.254 -1.3349 -0.7607 -1.9747
 2672SOL    HW218946   5.686   9.221   4.198 -1.2841  0.0001  0.0785
 2673SOL     OW18947   9.905   7.090   2.912 -0.2843 -0.6281  0.3670
 2673SOL    HW118948   9.879   7.024   2.842  0.0752  0.0517 -0.4215
 2673SOL    HW218949   9.947   7.042   2.989 -0.4926 -1.3661  0.0255
 2674SOL     OW18950   4.523   2.538   1.158 -0.3406  0.6605  0.4309
 2674SOL    HW118951   4.450   2.589   1.205 -1.4812  0.3640 -0.9819
 2674SOL    HW218952   4.493   2.516   1.065  1.5758  0.5458 -0.1685
 2675SOL     OW18953   9.349   2.051   1.689 -0.4386  0.0849  0.2919
 2675SOL    HW118954   9.441   2.055   1.728 -0.6269  0.1136  0.7282
 2675SOL    HW218955   9.287   2.007   1.753 -0.4532 -1.1424 -0.5373
 2676SOL     OW18956   9.425   5.747   2.469 -0.3665 -0.5937 -0.6337
 2676SOL    HW118957   9.436   5.652   2.438  1.7053  0.3920 -3.1193
 2676SOL    HW218958   9.515   5.789   2.479 -1.3006  1.5478 -0.9409
 2677SOL     OW18959   0.078   5.840   0.309 -0.2815  0.2069 -0.5326
 2677SOL    HW118960   0.096   5.819   0.404  0.2630 -1.7684 -1.0580
 2677SOL    HW218961   0.045   5.934   0.301  1.7473  1.1247  1.3652
 2678SOL     OW18962   2.312   7.966   4.597  0.5047  0.3024 -0.4231
 2678SOL    HW118963   2.326   7.868   4.583  1.8739  0.4440 -0.0934
 2678SOL    HW218964   2.253   8.002   4.524  0.1915 -0.7103 -0.6786
 2679SOL     OW18965   1.685   3.023   3.983  0.1804 -0.1502  1.0044
 2679SOL    HW118966   1.722   3.059   4.069 -1.5762  1.3637  1.1635
 2679SOL    HW218967   1.663   3.099   3.922  2.1808 -1.2499 -1.1359
 2680SOL     OW18968   1.594   0.866   2.321 -0.0454 -0.9686 -0.0205
 2680SOL    HW118969   1.622   0.812   2.242 -0.2816  1.0183 -1.5060
 2680SOL    HW218970   1.634   0.957   2.315 -0.8153 -0.4968  1.6898
 2681SOL     OW18971   0.427   2.129   1.443 -0.6791 -0.1479  0.2895
 2681SOL    HW118972   0.365   2.108   1.519 -2.8892 -0.3457 -1.5315
 2681SOL    HW218973   0.419   2.060   1.372  0.2647  0.8328 -0.8033
 2682SOL     OW18974   6.407   8.144   1.529 -0.0239  0.3151 -0.0915
 2682SOL    HW118975   6.481   8.099   1.480 -0.2612 -0.3036  0.1206
 2682SOL    HW218976   6.425   8.243   1.533 -0.4141  0.5031 -2.1661
 2683SOL     OW18977   7.485   0.389   1.339  0.3828  0.1431  0.1086
 2683SOL    HW118978   7.457   0.320   1.406 -0.1301  0.0251 -0.2266
 2683SOL    HW218979   7.404   0.437   1.304  0.6034 -0.1421 -0.8076
 2684SOL     OW18980   9.254   2.569   3.626  0.8934  0.2777  0.2774
 2684SOL    HW118981   9.290   2.496   3.569  0.7474  1.4143 -1.3141
 2684SOL    HW218982   9.267   2.546   3.723  0.0735 -2.2002 -0.1847
 2685SOL     OW18983   5.351   9.781   4.650 -0.2503 -0.0357 -0.3262
 2685SOL    HW118984   5.320   9.858   4.594  1.3001  2.0276  1.5542
 2685SOL    HW218985   5.310   9.788   4.741  1.3200 -0.4343  0.4137
 2686SOL     OW18986   8.496   9.480   3.621 -0.3533  0.0543 -0.2486
 2686SOL    HW118987   8.523   9.536   3.543 -1.1775 -0.4427 -0.9049
 2686SOL    HW218988   8.542   9.391   3.616  2.2499  1.2244  1.6835
 2687SOL     OW18989   8.263   3.745   2.155  0.3567 -0.1753  0.0151
 2687SOL    HW118990   8.266   3.824   2.216 -0.8283 -0.7552  0.8181
 2687SOL    HW218991   8.307   3.667   2.199  1.1806 -0.0796 -0.6255
 2688SOL     OW18992   1.062   1.339   4.391 -0.0378 -0.2412 -0.2678
 2688SOL    HW118993   1.147   1.302   4.353 -0.0773 -1.3493  0.7026
 2688SOL    HW218994   1.003   1.369   4.317  0.8334 -0.2855 -0.9871
 2689SOL     OW18995   1.117   3.715   2.916 -0.2175 -0.0650 -0.4636
 2689SOL    HW118996   1.078   3.685   2.829  0.5956 -1.0546 -0.4931
 2689SOL    HW218997   1.063   3.679   2.992 -0.4811  0.1689 -0.5393
 2690SOL     OW18998   7.676   9.532   3.047  0.0916 -0.5542  0.0667
 2690SOL    HW118999   7.776   9.531   3.054  0.1459 -1.3168 -0.7467
 2690SOL    HW219000   7.637   9.566   3.133  1.0670  0.3453  0.1573
 2691SOL     OW19001   1.377   4.756   0.104 -0.4174 -0.7261 -0.4491
 2691SOL    HW119002   1.342   4.735   0.012  1.1588  0.0283 -1.2308
 2691SOL    HW219003   1.471   4.789   0.098 -0.2664 -0.7268  1.4567
 2692SOL     OW19004   4.213   8.939   3.207  0.2298 -0.3269  0.7279
 2692SOL    HW119005   4.225   8.985   3.295 -2.9411  0.9202  0.5834
 2692SOL    HW219006   4.120   8.903   3.201  0.8686 -1.6980 -1.5400
 2693SOL     OW19007   9.647   3.039   3.230  0.0854 -0.2361 -0.6579
 2693SOL    HW119008   9.716   3.095   3.276 -0.5075  0.0317 -0.0923
 2693SOL    HW219009   9.614   2.968   3.292  0.2048 -0.6699 -1.0892
 2694SOL     OW19010   1.722   4.881   2.642  0.9039  0.0738 -0.0642
 2694SOL    HW119011   1.707   4.782   2.648  1.4897  0.0806  1.6075
 2694SOL    HW219012   1.776   4.901   2.560  1.5809 -1.0835  0.0895
 2695SOL     OW19013   9.968   6.160   1.809  0.1253  0.6858 -0.5579
 2695SOL    HW119014  10.056   6.205   1.826 -0.1612  1.2757 -0.6089
 2695SOL    HW219015   9.946   6.166   1.711 -0.2841  1.1236 -0.4410
 2696SOL     OW19016   3.546   5.650   2.538  0.5938  0.5114 -0.0411
 2696SOL    HW119017   3.581   5.580   2.601  1.1324  1.3261  0.5733
 2696SOL    HW219018   3.454   5.624   2.508  0.5912 -0.2148  0.5661
 2697SOL     OW19019   9.146   2.018   2.120 -0.4305 -0.4295 -0.5406
 2697SOL    HW119020   9.088   2.061   2.189  0.9817 -0.5931  0.7831
 2697SOL    HW219021   9.168   1.925   2.148  1.0843 -0.1179 -0.6243
 2698SOL     OW19022   0.063   2.835   3.941  0.2154 -0.2873 -0.2536
 2698SOL    HW119023   0.025   2.812   4.030 -0.0337 -2.4517 -0.8976
 2698SOL    HW219024   0.018   2.917   3.906 -1.1016 -0.5806  0.7201
 2699SOL     OW19025   2.914   1.148   3.585 -0.4135  0.3393  0.4901
 2699SOL    HW119026   2.997   1.172   3.635  0.0967 -0.7814  0.1937
 2699SOL    HW219027   2.888   1.054   3.606 -1.0375  0.3526 -0.1942
 2700SOL     OW19028   3.916   1.038   4.943 -0.4542 -0.4966  0.1106
 2700SOL    HW119029   4.006   1.005   4.972 -0.6965 -0.5300  0.8427
 2700SOL    HW219030   3.852   0.961   4.938 -0.6136 -0.3746  0.2624
 2701SOL     OW19031   3.634   9.118   1.465  0.0862  0.4393  0.2733
 2701SOL    HW119032   3.706   9.138   1.532  1.9469 -0.4696 -1.4075
 2701SOL    HW219033   3.587   9.203   1.441 -0.9054  0.7215  3.0189
 2702SOL     OW19034   2.549   7.690   0.473  0.0147 -0.0965  0.5302
 2702SOL    HW119035   2.548   7.626   0.397 -1.7259 -0.9690  1.2532
 2702SOL    HW219036   2.595   7.648   0.551 -0.9819 -0.4172  0.9524
 2703SOL     OW19037   1.312   0.906   2.044 -0.3577  0.0512 -0.4649
 2703SOL    HW119038   1.255   0.918   2.126  0.3097  1.1313 -0.1499
 2703SOL    HW219039   1.332   0.995   2.004 -2.1588 -0.5762 -2.8430
 2704SOL     OW19040   1.020   6.497   0.787  0.8238 -0.6495  0.5769
 2704SOL    HW119041   1.024   6.398   0.774  0.2349 -0.3599 -1.8902
 2704SOL    HW219042   1.113   6.532   0.802  1.1840 -1.3689  0.0371
 2705SOL     OW19043   2.139   2.220   1.389 -0.0497 -0.0333 -0.3802
 2705SOL    HW119044   2.151   2.143   1.451  0.7593  1.3387  1.2089
 2705SOL    HW219045   2.214   2.286   1.402 -0.3742  0.7131 -2.1588
 2706SOL     OW19046   3.860   0.119   4.495  0.7440  0.0142  0.1914
 2706SOL    HW119047   3.924   0.113   4.418  1.0329  1.7982  0.2759
 2706SOL    HW219048   3.768   0.097   4.464  0.7265  1.4982 -0.8656
 2707SOL     OW19049   7.717   1.314   4.017 -0.1247  0.3587 -0.4357
 2707SOL    HW119050   7.814   1.314   3.997  0.1735  1.1774  0.8912
 2707SOL    HW219051   7.701   1.359   4.105 -1.6036 -0.6764 -0.1434
 2708SOL     OW19052   8.972   0.544   3.093 -0.1464  0.1820 -0.2334
 2708SOL    HW119053   8.883   0.584   3.072  0.3385  0.3116 -2.1166
 2708SOL    HW219054   8.967   0.444   3.084  0.5954  0.3756 -3.1529
 2709SOL     OW19055   8.066   2.132   4.881 -0.5121 -0.9070  0.3204
 2709SOL    HW119056   8.164   2.153   4.877 -0.6679 -0.3587 -0.6423
 2709SOL    HW219057   8.043   2.099   4.973  0.4344 -0.3291  0.7695
 2710SOL     OW19058   5.132   1.700   3.641  0.5780 -0.3483  0.3965
 2710SOL    HW119059   5.145   1.799   3.636 -0.9614 -0.2176 -1.4768
 2710SOL    HW219060   5.052   1.680   3.696 -0.2092 -0.4543 -0.7733
 2711SOL     OW19061   7.110   8.113   1.649 -0.4250 -0.3986 -0.0194
 2711SOL    HW119062   7.201   8.132   1.610  0.3801  0.3716  2.1206
 2711SOL    HW219063   7.047   8.087   1.577  2.0302 -3.0063 -1.3161
 2712SOL     OW19064   7.454   1.677   2.024  0.3429 -0.3033  0.2115
 2712SOL    HW119065   7.418   1.591   1.987 -0.7814 -0.1904  1.0236
 2712SOL    HW219066   7.543   1.696   1.983  1.7560 -3.1221  1.8553
 2713SOL     OW19067   0.088   4.944   4.418  0.0915  0.3650 -0.4930
 2713SOL    HW119068   0.168   4.990   4.380  1.3435 -0.4427  1.1298
 2713SOL    HW219069   0.109   4.847   4.434 -1.0467  0.2548  0.4115
 2714SOL     OW19070   3.401   8.795   5.028 -0.2841  0.3266 -0.3603
 2714SOL    HW119071   3.388   8.806   5.126  0.5062  1.5249 -0.3868
 2714SOL    HW219072   3.451   8.874   4.991 -1.6903  0.5257 -1.9280
 2715SOL     OW19073   0.127   4.674   4.497 -0.4920  0.1163  0.1771
 2715SOL    HW119074   0.146   4.595   4.439 -0.7760  1.1485 -1.3349
 2715SOL    HW219075   0.213   4.719   4.521 -0.5545  1.2697 -1.6998
 2716SOL     OW19076   8.255   6.287   2.388 -0.4642 -0.2185 -0.0586
 2716SOL    HW119077   8.179   6.349   2.372  0.0792  0.0811 -1.5366
 2716SOL    HW219078   8.291   6.301   2.480 -0.3058  1.7010 -0.4083
 2717SOL     OW19079   6.705   9.592   2.426 -0.2879  0.2783  0.1418
 2717SOL    HW119080   6.707   9.681   2.380  2.2400 -0.3284 -1.0215
 2717SOL    HW219081   6.742   9.522   2.364  0.7415 -1.0118  2.1837
 2718SOL     OW19082   3.230   8.308   2.125 -0.2696 -0.5999  0.4234
 2718SOL    HW119083   3.295   8.368   2.170  0.6515 -1.0710 -0.2491
 2718SOL    HW219084   3.137   8.345   2.134  0.2385  0.7089  0.3430
 2719SOL     OW19085   9.274   7.317   1.484  0.4225  0.2782 -0.0000
 2719SOL    HW119086   9.353   7.338   1.426 -0.4296  1.2460 -0.8178
 2719SOL    HW219087   9.268   7.384   1.558  0.4387  0.1276  0.1389
 2720SOL     OW19088   8.667   5.086   1.643 -0.2371 -0.1303  0.0195
 2720SOL    HW119089   8.721   5.093   1.727 -1.3079  1.7672  0.5776
 2720SOL    HW219090   8.720   5.037   1.573  1.5449  0.2589  1.0670
 2721SOL     OW19091   3.328   1.842   3.923 -0.2420 -0.3049  0.3148
 2721SOL    HW119092   3.372   1.781   3.857  0.5276 -0.4742  0.9730
 2721SOL    HW219093   3.289   1.788   3.997 -1.8706 -0.1783 -0.4397
 2722SOL     OW19094   2.893   1.570   2.023 -0.0356  0.1193 -0.4293
 2722SOL    HW119095   2.923   1.492   2.077  1.1002  0.8892  0.0492
 2722SOL    HW219096   2.943   1.573   1.937  0.6477  0.8948 -0.0117
 2723SOL     OW19097   0.796   2.884   5.418 -0.4404  0.3285  0.6180
 2723SOL    HW119098   0.890   2.893   5.386 -0.8100  1.4457 -0.1564
 2723SOL    HW219099   0.740   2.842   5.346 -1.0935  2.0682  0.1039
 2724SOL     OW19100   3.688   4.704   1.245 -0.3455  0.2444  0.2474
 2724SOL    HW119101   3.711   4.608   1.228 -0.3793 -0.0110  1.6549
 2724SOL    HW219102   3.666   4.748   1.157  0.3122 -0.8512 -0.4835
 2725SOL     OW19103   4.266   3.083   0.237 -0.1346  0.3542 -0.4879
 2725SOL    HW119104   4.247   3.107   0.142 -0.2071 -1.0060 -0.8355
 2725SOL    HW219105   4.196   3.123   0.296 -0.7509  0.2396 -1.1328
 2726SOL     OW19106   9.443   5.068   4.489 -0.3269 -0.1417  0.1633
 2726SOL    HW119107   9.521   5.062   4.427  0.1835 -1.5463  0.9145
 2726SOL    HW219108   9.473   5.111   4.575 -0.8123  0.9624 -0.2145
 2727SOL     OW19109   3.099   6.576   3.538 -0.2408  0.3097 -0.6160
 2727SOL    HW119110   3.085   6.671   3.512 -3.3661  0.5155  1.6053
 2727SOL    HW219111   3.163   6.572   3.615  0.6575  0.4981 -1.3367
 2728SOL     OW19112   3.435   3.302   3.656  0.2891 -0.0962  0.0591
 2728SOL    HW119113   3.364   3.232   3.662  2.0524 -1.8951  0.5203
 2728SOL    HW219114   3.473   3.319   3.748  1.4712 -0.2234 -0.3998
 2729SOL     OW19115   7.366   8.134   1.520 -0.1739  0.5355  0.1398
 2729SOL    HW119116   7.461   8.107   1.503 -0.3707  0.6079 -1.0629
 2729SOL    HW219117   7.363   8.231   1.542  0.0011  0.5844 -0.0511
 2730SOL     OW19118   0.923   9.418   3.778  0.3233  0.8022 -0.5971
 2730SOL    HW119119   0.939   9.322   3.801 -0.8964  0.5023 -0.9432
 2730SOL    HW219120   0.842   9.425   3.720 -0.4685  2.1829  0.6525
 2731SOL     OW19121   9.057   5.742   2.848 -0.1634 -0.4924  0.3141
 2731SOL    HW119122   8.957   5.734   2.854 -0.0500 -1.7492  0.6599
 2731SOL    HW219123   9.093   5.666   2.794  0.5061  0.6537 -0.8771
 2732SOL     OW19124   8.181   1.012   0.983  0.2138  0.2331 -1.0283
 2732SOL    HW119125   8.084   1.008   0.957 -0.4203  0.0039  1.2374
 2732SOL    HW219126   8.217   1.104   0.967 -1.3942  1.3431  1.4664
 2733SOL     OW19127   1.540   9.924   3.261 -0.2246 -0.8366 -0.2154
 2733SOL    HW119128   1.513   9.888   3.172  0.1164  0.6487 -0.9378
 2733SOL    HW219129   1.488  10.007   3.281 -0.5281 -1.3338  1.1169
 2734SOL     OW19130   9.879   1.129   5.494  0.1253  0.0269  0.6375
 2734SOL    HW119131   9.802   1.119   5.558  0.4995 -0.3731  1.0216
 2734SOL    HW219132   9.900   1.226   5.484 -0.0891  0.1086  0.9388
 2735SOL     OW19133   9.202   4.293   4.849  0.3311  0.1600 -0.2400
 2735SOL    HW119134   9.150   4.271   4.932 -0.7226 -0.7481 -1.1295
 2735SOL    HW219135   9.231   4.208   4.805  0.5888  0.6360 -0.9848
 2736SOL     OW19136   5.096   0.953   4.733  0.6777 -0.0891  0.3741
 2736SOL    HW119137   5.054   0.971   4.822 -2.3196 -2.3644 -0.5318
 2736SOL    HW219138   5.054   1.010   4.664 -0.6689 -2.0423 -0.4574
 2737SOL     OW19139   8.030   2.391   4.701 -0.1672  0.1889 -0.0842
 2737SOL    HW119140   8.065   2.475   4.743 -2.0865  0.3234  1.3116
 2737SOL    HW219141   8.016   2.322   4.771 -2.1429 -0.0368 -0.6586
 2738SOL     OW19142   2.836   0.987   1.149  0.4234 -0.2125  0.1527
 2738SOL    HW119143   2.921   0.997   1.200  1.4538 -2.5577 -1.0148
 2738SOL    HW219144   2.764   0.953   1.210  1.3555 -1.9715  0.2837
 2739SOL     OW19145   0.989   3.921   0.566  0.0380 -0.0046  0.6296
 2739SOL    HW119146   1.001   3.977   0.483  1.8512 -0.0771  0.8151
 2739SOL    HW219147   0.927   3.845   0.547  1.0717 -0.4859 -0.9138
 2740SOL     OW19148   7.759   1.671   2.176 -0.2641  0.0822 -0.3016
 2740SOL    HW119149   7.842   1.701   2.223  1.5446 -3.4536 -1.0411
 2740SOL    HW219150   7.722   1.589   2.221 -2.1759  0.4106 -1.1967
 2741SOL     OW19151   9.225   9.578   0.848  0.4089 -0.1251  0.8011
 2741SOL    HW119152   9.220   9.585   0.748 -1.3559  3.1238  1.0365
 2741SOL    HW219153   9.156   9.638   0.889 -0.2388 -2.9103  3.9836
 2742SOL     OW19154   1.848   5.844   0.622  0.0309  0.3530  0.6062
 2742SOL    HW119155   1.755   5.876   0.639  0.3380  0.1719  2.7384
 2742SOL    HW219156   1.845   5.755   0.577 -0.8132  0.9560 -0.5565
 2743SOL     OW19157   1.413   3.299   0.426 -0.2182 -0.0422 -0.3451
 2743SOL    HW119158   1.319   3.266   0.426 -0.0506 -0.5293 -0.4478
 2743SOL    HW219159   1.441   3.322   0.333  0.4829 -2.0098 -0.6516
 2744SOL     OW19160   1.122   3.559   0.990 -0.4410  0.2759 -0.4832
 2744SOL    HW119161   1.189   3.527   0.923 -0.5673  0.6792 -0.8104
 2744SOL    HW219162   1.040   3.501   0.986  0.0994 -0.5512  0.3013
 2745SOL     OW19163   0.578   7.423   5.001 -0.6000 -0.0886  0.0682
 2745SOL    HW119164   0.482   7.414   4.972  0.0159 -1.2542 -1.6807
 2745SOL    HW219165   0.593   7.516   5.036 -2.4640 -0.0211  0.7552
 2746SOL     OW19166   7.341   9.162   2.524  0.2224 -0.4152  0.3565
 2746SOL    HW119167   7.283   9.234   2.563  0.7799  0.1774  0.0975
 2746SOL    HW219168   7.389   9.197   2.443 -0.0887 -1.3064 -0.2267
 2747SOL     OW19169   0.097   8.914   3.121  0.0186  0.3219  0.0404
 2747SOL    HW119170   0.184   8.908   3.168  1.1358 -1.3344 -2.1419
 2747SOL    HW219171   0.059   8.822   3.107 -0.3953  0.7583 -1.9965
 2748SOL     OW19172   3.061   8.039   1.048 -0.1906 -0.3525  0.6164
 2748SOL    HW119173   2.979   7.994   1.012  0.5144 -0.9211 -0.2948
 2748SOL    HW219174   3.039   8.082   1.136 -1.5843 -0.0717  0.1385
 2749SOL     OW19175   7.971   8.761   2.053 -0.6142  0.0820  0.1960
 2749SOL    HW119176   8.069   8.763   2.075 -0.5902  0.8678  0.0528
 2749SOL    HW219177   7.942   8.667   2.037  0.3802 -0.0562 -0.8757
 2750SOL     OW19178   9.931   0.227   1.721  0.0536  0.3955  0.7370
 2750SOL    HW119179   9.900   0.315   1.757 -1.8068  0.3452 -0.6654
 2750SOL    HW219180   9.860   0.158   1.736  1.2104 -0.7110  1.1889
 2751SOL     OW19181   9.858   0.118   3.994  0.0022  0.6182  0.0868
 2751SOL    HW119182   9.825   0.156   4.081  2.1631  0.0801  1.1696
 2751SOL    HW219183   9.958   0.119   3.993  0.0060 -0.2229 -2.0361
 2752SOL     OW19184   2.704   0.391   0.830 -0.1000 -0.3281 -0.1188
 2752SOL    HW119185   2.706   0.334   0.748 -0.1905 -2.2335  1.1557
 2752SOL    HW219186   2.629   0.457   0.824  0.2421 -0.0632 -1.7871
 2753SOL     OW19187   9.874   6.746   0.696  0.2288  0.1329 -0.0982
 2753SOL    HW119188   9.941   6.673   0.682  0.3765  0.2979 -0.2616
 2753SOL    HW219189   9.912   6.832   0.662 -0.3548  0.0887 -0.8683
 2754SOL     OW19190   9.702   8.283   1.963 -0.3687  0.1966 -0.9661
 2754SOL    HW119191   9.651   8.216   2.016  0.4483  2.0590  2.3350
 2754SOL    HW219192   9.641   8.333   1.902 -1.2206 -2.4385 -2.3311
 2755SOL     OW19193   9.538   3.300   1.006 -0.1066 -0.8556  0.6269
 2755SOL    HW119194   9.478   3.307   0.927  1.5797  0.3863 -0.6009
 2755SOL    HW219195   9.534   3.385   1.058  0.4713 -0.8185  0.6141
 2756SOL     OW19196   9.891   1.323   2.612 -0.2214  0.0018  0.1215
 2756SOL    HW119197   9.857   1.383   2.539 -0.4653 -0.2937 -0.0103
 2756SOL    HW219198   9.816   1.301   2.674 -0.3118 -0.7717 -0.2519
 2757SOL     OW19199   5.488   0.767   3.442 -0.3721 -0.3660 -0.7679
 2757SOL    HW119200   5.431   0.702   3.492  0.1684  0.4272  0.9159
 2757SOL    HW219201   5.540   0.719   3.371 -0.2723 -1.6888  0.1941
 2758SOL     OW19202   4.522   7.742   4.604 -0.2210 -0.4464 -0.0798
 2758SOL    HW119203   4.451   7.676   4.630  0.2757 -1.5639 -1.5042
 2758SOL    HW219204   4.590   7.697   4.546  0.9251  0.9608  0.1405
 2759SOL     OW19205   9.565   3.451   1.726  0.5106  0.1180 -0.0253
 2759SOL    HW119206   9.660   3.420   1.730 -0.3503 -2.4273  3.0727
 2759SOL    HW219207   9.546   3.513   1.802 -0.1703  1.0799 -0.9660
 2760SOL     OW19208   9.461   4.386   1.097 -0.2300  0.0373  0.0200
 2760SOL    HW119209   9.509   4.316   1.150  0.3052 -1.1140 -1.9161
 2760SOL    HW219210   9.388   4.343   1.044 -0.7951  1.1737 -0.1399
 2761SOL     OW19211   4.854   9.402   2.827 -0.1668 -0.3406  0.0839
 2761SOL    HW119212   4.949   9.426   2.805  0.0779 -1.1552  0.2077
 2761SOL    HW219213   4.794   9.431   2.753  0.2421 -0.2296 -0.2075
 2762SOL     OW19214   6.101   7.800   1.733 -0.1765 -0.4714 -0.2060
 2762SOL    HW119215   6.149   7.872   1.683 -0.8973 -0.4471 -0.8821
 2762SOL    HW219216   6.038   7.842   1.799  1.0646 -0.5060  1.0183
 2763SOL     OW19217   1.274   8.549   3.984  0.7626  0.3018 -0.0238
 2763SOL    HW119218   1.204   8.489   4.025  2.0115 -1.3626 -0.2895
 2763SOL    HW219219   1.266   8.641   4.023  0.1315 -0.5533  1.9165
 2764SOL     OW19220   5.463   2.893   0.716  0.2285  0.5965 -0.6920
 2764SOL    HW119221   5.549   2.863   0.758  1.1235  1.2784 -1.9963
 2764SOL    HW219222   5.483   2.954   0.640 -1.4179  0.5585 -1.1722
 2765SOL     OW19223   0.966   0.517   1.966  0.2802  0.2775  0.4131
 2765SOL    HW119224   1.002   0.489   2.055 -0.8832  1.2826  1.2171
 2765SOL    HW219225   1.041   0.552   1.910  1.1272 -0.9456  0.7555
 2766SOL     OW19226   4.083   9.735   3.546 -0.3487  0.1946  0.4135
 2766SOL    HW119227   4.034   9.694   3.622 -1.4040 -0.9476 -0.8548
 2766SOL    HW219228   4.118   9.825   3.573  0.5636 -0.8200  2.6944
 2767SOL     OW19229   7.265   9.899   3.327 -0.2192 -0.2147 -0.0170
 2767SOL    HW119230   7.328   9.939   3.392  1.2515  0.3969 -1.7878
 2767SOL    HW219231   7.219   9.971   3.275  2.1328 -0.6954 -2.9210
 2768SOL     OW19232   1.287   1.370   5.569 -0.0062  0.1003  0.0296
 2768SOL    HW119233   1.246   1.457   5.543  1.0141  0.6954  0.3988
 2768SOL    HW219234   1.299   1.367   5.669 -1.0012 -0.8974  0.1398
 2769SOL     OW19235   3.657   0.505   3.799 -0.9668 -0.1232 -0.1526
 2769SOL    HW119236   3.714   0.499   3.881 -2.0968 -1.0915  0.5591
 2769SOL    HW219237   3.612   0.418   3.783 -1.9642  0.5313 -0.9365
 2770SOL     OW19238   0.851   1.931   2.541 -0.5529  0.1299 -0.0307
 2770SOL    HW119239   0.759   1.894   2.528 -0.4453  0.0751 -0.6356
 2770SOL    HW219240   0.915   1.856   2.558 -0.3019  0.0101 -1.4428
 2771SOL     OW19241   4.758   8.624   4.467 -0.2761  0.1781 -0.8560
 2771SOL    HW119242   4.676   8.568   4.454  0.3348 -0.8774 -0.1867
 2771SOL    HW219243   4.756   8.701   4.403 -1.4939 -0.1732 -1.2530
 2772SOL     OW19244   9.944   3.750   3.532  0.4013  0.2910  0.6670
 2772SOL    HW119245  10.001   3.822   3.573  0.0599  0.2695  1.1825
 2772SOL    HW219246   9.858   3.743   3.583  0.9267 -1.3017  1.3474
 2773SOL     OW19247   3.234   3.013   2.421  0.0068  0.4116  0.2960
 2773SOL    HW119248   3.207   3.108   2.442  1.0306  0.8328 -0.2915
 2773SOL    HW219249   3.271   2.970   2.503  1.8765  1.3309 -0.0470
 2774SOL     OW19250   4.601   7.901   2.345 -0.1130 -0.0703 -0.2970
 2774SOL    HW119251   4.519   7.864   2.389  0.4408  0.5738  1.2801
 2774SOL    HW219252   4.603   8.000   2.356  0.7744 -0.0613 -0.5223
 2775SOL     OW19253   0.428   9.726   5.488  0.2122 -0.0210 -0.2748
 2775SOL    HW119254   0.465   9.818   5.476 -0.5698  0.3372  0.0103
 2775SOL    HW219255   0.444   9.696   5.582  0.8099 -0.3297 -0.4757
 2776SOL     OW19256   6.407   1.186   3.239  0.2601 -0.3555  0.0026
 2776SOL    HW119257   6.401   1.147   3.331  0.3626 -0.4915 -0.0480
 2776SOL    HW219258   6.451   1.275   3.244  1.1837 -0.8006 -0.0353
 2777SOL     OW19259   4.389   7.278   2.857  0.5116  0.8806  0.0818
 2777SOL    HW119260   4.407   7.298   2.954 -0.2293 -1.5421  0.7458
 2777SOL    HW219261   4.462   7.219   2.821 -0.5792 -0.3728 -0.0959
 2778SOL     OW19262   0.473   4.763   1.120 -0.1697 -0.3255  0.0479
 2778SOL    HW119263   0.402   4.795   1.183 -1.7089 -1.9586 -0.7977
 2778SOL    HW219264   0.507   4.840   1.066  1.1388  1.0830  2.7951
 2779SOL     OW19265   3.567   8.719   3.556 -0.1590  0.0703  0.5504
 2779SOL    HW119266   3.529   8.724   3.463 -1.4639 -1.6020  0.9651
 2779SOL    HW219267   3.635   8.645   3.560 -0.6311 -0.3368  1.0910
 2780SOL     OW19268   2.528   8.690   0.493  0.2544  0.6849  0.3642
 2780SOL    HW119269   2.483   8.662   0.408 -0.8975  0.0913  1.1685
 2780SOL    HW219270   2.561   8.609   0.542 -0.5832  0.9052  1.3089
 2781SOL     OW19271   8.783   3.722   3.609  0.1607  0.0922  0.5049
 2781SOL    HW119272   8.855   3.656   3.585  2.6830  2.0523  2.4502
 2781SOL    HW219273   8.711   3.676   3.661 -0.6238 -2.1399 -2.4064
 2782SOL     OW19274   2.756   7.719   0.179  0.0644  0.4559  0.0780
 2782SOL    HW119275   2.789   7.692   0.269  1.9023 -1.1676 -1.0376
 2782SOL    HW219276   2.695   7.798   0.188 -1.7852 -1.1847  2.9830
 2783SOL     OW19277   2.969   6.823   1.200 -0.3045 -0.0140 -0.0383
 2783SOL    HW119278   2.968   6.758   1.277  0.4052 -0.7267 -0.6246
 2783SOL    HW219279   2.907   6.899   1.220 -2.3390 -1.6343  0.0065
 2784SOL     OW19280   7.815   4.672   5.077  0.2068 -0.1168 -0.0590
 2784SOL    HW119281   7.877   4.608   5.031  0.7981 -0.7942  1.6480
 2784SOL    HW219282   7.851   4.765   5.069  2.0586 -0.6373  1.8635
 2785SOL     OW19283   1.379   3.836   3.455  0.1091 -0.0443 -0.3670
 2785SOL    HW119284   1.286   3.811   3.431  0.1452 -1.0479  0.5147
 2785SOL    HW219285   1.397   3.811   3.550  0.3687  2.7166  0.3615
 2786SOL     OW19286   1.154   9.675   5.220  0.0977  0.1451  0.4360
 2786SOL    HW119287   1.184   9.602   5.282 -1.7794  0.0582  1.2725
 2786SOL    HW219288   1.068   9.714   5.254 -0.7989  0.3063 -1.9563
 2787SOL     OW19289   1.241   9.472   5.026  0.1988  0.4673  0.3915
 2787SOL    HW119290   1.213   9.563   5.059  0.2201  0.4741  0.3907
 2787SOL    HW219291   1.180   9.403   5.066 -0.8669  0.6362 -0.9018
 2788SOL     OW19292   3.209   6.160   2.935  0.0669 -0.3251 -0.3665
 2788SOL    HW119293   3.136   6.141   2.869 -0.9949 -0.4004  0.8263
 2788SOL    HW219294   3.170   6.198   3.018  1.3838 -0.4233  0.3065
 2789SOL     OW19295   2.366   5.620   2.008 -0.0837 -0.0479 -0.2304
 2789SOL    HW119296   2.398   5.599   1.916  1.6472 -1.4913  0.6697
 2789SOL    HW219297   2.316   5.541   2.044 -0.6296  0.4579  0.1278
 2790SOL     OW19298   2.509   9.189   2.898  0.2324  0.3752  0.1203
 2790SOL    HW119299   2.488   9.258   2.830 -2.0749 -0.6532 -0.2417
 2790SOL    HW219300   2.516   9.099   2.854 -0.6943 -0.2097  1.1467
 2791SOL     OW19301   1.480   9.274   0.042 -0.2100 -0.3746 -0.0942
 2791SOL    HW119302   1.432   9.289  -0.045  2.2430 -1.0067 -1.6173
 2791SOL    HW219303   1.527   9.358   0.069  0.6362 -0.7269 -0.4358
 2792SOL     OW19304   8.121   8.225   3.175  0.0795 -0.5251 -0.0377
 2792SOL    HW119305   8.060   8.218   3.253  2.0705 -2.0746  1.4281
 2792SOL    HW219306   8.123   8.319   3.142 -2.0151 -0.1901  0.7371
 2793SOL     OW19307   3.310   8.360   4.464 -0.2915  0.1949 -0.3478
 2793SOL    HW119308   3.247   8.377   4.388 -2.8363 -1.7477  1.2251
 2793SOL    HW219309   3.266   8.388   4.549  1.6699  0.3197  0.6353
 2794SOL     OW19310   5.474   8.394   2.629  0.3708 -0.0649 -0.5265
 2794SOL    HW119311   5.394   8.433   2.584  1.2476 -0.1025 -2.1588
 2794SOL    HW219312   5.506   8.457   2.700 -2.1233 -0.8404  1.3720
 2795SOL     OW19313   3.378   1.531   4.959 -0.2153  0.1603  0.8644
 2795SOL    HW119314   3.472   1.496   4.964 -0.2507 -0.0715  0.0372
 2795SOL    HW219315   3.369   1.612   5.017  0.2743 -0.3096  1.5946
 2796SOL     OW19316   3.892   0.125   3.172  0.2192  0.0245 -0.1497
 2796SOL    HW119317   3.832   0.048   3.150  2.4579 -2.0614  0.8479
 2796SOL    HW219318   3.950   0.145   3.093 -1.3233  1.6658 -0.9098
 2797SOL     OW19319   2.989   7.921   4.481 -0.5449  0.1525  0.0262
 2797SOL    HW119320   3.066   7.957   4.533 -1.0740  2.2656 -0.5633
 2797SOL    HW219321   2.907   7.921   4.538 -0.5957  0.1578 -0.0453
 2798SOL     OW19322   0.938   9.497   1.659  0.0527  0.0255 -0.3744
 2798SOL    HW119323   0.863   9.555   1.691  0.6690 -0.7350  2.6545
 2798SOL    HW219324   1.025   9.540   1.681  0.5048 -0.6151 -0.8794
 2799SOL     OW19325   9.762   4.083   5.569  0.5291 -0.0700  0.0536
 2799SOL    HW119326   9.663   4.086   5.573  0.5375  0.5174 -0.2171
 2799SOL    HW219327   9.801   4.134   5.646  0.6200 -0.8599  0.5376
 2800SOL     OW19328   2.459   7.574   1.669  0.0911  0.5793  0.1565
 2800SOL    HW119329   2.522   7.652   1.673 -0.3605  0.8873  1.4997
 2800SOL    HW219330   2.436   7.555   1.574  1.3358  1.1725 -0.2734
 2801SOL     OW19331   5.835   0.510   0.494  0.0748  0.6869 -0.8094
 2801SOL    HW119332   5.804   0.567   0.570  0.3857 -0.5030  0.2279
 2801SOL    HW219333   5.935   0.514   0.487  0.0867  0.3949 -0.8300
 2802SOL     OW19334   5.078   8.667   1.594 -0.1403 -0.2552  0.3143
 2802SOL    HW119335   4.979   8.677   1.585  0.0243  0.4293 -0.8354
 2802SOL    HW219336   5.116   8.748   1.638 -0.1045 -0.5881  0.9056
 2803SOL     OW19337   7.870   3.118   0.413  0.7498 -0.8740  0.1987
 2803SOL    HW119338   7.913   3.152   0.329 -1.6930 -0.7510 -1.0326
 2803SOL    HW219339   7.822   3.033   0.394  1.5235 -1.7113  1.8637
 2804SOL     OW19340   8.193   5.690   1.482  0.2810 -0.2093 -0.0094
 2804SOL    HW119341   8.168   5.666   1.576  0.3063  1.7978  0.5340
 2804SOL    HW219342   8.125   5.753   1.445  1.5612  0.9047 -0.4842
 2805SOL     OW19343   3.562   4.238   2.654 -0.3700 -0.0895  0.6556
 2805SOL    HW119344   3.518   4.182   2.584 -1.1044 -0.0136  1.0589
 2805SOL    HW219345   3.559   4.334   2.626  3.7561 -0.4867 -1.6276
 2806SOL     OW19346   8.986   2.045   1.495 -0.0196 -0.6584 -0.2999
 2806SOL    HW119347   8.949   2.011   1.409  1.8886  1.8316 -2.2035
 2806SOL    HW219348   9.066   1.991   1.521 -0.4575 -1.2633 -0.1943
 2807SOL     OW19349   3.067   4.956   3.068 -0.2508  0.5906  0.1575
 2807SOL    HW119350   3.078   4.900   3.149 -0.3510  1.0425  0.4870
 2807SOL    HW219351   3.126   4.923   2.995  1.6622  1.6644  1.1845
 2808SOL     OW19352   8.629   6.781   1.936 -1.0260 -1.1436 -0.5464
 2808SOL    HW119353   8.621   6.774   2.035  0.3276 -1.2673 -0.4344
 2808SOL    HW219354   8.668   6.696   1.899  1.7042  0.1625 -0.7858
 2809SOL     OW19355   8.466   9.765   5.113  0.5688  0.3104 -0.2831
 2809SOL    HW119356   8.372   9.773   5.147 -0.2268 -0.2515 -2.2966
 2809SOL    HW219357   8.515   9.697   5.168 -0.2774  0.4289  0.6257
 2810SOL     OW19358   2.089   6.373   5.340  0.3328 -0.1082 -0.2066
 2810SOL    HW119359   2.039   6.292   5.310  2.7699 -1.8414  0.2384
 2810SOL    HW219360   2.156   6.399   5.269  0.4988  0.7045  0.2394
 2811SOL     OW19361   6.564   0.461   1.384  0.2663 -0.0737  0.2533
 2811SOL    HW119362   6.484   0.425   1.335  0.1160 -1.0410  1.1850
 2811SOL    HW219363   6.589   0.549   1.346 -0.7902 -0.1075 -0.5556
 2812SOL     OW19364   4.064   0.797   0.836  0.0179 -0.2104 -0.2741
 2812SOL    HW119365   4.064   0.767   0.740  0.8957  1.0989 -0.6996
 2812SOL    HW219366   3.980   0.766   0.880 -0.7654 -0.1680 -1.6805
 2813SOL     OW19367   0.097   4.931   5.274  0.0445  0.2371 -0.2419
 2813SOL    HW119368   0.069   4.957   5.367 -2.0347 -2.0768 -0.1776
 2813SOL    HW219369   0.056   4.994   5.208 -2.7545 -1.1458  0.0948
 2814SOL     OW19370   0.423   9.946   4.588  0.1116 -0.3232  0.6481
 2814SOL    HW119371   0.352   9.917   4.652  0.1739 -0.5989  0.5918
 2814SOL    HW219372   0.512   9.913   4.621 -0.1685 -2.8717 -1.0387
 2815SOL     OW19373   8.461   3.173   3.707  0.5145  0.1027  0.2523
 2815SOL    HW119374   8.390   3.237   3.737  0.5749  0.1041  0.3888
 2815SOL    HW219375   8.516   3.217   3.635  0.0478 -0.0889 -0.2235
 2816SOL     OW19376   2.968   7.797   3.249  0.0562  0.4924 -0.4052
 2816SOL    HW119377   2.954   7.782   3.347  1.6951  0.1800 -0.2189
 2816SOL    HW219378   2.921   7.726   3.197  2.2539 -1.4963  0.2743
 2817SOL     OW19379   8.509   9.404   5.122 -0.5642  0.3269 -0.0869
 2817SOL    HW119380   8.496   9.447   5.212 -0.0477  2.0269 -0.7998
 2817SOL    HW219381   8.587   9.342   5.125 -1.0165 -0.2014  0.8369
 2818SOL     OW19382   1.944   6.292   1.474 -0.2108 -0.4800 -0.1225
 2818SOL    HW119383   2.005   6.213   1.475 -0.8478 -0.9773  1.8502
 2818SOL    HW219384   1.998   6.376   1.465  0.4844 -1.0950 -1.9276
 2819SOL     OW19385   5.727   9.413   2.382  0.2235 -0.0594  0.1781
 2819SOL    HW119386   5.675   9.488   2.423 -1.1820  0.2454 -2.1044
 2819SOL    HW219387   5.813   9.402   2.432 -0.2637  2.0149  1.5461
 2820SOL     OW19388   8.715   9.046   4.742 -0.1576  0.0767 -0.6205
 2820SOL    HW119389   8.713   9.045   4.642  0.0556 -0.9561 -0.6198
 2820SOL    HW219390   8.621   9.042   4.778 -0.2000 -0.3817 -0.7794
 2821SOL     OW19391   9.786   1.482   2.397 -0.9086 -0.1245 -0.5689
 2821SOL    HW119392   9.860   1.455   2.335 -1.1678  0.1880 -1.0091
 2821SOL    HW219393   9.698   1.463   2.355 -1.0891  0.7925 -0.6087
 2822SOL     OW19394   7.969   9.349   4.728 -0.3320 -0.3648  0.0308
 2822SOL    HW119395   8.013   9.295   4.800  0.1685 -1.8742 -1.3978
 2822SOL    HW219396   7.991   9.310   4.639 -0.9887  1.4705 -0.9542
 2823SOL     OW19397   3.291   4.255   3.329  0.3996  0.0149  0.2578
 2823SOL    HW119398   3.333   4.245   3.419  0.1070 -0.2340  0.3684
 2823SOL    HW219399   3.343   4.320   3.274  1.0465 -0.4476  0.3180
 2824SOL     OW19400   1.849   4.887   0.767 -0.1677  0.0948 -0.2975
 2824SOL    HW119401   1.831   4.847   0.677  0.0698  0.7921 -0.6586
 2824SOL    HW219402   1.793   4.841   0.836 -1.3613  0.4643 -1.0090
 2825SOL     OW19403   4.534   1.994   0.058 -0.3817 -0.0542 -0.4046
 2825SOL    HW119404   4.519   1.967   0.153  0.1088  0.6779 -0.1156
 2825SOL    HW219405   4.458   2.051   0.026 -0.4554 -0.1475 -0.3968
 2826SOL     OW19406   5.020   4.071   0.063 -0.2996  0.5314 -0.6697
 2826SOL    HW119407   4.965   4.034   0.138 -0.1353  0.5571 -0.5355
 2826SOL    HW219408   5.053   4.162   0.088  0.7627  0.0450 -0.2705
 2827SOL     OW19409   2.290   0.965   1.207  0.0143  0.1249 -0.0414
 2827SOL    HW119410   2.198   0.997   1.230 -0.0698 -1.6423  2.2833
 2827SOL    HW219411   2.337   1.034   1.152 -2.1134  1.7361  0.0989
 2828SOL     OW19412   1.184   9.510   3.164  0.0858 -0.1340  0.4787
 2828SOL    HW119413   1.279   9.531   3.139  0.1302 -0.8491  0.0228
 2828SOL    HW219414   1.122   9.570   3.113  0.2275 -0.7876 -0.4775
 2829SOL     OW19415   7.936   2.883   0.585 -0.1386 -0.2304  0.3484
 2829SOL    HW119416   7.907   2.967   0.538  3.6080  1.3827  0.7226
 2829SOL    HW219417   7.919   2.804   0.526  2.4473  1.5106 -2.8920
 2830SOL     OW19418   0.700   5.922   4.991  0.4985 -0.2269 -0.0906
 2830SOL    HW119419   0.627   5.899   5.054 -1.6780 -0.6325 -2.6562
 2830SOL    HW219420   0.726   6.018   5.004 -1.4995  0.3402 -0.0799
 2831SOL     OW19421   2.312   2.071   1.632 -0.8034 -0.1316  0.2130
 2831SOL    HW119422   2.390   2.133   1.639 -1.9112  1.3374 -0.1972
 2831SOL    HW219423   2.236   2.107   1.686 -1.2809 -1.4242  0.4122
 2832SOL     OW19424   1.905   0.339   5.264 -0.0323 -0.4488  0.3819
 2832SOL    HW119425   1.978   0.402   5.238 -0.4048 -0.6777 -1.3015
 2832SOL    HW219426   1.816   0.385   5.255 -0.2027 -0.6887  0.8003
 2833SOL     OW19427   6.834   0.836   0.035  0.4740 -0.0133  0.0076
 2833SOL    HW119428   6.897   0.913   0.047 -0.2647  0.6315 -0.2342
 2833SOL    HW219429   6.868   0.776  -0.037  1.8586 -0.7569  1.2419
 2834SOL     OW19430   3.269   3.250   4.590  0.5208  0.2487 -0.3552
 2834SOL    HW119431   3.219   3.210   4.666 -1.1424 -0.8947 -1.9917
 2834SOL    HW219432   3.243   3.346   4.580  0.4295  0.2896  0.2535
 2835SOL     OW19433   1.171   4.480   4.244  0.0327  0.1420  0.5512
 2835SOL    HW119434   1.154   4.382   4.240  3.3142 -0.4065 -0.7736
 2835SOL    HW219435   1.214   4.502   4.332  0.5352  0.1826  0.2958
 2836SOL     OW19436   9.499   7.623   0.644 -0.4619 -0.2026 -0.6118
 2836SOL    HW119437   9.592   7.617   0.681 -0.3021  0.3567 -0.9136
 2836SOL    HW219438   9.438   7.565   0.698  0.1189 -0.8169 -0.6013
 2837SOL     OW19439   9.162   1.068   5.628 -0.2275  0.1538  0.1944
 2837SOL    HW119440   9.066   1.072   5.658 -0.2184 -0.0585  0.2538
 2837SOL    HW219441   9.222   1.092   5.704 -0.1316 -1.9823  0.8145
 2838SOL     OW19442   4.828   7.554   2.225  0.4278 -0.0039  0.0802
 2838SOL    HW119443   4.892   7.579   2.152  0.1940  0.0969 -0.0883
 2838SOL    HW219444   4.766   7.630   2.243  0.0980 -0.2491 -0.0252
 2839SOL     OW19445   3.475   2.093   1.010  0.2314 -0.1690  0.0193
 2839SOL    HW119446   3.418   2.086   0.928 -0.3846 -0.3936  0.4642
 2839SOL    HW219447   3.515   2.003   1.030  0.3972 -0.1093 -0.0430
 2840SOL     OW19448   9.027   8.968   4.588 -0.1181 -0.5360  0.2030
 2840SOL    HW119449   9.034   9.009   4.679 -0.0060 -0.1427  0.0198
 2840SOL    HW219450   8.936   8.927   4.577  0.4291 -2.0326  1.0901
 2841SOL     OW19451   4.151   0.420   5.264 -0.0574  0.1412 -0.3718
 2841SOL    HW119452   4.142   0.471   5.350 -0.5242  1.6860 -1.3136
 2841SOL    HW219453   4.170   0.484   5.190  1.5441 -1.3080 -1.2410
 2842SOL     OW19454   3.600   3.244   2.524  0.2756  0.3640 -0.3659
 2842SOL    HW119455   3.691   3.241   2.565 -0.0853  0.2337  0.4367
 2842SOL    HW219456   3.586   3.333   2.480  1.0608  0.1156 -1.1440
 2843SOL     OW19457   9.181   6.617   5.065 -0.2508  0.2283  0.2408
 2843SOL    HW119458   9.108   6.681   5.090 -0.1111  0.9078 -1.0325
 2843SOL    HW219459   9.253   6.667   5.016  0.0796 -0.8152 -0.3433
 2844SOL     OW19460   3.597   7.475   1.838 -0.0805 -0.0525  0.2941
 2844SOL    HW119461   3.612   7.423   1.922 -0.8370 -0.3941  0.2250
 2844SOL    HW219462   3.661   7.445   1.768  1.1520  0.8530  1.0142
 2845SOL     OW19463   2.843   9.276   5.442  0.3402 -0.3783  0.2798
 2845SOL    HW119464   2.833   9.353   5.379  0.4369 -0.6589 -0.0861
 2845SOL    HW219465   2.935   9.238   5.434 -0.1473 -1.4170 -0.5886
 2846SOL     OW19466   8.508   5.048   0.543  0.1887  0.4952 -0.6323
 2846SOL    HW119467   8.485   5.138   0.581 -0.4481  0.0829 -0.0274
 2846SOL    HW219468   8.447   4.979   0.582  1.4720 -0.3927 -0.1729
 2847SOL     OW19469   6.346   0.366   2.304 -0.3483 -0.3487  0.2519
 2847SOL    HW119470   6.294   0.301   2.359 -1.1608 -0.6634 -0.8668
 2847SOL    HW219471   6.350   0.334   2.209 -1.2863  1.5146 -0.4460
 2848SOL     OW19472   9.316   6.466   0.670  0.5699 -0.3867 -0.5142
 2848SOL    HW119473   9.313   6.493   0.574 -0.1156  2.6434  0.3104
 2848SOL    HW219474   9.222   6.455   0.705  0.8150 -1.7459 -0.2501
 2849SOL     OW19475   3.109   3.524   0.632 -0.6482  0.1578  0.1483
 2849SOL    HW119476   3.026   3.527   0.576 -1.1736  1.8567  0.9845
 2849SOL    HW219477   3.085   3.501   0.726 -0.2268  1.0691  0.4851
 2850SOL     OW19478   2.977   8.245   3.093 -0.0957 -0.0611  0.6238
 2850SOL    HW119479   2.987   8.152   3.056 -1.2448 -0.0057  0.1530
 2850SOL    HW219480   3.020   8.250   3.183  2.5067 -0.2818 -0.5711
 2851SOL     OW19481   9.414   1.677   3.415  0.1398 -0.3727  0.2449
 2851SOL    HW119482   9.390   1.581   3.403 -1.1929 -0.0157 -0.0494
 2851SOL    HW219483   9.416   1.699   3.512 -0.6561 -0.4251  0.2726
 2852SOL     OW19484   2.340   6.178   5.308 -0.6723 -0.1040  0.0215
 2852SOL    HW119485   2.258   6.125   5.286  0.1980 -0.6613 -2.0196
 2852SOL    HW219486   2.330   6.270   5.272  0.5771 -0.8874 -2.3877
 2853SOL     OW19487   4.980   0.124   0.748 -0.6618  0.1362  0.7067
 2853SOL    HW119488   5.059   0.101   0.805 -1.1793  0.1857  1.4498
 2853SOL    HW219489   4.918   0.183   0.800  0.0617  2.2118 -0.7438
 2854SOL     OW19490   1.800   1.312   5.180  0.5302  0.4226 -0.3902
 2854SOL    HW119491   1.786   1.379   5.107  0.1954  0.4161 -0.3330
 2854SOL    HW219492   1.722   1.249   5.182 -1.3280  2.6626  2.3548
 2855SOL     OW19493   1.341   1.166   5.197 -0.3662  0.5418 -0.4629
 2855SOL    HW119494   1.437   1.159   5.170 -0.4672  1.4704 -1.0771
 2855SOL    HW219495   1.305   1.074   5.218  0.1760  0.0003 -1.8691
 2856SOL     OW19496   9.429   5.541   2.886  0.6460 -0.2113 -0.8810
 2856SOL    HW119497   9.447   5.540   2.984  1.1326 -0.2981 -0.9674
 2856SOL    HW219498   9.420   5.635   2.855 -1.8117 -0.2430 -0.3548
 2857SOL     OW19499   3.850   2.439   1.710 -0.0527 -0.1664  0.4342
 2857SOL    HW119500   3.766   2.474   1.668 -0.6073 -0.4404  1.2979
 2857SOL    HW219501   3.867   2.346   1.678 -0.0633 -0.1012  0.2388
 2858SOL     OW19502   8.539   6.098   4.458 -0.3891  1.0725 -0.5133
 2858SOL    HW119503   8.583   6.024   4.509  0.3234  3.2680  2.1467
 2858SOL    HW219504   8.586   6.110   4.371  1.2186  0.1970  0.2085
 2859SOL     OW19505   9.468   4.888   0.448  0.2207 -0.3983  0.3436
 2859SOL    HW119506   9.376   4.863   0.479  0.0638 -1.4526 -0.9845
 2859SOL    HW219507   9.482   4.986   0.465 -0.5568 -0.5379  1.9802
 2860SOL     OW19508   2.032   1.981   3.123 -1.0320 -0.3575  0.4685
 2860SOL    HW119509   2.072   1.998   3.213  0.7885  1.1360 -0.5980
 2860SOL    HW219510   2.067   1.894   3.087  2.4883  1.6177 -1.0708
 2861SOL     OW19511   3.668   2.886   2.572  0.1779 -0.2076 -0.4127
 2861SOL    HW119512   3.571   2.909   2.572 -0.4358 -2.6201 -0.0850
 2861SOL    HW219513   3.684   2.813   2.505  1.8517  0.5074 -0.8038
 2862SOL     OW19514   2.973   7.142   1.496 -0.4412  0.5865 -0.4804
 2862SOL    HW119515   2.923   7.208   1.552 -0.1888  1.4455 -1.2588
 2862SOL    HW219516   2.929   7.132   1.408 -0.5980 -0.4561 -0.2861
 2863SOL     OW19517   2.414   9.577   2.472 -0.3189  0.5289 -0.5868
 2863SOL    HW119518   2.457   9.645   2.531 -0.7928  0.3677 -0.0454
 2863SOL    HW219519   2.322   9.557   2.506  0.1548 -1.0723 -0.1858
 2864SOL     OW19520   2.558   5.443   4.469  0.4541 -0.1289 -0.1296
 2864SOL    HW119521   2.468   5.454   4.427 -1.1834 -0.7253  3.0524
 2864SOL    HW219522   2.569   5.349   4.500  2.0800  0.0165 -0.2089
 2865SOL     OW19523   8.859   8.373   5.126 -0.2464  0.7061  0.1935
 2865SOL    HW119524   8.884   8.314   5.203 -3.7796  0.5411  1.2781
 2865SOL    HW219525   8.865   8.468   5.154 -0.1747  0.6951  0.2193
 2866SOL     OW19526   1.158   1.827   0.982  0.1434  0.5078 -0.6265
 2866SOL    HW119527   1.235   1.870   0.935  0.7371 -1.2098 -1.2896
 2866SOL    HW219528   1.191   1.751   1.037 -0.8242  1.1456  0.8670
 2867SOL     OW19529   1.491   6.470   0.665  0.4062 -0.5266 -0.7844
 2867SOL    HW119530   1.497   6.371   0.661  0.0459 -0.4971 -3.7070
 2867SOL    HW219531   1.570   6.510   0.617 -0.1613  0.5480 -0.8612
 2868SOL     OW19532   2.547   1.236   0.053 -0.1743  0.4950 -0.1228
 2868SOL    HW119533   2.481   1.199   0.118 -0.0361  1.1920  0.4270
 2868SOL    HW219534   2.568   1.168  -0.017  1.4489 -1.1142  1.8719
 2869SOL     OW19535   8.323   8.865   2.736  0.5969  0.2198  0.1288
 2869SOL    HW119536   8.411   8.911   2.725 -0.3085  2.0879  0.4607
 2869SOL    HW219537   8.268   8.879   2.653  0.7610 -1.2900 -0.2460
 2870SOL     OW19538   5.230   1.580   2.970 -0.0316 -0.0645  0.1993
 2870SOL    HW119539   5.184   1.493   2.952 -1.4141  1.0304 -1.6726
 2870SOL    HW219540   5.200   1.648   2.904  1.8800  1.5596  0.9625
 2871SOL     OW19541   8.115   5.265   2.936  0.4235  0.5234  0.1411
 2871SOL    HW119542   8.153   5.354   2.961  0.6070  0.9552 -1.6073
 2871SOL    HW219543   8.041   5.277   2.870 -0.4893 -0.5463  0.9415
 2872SOL     OW19544   6.749   9.633   1.539  0.3661 -0.1879  0.5143
 2872SOL    HW119545   6.785   9.620   1.447  1.7941 -2.4565  1.3397
 2872SOL    HW219546   6.777   9.556   1.597 -1.8905  0.3635  2.4212
 2873SOL     OW19547   1.767   2.308   1.387  0.9274  0.2280  0.3504
 2873SOL    HW119548   1.839   2.339   1.325  3.5753 -3.8378  1.1801
 2873SOL    HW219549   1.791   2.334   1.480  1.0849 -0.6591  0.5621
 2874SOL     OW19550   3.760   7.524   0.699  0.3147 -0.2192 -0.4937
 2874SOL    HW119551   3.692   7.597   0.682 -0.0769 -0.3436  0.5535
 2874SOL    HW219552   3.851   7.559   0.678  0.1346  0.5980  0.0813
 2875SOL     OW19553   3.916   8.887   2.542 -0.1849 -0.6796  0.9018
 2875SOL    HW119554   3.967   8.879   2.628  0.1622 -0.6477  0.6948
 2875SOL    HW219555   3.947   8.968   2.492 -0.6467 -0.4875  0.9159
 2876SOL     OW19556   8.463   1.247   5.245  0.0596 -0.3207 -0.3236
 2876SOL    HW119557   8.507   1.276   5.160 -0.6671 -1.0990 -0.9715
 2876SOL    HW219558   8.464   1.147   5.250  0.0019 -0.2791  0.5352
 2877SOL     OW19559   8.524   2.110   0.687  0.2394 -0.3146  0.3589
 2877SOL    HW119560   8.500   2.026   0.737  1.9372 -0.7195  0.4981
 2877SOL    HW219561   8.469   2.116   0.604  0.4274 -1.8012  0.1149
 2878SOL     OW19562   2.431   8.406   5.221  0.5547  0.0702  0.2908
 2878SOL    HW119563   2.427   8.466   5.301 -0.6304  0.0336  0.2676
 2878SOL    HW219564   2.448   8.461   5.139  1.0669  0.1862  0.4712
 2879SOL     OW19565   5.300   9.349   2.050  0.1171 -0.0188 -0.4684
 2879SOL    HW119566   5.326   9.325   2.144  3.3320 -0.5236 -1.4517
 2879SOL    HW219567   5.283   9.266   1.998 -2.1410  0.2731 -0.2512
 2880SOL     OW19568   4.024   1.504   3.852 -0.2047  0.3211  0.0485
 2880SOL    HW119569   4.103   1.454   3.887 -1.0117 -1.8478 -1.1753
 2880SOL    HW219570   3.943   1.446   3.856 -1.8521  2.6161  1.5918
 2881SOL     OW19571   3.219   8.272   0.965 -0.2179  0.4784  0.2661
 2881SOL    HW119572   3.278   8.353   0.962  0.2787  0.1066 -0.0010
 2881SOL    HW219573   3.275   8.190   0.976 -0.6005  0.0009 -1.3282
 2882SOL     OW19574   0.895   7.759   5.240  0.1794 -0.0385 -0.1532
 2882SOL    HW119575   0.903   7.852   5.274 -0.4086 -0.1825  0.3854
 2882SOL    HW219576   0.986   7.723   5.218  0.5776  0.0321  1.3208
 2883SOL     OW19577   0.782   3.204   2.468  0.1824  0.2764 -0.2573
 2883SOL    HW119578   0.786   3.169   2.562 -0.8466  1.2468  0.1633
 2883SOL    HW219579   0.733   3.139   2.410 -0.2413  0.2425  0.1407
 2884SOL     OW19580   8.965   5.955   2.585 -0.1177 -0.0714 -0.4226
 2884SOL    HW119581   8.867   5.977   2.581  0.2177  0.9718 -4.4110
 2884SOL    HW219582   8.977   5.857   2.570 -0.6040 -0.5753  2.1085
 2885SOL     OW19583   3.106   9.374   5.345 -0.0584 -0.2252  0.2579
 2885SOL    HW119584   3.169   9.304   5.381  1.7037  0.5575 -1.2262
 2885SOL    HW219585   3.140   9.464   5.370 -0.2049  0.2325 -1.1821
 2886SOL     OW19586   0.728   1.283   5.247 -0.3727 -0.2241  0.6904
 2886SOL    HW119587   0.797   1.234   5.300  1.1497 -0.5816 -1.5208
 2886SOL    HW219588   0.643   1.230   5.244  0.0761 -0.9926  1.3418
 2887SOL     OW19589   9.967   8.054   1.416  0.1110  0.0169 -0.6388
 2887SOL    HW119590   9.998   8.146   1.438 -0.6476  0.4170 -1.2125
 2887SOL    HW219591  10.016   7.988   1.472  0.0491  0.8374  0.4024
 2888SOL     OW19592   8.699   1.151   2.589  0.0303  0.4036 -0.9827
 2888SOL    HW119593   8.777   1.095   2.561 -0.2691  1.0656 -3.2411
 2888SOL    HW219594   8.699   1.161   2.689  2.1085 -0.6209 -0.8554
 2889SOL     OW19595   1.074   9.207   4.461 -0.0098  0.4619 -0.0799
 2889SOL    HW119596   1.108   9.286   4.410 -0.6592  0.1577 -0.9885
 2889SOL    HW219597   0.978   9.193   4.440 -0.6721  1.1633  2.2922
 2890SOL     OW19598   8.288   7.300   3.256  0.3451 -0.4228 -0.3452
 2890SOL    HW119599   8.316   7.212   3.295 -1.2761 -0.2382  1.2994
 2890SOL    HW219600   8.220   7.285   3.184 -0.2321 -0.5016  0.2129
 2891SOL     OW19601   1.727   8.803   2.577  0.7194 -0.0877  0.1500
 2891SOL    HW119602   1.814   8.816   2.625 -0.8912 -0.5789  3.2927
 2891SOL    HW219603   1.658   8.771   2.641 -1.3383 -1.5481 -2.6951
 2892SOL     OW19604   2.156   0.882   4.198 -0.2344  0.2591 -0.2232
 2892SOL    HW119605   2.113   0.946   4.261 -0.3246 -0.2464  0.2300
 2892SOL    HW219606   2.222   0.931   4.141  0.1253  0.6503  0.5203
 2893SOL     OW19607   3.045   2.265   0.494 -0.2153 -0.8823  0.2005
 2893SOL    HW119608   3.023   2.350   0.542 -0.7997 -0.0450 -1.5009
 2893SOL    HW219609   3.143   2.261   0.476 -0.4322  0.4531 -1.5054
 2894SOL     OW19610   3.646   5.796   1.423 -0.0985  0.8161 -0.0798
 2894SOL    HW119611   3.667   5.894   1.427 -0.7218  0.9416  0.0910
 2894SOL    HW219612   3.591   5.777   1.342  0.5040  0.5140 -0.4213
 2895SOL     OW19613   8.540   3.525   1.548 -0.4607  0.2675 -0.6048
 2895SOL    HW119614   8.607   3.586   1.506 -0.6459  1.4166  0.7606
 2895SOL    HW219615   8.449   3.548   1.515 -0.1734 -1.6523 -2.8905
 2896SOL     OW19616   1.645   4.497   4.769 -0.2729  0.1698 -0.4736
 2896SOL    HW119617   1.577   4.422   4.767  0.5836 -0.6918  1.5166
 2896SOL    HW219618   1.702   4.487   4.850 -0.8993  3.6854  0.4701
 2897SOL     OW19619   2.002   5.227   5.401 -0.0697 -0.0224  0.3029
 2897SOL    HW119620   2.014   5.136   5.441  2.1839  0.2073  0.2462
 2897SOL    HW219621   2.071   5.289   5.439  0.6590  0.7764 -2.2297
 2898SOL     OW19622   2.068   4.389   3.228 -0.0689 -0.0050  0.2176
 2898SOL    HW119623   1.975   4.351   3.231  0.0134 -0.3066 -0.6786
 2898SOL    HW219624   2.080   4.457   3.300 -0.0639 -2.0688  2.2149
 2899SOL     OW19625   8.084   1.992   2.662  0.1765 -0.5111 -0.3825
 2899SOL    HW119626   8.013   1.990   2.591  1.6815 -0.4441 -1.9066
 2899SOL    HW219627   8.045   1.960   2.748 -2.0442  0.7279 -0.8864
 2900SOL     OW19628   9.083   8.644   2.090 -0.2156  0.1404 -0.2329
 2900SOL    HW119629   9.012   8.698   2.136  0.0293 -0.0017  0.3158
 2900SOL    HW219630   9.151   8.706   2.051 -0.2878  0.2541 -0.1808
 2901SOL     OW19631   1.698   7.275   3.896 -0.1094 -0.6523  0.2683
 2901SOL    HW119632   1.767   7.207   3.873 -1.8233 -2.3804  0.0894
 2901SOL    HW219633   1.698   7.290   3.995  1.0515 -0.0391  0.1853
 2902SOL     OW19634   2.715   6.191   0.484 -0.1695 -0.2013  0.8265
 2902SOL    HW119635   2.663   6.108   0.468  2.6044 -2.0207  0.8781
 2902SOL    HW219636   2.733   6.237   0.397 -2.2744  0.7473  0.8627
 2903SOL     OW19637   2.822   2.065   5.503 -0.2142 -0.4996 -0.3530
 2903SOL    HW119638   2.871   2.104   5.581  1.8997 -0.3120 -1.7288
 2903SOL    HW219639   2.816   2.133   5.430 -0.7453 -1.1913 -0.9607
 2904SOL     OW19640   0.063   8.538   1.723  0.1216  0.5163 -0.0586
 2904SOL    HW119641   0.084   8.463   1.659 -1.7877  0.1881 -0.3407
 2904SOL    HW219642   0.147   8.583   1.750  1.1131 -0.3715 -1.5723
 2905SOL     OW19643   8.954   4.001   4.923  0.0786 -0.2597 -0.7650
 2905SOL    HW119644   8.932   4.076   4.860 -0.5730 -0.5783 -0.9229
 2905SOL    HW219645   9.051   4.006   4.948  0.7278 -1.0160 -2.9799
 2906SOL     OW19646   4.679   0.698   1.244  0.1093 -0.0557  0.1153
 2906SOL    HW119647   4.757   0.678   1.303  0.4237  0.9645  0.0508
 2906SOL    HW219648   4.597   0.713   1.300  0.0451 -0.7417  0.2027
 2907SOL     OW19649   6.833   9.418   1.684 -0.8015 -0.0282  0.0348
 2907SOL    HW119650   6.758   9.393   1.745 -1.0285  3.4627  1.2884
 2907SOL    HW219651   6.920   9.411   1.733 -0.8860  1.7367  0.4595
 2908SOL     OW19652   1.782   2.490   2.825  0.3379  0.2121 -0.1362
 2908SOL    HW119653   1.865   2.532   2.862 -0.4192  1.3545  0.3001
 2908SOL    HW219654   1.783   2.496   2.725  0.9688 -0.1279 -0.1491
 2909SOL     OW19655   2.907   7.117   2.984  0.1582  0.0978  0.6860
 2909SOL    HW119656   2.936   7.032   3.028  1.5092  0.6350  0.8886
 2909SOL    HW219657   2.950   7.124   2.894  0.0264  0.5353  0.6545
 2910SOL     OW19658   7.574   1.568   3.263 -0.0861  0.4476 -0.7594
 2910SOL    HW119659   7.608   1.636   3.197  1.0418 -0.9671 -1.6761
 2910SOL    HW219660   7.506   1.510   3.218 -1.4694  1.3127  0.1857
 2911SOL     OW19661   3.027   2.004   4.906  0.2604 -0.8303 -0.6716
 2911SOL    HW119662   2.959   2.045   4.966 -0.1510 -1.4470 -0.7140
 2911SOL    HW219663   3.030   2.055   4.819  1.1825  0.3463  0.0308
 2912SOL     OW19664   5.409   0.860   1.824  0.0970 -0.6928  0.6176
 2912SOL    HW119665   5.504   0.891   1.826  0.1471 -0.9035  1.5576
 2912SOL    HW219666   5.391   0.799   1.901 -0.5006 -1.5445 -0.1746
 2913SOL     OW19667   9.607   2.487   5.007 -0.1714 -0.4829 -0.1598
 2913SOL    HW119668   9.656   2.407   4.974 -1.3806 -0.4049 -2.2551
 2913SOL    HW219669   9.523   2.458   5.052  1.3273 -0.5719  2.6497
 2914SOL     OW19670   2.606   8.609   4.372 -0.1241 -1.0523  0.0992
 2914SOL    HW119671   2.583   8.515   4.398  1.0621 -1.3662  0.0479
 2914SOL    HW219672   2.537   8.671   4.409 -2.2817 -2.1579 -1.9474
 2915SOL     OW19673   9.285   9.715   5.422 -0.1177  0.1088  0.1976
 2915SOL    HW119674   9.336   9.780   5.367  0.8356  0.1068  1.0557
 2915SOL    HW219675   9.221   9.764   5.481 -0.7714  0.1398 -0.5295
 2916SOL     OW19676   4.007   8.841   2.807  0.8901 -0.9005  0.2081
 2916SOL    HW119677   3.959   8.906   2.865 -0.2131  0.5679 -2.2850
 2916SOL    HW219678   4.106   8.856   2.815  0.6673  0.6071  0.1688
 2917SOL     OW19679   8.436   8.528   3.893  0.7167 -0.4308 -0.1601
 2917SOL    HW119680   8.419   8.448   3.952 -0.0857  0.1247  0.3744
 2917SOL    HW219681   8.424   8.501   3.798  0.3674 -0.9440  0.0207
 2918SOL     OW19682   2.752   1.621   3.646  0.2928  0.6220 -0.4302
 2918SOL    HW119683   2.820   1.547   3.645  1.2888  1.5487 -1.4938
 2918SOL    HW219684   2.720   1.638   3.553 -1.2094  0.3936  0.0217
 2919SOL     OW19685   1.453   9.567   0.076 -0.0377  0.6905 -0.0649
 2919SOL    HW119686   1.518   9.593   0.004 -0.9790  0.9809 -0.8104
 2919SOL    HW219687   1.382   9.637   0.083 -0.6748  0.0071  0.2566
 2920SOL     OW19688   9.556   0.056   4.266  0.1713 -0.0903 -0.2790
 2920SOL    HW119689   9.502   0.003   4.200  1.0716 -0.0784 -1.0300
 2920SOL    HW219690   9.562   0.151   4.235  1.6443 -0.3532 -0.8436
 2921SOL     OW19691   9.805   7.431   4.509 -0.4455 -0.0897  1.5636
 2921SOL    HW119692   9.796   7.531   4.513  1.3870  0.3436 -2.5031
 2921SOL    HW219693   9.727   7.392   4.461  0.8299 -0.1488 -0.5155
 2922SOL     OW19694   4.178   3.075   2.672 -0.8941 -0.4073 -0.2104
 2922SOL    HW119695   4.196   3.165   2.632 -0.9294 -0.8117 -1.1499
 2922SOL    HW219696   4.265   3.029   2.692 -0.8460  0.4282  1.6781
 2923SOL     OW19697   7.237   5.055   5.443  0.2128 -0.1042 -0.3802
 2923SOL    HW119698   7.149   5.102   5.430 -0.1157 -0.2583  1.2171
 2923SOL    HW219699   7.308   5.122   5.464  0.6149  0.0802 -2.2639
 2924SOL     OW19700   7.350   0.913   3.537 -0.2943 -0.7695  0.0848
 2924SOL    HW119701   7.352   1.012   3.548 -0.8836 -0.8922  1.4638
 2924SOL    HW219702   7.441   0.875   3.554 -0.2434 -0.5321  0.3471
 2925SOL     OW19703   6.866   9.744   4.240 -0.0140  0.2181 -0.3058
 2925SOL    HW119704   6.838   9.791   4.156 -0.2865  1.5556  0.5060
 2925SOL    HW219705   6.910   9.810   4.301  0.7745 -0.8862  0.3370
 2926SOL     OW19706   4.306   3.702   3.669 -0.5592  0.0111  0.4313
 2926SOL    HW119707   4.254   3.619   3.650 -1.3327  0.6648 -0.3414
 2926SOL    HW219708   4.256   3.758   3.736 -0.7239  0.5098 -0.1006
 2927SOL     OW19709   0.101   3.649   0.936 -0.6494 -0.2743  0.4860
 2927SOL    HW119710   0.170   3.626   1.005 -0.8381 -1.0911  0.4092
 2927SOL    HW219711   0.146   3.686   0.855 -0.3932  0.2923  0.8763
 2928SOL     OW19712   2.868   6.799   2.669 -0.0379  0.0009  0.3181
 2928SOL    HW119713   2.852   6.873   2.604  0.7266 -0.8716 -0.8790
 2928SOL    HW219714   2.788   6.790   2.729  0.3828  2.6216  1.3447
 2929SOL     OW19715   0.594   3.623   2.731  0.2384  0.6651  0.3438
 2929SOL    HW119716   0.515   3.629   2.669  1.3903  2.1350 -1.0198
 2929SOL    HW219717   0.599   3.705   2.787  0.5153  0.3547  0.7752
 2930SOL     OW19718   9.175   3.848   2.160  0.2335  0.2614 -0.1069
 2930SOL    HW119719   9.154   3.804   2.073 -1.9890 -0.9256  0.9809
 2930SOL    HW219720   9.116   3.810   2.231  2.4534  0.7562  2.0550
 2931SOL     OW19721   3.986   1.503   4.915  0.3200 -0.2716  0.1361
 2931SOL    HW119722   4.016   1.449   4.837 -0.1567  0.9499 -0.9066
 2931SOL    HW219723   4.035   1.589   4.918  0.3768 -0.3290  1.2279
 2932SOL     OW19724   0.565   0.056   0.822 -0.6839 -0.3496 -0.4166
 2932SOL    HW119725   0.505   0.110   0.881 -1.0250  0.5354 -1.5586
 2932SOL    HW219726   0.659   0.089   0.830 -0.7238 -0.2576 -0.3306
 2933SOL     OW19727   6.686   0.673   2.685  0.1169  0.2365 -0.0488
 2933SOL    HW119728   6.624   0.692   2.608 -0.9906 -0.8386  0.5567
 2933SOL    HW219729   6.686   0.751   2.747 -0.2389  0.4564 -0.3187
 2934SOL     OW19730   0.825   2.019   2.116  0.3520  0.2067 -0.2269
 2934SOL    HW119731   0.896   2.015   2.046  0.4586 -2.7617 -0.0266
 2934SOL    HW219732   0.746   2.070   2.081  1.1523  0.4079 -1.7874
 2935SOL     OW19733   3.237   0.561   1.666  0.1119  0.2088 -0.7537
 2935SOL    HW119734   3.257   0.473   1.623 -0.6489 -0.7538  0.8111
 2935SOL    HW219735   3.151   0.597   1.630  0.3127  0.1958 -1.2417
 2936SOL     OW19736   1.486   6.845   0.827 -0.0002 -0.1239 -0.5284
 2936SOL    HW119737   1.536   6.828   0.912 -1.0330 -0.4249  0.0166
 2936SOL    HW219738   1.550   6.841   0.750  0.6264 -1.5668  0.0569
 2937SOL     OW19739   1.355   9.523   1.690 -0.1076  0.0650  0.1269
 2937SOL    HW119740   1.312   9.436   1.668 -0.7529  0.2377  0.6687
 2937SOL    HW219741   1.397   9.562   1.608 -1.9628  0.4353 -0.6761
 2938SOL     OW19742   9.081   5.587   0.285  0.3635 -0.3042 -0.5589
 2938SOL    HW119743   9.067   5.524   0.361  0.3980  0.6154  0.2062
 2938SOL    HW219744   8.993   5.626   0.258  0.5495  0.4513 -0.0655
 2939SOL     OW19745   7.886   7.489   3.252  0.1137  0.1666 -0.6235
 2939SOL    HW119746   7.900   7.390   3.249  2.9413  0.5219 -0.7059
 2939SOL    HW219747   7.935   7.526   3.332 -0.3299  1.5724 -1.0033
 2940SOL     OW19748   9.560   6.423   0.816  0.2724 -0.2372  0.4455
 2940SOL    HW119749   9.625   6.378   0.755  1.0657  0.0773  1.0478
 2940SOL    HW219750   9.471   6.430   0.771  0.7374 -0.3845 -0.5070
 2941SOL     OW19751   1.311   3.761   3.790 -0.3019 -0.5818 -0.1127
 2941SOL    HW119752   1.280   3.687   3.731 -0.7297 -0.7272  0.2932
 2941SOL    HW219753   1.240   3.783   3.857 -0.0950  0.0540 -0.0986
 2942SOL     OW19754   0.076   8.110   4.595  0.0323  0.2143 -0.4091
 2942SOL    HW119755   0.018   8.043   4.550 -1.3529  1.1602 -0.0753
 2942SOL    HW219756   0.035   8.136   4.683  0.9192  0.9541 -0.2006
 2943SOL     OW19757   7.576   7.726   3.652 -0.0311 -0.1413 -0.4573
 2943SOL    HW119758   7.477   7.742   3.653  0.0174  0.1435 -0.2140
 2943SOL    HW219759   7.594   7.630   3.633 -0.3849 -0.4831  0.9319
 2944SOL     OW19760   8.938   0.642   4.342  0.2330 -0.2155  0.2949
 2944SOL    HW119761   8.894   0.676   4.424 -0.1278  0.7612 -0.2976
 2944SOL    HW219762   8.870   0.629   4.270  0.5837 -0.8144  0.0619
 2945SOL     OW19763   2.643   6.917   1.233  0.4989 -0.0473 -0.0572
 2945SOL    HW119764   2.569   6.867   1.278 -1.5719  1.4669 -1.6684
 2945SOL    HW219765   2.645   6.894   1.136  0.6619  1.5954 -0.4638
 2946SOL     OW19766   1.770   3.298   1.659 -0.7698  0.2593  0.1850
 2946SOL    HW119767   1.756   3.270   1.754 -1.6083  0.9367  0.2646
 2946SOL    HW219768   1.777   3.397   1.654 -1.4748  0.2786 -0.5513
 2947SOL     OW19769   4.598   3.023   5.097  0.1075 -0.0121 -0.2669
 2947SOL    HW119770   4.604   2.956   5.024 -0.0271 -0.2809 -0.0332
 2947SOL    HW219771   4.588   3.115   5.058 -0.4201 -0.2000 -0.5834
 2948SOL     OW19772   1.257   5.846   3.146  0.1497  0.3742  0.0930
 2948SOL    HW119773   1.276   5.869   3.050 -0.6030 -0.4169 -0.2517
 2948SOL    HW219774   1.272   5.748   3.160  0.3391  0.5059  0.8103
 2949SOL     OW19775   4.980   0.827   4.032  0.2970  0.3967  0.8153
 2949SOL    HW119776   4.967   0.730   4.009  0.2159  0.5503  0.2217
 2949SOL    HW219777   5.077   0.844   4.051  0.6109  0.5829 -0.8692
 2950SOL     OW19778   3.360   1.512   0.648  0.1641  0.7415 -0.4845
 2950SOL    HW119779   3.384   1.436   0.710  0.5627  1.3366  0.0953
 2950SOL    HW219780   3.442   1.543   0.601 -0.5416 -1.3862 -3.2467
 2951SOL     OW19781   2.135   9.518   3.142 -0.2864  0.1771  0.3926
 2951SOL    HW119782   2.153   9.464   3.224 -1.7548  1.3996  1.5560
 2951SOL    HW219783   2.209   9.584   3.128 -0.9072  1.1897  1.7847
 2952SOL     OW19784   2.542   2.311   2.946  0.4677  0.2714 -0.1397
 2952SOL    HW119785   2.582   2.368   3.017  1.4562 -2.6504  1.7367
 2952SOL    HW219786   2.487   2.238   2.988 -0.3238 -0.4978 -2.4157
 2953SOL     OW19787   5.441   8.717   4.335 -0.3375  0.6028 -0.3041
 2953SOL    HW119788   5.536   8.702   4.308 -0.3188 -0.3733  0.2887
 2953SOL    HW219789   5.382   8.713   4.254 -0.0516 -0.3149 -0.4674
 2954SOL     OW19790   0.240   7.536   3.759 -0.2338 -0.6031  0.2428
 2954SOL    HW119791   0.222   7.440   3.779  0.1034 -0.9983 -1.2703
 2954SOL    HW219792   0.257   7.585   3.844 -1.8529 -1.5720  1.1591
 2955SOL     OW19793   3.923   2.427   2.582 -0.2732 -0.8177  0.0742
 2955SOL    HW119794   3.986   2.376   2.640  1.9087  1.2066 -0.4200
 2955SOL    HW219795   3.887   2.367   2.511  0.6640 -2.1397  0.6894
 2956SOL     OW19796   1.501   1.711   0.362 -0.3488 -0.2043  0.1893
 2956SOL    HW119797   1.577   1.703   0.427 -0.4145  2.1087  0.5843
 2956SOL    HW219798   1.527   1.668   0.276  0.4793 -1.5833  1.1001
 2957SOL     OW19799   0.250   4.502   4.296  0.0271  0.1187  0.0637
 2957SOL    HW119800   0.235   4.407   4.269  1.0836 -0.2465  0.7528
 2957SOL    HW219801   0.343   4.513   4.331 -0.8491  0.8756  2.2450
 2958SOL     OW19802   7.274   9.605   5.064  0.0708 -0.1181  0.3861
 2958SOL    HW119803   7.340   9.680   5.058 -0.1917  0.1760  1.1572
 2958SOL    HW219804   7.250   9.574   4.972  0.0373  0.8645  0.0638
 2959SOL     OW19805   2.851   7.019   0.095  0.5907 -0.0112 -0.6621
 2959SOL    HW119806   2.807   7.032   0.006  1.0474 -1.4969 -1.1253
 2959SOL    HW219807   2.843   6.923   0.121  3.1218 -0.2180 -0.5141
 2960SOL     OW19808   3.485   2.473   2.061  0.0052 -0.6934  0.0578
 2960SOL    HW119809   3.569   2.438   2.020 -0.3693 -1.3838 -0.1408
 2960SOL    HW219810   3.506   2.544   2.128  0.6595  0.1797 -1.0612
 2961SOL     OW19811   0.214   3.330   4.997 -0.3693 -0.0829 -0.2611
 2961SOL    HW119812   0.193   3.275   4.916 -1.5067  1.2189 -0.8690
 2961SOL    HW219813   0.274   3.406   4.971  0.0526 -0.2257  0.2981
 2962SOL     OW19814   3.560   3.516   0.323  0.0966 -0.4815 -0.3683
 2962SOL    HW119815   3.471   3.507   0.367  0.9033 -2.4218  0.8751
 2962SOL    HW219816   3.547   3.558   0.232 -2.0899 -0.9575 -0.3116
 2963SOL     OW19817   0.331   9.144   4.117 -0.2774 -0.2148  0.0637
 2963SOL    HW119818   0.378   9.061   4.147  0.6108 -0.0030 -0.7393
 2963SOL    HW219819   0.358   9.221   4.175  1.3650  0.1739 -1.1865
 2964SOL     OW19820   3.768   4.644   5.437 -0.2557 -0.6347  0.0727
 2964SOL    HW119821   3.695   4.589   5.477  0.1845 -1.3974 -0.1668
 2964SOL    HW219822   3.728   4.721   5.386 -0.8869 -1.0279 -0.0317
 2965SOL     OW19823   8.260   3.552   1.494  0.1353 -0.3198  0.2011
 2965SOL    HW119824   8.201   3.627   1.464 -1.4930 -1.4027  0.6019
 2965SOL    HW219825   8.223   3.465   1.459 -0.1993 -1.3111  2.9006
 2966SOL     OW19826   3.105   1.088   5.355  0.0683  0.2943 -0.4801
 2966SOL    HW119827   3.093   0.998   5.397  0.6231  0.3744 -0.1509
 2966SOL    HW219828   3.180   1.085   5.290 -1.2369 -0.0160 -2.0238
 2967SOL     OW19829   0.365   2.271   0.069  0.1592  0.3193 -0.2969
 2967SOL    HW119830   0.353   2.262   0.168  1.2073 -0.4622 -0.2382
 2967SOL    HW219831   0.462   2.282   0.048 -0.1108  0.9617 -1.2029
 2968SOL     OW19832   4.733   2.205   2.617  0.3197  0.0334  0.2997
 2968SOL    HW119833   4.678   2.201   2.701 -0.9015  1.2941 -0.4139
 2968SOL    HW219834   4.809   2.268   2.630 -1.1491  1.9686 -0.2379
 2969SOL     OW19835   0.238   1.898   4.272  0.6033  0.2658  0.0986
 2969SOL    HW119836   0.256   1.861   4.181  3.1381 -0.1907  0.7474
 2969SOL    HW219837   0.200   1.827   4.330 -0.3393  0.3633 -0.3899
 2970SOL     OW19838   2.113   5.276   3.740  0.2638  0.2560 -0.6053
 2970SOL    HW119839   2.166   5.213   3.797 -1.8448 -0.4059  0.6903
 2970SOL    HW219840   2.017   5.271   3.766 -0.3938  1.7127 -2.6498
 2971SOL     OW19841   0.263   3.865   2.944 -0.4076 -0.3647 -0.3578
 2971SOL    HW119842   0.168   3.894   2.951 -0.4060 -0.4321 -0.0464
 2971SOL    HW219843   0.267   3.765   2.945 -0.3888 -0.3742 -1.1053
 2972SOL     OW19844   7.835   1.366   2.264  0.1631 -0.4179 -0.3078
 2972SOL    HW119845   7.902   1.371   2.190  0.9626 -1.1846  0.3535
 2972SOL    HW219846   7.808   1.271   2.278 -1.7822 -0.0026 -1.2012
 2973SOL     OW19847   8.394   4.933   1.883 -0.9694  0.4491 -0.2969
 2973SOL    HW119848   8.379   4.850   1.828 -0.4363  0.5648 -0.6224
 2973SOL    HW219849   8.308   4.960   1.927 -1.0357 -0.5755  0.2267
 2974SOL     OW19850   0.287   6.569   2.799  0.8579  0.0387  0.0988
 2974SOL    HW119851   0.197   6.602   2.828  0.6959 -0.4638  0.1743
 2974SOL    HW219852   0.326   6.513   2.872  1.5067  0.7681  0.3203
 2975SOL     OW19853   0.003   4.378   3.971 -0.1881  0.1096  0.4567
 2975SOL    HW119854   0.079   4.426   3.926  1.4490 -2.6843  0.1414
 2975SOL    HW219855  -0.070   4.362   3.905  0.7886 -0.9785 -0.3853
 2976SOL     OW19856   2.481   7.191   5.504  0.9384 -0.3117 -0.4550
 2976SOL    HW119857   2.426   7.194   5.587  1.0357  0.2391 -0.4114
 2976SOL    HW219858   2.420   7.199   5.424  0.8888 -0.3901 -0.4258
 2977SOL     OW19859   5.077   7.930   3.926  0.6747 -0.0511  0.1758
 2977SOL    HW119860   4.980   7.931   3.951  0.6847 -1.4992  0.3251
 2977SOL    HW219861   5.133   7.948   4.007  0.5251  1.7600 -0.0922
 2978SOL     OW19862   4.633   0.921   1.118  0.4570  0.1118 -0.0110
 2978SOL    HW119863   4.667   0.927   1.024  0.3812 -0.9100 -0.1117
 2978SOL    HW219864   4.661   0.834   1.158  0.1838  0.3915  0.7982
 2979SOL     OW19865   5.432   8.999   2.778 -0.4083  0.1198  0.5368
 2979SOL    HW119866   5.362   8.933   2.751  0.9098 -1.2633  0.3994
 2979SOL    HW219867   5.471   9.041   2.696 -0.8200  0.6387  0.5999
 2980SOL     OW19868   1.871   7.878   3.945  0.6134  0.4638  0.4927
 2980SOL    HW119869   1.953   7.928   3.970  1.6705 -0.2345 -1.4701
 2980SOL    HW219870   1.819   7.930   3.878  1.2338 -0.5994 -0.8415
 2981SOL     OW19871   5.931   9.395   1.465  0.1582 -0.1750 -0.0025
 2981SOL    HW119872   5.932   9.458   1.388 -1.7431 -0.5829 -0.3806
 2981SOL    HW219873   5.929   9.301   1.431  1.8324 -0.4326  0.5617
 2982SOL     OW19874   7.526   8.089   3.262 -0.1759 -0.1498 -0.4694
 2982SOL    HW119875   7.566   8.004   3.296 -0.1796  0.1397  0.2657
 2982SOL    HW219876   7.466   8.128   3.332  0.7114  1.0461 -0.3608
 2983SOL     OW19877   4.819   8.490   2.323 -0.3804 -0.3709 -0.1548
 2983SOL    HW119878   4.749   8.522   2.386  1.7990 -0.0628  2.1991
 2983SOL    HW219879   4.814   8.390   2.315 -0.9707 -0.3674  0.1511
 2984SOL     OW19880   4.130   2.130   3.471 -0.5678  0.3855  0.0019
 2984SOL    HW119881   4.151   2.226   3.449  0.7929  0.0394 -0.2460
 2984SOL    HW219882   4.205   2.072   3.442 -0.6375 -0.5717  1.6837
 2985SOL     OW19883   9.725   9.354   0.550  0.1455 -0.2470 -0.1509
 2985SOL    HW119884   9.649   9.289   0.542  0.6807 -0.7872 -1.0012
 2985SOL    HW219885   9.689   9.446   0.565 -0.6031 -0.8537  1.8551
 2986SOL     OW19886   6.822   7.366   1.915 -0.2659 -0.1193  0.9012
 2986SOL    HW119887   6.825   7.460   1.947 -1.1416 -0.9577  3.5060
 2986SOL    HW219888   6.727   7.339   1.899 -0.1310 -1.0638  1.6935
 2987SOL     OW19889   2.547   3.544   4.179 -0.7434 -0.0601  0.6518
 2987SOL    HW119890   2.623   3.532   4.115  1.1010  0.4031  2.6934
 2987SOL    HW219891   2.472   3.592   4.134  0.4497  0.0961 -1.2090
 2988SOL     OW19892   2.638   4.649   1.118 -0.5832 -0.6195 -0.3884
 2988SOL    HW119893   2.666   4.553   1.121 -0.3136 -0.5109  1.2319
 2988SOL    HW219894   2.717   4.707   1.136 -0.8815 -0.1195 -0.6888
 2989SOL     OW19895   8.345   7.030   5.627  0.2002  0.4372 -0.4043
 2989SOL    HW119896   8.363   7.075   5.540  1.8700  1.3337  0.3851
 2989SOL    HW219897   8.375   7.089   5.702 -0.2780 -0.7562  0.7414
 2990SOL     OW19898   4.218   6.677   3.242 -0.7666 -0.2177 -0.0840
 2990SOL    HW119899   4.216   6.761   3.296  0.9463 -0.4602  0.4077
 2990SOL    HW219900   4.246   6.601   3.300 -0.8920 -0.8595 -0.8521
 2991SOL     OW19901   3.372   1.795   5.373 -0.1430  0.4865 -0.1495
 2991SOL    HW119902   3.314   1.715   5.357  0.7139 -0.8905  3.1700
 2991SOL    HW219903   3.316   1.869   5.411 -0.1618 -0.1516  1.1267
 2992SOL     OW19904   7.063   7.627   2.587  0.1352 -0.4953 -0.5657
 2992SOL    HW119905   7.119   7.551   2.554  0.0127 -0.6795 -0.3498
 2992SOL    HW219906   7.067   7.631   2.687 -0.9327 -1.0416 -0.5002
 2993SOL     OW19907   2.878   3.968   4.731  0.2637 -0.5301 -0.0705
 2993SOL    HW119908   2.845   3.919   4.650  3.1186 -0.7895 -1.1586
 2993SOL    HW219909   2.904   4.061   4.704 -0.5477 -0.0042  0.9576
 2994SOL     OW19910   4.099   0.463   4.318  0.1644  0.4082 -0.4808
 2994SOL    HW119911   4.058   0.508   4.397  1.0046  0.1820  0.0843
 2994SOL    HW219912   4.161   0.526   4.272 -1.1700  0.9233 -1.6394
 2995SOL     OW19913   1.956   3.494   5.594  0.2106 -0.7568  0.1437
 2995SOL    HW119914   1.891   3.516   5.521 -1.2567 -2.3027  0.9402
 2995SOL    HW219915   1.971   3.576   5.650 -1.0236 -0.3476 -0.0853
 2996SOL     OW19916   2.278   3.014   4.568  0.1890 -0.0794  0.0791
 2996SOL    HW119917   2.378   3.014   4.571  0.2749 -3.3941 -0.5573
 2996SOL    HW219918   2.243   2.954   4.640 -1.2848 -0.0656 -0.6190
 2997SOL     OW19919   7.832   1.071   1.832 -0.2922 -0.0050  0.1510
 2997SOL    HW119920   7.845   1.065   1.733  0.3650  0.9098  0.1839
 2997SOL    HW219921   7.757   1.133   1.852  0.9068  1.4098  0.3022
 2998SOL     OW19922   7.632   1.447   4.618  0.1239  0.0746 -0.2975
 2998SOL    HW119923   7.583   1.503   4.685 -0.8516 -0.6028 -0.4329
 2998SOL    HW219924   7.664   1.363   4.662  3.4324  1.6326  0.4531
 2999SOL     OW19925   0.196   3.200   4.751 -0.3110 -0.0792  0.5695
 2999SOL    HW119926   0.140   3.188   4.669 -1.8262 -0.0216  1.5760
 2999SOL    HW219927   0.284   3.155   4.739 -0.7233 -0.5043 -0.8882
 3000SOL     OW19928   1.812   3.542   1.143  0.4737 -0.8359 -0.7762
 3000SOL    HW119929   1.906   3.575   1.134  1.0202 -2.5425 -1.5720
 3000SOL    HW219930   1.763   3.557   1.057 -0.0533  0.2198 -0.3031
 3001SOL     OW19931   0.695   0.375   0.289  0.2074  0.1700 -0.2355
 3001SOL    HW119932   0.788   0.338   0.295  0.3406  0.8325  2.0764
 3001SOL    HW219933   0.697   0.464   0.243  0.6084 -0.1882 -0.9097
 3002SOL     OW19934   3.706   1.484   5.204  0.1212  0.1244  0.0305
 3002SOL    HW119935   3.736   1.571   5.163 -0.5968  0.1978 -0.3586
 3002SOL    HW219936   3.773   1.413   5.185  0.0967  0.3057 -0.7412
 3003SOL     OW19937   5.325   8.667   4.089  0.3784 -0.9384 -0.1614
 3003SOL    HW119938   5.374   8.753   4.079  0.5961 -1.0521 -0.0740
 3003SOL    HW219939   5.387   8.591   4.070  0.1129 -1.0662 -0.5303
 3004SOL     OW19940   4.927   3.003   2.302 -0.4758  0.5242  0.8563
 3004SOL    HW119941   4.995   3.020   2.373 -1.3579  0.4795  1.7284
 3004SOL    HW219942   4.935   3.072   2.231 -0.7661  1.6539  1.9022
 3005SOL     OW19943   1.616   3.177   3.733 -0.6625 -0.2898  0.1664
 3005SOL    HW119944   1.544   3.240   3.764 -1.9879 -2.5033  1.7786
 3005SOL    HW219945   1.625   3.183   3.634 -3.2057 -0.0514 -0.0953
 3006SOL     OW19946   8.453   8.960   4.805 -0.1237 -0.1846  0.5738
 3006SOL    HW119947   8.384   8.942   4.736  0.7214 -1.2658 -0.0053
 3006SOL    HW219948   8.417   9.024   4.873 -0.9023  1.0042 -0.9459
 3007SOL     OW19949   4.787   7.793   3.382 -0.2522 -0.0396  0.2533
 3007SOL    HW119950   4.840   7.836   3.454 -1.9731  1.1279  0.8496
 3007SOL    HW219951   4.769   7.697   3.407  0.0088  0.0774  0.8982
 3008SOL     OW19952   1.389   5.064   1.685 -0.2722 -0.1724  1.0444
 3008SOL    HW119953   1.427   5.027   1.769 -0.5417 -1.4598  0.6155
 3008SOL    HW219954   1.336   5.146   1.705  1.6720  0.9226  1.8039
 3009SOL     OW19955   0.495   9.492   1.966 -0.0952 -0.2684  0.0149
 3009SOL    HW119956   0.454   9.404   1.943 -2.1600 -0.3331  3.5027
 3009SOL    HW219957   0.422   9.556   1.992  1.5887  1.6187  0.2123
 3010SOL     OW19958   7.393   8.425   3.120 -0.3360  0.1935 -0.1740
 3010SOL    HW119959   7.472   8.363   3.114 -0.0939  0.6033 -1.1860
 3010SOL    HW219960   7.352   8.417   3.211  1.8733  1.2019  0.9523
 3011SOL     OW19961   0.031   4.754   3.801 -0.3409  0.3216 -0.1274
 3011SOL    HW119962   0.010   4.695   3.723  1.2456 -0.5211  0.0663
 3011SOL    HW219963  -0.017   4.841   3.791 -1.1375 -0.2460 -1.4079
 3012SOL     OW19964   6.852   7.001   3.879 -0.0173  0.1665 -0.2859
 3012SOL    HW119965   6.859   6.944   3.961 -0.2788  0.0803 -0.3235
 3012SOL    HW219966   6.876   6.946   3.798  0.6365  0.3599 -0.2276
 3013SOL     OW19967   6.212   9.677   1.796 -0.4615  0.0452 -0.1201
 3013SOL    HW119968   6.177   9.588   1.766 -0.5304 -0.2332  0.7854
 3013SOL    HW219969   6.181   9.696   1.889 -0.2611  0.9168 -0.2271
 3014SOL     OW19970   2.992   4.968   2.070  0.1897 -0.2383  0.0331
 3014SOL    HW119971   2.970   5.054   2.025  0.6999 -0.5963 -0.9232
 3014SOL    HW219972   3.068   4.924   2.022  1.9522  0.2098  2.2841
 3015SOL     OW19973   0.197   6.812   1.025  0.6299 -0.3260  0.4156
 3015SOL    HW119974   0.263   6.778   1.091  1.5645 -0.3520 -0.5198
 3015SOL    HW219975   0.115   6.755   1.026  0.5402 -0.1718  1.7189
 3016SOL     OW19976   2.749   2.000   1.110 -0.1812  0.3503 -0.1531
 3016SOL    HW119977   2.664   1.966   1.151 -0.1737  0.4434 -0.0614
 3016SOL    HW219978   2.785   1.931   1.048 -0.2087  0.2208 -0.0263
 3017SOL     OW19979   1.329   0.709   3.409  0.3685 -0.1555  0.1254
 3017SOL    HW119980   1.403   0.650   3.442  1.5920  0.2466 -1.7695
 3017SOL    HW219981   1.277   0.660   3.339  1.3008  0.9068 -1.3570
 3018SOL     OW19982   5.126   0.543   2.087  0.1480  0.0009  0.3924
 3018SOL    HW119983   5.100   0.507   2.177  0.4394 -1.8242 -0.2441
 3018SOL    HW219984   5.110   0.474   2.017  0.3522  1.2522 -0.9282
 3019SOL     OW19985   3.574   8.970   3.888 -0.5320 -0.4863  0.1857
 3019SOL    HW119986   3.548   8.879   3.856  0.1601  0.1954 -2.4080
 3019SOL    HW219987   3.560   9.036   3.815  1.2871  1.1001  1.2332
 3020SOL     OW19988   2.110   0.422   3.797 -0.1047  0.2123  0.2151
 3020SOL    HW119989   2.162   0.507   3.807  0.0907 -0.0423  1.3898
 3020SOL    HW219990   2.150   0.351   3.855  1.0095 -1.2896 -2.2840
 3021SOL     OW19991   9.988   9.447   3.235  0.1741  0.4108  0.4972
 3021SOL    HW119992  10.063   9.411   3.291  1.4637  0.9651 -0.8255
 3021SOL    HW219993   9.989   9.547   3.238  0.6884  0.4685 -1.0178
 3022SOL     OW19994   0.392   2.645   3.750  0.3215 -0.2406 -0.0484
 3022SOL    HW119995   0.335   2.567   3.777  2.2869 -1.5460  0.4352
 3022SOL    HW219996   0.400   2.647   3.650  1.0407 -1.2491 -0.0192
 3023SOL     OW19997   8.105   9.088   4.830  0.5242 -0.3604 -0.0031
 3023SOL    HW119998   8.166   9.127   4.899 -0.0541 -0.6520  0.6844
 3023SOL    HW219999   8.082   8.994   4.856 -1.5118  0.2828  0.6115
 3024SOL     OW20000   8.917   0.689   5.600 -0.3256  0.6081 -0.1693
 3024SOL    HW120001   8.834   0.707   5.547  0.5774 -1.5053 -2.3810
 3024SOL    HW220002   8.994   0.740   5.560  0.0967  0.0223 -0.1216
 3025SOL     OW20003   9.790   5.779   1.351 -0.0020 -0.0598 -0.0716
 3025SOL    HW120004   9.744   5.698   1.386  2.2677 -0.9701  0.9135
 3025SOL    HW220005   9.800   5.773   1.252  0.4286 -1.1528  0.0352
 3026SOL     OW20006   1.859   6.237   1.746 -0.3812 -0.5563 -0.8769
 3026SOL    HW120007   1.761   6.221   1.763 -0.7648 -0.0459 -2.4722
 3026SOL    HW220008   1.871   6.264   1.650  1.2025  0.4478 -0.3990
 3027SOL     OW20009   2.770   6.265   0.194 -0.4240 -0.1196  0.5167
 3027SOL    HW120010   2.857   6.217   0.178 -0.8014  0.1082 -2.6942
 3027SOL    HW220011   2.773   6.354   0.149 -2.6360 -0.4872 -0.4373
 3028SOL     OW20012   2.866   8.081   1.760 -0.1934 -0.4574  0.3059
 3028SOL    HW120013   2.848   8.071   1.858 -0.3918  1.8913  0.5259
 3028SOL    HW220014   2.789   8.128   1.717 -0.0958 -1.4543 -0.9891
 3029SOL     OW20015   4.786   4.485   0.232  0.2732 -0.3808  0.1160
 3029SOL    HW120016   4.755   4.562   0.288  0.7826 -0.8534  1.0649
 3029SOL    HW220017   4.761   4.501   0.137  0.4362  0.9933  0.2912
 3030SOL     OW20018   1.397   9.104   2.203  0.2687 -0.6070 -0.5712
 3030SOL    HW120019   1.353   9.182   2.157  0.7703 -0.0405 -0.1020
 3030SOL    HW220020   1.408   9.125   2.301  2.1966 -0.4633 -0.8018
 3031SOL     OW20021   8.836   7.682   0.129  0.3240 -0.3792 -0.0586
 3031SOL    HW120022   8.821   7.683   0.228 -0.9037  0.3523 -0.2521
 3031SOL    HW220023   8.906   7.749   0.106 -1.8796  1.9905 -0.0656
 3032SOL     OW20024   3.295   3.893   3.567 -0.1711 -0.2129 -0.0628
 3032SOL    HW120025   3.245   3.893   3.654  0.7197 -0.7126  0.4539
 3032SOL    HW220026   3.288   3.984   3.525  1.1405  0.6490  1.5458
 3033SOL     OW20027   3.611   9.200   0.856 -0.1964  0.0171  0.5817
 3033SOL    HW120028   3.684   9.269   0.854 -1.6137  1.5382 -0.9196
 3033SOL    HW220029   3.632   9.127   0.791  0.7825 -0.4141  1.3722
 3034SOL     OW20030   3.881   6.613   3.141  0.3258  0.2426 -0.5723
 3034SOL    HW120031   3.916   6.519   3.141 -0.0907  0.0901  0.2403
 3034SOL    HW220032   3.939   6.669   3.082  1.6860 -0.1130  0.4011
 3035SOL     OW20033   4.393   6.018   2.265  0.0627 -0.4359  0.3973
 3035SOL    HW120034   4.395   6.072   2.181 -2.1886 -2.7916 -1.2671
 3035SOL    HW220035   4.433   6.071   2.340 -0.4089  2.7838 -1.5194
 3036SOL     OW20036   3.087   3.818   4.207 -0.2123 -0.8383  0.0944
 3036SOL    HW120037   3.074   3.908   4.167  2.2475 -0.4574  0.0372
 3036SOL    HW220038   3.130   3.757   4.140  2.8056 -0.5460  1.6367
 3037SOL     OW20039   5.562   0.211   1.518  0.2657  0.1260 -0.4462
 3037SOL    HW120040   5.632   0.140   1.525 -1.7914 -1.8580  0.5619
 3037SOL    HW220041   5.526   0.213   1.425  0.0030 -0.4765 -0.3583
 3038SOL     OW20042   3.592   5.300   4.901  0.0679  0.3010  0.1298
 3038SOL    HW120043   3.593   5.399   4.889 -0.5545  0.3121  0.1642
 3038SOL    HW220044   3.613   5.278   4.996  1.8353  0.3331 -0.2332
 3039SOL     OW20045   2.851   6.793   3.976  0.3337 -0.7282 -0.7161
 3039SOL    HW120046   2.893   6.706   4.002 -0.9249 -1.3510 -0.7381
 3039SOL    HW220047   2.790   6.779   3.899 -1.3002 -0.1878  0.4394
 3040SOL     OW20048   3.991   4.064   3.616 -0.0611  0.5799 -0.2474
 3040SOL    HW120049   3.948   4.063   3.525 -1.7282 -1.7352  0.5151
 3040SOL    HW220050   3.925   4.033   3.684  1.9586 -0.1639  1.4151
 3041SOL     OW20051   2.567   6.827   1.881  0.6080 -0.1987  0.5886
 3041SOL    HW120052   2.521   6.847   1.968  1.1575  0.5394  0.7164
 3041SOL    HW220053   2.617   6.908   1.851  0.6052 -0.5267 -0.3066
 3042SOL     OW20054   2.448   1.317   5.165  0.2861 -0.4291  0.1488
 3042SOL    HW120055   2.466   1.221   5.143  0.5339 -0.0353 -1.3780
 3042SOL    HW220056   2.349   1.330   5.175  0.0031 -0.2194 -2.6667
 3043SOL     OW20057   3.452   1.602   4.126  0.0881 -0.2660 -0.0050
 3043SOL    HW120058   3.515   1.662   4.078 -0.8466  0.4883 -0.3227
 3043SOL    HW220059   3.410   1.538   4.062  0.3000 -0.5575  0.1476
 3044SOL     OW20060   4.482   8.533   5.331 -0.0671 -0.7159  0.2528
 3044SOL    HW120061   4.472   8.460   5.264 -0.0821 -0.6210  0.1508
 3044SOL    HW220062   4.418   8.519   5.406 -0.8586 -0.1960 -0.3217
 3045SOL     OW20063   4.213   2.589   3.197 -0.5464 -0.2402  0.1174
 3045SOL    HW120064   4.170   2.679   3.202  0.3488  0.1343  1.5174
 3045SOL    HW220065   4.146   2.521   3.168 -1.7812  0.5154  1.1703
 3046SOL     OW20066   8.764   6.325   2.626  0.7166 -0.0286  0.4802
 3046SOL    HW120067   8.777   6.380   2.708  0.1195 -0.8539  1.1308
 3046SOL    HW220068   8.756   6.229   2.651  1.8352 -0.4313 -0.6521
 3047SOL     OW20069   2.764   3.461   2.104 -0.1193 -0.3574 -0.2280
 3047SOL    HW120070   2.733   3.553   2.132  0.0705  0.3457 -2.2454
 3047SOL    HW220071   2.848   3.438   2.153 -0.6888  0.1225  1.0151
 3048SOL     OW20072   4.834   6.913   2.176 -0.2997  0.2531 -0.1301
 3048SOL    HW120073   4.875   6.919   2.267 -1.2542  1.2613  0.2477
 3048SOL    HW220074   4.735   6.916   2.184 -0.3696  2.1224 -1.3025
 3049SOL     OW20075   2.916   2.982   2.537  0.3818  0.4007 -0.0595
 3049SOL    HW120076   2.956   3.034   2.613  0.8705 -0.2933  0.1569
 3049SOL    HW220077   2.863   3.044   2.479  2.5518  1.5052 -0.9033
 3050SOL     OW20078   6.706   1.073   3.341 -0.1835  0.1191  0.0547
 3050SOL    HW120079   6.801   1.105   3.343  0.1081 -0.6657 -0.8617
 3050SOL    HW220080   6.645   1.150   3.319  0.3064  0.4842 -0.0326
 3051SOL     OW20081   4.413   3.546   0.666 -0.2927  0.5242  0.3592
 3051SOL    HW120082   4.437   3.606   0.741 -0.5389 -0.4553  1.2366
 3051SOL    HW220083   4.314   3.547   0.652 -0.4415 -0.6151  1.2073
 3052SOL     OW20084   8.646   5.779   1.413  0.3066 -0.2360  0.0260
 3052SOL    HW120085   8.598   5.810   1.331  0.5985  3.1999  1.0478
 3052SOL    HW220086   8.743   5.765   1.391  0.7080  2.2134  0.0765
 3053SOL     OW20087   6.703   9.373   4.030 -0.3843 -0.1559 -0.2116
 3053SOL    HW120088   6.650   9.426   3.964 -0.5907 -0.9797 -0.7162
 3053SOL    HW220089   6.768   9.315   3.980 -2.0203 -2.3943  0.1928
 3054SOL     OW20090   1.227   0.738   3.907 -0.2222 -0.0310 -0.3855
 3054SOL    HW120091   1.267   0.814   3.959 -0.7660 -1.2037  1.7802
 3054SOL    HW220092   1.291   0.709   3.836  0.7621  1.2475 -0.0386
 3055SOL     OW20093   1.751   1.400   3.975  0.0472  0.0010  0.1068
 3055SOL    HW120094   1.774   1.303   3.986  0.3856 -0.3321 -3.0758
 3055SOL    HW220095   1.835   1.454   3.977  0.2917 -0.2417 -2.2364
 3056SOL     OW20096   0.105   9.630   1.167  0.5599 -0.3716 -0.2705
 3056SOL    HW120097   0.102   9.555   1.232 -0.3716  0.5758  0.8051
 3056SOL    HW220098   0.027   9.623   1.105  0.3854 -0.2103 -0.0706
 3057SOL     OW20099   0.767   2.938   5.054 -0.6910  0.3357 -0.0907
 3057SOL    HW120100   0.823   3.017   5.078 -0.5880  0.0294  0.6750
 3057SOL    HW220101   0.813   2.883   4.985 -0.6959  0.8639 -0.5166
 3058SOL     OW20102   1.897   4.084   3.334 -0.0258 -0.2515  0.2018
 3058SOL    HW120103   1.809   4.125   3.311  0.2511 -0.5908 -1.5236
 3058SOL    HW220104   1.883   3.991   3.368 -0.2561 -0.7947 -1.3432
 3059SOL     OW20105   7.571   0.302   2.302  0.0667 -0.1570 -0.2376
 3059SOL    HW120106   7.570   0.401   2.309  1.8697 -0.1448  0.0258
 3059SOL    HW220107   7.508   0.273   2.230  0.6778  1.2665 -1.3654
 3060SOL     OW20108   8.343   8.317   4.703  0.7296 -0.2169  0.2374
 3060SOL    HW120109   8.246   8.292   4.708  0.2767  0.7229 -2.9502
 3060SOL    HW220110   8.399   8.235   4.709 -0.3851 -1.0747 -0.8678
 3061SOL     OW20111   7.380   0.913   2.894 -0.1248  0.3366  0.3065
 3061SOL    HW120112   7.381   0.848   2.819  2.7518 -0.6972  1.1737
 3061SOL    HW220113   7.296   0.902   2.947 -0.3032 -1.7253 -0.3758
 3062SOL     OW20114   1.388   9.685   1.277  0.2640 -0.1467 -0.0019
 3062SOL    HW120115   1.432   9.669   1.365  0.9621  1.2663 -0.0740
 3062SOL    HW220116   1.307   9.627   1.268  1.8786 -2.5129  0.3086
 3063SOL     OW20117   2.739   7.176   0.291 -0.2035  0.2239  0.8186
 3063SOL    HW120118   2.793   7.261   0.288 -2.8009  1.8617 -0.7302
 3063SOL    HW220119   2.777   7.110   0.227 -0.1891  1.4791 -0.4867
 3064SOL     OW20120   9.830   6.594   1.623 -0.3848  0.1549  0.4058
 3064SOL    HW120121   9.930   6.595   1.621 -0.3420  0.8709  2.1374
 3064SOL    HW220122   9.796   6.685   1.598 -0.4773  1.0021  3.3657
 3065SOL     OW20123   0.873   6.395   3.933 -0.1236  0.2640 -0.0047
 3065SOL    HW120124   0.779   6.364   3.942  0.2647 -1.2663 -1.0941
 3065SOL    HW220125   0.905   6.430   4.021 -0.9194 -1.4378  0.9801
 3066SOL     OW20126   0.789   4.088   2.123  0.3023  0.3721  0.0181
 3066SOL    HW120127   0.748   4.061   2.211  0.1969  0.0934 -0.1143
 3066SOL    HW220128   0.718   4.126   2.064  0.2320 -0.1138 -0.2126
 3067SOL     OW20129   9.879   1.652   0.573  0.5602 -0.0501  0.2127
 3067SOL    HW120130   9.841   1.649   0.480 -0.4821  1.8746  0.5484
 3067SOL    HW220131   9.820   1.600   0.634 -0.3409  1.0287  0.2963
 3068SOL     OW20132   0.491   9.083   2.970  0.7889  0.1707 -0.1941
 3068SOL    HW120133   0.470   9.177   2.999  0.9228  0.9706 -2.5590
 3068SOL    HW220134   0.406   9.036   2.945  0.9582  0.6482 -1.7625
 3069SOL     OW20135   0.836   5.625   3.506 -0.3719 -0.2054 -0.0439
 3069SOL    HW120136   0.856   5.654   3.412 -0.1701  2.7666  0.8785
 3069SOL    HW220137   0.920   5.587   3.547 -0.3856 -1.2294 -0.9273
 3070SOL     OW20138   3.827   1.566   2.622 -0.1768  0.2631  0.0078
 3070SOL    HW120139   3.895   1.502   2.659 -0.2658 -0.1119 -0.4791
 3070SOL    HW220140   3.739   1.551   2.668 -0.1635  0.1270 -0.0119
 3071SOL     OW20141   7.801   2.937   2.860 -0.1153  0.0210  0.0052
 3071SOL    HW120142   7.725   2.900   2.913  0.5531  0.8475  1.5793
 3071SOL    HW220143   7.869   2.976   2.922  1.2659 -0.0825 -1.4158
 3072SOL     OW20144   0.194   2.051   1.625 -0.5010  0.0683 -0.2958
 3072SOL    HW120145   0.140   2.072   1.545 -0.0590  0.1960 -0.5644
 3072SOL    HW220146   0.236   1.960   1.614  0.1013  0.3659 -0.5124
 3073SOL     OW20147   5.525   9.585   1.639 -0.2412 -0.0239  0.0449
 3073SOL    HW120148   5.542   9.651   1.713  0.7347  1.8500 -1.7958
 3073SOL    HW220149   5.469   9.628   1.569  0.2776 -1.2243 -1.1117
 3074SOL     OW20150   9.909   3.375   4.513 -0.4179  0.0002 -0.1699
 3074SOL    HW120151   9.969   3.296   4.523 -1.6269 -0.8441  0.4215
 3074SOL    HW220152   9.904   3.425   4.599 -0.9357 -0.1979 -0.0833
 3075SOL     OW20153   6.478   7.574   3.552  0.6846  0.8837  0.3393
 3075SOL    HW120154   6.541   7.499   3.569  0.4269  0.6105  0.0992
 3075SOL    HW220155   6.428   7.596   3.635 -2.7048 -2.4069 -0.7263
 3076SOL     OW20156   6.623   9.882   2.993 -0.1040 -0.5172  0.0456
 3076SOL    HW120157   6.686   9.958   3.011 -0.3268 -0.1140 -0.8053
 3076SOL    HW220158   6.580   9.853   3.078  2.3121 -1.7677  0.8584
 3077SOL     OW20159   1.410   5.664   3.904 -0.3880 -0.9163 -0.3910
 3077SOL    HW120160   1.371   5.690   3.992 -0.2252  2.0294 -1.1380
 3077SOL    HW220161   1.355   5.703   3.830  1.0804 -0.9932 -1.5620
 3078SOL     OW20162   4.327   9.077   0.069  0.0356 -0.2967 -0.6051
 3078SOL    HW120163   4.383   9.048  -0.008 -1.8016 -2.0347 -1.3450
 3078SOL    HW220164   4.258   9.142   0.037 -0.4700 -0.7047 -0.3588
 3079SOL     OW20165   8.121   9.661   4.838 -0.1027 -0.2745  0.2436
 3079SOL    HW120166   8.070   9.664   4.752 -0.6262 -0.9231  0.5288
 3079SOL    HW220167   8.060   9.684   4.914 -0.0887 -1.4831  0.6325
 3080SOL     OW20168   0.704   8.868   0.249 -0.1867 -0.7027  0.4812
 3080SOL    HW120169   0.655   8.951   0.276  2.4869  1.1416 -0.1592
 3080SOL    HW220170   0.681   8.845   0.154  0.6530  0.5187 -0.0258
 3081SOL     OW20171   0.741   6.792   3.838  0.4549  0.0955 -0.3377
 3081SOL    HW120172   0.738   6.788   3.738 -1.9945 -1.8243 -0.2331
 3081SOL    HW220173   0.830   6.759   3.870  0.7464 -0.6450 -1.8569
 3082SOL     OW20174   0.302   4.038   0.957 -0.6802 -0.4534  0.2408
 3082SOL    HW120175   0.387   4.067   1.000 -0.8466  1.9276 -0.9639
 3082SOL    HW220176   0.243   3.996   1.026  0.6800 -0.3945  1.4719
 3083SOL     OW20177   4.312   8.483   5.559  0.4896 -0.0826 -0.0756
 3083SOL    HW120178   4.282   8.390   5.537  0.1209 -0.2451  1.0909
 3083SOL    HW220179   4.334   8.488   5.657  0.3478  1.1028 -0.1049
 3084SOL     OW20180   3.120   9.061   1.807 -0.8964  0.8491 -0.6801
 3084SOL    HW120181   3.204   9.059   1.861 -1.2382 -0.4693 -0.1795
 3084SOL    HW220182   3.141   9.089   1.713  0.2835 -0.6248 -0.8663
 3085SOL     OW20183   8.697   5.874   3.331  0.3610 -0.0536 -0.5394
 3085SOL    HW120184   8.599   5.865   3.348  0.9438 -1.2977  2.5248
 3085SOL    HW220185   8.732   5.790   3.291 -0.0168  0.8822 -2.9281
 3086SOL     OW20186   9.706   6.271   3.383  0.3685  0.1357 -0.1464
 3086SOL    HW120187   9.754   6.224   3.457 -0.5001 -0.4486  0.0675
 3086SOL    HW220188   9.768   6.285   3.306  0.5605 -1.6948 -0.3535
 3087SOL     OW20189   5.143   1.325   2.966  0.2536 -0.4086  0.3241
 3087SOL    HW120190   5.159   1.270   2.884  0.0120  1.1863 -0.8086
 3087SOL    HW220191   5.227   1.328   3.020  0.7160 -0.6279 -0.3742
 3088SOL     OW20192   0.154   9.912   3.713 -0.2748  0.4256  0.0598
 3088SOL    HW120193   0.152   9.885   3.616 -2.6627  3.2144 -0.7378
 3088SOL    HW220194   0.233   9.972   3.728 -0.2125  0.4418 -0.3076
 3089SOL     OW20195   6.140   9.357   4.040 -0.1619  0.7425 -0.0408
 3089SOL    HW120196   6.045   9.370   4.068  0.6053  1.5848  2.3020
 3089SOL    HW220197   6.146   9.359   3.940 -3.0518 -2.6559 -0.3774
 3090SOL     OW20198   9.612   4.890   4.274  0.6493  0.2019 -0.5894
 3090SOL    HW120199   9.640   4.939   4.192  0.9576  1.8331  0.4738
 3090SOL    HW220200   9.690   4.881   4.337 -0.6980  3.3917  1.6896
 3091SOL     OW20201   4.956   0.015   3.040  0.3471  0.4361 -0.2855
 3091SOL    HW120202   4.960   0.032   2.941 -0.4122  0.6875 -0.2749
 3091SOL    HW220203   4.862  -0.006   3.066  0.7838 -1.0945  0.1474
 3092SOL     OW20204   3.505   4.548   2.681 -0.2370 -0.0952 -0.1890
 3092SOL    HW120205   3.441   4.579   2.751 -0.2670 -2.0935  0.6869
 3092SOL    HW220206   3.475   4.584   2.592 -0.7899  1.5776  0.6489
 3093SOL     OW20207   4.390   1.887   3.856 -0.1694 -0.2042 -0.0944
 3093SOL    HW120208   4.311   1.936   3.894 -0.9343 -1.0066 -0.6302
 3093SOL    HW220209   4.457   1.953   3.823 -0.9961  0.4929 -0.4123
 3094SOL     OW20210   3.624   2.305   5.396  0.1643  0.2325  0.1004
 3094SOL    HW120211   3.581   2.222   5.360  0.3771  0.8961 -1.7259
 3094SOL    HW220212   3.579   2.331   5.482 -0.2513 -1.4580  0.4101
 3095SOL     OW20213   6.274   9.420   4.277  0.0481  0.3410 -0.3326
 3095SOL    HW120214   6.229   9.406   4.364  0.0228  1.2070 -0.2026
 3095SOL    HW220215   6.222   9.374   4.204 -1.4833  1.9920 -0.3074
 3096SOL     OW20216   0.868   9.529   4.198  0.5693  0.2203  0.3195
 3096SOL    HW120217   0.847   9.487   4.110  1.0017  0.1095  0.2656
 3096SOL    HW220218   0.791   9.517   4.260  0.7603 -0.8250  0.3658
 3097SOL     OW20219   2.683   9.020   3.708 -0.8467 -0.2405  0.0465
 3097SOL    HW120220   2.586   8.996   3.703 -1.3500  2.0046 -1.2350
 3097SOL    HW220221   2.693   9.119   3.712  1.4633 -0.3652 -1.6716
 3098SOL     OW20222   9.847   7.961   5.197 -0.0648  0.2537  0.4286
 3098SOL    HW120223   9.844   7.963   5.097  0.7901 -2.5894  0.3032
 3098SOL    HW220224   9.900   8.040   5.230 -0.7732  1.4962 -1.3068
 3099SOL     OW20225   1.670   0.861   5.329  0.2554 -0.1694  0.1446
 3099SOL    HW120226   1.686   0.913   5.413 -0.4094 -1.4288  1.0743
 3099SOL    HW220227   1.756   0.819   5.299  0.2218 -0.9130  1.0337
 3100SOL     OW20228   5.425   9.715   4.158  0.1204  0.2418  0.4105
 3100SOL    HW120229   5.458   9.799   4.201 -0.9244  0.3726  0.9851
 3100SOL    HW220230   5.430   9.641   4.225 -2.7298  0.7212  1.2050
 3101SOL     OW20231   3.184   2.566   4.406  0.8121 -0.4657 -0.3837
 3101SOL    HW120232   3.216   2.557   4.312  1.2947 -0.2638 -0.2454
 3101SOL    HW220233   3.217   2.653   4.444  1.1456 -0.8278  0.1666
 3102SOL     OW20234   5.284   7.992   1.816 -0.3353  0.2297  0.8732
 3102SOL    HW120235   5.199   8.037   1.843 -0.0361  1.3075  0.0312
 3102SOL    HW220236   5.306   8.015   1.722  0.9202  0.0044  1.0956
 3103SOL     OW20237   1.392   2.265   1.937  0.1027  0.4579 -0.3363
 3103SOL    HW120238   1.382   2.177   1.891  0.9224  0.8524 -1.2935
 3103SOL    HW220239   1.489   2.291   1.938 -0.1020  1.2141  0.1907
 3104SOL     OW20240   2.690   6.895   3.146 -0.2153  0.2310  0.1137
 3104SOL    HW120241   2.789   6.883   3.150 -0.2999 -0.7129 -0.4926
 3104SOL    HW220242   2.653   6.901   3.238  0.1363 -1.7166  0.3982
 3105SOL     OW20243   9.635   2.035   3.363 -0.0001 -0.2481  0.2417
 3105SOL    HW120244   9.564   2.057   3.296  0.4770 -1.4230 -0.6863
 3105SOL    HW220245   9.668   1.942   3.347  2.9793  0.8556 -0.4779
 3106SOL     OW20246   2.305   8.819   1.201  0.0133 -0.0233 -0.6024
 3106SOL    HW120247   2.358   8.746   1.159 -1.3155 -0.3576 -1.7430
 3106SOL    HW220248   2.355   8.857   1.278  1.4591 -0.9966 -1.0478
 3107SOL     OW20249   1.462   8.525   1.535  0.5467 -0.7461  0.4332
 3107SOL    HW120250   1.469   8.463   1.456 -0.1923 -0.2651 -0.0140
 3107SOL    HW220251   1.554   8.553   1.562  0.8431 -1.4083  0.1353
 3108SOL     OW20252   2.405   5.867   0.738 -0.6598  0.1272  0.4823
 3108SOL    HW120253   2.348   5.788   0.760  0.0888 -0.1540  1.4401
 3108SOL    HW220254   2.349   5.936   0.692 -1.1800 -1.2009 -0.9166
 3109SOL     OW20255   8.886   9.765   3.387  0.1734 -0.0099  0.5303
 3109SOL    HW120256   8.893   9.806   3.296 -2.8065  0.9615  0.6747
 3109SOL    HW220257   8.950   9.810   3.449  0.3531  1.1280 -0.4591
 3110SOL     OW20258   0.329   3.789   2.266 -0.0528  0.2935 -0.3164
 3110SOL    HW120259   0.320   3.718   2.336  1.0555 -0.0759 -0.5415
 3110SOL    HW220260   0.375   3.751   2.186 -0.7705  0.8790 -1.0114
 3111SOL     OW20261   8.899   1.592   3.528 -0.7011 -0.0684  0.1349
 3111SOL    HW120262   8.984   1.583   3.581 -0.8347 -2.0221  0.0426
 3111SOL    HW220263   8.921   1.625   3.436  0.0639 -1.3564 -0.1541
 3112SOL     OW20264   3.029   6.635   2.070 -0.2275 -0.1626  0.2965
 3112SOL    HW120265   2.969   6.672   1.999  0.4439 -0.3517 -0.3746
 3112SOL    HW220266   3.111   6.597   2.027 -0.6764 -1.9661  1.0302
 3113SOL     OW20267   1.956   7.220   0.362 -0.2507 -0.1895 -0.3606
 3113SOL    HW120268   2.025   7.271   0.413  0.0818 -1.0307  0.0316
 3113SOL    HW220269   1.867   7.264   0.374 -0.7941 -2.1036  3.5372
 3114SOL     OW20270   2.966   3.713   4.821 -0.3978 -0.3870  0.4503
 3114SOL    HW120271   2.934   3.807   4.807 -2.5413 -1.2365 -0.4282
 3114SOL    HW220272   3.064   3.715   4.843 -0.3250  2.0241  0.0659
 3115SOL     OW20273   9.967   8.847   0.346  0.2395 -0.0041 -0.1704
 3115SOL    HW120274   9.941   8.759   0.385 -1.8905  0.1205 -1.2133
 3115SOL    HW220275  10.051   8.879   0.390 -0.4928 -1.2026  2.2465
 3116SOL     OW20276   5.504   7.521   3.459  0.1206  0.2754 -0.1775
 3116SOL    HW120277   5.529   7.566   3.373 -1.5724  1.8453  0.1179
 3116SOL    HW220278   5.453   7.437   3.439  0.9092 -0.0801 -0.7138
 3117SOL     OW20279   2.231   0.612   0.190 -0.6786  0.0479 -0.2806
 3117SOL    HW120280   2.327   0.608   0.217 -0.8097 -1.5120 -0.0113
 3117SOL    HW220281   2.173   0.590   0.269 -1.4894  5.3963  0.8264
 3118SOL     OW20282   2.652   7.088   1.790  0.1035  0.1829 -0.0032
 3118SOL    HW120283   2.677   7.064   1.696  0.3781 -0.8200  0.3158
 3118SOL    HW220284   2.614   7.181   1.792  1.4972  0.7830 -0.8705
 3119SOL     OW20285   5.060   0.848   3.159 -0.4023 -0.1663  0.2620
 3119SOL    HW120286   5.141   0.905   3.141 -0.1758 -0.3647  0.6426
 3119SOL    HW220287   5.065   0.764   3.105 -1.2880  0.6718 -1.1532
 3120SOL     OW20288   0.851   2.807   2.790  0.0872 -0.3728 -0.0097
 3120SOL    HW120289   0.941   2.764   2.803 -0.3518 -1.5266 -0.7175
 3120SOL    HW220290   0.805   2.815   2.878  0.7837 -0.0077  0.3231
 3121SOL     OW20291   3.441   4.806   2.540  0.8657  0.0016 -0.1164
 3121SOL    HW120292   3.533   4.782   2.511  0.7423  0.8541 -1.2804
 3121SOL    HW220293   3.423   4.902   2.517 -1.2642 -0.8935 -2.4288
 3122SOL     OW20294   2.612   9.571   4.385 -0.6691 -0.1055 -0.0306
 3122SOL    HW120295   2.587   9.562   4.481  0.7363 -2.0495  0.1761
 3122SOL    HW220296   2.585   9.661   4.352  0.0516  1.1048  2.5524
 3123SOL     OW20297   1.115   3.289   0.768  0.1453  0.0652  0.4735
 3123SOL    HW120298   1.053   3.310   0.843 -0.2737  0.1408  0.1117
 3123SOL    HW220299   1.064   3.290   0.682  0.2498 -1.7057  0.3648
 3124SOL     OW20300   4.158   0.903   2.452 -0.0006  0.1290  0.7477
 3124SOL    HW120301   4.240   0.865   2.408 -0.7888 -0.2368 -0.4466
 3124SOL    HW220302   4.184   0.951   2.535  1.3673 -0.4751  0.6897
 3125SOL     OW20303   2.747   7.962   4.583  0.1261  0.0801  0.3278
 3125SOL    HW120304   2.768   7.975   4.681  3.3891 -1.4132 -0.0889
 3125SOL    HW220305   2.716   7.868   4.568 -0.9285  0.4792 -0.0009
 3126SOL     OW20306   7.645   7.141   1.660 -0.7577 -0.0030  0.1099
 3126SOL    HW120307   7.735   7.115   1.696 -1.3268  0.3138  1.7918
 3126SOL    HW220308   7.655   7.216   1.595  0.2423 -0.3170 -0.1088
 3127SOL     OW20309   1.213   1.888   5.330  0.0025  0.2415 -0.0579
 3127SOL    HW120310   1.287   1.907   5.395  1.0778  2.7663 -1.9276
 3127SOL    HW220311   1.253   1.856   5.244 -1.0315  1.8038 -1.1465
 3128SOL     OW20312   9.914   1.413   4.728 -0.3591 -0.1088  0.0151
 3128SOL    HW120313   9.855   1.383   4.653  0.5014 -0.5110 -0.5099
 3128SOL    HW220314   9.948   1.333   4.777 -0.1625  0.1172  0.2455
 3129SOL     OW20315   0.274   2.359   4.269 -0.0958 -0.1138  0.6049
 3129SOL    HW120316   0.281   2.301   4.349 -0.9563  0.6134  1.2207
 3129SOL    HW220317   0.365   2.375   4.231  0.1000 -2.2845  0.1052
 3130SOL     OW20318   7.489   2.886   2.917  0.2094 -0.4877 -0.2498
 3130SOL    HW120319   7.518   2.828   2.993 -0.2161  0.4780  0.6585
 3130SOL    HW220320   7.412   2.943   2.945  1.2483  1.2435 -0.8067
 3131SOL     OW20321   7.994   2.595   5.165  0.2580  0.1115 -0.0200
 3131SOL    HW120322   7.917   2.598   5.101  0.8275 -0.7303 -0.7656
 3131SOL    HW220323   8.027   2.687   5.183 -0.7140  0.4490  0.0510
 3132SOL     OW20324   6.502   0.174   4.525  0.2706 -0.3265 -0.6287
 3132SOL    HW120325   6.561   0.154   4.447  1.7025  2.4722 -0.3217
 3132SOL    HW220326   6.416   0.213   4.492  0.7186  0.4970 -0.8272
 3133SOL     OW20327   3.245   7.529   3.475  0.6462 -0.2317  0.1374
 3133SOL    HW120328   3.151   7.497   3.465  0.6429 -0.1473 -0.1040
 3133SOL    HW220329   3.247   7.610   3.534  0.3563  0.8339 -1.2914
 3134SOL     OW20330   1.815   4.845   3.404 -0.0245  0.1908  0.2038
 3134SOL    HW120331   1.875   4.924   3.395  0.3254  0.0329  1.0355
 3134SOL    HW220332   1.861   4.775   3.460  0.0739 -1.0037 -1.3592
 3135SOL     OW20333   3.571   7.731   3.478 -0.5817  0.0796  0.3694
 3135SOL    HW120334   3.618   7.799   3.423 -1.4194  0.1442 -0.2588
 3135SOL    HW220335   3.521   7.668   3.419 -2.5671  0.9431  1.1059
 3136SOL     OW20336   8.453   4.974   3.351  0.8982 -0.3478  0.7823
 3136SOL    HW120337   8.551   4.965   3.371  0.9498 -2.2832 -0.2150
 3136SOL    HW220338   8.401   4.912   3.410  0.3293  0.2681  0.9250
 3137SOL     OW20339   0.264   9.157   1.666  0.3697 -0.2972 -0.0416
 3137SOL    HW120340   0.235   9.243   1.708  1.3581  0.4521 -0.8617
 3137SOL    HW220341   0.256   9.164   1.567  1.8890 -0.5958 -0.1942
 3138SOL     OW20342   8.725   4.537   5.090 -0.5354 -0.0846  0.1255
 3138SOL    HW120343   8.789   4.461   5.092 -0.6305 -0.1872 -0.8474
 3138SOL    HW220344   8.723   4.578   4.999 -2.2594 -0.4272 -0.0149
 3139SOL     OW20345   4.914   3.819   0.878 -0.7053  0.2643  0.0394
 3139SOL    HW120346   4.890   3.891   0.813 -1.1301  0.0520 -0.0362
 3139SOL    HW220347   4.831   3.785   0.923 -0.5275 -0.3419 -0.0898
 3140SOL     OW20348   9.759   4.658   5.095 -0.6867  0.0729  0.5003
 3140SOL    HW120349   9.696   4.583   5.075  0.5582 -0.9033  0.1811
 3140SOL    HW220350   9.824   4.668   5.020  0.4809  0.0866  1.5004
 3141SOL     OW20351   5.497   1.180   3.804  0.1674  0.4369 -0.0865
 3141SOL    HW120352   5.432   1.221   3.868 -0.6903  0.2015 -0.8153
 3141SOL    HW220353   5.482   1.216   3.712  0.4400 -0.3337 -0.4386
 3142SOL     OW20354   2.321   0.686   4.292 -0.6100  0.2215  0.3047
 3142SOL    HW120355   2.248   0.742   4.254 -0.0559  0.9476  0.3077
 3142SOL    HW220356   2.335   0.605   4.234 -0.8616  0.5000 -0.1426
 3143SOL     OW20357   3.440   6.440   1.606 -0.2492  0.2367 -0.7945
 3143SOL    HW120358   3.395   6.445   1.517  1.0409  0.0209 -1.4562
 3143SOL    HW220359   3.462   6.345   1.628 -0.7284  0.2677 -0.1535
 3144SOL     OW20360   0.402   0.072   1.181 -0.1096  0.4885  0.7751
 3144SOL    HW120361   0.311   0.109   1.164 -0.1970 -0.7250 -1.6185
 3144SOL    HW220362   0.396  -0.002   1.248 -0.8882  0.3653  0.5718
 3145SOL     OW20363   3.084   9.229   4.147 -0.6909  0.1126 -0.3875
 3145SOL    HW120364   3.054   9.218   4.242 -0.2234  1.3612 -0.0970
 3145SOL    HW220365   3.035   9.162   4.090 -2.3034  0.5398  0.4487
 3146SOL     OW20366   5.783   9.734   3.491 -0.2081  0.0731 -0.0479
 3146SOL    HW120367   5.788   9.638   3.461 -1.9970 -0.5367  1.5222
 3146SOL    HW220368   5.858   9.785   3.449  1.0888 -2.1124 -0.5180
 3147SOL     OW20369   3.468   1.041   1.171  0.1870 -0.1212 -0.4657
 3147SOL    HW120370   3.403   1.013   1.100  0.5363  0.1743 -0.9030
 3147SOL    HW220371   3.558   1.004   1.151 -0.0843 -1.5082  0.7666
 3148SOL     OW20372   2.526   5.990   3.620 -0.4081 -0.3621  0.1954
 3148SOL    HW120373   2.439   5.955   3.585  0.2568 -0.2647 -1.6319
 3148SOL    HW220374   2.582   6.021   3.543  1.1845 -0.2935  1.3612
 3149SOL     OW20375   5.419   8.921   4.058  0.0637  0.2074  0.0327
 3149SOL    HW120376   5.359   8.976   4.117  2.5441 -0.7851  3.6644
 3149SOL    HW220377   5.482   8.980   4.010 -0.5597  0.8882  0.0447
 3150SOL     OW20378   1.034   1.711   1.612  0.0781  0.9873 -0.0932
 3150SOL    HW120379   1.093   1.651   1.558  1.9616  0.3172  2.5978
 3150SOL    HW220380   0.955   1.738   1.557  0.7144 -1.5139 -2.3726
 3151SOL     OW20381   9.347   2.410   0.578  0.4655  0.1544  0.2557
 3151SOL    HW120382   9.398   2.495   0.585  0.9806 -0.2511  1.6418
 3151SOL    HW220383   9.308   2.401   0.486  2.0555  0.9318 -0.5057
 3152SOL     OW20384   9.976   2.767   4.805  0.0564  0.1793  0.5755
 3152SOL    HW120385   9.958   2.824   4.724 -0.9849 -0.9718 -0.0265
 3152SOL    HW220386   9.941   2.675   4.788  1.7447 -0.6476  1.5299
 3153SOL     OW20387   8.332   2.837   0.554  0.0950  0.4138 -0.1937
 3153SOL    HW120388   8.417   2.862   0.602  0.8486 -1.6014 -0.4123
 3153SOL    HW220389   8.254   2.855   0.614  0.9308 -0.8342  1.3317
 3154SOL     OW20390   2.118   0.024   0.945 -0.2655 -0.4875 -0.1433
 3154SOL    HW120391   2.116  -0.071   0.976  2.9135 -0.2773  0.8649
 3154SOL    HW220392   2.136   0.026   0.847  2.3129 -0.9490  0.2667
 3155SOL     OW20393   9.578   5.397   2.693  0.2512  0.5671  0.1143
 3155SOL    HW120394   9.604   5.302   2.714  1.6495  1.3126  1.8524
 3155SOL    HW220395   9.537   5.439   2.774  1.0374  1.9364 -0.1858
 3156SOL     OW20396   7.530   0.584   2.262  0.1041  0.2289 -0.1203
 3156SOL    HW120397   7.612   0.581   2.205 -0.4449 -2.3394 -0.8293
 3156SOL    HW220398   7.523   0.674   2.305  1.5540  1.6050 -2.6076
 3157SOL     OW20399   7.672   2.749   5.484 -0.1152 -0.5203 -0.0295
 3157SOL    HW120400   7.758   2.741   5.434  0.5496 -2.0055  1.2741
 3157SOL    HW220401   7.638   2.843   5.479  1.3346 -0.0360 -0.9588
 3158SOL     OW20402   0.862   5.216   4.130  0.1767 -0.4557  0.3044
 3158SOL    HW120403   0.867   5.210   4.030 -0.3924 -1.8881  0.3430
 3158SOL    HW220404   0.790   5.281   4.156  1.9701  1.7736 -0.2051
 3159SOL     OW20405   4.192   0.823   1.411  0.2478 -0.9974  0.5111
 3159SOL    HW120406   4.248   0.869   1.342  0.5388 -0.8928  0.8146
 3159SOL    HW220407   4.251   0.778   1.478 -0.0425 -3.7866 -1.0656
 3160SOL     OW20408   5.159   9.185   3.961 -0.0944 -0.2415 -0.3995
 3160SOL    HW120409   5.190   9.125   3.888  1.8325  0.2741 -0.0433
 3160SOL    HW220410   5.106   9.260   3.923  0.6358 -0.1491 -1.2535
 3161SOL     OW20411   1.282   8.536   2.412 -0.4788 -0.0902  0.4511
 3161SOL    HW120412   1.203   8.594   2.431 -2.5696 -2.7026  0.1042
 3161SOL    HW220413   1.355   8.557   2.477 -1.2025  2.7946  0.3888
 3162SOL     OW20414   0.809   9.772   0.035  0.4446  0.3589  0.2432
 3162SOL    HW120415   0.779   9.720  -0.045  0.3159  0.7362  0.0420
 3162SOL    HW220416   0.787   9.722   0.119 -0.7628  0.6309  0.0973
 3163SOL     OW20417   5.171   9.079   1.528 -0.4991  0.1230  0.3080
 3163SOL    HW120418   5.096   9.092   1.592 -0.9705 -1.9353  0.2092
 3163SOL    HW220419   5.249   9.135   1.557 -2.2942  2.9018 -0.0498
 3164SOL     OW20420   7.205   8.843   2.974 -0.2416  0.1530  0.2921
 3164SOL    HW120421   7.224   8.866   2.879 -0.3866 -0.9913 -0.0237
 3164SOL    HW220422   7.183   8.926   3.025  0.9520  0.9104 -0.4093
 3165SOL     OW20423   4.198   4.191   3.700  0.1592 -0.3105 -0.2860
 3165SOL    HW120424   4.203   4.254   3.623  1.5298 -0.1839 -0.1145
 3165SOL    HW220425   4.110   4.143   3.699 -0.5511  0.9890 -0.8895
 3166SOL     OW20426   3.136   1.879   1.198  0.0660  0.8654  0.4129
 3166SOL    HW120427   3.205   1.928   1.251  1.8128  1.7865 -2.6001
 3166SOL    HW220428   3.140   1.781   1.219  0.4709  1.2584  2.2123
 3167SOL     OW20429   1.750   1.537   2.293 -0.1546 -0.2934  0.5485
 3167SOL    HW120430   1.782   1.594   2.217 -0.2750 -2.5546 -1.2354
 3167SOL    HW220431   1.800   1.562   2.377  1.9003  0.4044 -0.8414
 3168SOL     OW20432   9.011   2.605   3.547  0.1366  0.1013 -0.2910
 3168SOL    HW120433   9.016   2.633   3.451 -0.0136  2.3993  0.3369
 3168SOL    HW220434   9.103   2.601   3.585  0.2120 -1.0219 -0.5810
 3169SOL     OW20435   6.435   0.885   4.076  0.4387 -0.6909  0.0911
 3169SOL    HW120436   6.339   0.864   4.059  0.2565 -0.2991  0.6052
 3169SOL    HW220437   6.457   0.863   4.171 -0.4086  3.5982  1.4045
 3170SOL     OW20438   1.692   9.765   3.671 -0.3801 -0.0819  0.2356
 3170SOL    HW120439   1.739   9.683   3.703  1.1079  1.3124  1.7520
 3170SOL    HW220440   1.603   9.771   3.717 -0.0554 -0.3245  0.9152
 3171SOL     OW20441   8.489   1.845   2.070 -0.3639 -0.4381 -0.4589
 3171SOL    HW120442   8.462   1.838   1.973  1.7898  1.0832 -1.2102
 3171SOL    HW220443   8.559   1.915   2.079  0.6838 -1.7610  1.9742
 3172SOL     OW20444   3.521   6.188   1.684  0.2594 -0.2781  0.0113
 3172SOL    HW120445   3.434   6.143   1.704  0.5475 -1.1880 -0.7626
 3172SOL    HW220446   3.578   6.190   1.766 -0.3354 -0.0116  0.4220
 3173SOL     OW20447   2.783   9.116   3.426  0.6295  0.0594 -0.0399
 3173SOL    HW120448   2.777   9.198   3.483  0.9543 -0.2616  0.4656
 3173SOL    HW220449   2.693   9.072   3.423  0.8461 -0.4990  1.1096
 3174SOL     OW20450   1.878   4.972   4.816 -0.0692  0.9281 -0.1407
 3174SOL    HW120451   1.842   5.059   4.850 -2.7151 -0.0024 -0.4411
 3174SOL    HW220452   1.939   4.989   4.740 -0.8125  2.5265 -0.4046
 3175SOL     OW20453   3.253   7.833   3.327  0.1837 -0.2040  0.0648
 3175SOL    HW120454   3.270   7.804   3.421  0.4462  3.1908  1.1553
 3175SOL    HW220455   3.158   7.816   3.303  0.2818 -1.6770  0.7156
 3176SOL     OW20456   2.146   7.106   1.246  0.6509 -0.0422 -0.3881
 3176SOL    HW120457   2.195   7.159   1.177  2.2335 -1.5382 -0.4386
 3176SOL    HW220458   2.186   7.122   1.336 -0.0485  0.2558 -0.1215
 3177SOL     OW20459   2.751   9.956   1.203 -0.3247  0.2486  0.1880
 3177SOL    HW120460   2.674   9.932   1.262 -2.2780 -0.8365 -2.7380
 3177SOL    HW220461   2.759   9.889   1.129  1.9557  1.6893 -0.9310
 3178SOL     OW20462   1.942   8.148   2.802 -0.2993 -0.4755 -0.3421
 3178SOL    HW120463   1.932   8.157   2.901 -0.1869 -2.9605 -0.0572
 3178SOL    HW220464   1.869   8.091   2.766 -1.1030  1.5038 -1.9189
 3179SOL     OW20465   3.219   4.840   2.888  0.1245  0.2312  0.7268
 3179SOL    HW120466   3.278   4.773   2.933 -1.0371 -1.0461  0.3755
 3179SOL    HW220467   3.254   4.858   2.796  1.2417  1.1793  1.3304
 3180SOL     OW20468   9.380   2.863   0.204  0.3028 -0.1693 -0.2405
 3180SOL    HW120469   9.461   2.804   0.203 -0.0791 -0.7040 -1.5850
 3180SOL    HW220470   9.408   2.957   0.220  1.0958 -0.4845  0.2631
 3181SOL     OW20471   0.963   7.320   3.571 -0.0710 -0.0019  0.5263
 3181SOL    HW120472   0.952   7.262   3.652  0.9194 -0.0962  0.6043
 3181SOL    HW220473   1.035   7.282   3.513 -0.8187  0.0393 -0.4283
 3182SOL     OW20474   2.453   3.032   1.511 -0.1259 -0.1682 -0.2037
 3182SOL    HW120475   2.466   3.011   1.414 -0.9925  2.0193 -0.8201
 3182SOL    HW220476   2.374   2.980   1.546 -0.9025  0.3736 -1.1342
 3183SOL     OW20477   0.622   2.419   1.595  0.2366  0.3693  0.2601
 3183SOL    HW120478   0.709   2.465   1.577 -0.4090  1.2801 -0.5819
 3183SOL    HW220479   0.562   2.430   1.516 -1.0104  0.5862  1.2280
 3184SOL     OW20480   9.368   1.072   5.396  0.4915  0.2128 -0.5202
 3184SOL    HW120481   9.389   1.148   5.335 -0.9864 -0.0177 -1.3387
 3184SOL    HW220482   9.306   1.103   5.468  1.9859  0.4096  0.7106
 3185SOL     OW20483   4.143   2.550   4.081  0.0245  0.3432  0.1990
 3185SOL    HW120484   4.148   2.535   4.180  0.9261 -1.3782 -0.0862
 3185SOL    HW220485   4.077   2.487   4.041  0.9450 -0.1652 -0.5233
 3186SOL     OW20486   5.252   7.298   2.147  0.4919 -0.2232 -0.3808
 3186SOL    HW120487   5.349   7.275   2.148  0.5024 -0.1833 -0.6883
 3186SOL    HW220488   5.198   7.217   2.124  0.1617 -1.3369  3.8306
 3187SOL     OW20489   4.486   7.442   2.252 -0.7169  0.2891 -0.6153
 3187SOL    HW120490   4.477   7.464   2.349  0.1951  0.3157 -0.5252
 3187SOL    HW220491   4.505   7.526   2.201 -0.7810  0.2171 -0.7552
 3188SOL     OW20492   2.020   3.421   3.811 -0.5803 -0.5118  0.0192
 3188SOL    HW120493   1.963   3.458   3.737 -0.4857  1.8480  1.0909
 3188SOL    HW220494   1.961   3.393   3.887 -0.4617  0.1550  0.3627
 3189SOL     OW20495   2.115   6.869   0.379 -0.0616 -0.0700  0.1944
 3189SOL    HW120496   2.148   6.962   0.366  2.0837 -0.9326 -0.8133
 3189SOL    HW220497   2.033   6.855   0.323 -0.0670  1.0463 -0.0900
 3190SOL     OW20498   3.273   9.882   4.495 -0.5074  0.2074 -0.4203
 3190SOL    HW120499   3.315   9.835   4.417 -1.3838 -0.6608 -0.3907
 3190SOL    HW220500   3.211   9.818   4.542 -1.6240  1.3693 -0.2977
 3191SOL     OW20501   0.781   7.893   1.190 -0.0819  0.5762 -0.3502
 3191SOL    HW120502   0.768   7.979   1.240  1.0702  0.0663  0.8526
 3191SOL    HW220503   0.840   7.833   1.243 -1.4483 -1.2437 -0.8628
 3192SOL     OW20504   3.674   9.534   4.228  0.1923  0.2073  0.5095
 3192SOL    HW120505   3.613   9.613   4.238  1.2640  0.8843  1.9472
 3192SOL    HW220506   3.660   9.492   4.138 -3.0315 -0.2079  1.1087
 3193SOL     OW20507   1.672   2.710   0.409  0.5346  0.1723  0.0314
 3193SOL    HW120508   1.668   2.701   0.509 -2.7110  1.6251  0.1035
 3193SOL    HW220509   1.600   2.773   0.379  0.2530 -1.6893 -3.3994
 3194SOL     OW20510   1.947   0.628   1.650 -0.2053 -0.0896 -0.2451
 3194SOL    HW120511   1.997   0.713   1.635 -0.6716  0.6584  2.1757
 3194SOL    HW220512   2.012   0.552   1.653  0.3796  0.3796 -0.9312
 3195SOL     OW20513   1.116   9.280   3.297  0.0401 -0.2250  0.0869
 3195SOL    HW120514   1.048   9.321   3.358 -0.2802 -1.4450  0.5762
 3195SOL    HW220515   1.164   9.352   3.246 -1.0628  0.6900  0.3257
 3196SOL     OW20516   2.949   8.554   4.787 -0.1508  0.4150  0.0531
 3196SOL    HW120517   2.943   8.585   4.692  1.7078  0.1009 -0.1767
 3196SOL    HW220518   2.993   8.625   4.842 -0.2398  0.1455  0.4774
 3197SOL     OW20519   5.937   7.509   1.787  0.2299 -0.1312  0.3058
 3197SOL    HW120520   5.884   7.424   1.787  1.1797 -0.7340  1.0624
 3197SOL    HW220521   5.933   7.551   1.696 -2.3201  0.3409  0.5802
 3198SOL     OW20522   0.680   5.716   1.470  0.3771  0.5457 -0.6334
 3198SOL    HW120523   0.756   5.656   1.445 -0.7663 -1.0024 -0.4426
 3198SOL    HW220524   0.712   5.783   1.538  2.0848  1.2649 -2.0960
 3199SOL     OW20525   2.725   3.608   3.143  0.5329 -0.4359  0.1902
 3199SOL    HW120526   2.709   3.629   3.239  2.2064 -3.4747  1.1969
 3199SOL    HW220527   2.642   3.568   3.103 -0.2209  1.0009  0.2995
 3200SOL     OW20528   8.825   8.449   0.541  0.5557  0.2079 -0.0983
 3200SOL    HW120529   8.758   8.459   0.615  0.6339 -2.4309  0.3615
 3200SOL    HW220530   8.908   8.500   0.565  0.3245 -0.0522  1.2968
 3201SOL     OW20531   3.483   2.436   4.456 -0.3951 -0.1167  0.0504
 3201SOL    HW120532   3.464   2.406   4.362  0.4932  1.6798 -0.7312
 3201SOL    HW220533   3.408   2.409   4.516 -1.0187 -1.1904 -1.1964
 3202SOL     OW20534   0.754   6.236   1.908  0.0871  0.2640 -0.3321
 3202SOL    HW120535   0.834   6.229   1.849  0.0186  1.4941 -0.5887
 3202SOL    HW220536   0.687   6.298   1.867 -0.2423  0.6148  0.7084
 3203SOL     OW20537   1.360   5.745   2.645 -0.3271  0.1274  0.1668
 3203SOL    HW120538   1.355   5.646   2.656  2.5550 -0.1560 -0.8113
 3203SOL    HW220539   1.333   5.770   2.552 -0.7391  0.2513  0.3162
 3204SOL     OW20540   6.952   0.474   1.103 -0.4878  0.2308 -0.1465
 3204SOL    HW120541   6.997   0.467   1.014 -1.2629 -0.4130 -0.5006
 3204SOL    HW220542   6.881   0.404   1.109  1.2253 -1.4190  1.9512
 3205SOL     OW20543   2.220   4.661   1.493 -0.2776 -0.2574 -0.6649
 3205SOL    HW120544   2.158   4.738   1.475 -1.0216 -1.2495 -2.4592
 3205SOL    HW220545   2.177   4.576   1.463  1.0365 -1.2348  0.1751
 3206SOL     OW20546   9.120   0.701   4.149 -0.3740  0.3575  0.4558
 3206SOL    HW120547   9.053   0.704   4.224  0.9026 -0.9957  1.6827
 3206SOL    HW220548   9.207   0.668   4.184  0.0317 -1.0415 -1.7980
 3207SOL     OW20549   2.649   9.088   1.458  0.2368 -0.2403  0.1442
 3207SOL    HW120550   2.584   9.083   1.383 -0.9661  2.2362  0.9908
 3207SOL    HW220551   2.602   9.074   1.545  1.0451  0.2235  0.6695
 3208SOL     OW20552   2.680   5.587   2.827 -0.0232  0.3252  0.0712
 3208SOL    HW120553   2.716   5.558   2.916  0.5947  2.1123  0.4197
 3208SOL    HW220554   2.582   5.564   2.822  0.1738 -0.7106  0.7973
 3209SOL     OW20555   3.597   1.697   2.354 -0.5181 -0.3500  0.2423
 3209SOL    HW120556   3.689   1.659   2.344 -1.0702 -1.4287 -0.8327
 3209SOL    HW220557   3.588   1.738   2.445  0.9160 -0.5102  0.4749
 3210SOL     OW20558   0.716   7.427   2.738  0.4423  0.1018  0.1055
 3210SOL    HW120559   0.811   7.419   2.770  0.0754 -0.4067  1.0850
 3210SOL    HW220560   0.654   7.420   2.816 -0.3657  1.5310 -0.4020
 3211SOL     OW20561   2.909   1.003   3.966 -0.1277  0.2919 -1.0245
 3211SOL    HW120562   2.812   1.025   3.953 -0.0695  1.8382  0.8186
 3211SOL    HW220563   2.919   0.934   4.038  0.1955  1.2670 -0.1149
 3212SOL     OW20564   8.368   9.677   0.413  0.0463 -0.4881  0.6775
 3212SOL    HW120565   8.295   9.634   0.359 -0.0083  1.2300 -0.6753
 3212SOL    HW220566   8.345   9.672   0.510 -1.4868 -0.7021  0.3138
 3213SOL     OW20567   8.879   7.765   4.005 -0.6958  0.0733 -0.2819
 3213SOL    HW120568   8.875   7.705   3.926  0.6086 -0.5326  0.0911
 3213SOL    HW220569   8.790   7.806   4.021 -1.2442 -0.6802 -1.3858
 3214SOL     OW20570   2.972   7.340   4.849 -0.0771 -0.3715 -0.2408
 3214SOL    HW120571   3.050   7.304   4.900  0.1292  1.9220  1.1484
 3214SOL    HW220572   2.895   7.355   4.912 -1.3258 -1.6312 -1.4136
 3215SOL     OW20573   4.295   3.888   4.649  0.1480 -0.4448  0.0574
 3215SOL    HW120574   4.393   3.901   4.661  0.0208  0.0109  0.6643
 3215SOL    HW220575   4.253   3.975   4.622  0.2265 -1.1389 -2.4247
 3216SOL     OW20576   2.193   8.543   1.289 -0.3591  0.2369 -0.3573
 3216SOL    HW120577   2.278   8.517   1.336 -0.5804  0.5559  0.2272
 3216SOL    HW220578   2.137   8.598   1.351 -0.0793  1.7640 -1.4288
 3217SOL     OW20579   8.875   7.945   1.614  0.0248 -0.0595  0.0025
 3217SOL    HW120580   8.929   7.940   1.530  1.0859 -1.3886  0.7543
 3217SOL    HW220581   8.932   7.976   1.690 -0.4241 -0.8803  0.6793
 3218SOL     OW20582   4.569   8.119   2.860 -0.0378 -0.1700  0.0633
 3218SOL    HW120583   4.593   8.023   2.878  0.2922 -0.0422  0.3074
 3218SOL    HW220584   4.627   8.179   2.915 -0.3033  0.1685 -0.0241
 3219SOL     OW20585   2.618   1.980   2.202 -0.1721 -0.0164  0.2762
 3219SOL    HW120586   2.605   1.882   2.190 -0.2322 -0.1515  1.4281
 3219SOL    HW220587   2.539   2.020   2.248  0.3726  0.3692  0.8908
 3220SOL     OW20588   0.898   4.138   0.968  0.0765 -1.1109  0.0335
 3220SOL    HW120589   0.817   4.185   0.930  0.4276 -0.4068  0.1459
 3220SOL    HW220590   0.907   4.162   1.064  1.3728  0.1451 -0.3850
 3221SOL     OW20591   7.489   1.385   2.723  0.0606 -0.2604  0.6579
 3221SOL    HW120592   7.513   1.290   2.705 -1.3473 -1.2250  3.5240
 3221SOL    HW220593   7.409   1.411   2.670  0.9776 -0.3668 -0.8046
 3222SOL     OW20594   9.408   2.921   2.323  0.0742 -1.1404 -0.6064
 3222SOL    HW120595   9.352   2.852   2.369 -1.6863  0.8552  0.3779
 3222SOL    HW220596   9.430   2.994   2.388  0.4952  0.0176 -2.0325
 3223SOL     OW20597   2.467   2.097   4.164  0.3082 -0.1992 -0.4260
 3223SOL    HW120598   2.548   2.076   4.220  0.7477 -0.5733 -1.1859
 3223SOL    HW220599   2.392   2.036   4.190  0.2315  0.2389  0.3736
 3224SOL     OW20600   0.698   8.180   0.733  0.8522  0.0084  0.4947
 3224SOL    HW120601   0.701   8.107   0.801 -2.3164 -0.8344 -0.1969
 3224SOL    HW220602   0.605   8.215   0.726  1.4009  1.0157 -2.4092
 3225SOL     OW20603   3.930   9.701   3.331  0.4941  0.0007  0.2931
 3225SOL    HW120604   3.974   9.729   3.245 -0.1967 -1.7832 -0.6824
 3225SOL    HW220605   3.987   9.726   3.408  1.7649  0.4399 -0.7753
 3226SOL     OW20606   8.844   7.362   2.992 -0.2436 -0.3980 -0.4062
 3226SOL    HW120607   8.851   7.343   3.090  0.9108  0.5303 -0.3017
 3226SOL    HW220608   8.753   7.398   2.972  0.0981  1.0932  0.6263
 3227SOL     OW20609   2.212   5.477   4.872  0.1584 -0.0005 -0.6768
 3227SOL    HW120610   2.252   5.569   4.867 -1.4625  0.7998  0.6547
 3227SOL    HW220611   2.285   5.409   4.875  1.3794  1.2774 -1.0001
 3228SOL     OW20612   8.827   2.989   0.696  0.9446 -0.4716 -0.0636
 3228SOL    HW120613   8.793   3.034   0.778  2.3873 -1.3494  1.0450
 3228SOL    HW220614   8.854   3.059   0.629 -1.3390  0.2294 -0.2739
 3229SOL     OW20615   8.496   6.792   0.034  0.1716 -0.0245 -0.4867
 3229SOL    HW120616   8.419   6.855   0.034  0.2015  0.0433  1.6081
 3229SOL    HW220617   8.573   6.832  -0.016 -0.4047  0.8347 -0.6879
 3230SOL     OW20618   2.399   5.367   0.211  0.7511 -0.5183  0.1840
 3230SOL    HW120619   2.456   5.382   0.293 -0.0857 -0.3065  0.7295
 3230SOL    HW220620   2.303   5.361   0.238  0.2949  1.2832 -0.9735
 3231SOL     OW20621   4.983   3.400   0.995 -0.3082  0.3731  0.8270
 3231SOL    HW120622   4.914   3.392   0.923 -0.0570 -2.4316  0.8405
 3231SOL    HW220623   5.073   3.415   0.953 -0.5448  1.4921  0.7008
 3232SOL     OW20624   1.705   7.007   4.942 -0.3538 -0.6229  0.5815
 3232SOL    HW120625   1.646   7.070   4.893 -1.4081 -1.2166  1.0825
 3232SOL    HW220626   1.721   6.925   4.887 -0.3570 -0.6600  0.6359
 3233SOL     OW20627   4.596   2.884   1.013  0.0949 -0.1759  0.3855
 3233SOL    HW120628   4.625   2.856   0.922  1.5533  2.4630  0.0005
 3233SOL    HW220629   4.676   2.903   1.069 -0.8176  1.7812  1.0679
 3234SOL     OW20630   7.614   3.731   5.139  0.2280  0.0665 -0.4669
 3234SOL    HW120631   7.619   3.808   5.204  0.3179  0.7433 -1.2611
 3234SOL    HW220632   7.704   3.715   5.099  0.1247 -0.1914 -0.5974
 3235SOL     OW20633   6.636   8.968   4.098  0.1246  0.5527 -0.0543
 3235SOL    HW120634   6.615   9.064   4.120 -1.2238 -0.3917  3.0500
 3235SOL    HW220635   6.717   8.940   4.149 -0.5641 -0.4679  0.4957
 3236SOL     OW20636   5.039   3.063   3.177 -0.1317  0.1595 -0.0092
 3236SOL    HW120637   5.093   3.125   3.235  0.6724  0.5489 -1.1447
 3236SOL    HW220638   5.025   3.105   3.087  1.3632 -1.7384 -1.1701
 3237SOL     OW20639   5.148   9.205   3.577 -0.4101  0.5030  0.2243
 3237SOL    HW120640   5.198   9.133   3.625 -2.5336 -0.7358  0.6076
 3237SOL    HW220641   5.155   9.290   3.631  0.5647  0.1452  0.6880
 3238SOL     OW20642   1.185   6.457   1.052 -0.6942  0.2491 -0.4867
 3238SOL    HW120643   1.262   6.438   0.991 -0.3675  1.4712 -0.4679
 3238SOL    HW220644   1.114   6.506   1.002 -0.2999  1.5233  0.1802
 3239SOL     OW20645   2.785   3.907   4.464  0.1555 -0.2324 -0.1814
 3239SOL    HW120646   2.828   3.989   4.429 -0.1167  0.4648  1.0950
 3239SOL    HW220647   2.699   3.890   4.415 -0.2771  0.7994  0.2138
 3240SOL     OW20648   9.193   3.313   1.875 -0.3237  0.1033 -0.7237
 3240SOL    HW120649   9.104   3.354   1.894 -0.0765 -0.3824  1.5992
 3240SOL    HW220650   9.222   3.258   1.953  2.2866  0.7139 -1.2136
 3241SOL     OW20651   3.014   6.110   0.403  0.2024 -1.3066  0.0787
 3241SOL    HW120652   3.104   6.094   0.443  0.9329 -0.9605 -1.4004
 3241SOL    HW220653   2.965   6.023   0.395  1.6945 -1.9687 -2.1297
 3242SOL     OW20654   1.006   3.650   1.918  0.2880  0.1300 -0.7231
 3242SOL    HW120655   0.979   3.719   1.986 -0.0880 -0.8110  0.0997
 3242SOL    HW220656   1.056   3.576   1.964 -1.6057 -1.4480 -1.1565
 3243SOL     OW20657   7.394   9.456   0.759  0.4685 -0.6575 -0.1944
 3243SOL    HW120658   7.362   9.547   0.786 -2.2163 -1.4772 -0.5171
 3243SOL    HW220659   7.479   9.435   0.808  1.1231  1.9998 -0.1049
 3244SOL     OW20660   1.703   8.018   3.702 -0.2477 -0.2854  0.2366
 3244SOL    HW120661   1.725   7.953   3.629 -3.3009 -0.6233 -0.4097
 3244SOL    HW220662   1.606   8.038   3.701  0.1160  1.7886  2.5476
 3245SOL     OW20663   2.807   9.504   0.283 -0.1071 -0.1190 -0.0904
 3245SOL    HW120664   2.903   9.492   0.307 -0.2471  0.2864  0.6709
 3245SOL    HW220665   2.753   9.428   0.318 -0.2358  0.2244  0.4668
 3246SOL     OW20666   2.306   3.851   1.007 -0.6384  0.3847 -0.7259
 3246SOL    HW120667   2.377   3.907   0.965  0.6469 -2.3705 -2.3441
 3246SOL    HW220668   2.233   3.834   0.940 -1.5763  1.0380  0.1112
 3247SOL     OW20669   2.490   4.696   1.420  1.3395 -0.6025  0.1349
 3247SOL    HW120670   2.558   4.622   1.424  3.0310  0.9384  0.6574
 3247SOL    HW220671   2.402   4.662   1.452  2.0136 -2.5001  0.0202
 3248SOL     OW20672   1.021   4.982   4.005 -0.1293  0.4353  0.0558
 3248SOL    HW120673   1.080   5.060   4.026  0.9065  0.2139 -1.9461
 3248SOL    HW220674   1.007   4.976   3.906 -1.9765 -0.6428  0.3631
 3249SOL     OW20675   4.547   9.964   4.206 -0.3175  0.1201 -0.0751
 3249SOL    HW120676   4.571  10.006   4.294  1.4423  1.2987 -1.0884
 3249SOL    HW220677   4.455   9.994   4.179 -1.0907 -0.6723  1.5927
 3250SOL     OW20678   7.759   5.781   2.588  0.2071 -0.9778  0.5568
 3250SOL    HW120679   7.691   5.711   2.567 -1.2483  0.6597 -0.3517
 3250SOL    HW220680   7.749   5.857   2.524  3.6848 -1.1997 -0.3475
 3251SOL     OW20681   7.512   4.272   0.018  0.3517  0.3033 -0.3194
 3251SOL    HW120682   7.439   4.270  -0.051  0.7003 -1.4766 -0.6495
 3251SOL    HW220683   7.489   4.341   0.087 -1.2456  0.3561 -0.8626
 3252SOL     OW20684   3.348   2.344   3.900 -0.2923 -0.1323  0.5444
 3252SOL    HW120685   3.359   2.340   3.800 -0.9415  0.4248  0.4446
 3252SOL    HW220686   3.354   2.252   3.938  0.4297 -0.2984  0.0447
 3253SOL     OW20687   6.090   0.896   3.143 -0.3572 -0.1813 -0.0331
 3253SOL    HW120688   6.096   0.798   3.162  0.5980 -0.7132 -2.7828
 3253SOL    HW220689   5.994   0.925   3.148 -0.7247 -1.3911  0.1742
 3254SOL     OW20690   8.923   9.213   5.566  0.0746 -0.2185 -0.3753
 3254SOL    HW120691   8.931   9.277   5.490 -0.5417 -1.2003 -1.2896
 3254SOL    HW220692   8.999   9.147   5.562  0.3184  0.0203  0.1574
 3255SOL     OW20693   0.998   9.556   2.796 -0.1841  0.3652 -0.2474
 3255SOL    HW120694   0.996   9.458   2.779  0.9438  0.1969  0.4910
 3255SOL    HW220695   0.943   9.578   2.876  0.4086  0.1917  0.2114
 3256SOL     OW20696   4.905   0.572   4.964  0.7568 -0.7180 -0.0174
 3256SOL    HW120697   4.968   0.642   4.996 -0.3076 -0.2929  1.1904
 3256SOL    HW220698   4.955   0.501   4.916  1.8155  1.0585 -1.5911
 3257SOL     OW20699   0.583   1.549   1.706  0.4573 -0.2524 -0.2323
 3257SOL    HW120700   0.634   1.600   1.775  0.2139 -0.3653  0.0342
 3257SOL    HW220701   0.521   1.484   1.752  1.0152 -1.0265 -0.5725
 3258SOL     OW20702   3.221   0.322   0.830 -0.0141  0.2843  0.1452
 3258SOL    HW120703   3.208   0.405   0.776  0.5355  0.1152 -0.2473
 3258SOL    HW220704   3.296   0.269   0.792  0.5025  0.2517  1.1793
 3259SOL     OW20705   4.884   8.475   4.214 -0.3168 -0.4589 -0.2099
 3259SOL    HW120706   4.940   8.509   4.138 -1.6821  0.8896 -0.6250
 3259SOL    HW220707   4.933   8.489   4.300 -0.0841  0.8617 -0.5563
 3260SOL     OW20708   3.693   2.397   0.477  0.0335 -0.1589  0.3322
 3260SOL    HW120709   3.728   2.480   0.520  0.0307  0.6186 -1.1317
 3260SOL    HW220710   3.732   2.317   0.522  0.9228  0.6485  1.0170
 3261SOL     OW20711   0.062   9.957   5.093  0.1791  0.4645 -0.4708
 3261SOL    HW120712   0.149  10.004   5.102 -0.3021  1.9792 -3.3376
 3261SOL    HW220713  -0.013  10.024   5.091 -0.8091 -0.6264 -0.9770
 3262SOL     OW20714   7.964   6.917   3.859 -0.1534  0.1380 -0.2248
 3262SOL    HW120715   8.040   6.959   3.809  1.3770 -0.5221  1.4886
 3262SOL    HW220716   7.905   6.868   3.795  1.3677 -0.0838 -1.4833
 3263SOL     OW20717   0.552   2.793   4.839 -0.7391  0.6035  0.3076
 3263SOL    HW120718   0.458   2.770   4.815 -1.1521  0.3384  2.0823
 3263SOL    HW220719   0.562   2.791   4.938  1.4008 -0.3863  0.0898
 3264SOL     OW20720   9.388   9.954   1.335 -0.0788  0.0492 -0.0110
 3264SOL    HW120721   9.477   9.997   1.320 -0.2891  0.1302 -1.1172
 3264SOL    HW220722   9.337  10.005   1.404  0.3635  0.5519 -0.0531
 3265SOL     OW20723   9.758   7.801   1.166 -0.7051  0.0934  0.1378
 3265SOL    HW120724   9.832   7.784   1.100 -0.2975 -0.8422  0.8329
 3265SOL    HW220725   9.742   7.900   1.173  2.5347  0.5510  2.1986
 3266SOL     OW20726   1.332   6.127   4.409  0.2882  0.3719 -0.1956
 3266SOL    HW120727   1.285   6.078   4.336 -0.7985 -1.0017  1.3958
 3266SOL    HW220728   1.272   6.198   4.446  0.9497  1.2741 -0.8244
 3267SOL     OW20729   2.926   0.005   3.027 -0.5019  0.5225 -0.3580
 3267SOL    HW120730   2.832  -0.003   2.994 -0.2613  0.3953 -1.0074
 3267SOL    HW220731   2.989   0.007   2.950  0.3386 -3.1125  0.1609
 3268SOL     OW20732   4.331   3.985   2.438 -0.3582 -0.3253 -0.1000
 3268SOL    HW120733   4.345   3.905   2.495  0.8020  0.1113  0.2360
 3268SOL    HW220734   4.235   3.988   2.408 -1.0478 -0.3911  2.0503
 3269SOL     OW20735   8.545   6.341   0.026 -0.0312  0.0558  0.2521
 3269SOL    HW120736   8.626   6.395   0.005  0.7864 -0.9323  0.8556
 3269SOL    HW220737   8.561   6.245   0.004 -0.6640 -0.3170  1.3331
 3270SOL     OW20738   6.943   0.596   3.627 -0.5658 -0.1799 -0.4498
 3270SOL    HW120739   7.025   0.594   3.684 -1.1446  2.8364  0.6246
 3270SOL    HW220740   6.965   0.634   3.537 -0.9069  1.5678  0.1741
 3271SOL     OW20741   2.676   4.293   1.700  0.9403 -0.8510 -0.7279
 3271SOL    HW120742   2.600   4.236   1.668  0.8979 -0.6236 -1.0348
 3271SOL    HW220743   2.740   4.237   1.751  0.5396 -1.0382 -0.4231
 3272SOL     OW20744   3.047   0.164   0.371  0.1114 -0.4063  0.2802
 3272SOL    HW120745   3.117   0.202   0.431 -0.5304  1.2106  0.0147
 3272SOL    HW220746   2.957   0.172   0.414 -0.6200  2.5228 -1.6357
 3273SOL     OW20747   2.179   9.613   3.535 -0.6309  0.1258 -0.8879
 3273SOL    HW120748   2.245   9.563   3.591  0.0706  0.8487 -1.0534
 3273SOL    HW220749   2.087   9.600   3.571  0.0076  2.0017  1.4828
 3274SOL     OW20750   3.013   6.146   2.752 -0.3839 -0.0772  0.5117
 3274SOL    HW120751   2.954   6.217   2.712  1.3023  2.2187  1.9844
 3274SOL    HW220752   2.966   6.058   2.748 -3.1871  1.3793  0.0281
 3275SOL     OW20753   0.740   0.621   2.445  0.0286  0.3460 -0.0184
 3275SOL    HW120754   0.823   0.571   2.422 -0.5734 -0.9261  0.5508
 3275SOL    HW220755   0.722   0.690   2.374  2.1244  1.3391  0.3912
 3276SOL     OW20756   0.582   2.565   5.079 -0.1459 -0.0360 -0.3447
 3276SOL    HW120757   0.574   2.664   5.094  2.3650 -0.0230  1.1652
 3276SOL    HW220758   0.542   2.517   5.157  0.1689 -0.1831 -0.2743
 3277SOL     OW20759   3.746   1.155   0.609  0.3962 -0.3273 -0.0013
 3277SOL    HW120760   3.805   1.124   0.535  0.5947  0.5990 -0.2435
 3277SOL    HW220761   3.703   1.077   0.653 -0.5345 -0.8363 -1.7803
 3278SOL     OW20762   1.649   6.983   2.099  0.3917 -0.2563  0.4025
 3278SOL    HW120763   1.609   6.969   2.190  2.7504 -1.8203  1.2250
 3278SOL    HW220764   1.704   6.904   2.073 -1.3312 -0.4279 -3.0158
 3279SOL     OW20765   8.160   3.479   1.226  0.3437  0.5785 -0.6383
 3279SOL    HW120766   8.244   3.473   1.173 -0.1437 -1.8082 -1.1708
 3279SOL    HW220767   8.090   3.526   1.173  0.7409  0.8163 -0.9546
 3280SOL     OW20768   0.189   4.860   3.455 -0.4733 -0.1009  0.3409
 3280SOL    HW120769   0.235   4.837   3.369  0.8526 -0.3537  1.0941
 3280SOL    HW220770   0.157   4.954   3.451  1.3823  0.5623  0.3079
 3281SOL     OW20771   9.322   7.952   3.604 -0.3143  0.4245 -0.3186
 3281SOL    HW120772   9.253   7.880   3.616 -0.5107  0.4880 -1.0688
 3281SOL    HW220773   9.410   7.910   3.585 -0.2541  0.3623  0.0796
 3282SOL     OW20774   8.250   1.013   2.102 -0.1231  0.0911  0.7353
 3282SOL    HW120775   8.207   1.036   2.015  2.3424  1.4050 -0.1901
 3282SOL    HW220776   8.302   0.928   2.093  0.7170  0.6002  0.7059
 3283SOL     OW20777   1.951   2.675   0.042 -0.3398  0.6164  0.3606
 3283SOL    HW120778   1.896   2.609   0.092 -0.9240  1.5549  0.9716
 3283SOL    HW220779   1.999   2.734   0.107  0.0451  0.9056 -0.1803
 3284SOL     OW20780   4.610   2.901   1.895  0.3153  0.5349 -0.5578
 3284SOL    HW120781   4.697   2.852   1.889  1.5156  2.3085  1.4579
 3284SOL    HW220782   4.610   2.976   1.829  0.5908  0.9142 -0.1321
 3285SOL     OW20783   3.216   7.797   4.833 -0.6640 -0.4209 -0.1133
 3285SOL    HW120784   3.237   7.834   4.923  0.4323 -0.6725 -0.2562
 3285SOL    HW220785   3.222   7.697   4.836 -0.0809 -0.4060 -0.5927
 3286SOL     OW20786   3.065   0.054   4.470 -0.0166  0.5306 -0.6616
 3286SOL    HW120787   3.020   0.096   4.391 -1.1039 -0.3857 -0.5403
 3286SOL    HW220788   3.125  -0.019   4.439  0.4880  0.9708 -0.7305
 3287SOL     OW20789   7.763   9.550   3.629  0.0256  0.4891  0.3251
 3287SOL    HW120790   7.795   9.643   3.610  0.6402  0.2403  0.1094
 3287SOL    HW220791   7.675   9.554   3.676  1.2382  1.2294  2.5982
 3288SOL     OW20792   0.225   8.101   5.593  0.2694  0.1825  0.0184
 3288SOL    HW120793   0.316   8.074   5.560  1.1002 -0.6538  2.8201
 3288SOL    HW220794   0.230   8.190   5.636 -0.0548 -0.2323  0.9269
 3289SOL     OW20795   0.790   6.611   0.978  0.4677  0.1192  0.3916
 3289SOL    HW120796   0.841   6.595   0.894 -2.0307  0.9517 -1.3366
 3289SOL    HW220797   0.800   6.532   1.038 -0.2530 -1.8919 -2.0296
 3290SOL     OW20798   3.013   8.953   3.424 -0.0815  0.2128  0.1597
 3290SOL    HW120799   2.998   8.868   3.373  0.5189  0.2411 -0.0659
 3290SOL    HW220800   2.931   9.010   3.416 -0.2075 -0.0223 -0.3098
 3291SOL     OW20801   4.152   0.924   5.027  0.1259 -0.1818  0.6816
 3291SOL    HW120802   4.235   0.964   4.988  0.2448  1.6579  2.7034
 3291SOL    HW220803   4.157   0.825   5.021  1.4936 -0.0164 -1.1726
 3292SOL     OW20804   2.046   4.118   1.096 -0.3257 -0.0223  0.8865
 3292SOL    HW120805   2.086   4.133   1.187 -0.5074 -0.1943  0.9970
 3292SOL    HW220806   2.000   4.029   1.094  0.9615 -0.6763  0.1562
 3293SOL     OW20807   0.091   3.777   0.551 -0.1796 -0.2120  0.3848
 3293SOL    HW120808   0.025   3.846   0.581  0.6396  0.5975  0.3593
 3293SOL    HW220809   0.160   3.820   0.493 -0.1749 -1.2388 -0.3820
 3294SOL     OW20810   2.512   7.567   3.550 -0.1696 -0.5793 -0.2095
 3294SOL    HW120811   2.421   7.527   3.560 -2.0021  3.3893 -0.0584
 3294SOL    HW220812   2.535   7.577   3.454  1.5108 -4.4157 -0.2880
 3295SOL     OW20813   9.821   9.385   2.169 -0.5104  0.4222  0.1226
 3295SOL    HW120814   9.789   9.371   2.075 -0.5936  0.2923  0.1690
 3295SOL    HW220815   9.846   9.481   2.182 -0.4309  0.4255 -0.0530
 3296SOL     OW20816   5.120   2.509   0.505 -0.2949  0.2494  0.5725
 3296SOL    HW120817   5.149   2.508   0.409 -1.8814 -0.4249  0.0805
 3296SOL    HW220818   5.124   2.602   0.541 -0.3078  0.6117 -0.3559
 3297SOL     OW20819   1.832   0.788   4.915  0.1463  0.3451  0.3065
 3297SOL    HW120820   1.857   0.858   4.848 -0.7213 -0.2890 -0.6867
 3297SOL    HW220821   1.747   0.815   4.960 -0.6641 -0.4819 -0.7043
 3298SOL     OW20822   8.188   0.050   2.428 -0.1136  0.0221  0.0484
 3298SOL    HW120823   8.105   0.091   2.466 -0.8389 -0.4931 -0.9501
 3298SOL    HW220824   8.202   0.086   2.335  0.6999 -0.0076  0.1604
 3299SOL     OW20825   2.264   3.048   1.227 -0.1328 -0.0713  0.0657
 3299SOL    HW120826   2.176   3.068   1.184 -0.1910  0.0604  0.2467
 3299SOL    HW220827   2.280   2.949   1.223 -0.5827 -0.1715  0.5956
 3300SOL     OW20828   2.019   8.724   2.727  0.1509  0.1029  0.1340
 3300SOL    HW120829   1.958   8.646   2.725  0.6433 -0.3513  1.8720
 3300SOL    HW220830   2.004   8.777   2.811  0.4445  1.3638 -0.5832
 3301SOL     OW20831   2.860   0.725   3.336 -0.6619 -0.0544  0.3628
 3301SOL    HW120832   2.769   0.761   3.357  1.1013  4.0251  1.4342
 3301SOL    HW220833   2.911   0.712   3.421  1.0627  1.4267 -0.4084
 3302SOL     OW20834   5.599   1.073   1.136 -0.0780  0.1307 -0.3445
 3302SOL    HW120835   5.591   1.148   1.070 -0.4261  0.4693  0.0770
 3302SOL    HW220836   5.516   1.069   1.191  0.5756  0.4099  0.6706
 3303SOL     OW20837   5.557   0.793   2.173  0.8706 -0.2847  0.1182
 3303SOL    HW120838   5.639   0.814   2.119  0.8552  0.7388  0.4882
 3303SOL    HW220839   5.578   0.720   2.237  2.1893  1.5414  1.8274
 3304SOL     OW20840   8.906   4.220   4.754  0.1382 -0.2458  0.0325
 3304SOL    HW120841   8.833   4.183   4.697  0.3801  0.6864 -0.8874
 3304SOL    HW220842   8.983   4.247   4.696 -0.2038  2.1093  0.6204
 3305SOL     OW20843   2.081   0.602   5.030  0.9391 -0.0926  0.0247
 3305SOL    HW120844   1.995   0.621   4.982  0.7411  0.6002  0.6543
 3305SOL    HW220845   2.124   0.687   5.058  0.6714 -0.5016  1.7445
 3306SOL     OW20846   1.038   0.215   0.874 -0.1280 -0.3925 -0.5873
 3306SOL    HW120847   0.966   0.146   0.880 -0.1723 -0.2204  0.8377
 3306SOL    HW220848   1.021   0.288   0.941  1.0233 -0.0283 -0.6859
 3307SOL     OW20849   7.981   3.563   0.580  0.6934  0.0767  0.0295
 3307SOL    HW120850   7.989   3.478   0.633  1.0728  0.1898  0.1602
 3307SOL    HW220851   7.967   3.639   0.643  1.5214  0.2611 -0.0054
 3308SOL     OW20852   1.717   9.369   0.475 -0.3348 -0.1091  0.3033
 3308SOL    HW120853   1.660   9.343   0.553 -0.4671  0.2922  0.3433
 3308SOL    HW220854   1.714   9.297   0.406 -1.4672  0.2201 -0.0050
 3309SOL     OW20855   4.201   1.807   5.270  1.0757 -0.2249  0.3693
 3309SOL    HW120856   4.150   1.887   5.239  0.5898  0.0785  1.9000
 3309SOL    HW220857   4.295   1.811   5.237  1.4840  1.7690  1.7055
 3310SOL     OW20858   8.325   6.369   0.520  0.4254 -0.5354  0.1472
 3310SOL    HW120859   8.288   6.295   0.577 -0.0317 -0.4951 -0.1009
 3310SOL    HW220860   8.314   6.456   0.568  1.0985 -0.6445  0.5037
 3311SOL     OW20861   8.067   4.446   4.748  0.3154  0.3942  0.2451
 3311SOL    HW120862   8.005   4.451   4.826 -0.9147 -1.2184 -0.5880
 3311SOL    HW220863   8.036   4.374   4.686  2.6592  0.0223 -0.5391
 3312SOL     OW20864   0.064   3.733   5.368 -0.2526  0.8049 -0.0479
 3312SOL    HW120865   0.018   3.696   5.288  0.0028 -0.7504  0.5035
 3312SOL    HW220866   0.039   3.830   5.380  0.1188  1.1935 -2.2767
 3313SOL     OW20867   9.726   7.309   0.589  0.4848 -0.0780  0.1156
 3313SOL    HW120868   9.726   7.359   0.676 -1.1925  0.0078  0.0751
 3313SOL    HW220869   9.678   7.222   0.600  0.3604 -0.1169 -0.6971
 3314SOL     OW20870   0.423   4.300   4.038 -0.3991  0.3678  0.0808
 3314SOL    HW120871   0.357   4.259   3.976 -0.9950  1.5184 -0.0460
 3314SOL    HW220872   0.516   4.277   4.007 -0.6986  0.5559 -0.9696
 3315SOL     OW20873   8.758   0.366   2.481 -0.2142  0.0143 -0.2319
 3315SOL    HW120874   8.735   0.283   2.531  1.4993  0.6472  1.7005
 3315SOL    HW220875   8.822   0.344   2.407  0.2244 -0.4043  0.2687
 3316SOL     OW20876   1.391   1.923   0.886  0.4993 -0.1634  0.3044
 3316SOL    HW120877   1.416   2.015   0.856  0.2926  0.0461  0.7770
 3316SOL    HW220878   1.407   1.914   0.984  1.6507 -1.0116  0.0506
 3317SOL     OW20879   8.817   2.704   2.426  0.0963  0.3442  0.2974
 3317SOL    HW120880   8.728   2.735   2.393 -0.3362 -0.4893  0.6661
 3317SOL    HW220881   8.877   2.685   2.348 -0.5257 -0.4686  0.0052
 3318SOL     OW20882   2.742   7.247   3.724 -0.0647  0.1429  0.5646
 3318SOL    HW120883   2.785   7.324   3.772 -0.4171 -0.2426  1.5059
 3318SOL    HW220884   2.741   7.266   3.626 -4.3322  3.4953  1.1043
 3319SOL     OW20885   0.550   9.528   5.019 -0.2225 -0.1931 -0.4812
 3319SOL    HW120886   0.594   9.517   4.929  1.8109  0.4961  0.3916
 3319SOL    HW220887   0.550   9.625   5.043  1.4032 -0.6033  1.2859
 3320SOL     OW20888   8.490   2.120   1.554 -0.5904 -0.1220  0.0089
 3320SOL    HW120889   8.484   2.216   1.529 -3.3505 -0.6254 -1.3547
 3320SOL    HW220890   8.438   2.105   1.638  1.6851 -0.0525  1.4883
 3321SOL     OW20891   4.668   9.488   3.030  0.1757 -0.1721  0.2387
 3321SOL    HW120892   4.732   9.472   2.955 -1.1332 -1.7521 -0.5616
 3321SOL    HW220893   4.650   9.403   3.079 -1.2620  0.2432  0.4863
 3322SOL     OW20894   1.558   0.723   4.692  0.2008  0.0402 -0.0077
 3322SOL    HW120895   1.488   0.662   4.656  1.7517  0.2233 -3.5458
 3322SOL    HW220896   1.646   0.702   4.650  1.5307  2.2639  1.5303
 3323SOL     OW20897   9.127   4.524   5.277  0.0494  0.7872  0.1773
 3323SOL    HW120898   9.039   4.479   5.289  0.3611 -0.0079 -0.4587
 3323SOL    HW220899   9.112   4.622   5.259 -0.8233  0.2673 -2.1000
 3324SOL     OW20900   9.378   4.741   2.788  0.4380  0.0924  0.3453
 3324SOL    HW120901   9.459   4.690   2.817 -0.2214 -2.0432 -1.4164
 3324SOL    HW220902   9.297   4.686   2.807 -0.3197  0.7036 -1.1374
 3325SOL     OW20903   7.560   2.509   0.915 -0.4957  0.1747 -0.1006
 3325SOL    HW120904   7.647   2.509   0.865 -1.0461  2.6071 -1.1118
 3325SOL    HW220905   7.485   2.485   0.853 -1.0660  2.3007 -0.2684
 3326SOL     OW20906   7.054   7.636   3.743  0.3096 -0.0460 -0.8805
 3326SOL    HW120907   6.962   7.673   3.756  0.1507 -0.9524  0.8058
 3326SOL    HW220908   7.048   7.541   3.713  0.6507 -0.7180  1.0795
 3327SOL     OW20909   7.170   6.919   3.865  0.3234  0.1706 -0.4788
 3327SOL    HW120910   7.094   6.902   3.802 -0.2927 -0.9032  0.5274
 3327SOL    HW220911   7.253   6.938   3.813 -0.1374 -0.8776 -1.6144
 3328SOL     OW20912   2.249   6.326   0.756  0.4983 -0.4422 -0.1311
 3328SOL    HW120913   2.278   6.422   0.749 -0.7724 -0.0762 -0.4785
 3328SOL    HW220914   2.193   6.315   0.838  0.0190 -0.7279 -0.4965
 3329SOL     OW20915   9.795   9.607   4.427  0.1664 -0.3435  0.4846
 3329SOL    HW120916   9.701   9.596   4.461  0.6484 -2.1366  1.2842
 3329SOL    HW220917   9.850   9.530   4.457  1.5893  0.0482 -1.0763
 3330SOL     OW20918   7.041   9.347   2.127 -0.2408 -0.3482 -0.8515
 3330SOL    HW120919   7.058   9.385   2.036 -1.2962  0.8219 -0.5705
 3330SOL    HW220920   7.124   9.353   2.182  0.1558 -0.2620 -1.4524
 3331SOL     OW20921   8.847   8.052   4.357 -0.0852 -0.1690  0.4376
 3331SOL    HW120922   8.935   8.020   4.323 -0.2659  1.5809 -1.7558
 3331SOL    HW220923   8.784   7.974   4.364  0.9421 -1.0601 -0.1224
 3332SOL     OW20924   1.472   2.589   4.745  0.2568 -0.2202 -0.3122
 3332SOL    HW120925   1.539   2.662   4.727 -0.4998  0.5172 -0.1565
 3332SOL    HW220926   1.395   2.598   4.683 -0.3556 -0.2328  0.4334
 3333SOL     OW20927   2.543   2.482   1.879  0.3305  0.2291  0.1442
 3333SOL    HW120928   2.487   2.497   1.798  1.1466  1.2123 -0.2429
 3333SOL    HW220929   2.589   2.393   1.872  0.5161  0.3790 -0.5337
 3334SOL     OW20930   5.993   9.062   2.574 -0.4695 -0.7348 -0.2166
 3334SOL    HW120931   5.920   9.045   2.641 -0.9882 -0.5324 -0.7235
 3334SOL    HW220932   5.985   8.996   2.500 -1.2972  0.4647 -1.2188
 3335SOL     OW20933   9.815   2.772   0.472  0.7583  0.1288 -0.5417
 3335SOL    HW120934   9.831   2.674   0.473  0.2999  0.0560 -0.2928
 3335SOL    HW220935   9.900   2.820   0.450  1.1027 -0.2964 -0.1351
 3336SOL     OW20936   2.859   4.790   2.258 -0.4154  0.6706 -0.6806
 3336SOL    HW120937   2.866   4.691   2.247  1.0609  0.7274 -0.3593
 3336SOL    HW220938   2.921   4.836   2.195  1.4941  1.2594  1.5474
 3337SOL     OW20939   4.718   7.796   3.777  0.2589 -0.3779  0.3051
 3337SOL    HW120940   4.756   7.841   3.858  0.2721 -0.7076  0.4836
 3337SOL    HW220941   4.678   7.865   3.716  0.0343 -0.1494  0.7059
 3338SOL     OW20942   7.346   2.784   5.249  0.0831  0.7482 -0.0903
 3338SOL    HW120943   7.442   2.765   5.227  0.3203  1.3330  0.4002
 3338SOL    HW220944   7.306   2.843   5.179 -0.2840 -0.5026 -0.9481
 3339SOL     OW20945   0.350   3.428   1.458 -0.2808  0.2037  0.0590
 3339SOL    HW120946   0.405   3.435   1.374  1.0212  0.5536  0.9388
 3339SOL    HW220947   0.269   3.371   1.439  0.8242 -1.0570 -1.0042
 3340SOL     OW20948   6.242   8.742   2.386  0.3872 -0.3410 -0.3508
 3340SOL    HW120949   6.175   8.812   2.364 -0.5165 -0.9312  0.5080
 3340SOL    HW220950   6.279   8.704   2.301  1.7919  1.9979 -0.8464
 3341SOL     OW20951   0.556   1.810   3.499  0.6001 -0.5666  0.2507
 3341SOL    HW120952   0.560   1.710   3.506  0.9957 -0.5963 -0.3716
 3341SOL    HW220953   0.483   1.836   3.437  1.7935 -0.5418 -1.1732
 3342SOL     OW20954   5.194   9.361   4.324  0.0379 -1.0844  0.7575
 3342SOL    HW120955   5.232   9.409   4.403  0.8134  1.8147 -1.2994
 3342SOL    HW220956   5.095   9.354   4.334  0.0884 -0.4028  1.7954
 3343SOL     OW20957   1.209   0.662   1.963 -0.0851 -0.6991 -0.1257
 3343SOL    HW120958   1.272   0.624   1.895 -1.3253 -1.0926 -1.0748
 3343SOL    HW220959   1.246   0.748   1.998  1.3795 -1.3345 -0.0394
 3344SOL     OW20960   7.559   6.376   2.968 -0.1561  0.0466 -0.0461
 3344SOL    HW120961   7.518   6.447   2.911 -1.7261 -1.1076 -0.3855
 3344SOL    HW220962   7.576   6.294   2.912  0.7620 -0.1870  0.5538
 3345SOL     OW20963   9.040   4.581   4.894 -0.1433  0.7726 -0.2867
 3345SOL    HW120964   8.996   4.524   4.964 -0.5599  0.2746 -0.9500
 3345SOL    HW220965   9.117   4.532   4.854 -1.2014  0.2027 -1.6653
 3346SOL     OW20966   0.494   5.798   2.416  0.6514  0.1942 -0.9040
 3346SOL    HW120967   0.575   5.844   2.452 -0.1274  0.0218  1.1511
 3346SOL    HW220968   0.457   5.849   2.339  0.9746  1.9109  0.0541
 3347SOL     OW20969   1.904   9.450   3.540 -0.3631  0.2723  0.1110
 3347SOL    HW120970   1.921   9.503   3.457 -0.8896  0.7015  0.2757
 3347SOL    HW220971   1.846   9.503   3.602 -0.2187 -0.1689  0.6240
 3348SOL     OW20972   5.374   6.600   3.250 -0.3225  0.1647  0.1510
 3348SOL    HW120973   5.314   6.581   3.171  2.4248  0.4825 -2.0843
 3348SOL    HW220974   5.408   6.694   3.244 -0.7447  0.4607  2.1957
 3349SOL     OW20975   1.478   0.375   5.580  0.0653  0.1003  0.2202
 3349SOL    HW120976   1.405   0.434   5.615 -0.2793 -0.8889  1.2046
 3349SOL    HW220977   1.566   0.410   5.611 -0.0143  1.0409 -0.5891
 3350SOL     OW20978   1.808   9.575   1.571 -0.0873  0.4577 -0.2097
 3350SOL    HW120979   1.876   9.541   1.636  0.6663 -1.0824 -1.7556
 3350SOL    HW220980   1.841   9.659   1.529  1.9182 -1.3783 -2.5047
 3351SOL     OW20981   2.524   9.865   5.038  1.0880  0.3525  0.0712
 3351SOL    HW120982   2.570   9.802   5.100  0.7713  0.5001  0.4593
 3351SOL    HW220983   2.527   9.957   5.076  0.8857  0.4437 -0.1301
 3352SOL     OW20984   4.661   0.467   4.981  0.6055  0.4929 -0.2347
 3352SOL    HW120985   4.751   0.504   4.960  1.9136 -1.9748  0.8151
 3352SOL    HW220986   4.653   0.375   4.944 -2.6788  1.7966 -3.0803
 3353SOL     OW20987   1.690   6.593   3.602  0.3066 -0.0550 -0.1393
 3353SOL    HW120988   1.773   6.539   3.614  0.9562  1.0628  0.4908
 3353SOL    HW220989   1.668   6.600   3.505  1.1795 -0.0122 -0.3347
 3354SOL     OW20990   8.519   8.114   4.665  0.0711  0.3094  0.1532
 3354SOL    HW120991   8.538   8.016   4.662 -1.2999  0.0472 -0.5399
 3354SOL    HW220992   8.600   8.165   4.639  0.6235 -0.6668 -0.0591
 3355SOL     OW20993   3.909   0.718   5.478 -0.0702 -0.1536 -0.2222
 3355SOL    HW120994   3.821   0.739   5.520 -0.4416  0.8830 -1.4909
 3355SOL    HW220995   3.909   0.749   5.383  2.5813  2.2610  0.5001
 3356SOL     OW20996   0.883   5.712   4.661 -0.0107 -0.0550 -0.1742
 3356SOL    HW120997   0.817   5.700   4.587 -1.1151 -0.5631  0.8698
 3356SOL    HW220998   0.883   5.807   4.691 -0.8743 -0.2262  0.3753
 3357SOL     OW20999   0.995   6.478   0.102 -0.1403 -0.5708  0.0119
 3357SOL    HW121000   1.004   6.379   0.087 -2.2179 -0.5796 -1.3563
 3357SOL    HW221001   1.052   6.526   0.035  3.1232 -0.8363  2.4914
 3358SOL     OW21002   0.433   1.990   5.501 -0.3881  0.1610  0.4510
 3358SOL    HW121003   0.373   1.994   5.581 -0.6909 -0.2021  0.2393
 3358SOL    HW221004   0.520   2.034   5.523 -0.7430  0.7262  0.7448
 3359SOL     OW21005   3.186   4.987   4.105 -0.2611  0.4201 -0.5096
 3359SOL    HW121006   3.154   4.904   4.058 -0.6660  0.2644  0.0423
 3359SOL    HW221007   3.191   5.062   4.039 -0.0183 -0.0119 -0.9845
 3360SOL     OW21008   1.403   0.409   2.587  0.8790  0.1308  0.6646
 3360SOL    HW121009   1.475   0.422   2.656  0.8040  0.9800  0.5879
 3360SOL    HW221010   1.384   0.496   2.542  1.7306 -0.6520 -1.2500
 3361SOL     OW21011   2.645   3.051   2.769 -0.1618  0.1597  0.5035
 3361SOL    HW121012   2.715   3.122   2.783  1.1309 -0.9180 -0.3962
 3361SOL    HW221013   2.626   3.044   2.671 -0.9119 -0.1553  0.6753
 3362SOL     OW21014   7.329   9.450   5.441  0.2474  0.1535  0.0391
 3362SOL    HW121015   7.400   9.498   5.492  1.0227  0.5852 -1.4471
 3362SOL    HW221016   7.370   9.376   5.388 -0.4675  0.1568 -0.5273
 3363SOL     OW21017   9.240   9.282   2.435 -0.6611 -0.1192  0.0452
 3363SOL    HW121018   9.274   9.228   2.513  1.1797  0.9136 -0.0147
 3363SOL    HW221019   9.230   9.223   2.355  2.3237 -0.2166 -0.3049
 3364SOL     OW21020   2.057   7.207   3.431  0.6487 -0.0824 -0.3133
 3364SOL    HW121021   1.968   7.206   3.475  0.1624 -0.8780 -1.2989
 3364SOL    HW221022   2.120   7.148   3.482  0.5024  0.1608  0.1495
 3365SOL     OW21023   9.070   2.309   4.381 -0.4721 -0.0424  0.2558
 3365SOL    HW121024   9.058   2.244   4.305  0.2961 -1.2802  1.1715
 3365SOL    HW221025   9.044   2.401   4.351 -3.1564 -1.0448 -0.5831
 3366SOL     OW21026   8.111   8.902   5.285  0.2221  0.3743 -0.3976
 3366SOL    HW121027   8.122   8.957   5.368  1.4396  1.5251 -1.2932
 3366SOL    HW221028   8.014   8.883   5.269 -0.0610  0.7253  0.9143
 3367SOL     OW21029   1.956   4.909   2.434 -0.4352  0.2333  0.2714
 3367SOL    HW121030   2.032   4.944   2.378 -0.0803 -2.2313 -0.8540
 3367SOL    HW221031   1.916   4.829   2.390 -2.5743  0.4356  1.7486
 3368SOL     OW21032   4.991   1.012   2.774 -0.1390  0.6439  0.4892
 3368SOL    HW121033   4.895   1.035   2.789 -0.4019 -0.3324  0.3561
 3368SOL    HW221034   5.035   1.084   2.722 -1.3739  0.0516 -1.4287
 3369SOL     OW21035   1.001   3.954   1.281  0.1828  0.1492 -0.1569
 3369SOL    HW121036   1.018   4.044   1.322 -1.1175  1.0553 -1.5453
 3369SOL    HW221037   1.083   3.924   1.232  0.0988  1.3338 -1.0480
 3370SOL     OW21038   9.531   9.140   1.755 -0.1268 -0.0068  0.0561
 3370SOL    HW121039   9.542   9.052   1.707 -1.5375  0.8099 -1.8494
 3370SOL    HW221040   9.584   9.210   1.707 -1.3756  0.7788 -0.1887
 3371SOL     OW21041   0.325   3.904   4.135 -0.1385  0.3209 -0.6905
 3371SOL    HW121042   0.306   3.978   4.069 -1.6696 -0.4701 -1.1620
 3371SOL    HW221043   0.264   3.828   4.117  0.3130 -0.4171  0.8636
 3372SOL     OW21044   9.306   8.698   2.926 -0.4012 -0.6022  0.1505
 3372SOL    HW121045   9.376   8.768   2.933 -1.7090  0.6234  1.1155
 3372SOL    HW221046   9.225   8.737   2.883 -0.3358 -2.1394 -1.4111
 3373SOL     OW21047   1.795   0.101   4.311  0.2115  0.6958  0.1830
 3373SOL    HW121048   1.858   0.055   4.374 -0.3832 -0.5022 -0.0913
 3373SOL    HW221049   1.804   0.060   4.220 -0.4345  1.0245 -0.0269
 3374SOL     OW21050   9.862   7.327   1.246  0.2803  0.1287 -0.4415
 3374SOL    HW121051   9.863   7.245   1.188 -1.4863 -0.8519  0.8311
 3374SOL    HW221052   9.941   7.326   1.306 -0.8994 -1.9078  1.1656
 3375SOL     OW21053   4.749   0.828   1.820 -0.3535 -0.2070 -0.0481
 3375SOL    HW121054   4.817   0.756   1.810  0.0438  0.0800  0.6011
 3375SOL    HW221055   4.779   0.894   1.889 -1.5143 -0.3382  0.5891
 3376SOL     OW21056   8.377   5.727   4.623  0.4938 -0.1388  0.0777
 3376SOL    HW121057   8.439   5.750   4.697  0.4603 -0.4965  0.2208
 3376SOL    HW221058   8.315   5.804   4.605  0.8824  0.1627  0.0304
 3377SOL     OW21059   1.872   3.269   5.354 -0.4253  0.3333 -0.1068
 3377SOL    HW121060   1.954   3.221   5.384  0.1391  0.9174 -0.7051
 3377SOL    HW221061   1.838   3.326   5.429  0.3944  0.9946 -0.2244
 3378SOL     OW21062   9.981   1.396   0.457  0.2695  0.1065  0.9348
 3378SOL    HW121063   9.951   1.354   0.542 -0.3584  0.4997  0.9093
 3378SOL    HW221064   9.901   1.421   0.402  0.6657 -1.9551 -0.6542
 3379SOL     OW21065   9.528   8.122   0.191 -0.0593  0.1571  0.3326
 3379SOL    HW121066   9.609   8.063   0.201 -1.2604 -1.7947 -0.9917
 3379SOL    HW221067   9.461   8.098   0.260 -0.3333  0.3511  0.1358
 3380SOL     OW21068   2.889   1.713   4.034  0.3056  0.2356  0.3505
 3380SOL    HW121069   2.979   1.669   4.033  0.3268  0.2839 -0.1895
 3380SOL    HW221070   2.883   1.777   3.958  0.2118  1.0539  1.0430
 3381SOL     OW21071   2.361   2.846   1.013  0.1916  0.0880 -0.0149
 3381SOL    HW121072   2.397   2.776   1.074 -0.6217  1.2883  1.9027
 3381SOL    HW221073   2.263   2.831   0.998  0.1829  0.3589 -0.2443
 3382SOL     OW21074   5.077   9.769   1.253  0.4161 -0.6461 -0.0336
 3382SOL    HW121075   5.046   9.686   1.299  1.3714  0.1844  2.1834
 3382SOL    HW221076   5.048   9.849   1.305  1.0914  0.3510 -1.1535
 3383SOL     OW21077   2.879   2.802   3.240 -0.2127 -0.1216  0.4444
 3383SOL    HW121078   2.814   2.803   3.164  1.2803 -2.3566 -0.9077
 3383SOL    HW221079   2.845   2.743   3.313  0.3952 -1.5154 -0.3814
 3384SOL     OW21080   1.419   8.432   5.049 -0.1996 -0.9264  0.5116
 3384SOL    HW121081   1.506   8.393   5.078  0.8608  1.2177  0.2863
 3384SOL    HW221082   1.393   8.506   5.111 -0.4507  0.3157 -1.0652
 3385SOL     OW21083   2.124   1.878   1.129  0.8767  0.2079 -0.1740
 3385SOL    HW121084   2.124   1.806   1.199  1.0896 -0.7307 -1.1251
 3385SOL    HW221085   2.082   1.842   1.045  0.8770  1.2363 -0.6200
 3386SOL     OW21086   1.141   1.596   5.449 -0.4193 -0.4392  0.5807
 3386SOL    HW121087   1.233   1.634   5.442 -0.2727 -0.3151  2.7159
 3386SOL    HW221088   1.084   1.634   5.376  0.9124  0.3576 -0.0770
 3387SOL     OW21089   3.566   6.040   3.383 -0.4263 -0.1894 -0.0268
 3387SOL    HW121090   3.542   6.115   3.321 -1.1883 -0.1889  0.2652
 3387SOL    HW221091   3.632   6.073   3.451 -1.2406  0.3847  0.4849
 3388SOL     OW21092   1.118   4.575   5.256 -0.0950 -0.2768 -0.4627
 3388SOL    HW121093   1.157   4.487   5.281  0.6522  0.0244 -0.5461
 3388SOL    HW221094   1.036   4.561   5.200 -1.0797 -0.9286  1.1284
 3389SOL     OW21095   9.274   9.074   2.247 -0.0231 -0.0177  0.1528
 3389SOL    HW121096   9.254   9.027   2.333  0.2335 -0.3749  0.0152
 3389SOL    HW221097   9.273   9.009   2.171  2.3887 -0.1783  0.2244
 3390SOL     OW21098   0.663   1.644   3.778 -0.5144 -0.2070  0.0237
 3390SOL    HW121099   0.746   1.687   3.742 -1.6139  1.1685 -0.9391
 3390SOL    HW221100   0.606   1.612   3.702 -0.4089 -2.0499  0.7030
 3391SOL     OW21101   4.639   1.524   3.698 -0.9865 -0.0081  0.0135
 3391SOL    HW121102   4.573   1.548   3.768 -0.8177 -2.8743  1.1874
 3391SOL    HW221103   4.731   1.551   3.728 -1.2302  1.2138 -0.3077
 3392SOL     OW21104   6.656   9.020   2.143 -0.1988  0.7823 -0.3206
 3392SOL    HW121105   6.684   8.924   2.138  0.4254  0.9584 -0.3678
 3392SOL    HW221106   6.722   9.076   2.091  1.0199  1.5675  2.0026
 3393SOL     OW21107   1.427   9.238   2.468  0.2480  0.3803 -0.1803
 3393SOL    HW121108   1.481   9.316   2.501 -0.4423  0.7111  0.1892
 3393SOL    HW221109   1.451   9.157   2.521  1.5338  0.1597 -1.0864
 3394SOL     OW21110   2.512   3.379   2.426  0.2479  0.5024  0.1479
 3394SOL    HW121111   2.463   3.393   2.340 -0.8796  0.8040  0.8316
 3394SOL    HW221112   2.595   3.436   2.428 -0.4798  1.5731 -0.1292
 3395SOL     OW21113   9.941   2.511   5.228 -0.6102  0.0607  0.1507
 3395SOL    HW121114   9.972   2.604   5.249  0.2874 -0.0090 -0.8918
 3395SOL    HW221115   9.854   2.495   5.276 -1.4691  1.8974 -0.7221
 3396SOL     OW21116   9.663   3.767   1.609 -0.1135  0.1058  0.2583
 3396SOL    HW121117   9.646   3.668   1.609 -0.0392  0.0825  1.8543
 3396SOL    HW221118   9.722   3.791   1.531  1.3541 -1.3763  0.8851
 3397SOL     OW21119   8.356   6.452   1.227 -0.0724  0.1688 -0.3882
 3397SOL    HW121120   8.355   6.353   1.242 -2.6691  0.1491 -0.4519
 3397SOL    HW221121   8.319   6.498   1.308 -1.3117  0.9090 -1.3602
 3398SOL     OW21122   8.709   3.732   1.479  0.4783 -0.0907  0.3883
 3398SOL    HW121123   8.783   3.728   1.545  0.7349  0.3934  0.1338
 3398SOL    HW221124   8.639   3.797   1.510 -0.3080 -1.2478  1.0959
 3399SOL     OW21125   4.842   2.134   0.508 -0.0572 -0.2724  0.0043
 3399SOL    HW121126   4.756   2.156   0.554 -0.9819 -2.2308 -0.7133
 3399SOL    HW221127   4.865   2.038   0.524  2.6136  0.5083  1.1352
 3400SOL     OW21128   3.508   2.675   0.621 -0.2781  0.7180  0.2165
 3400SOL    HW121129   3.440   2.626   0.565  0.8552  1.1951 -1.6265
 3400SOL    HW221130   3.490   2.773   0.616 -0.7443  0.7030  1.4870
 3401SOL     OW21131   8.507   4.634   4.691  0.5862  0.7768  0.0881
 3401SOL    HW121132   8.476   4.683   4.772  1.6724 -0.1558  1.0895
 3401SOL    HW221133   8.534   4.699   4.620 -2.8335  1.6186 -0.5225
 3402SOL     OW21134   0.177   5.279   0.533  0.2715  0.4589 -0.3888
 3402SOL    HW121135   0.222   5.366   0.511  2.0727 -0.0565  1.0994
 3402SOL    HW221136   0.126   5.289   0.619 -0.4338  0.3464 -0.7915
 3403SOL     OW21137   8.221   0.662   4.737  0.8426 -0.1676  0.2533
 3403SOL    HW121138   8.131   0.653   4.781 -0.0570 -1.8138 -1.8186
 3403SOL    HW221139   8.291   0.621   4.795 -0.3180 -2.3181  0.1913
 3404SOL     OW21140   2.862   9.472   0.720 -0.1584  0.0483  0.0925
 3404SOL    HW121141   2.821   9.381   0.715  0.8808 -0.4337  0.0957
 3404SOL    HW221142   2.935   9.479   0.653 -1.3976  1.5068 -1.1257
 3405SOL     OW21143   6.448   9.426   2.323 -0.7218  0.4383  0.5100
 3405SOL    HW121144   6.411   9.372   2.398  0.0590  0.1842  0.7097
 3405SOL    HW221145   6.547   9.416   2.319 -0.9494 -1.3259 -1.9093
 3406SOL     OW21146   0.284   6.603   4.519 -0.3371  0.3223  0.5162
 3406SOL    HW121147   0.277   6.514   4.475 -0.6643  0.8046 -0.4453
 3406SOL    HW221148   0.193   6.632   4.549 -0.2171  0.2843  0.9118
 3407SOL     OW21149   6.530   0.440   0.314  0.0934 -0.0894 -0.3178
 3407SOL    HW121150   6.458   0.423   0.247 -1.1213  0.1678  0.8904
 3407SOL    HW221151   6.568   0.353   0.346 -0.5446 -0.2723 -0.0519
 3408SOL     OW21152   9.785   4.416   4.404 -0.2386 -0.3011  0.1826
 3408SOL    HW121153   9.851   4.472   4.354  0.0822  0.0395  0.9950
 3408SOL    HW221154   9.694   4.454   4.391 -0.2418 -0.5628 -0.6401
 3409SOL     OW21155   3.440   3.107   4.214  0.3768  0.0565  0.4229
 3409SOL    HW121156   3.449   3.176   4.143  0.5882  0.5443  0.9213
 3409SOL    HW221157   3.392   3.027   4.177 -1.0614  1.0010  0.2176
 3410SOL     OW21158   8.476   2.113   5.347 -0.4142 -0.3075 -0.4202
 3410SOL    HW121159   8.551   2.152   5.401 -1.2340 -0.4027  0.7947
 3410SOL    HW221160   8.512   2.081   5.259  0.4791  2.1233 -0.9859
 3411SOL     OW21161   6.764   9.998   0.892 -0.4917 -0.2113 -0.5108
 3411SOL    HW121162   6.683  10.005   0.952 -0.5088 -0.1523 -0.5403
 3411SOL    HW221163   6.846   9.994   0.949 -0.4435  0.7492 -0.4905
 3412SOL     OW21164   2.864   7.463   4.622 -0.3836  0.3413  0.0099
 3412SOL    HW121165   2.905   7.423   4.704 -0.9017 -0.6313 -0.2054
 3412SOL    HW221166   2.834   7.391   4.560 -1.7643  1.0453 -0.1674
 3413SOL     OW21167   7.291   0.116   1.077 -0.4620  0.0581  0.2543
 3413SOL    HW121168   7.249   0.192   1.029 -2.5274 -0.4848  1.1325
 3413SOL    HW221169   7.390   0.132   1.086 -0.4207  1.2734 -2.0127
 3414SOL     OW21170   9.659   0.348   2.691  0.4209 -0.1705  0.2009
 3414SOL    HW121171   9.590   0.276   2.699  0.3167 -0.1881 -0.7727
 3414SOL    HW221172   9.699   0.366   2.781  0.4318 -1.4215  0.4505
 3415SOL     OW21173   8.672   0.227   3.547  0.1645  0.5997  0.3446
 3415SOL    HW121174   8.761   0.243   3.504 -0.6656  1.1685 -1.2367
 3415SOL    HW221175   8.682   0.160   3.620  1.5354 -0.9403 -1.1842
 3416SOL     OW21176   2.651   1.197   2.199  0.2264  0.1572  0.2616
 3416SOL    HW121177   2.593   1.278   2.197 -0.4532 -0.2918  1.1082
 3416SOL    HW221178   2.615   1.129   2.135 -0.3661 -0.2395  1.0119
 3417SOL     OW21179   1.133   7.340   3.833 -0.4547  0.5467  0.4467
 3417SOL    HW121180   1.204   7.296   3.888 -1.0451  0.1612  0.8969
 3417SOL    HW221181   1.087   7.410   3.888  0.9977  2.2960 -0.4904
 3418SOL     OW21182   4.056   1.858   2.204 -0.0888  0.1197 -0.0847
 3418SOL    HW121183   4.102   1.806   2.276 -2.3530 -1.8640 -0.0100
 3418SOL    HW221184   4.018   1.795   2.137 -1.0350  1.7944 -1.1505
 3419SOL     OW21185   7.990   6.102   4.779 -0.5866 -0.0263 -0.1868
 3419SOL    HW121186   8.065   6.117   4.715  0.0976  0.1537  0.6452
 3419SOL    HW221187   7.907   6.078   4.729 -1.2202  4.4780 -1.4617
 3420SOL     OW21188   8.082   0.666   0.565 -0.8778  0.2404  0.3722
 3420SOL    HW121189   8.165   0.697   0.519  0.4372 -0.1518  2.4336
 3420SOL    HW221190   8.037   0.596   0.509  0.8305 -0.4149 -0.2003
 3421SOL     OW21191   3.679   4.024   2.968 -0.1563  0.2773 -0.6981
 3421SOL    HW121192   3.738   4.089   2.919 -0.0695  0.1088 -0.8170
 3421SOL    HW221193   3.716   3.932   2.959  0.6882  0.4428  0.9754
 3422SOL     OW21194   3.153   8.276   2.437  0.1263  0.1707 -0.8748
 3422SOL    HW121195   3.088   8.211   2.398 -0.3186 -0.1562  0.3767
 3422SOL    HW221196   3.235   8.227   2.468  1.1979  0.6374 -2.8678
 3423SOL     OW21197   3.414   7.678   4.339  0.1602  0.3295 -0.0910
 3423SOL    HW121198   3.403   7.621   4.257  1.9697 -1.2030  0.6846
 3423SOL    HW221199   3.328   7.725   4.358 -1.2658 -1.7497 -1.0632
 3424SOL     OW21200   3.392   8.758   5.344 -0.1900  0.0812  0.1103
 3424SOL    HW121201   3.467   8.692   5.354  0.8705  1.3280  0.4421
 3424SOL    HW221202   3.352   8.778   5.433 -0.0424  0.4198  0.1028
 3425SOL     OW21203   0.009   0.594   3.167 -0.4006 -0.1177  0.5838
 3425SOL    HW121204   0.040   0.689   3.161  1.4546 -0.6520  1.2678
 3425SOL    HW221205  -0.036   0.568   3.081 -0.5028  1.2274  0.2196
 3426SOL     OW21206   1.213   7.594   0.111  0.3613  0.2195  0.4327
 3426SOL    HW121207   1.226   7.558   0.203  0.1865 -0.9510 -0.0009
 3426SOL    HW221208   1.130   7.651   0.109  1.1084  1.3492  1.3128
 3427SOL     OW21209   0.186   5.700   5.495 -0.0942  0.3655 -0.3950
 3427SOL    HW121210   0.115   5.737   5.555 -0.3970 -0.2961 -0.3394
 3427SOL    HW221211   0.265   5.673   5.549 -0.2880 -0.0432 -0.3116
 3428SOL     OW21212   6.136   9.797   4.165  0.3500  0.4348  0.2445
 3428SOL    HW121213   6.140   9.732   4.090  0.8674  2.7446 -1.8089
 3428SOL    HW221214   6.041   9.808   4.194 -0.0924  0.8387 -1.2972
 3429SOL     OW21215   8.193   3.900   3.663  0.2982  0.5122  0.0213
 3429SOL    HW121216   8.145   3.890   3.750  1.8869  0.2311  0.8695
 3429SOL    HW221217   8.216   3.810   3.627  1.1757  0.6821  0.1622
 3430SOL     OW21218   1.841   1.985   4.215  0.1411  0.0107 -0.4523
 3430SOL    HW121219   1.757   2.012   4.167 -0.3944 -2.0968 -0.7625
 3430SOL    HW221220   1.879   1.903   4.172  1.2261 -0.2543  0.9833
 3431SOL     OW21221   6.601   0.165   5.129 -0.8456 -0.4858 -0.5110
 3431SOL    HW121222   6.690   0.206   5.149  0.6000 -1.7338 -4.1363
 3431SOL    HW221223   6.528   0.227   5.161  1.2751  2.4442 -1.1694
 3432SOL     OW21224   1.997   1.662   5.332 -0.1390  0.2706 -0.2323
 3432SOL    HW121225   1.993   1.626   5.239 -0.3594  1.2927 -0.6268
 3432SOL    HW221226   1.908   1.647   5.377 -0.1402  0.0749 -0.2996
 3433SOL     OW21227   0.286   1.595   1.114 -0.5404  0.4243 -0.3131
 3433SOL    HW121228   0.287   1.626   1.209  0.0874 -0.5396 -0.0057
 3433SOL    HW221229   0.371   1.622   1.069 -0.0899 -0.6249 -0.1094
 3434SOL     OW21230   8.358   4.520   0.079 -0.0216 -0.2482  0.4408
 3434SOL    HW121231   8.454   4.542   0.098  0.1474 -0.8241  0.2534
 3434SOL    HW221232   8.316   4.484   0.162 -0.3592  0.9834  0.8120
 3435SOL     OW21233   1.728   9.124   2.391 -0.6194 -0.6268  0.7054
 3435SOL    HW121234   1.690   9.196   2.334  0.7980 -0.0186  0.5188
 3435SOL    HW221235   1.750   9.044   2.335  0.2516 -0.2364  0.4940
 3436SOL     OW21236   0.520   8.440   5.003  0.2179 -0.1562 -0.3828
 3436SOL    HW121237   0.428   8.402   5.003  0.8727 -1.8028 -0.6450
 3436SOL    HW221238   0.524   8.518   4.940 -1.4982  1.2800  1.2445
 3437SOL     OW21239   9.545   9.996   0.594  0.4535  0.1850 -0.0748
 3437SOL    HW121240   9.598  10.035   0.518  2.6508  0.7129  1.6511
 3437SOL    HW221241   9.608   9.955   0.660 -1.2659  1.2551  2.2997
 3438SOL     OW21242   6.662   8.007   2.285  0.0064 -0.3814  0.1515
 3438SOL    HW121243   6.578   7.953   2.286 -1.2215  1.4537 -0.6973
 3438SOL    HW221244   6.667   8.062   2.369  0.5657 -0.7965  0.3922
 3439SOL     OW21245   7.302   0.537   1.203 -1.1440  0.2060  0.2707
 3439SOL    HW121246   7.349   0.601   1.141 -1.7367  1.1321  0.7602
 3439SOL    HW221247   7.235   0.588   1.258 -0.0787 -0.4596  2.2236
 3440SOL     OW21248   2.178   4.191   3.963  0.2998  0.3791 -0.7517
 3440SOL    HW121249   2.083   4.191   3.933  0.0474 -0.0799  0.0309
 3440SOL    HW221250   2.213   4.285   3.961 -0.5229  0.7115  0.0468
 3441SOL     OW21251   2.231   8.362   4.388  0.3802  0.2112  0.0424
 3441SOL    HW121252   2.163   8.308   4.438  0.9101 -1.0388 -0.5614
 3441SOL    HW221253   2.322   8.342   4.424  0.3738  2.6911  1.5809
 3442SOL     OW21254   3.686   9.782   4.449 -0.1082  0.7169  0.2362
 3442SOL    HW121255   3.624   9.709   4.478 -0.0727  1.2641  1.7600
 3442SOL    HW221256   3.640   9.871   4.462  0.7168  1.0820  0.6542
 3443SOL     OW21257   0.276   0.711   1.711  0.2704 -0.5969  0.4564
 3443SOL    HW121258   0.263   0.758   1.798  1.2378 -1.3040  1.0019
 3443SOL    HW221259   0.362   0.660   1.714  0.6237 -0.1403 -1.1337
 3444SOL     OW21260   4.194   8.656   1.005  0.0548  1.0187 -0.4238
 3444SOL    HW121261   4.114   8.596   1.006 -1.2828  2.7316  1.5920
 3444SOL    HW221262   4.229   8.665   0.912 -1.0193 -1.1712 -1.0539
 3445SOL     OW21263   0.685   1.655   1.269  0.1349  0.2747 -0.1712
 3445SOL    HW121264   0.710   1.582   1.205 -0.9097  0.3087 -0.6248
 3445SOL    HW221265   0.604   1.628   1.321 -0.7391  1.4306 -0.9121
 3446SOL     OW21266   3.733   3.859   5.062  0.3159 -0.0940  0.2156
 3446SOL    HW121267   3.702   3.938   5.114 -0.8616 -0.1024 -0.4477
 3446SOL    HW221268   3.737   3.779   5.121 -0.3166  0.0481  0.4457
 3447SOL     OW21269   2.474   6.677   2.440  0.0357  0.1848  0.1982
 3447SOL    HW121270   2.563   6.631   2.444 -0.0517  0.0716  0.9323
 3447SOL    HW221271   2.401   6.608   2.439 -0.0991  0.3005  1.3874
 3448SOL     OW21272   7.151   6.574   2.838  0.0245 -0.3731  0.3907
 3448SOL    HW121273   7.160   6.614   2.747  1.3799 -1.3456  0.0595
 3448SOL    HW221274   7.183   6.639   2.907  0.6206 -0.2574  0.0092
 3449SOL     OW21275   0.673   3.366   4.447 -0.8395 -0.3433  0.2865
 3449SOL    HW121276   0.617   3.371   4.530 -1.1906 -0.9245  0.0871
 3449SOL    HW221277   0.649   3.284   4.396  0.1280 -0.5367  0.1435
 3450SOL     OW21278   2.152   3.391   2.986 -0.1350 -0.3623 -0.5268
 3450SOL    HW121279   2.080   3.322   2.998 -0.1480 -0.3843 -0.7445
 3450SOL    HW221280   2.129   3.472   3.040 -0.1208 -0.5250 -0.2720
 3451SOL     OW21281   1.218   7.921   2.281  0.0028  0.2087  0.3187
 3451SOL    HW121282   1.295   7.984   2.273  0.1079 -0.0239 -0.5185
 3451SOL    HW221283   1.208   7.869   2.196 -1.3199  0.5045  0.2865
 3452SOL     OW21284   3.073   4.040   0.778  0.2239 -0.0181  0.2737
 3452SOL    HW121285   3.133   4.106   0.732  0.5418 -0.5905 -0.1454
 3452SOL    HW221286   3.128   3.979   0.835 -0.2860  1.3822  2.2853
 3453SOL     OW21287   0.170   5.378   1.742 -0.7817 -0.3931  0.2105
 3453SOL    HW121288   0.265   5.374   1.712 -0.9137 -2.9195 -0.0054
 3453SOL    HW221289   0.112   5.408   1.665 -0.1644  1.3127  0.3938
 3454SOL     OW21290   9.809   6.924   2.712  0.4068  0.0196  0.0934
 3454SOL    HW121291   9.721   6.918   2.664  1.1646  0.4780 -1.4062
 3454SOL    HW221292   9.842   6.832   2.732 -1.4148 -0.1432  2.6178
 3455SOL     OW21293   9.324   9.606   1.416 -0.1998  0.1881  0.0074
 3455SOL    HW121294   9.260   9.675   1.448 -1.7401 -0.7134 -1.0256
 3455SOL    HW221295   9.378   9.643   1.340  1.4453  1.3771  1.7204
 3456SOL     OW21296   1.584   5.779   5.178 -0.4570 -0.1355 -0.7101
 3456SOL    HW121297   1.602   5.689   5.139  5.3716  0.4816  0.2071
 3456SOL    HW221298   1.620   5.850   5.117 -0.4372  1.3355  0.9656
 3457SOL     OW21299   4.878   9.383   4.625 -0.1308  0.3025  0.5981
 3457SOL    HW121300   4.789   9.366   4.667 -0.6774  1.6213 -0.0199
 3457SOL    HW221301   4.922   9.295   4.603 -0.8681 -0.3632  1.7374
 3458SOL     OW21302   9.820   0.018   4.337  0.5245  0.2456 -0.6749
 3458SOL    HW121303   9.853   0.107   4.305 -0.5788  1.3293  1.1144
 3458SOL    HW221304   9.721   0.014   4.328  0.5277 -0.6593 -0.3515
 3459SOL     OW21305   0.801   3.751   3.117  0.0819 -0.1597  0.2341
 3459SOL    HW121306   0.707   3.716   3.120  0.3473 -0.7693  2.3373
 3459SOL    HW221307   0.809   3.829   3.178 -0.0249  2.4871 -3.0081
 3460SOL     OW21308   5.013   1.971   3.017 -0.0877 -0.0358  0.5729
 3460SOL    HW121309   4.915   1.961   3.004 -0.2651  0.6192  1.3786
 3460SOL    HW221310   5.037   2.068   3.017  0.6389 -0.2006 -0.1435
 3461SOL     OW21311   6.236   9.296   2.670  0.4998  0.4738  0.4039
 3461SOL    HW121312   6.246   9.382   2.619  0.9439  0.8375  1.0894
 3461SOL    HW221313   6.323   9.246   2.669  0.2779  0.0949  0.1157
 3462SOL     OW21314   7.553   4.009   0.668  0.5885 -0.1156 -0.4788
 3462SOL    HW121315   7.539   3.922   0.620 -1.4684  0.5570 -1.1344
 3462SOL    HW221316   7.586   3.991   0.761 -1.5069 -1.6919 -0.0054
 3463SOL     OW21317   3.610   9.441   3.178  0.3287 -0.1519 -0.0256
 3463SOL    HW121318   3.650   9.427   3.088  1.8748  1.1461  0.4224
 3463SOL    HW221319   3.531   9.503   3.170  0.4419 -0.0657 -0.4933
 3464SOL     OW21320   3.096   3.119   4.418  0.0623 -0.1119  0.1686
 3464SOL    HW121321   3.144   3.107   4.331  1.0726  0.7249  0.6072
 3464SOL    HW221322   3.156   3.164   4.483 -1.0793  0.2887  0.9534
 3465SOL     OW21323   5.006   9.926   2.076 -0.3093  0.0697  0.0248
 3465SOL    HW121324   4.996   9.875   2.161 -3.8429 -1.9801 -1.5205
 3465SOL    HW221325   5.047   9.867   2.006 -0.6014  0.6637 -0.6578
 3466SOL     OW21326   1.477   2.852   0.848  0.3340 -0.0025 -0.3830
 3466SOL    HW121327   1.403   2.906   0.808  0.3924 -0.5679 -1.2679
 3466SOL    HW221328   1.460   2.840   0.946 -0.6250  0.0616 -0.5345
 3467SOL     OW21329   0.132   7.626   4.142 -0.4860 -0.1631  0.0046
 3467SOL    HW121330   0.064   7.665   4.205  0.0095 -0.5992  0.8323
 3467SOL    HW221331   0.222   7.631   4.184  0.2603  1.9253 -1.7968
 3468SOL     OW21332   3.944   9.327   2.599 -0.6129 -0.0421  0.1549
 3468SOL    HW121333   3.984   9.241   2.569 -1.9203 -1.0096  1.1374
 3468SOL    HW221334   4.006   9.373   2.662  0.7691  0.4976 -1.5627
 3469SOL     OW21335   7.696   3.698   5.555 -0.0095 -0.0540  0.1967
 3469SOL    HW121336   7.778   3.688   5.612 -1.0914 -0.2336  1.7560
 3469SOL    HW221337   7.686   3.794   5.528  0.5568  0.0219  0.2473
 3470SOL     OW21338   3.010   6.337   4.682 -0.2405  0.6111 -0.2016
 3470SOL    HW121339   3.077   6.322   4.755 -0.0967  1.0343 -0.2481
 3470SOL    HW221340   3.048   6.305   4.595  0.0431  1.1670 -0.2884
 3471SOL     OW21341   3.432   9.297   1.361  0.3021  0.3336  0.1257
 3471SOL    HW121342   3.478   9.310   1.274 -2.7396 -0.7465 -1.7235
 3471SOL    HW221343   3.367   9.372   1.376 -1.5207 -1.1537 -0.1311
 3472SOL     OW21344   3.249   5.647   2.787  0.4593 -0.1814 -0.5018
 3472SOL    HW121345   3.161   5.685   2.814 -0.1751 -0.5582 -1.9610
 3472SOL    HW221346   3.281   5.693   2.704 -0.4464 -2.9486 -2.4426
 3473SOL     OW21347   4.489   5.500   1.009  0.0456  0.1178 -0.0664
 3473SOL    HW121348   4.548   5.476   0.932  1.1961  1.9419  0.2027
 3473SOL    HW221349   4.480   5.600   1.013 -1.5438 -0.0649  1.0228
 3474SOL     OW21350   0.672   9.053   0.990  0.2670 -0.1741 -0.3443
 3474SOL    HW121351   0.585   9.088   1.024 -0.4857 -1.4918 -0.8991
 3474SOL    HW221352   0.711   9.118   0.925 -0.6494  0.0856 -0.6371
 3475SOL     OW21353   9.712   9.515   3.547  0.8521  0.4465  0.2381
 3475SOL    HW121354   9.800   9.483   3.581  0.8683  2.4246  2.2073
 3475SOL    HW221355   9.652   9.536   3.624 -1.6112 -1.5241 -1.0876
 3476SOL     OW21356   3.846   3.062   3.681 -0.3788  0.1484  0.0447
 3476SOL    HW121357   3.943   3.043   3.697 -0.6642  0.5084  2.4718
 3476SOL    HW221358   3.833   3.160   3.667 -0.5679  0.3343  1.4165
 3477SOL     OW21359   4.183   9.682   5.143  0.0288  0.0834  0.2429
 3477SOL    HW121360   4.272   9.669   5.099  1.5572  1.5462  2.7227
 3477SOL    HW221361   4.141   9.594   5.163 -0.0427 -0.5991 -2.7755
 3478SOL     OW21362   7.552   0.196   1.158  0.4165 -0.1044 -0.6526
 3478SOL    HW121363   7.543   0.270   1.225 -1.3259  0.5766 -1.6115
 3478SOL    HW221364   7.646   0.193   1.124  0.9063  0.6059  0.6032
 3479SOL     OW21365   0.612   9.465   0.436  0.5738  0.4797 -0.0066
 3479SOL    HW121366   0.515   9.474   0.459  0.3214  0.2489 -0.9418
 3479SOL    HW221367   0.638   9.539   0.374  0.8781  0.2719 -0.1268
 3480SOL     OW21368   7.548   0.349   0.497 -0.3746 -0.1381  0.5592
 3480SOL    HW121369   7.641   0.354   0.534 -0.7047 -1.0401  1.5242
 3480SOL    HW221370   7.485   0.394   0.560 -0.7749 -0.6369  0.5156
 3481SOL     OW21371   2.148   0.434   1.643  0.6743  0.2380 -0.3036
 3481SOL    HW121372   2.184   0.343   1.666 -0.1215  0.2450  1.0345
 3481SOL    HW221373   2.128   0.438   1.545  0.1881 -1.2125 -0.2737
 3482SOL     OW21374   7.216   7.398   2.513  0.0789 -0.6467  0.3820
 3482SOL    HW121375   7.240   7.411   2.417 -1.4297  0.9307  0.1966
 3482SOL    HW221376   7.142   7.330   2.520  0.9820 -1.6258  0.5334
 3483SOL     OW21377   9.239   5.993   2.458  0.1692  0.6593 -0.0688
 3483SOL    HW121378   9.144   5.978   2.486 -0.4377  1.3104 -1.7463
 3483SOL    HW221379   9.285   5.905   2.447 -0.4949  0.3155 -0.1163
 3484SOL     OW21380   0.414   6.680   1.236 -0.1210 -0.4660 -0.5786
 3484SOL    HW121381   0.411   6.580   1.246  2.5225 -0.4864  0.6255
 3484SOL    HW221382   0.471   6.703   1.157  0.0677  0.0915 -0.2810
 3485SOL     OW21383   1.454   8.983   5.633 -0.7641  0.1407  0.1497
 3485SOL    HW121384   1.388   8.988   5.558  1.0492  0.3419 -1.4476
 3485SOL    HW221385   1.475   9.075   5.666 -0.9240  0.1032  0.3595
 3486SOL     OW21386   5.105   0.842   1.925  0.1855 -0.1816 -0.0118
 3486SOL    HW121387   5.033   0.807   1.985 -0.5268  0.7326 -0.3211
 3486SOL    HW221388   5.191   0.795   1.945 -0.4977 -1.2978  0.3471
 3487SOL     OW21389   0.881   2.804   3.095 -0.2875 -0.1689 -0.1839
 3487SOL    HW121390   0.872   2.710   3.128 -1.4223  0.5964  1.7717
 3487SOL    HW221391   0.812   2.861   3.140  0.2818  1.5668 -1.4871
 3488SOL     OW21392   1.722   1.084   1.717 -0.1178  0.2363 -0.5347
 3488SOL    HW121393   1.643   1.131   1.677 -0.5868  0.0218  0.1347
 3488SOL    HW221394   1.695   0.993   1.748  0.5962 -0.1657 -1.0766
 3489SOL     OW21395   0.154   5.595   3.561  0.6258  0.3641  0.3545
 3489SOL    HW121396   0.221   5.603   3.635  1.4249 -1.3739 -0.1573
 3489SOL    HW221397   0.200   5.563   3.478 -0.2625  2.2904 -0.9154
 3490SOL     OW21398   7.770   9.849   2.078  0.0914  0.3517 -0.1411
 3490SOL    HW121399   7.743   9.904   1.999  0.3076  0.6707  0.0040
 3490SOL    HW221400   7.730   9.887   2.161 -0.8588 -0.5040 -0.1963
 3491SOL     OW21401   8.975   1.751   3.302 -0.1382 -0.5520  0.9961
 3491SOL    HW121402   8.932   1.840   3.317 -0.5327 -0.7632  1.1216
 3491SOL    HW221403   9.069   1.753   3.336 -0.9140 -0.9208  3.1861
 3492SOL     OW21404   2.104   1.374   2.071 -0.1768 -0.0094 -0.3756
 3492SOL    HW121405   2.191   1.376   2.119 -0.6057  1.3862  0.3699
 3492SOL    HW221406   2.121   1.366   1.972  0.7410 -1.2851 -0.1180
 3493SOL     OW21407   3.364   1.814   4.650  0.5937 -0.0950 -0.1594
 3493SOL    HW121408   3.460   1.804   4.677  0.0590  0.4895  1.9995
 3493SOL    HW221409   3.308   1.749   4.700 -0.8518  3.2196  2.7211
 3494SOL     OW21410   9.033   0.578   2.665  0.2335 -0.2526  0.1319
 3494SOL    HW121411   9.096   0.503   2.649  0.1355 -0.0714 -1.1794
 3494SOL    HW221412   9.084   0.659   2.697  0.3320 -0.8614  1.5727
 3495SOL     OW21413   0.799   2.772   2.480 -0.1601  0.3462 -0.5841
 3495SOL    HW121414   0.812   2.692   2.538 -1.7019  1.0332  0.7435
 3495SOL    HW221415   0.882   2.827   2.480  0.0803 -0.0033  0.4476
 3496SOL     OW21416   6.808   9.875   4.711 -0.1165 -0.4903 -0.7525
 3496SOL    HW121417   6.786   9.926   4.794  2.5936 -0.9587  0.2935
 3496SOL    HW221418   6.802   9.935   4.632  1.7251  1.1249  0.3031
 3497SOL     OW21419   0.527   2.989   0.175 -0.0606 -0.2272 -0.1945
 3497SOL    HW121420   0.550   3.015   0.269  0.0050 -0.0760 -0.2532
 3497SOL    HW221421   0.492   2.895   0.175  1.6189 -0.8760 -0.2482
 3498SOL     OW21422   2.406   5.458   2.868 -0.4030 -0.3278 -0.1339
 3498SOL    HW121423   2.355   5.421   2.946 -1.0329 -1.4317 -1.0475
 3498SOL    HW221424   2.455   5.384   2.822 -0.4051  0.2278 -1.0541
 3499SOL     OW21425   1.500   5.881   1.345 -0.4418  0.0257  0.2884
 3499SOL    HW121426   1.469   5.790   1.372 -0.6756 -0.0455 -0.2224
 3499SOL    HW221427   1.560   5.873   1.265  0.3023  0.2308  0.8164
 3500SOL     OW21428   8.989   1.297   0.516  0.5565 -0.2442  0.4179
 3500SOL    HW121429   8.934   1.215   0.499 -0.3005  0.3182  0.4580
 3500SOL    HW221430   9.073   1.292   0.462  1.1253 -1.7536  1.3981
 3501SOL     OW21431   9.538   8.512   3.100  0.5271  0.1533 -0.3553
 3501SOL    HW121432   9.479   8.446   3.054  1.6435  0.2223 -1.9472
 3501SOL    HW221433   9.500   8.604   3.089 -1.2350 -0.2315  2.2015
 3502SOL     OW21434   1.507   0.196   5.115 -0.0635 -0.0088  0.1081
 3502SOL    HW121435   1.517   0.125   5.045 -1.3579 -0.3884  0.3022
 3502SOL    HW221436   1.518   0.286   5.074 -1.0023 -0.2261 -0.6316
 3503SOL     OW21437   6.769   8.557   3.919 -0.1286 -0.3012  0.8997
 3503SOL    HW121438   6.709   8.558   4.000 -2.2759 -3.5921 -0.5542
 3503SOL    HW221439   6.734   8.620   3.851 -0.1736  0.0552  1.2492
 3504SOL     OW21440   3.732   6.787   3.322  0.0505 -0.0652  0.2675
 3504SOL    HW121441   3.703   6.854   3.253 -1.0739 -0.8632 -0.0607
 3504SOL    HW221442   3.772   6.708   3.276 -1.8603 -1.1539  0.4473
 3505SOL     OW21443   4.645   1.897   2.091 -0.0792 -0.8312  0.4930
 3505SOL    HW121444   4.576   1.880   2.161 -0.3902  0.4147  0.4986
 3505SOL    HW221445   4.730   1.850   2.116 -0.3943 -0.9419  1.3719
 3506SOL     OW21446   0.971   3.043   1.154 -0.2097 -0.2445  0.7651
 3506SOL    HW121447   1.015   2.960   1.187 -0.1137 -0.4597  0.1069
 3506SOL    HW221448   0.927   3.025   1.066  0.8904  0.7218 -0.0111
 3507SOL     OW21449   7.011   9.058   1.823  0.4415 -0.0782 -0.2970
 3507SOL    HW121450   6.950   9.054   1.902  1.2132 -0.0033  0.3119
 3507SOL    HW221451   7.005   8.973   1.772  1.6220 -1.0361  1.1167
 3508SOL     OW21452   7.984   5.596   5.033 -0.2196 -0.2899  0.0916
 3508SOL    HW121453   7.911   5.648   5.077  0.0890  0.7449 -0.5955
 3508SOL    HW221454   7.959   5.499   5.031 -0.2567 -0.3480  2.4500
 3509SOL     OW21455   2.143   3.843   0.789 -0.0051  0.2575 -0.4443
 3509SOL    HW121456   2.131   3.751   0.751  1.0824 -0.3964  0.7262
 3509SOL    HW221457   2.068   3.902   0.759 -0.7429 -1.0271 -1.1723
 3510SOL     OW21458   9.507   0.024   2.485 -0.2247 -0.1814  0.3340
 3510SOL    HW121459   9.478   0.097   2.548 -0.4542 -0.8158  0.9731
 3510SOL    HW221460   9.607   0.016   2.488 -0.1034  0.8338 -0.5606
 3511SOL     OW21461   4.467   7.347   4.236 -0.6446 -0.0628  0.1123
 3511SOL    HW121462   4.524   7.281   4.188  1.9851  1.2510  1.3074
 3511SOL    HW221463   4.484   7.341   4.334 -0.1903  2.4507  0.2403
 3512SOL     OW21464   8.565   4.859   4.068 -0.1518  0.0792  0.0782
 3512SOL    HW121465   8.499   4.786   4.051  0.0287 -0.1742  0.4582
 3512SOL    HW221466   8.631   4.863   3.994 -0.8469  0.6179 -0.5266
 3513SOL     OW21467   1.730   4.298   1.684  0.0456 -0.8304  0.2693
 3513SOL    HW121468   1.690   4.390   1.687 -1.1514 -1.2792 -0.9621
 3513SOL    HW221469   1.827   4.302   1.708 -0.3094  0.5619  1.4971
 3514SOL     OW21470   9.689   6.812   5.416 -0.7803 -0.0883 -0.2100
 3514SOL    HW121471   9.629   6.834   5.493 -1.1841 -0.8502 -0.2913
 3514SOL    HW221472   9.639   6.753   5.352 -0.3934  0.4080 -0.9679
 3515SOL     OW21473   0.603   1.151   1.382  0.0024 -0.6820  0.1754
 3515SOL    HW121474   0.560   1.201   1.307  0.7096  0.1573  0.3257
 3515SOL    HW221475   0.656   1.075   1.346  2.9434  1.5844 -0.4497
 3516SOL     OW21476   8.658   7.671   4.846  0.5951 -0.6487  0.0735
 3516SOL    HW121477   8.733   7.631   4.793 -0.7453 -1.7808 -0.9799
 3516SOL    HW221478   8.661   7.635   4.939  0.7880 -1.4392 -0.2341
 3517SOL     OW21479   2.495   6.157   3.854  0.1944  0.3195  0.8360
 3517SOL    HW121480   2.542   6.096   3.918 -1.2032  0.1140  1.6837
 3517SOL    HW221481   2.470   6.105   3.772  0.1334  0.0592  1.0176
 3518SOL     OW21482   6.222   1.330   3.488 -0.0504  0.1671 -0.7781
 3518SOL    HW121483   6.249   1.372   3.401 -0.3138 -1.0163 -1.4398
 3518SOL    HW221484   6.129   1.294   3.481 -0.0228 -0.0640 -0.0452
 3519SOL     OW21485   8.774   0.996   1.527  0.3063 -0.2107 -0.2003
 3519SOL    HW121486   8.680   0.980   1.497  0.8608 -1.9191 -1.1097
 3519SOL    HW221487   8.779   0.987   1.627 -0.7777  1.4528  0.0131
 3520SOL     OW21488   7.385   7.164   2.427 -0.0507 -0.2800 -0.1100
 3520SOL    HW121489   7.317   7.129   2.362 -1.1797  0.9390  0.3853
 3520SOL    HW221490   7.360   7.257   2.453  2.0855  0.3601 -0.2816
 3521SOL     OW21491   8.182   4.611   3.277 -0.0081 -0.8184  0.0026
 3521SOL    HW121492   8.105   4.674   3.285 -0.6183 -1.5695  0.1335
 3521SOL    HW221493   8.232   4.629   3.193 -0.4382 -0.4473 -0.1728
 3522SOL     OW21494   5.015   7.420   4.351  0.0387 -0.1536  0.2477
 3522SOL    HW121495   5.067   7.340   4.323 -1.8105 -1.4601  0.4487
 3522SOL    HW221496   4.983   7.407   4.445 -0.7766  0.5587  0.0718
 3523SOL     OW21497   8.917   7.101   2.668  0.2651  0.8878  0.4631
 3523SOL    HW121498   8.964   7.186   2.646  0.4494  0.8441  0.6841
 3523SOL    HW221499   8.984   7.027   2.676 -0.0096  0.4799 -0.9015
 3524SOL     OW21500   0.972   1.222   5.376 -0.2395 -0.1889 -0.7461
 3524SOL    HW121501   1.060   1.250   5.416 -1.2100  0.2450  1.1265
 3524SOL    HW221502   0.987   1.194   5.280  2.3228 -2.2754  0.1708
 3525SOL     OW21503   5.483   7.556   3.730 -0.4807 -0.2105  0.7742
 3525SOL    HW121504   5.480   7.561   3.631 -0.4811  3.2152  0.8749
 3525SOL    HW221505   5.573   7.524   3.760 -0.2030 -0.4476 -0.3109
 3526SOL     OW21506   8.078   4.715   4.365 -0.4026  0.2286 -0.3854
 3526SOL    HW121507   8.148   4.766   4.414 -0.1077 -1.6054  1.1368
 3526SOL    HW221508   7.997   4.706   4.423 -0.1491 -1.7150 -0.2906
 3527SOL     OW21509   0.131   6.011   0.651 -0.2829 -0.1278 -0.0610
 3527SOL    HW121510   0.229   6.027   0.642 -0.4153  0.0311 -1.4006
 3527SOL    HW221511   0.084   6.044   0.569 -1.4642 -0.1555  0.5869
 3528SOL     OW21512   1.226   5.136   1.164 -0.1837 -0.2959 -0.2280
 3528SOL    HW121513   1.143   5.118   1.217  1.2714 -3.8690  0.9508
 3528SOL    HW221514   1.301   5.156   1.227  0.5640 -0.1289 -1.1706
 3529SOL     OW21515   8.984   8.358   2.454  0.1974  0.0136 -0.1303
 3529SOL    HW121516   8.922   8.428   2.489  0.8271  0.8235 -0.6345
 3529SOL    HW221517   8.939   8.269   2.459 -1.3192  0.7006 -1.2465
 3530SOL     OW21518   2.915   1.910   1.486  0.1632  0.0538 -0.0764
 3530SOL    HW121519   2.991   1.849   1.509  0.1824 -0.2663 -0.9808
 3530SOL    HW221520   2.950   1.990   1.438 -0.0306  0.1124 -0.1213
 3531SOL     OW21521   2.796   0.851   5.416  0.1560  0.4277  0.4188
 3531SOL    HW121522   2.723   0.828   5.351  0.8685 -1.5122  0.2798
 3531SOL    HW221523   2.755   0.884   5.502 -0.8890 -0.9612  0.4657
 3532SOL     OW21524   7.926   5.642   3.449 -0.2519 -0.6343  0.2393
 3532SOL    HW121525   8.012   5.624   3.496  0.4657  0.4226 -0.6354
 3532SOL    HW221526   7.850   5.603   3.501  0.7686 -1.7519  0.9177
 3533SOL     OW21527   7.429   7.699   1.698  0.2881 -0.0453  0.5406
 3533SOL    HW121528   7.422   7.783   1.644  1.1776  0.9350  1.9125
 3533SOL    HW221529   7.361   7.701   1.772 -0.5006 -1.0904 -0.1483
 3534SOL     OW21530   8.951   7.730   0.979  0.3412 -0.0570 -0.6721
 3534SOL    HW121531   8.861   7.754   1.016  0.1718  1.2118 -1.8674
 3534SOL    HW221532   9.006   7.688   1.051 -0.9750 -0.2597  0.2432
 3535SOL     OW21533   8.210   3.769   4.141 -0.3494  0.1040 -0.1919
 3535SOL    HW121534   8.212   3.857   4.188 -1.5339 -0.1264  0.3265
 3535SOL    HW221535   8.154   3.705   4.194 -0.2126 -0.6980 -1.0103
 3536SOL     OW21536   2.566   3.066   4.153  0.0328  0.0149  0.2449
 3536SOL    HW121537   2.558   2.981   4.206  0.2392 -0.3643 -0.3181
 3536SOL    HW221538   2.555   3.145   4.213  1.2553 -0.3956  1.0238
 3537SOL     OW21539   6.541   8.048   2.737  0.6859 -0.6614  0.0534
 3537SOL    HW121540   6.623   8.096   2.708 -0.3658  1.0869 -0.0974
 3537SOL    HW221541   6.566   7.966   2.788  2.5155 -0.3015 -0.2512
 3538SOL     OW21542   8.255   9.132   0.556  0.3100  0.2839  0.4722
 3538SOL    HW121543   8.164   9.161   0.585  0.1317  1.4165 -1.1697
 3538SOL    HW221544   8.323   9.168   0.620 -0.3115  0.0905  1.2609
 3539SOL     OW21545   0.108   2.630   4.277 -0.2458  0.3542 -0.4360
 3539SOL    HW121546   0.156   2.558   4.328 -0.6595  0.2785 -0.1532
 3539SOL    HW221547   0.158   2.716   4.287 -0.2424  0.3079 -0.0192
 3540SOL     OW21548   7.690   8.315   0.933 -0.1386  0.1390 -0.5877
 3540SOL    HW121549   7.596   8.351   0.928 -0.1066  0.0922 -1.7343
 3540SOL    HW221550   7.751   8.374   0.880  0.2686 -0.4849 -0.8178
 3541SOL     OW21551   1.166   4.074   3.185  0.2288 -0.4160  0.4372
 3541SOL    HW121552   1.119   3.998   3.229 -0.1690  0.4107  1.4420
 3541SOL    HW221553   1.203   4.136   3.254  0.8986  0.1007 -0.3682
 3542SOL     OW21554   0.477   7.997   5.509  0.3795 -0.4496  0.0401
 3542SOL    HW121555   0.435   7.924   5.456 -0.6652  0.4225 -0.3483
 3542SOL    HW221556   0.576   7.996   5.494  0.6246 -2.9092  1.4330
 3543SOL     OW21557   9.307   0.740   3.498 -0.0459  0.3873  0.3669
 3543SOL    HW121558   9.370   0.701   3.564  0.7008 -1.1596 -1.2357
 3543SOL    HW221559   9.242   0.800   3.545 -0.6524 -2.0673  2.7570
 3544SOL     OW21560   9.032   6.835   2.514  0.3775 -0.0280  0.0405
 3544SOL    HW121561   9.060   6.740   2.496  1.8643  0.3409  0.3590
 3544SOL    HW221562   9.036   6.851   2.613 -1.2319 -0.0409  0.1160
 3545SOL     OW21563   1.643   9.077   2.124 -0.0678 -0.6117 -0.1679
 3545SOL    HW121564   1.671   9.159   2.073 -0.5113 -1.7137 -2.2582
 3545SOL    HW221565   1.544   9.076   2.134 -0.1865 -1.5625 -1.3615
 3546SOL     OW21566   3.244   7.901   0.914 -0.3944 -0.7243  0.4205
 3546SOL    HW121567   3.202   7.949   0.991 -1.0032 -3.1054  1.6119
 3546SOL    HW221568   3.198   7.927   0.829 -1.3881  0.0060  1.1675
 3547SOL     OW21569   1.753   6.512   1.903  0.0871 -0.1986 -0.2198
 3547SOL    HW121570   1.671   6.492   1.849  0.2160 -0.3748 -0.3517
 3547SOL    HW221571   1.834   6.505   1.844  0.3697 -1.9107  0.3476
 3548SOL     OW21572   2.801   0.521   3.586 -0.3858 -0.1764  0.5207
 3548SOL    HW121573   2.836   0.445   3.531 -0.4973 -1.5764  2.3162
 3548SOL    HW221574   2.875   0.586   3.604  0.6427 -1.7048  1.9639
 3549SOL     OW21575   7.646   0.927   3.328 -0.3636  0.0026  0.3999
 3549SOL    HW121576   7.662   1.025   3.316  0.4606 -0.1820 -0.0260
 3549SOL    HW221577   7.630   0.884   3.239  1.7532 -0.6781  0.3306
 3550SOL     OW21578   2.319   7.209   1.739 -0.4429  0.2066 -0.7907
 3550SOL    HW121579   2.391   7.258   1.789  0.8829 -1.0840 -1.3737
 3550SOL    HW221580   2.260   7.161   1.804 -1.0121  1.5826 -0.2842
 3551SOL     OW21581   1.869   4.984   1.233 -0.1674  0.5115 -0.4805
 3551SOL    HW121582   1.819   5.053   1.181 -0.8432  0.9010  0.6713
 3551SOL    HW221583   1.811   4.905   1.248 -0.9124  1.4528  1.9024
 3552SOL     OW21584   3.027   0.933   1.725 -0.0062  0.7837  0.1988
 3552SOL    HW121585   3.014   0.839   1.756 -0.3763  1.1469  1.1777
 3552SOL    HW221586   2.983   0.946   1.636  1.2328 -0.3296 -0.5727
 3553SOL     OW21587   6.950   1.631   2.240 -0.2308  0.1608  0.2754
 3553SOL    HW121588   7.007   1.658   2.162  0.3485  0.5440  0.8344
 3553SOL    HW221589   6.919   1.537   2.227  1.1583 -0.3185  0.3525
 3554SOL     OW21590   7.645   9.632   4.036  0.2482  0.3813  0.1975
 3554SOL    HW121591   7.732   9.584   4.037  0.8384  1.4541  0.8837
 3554SOL    HW221592   7.570   9.565   4.040  1.0205 -0.5359 -0.3530
 3555SOL     OW21593   8.346   3.179   2.585  0.2491  0.1382  0.1183
 3555SOL    HW121594   8.388   3.265   2.615  2.0512 -1.4840  2.4047
 3555SOL    HW221595   8.382   3.154   2.495  0.4241  1.2863 -0.1409
 3556SOL     OW21596   8.245   0.392   1.122  0.7393  0.6565  0.2115
 3556SOL    HW121597   8.224   0.348   1.035  0.2478  2.0803 -0.4057
 3556SOL    HW221598   8.285   0.482   1.105  1.5712  0.5372  1.4538
 3557SOL     OW21599   3.573   2.291   0.278  0.0004 -0.0085  0.4250
 3557SOL    HW121600   3.592   2.348   0.358  1.3037  0.7387 -0.3980
 3557SOL    HW221601   3.658   2.274   0.229 -0.9405  0.3832 -1.3563
 3558SOL     OW21602   7.329   6.055   3.790 -0.4618  0.2358  0.3115
 3558SOL    HW121603   7.397   6.009   3.732  0.0819  0.3633  0.8354
 3558SOL    HW221604   7.260   6.098   3.732 -1.7927 -2.4438 -0.1545
 3559SOL     OW21605   1.223   2.695   1.933 -0.2957 -0.0435  0.3040
 3559SOL    HW121606   1.285   2.621   1.962  0.5346 -0.5560 -2.6122
 3559SOL    HW221607   1.268   2.783   1.948  1.6666 -0.4540 -2.7900
 3560SOL     OW21608   9.260   8.553   0.963 -0.4365  0.2160 -0.1403
 3560SOL    HW121609   9.192   8.626   0.969  0.9105  1.4380  0.1932
 3560SOL    HW221610   9.261   8.502   1.049 -0.6877  0.4149 -0.0181
 3561SOL     OW21611   2.398   0.597   5.515 -0.7418 -0.2807  0.7990
 3561SOL    HW121612   2.400   0.677   5.575 -0.7287  0.1530  0.2232
 3561SOL    HW221613   2.490   0.581   5.478 -0.0681 -2.2696  3.1309
 3562SOL     OW21614   2.054   9.156   5.263  0.3656 -0.2221  0.1904
 3562SOL    HW121615   1.991   9.081   5.285  0.3265  0.3852  2.2324
 3562SOL    HW221616   2.070   9.211   5.345 -0.5878  2.7560 -1.5447
 3563SOL     OW21617   4.963   9.639   3.488 -1.0616  0.5299  0.1940
 3563SOL    HW121618   4.982   9.736   3.471 -0.9445  0.4808  0.0336
 3563SOL    HW221619   4.865   9.625   3.497 -1.0319  0.7717  0.8753
 3564SOL     OW21620   0.123   9.216   3.664  0.8134 -0.0223 -0.7611
 3564SOL    HW121621   0.046   9.158   3.691  0.2724  1.2123  0.4656
 3564SOL    HW221622   0.201   9.198   3.724  0.3692  1.0845  0.1721
 3565SOL     OW21623   8.726   7.233   1.823  0.1834  0.1674  0.3625
 3565SOL    HW121624   8.655   7.303   1.825 -0.9228 -0.9659  1.1248
 3565SOL    HW221625   8.685   7.144   1.805  1.0864 -0.9019  3.3108
 3566SOL     OW21626   4.295   4.282   1.083  0.1420 -0.0753  0.3510
 3566SOL    HW121627   4.390   4.310   1.088  0.2541 -0.3798 -0.0817
 3566SOL    HW221628   4.263   4.287   0.988 -0.0820 -0.5860  0.3933
 3567SOL     OW21629   9.007   0.418   4.158 -0.6143  0.1073  0.2919
 3567SOL    HW121630   8.956   0.430   4.073  1.2319 -3.5440 -1.4280
 3567SOL    HW221631   8.945   0.387   4.230 -1.6842  0.4534 -0.4687
 3568SOL     OW21632   1.304   8.988   2.652 -0.3241 -0.2794  0.1393
 3568SOL    HW121633   1.402   9.006   2.638 -0.2487 -1.7908 -1.5175
 3568SOL    HW221634   1.266   8.947   2.569 -2.2759 -0.1220  0.9332
 3569SOL     OW21635   8.841   3.157   0.040 -0.4392  0.4044 -0.0004
 3569SOL    HW121636   8.802   3.169   0.131 -1.5456 -0.1125 -0.3860
 3569SOL    HW221637   8.899   3.076   0.039  0.1412  0.8165  0.4265
 3570SOL     OW21638   8.727   7.740   2.712  0.1847 -0.2732  0.3001
 3570SOL    HW121639   8.725   7.642   2.694 -0.7510 -0.9832  3.8629
 3570SOL    HW221640   8.647   7.784   2.670  1.0142 -0.8379 -1.9666
 3571SOL     OW21641   8.395   0.580   1.528 -0.1733  0.1840 -0.4824
 3571SOL    HW121642   8.451   0.660   1.550  1.7815 -1.6043  1.3172
 3571SOL    HW221643   8.432   0.536   1.446  0.5249 -0.4827  0.1833
 3572SOL     OW21644   0.271   3.598   0.081  0.3335  0.0258  0.9686
 3572SOL    HW121645   0.239   3.691   0.066  2.3629  0.5859 -0.0056
 3572SOL    HW221646   0.217   3.535   0.025 -0.2371  0.7388  0.7072
 3573SOL     OW21647   8.999   1.496   2.867 -0.2589  0.0126  0.3552
 3573SOL    HW121648   9.050   1.515   2.951  0.1753 -1.3973  0.4320
 3573SOL    HW221649   9.050   1.430   2.812 -1.5993 -0.7664  0.0318
 3574SOL     OW21650   8.710   8.993   0.399 -0.1051  0.3999 -0.0584
 3574SOL    HW121651   8.635   9.058   0.386 -2.5798 -2.5084 -0.7457
 3574SOL    HW221652   8.746   9.002   0.492 -2.3157  0.8305  0.7943
 3575SOL     OW21653   2.129   6.840   1.770 -0.0740  0.5112 -0.0998
 3575SOL    HW121654   2.199   6.886   1.715 -0.4016 -0.9384 -1.7826
 3575SOL    HW221655   2.173   6.776   1.833  0.1186 -0.6530 -1.3979
 3576SOL     OW21656   2.373   6.484   2.061  0.6719  0.3862  0.0408
 3576SOL    HW121657   2.303   6.524   2.121 -1.6403  0.1014 -2.3979
 3576SOL    HW221658   2.376   6.385   2.074  0.6487  0.3983  0.1398
 3577SOL     OW21659   9.695   5.660   2.756 -0.1363  0.5455 -0.3304
 3577SOL    HW121660   9.686   5.561   2.773  1.2322  0.3251 -0.8483
 3577SOL    HW221661   9.624   5.708   2.808 -1.9225 -0.8230 -1.4238
 3578SOL     OW21662   3.494   5.748   1.193 -0.0523 -0.1810  0.1299
 3578SOL    HW121663   3.526   5.829   1.144  1.2989 -0.7262  0.0849
 3578SOL    HW221664   3.545   5.667   1.161 -2.2859 -1.2710 -0.7675
 3579SOL     OW21665   7.898   8.253   1.887  0.2935  0.2565  0.3493
 3579SOL    HW121666   7.953   8.170   1.893 -0.1861 -0.1814 -0.9926
 3579SOL    HW221667   7.829   8.242   1.815  0.7946  2.1262 -0.4580
 3580SOL     OW21668   4.603   2.165   0.616  0.0103 -0.2479 -0.0023
 3580SOL    HW121669   4.522   2.108   0.605 -0.1651 -0.1566  0.8083
 3580SOL    HW221670   4.601   2.210   0.705 -0.2759  1.6622 -0.9293
 3581SOL     OW21671   7.741   6.277   3.174  0.5006  0.1603 -0.3073
 3581SOL    HW121672   7.695   6.328   3.101  0.7415  0.3928 -0.2974
 3581SOL    HW221673   7.753   6.336   3.253  1.6389  0.3779 -0.6337
 3582SOL     OW21674   2.524   2.806   3.721  0.6704  0.3035  0.3394
 3582SOL    HW121675   2.503   2.871   3.794  0.0477  0.5547 -0.0560
 3582SOL    HW221676   2.585   2.734   3.756  0.9910  0.8459  0.8965
 3583SOL     OW21677   1.992   3.518   1.886 -0.2507  0.1321 -0.0928
 3583SOL    HW121678   2.007   3.484   1.792  2.1042  0.0988  0.2791
 3583SOL    HW221679   1.928   3.594   1.883  0.0504  0.3563 -1.7801
 3584SOL     OW21680   2.667   9.123   0.721 -0.1385 -0.0101  0.3739
 3584SOL    HW121681   2.607   9.047   0.697 -0.0251  0.0225 -0.0229
 3584SOL    HW221682   2.622   9.181   0.789  0.3973 -1.2524  1.7796
 3585SOL     OW21683   8.607   3.692   5.616  0.3551 -0.3588 -0.0443
 3585SOL    HW121684   8.515   3.729   5.629  0.0469 -0.6386 -1.2723
 3585SOL    HW221685   8.600   3.594   5.593  1.1305 -1.1480  2.8963
 3586SOL     OW21686   9.722   1.933   5.162  0.0689 -0.0806  0.1392
 3586SOL    HW121687   9.689   1.998   5.095 -0.5939  0.3268  0.8519
 3586SOL    HW221688   9.809   1.894   5.132  1.7757  3.0250  0.8935
 3587SOL     OW21689   5.356   8.654   1.394  0.4427 -0.1592  0.4115
 3587SOL    HW121690   5.332   8.557   1.382 -0.2614  0.0320  0.2553
 3587SOL    HW221691   5.283   8.700   1.444 -0.5268  0.8871 -1.8783
 3588SOL     OW21692   6.804   7.548   2.290  0.2585 -0.3137  0.3278
 3588SOL    HW121693   6.708   7.533   2.266  0.7264 -0.9291 -1.2294
 3588SOL    HW221694   6.825   7.646   2.284 -0.0284 -0.2860 -0.3407
 3589SOL     OW21695   6.896   0.768   2.999 -0.2471 -0.0493 -0.0841
 3589SOL    HW121696   6.812   0.820   2.985 -0.4299 -0.3491 -0.1025
 3589SOL    HW221697   6.874   0.678   3.035  0.0609 -0.1799 -0.2209
 3590SOL     OW21698   1.757   2.585   4.443 -0.0415 -0.1322 -0.4788
 3590SOL    HW121699   1.781   2.682   4.449 -0.7002  0.0151 -0.0655
 3590SOL    HW221700   1.703   2.560   4.524  0.2173 -0.8700 -0.5334
 3591SOL     OW21701   5.040   9.331   1.274 -0.1445 -0.6856 -0.0478
 3591SOL    HW121702   5.018   9.234   1.284  1.4011 -0.9231  1.1046
 3591SOL    HW221703   5.025   9.359   1.179 -0.8640 -1.9801 -0.3208
 3592SOL     OW21704   7.207   0.038   2.201 -0.1118 -0.5092  0.0030
 3592SOL    HW121705   7.280   0.076   2.145  0.2041 -2.7291 -1.1403
 3592SOL    HW221706   7.245  -0.031   2.263 -0.8897 -0.0210  1.0513
 3593SOL     OW21707   1.520   9.483   2.564  0.4393 -0.0502  0.5125
 3593SOL    HW121708   1.580   9.492   2.644 -0.3237  0.0549  1.0750
 3593SOL    HW221709   1.470   9.568   2.550  1.4639  0.3573 -0.8145
 3594SOL     OW21710   6.369   0.782   0.622 -0.0303 -0.2743  0.5270
 3594SOL    HW121711   6.393   0.782   0.719 -1.0053  1.7182  0.7966
 3594SOL    HW221712   6.422   0.712   0.575  0.8697 -0.8913  2.3944
 3595SOL     OW21713   3.214   9.099   2.262  0.3525  0.4481  0.4909
 3595SOL    HW121714   3.313   9.103   2.249 -0.0946 -0.1138 -3.7769
 3595SOL    HW221715   3.171   9.176   2.214 -1.5434 -1.5595 -1.0990
 3596SOL     OW21716   2.687   0.502   5.441  0.4420 -0.1928 -0.1462
 3596SOL    HW121717   2.726   0.590   5.413 -1.1715  0.0631 -1.6588
 3596SOL    HW221718   2.702   0.489   5.539  1.1688  1.5203 -0.0082
 3597SOL     OW21719   7.140   7.604   1.477 -0.0818 -0.1656 -0.1315
 3597SOL    HW121720   7.090   7.636   1.397  0.0297  0.4705  0.0571
 3597SOL    HW221721   7.081   7.606   1.557 -0.4977 -1.7428 -0.3765
 3598SOL     OW21722   7.834   2.617   0.165  0.3069  0.0128  0.1131
 3598SOL    HW121723   7.761   2.583   0.105 -0.7996  0.4870  1.1562
 3598SOL    HW221724   7.862   2.708   0.134  0.5828 -0.2464 -0.4020
 3599SOL     OW21725   1.075   5.975   5.006  0.9645 -0.6885  0.3172
 3599SOL    HW121726   1.029   5.890   5.034  0.4346 -0.7396 -0.6815
 3599SOL    HW221727   1.155   5.952   4.950  1.8818 -0.5786  1.5472
 3600SOL     OW21728   9.463   7.116   4.137 -0.0369  0.5836 -0.5984
 3600SOL    HW121729   9.523   7.175   4.191  2.0353 -1.1802 -0.9298
 3600SOL    HW221730   9.474   7.138   4.040  0.3661 -0.0205 -0.6875
 3601SOL     OW21731   9.517   8.895   0.871 -0.7107  0.9626 -0.6103
 3601SOL    HW121732   9.565   8.925   0.789  0.5751 -0.2130 -0.3140
 3601SOL    HW221733   9.582   8.892   0.948 -1.3043 -0.4236 -0.1444
 3602SOL     OW21734   0.332   3.715   5.155 -0.4357 -0.8347  0.4880
 3602SOL    HW121735   0.373   3.803   5.178 -0.0154 -1.3227  1.6703
 3602SOL    HW221736   0.326   3.659   5.238 -0.9271 -1.8238 -0.2077
 3603SOL     OW21737   5.912   9.888   4.519  0.0994  0.6673  0.5696
 3603SOL    HW121738   6.000   9.887   4.567  0.8501  0.0492 -0.7908
 3603SOL    HW221739   5.866   9.801   4.533 -0.0825  0.8095  0.8726
 3604SOL     OW21740   5.515   9.185   2.562 -0.5708 -0.2616  0.5570
 3604SOL    HW121741   5.502   9.216   2.468  0.3258 -2.4424 -0.3245
 3604SOL    HW221742   5.600   9.133   2.569 -1.0031 -0.7608  2.4031
 3605SOL     OW21743   8.682   5.091   2.857 -0.2352  0.1013 -0.0803
 3605SOL    HW121744   8.639   5.034   2.928  0.4328 -0.6636 -0.2840
 3605SOL    HW221745   8.616   5.159   2.825 -0.9072 -0.2775  0.4797
 3606SOL     OW21746   9.771   9.698   3.799  0.2191 -0.3086  0.0942
 3606SOL    HW121747   9.751   9.792   3.824 -0.1203 -0.3267 -0.1184
 3606SOL    HW221748   9.866   9.691   3.768  0.4046 -0.1346  0.6082
 3607SOL     OW21749   9.505   9.544   4.516 -0.4200 -0.5587  0.2811
 3607SOL    HW121750   9.455   9.629   4.502  1.6479  0.7616  0.6565
 3607SOL    HW221751   9.581   9.559   4.578  1.2776 -2.1636 -1.3086
 3608SOL     OW21752   8.019   5.126   3.206 -0.3117  0.0433  0.0667
 3608SOL    HW121753   8.044   5.174   3.121 -1.4120 -0.0239 -0.2946
 3608SOL    HW221754   7.976   5.190   3.269 -1.2321 -0.3228 -0.1799
 3609SOL     OW21755   9.805   0.206   4.571 -0.2214 -0.2439 -0.6516
 3609SOL    HW121756   9.737   0.275   4.545  0.3449  0.2619 -0.8052
 3609SOL    HW221757   9.823   0.145   4.493  1.1680  1.0169 -1.3487
 3610SOL     OW21758   0.441   8.493   3.756 -0.8986  1.0768  0.0020
 3610SOL    HW121759   0.436   8.394   3.742 -0.8764  1.3055 -1.6314
 3610SOL    HW221760   0.531   8.517   3.793 -0.5201  0.6117 -0.6195
 3611SOL     OW21761   7.981   2.732   2.025 -0.2398 -0.2127  0.1286
 3611SOL    HW121762   7.969   2.819   1.977  1.6182  0.4469  0.7877
 3611SOL    HW221763   7.970   2.746   2.124 -1.3190 -1.0141  0.1303
 3612SOL     OW21764   8.672   1.108   3.110 -0.4399 -0.5076 -0.0344
 3612SOL    HW121765   8.643   1.182   3.170 -0.4844 -1.4352  1.1077
 3612SOL    HW221766   8.770   1.090   3.125 -0.1131  0.1721 -1.2439
 3613SOL     OW21767   8.700   8.137   0.698 -0.2900  0.0274 -0.1285
 3613SOL    HW121768   8.727   8.049   0.660 -1.8570 -1.1464  1.3821
 3613SOL    HW221769   8.781   8.185   0.732  0.7880 -0.0331 -2.5631
 3614SOL     OW21770   2.796   6.466   2.891 -0.5320  0.0859 -0.0185
 3614SOL    HW121771   2.714   6.499   2.937 -0.8723 -1.7856  0.7627
 3614SOL    HW221772   2.870   6.532   2.903 -1.1319  0.4622  1.6523
 3615SOL     OW21773   1.865   7.038   3.840 -0.9298  0.0925 -0.2059
 3615SOL    HW121774   1.858   6.964   3.773  0.8422 -0.8285  0.5900
 3615SOL    HW221775   1.913   7.116   3.799 -0.6273 -0.1403 -0.2999
 3616SOL     OW21776   1.705   1.845   3.912  0.8995  0.3019  0.2937
 3616SOL    HW121777   1.739   1.901   3.836  1.6043  1.0953  1.1879
 3616SOL    HW221778   1.664   1.761   3.875  0.2940  1.1530 -1.0213
 3617SOL     OW21779   7.452   8.757   1.574 -0.5296 -0.0609  0.4382
 3617SOL    HW121780   7.502   8.679   1.536 -1.2551 -0.7501  0.8752
 3617SOL    HW221781   7.516   8.816   1.624 -0.3138 -1.4526  1.8304
 3618SOL     OW21782   1.653   2.575   2.054  0.5030 -0.0149  0.1516
 3618SOL    HW121783   1.558   2.553   2.074  0.6147 -1.4499 -0.8070
 3618SOL    HW221784   1.660   2.671   2.027 -1.1547 -0.5867 -2.5664
 3619SOL     OW21785   6.443   0.619   2.265  0.4651  0.1174 -0.0135
 3619SOL    HW121786   6.390   0.540   2.296 -1.0150  1.3618  0.7372
 3619SOL    HW221787   6.469   0.607   2.169  0.7376 -1.5146  0.2559
 3620SOL     OW21788   9.883   8.190   2.644  0.3005  0.2296  0.1072
 3620SOL    HW121789   9.896   8.101   2.600  1.1137  0.3906  0.0029
 3620SOL    HW221790   9.955   8.204   2.712 -0.4542  0.3494  0.8885
 3621SOL     OW21791   1.072   8.436   4.138 -0.5006  0.6132  0.7823
 3621SOL    HW121792   0.985   8.478   4.165 -0.0638  0.3277  2.7243
 3621SOL    HW221793   1.109   8.384   4.215  0.7493 -0.3605 -0.4439
 3622SOL     OW21794   1.853   5.735   2.858 -0.3084  0.1052 -0.7304
 3622SOL    HW121795   1.764   5.780   2.848  0.0671  0.7833 -1.0737
 3622SOL    HW221796   1.888   5.709   2.768  0.3382  0.8247 -0.6944
 3623SOL     OW21797   7.489   2.263   0.098  0.1159  0.4518  0.1568
 3623SOL    HW121798   7.453   2.220   0.015 -0.1280  0.5596  0.2050
 3623SOL    HW221799   7.585   2.238   0.110  0.3904  1.0879 -0.6056
 3624SOL     OW21800   0.771   9.087   3.075 -0.4435  0.4671 -0.1204
 3624SOL    HW121801   0.676   9.098   3.047 -1.1149 -2.0225  1.0460
 3624SOL    HW221802   0.820   9.031   3.008 -1.2632 -2.9031  2.0091
 3625SOL     OW21803   1.837   7.356   4.950  0.2226 -0.6540  0.0379
 3625SOL    HW121804   1.738   7.370   4.939 -0.2986 -3.2592  1.0979
 3625SOL    HW221805   1.867   7.396   5.036 -0.1854 -1.0225  0.3598
 3626SOL     OW21806   3.414   0.599   1.885 -0.0008 -0.3874 -0.3889
 3626SOL    HW121807   3.411   0.507   1.926 -0.9334 -0.6322 -0.9838
 3626SOL    HW221808   3.355   0.601   1.804 -0.5826  0.9574  0.0582
 3627SOL     OW21809   0.871   7.312   3.303 -0.3851 -0.3385 -0.0788
 3627SOL    HW121810   0.884   7.387   3.238 -0.7531  0.2693  0.5409
 3627SOL    HW221811   0.919   7.333   3.388 -2.3657  0.2511  0.9124
 3628SOL     OW21812   1.146   5.462   2.451 -0.2336 -0.2296  0.7568
 3628SOL    HW121813   1.070   5.399   2.439  0.4104 -0.9932  0.6503
 3628SOL    HW221814   1.176   5.495   2.362  0.9230 -1.5713  0.6309
 3629SOL     OW21815   3.839   9.599   1.101 -0.0704  0.1167  0.3541
 3629SOL    HW121816   3.917   9.642   1.145  0.1589  1.2831 -1.1358
 3629SOL    HW221817   3.833   9.503   1.130  0.5691  0.6161  2.1930
 3630SOL     OW21818   6.065   0.854   2.168  0.1515 -0.5779 -0.0076
 3630SOL    HW121819   6.030   0.829   2.258  0.3731  0.4818  0.3871
 3630SOL    HW221820   6.165   0.850   2.168  0.2337  1.0435  0.3111
 3631SOL     OW21821   0.386   7.739   4.231 -0.1920 -0.1329 -0.4686
 3631SOL    HW121822   0.483   7.717   4.245  0.0349 -0.6501 -2.6015
 3631SOL    HW221823   0.366   7.829   4.269  1.6892  0.9592 -1.9625
 3632SOL     OW21824   5.452   9.573   3.512 -0.0991  0.2139 -0.1532
 3632SOL    HW121825   5.364   9.533   3.485  0.2469  0.4787 -1.7625
 3632SOL    HW221826   5.522   9.543   3.448  0.9588  0.1569  1.0171
 3633SOL     OW21827   0.473   2.231   0.622 -0.3432  0.6210  0.4262
 3633SOL    HW121828   0.424   2.153   0.584  1.8505 -1.0729  0.9629
 3633SOL    HW221829   0.450   2.314   0.571 -0.0284 -0.9860 -2.3915
 3634SOL     OW21830   8.740   4.087   3.276  1.2097  0.5639  0.3292
 3634SOL    HW121831   8.780   4.030   3.204 -0.4449 -2.0964  1.4808
 3634SOL    HW221832   8.796   4.082   3.358  0.1344 -0.8076  0.9896
 3635SOL     OW21833   8.326   6.350   4.765  0.5507  0.0283  0.3285
 3635SOL    HW121834   8.297   6.258   4.792  1.5665 -0.4524 -0.1837
 3635SOL    HW221835   8.366   6.396   4.844  3.3255 -1.2978 -0.2349
 3636SOL     OW21836   7.980   1.363   0.187 -0.5496 -0.4311  0.2290
 3636SOL    HW121837   8.049   1.410   0.132  0.1952  0.9816  2.3130
 3636SOL    HW221838   7.908   1.428   0.214 -0.5881 -0.9576  1.4225
 3637SOL     OW21839   1.909   4.933   4.057  0.3931  0.1663 -0.5695
 3637SOL    HW121840   1.944   4.841   4.074  2.1265  1.1368  1.4828
 3637SOL    HW221841   1.818   4.942   4.097  0.1611 -0.6956 -0.9023
 3638SOL     OW21842   0.780   1.968   3.093 -0.1791 -0.5954  0.5941
 3638SOL    HW121843   0.724   1.907   3.037 -0.6390 -0.7617  1.2320
 3638SOL    HW221844   0.831   1.914   3.160  0.8263 -0.4546 -0.0470
 3639SOL     OW21845   1.874   0.029   1.965  0.0453  0.7192  0.5128
 3639SOL    HW121846   1.956   0.021   2.022  0.6974 -0.4467 -0.5712
 3639SOL    HW221847   1.882  -0.032   1.886 -0.3788  3.0580 -1.4007
 3640SOL     OW21848   9.527   5.125   0.079  0.2374 -0.1103 -0.1810
 3640SOL    HW121849   9.526   5.146  -0.019  1.2456  2.6684  0.3749
 3640SOL    HW221850   9.440   5.083   0.104 -0.0000 -0.9710 -2.2731
 3641SOL     OW21851   8.687   3.830   1.863 -0.1447  0.0107 -0.2273
 3641SOL    HW121852   8.599   3.803   1.824 -0.3617  0.1981  0.1279
 3641SOL    HW221853   8.687   3.928   1.880  0.8123  0.3261 -1.9418
 3642SOL     OW21854   0.484   7.398   4.629  0.2246  0.3826  0.2539
 3642SOL    HW121855   0.392   7.422   4.660 -0.3498  0.3810 -1.3891
 3642SOL    HW221856   0.551   7.428   4.697 -0.9719  0.5628  1.3743
 3643SOL     OW21857   6.873   9.136   1.556 -0.1961 -0.6789  0.1990
 3643SOL    HW121858   6.872   9.165   1.652 -0.8769  1.7187 -0.5095
 3643SOL    HW221859   6.781   9.141   1.518  0.1161 -1.3323 -0.6698
 3644SOL     OW21860   1.627   7.974   5.120  0.5541 -0.0089 -0.4023
 3644SOL    HW121861   1.564   8.021   5.181  0.4328  0.2898 -0.7541
 3644SOL    HW221862   1.674   8.042   5.062  0.2421 -0.3324 -1.0432
 3645SOL     OW21863   3.950   9.702   2.065 -0.8465  0.0719 -0.3466
 3645SOL    HW121864   3.938   9.774   2.134  0.1588 -0.9552  0.9119
 3645SOL    HW221865   3.996   9.741   1.985  1.6559  0.3842  1.1778
 3646SOL     OW21866   7.569   5.540   3.513 -0.8030  0.3073  0.9316
 3646SOL    HW121867   7.652   5.484   3.517 -0.5705  0.3621 -2.0839
 3646SOL    HW221868   7.489   5.481   3.525 -0.5701 -0.8264 -2.3499
 3647SOL     OW21869   9.246   5.730   0.921 -0.1138  0.0613  0.7403
 3647SOL    HW121870   9.195   5.666   0.864 -1.1590  0.7996  0.8406
 3647SOL    HW221871   9.278   5.684   1.004  1.6140 -1.0873 -0.5245
 3648SOL     OW21872   2.332   7.874   5.133  0.3038 -0.1711  0.0883
 3648SOL    HW121873   2.409   7.905   5.076  0.1378  1.8122  0.9014
 3648SOL    HW221874   2.349   7.780   5.163  2.8213  0.5031  0.9314
 3649SOL     OW21875   7.095   9.145   2.772 -0.0910 -0.6002 -0.1327
 3649SOL    HW121876   7.153   9.066   2.750  0.8512 -0.1697  0.7907
 3649SOL    HW221877   7.141   9.202   2.840 -1.4188 -0.0281  0.2876
 3650SOL     OW21878   6.731   7.232   2.468  0.3737  1.0797 -0.1854
 3650SOL    HW121879   6.747   7.231   2.369  1.7702  1.9460  0.0137
 3650SOL    HW221880   6.759   7.144   2.507 -0.7024  0.5291 -0.6227
 3651SOL     OW21881   4.079   8.325   4.676  0.5075 -0.3451 -0.4379
 3651SOL    HW121882   4.023   8.380   4.613 -0.6028 -0.9807 -0.0161
 3651SOL    HW221883   4.026   8.303   4.757  1.5117 -0.6342  0.1432
 3652SOL     OW21884   4.913   3.640   1.633 -0.2634  0.3590  0.1902
 3652SOL    HW121885   4.989   3.637   1.568  1.2448 -0.5551  1.9451
 3652SOL    HW221886   4.860   3.723   1.619  1.5309  1.3980 -0.5443
 3653SOL     OW21887   0.144   1.693   0.662 -0.1802  0.3278  0.2329
 3653SOL    HW121888   0.170   1.634   0.738  1.1389  0.3908 -0.1465
 3653SOL    HW221889   0.059   1.660   0.620  1.7964 -2.7800 -1.5121
 3654SOL     OW21890   6.084   0.365   1.609 -0.4760  0.3457 -0.4784
 3654SOL    HW121891   6.101   0.321   1.697  2.1834 -0.2597 -1.2522
 3654SOL    HW221892   5.986   0.376   1.596 -0.9487 -0.3967  2.1450
 3655SOL     OW21893   1.911   1.269   1.776  0.0190 -0.5097 -0.0329
 3655SOL    HW121894   1.842   1.197   1.766  0.1561 -0.3001 -3.0327
 3655SOL    HW221895   2.001   1.232   1.751  0.4842  0.0746  0.7477
 3656SOL     OW21896   2.493   6.735   4.837 -0.4527 -0.1955  0.2507
 3656SOL    HW121897   2.412   6.695   4.879 -0.2706 -0.8284 -0.0067
 3656SOL    HW221898   2.549   6.778   4.908 -1.0585  0.3322  0.4171
 3657SOL     OW21899   8.285   6.039   5.314 -0.0735  0.1753 -0.3872
 3657SOL    HW121900   8.364   6.005   5.264  1.6118  1.3880  1.3716
 3657SOL    HW221901   8.234   6.102   5.255  1.2533  0.7414 -0.9597
 3658SOL     OW21902   5.101   1.447   4.892 -0.2029 -0.0752 -0.1889
 3658SOL    HW121903   5.189   1.488   4.866 -0.5324 -0.0214 -1.2239
 3658SOL    HW221904   5.106   1.418   4.988  1.2396 -0.8169 -0.4587
 3659SOL     OW21905   9.265   1.549   1.246 -0.5833 -0.3586 -0.1907
 3659SOL    HW121906   9.275   1.510   1.155 -1.9810 -0.4668 -0.2983
 3659SOL    HW221907   9.189   1.505   1.294 -0.1915  0.0557  0.8329
 3660SOL     OW21908   0.131   0.108   3.981 -0.1797  0.6282 -0.1033
 3660SOL    HW121909   0.199   0.081   3.913  0.0562  0.4749  0.1884
 3660SOL    HW221910   0.163   0.189   4.030  0.2273  0.0015  0.6737
 3661SOL     OW21911   1.814   8.483   1.911  0.0944  0.0054  0.4396
 3661SOL    HW121912   1.885   8.553   1.917 -0.8000  0.7629  3.4185
 3661SOL    HW221913   1.814   8.430   1.996 -0.7269 -2.1338 -0.8867
 3662SOL     OW21914   9.962   1.503   3.339 -0.3328 -0.3155 -0.6946
 3662SOL    HW121915   9.939   1.551   3.424 -0.6483 -2.4195  0.4284
 3662SOL    HW221916   9.887   1.441   3.314 -0.5291  0.7230 -2.8731
 3663SOL     OW21917   7.860   9.186   4.021 -0.5968  0.2764 -0.0981
 3663SOL    HW121918   7.923   9.176   3.944 -0.8391  1.3278 -0.4371
 3663SOL    HW221919   7.776   9.134   4.002 -0.4198  0.0611 -0.2917
 3664SOL     OW21920   4.257   0.980   1.796 -0.0179 -0.6263  0.0851
 3664SOL    HW121921   4.177   1.036   1.819  0.5988  1.2352 -2.1776
 3664SOL    HW221922   4.231   0.883   1.801 -1.8220 -0.1158  1.4385
 3665SOL     OW21923   7.389   6.985   3.729 -1.0982  0.6967 -0.3424
 3665SOL    HW121924   7.362   7.078   3.754  1.7601  1.7261 -0.8824
 3665SOL    HW221925   7.449   6.988   3.650  0.7878 -1.4322  0.9569
 3666SOL     OW21926   8.308   1.287   3.656  0.1953 -0.2458 -0.4059
 3666SOL    HW121927   8.290   1.373   3.702  0.2633 -0.3123 -0.2562
 3666SOL    HW221928   8.237   1.220   3.679  0.2460 -0.2889 -0.3744
 3667SOL     OW21929   6.957   7.320   2.237  0.2869 -0.9111 -0.1460
 3667SOL    HW121930   6.917   7.408   2.264  0.6114 -1.2270  1.4067
 3667SOL    HW221931   6.894   7.273   2.175 -1.9039 -1.4947  2.4217
 3668SOL     OW21932   3.050   9.150   4.422 -0.1288  0.0293  0.3130
 3668SOL    HW121933   3.122   9.081   4.421 -0.3648 -0.2107 -0.7162
 3668SOL    HW221934   3.076   9.224   4.484  0.1633 -0.9362  1.3678
 3669SOL     OW21935   1.506   4.407   1.323  0.1058 -0.0702  0.5208
 3669SOL    HW121936   1.601   4.432   1.341  0.1412  0.0149  0.2175
 3669SOL    HW221937   1.501   4.346   1.244  0.1415 -2.0411  1.9829
 3670SOL     OW21938   3.530   4.074   4.665  1.1229 -0.2748  0.2277
 3670SOL    HW121939   3.613   4.076   4.610  1.6487  1.4523  1.0395
 3670SOL    HW221940   3.450   4.062   4.605  1.8568 -0.6851 -0.6728
 3671SOL     OW21941   0.633   6.428   3.645 -0.2292 -0.2832 -0.0920
 3671SOL    HW121942   0.601   6.369   3.719 -0.2575  0.4294  0.4714
 3671SOL    HW221943   0.671   6.372   3.572 -0.9347 -1.0377  0.1078
 3672SOL     OW21944   9.950   3.039   5.389 -0.2194 -0.2467  0.0167
 3672SOL    HW121945   9.927   2.956   5.338 -1.3925  1.2752 -1.9966
 3672SOL    HW221946   9.998   3.102   5.329  1.3166  0.2602  1.7468
 3673SOL     OW21947   8.489   9.741   4.582 -0.6036 -0.2691 -0.0581
 3673SOL    HW121948   8.453   9.770   4.670  0.5104 -0.6709  0.5455
 3673SOL    HW221949   8.565   9.678   4.596 -0.9487 -0.9886 -1.3190
 3674SOL     OW21950   5.324   7.144   2.609 -0.3998 -0.5501  0.2160
 3674SOL    HW121951   5.245   7.136   2.670  0.3163  2.5291  1.6383
 3674SOL    HW221952   5.313   7.225   2.551  1.0511 -0.9073 -0.5933
 3675SOL     OW21953   9.995   6.068   2.306 -0.7320 -0.2222 -0.1089
 3675SOL    HW121954  10.066   6.000   2.323 -0.5979  0.0338  0.3724
 3675SOL    HW221955   9.914   6.046   2.361 -0.1513  0.8381  1.2146
 3676SOL     OW21956   2.667   5.462   3.739  0.2847 -0.0935  0.4692
 3676SOL    HW121957   2.712   5.529   3.679  2.5881 -1.6644  0.3888
 3676SOL    HW221958   2.620   5.394   3.683 -0.6326  0.4948  0.5211
 3677SOL     OW21959   9.454   3.983   4.185 -0.2190  0.2339 -0.7908
 3677SOL    HW121960   9.455   3.966   4.283 -0.1475 -1.8961 -1.1398
 3677SOL    HW221961   9.382   3.928   4.142 -0.2067  1.0994 -1.9395
 3678SOL     OW21962   7.833   3.169   0.950 -0.6677  0.1048  0.7015
 3678SOL    HW121963   7.858   3.097   1.016  2.2907  1.7822  1.5203
 3678SOL    HW221964   7.842   3.133   0.857 -0.6415 -1.0013  1.1174
 3679SOL     OW21965   2.488   9.504   1.986  0.9012  0.4410  0.0859
 3679SOL    HW121966   2.474   9.600   1.961 -0.3332  0.1787 -0.2734
 3679SOL    HW221967   2.486   9.448   1.903 -3.5264 -0.4819  0.6712
 3680SOL     OW21968   1.829   9.193   1.657 -0.9664  0.0551 -0.2648
 3680SOL    HW121969   1.863   9.213   1.749  3.4751 -1.7551 -1.3922
 3680SOL    HW221970   1.853   9.267   1.595 -1.6760  0.0788 -0.5211
 3681SOL     OW21971   2.450   0.022   3.746 -0.4285  0.2991  0.4527
 3681SOL    HW121972   2.375   0.081   3.717  0.3218  1.2359  0.4060
 3681SOL    HW221973   2.442  -0.067   3.699  0.2526  1.4728 -1.9380
 3682SOL     OW21974   0.157   6.928   0.384 -0.2724  0.4798  0.0828
 3682SOL    HW121975   0.233   6.921   0.447 -1.1602 -1.1917  1.0098
 3682SOL    HW221976   0.177   6.874   0.302  0.7574  2.4168 -0.9775
 3683SOL     OW21977   5.429   8.314   3.276 -0.0714 -0.2956  0.5976
 3683SOL    HW121978   5.456   8.403   3.314  0.2263 -0.8363  1.6688
 3683SOL    HW221979   5.497   8.245   3.302  0.2868 -0.6220 -1.1572
 3684SOL     OW21980   0.451   9.176   0.529 -0.0714 -0.2316  0.5314
 3684SOL    HW121981   0.404   9.186   0.617  1.0195 -0.9291  1.2003
 3684SOL    HW221982   0.538   9.130   0.543  0.4204  0.2728 -0.8333
 3685SOL     OW21983   3.445   0.083   0.239  0.0956 -0.2514  0.2733
 3685SOL    HW121984   3.486   0.066   0.149  0.8809  0.4529  0.4916
 3685SOL    HW221985   3.446  -0.001   0.293  1.3045 -0.2310  0.2898
 3686SOL     OW21986   1.156   9.859   3.840  0.2050 -0.6903  0.3872
 3686SOL    HW121987   1.143   9.760   3.839 -1.0743 -0.5293  1.2291
 3686SOL    HW221988   1.079   9.904   3.795  0.9172 -0.0791 -0.2492
 3687SOL     OW21989   3.126   4.556   2.758  0.5818  0.2845 -0.0918
 3687SOL    HW121990   3.215   4.563   2.802  1.2594  2.3560 -1.7118
 3687SOL    HW221991   3.054   4.581   2.824  1.1000 -2.2568  1.4673
 3688SOL     OW21992   4.262   0.197   5.425 -0.0151  0.0889 -0.1781
 3688SOL    HW121993   4.214   0.267   5.372 -1.6892 -0.8555  0.0346
 3688SOL    HW221994   4.283   0.119   5.365  0.1008 -0.0350  0.0239
 3689SOL     OW21995   9.945   1.599   1.428 -0.1327  0.7199 -0.3051
 3689SOL    HW121996   9.860   1.557   1.458  0.2549  0.3438  0.2497
 3689SOL    HW221997   9.963   1.680   1.483  0.4103  0.2112  0.2655
 3690SOL     OW21998   6.907   7.833   1.727 -0.4564 -0.1169  0.3044
 3690SOL    HW121999   6.984   7.862   1.783  2.7470 -0.7451 -3.5658
 3690SOL    HW222000   6.902   7.733   1.728  0.9058 -0.2399 -2.0556
 3691SOL     OW22001   1.104   3.318   1.692  0.2340 -0.2588 -0.1335
 3691SOL    HW122002   1.160   3.399   1.714 -1.0182  0.2049  1.5034
 3691SOL    HW222003   1.144   3.269   1.615  3.0086 -0.0688  1.1550
 3692SOL     OW22004   2.988   9.883   0.585  0.3302 -0.0603 -0.3658
 3692SOL    HW122005   2.960   9.954   0.520  0.2505  0.1016 -0.1546
 3692SOL    HW222006   2.911   9.861   0.645  0.8371  0.7965  0.5901
 3693SOL     OW22007   7.954   0.632   1.130 -0.8450  0.7274  0.0175
 3693SOL    HW122008   7.967   0.635   1.031 -1.7848 -3.9792 -0.3783
 3693SOL    HW222009   7.866   0.674   1.153 -1.6825 -0.2033 -1.4294
 3694SOL     OW22010   8.364   2.399   0.716 -0.0687 -0.1541  0.1745
 3694SOL    HW122011   8.418   2.319   0.690  1.5305  1.1500 -0.6042
 3694SOL    HW222012   8.422   2.480   0.718 -1.3952  0.8101  2.1587
 3695SOL     OW22013   8.088   9.147   0.875 -0.5263  0.1199 -0.7189
 3695SOL    HW122014   8.048   9.164   0.785  0.1107  1.6860 -0.7261
 3695SOL    HW222015   8.019   9.108   0.936 -1.1321 -0.3413 -1.7022
 3696SOL     OW22016   9.010   4.359   2.899  0.1770  0.2498 -0.0628
 3696SOL    HW122017   8.963   4.275   2.869 -0.8621  0.3762  1.1609
 3696SOL    HW222018   9.008   4.364   2.999  0.9862  1.3076 -0.1003
 3697SOL     OW22019   9.078   9.490   1.461  0.4010  0.3692 -0.3107
 3697SOL    HW122020   9.077   9.421   1.534 -0.3536 -0.9560 -1.5750
 3697SOL    HW222021   9.172   9.521   1.448  1.1490 -2.2194 -1.4074
 3698SOL     OW22022   2.380   9.043   5.421  0.1470  0.4306 -0.9749
 3698SOL    HW122023   2.322   8.970   5.457 -0.3869 -0.5724 -3.7580
 3698SOL    HW222024   2.471   9.037   5.463 -0.7134 -0.1009  0.8647
 3699SOL     OW22025   4.836   1.133   3.482 -0.0938  0.8172 -0.0163
 3699SOL    HW122026   4.883   1.053   3.444  0.4141 -0.5874  3.3184
 3699SOL    HW222027   4.900   1.210   3.488  1.3784 -0.5506  2.8165
 3700SOL     OW22028   3.206   1.025   3.619  0.1880 -0.1230  0.4742
 3700SOL    HW122029   3.148   0.956   3.662 -0.3237 -0.4451 -0.6999
 3700SOL    HW222030   3.292   0.983   3.591 -0.6971 -0.6506 -1.5357
 3701SOL     OW22031   2.729   2.871   3.030  0.2235 -0.4311 -0.4743
 3701SOL    HW122032   2.721   2.854   2.931 -0.3455  0.7389 -0.6277
 3701SOL    HW222033   2.641   2.854   3.074 -0.0562  1.0051 -0.4635
 3702SOL     OW22034   2.392   2.433   0.809 -0.0599 -0.0197  0.5888
 3702SOL    HW122035   2.447   2.517   0.808 -0.2771  0.1298  0.9529
 3702SOL    HW222036   2.306   2.448   0.761  0.0489 -0.1389  0.3539
 3703SOL     OW22037   6.225   6.798   3.989 -0.1154  0.5227 -0.1093
 3703SOL    HW122038   6.156   6.861   3.955 -0.1548 -0.2987 -1.6083
 3703SOL    HW222039   6.281   6.843   4.059 -2.8064  0.8883  1.8769
 3704SOL     OW22040   3.710   1.017   2.401 -0.0182 -0.3945  0.2894
 3704SOL    HW122041   3.763   0.941   2.364 -0.9662 -0.3762 -1.1365
 3704SOL    HW222042   3.730   1.100   2.349 -2.0129 -0.5549 -0.7778
 3705SOL     OW22043   9.130   6.490   5.473  0.2636 -0.0640 -0.0270
 3705SOL    HW122044   9.033   6.475   5.453 -0.4075 -0.1403  3.0161
 3705SOL    HW222045   9.149   6.461   5.567  2.2546  4.1151  0.9785
 3706SOL     OW22046   4.286   4.290   0.306  0.1887 -0.5882  0.5880
 3706SOL    HW122047   4.362   4.304   0.242  0.4145 -0.0476  0.9683
 3706SOL    HW222048   4.321   4.253   0.392 -0.0599 -0.9407  0.5360
 3707SOL     OW22049   4.131   3.095   2.311  0.4166 -0.5338 -0.1075
 3707SOL    HW122050   4.128   2.998   2.336 -0.5172 -0.0562  1.6701
 3707SOL    HW222051   4.221   3.132   2.334 -0.8832  0.2726  4.1753
 3708SOL     OW22052   1.296   6.577   4.501 -0.3084  0.1117  0.1517
 3708SOL    HW122053   1.311   6.674   4.521 -1.5855  0.3867 -0.2005
 3708SOL    HW222054   1.384   6.532   4.488  0.2831  1.3010 -0.0427
 3709SOL     OW22055   2.653   5.543   5.205 -0.0377 -0.0168 -0.2812
 3709SOL    HW122056   2.691   5.608   5.270 -2.2346  2.8697 -1.7765
 3709SOL    HW222057   2.725   5.513   5.142  0.8800  1.4612  0.0404
 3710SOL     OW22058   3.459   2.945   1.117 -0.4980 -0.3318 -0.3363
 3710SOL    HW122059   3.495   3.038   1.123  0.7217 -0.8760  1.1938
 3710SOL    HW222060   3.385   2.933   1.183 -0.1575 -0.6676 -0.0153
 3711SOL     OW22061   9.923   9.728   3.114 -0.1587 -0.7023  0.1048
 3711SOL    HW122062   9.949   9.825   3.114 -0.0862 -0.7210  0.2158
 3711SOL    HW222063   9.839   9.716   3.165 -0.4821 -0.6153 -0.4035
 3712SOL     OW22064   4.168   6.102   1.344 -0.4044 -0.0468 -0.2359
 3712SOL    HW122065   4.131   6.080   1.253 -0.9145  1.8503 -0.4925
 3712SOL    HW222066   4.093   6.125   1.406  0.1355  1.3170 -0.0751
 3713SOL     OW22067   0.331   6.653   4.827 -0.1271  0.0894  0.1091
 3713SOL    HW122068   0.355   6.705   4.744  2.1628 -0.4437  0.4190
 3713SOL    HW222069   0.369   6.561   4.821 -2.0632 -0.7834  0.6861
 3714SOL     OW22070   3.405   1.493   2.178 -0.2366  0.2676  0.8132
 3714SOL    HW122071   3.328   1.557   2.187  1.2670  2.4184 -0.9464
 3714SOL    HW222072   3.470   1.508   2.252  0.2783  1.0760  0.2181
 3715SOL     OW22073   8.843   5.148   1.833 -0.3636 -0.0584 -0.2923
 3715SOL    HW122074   8.930   5.103   1.852  0.0145 -0.2034 -2.2214
 3715SOL    HW222075   8.783   5.142   1.913  1.7173  0.8224  1.3586
 3716SOL     OW22076   1.859   7.978   1.126  0.7083 -0.1359  0.1393
 3716SOL    HW122077   1.858   7.950   1.030  0.4470  0.4654 -0.0396
 3716SOL    HW222078   1.828   7.903   1.183  0.3552 -0.3271 -0.3006
 3717SOL     OW22079   4.548   7.289   1.617  0.1280 -0.2114  0.4762
 3717SOL    HW122080   4.631   7.322   1.573 -0.4381  0.2300 -0.2845
 3717SOL    HW222081   4.529   7.343   1.699  0.7097 -0.4540  0.7674
 3718SOL     OW22082   1.207   0.656   4.988  0.1109  0.2917  0.2498
 3718SOL    HW122083   1.146   0.702   5.053 -0.6641  1.2076 -1.1120
 3718SOL    HW222084   1.214   0.559   5.012 -2.0181  0.1290  0.3444
 3719SOL     OW22085   5.174   0.225   0.551  0.4345 -0.2593 -0.3879
 3719SOL    HW122086   5.094   0.182   0.592  0.4403  0.3471  0.2817
 3719SOL    HW222087   5.221   0.280   0.620  2.5079 -2.1065 -0.2764
 3720SOL     OW22088   8.793   9.084   1.280  0.6392 -0.5222 -0.2155
 3720SOL    HW122089   8.822   9.179   1.275 -0.7377 -0.0394  0.7698
 3720SOL    HW222090   8.703   9.078   1.324  0.5455 -2.2410 -0.5844
 3721SOL     OW22091   0.277   5.539   0.464  0.3822 -0.6573  0.1614
 3721SOL    HW122092   0.356   5.583   0.422  1.4605  0.8153  3.6173
 3721SOL    HW222093   0.208   5.608   0.485  0.1398 -1.2818  1.4382
 3722SOL     OW22094   5.259   9.094   4.197 -0.0224 -0.1156 -0.4504
 3722SOL    HW122095   5.269   9.146   4.282 -1.9254 -0.3565 -0.0500
 3722SOL    HW222096   5.239   9.156   4.122 -0.1794 -0.0764 -0.3767
 3723SOL     OW22097   3.527   1.340   3.111 -0.2805  0.1518  0.3960
 3723SOL    HW122098   3.458   1.412   3.105 -0.3856  0.2628  2.3789
 3723SOL    HW222099   3.618   1.380   3.108 -0.3156  0.1864 -0.2969
 3724SOL     OW22100   2.103   1.480   4.756  0.6304 -0.4772 -0.0101
 3724SOL    HW122101   2.113   1.408   4.824  0.6013 -0.9862 -0.5355
 3724SOL    HW222102   2.189   1.529   4.745  0.6633 -0.4650  0.3152
 3725SOL     OW22103   3.183   6.728   1.473 -0.4344  0.3733  0.2415
 3725SOL    HW122104   3.148   6.656   1.414 -0.6121 -0.4010  1.2690
 3725SOL    HW222105   3.212   6.688   1.560 -0.2889  1.5070  0.7245
 3726SOL     OW22106   4.875   1.850   5.494 -0.5488  0.1845 -0.1402
 3726SOL    HW122107   4.932   1.882   5.570 -0.0757  1.9810 -1.2353
 3726SOL    HW222108   4.929   1.848   5.410 -1.7320  0.5566 -0.9153
 3727SOL     OW22109   9.962   3.875   3.024 -0.2792  0.3441  0.3590
 3727SOL    HW122110   9.927   3.908   2.936 -0.1251  1.3200  0.6574
 3727SOL    HW222111   9.885   3.844   3.080 -0.2874 -1.2891 -0.5143
 3728SOL     OW22112   1.289   1.378   1.592 -0.6005 -0.1222 -0.0774
 3728SOL    HW122113   1.204   1.340   1.628 -1.3206  0.3520 -1.2408
 3728SOL    HW222114   1.277   1.399   1.495  1.0620 -0.7157 -0.4293
 3729SOL     OW22115   8.474   3.657   4.209  0.3063 -0.1073  0.4702
 3729SOL    HW122116   8.499   3.594   4.282 -0.0334  0.7851  1.3792
 3729SOL    HW222117   8.387   3.702   4.232  0.0672 -0.0054 -0.6030
 3730SOL     OW22118   9.358   8.827   1.698 -0.9094  0.1058 -0.2018
 3730SOL    HW122119   9.332   8.923   1.691 -0.3869  0.4738  2.4197
 3730SOL    HW222120   9.280   8.773   1.728 -0.4906  0.1602  1.0212
 3731SOL     OW22121   9.161   6.248   0.367 -0.2025  0.4935  0.1408
 3731SOL    HW122122   9.192   6.158   0.399 -0.1447  1.0369  1.6794
 3731SOL    HW222123   9.098   6.287   0.434  0.6256  2.0761  0.0235
 3732SOL     OW22124   9.256   5.622   3.613 -0.1475  0.2057  0.0037
 3732SOL    HW122125   9.169   5.602   3.569  0.6923  1.0598 -2.0938
 3732SOL    HW222126   9.275   5.553   3.683 -1.0775 -1.7090 -1.6109
 3733SOL     OW22127   1.647   8.602   3.959  0.2375  0.5423  0.0902
 3733SOL    HW122128   1.691   8.548   3.888 -0.9333  1.6123 -1.4837
 3733SOL    HW222129   1.587   8.670   3.917  0.2228  1.8043  2.0748
 3734SOL     OW22130   7.207   0.707   3.678 -0.6964  0.0112  0.2984
 3734SOL    HW122131   7.274   0.640   3.647 -1.6427 -0.1954 -1.3766
 3734SOL    HW222132   7.217   0.791   3.624 -1.4383  0.1500  0.3747
 3735SOL     OW22133   7.095   0.542   4.228  0.1980  0.3186  0.3835
 3735SOL    HW122134   7.046   0.629   4.224 -0.7554 -0.1953  0.8659
 3735SOL    HW222135   7.194   0.560   4.226  0.0347  1.4811  1.6575
 3736SOL     OW22136   9.353   4.320   0.302  0.3874  0.9270  0.0040
 3736SOL    HW122137   9.348   4.420   0.304  2.5652  1.0488  1.6406
 3736SOL    HW222138   9.332   4.284   0.393 -0.0834 -0.0977 -0.5060
 3737SOL     OW22139   7.416   0.128   0.587  0.3398 -0.6908 -0.1507
 3737SOL    HW122140   7.451   0.205   0.535  0.8539 -0.9035 -0.1281
 3737SOL    HW222141   7.325   0.104   0.555  0.3130 -0.2810 -0.3781
 3738SOL     OW22142   9.156   6.887   0.180 -0.0232 -0.0546 -0.0800
 3738SOL    HW122143   9.122   6.956   0.244 -0.1988  1.0620 -1.3611
 3738SOL    HW222144   9.188   6.932   0.096  0.2688 -1.4958 -0.7536
 3739SOL     OW22145   0.096   5.915   2.823  0.8773 -0.2313  0.2972
 3739SOL    HW122146   0.173   5.946   2.767  0.9373  0.3509  0.6970
 3739SOL    HW222147   0.083   5.817   2.810  1.5477 -0.2927  0.0571
 3740SOL     OW22148   3.358   9.947   4.773 -0.9644 -0.4186  0.3980
 3740SOL    HW122149   3.342   9.914   4.679 -1.4982  0.2955  0.2279
 3740SOL    HW222150   3.329  10.043   4.779  1.4439  0.3259  0.6273
 3741SOL     OW22151   2.963   6.233   2.447  0.2021  0.0212  0.3191
 3741SOL    HW122152   2.888   6.187   2.400  1.0370  0.5390 -1.5708
 3741SOL    HW222153   2.933   6.264   2.537 -1.3511 -1.2318  0.2445
 3742SOL     OW22154   1.321   5.331   0.554  0.7918 -0.2558  0.0072
 3742SOL    HW122155   1.412   5.360   0.524  0.6953 -0.2523 -0.2851
 3742SOL    HW222156   1.288   5.259   0.493  0.4725 -0.0435 -0.0688
 3743SOL     OW22157   8.543   0.976   2.424  0.0670 -0.0363 -0.2750
 3743SOL    HW122158   8.446   0.982   2.448  0.6595 -1.2252  2.6262
 3743SOL    HW222159   8.594   1.044   2.477  1.3277 -2.1571  1.2871
 3744SOL     OW22160   2.859   4.805   1.195  0.5237 -1.2171 -0.4353
 3744SOL    HW122161   2.904   4.854   1.270 -2.5128 -1.1168  1.3862
 3744SOL    HW222162   2.914   4.725   1.170  0.9800 -1.9397  2.7146
 3745SOL     OW22163   2.823   9.193   2.454 -0.3159  0.3809  0.3801
 3745SOL    HW122164   2.731   9.158   2.468 -0.2492  0.9834  2.5933
 3745SOL    HW222165   2.888   9.117   2.455 -0.7539 -0.0315 -1.0834
 3746SOL     OW22166   0.714   2.542   0.817 -0.2125  0.3600 -0.2831
 3746SOL    HW122167   0.766   2.496   0.745 -1.4153 -0.6777 -0.5023
 3746SOL    HW222168   0.777   2.593   0.876  1.1204 -1.3817 -0.1661
 3747SOL     OW22169   0.039   6.884   2.016 -0.2214 -0.0567 -0.7013
 3747SOL    HW122170   0.101   6.825   2.068 -3.3113 -1.0468  1.9581
 3747SOL    HW222171  -0.039   6.831   1.984 -2.6088  2.3516  0.9604
 3748SOL     OW22172   0.494   7.795   5.111 -0.0136 -0.1723 -0.1753
 3748SOL    HW122173   0.447   7.793   5.199  1.0447 -1.9365  0.3658
 3748SOL    HW222174   0.429   7.773   5.038 -1.0954  2.1647  0.0336
 3749SOL     OW22175   4.661   3.284   2.195  0.0730 -0.3785  0.4786
 3749SOL    HW122176   4.761   3.282   2.185 -0.0734 -1.0463 -1.0829
 3749SOL    HW222177   4.621   3.215   2.134 -1.3736  0.3102  0.6430
 3750SOL     OW22178   4.940   7.078   2.998 -0.1095 -0.5738 -0.3506
 3750SOL    HW122179   4.876   7.059   3.073 -0.0137  0.7407  0.0786
 3750SOL    HW222180   4.888   7.095   2.914 -0.4412  2.3006  0.3943
 3751SOL     OW22181   3.237   9.816   0.522  0.5886  0.2124 -0.3883
 3751SOL    HW122182   3.146   9.853   0.539 -0.1175 -0.5851 -2.2909
 3751SOL    HW222183   3.273   9.776   0.606 -0.0933  2.0432  0.8045
 3752SOL     OW22184   0.932   7.981   3.853 -0.2971 -0.2705  0.2010
 3752SOL    HW122185   0.984   8.062   3.881  1.3240 -0.4028 -2.2617
 3752SOL    HW222186   0.982   7.932   3.782 -1.2074 -3.5183  1.6647
 3753SOL     OW22187   1.287   0.114   1.606 -0.1175  0.2684  0.1652
 3753SOL    HW122188   1.218   0.052   1.643 -2.3415  1.5627 -1.6620
 3753SOL    HW222189   1.269   0.130   1.509  2.2454  1.3653 -0.1403
 3754SOL     OW22190   4.730   8.046   4.263 -0.5440 -0.0574  0.4855
 3754SOL    HW122191   4.744   8.133   4.215 -0.0360  1.3046  3.0279
 3754SOL    HW222192   4.636   8.016   4.250 -0.5215  0.4482 -1.0432
 3755SOL     OW22193   3.821   8.617   0.780 -0.0307 -0.3928 -0.1943
 3755SOL    HW122194   3.850   8.635   0.874  2.2007 -2.7774 -0.3796
 3755SOL    HW222195   3.738   8.561   0.781  0.5604 -1.2805  0.3808
 3756SOL     OW22196   8.360   5.137   4.899 -0.4931 -0.0507 -0.2334
 3756SOL    HW122197   8.418   5.213   4.928  1.5724 -1.8177  0.4104
 3756SOL    HW222198   8.351   5.071   4.974 -0.8113 -1.3112 -1.3557
 3757SOL     OW22199   2.832   6.478   0.061 -0.2706  0.1297 -0.4905
 3757SOL    HW122200   2.815   6.488  -0.037  1.5305 -1.5157 -1.0118
 3757SOL    HW222201   2.929   6.495   0.081 -0.5502  0.1404  0.9464
 3758SOL     OW22202   5.078   7.457   2.797  0.3225 -0.0640 -0.1371
 3758SOL    HW122203   5.080   7.548   2.756 -0.6451  0.1591  0.2808
 3758SOL    HW222204   5.030   7.462   2.885  0.5814 -0.9091  0.0526
 3759SOL     OW22205   5.089   1.087   2.051 -0.0253 -0.0158  0.1505
 3759SOL    HW122206   5.104   0.995   2.014 -1.9295 -0.7885  1.1664
 3759SOL    HW222207   5.082   1.153   1.976  2.2069 -0.5491 -0.5499
 3760SOL     OW22208   4.552   6.203   1.511 -0.3938  0.0445 -0.5402
 3760SOL    HW122209   4.551   6.283   1.572 -1.9642  1.4167 -2.2781
 3760SOL    HW222210   4.646   6.188   1.478  0.1203  0.4724  0.6883
 3761SOL     OW22211   1.676   8.575   4.255 -0.1100  0.7493  0.0916
 3761SOL    HW122212   1.776   8.574   4.259 -0.1327 -0.6479  0.2956
 3761SOL    HW222213   1.647   8.567   4.160 -0.0304  1.0373  0.0427
 3762SOL     OW22214   8.618   9.988   1.054 -0.5112  0.0067 -0.6959
 3762SOL    HW122215   8.595   9.963   1.148  1.3329 -0.4795 -0.3604
 3762SOL    HW222216   8.651  10.082   1.052 -0.3649 -0.0482 -0.8354
 3763SOL     OW22217   1.241   7.397   5.025  0.9100 -0.1436 -0.3665
 3763SOL    HW122218   1.221   7.392   4.927  2.1278 -1.0713 -0.5859
 3763SOL    HW222219   1.307   7.325   5.049  1.5418  0.8445  0.9065
 3764SOL     OW22220   4.086   2.942   0.953 -0.5361  0.3892  0.2606
 3764SOL    HW122221   4.168   2.912   0.905 -0.3689  2.5336 -0.8372
 3764SOL    HW222222   4.033   2.862   0.981 -0.2897 -0.9614 -2.8968
 3765SOL     OW22223   9.392   3.678   4.131 -0.0601 -0.1097 -0.2026
 3765SOL    HW122224   9.420   3.663   4.226 -0.7047  3.3301  0.5656
 3765SOL    HW222225   9.293   3.664   4.123 -0.2255  0.9758 -0.0683
 3766SOL     OW22226   3.698   0.695   2.390  0.2174  0.0927 -0.1718
 3766SOL    HW122227   3.666   0.610   2.347  0.2903 -0.7315  1.3578
 3766SOL    HW222228   3.624   0.734   2.445  0.6251  0.2732  0.2473
 3767SOL     OW22229   2.530   4.316   4.297  0.1733 -0.0091 -0.1382
 3767SOL    HW122230   2.481   4.401   4.278  1.7998  0.9361 -0.2225
 3767SOL    HW222231   2.555   4.313   4.394 -0.3243 -0.6432 -0.0226
 3768SOL     OW22232   2.896   7.237   0.558 -0.3594  0.5246 -0.5257
 3768SOL    HW122233   2.813   7.283   0.528 -0.0803  1.4609  0.1144
 3768SOL    HW222234   2.915   7.159   0.498 -1.4837  0.5325 -0.8986
 3769SOL     OW22235   3.052   4.677   4.220 -0.0489  0.1410 -0.3397
 3769SOL    HW122236   3.117   4.726   4.278 -1.0787 -0.7282  1.5761
 3769SOL    HW222237   3.100   4.609   4.166  0.5103 -1.3392  1.9598
 3770SOL     OW22238   1.120   4.376   0.653  0.1746 -0.5765  0.0286
 3770SOL    HW122239   1.161   4.287   0.673  0.2062 -1.1779 -2.5618
 3770SOL    HW222240   1.193   4.443   0.640  0.3229 -1.1670 -2.3974
 3771SOL     OW22241   5.811   0.261   0.597  0.1604 -0.5298 -0.2092
 3771SOL    HW122242   5.778   0.354   0.583  0.6247 -0.2703  0.3658
 3771SOL    HW222243   5.899   0.249   0.550 -0.2966 -0.9282 -0.9605
 3772SOL     OW22244   6.663   8.249   2.430 -0.1911 -0.0194 -0.2444
 3772SOL    HW122245   6.707   8.243   2.520  1.4630 -1.0776 -1.1143
 3772SOL    HW222246   6.714   8.311   2.371 -0.2389 -0.7348 -1.0479
 3773SOL     OW22247   3.920   0.344   0.942 -0.1502 -0.1377 -0.0484
 3773SOL    HW122248   3.906   0.378   0.849 -0.1815 -0.8223 -0.2973
 3773SOL    HW222249   3.838   0.296   0.973 -1.1059  2.3364  1.3205
 3774SOL     OW22250   3.991   7.619   2.884 -0.8591  0.1769  0.4374
 3774SOL    HW122251   3.897   7.610   2.915 -1.8632 -3.1364 -3.1224
 3774SOL    HW222252   3.993   7.671   2.798  0.7273  1.2146  1.0721
 3775SOL     OW22253   0.322   3.440   4.475  0.2800  0.0126 -0.2696
 3775SOL    HW122254   0.326   3.340   4.470  0.7138  0.0726 -1.1277
 3775SOL    HW222255   0.371   3.480   4.398  2.7891  0.9008  1.6749
 3776SOL     OW22256   7.777   7.951   2.643  0.3658  0.5172  0.8654
 3776SOL    HW122257   7.807   7.902   2.561 -0.3768  1.7403 -0.1499
 3776SOL    HW222258   7.713   7.893   2.694  0.4285 -0.0523  0.3173
 3777SOL     OW22259   2.427   0.859   0.452  0.1630 -0.6161  0.1804
 3777SOL    HW122260   2.356   0.924   0.481 -0.4572 -1.2173  0.0157
 3777SOL    HW222261   2.516   0.891   0.484 -0.2587 -0.1899  0.9444
 3778SOL     OW22262   1.110   3.848   3.357 -0.5220  0.1225 -0.2279
 3778SOL    HW122263   1.128   3.754   3.327  0.6318  0.3690 -0.3166
 3778SOL    HW222264   1.013   3.869   3.343 -0.6819 -0.8886 -0.6821
 3779SOL     OW22265   8.764   1.685   5.091 -0.3977 -0.5855 -0.1763
 3779SOL    HW122266   8.667   1.680   5.116 -0.5043 -1.8473 -0.8256
 3779SOL    HW222267   8.776   1.749   5.016 -0.6628 -0.0962  0.1927
 3780SOL     OW22268   5.561   7.296   1.888 -0.1420  0.1352 -0.0893
 3780SOL    HW122269   5.512   7.316   1.972  2.3347  0.2641  1.3567
 3780SOL    HW222270   5.556   7.198   1.869  0.6214 -0.1403  1.0827
 3781SOL     OW22271   7.461   8.249   2.417  0.2608  0.3964  0.0580
 3781SOL    HW122272   7.442   8.163   2.464 -0.1454 -0.4203 -1.5663
 3781SOL    HW222273   7.441   8.326   2.479 -0.4554 -0.6346  1.1358
 3782SOL     OW22274   9.766   6.922   4.236  0.0544 -0.2056  0.0508
 3782SOL    HW122275   9.718   7.007   4.257 -0.3593 -0.4590  0.1501
 3782SOL    HW222276   9.842   6.910   4.299 -2.4935 -2.0492  2.9118
 3783SOL     OW22277   1.370   1.452   0.468  0.5425 -0.1989  0.4337
 3783SOL    HW122278   1.326   1.542   0.472  2.8778  0.9123  2.6168
 3783SOL    HW222279   1.315   1.386   0.519 -0.4522  0.3190  0.0402
 3784SOL     OW22280   4.772   3.158   0.785  0.0603 -0.5334 -0.0797
 3784SOL    HW122281   4.800   3.164   0.689 -2.3688 -0.5516 -0.8103
 3784SOL    HW222282   4.731   3.069   0.802 -1.8882  0.4205  0.3164
 3785SOL     OW22283   6.575   6.719   3.523  0.3466 -0.2070 -0.7256
 3785SOL    HW122284   6.547   6.745   3.430 -1.3020  0.4116 -0.0818
 3785SOL    HW222285   6.601   6.801   3.574  0.7033 -0.4858 -0.4608
 3786SOL     OW22286   3.040   4.516   4.700 -0.8167  0.5767  0.5060
 3786SOL    HW122287   2.943   4.496   4.686 -1.6481  2.7710  2.7146
 3786SOL    HW222288   3.053   4.615   4.702  1.8273  0.3073 -1.8387
 3787SOL     OW22289  -0.005   0.366   3.826  0.0539  0.6839 -0.4131
 3787SOL    HW122290   0.006   0.267   3.824 -1.5273  0.5011 -0.3552
 3787SOL    HW222291   0.085   0.409   3.837  0.5324 -0.8033  1.7410
 3788SOL     OW22292   9.881   3.377   2.961 -0.1890  0.4383  0.3062
 3788SOL    HW122293   9.906   3.350   3.054 -1.9247  0.8762  0.9218
 3788SOL    HW222294   9.915   3.309   2.897 -0.9931 -1.1142  1.4832
 3789SOL     OW22295   9.184   3.485   2.688  0.3087 -0.6390 -0.8692
 3789SOL    HW122296   9.277   3.484   2.650  0.9018 -1.8691  0.5767
 3789SOL    HW222297   9.160   3.579   2.714  1.0301 -0.2690 -1.4913
 3790SOL     OW22298   1.564   4.781   4.270 -0.3816 -0.0167  0.4396
 3790SOL    HW122299   1.490   4.796   4.335  0.5195  0.2875  1.4099
 3790SOL    HW222300   1.560   4.849   4.197 -1.0664 -0.0244  0.4710
 3791SOL     OW22301   9.727   7.469   3.332 -0.1756 -0.4747  0.2663
 3791SOL    HW122302   9.821   7.434   3.328 -0.3643 -0.8465 -1.6561
 3791SOL    HW222303   9.673   7.425   3.260 -1.7645 -0.0903  1.2178
 3792SOL     OW22304   6.768   9.856   2.016 -0.6146  0.3619 -0.4651
 3792SOL    HW122305   6.754   9.760   2.039 -1.2623  0.5186 -0.2114
 3792SOL    HW222306   6.761   9.867   1.916  1.3946 -0.1734 -0.6906
 3793SOL     OW22307   5.378   7.948   2.940  0.5534  0.1441  0.3711
 3793SOL    HW122308   5.343   7.856   2.954 -1.0439  0.5816 -0.6008
 3793SOL    HW222309   5.354   8.005   3.019 -0.5337  0.3105 -0.0629
 3794SOL     OW22310   1.361   7.555   4.654 -0.6022  0.6141 -0.0818
 3794SOL    HW122311   1.399   7.614   4.582  1.1644  1.5323  1.5517
 3794SOL    HW222312   1.310   7.480   4.612 -0.6772  1.8382 -2.2612
 3795SOL     OW22313   8.225   3.321   5.406 -0.0426  0.1306 -0.3938
 3795SOL    HW122314   8.227   3.281   5.315 -0.9068  1.0097 -0.8143
 3795SOL    HW222315   8.158   3.396   5.408  0.8684  0.9443  0.6146
 3796SOL     OW22316   1.440   2.835   3.826  0.4892 -0.2577  0.0778
 3796SOL    HW122317   1.390   2.749   3.832  0.5283 -0.1925  1.6653
 3796SOL    HW222318   1.538   2.816   3.819  0.5002 -0.3501  0.4624
 3797SOL     OW22319   9.137   5.223   2.418  1.0166 -0.4780 -0.2440
 3797SOL    HW122320   9.228   5.255   2.391  0.7543  0.1442 -0.4131
 3797SOL    HW222321   9.072   5.245   2.345  0.7611 -1.0841 -0.2014
 3798SOL     OW22322   5.505   0.265   3.112  0.0021 -0.2407  0.3479
 3798SOL    HW122323   5.462   0.354   3.098  0.5083 -0.3425 -2.1330
 3798SOL    HW222324   5.604   0.277   3.117 -0.0795 -0.3880  2.6470
 3799SOL     OW22325   9.987   9.154   4.871 -0.0130 -0.1776 -0.0201
 3799SOL    HW122326   9.968   9.249   4.895 -1.1562 -0.0324 -1.4310
 3799SOL    HW222327  10.058   9.118   4.931  0.0618  1.4058  0.8643
 3800SOL     OW22328   0.116   6.716   2.249  0.2013  0.2341 -0.2257
 3800SOL    HW122329   0.213   6.694   2.244 -0.1748 -0.9819 -3.2610
 3800SOL    HW222330   0.064   6.647   2.199 -2.1565  1.3593  0.6137
 3801SOL     OW22331   1.813   3.728   1.521  0.4481 -0.0515  0.0966
 3801SOL    HW122332   1.856   3.751   1.608 -1.1071 -0.5459  1.0252
 3801SOL    HW222333   1.795   3.812   1.469 -1.6423  0.5608  1.7434
 3802SOL     OW22334   7.072   8.609   1.791 -0.0591 -0.8497  0.0910
 3802SOL    HW122335   7.009   8.674   1.835  0.3311 -0.7246  0.4748
 3802SOL    HW222336   7.039   8.588   1.699  1.5071  2.4338 -1.3053
 3803SOL     OW22337   5.072   0.400   3.715 -0.2588  0.1534 -0.1459
 3803SOL    HW122338   5.042   0.495   3.709  1.1573  0.6946  1.1503
 3803SOL    HW222339   5.109   0.382   3.805 -1.1749 -1.8524 -0.1465
 3804SOL     OW22340   9.433   3.508   0.049 -0.0121  0.3019  0.1082
 3804SOL    HW122341   9.363   3.533  -0.017 -1.0918 -0.0431  1.1007
 3804SOL    HW222342   9.519   3.490   0.002 -0.9499 -0.6346 -1.2845
 3805SOL     OW22343   6.659   9.961   2.740 -0.4092  0.0224  0.5328
 3805SOL    HW122344   6.706  10.048   2.748 -0.7354  0.2733 -0.2262
 3805SOL    HW222345   6.615   9.938   2.827 -0.7355  0.8511  0.5896
 3806SOL     OW22346   1.023   4.824   4.229 -0.1026 -0.5464 -0.5244
 3806SOL    HW122347   1.116   4.831   4.265  0.4439  0.3133 -2.0594
 3806SOL    HW222348   1.019   4.866   4.139 -2.2592  0.4615  0.0144
 3807SOL     OW22349   0.476   3.422   0.918 -0.6259 -0.1203  0.0971
 3807SOL    HW122350   0.457   3.503   0.861 -1.1757 -0.2952  0.0266
 3807SOL    HW222351   0.505   3.347   0.859  1.2342  0.4102  0.2875
 3808SOL     OW22352   0.387   6.483   3.958  0.5098  0.1536  0.2784
 3808SOL    HW122353   0.306   6.520   3.911  1.2195  1.2377 -0.0937
 3808SOL    HW222354   0.386   6.511   4.054 -0.2346 -0.9408  0.6068
 3809SOL     OW22355   9.686   4.617   1.443  0.2015 -0.5184  0.2937
 3809SOL    HW122356   9.633   4.679   1.385  0.0937 -2.1851 -1.4290
 3809SOL    HW222357   9.707   4.662   1.530 -0.5230  1.6419 -0.6290
 3810SOL     OW22358   2.516   8.111   4.595 -0.1281  0.1728  0.0090
 3810SOL    HW122359   2.432   8.061   4.619  0.0135 -1.0377 -1.9139
 3810SOL    HW222360   2.587   8.046   4.570 -0.5096  1.3405 -4.4464
 3811SOL     OW22361   9.882   2.699   0.158  0.1878 -0.7942 -0.3496
 3811SOL    HW122362   9.924   2.769   0.217 -1.6467 -0.4522  0.5808
 3811SOL    HW222363   9.917   2.709   0.065 -1.0210  2.2593 -0.5337
 3812SOL     OW22364   7.763   6.840   3.169  0.3605  0.1758 -0.2302
 3812SOL    HW122365   7.718   6.927   3.190  2.5270  1.3865 -0.4052
 3812SOL    HW222366   7.696   6.766   3.171 -1.1727  1.5704  1.8356
 3813SOL     OW22367   9.790   1.659   4.006 -0.2724 -0.1518 -0.2074
 3813SOL    HW122368   9.826   1.569   4.031 -2.6849 -0.7183  1.4342
 3813SOL    HW222369   9.694   1.650   3.979 -0.4293  1.8931 -0.4209
 3814SOL     OW22370   0.296   4.954   2.960 -0.4487  0.7110 -0.0139
 3814SOL    HW122371   0.238   4.902   2.897 -1.7595 -0.1798  1.8745
 3814SOL    HW222372   0.390   4.923   2.951 -0.4944  1.0795 -2.0116
 3815SOL     OW22373   8.122   6.842   1.229 -0.3159 -0.1615  0.0306
 3815SOL    HW122374   8.097   6.869   1.137  1.5883  0.9285 -0.1921
 3815SOL    HW222375   8.198   6.776   1.225  0.3232  0.5141  0.8348
 3816SOL     OW22376   9.563   0.322   4.132 -0.7492  0.4221  0.0838
 3816SOL    HW122377   9.620   0.399   4.104 -1.0988  0.7366  0.2432
 3816SOL    HW222378   9.476   0.325   4.083  0.0426 -1.0457 -1.4944
 3817SOL     OW22379   7.718   7.815   3.895 -0.1659  0.1171  0.5330
 3817SOL    HW122380   7.648   7.812   3.823 -0.5676  0.2466  0.9183
 3817SOL    HW222381   7.699   7.891   3.957  2.0139  2.0785 -1.0849
 3818SOL     OW22382   6.545   8.599   3.144 -0.1541  0.2179 -0.1309
 3818SOL    HW122383   6.533   8.512   3.193 -0.2056 -0.0914 -0.6940
 3818SOL    HW222384   6.627   8.594   3.088  0.2314  0.7877  0.3807
 3819SOL     OW22385   9.055   7.938   1.381 -0.2393  0.3253 -0.0695
 3819SOL    HW122386   9.150   7.940   1.349 -0.2338  0.0797 -0.0633
 3819SOL    HW222387   9.028   7.844   1.402  0.5094  0.7283  2.9083
 3820SOL     OW22388   2.028   1.560   0.405  0.0840  0.0988 -0.1562
 3820SOL    HW122389   2.067   1.617   0.477  2.1238 -0.1170 -1.0376
 3820SOL    HW222390   1.990   1.477   0.444  3.1523 -1.0500  0.4892
 3821SOL     OW22391   0.470   6.962   2.384  0.0693  0.4699  0.3205
 3821SOL    HW122392   0.448   6.877   2.336 -0.8970  0.9367 -0.0742
 3821SOL    HW222393   0.520   7.023   2.323  3.1378 -0.8501  1.4163
 3822SOL     OW22394   3.047   0.873   4.861 -0.3617 -0.2617  0.3674
 3822SOL    HW122395   3.075   0.824   4.944 -0.1186  0.0123  0.4484
 3822SOL    HW222396   3.101   0.956   4.853  0.5306 -0.9339 -0.7594
 3823SOL     OW22397   0.448   0.702   4.640  0.0772 -0.3052 -0.0601
 3823SOL    HW122398   0.395   0.751   4.709  0.3364 -1.0375  0.6642
 3823SOL    HW222399   0.404   0.615   4.620  1.1967 -1.0973  0.8370
 3824SOL     OW22400   4.919   4.292   0.874  0.0725  0.1523 -0.1846
 3824SOL    HW122401   4.882   4.367   0.929 -2.3424 -2.1644  1.4892
 3824SOL    HW222402   5.017   4.306   0.859 -0.0799  2.9312  1.2320
 3825SOL     OW22403   3.050   3.043   3.663  0.6975  0.1959  0.0102
 3825SOL    HW122404   3.064   2.956   3.616 -0.6453  1.2836 -2.4817
 3825SOL    HW222405   2.951   3.060   3.672  0.9559  1.4919  0.4431
 3826SOL     OW22406   8.908   9.255   2.127  0.1050  0.0113 -0.0547
 3826SOL    HW122407   9.007   9.249   2.136  0.3769 -1.2136 -3.1316
 3826SOL    HW222408   8.878   9.348   2.150  2.1242  0.7449 -0.2879
 3827SOL     OW22409   9.592   8.081   5.187 -0.7567 -0.1815  0.2466
 3827SOL    HW122410   9.601   8.181   5.193  1.4454 -0.4012  0.8226
 3827SOL    HW222411   9.679   8.038   5.210 -1.8427 -2.2734  0.5336
 3828SOL     OW22412   8.729   4.931   2.312  0.6249  0.1857 -0.4841
 3828SOL    HW122413   8.679   4.963   2.231 -0.1836  1.1600  0.3810
 3828SOL    HW222414   8.807   4.875   2.283 -1.4625 -2.1204 -1.8339
 3829SOL     OW22415   5.330   9.631   2.046 -0.0207 -0.1727  0.3706
 3829SOL    HW122416   5.320   9.533   2.034  1.7343 -0.3106 -0.0241
 3829SOL    HW222417   5.354   9.651   2.141 -1.6735 -0.0114  0.7701
 3830SOL     OW22418   0.754   9.439   0.060 -0.0254  0.1025  0.0070
 3830SOL    HW122419   0.699   9.356   0.068 -0.8561  0.6298 -0.1982
 3830SOL    HW222420   0.821   9.442   0.134 -0.4733 -0.3795  0.4331
 3831SOL     OW22421   0.096   3.528   4.665 -0.6272  0.1220 -0.5629
 3831SOL    HW122422   0.132   3.611   4.706  1.6195 -1.0401 -0.0933
 3831SOL    HW222423   0.158   3.497   4.593  0.4278 -3.0123  1.5852
 3832SOL     OW22424   0.958   3.865   2.157  0.5733 -0.1661  0.1532
 3832SOL    HW122425   1.041   3.904   2.197 -0.1670  0.2754  1.2816
 3832SOL    HW222426   0.889   3.936   2.147  0.1230 -0.6511 -0.2435
 3833SOL     OW22427   1.840   4.172   0.250 -0.0515 -0.0275  0.0187
 3833SOL    HW122428   1.742   4.174   0.269 -0.1699 -0.2587 -0.5715
 3833SOL    HW222429   1.860   4.230   0.171  0.4905  1.1929  1.0467
 3834SOL     OW22430   9.343   0.071   4.480  0.7425  0.4314 -0.4002
 3834SOL    HW122431   9.433   0.071   4.436  0.4721 -1.6651 -1.0204
 3834SOL    HW222432   9.287   0.145   4.441  0.8898 -0.6750 -2.8405
 3835SOL     OW22433   8.133   2.343   1.525  0.4081 -0.5764 -0.5742
 3835SOL    HW122434   8.218   2.302   1.558 -0.8750 -1.6927  1.5065
 3835SOL    HW222435   8.056   2.306   1.578 -1.2012  1.6603 -1.2761
 3836SOL     OW22436   1.441   0.181   3.853 -0.2678 -0.2467 -0.0462
 3836SOL    HW122437   1.406   0.224   3.936  0.6912  0.6111 -0.0728
 3836SOL    HW222438   1.485   0.094   3.876 -0.2869 -0.1642  0.3017
 3837SOL     OW22439   8.470   0.971   0.310  0.1357 -0.0185  0.3074
 3837SOL    HW122440   8.441   0.996   0.217  1.3521  0.6330  0.0926
 3837SOL    HW222441   8.519   0.884   0.307 -1.3396 -0.8797  0.6032
 3838SOL     OW22442   9.116   5.681   2.263 -0.3065  0.2600 -0.3977
 3838SOL    HW122443   9.088   5.737   2.184  0.5758 -1.5130 -1.9911
 3838SOL    HW222444   9.194   5.625   2.238 -1.4987 -2.0958  1.0159
 3839SOL     OW22445   1.404   2.020   1.476  0.9351 -0.5835 -0.0685
 3839SOL    HW122446   1.457   1.935   1.475  0.1153 -1.1043 -0.2859
 3839SOL    HW222447   1.312   2.001   1.510  0.9518  0.3525  0.5085
 3840SOL     OW22448   6.563   7.319   1.882 -0.0594 -1.2189 -0.2922
 3840SOL    HW122449   6.521   7.410   1.893 -0.3713 -1.3053 -0.7650
 3840SOL    HW222450   6.497   7.249   1.910  0.2336 -1.2952  0.2094
 3841SOL     OW22451   3.308   2.885   4.137  0.0074 -0.2880  0.1299
 3841SOL    HW122452   3.327   2.822   4.212 -0.7025 -1.0803 -0.3313
 3841SOL    HW222453   3.209   2.898   4.129  0.1038  0.1681 -0.3538
 3842SOL     OW22454   7.799   1.461   0.676 -0.1522 -0.0340  0.2065
 3842SOL    HW122455   7.859   1.502   0.744 -0.0750 -0.8999  0.6657
 3842SOL    HW222456   7.710   1.507   0.678  0.2693  0.7890  0.0031
 3843SOL     OW22457   9.691   6.317   0.611  0.2215  0.2479  0.3409
 3843SOL    HW122458   9.606   6.266   0.599  0.0519  0.7604 -0.6624
 3843SOL    HW222459   9.742   6.316   0.525 -0.2897  2.6974 -0.0046
 3844SOL     OW22460   9.819   8.674   1.158 -0.6465  0.1685 -0.5757
 3844SOL    HW122461   9.754   8.598   1.160 -0.9679  0.4282 -1.3970
 3844SOL    HW222462   9.772   8.759   1.182 -0.9053  0.5724 -2.4338
 3845SOL     OW22463   2.253   3.965   1.261  0.7201  0.2810 -0.3249
 3845SOL    HW122464   2.261   3.932   1.167 -0.6838 -1.8631  0.2501
 3845SOL    HW222465   2.305   3.905   1.322 -1.5036 -0.7091  0.6951
 3846SOL     OW22466   8.014   8.103   4.124  0.0551 -0.3347 -0.0026
 3846SOL    HW122467   7.966   8.111   4.037 -1.9290 -1.2773  0.9951
 3846SOL    HW222468   8.020   8.193   4.167 -0.3211 -0.1224 -0.3939
 3847SOL     OW22469   7.669   8.876   1.288 -0.4409  0.3826 -0.1496
 3847SOL    HW122470   7.745   8.936   1.312  0.0760 -0.2892 -0.0982
 3847SOL    HW222471   7.690   8.783   1.317 -1.5285  0.2976  0.3873
 3848SOL     OW22472   4.356   1.710   4.535  0.0581 -0.0368 -0.3609
 3848SOL    HW122473   4.354   1.634   4.601 -1.2548 -0.9566 -1.4291
 3848SOL    HW222474   4.280   1.701   4.472 -0.4662  2.5313 -0.1551
 3849SOL     OW22475   5.861   4.111   0.177 -0.4535  0.3484 -0.2287
 3849SOL    HW122476   5.875   4.111   0.276 -3.4755 -0.0383  0.2480
 3849SOL    HW222477   5.834   4.020   0.147  1.4167  0.2227 -1.5846
 3850SOL     OW22478   4.408   2.676   0.771 -0.3355  0.4481 -0.4249
 3850SOL    HW122479   4.372   2.747   0.831 -1.4552  0.2564 -0.8544
 3850SOL    HW222480   4.480   2.714   0.713  0.3812  0.7593  0.6730
 3851SOL     OW22481   8.496   6.696   1.722 -0.2437 -0.1117 -0.5451
 3851SOL    HW122482   8.564   6.679   1.650  0.6034 -0.3512  0.3114
 3851SOL    HW222483   8.537   6.750   1.795 -1.1770  0.3390 -0.3468
 3852SOL     OW22484   0.548   2.741   1.502  0.3220 -0.5625 -0.5446
 3852SOL    HW122485   0.558   2.688   1.418  0.5355 -0.3893 -0.6321
 3852SOL    HW222486   0.519   2.834   1.478  1.0691 -0.3064 -0.4843
 3853SOL     OW22487   9.989   5.818   4.265  0.5523  0.5292 -0.2280
 3853SOL    HW122488  10.051   5.893   4.243  0.9550 -0.2611 -1.8730
 3853SOL    HW222489  10.021   5.734   4.221  0.9789 -1.0045  2.8351
 3854SOL     OW22490   8.199   5.833   3.218  0.4032 -0.0491 -0.4233
 3854SOL    HW122491   8.269   5.904   3.224 -1.3261  1.8641 -2.1513
 3854SOL    HW222492   8.162   5.830   3.125 -1.6702 -1.1411  0.4081
 3855SOL     OW22493   2.108   9.967   4.198  0.0729  0.1434 -0.4128
 3855SOL    HW122494   2.111   9.915   4.283  1.4202 -0.3213 -0.7296
 3855SOL    HW222495   2.201   9.990   4.170 -0.3905  0.7737 -1.4700
 3856SOL     OW22496   0.951   1.385   3.506 -0.6988  0.2107  0.1012
 3856SOL    HW122497   0.957   1.462   3.570  2.5718  3.2269 -3.5847
 3856SOL    HW222498   0.861   1.385   3.463 -1.0641  1.4462  0.8215
 3857SOL     OW22499   1.584   2.843   3.354  0.2903  0.2534 -0.0382
 3857SOL    HW122500   1.495   2.797   3.360  0.0294  0.8756  1.1828
 3857SOL    HW222501   1.587   2.916   3.422  2.3096 -0.7382  0.9610
 3858SOL     OW22502   9.165   7.373   0.684  1.0201 -0.2646  0.8704
 3858SOL    HW122503   9.263   7.355   0.697  0.8688 -1.0619  0.8952
 3858SOL    HW222504   9.150   7.472   0.688  2.0569 -0.0238 -0.7761
 3859SOL     OW22505   5.066   8.724   3.316 -0.3130 -0.3389 -0.7321
 3859SOL    HW122506   5.098   8.637   3.280  1.9487  0.1736 -0.0855
 3859SOL    HW222507   5.078   8.795   3.247  1.8709  0.2204  0.1829
 3860SOL     OW22508   9.356   5.494   2.205  0.6150 -0.4851  0.5736
 3860SOL    HW122509   9.376   5.413   2.260  1.4797 -0.4436  0.3311
 3860SOL    HW222510   9.438   5.522   2.156 -0.1681 -0.6018 -0.8446
 3861SOL     OW22511   4.244   2.949   1.931  0.1332 -0.1731 -0.4082
 3861SOL    HW122512   4.289   3.011   1.867  0.3967 -0.2882 -0.3334
 3861SOL    HW222513   4.157   2.989   1.961  0.8312  0.6626  0.5097
 3862SOL     OW22514   1.145   4.240   4.005 -0.0701 -0.9076 -0.4966
 3862SOL    HW122515   1.212   4.292   3.952  0.4173 -1.8995 -0.8613
 3862SOL    HW222516   1.171   4.242   4.102 -0.2633 -0.1627 -0.4564
 3863SOL     OW22517   2.513   4.276   0.383  0.0503 -0.7152 -0.0384
 3863SOL    HW122518   2.595   4.314   0.426 -0.5059  0.8058 -0.3000
 3863SOL    HW222519   2.537   4.194   0.331  1.5172  0.1283 -0.7043
 3864SOL     OW22520   8.760   9.503   2.187  0.0869  0.4455 -0.1532
 3864SOL    HW122521   8.737   9.452   2.270  0.8433 -2.6250 -1.7471
 3864SOL    HW222522   8.676   9.537   2.145 -0.5780 -0.6825  0.2200
 3865SOL     OW22523   0.915   9.820   5.318 -0.1553 -0.0922 -0.4403
 3865SOL    HW122524   0.847   9.746   5.315  0.7773 -1.0390  1.0260
 3865SOL    HW222525   0.897   9.879   5.397 -0.5067  0.8812 -1.2401
 3866SOL     OW22526   9.055   4.215   4.464 -0.2349  0.5117 -0.4946
 3866SOL    HW122527   8.970   4.193   4.418  0.0185 -1.0635 -0.2194
 3866SOL    HW222528   9.131   4.166   4.421  0.5173  1.7383 -0.6088
 3867SOL     OW22529   8.656   0.343   1.734  0.8225 -0.3215  0.3640
 3867SOL    HW122530   8.655   0.398   1.818 -1.5692  0.2088  0.0090
 3867SOL    HW222531   8.735   0.370   1.679 -0.9035  3.6855 -0.3475
 3868SOL     OW22532   3.962   3.061   0.764  0.4221  0.4789 -0.3576
 3868SOL    HW122533   4.026   3.126   0.723 -0.1614  0.4104 -1.3944
 3868SOL    HW222534   4.009   3.011   0.837  1.4433  0.6982 -0.8443
 3869SOL     OW22535   9.015   4.873   1.121 -0.1778 -0.0868  0.2763
 3869SOL    HW122536   9.106   4.831   1.112 -1.2808 -2.5420  0.1867
 3869SOL    HW222537   9.019   4.946   1.189  2.0010  0.2486 -0.1656
 3870SOL     OW22538   1.012   0.237   0.563  0.0871  1.0176  0.7947
 3870SOL    HW122539   1.043   0.223   0.657 -0.3908 -0.0418  0.7994
 3870SOL    HW222540   1.066   0.181   0.501 -0.2566  0.9564  0.5470
 3871SOL     OW22541   9.379   1.579   0.864  0.8366 -0.3450 -0.4190
 3871SOL    HW122542   9.314   1.521   0.911  0.4459  0.6456  0.2839
 3871SOL    HW222543   9.332   1.660   0.827  1.2360 -0.8112 -2.0127
 3872SOL     OW22544   9.878   9.334   2.962  0.2456  0.3181 -0.4042
 3872SOL    HW122545   9.904   9.237   2.968 -0.4027  0.1288 -0.5557
 3872SOL    HW222546   9.913   9.383   3.041  0.3761 -0.0919 -0.2071
 3873SOL     OW22547   8.598   4.817   2.914 -0.4751 -0.9207 -0.2360
 3873SOL    HW122548   8.594   4.780   3.007 -0.2513 -1.4738 -0.4403
 3873SOL    HW222549   8.685   4.790   2.871 -0.0765  0.2932 -0.2087
 3874SOL     OW22550   3.323   9.633   5.215 -0.2751 -0.2341  0.0763
 3874SOL    HW122551   3.401   9.656   5.157  0.0850  0.8088  0.9542
 3874SOL    HW222552   3.251   9.590   5.160  0.8484 -1.0618 -0.7674
 3875SOL     OW22553   2.249   0.207   1.414  0.0321 -0.3905 -0.4888
 3875SOL    HW122554   2.270   0.169   1.324 -0.6731 -1.4910 -0.1902
 3875SOL    HW222555   2.192   0.289   1.402 -1.1574 -1.2691 -1.0086
 3876SOL     OW22556   4.950   2.461   4.008  0.1172  0.2945 -0.4513
 3876SOL    HW122557   4.963   2.377   3.954 -0.3839 -0.8701  1.1995
 3876SOL    HW222558   4.883   2.444   4.080  0.8373  1.8077  0.5919
 3877SOL     OW22559   1.848   3.323   0.526 -0.4811  0.2437  0.0976
 3877SOL    HW122560   1.882   3.346   0.435  0.2205 -0.4516  0.1801
 3877SOL    HW222561   1.869   3.228   0.547 -3.1472 -0.4587 -0.1447
 3878SOL     OW22562   8.706   0.002   1.600  0.0218 -0.5145 -0.0737
 3878SOL    HW122563   8.683   0.063   1.524  2.1027  1.0687  0.5304
 3878SOL    HW222564   8.645   0.021   1.678 -0.8666 -0.8415 -0.6838
 3879SOL     OW22565   9.964   9.141   2.178 -0.2160 -0.1016 -0.2362
 3879SOL    HW122566   9.933   9.235   2.196 -1.9760 -0.7009 -0.0384
 3879SOL    HW222567   9.936   9.082   2.253 -1.8081 -1.3596 -1.7762
 3880SOL     OW22568   2.153   5.767   0.993  0.3021  0.3655 -0.0904
 3880SOL    HW122569   2.063   5.807   0.974  0.7546  1.6869  0.4509
 3880SOL    HW222570   2.187   5.721   0.911 -1.7784 -2.0141  0.3201
 3881SOL     OW22571   4.168   8.698   1.433  0.7025 -0.8375  0.2268
 3881SOL    HW122572   4.180   8.795   1.414  3.4154 -0.6505  2.5950
 3881SOL    HW222573   4.217   8.645   1.364 -0.6899 -0.5705 -1.0031
 3882SOL     OW22574   1.611   5.521   1.689  0.5671 -0.2605 -0.2910
 3882SOL    HW122575   1.649   5.431   1.668 -1.6055 -1.9461  2.7080
 3882SOL    HW222576   1.648   5.553   1.776 -0.8330  0.4922  0.0270
 3883SOL     OW22577   0.489   3.984   1.213  0.0293  0.0157 -0.7427
 3883SOL    HW122578   0.551   3.905   1.214 -0.1313 -0.1091 -0.7804
 3883SOL    HW222579   0.399   3.956   1.245 -0.0899  0.1355 -0.9803
 3884SOL     OW22580   7.504   0.803   2.462  0.6609 -0.0340 -0.5863
 3884SOL    HW122581   7.583   0.780   2.519  1.0129  1.5155 -0.4226
 3884SOL    HW222582   7.504   0.901   2.443 -2.8384  0.5714  1.8972
 3885SOL     OW22583   9.087   3.417   0.431  0.1826 -0.0236  0.0261
 3885SOL    HW122584   9.167   3.477   0.431  0.6032 -0.5797  0.2109
 3885SOL    HW222585   9.115   3.325   0.457 -0.2426 -0.5961 -1.5121
 3886SOL     OW22586   9.013   0.955   0.342 -0.2330 -0.4721 -0.4506
 3886SOL    HW122587   8.992   0.862   0.370  0.4286 -0.5136 -0.0678
 3886SOL    HW222588   9.055   0.954   0.251 -0.6361 -0.5041 -0.6380
 3887SOL     OW22589   4.906   5.158   1.045 -0.0793 -0.6854  0.2408
 3887SOL    HW122590   4.839   5.121   1.109  0.9917 -0.2417  1.6540
 3887SOL    HW222591   4.867   5.237   0.997  0.1242  0.9062  2.6174
 3888SOL     OW22592   0.460   8.995   5.255  0.0070 -0.0500 -0.1485
 3888SOL    HW122593   0.429   9.043   5.337 -1.2518  0.0524 -0.6650
 3888SOL    HW222594   0.434   8.898   5.262  0.7125 -0.2274 -0.0173
 3889SOL     OW22595   4.411   1.588   3.827  0.1642  0.7309 -0.1543
 3889SOL    HW122596   4.392   1.681   3.860 -1.0746  0.8217 -1.1084
 3889SOL    HW222597   4.394   1.583   3.729  1.3870 -0.2039 -0.3282
 3890SOL     OW22598   9.847   7.045   5.367  0.2940  0.3468  0.3299
 3890SOL    HW122599   9.800   6.957   5.359 -1.1090  1.1225 -0.1035
 3890SOL    HW222600   9.929   7.034   5.423 -1.1134 -0.7591  2.2383
 3891SOL     OW22601   5.492   8.066   3.726 -0.4973 -0.7780  0.0694
 3891SOL    HW122602   5.453   8.143   3.676 -0.7400 -0.6720  0.4188
 3891SOL    HW222603   5.491   7.984   3.668 -0.1386 -0.4960 -0.3398
 3892SOL     OW22604   5.596   0.143   4.108  0.3877 -0.0834  0.3100
 3892SOL    HW122605   5.641   0.233   4.105  0.8469 -0.3366 -0.8129
 3892SOL    HW222606   5.536   0.133   4.028 -0.3792 -0.4155  0.9183
 3893SOL     OW22607   2.902   4.667   0.215 -0.0061 -0.0229 -0.2153
 3893SOL    HW122608   2.815   4.646   0.258  0.6448 -0.6466  0.8057
 3893SOL    HW222609   2.891   4.746   0.154 -1.5836 -0.9320 -1.1409
 3894SOL     OW22610   8.185   6.856   2.546 -0.1443  0.1933  0.4596
 3894SOL    HW122611   8.103   6.884   2.597 -0.8062 -0.6301 -0.1406
 3894SOL    HW222612   8.168   6.865   2.448  0.0783 -1.0583  0.2964
 3895SOL     OW22613   7.069   0.823   4.538  0.0095 -0.0941 -0.0148
 3895SOL    HW122614   6.987   0.827   4.595 -0.4654 -0.6025 -0.6558
 3895SOL    HW222615   7.054   0.761   4.462  0.3317  1.2583 -1.1993
 3896SOL     OW22616   8.471   7.365   4.479 -0.3614 -0.1276 -0.4328
 3896SOL    HW122617   8.389   7.310   4.468 -1.3071  1.2845 -0.5247
 3896SOL    HW222618   8.452   7.442   4.540  1.1979 -0.4084  0.4341
 3897SOL     OW22619   2.500   3.302   5.312  0.1422 -0.5972  0.3968
 3897SOL    HW122620   2.431   3.322   5.243  0.9943 -0.9588 -0.5855
 3897SOL    HW222621   2.500   3.373   5.382  0.1463  0.4728 -0.6770
 3898SOL     OW22622   1.204   9.615   0.337 -0.3622 -0.6059  0.3296
 3898SOL    HW122623   1.247   9.681   0.399  1.4470  0.6908 -2.2018
 3898SOL    HW222624   1.236   9.523   0.360  4.5043  0.3633 -1.8612
 3899SOL     OW22625   6.574   7.997   3.271 -0.2919  0.4618 -0.5195
 3899SOL    HW122626   6.577   7.903   3.306  0.4423 -0.2017 -2.3448
 3899SOL    HW222627   6.666   8.028   3.250 -0.5225  1.6493  0.1824
 3900SOL     OW22628   3.003   5.047   4.313  0.3011  0.0061 -0.0401
 3900SOL    HW122629   3.031   5.141   4.331 -1.3844  1.0277 -2.4851
 3900SOL    HW222630   3.050   5.014   4.231  1.0983 -1.4000  0.9715
 3901SOL     OW22631   7.753   9.848   0.532 -0.6227  0.1025  0.0445
 3901SOL    HW122632   7.678   9.892   0.582  0.1325 -0.0220  1.3188
 3901SOL    HW222633   7.833   9.907   0.532 -0.3131 -0.3132 -0.1784
 3902SOL     OW22634   7.825   8.867   2.268 -0.1698  0.0300 -0.4467
 3902SOL    HW122635   7.880   8.814   2.204 -0.3661 -0.7496  0.0181
 3902SOL    HW222636   7.850   8.964   2.262  1.7969 -0.3968  0.2829
 3903SOL     OW22637   1.017   2.506   3.889 -0.1743 -0.2551  0.0883
 3903SOL    HW122638   1.117   2.501   3.894 -0.1838 -1.3926 -0.8127
 3903SOL    HW222639   0.983   2.440   3.823 -1.6472 -0.9453  1.4876
 3904SOL     OW22640   0.722   7.841   2.749 -0.0687 -0.0362 -0.6038
 3904SOL    HW122641   0.634   7.818   2.792 -1.2215  0.7972 -2.4867
 3904SOL    HW222642   0.748   7.934   2.773  0.9013 -0.6768  0.9054
 3905SOL     OW22643   0.813   8.667   0.473  0.0433  0.4562  1.1595
 3905SOL    HW122644   0.829   8.579   0.430 -1.7165 -0.1182  1.6176
 3905SOL    HW222645   0.780   8.732   0.404 -1.7592 -0.1688  1.3865
 3906SOL     OW22646   9.475   8.487   3.407 -0.1392 -0.1065  0.0270
 3906SOL    HW122647   9.518   8.556   3.464  0.3119 -0.6865  0.3872
 3906SOL    HW222648   9.496   8.506   3.311  0.7306 -0.2511  0.1812
 3907SOL     OW22649   2.073   2.907   2.482  0.5179  0.0556  0.3077
 3907SOL    HW122650   2.101   2.996   2.447 -0.4894  0.9824  1.8155
 3907SOL    HW222651   2.133   2.879   2.557 -0.0785  0.1656  0.8322
 3908SOL     OW22652   2.523   7.467   2.598 -0.3681 -0.0587 -0.3576
 3908SOL    HW122653   2.578   7.421   2.529 -0.0592 -0.3290  0.0679
 3908SOL    HW222654   2.499   7.402   2.671 -1.0109  0.1238 -0.3986
 3909SOL     OW22655   9.815   6.883   4.930 -0.5595 -0.1740  0.5122
 3909SOL    HW122656   9.802   6.803   4.871  3.5190  0.1817 -1.0399
 3909SOL    HW222657   9.846   6.853   5.020  1.8366 -0.3803 -0.3435
 3910SOL     OW22658   3.530   0.238   4.884 -0.7632 -0.1594 -0.3097
 3910SOL    HW122659   3.607   0.233   4.820 -0.0078 -1.9024  0.7284
 3910SOL    HW222660   3.564   0.242   4.977 -1.9025  1.0857  0.0696
 3911SOL     OW22661   8.906   7.442   5.374  0.0518  0.4137 -0.3560
 3911SOL    HW122662   8.856   7.527   5.356  0.8759  0.5697 -1.9219
 3911SOL    HW222663   8.998   7.464   5.405  0.2180  0.0753 -0.6211
 3912SOL     OW22664   8.992   3.159   4.422 -0.0516  0.6374  0.2788
 3912SOL    HW122665   8.934   3.095   4.372  0.0654 -0.6423  1.7306
 3912SOL    HW222666   9.088   3.138   4.403  0.0393 -1.0531  2.4257
 3913SOL     OW22667   2.521   7.218   1.439 -0.0270 -0.5500 -0.0504
 3913SOL    HW122668   2.548   7.138   1.493 -0.5681  0.3973  1.6494
 3913SOL    HW222669   2.423   7.215   1.423 -0.5677  1.2530  2.5689
 3914SOL     OW22670   1.161   7.756   4.144  0.3424  0.6932  0.4987
 3914SOL    HW122671   1.215   7.777   4.063  1.0936 -2.2445  0.1817
 3914SOL    HW222672   1.215   7.775   4.226  0.6362  0.9088  0.2553
 3915SOL     OW22673   7.425   2.042   2.528  0.1887 -0.0403  0.5675
 3915SOL    HW122674   7.489   1.980   2.574  1.2169  0.6281  0.0295
 3915SOL    HW222675   7.419   2.128   2.579  2.0863  1.0877 -1.0761
 3916SOL     OW22676   7.299   7.723   3.890  0.1599 -0.4167 -0.0753
 3916SOL    HW122677   7.339   7.636   3.917  0.2380 -0.7468 -1.2221
 3916SOL    HW222678   7.244   7.710   3.807 -1.1167  0.3086  0.6437
 3917SOL     OW22679   0.534   4.330   1.510 -0.3714  0.6826 -0.1152
 3917SOL    HW122680   0.497   4.330   1.417 -1.4254  0.6427  0.2966
 3917SOL    HW222681   0.621   4.379   1.511  0.4089 -0.6381 -1.4129
 3918SOL     OW22682   5.969   7.546   2.502  0.0400  0.7776 -0.2495
 3918SOL    HW122683   6.009   7.557   2.593 -2.6270  0.5562  0.9952
 3918SOL    HW222684   5.991   7.455   2.467  0.2609  0.4958  0.6086
 3919SOL     OW22685   6.049   8.124   3.676  0.6731  0.0566 -0.0291
 3919SOL    HW122686   5.984   8.199   3.678  1.3386  0.5979  1.9859
 3919SOL    HW222687   6.128   8.149   3.619  1.0504  1.0253  0.9062
 3920SOL     OW22688   4.643   8.100   1.841 -0.6716 -0.2607  0.6970
 3920SOL    HW122689   4.691   8.025   1.887  1.0791  0.2358 -0.2775
 3920SOL    HW222690   4.680   8.112   1.749 -1.4188  1.3429  0.5839
 3921SOL     OW22691   7.399   3.633   4.987 -0.0968  0.6799  0.1981
 3921SOL    HW122692   7.328   3.670   5.048 -0.6167  0.3150 -0.1898
 3921SOL    HW222693   7.481   3.614   5.041 -0.3894  0.8157  0.7028
 3922SOL     OW22694   2.325   6.466   4.519  0.6969  0.3150 -0.2407
 3922SOL    HW122695   2.343   6.368   4.523  0.1347  0.2517  1.1473
 3922SOL    HW222696   2.395   6.515   4.571  0.4385  0.5704 -0.1315
 3923SOL     OW22697   2.630   6.499   1.525 -0.0926  0.4514 -0.0905
 3923SOL    HW122698   2.583   6.436   1.463  0.9515 -1.1220  0.6682
 3923SOL    HW222699   2.564   6.559   1.569 -0.9261  1.0935 -2.1585
 3924SOL     OW22700   4.149   8.917   4.803 -0.0811 -0.7360  0.0923
 3924SOL    HW122701   4.075   8.959   4.750 -0.5348 -2.0835 -0.3582
 3924SOL    HW222702   4.219   8.986   4.822 -0.6813  0.1624 -0.8644
 3925SOL     OW22703   7.444   8.554   4.550  0.4725  0.1626 -0.2743
 3925SOL    HW122704   7.379   8.478   4.561 -1.2570  1.8792  1.8924
 3925SOL    HW222705   7.422   8.603   4.465 -0.0976 -0.1996 -0.3451
 3926SOL     OW22706   8.476   9.301   2.256  0.3569  0.5835 -0.0378
 3926SOL    HW122707   8.537   9.223   2.255  0.9203  1.0228 -0.4004
 3926SOL    HW222708   8.487   9.353   2.171 -1.9078 -0.4005 -0.9747
 3927SOL     OW22709   3.343   9.228   4.169 -0.4522 -0.4056 -0.1275
 3927SOL    HW122710   3.345   9.244   4.268  0.3122  1.5050 -0.4374
 3927SOL    HW222711   3.248   9.223   4.139 -0.6997 -0.1996  0.5918
 3928SOL     OW22712   2.356   3.983   0.204  0.3316 -0.9643 -0.0903
 3928SOL    HW122713   2.338   3.967   0.301 -1.8615  0.2419 -0.2727
 3928SOL    HW222714   2.455   3.983   0.188  0.7019 -1.4914  2.0840
 3929SOL     OW22715   0.368   7.987   4.336  0.0054 -0.0625 -0.0979
 3929SOL    HW122716   0.363   8.070   4.280 -1.8393  0.1347  0.3019
 3929SOL    HW222717   0.461   7.973   4.367  0.7008  0.8465 -1.7027
 3930SOL     OW22718   8.307   4.393   0.350 -0.2724  0.1017  0.2150
 3930SOL    HW122719   8.329   4.299   0.375 -1.1786 -0.9086 -2.5513
 3930SOL    HW222720   8.218   4.394   0.304 -0.1428  2.2884  0.0008
 3931SOL     OW22721   7.372   9.904   3.004  0.2650  0.0343 -0.1611
 3931SOL    HW122722   7.405   9.939   3.091 -1.4907  1.4314 -0.0266
 3931SOL    HW222723   7.380   9.805   3.002  1.6284  0.1149  1.0258
 3932SOL     OW22724   1.579   7.476   0.613 -0.0576  0.2446 -0.1930
 3932SOL    HW122725   1.537   7.423   0.539 -0.4785  0.7962 -0.3501
 3932SOL    HW222726   1.508   7.518   0.669  0.2691  0.2685  0.2103
 3933SOL     OW22727   3.342   2.562   0.434  0.0170 -0.7872 -0.0461
 3933SOL    HW122728   3.247   2.559   0.403 -0.5062 -0.7177  1.5136
 3933SOL    HW222729   3.369   2.472   0.468  0.0806 -0.4508  0.7896
 3934SOL     OW22730   3.201   7.040   3.353  0.1985  0.8103 -0.1522
 3934SOL    HW122731   3.229   6.978   3.280 -1.2428  1.2018 -1.0474
 3934SOL    HW222732   3.267   7.115   3.359  0.9811  0.1428 -0.2306
 3935SOL     OW22733   1.005   6.867   4.847 -0.1570  0.2489 -0.0144
 3935SOL    HW122734   1.045   6.778   4.827 -1.9756 -0.9529  1.4970
 3935SOL    HW222735   1.076   6.930   4.879  0.6787 -1.5723  1.7936
 3936SOL     OW22736   8.259   5.809   3.488  0.6892  0.3981  0.1487
 3936SOL    HW122737   8.236   5.823   3.392 -0.1720  1.2416  0.4616
 3936SOL    HW222738   8.315   5.885   3.520  2.6223 -0.8527 -0.1817
 3937SOL     OW22739   1.192   7.960   0.808  0.0621 -0.1797  0.1564
 3937SOL    HW122740   1.117   8.025   0.818  0.6882  0.7199 -0.8736
 3937SOL    HW222741   1.158   7.877   0.762 -0.6073 -0.3640  0.9635
 3938SOL     OW22742   8.547   2.979   4.871  0.1303 -0.1291 -0.7466
 3938SOL    HW122743   8.607   3.050   4.907 -0.9489  1.7571 -2.5582
 3938SOL    HW222744   8.568   2.964   4.774 -0.7601 -1.1135 -0.7927
 3939SOL     OW22745   5.874   9.655   2.462  0.0426 -0.1862 -0.3021
 3939SOL    HW122746   5.801   9.641   2.529 -1.3738  2.4451 -1.2155
 3939SOL    HW222747   5.958   9.682   2.508 -0.6585  0.6484  0.4989
 3940SOL     OW22748   9.882   4.929   3.436  0.0599  0.6731  0.0428
 3940SOL    HW122749   9.906   4.934   3.533  0.9337  0.0963 -0.1399
 3940SOL    HW222750   9.876   4.834   3.408  0.8400  0.8359 -0.7175
 3941SOL     OW22751   3.062   7.422   1.145 -0.0813  0.2368 -0.0409
 3941SOL    HW122752   3.047   7.329   1.111  1.0412  0.0612 -0.0838
 3941SOL    HW222753   3.135   7.465   1.092  0.2167  0.7193  0.7540
 3942SOL     OW22754   6.429   7.267   2.742 -0.1957  0.6407 -0.3388
 3942SOL    HW122755   6.449   7.198   2.672  1.0035 -0.9806  1.5740
 3942SOL    HW222756   6.474   7.353   2.717  0.3130  0.0522 -1.4983
 3943SOL     OW22757   2.462   8.514   1.389 -0.7653  0.0016 -0.0147
 3943SOL    HW122758   2.489   8.563   1.306 -2.0484  1.2230  0.2698
 3943SOL    HW222759   2.519   8.545   1.466  1.1271 -1.8799 -0.6090
 3944SOL     OW22760   0.259   2.732   4.496 -0.3979 -0.2984  0.2399
 3944SOL    HW122761   0.241   2.811   4.438  1.8075  0.4410  0.5045
 3944SOL    HW222762   0.357   2.713   4.496 -0.4862 -0.9311  2.8924
 3945SOL     OW22763   1.829   9.166   4.374  0.1978  0.0519 -0.1478
 3945SOL    HW122764   1.775   9.126   4.300 -0.2507 -2.3925  1.4526
 3945SOL    HW222765   1.916   9.117   4.382  1.0970  1.5985 -0.3275
 3946SOL     OW22766   2.581   5.936   2.107 -0.7249 -0.3979  0.1385
 3946SOL    HW122767   2.555   5.927   2.204 -0.3550 -0.6365  0.2197
 3946SOL    HW222768   2.680   5.926   2.099 -0.7224 -0.0692 -0.2313
 3947SOL     OW22769   2.182   2.853   0.078  0.7308  0.1436 -0.4612
 3947SOL    HW122770   2.214   2.807  -0.005  0.5814 -0.6216 -0.1076
 3947SOL    HW222771   2.243   2.830   0.154  0.4547  0.2560 -0.2049
 3948SOL     OW22772   1.418   3.385   1.619 -0.1332 -0.2490  0.3794
 3948SOL    HW122773   1.380   3.460   1.674  1.1941  1.6139 -1.1814
 3948SOL    HW222774   1.406   3.406   1.522  0.6536 -1.8744 -0.0823
 3949SOL     OW22775   8.387   0.632   1.115  0.8286  0.0399  0.4041
 3949SOL    HW122776   8.420   0.695   1.186  2.6748 -0.6683  0.2065
 3949SOL    HW222777   8.348   0.685   1.040  0.7298  0.8826  1.0410
 3950SOL     OW22778   1.834   9.494   4.164 -0.4142  0.4093 -1.0057
 3950SOL    HW122779   1.841   9.473   4.261 -1.5672  1.1557 -0.7619
 3950SOL    HW222780   1.878   9.421   4.111 -1.2566 -0.8309 -0.0060
 3951SOL     OW22781   3.444   9.501   3.447  0.2830 -0.2519 -0.1212
 3951SOL    HW122782   3.511   9.575   3.442  0.2082 -0.2673 -1.4465
 3951SOL    HW222783   3.404   9.486   3.357 -0.7518 -0.9444  0.4421
 3952SOL     OW22784   9.225   2.405   0.337  0.0858  0.1150 -0.3303
 3952SOL    HW122785   9.242   2.343   0.260 -0.2809 -2.3492  1.4967
 3952SOL    HW222786   9.141   2.457   0.319 -1.2461 -2.0501 -0.6767
 3953SOL     OW22787   0.409   2.106   4.020  0.3230  0.6648 -0.0557
 3953SOL    HW122788   0.423   2.020   3.971 -1.4877 -1.7070  3.3942
 3953SOL    HW222789   0.311   2.126   4.024  0.4508  0.9443  2.2882
 3954SOL     OW22790   3.927   8.803   5.079 -0.4570  0.0517 -0.5325
 3954SOL    HW122791   3.916   8.756   5.166  0.5810  0.5881 -0.0981
 3954SOL    HW222792   4.014   8.777   5.037  0.0524  1.4466 -0.3656
 3955SOL     OW22793   6.267   0.247   2.584  0.5829 -0.2873 -0.1648
 3955SOL    HW122794   6.336   0.313   2.614 -0.2416 -0.0382  1.2519
 3955SOL    HW222795   6.312   0.161   2.560  1.4082 -0.0581  0.5195
 3956SOL     OW22796   0.163   2.460   5.348 -0.7493 -0.2595 -0.1108
 3956SOL    HW122797   0.090   2.471   5.281 -0.9388 -1.0564 -0.0374
 3956SOL    HW222798   0.182   2.548   5.392 -1.3318  0.0442 -0.4699
 3957SOL     OW22799   7.916   8.118   3.319  0.1018 -0.6328  0.8901
 3957SOL    HW122800   7.872   8.031   3.337  0.2242 -0.6140  1.2750
 3957SOL    HW222801   7.849   8.192   3.326  0.0593 -0.6665  0.8423
 3958SOL     OW22802   4.649   1.704   2.841 -0.5834 -0.0849  0.1232
 3958SOL    HW122803   4.611   1.703   2.748 -0.1717  0.9781 -0.0565
 3958SOL    HW222804   4.580   1.669   2.904 -0.6134 -1.5113 -0.6641
 3959SOL     OW22805   7.966   4.855   3.278 -0.0652  0.1384 -0.3525
 3959SOL    HW122806   7.871   4.836   3.252  0.4423 -0.8936 -1.5430
 3959SOL    HW222807   7.998   4.937   3.230 -1.0612  1.8495  1.8372
 3960SOL     OW22808   1.944   2.848   5.212 -0.3698 -0.3263  1.0404
 3960SOL    HW122809   2.027   2.903   5.206 -0.5428 -0.0842  0.8794
 3960SOL    HW222810   1.868   2.904   5.246 -0.7999 -0.1873 -0.1289
 3961SOL     OW22811   1.387   4.043   1.074 -0.3140 -0.0970  0.3125
 3961SOL    HW122812   1.388   3.954   1.029  0.5296 -0.5385  1.1673
 3961SOL    HW222813   1.305   4.094   1.047 -1.4439 -1.6307  0.7668
 3962SOL     OW22814   8.262   1.885   5.026 -0.1890 -0.5166  0.4602
 3962SOL    HW122815   8.343   1.876   4.968  1.9092 -1.8072  3.4612
 3962SOL    HW222816   8.275   1.963   5.088 -0.2753 -2.0021  2.3894
 3963SOL     OW22817   9.748   2.312   5.613 -0.5991 -0.5886  0.1712
 3963SOL    HW122818   9.743   2.381   5.540 -0.2910 -0.8628 -0.1137
 3963SOL    HW222819   9.757   2.221   5.571 -1.9512 -0.8913  0.5250
 3964SOL     OW22820   4.102   2.743   4.570  0.0838 -0.1290 -0.0873
 3964SOL    HW122821   4.066   2.777   4.657  0.3511 -0.8425  0.3122
 3964SOL    HW222822   4.044   2.668   4.537  0.4215 -0.3740 -0.1295
 3965SOL     OW22823   1.409   3.879   4.493 -0.6463  0.1234  0.1178
 3965SOL    HW122824   1.478   3.813   4.463  0.4446  1.6114 -0.7259
 3965SOL    HW222825   1.433   3.913   4.584 -1.6665 -1.2325  0.9223
 3966SOL     OW22826   0.107   0.141   1.543 -0.3028 -0.2444  0.9381
 3966SOL    HW122827   0.039   0.172   1.609  0.3700  1.0765  1.0288
 3966SOL    HW222828   0.192   0.194   1.555 -0.3137  0.3241 -1.2598
 3967SOL     OW22829   8.083   7.960   3.043  0.1668  0.1881  0.2761
 3967SOL    HW122830   8.122   7.983   2.954 -0.1821 -0.1857  0.0245
 3967SOL    HW222831   8.093   8.038   3.105  2.2797 -0.2830  0.5451
 3968SOL     OW22832   5.815   1.394   3.010 -0.0859  0.4267 -0.4609
 3968SOL    HW122833   5.753   1.328   2.967 -0.5977  1.1946 -0.9047
 3968SOL    HW222834   5.852   1.455   2.941 -0.1494  1.0512  0.0528
 3969SOL     OW22835   1.202   8.002   0.247  0.2281  0.5485 -0.1038
 3969SOL    HW122836   1.180   8.013   0.344  1.0881  1.9358 -0.0479
 3969SOL    HW222837   1.153   8.071   0.194  0.2004  0.1580 -0.5900
 3970SOL     OW22838   4.298   9.499   0.713  0.0446  0.6456  0.7645
 3970SOL    HW122839   4.245   9.564   0.660  0.2716  1.2654  1.2845
 3970SOL    HW222840   4.239   9.425   0.745 -0.7908  1.9640  2.3751
 3971SOL     OW22841   3.958   7.524   3.395  0.3301 -0.3810  0.0133
 3971SOL    HW122842   4.006   7.462   3.457  1.3567  0.4865  0.1031
 3971SOL    HW222843   3.961   7.617   3.433  0.0950 -0.0230 -0.8418
 3972SOL     OW22844   7.527   0.266   0.045 -0.1254  0.0088  0.1968
 3972SOL    HW122845   7.604   0.203   0.054  0.2772  0.6167  1.0934
 3972SOL    HW222846   7.519   0.321   0.129 -0.8256  0.7425 -0.3427
 3973SOL     OW22847   2.156   5.004   0.605 -0.4530  0.0232  0.1614
 3973SOL    HW122848   2.076   5.042   0.559 -0.7347 -0.0059  0.6250
 3973SOL    HW222849   2.126   4.941   0.677 -0.0389  1.3053  1.4588
 3974SOL     OW22850   8.080   3.629   3.551  0.3041  0.5494 -0.0380
 3974SOL    HW122851   8.097   3.554   3.615  0.6504  0.3206 -0.3884
 3974SOL    HW222852   8.048   3.591   3.464 -0.2589  0.8618  0.0326
 3975SOL     OW22853   3.217   3.464   3.512  0.3517  0.2643  0.1996
 3975SOL    HW122854   3.211   3.425   3.604 -0.9509 -0.4669 -0.1981
 3975SOL    HW222855   3.197   3.394   3.444 -1.3820  1.4429 -0.5457
 3976SOL     OW22856   3.058   5.915   5.153 -0.3696 -0.1906 -0.0703
 3976SOL    HW122857   3.047   5.827   5.198  0.1218 -0.0525  0.3377
 3976SOL    HW222858   3.135   5.964   5.196 -1.5978  1.0720  0.7316
 3977SOL     OW22859   8.419   1.976   0.254  0.1208 -0.4356 -0.0152
 3977SOL    HW122860   8.431   1.994   0.157  0.5873 -1.9011 -0.2382
 3977SOL    HW222861   8.508   1.955   0.295 -0.2196 -0.8346  0.5186
 3978SOL     OW22862   0.340   5.845   4.214 -0.0880 -0.4195  0.3281
 3978SOL    HW122863   0.350   5.806   4.122  0.3935 -1.0176  0.6295
 3978SOL    HW222864   0.286   5.929   4.209  1.0347  0.2727 -0.6993
 3979SOL     OW22865   2.251   1.410   0.319  0.3123  0.4150  0.4552
 3979SOL    HW122866   2.188   1.486   0.333 -0.2246  0.2543 -1.0468
 3979SOL    HW222867   2.344   1.446   0.304  0.1328  0.7648  0.1645
 3980SOL     OW22868   1.818   5.461   3.476  0.1689  0.2030 -0.2731
 3980SOL    HW122869   1.864   5.395   3.416  0.4853 -0.1689  0.3839
 3980SOL    HW222870   1.741   5.503   3.426 -1.3562 -2.2008 -0.0073
 3981SOL     OW22871   4.701   1.237   1.821  0.8702 -0.1784  0.0557
 3981SOL    HW122872   4.656   1.319   1.786  1.3301  0.0302 -0.0507
 3981SOL    HW222873   4.632   1.172   1.853  0.4817 -0.0162 -0.4550
 3982SOL     OW22874   8.919   7.019   2.158  0.0428  0.4020 -0.3901
 3982SOL    HW122875   8.972   7.096   2.120 -0.1260  0.6839 -0.0487
 3982SOL    HW222876   8.839   7.054   2.205  0.4734  0.0664  0.5957
 3983SOL     OW22877   1.487   2.807   1.768  0.1444  0.4745 -0.1615
 3983SOL    HW122878   1.436   2.736   1.720 -0.5074  0.6011  0.3406
 3983SOL    HW222879   1.439   2.894   1.761  0.1333  0.5336  0.5699
 3984SOL     OW22880   8.644   0.478   3.457 -0.0286 -0.0620  0.7464
 3984SOL    HW122881   8.607   0.471   3.364  0.9991 -1.4662  0.4265
 3984SOL    HW222882   8.654   0.387   3.496 -0.7124  0.5280  2.3595
 3985SOL     OW22883   2.487   3.056   0.224 -0.2387 -0.1152 -0.1375
 3985SOL    HW122884   2.450   3.145   0.198  1.2954  0.8264  0.7786
 3985SOL    HW222885   2.566   3.034   0.167  0.0041 -0.4206  0.3050
 3986SOL     OW22886   4.629   9.704   1.086  0.3097  0.6208  0.2719
 3986SOL    HW122887   4.662   9.760   1.162  1.0875  0.5641 -0.0201
 3986SOL    HW222888   4.665   9.611   1.095  1.2068  0.8776 -0.7047
 3987SOL     OW22889   5.462   6.843   3.243 -0.1204  0.6833  0.2973
 3987SOL    HW122890   5.536   6.845   3.176  0.4459 -0.6668  0.8506
 3987SOL    HW222891   5.376   6.868   3.200  0.3125  0.2316 -0.8355
 3988SOL     OW22892   1.533   3.232   0.669 -0.0861 -0.3635 -0.3056
 3988SOL    HW122893   1.521   3.247   0.571  2.8669  2.2533 -0.3249
 3988SOL    HW222894   1.498   3.311   0.720  0.3752 -0.7575  0.6325
 3989SOL     OW22895   1.370   7.644   3.456  0.3860  0.0770 -0.2065
 3989SOL    HW122896   1.343   7.721   3.514  0.2001  0.9992 -1.4976
 3989SOL    HW222897   1.350   7.558   3.502  0.0892  0.8011  1.0219
 3990SOL     OW22898   4.685   8.480   1.314  0.0447 -0.8363  0.2140
 3990SOL    HW122899   4.719   8.494   1.221 -0.2203 -0.1937  0.2133
 3990SOL    HW222900   4.598   8.432   1.312 -0.2566 -0.2820  0.1056
 3991SOL     OW22901   3.075   6.206   0.166  0.5009  0.0464  0.1468
 3991SOL    HW122902   3.088   6.303   0.186 -1.3319  0.3564 -0.0688
 3991SOL    HW222903   3.056   6.156   0.251  0.2076  0.1013  0.1161
 3992SOL     OW22904   9.639   1.856   1.176  0.1852 -0.2744  0.5949
 3992SOL    HW122905   9.688   1.913   1.242  0.9001  0.2391 -0.3638
 3992SOL    HW222906   9.678   1.870   1.085  0.3863 -2.3167  0.3508
 3993SOL     OW22907   3.643   2.255   0.776 -0.1978 -0.1002 -0.7823
 3993SOL    HW122908   3.615   2.351   0.768 -0.9362 -0.2441  0.0206
 3993SOL    HW222909   3.588   2.210   0.847  0.0777 -1.1411 -1.2193
 3994SOL     OW22910   1.111   2.038   1.891  0.2088  0.6859 -0.0797
 3994SOL    HW122911   1.185   1.995   1.839  0.0190  0.3141 -0.0416
 3994SOL    HW222912   1.139   2.046   1.987  0.3320  0.8567 -0.1279
 3995SOL     OW22913   4.315   9.338   4.421 -0.4327  0.2712 -0.7649
 3995SOL    HW122914   4.412   9.358   4.433 -0.2214 -2.0739  1.9157
 3995SOL    HW222915   4.303   9.239   4.407 -2.5927  0.1441  1.5982
 3996SOL     OW22916   0.548   7.018   0.926  0.2875  0.0927  0.1683
 3996SOL    HW122917   0.573   7.029   0.830  1.5391 -0.0234  0.4839
 3996SOL    HW222918   0.468   7.076   0.946 -1.5577 -1.8115 -1.5482
 3997SOL     OW22919   3.092   5.710   0.969 -0.4806 -0.4389 -0.4695
 3997SOL    HW122920   3.051   5.799   0.988 -0.7772 -0.6665 -0.0118
 3997SOL    HW222921   3.021   5.640   0.968 -0.0906 -0.8656  0.5165
 3998SOL     OW22922   8.329   2.647   5.596  0.6300  0.8332  0.2142
 3998SOL    HW122923   8.383   2.568   5.566  0.5206  1.2237 -1.0399
 3998SOL    HW222924   8.237   2.616   5.620  0.1576  0.7646 -1.6147
 3999SOL     OW22925   2.362   2.597   1.689  0.0396 -0.4185 -0.1127
 3999SOL    HW122926   2.410   2.626   1.606 -0.2958  0.2188 -0.0900
 3999SOL    HW222927   2.386   2.659   1.764 -1.2402  0.2441 -0.2332
 4000SOL     OW22928   2.529   9.827   0.067  0.4355 -0.3319 -0.2209
 4000SOL    HW122929   2.516   9.892   0.142 -0.5307 -1.8328  0.9314
 4000SOL    HW222930   2.609   9.770   0.085  1.4260  0.6738 -1.3486
 4001SOL     OW22931   0.356   5.163   2.150  0.7859  0.1789  0.4696
 4001SOL    HW122932   0.260   5.166   2.177  0.1851 -0.9565 -1.4317
 4001SOL    HW222933   0.402   5.088   2.196  0.6840  0.5055  1.1105
 4002SOL     OW22934   2.966   4.655   4.933  0.4640 -0.4908  0.3577
 4002SOL    HW122935   3.000   4.577   4.879  2.5667  0.4936  0.2373
 4002SOL    HW222936   2.973   4.738   4.878 -2.1164 -0.2368  0.3580
 4003SOL     OW22937   9.583   1.144   4.376 -0.0651  0.3891 -0.5195
 4003SOL    HW122938   9.527   1.223   4.350 -0.5094 -0.0431 -0.8905
 4003SOL    HW222939   9.534   1.060   4.353  1.0650 -0.0023 -1.5417
 4004SOL     OW22940   7.170   5.201   5.137 -0.2537  0.5516 -0.0954
 4004SOL    HW122941   7.230   5.121   5.137  1.0122  1.4434 -2.4253
 4004SOL    HW222942   7.088   5.182   5.191  0.6129 -1.8541  0.4085
 4005SOL     OW22943   1.584   3.886   2.342 -0.0840  0.0168 -0.5669
 4005SOL    HW122944   1.663   3.837   2.305 -0.6828 -1.7411  0.4568
 4005SOL    HW222945   1.553   3.954   2.275 -0.6035 -2.5171 -2.9692
 4006SOL     OW22946   9.010   7.201   3.660  0.6246  0.0542 -0.3420
 4006SOL    HW122947   8.969   7.269   3.599  1.0244  0.5575 -0.0505
 4006SOL    HW222948   8.992   7.109   3.624 -3.4596  0.0802  1.3748
 4007SOL     OW22949   8.078   5.723   2.247 -0.0683  0.7334 -0.0899
 4007SOL    HW122950   8.142   5.695   2.175  0.8745  0.3597  0.8965
 4007SOL    HW222951   8.031   5.642   2.283 -0.8695  0.9702 -0.5846
 4008SOL     OW22952   9.802   9.503   0.257  0.1905  0.1078  0.4511
 4008SOL    HW122953   9.716   9.475   0.213 -0.2370 -0.2877  1.5236
 4008SOL    HW222954   9.839   9.426   0.310  1.2956  0.2254 -0.1410
 4009SOL     OW22955   1.669   9.859   2.931  0.2281  0.5658  0.3334
 4009SOL    HW122956   1.618   9.920   2.871  0.1040 -0.0479 -0.1901
 4009SOL    HW222957   1.605   9.813   2.993 -0.0061 -0.9443 -0.9769
 4010SOL     OW22958   1.045   9.084   5.585 -0.2291 -0.4304  0.0825
 4010SOL    HW122959   0.958   9.129   5.565 -0.4013 -0.3188  1.0579
 4010SOL    HW222960   1.057   9.076   5.684 -1.3797 -4.7865 -0.0186
 4011SOL     OW22961   2.548   9.392   0.486  1.0021  0.7933  0.1727
 4011SOL    HW122962   2.615   9.320   0.469  1.0129  0.8690 -0.1196
 4011SOL    HW222963   2.508   9.421   0.399 -0.4319 -0.2268  0.4594
 4012SOL     OW22964   7.611   1.053   5.328  0.0105 -0.0251  0.4073
 4012SOL    HW122965   7.594   1.151   5.336 -0.2529 -0.0947  0.7300
 4012SOL    HW222966   7.686   1.027   5.389  0.5836  0.1036 -0.2399
 4013SOL     OW22967   7.525   7.948   1.265 -0.5866  0.1952  0.5671
 4013SOL    HW122968   7.458   7.904   1.325  0.8366 -1.7646  0.7769
 4013SOL    HW222969   7.617   7.936   1.304  0.2661 -0.3232 -1.5154
 4014SOL     OW22970   2.253   3.242   4.724 -0.3277  0.2990 -0.1553
 4014SOL    HW122971   2.341   3.273   4.761 -0.7243  0.6979  0.4750
 4014SOL    HW222972   2.264   3.152   4.683  0.0982 -0.2268  1.0824
 4015SOL     OW22973   0.114   7.178   4.973 -0.1057 -0.2414 -0.2397
 4015SOL    HW122974   0.170   7.262   4.980 -1.2079  0.2966  2.8822
 4015SOL    HW222975   0.022   7.202   4.944 -0.6760 -0.2313  1.5315
 4016SOL     OW22976   1.699   7.073   1.117  0.2478  0.2619  0.2988
 4016SOL    HW122977   1.765   7.108   1.049 -2.0798 -1.0230 -2.7452
 4016SOL    HW222978   1.624   7.138   1.126  0.3576  0.2358  1.3674
 4017SOL     OW22979   5.519   9.977   1.181 -0.5579  0.7562  0.5473
 4017SOL    HW122980   5.614   9.966   1.209 -0.5346  4.0731  2.0419
 4017SOL    HW222981   5.461   9.982   1.262 -2.3626 -3.3681 -0.3758
 4018SOL     OW22982   6.149   0.448   3.883 -0.2925  0.3357 -0.5241
 4018SOL    HW122983   6.154   0.411   3.975 -0.8931  0.4993 -0.4225
 4018SOL    HW222984   6.143   0.373   3.817 -1.9121  0.2393 -0.2940
 4019SOL     OW22985   6.495   8.449   1.582 -0.6162  0.4924 -0.1830
 4019SOL    HW122986   6.505   8.538   1.537 -0.7892  0.8841  0.5412
 4019SOL    HW222987   6.402   8.441   1.618 -1.0060 -0.5326 -1.4002
 4020SOL     OW22988   8.338   7.846   3.978 -0.4094 -0.3520 -0.4927
 4020SOL    HW122989   8.251   7.825   4.023 -0.8367  0.4816 -0.9275
 4020SOL    HW222990   8.375   7.762   3.938 -0.9840 -0.7267 -0.2470
 4021SOL     OW22991   0.235   6.590   3.596 -0.5127 -0.5734  0.1444
 4021SOL    HW122992   0.164   6.567   3.529 -1.5375  2.9025 -0.0482
 4021SOL    HW222993   0.193   6.608   3.685  0.1371  0.8764  0.1817
 4022SOL     OW22994   0.766   9.584   5.473  0.5895 -0.1709  0.1952
 4022SOL    HW122995   0.701   9.547   5.406 -1.0731  0.0537  1.6395
 4022SOL    HW222996   0.766   9.525   5.554  3.3439 -1.0175 -0.3637
 4023SOL     OW22997   5.589   8.330   2.961 -0.1656  0.0739 -0.7140
 4023SOL    HW122998   5.621   8.388   3.036 -2.6105  0.0584  0.3669
 4023SOL    HW222999   5.633   8.241   2.967  0.4622  0.4293  0.0836
 4024SOL     OW23000   2.563   1.500   4.998 -0.5174 -0.2774 -0.0537
 4024SOL    HW123001   2.606   1.423   4.952 -1.9801 -1.1650  0.0202
 4024SOL    HW223002   2.518   1.468   5.082  0.3666  0.9646  0.9244
 4025SOL     OW23003   3.615   2.226   1.922 -0.6072  0.6400  0.3508
 4025SOL    HW123004   3.561   2.162   1.977 -0.0292 -0.2543 -0.1119
 4025SOL    HW223005   3.605   2.204   1.825 -0.4990  1.3226  0.1834
 4026SOL     OW23006   7.686   9.963   2.901 -0.3717 -0.5964 -0.1665
 4026SOL    HW123007   7.696  10.032   2.972  1.4018 -0.5443 -0.4524
 4026SOL    HW223008   7.592   9.926   2.903 -1.3731  1.8888 -0.1201
 4027SOL     OW23009   9.400   3.274   5.495  0.0223 -0.4481 -0.2020
 4027SOL    HW123010   9.306   3.305   5.483  0.5033  1.1552  0.0249
 4027SOL    HW223011   9.409   3.226   5.582  0.2287  2.7762  1.6255
 4028SOL     OW23012   0.175   8.466   5.412 -0.1952  0.7043 -0.6007
 4028SOL    HW123013   0.091   8.440   5.459 -0.3586  0.7295 -0.8794
 4028SOL    HW223014   0.247   8.400   5.433 -0.3529  0.5459 -0.5583
 4029SOL     OW23015   2.177   3.815   1.554  0.1975  0.0613  0.1813
 4029SOL    HW123016   2.167   3.726   1.599 -0.7692  0.3537  0.5626
 4029SOL    HW223017   2.107   3.877   1.588  1.0332  1.0515  0.0966
 4030SOL     OW23018   7.308   1.450   2.532 -0.5580 -0.6830  0.0155
 4030SOL    HW123019   7.395   1.485   2.497 -1.3915  0.9903 -0.4358
 4030SOL    HW223020   7.280   1.370   2.478 -1.2426  1.1567 -2.4026
 4031SOL     OW23021   1.323   6.709   4.962 -0.5717 -0.1357  0.2257
 4031SOL    HW123022   1.238   6.676   4.920  0.5750 -1.7212 -0.8867
 4031SOL    HW223023   1.347   6.652   5.040  0.9232 -1.4037 -1.1375
 4032SOL     OW23024   7.664   1.064   3.928 -0.1258  0.3789 -0.1792
 4032SOL    HW123025   7.682   1.160   3.950  0.8144  0.9317 -3.0984
 4032SOL    HW223026   7.722   1.005   3.985  0.2206  1.5766  0.7383
 4033SOL     OW23027   3.349   8.086   2.538 -0.2619 -0.0974  0.2694
 4033SOL    HW123028   3.330   7.994   2.570  0.7357  0.4881  2.6334
 4033SOL    HW223029   3.367   8.146   2.616  1.0003  1.6537 -1.3196
 4034SOL     OW23030   2.193   8.967   0.881 -0.1585  0.0633 -0.0281
 4034SOL    HW123031   2.102   8.934   0.852 -0.3753  0.3166  0.3656
 4034SOL    HW223032   2.193   9.067   0.883  0.0685  0.0597  0.1732
 4035SOL     OW23033   9.471   2.080   5.501  0.6073  0.1113  0.3291
 4035SOL    HW123034   9.404   2.012   5.472  0.8897  0.5810 -1.5006
 4035SOL    HW223035   9.428   2.170   5.505 -0.0919 -0.2936  3.9639
 4036SOL     OW23036   3.426   1.605   2.698 -0.0437  0.1053  0.6767
 4036SOL    HW123037   3.481   1.525   2.677  0.6638  0.6315  0.5105
 4036SOL    HW223038   3.329   1.585   2.681  0.3418  0.0222 -1.6411
 4037SOL     OW23039   6.892   4.118   5.364 -0.1804 -0.5673  0.1935
 4037SOL    HW123040   6.949   4.081   5.437 -0.1570  0.2475  0.5916
 4037SOL    HW223041   6.945   4.119   5.279  0.4519  0.3187  0.5934
 4038SOL     OW23042   9.888   2.563   1.163 -0.3094  0.1928  0.4833
 4038SOL    HW123043   9.806   2.528   1.208 -0.7289  0.3505 -0.1490
 4038SOL    HW223044   9.964   2.499   1.178 -0.7002 -0.2564  0.5595
 4039SOL     OW23045   0.728   6.951   5.328  0.1259 -0.3356  0.5428
 4039SOL    HW123046   0.679   6.954   5.241 -0.7890 -0.1287  1.0565
 4039SOL    HW223047   0.823   6.978   5.313 -0.2700  0.6812 -0.2297
 4040SOL     OW23048   1.965   1.315   1.279 -0.1517  0.1814  0.4444
 4040SOL    HW123049   1.957   1.353   1.187  1.3125  0.4247  0.4003
 4040SOL    HW223050   1.909   1.367   1.342  0.6852  1.5141  0.1126
 4041SOL     OW23051   3.710   6.060   1.436  0.4642  0.1541 -0.0545
 4041SOL    HW123052   3.637   6.099   1.492  2.3076  1.6753  1.3432
 4041SOL    HW223053   3.726   6.120   1.357 -0.0670 -0.4073 -0.5979
 4042SOL     OW23054   7.260   9.931   4.542  0.2947 -0.1356 -0.1293
 4042SOL    HW123055   7.352   9.895   4.558  1.0393  1.5755 -0.3915
 4042SOL    HW223056   7.196   9.892   4.608  1.1410 -1.6009 -0.1670
 4043SOL     OW23057   0.603   9.784   3.750  0.7085  0.2560 -0.0997
 4043SOL    HW123058   0.642   9.778   3.658  0.9835 -0.5581  0.0693
 4043SOL    HW223059   0.584   9.880   3.772 -1.3136  0.2946 -1.8327
 4044SOL     OW23060   2.842   0.045   1.484  0.4253 -0.5585 -0.1168
 4044SOL    HW123061   2.810   0.126   1.435  0.5438 -0.0666  0.6120
 4044SOL    HW223062   2.899  -0.010   1.423 -0.6331 -0.7103 -0.9808
 4045SOL     OW23063   3.390   5.850   2.207 -0.1893 -0.4835 -0.2447
 4045SOL    HW123064   3.461   5.780   2.206  1.2762  0.9567 -0.5505
 4045SOL    HW223065   3.373   5.879   2.302  0.6212  0.1018 -0.2633
 4046SOL     OW23066   4.543   3.115   3.399 -0.1847 -0.0011 -0.6391
 4046SOL    HW123067   4.518   3.120   3.302  0.3932 -0.2202 -0.8013
 4046SOL    HW223068   4.614   3.045   3.411  1.9644  2.1294 -0.5156
 4047SOL     OW23069   1.183   3.329   1.425 -0.4861 -0.1311  0.2307
 4047SOL    HW123070   1.274   3.333   1.382 -1.1862 -0.5031 -1.3457
 4047SOL    HW223071   1.147   3.421   1.434  0.4134  0.0935  1.6992
 4048SOL     OW23072   8.112   5.162   1.203 -0.2050 -0.2906 -0.3939
 4048SOL    HW123073   8.176   5.183   1.277  0.7212 -2.6763 -0.4867
 4048SOL    HW223074   8.051   5.088   1.231 -0.8330 -0.2073 -1.4976
 4049SOL     OW23075   2.250   7.244   1.480  0.2596 -0.0264 -0.5801
 4049SOL    HW123076   2.261   7.243   1.580 -1.9726  1.3788 -0.2957
 4049SOL    HW223077   2.264   7.337   1.446  1.5368 -0.6040 -1.6620
 4050SOL     OW23078   1.580   5.333   0.802 -0.2033 -0.4796 -0.1184
 4050SOL    HW123079   1.566   5.400   0.729  1.5153 -1.2556 -1.1838
 4050SOL    HW223080   1.666   5.352   0.849 -1.8054  0.6903  2.5019
 4051SOL     OW23081   6.002   0.902   3.818 -0.0039  0.4708  0.6273
 4051SOL    HW123082   5.914   0.908   3.771  0.8623  0.8567 -0.9685
 4051SOL    HW223083   6.051   0.989   3.808  0.6404  0.2016  1.3676
 4052SOL     OW23084   7.054   3.593   5.533  0.1080 -0.6959  0.2963
 4052SOL    HW123085   7.065   3.660   5.607 -0.7356  0.0956 -0.2774
 4052SOL    HW223086   6.998   3.633   5.460  0.1235 -1.8114 -0.3410
 4053SOL     OW23087   8.418   3.706   3.700  0.0733  0.1291  0.1200
 4053SOL    HW123088   8.506   3.675   3.736 -0.0061 -0.1210  0.1013
 4053SOL    HW223089   8.352   3.632   3.705 -0.1453  0.3263  0.1588
 4054SOL     OW23090   9.674   4.528   0.995 -0.7381 -0.1770  0.4289
 4054SOL    HW123091   9.706   4.485   0.911 -1.7708  0.5806 -0.3676
 4054SOL    HW223092   9.589   4.486   1.025 -0.6732 -0.0638  0.7864
 4055SOL     OW23093   2.374   4.603   3.560  0.0485 -0.4737 -0.6336
 4055SOL    HW123094   2.415   4.653   3.484  0.2303 -0.6135 -0.6280
 4055SOL    HW223095   2.285   4.567   3.533  0.7319 -1.7251 -1.2349
 4056SOL     OW23096   7.732   1.265   4.785  0.3444 -0.0066 -0.6468
 4056SOL    HW123097   7.706   1.227   4.874 -1.0082  3.3395  0.4460
 4056SOL    HW223098   7.832   1.275   4.782  0.4507 -0.6415  0.2665
 4057SOL     OW23099   3.313   7.806   2.617  0.4611 -0.0363 -0.2517
 4057SOL    HW123100   3.302   7.768   2.525  0.9790 -1.0046  0.0838
 4057SOL    HW223101   3.390   7.762   2.662  0.2156  0.4528  0.6434
 4058SOL     OW23102   0.815   1.592   0.931 -0.4472  0.4295  0.3578
 4058SOL    HW123103   0.809   1.496   0.903 -2.7720  1.6588 -3.8461
 4058SOL    HW223104   0.911   1.620   0.938  0.2473 -1.6016 -0.7208
 4059SOL     OW23105   9.384   5.797   0.617 -0.0245  0.1041 -0.7449
 4059SOL    HW123106   9.365   5.888   0.654  0.9925 -0.5853  1.5846
 4059SOL    HW223107   9.301   5.742   0.619 -0.0832  0.2150  0.1564
 4060SOL     OW23108   8.739   7.695   5.296  0.1769 -0.3226 -0.1537
 4060SOL    HW123109   8.691   7.752   5.364  0.6747 -0.8180  0.6164
 4060SOL    HW223110   8.820   7.743   5.264  0.3091 -0.3748  0.1045
 4061SOL     OW23111   2.940   0.128   4.717  0.1320  0.3600  0.8209
 4061SOL    HW123112   2.972   0.107   4.625  0.1310  1.0130  0.6697
 4061SOL    HW223113   2.981   0.214   4.747 -1.4704  1.1904  0.6380
 4062SOL     OW23114   4.292   3.247   2.020  0.2894 -0.7872  0.3264
 4062SOL    HW123115   4.209   3.191   2.012  0.2463 -0.5921 -0.7910
 4062SOL    HW223116   4.266   3.342   2.039  0.3030 -0.9004  0.9222
 4063SOL     OW23117   1.864   3.082   4.674  0.2129 -0.1902 -0.0339
 4063SOL    HW123118   1.801   3.048   4.604  2.5531  0.3741 -2.5317
 4063SOL    HW223119   1.938   3.016   4.687 -0.4823 -0.5481  2.3893
 4064SOL     OW23120   1.778   9.209   5.167  0.4660  0.0429  0.0615
 4064SOL    HW123121   1.713   9.284   5.181 -0.2455 -0.7986  1.3714
 4064SOL    HW223122   1.838   9.202   5.246 -0.4755 -1.7485  0.6431
 4065SOL     OW23123   8.030   9.135   5.432  0.4723 -0.5701  0.3503
 4065SOL    HW123124   7.941   9.106   5.396  0.5574  0.3366 -0.6184
 4065SOL    HW223125   8.022   9.156   5.529 -0.6853  0.7518 -0.0074
 4066SOL     OW23126   8.687   9.411   2.426  0.0327  0.0906  0.4638
 4066SOL    HW123127   8.744   9.486   2.457 -0.0014  1.1431 -1.9774
 4066SOL    HW223128   8.591   9.434   2.442 -0.0398  1.0552 -1.2818
 4067SOL     OW23129   2.074   6.302   0.040 -0.5792 -0.7890 -0.5019
 4067SOL    HW123130   2.085   6.313   0.139 -0.4870 -0.9287 -0.4969
 4067SOL    HW223131   1.977   6.309   0.017 -0.4505  0.7842 -0.5926
 4068SOL     OW23132   5.115   0.450   1.677 -0.0677 -0.5104 -0.1807
 4068SOL    HW123133   5.213   0.448   1.660  0.0237  0.5421  0.1297
 4068SOL    HW223134   5.065   0.429   1.593  0.4252 -2.7436  0.0613
 4069SOL     OW23135   9.574   4.386   3.090  0.3386 -0.0006  0.0052
 4069SOL    HW123136   9.642   4.342   3.030  1.2360 -0.7636  1.5381
 4069SOL    HW223137   9.518   4.316   3.133 -1.2751  0.6206 -1.0467
 4070SOL     OW23138   5.735   8.406   3.928  0.3469 -0.0391  0.2746
 4070SOL    HW123139   5.781   8.434   4.011 -0.2129  0.7432  0.3324
 4070SOL    HW223140   5.785   8.331   3.885  2.6908  1.9688 -0.6260
 4071SOL     OW23141   3.033   1.423   4.293 -0.2805 -0.1901 -1.0379
 4071SOL    HW123142   3.028   1.324   4.303 -0.8082 -0.0687 -0.0811
 4071SOL    HW223143   2.942   1.459   4.273 -0.1746  0.1599 -0.8976
 4072SOL     OW23144   3.790   1.324   4.596 -0.0143 -0.0980  0.4372
 4072SOL    HW123145   3.820   1.412   4.559  0.6867 -0.3998  0.2765
 4072SOL    HW223146   3.860   1.289   4.660 -0.8832  0.0794  1.4945
 4073SOL     OW23147   8.570   8.145   1.703  0.0338 -0.2651  0.3211
 4073SOL    HW123148   8.570   8.084   1.623 -0.4391 -0.1211  0.2098
 4073SOL    HW223149   8.648   8.123   1.761  1.4513  0.8429 -1.1003
 4074SOL     OW23150   2.559   5.804   0.005  0.0371  0.3673 -0.2016
 4074SOL    HW123151   2.553   5.704  -0.004 -0.1724  0.3048  0.6040
 4074SOL    HW223152   2.509   5.847  -0.070  2.0321 -0.1170 -1.8482
 4075SOL     OW23153   0.652   7.322   0.951 -1.0365  0.5963  0.6958
 4075SOL    HW123154   0.585   7.378   0.903 -2.5817 -1.8878 -0.1245
 4075SOL    HW223155   0.618   7.228   0.958  2.1132 -0.5762  0.8039
 4076SOL     OW23156   0.789   5.381   2.266  0.2982  0.1622 -0.7050
 4076SOL    HW123157   0.802   5.473   2.302  2.6146 -0.4026 -0.0004
 4076SOL    HW223158   0.812   5.379   2.169  0.0739  0.3555 -0.7630
 4077SOL     OW23159   5.748   8.785   3.140 -0.4370 -0.3224 -0.0079
 4077SOL    HW123160   5.788   8.730   3.213 -0.7495  0.4843  0.7687
 4077SOL    HW223161   5.816   8.851   3.107 -0.1247 -1.0304 -0.8121
 4078SOL     OW23162   8.447   4.457   0.787 -0.0466 -0.0415 -0.0110
 4078SOL    HW123163   8.443   4.463   0.687  0.7272 -0.3304 -0.0664
 4078SOL    HW223164   8.475   4.545   0.825 -0.3174  0.0617 -0.0497
 4079SOL     OW23165   8.093   3.856   3.335  0.4734  0.7262  0.7025
 4079SOL    HW123166   8.073   3.802   3.417  3.3375  0.2388  1.1348
 4079SOL    HW223167   8.121   3.948   3.362 -0.6394  1.2394  0.1474
 4080SOL     OW23168   0.983   5.193   1.936  0.0696  0.0003  0.1736
 4080SOL    HW123169   0.933   5.107   1.945 -0.0675  0.1385  0.7036
 4080SOL    HW223170   0.921   5.270   1.953 -0.4769  0.3136 -2.9212
 4081SOL     OW23171   2.517   8.455   0.895 -0.0122 -0.5912 -0.2119
 4081SOL    HW123172   2.420   8.439   0.878 -0.1130 -0.3797  0.1611
 4081SOL    HW223173   2.560   8.490   0.812 -0.2601 -0.6598 -0.3686
 4082SOL     OW23174   9.682   7.258   4.272  0.3662  0.3745  0.3021
 4082SOL    HW123175   9.668   7.230   4.367  0.7172 -0.0037  0.2456
 4082SOL    HW223176   9.780   7.257   4.251  0.3242  0.9658  0.0895
 4083SOL     OW23177   9.634   2.715   5.164  0.2086  0.2052 -0.4218
 4083SOL    HW123178   9.626   2.625   5.120 -0.9748  0.1561 -0.1256
 4083SOL    HW223179   9.543   2.755   5.174  0.7595  1.6176 -0.9091
 4084SOL     OW23180   0.323   1.817   1.601  0.2547  0.0270 -0.0567
 4084SOL    HW123181   0.410   1.856   1.629  0.5502 -1.5685  1.3532
 4084SOL    HW223182   0.305   1.734   1.654 -2.0012  0.1879 -0.5024
 4085SOL     OW23183   9.572   5.599   0.162 -0.9524  0.7616 -0.2417
 4085SOL    HW123184   9.576   5.629   0.257  2.2451  1.3154 -0.4913
 4085SOL    HW223185   9.617   5.509   0.154 -0.5529  1.0503 -1.3277
 4086SOL     OW23186   0.489   1.405   0.794 -0.2465 -0.5205 -0.4716
 4086SOL    HW123187   0.523   1.312   0.801  0.3471 -0.4071 -1.7001
 4086SOL    HW223188   0.483   1.432   0.697 -1.4200  0.3443 -0.1799
 4087SOL     OW23189   9.026   0.543   3.359  0.1435  0.3773 -0.2142
 4087SOL    HW123190   9.000   0.563   3.265 -1.1877  1.4489  0.3701
 4087SOL    HW223191   9.048   0.628   3.406  1.9036 -0.2526  0.1384
 4088SOL     OW23192   3.406   4.909   4.563 -0.0214  0.7466 -0.2899
 4088SOL    HW123193   3.473   4.965   4.515  1.0099  1.0267  1.4542
 4088SOL    HW223194   3.373   4.957   4.644 -2.5755  0.7432 -1.2775
 4089SOL     OW23195   4.860   0.369   4.660 -0.7034  0.0397 -0.1889
 4089SOL    HW123196   4.842   0.455   4.612 -1.0272 -1.2151 -2.3652
 4089SOL    HW223197   4.878   0.297   4.594 -0.1637 -1.5363  1.6241
 4090SOL     OW23198   1.048   8.065   4.999  0.0250 -0.2517 -0.2223
 4090SOL    HW123199   0.964   8.096   4.954  0.1274  2.0341  1.0990
 4090SOL    HW223200   1.125   8.121   4.969  0.7659 -1.1770 -0.0630
 4091SOL     OW23201   6.994   0.068   0.476 -0.4653  0.3891  0.2956
 4091SOL    HW123202   7.017  -0.029   0.481 -1.3117  0.2749  2.3995
 4091SOL    HW223203   7.048   0.119   0.542 -1.4176  1.0626  0.5779
 4092SOL     OW23204   4.782   3.298   1.615  0.6571  0.4345  0.2883
 4092SOL    HW123205   4.871   3.322   1.654  0.3799  1.5366  0.2539
 4092SOL    HW223206   4.714   3.366   1.642  0.5369  1.4688 -2.4027
 4093SOL     OW23207   0.607   4.823   5.224 -0.3361 -0.2933 -0.0595
 4093SOL    HW123208   0.633   4.739   5.271 -0.5399 -0.6657 -0.5979
 4093SOL    HW223209   0.520   4.855   5.260 -0.7654 -0.8801 -0.5552
 4094SOL     OW23210   2.725   8.698   3.426  0.5859 -0.0080  0.0647
 4094SOL    HW123211   2.673   8.783   3.422  2.6117  1.2148 -0.8667
 4094SOL    HW223212   2.677   8.628   3.373 -0.7108  0.7717  0.1941
 4095SOL     OW23213   9.208   8.607   2.337 -0.0084 -0.0910  0.2521
 4095SOL    HW123214   9.184   8.575   2.245 -0.2740  0.2140  0.2161
 4095SOL    HW223215   9.129   8.598   2.397 -0.0110  0.2781  0.3031
 4096SOL     OW23216   7.615   0.281   1.876  0.0105 -0.0872 -0.3046
 4096SOL    HW123217   7.693   0.330   1.915 -1.0424  0.2593  1.3796
 4096SOL    HW223218   7.558   0.346   1.825  1.3313 -0.5218 -2.4399
 4097SOL     OW23219   1.481   7.621   2.804  0.7039  0.4807 -0.7986
 4097SOL    HW123220   1.564   7.608   2.858  0.5465  3.1953  0.1560
 4097SOL    HW223221   1.501   7.604   2.707  2.0501 -0.1341 -0.4216
 4098SOL     OW23222   4.365   9.974   5.276  0.5334  0.4814  0.1057
 4098SOL    HW123223   4.419   9.945   5.355 -1.1561  0.1923  1.1587
 4098SOL    HW223224   4.415   9.953   5.192  1.9177 -0.0767  1.0570
 4099SOL     OW23225   7.800   6.473   3.994 -0.7838  0.5363 -0.5681
 4099SOL    HW123226   7.713   6.432   4.025 -0.1438 -0.6313 -0.2638
 4099SOL    HW223227   7.785   6.522   3.909 -1.8046  0.5753 -0.3771
 4100SOL     OW23228   7.896   2.978   1.989  0.2902 -0.0628 -0.3874
 4100SOL    HW123229   7.812   2.970   2.043 -0.7637  2.8607 -1.5297
 4100SOL    HW223230   7.958   3.042   2.033  0.2949  0.7494 -1.5570
 4101SOL     OW23231   8.988   7.863   5.291 -0.4559 -0.1014 -0.1477
 4101SOL    HW123232   9.067   7.807   5.266 -0.1724 -0.0309  0.5986
 4101SOL    HW223233   8.960   7.917   5.211  2.8864  3.0771  0.6472
 4102SOL     OW23234   3.116   5.687   4.344 -0.2560 -0.2136  0.6037
 4102SOL    HW123235   3.160   5.642   4.267  1.8950  0.6780  1.2786
 4102SOL    HW223236   3.084   5.618   4.410  1.2523 -0.8344  0.7003
 4103SOL     OW23237   9.035   5.618   1.744 -0.3146 -0.7657 -0.0454
 4103SOL    HW123238   8.989   5.639   1.657  0.7345  1.0421 -0.1943
 4103SOL    HW223239   8.987   5.664   1.818  1.3953  1.4177 -0.2426
 4104SOL     OW23240   0.588   4.381   0.281 -0.2928 -0.1099  0.0524
 4104SOL    HW123241   0.527   4.331   0.219 -0.5381  1.1011 -0.7031
 4104SOL    HW223242   0.610   4.470   0.241  0.7666  0.0728  1.0193
 4105SOL     OW23243   8.790   1.158   4.034  0.3356 -0.7997 -0.0373
 4105SOL    HW123244   8.742   1.163   3.946 -0.2425 -0.9942  0.2691
 4105SOL    HW223245   8.740   1.097   4.096  0.0388  0.3628  0.8766
 4106SOL     OW23246   9.755   7.965   4.260 -0.2422 -0.1862 -0.0767
 4106SOL    HW123247   9.808   8.011   4.189 -0.1950 -0.1371 -0.0104
 4106SOL    HW223248   9.658   7.984   4.247 -0.1162  1.2057  0.8496
 4107SOL     OW23249   7.928   9.031   1.992  0.8528  0.1694  0.0045
 4107SOL    HW123250   7.928   9.075   2.082  2.1423  0.7924 -0.2864
 4107SOL    HW223251   7.981   8.947   1.997  1.6990  0.6711 -0.3837
 4108SOL     OW23252   3.263   7.387   3.920 -0.2633  0.0753  0.0282
 4108SOL    HW123253   3.302   7.324   3.853  0.9888  0.2176  0.6058
 4108SOL    HW223254   3.190   7.440   3.877 -2.6680 -3.0955  0.0575
 4109SOL     OW23255   3.307   9.243   2.615 -0.0900 -0.1510 -0.8826
 4109SOL    HW123256   3.214   9.228   2.649  0.5395  0.2946  1.1293
 4109SOL    HW223257   3.305   9.310   2.541 -1.0738  1.9391  0.9814
 4110SOL     OW23258   7.401   1.681   2.293  0.1844  0.2158 -0.4658
 4110SOL    HW123259   7.337   1.756   2.312 -1.0229 -0.2343 -2.6158
 4110SOL    HW223260   7.394   1.656   2.197  2.6776 -0.7387 -0.4052
 4111SOL     OW23261   4.979   6.787   3.183 -0.7025 -0.0590 -0.6677
 4111SOL    HW123262   4.929   6.873   3.192  1.7586  1.1249  2.9994
 4111SOL    HW223263   4.953   6.724   3.256  2.5979  0.3949  1.0299
 4112SOL     OW23264   1.790   6.156   3.600  0.3634 -0.0240  0.1883
 4112SOL    HW123265   1.728   6.220   3.557  0.4218 -1.3310 -1.8946
 4112SOL    HW223266   1.753   6.127   3.688 -1.2380  0.3457 -0.3642
 4113SOL     OW23267   9.927   5.262   0.956  0.0565  0.5014  0.0636
 4113SOL    HW123268   9.951   5.311   1.040  1.7458  1.7462 -1.1080
 4113SOL    HW223269   9.962   5.168   0.960  2.1922  1.2575 -0.1744
 4114SOL     OW23270   1.998   6.135   2.593  0.4492  0.5233  0.4580
 4114SOL    HW123271   2.032   6.218   2.549  2.3442  1.0179  2.7590
 4114SOL    HW223272   1.904   6.148   2.622 -0.4871  0.5461 -2.4363
 4115SOL     OW23273   2.686   6.395   2.297  0.3328  0.6405  0.0087
 4115SOL    HW123274   2.654   6.457   2.225 -2.5704 -0.5352  0.2112
 4115SOL    HW223275   2.699   6.446   2.382  0.3668  1.3932 -0.4419
 4116SOL     OW23276   8.604   2.397   5.177 -0.5138  0.2633 -0.6559
 4116SOL    HW123277   8.513   2.428   5.205 -0.3827  0.5182 -0.5070
 4116SOL    HW223278   8.646   2.465   5.118 -0.4868  0.0683 -0.8616
 4117SOL     OW23279   0.731   6.263   3.451 -0.7460  0.0680 -0.5008
 4117SOL    HW123280   0.655   6.200   3.439  0.4542 -1.9946  2.1574
 4117SOL    HW223281   0.817   6.218   3.426  0.0099  0.9883  0.3615
 4118SOL     OW23282   8.223   1.339   5.427  0.1490  1.0650 -0.3171
 4118SOL    HW123283   8.203   1.310   5.333 -0.0972  1.8987 -0.5285
 4118SOL    HW223284   8.319   1.319   5.448 -0.3622 -1.1390  0.0178
 4119SOL     OW23285   0.931   4.652   0.085  0.3663 -0.5628 -0.1756
 4119SOL    HW123286   1.029   4.669   0.075  0.1273  0.8472 -0.2752
 4119SOL    HW223287   0.887   4.657  -0.005  0.0506 -0.1067 -0.0006
 4120SOL     OW23288   5.259   1.351   2.523 -0.0050 -0.1845 -0.6752
 4120SOL    HW123289   5.293   1.445   2.521  2.2550 -0.9497  0.4276
 4120SOL    HW223290   5.218   1.328   2.434  0.7592  1.3524 -1.4279
 4121SOL     OW23291   4.450   9.770   3.416 -0.2123  0.1110  0.3334
 4121SOL    HW123292   4.405   9.799   3.332  0.8111  0.9340  0.0621
 4121SOL    HW223293   4.402   9.691   3.454 -2.0436  1.1246  0.1826
 4122SOL     OW23294   0.052   2.014   3.671  0.4693 -0.1125 -1.0660
 4122SOL    HW123295   0.003   2.003   3.758  0.6710 -1.2746 -1.0814
 4122SOL    HW223296   0.150   2.003   3.687  0.6361  1.1457 -1.2097
 4123SOL     OW23297   3.070   2.817   5.550  0.4632  0.3296  0.6273
 4123SOL    HW123298   3.096   2.911   5.573 -0.8065  0.3949  1.8348
 4123SOL    HW223299   3.115   2.754   5.613  0.7399  0.1580  0.2672
 4124SOL     OW23300   0.080   8.157   0.264 -0.1957  0.3871  0.9407
 4124SOL    HW123301  -0.016   8.188   0.263 -0.1781  0.4610  1.3837
 4124SOL    HW223302   0.127   8.193   0.184 -1.1449 -1.6197 -0.5628
 4125SOL     OW23303   0.603   5.061   2.052 -0.2012  0.0335  0.4716
 4125SOL    HW123304   0.598   5.019   2.143 -1.4256 -2.1485 -0.5551
 4125SOL    HW223305   0.549   5.145   2.051 -2.3423 -1.3013  1.0657
 4126SOL     OW23306   9.513   3.253   1.951  0.0313 -0.0667 -0.6750
 4126SOL    HW123307   9.527   3.314   1.872  0.2251  0.9308  0.1166
 4126SOL    HW223308   9.583   3.182   1.951 -0.8768 -1.0063 -2.2603
 4127SOL     OW23309   0.483   0.560   1.758 -0.2891 -0.1365  0.4339
 4127SOL    HW123310   0.563   0.579   1.701 -1.3859 -2.6806 -2.0445
 4127SOL    HW223311   0.513   0.516   1.843  1.1200  0.9040  0.4871
 4128SOL     OW23312   0.339   7.028   3.463 -0.5340 -0.5222 -0.0647
 4128SOL    HW123313   0.372   7.029   3.557  0.2048 -1.7012 -0.3124
 4128SOL    HW223314   0.242   7.006   3.462 -0.2640 -1.7619  0.3404
 4129SOL     OW23315   9.659   8.317   2.742  0.5578 -0.1925 -0.5080
 4129SOL    HW123316   9.678   8.415   2.750 -0.0527 -0.0715 -0.5161
 4129SOL    HW223317   9.743   8.268   2.720  0.5559  0.5228 -2.1529
 4130SOL     OW23318   9.665   2.525   2.441 -0.2056  0.0699 -0.1733
 4130SOL    HW123319   9.608   2.459   2.489 -0.1136 -0.8945 -1.3721
 4130SOL    HW223320   9.760   2.495   2.442  0.0761  0.9505  0.5747
 4131SOL     OW23321   9.514   8.825   5.117  0.5629  0.3706 -0.4331
 4131SOL    HW123322   9.431   8.865   5.078 -0.2533  1.2905  2.1689
 4131SOL    HW223323   9.528   8.734   5.079 -1.7525  0.1207 -0.7482
 4132SOL     OW23324   3.844   2.138   1.697  0.2357 -0.2481 -0.2655
 4132SOL    HW123325   3.860   2.096   1.786  1.6220  1.2837  0.2445
 4132SOL    HW223326   3.900   2.093   1.628  0.9851  0.1206  0.0951
 4133SOL     OW23327   2.708   8.871   2.085  0.0837 -0.4861  0.4532
 4133SOL    HW123328   2.773   8.884   2.010 -1.4428 -1.8415 -1.1640
 4133SOL    HW223329   2.755   8.883   2.172  2.2325 -0.2607 -0.6878
 4134SOL     OW23330   9.241   4.985   2.240  0.5185 -0.1635 -0.5503
 4134SOL    HW123331   9.183   4.937   2.305 -1.9295  2.2388 -0.8662
 4134SOL    HW223332   9.303   5.046   2.290  1.6882 -1.5344 -0.2945
 4135SOL     OW23333   3.440   1.583   1.403  0.4703  0.1838  0.5867
 4135SOL    HW123334   3.497   1.634   1.468  1.0328 -1.3639  1.3379
 4135SOL    HW223335   3.477   1.491   1.392  0.0073  0.2229 -1.4708
 4136SOL     OW23336   9.760   4.728   5.358  0.2342 -0.0041  0.5560
 4136SOL    HW123337   9.852   4.705   5.391  0.7107 -1.6625 -1.8044
 4136SOL    HW223338   9.754   4.707   5.261 -2.4399  0.7941  0.5327
 4137SOL     OW23339   2.110   6.581   0.935  0.0697 -0.0786 -0.1403
 4137SOL    HW123340   2.055   6.498   0.929 -1.9808  1.2702 -0.6587
 4137SOL    HW223341   2.139   6.609   0.844  1.3540 -0.6131  0.1029
 4138SOL     OW23342   4.867   9.522   4.081  0.2247  0.3364  0.6526
 4138SOL    HW123343   4.929   9.479   4.015  0.1535 -0.8224  1.3295
 4138SOL    HW223344   4.846   9.615   4.051  0.5058 -0.0413 -0.7571
 4139SOL     OW23345   3.923   8.506   3.833 -0.1723 -0.3385 -0.3530
 4139SOL    HW123346   3.957   8.573   3.899 -1.6127  0.8568 -0.8033
 4139SOL    HW223347   3.969   8.418   3.849  0.7002  0.3609  1.1609
 4140SOL     OW23348   3.620   9.179   5.263 -0.3967  0.6688  0.2891
 4140SOL    HW123349   3.540   9.172   5.203  0.8966 -2.1892 -1.1913
 4140SOL    HW223350   3.651   9.087   5.288  2.0256  1.7546  1.3917
 4141SOL     OW23351   6.099   7.293   2.150 -0.4073 -0.3155 -0.7408
 4141SOL    HW123352   6.040   7.288   2.231 -0.8469 -1.8130 -1.1456
 4141SOL    HW223353   6.042   7.308   2.069 -0.1036 -0.3185 -0.9531
 4142SOL     OW23354   0.453   2.910   3.053  0.4236  0.4379  0.2020
 4142SOL    HW123355   0.419   2.929   3.145  2.8721  1.0329  1.0229
 4142SOL    HW223356   0.552   2.924   3.051  0.7385 -1.8750 -1.9314
 4143SOL     OW23357   0.903   2.364   2.383  0.0680 -0.5333  0.1963
 4143SOL    HW123358   0.929   2.267   2.385 -0.4860 -0.6781  0.6592
 4143SOL    HW223359   0.928   2.407   2.470  1.7310  0.1252 -0.5960
 4144SOL     OW23360   6.512   8.570   4.063  0.3042 -0.0641 -0.1483
 4144SOL    HW123361   6.432   8.619   4.029 -0.7596 -0.9988  0.9522
 4144SOL    HW223362   6.546   8.614   4.146  0.9694  0.3620 -0.6421
 4145SOL     OW23363   2.118   5.724   3.059 -0.0235  0.1737 -0.4169
 4145SOL    HW123364   2.207   5.747   3.021  0.3432 -0.5469 -0.0152
 4145SOL    HW223365   2.054   5.705   2.985  0.9213 -2.0929 -0.6951
 4146SOL     OW23366   2.013   3.382   5.139  0.4276  0.0498 -0.7036
 4146SOL    HW123367   1.948   3.353   5.209 -0.2982  2.2829 -0.4054
 4146SOL    HW223368   1.967   3.384   5.050  0.6551 -0.3360 -0.8303
 4147SOL     OW23369   2.164   8.395   2.242 -0.1852 -0.4662  0.4279
 4147SOL    HW123370   2.163   8.313   2.300  1.4686 -1.5982 -1.0982
 4147SOL    HW223371   2.100   8.382   2.166 -0.5331  0.0112  0.6362
 4148SOL     OW23372   9.969   4.340   5.428  0.3986 -0.7518 -0.0854
 4148SOL    HW123373  10.023   4.285   5.492 -0.4704 -0.2826  1.0604
 4148SOL    HW223374  10.026   4.362   5.348  1.7126 -0.7863  0.8156
 4149SOL     OW23375   9.395   2.058   1.108 -0.0930 -0.0250 -0.3706
 4149SOL    HW123376   9.321   2.113   1.147  0.7995  0.4368  0.6981
 4149SOL    HW223377   9.427   1.992   1.176  0.0308 -0.6810 -1.0564
 4150SOL     OW23378   0.863   3.753   5.538  0.3705 -0.0032 -0.1344
 4150SOL    HW123379   0.868   3.696   5.620 -2.4880 -0.0097  0.0979
 4150SOL    HW223380   0.865   3.849   5.563 -0.5182 -0.0052 -0.0189
 4151SOL     OW23381   2.461   3.262   4.911 -0.6865 -0.0380  0.4037
 4151SOL    HW123382   2.495   3.356   4.918  1.1363 -0.6866  0.4411
 4151SOL    HW223383   2.538   3.198   4.911 -1.9648 -1.6962  2.9086
 4152SOL     OW23384   4.865   8.032   5.549 -0.4721 -0.9358  0.3929
 4152SOL    HW123385   4.871   8.038   5.649  0.6294  0.6186  0.2429
 4152SOL    HW223386   4.774   8.062   5.520 -0.1741  0.3816  0.7994
 4153SOL     OW23387   1.853   1.663   2.515  0.0507  0.5070 -0.3340
 4153SOL    HW123388   1.830   1.615   2.599  0.9051  1.2306  0.3215
 4153SOL    HW223389   1.895   1.751   2.537 -0.2368  0.9592 -1.5165
 4154SOL     OW23390   6.812   0.397   2.211 -0.0146  0.1493  0.4496
 4154SOL    HW123391   6.792   0.368   2.304  1.9218  0.1346  0.8913
 4154SOL    HW223392   6.783   0.327   2.146 -0.3716 -0.3207  1.1174
 4155SOL     OW23393   8.092   0.332   3.121 -0.8935 -0.1767 -0.0871
 4155SOL    HW123394   8.076   0.268   3.046 -1.4401  0.1430 -0.2422
 4155SOL    HW223395   8.041   0.417   3.104  0.2717  0.5233 -0.1787
 4156SOL     OW23396   0.995   3.302   1.207  0.4759 -0.3341 -0.6692
 4156SOL    HW123397   1.040   3.318   1.295  0.1314 -0.0691 -0.5407
 4156SOL    HW223398   0.989   3.204   1.190 -1.7289 -0.4888  0.8015
 4157SOL     OW23399   0.750   3.187   4.187  0.0251 -0.3834 -0.1026
 4157SOL    HW123400   0.799   3.158   4.270  0.8522  0.3700 -0.3324
 4157SOL    HW223401   0.687   3.114   4.159 -1.0359 -0.2377  1.7811
 4158SOL     OW23402   1.610   9.439   5.153 -0.6612 -0.0668 -1.1022
 4158SOL    HW123403   1.539   9.419   5.085 -0.4652 -0.5315 -1.1744
 4158SOL    HW223404   1.621   9.538   5.162 -0.8854 -0.0010 -1.5427
 4159SOL     OW23405   0.029   7.580   2.647  0.2912  0.0933  0.3608
 4159SOL    HW123406   0.010   7.626   2.734  2.3192  0.5200  0.6111
 4159SOL    HW223407   0.028   7.481   2.661  1.0423  0.1678  0.9709
 4160SOL     OW23408   2.425   9.346   1.406  0.1375  0.2261  0.2637
 4160SOL    HW123409   2.514   9.364   1.365  1.0298 -1.5114  1.3584
 4160SOL    HW223410   2.395   9.254   1.380 -1.7993  1.1407 -0.8723
 4161SOL     OW23411   0.589   3.223   5.257 -0.0646 -0.0368 -0.2380
 4161SOL    HW123412   0.517   3.166   5.217 -0.5774  0.1053  0.4645
 4161SOL    HW223413   0.626   3.178   5.339  1.6126 -0.7529 -1.3669
 4162SOL     OW23414   9.110   4.375   4.045 -0.0246 -0.2650 -0.3645
 4162SOL    HW123415   9.019   4.362   4.004 -1.3652  1.2617  1.9884
 4162SOL    HW223416   9.132   4.473   4.045  0.9012 -0.4734  0.5663
 4163SOL     OW23417   3.919   9.881   0.783  0.0316  0.5702 -0.1469
 4163SOL    HW123418   3.892   9.927   0.868  0.8778 -0.4068  0.6647
 4163SOL    HW223419   3.993   9.933   0.740  0.3216  0.4968  0.2597
 4164SOL     OW23420   6.086   8.198   3.324 -0.0384  0.4445 -0.3169
 4164SOL    HW123421   6.150   8.144   3.269  1.3078  0.6436  1.0094
 4164SOL    HW223422   6.137   8.254   3.390 -1.6120  0.0646  1.2740
 4165SOL     OW23423   2.621   4.242   4.543 -0.2076 -0.0985 -0.3810
 4165SOL    HW123424   2.709   4.210   4.508  1.3246  0.4907  2.7388
 4165SOL    HW223425   2.570   4.164   4.579  0.2210 -0.1028  0.2380
 4166SOL     OW23426   2.086   1.845   4.846 -0.4303  0.2216  0.1690
 4166SOL    HW123427   2.162   1.785   4.873  0.3724  0.6537 -1.0845
 4166SOL    HW223428   2.023   1.856   4.923  0.7687 -0.1763  1.2220
 4167SOL     OW23429   3.964   8.411   0.905 -0.1578  0.5185  0.2069
 4167SOL    HW123430   3.908   8.447   0.831  0.0344 -1.4937 -0.9619
 4167SOL    HW223431   3.912   8.412   0.990 -0.8023  1.7303 -0.1912
 4168SOL     OW23432   3.302   9.155   2.974 -0.0640 -0.0530 -0.0421
 4168SOL    HW123433   3.294   9.118   3.067  1.1637 -2.6423 -0.9462
 4168SOL    HW223434   3.220   9.134   2.922 -2.3519  4.5001  1.4342
 4169SOL     OW23435   6.414   9.936   4.649 -0.0809  0.3727 -0.4362
 4169SOL    HW123436   6.492   9.903   4.701 -1.2605 -1.0920  0.4291
 4169SOL    HW223437   6.438  10.022   4.603  1.3337  1.0570  1.5525
 4170SOL     OW23438   7.872   8.560   5.110 -0.1783 -0.5018  0.1873
 4170SOL    HW123439   7.781   8.596   5.089 -0.0306 -0.2934 -0.0969
 4170SOL    HW223440   7.934   8.581   5.035 -0.0702 -1.2776  0.0617
 4171SOL     OW23441   8.273   3.578   4.724  0.0517  0.0976 -0.1581
 4171SOL    HW123442   8.355   3.525   4.744  0.8216  1.6356  0.8190
 4171SOL    HW223443   8.248   3.633   4.804 -0.7694  1.1737 -1.1405
 4172SOL     OW23444   1.772   0.014   4.952  0.1959 -0.1757  0.0364
 4172SOL    HW123445   1.810   0.038   5.041 -4.7248 -0.2485  2.3465
 4172SOL    HW223446   1.746  -0.083   4.952 -0.0993 -0.1061 -1.3705
 4173SOL     OW23447   4.434   1.474   1.720  0.8149 -0.4106 -0.2704
 4173SOL    HW123448   4.425   1.534   1.640 -0.5022  1.0772  0.9676
 4173SOL    HW223449   4.366   1.401   1.715  1.1646 -0.7046 -0.8224
 4174SOL     OW23450   2.301   7.246   4.951 -0.0321 -0.2515 -0.1772
 4174SOL    HW123451   2.283   7.160   4.904  0.6533  0.1689 -1.2239
 4174SOL    HW223452   2.226   7.310   4.935 -1.0779 -1.0133  1.5102
 4175SOL     OW23453   4.650   0.533   5.255  0.2764 -0.4762  0.6351
 4175SOL    HW123454   4.640   0.500   5.161 -1.2697  1.8259 -0.0577
 4175SOL    HW223455   4.706   0.615   5.256 -0.2791 -0.0931  1.6205
 4176SOL     OW23456   7.313   1.513   1.160 -0.3878 -0.0586 -0.1735
 4176SOL    HW123457   7.253   1.433   1.161 -0.2583 -0.1508  0.2118
 4176SOL    HW223458   7.260   1.593   1.132 -0.8512 -0.0211  0.7696
 4177SOL     OW23459   9.663   2.395   1.936  0.1738  0.0765 -0.2905
 4177SOL    HW123460   9.573   2.425   1.968  0.4532  0.4015  0.1881
 4177SOL    HW223461   9.709   2.470   1.889 -1.0064 -0.9145 -3.1753
 4178SOL     OW23462   9.107   5.005   1.908 -1.2244  0.4456 -0.2905
 4178SOL    HW123463   9.055   4.976   1.989 -1.6832 -0.0996 -0.7716
 4178SOL    HW223464   9.203   5.015   1.932 -1.1153 -1.1468 -0.0257
 4179SOL     OW23465   0.987   6.775   2.990 -0.2778 -0.1587  0.1022
 4179SOL    HW123466   0.887   6.774   2.994 -0.3146 -1.0504 -0.7026
 4179SOL    HW223467   1.019   6.699   2.934  0.8660  0.0442  0.4503
 4180SOL     OW23468   2.262   6.640   1.884 -0.2053  0.4724 -0.3375
 4180SOL    HW123469   2.314   6.577   1.941 -2.1267 -3.0248 -2.2793
 4180SOL    HW223470   2.309   6.653   1.797 -1.5370 -1.1148 -1.3131
 4181SOL     OW23471   0.188   9.599   5.066  0.5723  0.4475  0.3639
 4181SOL    HW123472   0.238   9.517   5.037 -0.2471 -0.0279  0.2969
 4181SOL    HW223473   0.176   9.597   5.165  0.1202  0.2431  0.3051
 4182SOL     OW23474   1.750   9.418   1.359  0.3702  0.1443  0.8699
 4182SOL    HW123475   1.775   9.459   1.446  0.8406  0.6667  0.4889
 4182SOL    HW223476   1.824   9.431   1.293 -0.5064  0.8650  0.0132
 4183SOL     OW23477   8.634   2.523   0.620 -0.1400  0.1346  0.4541
 4183SOL    HW123478   8.623   2.611   0.574 -0.0009 -0.2718 -0.3637
 4183SOL    HW223479   8.618   2.534   0.718 -1.3267  0.8366  0.1876
 4184SOL     OW23480   3.357   8.529   2.286  0.0207 -0.1983  0.6208
 4184SOL    HW123481   3.269   8.558   2.322 -0.0656  1.0379 -0.5423
 4184SOL    HW223482   3.431   8.567   2.341 -0.1275  1.0089  0.0047
 4185SOL     OW23483   3.041   9.782   0.025  0.3073  0.0698 -0.3348
 4185SOL    HW123484   3.078   9.874   0.033  0.2841  0.0212  0.3928
 4185SOL    HW223485   3.095   9.729  -0.041  0.9116  0.3081 -0.0301
 4186SOL     OW23486   8.274   7.317   2.120  0.3844  0.6387 -0.0886
 4186SOL    HW123487   8.261   7.412   2.091 -0.7018  0.4904 -0.1159
 4186SOL    HW223488   8.259   7.257   2.042  2.4900  0.5157 -0.4158
 4187SOL     OW23489   9.709   3.169   0.400 -0.9366  0.2411  0.1157
 4187SOL    HW123490   9.784   3.235   0.414 -0.3921 -0.2943 -0.2722
 4187SOL    HW223491   9.637   3.186   0.468 -1.2560  1.8950 -0.6191
 4188SOL     OW23492   0.694   8.309   5.176  0.1789  0.5283 -0.1832
 4188SOL    HW123493   0.623   8.357   5.124  0.7694  2.4691  0.7616
 4188SOL    HW223494   0.781   8.315   5.128 -0.1801 -1.5427 -1.1602
 4189SOL     OW23495   1.253   0.530   0.001  0.3560 -0.9170  0.0585
 4189SOL    HW123496   1.211   0.442   0.024  0.2220 -0.9433 -0.2826
 4189SOL    HW223497   1.208   0.603   0.052  0.1074 -0.9817 -0.0716
 4190SOL     OW23498   0.924   7.504   4.233 -0.1602 -0.3403  0.2235
 4190SOL    HW123499   1.009   7.543   4.198 -0.3063 -1.1148 -1.0608
 4190SOL    HW223500   0.874   7.462   4.157 -0.9182 -1.2988  1.2396
 4191SOL     OW23501   3.440   4.119   0.669 -0.6676  0.1096 -0.8209
 4191SOL    HW123502   3.439   4.025   0.634 -2.5950 -0.3995  0.5091
 4191SOL    HW223503   3.359   4.167   0.637 -0.1986  1.0118 -0.6657
 4192SOL     OW23504   2.421   3.859   0.713  0.8664 -0.3695 -0.0211
 4192SOL    HW123505   2.447   3.928   0.779  0.1123  1.3212 -1.4582
 4192SOL    HW223506   2.342   3.807   0.748 -0.9259  1.9545 -0.4905
 4193SOL     OW23507   0.690   2.185   5.020 -0.2246 -0.4792  0.0799
 4193SOL    HW123508   0.629   2.161   5.095 -0.1912  0.2294  0.3359
 4193SOL    HW223509   0.647   2.255   4.963  0.5949  0.4608  0.6041
 4194SOL     OW23510   8.049   2.259   2.686  0.0324 -0.0085 -0.0008
 4194SOL    HW123511   8.076   2.163   2.685  1.3445  0.3507 -0.2969
 4194SOL    HW223512   7.950   2.266   2.696  0.1405 -1.3454  2.1663
 4195SOL     OW23513   4.521   8.883   2.668  0.0934  0.2791  0.0260
 4195SOL    HW123514   4.546   8.953   2.602  0.8854 -0.7644 -0.8026
 4195SOL    HW223515   4.429   8.902   2.704  0.3754  1.8247 -0.0360
 4196SOL     OW23516   2.124   3.733   5.361 -0.1281 -0.1717 -0.6003
 4196SOL    HW123517   2.136   3.667   5.287 -0.3886 -0.7639 -0.1221
 4196SOL    HW223518   2.094   3.685   5.444  2.6703  0.1149  0.6426
 4197SOL     OW23519   9.617   7.690   2.191 -0.2124 -0.8278 -0.0840
 4197SOL    HW123520   9.578   7.691   2.283 -0.3164 -1.1862 -0.1223
 4197SOL    HW223521   9.684   7.616   2.185 -0.9160 -1.4279 -0.5861
 4198SOL     OW23522   1.317   0.496   0.579 -0.0517 -0.6850  0.5984
 4198SOL    HW123523   1.372   0.533   0.504  0.6458  0.1539  1.5168
 4198SOL    HW223524   1.372   0.433   0.634 -0.7486 -1.8008  0.0425
 4199SOL     OW23525   3.896   2.314   0.889 -0.2185  0.3030  0.4091
 4199SOL    HW123526   3.832   2.291   0.816  0.5825 -0.4363 -0.0614
 4199SOL    HW223527   3.849   2.308   0.977 -1.7680  3.2830 -0.1588
 4200SOL     OW23528   4.361   8.030   5.040  0.2362 -0.1429 -0.1196
 4200SOL    HW123529   4.417   8.087   4.979 -0.0846 -0.5259 -0.7762
 4200SOL    HW223530   4.412   8.010   5.123  0.5002  0.7864 -0.0482
 4201SOL     OW23531   0.394   7.863   2.371 -0.3602  0.2327  0.5277
 4201SOL    HW123532   0.419   7.952   2.410  3.0771 -1.2606  1.9850
 4201SOL    HW223533   0.338   7.812   2.437 -0.3013  0.3746  0.6871
 4202SOL     OW23534   9.621   2.192   1.235 -0.0903  0.1720 -0.5018
 4202SOL    HW123535   9.588   2.157   1.323  0.9087 -0.3841 -0.3427
 4202SOL    HW223536   9.568   2.150   1.161  0.4332 -0.9574 -0.2594
 4203SOL     OW23537   4.496   1.078   1.916  0.3195  0.4577 -0.4457
 4203SOL    HW123538   4.422   1.045   1.858  0.1490  0.7593 -0.3969
 4203SOL    HW223539   4.510   1.014   1.992  1.0122 -0.3148 -1.2030
 4204SOL     OW23540   3.656   8.496   3.891 -0.6373  0.3138  0.5976
 4204SOL    HW123541   3.621   8.402   3.892  0.0369  0.0110 -1.8402
 4204SOL    HW223542   3.750   8.496   3.857 -1.1001  1.9980 -0.7664
 4205SOL     OW23543   2.697   4.158   1.006 -0.7229  0.2933  0.8072
 4205SOL    HW123544   2.772   4.154   0.939 -1.3542 -1.1990  0.1789
 4205SOL    HW223545   2.691   4.251   1.043  0.6143  0.7526 -0.0770
 4206SOL     OW23546   1.990   6.839   1.279  0.4153 -0.4300 -0.5535
 4206SOL    HW123547   2.070   6.899   1.282  0.4355 -0.4399 -0.8626
 4206SOL    HW223548   1.942   6.842   1.366 -0.4574  1.2180 -1.0746
 4207SOL     OW23549   8.319   7.578   2.000  0.4484  0.2628 -0.3486
 4207SOL    HW123550   8.258   7.627   2.062  0.6397  0.9319 -0.6841
 4207SOL    HW223551   8.315   7.620   1.909  0.0410 -0.8130 -0.8379
 4208SOL     OW23552   8.384   1.209   3.935  0.4226 -0.0577  0.6176
 4208SOL    HW123553   8.339   1.298   3.936  0.6456  0.0670 -0.3526
 4208SOL    HW223554   8.334   1.146   3.994  0.4570  0.8004  1.5911
 4209SOL     OW23555   0.683   0.400   2.915  0.1040  0.1560  0.2707
 4209SOL    HW123556   0.698   0.315   2.965  0.1074 -0.8307 -1.3671
 4209SOL    HW223557   0.706   0.386   2.819 -1.2188  1.6257 -0.2751
 4210SOL     OW23558   3.457   7.649   1.427  0.2972 -0.4736  0.6070
 4210SOL    HW123559   3.429   7.744   1.412 -1.1750 -1.1472 -1.1729
 4210SOL    HW223560   3.555   7.640   1.409 -0.3386 -0.1081 -3.6710
 4211SOL     OW23561   3.101   0.057   5.152 -0.0837  0.5587 -0.1781
 4211SOL    HW123562   3.132   0.037   5.059 -0.6229  1.2592 -0.5095
 4211SOL    HW223563   3.006   0.028   5.162 -1.0874  3.4470 -0.8546
 4212SOL     OW23564   3.197   8.460   4.685  0.0970  0.3327  0.0693
 4212SOL    HW123565   3.227   8.410   4.766 -0.1990 -0.6437 -0.4153
 4212SOL    HW223566   3.098   8.470   4.686 -0.1871 -1.8586 -1.3683
 4213SOL     OW23567   9.128   8.567   5.570 -0.2692 -0.3458  0.0370
 4213SOL    HW123568   9.087   8.653   5.599 -1.7232 -1.1297  0.3745
 4213SOL    HW223569   9.056   8.498   5.559  0.9429 -1.6760  0.3506
 4214SOL     OW23570   9.505   2.392   3.717 -0.5959  0.0236  0.5932
 4214SOL    HW123571   9.545   2.340   3.641 -1.3085 -1.3426  1.1302
 4214SOL    HW223572   9.504   2.489   3.694  1.9127 -0.0397  0.0728
 4215SOL     OW23573   1.701   6.557   0.389  0.2567  0.8119 -0.6323
 4215SOL    HW123574   1.721   6.474   0.336  0.6006 -0.0971  0.8971
 4215SOL    HW223575   1.647   6.619   0.333 -2.1015 -1.4653 -1.0162
 4216SOL     OW23576   4.708   3.420   0.820  0.1227 -0.3893  0.1974
 4216SOL    HW123577   4.720   3.445   0.724  0.1125 -0.4139  0.1896
 4216SOL    HW223578   4.685   3.323   0.825  1.6860 -0.7695  0.3218
 4217SOL     OW23579   3.209   8.616   1.173 -0.4266  0.5733  0.2682
 4217SOL    HW123580   3.144   8.673   1.122 -0.7123  0.9240  1.0058
 4217SOL    HW223581   3.191   8.626   1.271 -1.0410 -1.4526  0.3799
 4218SOL     OW23582   0.840   6.367   2.525 -0.3682 -0.0917  0.2564
 4218SOL    HW123583   0.834   6.447   2.466 -0.4687 -1.8334 -2.1501
 4218SOL    HW223584   0.929   6.323   2.512 -0.9959 -1.3598  0.2492
 4219SOL     OW23585   5.204   1.167   2.689  0.3640 -0.1204 -0.0690
 4219SOL    HW123586   5.285   1.162   2.747  0.9055  1.2552 -0.6919
 4219SOL    HW223587   5.215   1.241   2.623 -0.7732 -0.8806 -1.1212
 4220SOL     OW23588   7.771   5.793   2.847 -0.6112 -0.0285  0.5005
 4220SOL    HW123589   7.710   5.847   2.904  0.7555  1.3224  0.7224
 4220SOL    HW223590   7.766   5.825   2.752  0.4601  0.7475  0.6939
 4221SOL     OW23591   1.784   4.634   5.295 -1.1300  0.0390 -0.0591
 4221SOL    HW123592   1.751   4.704   5.232 -1.7342  1.7353  2.0488
 4221SOL    HW223593   1.883   4.628   5.291 -0.9897  1.7620  0.4461
 4222SOL     OW23594   0.031   2.402   2.792 -0.4359  0.4647  0.0647
 4222SOL    HW123595   0.090   2.377   2.868 -1.4753 -0.5574  0.5515
 4222SOL    HW223596   0.025   2.325   2.728 -1.2946  0.5314  0.0572
 4223SOL     OW23597   4.095   3.832   2.908  0.3732  0.0217  0.0515
 4223SOL    HW123598   4.161   3.899   2.874  1.8479 -1.4447  0.0014
 4223SOL    HW223599   4.137   3.741   2.911 -1.7769 -1.0168 -0.4158
 4224SOL     OW23600   3.294   9.659   3.851 -0.4565  0.3825  0.5076
 4224SOL    HW123601   3.295   9.586   3.919  0.3579 -2.1493 -2.0964
 4224SOL    HW223602   3.259   9.622   3.764 -0.3908  3.2031 -0.7676
 4225SOL     OW23603   0.792   8.544   3.490 -0.7185  0.1734 -0.2379
 4225SOL    HW123604   0.823   8.472   3.552  0.7156 -0.1596 -1.3235
 4225SOL    HW223605   0.867   8.608   3.472 -1.7882  1.5761  0.1870
 4226SOL     OW23606   5.842   9.608   3.117  0.2424  0.4236  0.6078
 4226SOL    HW123607   5.801   9.524   3.082  1.6633 -0.3119  0.6824
 4226SOL    HW223608   5.852   9.674   3.043  0.3968  0.0134  0.2646
 4227SOL     OW23609   9.931   6.234   5.385  0.5886 -0.2002  0.3066
 4227SOL    HW123610   9.897   6.175   5.312  1.5667 -0.4582  0.0568
 4227SOL    HW223611   9.866   6.309   5.400 -0.1179 -0.7210 -0.1256
 4228SOL     OW23612   8.078   6.988   5.556  0.2516 -0.4127 -0.0810
 4228SOL    HW123613   8.062   6.890   5.569 -0.4102 -0.3348 -0.2464
 4228SOL    HW223614   8.175   7.009   5.566  0.3987 -1.0954 -0.0987
 4229SOL     OW23615   1.669   9.761   4.070  0.5675  0.0412  0.1760
 4229SOL    HW123616   1.729   9.694   4.114  0.6341  0.4193  0.6634
 4229SOL    HW223617   1.598   9.790   4.134 -0.3777 -0.7053 -0.5369
 4230SOL     OW23618   3.593   7.573   5.493 -0.2587  0.0366 -0.2058
 4230SOL    HW123619   3.613   7.635   5.569  0.0949  0.2223 -0.4466
 4230SOL    HW223620   3.543   7.623   5.422  1.7447  0.5643 -1.2641
 4231SOL     OW23621   9.957   7.952   2.574  0.8221  0.0124 -0.1720
 4231SOL    HW123622  10.003   7.955   2.486  1.2686  0.0840  0.0640
 4231SOL    HW223623   9.886   7.882   2.572 -0.2837  1.1395 -1.1329
 4232SOL     OW23624   0.182   7.954   1.789  0.6956 -0.1085  0.7205
 4232SOL    HW123625   0.230   8.036   1.756 -1.3730  0.9698  0.3265
 4232SOL    HW223626   0.172   7.889   1.714 -0.8856  0.8506  0.0703
 4233SOL     OW23627   1.452   8.448   1.277  0.0754 -0.3422  0.5623
 4233SOL    HW123628   1.458   8.355   1.241 -0.0490  0.4095 -1.4078
 4233SOL    HW223629   1.374   8.495   1.235  1.0901  1.1776  0.3588
 4234SOL     OW23630   9.434   1.125   2.807  0.0318  0.4789 -0.3866
 4234SOL    HW123631   9.518   1.139   2.861  1.5953 -2.1167 -2.0409
 4234SOL    HW223632   9.355   1.159   2.859  1.9397  1.7680  1.7772
 4235SOL     OW23633   9.066   3.525   5.454  0.1547  0.3705 -0.2204
 4235SOL    HW123634   9.163   3.547   5.468  0.8545 -2.0643 -0.9945
 4235SOL    HW223635   9.025   3.497   5.540  0.9654 -1.5702 -0.4377
 4236SOL     OW23636   5.968   0.703   1.947 -0.2695 -0.0673  0.5329
 4236SOL    HW123637   5.914   0.627   1.984 -1.1863  0.9259  1.2908
 4236SOL    HW223638   6.003   0.758   2.023  1.8282 -0.6864  0.0458
 4237SOL     OW23639   2.053   5.559   1.391  0.1333 -1.1274  0.6448
 4237SOL    HW123640   1.962   5.554   1.351  0.0388  2.9276  0.2079
 4237SOL    HW223641   2.121   5.541   1.320 -0.2302 -0.5339  0.1390
 4238SOL     OW23642   1.524   6.211   0.231 -0.1321 -1.0497  0.1849
 4238SOL    HW123643   1.618   6.243   0.225 -0.0912 -1.0796  0.6622
 4238SOL    HW223644   1.517   6.139   0.300 -0.6172 -0.6223  0.5871
 4239SOL     OW23645   8.206   8.533   4.927  0.2337 -0.6645 -0.4983
 4239SOL    HW123646   8.211   8.506   5.024 -1.0735 -0.8248 -0.4671
 4239SOL    HW223647   8.293   8.574   4.900 -0.6329  2.8539  1.7699
 4240SOL     OW23648   9.489   9.319   5.303 -0.0479 -0.0936  0.3485
 4240SOL    HW123649   9.519   9.253   5.235  0.1179 -0.5914  0.8972
 4240SOL    HW223650   9.453   9.400   5.258  0.4198 -0.2608 -0.3265
 4241SOL     OW23651   9.429   8.020   0.612  0.3895  0.4697  0.0295
 4241SOL    HW123652   9.381   8.089   0.666  0.6021  0.2896  0.4493
 4241SOL    HW223653   9.401   8.028   0.516  1.3311  1.9406 -0.1322
 4242SOL     OW23654   1.587   2.314   4.616 -0.0369 -0.3689 -0.1575
 4242SOL    HW123655   1.510   2.253   4.596  1.3618 -2.0650 -0.4753
 4242SOL    HW223656   1.553   2.397   4.661 -2.3759  0.1725 -2.8007
 4243SOL     OW23657   1.968   4.796   5.060 -0.0191  0.1138  0.1803
 4243SOL    HW123658   1.971   4.871   4.994  1.7255  1.2868  1.5520
 4243SOL    HW223659   1.885   4.804   5.115  0.7931  1.7920  1.1753
 4244SOL     OW23660   6.176   0.176   1.428  0.5675 -0.1054 -0.3004
 4244SOL    HW123661   6.128   0.246   1.481  1.7576  1.2428 -0.9414
 4244SOL    HW223662   6.224   0.114   1.490 -0.3519 -0.2399  0.2752
 4245SOL     OW23663   8.947   0.044   4.225  0.4053  0.1091 -0.3373
 4245SOL    HW123664   8.923   0.099   4.305  0.1498  1.9698 -1.6684
 4245SOL    HW223665   9.029  -0.010   4.244 -0.5193 -0.6422  1.6880
 4246SOL     OW23666   1.199   0.392   2.949 -0.0001  0.1463  0.4917
 4246SOL    HW123667   1.161   0.379   2.857  0.2459 -0.2508  0.4425
 4246SOL    HW223668   1.139   0.347   3.015  0.7514 -1.1222  0.3401
 4247SOL     OW23669   4.159   2.818   2.374 -0.9959 -0.3135  0.0733
 4247SOL    HW123670   4.228   2.746   2.363 -0.5332 -0.2445  2.3722
 4247SOL    HW223671   4.083   2.801   2.311 -1.1640 -3.1534  0.9964
 4248SOL     OW23672   7.848   9.562   4.270 -0.2683  0.2550  0.5537
 4248SOL    HW123673   7.854   9.662   4.263 -1.0436  0.2859  0.2822
 4248SOL    HW223674   7.862   9.521   4.181 -0.1526  0.1306  0.6290
 4249SOL     OW23675   1.957   1.785   4.029  0.5086 -0.1458  0.7205
 4249SOL    HW123676   1.969   1.687   4.015  1.0651  0.0589 -0.2418
 4249SOL    HW223677   1.863   1.810   4.006  1.1522  0.0298 -1.8227
 4250SOL     OW23678   9.605   3.240   5.310  0.5922  0.2276 -0.3292
 4250SOL    HW123679   9.691   3.272   5.351  0.7886  0.5886 -1.0267
 4250SOL    HW223680   9.530   3.255   5.375  0.9868  0.2878  0.1172
 4251SOL     OW23681   2.044   3.227   2.702  0.1574 -0.1448  0.0785
 4251SOL    HW123682   1.960   3.279   2.690  0.9874  1.1620 -0.2216
 4251SOL    HW223683   2.111   3.255   2.634  0.6287 -1.6258 -0.0863
 4252SOL     OW23684   9.888   2.988   4.327 -0.2021  0.8502 -0.5530
 4252SOL    HW123685   9.819   3.060   4.328 -0.8525  0.2339  1.0762
 4252SOL    HW223686   9.855   2.910   4.274 -0.0611  1.2152 -1.1772
 4253SOL     OW23687   9.278   5.886   3.503 -0.3261  0.7964 -0.0933
 4253SOL    HW123688   9.364   5.932   3.526 -0.1220  1.1328 -1.4533
 4253SOL    HW223689   9.272   5.799   3.552  0.4061  1.1477  0.6313
 4254SOL     OW23690   2.448   3.840   5.432  0.1135  0.0610 -0.6720
 4254SOL    HW123691   2.395   3.902   5.375 -0.7827  0.9687  1.1247
 4254SOL    HW223692   2.473   3.886   5.517 -0.6740 -2.0657  0.7525
 4255SOL     OW23693   5.901   7.338   4.137 -0.3402  0.5346 -0.1364
 4255SOL    HW123694   5.803   7.317   4.138 -0.0287 -1.2926 -2.6317
 4255SOL    HW223695   5.914   7.432   4.106 -1.3314  0.9710  0.7466
 4256SOL     OW23696   8.394   2.435   3.483  0.6744 -0.5720 -0.0468
 4256SOL    HW123697   8.312   2.408   3.533  2.1323 -2.1026  1.6134
 4256SOL    HW223698   8.455   2.485   3.545  2.0222 -1.5161 -0.6038
 4257SOL     OW23699   2.387   4.734   4.954  0.4816  0.0647 -0.0176
 4257SOL    HW123700   2.339   4.656   4.915  0.2875  1.1150 -1.9370
 4257SOL    HW223701   2.342   4.762   5.038 -0.3358 -0.9678 -0.1022
 4258SOL     OW23702   7.137   8.188   3.673  0.2509  0.2983 -0.4650
 4258SOL    HW123703   7.065   8.250   3.643 -0.1105 -0.1832 -0.5963
 4258SOL    HW223704   7.096   8.105   3.710  0.7560 -0.5346 -1.7646
 4259SOL     OW23705   3.150   3.109   0.430  0.6744 -0.5083 -0.1558
 4259SOL    HW123706   3.168   3.108   0.529 -0.3055  2.8069  0.1127
 4259SOL    HW223707   3.227   3.154   0.384  1.3500 -2.4744 -0.9818
 4260SOL     OW23708   5.151   8.850   3.068  0.0135  0.3339  0.5104
 4260SOL    HW123709   5.182   8.785   2.998 -0.2855 -0.0204  0.7069
 4260SOL    HW223710   5.099   8.923   3.024 -0.0404  0.1970  0.3447
 4261SOL     OW23711   0.587   0.641   3.369  0.2625 -0.0488 -0.2631
 4261SOL    HW123712   0.610   0.732   3.334  0.6226  0.5067  1.3566
 4261SOL    HW223713   0.582   0.576   3.293  1.5576  1.0046 -1.2747
 4262SOL     OW23714   1.537   8.098   4.625  0.4561  0.4806 -0.3629
 4262SOL    HW123715   1.555   8.014   4.676  2.9097  0.3635 -1.3763
 4262SOL    HW223716   1.553   8.177   4.685  0.0765  0.2769  0.0129
 4263SOL     OW23717   9.054   2.594   4.305 -0.0014 -0.0855 -0.2166
 4263SOL    HW123718   9.144   2.582   4.263 -0.2385 -0.5530 -0.5865
 4263SOL    HW223719   9.060   2.666   4.375  1.0396 -1.2284  0.8992
 4264SOL     OW23720   0.218   7.033   2.443 -0.3690 -0.3444 -0.0261
 4264SOL    HW123721   0.185   7.064   2.354 -0.3817  0.5832  0.2952
 4264SOL    HW223722   0.311   6.998   2.434 -0.3284 -0.1397 -0.3929
 4265SOL     OW23723   3.206   0.316   5.079  0.2177 -0.7058 -0.2098
 4265SOL    HW123724   3.241   0.300   5.171 -0.2666 -3.6687 -0.5053
 4265SOL    HW223725   3.106   0.307   5.080  0.0878  0.5893 -0.7774
 4266SOL     OW23726   0.170   9.803   2.204  0.6764 -0.0707  0.2107
 4266SOL    HW123727   0.246   9.825   2.266  0.3205  1.6548  0.0415
 4266SOL    HW223728   0.125   9.887   2.175  0.3133 -0.9219 -1.7401
 4267SOL     OW23729   3.230   4.607   3.611  0.0021 -0.0569  0.4039
 4267SOL    HW123730   3.201   4.660   3.690  0.5064 -1.4428  1.5357
 4267SOL    HW223731   3.151   4.584   3.554 -0.5843 -0.4023  1.3525
 4268SOL     OW23732   2.362   9.138   1.912 -0.3659  0.5209 -0.1340
 4268SOL    HW123733   2.434   9.142   1.843 -0.5162  1.3351 -0.2545
 4268SOL    HW223734   2.400   9.162   2.002  0.1846 -2.1225  0.3831
 4269SOL     OW23735   9.218   7.802   0.307  0.3959  0.2263 -0.8830
 4269SOL    HW123736   9.283   7.730   0.328 -1.1835 -1.3426 -1.2858
 4269SOL    HW223737   9.146   7.803   0.376 -0.0389  0.8800 -1.3381
 4270SOL     OW23738   9.635   3.946   2.549  0.5300 -0.1635 -0.7250
 4270SOL    HW123739   9.705   3.881   2.579 -0.4239 -0.9337 -0.1575
 4270SOL    HW223740   9.635   4.025   2.610  1.0335 -0.0580 -0.8518
 4271SOL     OW23741   1.898   5.045   0.425 -0.6080 -0.2449 -0.3001
 4271SOL    HW123742   1.816   5.102   0.418 -0.1360  0.5959  0.7417
 4271SOL    HW223743   1.881   4.956   0.384 -1.9551  0.0211 -0.3387
 4272SOL     OW23744   3.184   7.244   1.381 -1.1909  0.7621  0.3068
 4272SOL    HW123745   3.118   7.198   1.440 -0.8425  0.2647  0.3185
 4272SOL    HW223746   3.240   7.306   1.436  0.2121 -0.8993  0.8129
 4273SOL     OW23747   3.763   8.772   1.238 -0.0536 -0.4894 -0.2608
 4273SOL    HW123748   3.797   8.822   1.318 -1.9791  2.4699 -1.2220
 4273SOL    HW223749   3.672   8.735   1.258  0.0075 -0.8612 -0.6544
 4274SOL     OW23750   4.726   1.125   2.744 -0.5355 -0.2931  0.7132
 4274SOL    HW123751   4.656   1.075   2.794  0.5665  0.2584  2.8398
 4274SOL    HW223752   4.740   1.215   2.786  0.4183  0.1867 -0.5777
 4275SOL     OW23753   0.539   1.649   0.959  0.6007 -0.8190 -0.3561
 4275SOL    HW123754   0.516   1.574   0.898  0.2217 -0.3039 -0.8559
 4275SOL    HW223755   0.637   1.668   0.953  0.6235 -0.9947 -0.5434
 4276SOL     OW23756   4.270   0.471   1.969  0.9492 -0.5835  0.5283
 4276SOL    HW123757   4.223   0.394   1.925  0.3296  0.8795 -1.4601
 4276SOL    HW223758   4.210   0.512   2.038  0.5449 -0.6988  0.2452
 4277SOL     OW23759   1.827   0.323   2.757  0.0501 -0.6485 -0.3417
 4277SOL    HW123760   1.781   0.300   2.842  1.5312 -0.3022  0.5624
 4277SOL    HW223761   1.825   0.423   2.744  0.6494 -0.6227 -0.2367
 4278SOL     OW23762   7.849   1.025   4.351  0.5892 -0.2552  0.0026
 4278SOL    HW123763   7.878   1.114   4.385  0.1837 -0.5876  1.2280
 4278SOL    HW223764   7.920   0.956   4.371  1.4359 -0.0128 -1.9746
 4279SOL     OW23765   3.895   8.880   1.457 -0.4182 -0.1997 -0.2100
 4279SOL    HW123766   3.892   8.940   1.536 -2.5996  0.8346 -1.0498
 4279SOL    HW223767   3.976   8.901   1.402 -0.9567  1.7044 -0.2898
 4280SOL     OW23768   8.501   8.955   3.685 -0.0212 -0.3233 -0.3765
 4280SOL    HW123769   8.600   8.964   3.685 -0.0770  0.4881 -1.8036
 4280SOL    HW223770   8.472   8.899   3.763  1.4972 -0.0443  0.3983
 4281SOL     OW23771   1.686   3.131   2.923 -0.0804 -0.2285  0.3531
 4281SOL    HW123772   1.700   3.046   2.974 -1.6280 -0.5463  0.2890
 4281SOL    HW223773   1.602   3.124   2.869  0.9020  0.5498 -1.3277
 4282SOL     OW23774   1.602   1.301   0.093 -0.2480  0.2093  0.2963
 4282SOL    HW123775   1.698   1.275   0.098  0.6566  3.3541  0.3892
 4282SOL    HW223776   1.559   1.257   0.014  0.7285 -2.7534  1.3744
 4283SOL     OW23777   1.472   6.193   0.689 -0.4739  0.0963 -0.2344
 4283SOL    HW123778   1.413   6.162   0.615 -2.3303  0.3022  1.1257
 4283SOL    HW223779   1.429   6.173   0.777  1.9205 -0.6285  0.8355
 4284SOL     OW23780   3.185   9.380   0.022  0.3483 -0.5951 -0.0224
 4284SOL    HW123781   3.279   9.414   0.019 -0.2166  1.1904  1.7206
 4284SOL    HW223782   3.130   9.428  -0.046 -0.0176  0.6568  1.1439
 4285SOL     OW23783   8.705   2.458   4.258 -0.4188 -0.9356  0.6134
 4285SOL    HW123784   8.752   2.373   4.235 -0.8711 -1.0053 -0.1007
 4285SOL    HW223785   8.741   2.532   4.202 -2.1634 -1.2846 -1.0616
 4286SOL     OW23786   9.587   6.782   0.654 -0.0346  0.1015  0.0110
 4286SOL    HW123787   9.681   6.792   0.686 -0.1494 -0.6968  0.5947
 4286SOL    HW223788   9.587   6.748   0.560  0.2614  0.6431 -0.1903
 4287SOL     OW23789   0.543   7.714   3.133  0.1123  0.3727 -0.3087
 4287SOL    HW123790   0.498   7.631   3.166 -2.2336  1.3486 -0.9386
 4287SOL    HW223791   0.547   7.713   3.033 -0.1184  1.1091 -0.3311
 4288SOL     OW23792   9.021   1.616   4.831 -0.5611  0.3458  0.1209
 4288SOL    HW123793   9.104   1.652   4.875  0.4073 -2.3403  0.6228
 4288SOL    HW223794   8.950   1.686   4.830  1.5330  2.5313  0.1925
 4289SOL     OW23795   6.131   0.556   0.925  0.5666  0.1135  0.4964
 4289SOL    HW123796   6.177   0.580   1.011  1.4662 -0.6865  0.2388
 4289SOL    HW223797   6.198   0.558   0.850  0.1698 -0.9975  0.1106
 4290SOL     OW23798   0.887   8.875   2.937  0.2815 -0.3924 -0.1167
 4290SOL    HW123799   0.896   8.792   2.992  0.8191  0.0367  0.4613
 4290SOL    HW223800   0.978   8.914   2.922 -0.0884  0.9169  0.9208
 4291SOL     OW23801   7.376   8.852   0.727  0.4727  0.0630  0.4692
 4291SOL    HW123802   7.344   8.937   0.770  1.2571  1.6254 -1.9527
 4291SOL    HW223803   7.360   8.856   0.628  1.0277 -2.3896  0.2447
 4292SOL     OW23804   0.774   8.860   2.665 -0.1380 -0.5278 -0.5535
 4292SOL    HW123805   0.813   8.885   2.754  0.4132  1.8293 -1.4302
 4292SOL    HW223806   0.688   8.909   2.651  1.6788  2.0714 -2.9193
 4293SOL     OW23807   2.290   0.248   4.994  0.0521 -0.0417 -0.4911
 4293SOL    HW123808   2.349   0.173   5.023 -0.4900  0.4591  1.9942
 4293SOL    HW223809   2.214   0.259   5.058 -0.0059  2.4856 -0.9122
 4294SOL     OW23810   8.158   1.919   0.326 -0.3513 -0.1835  0.5053
 4294SOL    HW123811   8.248   1.947   0.292 -0.3346  0.0044  0.6947
 4294SOL    HW223812   8.104   1.882   0.252  1.0494 -3.3575  0.9901
 4295SOL     OW23813   0.592   9.052   2.706 -0.5444  0.5635 -0.0922
 4295SOL    HW123814   0.545   9.044   2.794  0.8235  0.2800  0.6161
 4295SOL    HW223815   0.529   9.090   2.639 -1.6215  0.7352  0.9929
 4296SOL     OW23816   2.636   2.928   1.018 -0.3205 -0.0002  0.1147
 4296SOL    HW123817   2.650   3.025   1.002  0.0366  0.1375  1.2731
 4296SOL    HW223818   2.538   2.907   1.014 -0.2336 -0.0521 -2.6904
 4297SOL     OW23819   8.776   5.635   4.212 -0.0363  0.6392  0.5008
 4297SOL    HW123820   8.722   5.551   4.199  1.4351 -0.1051 -0.9420
 4297SOL    HW223821   8.721   5.714   4.184  0.1136 -0.2476 -2.4592
 4298SOL     OW23822   3.151   3.449   5.466  0.0823 -0.1314  0.6299
 4298SOL    HW123823   3.119   3.527   5.520 -0.6544  0.2866 -0.3909
 4298SOL    HW223824   3.251   3.448   5.465  0.0996  0.2697  1.4043
 4299SOL     OW23825   0.348   7.191   1.053  0.0907 -0.1276  0.0287
 4299SOL    HW123826   0.376   7.163   1.145  0.5394 -1.2691 -0.4411
 4299SOL    HW223827   0.300   7.279   1.057  0.3257 -0.0573  1.3181
 4300SOL     OW23828   8.989   5.023   4.666  0.1453 -0.2275  0.2013
 4300SOL    HW123829   9.061   4.959   4.693  0.6351 -0.1160 -0.8255
 4300SOL    HW223830   8.902   4.995   4.707  0.5201 -1.0840  0.4119
 4301SOL     OW23831   1.664   7.365   4.147  0.1733  0.1413  0.0140
 4301SOL    HW123832   1.737   7.321   4.200 -0.3629 -1.0042 -0.1806
 4301SOL    HW223833   1.687   7.461   4.132  2.9294 -0.7819 -2.2748
 4302SOL     OW23834   9.729   5.009   4.076  0.0643 -0.3711  0.7672
 4302SOL    HW123835   9.797   5.064   4.124  0.2242  0.6623 -0.5963
 4302SOL    HW223836   9.775   4.937   4.024  0.2580  0.9739 -1.0025
 4303SOL     OW23837   0.147   3.905   3.249  0.7623 -0.5547 -0.3888
 4303SOL    HW123838   0.081   3.876   3.180 -1.6574 -0.2787  1.7407
 4303SOL    HW223839   0.195   3.987   3.217 -0.4147 -0.3600 -1.6933
 4304SOL     OW23840   8.606   6.436   0.829 -0.1918  0.1077  0.2948
 4304SOL    HW123841   8.517   6.470   0.798  0.3159  0.6008 -0.6461
 4304SOL    HW223842   8.610   6.439   0.929 -1.2590  0.0038  0.3446
 4305SOL     OW23843   2.170   2.674   2.328  0.8033 -0.6133 -0.0250
 4305SOL    HW123844   2.135   2.756   2.374 -0.6473 -0.5824 -1.1422
 4305SOL    HW223845   2.260   2.694   2.289  0.8742  0.1610  0.5137
 4306SOL     OW23846   0.659   6.085   1.108  0.2128  0.1720 -0.6171
 4306SOL    HW123847   0.726   6.096   1.035  1.7526 -0.6441  0.6556
 4306SOL    HW223848   0.651   5.989   1.132  1.3406  0.6460  1.7828
 4307SOL     OW23849   6.562   7.915   1.441  0.0866 -0.3820 -0.1733
 4307SOL    HW123850   6.506   7.832   1.447  1.1382 -1.1296 -0.6502
 4307SOL    HW223851   6.654   7.891   1.413  0.3744  0.9704 -0.4036
 4308SOL     OW23852   6.030   0.194   4.347 -0.5348 -0.2091  0.0920
 4308SOL    HW123853   6.024   0.113   4.288 -0.7204  1.0155 -1.5953
 4308SOL    HW223854   6.015   0.167   4.442  0.3486 -2.3052 -0.3432
 4309SOL     OW23855   3.032   9.219   3.228 -0.1596  0.2721  0.3497
 4309SOL    HW123856   3.064   9.292   3.168  0.2651 -1.1465 -1.1722
 4309SOL    HW223857   3.069   9.132   3.197 -0.5552 -0.5837  2.2294
 4310SOL     OW23858   3.337   9.939   1.365 -0.2677  0.2036  0.3338
 4310SOL    HW123859   3.304  10.032   1.348 -0.0378  0.2607  0.1981
 4310SOL    HW223860   3.396   9.910   1.290 -0.1943  0.0141  0.4642
 4311SOL     OW23861   4.840   2.758   1.792 -0.3744  0.3622 -0.1573
 4311SOL    HW123862   4.879   2.716   1.710  0.6290 -0.7272  0.8670
 4311SOL    HW223863   4.843   2.693   1.867  0.9418  2.1740  1.3945
 4312SOL     OW23864   3.530   1.871   0.278 -0.0272  0.3271  0.0322
 4312SOL    HW123865   3.594   1.830   0.343 -2.1246 -2.8039  0.2718
 4312SOL    HW223866   3.518   1.809   0.200 -1.0036  1.9360 -1.1190
 4313SOL     OW23867   2.058   9.166   0.582  0.3627  0.3234  0.1534
 4313SOL    HW123868   2.097   9.110   0.508  1.1873 -0.6957  1.3405
 4313SOL    HW223869   2.123   9.171   0.658 -1.6729 -1.1440  2.0536
 4314SOL     OW23870   2.666   8.141   0.248  0.2435 -0.0047 -0.5677
 4314SOL    HW123871   2.719   8.205   0.303 -1.7198  0.1368  1.1913
 4314SOL    HW223872   2.729   8.082   0.196  2.1289  0.1698  1.4524
 4315SOL     OW23873   2.187   5.011   2.668  0.1212  0.3017  0.1472
 4315SOL    HW123874   2.144   5.053   2.748 -2.3676 -1.1650 -0.3597
 4315SOL    HW223875   2.131   5.029   2.587  0.7104 -1.2478 -0.6220
 4316SOL     OW23876   8.247   5.731   5.058  0.2834  0.1249 -0.3241
 4316SOL    HW123877   8.298   5.683   5.129 -0.4554 -0.3421 -0.1048
 4316SOL    HW223878   8.157   5.690   5.048  1.0111 -0.9869 -2.7817
 4317SOL     OW23879   1.802   9.259   5.451 -0.6824 -0.2948 -0.4344
 4317SOL    HW123880   1.886   9.229   5.496 -0.6110 -0.0868 -0.4300
 4317SOL    HW223881   1.723   9.221   5.500 -0.6215  0.4528  0.2512
 4318SOL     OW23882   1.987   9.461   4.586 -0.3757  0.0667  0.1118
 4318SOL    HW123883   1.895   9.462   4.547 -0.7792 -0.8320  1.0073
 4318SOL    HW223884   2.052   9.429   4.517 -0.7826  0.3808 -0.4201
 4319SOL     OW23885   2.513   1.779   4.228 -0.0625  0.2171 -0.1040
 4319SOL    HW123886   2.557   1.822   4.149  1.0072  0.0588  0.3830
 4319SOL    HW223887   2.454   1.705   4.198  0.6940 -0.1393 -0.7359
 4320SOL     OW23888   0.061   4.763   0.297 -0.0243 -0.4914 -0.5070
 4320SOL    HW123889   0.015   4.850   0.314  0.8811  0.4345 -2.5872
 4320SOL    HW223890   0.077   4.752   0.199  2.3464 -1.7040 -0.0311
 4321SOL     OW23891   3.884   2.333   5.243  0.4613  0.0698  0.2239
 4321SOL    HW123892   3.864   2.431   5.250 -1.6982 -0.3447  0.2897
 4321SOL    HW223893   3.859   2.288   5.328  2.7531 -0.3541  0.7032
 4322SOL     OW23894   0.611   1.909   5.101  0.4084 -0.2697  0.0213
 4322SOL    HW123895   0.567   1.851   5.170  1.1784 -2.5798 -1.3673
 4322SOL    HW223896   0.710   1.899   5.107  0.4719 -1.0459 -1.8319
 4323SOL     OW23897   5.352   8.082   1.268 -0.2737 -0.5869 -0.2640
 4323SOL    HW123898   5.254   8.063   1.268  0.0836 -2.5678 -1.3909
 4323SOL    HW223899   5.397   8.019   1.332  0.5188 -1.2387 -1.4451
 4324SOL     OW23900   0.370   4.126   3.462  0.5290  0.0392  0.0896
 4324SOL    HW123901   0.321   4.153   3.379  2.3561  2.4763 -0.2551
 4324SOL    HW223902   0.311   4.066   3.518 -2.1128  1.3936 -1.1521
 4325SOL     OW23903   4.248   6.878   3.722  0.9819  0.0112  0.7601
 4325SOL    HW123904   4.189   6.823   3.782 -0.0009 -1.3630 -1.4220
 4325SOL    HW223905   4.217   6.973   3.724 -1.1988 -0.6462 -0.1728
 4326SOL     OW23906   1.710   4.750   1.013  0.3644 -0.0729 -0.3460
 4326SOL    HW123907   1.668   4.683   0.952 -1.2483 -0.6451  1.3371
 4326SOL    HW223908   1.762   4.703   1.084 -1.2813  0.3896  1.2040
 4327SOL     OW23909   0.534   5.624   2.860 -0.2225 -0.2341  0.0600
 4327SOL    HW123910   0.452   5.567   2.855 -0.5687  0.2847 -0.2229
 4327SOL    HW223911   0.543   5.662   2.952 -1.1136  0.8984 -0.3067
 4328SOL     OW23912   2.576   4.555   1.811 -0.4890 -0.1326 -0.3006
 4328SOL    HW123913   2.640   4.498   1.758  2.3425  2.0947  0.6012
 4328SOL    HW223914   2.615   4.571   1.902 -2.3406  1.3439  0.2375
 4329SOL     OW23915   0.865   7.169   3.805  0.3720  0.5425 -0.3956
 4329SOL    HW123916   0.821   7.218   3.881 -0.5330  2.6122 -2.1899
 4329SOL    HW223917   0.944   7.118   3.839 -0.1045  1.3289  1.9584
 4330SOL     OW23918   0.450   0.294   0.373  0.0073 -0.3658 -0.0245
 4330SOL    HW123919   0.450   0.199   0.402 -1.4591 -0.2225  0.4737
 4330SOL    HW223920   0.544   0.323   0.352  1.1330 -0.5143  4.4133
 4331SOL     OW23921   9.411   2.387   5.161  0.1618  0.0696  0.4213
 4331SOL    HW123922   9.383   2.300   5.121 -1.3223  0.2506  1.0538
 4331SOL    HW223923   9.415   2.378   5.261  0.6418  0.5464  0.4482
 4332SOL     OW23924   4.151   8.570   2.833 -0.5491 -0.1422  0.4265
 4332SOL    HW123925   4.232   8.571   2.891 -0.7401  0.2294  0.6912
 4332SOL    HW223926   4.078   8.624   2.877 -0.6262  0.3083 -0.2573
 4333SOL     OW23927   3.041   6.916   1.675  0.4421 -0.5019  0.4375
 4333SOL    HW123928   3.025   7.005   1.633 -0.8886  0.2713  2.5131
 4333SOL    HW223929   3.073   6.851   1.606 -0.5346  1.0401 -1.4853
 4334SOL     OW23930   0.981   1.658   5.239 -0.0289 -0.5871  0.2382
 4334SOL    HW123931   0.913   1.597   5.200 -1.5065  1.9454 -1.2290
 4334SOL    HW223932   0.962   1.752   5.211  2.7819  0.4440  1.6233
 4335SOL     OW23933   1.519   5.434   4.690 -0.3513  0.4378 -0.3604
 4335SOL    HW123934   1.475   5.501   4.630 -1.0757  1.5916  1.4120
 4335SOL    HW223935   1.618   5.444   4.684 -0.3839  0.0089 -1.9263
 4336SOL     OW23936   6.246   7.372   2.565 -0.2027 -0.7943  0.5948
 4336SOL    HW123937   6.225   7.439   2.636  1.7219  0.4637  0.0160
 4336SOL    HW223938   6.310   7.304   2.600  0.0776 -0.6642  0.3477
 4337SOL     OW23939   9.959   9.784   5.323 -0.0798 -0.2773  0.0105
 4337SOL    HW123940   9.864   9.765   5.299 -0.5880  1.9013  0.2274
 4337SOL    HW223941   9.998   9.848   5.257  1.2038 -1.0131  0.0237
 4338SOL     OW23942   4.533   8.522   2.690 -0.2296  0.3766 -0.2524
 4338SOL    HW123943   4.528   8.425   2.665 -2.1593  0.8657 -1.9102
 4338SOL    HW223944   4.463   8.542   2.758 -0.2725  0.7518 -0.4077
 4339SOL     OW23945   8.477   5.555   5.126  0.3620  0.4871 -0.0274
 4339SOL    HW123946   8.550   5.623   5.124  1.1563 -0.2599  1.9516
 4339SOL    HW223947   8.469   5.512   5.036  1.1432  1.8340 -0.7597
 4340SOL     OW23948   9.845   0.205   0.020 -0.0918 -0.0499 -0.1891
 4340SOL    HW123949   9.914   0.206  -0.052 -0.6917 -0.0875 -0.7799
 4340SOL    HW223950   9.888   0.189   0.108  0.7480  0.8548 -0.4357
 4341SOL     OW23951   6.585   7.827   3.821 -0.5050 -0.3215 -0.3628
 4341SOL    HW123952   6.509   7.764   3.836 -0.1044 -0.5740  0.6172
 4341SOL    HW223953   6.590   7.892   3.897 -0.0155 -0.0243 -0.6469
 4342SOL     OW23954   1.331   6.500   4.050  0.1935  0.5215 -0.8315
 4342SOL    HW123955   1.306   6.576   4.110  1.8983 -0.2529  0.9055
 4342SOL    HW223956   1.346   6.535   3.957  1.7742  2.4894  0.1139
 4343SOL     OW23957   7.951   5.816   2.009 -0.3396 -0.1019 -0.1596
 4343SOL    HW123958   7.936   5.914   2.005  2.2744  0.3247 -0.3618
 4343SOL    HW223959   7.970   5.789   2.104 -2.9884 -0.7402  0.2143
 4344SOL     OW23960   0.418   2.271   3.427 -0.0392 -0.5994 -0.2915
 4344SOL    HW123961   0.391   2.260   3.522  0.4267  1.3275  0.0832
 4344SOL    HW223962   0.517   2.265   3.420 -0.0663 -0.6342 -0.6614
 4345SOL     OW23963   9.766   9.956   1.775 -0.7680  0.0290 -0.0286
 4345SOL    HW123964   9.751   9.857   1.764 -1.9221  0.2780 -0.8512
 4345SOL    HW223965   9.678  10.001   1.792 -0.4178  1.0878 -0.9895
 4346SOL     OW23966   9.185   9.873   1.800 -0.0272 -0.2777 -0.0669
 4346SOL    HW123967   9.259   9.843   1.860 -0.4575 -1.8123 -0.2843
 4346SOL    HW223968   9.173   9.972   1.809  2.7696  0.1660 -0.8507
 4347SOL     OW23969   8.123   0.137   5.567 -0.1267 -0.4386  0.4113
 4347SOL    HW123970   8.082   0.162   5.480 -1.1503 -0.7850  0.7809
 4347SOL    HW223971   8.054   0.144   5.640  0.5913 -0.5930  1.1182
 4348SOL     OW23972   3.691   9.230   0.124  0.4510  0.2493  0.5532
 4348SOL    HW123973   3.755   9.229   0.046  0.7410  1.9349  0.7633
 4348SOL    HW223974   3.635   9.313   0.120 -0.5790 -0.4059  1.3077
 4349SOL     OW23975   0.189   6.974   3.789  0.2093  0.2340 -0.0360
 4349SOL    HW123976   0.177   6.933   3.698 -1.1925 -0.2332  0.3504
 4349SOL    HW223977   0.285   6.967   3.817  0.9070  1.4555 -1.9923
 4350SOL     OW23978   1.505   9.397   4.130  0.2014 -0.4847 -0.0469
 4350SOL    HW123979   1.472   9.323   4.188  0.1979 -0.3510  0.1229
 4350SOL    HW223980   1.590   9.434   4.167 -0.3994  0.3635  0.5122
 4351SOL     OW23981   1.047   1.224   3.699 -0.5109  0.4443  0.2321
 4351SOL    HW123982   0.967   1.195   3.751  0.0540  1.8459  1.9376
 4351SOL    HW223983   1.017   1.275   3.618 -1.3523  3.4864  2.3712
 4352SOL     OW23984   8.901   2.301   5.615  0.0934 -0.0701  0.3311
 4352SOL    HW123985   8.894   2.295   5.715 -0.8891  1.5054  0.3777
 4352SOL    HW223986   8.992   2.272   5.586 -0.8173 -4.2954  1.3317
 4353SOL     OW23987   4.737   8.603   4.982  0.2377  0.1449 -0.0230
 4353SOL    HW123988   4.754   8.647   4.893  0.3502 -0.6328 -0.3885
 4353SOL    HW223989   4.804   8.637   5.048  0.9006 -0.1463 -0.5322
 4354SOL     OW23990   2.896   7.309   1.705  0.2000 -0.0220  0.0772
 4354SOL    HW123991   2.842   7.332   1.786  1.2558 -3.3053  1.8149
 4354SOL    HW223992   2.992   7.335   1.720  0.5883 -1.5475  0.3486
 4355SOL     OW23993   1.860   5.666   4.410 -0.6308 -0.2520  0.3746
 4355SOL    HW123994   1.774   5.682   4.458  0.3843 -0.4287  2.3248
 4355SOL    HW223995   1.845   5.603   4.334 -2.6470  1.5683 -0.8040
 4356SOL     OW23996   0.855   1.490   5.485 -0.2716  0.2808  0.8431
 4356SOL    HW123997   0.914   1.542   5.422  0.3599  0.1570  1.3210
 4356SOL    HW223998   0.875   1.393   5.475 -1.2764  0.1402  0.1286
 4357SOL     OW23999   2.750   0.215   3.105 -0.2454 -0.0271 -0.3856
 4357SOL    HW124000   2.806   0.137   3.133 -0.9488 -1.5231 -3.0540
 4357SOL    HW224001   2.809   0.296   3.095  0.9995 -0.9493 -0.5978
 4358SOL     OW24002   8.023   3.301   1.654 -0.7146 -0.0174 -0.0488
 4358SOL    HW124003   7.933   3.258   1.665 -0.9769  0.3035 -0.8777
 4358SOL    HW224004   8.073   3.295   1.741 -1.4889 -0.2957  0.3924
 4359SOL     OW24005   5.303   2.906   0.337 -0.1881 -0.4392 -0.3091
 4359SOL    HW124006   5.296   2.836   0.265 -0.4538  0.0070 -0.7231
 4359SOL    HW224007   5.238   2.980   0.317  0.9788  0.5347 -0.5597
 4360SOL     OW24008   6.356   8.154   3.788  0.2468  0.1915  0.1165
 4360SOL    HW124009   6.376   8.251   3.776 -0.4365  0.5142  1.4305
 4360SOL    HW224010   6.433   8.109   3.833  0.1965  0.3208  0.3362
 4361SOL     OW24011   8.152   0.828   3.316 -0.0448 -0.4342  0.3418
 4361SOL    HW124012   8.072   0.842   3.374 -0.5773  3.5229 -1.1475
 4361SOL    HW224013   8.230   0.878   3.354  0.7227 -1.2275 -0.1658
 4362SOL     OW24014   3.662   6.864   2.974  0.2054 -0.1642 -0.2312
 4362SOL    HW124015   3.654   6.805   3.054 -1.1562 -2.1341 -1.7456
 4362SOL    HW224016   3.705   6.813   2.899  0.9216  1.4423 -0.9251
 4363SOL     OW24017   8.583   9.903   1.329 -0.1838 -0.4039 -0.5899
 4363SOL    HW124018   8.485   9.924   1.326 -0.2424 -0.7186 -0.8693
 4363SOL    HW224019   8.599   9.828   1.394  0.1574  1.1903  1.2265
 4364SOL     OW24020   6.385   1.150   3.997 -0.0869  0.4797  0.0110
 4364SOL    HW124021   6.417   1.061   4.031  1.4591  1.5230  1.3969
 4364SOL    HW224022   6.326   1.136   3.917 -0.1751 -1.8014  0.4300
 4365SOL     OW24023   9.491   6.257   0.189 -0.3157  0.3724  0.1992
 4365SOL    HW124024   9.401   6.297   0.170  0.4584  2.6696  1.2071
 4365SOL    HW224025   9.538   6.240   0.102 -0.3086  2.5355 -0.2456
 4366SOL     OW24026   0.124   8.858   0.093  0.2026  0.1477 -0.1871
 4366SOL    HW124027   0.075   8.841   0.178 -1.3337  0.8050 -0.9192
 4366SOL    HW224028   0.159   8.772   0.056 -0.9181 -0.4159  0.0459
 4367SOL     OW24029   0.281   8.694   5.289  0.0289 -0.0882 -0.0687
 4367SOL    HW124030   0.225   8.636   5.348 -0.1278 -0.9980 -1.0993
 4367SOL    HW224031   0.373   8.656   5.284  0.4407  0.7733  0.7017
 4368SOL     OW24032   2.680   0.168   4.858  0.1903  0.0738  0.2298
 4368SOL    HW124033   2.766   0.145   4.812  0.0018 -0.5240  0.1788
 4368SOL    HW224034   2.605   0.161   4.793  0.0272  0.0314  0.4233
 4369SOL     OW24035   7.956   5.636   0.916  0.2646  0.2157 -0.6181
 4369SOL    HW124036   7.938   5.554   0.862  1.8049 -0.8136  0.3900
 4369SOL    HW224037   7.984   5.710   0.855  1.1252 -0.6816 -1.3477
 4370SOL     OW24038   4.777   4.930   0.443  0.0132 -0.3071  0.1719
 4370SOL    HW124039   4.834   4.976   0.510 -0.5655  1.5245 -0.5583
 4370SOL    HW224040   4.680   4.944   0.467 -0.2108  0.8940 -1.3547
 4371SOL     OW24041   9.958   0.529   3.597 -0.1825 -0.2443  0.3456
 4371SOL    HW124042   9.890   0.602   3.590 -1.1593 -1.3443 -2.3980
 4371SOL    HW224043   9.944   0.480   3.683  0.2079  2.4590  2.0160
 4372SOL     OW24044   8.147   1.206   5.206  0.1491  0.2646 -0.2848
 4372SOL    HW124045   8.169   1.191   5.110 -1.3518  2.5689 -1.0402
 4372SOL    HW224046   8.071   1.148   5.233 -0.6652  0.9626 -1.0407
 4373SOL     OW24047   3.427   4.773   3.064  0.1486  0.0972  0.2332
 4373SOL    HW124048   3.511   4.758   3.012 -0.4044 -1.2855 -0.3030
 4373SOL    HW224049   3.442   4.844   3.133  0.7241  2.3813 -2.1799
 4374SOL     OW24050   2.253   7.557   2.665 -0.6964 -0.1016  0.1666
 4374SOL    HW124051   2.224   7.653   2.662 -1.8473 -0.4045  1.2267
 4374SOL    HW224052   2.352   7.553   2.680 -0.5069  0.9126 -0.6929
 4375SOL     OW24053   0.504   5.667   5.300  0.0985  0.4775  0.2622
 4375SOL    HW124054   0.449   5.668   5.384 -0.4665 -1.9385 -0.0479
 4375SOL    HW224055   0.582   5.606   5.313  0.7950  1.1958 -0.5029
 4376SOL     OW24056   3.018   9.858   4.194  0.2088 -0.3318 -0.0195
 4376SOL    HW124057   3.016   9.790   4.120 -0.3524 -0.0534 -0.2654
 4376SOL    HW224058   3.112   9.891   4.206  0.5065 -1.2348  0.1821
 4377SOL     OW24059   0.103   0.414   2.572  0.1895  0.2947 -0.0823
 4377SOL    HW124060   0.200   0.433   2.557  0.4344 -1.4646 -0.8767
 4377SOL    HW224061   0.053   0.500   2.586  1.8344  1.2113  0.1909
 4378SOL     OW24062   6.144   0.926   2.646  0.3850 -0.2788 -0.0618
 4378SOL    HW124063   6.207   0.896   2.575  0.1476  0.7266 -0.6982
 4378SOL    HW224064   6.150   1.025   2.658 -0.5511 -0.2668  0.3772
 4379SOL     OW24065   2.716   5.820   3.842 -0.0990  0.1799  0.1582
 4379SOL    HW124066   2.642   5.829   3.775  1.5967 -1.8036 -2.0697
 4379SOL    HW224067   2.801   5.851   3.801  0.6051  0.9059  2.1466
 4380SOL     OW24068   5.355   1.587   2.493 -0.1593  0.3169  0.2948
 4380SOL    HW124069   5.427   1.585   2.562  0.4944  1.2699 -0.3297
 4380SOL    HW224070   5.391   1.630   2.409 -1.4903  0.9582  0.0337
 4381SOL     OW24071   1.594   2.922   5.573 -0.0740 -0.5533 -0.3833
 4381SOL    HW124072   1.693   2.923   5.588 -0.2906 -0.2249  1.0266
 4381SOL    HW224073   1.575   2.956   5.481  1.0782  0.1099 -0.3935
 4382SOL     OW24074   3.700   2.296   3.285 -0.4647  0.1070  0.2408
 4382SOL    HW124075   3.773   2.232   3.308 -0.8863 -0.8146 -0.9053
 4382SOL    HW224076   3.664   2.337   3.369  0.3325 -0.5796  0.9335
 4383SOL     OW24077   1.847   3.526   2.831 -0.2700 -0.0123  0.7922
 4383SOL    HW124078   1.903   3.487   2.904  0.9581 -0.2143 -0.2318
 4383SOL    HW224079   1.819   3.452   2.769  1.0444  0.5278 -0.4801
 4384SOL     OW24080   2.134   1.082   3.405  0.1221 -0.0301  0.0377
 4384SOL    HW124081   2.075   1.134   3.343 -0.8038 -1.4865 -0.3163
 4384SOL    HW224082   2.123   1.117   3.499 -0.4191  0.4647 -0.2070
 4385SOL     OW24083   4.197   6.605   2.964 -0.5357  0.1906 -0.4484
 4385SOL    HW124084   4.157   6.515   2.948  4.2020 -2.0534 -0.4151
 4385SOL    HW224085   4.219   6.615   3.061  1.0128  0.4880 -0.8269
 4386SOL     OW24086   3.716   5.066   4.120 -0.3003 -0.5361 -0.8128
 4386SOL    HW124087   3.617   5.081   4.131 -0.4223 -0.5453 -1.9005
 4386SOL    HW224088   3.731   4.995   4.052  0.3885 -2.6380  1.4558
 4387SOL     OW24089   3.138   6.590   0.395  0.4323 -0.7695 -0.0768
 4387SOL    HW124090   3.076   6.664   0.421 -0.0513 -0.9621 -0.6739
 4387SOL    HW224091   3.139   6.521   0.468 -1.9495 -1.9584 -1.1044
 4388SOL     OW24092   9.654   0.692   3.859 -0.1341 -0.6427 -0.0873
 4388SOL    HW124093   9.663   0.594   3.878 -0.5775 -1.1400 -2.2207
 4388SOL    HW224094   9.699   0.745   3.930  2.5335 -2.5038 -0.3287
 4389SOL     OW24095   1.867   4.330   2.769 -0.0343 -0.2477  0.1825
 4389SOL    HW124096   1.801   4.405   2.762  0.3758  0.0992 -0.0510
 4389SOL    HW224097   1.849   4.277   2.852 -0.3621  0.0793  0.3214
 4390SOL     OW24098   0.760   0.260   4.208 -0.1137 -0.0659 -0.0108
 4390SOL    HW124099   0.860   0.265   4.204 -0.0691  0.6531  1.6152
 4390SOL    HW224100   0.728   0.291   4.297 -1.8219 -0.0031 -0.6125
 4391SOL     OW24101   7.337   9.042   4.240  0.6209  0.0693  0.3211
 4391SOL    HW124102   7.411   8.976   4.253  0.2815 -0.2381  0.7476
 4391SOL    HW224103   7.297   9.065   4.329 -1.0939 -1.2977 -0.0661
 4392SOL     OW24104   0.566   3.595   3.133  0.5298 -0.4626  0.1378
 4392SOL    HW124105   0.611   3.514   3.170  0.5838 -1.4642 -2.0275
 4392SOL    HW224106   0.527   3.573   3.043 -3.5164  0.5950  1.5280
 4393SOL     OW24107   9.184   1.179   2.907  0.3334  0.4452  0.3757
 4393SOL    HW124108   9.160   1.233   2.826 -0.8420 -1.0199 -0.2814
 4393SOL    HW224109   9.155   1.227   2.989  0.1278  1.2327 -0.1499
 4394SOL     OW24110   3.130   3.193   5.419  0.4356 -0.2158 -0.4379
 4394SOL    HW124111   3.227   3.169   5.418  0.3280 -0.8440  2.2330
 4394SOL    HW224112   3.120   3.290   5.444  0.3870  0.0112 -1.3156
 4395SOL     OW24113   8.487   7.221   2.257 -0.4495 -0.4154 -0.2808
 4395SOL    HW124114   8.395   7.180   2.252 -1.2127  1.2957 -0.7777
 4395SOL    HW224115   8.483   7.315   2.223  1.9156 -0.9844 -2.3411
 4396SOL     OW24116   0.799   5.439   5.526  0.0949 -0.2156  0.0258
 4396SOL    HW124117   0.863   5.372   5.563  0.7797 -0.1562 -1.0311
 4396SOL    HW224118   0.705   5.405   5.537  0.3441 -0.6330  0.9082
 4397SOL     OW24119   6.801   0.583   5.247  0.1766  0.2313  0.2837
 4397SOL    HW124120   6.740   0.586   5.325 -0.9990  0.5001 -0.6275
 4397SOL    HW224121   6.883   0.638   5.266 -1.4799  2.8280  0.1823
 4398SOL     OW24122   2.935   2.557   4.167 -0.1593 -0.1504 -0.4592
 4398SOL    HW124123   2.904   2.611   4.245 -0.3252  0.6928 -1.1001
 4398SOL    HW224124   3.035   2.550   4.169 -0.1335  0.2338 -0.4038
 4399SOL     OW24125   1.743   5.107   5.450  0.0863  0.1058  0.4950
 4399SOL    HW124126   1.772   5.084   5.543 -0.8094 -2.0107  0.2785
 4399SOL    HW224127   1.823   5.117   5.391  0.5617 -2.3118  0.6647
 4400SOL     OW24128   5.103   7.862   4.330 -0.2046  0.3668  0.0008
 4400SOL    HW124129   5.137   7.950   4.363 -0.7828  0.2099  1.0379
 4400SOL    HW224130   5.134   7.847   4.236  2.0333  0.5385  0.6723
 4401SOL     OW24131   8.519   4.278   3.574 -0.2461  0.0940  0.0822
 4401SOL    HW124132   8.502   4.282   3.475  0.3609  0.4772 -0.0079
 4401SOL    HW224133   8.460   4.208   3.615 -0.4620 -0.1030 -0.5578
 4402SOL     OW24134   0.238   4.865   2.322  0.5944  0.1985 -0.1771
 4402SOL    HW124135   0.319   4.921   2.338  1.1818 -1.0235  1.2228
 4402SOL    HW224136   0.258   4.769   2.342 -0.4534 -0.5226 -2.3410
 4403SOL     OW24137   0.718   4.327   5.475 -0.8440  0.2481  0.7231
 4403SOL    HW124138   0.638   4.380   5.502 -0.2756 -0.0588  3.1343
 4403SOL    HW224139   0.782   4.321   5.552  0.7307 -0.9254 -0.6292
 4404SOL     OW24140   1.100   2.339   1.963  0.2373  0.0504 -0.1853
 4404SOL    HW124141   1.062   2.389   2.040 -0.5149  0.0221 -0.5257
 4404SOL    HW224142   1.183   2.292   1.991  0.4776  0.7912  0.3601
 4405SOL     OW24143   8.371   1.366   1.283 -0.7896  0.7168 -0.7320
 4405SOL    HW124144   8.307   1.386   1.357 -0.6816  0.1081 -0.4739
 4405SOL    HW224145   8.327   1.386   1.195 -1.7583 -0.8095 -0.6176
 4406SOL     OW24146   7.972   7.769   3.804 -0.1077 -0.4249 -0.1128
 4406SOL    HW124147   8.037   7.718   3.861 -1.0689 -2.9578 -1.1725
 4406SOL    HW224148   7.885   7.777   3.851 -0.5900 -1.6185 -0.7820
 4407SOL     OW24149   5.074   6.997   2.707  0.1070  0.2189 -0.0770
 4407SOL    HW124150   5.040   6.962   2.794  0.2194  0.2762 -0.0103
 4407SOL    HW224151   5.049   7.093   2.698 -0.8939 -0.0749 -0.6060
 4408SOL     OW24152   2.759   6.083   4.866 -0.5904 -0.4917 -0.2581
 4408SOL    HW124153   2.818   6.151   4.910  0.4256 -1.4033 -0.1656
 4408SOL    HW224154   2.673   6.077   4.916 -0.0327 -0.4443  0.7391
 4409SOL     OW24155   7.079   7.937   3.860  0.0775 -0.4742 -0.5144
 4409SOL    HW124156   7.172   7.944   3.895 -0.1469 -2.2922  0.4903
 4409SOL    HW224157   7.070   7.855   3.803 -0.7155  0.1011 -1.2421
 4410SOL     OW24158   9.502   2.967   1.615  0.0226 -0.3077 -0.1060
 4410SOL    HW124159   9.427   2.949   1.551 -1.4480 -0.0881  1.5373
 4410SOL    HW224160   9.548   3.052   1.589  0.1582 -0.8098 -1.5360
 4411SOL     OW24161   1.043   8.494   1.032  0.6695 -0.3789  0.5481
 4411SOL    HW124162   1.036   8.401   0.997  0.5754 -0.3776  0.5637
 4411SOL    HW224163   0.990   8.556   0.974  0.5155 -0.3752  0.6905
 4412SOL     OW24164   4.721   2.980   3.775  0.0418  0.0397 -0.0708
 4412SOL    HW124165   4.686   3.059   3.724  0.2523  0.7290  0.8247
 4412SOL    HW224166   4.821   2.981   3.773  0.0462 -0.1484  0.0245
 4413SOL     OW24167   0.491   2.588   5.573 -0.3634 -0.0964  0.4914
 4413SOL    HW124168   0.466   2.569   5.478  3.1124  1.9435 -0.9341
 4413SOL    HW224169   0.563   2.525   5.602 -0.3168  0.3009  1.2475
 4414SOL     OW24170   0.254   2.870   0.584 -0.7425 -0.2610  0.4953
 4414SOL    HW124171   0.314   2.824   0.651  0.7127  1.4762  0.4008
 4414SOL    HW224172   0.181   2.917   0.633 -0.5993 -0.3106  0.7614
 4415SOL     OW24173   8.679   8.765   2.122  0.4144 -0.6234 -0.3733
 4415SOL    HW124174   8.615   8.690   2.103  2.2890 -2.1160 -0.9013
 4415SOL    HW224175   8.700   8.766   2.220 -0.3180 -0.2159 -0.2206
 4416SOL     OW24176   2.895   7.574   2.875  0.7087 -0.2005 -0.6808
 4416SOL    HW124177   2.916   7.672   2.880 -0.7532  0.1331 -0.8158
 4416SOL    HW224178   2.919   7.539   2.785 -0.8271  0.5454 -1.3920
 4417SOL     OW24179   8.981   9.469   3.156 -0.0126 -0.8653  0.0418
 4417SOL    HW124180   9.023   9.479   3.066  0.3143 -1.4548  0.1271
 4417SOL    HW224181   9.047   9.495   3.227 -0.1863 -0.6466  0.1226
 4418SOL     OW24182   4.537   3.982   3.490 -0.4803  0.7365  0.2681
 4418SOL    HW124183   4.524   3.885   3.471  0.4520  0.8048 -0.7713
 4418SOL    HW224184   4.631   3.999   3.519 -0.4038  1.4344 -0.3557
 4419SOL     OW24185   3.200   6.067   2.106  0.2666 -0.0804 -0.0403
 4419SOL    HW124186   3.144   6.126   2.165 -0.9297  0.6177 -1.8587
 4419SOL    HW224187   3.279   6.035   2.158  0.5908  2.5855  1.1996
 4420SOL     OW24188   6.356   1.711   3.987 -0.4623 -0.4652 -0.4781
 4420SOL    HW124189   6.323   1.641   4.050 -0.7491 -1.6523 -1.9151
 4420SOL    HW224190   6.455   1.721   3.998 -0.4695 -0.8497 -0.0319
 4421SOL     OW24191   5.225   1.688   3.211  0.7094 -0.7258  0.6433
 4421SOL    HW124192   5.194   1.783   3.206  0.3912 -0.8908 -0.5311
 4421SOL    HW224193   5.231   1.649   3.119 -1.1708 -2.4967  1.2183
 4422SOL     OW24194   4.211   1.134   0.296 -0.7842  0.0668 -0.3067
 4422SOL    HW124195   4.162   1.194   0.233 -1.5080 -1.6054 -1.3703
 4422SOL    HW224196   4.264   1.067   0.244  0.3172 -0.0023  0.8642
 4423SOL     OW24197   0.415   7.768   0.899  0.1646 -0.7611  0.5566
 4423SOL    HW124198   0.415   7.779   0.998  1.6731  0.5142  0.4309
 4423SOL    HW224199   0.324   7.793   0.863 -0.6774 -2.1298  1.6841
 4424SOL     OW24200   9.554   0.948   3.179  0.9215 -0.1811  0.3646
 4424SOL    HW124201   9.644   0.931   3.220 -0.3958 -3.5891  1.9894
 4424SOL    HW224202   9.494   0.989   3.248  0.6522  0.2729 -0.1399
 4425SOL     OW24203   8.985   5.552   3.515 -0.4395  0.2171 -0.1564
 4425SOL    HW124204   8.906   5.491   3.519 -0.0630 -0.2003  1.1013
 4425SOL    HW224205   8.984   5.615   3.593  0.2133  0.5231 -0.3850
 4426SOL     OW24206   1.353   2.580   5.434 -0.2066  0.2178 -0.5406
 4426SOL    HW124207   1.354   2.515   5.511  1.2191 -0.2606 -0.9376
 4426SOL    HW224208   1.447   2.600   5.407 -0.6803  1.2633 -1.4311
 4427SOL     OW24209   7.061   8.119   1.909  0.5458  0.4871 -0.4969
 4427SOL    HW124210   7.064   8.217   1.928 -2.1746  0.4847  0.2009
 4427SOL    HW224211   7.072   8.104   1.811 -0.7136  1.6350 -0.8288
 4428SOL     OW24212   2.934   8.132   1.315 -0.2834 -0.1601 -0.6141
 4428SOL    HW124213   2.964   8.105   1.406  0.3796 -1.3276 -1.1703
 4428SOL    HW224214   2.990   8.209   1.283  0.9036 -1.1395 -0.9028
 4429SOL     OW24215   6.600   1.139   2.776  0.5383 -0.5885 -0.4748
 4429SOL    HW124216   6.561   1.221   2.818 -1.5719 -1.7604 -0.0939
 4429SOL    HW224217   6.569   1.132   2.682  0.2572 -1.2558 -0.3328
 4430SOL     OW24218   9.565   0.935   2.460  0.1919  0.4307  0.4868
 4430SOL    HW124219   9.584   0.914   2.364 -0.1210  0.3178  0.4479
 4430SOL    HW224220   9.510   0.861   2.500 -0.1075  0.7185  0.6137
 4431SOL     OW24221   3.191   1.627   0.425 -0.5450  0.1728 -0.8108
 4431SOL    HW124222   3.184   1.727   0.426  0.4967  0.2700 -1.5460
 4431SOL    HW224223   3.245   1.596   0.504 -1.5765  0.1183 -0.1181
 4432SOL     OW24224   4.227   9.519   3.948 -0.1926 -0.2268 -0.1825
 4432SOL    HW124225   4.198   9.506   4.043  0.7306  2.2405  0.4629
 4432SOL    HW224226   4.149   9.553   3.894 -0.4860 -0.7988 -0.1235
 4433SOL     OW24227   9.855   5.114   1.918  0.0306 -0.1689  0.8170
 4433SOL    HW124228   9.835   5.038   1.980 -0.5911  0.1104  0.9645
 4433SOL    HW224229   9.950   5.143   1.930  0.3983 -1.1935  0.4620
 4434SOL     OW24230   4.516   2.150   1.525  0.3736  0.6546 -0.4841
 4434SOL    HW124231   4.592   2.130   1.587  1.2810  4.4731 -0.1921
 4434SOL    HW224232   4.506   2.076   1.459  3.8956 -0.3075 -0.0570
 4435SOL     OW24233   5.628   2.234   2.542 -0.2264 -0.2359  0.1632
 4435SOL    HW124234   5.650   2.140   2.515  1.7089  0.5069 -1.0086
 4435SOL    HW224235   5.631   2.293   2.461  0.2891  1.1177  1.1483
 4436SOL     OW24236   2.665   5.137   5.539 -0.4366  0.2055 -0.0947
 4436SOL    HW124237   2.757   5.108   5.511 -0.4508 -0.1342  0.2075
 4436SOL    HW224238   2.650   5.231   5.510 -0.4092 -0.1081 -1.1297
 4437SOL     OW24239   7.584   4.700   4.920 -0.5361  0.0407  0.1502
 4437SOL    HW124240   7.607   4.679   4.824  0.3505 -0.8019  0.5310
 4437SOL    HW224241   7.662   4.676   4.978 -1.3665 -0.2131  1.1720
 4438SOL     OW24242   2.028   5.432   0.724  0.1320  0.2250  0.5969
 4438SOL    HW124243   1.950   5.387   0.768  0.0296  0.1112  0.3004
 4438SOL    HW224244   2.113   5.394   0.760  0.0639  1.0510  1.6540
 4439SOL     OW24245   2.837   0.687   2.251 -0.2500 -0.3333  0.2834
 4439SOL    HW124246   2.933   0.703   2.274 -0.5312 -0.0304  1.2677
 4439SOL    HW224247   2.778   0.722   2.325 -1.0349 -2.5831  0.7505
 4440SOL     OW24248   0.239   0.935   1.942 -0.3659  0.0107  0.0735
 4440SOL    HW124249   0.334   0.961   1.924 -0.6590 -0.1002 -1.7211
 4440SOL    HW224250   0.180   1.015   1.932 -0.9112 -0.6708 -2.6298
 4441SOL     OW24251   6.013   6.968   3.856  0.0256 -0.7249  0.5280
 4441SOL    HW124252   5.949   6.899   3.822 -0.7832  0.9277 -1.4850
 4441SOL    HW224253   5.965   7.056   3.862  1.7838  0.2671  0.2008
 4442SOL     OW24254   4.047   6.423   2.101 -0.3777  0.3474 -0.3433
 4442SOL    HW124255   4.023   6.336   2.143  0.5392  0.1550 -0.2163
 4442SOL    HW224256   4.065   6.410   2.004 -2.7852  0.8412 -0.9007
 4443SOL     OW24257   4.790   0.361   0.421  0.0683 -0.5155  0.0101
 4443SOL    HW124258   4.819   0.375   0.327  2.5011  1.8840  1.0446
 4443SOL    HW224259   4.699   0.402   0.434  0.8737  1.5644 -0.6621
 4444SOL     OW24260   6.450   0.402   2.714  0.5109  0.1884  0.1534
 4444SOL    HW124261   6.549   0.396   2.723  0.4715  0.5275  0.7680
 4444SOL    HW224262   6.407   0.380   2.801  0.0160 -0.8211 -0.3417
 4445SOL     OW24263   2.763   8.133   2.042  0.3241  0.1286  0.1897
 4445SOL    HW124264   2.789   8.088   2.128  0.9532  0.2216  0.0466
 4445SOL    HW224265   2.670   8.107   2.018 -0.2452  0.9337  1.4605
 4446SOL     OW24266   0.043   6.561   0.538  0.2203 -0.1493 -0.4733
 4446SOL    HW124267   0.045   6.472   0.494 -1.4575 -1.1756  1.4543
 4446SOL    HW224268   0.102   6.559   0.619 -1.6417 -0.2615  0.9033
 4447SOL     OW24269   4.747   0.702   0.044 -0.4462  0.7928 -0.1376
 4447SOL    HW124270   4.779   0.633   0.110  0.3720  1.5179  0.2348
 4447SOL    HW224271   4.781   0.678  -0.047  1.0026  1.4387  0.2195
 4448SOL     OW24272   7.477   9.098   3.235  0.1859 -0.3540  0.1915
 4448SOL    HW124273   7.399   9.102   3.298  1.4521 -0.4119  1.8098
 4448SOL    HW224274   7.491   9.187   3.193 -1.1048 -0.4940 -0.5576
 4449SOL     OW24275   4.987   6.252   1.793 -0.1834  0.1347 -0.6091
 4449SOL    HW124276   5.021   6.340   1.759  1.5983 -0.7639 -1.2011
 4449SOL    HW224277   4.965   6.260   1.890 -2.8358  2.0203 -1.3259
 4450SOL     OW24278   3.281   8.539   4.196 -0.2612 -0.5438 -0.3906
 4450SOL    HW124279   3.230   8.453   4.192  0.6460 -1.0782 -0.5579
 4450SOL    HW224280   3.278   8.584   4.107 -0.4513 -0.5606 -0.3929
 4451SOL     OW24281   7.560   5.168   4.710 -0.0562  0.6715  0.1020
 4451SOL    HW124282   7.507   5.145   4.792 -0.0160 -1.0663 -0.3388
 4451SOL    HW224283   7.499   5.209   4.642 -0.3864  0.7061  0.4156
 4452SOL     OW24284   2.198   2.881   1.538  0.5185 -0.0213 -0.3109
 4452SOL    HW124285   2.176   2.979   1.530 -2.3025 -0.5801  0.2100
 4452SOL    HW224286   2.179   2.835   1.451  2.7228  0.0089 -0.8480
 4453SOL     OW24287   0.394   3.038   4.763  0.1466  0.7633  0.3139
 4453SOL    HW124288   0.461   3.091   4.815  1.4464 -0.8027  0.2971
 4453SOL    HW224289   0.350   2.972   4.823 -0.8190  1.2509  0.1480
 4454SOL     OW24290   9.885   7.129   1.922  0.2837  0.4913  0.3981
 4454SOL    HW124291   9.941   7.058   1.966  0.4223  0.5108  0.2526
 4454SOL    HW224292   9.823   7.169   1.990  1.0407  1.0611  0.7676
 4455SOL     OW24293   0.727   3.834   4.992 -0.1430  0.1861 -0.7892
 4455SOL    HW124294   0.763   3.816   5.083 -1.4536  0.0598 -0.2770
 4455SOL    HW224295   0.717   3.747   4.943 -0.1378  0.1769 -0.7744
 4456SOL     OW24296   0.445   9.361   4.231 -0.0592 -0.0611  0.4087
 4456SOL    HW124297   0.513   9.426   4.265 -1.4035  1.8290 -0.4330
 4456SOL    HW224298   0.383   9.337   4.306  0.9575 -1.0869  0.9446
 4457SOL     OW24299   8.539   9.568   3.870 -0.2105  0.4956  0.2222
 4457SOL    HW124300   8.563   9.493   3.932  1.1992  1.2157  0.5712
 4457SOL    HW224301   8.528   9.532   3.777 -0.0969 -0.2418  0.4954
 4458SOL     OW24302   7.013   1.369   0.682 -0.3332 -0.2963  0.3046
 4458SOL    HW124303   7.032   1.336   0.590 -0.0236  2.3531 -0.6493
 4458SOL    HW224304   6.952   1.306   0.730 -0.2630 -1.8311 -1.6199
 4459SOL     OW24305   3.382   7.416   1.173 -0.8372 -0.2039 -0.3757
 4459SOL    HW124306   3.342   7.384   1.259 -1.6007  0.3220 -0.5282
 4459SOL    HW224307   3.339   7.503   1.147 -0.8052 -0.4991 -1.4336
 4460SOL     OW24308   0.529   7.431   3.921 -0.3522 -0.7291  0.4923
 4460SOL    HW124309   0.445   7.482   3.940  1.3183  1.9245  1.0051
 4460SOL    HW224310   0.532   7.406   3.824 -1.1311  0.3271  0.1876
 4461SOL     OW24311   2.796   1.732   2.216  0.2561 -0.1458  0.2827
 4461SOL    HW124312   2.841   1.684   2.140  0.1264  0.2580 -0.0512
 4461SOL    HW224313   2.781   1.669   2.292  0.3048 -0.5744 -0.0656
 4462SOL     OW24314   3.527   9.052   0.315  0.0551 -0.4399  0.4630
 4462SOL    HW124315   3.568   9.095   0.235  0.4748 -0.5001  0.6462
 4462SOL    HW224316   3.478   9.121   0.368 -0.9552 -0.5549 -0.2994
 4463SOL     OW24317   1.234   7.187   1.714 -0.1546 -0.0930 -0.1804
 4463SOL    HW124318   1.166   7.225   1.776 -0.2284  0.5003 -0.6227
 4463SOL    HW224319   1.190   7.120   1.653 -0.0698 -0.7183  0.4414
 4464SOL     OW24320   8.068   1.723   4.029 -0.6583 -0.1014  0.2981
 4464SOL    HW124321   8.050   1.667   3.948 -0.1396 -0.0300  0.1308
 4464SOL    HW224322   8.046   1.818   4.009 -1.8707 -0.2909  0.6938
 4465SOL     OW24323   0.924   9.959   2.886  0.6259 -0.3093 -0.3393
 4465SOL    HW124324   0.941   9.901   2.966  0.2998 -1.6044 -1.1845
 4465SOL    HW224325   0.844   9.924   2.837  1.1549  0.1424 -1.5336
 4466SOL     OW24326   9.585   0.161   5.598  0.0817  0.6722  0.3439
 4466SOL    HW124327   9.685   0.167   5.593  0.1085  1.0753  1.3429
 4466SOL    HW224328   9.546   0.193   5.512  0.8670 -1.1611 -0.7357
 4467SOL     OW24329   2.084   3.259   4.128  0.2818  0.4260  0.0229
 4467SOL    HW124330   2.151   3.286   4.059  1.3972  1.5768  1.5234
 4467SOL    HW224331   2.113   3.292   4.218 -1.2721 -0.8320  1.0198
 4468SOL     OW24332   7.268   9.849   1.119  0.3537 -0.8608  0.2469
 4468SOL    HW124333   7.273   9.943   1.085  0.4367 -0.9920 -0.1057
 4468SOL    HW224334   7.361   9.811   1.125  0.2353 -1.3403 -0.7977
 4469SOL     OW24335   3.348   2.106   4.027 -0.1699  0.0916 -0.7474
 4469SOL    HW124336   3.378   2.014   4.000  0.9465 -0.1221  1.0924
 4469SOL    HW224337   3.248   2.109   4.031 -0.2836 -0.4574 -2.7529
 4470SOL     OW24338   3.237   2.494   1.590  0.3411  0.1602 -0.3581
 4470SOL    HW124339   3.293   2.472   1.670  1.3294  1.9319 -0.5374
 4470SOL    HW224340   3.262   2.584   1.556 -2.2716  0.7781 -0.7650
 4471SOL     OW24341   8.845   3.256   3.753  0.7599 -0.2244 -0.2957
 4471SOL    HW124342   8.812   3.176   3.702  0.4372  1.0965 -2.2068
 4471SOL    HW224343   8.785   3.271   3.832 -1.2994  0.2014 -1.9075
 4472SOL     OW24344   0.430   9.833   0.461 -0.4329  0.9460  0.2989
 4472SOL    HW124345   0.485   9.811   0.381 -0.6096  0.5040  0.2971
 4472SOL    HW224346   0.348   9.775   0.463  0.2840 -0.0508  1.5618
 4473SOL     OW24347   7.302   8.683   4.295  0.2404 -0.2046 -0.2708
 4473SOL    HW124348   7.395   8.684   4.258 -1.1033  0.1462 -3.8096
 4473SOL    HW224349   7.264   8.591   4.290  0.2285 -0.2774  0.8436
 4474SOL     OW24350   3.769   5.067   2.435 -0.3034 -0.1984  0.1565
 4474SOL    HW124351   3.691   5.080   2.374 -0.5333  0.0068  0.4892
 4474SOL    HW224352   3.844   5.026   2.385 -0.6711 -0.5151 -0.1364
 4475SOL     OW24353   0.591   0.039   3.872  0.2576  0.9589  0.1287
 4475SOL    HW124354   0.689   0.028   3.890  0.1868  0.0202 -0.0133
 4475SOL    HW224355   0.543   0.057   3.958  0.5520  1.3877  0.2024
 4476SOL     OW24356   1.319   2.979   3.996  0.2319 -0.4404 -0.0316
 4476SOL    HW124357   1.382   2.921   3.943  0.4425 -0.5961  0.3877
 4476SOL    HW224358   1.232   2.986   3.948  0.3237 -0.8208 -0.2550
 4477SOL     OW24359   3.835   9.238   5.513 -0.3452 -0.6652  0.6800
 4477SOL    HW124360   3.813   9.332   5.540  1.8880 -0.3362  1.4684
 4477SOL    HW224361   3.858   9.236   5.416 -2.8509 -0.8651  0.0546
 4478SOL     OW24362   9.819   4.142   3.212  0.1374  0.0086  0.3454
 4478SOL    HW124363   9.816   4.043   3.197 -0.4482  0.2160 -0.9033
 4478SOL    HW224364   9.900   4.180   3.169  0.7369 -0.0255  1.4332
 4479SOL     OW24365   6.664   0.007   1.481  0.0498  0.6662 -0.2024
 4479SOL    HW124366   6.637   0.064   1.559  0.2472 -1.5446  1.5187
 4479SOL    HW224367   6.602  -0.072   1.475  1.0543 -0.0477 -1.2744
 4480SOL     OW24368   0.097   6.593   1.618  0.1177  0.0288  0.4466
 4480SOL    HW124369   0.105   6.661   1.545 -1.4123 -0.0299  0.1976
 4480SOL    HW224370   0.167   6.523   1.606  0.0255  0.1417 -0.8433
 4481SOL     OW24371   4.737   9.511   2.633  0.1950 -0.5096 -0.2846
 4481SOL    HW124372   4.735   9.495   2.534 -0.3455 -0.9921 -0.2062
 4481SOL    HW224373   4.677   9.588   2.655  2.2486  1.1886 -0.5898
 4482SOL     OW24374   2.190   9.586   0.392 -0.2095 -0.1981 -0.6555
 4482SOL    HW124375   2.139   9.672   0.388 -0.5034 -0.2502  1.4614
 4482SOL    HW224376   2.183   9.547   0.483 -0.5225 -2.7726 -1.7232
 4483SOL     OW24377   9.274   1.792   0.200 -0.4009 -0.3371 -0.1252
 4483SOL    HW124378   9.248   1.863   0.265  0.4573  1.2684 -1.4886
 4483SOL    HW224379   9.332   1.724   0.246  1.4498  1.5759  0.4698
 4484SOL     OW24380   3.404   2.784   5.087 -0.1781  0.0314 -0.4143
 4484SOL    HW124381   3.360   2.849   5.149  1.0442  0.4540  0.0139
 4484SOL    HW224382   3.377   2.691   5.111 -0.7601  0.2788 -0.0981
 4485SOL     OW24383   0.330   3.312   2.566 -0.2511  0.0823  0.2155
 4485SOL    HW124384   0.429   3.325   2.574  0.0234 -1.7761 -0.0784
 4485SOL    HW224385   0.309   3.274   2.476 -1.3767  1.6678 -0.2243
 4486SOL     OW24386   1.750   7.156   2.669  0.3697 -0.3189 -1.0098
 4486SOL    HW124387   1.650   7.155   2.666  0.3134 -1.5482  1.0378
 4486SOL    HW224388   1.785   7.064   2.652  1.1994  0.1944 -2.2023
 4487SOL     OW24389   7.573   2.211   3.525  0.1515  0.0799  0.0393
 4487SOL    HW124390   7.524   2.288   3.482 -1.0406  0.0660  1.3521
 4487SOL    HW224391   7.511   2.133   3.532  1.4962 -1.1844 -1.7068
 4488SOL     OW24392   8.069   0.019   4.612 -0.1320  0.4150  0.1250
 4488SOL    HW124393   8.100   0.102   4.658  0.1108  0.3580  0.0646
 4488SOL    HW224394   8.148  -0.032   4.578 -0.2540 -0.0683  0.5603
 4489SOL     OW24395   4.070   7.492   1.917  0.4370 -0.2808  0.3240
 4489SOL    HW124396   4.032   7.564   1.974  0.5848  0.4667 -0.4973
 4489SOL    HW224397   4.122   7.428   1.973 -1.2347 -0.7940  1.3226
 4490SOL     OW24398   3.841   3.072   4.028  0.0262 -0.1131 -0.3745
 4490SOL    HW124399   3.789   3.046   3.946  0.1899 -1.4678 -0.0682
 4490SOL    HW224400   3.813   3.013   4.104  1.3157 -0.2043  0.0350
 4491SOL     OW24401   0.177   4.788   1.197  0.3766 -0.7374  0.3131
 4491SOL    HW124402   0.147   4.712   1.139 -0.9769 -0.9931  1.3070
 4491SOL    HW224403   0.101   4.853   1.207  0.5914 -0.7119  1.8097
 4492SOL     OW24404   8.652   6.336   3.513  0.0338 -0.0094 -0.1565
 4492SOL    HW124405   8.584   6.349   3.441 -0.7974  2.4031  1.0173
 4492SOL    HW224406   8.710   6.258   3.491 -2.3759 -1.3986 -1.7552
 4493SOL     OW24407   4.441   4.618   1.720 -0.3508 -0.5010 -0.1886
 4493SOL    HW124408   4.434   4.538   1.780 -0.8437 -1.4081 -1.4384
 4493SOL    HW224409   4.383   4.605   1.640  0.2249  0.7398 -0.8209
 4494SOL     OW24410   0.131   8.917   5.307  0.1415  0.0886  0.3577
 4494SOL    HW124411   0.183   8.957   5.383 -1.2564  0.1657  1.2927
 4494SOL    HW224412   0.167   8.826   5.287  1.2628  0.5162  0.3363
 4495SOL     OW24413   3.575   2.647   3.693  0.2720 -0.1157 -0.7842
 4495SOL    HW124414   3.499   2.683   3.640 -3.0856 -1.4742  2.8311
 4495SOL    HW224415   3.618   2.722   3.744 -0.8230  0.1873 -0.2845
 4496SOL     OW24416   4.662   0.004   3.057  0.3660  0.0378  0.0504
 4496SOL    HW124417   4.664  -0.095   3.067  2.6860  0.0684  0.1221
 4496SOL    HW224418   4.604   0.043   3.128 -1.3565 -1.3144 -0.5710
 4497SOL     OW24419   0.819   1.505   2.863 -0.2900 -0.2525 -0.0342
 4497SOL    HW124420   0.790   1.561   2.785  0.0635 -0.3558 -0.2440
 4497SOL    HW224421   0.900   1.546   2.904  1.2326 -1.7154 -1.4787
 4498SOL     OW24422   2.432   8.566   3.791 -0.7151  0.5895 -0.2086
 4498SOL    HW124423   2.459   8.570   3.887 -0.4048  0.6821 -0.2996
 4498SOL    HW224424   2.502   8.609   3.735 -0.8526  0.4533 -0.4859
 4499SOL     OW24425   9.811   3.866   2.158 -0.6508  0.0424  0.2685
 4499SOL    HW124426   9.779   3.862   2.063  1.0346  2.6804 -0.4597
 4499SOL    HW224427   9.773   3.788   2.209 -2.7122 -0.6494 -2.1922
 4500SOL     OW24428   1.031   3.745   4.135  0.2235  0.4202  0.6591
 4500SOL    HW124429   1.065   3.766   4.227  1.5262 -1.5900  0.6708
 4500SOL    HW224430   1.042   3.826   4.077  1.4840  1.0233  1.6947
 4501SOL     OW24431   2.238   2.134   0.695  0.8909 -0.0176  0.3106
 4501SOL    HW124432   2.231   2.042   0.733 -0.5042 -0.0285  0.0631
 4501SOL    HW224433   2.294   2.191   0.755  1.0610 -0.7989  0.8994
 4502SOL     OW24434   1.394   7.131   0.304 -0.0211 -0.2754  0.3177
 4502SOL    HW124435   1.341   7.067   0.359  0.9229  0.4734  2.1494
 4502SOL    HW224436   1.461   7.081   0.250 -1.3737 -1.0698 -0.6689
 4503SOL     OW24437   3.514   7.106   1.484  0.1185  0.4907 -0.4199
 4503SOL    HW124438   3.443   7.058   1.432 -0.4314  0.2413  0.5390
 4503SOL    HW224439   3.534   7.194   1.440  0.0560  0.0466 -1.3482
 4504SOL     OW24440   3.319   8.086   5.320 -0.2179 -0.2845 -0.0344
 4504SOL    HW124441   3.353   8.057   5.409  2.6728 -0.5076 -1.1531
 4504SOL    HW224442   3.392   8.132   5.269 -2.0238  0.5211 -2.0125
 4505SOL     OW24443   1.716   0.478   1.744  0.2940  0.0309 -0.0676
 4505SOL    HW124444   1.687   0.497   1.837 -1.2094  1.4064 -0.7783
 4505SOL    HW224445   1.808   0.515   1.729  0.3615  0.1873  0.7283
 4506SOL     OW24446   9.370   7.726   2.694  0.2923 -0.5005  0.5392
 4506SOL    HW124447   9.449   7.718   2.756  0.2221 -0.5009  0.6299
 4506SOL    HW224448   9.290   7.686   2.738  0.4300 -1.2640  0.1051
 4507SOL     OW24449   9.908   9.665   0.937 -0.1884  0.7629 -0.2016
 4507SOL    HW124450   9.850   9.584   0.946 -1.3910  1.8271  2.1521
 4507SOL    HW224451   9.951   9.666   0.847  1.0440 -3.2451  0.2787
 4508SOL     OW24452   0.349   9.604   1.599 -0.6838  0.3371  0.0457
 4508SOL    HW124453   0.399   9.655   1.529 -1.8948  0.4869 -0.7260
 4508SOL    HW224454   0.411   9.541   1.646  0.3669  1.0210 -0.4235
 4509SOL     OW24455   7.233   2.978   0.621 -0.0322  0.2107  0.1113
 4509SOL    HW124456   7.282   2.894   0.641 -0.9099 -0.1111  0.9330
 4509SOL    HW224457   7.211   3.025   0.706  0.2429  1.1536 -0.3279
 4510SOL     OW24458   8.732   2.932   1.785  0.2031  0.5677  0.4368
 4510SOL    HW124459   8.799   2.877   1.834  0.1237 -0.0684 -0.1669
 4510SOL    HW224460   8.762   3.028   1.783  1.3304  0.2118 -0.2518
 4511SOL     OW24461   2.471   4.039   0.907  0.2157 -0.0757 -0.3463
 4511SOL    HW124462   2.555   4.079   0.943 -0.4648  0.1201  1.0647
 4511SOL    HW224463   2.395   4.103   0.922 -0.4991 -0.9991  0.0031
 4512SOL     OW24464   4.071   2.142   0.459 -0.5019  0.0676  0.0106
 4512SOL    HW124465   4.125   2.063   0.488 -1.0025 -0.0321  0.6765
 4512SOL    HW224466   3.990   2.110   0.410  0.1423  0.2232 -1.1885
 4513SOL     OW24467   7.958   2.214   1.693 -0.5136  0.8034 -0.4633
 4513SOL    HW124468   8.034   2.236   1.754 -1.9527  1.0527  1.2700
 4513SOL    HW224469   7.871   2.227   1.741 -1.6235 -1.1347 -1.8679
 4514SOL     OW24470   6.859   1.283   4.059 -0.1326  0.1675  0.3978
 4514SOL    HW124471   6.848   1.373   4.100 -1.3336  0.3664 -0.3146
 4514SOL    HW224472   6.822   1.284   3.966  1.5205 -0.5716 -0.2897
 4515SOL     OW24473   7.545   9.831   4.528 -0.2844 -0.2765 -0.3912
 4515SOL    HW124474   7.602   9.890   4.585  0.6803 -1.9693  0.4150
 4515SOL    HW224475   7.558   9.856   4.432 -1.6923  2.3905  0.0481
 4516SOL     OW24476   6.108   7.106   1.858  0.0425  0.0365 -0.0461
 4516SOL    HW124477   6.048   7.137   1.784 -0.3838 -1.4945 -0.3607
 4516SOL    HW224478   6.086   7.156   1.941 -0.5377  0.6817 -0.5770
 4517SOL     OW24479   2.794   4.894   0.064 -0.6795 -0.8238 -0.1514
 4517SOL    HW124480   2.885   4.895   0.021 -0.9023  2.0594 -0.6432
 4517SOL    HW224481   2.744   4.976   0.038 -2.6182 -1.3045  1.9090
 4518SOL     OW24482   6.697   4.242   5.491  0.1600  0.2281 -0.0558
 4518SOL    HW124483   6.744   4.294   5.562 -0.9896  2.0535 -0.6111
 4518SOL    HW224484   6.763   4.188   5.439  1.1582 -0.1416  1.5738
 4519SOL     OW24485   6.913   0.223   0.284 -0.4266  0.2043 -0.1278
 4519SOL    HW124486   6.919   0.160   0.361 -0.1998 -1.3548 -1.3922
 4519SOL    HW224487   6.985   0.202   0.217 -1.2358  0.8797 -1.2345
 4520SOL     OW24488   1.316   4.580   0.589 -0.1231 -0.2874 -0.1574
 4520SOL    HW124489   1.309   4.674   0.622 -1.3446 -0.0697 -0.9657
 4520SOL    HW224490   1.294   4.578   0.491 -0.3026 -1.4334 -0.0982
 4521SOL     OW24491   4.455   3.990   2.032  0.0089 -0.4077 -0.4940
 4521SOL    HW124492   4.369   3.951   2.066 -0.3803  1.3068  0.5473
 4521SOL    HW224493   4.473   3.955   1.940 -2.2091 -0.1939 -1.0407
 4522SOL     OW24494   9.631   2.290   0.545 -0.4081 -0.4466  0.1202
 4522SOL    HW124495   9.609   2.222   0.476  1.3568 -0.3584 -0.5682
 4522SOL    HW224496   9.547   2.328   0.584 -1.4240  0.1820 -2.6319
 4523SOL     OW24497   1.827   6.788   5.506 -0.4989  0.8606 -0.1850
 4523SOL    HW124498   1.787   6.780   5.415 -0.8058 -0.3884  0.0421
 4523SOL    HW224499   1.814   6.881   5.541 -1.3457  1.0423 -0.9678
 4524SOL     OW24500   2.712   4.269   2.815  0.7545  0.2189  0.1795
 4524SOL    HW124501   2.789   4.331   2.803  1.5486 -0.3571  2.1972
 4524SOL    HW224502   2.665   4.291   2.900  0.5175 -1.3998  0.4684
 4525SOL     OW24503   8.972   4.285   3.140 -0.4333  0.4388 -0.1644
 4525SOL    HW124504   9.008   4.356   3.201  0.1137 -0.2559  0.3266
 4525SOL    HW224505   8.884   4.253   3.176 -0.6151  0.7736 -0.3116
 4526SOL     OW24506   2.018   1.437   0.776  0.2924 -0.3741 -0.2088
 4526SOL    HW124507   1.989   1.465   0.868  1.7458 -0.6525  0.3548
 4526SOL    HW224508   1.943   1.389   0.731 -1.1941  1.7440 -0.0388
 4527SOL     OW24509   9.625   3.018   1.901  0.6002  0.4349  0.4483
 4527SOL    HW124510   9.651   2.924   1.922  2.2498  0.2627 -2.0555
 4527SOL    HW224511   9.598   3.024   1.805  3.2861  3.0022 -0.2363
 4528SOL     OW24512   0.023   9.118   0.689  0.0932 -0.4176 -0.2377
 4528SOL    HW124513  -0.022   9.033   0.662  0.2535 -0.1010 -1.5587
 4528SOL    HW224514   0.096   9.098   0.754 -1.1071 -1.0699  0.9296
 4529SOL     OW24515   9.871   4.624   4.616 -0.0465 -0.5877  0.8362
 4529SOL    HW124516   9.850   4.532   4.585 -0.7669  0.2037 -1.0934
 4529SOL    HW224517   9.971   4.637   4.615  0.0061 -0.9906  0.0105
 4530SOL     OW24518   8.620   6.153   5.328 -0.8351  0.0062 -0.2082
 4530SOL    HW124519   8.561   6.114   5.258 -1.9969  0.2432  0.6187
 4530SOL    HW224520   8.629   6.252   5.314 -0.1187 -0.1277 -0.7024
 4531SOL     OW24521   1.808   4.169   3.671 -0.8897 -0.2682 -0.3691
 4531SOL    HW124522   1.712   4.190   3.690 -0.4646  1.1277  0.3269
 4531SOL    HW224523   1.841   4.228   3.597  0.1261  1.1153  1.1340
 4532SOL     OW24524   1.536   6.540   2.990  0.7264 -0.1364 -0.3923
 4532SOL    HW124525   1.612   6.538   2.926  0.7217 -2.4546 -0.3771
 4532SOL    HW224526   1.550   6.613   3.057  1.8259  0.8635 -1.6972
 4533SOL     OW24527   2.365   1.824   3.130  0.0323 -0.3317  0.1115
 4533SOL    HW124528   2.370   1.772   3.216  0.2023  0.8252  0.8065
 4533SOL    HW224529   2.283   1.796   3.079  1.0684 -2.5733 -0.3785
 4534SOL     OW24530   9.459   5.420   0.873 -0.2646  0.0218  0.0404
 4534SOL    HW124531   9.483   5.483   0.947  1.5898 -1.0275  0.3836
 4534SOL    HW224532   9.473   5.464   0.785 -1.1786  0.8403  0.3062
 4535SOL     OW24533   3.366   2.311   0.580 -0.4044 -0.4571  0.1174
 4535SOL    HW124534   3.387   2.231   0.523  0.3468 -0.2911  0.1565
 4535SOL    HW224535   3.345   2.281   0.673  0.3409 -0.5899  0.2539
 4536SOL     OW24536   1.511   2.583   4.341  0.2395 -0.0860 -0.0270
 4536SOL    HW124537   1.607   2.603   4.361  0.2762  0.3142 -0.5915
 4536SOL    HW224538   1.506   2.509   4.274  0.1361 -0.6556  0.5989
 4537SOL     OW24539   2.085   5.308   4.356  0.2587  0.7200  0.3304
 4537SOL    HW124540   2.054   5.280   4.447  3.5497 -0.3760  1.1786
 4537SOL    HW224541   2.010   5.354   4.308 -2.0270 -0.1334  2.9556
 4538SOL     OW24542   9.483   9.719   1.218 -0.5987 -0.1117  0.1853
 4538SOL    HW124543   9.580   9.732   1.194 -0.2346 -0.2581  1.5076
 4538SOL    HW224544   9.451   9.799   1.270 -1.7700  0.8495 -1.9616
 4539SOL     OW24545   6.359   0.013   2.475  0.3022  0.1507  0.3389
 4539SOL    HW124546   6.459   0.014   2.484  0.4426  1.2531 -1.1080
 4539SOL    HW224547   6.330  -0.076   2.440  0.7014 -0.4264  1.4482
 4540SOL     OW24548   4.859   9.920   5.172  0.0647 -0.4252  0.0012
 4540SOL    HW124549   4.817   9.859   5.238  1.1519 -1.1272  0.0562
 4540SOL    HW224550   4.850  10.015   5.203 -1.8147 -0.5320 -0.1904
 4541SOL     OW24551   1.462   1.303   4.065 -0.5196 -0.0938  0.3555
 4541SOL    HW124552   1.498   1.397   4.070  1.7655 -0.9485  0.3778
 4541SOL    HW224553   1.404   1.294   3.984 -0.3373  1.1993  0.0617
 4542SOL     OW24554   9.606   3.544   3.276 -0.0721 -0.0172 -0.0994
 4542SOL    HW124555   9.630   3.487   3.198 -0.0743  1.5087 -1.2432
 4542SOL    HW224556   9.598   3.487   3.358  1.5959 -1.3962 -0.8646
 4543SOL     OW24557   1.808   9.324   3.882 -0.1380  0.3072  0.2887
 4543SOL    HW124558   1.750   9.246   3.907  0.1934  0.4435  1.5192
 4543SOL    HW224559   1.892   9.291   3.839 -0.3648  0.0324  0.0525
 4544SOL     OW24560   7.729   7.124   2.632  0.3231  0.1876  0.0904
 4544SOL    HW124561   7.678   7.208   2.650 -0.8123 -0.9109  2.2020
 4544SOL    HW224562   7.800   7.113   2.702 -2.0261 -2.5183  2.1384
 4545SOL     OW24563   7.054   1.101   1.001  0.2970 -0.3747 -0.4490
 4545SOL    HW124564   7.017   1.147   0.920  2.4789  0.2201 -1.1510
 4545SOL    HW224565   7.075   1.006   0.979 -0.3721 -0.5886 -0.1798
 4546SOL     OW24566   0.274   8.036   5.285  0.0252 -0.5297 -0.2684
 4546SOL    HW124567   0.188   8.047   5.335  0.1835  0.2557 -0.1725
 4546SOL    HW224568   0.310   7.944   5.302 -0.5213 -0.6813  0.1134
 4547SOL     OW24569   4.222   2.936   0.515 -0.3636 -0.2172  0.0765
 4547SOL    HW124570   4.140   2.967   0.466  0.3766 -1.1911 -1.8412
 4547SOL    HW224571   4.213   2.839   0.536  0.6845 -0.5506 -0.9751
 4548SOL     OW24572   3.504   4.548   0.163 -0.5093 -0.0600  0.0201
 4548SOL    HW124573   3.547   4.627   0.208  2.1412 -1.7559  0.5826
 4548SOL    HW224574   3.479   4.573   0.069  0.9383  1.2508 -0.0414
 4549SOL     OW24575   6.379   9.284   1.408  0.8457 -0.1993 -0.1300
 4549SOL    HW124576   6.331   9.366   1.377 -0.8285 -0.4433  1.7011
 4549SOL    HW224577   6.403   9.227   1.329 -0.2676  0.8123 -1.2104
 4550SOL     OW24578   3.690   1.710   0.806 -0.1078  0.1880 -0.2145
 4550SOL    HW124579   3.611   1.757   0.845  0.2556  0.8396 -0.2578
 4550SOL    HW224580   3.750   1.777   0.761  0.5727 -0.2741  0.0028
 4551SOL     OW24581   3.324   6.515   2.132 -0.1963  0.2265  0.7976
 4551SOL    HW124582   3.295   6.476   2.045  2.2330 -3.0913  1.3949
 4551SOL    HW224583   3.358   6.608   2.117 -1.7412  0.4607 -1.4426
 4552SOL     OW24584   6.530   9.830   1.260 -0.5481  0.3008 -0.2522
 4552SOL    HW124585   6.614   9.785   1.231 -0.8976 -0.7072  0.2686
 4552SOL    HW224586   6.471   9.844   1.181 -0.1616  0.4261 -0.5181
 4553SOL     OW24587   6.804   0.189   2.769  0.4942 -0.0243 -0.4633
 4553SOL    HW124588   6.760   0.278   2.774  0.2395 -0.1721 -0.0833
 4553SOL    HW224589   6.860   0.174   2.850  0.6589 -0.1457 -0.5983
 4554SOL     OW24590   0.902   3.141   5.136 -0.1811 -0.4151 -0.0325
 4554SOL    HW124591   0.997   3.165   5.156 -0.3447  0.3243 -0.1646
 4554SOL    HW224592   0.856   3.218   5.092 -1.2816 -0.2209  1.4325
 4555SOL     OW24593   0.726   0.548   0.067  0.1396 -0.2673  0.4099
 4555SOL    HW124594   0.750   0.645   0.067 -0.6903 -0.0574 -0.0119
 4555SOL    HW224595   0.637   0.536   0.022  0.2409 -1.2198  0.4646
 4556SOL     OW24596   2.082   1.326   4.128 -0.2708 -0.0445 -0.2017
 4556SOL    HW124597   2.105   1.337   4.225 -0.2670  0.2820 -0.2381
 4556SOL    HW224598   2.004   1.264   4.119  0.4590 -0.9812 -0.0655
 4557SOL     OW24599   2.625   6.024   1.342 -0.7568  0.5425 -0.1538
 4557SOL    HW124600   2.573   5.996   1.262 -1.0745  1.2645 -0.2061
 4557SOL    HW224601   2.579   5.993   1.425 -0.2379 -0.5165 -0.2611
 4558SOL     OW24602   0.385   2.999   1.492  0.1046 -0.7255  0.0611
 4558SOL    HW124603   0.358   3.082   1.541 -3.1782 -0.5985 -1.8144
 4558SOL    HW224604   0.400   3.021   1.396 -0.8692 -2.2674 -0.4692
 4559SOL     OW24605   9.696   3.422   2.545  0.0344 -0.7050 -0.4072
 4559SOL    HW124606   9.633   3.461   2.477 -0.3645 -0.0537  0.3275
 4559SOL    HW224607   9.656   3.339   2.582 -0.1566 -0.5725 -0.3160
 4560SOL     OW24608   3.806   7.171   1.887  0.2991 -0.0805  0.2136
 4560SOL    HW124609   3.851   7.224   1.815 -1.6002  0.4870 -0.6004
 4560SOL    HW224610   3.808   7.074   1.863  0.8089 -0.0228  0.0247
 4561SOL     OW24611   7.636   9.199   2.415  0.4698  0.1558  0.3924
 4561SOL    HW124612   7.690   9.275   2.451  2.5006 -1.2290  0.3156
 4561SOL    HW224613   7.635   9.204   2.315  1.6880 -0.6427  0.3356
 4562SOL     OW24614   9.082   0.392   1.799  0.5543 -0.0715  0.1384
 4562SOL    HW124615   9.130   0.446   1.868  1.6703 -2.7407  1.5188
 4562SOL    HW224616   9.091   0.435   1.710  1.3067  2.0605  1.2229
 4563SOL     OW24617   2.702   2.608   3.799 -0.0800 -0.3908 -0.0815
 4563SOL    HW124618   2.684   2.588   3.896 -1.4969  1.5456  0.0852
 4563SOL    HW224619   2.679   2.528   3.744 -1.7515 -0.6662  0.9566
 4564SOL     OW24620   1.406   1.419   3.023 -0.2125 -0.2949 -0.3985
 4564SOL    HW124621   1.409   1.360   2.942  0.2668 -0.6509 -0.1247
 4564SOL    HW224622   1.311   1.430   3.053 -0.2890 -1.1246 -0.3111
 4565SOL     OW24623   2.005   1.246   3.210  0.0290  0.4689 -0.3260
 4565SOL    HW124624   1.918   1.288   3.236  0.1666 -0.2781  1.4381
 4565SOL    HW224625   2.065   1.316   3.170  0.2927  2.0483  2.6483
 4566SOL     OW24626   3.586   8.618   2.021  0.3625 -0.0784 -0.2256
 4566SOL    HW124627   3.614   8.525   2.044  1.3078  0.2174 -0.1844
 4566SOL    HW224628   3.518   8.650   2.088  0.9920 -0.2704  0.5107
 4567SOL     OW24629   3.135   8.285   3.798  0.2540  0.3321 -0.6847
 4567SOL    HW124630   3.178   8.315   3.714  0.0424  0.3535 -0.7854
 4567SOL    HW224631   3.076   8.206   3.780  0.8621 -0.1883 -0.4091
 4568SOL     OW24632   6.112   0.554   0.498  0.4165 -0.4031 -0.0579
 4568SOL    HW124633   6.118   0.641   0.449 -0.5289  0.5102  1.3822
 4568SOL    HW224634   6.189   0.545   0.560  0.2138 -0.3267  0.2054
 4569SOL     OW24635   8.832   1.623   3.124  0.0331 -0.4368  0.0139
 4569SOL    HW124636   8.873   1.698   3.176 -0.3938  0.1629 -0.5121
 4569SOL    HW224637   8.756   1.658   3.070 -0.0528 -1.2181 -0.3699
 4570SOL     OW24638   0.760   9.251   0.821 -0.0984 -0.0720  0.3375
 4570SOL    HW124639   0.781   9.339   0.779 -1.8859 -0.8576 -2.2804
 4570SOL    HW224640   0.815   9.179   0.778 -2.1098 -0.9193 -0.8843
 4571SOL     OW24641   7.182   9.474   4.797 -0.0544  0.2528 -0.0497
 4571SOL    HW124642   7.257   9.512   4.743 -1.1885 -1.1372 -2.6598
 4571SOL    HW224643   7.103   9.536   4.793  0.1644  0.5929  0.7915
 4572SOL     OW24644   9.482   8.872   4.409 -0.5569 -0.1561 -0.4200
 4572SOL    HW124645   9.515   8.860   4.503  2.0007 -0.2245 -1.2884
 4572SOL    HW224646   9.415   8.801   4.388  0.8579 -1.8023  0.4768
 4573SOL     OW24647   0.348   2.039   4.721 -0.4348  0.1761 -0.2794
 4573SOL    HW124648   0.342   2.040   4.821  0.7165  1.3496 -0.1951
 4573SOL    HW224649   0.379   1.949   4.690  1.4133  0.4693  0.6056
 4574SOL     OW24650   0.337   0.768   0.594  0.7458 -0.0745  0.4115
 4574SOL    HW124651   0.392   0.698   0.548  0.6198  0.7373 -1.0178
 4574SOL    HW224652   0.397   0.829   0.646  0.7888 -1.6827  2.3212
 4575SOL     OW24653   1.919   2.250   4.041 -0.2078 -0.1868  0.3639
 4575SOL    HW124654   2.009   2.231   4.080  0.5544  1.1042 -0.7118
 4575SOL    HW224655   1.863   2.299   4.109 -0.5122 -1.9938  1.4315
 4576SOL     OW24656   7.899   4.128   4.888 -0.3488 -0.3673 -0.1346
 4576SOL    HW124657   7.912   4.095   4.981 -1.1853  1.3134  0.5783
 4576SOL    HW224658   7.830   4.200   4.886 -0.3208 -0.3478 -2.0509
 4577SOL     OW24659   0.112   1.885   4.893  0.7886 -0.1986  0.2351
 4577SOL    HW124660   0.092   1.887   4.795  2.1485 -2.4446 -0.1146
 4577SOL    HW224661   0.204   1.920   4.908  0.1270  1.3306  0.8790
 4578SOL     OW24662   8.116   4.952   5.228 -0.0401 -0.1758 -0.1644
 4578SOL    HW124663   8.055   4.912   5.159  0.1547 -0.6004 -0.0969
 4578SOL    HW224664   8.066   5.019   5.282 -0.6239 -0.9556  0.2866
 4579SOL     OW24665   2.037   7.079   1.597 -0.2838  0.2224 -0.0333
 4579SOL    HW124666   2.007   7.170   1.625 -2.5494 -1.1956  2.3855
 4579SOL    HW224667   1.958   7.024   1.573  1.0142 -1.2901 -0.9253
 4580SOL     OW24668   5.814   0.051   2.645  0.0730 -0.2534 -0.1574
 4580SOL    HW124669   5.904   0.018   2.618 -0.3844 -0.2152 -1.7991
 4580SOL    HW224670   5.754  -0.026   2.664 -0.0972 -0.3126 -0.9367
 4581SOL     OW24671   1.840   4.793   1.891  0.8189 -0.1598  0.1824
 4581SOL    HW124672   1.874   4.718   1.947 -0.1017 -0.4920  0.3013
 4581SOL    HW224673   1.743   4.808   1.908  0.1536 -1.2290 -2.3597
 4582SOL     OW24674   1.932   0.779   5.259  0.0587 -0.2815  0.4674
 4582SOL    HW124675   1.973   0.868   5.280  2.2459 -1.1302 -0.1679
 4582SOL    HW224676   2.001   0.707   5.268 -2.1770 -2.2241  3.1013
 4583SOL     OW24677   9.746   8.718   4.731  0.4670  0.2566  0.4108
 4583SOL    HW124678   9.806   8.798   4.732  1.7982 -0.7118 -0.4660
 4583SOL    HW224679   9.742   8.681   4.638  0.4986 -1.1727  0.9733
 4584SOL     OW24680   0.945   6.184   4.906 -0.6419  0.4601  0.3083
 4584SOL    HW124681   1.008   6.116   4.943 -0.0019  0.7341 -0.2693
 4584SOL    HW224682   0.949   6.267   4.962 -0.9603  0.2593  0.6386
 4585SOL     OW24683   0.343   8.613   3.013 -0.4107  0.4596 -0.4774
 4585SOL    HW124684   0.279   8.607   3.089  1.7962 -0.8276  1.3599
 4585SOL    HW224685   0.376   8.707   3.004 -0.8773  0.6719  0.0044
 4586SOL     OW24686   3.942   3.280   2.395  0.0435  0.0839 -0.0751
 4586SOL    HW124687   3.899   3.250   2.480 -1.8023  1.1164 -0.6382
 4586SOL    HW224688   4.008   3.211   2.365  0.7853 -0.2444  2.2414
 4587SOL     OW24689   4.750   8.642   2.554 -0.3518  0.0029  0.1496
 4587SOL    HW124690   4.797   8.713   2.607 -0.8376  1.5573 -1.4635
 4587SOL    HW224691   4.678   8.602   2.611  1.4288 -0.8517  1.8746
 4588SOL     OW24692   0.042   6.981   4.024 -0.0088  0.6012 -0.6007
 4588SOL    HW124693   0.087   6.980   3.935  0.0405  0.1987 -0.5730
 4588SOL    HW224694   0.110   6.971   4.096 -0.1739 -0.3306 -0.5721
 4589SOL     OW24695   9.536   6.792   3.799 -0.0840 -0.2494  0.0248
 4589SOL    HW124696   9.629   6.781   3.764 -0.2907 -0.3899 -0.4744
 4589SOL    HW224697   9.476   6.826   3.727 -0.4229 -0.1522  0.3471
 4590SOL     OW24698   2.225   7.600   0.651 -0.5216 -0.0747  0.6112
 4590SOL    HW124699   2.311   7.625   0.696 -0.7764  0.0035  1.0512
 4590SOL    HW224700   2.177   7.683   0.623  0.4513 -0.1519 -1.3371
 4591SOL     OW24701   1.868   0.885   3.474  0.2893 -0.0135  0.1238
 4591SOL    HW124702   1.804   0.850   3.407 -1.5607  0.4565  1.5863
 4591SOL    HW224703   1.954   0.833   3.470 -0.5619 -1.3443 -1.1504
 4592SOL     OW24704   7.176   9.905   5.049 -0.4963  0.0867  0.2229
 4592SOL    HW124705   7.120   9.959   5.111  0.4825 -1.1289  2.2314
 4592SOL    HW224706   7.266   9.888   5.091  0.0421 -1.1053 -1.3490
 4593SOL     OW24707   2.101   9.171   4.603  0.1062  0.5721  0.1038
 4593SOL    HW124708   2.033   9.190   4.673  0.9557 -2.3520  1.8028
 4593SOL    HW224709   2.066   9.102   4.540  1.4786 -0.9416  0.9815
 4594SOL     OW24710   1.451   7.203   2.509 -0.0780  0.0445  0.3021
 4594SOL    HW124711   1.356   7.226   2.489  0.1746  0.9795  0.1595
 4594SOL    HW224712   1.510   7.280   2.485  0.5830 -0.0475  1.5695
 4595SOL     OW24713   2.425   1.568   1.652  0.4414 -0.0326  0.4522
 4595SOL    HW124714   2.394   1.662   1.641 -0.5890 -0.4475 -0.3934
 4595SOL    HW224715   2.349   1.512   1.685  1.4071 -0.3227  2.2201
 4596SOL     OW24716   0.983   1.526   0.137 -0.1200 -0.1200  0.0556
 4596SOL    HW124717   1.050   1.599   0.130  1.3744 -1.5942 -1.1658
 4596SOL    HW224718   0.944   1.507   0.047 -0.4950 -0.8460  0.3663
 4597SOL     OW24719   7.358   9.736   1.647 -0.2125  0.5412 -0.2768
 4597SOL    HW124720   7.387   9.687   1.566 -2.6426  0.3564 -1.0804
 4597SOL    HW224721   7.265   9.771   1.634 -0.5456  0.7731  2.3017
 4598SOL     OW24722   9.051   5.274   5.585  0.2899  0.2655  0.0484
 4598SOL    HW124723   9.088   5.295   5.495 -1.0092  0.2001 -0.5062
 4598SOL    HW224724   9.095   5.333   5.653  1.6751 -0.0711 -0.5303
 4599SOL     OW24725   9.456   7.413   4.506  0.2446 -0.4667  0.3418
 4599SOL    HW124726   9.413   7.446   4.590  0.5776 -1.5162  0.9264
 4599SOL    HW224727   9.391   7.357   4.455 -0.3815  1.2095 -0.7407
 4600SOL     OW24728   8.837   5.479   1.387 -0.4790 -0.4916  0.0531
 4600SOL    HW124729   8.862   5.573   1.363  1.8674 -0.9643  0.5609
 4600SOL    HW224730   8.797   5.478   1.479 -1.1702  0.0984 -0.2371
 4601SOL     OW24731   6.960   9.624   4.727 -0.0867 -0.2279 -0.3781
 4601SOL    HW124732   6.897   9.561   4.681 -0.7581  0.0997  0.0796
 4601SOL    HW224733   6.922   9.717   4.723  0.1761 -0.0908  0.2339
 4602SOL     OW24734   0.767   3.788   1.243  0.1424  0.3579 -0.3277
 4602SOL    HW124735   0.848   3.846   1.250  0.6140 -0.3333  0.0624
 4602SOL    HW224736   0.733   3.789   1.149  1.5257 -0.5606 -0.8534
 4603SOL     OW24737   2.480   1.879   0.861 -0.2134 -0.2776 -0.1989
 4603SOL    HW124738   2.490   1.866   0.960  1.7430 -0.2018 -0.3601
 4603SOL    HW224739   2.523   1.803   0.813 -0.2133  0.2126 -0.9898
 4604SOL     OW24740   4.358   8.305   1.809  0.0654  0.7225  0.4680
 4604SOL    HW124741   4.422   8.228   1.806 -2.5452 -1.5264 -0.5767
 4604SOL    HW224742   4.349   8.343   1.717 -0.4826  0.6913  0.5091
 4605SOL     OW24743   8.145   6.209   1.535  0.7102  0.2602 -0.0080
 4605SOL    HW124744   8.104   6.293   1.570 -0.4524  0.6741 -2.2677
 4605SOL    HW224745   8.100   6.130   1.577 -0.1200  0.7444  0.0197
 4606SOL     OW24746   5.390   7.818   2.576  0.1903  0.3003  0.5419
 4606SOL    HW124747   5.398   7.828   2.476  2.8901 -0.8118  0.6084
 4606SOL    HW224748   5.391   7.909   2.618 -0.7809  0.7736 -0.4379
 4607SOL     OW24749   5.107   2.970   2.521  0.5095 -0.5301  0.1627
 4607SOL    HW124750   5.106   2.883   2.471  0.8841 -0.6610  0.3821
 4607SOL    HW224751   5.192   2.977   2.572  0.0658 -0.4521  0.8861
 4608SOL     OW24752   8.003   5.039   4.236 -0.9258 -0.6509 -0.1163
 4608SOL    HW124753   7.956   5.125   4.215 -0.1510  0.0009  0.7811
 4608SOL    HW224754   7.935   4.966   4.248 -1.5442 -0.3552 -1.7240
 4609SOL     OW24755   1.283   1.340   2.436 -0.0183  0.3885 -0.0826
 4609SOL    HW124756   1.372   1.313   2.472  0.6451  1.2572 -1.0339
 4609SOL    HW224757   1.282   1.438   2.419 -0.7410  0.1966 -1.2249
 4610SOL     OW24758   0.224   6.321   3.058 -0.1785 -0.2039 -0.0576
 4610SOL    HW124759   0.142   6.361   3.018 -0.7848 -0.0592  1.3124
 4610SOL    HW224760   0.219   6.221   3.052 -0.1869 -0.1837 -0.4641
 4611SOL     OW24761   9.525   0.486   3.037 -0.0491 -0.0364  0.1452
 4611SOL    HW124762   9.484   0.445   3.119  1.3392 -0.1415  0.7914
 4611SOL    HW224763   9.492   0.580   3.027 -0.3820 -0.0911  0.7099
 4612SOL     OW24764   9.794   7.062   3.766  0.3622  0.0926  0.3363
 4612SOL    HW124765   9.772   6.983   3.710 -1.2290  1.1297 -0.5606
 4612SOL    HW224766   9.760   7.048   3.859 -0.9456  0.1859 -0.1173
 4613SOL     OW24767   9.201   4.025   5.040 -0.0449 -0.6451  0.0491
 4613SOL    HW124768   9.207   3.959   5.115 -4.2064  1.0055  1.9751
 4613SOL    HW224769   9.223   4.116   5.074 -1.1489 -0.0149 -0.8941
 4614SOL     OW24770   4.132   7.924   0.296  0.4218 -0.0784 -0.2161
 4614SOL    HW124771   4.204   7.855   0.294  1.0206  0.5412 -0.1255
 4614SOL    HW224772   4.140   7.979   0.379  0.8747  1.0795 -1.0134
 4615SOL     OW24773   4.199   0.292   1.559 -0.2167 -0.1874 -0.8939
 4615SOL    HW124774   4.295   0.281   1.532  0.1798 -0.0279  0.4548
 4615SOL    HW224775   4.150   0.208   1.538  0.3521 -0.5051 -0.9845
 4616SOL     OW24776   9.285   9.835   2.070 -0.5614  0.0057 -0.0421
 4616SOL    HW124777   9.246   9.869   2.155 -1.5519 -0.6679 -0.2236
 4616SOL    HW224778   9.281   9.735   2.068  0.6507 -0.0446 -0.3115
 4617SOL     OW24779   3.970   1.769   1.932  0.6048  0.0313  0.0901
 4617SOL    HW124780   3.998   1.689   1.878 -1.3636  0.0064 -0.9184
 4617SOL    HW224781   4.036   1.843   1.917  0.5257 -0.2362 -1.7819
 4618SOL     OW24782   5.276   8.800   2.710  0.1676 -0.2439 -0.3428
 4618SOL    HW124783   5.242   8.751   2.790 -0.0624 -1.4982 -1.1840
 4618SOL    HW224784   5.326   8.736   2.651  0.7327  0.7642 -0.9664
 4619SOL     OW24785   1.435   3.212   3.298  0.1235 -0.1135 -0.5001
 4619SOL    HW124786   1.407   3.142   3.233  1.6833 -0.8705 -0.3886
 4619SOL    HW224787   1.438   3.301   3.252 -0.4877 -0.3544 -1.0094
 4620SOL     OW24788   2.058   2.852   4.047  0.4184  1.1158  0.5398
 4620SOL    HW124789   2.133   2.885   4.104  2.2164 -1.6386 -0.1137
 4620SOL    HW224790   1.995   2.798   4.104  2.1969 -1.6073  0.0293
 4621SOL     OW24791   8.521   5.567   0.770  0.1923  0.0688 -0.7817
 4621SOL    HW124792   8.485   5.586   0.861 -0.1779  1.9554 -1.2896
 4621SOL    HW224793   8.522   5.652   0.716  0.7152 -0.9492 -2.4230
 4622SOL     OW24794   0.536   4.173   4.691  0.0701  1.0057  0.7208
 4622SOL    HW124795   0.631   4.185   4.718  0.4659  1.2582 -0.7310
 4622SOL    HW224796   0.510   4.246   4.627 -0.7628  0.2966  0.2361
 4623SOL     OW24797   9.500   1.907   3.100 -0.4633 -0.1412  0.5465
 4623SOL    HW124798   9.558   1.981   3.064 -1.5736  0.9859  1.0410
 4623SOL    HW224799   9.559   1.836   3.139  0.6168  0.8793  0.8427
 4624SOL     OW24800   1.225   9.051   1.688  0.3927 -0.1452  0.3908
 4624SOL    HW124801   1.128   9.027   1.696 -0.3340  2.4580 -0.3729
 4624SOL    HW224802   1.274   9.018   1.769 -1.4001 -0.2154  1.4648
 4625SOL     OW24803   8.911   3.587   0.285  0.0865 -0.2339  0.5317
 4625SOL    HW124804   8.839   3.630   0.339  0.6185 -0.0337  1.0860
 4625SOL    HW224805   8.951   3.511   0.336  2.0870  1.3230  1.3651
 4626SOL     OW24806   9.739   6.646   4.804  0.1472 -0.0194  0.3308
 4626SOL    HW124807   9.648   6.650   4.764  0.2800  0.3264  0.0620
 4626SOL    HW224808   9.803   6.606   4.738  0.5237  1.2715 -0.0913
 4627SOL     OW24809   0.783   1.720   1.506 -0.0929  0.4804  0.5123
 4627SOL    HW124810   0.751   1.715   1.412  0.2787  1.0299  0.3515
 4627SOL    HW224811   0.712   1.685   1.567  0.0969 -0.8926 -0.0514
 4628SOL     OW24812   3.187   7.778   3.943 -0.0792  0.3327 -0.7247
 4628SOL    HW124813   3.105   7.741   3.986  1.1235 -1.4790  0.0803
 4628SOL    HW224814   3.190   7.750   3.847 -0.2076  0.0365 -0.6439
 4629SOL     OW24815   2.096   4.696   4.049  0.3577  0.0867 -0.4213
 4629SOL    HW124816   2.187   4.733   4.031  0.1979  0.5950 -0.2079
 4629SOL    HW224817   2.092   4.661   4.143  0.3514  0.0153 -0.4484
 4630SOL     OW24818   3.688   0.203   5.192  0.0828  0.3109  0.0312
 4630SOL    HW124819   3.621   0.213   5.266  0.0138 -2.9558  0.4595
 4630SOL    HW224820   3.778   0.234   5.223 -0.1820  0.0167  1.0934
 4631SOL     OW24821   9.032   2.062   0.596 -0.3461  0.0753 -0.5492
 4631SOL    HW124822   9.099   2.123   0.640 -1.3977  0.8089  0.0361
 4631SOL    HW224823   8.943   2.107   0.592 -1.3790 -1.7824  0.7394
 4632SOL     OW24824   4.798   2.660   3.432  0.4486  0.6281  0.1268
 4632SOL    HW124825   4.852   2.577   3.439 -0.5517 -0.0847 -0.6066
 4632SOL    HW224826   4.753   2.664   3.343 -0.5740  1.2946  0.6650
 4633SOL     OW24827   5.849   9.262   3.313 -0.1620  0.0221  0.1959
 4633SOL    HW124828   5.826   9.265   3.215 -0.2929 -0.5359  0.2018
 4633SOL    HW224829   5.923   9.197   3.327 -1.2019 -1.0966  0.6521
 4634SOL     OW24830   4.654   8.307   4.204  0.6107 -0.9259  0.3060
 4634SOL    HW124831   4.728   8.369   4.230  0.2622 -0.8682  1.1870
 4634SOL    HW224832   4.615   8.337   4.117 -0.3451  0.8324  1.3007
 4635SOL     OW24833   0.675   3.949   2.398  0.4535 -0.0931 -0.0675
 4635SOL    HW124834   0.665   3.992   2.488  1.2672 -0.7635  0.3399
 4635SOL    HW224835   0.651   3.852   2.404 -0.3299  0.0482 -0.7644
 4636SOL     OW24836   6.929   0.419   0.639  0.0079 -0.2484  0.1625
 4636SOL    HW124837   7.025   0.393   0.634  0.8742  2.7960  0.0315
 4636SOL    HW224838   6.902   0.461   0.552 -1.6773 -1.7451 -0.0711
 4637SOL     OW24839   8.513   5.908   5.219  0.5946  0.1563  0.0830
 4637SOL    HW124840   8.593   5.915   5.160 -0.2043 -0.9737 -1.1566
 4637SOL    HW224841   8.539   5.865   5.306  1.2975 -0.3750 -0.3821
 4638SOL     OW24842   4.189   7.780   2.572 -0.3714 -0.0761 -0.3150
 4638SOL    HW124843   4.197   7.687   2.609 -2.9458 -0.8897 -1.6739
 4638SOL    HW224844   4.182   7.845   2.648 -1.6761 -1.3262  0.6796
 4639SOL     OW24845   8.379   8.179   5.007 -0.5132 -0.5078 -0.0759
 4639SOL    HW124846   8.314   8.246   4.969 -0.0755  0.5458  1.0122
 4639SOL    HW224847   8.471   8.200   4.975 -0.5721 -1.5026 -0.9381
 4640SOL     OW24848   8.828   5.921   0.004  0.2924 -0.0356  0.5582
 4640SOL    HW124849   8.855   5.829  -0.025  1.1190  0.4865 -0.3432
 4640SOL    HW224850   8.881   5.947   0.085  0.0479 -0.3464  0.8234
 4641SOL     OW24851   2.526   0.444   4.399  0.1398  0.1224 -0.0145
 4641SOL    HW124852   2.536   0.388   4.481  1.7568  1.5077  0.7526
 4641SOL    HW224853   2.432   0.477   4.392 -0.0731 -0.2202  1.1202
 4642SOL     OW24854   8.483   0.427   5.521  0.1852  0.5417  0.2055
 4642SOL    HW124855   8.509   0.515   5.558 -1.4311  0.5902  1.2880
 4642SOL    HW224856   8.428   0.441   5.438  1.3682  0.5022 -0.5926
 4643SOL     OW24857   8.584   2.196   3.081  0.5637 -0.1347 -0.1399
 4643SOL    HW124858   8.596   2.106   3.123 -2.2934 -0.6707 -0.3652
 4643SOL    HW224859   8.564   2.263   3.152 -0.4668 -0.3036 -0.2641
 4644SOL     OW24860   4.204   5.376   0.920 -0.2315  0.1776 -0.0499
 4644SOL    HW124861   4.143   5.454   0.933  0.9340  1.0005  0.5441
 4644SOL    HW224862   4.267   5.370   0.997 -0.8116 -1.8352  0.3119
 4645SOL     OW24863   9.378   1.336   0.692 -0.0165 -0.4718  0.2514
 4645SOL    HW124864   9.328   1.271   0.749 -2.6989  1.7024  0.4823
 4645SOL    HW224865   9.381   1.425   0.738  0.8207  0.4179 -1.4752
 4646SOL     OW24866   0.646   2.585   0.266  0.3926 -0.3132  0.0068
 4646SOL    HW124867   0.576   2.646   0.230  0.0220 -1.5672 -1.4354
 4646SOL    HW224868   0.639   2.580   0.365 -2.0084 -0.9677 -0.1743
 4647SOL     OW24869   4.367   1.428   2.361 -0.1526 -0.5294 -0.0330
 4647SOL    HW124870   4.362   1.331   2.337  0.0335 -0.6586  0.4377
 4647SOL    HW224871   4.461   1.460   2.350 -0.3047 -0.2821 -0.6365
 4648SOL     OW24872   8.812   2.263   0.259  0.1766  0.1396  0.1175
 4648SOL    HW124873   8.824   2.192   0.328 -1.8708  1.1227  1.5715
 4648SOL    HW224874   8.803   2.352   0.305  1.9559  1.2556 -1.6143
 4649SOL     OW24875   3.512   1.830   1.222  0.0062  0.1872  0.5847
 4649SOL    HW124876   3.580   1.885   1.270  1.0426 -0.7834  0.2621
 4649SOL    HW224877   3.491   1.749   1.277  1.8329 -1.3705 -0.9181
 4650SOL     OW24878   1.252   1.081   0.149  0.2787 -0.3372 -0.3161
 4650SOL    HW124879   1.316   1.148   0.111  0.3435  0.2180  0.7678
 4650SOL    HW224880   1.302   1.013   0.202 -0.1168  0.7350  1.4724
 4651SOL     OW24881   3.965   3.154   1.131  0.6052  0.1693  0.0327
 4651SOL    HW124882   4.013   3.080   1.084 -0.0290  0.4080 -1.0138
 4651SOL    HW224883   3.967   3.137   1.229  0.1069 -1.4668 -0.2117
 4652SOL     OW24884   7.741   1.680   3.654 -0.8386 -0.1713  0.5030
 4652SOL    HW124885   7.812   1.744   3.682 -1.5352  0.0468  1.8374
 4652SOL    HW224886   7.678   1.665   3.731 -0.5215 -2.6893  0.3051
 4653SOL     OW24887   7.830   7.877   4.309 -0.2058 -0.7510 -0.3948
 4653SOL    HW124888   7.839   7.849   4.405  0.6641 -2.4470 -0.9668
 4653SOL    HW224889   7.907   7.936   4.285 -0.4938 -0.2137 -0.0260
 4654SOL     OW24890   8.281   9.740   2.169 -0.3927  0.3014  0.4520
 4654SOL    HW124891   8.258   9.710   2.076 -0.4204 -0.0657  0.5769
 4654SOL    HW224892   8.379   9.726   2.186 -0.3730  0.4435  0.4480
 4655SOL     OW24893   2.609   7.345   0.832 -0.0824  0.5682  0.2746
 4655SOL    HW124894   2.529   7.332   0.891  0.7206 -1.0799  1.0342
 4655SOL    HW224895   2.678   7.397   0.882  0.2845 -0.1504  0.5310
 4656SOL     OW24896   1.725   5.139   1.077 -0.3190  0.0628  0.0635
 4656SOL    HW124897   1.762   5.200   1.008  0.7843 -1.7176 -0.9817
 4656SOL    HW224898   1.629   5.119   1.058 -0.6673  1.4081  0.3874
 4657SOL     OW24899   3.137   8.414   0.205 -0.1464 -0.0788 -0.4310
 4657SOL    HW124900   3.188   8.459   0.132 -0.1449  0.9276  0.1732
 4657SOL    HW224901   3.071   8.479   0.244  1.5563  0.2097  2.1162
 4658SOL     OW24902   8.751   2.623   5.035  0.3509 -0.1616 -0.2417
 4658SOL    HW124903   8.660   2.642   4.996  0.1911  0.9084  0.6269
 4658SOL    HW224904   8.817   2.613   4.960  0.3057  3.2462 -0.8144
 4659SOL     OW24905   8.741   7.126   2.339  0.0722 -0.1912 -0.3067
 4659SOL    HW124906   8.650   7.155   2.311  0.6867  0.2011 -1.9441
 4659SOL    HW224907   8.742   7.109   2.438 -1.9098 -0.7630 -0.3804
 4660SOL     OW24908   1.143   9.072   3.619 -0.4677  0.3960  0.0841
 4660SOL    HW124909   1.212   9.016   3.573  1.8536  2.5693  0.8295
 4660SOL    HW224910   1.101   9.135   3.554 -1.4098 -0.5626 -0.2561
 4661SOL     OW24911   9.441   1.853   4.777 -0.3641  0.1282 -0.2045
 4661SOL    HW124912   9.371   1.829   4.710 -0.2031  2.0495 -1.0851
 4661SOL    HW224913   9.434   1.791   4.856 -1.0233 -1.6847 -1.6493
 4662SOL     OW24914   8.057   7.052   2.314  0.1085  0.1060 -0.3050
 4662SOL    HW124915   8.112   7.077   2.234 -0.5605 -1.9786 -1.4770
 4662SOL    HW224916   7.960   7.058   2.290 -0.0763 -2.9705 -0.4951
 4663SOL     OW24917   1.842   1.979   0.418  0.1547 -0.7205  0.2051
 4663SOL    HW124918   1.807   1.931   0.499  1.2571 -0.7133  0.6969
 4663SOL    HW224919   1.912   2.045   0.447 -1.4203  1.2640 -0.4436
 4664SOL     OW24920   7.301   1.410   0.268  0.3429 -0.3362 -0.6032
 4664SOL    HW124921   7.353   1.491   0.240 -0.8431  0.6258 -0.1304
 4664SOL    HW224922   7.239   1.383   0.194 -0.2759  0.0613 -0.2348
 4665SOL     OW24923   0.803   4.384   2.680  0.4809 -0.1389 -0.2061
 4665SOL    HW124924   0.740   4.310   2.658  1.5062 -1.8328  2.3738
 4665SOL    HW224925   0.856   4.408   2.598  0.3403 -2.4705 -1.0028
 4666SOL     OW24926   7.843   5.557   1.961 -0.4732 -0.1589 -0.0027
 4666SOL    HW124927   7.870   5.652   1.975 -0.0228 -0.1887 -0.6580
 4666SOL    HW224928   7.778   5.552   1.885 -0.7049 -0.3419  0.2079
 4667SOL     OW24929   3.233   3.429   4.280  0.2335 -0.1363  0.1828
 4667SOL    HW124930   3.201   3.339   4.249  0.8697 -0.2389 -0.1944
 4667SOL    HW224931   3.322   3.448   4.238 -0.2016  0.9614 -0.2623
 4668SOL     OW24932   1.699   1.026   0.854 -0.1787  0.5285 -0.4871
 4668SOL    HW124933   1.610   1.052   0.816 -0.0751 -1.9655 -2.5701
 4668SOL    HW224934   1.686   0.957   0.926  0.0081  0.8409 -0.1536
 4669SOL     OW24935   9.487   0.386   0.432 -0.1155  0.3103 -0.1061
 4669SOL    HW124936   9.571   0.440   0.421 -0.0159  0.0189 -0.8354
 4669SOL    HW224937   9.478   0.324   0.354 -1.3630  0.8142 -0.3694
 4670SOL     OW24938   6.293   7.121   2.261 -0.2847  0.5526 -0.5272
 4670SOL    HW124939   6.242   7.203   2.234 -1.5080  0.6074  1.7933
 4670SOL    HW224940   6.230   7.044   2.269  0.3545  0.1050  0.2816
 4671SOL     OW24941   5.286   0.298   0.991 -0.5280  0.2906  0.1815
 4671SOL    HW124942   5.380   0.264   0.980 -0.5998  0.2857 -0.4252
 4671SOL    HW224943   5.254   0.337   0.905 -1.3948 -0.4768  0.1488
 4672SOL     OW24944   3.439   6.177   1.119 -0.3581 -0.3674 -0.4988
 4672SOL    HW124945   3.402   6.182   1.026 -2.3268 -0.4588  0.2551
 4672SOL    HW224946   3.369   6.142   1.180  0.9093 -0.2334  1.0499
 4673SOL     OW24947   9.093   4.429   4.645  0.0133 -0.1353 -0.1192
 4673SOL    HW124948   9.077   4.363   4.571 -1.2052  0.1030 -0.0821
 4673SOL    HW224949   9.145   4.386   4.718 -1.3078 -1.2410  0.1804
 4674SOL     OW24950   1.610   5.212   2.278 -0.1356 -0.5233 -0.6400
 4674SOL    HW124951   1.620   5.288   2.214 -0.2134 -0.4481 -0.5631
 4674SOL    HW224952   1.683   5.146   2.263  0.2961 -0.1275 -0.2796
 4675SOL     OW24953   7.893   1.701   5.052 -0.2349 -0.4761  0.5604
 4675SOL    HW124954   7.891   1.776   5.118  1.1407 -2.6721  3.2283
 4675SOL    HW224955   7.956   1.723   4.977 -1.3621  1.8114  0.2425
 4676SOL     OW24956   0.458   2.912   0.877  0.0519 -0.3967  0.1433
 4676SOL    HW124957   0.529   2.921   0.807  0.2507 -2.4749  0.0421
 4676SOL    HW224958   0.385   2.977   0.859  1.1453  0.6244 -0.7042
 4677SOL     OW24959   9.755   1.899   4.477  0.3327  0.6942  0.4047
 4677SOL    HW124960   9.661   1.919   4.450  0.0453 -1.0432  0.0732
 4677SOL    HW224961   9.810   1.879   4.396  0.0454 -2.0919  0.8423
 4678SOL     OW24962   2.252   6.954   5.332  0.0158 -0.3773  0.8182
 4678SOL    HW124963   2.265   7.051   5.314  3.6014 -0.6617  1.4991
 4678SOL    HW224964   2.217   6.909   5.250 -0.9442  1.3250  0.2668
 4679SOL     OW24965   5.813   0.256   3.127 -0.2994 -0.4688  0.1283
 4679SOL    HW124966   5.817   0.235   3.029 -1.0983 -0.5368  0.1098
 4679SOL    HW224967   5.805   0.171   3.179 -2.8017 -0.3058  0.0888
 4680SOL     OW24968   7.347   3.164   0.442  0.2919 -0.2983  0.1510
 4680SOL    HW124969   7.295   3.083   0.470 -0.1840 -0.3715 -0.8792
 4680SOL    HW224970   7.317   3.192   0.350  0.4845  1.0163  0.4753
 4681SOL     OW24971   2.998   3.627   3.411 -0.6150  0.4661  0.4870
 4681SOL    HW124972   3.069   3.586   3.469 -2.2949 -1.5278  1.1883
 4681SOL    HW224973   3.041   3.686   3.342  1.6907 -0.4694  1.0818
 4682SOL     OW24974   0.041   8.872   4.217  1.1190  0.1856 -0.0087
 4682SOL    HW124975   0.066   8.916   4.131  0.7652  0.6231  0.1056
 4682SOL    HW224976  -0.057   8.883   4.233  1.5949  2.4180  1.7150
 4683SOL     OW24977   3.242   6.066   1.265 -0.2155 -0.3799 -0.1669
 4683SOL    HW124978   3.193   6.103   1.345  0.5079 -1.2891  0.7068
 4683SOL    HW224979   3.234   5.967   1.265  1.3083 -0.5052 -0.2350
 4684SOL     OW24980   9.443   4.246   2.300 -0.4435  0.1212 -0.1909
 4684SOL    HW124981   9.448   4.346   2.296 -1.1934  0.1375 -1.0356
 4684SOL    HW224982   9.535   4.207   2.295 -0.1976  0.7497 -0.6507
 4685SOL     OW24983   2.403   9.395   4.006  0.0093  0.2684  0.1940
 4685SOL    HW124984   2.436   9.490   4.000  0.6707  0.1668  2.0197
 4685SOL    HW224985   2.470   9.334   3.964 -0.1068  0.5310 -0.3873
 4686SOL     OW24986   5.163   0.838   1.402  0.6149 -0.3071  0.5901
 4686SOL    HW124987   5.172   0.864   1.499 -0.2526 -1.0876  0.8815
 4686SOL    HW224988   5.073   0.865   1.368 -0.3417 -2.9859  0.9228
 4687SOL     OW24989   8.928   9.951   2.067 -0.3207 -0.1604  0.3355
 4687SOL    HW124990   8.967   9.994   1.985  0.1819  0.3011  0.8172
 4687SOL    HW224991   8.945   9.853   2.065  1.5686  0.1434  0.9409
 4688SOL     OW24992   7.632   9.119   0.913  0.1975  0.1190 -0.0929
 4688SOL    HW124993   7.567   9.076   0.974 -1.7404  2.7353 -0.1980
 4688SOL    HW224994   7.599   9.112   0.819  0.1714  1.2321 -0.1757
 4689SOL     OW24995   1.611   8.940   1.254 -0.1896  0.0265  0.0030
 4689SOL    HW124996   1.662   8.993   1.322  0.8677 -0.4953 -0.3703
 4689SOL    HW224997   1.533   8.896   1.297 -2.1730  3.3507 -0.0090
 4690SOL     OW24998   2.087   5.591   1.848  0.5851  0.0527 -0.6226
 4690SOL    HW124999   2.033   5.530   1.789 -1.1353  0.5494  0.4161
 4690SOL    HW225000   2.114   5.542   1.931 -2.7944  1.3403  1.3085
 4691SOL     OW25001   3.750   6.853   2.609  0.0384 -0.1727 -0.2445
 4691SOL    HW125002   3.821   6.834   2.540  1.4629 -2.4772  1.7839
 4691SOL    HW225003   3.674   6.790   2.595 -0.2346  0.2118 -0.4932
 4692SOL     OW25004   6.780   9.731   1.160  0.6382 -0.5397  0.2173
 4692SOL    HW125005   6.851   9.716   1.091 -0.3576 -4.2680 -0.1121
 4692SOL    HW225006   6.819   9.776   1.239  2.2651  1.9644 -1.9365
 4693SOL     OW25007   2.224   2.518   1.419 -0.4924  0.2646 -0.4103
 4693SOL    HW125008   2.186   2.491   1.507 -1.4949  1.8468 -0.3387
 4693SOL    HW225009   2.305   2.576   1.434 -0.9869  0.9934 -0.5044
 4694SOL     OW25010   1.003   8.298   5.528 -0.3171 -0.8329 -0.2136
 4694SOL    HW125011   0.931   8.355   5.568 -1.1652 -2.3219  0.4362
 4694SOL    HW225012   1.040   8.343   5.446 -1.0722  0.5566  0.1950
 4695SOL     OW25013   1.569   6.762   3.160  0.2498  0.7978 -0.0443
 4695SOL    HW125014   1.486   6.807   3.191 -0.1171 -0.6006  1.0381
 4695SOL    HW225015   1.595   6.798   3.070 -1.0838  1.7884 -0.0426
 4696SOL     OW25016   9.403   8.554   0.436 -0.1839 -0.3615  0.1931
 4696SOL    HW125017   9.381   8.579   0.530  0.9733  1.8940 -0.0964
 4696SOL    HW225018   9.352   8.613   0.373  1.0676 -0.0427 -0.5422
 4697SOL     OW25019   4.188   3.431   3.223  0.5564 -0.2380  0.0396
 4697SOL    HW125020   4.168   3.385   3.137  1.7625  0.5106 -0.6492
 4697SOL    HW225021   4.111   3.418   3.286 -0.5630 -0.3589 -1.3173
 4698SOL     OW25022   0.559   8.521   1.659 -0.3096 -0.2464 -0.2745
 4698SOL    HW125023   0.531   8.572   1.740 -0.0144 -0.1987 -0.1996
 4698SOL    HW225024   0.619   8.446   1.687 -0.7981 -0.6768 -0.3755
 4699SOL     OW25025   4.604   2.527   2.622 -0.2737  0.5239  0.7399
 4699SOL    HW125026   4.545   2.593   2.667 -0.2802  1.2991 -0.3927
 4699SOL    HW225027   4.678   2.500   2.684 -1.2665  0.2679  1.8188
 4700SOL     OW25028   1.962   3.260   2.008  0.0439 -0.1246 -0.1044
 4700SOL    HW125029   1.953   3.255   2.107  0.5635  0.5698 -0.0218
 4700SOL    HW225030   1.983   3.354   1.981  0.0017 -0.3308 -0.8647
 4701SOL     OW25031   5.537   8.375   4.337  0.2984 -0.1097 -0.0401
 4701SOL    HW125032   5.575   8.450   4.283  3.7023 -1.2364  0.6719
 4701SOL    HW225033   5.561   8.288   4.294 -0.6181 -0.9147  1.0470
 4702SOL     OW25034   6.039   8.992   1.962  0.3877 -0.0099  0.1502
 4702SOL    HW125035   6.097   9.049   1.904 -0.3441 -2.1723 -2.8341
 4702SOL    HW225036   6.096   8.945   2.030  1.6986  0.2335 -0.7581
 4703SOL     OW25037   8.299   4.828   2.182 -0.1188  0.1881 -0.3064
 4703SOL    HW125038   8.368   4.888   2.223  0.2439  0.5160 -1.3737
 4703SOL    HW225039   8.256   4.874   2.104 -0.9493 -0.3373 -0.1655
 4704SOL     OW25040   7.353   0.655   3.099  0.2681 -0.6726  0.3863
 4704SOL    HW125041   7.357   0.612   3.009 -1.2777 -0.8966  0.4091
 4704SOL    HW225042   7.289   0.732   3.097  0.0157 -0.8425  1.3653
 4705SOL     OW25043   7.931   8.702   3.804  0.1456 -0.0807 -0.5630
 4705SOL    HW125044   7.832   8.714   3.815  0.3502  0.7955  0.3649
 4705SOL    HW225045   7.956   8.609   3.830 -0.4659 -0.3939 -1.0576
 4706SOL     OW25046   8.151   4.578   2.160 -0.3824  0.5259  0.0105
 4706SOL    HW125047   8.206   4.662   2.170 -1.3514  1.2547 -0.6839
 4706SOL    HW225048   8.172   4.516   2.235 -1.4918  2.4402  1.9745
 4707SOL     OW25049   8.757   1.474   4.928 -0.4203 -0.1289  0.8116
 4707SOL    HW125050   8.766   1.556   4.985  1.7241  1.6459 -1.9597
 4707SOL    HW225051   8.751   1.501   4.832 -0.6529 -3.1964 -0.0697
 4708SOL     OW25052   6.480   7.366   3.110 -0.0557  0.3163 -0.4372
 4708SOL    HW125053   6.442   7.339   3.199 -2.0883  0.6291 -1.1972
 4708SOL    HW225054   6.467   7.292   3.044 -1.6998  1.4194 -1.3749
 4709SOL     OW25055   0.415   0.021   2.122 -0.5343 -0.1957 -0.1052
 4709SOL    HW125056   0.503   0.005   2.167 -0.4774  0.2175 -0.0639
 4709SOL    HW225057   0.374   0.105   2.158 -0.3417  0.3135 -1.0586
 4710SOL     OW25058   3.067   9.390   3.014 -0.7064  0.9997  0.1378
 4710SOL    HW125059   3.101   9.462   2.954  1.5332 -0.4715 -0.3813
 4710SOL    HW225060   3.078   9.301   2.970 -0.1459  0.0037  2.2344
 4711SOL     OW25061   3.411   6.171   0.361  0.2832  0.8374  0.0480
 4711SOL    HW125062   3.349   6.244   0.334 -0.2651  0.3437 -0.0242
 4711SOL    HW225063   3.404   6.095   0.296  2.1069  1.4196 -0.8548
 4712SOL     OW25064   2.807   2.665   4.820  0.3984 -0.5907 -0.5894
 4712SOL    HW125065   2.768   2.624   4.902  0.0545  0.3142 -0.2869
 4712SOL    HW225066   2.906   2.656   4.821  0.3756 -0.7687 -0.1818
 4713SOL     OW25067   8.407   1.637   2.211 -0.1809  0.4449 -0.0887
 4713SOL    HW125068   8.416   1.672   2.304 -1.2169 -0.6144  0.4193
 4713SOL    HW225069   8.445   1.704   2.147  1.7638  0.5978  1.1794
 4714SOL     OW25070   1.078   8.019   3.447 -0.6333 -0.4410 -0.2250
 4714SOL    HW125071   1.130   8.102   3.426 -0.5676 -0.4880 -0.2488
 4714SOL    HW225072   1.102   7.948   3.382 -0.1265 -0.7150  0.2545
 4715SOL     OW25073   4.727   2.683   3.717  0.3514  0.5788  0.0426
 4715SOL    HW125074   4.778   2.663   3.633  0.0614 -0.4144  0.0929
 4715SOL    HW225075   4.689   2.775   3.712 -0.1177  0.3289 -1.1579
 4716SOL     OW25076   7.791   3.838   0.653 -0.1635  0.1333 -0.1996
 4716SOL    HW125077   7.762   3.881   0.568  1.3264  0.4928 -0.5245
 4716SOL    HW225078   7.889   3.848   0.665 -0.0810 -1.4929  0.6762
 4717SOL     OW25079   8.423   5.781   2.956 -0.4598  0.8406  0.0084
 4717SOL    HW125080   8.424   5.698   2.900  0.1309  1.5785 -1.1015
 4717SOL    HW225081   8.460   5.761   3.047 -0.3484 -0.1138 -0.2403
 4718SOL     OW25082   9.626   9.502   1.826  0.0580  0.1910 -0.0129
 4718SOL    HW125083   9.667   9.430   1.770 -1.2032 -0.5303 -0.0251
 4718SOL    HW225084   9.593   9.576   1.767 -1.2680 -0.5674 -0.2560
 4719SOL     OW25085   8.637   9.333   0.159 -0.0802  0.1031 -0.4421
 4719SOL    HW125086   8.594   9.415   0.122 -0.7669  0.2122  0.5749
 4719SOL    HW225087   8.711   9.359   0.221 -0.7081 -0.0225  0.3735
 4720SOL     OW25088   6.196   0.912   4.295  0.0434  0.6351 -0.0179
 4720SOL    HW125089   6.285   0.866   4.308 -1.0969 -0.8813  3.0175
 4720SOL    HW225090   6.197   1.000   4.342 -0.1643  0.4629  0.3107
 4721SOL     OW25091   7.095   7.447   4.066  0.0717  0.4449  0.4012
 4721SOL    HW125092   7.025   7.377   4.077  0.5282 -0.2929 -1.2546
 4721SOL    HW225093   7.160   7.419   3.996  1.9040  1.2308  1.7584
 4722SOL     OW25094   0.155   0.924   3.632 -0.0424  0.3006 -1.2040
 4722SOL    HW125095   0.125   0.832   3.606 -0.5237  0.0515  0.1959
 4722SOL    HW225096   0.245   0.919   3.674 -0.6931  0.2863  0.1946
 4723SOL     OW25097   8.853   1.077   4.896  0.3185  0.3460 -0.6503
 4723SOL    HW125098   8.900   1.153   4.941  0.6544 -0.2175 -0.0521
 4723SOL    HW225099   8.780   1.042   4.955  0.7657 -0.3956 -0.5266
 4724SOL     OW25100   2.953   1.161   4.320  0.4496 -0.4091  0.4285
 4724SOL    HW125101   2.893   1.152   4.400  1.7407  2.0980  1.7587
 4724SOL    HW225102   2.904   1.206   4.246 -0.1311 -0.8505  0.5428
 4725SOL     OW25103   2.244   9.524   5.193  0.1218 -0.4127 -0.2386
 4725SOL    HW125104   2.178   9.464   5.147 -0.0101 -0.2914 -0.2069
 4725SOL    HW225105   2.287   9.473   5.268 -1.0072 -0.0453  0.6824
 4726SOL     OW25106   1.816   2.486   0.795  0.0199 -0.1105  0.2076
 4726SOL    HW125107   1.737   2.548   0.788 -0.1938 -0.4484 -0.3863
 4726SOL    HW225108   1.822   2.429   0.713 -1.5135 -2.9565  1.9894
 4727SOL     OW25109   6.163   9.572   3.092  0.5042 -0.1332  0.0638
 4727SOL    HW125110   6.167   9.528   3.002 -1.3137 -0.3614  0.0780
 4727SOL    HW225111   6.118   9.510   3.157 -1.9314  1.6491  0.1277
 4728SOL     OW25112   9.995   5.760   0.047  0.0713 -0.1478  0.2041
 4728SOL    HW125113   9.896   5.761   0.035  0.0491 -0.7039  0.3295
 4728SOL    HW225114  10.017   5.754   0.144  0.2292  0.0453  0.1813
 4729SOL     OW25115   9.202   8.089   0.096 -0.1417  0.0379 -0.2045
 4729SOL    HW125116   9.282   8.050   0.051  0.2359 -0.9073  1.2337
 4729SOL    HW225117   9.148   8.141   0.030  0.8702 -0.5533 -1.5202
 4730SOL     OW25118   3.971   1.035   0.920 -0.0120 -0.1964 -0.1099
 4730SOL    HW125119   4.024   1.109   0.878 -0.4507  0.0602 -0.2092
 4730SOL    HW225120   4.003   0.947   0.884 -0.9173  0.0603 -1.5887
 4731SOL     OW25121   7.999   6.089   5.445  0.2297 -0.2389 -0.0814
 4731SOL    HW125122   8.073   6.155   5.449 -0.4203  0.5479 -0.9198
 4731SOL    HW225123   8.030   6.006   5.398  0.8053 -0.2260  0.2705
 4732SOL     OW25124   0.399   9.797   5.036  0.6785 -0.1157 -0.4515
 4732SOL    HW125125   0.333   9.732   5.075  0.7195  0.3080  0.3433
 4732SOL    HW225126   0.383   9.888   5.075  1.2769  0.1383 -0.7916
 4733SOL     OW25127   3.345   1.458   3.856  0.1945 -0.0065  0.3047
 4733SOL    HW125128   3.367   1.378   3.912  1.5335 -0.1862 -0.4545
 4733SOL    HW225129   3.347   1.433   3.759  0.3909  0.8948  0.0755
 4734SOL     OW25130   3.457   0.554   0.444 -0.0589 -0.6081  0.0746
 4734SOL    HW125131   3.460   0.650   0.414 -1.2895 -0.8274 -0.8024
 4734SOL    HW225132   3.457   0.494   0.364 -0.4439 -1.3011  0.5847
 4735SOL     OW25133   9.061   6.418   2.661  0.6946 -0.5074 -0.0501
 4735SOL    HW125134   9.101   6.328   2.677  0.1105 -0.6863  0.3933
 4735SOL    HW225135   8.964   6.417   2.685  0.2225 -0.2817 -1.8517
 4736SOL     OW25136   2.448   5.939   1.557  0.6514  0.0915  0.5389
 4736SOL    HW125137   2.370   5.882   1.578 -1.4034  2.2486 -1.0006
 4736SOL    HW225138   2.497   5.962   1.642  0.2171 -2.0710  1.3887
 4737SOL     OW25139   6.615   0.011   4.319  0.5550 -0.0250  0.6480
 4737SOL    HW125140   6.525  -0.032   4.320 -0.0006  1.1026  0.3532
 4737SOL    HW225141   6.632   0.051   4.229  0.8282  0.8524  1.0880
 4738SOL     OW25142   2.362   4.265   4.960 -1.0550  0.4718  0.0953
 4738SOL    HW125143   2.428   4.285   5.032  2.7725 -0.1604 -3.0254
 4738SOL    HW225144   2.345   4.166   4.956  0.0908  0.2920 -0.8773
 4739SOL     OW25145   0.015   7.599   2.376  0.1923 -0.2424 -0.3749
 4739SOL    HW125146   0.006   7.533   2.451  1.9245 -0.1472 -0.0568
 4739SOL    HW225147   0.028   7.691   2.413  0.0251 -0.0413 -0.8052
 4740SOL     OW25148   2.463   4.554   0.502  0.0929 -0.8748  0.0722
 4740SOL    HW125149   2.384   4.580   0.446 -0.0347 -1.2505  0.0750
 4740SOL    HW225150   2.441   4.567   0.599  0.7914  1.0873 -0.0148
 4741SOL     OW25151   1.841   6.221   2.342  0.0161  0.1886  0.7819
 4741SOL    HW125152   1.876   6.128   2.330  2.0161  1.1061 -0.7936
 4741SOL    HW225153   1.743   6.222   2.324  0.2848 -1.3118 -0.9115
 4742SOL     OW25154   8.898   1.256   1.477 -0.0429  0.3672 -0.1710
 4742SOL    HW125155   8.866   1.297   1.562  0.3915  0.6574 -0.1495
 4742SOL    HW225156   8.854   1.167   1.465  0.6873 -0.1367  0.8656
 4743SOL     OW25157   9.548   8.548   1.847 -0.1047 -0.5645  0.5865
 4743SOL    HW125158   9.538   8.645   1.869 -0.3706 -0.1164 -1.4423
 4743SOL    HW225159   9.459   8.503   1.852 -0.0032 -0.6987  1.3791
 4744SOL     OW25160   4.396   0.317   3.037  0.0470  0.0544 -0.4116
 4744SOL    HW125161   4.368   0.263   3.116 -0.3332  0.3474 -0.3445
 4744SOL    HW225162   4.495   0.327   3.036  0.1460 -0.8999 -0.5902
 4745SOL     OW25163   8.520   1.578   5.571  0.3058 -0.1128  0.2901
 4745SOL    HW125164   8.568   1.553   5.655  1.7297 -0.7819 -0.6935
 4745SOL    HW225165   8.587   1.596   5.498 -0.9042 -0.2947 -0.8957
 4746SOL     OW25166   3.866   8.417   1.159 -0.1665 -0.3850  0.4657
 4746SOL    HW125167   3.777   8.431   1.201  0.0209  0.1178  0.6968
 4746SOL    HW225168   3.936   8.462   1.214  0.4937 -2.4686  1.4111
 4747SOL     OW25169   9.194   3.158   2.743 -0.2764 -0.0722  0.2187
 4747SOL    HW125170   9.174   3.112   2.830  0.2383 -0.2807  0.2325
 4747SOL    HW225171   9.180   3.256   2.753  1.1263  0.0672  0.9455
 4748SOL     OW25172   1.341   0.171   1.137 -0.1501 -0.5038  0.3720
 4748SOL    HW125173   1.299   0.123   1.060 -0.0109 -0.2577  0.1395
 4748SOL    HW225174   1.427   0.212   1.107 -1.5611  2.2149 -0.2091
 4749SOL     OW25175   7.547   1.628   3.883  0.4519 -0.2176  0.2758
 4749SOL    HW125176   7.470   1.682   3.851  1.2835  0.5511 -0.4550
 4749SOL    HW225177   7.523   1.531   3.882 -0.4890  0.0151  0.0257
 4750SOL     OW25178   7.644   9.229   2.151 -0.1798 -0.0336  0.7125
 4750SOL    HW125179   7.668   9.308   2.094  0.6533  1.3694  2.9360
 4750SOL    HW225180   7.565   9.182   2.112 -0.1152  1.3616 -1.1515
 4751SOL     OW25181   0.654   4.906   4.946 -0.5095 -0.2082 -0.2288
 4751SOL    HW125182   0.743   4.950   4.955  0.6205 -2.2895 -0.6959
 4751SOL    HW225183   0.614   4.890   5.036  0.1953 -0.4222  0.0469
 4752SOL     OW25184   5.532   0.184   1.006  0.4435  0.1253  0.6394
 4752SOL    HW125185   5.524   0.101   1.061  2.2703  0.1179  0.9268
 4752SOL    HW225186   5.607   0.173   0.941  1.5882  2.0304  1.5898
 4753SOL     OW25187   3.062   8.710   3.775  0.6313 -0.4246 -0.3324
 4753SOL    HW125188   3.001   8.760   3.714  1.2900 -0.3767 -0.9735
 4753SOL    HW225189   3.023   8.706   3.867  0.2665  0.6906 -0.4340
 4754SOL     OW25190   9.810   1.898   0.959 -0.0920 -0.7008 -0.0597
 4754SOL    HW125191   9.909   1.911   0.958  0.0810 -1.9853 -0.6098
 4754SOL    HW225192   9.776   1.891   0.865 -0.8588  0.7456  0.0906
 4755SOL     OW25193   8.366   1.484   4.646 -1.7059 -0.3073  0.1866
 4755SOL    HW125194   8.427   1.442   4.579 -1.5509  1.5078 -0.8550
 4755SOL    HW225195   8.279   1.507   4.603 -1.1311  2.0936  0.2033
 4756SOL     OW25196   3.247   4.389   5.492 -0.2902 -0.6490 -0.1808
 4756SOL    HW125197   3.181   4.439   5.547 -0.5036 -0.1054 -0.9262
 4756SOL    HW225198   3.320   4.450   5.461  1.7732 -1.6799  2.4421
 4757SOL     OW25199   3.468   9.651   4.795  0.3130  0.1655 -0.4731
 4757SOL    HW125200   3.445   9.714   4.869  0.5697  1.3041 -1.3507
 4757SOL    HW225201   3.567   9.646   4.784  0.2423  1.1244 -1.6812
 4758SOL     OW25202   6.926   0.233   4.884  0.0256  0.1042 -0.2584
 4758SOL    HW125203   6.889   0.256   4.794 -0.3787  0.1297 -0.0899
 4758SOL    HW225204   7.013   0.280   4.898  1.2408 -1.6888 -1.5455
 4759SOL     OW25205   9.292   6.498   0.370 -0.1090 -0.5635 -0.6755
 4759SOL    HW125206   9.261   6.402   0.367 -0.3195 -0.5888  1.7242
 4759SOL    HW225207   9.214   6.557   0.389  0.2724 -0.0494 -0.7126
 4760SOL     OW25208   8.171   0.096   3.736  0.8563 -0.0768  0.5483
 4760SOL    HW125209   8.181   0.172   3.800  0.3967  2.0287 -1.7955
 4760SOL    HW225210   8.081   0.055   3.746  0.6224  0.5361  0.9602
 4761SOL     OW25211   1.445   7.387   0.339  0.1612  0.0688  0.0504
 4761SOL    HW125212   1.364   7.443   0.355 -0.4987 -0.3423 -1.7097
 4761SOL    HW225213   1.417   7.293   0.321  0.9934  0.0276 -1.0552
 4762SOL     OW25214   3.392   7.036   2.294 -0.2082 -0.1398 -0.0493
 4762SOL    HW125215   3.314   7.096   2.277  0.0617 -0.3922 -2.3476
 4762SOL    HW225216   3.367   6.942   2.271  0.3902 -0.4024  0.3690
 4763SOL     OW25217   5.839   1.490   2.536 -0.2365  1.1795  0.0028
 4763SOL    HW125218   5.801   1.440   2.613 -2.4401  1.1053 -1.0743
 4763SOL    HW225219   5.825   1.438   2.452  1.3961  1.6262 -0.5677
 4764SOL     OW25220   1.324   9.216   1.314 -0.2966  0.7622 -0.1748
 4764SOL    HW125221   1.374   9.160   1.379 -0.8252  0.8635  0.3240
 4764SOL    HW225222   1.262   9.158   1.260  0.8102  0.5439 -1.2313
 4765SOL     OW25223   8.739   0.900   0.664  0.0544 -0.4564  0.2238
 4765SOL    HW125224   8.827   0.919   0.709 -0.1164  2.4593 -0.5479
 4765SOL    HW225225   8.745   0.813   0.615  2.2905 -0.6231  0.7059
 4766SOL     OW25226   2.285   1.582   4.499  0.0792 -0.7174  0.3788
 4766SOL    HW125227   2.253   1.668   4.539  1.5133 -0.2699  0.5954
 4766SOL    HW225228   2.373   1.557   4.539 -1.0178 -3.0951  1.4274
 4767SOL     OW25229   4.062   9.612   0.910 -0.3564  0.2301 -0.0061
 4767SOL    HW125230   3.979   9.640   0.862  0.6779  0.3648 -1.7292
 4767SOL    HW225231   4.057   9.514   0.930 -0.1993 -0.1111 -1.6053
 4768SOL     OW25232   2.694   6.396   3.888  0.2007  0.5271 -0.0064
 4768SOL    HW125233   2.651   6.307   3.902  1.6718  0.1673  2.5187
 4768SOL    HW225234   2.754   6.393   3.808  1.9565 -1.4414  1.3342
 4769SOL     OW25235   1.132   7.845   3.235  0.0167 -0.1264 -0.4081
 4769SOL    HW125236   1.046   7.864   3.187 -0.4581  2.9225  1.4551
 4769SOL    HW225237   1.209   7.871   3.177 -0.4142 -0.3426 -1.0772
 4770SOL     OW25238   9.101   9.856   0.148  0.3507  0.5809 -0.2562
 4770SOL    HW125239   9.014   9.844   0.196  1.0968  0.7184  1.1784
 4770SOL    HW225240   9.173   9.808   0.199  1.2256  1.0123 -1.0748
 4771SOL     OW25241   5.035   3.817   0.372 -0.1424 -0.1991 -0.1587
 4771SOL    HW125242   5.108   3.784   0.313  0.0334  1.0410 -0.6609
 4771SOL    HW225243   4.947   3.807   0.325  0.0525  1.2883 -0.8804
 4772SOL     OW25244   7.199   9.466   1.569  0.6313 -0.0486  0.3934
 4772SOL    HW125245   7.282   9.484   1.516  0.0406  2.7354  0.3559
 4772SOL    HW225246   7.151   9.552   1.587 -1.4707 -1.4466  1.7149
 4773SOL     OW25247   3.119   6.300   1.772 -0.2000  0.2552 -0.5693
 4773SOL    HW125248   3.028   6.278   1.807  0.3964 -0.1814  0.7313
 4773SOL    HW225249   3.180   6.222   1.787  0.7037  1.0090 -0.3010
 4774SOL     OW25250   3.798   7.869   5.464 -0.4709  0.5761  0.1301
 4774SOL    HW125251   3.789   7.789   5.405  0.0564 -0.0918  0.9443
 4774SOL    HW225252   3.895   7.890   5.476 -0.5091 -0.2948  2.0886
 4775SOL     OW25253   8.784   5.994   2.921 -0.4854 -0.0651 -0.1668
 4775SOL    HW125254   8.795   5.897   2.900 -0.1879  0.1206 -0.8695
 4775SOL    HW225255   8.823   6.012   3.012  0.2586 -0.4395 -0.4028
 4776SOL     OW25256   9.544   9.237   0.362  0.2897  0.2269 -0.4178
 4776SOL    HW125257   9.617   9.170   0.376  1.6617  1.6713 -0.4929
 4776SOL    HW225258   9.464   9.192   0.324  0.8174 -1.5550  0.5270
 4777SOL     OW25259   3.397   8.957   0.759 -0.2283 -0.3164  0.4816
 4777SOL    HW125260   3.488   8.992   0.736 -1.0703  1.8907  0.3811
 4777SOL    HW225261   3.333   8.977   0.685 -0.5796 -2.9360  0.0075
 4778SOL     OW25262   8.817   0.316   4.326 -0.6478  0.2966 -0.6207
 4778SOL    HW125263   8.725   0.357   4.333 -1.0879 -0.7132 -0.4928
 4778SOL    HW225264   8.828   0.247   4.398  0.1763  0.3434 -0.7081
 4779SOL     OW25265   3.320   1.723   1.844 -0.3388  0.2877 -0.2665
 4779SOL    HW125266   3.381   1.757   1.915  1.1768  0.5782 -1.6847
 4779SOL    HW225267   3.349   1.631   1.816  0.7259  1.2320 -2.3738
 4780SOL     OW25268   8.840   1.826   4.851  0.3212  0.2135  0.0221
 4780SOL    HW125269   8.796   1.875   4.776  1.1509  0.0948 -0.5495
 4780SOL    HW225270   8.924   1.874   4.877  0.2099  0.0726  0.6581
 4781SOL     OW25271   1.793   4.468   1.286  0.0926 -0.1226 -0.1996
 4781SOL    HW125272   1.789   4.417   1.199  2.3438  0.1023 -0.4765
 4781SOL    HW225273   1.837   4.556   1.270  1.9285 -0.7025  1.4142
 4782SOL     OW25274   4.507   4.147   4.955 -0.1771  0.3241  0.1252
 4782SOL    HW125275   4.443   4.071   4.955 -2.0827  1.8724 -2.3955
 4782SOL    HW225276   4.504   4.193   5.044 -2.2821  0.1540  0.1636
 4783SOL     OW25277   5.640   9.448   4.246 -0.3774 -0.4231 -0.1501
 4783SOL    HW125278   5.678   9.523   4.192 -1.0139 -0.6068 -0.8632
 4783SOL    HW225279   5.549   9.424   4.211 -0.8548 -0.4622  1.0775
 4784SOL     OW25280   0.318   2.643   5.034 -0.4660  0.8221  1.0102
 4784SOL    HW125281   0.364   2.570   5.084  0.7884  1.1926  0.4191
 4784SOL    HW225282   0.302   2.614   4.939  0.5208  1.4810  0.6220
 4785SOL     OW25283   6.792   0.344   4.629 -0.3823  0.0490 -0.3166
 4785SOL    HW125284   6.732   0.374   4.704 -2.3051 -2.8005 -0.6369
 4785SOL    HW225285   6.755   0.376   4.542  0.4190  1.1222 -0.2732
 4786SOL     OW25286   9.402   2.240   4.624  0.3719 -0.2491  0.0655
 4786SOL    HW125287   9.476   2.299   4.592 -0.6125  0.2606 -1.3073
 4786SOL    HW225288   9.320   2.294   4.639 -0.4553 -1.2205 -0.9097
 4787SOL     OW25289   4.372   8.586   2.465 -0.2899  0.1341 -0.1798
 4787SOL    HW125290   4.430   8.573   2.546  0.1629 -0.6082 -0.6118
 4787SOL    HW225291   4.280   8.614   2.494 -0.7116 -2.0381  0.7258
 4788SOL     OW25292   2.157   3.924   1.887 -0.5660  0.3642  0.1313
 4788SOL    HW125293   2.131   3.973   1.971  0.7998  2.2876 -0.5428
 4788SOL    HW225294   2.244   3.959   1.854 -0.9513 -0.5971 -1.9472
 4789SOL     OW25295   2.102   9.119   1.313  0.5743 -0.1521 -0.1519
 4789SOL    HW125296   2.056   9.097   1.399  0.3567 -0.6183 -0.3859
 4789SOL    HW225297   2.035   9.118   1.239  0.5269  1.4537 -0.1506
 4790SOL     OW25298   4.171   7.045   4.033 -0.1113  0.0144 -0.4285
 4790SOL    HW125299   4.152   7.110   4.105  0.3600 -0.6094  0.2687
 4790SOL    HW225300   4.193   7.094   3.948  0.9681  0.7702  0.2766
 4791SOL     OW25301   9.511   2.875   3.429 -0.0480 -0.1719 -0.1734
 4791SOL    HW125302   9.412   2.862   3.426 -0.0542 -0.0537 -0.5538
 4791SOL    HW225303   9.544   2.863   3.523 -0.5076  0.3865  0.0645
 4792SOL     OW25304   8.564   6.510   4.683 -0.3143  0.2805  0.0502
 4792SOL    HW125305   8.532   6.484   4.591  1.0352  1.0732 -0.6489
 4792SOL    HW225306   8.499   6.574   4.724 -0.0421  1.2451 -1.0300
 4793SOL     OW25307   1.824   0.932   4.439  0.4058 -0.7846  0.5261
 4793SOL    HW125308   1.725   0.941   4.444  0.2106 -1.2430 -1.8779
 4793SOL    HW225309   1.851   0.841   4.471 -0.2802 -1.8490 -1.7972
 4794SOL     OW25310   2.820   4.299   0.414 -0.2341  0.2553 -0.1441
 4794SOL    HW125311   2.915   4.333   0.415 -0.2668  0.3410 -0.0158
 4794SOL    HW225312   2.794   4.271   0.506 -0.5415  0.8051 -0.0653
 4795SOL     OW25313   2.574   8.626   4.118  0.1847 -0.1017  0.6555
 4795SOL    HW125314   2.569   8.725   4.100  0.8854 -0.0980  0.4773
 4795SOL    HW225315   2.583   8.611   4.217  1.5182  0.0654  0.5630
 4796SOL     OW25316   4.261   6.149   2.054 -0.6332  0.0561  0.0044
 4796SOL    HW125317   4.182   6.090   2.038 -0.5973 -0.0594  0.2596
 4796SOL    HW225318   4.320   6.146   1.973 -1.5081  1.1123 -0.6964
 4797SOL     OW25319   6.190   7.894   2.731  0.0313  0.5109 -0.0353
 4797SOL    HW125320   6.100   7.855   2.711 -0.7927  1.8080  1.0322
 4797SOL    HW225321   6.222   7.946   2.651 -0.7886  1.1541  0.0378
 4798SOL     OW25322   3.459   0.831   4.879  0.1356 -0.3701  0.0523
 4798SOL    HW125323   3.532   0.800   4.818 -0.4236 -0.9668 -0.3123
 4798SOL    HW225324   3.411   0.751   4.916  0.6070 -0.0291  1.4462
 4799SOL     OW25325   0.528   8.217   3.717  0.4503  0.0626 -0.9700
 4799SOL    HW125326   0.536   8.221   3.617  0.1367 -1.6827 -1.0803
 4799SOL    HW225327   0.468   8.141   3.742  1.1885 -0.0205  0.5764
 4800SOL     OW25328   2.703   3.336   1.861 -0.0290 -0.1910 -0.9457
 4800SOL    HW125329   2.727   3.391   1.941 -1.7247 -0.6097 -0.1153
 4800SOL    HW225330   2.666   3.396   1.790  1.2212  0.1456 -1.3318
 4801SOL     OW25331   6.806   7.738   3.706  0.0211 -0.0579 -0.4648
 4801SOL    HW125332   6.763   7.648   3.706  1.5845 -0.8370  1.0013
 4801SOL    HW225333   6.749   7.803   3.757  0.4078 -0.9995  1.2001
 4802SOL     OW25334   4.042   4.326   1.929  0.2374  0.1231  0.4768
 4802SOL    HW125335   3.964   4.285   1.977  0.6728  0.0320  1.1203
 4802SOL    HW225336   4.035   4.307   1.832  0.1288 -1.0058  0.6986
 4803SOL     OW25337   3.214   5.678   2.088  0.1854  0.1508  0.3961
 4803SOL    HW125338   3.272   5.746   2.134 -0.5607  0.6409  0.6273
 4803SOL    HW225339   3.130   5.722   2.057 -0.7489 -0.8614  1.4138
 4804SOL     OW25340   5.548   3.709   0.358 -0.0715 -0.2724 -0.2391
 4804SOL    HW125341   5.478   3.762   0.311  0.0883 -0.6138 -0.8738
 4804SOL    HW225342   5.617   3.771   0.396  1.2286 -0.1010 -2.7704
 4805SOL     OW25343   4.888   0.563   4.000 -0.4322  0.1738 -0.7156
 4805SOL    HW125344   4.870   0.596   3.907 -2.9054  0.3305 -0.2179
 4805SOL    HW225345   4.801   0.551   4.048  0.7924 -0.5619  1.3617
 4806SOL     OW25346   7.453   9.448   1.862  0.5432 -0.2488 -0.9203
 4806SOL    HW125347   7.484   9.510   1.934  0.7253 -0.2167 -1.0268
 4806SOL    HW225348   7.468   9.353   1.890  0.0717 -0.2490 -0.6699
 4807SOL     OW25349   0.797   5.341   1.473  0.0608  0.3234  0.0967
 4807SOL    HW125350   0.773   5.321   1.377  0.8798 -1.8381  0.3258
 4807SOL    HW225351   0.774   5.262   1.530 -0.6648  1.6992  1.7522
 4808SOL     OW25352   4.309   8.455   1.598 -0.1426  0.7061  0.4309
 4808SOL    HW125353   4.275   8.427   1.508  1.7603  0.2639 -0.1861
 4808SOL    HW225354   4.254   8.531   1.633 -0.7587  1.0323 -1.2096
 4809SOL     OW25355   4.169   1.576   0.749  0.4527 -0.0528 -0.4229
 4809SOL    HW125356   4.137   1.572   0.655 -0.7725  0.3977 -0.0468
 4809SOL    HW225357   4.093   1.552   0.811  0.2524  2.9847  0.5881
 4810SOL     OW25358   1.266   4.905   2.435  0.0864 -0.1836  0.2758
 4810SOL    HW125359   1.326   4.840   2.481 -0.6310  0.1864  1.7874
 4810SOL    HW225360   1.184   4.857   2.403  0.3979 -0.3649 -0.2539
 4811SOL     OW25361   3.474   9.373   3.700 -0.5116  0.1983  0.4196
 4811SOL    HW125362   3.520   9.302   3.647 -0.3149  0.0758  0.7539
 4811SOL    HW225363   3.478   9.460   3.650  0.3480  0.2555  0.5816
 4812SOL     OW25364   3.812   0.711   0.985  0.0254 -0.1004 -0.0790
 4812SOL    HW125365   3.884   0.656   1.028 -0.6220  0.3299  1.5686
 4812SOL    HW225366   3.730   0.655   0.974 -0.3994  0.3094  0.9363
 4813SOL     OW25367   5.456   1.521   3.931  0.6750 -0.2531 -0.0126
 4813SOL    HW125368   5.383   1.460   3.959 -0.6873  1.2150 -0.3226
 4813SOL    HW225369   5.530   1.467   3.889 -0.5592 -1.6646 -0.4214
 4814SOL     OW25370   3.116   7.630   4.489  0.3092  0.2524  0.3630
 4814SOL    HW125371   3.098   7.728   4.501  0.8324  0.4601 -0.5073
 4814SOL    HW225372   3.049   7.592   4.424  0.9502  0.3310 -0.3535
 4815SOL     OW25373   4.035   3.325   5.599  0.4457  0.3790 -0.0184
 4815SOL    HW125374   4.127   3.304   5.633  0.1293 -0.6278  0.2391
 4815SOL    HW225375   3.989   3.240   5.574 -1.3688  0.6535  2.2723
 4816SOL     OW25376   3.852   8.984   4.507  0.0941 -0.4562  0.7237
 4816SOL    HW125377   3.781   8.923   4.541 -0.1263 -0.9241 -0.5736
 4816SOL    HW225378   3.814   9.043   4.436  1.5246 -2.1989 -1.5467
 4817SOL     OW25379   4.669   8.974   4.751 -0.2066 -0.4729 -0.0941
 4817SOL    HW125380   4.730   8.900   4.723  0.1539  0.5174 -2.0130
 4817SOL    HW225381   4.628   8.952   4.839  1.9044 -1.7599  0.6026
 4818SOL     OW25382   1.583   0.033   0.205 -0.0194 -0.4695  0.3002
 4818SOL    HW125383   1.665   0.091   0.213 -0.9517  0.9464 -0.1774
 4818SOL    HW225384   1.611  -0.061   0.185  1.5240 -0.1648  0.9127
 4819SOL     OW25385   8.523   4.653   3.413  0.2159 -0.1539  0.2113
 4819SOL    HW125386   8.606   4.683   3.365 -1.9521  3.4845 -1.4728
 4819SOL    HW225387   8.471   4.592   3.354 -0.3136  0.8377 -0.3475
 4820SOL     OW25388   3.114   8.886   5.258 -0.4851  0.2217  0.0106
 4820SOL    HW125389   3.141   8.938   5.178  1.2607 -1.8008 -0.7545
 4820SOL    HW225390   3.185   8.819   5.280 -2.4077 -1.4605  1.2712
 4821SOL     OW25391   4.050   1.427   2.265 -0.6758 -0.5526  0.1082
 4821SOL    HW125392   4.144   1.456   2.281 -1.2078  0.1240  2.2003
 4821SOL    HW225393   4.044   1.328   2.268 -0.1034 -0.5791  0.3358
 4822SOL     OW25394   4.636   9.616   0.540 -0.2952 -0.2777  0.7092
 4822SOL    HW125395   4.603   9.527   0.572 -1.0593  0.4580  1.9776
 4822SOL    HW225396   4.652   9.676   0.618  0.6620  0.5508 -0.1204
 4823SOL     OW25397   8.414   0.724   2.857  0.2912 -0.0182  0.5195
 4823SOL    HW125398   8.470   0.705   2.776  2.5191  3.2276  1.1507
 4823SOL    HW225399   8.453   0.677   2.936 -0.8645 -1.7809  0.0714
 4824SOL     OW25400   6.619   1.648   3.312  0.5443 -0.5593 -0.6715
 4824SOL    HW125401   6.537   1.662   3.257 -1.0064 -0.7280  1.5192
 4824SOL    HW225402   6.625   1.720   3.381  0.5116 -2.2941  1.1857
 4825SOL     OW25403   4.287   7.301   1.540  0.4101  0.3958 -0.1098
 4825SOL    HW125404   4.385   7.301   1.560  0.8019 -1.3419 -1.8551
 4825SOL    HW225405   4.247   7.216   1.575 -0.2304  0.5337 -0.5165
 4826SOL     OW25406   2.841   3.093   4.701  0.1507 -0.6510  0.1061
 4826SOL    HW125407   2.919   3.039   4.669  1.1426 -0.3628  1.9510
 4826SOL    HW225408   2.844   3.184   4.659  0.2981 -0.9339 -0.5091
 4827SOL     OW25409   0.575   1.849   2.471 -0.3266 -0.0604 -0.5269
 4827SOL    HW125410   0.490   1.797   2.475 -0.3386 -0.2051 -2.0384
 4827SOL    HW225411   0.617   1.835   2.381  0.9102  0.6042 -0.0574
 4828SOL     OW25412   0.526   2.161   5.236  0.2183 -0.0092  0.0711
 4828SOL    HW125413   0.618   2.164   5.273  0.1161 -1.9224  0.5380
 4828SOL    HW225414   0.473   2.090   5.283 -2.3383  2.8285  1.6738
 4829SOL     OW25415   6.742   0.031   4.927 -0.0818 -0.1747  0.1464
 4829SOL    HW125416   6.682   0.059   5.003 -1.4405  0.4109 -1.1253
 4829SOL    HW225417   6.802   0.106   4.903  2.0087 -1.1236  2.1665
 4830SOL     OW25418   0.532   5.301   5.502  0.2399 -0.1592  0.0604
 4830SOL    HW125419   0.567   5.274   5.412 -0.4149 -2.2098  0.3894
 4830SOL    HW225420   0.440   5.338   5.493  0.4125  0.2095 -0.1860
 4831SOL     OW25421   0.684   2.383   5.619  0.3836 -0.3466 -0.1761
 4831SOL    HW125422   0.713   2.410   5.711 -1.3841  0.4917  0.1683
 4831SOL    HW225423   0.755   2.407   5.553  0.9553  0.6322  0.7783
 4832SOL     OW25424   3.442   9.931   0.895 -0.0555 -0.2704 -0.3162
 4832SOL    HW125425   3.435  10.017   0.947 -1.8935  0.1393 -1.1934
 4832SOL    HW225426   3.512   9.941   0.825  0.9288 -0.0830  0.6731
 4833SOL     OW25427   0.036   5.734   4.548  0.6542 -0.0699  1.3152
 4833SOL    HW125428  -0.021   5.746   4.467  1.6061 -2.7524  0.1789
 4833SOL    HW225429  -0.012   5.675   4.613  0.0770  1.7277  2.5635
 4834SOL     OW25430   9.475   7.463   1.352 -0.8741 -0.2352  0.2293
 4834SOL    HW125431   9.508   7.425   1.265 -2.2570 -0.7371 -0.0840
 4834SOL    HW225432   9.487   7.562   1.352 -2.3581 -0.0263 -1.2073
 4835SOL     OW25433   4.269   3.926   0.133 -0.4344  0.2499 -0.4865
 4835SOL    HW125434   4.181   3.933   0.180  0.1244  0.9000  0.4845
 4835SOL    HW225435   4.283   4.006   0.075  1.4347  2.3848  2.7499
 4836SOL     OW25436   7.902   3.458   1.413  0.0541 -0.5625 -0.1592
 4836SOL    HW125437   7.926   3.509   1.332  0.0063  0.4905  0.4821
 4836SOL    HW225438   7.899   3.360   1.392  0.6232 -0.3408 -1.2647
 4837SOL     OW25439   9.274   8.896   3.294  0.3583  0.2904 -0.1714
 4837SOL    HW125440   9.253   8.828   3.365  0.1511 -0.1188 -0.6243
 4837SOL    HW225441   9.191   8.919   3.244  0.6033  0.2026 -0.6139
 4838SOL     OW25442   1.145   6.794   3.893 -0.4868 -0.2298  0.3119
 4838SOL    HW125443   1.103   6.703   3.884  1.4400 -1.1431  0.3436
 4838SOL    HW225444   1.146   6.839   3.804 -0.0553 -0.8725 -0.0122
 4839SOL     OW25445   1.885   8.348   1.648 -0.7422  0.1118 -0.6508
 4839SOL    HW125446   1.888   8.389   1.739  1.7914 -0.6382 -0.3359
 4839SOL    HW225447   1.978   8.322   1.621 -1.9242 -2.8711 -1.9853
 4840SOL     OW25448   9.319   0.720   3.954 -0.3036  0.1144  0.0464
 4840SOL    HW125449   9.251   0.776   4.002  0.0413 -0.7690  1.5968
 4840SOL    HW225450   9.367   0.662   4.019  0.2793 -1.0292 -1.3602
 4841SOL     OW25451   4.217   8.449   4.389  0.3637  0.3597 -0.0419
 4841SOL    HW125452   4.203   8.490   4.479  2.5330 -1.9695  1.3986
 4841SOL    HW225453   4.128   8.424   4.350 -0.4752 -0.4325  2.2964
 4842SOL     OW25454   1.171   0.941   1.159  0.0970  0.4523 -0.7095
 4842SOL    HW125455   1.129   0.853   1.137 -0.1408 -0.0326  1.5829
 4842SOL    HW225456   1.247   0.958   1.096 -0.0125 -1.2827 -1.3429
 4843SOL     OW25457   0.322   4.915   1.576  0.0636 -0.0700 -0.3885
 4843SOL    HW125458   0.294   4.830   1.531 -0.3042  0.1258 -0.5368
 4843SOL    HW225459   0.396   4.957   1.525  0.5579 -0.5367 -0.0590
 4844SOL     OW25460   0.966   4.347   2.113 -0.5540  0.2211  0.3746
 4844SOL    HW125461   0.887   4.289   2.092  0.9295 -1.8135  0.3115
 4844SOL    HW225462   0.999   4.326   2.205 -0.7191  1.8232  0.8161
 4845SOL     OW25463   8.616   6.080   5.581 -0.1815 -0.4166  0.0473
 4845SOL    HW125464   8.617   6.095   5.482  0.0185  0.1498  0.1370
 4845SOL    HW225465   8.694   6.024   5.608  0.4460  0.4571  0.0512
 4846SOL     OW25466   1.691   2.174   0.122 -0.0477 -0.5080  0.1652
 4846SOL    HW125467   1.721   2.223   0.204 -0.5070 -0.7632  0.4923
 4846SOL    HW225468   1.742   2.088   0.115 -2.6038 -2.3181  2.2908
 4847SOL     OW25469   2.208   6.021   3.791  0.8267  0.0716  0.2038
 4847SOL    HW125470   2.157   6.055   3.712  2.5681  0.5580 -0.7413
 4847SOL    HW225471   2.194   6.082   3.869  1.6814  1.4046 -0.6762
 4848SOL     OW25472   0.538   8.614   5.273  0.4218  0.2204  0.0451
 4848SOL    HW125473   0.609   8.591   5.340  1.8115  1.1833 -1.0501
 4848SOL    HW225474   0.568   8.586   5.182  0.9932  3.7737 -0.9350
 4849SOL     OW25475   2.760   3.516   2.447  0.0949 -0.6604 -0.6372
 4849SOL    HW125476   2.758   3.593   2.383  1.8058 -1.1548 -1.3150
 4849SOL    HW225477   2.843   3.462   2.432 -1.4114 -3.0551 -0.6555
 4850SOL     OW25478   2.193   9.578   4.759  0.4432 -0.3499  0.3717
 4850SOL    HW125479   2.113   9.573   4.700 -0.2255  0.3904  1.2084
 4850SOL    HW225480   2.180   9.649   4.828  1.8170 -0.2291  0.5285
 4851SOL     OW25481   4.787   1.103   3.764  0.3779 -0.2830 -0.0599
 4851SOL    HW125482   4.709   1.043   3.779 -0.8714  1.3711  0.2047
 4851SOL    HW225483   4.808   1.107   3.666 -0.3146 -0.1974 -0.2069
 4852SOL     OW25484   9.766   5.171   2.517 -0.3259  0.1282 -0.0941
 4852SOL    HW125485   9.723   5.150   2.605  1.1867  0.6663  0.7840
 4852SOL    HW225486   9.755   5.092   2.456  0.1290 -0.9312  1.1667
 4853SOL     OW25487   0.441   0.432   2.829 -0.0943 -0.6970 -0.2047
 4853SOL    HW125488   0.390   0.493   2.889  0.3112  1.5832 -2.1128
 4853SOL    HW225489   0.535   0.423   2.862  0.8721  2.6495 -1.8866
 4854SOL     OW25490   9.932   1.308   1.289 -0.1790  0.2565 -0.1275
 4854SOL    HW125491   9.903   1.398   1.322  0.9729  1.0483 -1.2123
 4854SOL    HW225492   9.949   1.313   1.190 -0.1521 -1.1645 -0.1981
 4855SOL     OW25493   7.520   1.556   5.181  0.2071  0.4423 -0.4477
 4855SOL    HW125494   7.572   1.600   5.254  2.6594 -1.5111 -0.9593
 4855SOL    HW225495   7.581   1.535   5.104 -1.9107  0.5987 -2.2271
 4856SOL     OW25496   4.377   0.709   5.223 -0.0686 -0.3792  0.2267
 4856SOL    HW125497   4.470   0.729   5.251  0.1290 -1.3212  0.2683
 4856SOL    HW225498   4.313   0.753   5.285  0.3589 -0.7409  0.9247
 4857SOL     OW25499   1.539   0.870   1.717 -0.6707  0.4982  0.2543
 4857SOL    HW125500   1.477   0.831   1.650 -2.2709  0.6785  1.5993
 4857SOL    HW225501   1.514   0.838   1.809  1.5724  0.1177  0.7707
 4858SOL     OW25502   0.939   9.324   4.858  0.0621 -0.1354  0.4772
 4858SOL    HW125503   0.962   9.342   4.954  0.5323  0.2197  0.2979
 4858SOL    HW225504   1.006   9.260   4.820 -0.8352 -1.2574  0.7338
 4859SOL     OW25505   7.378   3.157   0.156  0.0866 -0.1768 -0.9907
 4859SOL    HW125506   7.326   3.129   0.075  0.2995  0.4759 -1.3522
 4859SOL    HW225507   7.466   3.109   0.158  0.1996  0.0194 -1.2949
 4860SOL     OW25508   8.006   0.644   4.931  0.1021  0.3225  0.2603
 4860SOL    HW125509   7.943   0.603   4.864  1.7007  0.5330 -1.4206
 4860SOL    HW225510   7.987   0.606   5.022  0.0652 -2.4865 -0.8514
 4861SOL     OW25511   9.334   0.896   1.936  0.1828  0.0982  0.1058
 4861SOL    HW125512   9.259   0.954   1.967 -0.8712 -0.3293 -1.5391
 4861SOL    HW225513   9.374   0.849   2.014 -1.1275  0.4994  1.0471
 4862SOL     OW25514   5.743   8.134   3.861  0.8541  0.3198  0.1363
 4862SOL    HW125515   5.788   8.053   3.823  1.1863 -0.3404  1.8823
 4862SOL    HW225516   5.650   8.141   3.824  0.9448 -0.6676 -0.2925
 4863SOL     OW25517   2.498   9.603   0.654 -0.3090  0.3685 -0.0358
 4863SOL    HW125518   2.529   9.541   0.582  1.0958  0.8336  0.1477
 4863SOL    HW225519   2.406   9.577   0.683  0.6143 -2.1876  0.6751
 4864SOL     OW25520   9.012   3.913   5.489 -0.3479 -0.0283 -0.1756
 4864SOL    HW125521   9.042   3.889   5.396  0.5793  1.9865 -0.4202
 4864SOL    HW225522   8.962   3.836   5.529 -0.4424 -1.0494 -2.2108
 4865SOL     OW25523   3.871   0.637   2.973  0.0554  0.1501  0.0314
 4865SOL    HW125524   3.822   0.707   3.026  0.4426  0.5379 -0.1153
 4865SOL    HW225525   3.969   0.644   2.991  0.1123 -0.2433 -0.1212
 4866SOL     OW25526   2.594   7.413   1.231  0.0207 -0.5378 -0.0958
 4866SOL    HW125527   2.678   7.464   1.249  0.7506 -2.1596  1.3159
 4866SOL    HW225528   2.581   7.345   1.304 -2.1048 -0.8270 -0.7232
 4867SOL     OW25529   9.978   3.269   3.196  0.6967  0.5279 -0.1552
 4867SOL    HW125530  10.066   3.223   3.206  0.9029  0.8729 -0.3626
 4867SOL    HW225531   9.914   3.233   3.263  1.7615  2.0963  1.7506
 4868SOL     OW25532   8.227   4.310   0.741  0.3618  0.4330 -0.0615
 4868SOL    HW125533   8.166   4.384   0.770 -0.3575 -0.1668 -0.0195
 4868SOL    HW225534   8.322   4.341   0.746  0.1084  1.1035  0.6799
 4869SOL     OW25535   0.893   7.580   0.080  0.6465  0.2346  0.2782
 4869SOL    HW125536   0.920   7.669   0.117  1.2028 -0.5243  1.7633
 4869SOL    HW225537   0.855   7.591  -0.011  0.4078  2.0379  0.5865
 4870SOL     OW25538   7.801   8.218   2.763 -0.1626 -0.4173 -0.6855
 4870SOL    HW125539   7.797   8.129   2.716  0.0628  0.3597 -2.2248
 4870SOL    HW225540   7.895   8.252   2.762  0.3083 -1.4498  2.4385
 4871SOL     OW25541   8.426   2.073   4.624 -0.4079 -0.1010 -0.1383
 4871SOL    HW125542   8.438   2.078   4.525  0.4814  0.5079 -0.0108
 4871SOL    HW225543   8.483   2.000   4.662 -1.4059 -0.8944 -0.1778
 4872SOL     OW25544   3.229   7.898   4.261  0.2690 -0.0876 -0.4761
 4872SOL    HW125545   3.201   7.834   4.190  0.8295 -0.3695 -0.4510
 4872SOL    HW225546   3.157   7.965   4.276 -0.4587 -0.9036 -0.2806
 4873SOL     OW25547   0.570   6.274   3.874 -0.0433 -0.0363 -0.3138
 4873SOL    HW125548   0.622   6.212   3.933 -0.3437 -1.1049 -1.1533
 4873SOL    HW225549   0.515   6.336   3.931 -0.6330 -1.3086  0.5317
 4874SOL     OW25550   2.775   0.927   3.649  0.1645  0.2778 -0.1703
 4874SOL    HW125551   2.792   0.867   3.727  2.9231  0.0196 -0.9308
 4874SOL    HW225552   2.694   0.896   3.599  0.1606 -1.3611  0.8284
 4875SOL     OW25553   1.119   2.480   0.908  0.7471  0.3887  0.1790
 4875SOL    HW125554   1.062   2.545   0.959 -1.5540 -0.2759 -1.4658
 4875SOL    HW225555   1.088   2.386   0.928 -0.3224  0.1211 -2.4843
 4876SOL     OW25556   8.174   0.599   3.159 -0.0711 -0.1099 -0.3016
 4876SOL    HW125557   8.145   0.512   3.200 -0.2621  0.3265  0.4942
 4876SOL    HW225558   8.162   0.673   3.225 -1.3960  0.7805 -1.4919
 4877SOL     OW25559   0.563   1.941   1.639  0.4284  0.6554 -0.1956
 4877SOL    HW125560   0.578   1.922   1.542  0.9848 -0.7038  0.1546
 4877SOL    HW225561   0.618   2.020   1.666  1.3303  0.1830 -0.6515
 4878SOL     OW25562   2.569   0.130   5.092  0.2295 -0.1665 -0.2298
 4878SOL    HW125563   2.567   0.214   5.146 -0.3334 -0.3203 -0.0014
 4878SOL    HW225564   2.627   0.142   5.012  0.1912  0.4238 -0.1663
 4879SOL     OW25565   4.438   8.772   4.258 -0.7776  0.1571  0.1196
 4879SOL    HW125566   4.452   8.687   4.308 -1.9325  0.7985  1.5393
 4879SOL    HW225567   4.342   8.800   4.264 -0.6182  1.0538 -1.1602
 4880SOL     OW25568   0.813   7.564   0.833 -0.6871 -0.2381 -0.1061
 4880SOL    HW125569   0.731   7.593   0.881  0.1863  1.6120  0.2937
 4880SOL    HW225570   0.792   7.548   0.736 -1.5145  0.2171  0.0005
 4881SOL     OW25571   3.197   1.653   2.290 -0.1936  0.1042  0.3400
 4881SOL    HW125572   3.155   1.588   2.353  1.0381  0.7150  1.8252
 4881SOL    HW225573   3.236   1.729   2.341  0.3055  0.9195 -1.2134
 4882SOL     OW25574   8.902   3.547   2.599 -0.1281 -0.2699 -0.2120
 4882SOL    HW125575   8.957   3.592   2.668  0.2020  1.3759 -1.5216
 4882SOL    HW225576   8.845   3.477   2.642 -1.1638  1.8595  1.9617
 4883SOL     OW25577   2.605   6.759   3.616  0.0698 -0.3106 -0.6528
 4883SOL    HW125578   2.672   6.830   3.638  0.4898 -0.8815 -0.0381
 4883SOL    HW225579   2.587   6.704   3.698 -3.0174  1.3458 -0.1625
 4884SOL     OW25580   3.246   7.074   3.758  0.0086 -0.1678 -0.6022
 4884SOL    HW125581   3.315   7.016   3.715 -0.6929 -0.8178 -0.8800
 4884SOL    HW225582   3.233   7.157   3.703  0.2794 -0.2310 -0.7627
 4885SOL     OW25583   5.168   0.105   1.598  0.4752 -0.1504  0.3912
 4885SOL    HW125584   5.134   0.197   1.616  1.0040  0.2294 -0.5304
 4885SOL    HW225585   5.211   0.068   1.681 -1.2247 -0.2266  1.2538
 4886SOL     OW25586   2.335   6.325   4.032  0.2378  0.6775  0.1640
 4886SOL    HW125587   2.325   6.423   4.014  1.5146  1.4241  3.2162
 4886SOL    HW225588   2.397   6.285   3.965  1.6515  2.4924  0.3594
 4887SOL     OW25589   2.387   6.593   1.309  0.1266  0.2656 -0.1243
 4887SOL    HW125590   2.339   6.525   1.364  0.1337  0.4987  0.1670
 4887SOL    HW225591   2.390   6.562   1.214 -2.3024  1.1399 -0.5229
 4888SOL     OW25592   8.601   3.030   5.173  0.6019 -0.3780  0.0110
 4888SOL    HW125593   8.516   2.982   5.150  0.1919 -0.4853  1.7185
 4888SOL    HW225594   8.610   3.111   5.115 -0.9567 -0.0360  0.2427
 4889SOL     OW25595   9.633   9.479   2.629  0.3827 -0.2989  0.1105
 4889SOL    HW125596   9.630   9.507   2.726 -0.2238 -3.3142  1.0009
 4889SOL    HW225597   9.604   9.556   2.572  0.3798  1.4221  2.3299
 4890SOL     OW25598   5.849   0.627   4.406 -0.0879 -0.7679  0.0813
 4890SOL    HW125599   5.898   0.563   4.346 -0.3024 -2.8667  2.0710
 4890SOL    HW225600   5.758   0.590   4.426 -0.0274 -0.0748  1.6631
 4891SOL     OW25601   2.473   2.768   5.025 -0.0994  0.0605  0.9537
 4891SOL    HW125602   2.444   2.742   5.117 -0.4694 -1.3853  0.4519
 4891SOL    HW225603   2.446   2.862   5.006  1.2922  0.8748  2.8644
 4892SOL     OW25604   8.326   7.809   4.523 -0.0577  0.4567 -0.0754
 4892SOL    HW125605   8.420   7.831   4.550 -0.4182  1.0128  0.7272
 4892SOL    HW225606   8.328   7.760   4.436  0.9049  1.5753 -0.6982
 4893SOL     OW25607   7.958   1.923   1.897  0.1431 -0.1050  0.2438
 4893SOL    HW125608   7.939   1.973   1.812  1.6135 -0.6999 -0.4679
 4893SOL    HW225609   7.979   1.827   1.875 -0.9993 -0.6363  1.4330
 4894SOL     OW25610   9.542   6.346   4.628 -0.2231  0.2803  0.1429
 4894SOL    HW125611   9.522   6.381   4.537 -0.5012  1.1753  0.5375
 4894SOL    HW225612   9.531   6.420   4.695 -1.6100 -0.7376  1.0835
 4895SOL     OW25613   3.905   2.078   1.970 -0.1218  0.2662 -0.5639
 4895SOL    HW125614   3.919   2.009   2.041 -2.4660 -0.4064 -0.7006
 4895SOL    HW225615   3.848   2.152   2.005 -1.3851 -0.1223 -1.7511
 4896SOL     OW25616   1.499   4.819   1.838  0.0282 -0.1025 -0.1775
 4896SOL    HW125617   1.469   4.884   1.908 -0.6012  0.6211 -1.1152
 4896SOL    HW225618   1.442   4.737   1.843 -0.5776  0.3007 -0.3957
 4897SOL     OW25619   2.624   8.548   1.973 -0.5476 -0.4221 -0.3352
 4897SOL    HW125620   2.662   8.639   1.995  2.3951 -1.0838 -2.3812
 4897SOL    HW225621   2.641   8.486   2.050 -0.7061  0.2191  0.2250
 4898SOL     OW25622   4.899   9.963   4.897  0.4842 -0.0558 -0.2490
 4898SOL    HW125623   4.923   9.948   4.992 -0.1341 -0.7588 -0.1979
 4898SOL    HW225624   4.845   9.886   4.863 -1.1695  1.1784 -0.5131
 4899SOL     OW25625   3.155   4.185   1.461 -0.3062 -0.0288 -0.4871
 4899SOL    HW125626   3.066   4.164   1.421 -1.0779  0.3243  0.9941
 4899SOL    HW225627   3.213   4.104   1.456 -0.1021  0.2248 -2.9704
 4900SOL     OW25628   4.290   3.413   3.978 -0.3601  0.3663  0.2117
 4900SOL    HW125629   4.386   3.421   3.950 -0.4348 -0.9675 -0.4483
 4900SOL    HW225630   4.284   3.427   4.077  0.2605  2.2743  0.0045
 4901SOL     OW25631   0.793   4.450   1.434  0.1346  0.5590 -0.1577
 4901SOL    HW125632   0.850   4.447   1.516  2.0233  0.3895 -1.4160
 4901SOL    HW225633   0.741   4.535   1.432  1.0387  1.1419  0.6104
 4902SOL     OW25634   4.517   8.222   3.750 -0.0776  0.2710 -0.3171
 4902SOL    HW125635   4.552   8.148   3.693  0.5461 -0.3414  0.8535
 4902SOL    HW225636   4.443   8.269   3.701  0.3591 -0.3169 -1.5750
 4903SOL     OW25637   8.078   8.532   2.508 -0.2158  0.1836 -0.3988
 4903SOL    HW125638   8.045   8.596   2.438 -2.6894 -0.8631 -0.2472
 4903SOL    HW225639   8.122   8.583   2.581 -0.8083  1.5983 -0.9975
 4904SOL     OW25640   3.130   1.013   1.199 -0.6558 -0.0550 -0.6322
 4904SOL    HW125641   3.147   0.945   1.271  1.2262  1.3807  0.3187
 4904SOL    HW225642   3.199   1.004   1.127 -0.5335  0.6640 -0.6140
 4905SOL     OW25643   0.664   9.130   1.440  0.5356  0.4300  0.1895
 4905SOL    HW125644   0.605   9.059   1.479 -0.0205 -0.8147 -2.8297
 4905SOL    HW225645   0.615   9.217   1.441 -0.9044 -0.3389 -1.0762
 4906SOL     OW25646   8.258   2.041   2.320  0.0951 -0.1932 -0.0389
 4906SOL    HW125647   8.172   2.064   2.366  0.4207 -0.6159  0.7943
 4906SOL    HW225648   8.244   2.039   2.221 -0.5427  1.0179  0.0287
 4907SOL     OW25649   3.272   6.104   5.266  0.5665 -0.5039  0.4581
 4907SOL    HW125650   3.241   6.162   5.190 -0.1947 -0.2259  0.9794
 4907SOL    HW225651   3.271   6.156   5.351  1.2961 -0.8555  0.6917
 4908SOL     OW25652   8.523   4.353   2.728  0.0691  0.3653  0.3857
 4908SOL    HW125653   8.463   4.427   2.698 -1.4672 -0.2381  1.8689
 4908SOL    HW225654   8.487   4.266   2.694  0.0586 -0.0114  1.3583
 4909SOL     OW25655   9.323   9.612   3.939 -0.2753 -0.1176 -0.2980
 4909SOL    HW125656   9.352   9.705   3.919 -1.5484  0.0677 -1.3426
 4909SOL    HW225657   9.224   9.604   3.928 -0.3004 -1.3820  0.6321
 4910SOL     OW25658   4.040   0.529   0.162  0.1484 -0.4330 -0.3192
 4910SOL    HW125659   4.086   0.492   0.242 -0.5494 -1.8560 -0.5504
 4910SOL    HW225660   3.941   0.534   0.180  0.0261 -0.4551 -0.9644
 4911SOL     OW25661   0.939   6.586   1.811 -0.0936 -0.1125  0.3491
 4911SOL    HW125662   0.937   6.509   1.747 -0.4373  0.1946 -0.0040
 4911SOL    HW225663   0.875   6.656   1.781 -1.8444 -0.8827  2.1623
 4912SOL     OW25664   0.781   4.736   2.514  0.1949  0.4202 -0.0237
 4912SOL    HW125665   0.828   4.648   2.512  0.5654  0.5566  1.6980
 4912SOL    HW225666   0.714   4.737   2.589  0.2789  1.6266  0.0481
 4913SOL     OW25667   2.582   2.472   0.354 -0.3668  0.6714 -0.6275
 4913SOL    HW125668   2.589   2.402   0.425  2.4029  0.7190 -0.7860
 4913SOL    HW225669   2.609   2.433   0.266 -2.3631  0.9958 -1.3972
 4914SOL     OW25670   6.271   8.599   2.116  0.1338 -0.2518  0.0662
 4914SOL    HW125671   6.214   8.551   2.049  1.3582 -1.6241 -0.0167
 4914SOL    HW225672   6.339   8.654   2.067  1.5460 -1.8873  0.1779
 4915SOL     OW25673   3.332   4.385   1.084  0.2863  0.0770  0.2992
 4915SOL    HW125674   3.406   4.453   1.089 -0.6535  1.0207  1.8350
 4915SOL    HW225675   3.368   4.295   1.106  1.4949  0.0914 -1.4793
 4916SOL     OW25676   2.243   9.773   4.380  0.5016  0.2567 -0.3855
 4916SOL    HW125677   2.197   9.730   4.303  0.5864 -0.0412 -0.2677
 4916SOL    HW225678   2.182   9.776   4.459  0.0219  1.5792 -0.7986
 4917SOL     OW25679   1.801   7.420   0.094 -0.5619 -0.4991  0.1891
 4917SOL    HW125680   1.726   7.434   0.029  0.7231 -0.9248 -1.4196
 4917SOL    HW225681   1.884   7.460   0.057  0.6492 -2.5091  0.6679
 4918SOL     OW25682   9.745   0.892   5.597 -0.7986  0.0304  0.4321
 4918SOL    HW125683   9.680   0.965   5.618 -0.7896 -0.4558  2.2194
 4918SOL    HW225684   9.723   0.811   5.651  1.8472  0.1741  1.8199
 4919SOL     OW25685   7.775   1.507   1.550 -0.6409  0.2162  0.1909
 4919SOL    HW125686   7.720   1.501   1.633 -1.2423  1.4300 -0.0923
 4919SOL    HW225687   7.736   1.577   1.490  0.7486  0.5281 -0.3784
 4920SOL     OW25688   4.726   5.167   0.786  0.5584  0.0449  0.3655
 4920SOL    HW125689   4.687   5.171   0.878 -1.1748 -1.4111 -0.2818
 4920SOL    HW225690   4.713   5.255   0.740  0.4919  0.4318  1.1218
 4921SOL     OW25691   8.425   2.423   4.101 -0.1142 -0.3331 -0.3483
 4921SOL    HW125692   8.433   2.507   4.047  1.1573 -0.7789 -0.8730
 4921SOL    HW225693   8.449   2.441   4.196 -0.8769  0.1200 -0.2374
 4922SOL     OW25694   3.600   2.547   1.345  0.6371  0.1164 -0.3262
 4922SOL    HW125695   3.579   2.472   1.282  1.1311 -0.1162 -0.2151
 4922SOL    HW225696   3.640   2.623   1.294  0.9883 -0.0516 -0.3038
 4923SOL     OW25697   8.044   3.623   4.289  0.1304 -0.1183  0.4132
 4923SOL    HW125698   8.034   3.524   4.277 -1.1764 -0.0160  0.5097
 4923SOL    HW225699   8.096   3.642   4.371  0.4333 -0.7330  0.3653
 4924SOL     OW25700   8.638   4.951   4.312 -0.2137  0.3647  0.2745
 4924SOL    HW125701   8.616   4.911   4.223  1.9304 -0.6708  0.1733
 4924SOL    HW225702   8.695   5.032   4.299  1.0874 -0.4683  0.7433
 4925SOL     OW25703   9.838   8.177   4.087 -0.3796 -0.5139 -0.0250
 4925SOL    HW125704   9.848   8.250   4.018  0.5173 -0.5759  0.0330
 4925SOL    HW225705   9.914   8.183   4.152 -1.3898 -0.2703  1.1414
 4926SOL     OW25706   7.819   2.594   4.963 -0.3174 -0.2063  1.2030
 4926SOL    HW125707   7.784   2.529   4.895  2.1616 -0.8244  0.4808
 4926SOL    HW225708   7.747   2.659   4.987 -1.2498  0.0372 -2.0371
 4927SOL     OW25709   0.906   4.256   4.454  0.2086  0.0617  0.4692
 4927SOL    HW125710   0.816   4.216   4.470 -0.2926  0.9569 -0.0786
 4927SOL    HW225711   0.967   4.232   4.529 -0.2669 -1.1674  0.4852
 4928SOL     OW25712   6.464   0.730   1.489  0.4324  0.4443 -0.0137
 4928SOL    HW125713   6.447   0.632   1.490  0.9759  0.3567  0.3128
 4928SOL    HW225714   6.420   0.773   1.568 -0.3543  0.5564 -0.5046
 4929SOL     OW25715   1.823   6.510   0.638 -0.3386  0.0049 -0.1533
 4929SOL    HW125716   1.780   6.531   0.550  1.6285  1.0788 -0.8942
 4929SOL    HW225717   1.916   6.478   0.623 -0.4348 -1.0715  1.4820
 4930SOL     OW25718   0.250   9.482   3.827  0.0284 -0.2420 -0.1852
 4930SOL    HW125719   0.242   9.382   3.835  0.0952 -0.3854 -1.8076
 4930SOL    HW225720   0.317   9.515   3.893  0.8911 -1.4232 -0.4545
 4931SOL     OW25721   0.583   5.588   2.081 -0.0986 -0.1816  0.0085
 4931SOL    HW125722   0.624   5.618   2.167  0.9472 -1.8200  0.1123
 4931SOL    HW225723   0.583   5.663   2.016 -0.1409  0.8349  1.1708
 4932SOL     OW25724   0.535   7.487   2.240  0.0741 -0.3839  0.4589
 4932SOL    HW125725   0.553   7.421   2.312  0.8304  1.3057  1.8504
 4932SOL    HW225726   0.438   7.512   2.241  0.1002 -0.2972  0.9630
 4933SOL     OW25727   4.581   2.354   4.511 -0.1136  0.6297  0.2895
 4933SOL    HW125728   4.630   2.377   4.427  0.5146  0.4112  0.5884
 4933SOL    HW225729   4.546   2.438   4.553 -0.0172  0.7867  0.0604
 4934SOL     OW25730   1.715   7.802   0.772  0.1036 -0.6215  0.1829
 4934SOL    HW125731   1.617   7.785   0.774 -0.2887  1.5468  1.7795
 4934SOL    HW225732   1.755   7.763   0.689 -2.1345 -1.3054 -0.5939
 4935SOL     OW25733   8.531   1.401   2.512  0.2602 -0.4581  0.4442
 4935SOL    HW125734   8.602   1.340   2.477  0.1830  0.1920 -0.8715
 4935SOL    HW225735   8.441   1.357   2.502  0.5144 -1.5830  2.7785
 4936SOL     OW25736   6.817   8.350   3.236 -0.0798  0.4010  0.0892
 4936SOL    HW125737   6.733   8.341   3.290 -0.0396  1.8001  0.3992
 4936SOL    HW225738   6.808   8.426   3.173  0.3229 -0.5137 -1.0863
 4937SOL     OW25739   7.887   0.368   2.630  0.7280  0.6379  0.4971
 4937SOL    HW125740   7.895   0.449   2.687 -1.0546 -0.2023  1.9833
 4937SOL    HW225741   7.888   0.395   2.533  3.1663  2.1210  0.9105
 4938SOL     OW25742   0.816   3.424   1.533  0.4696  0.1818  0.0153
 4938SOL    HW125743   0.790   3.464   1.446  1.5974 -0.3567 -0.5671
 4938SOL    HW225744   0.902   3.373   1.524 -1.3010 -3.0917  0.5047
 4939SOL     OW25745   6.348   6.815   3.075 -0.8361 -0.5123 -0.0562
 4939SOL    HW125746   6.362   6.742   3.007 -0.0376  0.1111 -0.5679
 4939SOL    HW225747   6.271   6.872   3.047  0.2406  0.4554 -1.0560
 4940SOL     OW25748   7.396   2.729   1.287 -0.2599  0.1049 -0.1248
 4940SOL    HW125749   7.397   2.826   1.309 -1.3542 -0.0178  0.5214
 4940SOL    HW225750   7.391   2.676   1.372  2.9317 -0.6014 -0.3120
 4941SOL     OW25751   1.724   0.453   4.829  0.0894  0.5838 -0.7836
 4941SOL    HW125752   1.701   0.548   4.807 -0.5377  0.8715  1.0475
 4941SOL    HW225753   1.813   0.430   4.790 -0.3611  1.4970 -2.3813
 4942SOL     OW25754   7.883   0.441   2.347  0.3403  0.2238  0.2909
 4942SOL    HW125755   7.977   0.465   2.370  1.2686 -3.0642  0.2071
 4942SOL    HW225756   7.851   0.498   2.271  2.5218  0.8218 -0.2004
 4943SOL     OW25757   4.689   3.788   1.045  0.1834  0.3214 -0.4568
 4943SOL    HW125758   4.662   3.880   1.073 -2.1902 -1.0784  2.1490
 4943SOL    HW225759   4.612   3.744   0.996  0.6720 -0.8550 -0.1961
 4944SOL     OW25760   9.814   2.738   3.135 -0.0814 -0.0195  0.1870
 4944SOL    HW125761   9.751   2.730   3.212  0.6537  0.4751  0.8415
 4944SOL    HW225762   9.833   2.647   3.099 -0.6384 -0.2302  0.4124
 4945SOL     OW25763   9.920   4.468   1.315 -0.1956  0.0682  0.0885
 4945SOL    HW125764   9.856   4.531   1.359 -0.7478 -0.5611  0.1824
 4945SOL    HW225765   9.925   4.489   1.218 -1.4576 -0.6454 -0.1444
 4946SOL     OW25766   9.539   0.749   2.996 -0.6143  0.0349 -0.1751
 4946SOL    HW125767   9.624   0.760   2.944 -0.4545 -0.6394 -0.0745
 4946SOL    HW225768   9.546   0.798   3.082 -0.0307 -0.6107  0.1552
 4947SOL     OW25769   9.504   4.482   5.198 -0.3308  0.5355  0.2567
 4947SOL    HW125770   9.505   4.581   5.203  0.5929  0.6297 -1.3845
 4947SOL    HW225771   9.550   4.452   5.114 -0.8581 -1.2632  0.5797
 4948SOL     OW25772   9.087   9.562   1.829  0.0022 -0.0135  0.3914
 4948SOL    HW125773   9.134   9.554   1.917  1.8651 -0.9819 -0.6659
 4948SOL    HW225774   9.122   9.640   1.779 -1.7812  1.1540  0.8964
 4949SOL     OW25775   4.244   7.601   1.737  0.6079  0.0072 -0.3883
 4949SOL    HW125776   4.180   7.572   1.808  0.4284 -0.2567 -0.6582
 4949SOL    HW225777   4.207   7.578   1.647  2.0048 -2.0730 -0.4756
 4950SOL     OW25778   1.504   7.719   1.122  0.1681 -0.6980  0.4245
 4950SOL    HW125779   1.585   7.739   1.178 -0.5949  0.7240  1.0549
 4950SOL    HW225780   1.450   7.648   1.168  0.9798 -1.5674  0.0617
 4951SOL     OW25781   1.755   5.382   2.604  0.1699 -0.3888 -0.1516
 4951SOL    HW125782   1.757   5.407   2.507  0.9248  0.0551 -0.0306
 4951SOL    HW225783   1.681   5.430   2.650  0.2180 -0.1000 -0.3794
 4952SOL     OW25784   0.249   1.804   3.064  0.1652 -0.2211 -0.5621
 4952SOL    HW125785   0.176   1.740   3.090  2.1326 -2.1866  0.2885
 4952SOL    HW225786   0.283   1.852   3.145 -0.6488  1.2339 -1.0611
 4953SOL     OW25787   9.355   4.580   1.901  0.1759 -0.0739 -0.1569
 4953SOL    HW125788   9.255   4.579   1.899  0.0844 -0.9939  2.7715
 4953SOL    HW225789   9.390   4.488   1.887  0.5280 -0.0739  0.6580
 4954SOL     OW25790   0.492   6.855   3.931  0.9019 -0.3962  0.1625
 4954SOL    HW125791   0.583   6.821   3.907  1.5016 -0.0299  1.8691
 4954SOL    HW225792   0.459   6.808   4.013 -0.2928 -0.2422 -0.2174
 4955SOL     OW25793   0.168   2.875   3.595  0.1430  0.4647  0.6258
 4955SOL    HW125794   0.156   2.823   3.680  1.2460 -0.9867 -0.0863
 4955SOL    HW225795   0.262   2.908   3.589 -0.6625  2.9939  1.2890
 4956SOL     OW25796   2.721   5.477   1.413  0.1793 -0.3304 -0.2584
 4956SOL    HW125797   2.635   5.526   1.429  0.3018 -0.2705  0.2332
 4956SOL    HW225798   2.729   5.402   1.479 -0.8962 -2.2177 -2.2072
 4957SOL     OW25799   0.318   1.251   1.342 -0.1297 -0.1339  0.1056
 4957SOL    HW125800   0.224   1.288   1.341 -0.4062 -0.8038  1.0851
 4957SOL    HW225801   0.329   1.191   1.420  1.0917 -0.1699 -0.0929
 4958SOL     OW25802   4.953   1.095   3.983  0.6897 -0.5729 -0.5460
 4958SOL    HW125803   4.896   1.098   3.901  1.1239 -0.9571 -0.8638
 4958SOL    HW225804   4.970   1.000   4.009 -1.1345 -0.4448  1.1755
 4959SOL     OW25805   8.672   7.865   0.349  0.4804 -0.1834 -0.0934
 4959SOL    HW125806   8.712   7.925   0.280  0.5565 -1.2713 -1.0225
 4959SOL    HW225807   8.698   7.896   0.440  1.9606  0.1727 -0.6209
 4960SOL     OW25808   1.703   7.218   0.581 -0.4227  0.0028 -0.1825
 4960SOL    HW125809   1.698   7.257   0.489  1.6009 -2.0592 -1.2154
 4960SOL    HW225810   1.720   7.291   0.647 -1.4898  1.4536 -1.4858
 4961SOL     OW25811   8.816   5.165   0.234  0.2766 -0.1202 -0.2688
 4961SOL    HW125812   8.878   5.243   0.244  1.1721 -0.7896 -0.5601
 4961SOL    HW225813   8.750   5.184   0.162 -1.2023  1.4557  1.4337
 4962SOL     OW25814   7.953   2.826   3.452 -0.2813  0.4928 -0.4379
 4962SOL    HW125815   7.879   2.891   3.470  1.0319  1.3555  2.1428
 4962SOL    HW225816   7.996   2.799   3.539  2.7642  0.4356 -1.8948
 4963SOL     OW25817   9.665   0.140   3.173 -0.1370 -0.3249 -0.3314
 4963SOL    HW125818   9.711   0.161   3.087  0.7769 -1.3899 -0.1242
 4963SOL    HW225819   9.622   0.222   3.209  1.1016  0.5685 -0.8566
 4964SOL     OW25820   4.552   2.092   3.755 -0.4177  0.6609 -0.0999
 4964SOL    HW125821   4.601   2.150   3.691 -1.1657  0.1074 -1.1868
 4964SOL    HW225822   4.496   2.148   3.815  0.0036  1.1535 -0.1608
 4965SOL     OW25823   0.059   6.793   4.598 -0.2901 -0.5103 -0.1103
 4965SOL    HW125824   0.089   6.856   4.670  0.6944 -0.0090 -0.9532
 4965SOL    HW225825   0.036   6.705   4.639 -0.9829  0.1591  0.9865
 4966SOL     OW25826   3.749   3.491   4.752 -0.3443 -0.1922 -0.2199
 4966SOL    HW125827   3.649   3.491   4.744 -0.6298 -1.2798  2.7777
 4966SOL    HW225828   3.787   3.418   4.695 -1.3727 -0.8793 -0.0320
 4967SOL     OW25829   2.540   9.084   4.292  0.1232  0.2764 -0.2206
 4967SOL    HW125830   2.500   9.175   4.297 -0.0398  0.1638  0.5529
 4967SOL    HW225831   2.469   9.015   4.306  0.3740  0.0496 -0.0519
 4968SOL     OW25832   8.731   5.033   3.428 -0.3120 -0.4073  0.2748
 4968SOL    HW125833   8.700   5.001   3.517  0.9169 -1.2832  0.4041
 4968SOL    HW225834   8.798   5.107   3.439 -0.8931  0.1562  0.0527
 4969SOL     OW25835   0.554   0.909   2.050 -0.0634  0.5025 -0.3963
 4969SOL    HW125836   0.534   0.929   1.954  1.7616  2.8973 -0.3211
 4969SOL    HW225837   0.476   0.936   2.106 -0.5891  0.3912 -1.0665
 4970SOL     OW25838   1.528   5.129   3.625  0.4037  0.3738 -0.5605
 4970SOL    HW125839   1.555   5.210   3.678 -0.3962 -1.5280  2.9092
 4970SOL    HW225840   1.439   5.145   3.582 -0.1880  1.0486  0.8708
 4971SOL     OW25841   3.832   1.717   5.434  0.0231  0.4512  0.6806
 4971SOL    HW125842   3.850   1.725   5.335  0.1193  1.5763  0.7839
 4971SOL    HW225843   3.759   1.650   5.449  3.2291 -3.3534  0.1748
 4972SOL     OW25844   6.440   1.123   2.572  0.2758  0.6155  0.7691
 4972SOL    HW125845   6.356   1.137   2.624  0.0758  0.3893  0.5088
 4972SOL    HW225846   6.435   1.176   2.487 -0.7394 -1.5020 -0.5063
 4973SOL     OW25847   0.493   0.365   1.286 -0.0768  0.7299  0.3865
 4973SOL    HW125848   0.437   0.304   1.229  0.9450 -0.6877  0.8533
 4973SOL    HW225849   0.497   0.455   1.245 -2.3962  0.7707  0.1369
 4974SOL     OW25850   0.009   6.477   2.090 -0.0794  0.0067 -0.3235
 4974SOL    HW125851   0.052   6.390   2.116 -0.4276  0.1533  0.7901
 4974SOL    HW225852  -0.080   6.460   2.049  0.6412 -0.2522 -1.8039
 4975SOL     OW25853   4.775   8.285   3.369  0.0966  0.5697 -0.1356
 4975SOL    HW125854   4.846   8.215   3.376  0.6826  0.9366 -2.1973
 4975SOL    HW225855   4.812   8.365   3.322 -1.4440  1.0988 -0.4595
 4976SOL     OW25856   4.085   3.879   2.368 -0.3884 -0.1264 -0.4017
 4976SOL    HW125857   4.047   3.801   2.417 -1.4880  0.1820 -0.7559
 4976SOL    HW225858   4.011   3.941   2.342  0.5307  1.2807  0.3161
 4977SOL     OW25859   5.940   8.476   3.337  0.1294  0.3064 -0.4519
 4977SOL    HW125860   5.942   8.508   3.432 -1.4617 -0.5822 -0.1041
 4977SOL    HW225861   5.974   8.381   3.333 -0.3846  0.1319 -0.6840
 4978SOL     OW25862   0.085   9.529   2.263 -0.0042  0.3750 -0.0112
 4978SOL    HW125863   0.117   9.623   2.274 -1.7307  1.0664 -0.6286
 4978SOL    HW225864   0.073   9.510   2.166  0.9455 -0.7004  0.0807
 4979SOL     OW25865   3.945   3.652   1.681 -0.4728  0.1094  0.3327
 4979SOL    HW125866   3.903   3.731   1.635 -1.3821 -0.1170  0.7509
 4979SOL    HW225867   3.912   3.568   1.638  1.4112 -0.0275 -0.8836
 4980SOL     OW25868   1.537   6.498   4.541 -0.0885 -0.2640  0.7875
 4980SOL    HW125869   1.549   6.483   4.639  0.3354 -0.3511  0.7247
 4980SOL    HW225870   1.618   6.545   4.505  1.2044 -3.1325 -0.1347
 4981SOL     OW25871   9.091   9.993   2.850  0.0668  0.3129 -0.4353
 4981SOL    HW125872   9.186   9.970   2.868 -0.3897 -0.0006  1.7605
 4981SOL    HW225873   9.041   9.911   2.824  0.2258  0.3381 -0.8258
 4982SOL     OW25874   7.495   9.338   0.218 -0.1261  0.1225  0.2657
 4982SOL    HW125875   7.501   9.387   0.305  2.1456 -0.3984  0.4363
 4982SOL    HW225876   7.460   9.245   0.235  0.9202 -0.1990  0.7347
 4983SOL     OW25877   5.114   9.169   2.271  0.1018 -0.1794 -0.5391
 4983SOL    HW125878   5.047   9.180   2.198  0.0614 -0.2626 -0.5136
 4983SOL    HW225879   5.070   9.183   2.360  0.0107 -0.7374 -0.4968
 4984SOL     OW25880   2.409   4.035   1.871  0.9390 -0.2698 -0.4501
 4984SOL    HW125881   2.420   4.080   1.783  2.2267  1.5134  0.5685
 4984SOL    HW225882   2.438   4.098   1.944  0.9218 -2.0799  1.1632
 4985SOL     OW25883   2.864   5.955   2.169 -0.5629 -0.1331  0.1613
 4985SOL    HW125884   2.902   5.871   2.132  0.2001  0.0394  0.5378
 4985SOL    HW225885   2.922   6.032   2.141  0.6913 -0.1283  2.6407
 4986SOL     OW25886   4.332   0.074   2.957 -0.4081 -0.0441 -0.1279
 4986SOL    HW125887   4.344   0.172   2.942  0.5044  0.2863  2.4811
 4986SOL    HW225888   4.417   0.035   2.991 -0.9090 -1.6732 -0.6933
 4987SOL     OW25889   4.918   9.071   1.296 -0.4904 -0.1740  0.1835
 4987SOL    HW125890   4.845   9.044   1.233 -1.2896  0.8647  0.6326
 4987SOL    HW225891   4.967   8.990   1.328 -0.8894 -0.8133 -0.7938
 4988SOL     OW25892   8.374   9.814   4.823 -0.2197 -0.1717 -0.4472
 4988SOL    HW125893   8.286   9.766   4.830 -0.2745  0.1310  1.2251
 4988SOL    HW225894   8.435   9.782   4.896  1.1232 -0.4962 -1.7065
 4989SOL     OW25895   3.101   7.778   1.466  0.5473 -0.0754 -0.2190
 4989SOL    HW125896   3.081   7.691   1.421  0.4253  1.0871 -2.5071
 4989SOL    HW225897   3.018   7.816   1.506  0.4449 -0.6464  0.1050
 4990SOL     OW25898   1.564   3.352   5.042 -0.0948 -0.0752 -0.0624
 4990SOL    HW125899   1.464   3.359   5.037 -0.0884  1.3415  1.3619
 4990SOL    HW225900   1.597   3.295   4.967 -2.1222 -1.9916  0.4493
 4991SOL     OW25901   7.993   0.303   3.998 -0.0283  0.1149 -0.3535
 4991SOL    HW125902   8.055   0.322   3.922  1.1549  1.2043  0.8562
 4991SOL    HW225903   8.046   0.270   4.076 -1.3805 -2.2938 -0.4255
 4992SOL     OW25904   7.716   2.848   5.130  0.7497  0.2737 -0.3917
 4992SOL    HW125905   7.701   2.935   5.176 -0.1069  0.2581 -0.6212
 4992SOL    HW225906   7.794   2.801   5.171  0.1491  0.3678  0.8873
 4993SOL     OW25907   9.200   0.581   2.925  0.3271 -0.5820 -0.3123
 4993SOL    HW125908   9.126   0.586   2.993  0.2910  1.2601 -0.4645
 4993SOL    HW225909   9.240   0.671   2.913  1.6433 -1.2838 -1.3218
 4994SOL     OW25910   2.256   6.493   2.494 -0.0731 -0.1259  0.0906
 4994SOL    HW125911   2.288   6.409   2.451 -1.0528 -0.7817  0.6361
 4994SOL    HW225912   2.157   6.488   2.509 -0.2722  1.4228 -0.5490
 4995SOL     OW25913   3.069   2.763   3.628  0.0584 -1.0151 -0.0035
 4995SOL    HW125914   3.064   2.686   3.565 -1.2122 -0.5849 -0.4380
 4995SOL    HW225915   3.016   2.741   3.711  1.1769 -1.3155  0.6510
 4996SOL     OW25916   5.881   7.917   3.602  0.3948 -0.5010 -0.5358
 4996SOL    HW125917   5.816   7.975   3.554  1.0010  0.6158 -0.0211
 4996SOL    HW225918   5.959   7.972   3.632  0.3270 -1.2921  1.1591
 4997SOL     OW25919   2.738   4.225   4.136 -0.7152 -0.2560  0.3172
 4997SOL    HW125920   2.676   4.272   4.199 -0.8930 -1.8379  1.3430
 4997SOL    HW225921   2.689   4.151   4.089  0.3731 -1.5427  1.1581
 4998SOL     OW25922   8.532   7.293   4.189  0.2936  0.2152 -0.3972
 4998SOL    HW125923   8.500   7.336   4.273 -1.5983  0.0876 -1.0257
 4998SOL    HW225924   8.611   7.344   4.153  1.7009 -0.2557  1.9027
 4999SOL     OW25925   2.799   8.011   4.881  0.2738 -0.0533 -0.1240
 4999SOL    HW125926   2.846   7.925   4.861  0.8969  0.2061  0.2294
 4999SOL    HW225927   2.778   8.016   4.978  0.3081  0.2335 -0.1302
 5000SOL     OW25928   1.349   9.786   5.011 -0.5275  0.2433 -0.2575
 5000SOL    HW125929   1.266   9.832   4.980 -0.4899  1.7019  1.7226
 5000SOL    HW225930   1.334   9.745   5.101  0.5658 -0.4365 -0.3685
 5001SOL     OW25931   9.997   8.244   4.826  0.1588  0.0225 -0.4950
 5001SOL    HW125932  10.045   8.178   4.883  0.9288 -1.0164 -2.3044
 5001SOL    HW225933   9.921   8.284   4.877 -0.3371 -2.2886  0.6098
 5002SOL     OW25934   9.398   5.842   3.965  0.5287 -0.3581 -0.3336
 5002SOL    HW125935   9.400   5.915   3.897 -2.4732  0.7709  0.7230
 5002SOL    HW225936   9.489   5.831   4.005  1.9108  0.1488 -3.2475
 5003SOL     OW25937   7.360   0.141   2.847 -0.2969 -0.7317  0.2732
 5003SOL    HW125938   7.383   0.052   2.886 -1.7313 -1.2835 -0.1260
 5003SOL    HW225939   7.425   0.163   2.775 -1.9804 -3.0836 -2.0578
 5004SOL     OW25940   0.639   6.303   0.793  0.3129  0.2920  0.7027
 5004SOL    HW125941   0.561   6.325   0.852 -0.0317 -0.1299  0.4067
 5004SOL    HW225942   0.705   6.248   0.845  0.6317  1.0207  1.0884
 5005SOL     OW25943   3.639   8.851   4.162 -0.0619  0.7728 -0.3413
 5005SOL    HW125944   3.603   8.904   4.086  3.0402  1.3265 -1.5361
 5005SOL    HW225945   3.708   8.905   4.211 -0.3542 -0.4196  1.4473
 5006SOL     OW25946   3.787   7.642   5.313  0.0194  0.1323  0.2296
 5006SOL    HW125947   3.798   7.629   5.215 -1.3111  2.4211 -0.2578
 5006SOL    HW225948   3.720   7.576   5.348 -0.5327  0.2181 -0.6622
 5007SOL     OW25949   2.684   1.358   2.893  0.1437 -0.2074  0.7113
 5007SOL    HW125950   2.623   1.284   2.920  1.6236 -1.9062 -0.5086
 5007SOL    HW225951   2.758   1.367   2.960  0.3254 -0.2664  0.5194
 5008SOL     OW25952   3.569   5.383   2.089  0.3396 -0.0867 -0.0604
 5008SOL    HW125953   3.606   5.337   2.008  0.3177  0.0872 -0.1690
 5008SOL    HW225954   3.640   5.388   2.160  0.7361  0.8368 -0.5114
 5009SOL     OW25955   8.466   5.823   0.054 -0.5155  0.4282 -0.6639
 5009SOL    HW125956   8.545   5.845  -0.004  0.5607  0.3116  0.7161
 5009SOL    HW225957   8.417   5.907   0.077 -0.8471  0.4935 -1.5987
 5010SOL     OW25958   4.246   0.192   1.113 -0.7286 -0.1374 -0.0020
 5010SOL    HW125959   4.204   0.202   1.023  0.0222 -1.1339 -0.4694
 5010SOL    HW225960   4.319   0.124   1.109 -1.6684 -1.2802  1.7017
 5011SOL     OW25961   9.532   1.921   0.646 -0.7038 -0.1381 -0.1667
 5011SOL    HW125962   9.628   1.907   0.670 -0.8819  2.0903  2.0394
 5011SOL    HW225963   9.526   1.967   0.558  0.2337 -0.3894 -0.3717
 5012SOL     OW25964   9.039   7.817   4.843 -0.3238  0.4679  0.4247
 5012SOL    HW125965   9.137   7.827   4.828 -0.7649  0.1850 -2.9740
 5012SOL    HW225966   9.019   7.722   4.867 -0.0948 -0.1964 -1.9400
 5013SOL     OW25967   1.703   8.396   5.098 -0.8625 -0.0729  0.3125
 5013SOL    HW125968   1.759   8.351   5.166 -2.9397 -0.2487  1.9651
 5013SOL    HW225969   1.698   8.494   5.118  0.0961  0.2048 -0.7384
 5014SOL     OW25970   9.822   1.556   0.306  0.2857  0.3558 -0.5067
 5014SOL    HW125971   9.738   1.556   0.253  0.7797 -2.1467 -1.3351
 5014SOL    HW225972   9.899   1.580   0.247  0.6769 -1.2830 -0.6881
 5015SOL     OW25973   3.801   0.035   5.540  0.1812  0.1720  0.2219
 5015SOL    HW125974   3.848   0.114   5.579  1.0214 -0.3969  0.3772
 5015SOL    HW225975   3.868  -0.025   5.497 -0.3262 -0.9887  1.0400
 5016SOL     OW25976   0.755   8.240   2.253 -0.3765 -0.2351  0.0029
 5016SOL    HW125977   0.841   8.194   2.276 -0.6313 -0.1514  1.0987
 5016SOL    HW225978   0.685   8.217   2.320 -1.0754  0.1022 -0.6074
 5017SOL     OW25979   8.906   4.095   1.809 -0.2341  0.1254  0.1185
 5017SOL    HW125980   9.004   4.105   1.828  0.1908 -1.0408 -1.4257
 5017SOL    HW225981   8.893   4.070   1.713 -1.9764 -1.0005  0.6363
 5018SOL     OW25982   8.736   9.432   0.412  0.0073 -0.1613 -0.3344
 5018SOL    HW125983   8.667   9.414   0.482  0.1775  1.0070  0.1359
 5018SOL    HW225984   8.753   9.530   0.405  1.5845 -0.4198 -0.4674
 5019SOL     OW25985   3.066   6.261   3.174 -0.1293 -0.3200 -0.1728
 5019SOL    HW125986   2.972   6.233   3.155 -0.5679 -0.5205  2.1087
 5019SOL    HW225987   3.078   6.272   3.273  1.9280  0.8611 -0.5228
 5020SOL     OW25988   8.909   3.349   4.599 -0.3327  0.0758  0.0019
 5020SOL    HW125989   8.979   3.355   4.670 -0.1582  1.0459 -0.2433
 5020SOL    HW225990   8.936   3.280   4.532  0.2315  0.2158  0.0805
 5021SOL     OW25991   0.031   5.872   3.625  0.3699  0.4635  0.1429
 5021SOL    HW125992   0.082   5.788   3.643  1.0620  0.5924 -1.1037
 5021SOL    HW225993   0.095   5.946   3.605 -0.2615  1.0819  0.3916
 5022SOL     OW25994   0.710   0.090   4.996 -0.1112 -0.1909  0.0623
 5022SOL    HW125995   0.633   0.146   4.965  0.7572  1.4760  0.8121
 5022SOL    HW225996   0.742   0.033   4.920 -3.4055 -2.5330  0.3075
 5023SOL     OW25997   1.901   6.819   4.538  0.0118  0.0103  0.5631
 5023SOL    HW125998   1.920   6.891   4.471 -0.6689  0.9266  1.3394
 5023SOL    HW225999   1.983   6.801   4.591  0.0547  0.5777  0.6973
 5024SOL     OW26000   5.903   9.024   2.887 -0.3687 -0.1462  0.0820
 5024SOL    HW126001   5.985   9.081   2.892  0.2596 -0.9646 -0.6424
 5024SOL    HW226002   5.926   8.930   2.913 -1.5865  0.0987  2.1662
 5025SOL     OW26003   1.330   6.387   0.330  0.1685 -0.2199 -0.1508
 5025SOL    HW126004   1.418   6.340   0.329  0.3708  0.0418  2.1722
 5025SOL    HW226005   1.257   6.319   0.321  0.5282 -0.8119  1.1805
 5026SOL     OW26006   1.826   9.208   0.869 -0.5005 -0.1897  0.3371
 5026SOL    HW126007   1.747   9.263   0.842 -0.0572 -0.1282 -0.8437
 5026SOL    HW226008   1.807   9.112   0.852 -1.4352 -0.4680  2.7895
 5027SOL     OW26009   3.150   1.022   2.619 -0.0911 -0.1542 -0.5489
 5027SOL    HW126010   3.050   1.026   2.610 -0.1719  1.4974  0.7317
 5027SOL    HW226011   3.192   1.049   2.532 -0.7968  2.1854 -0.2237
 5028SOL     OW26012   0.271   4.350   0.938 -0.0631  0.4660 -0.3278
 5028SOL    HW126013   0.346   4.309   0.991 -0.0480  1.1738  0.2045
 5028SOL    HW226014   0.184   4.329   0.984 -0.1834 -0.1970 -0.8449
 5029SOL     OW26015   4.402   2.808   5.551 -0.7421 -0.2909 -0.1313
 5029SOL    HW126016   4.454   2.846   5.627 -0.5247  1.8925 -1.3451
 5029SOL    HW226017   4.308   2.842   5.555 -1.1800 -1.4991  0.0897
 5030SOL     OW26018   1.970   9.403   1.163  0.5167 -0.2060  0.0208
 5030SOL    HW126019   1.953   9.313   1.124 -1.2672  0.6807 -1.3412
 5030SOL    HW226020   2.067   9.412   1.185  0.7835 -2.3061 -0.1782
 5031SOL     OW26021   3.559   4.656   4.543 -0.3158 -0.2256 -0.4804
 5031SOL    HW126022   3.586   4.663   4.447 -0.0022  0.0264 -0.3742
 5031SOL    HW226023   3.516   4.741   4.572 -1.6208 -0.7701 -0.7618
 5032SOL     OW26024   2.696   3.986   1.249 -0.1369 -0.2844  0.0439
 5032SOL    HW126025   2.652   4.025   1.168  0.9674 -2.6637 -1.7688
 5032SOL    HW226026   2.786   4.027   1.261 -0.8218  0.9928  0.8176
 5033SOL     OW26027   0.918   0.438   3.622 -0.2493  0.0350  0.4294
 5033SOL    HW126028   1.018   0.437   3.624 -0.2635  0.6613  2.2047
 5033SOL    HW226029   0.883   0.352   3.658 -0.3585 -0.8740 -1.7793
 5034SOL     OW26030   8.870   5.832   2.166 -0.6836  0.1013  0.0022
 5034SOL    HW126031   8.818   5.872   2.241 -0.6872  0.8582 -0.3919
 5034SOL    HW226032   8.963   5.870   2.165 -2.3439  4.6759 -3.8422
 5035SOL     OW26033   8.591   1.859   0.428 -0.1226  0.2106 -0.1228
 5035SOL    HW126034   8.565   1.847   0.524 -0.7903  1.2239 -0.1722
 5035SOL    HW226035   8.620   1.771   0.390 -2.2203 -0.6990  0.3169
 5036SOL     OW26036   7.112   9.851   2.834  0.3284 -0.5106  0.2903
 5036SOL    HW126037   7.204   9.878   2.863 -0.2120  1.3172  0.3570
 5036SOL    HW226038   7.058   9.825   2.914 -0.0741  1.1581  0.5845
 5037SOL     OW26039   7.341   3.093   4.661 -0.1627  0.6749  0.1113
 5037SOL    HW126040   7.403   3.171   4.657  0.8887 -0.1580 -0.0942
 5037SOL    HW226041   7.276   3.098   4.585 -1.1017  2.1594  0.9908
 5038SOL     OW26042   3.905   2.679   4.262 -0.6422  0.2203  0.3305
 5038SOL    HW126043   3.823   2.733   4.245 -0.8999  0.6407  2.7194
 5038SOL    HW226044   3.883   2.603   4.323  0.8390  0.6719  1.4673
 5039SOL     OW26045   0.214   2.452   0.597  0.0336  0.0303  0.2226
 5039SOL    HW126046   0.192   2.509   0.677  0.7706 -0.8008  1.0222
 5039SOL    HW226047   0.168   2.489   0.516 -0.5243  1.0198  0.9862
 5040SOL     OW26048   3.999   0.559   1.121 -0.4900  0.0724  0.1755
 5040SOL    HW126049   4.002   0.467   1.080  0.3970 -1.1466  2.8651
 5040SOL    HW226050   4.092   0.593   1.132 -0.8164  1.2494 -0.6452
 5041SOL     OW26051   5.481   0.172   2.562 -0.3184 -0.7882  0.4005
 5041SOL    HW126052   5.530   0.137   2.641  0.8251  2.4621  1.2108
 5041SOL    HW226053   5.481   0.272   2.564  0.0890 -0.6060 -3.9247
 5042SOL     OW26054   9.997   8.009   0.752  0.2122 -0.7774 -0.2503
 5042SOL    HW126055   9.916   8.066   0.769  1.5949  1.1390  0.0609
 5042SOL    HW226056   9.985   7.959   0.666 -0.7151  0.5938 -0.9411
 5043SOL     OW26057   0.464   0.193   3.162  0.0703  0.1504  0.2143
 5043SOL    HW126058   0.472   0.094   3.153  1.2275  0.1035  1.5661
 5043SOL    HW226059   0.370   0.222   3.142 -0.5637 -1.3479  0.9840
 5044SOL     OW26060   4.649   1.340   3.322 -0.5578  0.0817 -0.0241
 5044SOL    HW126061   4.700   1.411   3.274 -0.2953 -0.2568 -0.2424
 5044SOL    HW226062   4.697   1.253   3.315 -2.2732 -0.7429 -2.1550
 5045SOL     OW26063   2.627   2.583   2.109  0.2291 -0.0473  0.1385
 5045SOL    HW126064   2.617   2.510   2.177  0.2936  0.5463  0.7873
 5045SOL    HW226065   2.601   2.548   2.019 -1.5067 -0.3516  0.7424
 5046SOL     OW26066   1.325   6.760   3.543 -0.7822  0.5385  0.5765
 5046SOL    HW126067   1.320   6.663   3.566 -0.7738  0.2650 -0.5300
 5046SOL    HW226068   1.393   6.805   3.600  0.0693 -0.3549  0.2814
 5047SOL     OW26069   2.337   3.430   2.234 -0.1785 -0.1477  0.1054
 5047SOL    HW126070   2.250   3.469   2.203  0.9891  1.8636 -0.7987
 5047SOL    HW226071   2.363   3.355   2.175 -0.8610 -0.1715 -0.1717
 5048SOL     OW26072   4.528   6.256   2.422 -0.2420  0.0257 -0.2813
 5048SOL    HW126073   4.596   6.298   2.483 -1.2703  1.1665  0.0964
 5048SOL    HW226074   4.505   6.321   2.349 -0.5510 -0.5535 -0.6997
 5049SOL     OW26075   9.760   7.243   5.181 -0.4787 -0.3289 -0.3243
 5049SOL    HW126076   9.805   7.157   5.205 -0.7887 -0.3534  0.1877
 5049SOL    HW226077   9.662   7.236   5.202 -0.4033  0.3555  0.2975
 5050SOL     OW26078   9.425   0.730   2.560 -0.2089  0.2881 -0.4982
 5050SOL    HW126079   9.372   0.732   2.476 -1.0684 -0.5071  0.0129
 5050SOL    HW226080   9.363   0.728   2.639  0.5650  2.3716  0.2085
 5051SOL     OW26081   8.226   2.088   5.220  0.6836  0.3972 -0.0955
 5051SOL    HW126082   8.208   2.180   5.186 -0.1316  0.8277  1.4605
 5051SOL    HW226083   8.301   2.090   5.285  0.3547  0.0389  0.3042
 5052SOL     OW26084   8.934   7.976   5.591  0.1221 -0.6482  0.5875
 5052SOL    HW126085   8.929   7.942   5.497 -0.9615 -0.0585  0.4229
 5052SOL    HW226086   9.003   7.924   5.642  1.1166 -0.5824 -0.6916
 5053SOL     OW26087   3.424   8.783   2.369 -0.1746  0.0011 -0.0908
 5053SOL    HW126088   3.328   8.800   2.346 -0.1404 -1.0484 -1.0732
 5053SOL    HW226089   3.429   8.741   2.460 -0.5127  1.6245  0.6937
 5054SOL     OW26090   0.871   6.377   1.100 -0.2514 -0.0409 -0.0435
 5054SOL    HW126091   0.808   6.301   1.086  1.5120 -1.5499  0.1323
 5054SOL    HW226092   0.956   6.344   1.139  0.2373  2.1462  0.8197
 5055SOL     OW26093   7.790   0.478   3.856  0.3425  0.6836  0.0662
 5055SOL    HW126094   7.753   0.570   3.848 -0.9852  0.1490  0.0182
 5055SOL    HW226095   7.771   0.442   3.948  2.0382  0.9631  0.5416
 5056SOL     OW26096   5.043   6.485   1.665  0.4309 -0.6058  0.1371
 5056SOL    HW126097   5.074   6.543   1.740  0.2971  0.3106 -0.5052
 5056SOL    HW226098   5.012   6.543   1.589 -0.3236 -1.5187 -0.2567
 5057SOL     OW26099   1.050   9.173   2.104 -0.3057  0.3288 -0.5710
 5057SOL    HW126100   1.017   9.174   2.198 -1.8970  0.6910 -1.1265
 5057SOL    HW226101   1.023   9.087   2.060  1.5512 -0.4069 -0.3209
 5058SOL     OW26102   9.231   1.910   1.510 -0.3287 -0.3249 -0.9274
 5058SOL    HW126103   9.286   1.871   1.436 -0.3946 -0.1180 -1.0898
 5058SOL    HW226104   9.284   1.979   1.558 -1.4367  2.1746 -3.0908
 5059SOL     OW26105   4.527   6.720   2.452 -0.3783 -0.1397 -0.3169
 5059SOL    HW126106   4.499   6.682   2.540  0.1881 -1.7404 -0.8059
 5059SOL    HW226107   4.501   6.657   2.379 -0.2421  0.8553 -1.2411
 5060SOL     OW26108   1.035   1.831   0.690 -0.0094 -0.3071  0.8668
 5060SOL    HW126109   1.077   1.919   0.671  1.5022 -0.9120  1.3085
 5060SOL    HW226110   1.041   1.811   0.788 -0.7971 -0.6729  0.8453
 5061SOL     OW26111   5.915   8.407   4.136 -0.2965 -0.4812 -0.1755
 5061SOL    HW126112   5.921   8.475   4.209 -1.0777 -0.5300 -0.0643
 5061SOL    HW226113   6.007   8.390   4.099  0.0221 -0.0269  0.3929
 5062SOL     OW26114   2.748   6.408   1.230  0.4329 -0.4355 -0.1535
 5062SOL    HW126115   2.778   6.480   1.293 -3.0000  1.1609 -0.2290
 5062SOL    HW226116   2.702   6.336   1.282  0.5274 -0.7399 -0.4924
 5063SOL     OW26117   9.376   0.952   0.605 -0.4140  0.9981 -0.2919
 5063SOL    HW126118   9.445   1.010   0.561 -0.4731  0.4105 -1.1900
 5063SOL    HW226119   9.335   0.893   0.536  0.3190 -0.7792  0.7761
 5064SOL     OW26120   0.048   4.893   1.495  0.4566 -0.0077 -0.3825
 5064SOL    HW126121   0.139   4.911   1.531  0.2587 -0.5583  0.4017
 5064SOL    HW226122   0.004   4.822   1.550 -0.6215  0.5758 -0.4881
 5065SOL     OW26123   4.511   0.127   0.821 -0.3047  0.1963 -0.1821
 5065SOL    HW126124   4.527   0.059   0.892  0.8647  1.6751  1.0034
 5065SOL    HW226125   4.573   0.110   0.744 -0.0705 -0.1418  0.0809
 5066SOL     OW26126   7.203   1.680   0.915  0.2436  0.3673  0.0474
 5066SOL    HW126127   7.150   1.632   0.845 -1.8225  1.8437  0.5601
 5066SOL    HW226128   7.241   1.764   0.877 -0.1539  0.7363  0.4679
 5067SOL     OW26129   3.408   8.016   3.746  0.0200  0.7408  0.2723
 5067SOL    HW126130   3.385   8.057   3.657 -0.4347  0.2584  0.1664
 5067SOL    HW226131   3.365   8.069   3.819 -0.6758  0.3880  0.1268
 5068SOL     OW26132   9.054   7.360   1.259  0.1064 -0.5102  0.0964
 5068SOL    HW126133   9.111   7.335   1.338  0.5703 -2.9751 -0.9544
 5068SOL    HW226134   8.959   7.369   1.288  0.5158  0.2642  1.2436
 5069SOL     OW26135   3.393   7.323   1.773  0.2565  0.1023 -0.3800
 5069SOL    HW126136   3.468   7.388   1.784  0.8233 -0.7065  0.5896
 5069SOL    HW226137   3.426   7.230   1.790 -0.8444 -0.3111 -0.4521
 5070SOL     OW26138   3.686   4.011   1.363  0.3087 -0.8778 -0.3982
 5070SOL    HW126139   3.609   4.068   1.390  2.1830  1.6479 -0.1704
 5070SOL    HW226140   3.706   4.025   1.266  1.1944 -0.5784 -0.1845
 5071SOL     OW26141   1.599   8.312   4.233 -0.2669 -0.9082  0.2490
 5071SOL    HW126142   1.672   8.270   4.179  0.3302 -0.9909  1.1110
 5071SOL    HW226143   1.618   8.410   4.245 -0.2549 -0.9436  0.5292
 5072SOL     OW26144   5.022   3.336   0.220  0.3561 -0.0902  0.4657
 5072SOL    HW126145   4.996   3.256   0.273 -0.7232  1.5300  2.4586
 5072SOL    HW226146   5.076   3.398   0.277  1.2304  0.5867 -1.0616
 5073SOL     OW26147   0.972   5.261   0.970 -0.5976 -0.2835  0.4080
 5073SOL    HW126148   1.037   5.248   1.046 -0.6117  3.1488  1.0910
 5073SOL    HW226149   1.019   5.245   0.883  0.5451 -0.0962  0.9773
 5074SOL     OW26150   5.679   8.816   1.901  0.4780 -0.2245 -0.0652
 5074SOL    HW126151   5.695   8.901   1.951 -2.7442 -0.7649  2.0594
 5074SOL    HW226152   5.741   8.745   1.936  1.3548  0.5489 -0.0141
 5075SOL     OW26153   3.425   7.868   0.291 -0.4423 -0.1903  0.0924
 5075SOL    HW126154   3.448   7.776   0.260  0.8925 -0.0096  0.5369
 5075SOL    HW226155   3.351   7.904   0.234 -0.6658 -1.3546 -0.3774
 5076SOL     OW26156   4.874   0.117   0.503  0.0693  0.5474  0.1437
 5076SOL    HW126157   4.914   0.122   0.595  0.2658  0.4477  0.0647
 5076SOL    HW226158   4.834   0.205   0.479  0.8405  0.8434 -0.0480
 5077SOL     OW26159   1.497   1.053   2.565 -0.0715 -0.4632 -0.5472
 5077SOL    HW126160   1.528   1.071   2.471 -0.9802 -1.7961 -1.1014
 5077SOL    HW226161   1.575   1.021   2.619  0.5235  0.5885 -0.7540
 5078SOL     OW26162   3.276   3.140   3.782  0.4013  0.3869  0.0255
 5078SOL    HW126163   3.212   3.068   3.758  0.8947  0.2145 -0.8052
 5078SOL    HW226164   3.349   3.102   3.839  0.0673  0.4700  0.5158
 5079SOL     OW26165   4.899   0.210   5.236 -0.3163 -0.4593 -0.5476
 5079SOL    HW126166   4.806   0.245   5.232  0.6568  2.1290 -1.2563
 5079SOL    HW226167   4.924   0.193   5.332 -1.3035 -0.6249 -0.3159
 5080SOL     OW26168   2.895   5.874   0.341 -0.2914 -0.2002  0.9159
 5080SOL    HW126169   2.956   5.809   0.296  2.5576  2.1785  1.2135
 5080SOL    HW226170   2.862   5.940   0.273 -1.9280 -0.9956  0.9178
 5081SOL     OW26171   0.361   8.896   0.223  0.4281  0.2502 -0.5401
 5081SOL    HW126172   0.286   8.878   0.159 -0.2761  0.2963  0.2607
 5081SOL    HW226173   0.356   8.990   0.254  1.2003  0.4305 -0.9713
 5082SOL     OW26174   8.514   7.010   5.289 -0.0432 -0.0023  0.2862
 5082SOL    HW126175   8.511   7.061   5.375  0.1021  1.6764 -0.6922
 5082SOL    HW226176   8.526   7.073   5.213  0.9650 -1.5765 -0.8880
 5083SOL     OW26177   4.062   9.028   0.973 -0.3680 -0.1461  0.6625
 5083SOL    HW126178   3.965   9.026   0.997 -1.0895 -1.4712 -2.1383
 5083SOL    HW226179   4.114   8.973   1.039 -1.6425 -0.2214  1.6180
 5084SOL     OW26180   1.804   4.499   4.023  0.2509 -0.3932  0.0935
 5084SOL    HW126181   1.889   4.551   4.020 -0.3729  0.5986 -1.6554
 5084SOL    HW226182   1.734   4.547   3.969 -1.6887 -0.7096  2.2425
 5085SOL     OW26183   5.191   8.614   2.901 -0.1105 -0.4852  0.1316
 5085SOL    HW126184   5.241   8.530   2.923 -0.1899 -0.6046 -0.1512
 5085SOL    HW226185   5.093   8.596   2.902 -0.1021 -0.6005 -0.7864
 5086SOL     OW26186   2.708   1.365   1.821  0.4127 -0.0107 -0.2039
 5086SOL    HW126187   2.748   1.290   1.874 -1.5425 -0.1396  1.1235
 5086SOL    HW226188   2.680   1.439   1.883 -0.1614  0.6571 -1.2530
 5087SOL     OW26189   3.655   1.977   3.467  0.2510 -0.1623 -0.0589
 5087SOL    HW126190   3.600   2.047   3.512 -0.2836 -0.0994 -0.7992
 5087SOL    HW226191   3.731   2.020   3.418  1.1160 -0.2701  1.1752
 5088SOL     OW26192   1.649   3.744   4.177  0.2480 -0.4834  0.2417
 5088SOL    HW126193   1.617   3.837   4.158 -1.3118 -1.0850 -0.1627
 5088SOL    HW226194   1.673   3.736   4.274 -2.2533 -0.3976  0.9067
 5089SOL     OW26195   1.011   3.665   4.846  0.1670  0.0597  0.4422
 5089SOL    HW126196   0.912   3.651   4.835  0.0838 -0.2456  1.5612
 5089SOL    HW226197   1.041   3.738   4.784 -0.5165 -0.7441 -0.8642
 5090SOL     OW26198   8.189   3.298   1.892 -0.0383 -0.3816 -0.2590
 5090SOL    HW126199   8.177   3.199   1.903  0.3926 -0.3249  0.8056
 5090SOL    HW226200   8.226   3.336   1.977  0.5054  0.5763 -0.9181
 5091SOL     OW26201   4.090   8.316   1.966  0.1434  0.0665  0.6821
 5091SOL    HW126202   4.153   8.285   2.037  0.6116 -0.6170 -0.0314
 5091SOL    HW226203   4.107   8.266   1.881 -0.8243  0.4423  0.2545
 5092SOL     OW26204   0.044   9.945   2.754 -0.9172 -0.2376  0.3424
 5092SOL    HW126205   0.037   9.923   2.657  0.9246 -0.4566  0.2498
 5092SOL    HW226206   0.021   9.865   2.809 -1.4502 -0.2602  0.0913
 5093SOL     OW26207   3.246   3.271   1.931  0.7107 -0.2841 -0.0606
 5093SOL    HW126208   3.276   3.181   1.961  0.1884  0.1093  1.6777
 5093SOL    HW226209   3.156   3.264   1.887  0.9899 -0.6930 -0.5812
 5094SOL     OW26210   7.541   6.026   3.624  0.1769 -0.9364  0.3029
 5094SOL    HW126211   7.622   6.009   3.680  0.7559 -0.5102 -0.3960
 5094SOL    HW226212   7.553   5.983   3.535 -0.7167 -1.5595  0.4751
 5095SOL     OW26213   0.125   8.627   0.733  0.0315 -0.0115 -0.2875
 5095SOL    HW126214   0.082   8.685   0.802 -0.4571 -1.2422  0.4488
 5095SOL    HW226215   0.097   8.532   0.747  1.4260 -0.5420 -1.0096
 5096SOL     OW26216   5.772   0.909   0.727 -0.1606  0.0183 -0.0979
 5096SOL    HW126217   5.695   0.864   0.683  0.3027  1.2755 -2.2903
 5096SOL    HW226218   5.764   0.900   0.826 -2.8061 -0.3508 -0.3134
 5097SOL     OW26219   9.953   5.871   2.562  0.1283  0.5634  0.1518
 5097SOL    HW126220   9.976   5.858   2.658  0.7232  1.4532  0.1398
 5097SOL    HW226221  10.037   5.881   2.509 -0.1963 -0.0740 -0.4794
 5098SOL     OW26222   9.031   8.639   4.722 -0.1483  0.1256 -0.1051
 5098SOL    HW126223   9.120   8.679   4.697  0.2424 -0.5595  0.1809
 5098SOL    HW226224   9.045   8.566   4.788 -0.7600 -1.3034 -1.5314
 5099SOL     OW26225   3.826   0.132   3.893  0.0039  0.0639 -0.2477
 5099SOL    HW126226   3.792   0.162   3.982  2.2005 -1.2939  1.0860
 5099SOL    HW226227   3.915   0.088   3.904  0.3180 -0.1260 -3.1286
 5100SOL     OW26228   2.957   3.883   2.600  0.0758  0.1835 -0.4243
 5100SOL    HW126229   3.020   3.808   2.579  1.4359  1.3186 -0.4555
 5100SOL    HW226230   2.873   3.871   2.548  0.7395 -0.7062 -1.3162
 5101SOL     OW26231   6.109   0.127   0.831  0.0713  0.0730  0.2917
 5101SOL    HW126232   6.033   0.065   0.853 -0.5251  0.8302  0.3686
 5101SOL    HW226233   6.099   0.212   0.882  0.6506  0.4165 -0.1597
 5102SOL     OW26234   5.329   9.299   2.312  0.0045  0.0569 -0.2288
 5102SOL    HW126235   5.239   9.263   2.291 -0.3624  0.6553  0.2944
 5102SOL    HW226236   5.323   9.398   2.327  0.7789  0.1371 -0.3894
 5103SOL     OW26237   9.975   9.076   2.945  0.6001  0.2836 -0.1118
 5103SOL    HW126238  10.012   9.022   3.020  0.4638 -0.4211 -0.5454
 5103SOL    HW226239   9.921   9.017   2.884 -0.0839  1.0305 -0.2418
 5104SOL     OW26240   9.966   9.321   0.849 -0.3808 -0.1152  0.7455
 5104SOL    HW126241   9.963   9.404   0.793  2.2921  1.0027  2.2014
 5104SOL    HW226242   9.965   9.241   0.789  2.3223  1.0596 -0.9440
 5105SOL     OW26243   8.395   0.442   0.532  0.2638  0.1964  0.4931
 5105SOL    HW126244   8.485   0.399   0.545 -0.0021 -0.8633 -1.1069
 5105SOL    HW226245   8.335   0.417   0.608  0.9601  0.0051  0.9917
 5106SOL     OW26246   9.148   4.638   4.060 -0.8554  0.3730 -0.5769
 5106SOL    HW126247   9.198   4.705   4.116 -0.2601  0.5033 -1.2538
 5106SOL    HW226248   9.061   4.678   4.030 -1.3174  0.1952  0.4931
 5107SOL     OW26249   4.612   9.075   2.500  0.1448  0.0979  0.5627
 5107SOL    HW126250   4.612   9.061   2.401 -0.5476  0.9161  0.4438
 5107SOL    HW226251   4.540   9.140   2.525 -0.1073 -0.6002  1.6772
 5108SOL     OW26252   9.944   9.430   2.477  0.3612 -0.5869 -0.0680
 5108SOL    HW126253   9.889   9.509   2.452  1.0544 -0.0060  0.2359
 5108SOL    HW226254  10.010   9.411   2.404  0.7118 -0.4116  0.2031
 5109SOL     OW26255   3.059   6.887   3.799 -0.1563 -0.1126  0.4152
 5109SOL    HW126256   3.103   6.977   3.797  1.6209 -0.9384  1.4406
 5109SOL    HW226257   3.015   6.873   3.888  2.1754 -1.4589  1.3832
 5110SOL     OW26258   7.773   6.079   3.442 -0.0043  0.3920 -0.2186
 5110SOL    HW126259   7.809   6.000   3.392 -3.5065 -0.7876 -1.0045
 5110SOL    HW226260   7.762   6.156   3.379 -2.6339 -0.5166 -0.9303
 5111SOL     OW26261   0.081   3.943   2.167 -0.0698  0.0318 -0.0044
 5111SOL    HW126262   0.127   3.855   2.158  0.3512  0.2843 -0.3120
 5111SOL    HW226263  -0.018   3.928   2.177  0.0039 -0.4738 -0.0504
 5112SOL     OW26264   0.169   6.050   3.071 -0.3710 -0.3800  0.4757
 5112SOL    HW126265   0.241   6.001   3.120 -1.4480 -1.9607  0.5162
 5112SOL    HW226266   0.156   6.009   2.981 -2.3078 -1.1725  1.0745
 5113SOL     OW26267   7.540   9.519   4.892 -0.2247  0.1796  0.4142
 5113SOL    HW126268   7.579   9.465   4.817  0.9889 -1.3420  2.0933
 5113SOL    HW226269   7.493   9.599   4.854  1.2420  0.0056 -1.8983
 5114SOL     OW26270   8.874   3.762   0.021 -0.0707  0.4380 -0.7555
 5114SOL    HW126271   8.912   3.736   0.110  0.3224  1.3709 -0.6457
 5114SOL    HW226272   8.779   3.731   0.015 -1.0133  2.8297  1.1071
 5115SOL     OW26273   8.494   5.585   2.542  0.4726  0.3749  0.0637
 5115SOL    HW126274   8.416   5.553   2.487 -0.1885  0.7760  0.7461
 5115SOL    HW226275   8.579   5.560   2.497 -0.0518 -0.5343 -0.4416
 5116SOL     OW26276   7.058   8.566   2.156 -0.3750  0.1253  0.4055
 5116SOL    HW126277   7.052   8.491   2.091  0.3604  0.0155  0.4663
 5116SOL    HW226278   7.008   8.645   2.119 -1.3908 -0.4703  0.4706
 5117SOL     OW26279   0.615   3.609   5.469 -0.5467 -0.6279  0.4084
 5117SOL    HW126280   0.533   3.575   5.423 -0.5235 -2.0694  1.4389
 5117SOL    HW226281   0.658   3.679   5.411 -2.3139 -0.0928 -0.2784
 5118SOL     OW26282   3.619   4.668   3.736  0.0493  0.4705 -0.3890
 5118SOL    HW126283   3.552   4.595   3.749 -0.0922  0.5919 -0.4347
 5118SOL    HW226284   3.662   4.658   3.647  1.2944 -0.5912  0.3001
 5119SOL     OW26285   9.979   1.129   3.245  0.2591 -0.0605  0.1710
 5119SOL    HW126286  10.037   1.167   3.172  0.3824 -1.1027 -0.2930
 5119SOL    HW226287  10.036   1.105   3.324  0.0310  1.7027  0.8806
 5120SOL     OW26288   5.725   1.260   4.046 -0.0063 -0.7108 -0.4802
 5120SOL    HW126289   5.821   1.284   4.029  0.0762 -0.3792  0.4134
 5120SOL    HW226290   5.673   1.270   3.962  0.5321  0.1766 -0.7224
 5121SOL     OW26291   7.749   5.341   3.625 -0.1338 -0.5871 -0.1335
 5121SOL    HW126292   7.825   5.292   3.668 -0.1892 -0.7282 -0.1965
 5121SOL    HW226293   7.720   5.417   3.684  0.1079 -0.4857 -0.1465
 5122SOL     OW26294   1.349   6.225   5.603 -0.3706  0.1024  0.6724
 5122SOL    HW126295   1.421   6.223   5.673 -1.7023  0.6782  2.0943
 5122SOL    HW226296   1.355   6.310   5.551 -0.0665  0.1811  0.8322
 5123SOL     OW26297   6.193   6.611   3.477 -0.2804 -0.2832  0.1948
 5123SOL    HW126298   6.162   6.518   3.497 -0.4100 -0.2114  0.3265
 5123SOL    HW226299   6.281   6.627   3.521  0.0342 -0.5474 -0.3295
 5124SOL     OW26300   3.929   4.510   0.773  0.2183  0.7454 -0.3739
 5124SOL    HW126301   3.934   4.410   0.781 -1.0686  0.6953 -0.1007
 5124SOL    HW226302   4.021   4.547   0.762  1.0878 -0.1674  3.0995
 5125SOL     OW26303   3.405   1.717   3.561 -0.2939  0.5115  0.3842
 5125SOL    HW126304   3.361   1.745   3.476 -0.4117  0.1257  0.3145
 5125SOL    HW226305   3.465   1.789   3.593 -0.2731  0.6712 -0.0113
 5126SOL     OW26306   9.840   6.226   4.726  0.1411 -0.2876 -0.1182
 5126SOL    HW126307   9.936   6.216   4.754  0.4470 -0.2712 -1.1191
 5126SOL    HW226308   9.782   6.175   4.788  0.8295 -0.5053  0.3536
 5127SOL     OW26309   1.314   3.544   2.906  0.4235  0.2965 -0.1654
 5127SOL    HW126310   1.245   3.614   2.925  1.0778  0.9104 -0.0217
 5127SOL    HW226311   1.403   3.588   2.891  0.9107 -0.5283  0.2698
 5128SOL     OW26312   2.556   0.227   2.278  0.1794  0.0310 -0.9479
 5128SOL    HW126313   2.484   0.164   2.249  0.5773 -0.6353 -0.4955
 5128SOL    HW226314   2.518   0.318   2.290 -0.5284 -0.2586 -0.9925
 5129SOL     OW26315   9.144   9.258   3.700 -0.2806 -0.9608 -0.0873
 5129SOL    HW126316   9.135   9.236   3.603  0.5634  0.5838 -0.5333
 5129SOL    HW226317   9.236   9.293   3.718 -1.8417  3.2961  0.2810
 5130SOL     OW26318   0.617   2.933   4.156 -0.5617  0.3921 -0.3177
 5130SOL    HW126319   0.677   2.923   4.077  0.5773  0.6969  0.4909
 5130SOL    HW226320   0.601   2.844   4.197 -0.9863  0.2594 -0.7775
 5131SOL     OW26321   0.928   5.869   1.322 -0.4500 -0.1421  0.2077
 5131SOL    HW126322   0.916   5.888   1.224 -0.4474 -0.3288  0.1698
 5131SOL    HW226323   0.925   5.770   1.336 -0.6423 -0.1042  0.4222
 5132SOL     OW26324   4.376   2.237   3.932 -0.2175 -0.2046 -0.2002
 5132SOL    HW126325   4.290   2.250   3.882  0.8172 -0.0810 -1.9722
 5132SOL    HW226326   4.371   2.285   4.019 -1.6637  0.4455 -0.6262
 5133SOL     OW26327   9.145   0.648   4.811  0.3719  0.0686 -0.4378
 5133SOL    HW126328   9.106   0.568   4.858  2.6032  0.6395  2.5179
 5133SOL    HW226329   9.163   0.720   4.877  2.7298  1.3035 -2.3412
 5134SOL     OW26330   8.988   0.796   1.822  0.0952 -0.7101 -0.1829
 5134SOL    HW126331   9.034   0.724   1.874 -3.1993 -2.5728  0.2727
 5134SOL    HW226332   8.912   0.756   1.771 -1.8279  2.4865  0.0946
 5135SOL     OW26333   0.978   3.298   3.684  0.2316  0.2206 -0.2841
 5135SOL    HW126334   0.983   3.386   3.638  1.5766 -1.0553 -2.6571
 5135SOL    HW226335   0.909   3.240   3.640 -1.5187  0.4418  2.0100
 5136SOL     OW26336   1.438   0.876   0.394  0.2663 -0.6169  0.5319
 5136SOL    HW126337   1.494   0.799   0.423 -0.2891 -0.9222  0.7849
 5136SOL    HW226338   1.446   0.950   0.460  0.7555 -0.4683  0.3167
 5137SOL     OW26339   8.926   0.983   4.644 -0.2459  0.2445  0.0225
 5137SOL    HW126340   8.900   1.022   4.732  0.2020 -1.0938  0.7471
 5137SOL    HW226341   8.901   0.887   4.640  0.0806  0.1926 -1.1669
 5138SOL     OW26342   7.466   9.184   1.939 -0.0296 -0.4767 -0.2335
 5138SOL    HW126343   7.534   9.110   1.933  0.3434 -0.0676 -1.1596
 5138SOL    HW226344   7.387   9.162   1.883 -0.1160 -0.3788 -0.1502
 5139SOL     OW26345   2.598   8.751   3.152  0.5746 -0.3339  0.3654
 5139SOL    HW126346   2.637   8.843   3.160  0.5333 -0.1053 -1.5990
 5139SOL    HW226347   2.668   8.688   3.121  0.1522 -0.5713 -0.1092
 5140SOL     OW26348   8.100   7.869   4.670  0.6423 -0.7483 -0.3780
 5140SOL    HW126349   8.177   7.867   4.607 -0.4992 -1.5059 -1.7661
 5140SOL    HW226350   8.066   7.776   4.685  0.0698 -0.4345  0.3267
 5141SOL     OW26351   3.235   6.866   5.512  0.1840  0.4496  0.1679
 5141SOL    HW126352   3.247   6.934   5.584 -1.5862 -0.2021  1.0973
 5141SOL    HW226353   3.143   6.826   5.518  0.9156 -1.4635 -0.8488
 5142SOL     OW26354   9.350   6.733   1.177 -0.7133  0.4537  0.2497
 5142SOL    HW126355   9.368   6.792   1.098 -2.9145  0.4006 -0.3219
 5142SOL    HW226356   9.343   6.789   1.259 -1.6226  0.8814 -0.1070
 5143SOL     OW26357   4.631   5.252   1.077 -0.2092 -0.4710 -0.4559
 5143SOL    HW126358   4.567   5.322   1.046  0.4799  0.4951  0.2742
 5143SOL    HW226359   4.604   5.219   1.167  1.3512  1.2988  0.6975
 5144SOL     OW26360   3.033   7.884   5.173 -0.4539  0.4743  0.0581
 5144SOL    HW126361   3.122   7.927   5.160 -0.6874  0.6444 -1.0702
 5144SOL    HW226362   2.961   7.950   5.153 -0.8175 -0.0007 -0.2136
 5145SOL     OW26363   9.920   3.244   1.042 -0.4035  0.1563 -0.5802
 5145SOL    HW126364   9.876   3.229   0.954  3.4088  0.8352 -2.6740
 5145SOL    HW226365   9.906   3.339   1.071 -1.6226 -0.0599 -0.4140
 5146SOL     OW26366   8.692   3.795   4.424  0.4672  0.0323 -0.3466
 5146SOL    HW126367   8.728   3.805   4.517  0.6148 -1.5373 -0.2203
 5146SOL    HW226368   8.644   3.708   4.416 -0.8642  0.8459 -1.3268
 5147SOL     OW26369   7.846   9.505   1.648 -0.0056  0.0317 -0.2781
 5147SOL    HW126370   7.771   9.439   1.644 -0.4460  0.4790  0.5114
 5147SOL    HW226371   7.809   9.598   1.641  0.3063  0.3378  1.8620
 5148SOL     OW26372   5.292   7.476   4.187 -0.3999  0.5420 -0.1227
 5148SOL    HW126373   5.354   7.530   4.130  0.4670 -1.1048 -0.7859
 5148SOL    HW226374   5.199   7.511   4.178  0.2162  2.2031 -0.1679
 5149SOL     OW26375   8.853   5.421   2.745  0.2938 -0.1306  0.3228
 5149SOL    HW126376   8.859   5.497   2.681 -0.7740 -0.7800 -0.5710
 5149SOL    HW226377   8.933   5.362   2.733  0.4271  0.1055  0.0482
 5150SOL     OW26378   0.451   3.247   0.085  0.0382 -0.5014  0.1581
 5150SOL    HW126379   0.535   3.301   0.083 -1.3717  1.7694 -1.5070
 5150SOL    HW226380   0.473   3.150   0.088  2.7240  0.0092 -1.5315
 5151SOL     OW26381   0.398   0.467   3.486 -0.6230  0.5348 -0.4221
 5151SOL    HW126382   0.457   0.538   3.448 -0.6809 -0.1735 -1.8492
 5151SOL    HW226383   0.450   0.382   3.495 -1.5533 -0.2207 -2.1283
 5152SOL     OW26384   2.359   1.058   4.956  0.3497 -0.5273  0.0968
 5152SOL    HW126385   2.452   1.062   4.994  1.2458 -3.1868 -1.6786
 5152SOL    HW226386   2.354   0.985   4.888 -2.6893  0.5395 -0.8962
 5153SOL     OW26387   1.742   0.622   2.735 -0.3027 -0.0156  1.3837
 5153SOL    HW126388   1.821   0.662   2.783  0.7978  0.0049 -0.4028
 5153SOL    HW226389   1.752   0.637   2.637 -3.4964  1.6618  1.2569
 5154SOL     OW26390   5.155   7.586   3.466  0.0690 -0.4055  0.6739
 5154SOL    HW126391   5.124   7.676   3.497 -1.7836 -0.5491 -0.7084
 5154SOL    HW226392   5.234   7.596   3.406 -0.7856  0.3942 -0.3317
 5155SOL     OW26393   0.373   1.692   1.360  0.4316 -0.1777 -0.1590
 5155SOL    HW126394   0.428   1.626   1.411  1.1066  0.7135  0.2875
 5155SOL    HW226395   0.328   1.754   1.424  0.6749  0.4682 -0.6070
 5156SOL     OW26396   0.048   6.080   3.350  0.1173  0.6379  0.3510
 5156SOL    HW126397  -0.040   6.067   3.304 -0.0396  0.8596  0.5844
 5156SOL    HW226398   0.122   6.075   3.284 -0.1147  1.0711  0.0612
 5157SOL     OW26399   9.926   6.747   0.192  0.6992 -0.1226 -0.5392
 5157SOL    HW126400  10.024   6.755   0.175  0.9520 -2.0969 -0.1630
 5157SOL    HW226401   9.909   6.675   0.259 -0.9888  0.4904 -0.2750
 5158SOL     OW26402   1.908   3.603   0.638  0.1337 -0.1261  0.1234
 5158SOL    HW126403   2.004   3.579   0.655  0.0589 -0.0588  0.6470
 5158SOL    HW226404   1.862   3.526   0.593  1.0540  0.7429 -2.4310
 5159SOL     OW26405   3.251   7.797   5.534  0.3564 -0.1948  0.2928
 5159SOL    HW126406   3.209   7.762   5.450 -2.3101 -1.2916  1.9869
 5159SOL    HW226407   3.303   7.724   5.578  0.8288  0.0555  0.1446
 5160SOL     OW26408   2.196   1.269   1.390 -0.5764 -0.2123 -0.6470
 5160SOL    HW126409   2.203   1.172   1.414  1.6429  0.3388  0.9896
 5160SOL    HW226410   2.109   1.284   1.342 -0.9990 -2.9792 -0.8642
 5161SOL     OW26411   0.234   8.336   0.103 -0.4232  0.0425  0.5457
 5161SOL    HW126412   0.178   8.408   0.061 -1.9118 -0.6564  1.3110
 5161SOL    HW226413   0.288   8.375   0.178 -1.8240  0.2261  1.4796
 5162SOL     OW26414   8.163   7.528   1.518  0.4663 -0.4642  0.0208
 5162SOL    HW126415   8.116   7.604   1.472 -2.5733 -1.6818  0.9889
 5162SOL    HW226416   8.215   7.476   1.451 -0.2768  0.4149 -1.2648
 5163SOL     OW26417   8.154   2.106   1.003  0.1511 -0.0615  0.4684
 5163SOL    HW126418   8.193   2.193   0.972  0.2642 -0.5064 -0.6571
 5163SOL    HW226419   8.056   2.116   1.018 -0.2960 -0.3878 -2.1000
 5164SOL     OW26420   7.293   0.332   5.544  0.4730 -0.1772 -0.3112
 5164SOL    HW126421   7.382   0.291   5.562  0.4424 -0.0641  0.0988
 5164SOL    HW226422   7.221   0.271   5.579  0.3159 -1.0740 -2.1216
 5165SOL     OW26423   7.611   0.793   3.559 -0.2490 -0.0669  0.1674
 5165SOL    HW126424   7.633   0.842   3.474  0.8523  2.0230  1.5981
 5165SOL    HW226425   7.597   0.696   3.539 -2.0778  0.7216 -2.7044
 5166SOL     OW26426   1.574   9.360   0.694  0.1537  0.3956  0.3952
 5166SOL    HW126427   1.528   9.449   0.702  1.1578  0.8714  1.0504
 5166SOL    HW226428   1.549   9.303   0.772 -0.3046  0.1900  0.0987
 5167SOL     OW26429   7.880   9.919   5.359 -0.6777  0.1854  0.3240
 5167SOL    HW126430   7.911   9.839   5.307  2.6496  2.3813 -1.2608
 5167SOL    HW226431   7.782   9.932   5.344 -0.4668 -1.2112 -2.7602
 5168SOL     OW26432   9.340   3.658   1.213  0.1013  0.3903 -0.6877
 5168SOL    HW126433   9.416   3.610   1.169 -0.4869 -0.8649 -0.3725
 5168SOL    HW226434   9.253   3.618   1.182 -0.3040 -1.7542  2.9009
 5169SOL     OW26435   9.835   0.295   2.453 -0.1206 -0.1140  0.3547
 5169SOL    HW126436   9.761   0.333   2.509 -0.1449  0.9128 -0.3486
 5169SOL    HW226437   9.923   0.325   2.490 -0.1047 -0.2020  0.3897
 5170SOL     OW26438   1.935   5.245   2.105  0.5136  0.9638  0.1626
 5170SOL    HW126439   1.869   5.272   2.035  0.3820  2.1273  0.7291
 5170SOL    HW226440   2.009   5.312   2.109  0.0841  1.3533  1.7093
 5171SOL     OW26441   8.206   8.362   2.347  0.3166  0.5231 -0.0559
 5171SOL    HW126442   8.306   8.367   2.355  0.2975  0.4473  0.2696
 5171SOL    HW226443   8.165   8.426   2.412  0.1943  2.4023 -1.9437
 5172SOL     OW26444   1.721   2.356   0.545 -0.5653 -0.1780 -0.2075
 5172SOL    HW126445   1.638   2.410   0.531 -0.7955  0.2538  2.5233
 5172SOL    HW226446   1.698   2.273   0.597  0.6191 -0.4076 -0.0407
 5173SOL     OW26447   1.926   4.667   3.642 -0.1975 -0.6261 -0.3824
 5173SOL    HW126448   1.860   4.596   3.665  0.6543 -1.5431 -0.7257
 5173SOL    HW226449   1.897   4.754   3.682 -1.3371 -1.1267 -0.1068
 5174SOL     OW26450   7.929   0.645   4.045  0.1073  0.0484  0.0891
 5174SOL    HW126451   7.832   0.646   4.072 -0.1690  1.9702 -0.8514
 5174SOL    HW226452   7.948   0.563   3.992 -0.1946 -2.0140  3.0656
 5175SOL     OW26453   0.808   5.554   0.433  0.7974  0.1363  1.0414
 5175SOL    HW126454   0.799   5.605   0.348  1.1453  0.4549  1.1933
 5175SOL    HW226455   0.746   5.475   0.431 -0.3175  0.9998  1.1408
 5176SOL     OW26456   2.349   5.445   4.068  0.1174 -0.5752  0.5491
 5176SOL    HW126457   2.395   5.531   4.048 -1.8419  0.9704  2.4629
 5176SOL    HW226458   2.250   5.456   4.053 -0.1872 -2.3884  1.1062
 5177SOL     OW26459   7.137   0.085   3.163 -0.5500  0.7414  0.0388
 5177SOL    HW126460   7.182   0.101   3.075 -2.3865 -2.7558 -1.6692
 5177SOL    HW226461   7.069   0.156   3.180  2.1163  3.3066  0.2867
 5178SOL     OW26462   4.959   8.369   2.569  0.1775 -0.0043 -0.4077
 5178SOL    HW126463   4.889   8.402   2.506  0.3583  0.5197 -0.3439
 5178SOL    HW226464   4.949   8.271   2.583 -0.5397  0.0651 -0.4066
 5179SOL     OW26465   7.981   1.194   3.442  0.0397 -0.0287  0.1465
 5179SOL    HW126466   7.928   1.135   3.382  0.8323 -0.8048  0.1901
 5179SOL    HW226467   8.079   1.184   3.421  0.3280 -0.2935  1.5207
 5180SOL     OW26468   9.545   3.495   3.908  0.0422 -0.4719  0.6526
 5180SOL    HW126469   9.479   3.472   3.978 -1.0703 -0.0937 -0.2559
 5180SOL    HW226470   9.582   3.587   3.925 -0.0019 -0.5002  0.8980
 5181SOL     OW26471   4.215   7.151   3.773  0.2794  0.1841  0.0577
 5181SOL    HW126472   4.291   7.201   3.732 -1.0628  1.9622 -0.3669
 5181SOL    HW226473   4.138   7.214   3.788 -1.1653 -1.5845  0.3168
 5182SOL     OW26474   8.153   2.333   5.115  0.1426  0.4012  0.1386
 5182SOL    HW126475   8.186   2.323   5.022  0.6471  1.1454  0.2344
 5182SOL    HW226476   8.115   2.424   5.128 -0.9900 -0.0824  0.3390
 5183SOL     OW26477   4.187   2.389   1.667  0.6147  0.2031  0.0495
 5183SOL    HW126478   4.212   2.477   1.626 -0.0962  1.2695  1.8736
 5183SOL    HW226479   4.250   2.368   1.742  1.7238 -1.6050 -1.3114
 5184SOL     OW26480   8.810   1.329   3.710  0.3357 -0.6488  0.1990
 5184SOL    HW126481   8.758   1.395   3.656  0.8114 -0.3216  0.1367
 5184SOL    HW226482   8.748   1.259   3.746 -0.2175 -0.0004  0.5236
 5185SOL     OW26483   6.433   9.648   2.146  0.2756 -0.3387 -0.0319
 5185SOL    HW126484   6.335   9.663   2.134  0.0390 -1.1074  0.9394
 5185SOL    HW226485   6.449   9.579   2.216  1.5098 -0.4356 -0.3872
 5186SOL     OW26486   7.432   1.087   4.717 -0.3394 -0.3982 -0.4625
 5186SOL    HW126487   7.427   1.127   4.809 -0.8944  0.9651 -1.0686
 5186SOL    HW226488   7.352   1.116   4.664  1.5103  1.3378 -2.3769
 5187SOL     OW26489   4.754   0.614   2.229  0.5440  0.2475 -0.2763
 5187SOL    HW126490   4.658   0.594   2.248  0.1068  1.1178 -1.5128
 5187SOL    HW226491   4.809   0.593   2.310 -0.9005  1.2427  0.9962
 5188SOL     OW26492   8.138   1.059   0.109 -0.4550 -0.1904  0.2897
 5188SOL    HW126493   8.098   1.139   0.065  0.1339 -0.2905 -0.4350
 5188SOL    HW226494   8.129   1.067   0.209  0.9088  1.4576  0.2943
 5189SOL     OW26495   2.532   5.283   0.463 -1.2127  0.2340  0.0155
 5189SOL    HW126496   2.587   5.286   0.379  0.5695  1.2028  1.1693
 5189SOL    HW226497   2.480   5.198   0.466  1.3455 -1.4218 -0.4681
 5190SOL     OW26498   2.443   5.236   4.218 -0.0918 -0.3420  0.2861
 5190SOL    HW126499   2.485   5.262   4.305 -0.1788  0.5933  0.0604
 5190SOL    HW226500   2.403   5.317   4.175  1.9079 -0.3284 -1.6798
 5191SOL     OW26501   7.603   9.442   0.468  0.1245 -0.3548 -0.2132
 5191SOL    HW126502   7.667   9.500   0.517  0.6746 -3.3017  2.6920
 5191SOL    HW226503   7.528   9.415   0.529 -2.8354  1.2738 -2.9196
 5192SOL     OW26504   3.343   2.287   4.630  0.1893  0.7618  0.6496
 5192SOL    HW126505   3.250   2.289   4.666  0.0168 -1.5500  0.4585
 5192SOL    HW226506   3.400   2.226   4.687  1.1182  0.7807 -0.2386
 5193SOL     OW26507   8.798   0.621   3.928 -0.3656 -0.0163  0.5486
 5193SOL    HW126508   8.868   0.553   3.905  0.6325  0.5470  1.8533
 5193SOL    HW226509   8.728   0.622   3.857  0.9427 -0.6116 -0.7755
 5194SOL     OW26510   9.292   0.008   3.376 -0.1547  0.0811  0.5853
 5194SOL    HW126511   9.322  -0.025   3.465  1.1058  1.8821  0.8748
 5194SOL    HW226512   9.322  -0.055   3.305 -0.1666 -0.7839  1.3482
 5195SOL     OW26513   0.229   8.826   4.855 -0.4440  0.0760  0.0333
 5195SOL    HW126514   0.162   8.900   4.856 -1.7728 -1.1057 -0.8868
 5195SOL    HW226515   0.185   8.741   4.827  1.4009 -0.7571 -0.4028
 5196SOL     OW26516   6.923   1.173   1.964  0.7478  0.0007  0.0795
 5196SOL    HW126517   6.959   1.237   1.896  0.4867  0.0804  0.0139
 5196SOL    HW226518   6.996   1.113   1.996  0.6877 -0.5929 -0.8853
 5197SOL     OW26519   7.891   2.289   3.070 -0.0128  0.1872  0.1217
 5197SOL    HW126520   7.960   2.344   3.024 -1.1564  0.2950 -1.5253
 5197SOL    HW226521   7.935   2.225   3.133  1.4294  1.7704  0.7575
 5198SOL     OW26522   0.632   7.324   2.458  0.2584  0.1193 -0.2907
 5198SOL    HW126523   0.707   7.388   2.441  0.5164  0.1245  0.8002
 5198SOL    HW226524   0.669   7.232   2.467 -0.3496 -0.5611 -4.0884
 5199SOL     OW26525   4.903   0.260   1.012  0.0380  0.1632 -0.0382
 5199SOL    HW126526   4.846   0.264   1.094  2.6160  1.7454  1.7766
 5199SOL    HW226527   4.933   0.352   0.988  0.0064 -0.3938 -2.2837
 5200SOL     OW26528   7.529   4.012   5.255 -0.2259 -0.6470 -0.5849
 5200SOL    HW126529   7.582   4.091   5.224 -1.8127 -0.5218 -3.0975
 5200SOL    HW226530   7.434   4.039   5.269 -0.0436 -1.2941  2.0969
 5201SOL     OW26531   0.244   9.536   4.158  0.2284 -0.4748 -0.4031
 5201SOL    HW126532   0.320   9.474   4.177 -0.8078 -1.6419 -0.0005
 5201SOL    HW226533   0.271   9.630   4.181  0.8861 -1.1262  1.5877
 5202SOL     OW26534   2.123   2.440   1.704 -0.4597  0.1511  0.0812
 5202SOL    HW126535   2.223   2.448   1.712 -0.4797  0.5692 -0.1056
 5202SOL    HW226536   2.080   2.507   1.765 -0.6289 -0.4303  0.6061
 5203SOL     OW26537   0.907   7.305   0.993  0.4881  0.4900  0.1793
 5203SOL    HW126538   0.808   7.318   0.979  0.4316  0.1248  0.2351
 5203SOL    HW226539   0.939   7.369   1.063  0.0416 -0.2706  1.0968
 5204SOL     OW26540   0.732   8.460   5.414  0.0118 -0.2035  0.0315
 5204SOL    HW126541   0.673   8.444   5.493  0.9552 -0.7932  0.6321
 5204SOL    HW226542   0.706   8.397   5.340  0.5374 -1.1736  0.6562
 5205SOL     OW26543   3.851   3.125   2.600  0.3398 -0.0071 -0.1671
 5205SOL    HW126544   3.791   3.045   2.589  0.3608 -0.0412 -0.0275
 5205SOL    HW226545   3.919   3.106   2.670  2.2186 -0.9815 -2.1920
 5206SOL     OW26546   8.092   8.711   4.613  0.1250 -0.1096 -0.2384
 5206SOL    HW126547   8.120   8.800   4.576  2.6542 -1.7224 -2.3938
 5206SOL    HW226548   8.171   8.650   4.616 -1.3514 -1.9934  2.2063
 5207SOL     OW26549   0.088   4.188   3.718 -0.1256 -0.4337  0.2618
 5207SOL    HW126550   0.113   4.180   3.621  0.0837  1.9386  0.0888
 5207SOL    HW226551   0.057   4.281   3.736  0.1423 -0.7765  2.5582
 5208SOL     OW26552   3.149   9.848   3.548 -0.0846 -0.0260 -0.6503
 5208SOL    HW126553   3.063   9.869   3.594 -0.0304  1.3242 -1.1461
 5208SOL    HW226554   3.174   9.753   3.566 -0.6083  0.1729  1.1992
 5209SOL     OW26555   1.417   4.815   1.336  0.0130  0.1450 -0.0579
 5209SOL    HW126556   1.363   4.751   1.282  0.8374 -1.2010  0.6818
 5209SOL    HW226557   1.359   4.857   1.406 -0.1176 -1.1878  0.6457
 5210SOL     OW26558   2.385   4.721   5.329 -0.0745 -0.2792  0.1942
 5210SOL    HW126559   2.451   4.664   5.279 -0.1431  0.9691 -1.3647
 5210SOL    HW226560   2.432   4.767   5.404 -0.1771 -2.9441  1.9823
 5211SOL     OW26561   0.119   4.836   0.022 -0.2274 -0.1276 -0.3831
 5211SOL    HW126562   0.040   4.895   0.006 -0.6032 -0.7501 -0.8798
 5211SOL    HW226563   0.203   4.889   0.017 -0.4934  0.1687 -1.9517
 5212SOL     OW26564   0.533   1.541   3.556 -0.0547  0.4592  0.2726
 5212SOL    HW126565   0.434   1.530   3.550  0.0529 -0.3109 -0.1930
 5212SOL    HW226566   0.578   1.471   3.500  0.7824 -0.1036  1.6270
 5213SOL     OW26567   3.370   5.627   5.095 -0.3758  0.0896 -0.0985
 5213SOL    HW126568   3.420   5.702   5.137 -1.7444  1.0391 -0.1085
 5213SOL    HW226569   3.350   5.557   5.164 -1.3103  0.9361  0.5046
 5214SOL     OW26570   9.660   0.681   0.562  0.1447  0.1071  0.5504
 5214SOL    HW126571   9.719   0.697   0.642 -0.2416  1.2544  0.6158
 5214SOL    HW226572   9.565   0.676   0.592  0.1525 -1.3705  0.3935
 5215SOL     OW26573   3.858   8.491   4.582 -0.2145  0.0022 -0.2867
 5215SOL    HW126574   3.769   8.451   4.602 -0.0585 -0.6403 -0.8676
 5215SOL    HW226575   3.882   8.473   4.486  0.5053  0.2370 -0.1535
 5216SOL     OW26576   8.854   5.006   3.175 -0.2743 -0.1891  0.1588
 5216SOL    HW126577   8.793   5.011   3.254 -0.1866 -1.0840  0.2946
 5216SOL    HW226578   8.940   5.053   3.196 -0.8033  0.8329  0.0663
 5217SOL     OW26579   3.692   8.949   3.288 -0.6345 -0.0130  0.0745
 5217SOL    HW126580   3.645   9.036   3.302 -0.3196  0.0814  0.5705
 5217SOL    HW226581   3.633   8.886   3.239 -0.6487  0.6836 -0.8081
 5218SOL     OW26582   3.465   6.905   3.601  0.2562  0.0413  1.0336
 5218SOL    HW126583   3.469   6.953   3.514  0.6685 -1.4729  0.1980
 5218SOL    HW226584   3.556   6.902   3.641  0.6868 -1.9793 -0.0157
 5219SOL     OW26585   9.997   3.987   5.433 -0.1807 -0.4667  0.4452
 5219SOL    HW126586   9.903   4.000   5.464 -0.2871  0.0295 -0.0856
 5219SOL    HW226587  10.012   4.038   5.348  0.6983 -0.1497  0.7806
 5220SOL     OW26588   3.491   4.200   1.425 -0.3095  0.0291 -0.2726
 5220SOL    HW126589   3.559   4.271   1.441 -1.0208  1.0002 -1.4554
 5220SOL    HW226590   3.401   4.233   1.455 -0.5263 -0.6388 -0.1848
 5221SOL     OW26591   2.492   5.513   0.003 -0.6589  0.7778 -0.1505
 5221SOL    HW126592   2.467   5.443   0.070  1.2800  0.6461  0.4459
 5221SOL    HW226593   2.409   5.562  -0.025 -1.6651  0.0247  1.4125
 5222SOL     OW26594   6.723   8.292   1.609  0.1056  0.3743  0.3482
 5222SOL    HW126595   6.636   8.336   1.588  0.1896  0.8441  0.9549
 5222SOL    HW226596   6.708   8.198   1.638 -0.2867  0.7775  1.4634
 5223SOL     OW26597   3.645   8.629   5.386 -0.0415  0.0410 -0.1656
 5223SOL    HW126598   3.731   8.588   5.354 -0.4065  0.1508 -1.2990
 5223SOL    HW226599   3.648   8.637   5.486  0.7839 -1.0464 -0.0870
 5224SOL     OW26600   5.027   0.729   0.358  0.3610  0.8856  0.2080
 5224SOL    HW126601   4.955   0.794   0.336  0.2503  0.7958  0.3036
 5224SOL    HW226602   5.099   0.775   0.409 -1.3960  0.1846  3.5029
 5225SOL     OW26603   8.165   9.910   0.376 -0.0901  0.4199  0.4317
 5225SOL    HW126604   8.093   9.961   0.422 -0.6826  0.1983 -0.2387
 5225SOL    HW226605   8.252   9.923   0.424 -0.1984  2.2080  0.1719
 5226SOL     OW26606   7.325   4.914   5.215 -0.0832  0.5731  0.3314
 5226SOL    HW126607   7.270   4.937   5.296  1.0726  3.8044  0.2936
 5226SOL    HW226608   7.385   4.837   5.236 -1.9369 -0.5852  1.5544
 5227SOL     OW26609   3.421   1.456   1.740 -0.6644  0.3671  0.2276
 5227SOL    HW126610   3.439   1.484   1.646 -0.3504 -0.0652  0.1583
 5227SOL    HW226611   3.399   1.358   1.743  1.3346 -0.0903  0.8397
 5228SOL     OW26612   9.878   2.144   1.171 -0.2902  0.1879 -0.2066
 5228SOL    HW126613   9.899   2.152   1.074  1.0727  1.4609  0.1671
 5228SOL    HW226614   9.785   2.177   1.189 -1.1324 -1.5638 -1.2994
 5229SOL     OW26615   1.288   9.338   2.043 -0.2749 -0.1698  0.0250
 5229SOL    HW126616   1.355   9.330   1.970 -0.5925 -1.0200 -0.1803
 5229SOL    HW226617   1.199   9.307   2.011 -0.7961  1.0281  0.2717
 5230SOL     OW26618   8.016   2.772   4.641  0.3177  0.1645  0.2193
 5230SOL    HW126619   8.044   2.707   4.570 -1.2921 -0.8684  0.5143
 5230SOL    HW226620   8.083   2.845   4.646 -0.0469  0.8325 -3.1143
 5231SOL     OW26621   3.774   1.819   1.448 -0.1284 -0.0654  0.2073
 5231SOL    HW126622   3.836   1.894   1.472  0.1309 -0.3656  0.4919
 5231SOL    HW226623   3.779   1.802   1.350  0.8899 -0.6520  0.3526
 5232SOL     OW26624   5.309   5.609   1.213  0.1844  0.1664 -0.2089
 5232SOL    HW126625   5.318   5.539   1.142 -0.8320  0.1561 -0.3335
 5232SOL    HW226626   5.229   5.588   1.270  0.7894  0.3636  0.7270
 5233SOL     OW26627   8.621   4.005   0.966  0.6809 -0.0565 -0.2734
 5233SOL    HW126628   8.698   4.029   1.024 -0.3222 -0.3327  1.1921
 5233SOL    HW226629   8.562   4.085   0.954  0.6368 -0.1256 -0.5275
 5234SOL     OW26630   3.428   2.100   2.541  0.2521  0.0460 -0.1249
 5234SOL    HW126631   3.484   2.130   2.618 -0.9136 -0.1548  0.8224
 5234SOL    HW226632   3.367   2.174   2.514  1.5361  0.5515 -1.6970
 5235SOL     OW26633   2.880   8.656   4.485  1.1704 -0.0489  0.2088
 5235SOL    HW126634   2.812   8.603   4.435  1.3224 -1.2807  1.2712
 5235SOL    HW226635   2.928   8.718   4.423 -1.0812  1.0213 -0.5151
 5236SOL     OW26636   6.789   9.450   4.577  0.2638  0.0310  0.5116
 5236SOL    HW126637   6.778   9.494   4.488  1.0672  0.5740  0.6691
 5236SOL    HW226638   6.712   9.390   4.595  0.9243 -1.4015 -1.3087
 5237SOL     OW26639   8.571   1.670   4.225  0.2914  0.1103  0.1279
 5237SOL    HW126640   8.482   1.688   4.185  0.5114 -1.4528 -1.1221
 5237SOL    HW226641   8.639   1.660   4.152  1.0391 -0.9997  0.9482
 5238SOL     OW26642   5.206   9.799   3.292  0.4350  0.3277  0.1533
 5238SOL    HW126643   5.164   9.853   3.366 -0.5998 -0.0534 -0.1435
 5238SOL    HW226644   5.202   9.702   3.316 -0.5931  0.1399 -0.7236
 5239SOL     OW26645   8.508   8.863   3.235 -0.1964 -0.1383 -0.1171
 5239SOL    HW126646   8.457   8.845   3.150 -2.1273 -0.9927  1.2003
 5239SOL    HW226647   8.525   8.777   3.282  1.9474  0.2187 -0.2168
 5240SOL     OW26648   5.402   0.759   4.541  0.2037  0.5332  0.2313
 5240SOL    HW126649   5.404   0.858   4.554  0.4920  0.6313 -0.5316
 5240SOL    HW226650   5.412   0.713   4.630 -0.4126  1.1845  0.6405
 5241SOL     OW26651   9.836   0.018   2.498 -0.2919  0.4158 -0.3942
 5241SOL    HW126652   9.931  -0.007   2.515 -0.5414 -1.3167 -1.3436
 5241SOL    HW226653   9.830   0.114   2.472  0.9614  1.0420  1.5543
 5242SOL     OW26654   2.060   4.234   3.539 -0.5366  1.0459  0.4255
 5242SOL    HW126655   2.114   4.192   3.611  0.7422 -0.3411 -1.3136
 5242SOL    HW226656   2.014   4.163   3.485 -0.6447  2.0080 -0.7847
 5243SOL     OW26657   2.881   1.847   5.346  0.8689  0.2573 -0.0720
 5243SOL    HW126658   2.868   1.936   5.390  0.5122 -0.4356  1.2816
 5243SOL    HW226659   2.855   1.775   5.411  1.0177 -0.8201 -1.2035
 5244SOL     OW26660   9.399   0.557   1.782  0.6417 -0.3118 -0.2592
 5244SOL    HW126661   9.468   0.484   1.779  0.7490 -0.2353  0.4644
 5244SOL    HW226662   9.324   0.529   1.841 -0.1840 -0.5977 -1.4317
 5245SOL     OW26663   1.200   5.222   4.052 -0.5009  0.1325  0.1653
 5245SOL    HW126664   1.300   5.223   4.051 -0.5068  0.4282 -1.3640
 5245SOL    HW226665   1.166   5.313   4.075 -0.4162  0.2357 -0.1137
 5246SOL     OW26666   2.212   5.069  -0.002 -0.0007  0.6319  0.3439
 5246SOL    HW126667   2.145   5.115   0.056 -1.5110 -1.4177  0.2912
 5246SOL    HW226668   2.267   5.008   0.055 -0.9323 -0.7572 -0.2144
 5247SOL     OW26669   1.181   1.839   1.268  0.5453  0.0099 -0.1474
 5247SOL    HW126670   1.091   1.828   1.226  0.9940 -0.4551 -0.9757
 5247SOL    HW226671   1.169   1.872   1.362 -0.4086  3.5983 -1.4086
 5248SOL     OW26672   2.263   1.043   2.344  0.3495 -0.3114  0.4650
 5248SOL    HW126673   2.216   0.957   2.366  0.7649 -0.6726 -0.0480
 5248SOL    HW226674   2.305   1.079   2.426  2.8232 -2.2247  0.0890
 5249SOL     OW26675   4.425   1.547   0.535  0.0171  0.0511  0.0969
 5249SOL    HW126676   4.524   1.540   0.533  0.0360  0.4527 -0.4693
 5249SOL    HW226677   4.386   1.462   0.570  0.4693 -0.9442 -1.7850
 5250SOL     OW26678   9.803   1.599   4.876  0.4637 -0.0521  0.0985
 5250SOL    HW126679   9.769   1.674   4.818  2.1969  0.1678 -0.6595
 5250SOL    HW226680   9.817   1.518   4.820 -2.4131 -1.3259  1.1047
 5251SOL     OW26681   4.147   9.394   0.436  0.5838 -0.1670 -0.3156
 5251SOL    HW126682   4.129   9.412   0.339 -2.9027  1.7664  0.5903
 5251SOL    HW226683   4.129   9.477   0.489 -1.4740 -2.2486  2.3902
 5252SOL     OW26684   9.699   5.353   0.166 -0.5900  0.0105 -0.0724
 5252SOL    HW126685   9.648   5.269   0.150  0.0147 -0.8183  2.0424
 5252SOL    HW226686   9.784   5.351   0.114 -0.7474 -0.5343 -0.3112
 5253SOL     OW26687   9.273   7.827   5.494  0.2230  0.1034  0.5837
 5253SOL    HW126688   9.278   7.909   5.436  0.2817  0.5004  1.1506
 5253SOL    HW226689   9.224   7.755   5.445 -0.4270  0.7017  0.3482
 5254SOL     OW26690   9.575   9.817   4.800 -0.0424  0.2521  0.3230
 5254SOL    HW126691   9.657   9.849   4.847 -0.5597  0.4191  1.1240
 5254SOL    HW226692   9.596   9.734   4.747  0.6477  0.3285  0.4816
 5255SOL     OW26693   6.085   6.861   3.144  0.2536 -0.0753  0.3791
 5255SOL    HW126694   6.098   6.860   3.243 -0.5599 -0.4855  0.4908
 5255SOL    HW226695   6.006   6.918   3.122  0.1975 -0.3009 -0.0042
 5256SOL     OW26696   4.296   0.572   0.508  0.5841 -0.9772 -0.1885
 5256SOL    HW126697   4.396   0.560   0.509  0.6333 -0.5792 -0.1723
 5256SOL    HW226698   4.253   0.490   0.471  1.0131 -0.5196 -1.7281
 5257SOL     OW26699   7.489   8.531   3.455  0.2866 -0.2049 -0.0859
 5257SOL    HW126700   7.511   8.580   3.370 -0.3049 -0.0611 -0.1564
 5257SOL    HW226701   7.541   8.572   3.531 -1.3279  1.5367  0.1234
 5258SOL     OW26702   7.268   1.951   2.981 -0.3251  0.0938 -0.9101
 5258SOL    HW126703   7.244   2.048   2.975 -0.3615  0.1320 -0.1651
 5258SOL    HW226704   7.321   1.925   2.901 -1.2714  0.4599 -1.6622
 5259SOL     OW26705   5.897   9.816   2.895  0.7110  0.2790 -0.2183
 5259SOL    HW126706   5.973   9.816   2.960  1.5183 -0.6584 -1.1562
 5259SOL    HW226707   5.931   9.831   2.803 -0.6157  3.3268 -0.2634
 5260SOL     OW26708   0.155   6.502   5.481 -0.4489  0.1958 -0.2716
 5260SOL    HW126709   0.082   6.570   5.483 -2.8412 -2.2991  1.3107
 5260SOL    HW226710   0.138   6.436   5.408 -0.1065 -0.7116  0.4456
 5261SOL     OW26711   0.146   4.493   5.243  0.2699  0.0555 -0.7512
 5261SOL    HW126712   0.187   4.531   5.160  0.2485  0.9072 -0.3742
 5261SOL    HW226713   0.119   4.567   5.304 -0.1817 -0.5545 -0.2019
 5262SOL     OW26714   4.061   1.881   3.223 -0.1288  0.1377 -0.0323
 5262SOL    HW126715   4.075   1.892   3.124 -2.4674  1.4233 -0.2507
 5262SOL    HW226716   4.090   1.789   3.250 -0.4978 -0.6254 -2.1023
 5263SOL     OW26717   8.753   5.390   3.353  0.1117  0.1935  0.3439
 5263SOL    HW126718   8.729   5.470   3.297 -0.5212 -0.2211  0.0254
 5263SOL    HW226719   8.673   5.360   3.405 -0.4034 -1.9215 -1.6199
 5264SOL     OW26720   7.741   7.544   3.947  0.2122 -0.1203 -0.0864
 5264SOL    HW126721   7.730   7.641   3.926 -2.1365 -0.6614 -1.5394
 5264SOL    HW226722   7.769   7.534   4.042  1.5323  2.0174 -0.2065
 5265SOL     OW26723   3.206   3.526   4.569  0.8518 -0.5089 -0.1076
 5265SOL    HW126724   3.293   3.560   4.532  1.1806  0.6791  1.7002
 5265SOL    HW226725   3.133   3.590   4.546  0.6183 -1.0056 -0.7697
 5266SOL     OW26726   8.188   9.564   4.188 -0.4223  0.2877  0.3619
 5266SOL    HW126727   8.198   9.514   4.102 -0.6392  1.0893 -0.1395
 5266SOL    HW226728   8.142   9.506   4.255 -1.0563 -0.0372 -0.3493
 5267SOL     OW26729   2.975   2.021   4.392  0.7732 -0.3506 -0.2551
 5267SOL    HW126730   2.928   2.039   4.306 -0.7155 -1.5553  0.2725
 5267SOL    HW226731   2.994   1.923   4.400 -0.1791 -0.4360  1.2873
 5268SOL     OW26732   9.097   6.112   3.315 -0.5275  0.1635 -0.0743
 5268SOL    HW126733   9.150   6.050   3.374 -0.6635  0.9357  0.8643
 5268SOL    HW226734   9.116   6.206   3.341 -1.8385  0.4646 -0.1906
 5269SOL     OW26735   7.944   7.648   1.730 -0.6648  0.3715  0.0043
 5269SOL    HW126736   7.959   7.740   1.765  0.9379 -0.5820  1.9723
 5269SOL    HW226737   8.011   7.627   1.659  2.1653 -0.8904  2.8912
 5270SOL     OW26738   1.629   5.068   4.533  0.7422 -0.0310  0.3783
 5270SOL    HW126739   1.542   5.074   4.581 -0.0246  0.3983 -1.0680
 5270SOL    HW226740   1.668   4.976   4.546 -1.2429 -1.1269 -1.2454
 5271SOL     OW26741   1.054   3.399   5.486 -0.5001 -0.3351 -0.3197
 5271SOL    HW126742   1.075   3.304   5.512 -0.0099  0.2098  1.3092
 5271SOL    HW226743   0.989   3.398   5.411 -0.2309 -1.9789 -0.5673
 5272SOL     OW26744   1.771   6.889   2.636  0.3293 -0.4693  0.1836
 5272SOL    HW126745   1.706   6.821   2.602 -0.8381  0.9172 -0.4259
 5272SOL    HW226746   1.786   6.875   2.734  0.0561 -1.5597  0.0715
 5273SOL     OW26747   1.448   6.492   2.045  0.8774 -0.0910 -0.4479
 5273SOL    HW126748   1.448   6.446   1.956  0.9681 -2.2700  0.6232
 5273SOL    HW226749   1.402   6.580   2.037  0.4560 -0.4633 -2.5438
 5274SOL     OW26750   7.125   0.477   5.389 -0.0822 -0.0235  0.7553
 5274SOL    HW126751   7.138   0.440   5.298  1.1762  0.8229  0.5753
 5274SOL    HW226752   7.190   0.434   5.452 -1.2631 -0.9494  1.3573
 5275SOL     OW26753   1.776   8.206   0.483  0.0832 -0.1260  0.1076
 5275SOL    HW126754   1.850   8.164   0.537  1.0303  1.2055 -0.1345
 5275SOL    HW226755   1.726   8.271   0.539  1.7005  2.0056 -0.8454
 5276SOL     OW26756   9.452   1.212   3.975 -0.0451 -0.0297  0.0443
 5276SOL    HW126757   9.435   1.240   3.881  0.8694 -0.4309 -0.2478
 5276SOL    HW226758   9.509   1.130   3.976 -2.3830 -1.7015  0.9090
 5277SOL     OW26759   2.371   8.725   4.492  0.3274 -0.0513 -0.0546
 5277SOL    HW126760   2.408   8.802   4.544 -0.3277  1.1216 -1.3037
 5277SOL    HW226761   2.276   8.710   4.518  0.7589 -1.1078  0.9371
 5278SOL     OW26762   4.758   7.320   1.437  0.3586  0.9124  0.1750
 5278SOL    HW126763   4.678   7.330   1.378  0.6652 -0.0550 -0.4130
 5278SOL    HW226764   4.837   7.294   1.381  0.6267 -0.1396  1.0319
 5279SOL     OW26765   9.677   7.141   4.532 -0.1740  0.2682  0.6762
 5279SOL    HW126766   9.743   7.122   4.604 -1.0385 -2.9976  0.7110
 5279SOL    HW226767   9.589   7.100   4.555 -0.3967 -1.1003 -2.3082
 5280SOL     OW26768   8.878   1.101   1.132 -0.0059 -0.0389  0.0902
 5280SOL    HW126769   8.792   1.050   1.139 -0.5752  0.8823 -0.1139
 5280SOL    HW226770   8.927   1.096   1.219 -0.3019 -0.5092  0.2284
 5281SOL     OW26771   3.400   4.243   2.884 -0.2243 -0.6411  0.5021
 5281SOL    HW126772   3.475   4.237   2.819 -0.7214 -1.4735  0.0022
 5281SOL    HW226773   3.318   4.201   2.845 -0.7889 -0.2853  1.2834
 5282SOL     OW26774   1.796   7.723   1.671 -0.8845 -0.2240 -0.5143
 5282SOL    HW126775   1.819   7.817   1.647 -0.3669 -1.3369 -4.7797
 5282SOL    HW226776   1.697   7.712   1.672 -0.9791  0.5553  1.0689
 5283SOL     OW26777   0.073   3.009   2.498 -0.3917  0.2477  0.7559
 5283SOL    HW126778   0.152   2.965   2.541 -0.4370 -0.7975 -0.2073
 5283SOL    HW226779  -0.000   3.020   2.565 -0.7451 -2.0761  0.7953
 5284SOL     OW26780   3.738   4.116   4.486 -0.1122  0.4034  0.0981
 5284SOL    HW126781   3.780   4.037   4.531  1.6161  1.2718  0.0296
 5284SOL    HW226782   3.734   4.100   4.388 -1.0708 -0.1894  0.2261
 5285SOL     OW26783   7.988   2.122   0.058 -0.1581  0.2682 -0.0691
 5285SOL    HW126784   8.046   2.162  -0.014  1.8953 -1.4050  0.6140
 5285SOL    HW226785   8.029   2.139   0.147 -1.0479 -0.4092  0.4782
 5286SOL     OW26786   2.121   7.887   4.858 -0.0513 -0.3494  0.5070
 5286SOL    HW126787   2.170   7.933   4.784 -0.1122 -2.0783 -0.6244
 5286SOL    HW226788   2.125   7.944   4.940  0.0620  1.5735 -0.7859
 5287SOL     OW26789   4.905   6.313   2.039  0.4891  0.6157  0.6551
 5287SOL    HW126790   4.893   6.284   2.134  0.0874  1.6140  0.9162
 5287SOL    HW226791   4.869   6.406   2.027  0.2312  0.3757 -0.5528
 5288SOL     OW26792   0.877   4.476   0.549  0.3137 -0.2821 -0.0661
 5288SOL    HW126793   0.801   4.502   0.609 -0.6126  1.8006 -2.0881
 5288SOL    HW226794   0.954   4.446   0.605 -0.5324  1.5980  2.1870
 5289SOL     OW26795   6.640   9.117   3.164 -0.0899 -0.0987 -0.1901
 5289SOL    HW126796   6.628   9.036   3.107  0.0662 -0.3169  0.0826
 5289SOL    HW226797   6.650   9.198   3.106  0.4907 -0.3752 -0.4796
 5290SOL     OW26798   8.877   6.107   4.300 -0.1744 -0.3952  0.7156
 5290SOL    HW126799   8.934   6.070   4.226 -0.3143 -1.2394  1.0296
 5290SOL    HW226800   8.781   6.104   4.272  0.0321  2.5657 -0.4880
 5291SOL     OW26801   5.078   1.499   3.991  0.2640 -0.1756  0.3709
 5291SOL    HW126802   5.003   1.565   4.000 -0.0400 -0.6896  1.8616
 5291SOL    HW226803   5.134   1.502   4.074  0.3257 -1.6890  0.3983
 5292SOL     OW26804   7.952   9.788   1.341 -0.1204  0.0118 -0.0253
 5292SOL    HW126805   7.918   9.818   1.430 -0.0334  1.5266 -0.4851
 5292SOL    HW226806   8.052   9.781   1.343 -0.1426 -0.2795  0.0872
 5293SOL     OW26807   2.937   3.199   1.929 -0.1613  0.0109  0.2995
 5293SOL    HW126808   2.845   3.235   1.915 -0.1079  0.0959  0.1601
 5293SOL    HW226809   2.938   3.138   2.008 -0.1665  0.6515  0.7967
 5294SOL     OW26810   8.691   4.427   0.536 -0.6250 -0.0202  0.3146
 5294SOL    HW126811   8.711   4.461   0.629  1.2443  1.3858 -0.5500
 5294SOL    HW226812   8.641   4.497   0.485 -0.5595 -0.2852 -0.1158
 5295SOL     OW26813   0.724   7.061   0.182 -0.3066 -0.6908 -0.4600
 5295SOL    HW126814   0.664   7.013   0.246  0.2806  0.7261  1.1604
 5295SOL    HW226815   0.669   7.118   0.121 -0.7724 -1.1369 -0.4588
 5296SOL     OW26816   4.129   1.357   0.135  0.6508 -0.3740 -0.4253
 5296SOL    HW126817   4.094   1.358   0.041 -0.1155  0.0903 -0.1395
 5296SOL    HW226818   4.192   1.434   0.148  0.0898  0.0697 -0.3135
 5297SOL     OW26819   9.810   6.156   0.133  0.2904  0.0256  0.3578
 5297SOL    HW126820   9.735   6.145   0.068 -0.0251 -0.9685  0.8707
 5297SOL    HW226821   9.897   6.156   0.084  0.2601 -3.7377  0.1320
 5298SOL     OW26822   9.271   8.892   2.022  0.4424  0.1728  0.3673
 5298SOL    HW126823   9.355   8.864   2.068  1.5211  1.4862 -0.7847
 5298SOL    HW226824   9.292   8.930   1.932 -1.4737 -0.4822 -0.3993
 5299SOL     OW26825   0.708   6.741   3.384  0.3158 -0.1373 -0.2059
 5299SOL    HW126826   0.679   6.799   3.308  0.2099  0.4281  0.2574
 5299SOL    HW226827   0.631   6.723   3.445  0.8424  1.1527  0.8825
 5300SOL     OW26828   3.695   9.452   1.620 -0.3606 -0.5485 -0.2279
 5300SOL    HW126829   3.725   9.516   1.691 -3.1495 -0.7844  1.2580
 5300SOL    HW226830   3.703   9.359   1.654 -1.4246 -0.6830 -0.3328
 5301SOL     OW26831   9.360   9.417   1.140  0.3409 -0.1704 -0.1618
 5301SOL    HW126832   9.299   9.383   1.212 -0.3267 -1.6437 -1.4003
 5301SOL    HW226833   9.311   9.485   1.085  0.4750  0.1048  0.0567
 5302SOL     OW26834   8.313   9.833   3.750  0.1227 -0.4273 -0.2974
 5302SOL    HW126835   8.370   9.842   3.668  0.0498 -0.0104 -0.3067
 5302SOL    HW226836   8.239   9.901   3.746 -2.2171 -2.9627 -1.7705
 5303SOL     OW26837   5.784   7.176   2.612  0.6413  0.5786 -0.4138
 5303SOL    HW126838   5.750   7.166   2.518  0.8204 -0.5916 -0.3578
 5303SOL    HW226839   5.714   7.148   2.677  2.2344 -3.5731 -0.3387
 5304SOL     OW26840   1.364   0.136   3.247  0.1632 -0.3511  0.1914
 5304SOL    HW126841   1.441   0.193   3.276  0.4860  0.1720 -1.6237
 5304SOL    HW226842   1.370   0.119   3.148 -1.9338 -0.4781  0.0604
 5305SOL     OW26843   3.328   9.739   1.044 -0.3314  0.2929 -0.0234
 5305SOL    HW126844   3.230   9.754   1.062 -0.4387  1.6990 -1.6433
 5305SOL    HW226845   3.363   9.813   0.987  2.0532  0.5885  1.7399
 5306SOL     OW26846   3.782   9.270   2.223 -0.1488 -0.0778  0.1746
 5306SOL    HW126847   3.719   9.296   2.151 -0.0337  1.3810  0.5895
 5306SOL    HW226848   3.833   9.189   2.195 -0.9296 -0.2099 -0.8881
 5307SOL     OW26849   8.892   8.439   1.819  0.7373  0.0305 -0.7651
 5307SOL    HW126850   8.872   8.375   1.745  2.0588 -1.7639  0.3645
 5307SOL    HW226851   8.887   8.533   1.785 -3.3234 -0.5239 -1.9922
 5308SOL     OW26852   8.991   9.679   4.698 -0.9392  1.0063  0.5193
 5308SOL    HW126853   8.996   9.756   4.636 -0.5689 -0.8202 -1.7926
 5308SOL    HW226854   8.932   9.608   4.659 -0.8577 -0.0994  2.3378
 5309SOL     OW26855   1.178   0.306   2.679  0.4127  0.4765  0.2339
 5309SOL    HW126856   1.110   0.375   2.657 -0.7508 -1.2337 -1.7125
 5309SOL    HW226857   1.263   0.327   2.631  0.0038  0.4370 -0.5025
 5310SOL     OW26858   4.872   0.913   1.554  0.6601 -0.6976  0.0560
 5310SOL    HW126859   4.915   0.843   1.611  1.4954 -0.9698 -0.9004
 5310SOL    HW226860   4.773   0.908   1.564  0.7872 -0.9251  1.2685
 5311SOL     OW26861   6.706   8.034   1.650 -0.1779  0.4991  0.5247
 5311SOL    HW126862   6.777   7.977   1.691 -0.7487 -0.1669  0.6075
 5311SOL    HW226863   6.647   7.978   1.593 -1.1313  0.8777  1.1119
 5312SOL     OW26864   9.927   0.903   3.866 -0.3783 -0.0686 -0.1386
 5312SOL    HW126865  10.005   0.965   3.878  0.5399 -1.1216 -0.6407
 5312SOL    HW226866   9.886   0.884   3.955 -0.7074  1.2944  0.0209
 5313SOL     OW26867   0.766   5.950   3.848  0.0270 -0.7953  0.4127
 5313SOL    HW126868   0.717   5.887   3.908 -0.7505  0.1718  0.7945
 5313SOL    HW226869   0.864   5.943   3.866 -0.0860 -1.5792  0.7535
 5314SOL     OW26870   9.349   5.584   3.882 -0.0979  0.1425  0.1370
 5314SOL    HW126871   9.388   5.667   3.923  0.0387  0.2486 -0.2113
 5314SOL    HW226872   9.250   5.592   3.877 -0.0499  0.4507 -0.2749
 5315SOL     OW26873   1.882   4.900   3.768  0.1295 -0.4087  0.5462
 5315SOL    HW126874   1.899   4.914   3.865 -0.4884  0.0212  0.5987
 5315SOL    HW226875   1.950   4.949   3.714 -0.6140  0.8750  0.7516
 5316SOL     OW26876   1.451   8.992   3.797  0.5882  0.0155  0.1658
 5316SOL    HW126877   1.367   9.046   3.801  1.7605  1.8479  0.2267
 5316SOL    HW226878   1.507   9.010   3.878  1.4152 -0.5992 -0.2558
 5317SOL     OW26879   0.620   8.215   1.905 -0.0849 -0.5357  0.0599
 5317SOL    HW126880   0.550   8.222   1.976 -0.7352 -3.4019 -0.2218
 5317SOL    HW226881   0.710   8.204   1.947 -0.2446 -0.4357  0.4258
 5318SOL     OW26882   0.741   0.585   1.641  0.0691 -0.3038 -0.6191
 5318SOL    HW126883   0.773   0.662   1.697  2.7178 -1.4874 -0.4430
 5318SOL    HW226884   0.735   0.615   1.545 -0.3962  0.5591 -0.3238
 5319SOL     OW26885   1.779   1.236   0.711  0.0643 -0.0879 -0.2312
 5319SOL    HW126886   1.703   1.301   0.716  0.6927  0.6966 -0.8849
 5319SOL    HW226887   1.766   1.165   0.780 -0.6092  0.7451  0.5130
 5320SOL     OW26888   7.475   6.624   3.385  0.1702 -0.1405 -0.0141
 5320SOL    HW126889   7.409   6.560   3.423 -0.3519  1.2454  1.4700
 5320SOL    HW226890   7.446   6.718   3.405  1.1493  0.5621 -1.7618
 5321SOL     OW26891   7.813   4.742   0.478 -0.0367 -0.8243 -0.3336
 5321SOL    HW126892   7.888   4.720   0.416 -0.3211 -2.4936 -0.0930
 5321SOL    HW226893   7.837   4.823   0.531  1.1316 -0.6950 -1.0314
 5322SOL     OW26894   9.472   4.597   3.183 -0.0144 -0.0665 -0.2280
 5322SOL    HW126895   9.539   4.671   3.175  1.2990 -1.0764  1.0408
 5322SOL    HW226896   9.516   4.510   3.162 -1.0684 -0.6842  0.1089
 5323SOL     OW26897   8.517   7.413   1.921 -0.2140  0.4229 -0.4111
 5323SOL    HW126898   8.440   7.471   1.948  0.9105  0.4978  2.9192
 5323SOL    HW226899   8.603   7.460   1.939  0.6683 -1.0240 -0.7256
 5324SOL     OW26900   1.757   2.083   1.011 -0.3473 -0.9526  0.4207
 5324SOL    HW126901   1.678   2.022   1.017 -0.9765 -0.1052  0.7075
 5324SOL    HW226902   1.805   2.085   1.098 -1.0065 -0.1138  0.7611
 5325SOL     OW26903   2.209   0.757   2.514  0.1762  0.3831  0.2956
 5325SOL    HW126904   2.277   0.741   2.442  1.0014  1.3368  0.8412
 5325SOL    HW226905   2.201   0.675   2.571  1.0889  0.3499  0.3921
 5326SOL     OW26906   3.174   8.320   1.801  0.5659  0.0510  0.1050
 5326SOL    HW126907   3.132   8.369   1.877 -0.7940 -0.8219 -0.0585
 5326SOL    HW226908   3.116   8.328   1.720  0.0957 -2.1721  0.1931
 5327SOL     OW26909   3.242   0.654   3.943 -0.3251 -0.4982 -0.3135
 5327SOL    HW126910   3.210   0.643   4.037 -1.0535 -1.5197 -0.6743
 5327SOL    HW226911   3.331   0.699   3.943 -1.5316  1.9406  0.7163
 5328SOL     OW26912   3.267   6.805   2.263 -0.6132  0.0612 -0.4369
 5328SOL    HW126913   3.240   6.790   2.359 -0.7105  0.3181 -0.4233
 5328SOL    HW226914   3.214   6.746   2.204 -0.7819  0.1327 -0.3579
 5329SOL     OW26915   0.685   5.297   0.443  0.4803  0.0610 -0.1640
 5329SOL    HW126916   0.770   5.253   0.414  1.7192  1.5179  1.1291
 5329SOL    HW226917   0.608   5.257   0.394  1.9437 -1.0713 -1.5921
 5330SOL     OW26918   8.879   0.655   0.258  0.0432 -0.3646  0.3252
 5330SOL    HW126919   8.967   0.654   0.305  0.2432 -0.9337 -0.0465
 5330SOL    HW226920   8.894   0.667   0.159 -0.2003 -1.9943  0.0805
 5331SOL     OW26921   1.286   2.550   0.076  0.2467  0.4746 -0.1275
 5331SOL    HW126922   1.335   2.463   0.082 -1.7016 -0.5601  1.3100
 5331SOL    HW226923   1.317   2.611   0.149  0.7612  0.5340 -0.3973
 5332SOL     OW26924   2.509   0.060   3.129 -0.5465 -0.2995  0.1280
 5332SOL    HW126925   2.567   0.139   3.147 -0.1635 -0.6240  0.3251
 5332SOL    HW226926   2.500   0.005   3.212  2.5847 -2.7058 -1.0117
 5333SOL     OW26927   3.251   6.059   4.038  0.0005 -0.7435  0.0846
 5333SOL    HW126928   3.156   6.046   4.063  0.1319  0.3923  1.2103
 5333SOL    HW226929   3.294   6.124   4.100  1.2846 -0.5777 -0.9372
 5334SOL     OW26930   8.440   4.060   0.634 -0.1073  0.0410 -0.0764
 5334SOL    HW126931   8.420   4.074   0.731  0.3592  0.4971 -0.0426
 5334SOL    HW226932   8.539   4.061   0.620 -0.1858  0.4661 -0.6263
 5335SOL     OW26933   7.735   0.849   2.303  0.1056 -0.1316  0.2294
 5335SOL    HW126934   7.783   0.787   2.366  0.3538  1.4528  1.6248
 5335SOL    HW226935   7.771   0.835   2.211  1.2844 -0.9580  0.7845
 5336SOL     OW26936   9.621   6.205   5.589 -0.2539 -0.5197 -0.1425
 5336SOL    HW126937   9.638   6.294   5.548 -2.3461  0.0660  0.2039
 5336SOL    HW226938   9.621   6.135   5.518 -2.7153  0.3318 -1.0108
 5337SOL     OW26939   9.971   3.888   1.767 -0.1311 -0.1821 -0.0614
 5337SOL    HW126940   9.991   3.977   1.809  3.3509 -1.2152  0.6570
 5337SOL    HW226941   9.932   3.903   1.676 -0.6884  2.0888  0.5064
 5338SOL     OW26942   9.105   2.266   3.580  0.2816 -0.7688 -0.2250
 5338SOL    HW126943   9.176   2.330   3.548  0.2739  0.1860  1.5736
 5338SOL    HW226944   9.044   2.244   3.505 -1.0475  3.1127 -0.3987
 5339SOL     OW26945   0.686   9.451   4.799  0.0678  0.5882 -0.2036
 5339SOL    HW126946   0.783   9.425   4.791  0.3522  1.6024 -0.0448
 5339SOL    HW226947   0.631   9.391   4.741  0.7472 -0.2583  0.0179
 5340SOL     OW26948   7.762   7.124   2.362  0.1257  0.1401  0.8139
 5340SOL    HW126949   7.755   7.129   2.462  1.3568  0.2194  0.9014
 5340SOL    HW226950   7.793   7.212   2.327 -3.0457  1.0182  0.0945
 5341SOL     OW26951   6.488   8.952   2.447 -0.4615 -0.4577 -0.0827
 5341SOL    HW126952   6.442   8.871   2.482 -0.0032 -1.0495 -0.8490
 5341SOL    HW226953   6.461   8.968   2.352 -1.3327  0.8754  0.3775
 5342SOL     OW26954   9.818   8.672   2.352  0.6228  0.7456  0.2186
 5342SOL    HW126955   9.719   8.664   2.357  0.5614  1.0313 -0.5254
 5342SOL    HW226956   9.856   8.590   2.308  0.7052  0.6948  0.3834
 5343SOL     OW26957   3.362   1.542   3.093  0.6024 -0.7568 -0.1420
 5343SOL    HW126958   3.328   1.561   3.185 -2.2567  1.3463 -1.5698
 5343SOL    HW226959   3.386   1.628   3.047 -1.0468 -1.5054 -2.4790
 5344SOL     OW26960   0.884   8.300   3.274 -0.5933 -0.0791  0.2379
 5344SOL    HW126961   0.799   8.299   3.222 -1.3192  1.9002  1.3323
 5344SOL    HW226962   0.865   8.275   3.369  0.1593 -0.2737  0.3438
 5345SOL     OW26963   4.507   8.495   4.415  0.3051 -0.5424  0.5362
 5345SOL    HW126964   4.409   8.502   4.399  0.2497 -1.5648  0.4075
 5345SOL    HW226965   4.529   8.405   4.451  1.2452 -0.4377  0.2411
 5346SOL     OW26966   9.319   1.445   1.598 -0.1747 -0.4340 -0.0202
 5346SOL    HW126967   9.301   1.423   1.502  1.0428 -0.5793 -0.2171
 5346SOL    HW226968   9.302   1.543   1.613 -0.4453 -0.4265 -0.3638
 5347SOL     OW26969   0.217   1.070   4.181  0.1451  0.1203  0.2938
 5347SOL    HW126970   0.239   1.032   4.091  0.8573 -0.4432  0.6989
 5347SOL    HW226971   0.144   1.016   4.223  0.4641 -0.1997  0.4448
 5348SOL     OW26972   3.108   8.698   1.427  0.1612  0.1114  0.2197
 5348SOL    HW126973   3.012   8.671   1.426 -0.1250  1.1377 -0.3174
 5348SOL    HW226974   3.120   8.775   1.490  0.4007  0.8206 -0.6892
 5349SOL     OW26975   3.016   3.070   1.033 -0.2336  0.0308 -0.2530
 5349SOL    HW126976   2.931   3.123   1.037  0.6650  1.5026 -0.2128
 5349SOL    HW226977   3.091   3.130   1.006  0.6932 -1.3959 -0.9095
 5350SOL     OW26978   1.002   4.220   1.405  0.6042 -0.6844  0.5626
 5350SOL    HW126979   0.929   4.240   1.340 -0.8765 -3.5356  1.2422
 5350SOL    HW226980   0.962   4.198   1.494  2.4422  0.1716  1.6298
 5351SOL     OW26981   3.266   8.047   2.135 -0.1661  0.3509 -0.0291
 5351SOL    HW126982   3.348   8.031   2.190  0.4916  1.4603 -0.6595
 5351SOL    HW226983   3.251   8.145   2.127 -1.5577  0.1483  0.0661
 5352SOL     OW26984   9.966   8.652   4.916 -0.3447 -0.1489 -0.0280
 5352SOL    HW126985   9.998   8.614   5.003  1.8432 -2.0619 -1.6056
 5352SOL    HW226986   9.930   8.744   4.931  1.8674  0.3620  2.5765
 5353SOL     OW26987   8.018   0.917   0.497 -0.7449  0.1821  0.4438
 5353SOL    HW126988   8.022   0.817   0.508 -1.2611  0.2036  0.8199
 5353SOL    HW226989   7.988   0.939   0.404 -0.8192 -0.0101  0.4219
 5354SOL     OW26990   1.334   1.004   0.930 -0.3873  0.0307 -0.0342
 5354SOL    HW126991   1.265   1.066   0.893  0.2719  1.1796  0.6177
 5354SOL    HW226992   1.385   0.963   0.854 -0.5019  0.6687 -0.4655
 5355SOL     OW26993   2.857   2.640   2.308 -0.1903 -1.0111  0.2637
 5355SOL    HW126994   2.902   2.728   2.292  0.5786 -1.5817 -0.7925
 5355SOL    HW226995   2.763   2.645   2.273 -0.2390 -0.5169  0.4600
 5356SOL     OW26996   0.079   6.639   1.249 -0.1170 -0.1701 -0.3654
 5356SOL    HW126997   0.158   6.583   1.223 -0.2269 -1.1123  1.2218
 5356SOL    HW226998   0.110   6.726   1.286  0.0939  0.3996 -1.8640
 5357SOL     OW26999   1.593   4.188   0.351 -0.9811  0.2285  0.0389
 5357SOL    HW127000   1.530   4.113   0.374 -1.6713  1.1236  1.1229
 5357SOL    HW227001   1.590   4.257   0.423  2.3249 -0.3918  0.8476
 5358SOL     OW27002   4.048   7.588   5.069  0.3755  0.5147  0.2211
 5358SOL    HW127003   4.082   7.680   5.055  1.2628  0.4443  1.8466
 5358SOL    HW227004   3.950   7.585   5.050  0.0377  2.1448  1.6576
 5359SOL     OW27005   2.574   0.807   5.280 -0.1346  0.5350  0.0538
 5359SOL    HW127006   2.540   0.763   5.197 -0.1694 -0.2221  0.4731
 5359SOL    HW227007   2.502   0.868   5.316  0.2206  1.6048 -0.9906
 5360SOL     OW27008   5.290   9.274   3.343  0.5029  0.3596  0.2190
 5360SOL    HW127009   5.255   9.218   3.268  3.5613 -2.1896  0.5976
 5360SOL    HW227010   5.251   9.243   3.430 -0.3666  1.0592  0.0915
 5361SOL     OW27011   3.634   6.734   4.281 -0.0817 -0.5051  0.2055
 5361SOL    HW127012   3.536   6.748   4.264 -0.0286  1.2828  1.2560
 5361SOL    HW227013   3.678   6.704   4.196 -0.6584  3.5125 -1.6175
 5362SOL     OW27014   9.123   5.777   4.854  0.1752  0.1971  0.0016
 5362SOL    HW127015   9.043   5.726   4.883 -0.7161  1.8527  0.4942
 5362SOL    HW227016   9.192   5.713   4.818 -0.4851 -1.4364  1.5464
 5363SOL     OW27017   0.565   2.651   2.834  0.8517 -0.0320  0.3149
 5363SOL    HW127018   0.623   2.704   2.773  0.9121 -1.1163 -0.5939
 5363SOL    HW227019   0.487   2.706   2.863  1.2078  0.7249 -0.1487
 5364SOL     OW27020   3.583   8.016   3.081  0.3879 -0.8152  0.6782
 5364SOL    HW127021   3.497   7.967   3.069  0.6450 -0.9747 -0.6373
 5364SOL    HW227022   3.624   8.033   2.991  1.4539 -0.2563  1.2626
 5365SOL     OW27023   2.435   3.079   5.512  0.1365 -0.2636  0.2739
 5365SOL    HW127024   2.461   3.160   5.461  0.9482 -0.2213  0.7507
 5365SOL    HW227025   2.375   3.105   5.589 -0.3466 -0.2258 -0.1136
 5366SOL     OW27026   3.147   4.085   2.202  0.4295  0.2880  0.2239
 5366SOL    HW127027   3.226   4.070   2.143  0.1931 -1.1272  0.2484
 5366SOL    HW227028   3.112   3.996   2.234 -2.2751  0.7453 -1.2670
 5367SOL     OW27029   7.853   1.074   0.633 -0.2359 -0.2614 -0.7099
 5367SOL    HW127030   7.773   1.015   0.627 -0.0153 -0.4978 -1.3247
 5367SOL    HW227031   7.930   1.030   0.588  0.0033  0.3802 -0.9270
 5368SOL     OW27032   4.391   1.287   1.096 -0.4486 -0.1818 -0.0320
 5368SOL    HW127033   4.394   1.284   0.996 -0.5603 -1.9063 -0.0066
 5368SOL    HW227034   4.307   1.243   1.127 -1.5593  2.4597  0.7596
 5369SOL     OW27035   6.583   0.828   1.851  0.0659 -0.2335  0.3014
 5369SOL    HW127036   6.609   0.896   1.920 -0.1449  0.1316  0.0234
 5369SOL    HW227037   6.658   0.762   1.839  0.5010  0.2822  0.1603
 5370SOL     OW27038   8.154   9.830   0.124  0.4048  0.1029 -0.2690
 5370SOL    HW127039   8.217   9.901   0.092  0.4311  0.6096  0.8845
 5370SOL    HW227040   8.157   9.825   0.224 -2.3803  1.0822 -0.0782
 5371SOL     OW27041   1.798   8.998   2.851 -0.2540  0.2812  0.6145
 5371SOL    HW127042   1.819   9.084   2.806 -0.3794 -1.0910 -2.1942
 5371SOL    HW227043   1.717   9.009   2.909 -0.6468  1.8781 -0.2243
 5372SOL     OW27044   3.841   5.307   2.557 -0.6867 -0.2040 -0.4333
 5372SOL    HW127045   3.768   5.339   2.617  0.0195 -2.1428  1.5470
 5372SOL    HW227046   3.827   5.210   2.536  0.6078 -0.2676 -1.0617
 5373SOL     OW27047   3.516   0.806   3.413  0.2065 -0.0180  0.5973
 5373SOL    HW127048   3.441   0.819   3.348  1.8337  0.8183 -1.1571
 5373SOL    HW227049   3.536   0.708   3.421  0.9432 -0.0556 -1.3212
 5374SOL     OW27050   8.470   4.051   0.060 -0.3154  0.4388  0.1986
 5374SOL    HW127051   8.568   4.048   0.038 -0.3463 -0.3915  0.1610
 5374SOL    HW227052   8.459   4.060   0.159 -0.2042 -2.6853  0.5269
 5375SOL     OW27053   2.154   1.302   5.295  0.5341  0.7145 -0.2704
 5375SOL    HW127054   2.186   1.345   5.379  0.7363  1.0956 -0.5399
 5375SOL    HW227055   2.075   1.352   5.259 -0.0918  0.0436  0.1485
 5376SOL     OW27056   2.976   9.699   2.645  0.0381 -0.2112  0.0792
 5376SOL    HW127057   2.910   9.627   2.666 -0.4057  0.0096 -0.5286
 5376SOL    HW227058   2.954   9.739   2.556  1.8324 -1.1009 -0.7798
 5377SOL     OW27059   9.039   5.731   5.260 -0.7609 -0.3472  0.1929
 5377SOL    HW127060   9.008   5.694   5.173 -1.6422  0.5984  0.0861
 5377SOL    HW227061   9.059   5.829   5.250  1.0933 -0.6692  0.5722
 5378SOL     OW27062   2.880   9.182   0.141  0.2695 -0.2569  0.4529
 5378SOL    HW127063   2.968   9.135   0.149  0.6805  0.3271 -0.5850
 5378SOL    HW227064   2.863   9.206   0.046 -0.5822  0.4645  0.7763
 5379SOL     OW27065   9.322   6.734   0.725  0.5005 -0.9039 -0.5508
 5379SOL    HW127066   9.323   6.637   0.704  1.2345 -0.9822 -0.1696
 5379SOL    HW227067   9.414   6.772   0.712  0.2377 -0.2825 -0.6186
 5380SOL     OW27068   7.182   9.807   4.763  0.4019  0.0353  0.5639
 5380SOL    HW127069   7.179   9.836   4.859 -1.5907  3.3483 -0.4351
 5380SOL    HW227070   7.119   9.730   4.750  1.4768 -1.1511  2.0777
 5381SOL     OW27071   4.927   9.379   4.313  0.2343  0.0301  0.1149
 5381SOL    HW127072   4.868   9.423   4.380 -0.3672 -0.9648  0.2508
 5381SOL    HW227073   4.930   9.435   4.230  0.2965  0.8314  0.6518
 5382SOL     OW27074   4.934   7.513   3.306 -0.1644  0.3302  0.1824
 5382SOL    HW127075   4.855   7.462   3.341 -0.8546  1.9407  1.0235
 5382SOL    HW227076   4.998   7.530   3.380  0.6349 -0.3377 -0.3511
 5383SOL     OW27077   5.684   8.471   2.416 -0.0960  0.1161 -0.4862
 5383SOL    HW127078   5.614   8.406   2.445 -0.5960  0.1244 -1.6551
 5383SOL    HW227079   5.645   8.536   2.352  1.0338 -0.0238 -1.3386
 5384SOL     OW27080   5.600   0.486   4.387 -0.6413  0.0746 -0.1700
 5384SOL    HW127081   5.529   0.427   4.424 -0.2721 -0.0790  0.3158
 5384SOL    HW227082   5.616   0.464   4.291  0.9888 -2.1105  0.5581
 5385SOL     OW27083   3.660   0.211   1.036 -0.9555  0.1327  0.0166
 5385SOL    HW127084   3.683   0.226   1.132 -0.8216 -1.5078  0.2518
 5385SOL    HW227085   3.565   0.179   1.029 -0.8931  0.0309 -0.3804
 5386SOL     OW27086   8.450   5.456   4.859  0.1192 -0.2302 -0.2667
 5386SOL    HW127087   8.378   5.452   4.791  0.2425 -3.1934 -0.2873
 5386SOL    HW227088   8.539   5.455   4.814  0.1992 -1.9783 -0.0993
 5387SOL     OW27089   0.632   2.420   1.087  0.5559 -0.2282  0.0446
 5387SOL    HW127090   0.568   2.364   1.033  1.5102 -0.0727 -1.2458
 5387SOL    HW227091   0.689   2.474   1.027  0.7391  0.9632  1.2580
 5388SOL     OW27092   8.925   1.100   2.296 -0.4487  0.4387  0.2202
 5388SOL    HW127093   8.847   1.057   2.249  0.5532 -0.3183 -0.7784
 5388SOL    HW227094   8.927   1.070   2.391 -1.4716  0.5817  0.2892
 5389SOL     OW27095   2.494   2.337   1.048 -0.3239  0.2407  0.0276
 5389SOL    HW127096   2.583   2.304   1.016  0.5523  1.9411  0.6707
 5389SOL    HW227097   2.437   2.362   0.969 -0.1779 -0.6977 -0.3763
 5390SOL     OW27098   0.382   8.740   2.678 -0.1778 -0.2949  0.4242
 5390SOL    HW127099   0.373   8.806   2.753 -0.0073 -1.1413  1.2134
 5390SOL    HW227100   0.424   8.784   2.599  0.3510  0.4261  1.0978
 5391SOL     OW27101   1.125   0.431   3.935  0.1466  0.1649 -0.2235
 5391SOL    HW127102   1.205   0.398   3.984 -0.7279  0.7373  1.6056
 5391SOL    HW227103   1.150   0.515   3.885  0.8561 -0.0373 -0.2180
 5392SOL     OW27104   7.823   6.545   2.870 -0.5375 -0.4734  0.4413
 5392SOL    HW127105   7.741   6.521   2.818  0.5059 -1.1720 -0.8964
 5392SOL    HW227106   7.904   6.525   2.816  0.5161  0.6966  1.5588
 5393SOL     OW27107   2.126   3.741   0.450  0.5277 -0.2050 -0.2469
 5393SOL    HW127108   2.045   3.744   0.391  1.2956 -1.2974 -1.3966
 5393SOL    HW227109   2.183   3.821   0.433  0.6241 -0.3913 -0.8408
 5394SOL     OW27110   5.957   8.732   2.589 -0.2636 -0.1060 -0.0160
 5394SOL    HW127111   6.006   8.784   2.519 -1.3255  0.8051 -0.1151
 5394SOL    HW227112   5.862   8.720   2.560 -0.0849 -1.9646  0.1019
 5395SOL     OW27113   9.025   5.946   3.625  0.2448 -0.1900  0.0386
 5395SOL    HW127114   9.101   5.935   3.560 -0.0908  2.0557 -0.7904
 5395SOL    HW227115   8.946   5.984   3.577  0.1013  1.8420  1.7980
 5396SOL     OW27116   8.105   6.987   1.492  0.5400 -0.0714 -0.7602
 5396SOL    HW127117   8.154   6.935   1.562 -0.0828 -0.0425 -0.2982
 5396SOL    HW227118   8.105   6.935   1.406 -1.0437 -1.3592 -0.0019
 5397SOL     OW27119   3.654   6.197   2.339 -0.0273 -0.3954  0.3192
 5397SOL    HW127120   3.738   6.249   2.357 -0.9162  1.3596 -0.4160
 5397SOL    HW227121   3.670   6.133   2.265  0.3006  0.9368 -0.7903
 5398SOL     OW27122   3.279   1.142   0.796  0.0514  0.1758  0.1192
 5398SOL    HW127123   3.336   1.225   0.798  0.2930  0.0096  0.1537
 5398SOL    HW227124   3.185   1.167   0.774  0.3267  0.3478 -0.9172
 5399SOL     OW27125   8.414   4.072   4.655 -0.5857 -0.3420 -0.1916
 5399SOL    HW127126   8.333   4.128   4.671 -0.5051  0.1599 -1.4973
 5399SOL    HW227127   8.408   4.031   4.565  0.0920 -1.2094  0.1543
 5400SOL     OW27128   7.082   9.620   3.570  0.1467 -0.0873  0.2077
 5400SOL    HW127129   7.087   9.614   3.470 -0.2193 -0.3635  0.2021
 5400SOL    HW227130   7.111   9.711   3.600  1.6685 -0.4837 -0.0432
 5401SOL     OW27131   0.590   3.380   2.578  0.0907 -0.5763 -0.3831
 5401SOL    HW127132   0.634   3.466   2.604  0.3544 -0.3274 -1.6163
 5401SOL    HW227133   0.659   3.309   2.567 -0.2417 -1.2409  1.7485
 5402SOL     OW27134   9.493   0.832   2.154  0.0121  0.6495  0.6361
 5402SOL    HW127135   9.421   0.867   2.215 -0.0433 -0.7132  1.3750
 5402SOL    HW227136   9.512   0.737   2.176  0.6160  0.3890 -0.9200
 5403SOL     OW27137   4.022   0.961   5.588  0.3815  0.0337  0.1093
 5403SOL    HW127138   3.963   0.893   5.545  0.6969  0.2643 -0.6935
 5403SOL    HW227139   4.040   0.934   5.682  2.4102 -2.2583 -0.8838
 5404SOL     OW27140   9.943   4.527   0.047  0.8499 -0.6815 -0.0066
 5404SOL    HW127141   9.912   4.475  -0.032 -1.2142  0.0862  0.2623
 5404SOL    HW227142   9.916   4.623   0.036  0.5539 -0.5730  1.6152
 5405SOL     OW27143   1.574   9.570   0.365 -0.3411  0.0194 -0.1195
 5405SOL    HW127144   1.544   9.541   0.274  0.2667  0.7875 -0.5688
 5405SOL    HW227145   1.629   9.497   0.407  0.2718  0.0809 -0.8025
 5406SOL     OW27146   9.373   6.651   4.480 -0.8263 -1.0883  0.0592
 5406SOL    HW127147   9.443   6.674   4.413 -1.6818  0.0528 -0.4806
 5406SOL    HW227148   9.415   6.623   4.565  0.2981  0.3065 -0.0145
 5407SOL     OW27149   2.638   2.533   4.042 -0.1752 -0.1706  0.5099
 5407SOL    HW127150   2.693   2.515   4.124 -0.1335 -2.4013  0.0321
 5407SOL    HW227151   2.572   2.459   4.030  0.1435 -0.1136 -1.7303
 5408SOL     OW27152   8.991   4.629   0.164 -0.3826  0.3204  0.3170
 5408SOL    HW127153   9.071   4.654   0.219  0.5708  2.2288 -1.8436
 5408SOL    HW227154   9.020   4.569   0.089 -1.4901 -1.4093  1.2470
 5409SOL     OW27155   3.250   0.001   4.214  0.0611 -0.1409  0.1947
 5409SOL    HW127156   3.213   0.092   4.194 -0.9347 -0.5717  0.0635
 5409SOL    HW227157   3.317   0.008   4.288 -0.6799  0.5783  0.8113
 5410SOL     OW27158   4.701   8.406   3.599 -0.0102 -0.3740 -0.4537
 5410SOL    HW127159   4.636   8.349   3.650 -0.5183 -0.1931 -0.8975
 5410SOL    HW227160   4.734   8.355   3.520 -1.1473  0.2576 -1.3596
 5411SOL     OW27161   9.645   5.524   1.427 -0.2497 -0.1776 -0.0855
 5411SOL    HW127162   9.720   5.469   1.463 -0.3807 -0.9627 -0.9619
 5411SOL    HW227163   9.591   5.468   1.364 -0.3962  0.9585 -0.9825
 5412SOL     OW27164   6.415   0.967   3.605  0.5337  0.3772 -0.3900
 5412SOL    HW127165   6.382   0.949   3.512 -0.1596 -0.5715  0.0413
 5412SOL    HW227166   6.423   1.066   3.618 -0.0691  0.5450 -1.2246
 5413SOL     OW27167   2.774   2.299   4.437 -0.1867 -0.5715  0.4412
 5413SOL    HW127168   2.873   2.291   4.445 -0.2303 -0.8285  0.7372
 5413SOL    HW227169   2.751   2.357   4.359  0.2124  0.0547  0.7844
 5414SOL     OW27170   8.002   6.276   3.001 -0.3633 -0.6289 -0.5741
 5414SOL    HW127171   7.958   6.212   2.937 -2.2758 -1.1716  1.2199
 5414SOL    HW227172   7.932   6.330   3.047  1.1894  2.3441 -1.5509
 5415SOL     OW27173   9.995   5.509   4.881  0.5623 -0.0815 -0.0151
 5415SOL    HW127174  10.073   5.572   4.881  0.8083 -0.3861  0.2830
 5415SOL    HW227175   9.930   5.538   4.810  0.6465  0.5349  0.1522
 5416SOL     OW27176   2.933   4.483   0.766  0.2232  0.0141 -0.4135
 5416SOL    HW127177   2.998   4.543   0.813  2.1233 -1.2554 -1.3629
 5416SOL    HW227178   2.858   4.538   0.729 -0.1054  1.3163  2.0397
 5417SOL     OW27179   7.681   0.112   4.630  0.4762  0.3577 -0.0841
 5417SOL    HW127180   7.708   0.191   4.685  0.2769  1.1024 -1.0265
 5417SOL    HW227181   7.746   0.038   4.643  0.2165  0.3785  1.4484
 5418SOL     OW27182   2.030   7.546   1.655 -0.0017  0.2670 -0.7370
 5418SOL    HW127183   2.117   7.561   1.702 -1.3960 -1.2233  2.4735
 5418SOL    HW227184   1.975   7.630   1.657 -1.6372 -0.7786  3.9089
 5419SOL     OW27185   4.165   2.513   5.074  0.1682  0.1553  0.4817
 5419SOL    HW127186   4.215   2.586   5.122 -0.0432  1.5271 -1.3280
 5419SOL    HW227187   4.077   2.498   5.119  0.7539  0.1235  1.6349
 5420SOL     OW27188   0.212   2.696   1.947  0.0179 -0.3119 -0.4910
 5420SOL    HW127189   0.297   2.738   1.917  0.0813  1.4381  2.0484
 5420SOL    HW227190   0.219   2.596   1.939  2.4208 -0.1939  0.0615
 5421SOL     OW27191   4.228   8.046   0.059 -0.1584  0.4151 -0.5613
 5421SOL    HW127192   4.186   8.009   0.142  0.3098 -1.8642 -1.3320
 5421SOL    HW227193   4.323   8.071   0.079  0.3152 -1.2527 -0.7225
 5422SOL     OW27194   2.220   5.764   1.486 -0.3972 -0.3395 -0.4363
 5422SOL    HW127195   2.166   5.696   1.436  0.2984 -1.7773  0.7261
 5422SOL    HW227196   2.165   5.800   1.562 -1.3396  1.6112 -1.9926
 5423SOL     OW27197   2.628   4.916   5.207 -0.1923  0.6426  0.0457
 5423SOL    HW127198   2.605   4.845   5.141  0.4564  0.8183 -0.3778
 5423SOL    HW227199   2.710   4.889   5.258  0.6968  1.5475 -0.8670
 5424SOL     OW27200   9.604   7.088   3.141  0.3259 -0.3889 -0.1723
 5424SOL    HW127201   9.545   7.027   3.088 -1.1505  1.7238 -1.0578
 5424SOL    HW227202   9.587   7.182   3.113  2.1583  0.4906  1.5460
 5425SOL     OW27203   9.187   1.246   5.054 -0.2386  0.1119  0.2317
 5425SOL    HW127204   9.226   1.263   4.964  0.2442 -0.3585  0.3442
 5425SOL    HW227205   9.091   1.271   5.055 -0.2240  0.1869 -0.3903
 5426SOL     OW27206   7.742   7.094   3.749 -0.4084 -0.0812  0.0210
 5426SOL    HW127207   7.765   7.050   3.836  2.1803  0.4815 -0.3450
 5426SOL    HW227208   7.723   7.191   3.765  1.3882  0.3190 -0.2052
 5427SOL     OW27209   3.759   1.247   0.265  0.2382  0.5057 -0.2036
 5427SOL    HW127210   3.831   1.311   0.292  0.5831 -0.1934  0.5366
 5427SOL    HW227211   3.678   1.260   0.323  1.4900 -1.9812  2.2171
 5428SOL     OW27212   9.873   5.844   1.628  0.2479  0.1182  0.0040
 5428SOL    HW127213   9.820   5.927   1.646  0.2787  0.3675 -0.9892
 5428SOL    HW227214   9.895   5.840   1.530  1.8840 -0.0766  0.3682
 5429SOL     OW27215   3.200   3.282   0.919  0.0850  0.1216  0.5023
 5429SOL    HW127216   3.111   3.317   0.890  0.0699  0.4565  0.9519
 5429SOL    HW227217   3.230   3.329   1.002  0.3223 -0.5340  0.7981
 5430SOL     OW27218   0.207   1.530   0.254  0.7045 -0.1573 -0.4406
 5430SOL    HW127219   0.224   1.479   0.338  1.8983 -0.7090 -1.0125
 5430SOL    HW227220   0.290   1.532   0.199  0.2178  1.0747 -1.1429
 5431SOL     OW27221   9.124   6.675   0.483 -0.5838 -0.7330 -0.6536
 5431SOL    HW127222   9.035   6.704   0.448  0.3413  0.6348 -1.9374
 5431SOL    HW227223   9.121   6.673   0.583 -1.4786  1.2144 -0.6172
 5432SOL     OW27224   4.859   1.840   0.866 -0.4053  0.4401 -0.3997
 5432SOL    HW127225   4.844   1.895   0.948 -0.5680 -1.9234  1.1989
 5432SOL    HW227226   4.772   1.806   0.832 -0.0222 -1.7307  0.7096
 5433SOL     OW27227   6.437   8.789   1.982 -0.0212  0.0371 -0.5499
 5433SOL    HW127228   6.400   8.843   1.907 -0.0623  0.3930 -0.2736
 5433SOL    HW227229   6.524   8.748   1.955  1.6318  2.8480  0.3273
 5434SOL     OW27230   5.372   1.240   3.114  0.4369 -0.0799  0.9303
 5434SOL    HW127231   5.317   1.246   3.197 -0.3879 -0.3137  0.4048
 5434SOL    HW227232   5.458   1.289   3.128  0.1715  0.1457  1.8156
 5435SOL     OW27233   9.027   7.547   2.108  0.3051 -0.0083 -0.0077
 5435SOL    HW127234   8.938   7.516   2.074  0.7672 -0.0216 -1.2335
 5435SOL    HW227235   9.021   7.644   2.133 -0.1995 -0.1572  0.4664
 5436SOL     OW27236   8.737   4.676   2.488 -0.2824 -0.8185  0.3547
 5436SOL    HW127237   8.736   4.765   2.533 -1.5942  0.5349 -2.2654
 5436SOL    HW227238   8.797   4.614   2.539 -0.3827  1.1285  2.9633
 5437SOL     OW27239   8.102   7.312   3.025 -0.3336  0.0874 -0.4203
 5437SOL    HW127240   8.032   7.383   3.015  0.2463  0.6003 -0.8916
 5437SOL    HW227241   8.058   7.226   3.049 -0.9558  0.8457  1.2988
 5438SOL     OW27242   1.921   0.054   5.188  0.7057  0.6514 -0.7106
 5438SOL    HW127243   1.862   0.001   5.249 -0.4413  0.8743 -1.6075
 5438SOL    HW227244   1.899   0.151   5.196  1.0246  0.7461 -0.9637
 5439SOL     OW27245   9.600   8.482   5.514  0.0638  0.5977 -0.3238
 5439SOL    HW127246   9.609   8.421   5.593 -0.7937 -1.5023 -1.7964
 5439SOL    HW227247   9.576   8.574   5.546  0.8040  0.0600  1.9061
 5440SOL     OW27248   2.034   7.782   0.586 -0.1675 -0.2931  0.0378
 5440SOL    HW127249   1.947   7.743   0.556 -0.1978  0.8747 -1.4252
 5440SOL    HW227250   2.063   7.852   0.522  1.1288  0.3602  1.3102
 5441SOL     OW27251   7.524   1.110   2.762  0.1387  0.5552  0.0547
 5441SOL    HW127252   7.454   1.041   2.777  0.0942  0.8493  1.2881
 5441SOL    HW227253   7.602   1.093   2.822 -0.2372  2.0477  1.0123
 5442SOL     OW27254   6.912   8.108   1.459 -0.0330 -0.8609  0.4017
 5442SOL    HW127255   6.846   8.158   1.515 -0.1215  0.9422 -1.2132
 5442SOL    HW227256   6.966   8.174   1.406 -0.8054 -2.4985 -2.5400
 5443SOL     OW27257   8.795   2.236   1.627  0.0843  0.0357  0.1985
 5443SOL    HW127258   8.735   2.288   1.566  1.0444  0.3785 -0.4635
 5443SOL    HW227259   8.854   2.176   1.573  0.0425 -0.6255  0.8711
 5444SOL     OW27260   8.328   7.244   3.646 -0.6896 -0.4476  0.4212
 5444SOL    HW127261   8.373   7.234   3.734 -0.5856  0.2797  0.4508
 5444SOL    HW227262   8.371   7.319   3.594 -0.2886 -1.3264 -0.5318
 5445SOL     OW27263   6.475   0.523   3.035 -0.1307  0.5872 -0.2612
 5445SOL    HW127264   6.574   0.517   3.033 -0.1694 -0.8348  0.7670
 5445SOL    HW227265   6.446   0.616   3.012  1.4317  1.0739 -0.3255
 5446SOL     OW27266   7.345   2.333   3.429 -0.1102 -0.5595 -0.3092
 5446SOL    HW127267   7.322   2.321   3.332 -1.3431 -0.9341  0.0119
 5446SOL    HW227268   7.262   2.322   3.484  0.6101 -0.5112  0.8033
 5447SOL     OW27269   3.347   7.004   4.024  0.6462 -0.0583 -0.3644
 5447SOL    HW127270   3.376   7.007   3.928  1.7103 -1.2094 -0.0868
 5447SOL    HW227271   3.276   7.073   4.039  1.1482  0.7899 -1.7508
 5448SOL     OW27272   2.095   2.706   3.260 -0.4661 -0.4594  0.0106
 5448SOL    HW127273   2.141   2.786   3.300  0.5914 -0.3740 -1.3328
 5448SOL    HW227274   1.998   2.710   3.282 -0.4951  1.4220 -0.3697
 5449SOL     OW27275   6.055   1.639   2.317  0.1070 -0.2853 -0.0672
 5449SOL    HW127276   6.098   1.668   2.403  1.7501 -0.5302 -0.7806
 5449SOL    HW227277   5.983   1.703   2.293  1.7857  1.6347 -0.1538
 5450SOL     OW27278   0.751   7.294   4.852  0.1937 -0.1324  1.0020
 5450SOL    HW127279   0.690   7.349   4.910 -0.1894  1.5404 -0.9565
 5450SOL    HW227280   0.821   7.352   4.812  1.5817 -1.6110  1.1862
 5451SOL     OW27281   8.896   6.656   4.846 -0.1618 -0.2390  0.1644
 5451SOL    HW127282   8.913   6.691   4.938  1.7347 -0.7178  0.0395
 5451SOL    HW227283   8.984   6.642   4.799 -1.1086  0.3070 -1.8378
 5452SOL     OW27284   0.236   7.483   2.279  0.5375  0.6671 -0.0466
 5452SOL    HW127285   0.150   7.528   2.303 -0.8142 -1.6838 -0.3357
 5452SOL    HW227286   0.266   7.426   2.355  0.1744 -0.9422 -1.0722
 5453SOL     OW27287   0.550   8.417   0.007 -0.1913  0.4226 -0.0726
 5453SOL    HW127288   0.471   8.357   0.020 -0.1978  0.2008 -1.1325
 5453SOL    HW227289   0.532   8.505   0.051 -2.0717  1.2604 -2.4598
 5454SOL     OW27290   6.564   9.598   0.984  0.3272  0.0309 -0.6442
 5454SOL    HW127291   6.650   9.604   0.934  1.2219  0.3805  0.9180
 5454SOL    HW227292   6.582   9.584   1.081 -1.3968 -1.9064 -0.5614
 5455SOL     OW27293   4.009   7.032   2.179 -0.2333 -0.2985  0.1231
 5455SOL    HW127294   4.092   6.978   2.167 -0.7296 -1.3650  1.2511
 5455SOL    HW227295   4.032   7.129   2.186  0.8791 -0.5513  0.0775
 5456SOL     OW27296   1.594   2.044   5.034 -0.0157 -0.4132 -0.1292
 5456SOL    HW127297   1.522   2.099   4.993 -1.0186 -0.0241  2.0870
 5456SOL    HW227298   1.636   1.986   4.964 -2.0257 -0.1668 -1.5720
 5457SOL     OW27299   5.044   1.193   0.920  0.3648  0.0257  0.0678
 5457SOL    HW127300   4.947   1.209   0.902  0.7799 -0.0357 -2.4374
 5457SOL    HW227301   5.066   1.219   1.014 -2.0551  0.1032  0.6287
 5458SOL     OW27302   7.976   1.346   1.645 -0.5100 -0.0509  0.1710
 5458SOL    HW127303   7.901   1.385   1.591 -0.5816  0.2342  0.4763
 5458SOL    HW227304   7.959   1.363   1.742 -0.0395  0.0361  0.2379
 5459SOL     OW27305   0.844   7.412   1.375  0.0760 -0.0524 -0.1961
 5459SOL    HW127306   0.904   7.349   1.326 -0.3780 -0.0361 -0.7734
 5459SOL    HW227307   0.754   7.412   1.333 -0.0643  0.6241  0.0966
 5460SOL     OW27308   2.916   0.365   2.021 -0.2576  0.2418  0.3007
 5460SOL    HW127309   2.904   0.373   1.922  2.4943 -0.8715 -0.1734
 5460SOL    HW227310   2.994   0.422   2.049  0.7375 -1.6239  1.3886
 5461SOL     OW27311   2.361   7.202   4.458  0.0168  0.0836 -0.1266
 5461SOL    HW127312   2.429   7.136   4.491  0.4052  0.3693 -0.3518
 5461SOL    HW227313   2.273   7.157   4.448 -0.1313 -0.0001  1.3864
 5462SOL     OW27314   3.093   6.184   1.052  0.0282 -0.2378  0.4537
 5462SOL    HW127315   3.115   6.160   1.146  1.7898 -0.4802 -0.0013
 5462SOL    HW227316   3.057   6.277   1.049  2.7791  0.9127  1.0569
 5463SOL     OW27317   9.299   7.103   2.972 -0.5425 -0.2407 -0.0004
 5463SOL    HW127318   9.246   7.169   2.919  2.2212  1.7962 -0.3310
 5463SOL    HW227319   9.270   7.106   3.068 -2.3767 -0.6416 -0.5145
 5464SOL     OW27320   0.285   3.844   5.456 -0.3796 -0.0301 -0.2535
 5464SOL    HW127321   0.305   3.902   5.376 -2.2865  2.1811  0.8104
 5464SOL    HW227322   0.203   3.790   5.437 -1.1667  0.9200  0.3903
 5465SOL     OW27323   8.004   7.025   1.970 -0.2455 -0.1351  0.1223
 5465SOL    HW127324   7.977   7.079   2.050 -2.4915  2.6793 -2.4362
 5465SOL    HW227325   8.104   7.017   1.968 -0.0164  1.9444  1.8211
 5466SOL     OW27326   9.257   0.234   2.307  0.1797  0.1303  0.3466
 5466SOL    HW127327   9.325   0.222   2.235  0.0081  0.4604  0.1294
 5466SOL    HW227328   9.259   0.328   2.340 -0.7054  0.3443 -0.1971
 5467SOL     OW27329   2.993   5.718   2.898  0.3217  0.2531 -0.7207
 5467SOL    HW127330   2.957   5.626   2.917 -2.2517  1.0478 -1.5659
 5467SOL    HW227331   3.013   5.764   2.985 -0.4240 -0.3224 -0.2391
 5468SOL     OW27332   9.821   7.350   2.979 -0.2137  0.2196 -0.3041
 5468SOL    HW127333   9.834   7.251   2.971  0.1735  0.2005  0.4547
 5468SOL    HW227334   9.903   7.391   3.019 -0.8064  0.6974  0.4408
 5469SOL     OW27335   1.895   6.741   2.961  0.0513  0.0738 -0.0604
 5469SOL    HW127336   1.875   6.830   3.001 -1.2532 -0.2543  0.0516
 5469SOL    HW227337   1.906   6.673   3.033  1.7798  0.2792 -0.1175
 5470SOL     OW27338   1.790   1.424   1.450  0.4127  0.3726  0.4194
 5470SOL    HW127339   1.740   1.510   1.437  1.1089  1.0235  1.8532
 5470SOL    HW227340   1.727   1.347   1.444 -0.7966  1.1819  2.1742
 5471SOL     OW27341   9.974   5.541   1.058 -0.2406  0.0953  0.3385
 5471SOL    HW127342  10.025   5.513   1.139  0.2748 -2.2661 -0.7541
 5471SOL    HW227343   9.958   5.639   1.061  1.6628  0.3824  2.2287
 5472SOL     OW27344   7.694   9.703   2.604 -0.0194  0.2856  0.1379
 5472SOL    HW127345   7.712   9.618   2.655 -0.0724  0.5938  0.6694
 5472SOL    HW227346   7.776   9.728   2.552 -0.4107 -0.7651 -1.0034
 5473SOL     OW27347   7.927   2.720   1.682 -0.5696 -0.1012  0.5151
 5473SOL    HW127348   7.979   2.765   1.610  0.6646 -0.6875  1.0270
 5473SOL    HW227349   7.830   2.722   1.659 -0.3043  0.7961 -0.5630
 5474SOL     OW27350   1.378   1.187   2.017  0.6482  0.6480 -0.4174
 5474SOL    HW127351   1.287   1.228   2.021  0.6841  0.7228 -0.3529
 5474SOL    HW227352   1.447   1.258   2.035  0.7213  0.6034 -0.5212
 5475SOL     OW27353   4.931   7.571   2.473 -0.2491  0.1061 -0.4944
 5475SOL    HW127354   4.934   7.541   2.377 -0.7274  1.3150 -0.9039
 5475SOL    HW227355   4.848   7.624   2.488 -1.8882 -2.8643  1.4646
 5476SOL     OW27356   4.261   3.448   5.404 -0.8721 -0.1696 -0.0037
 5476SOL    HW127357   4.171   3.410   5.427  0.1195 -1.1540  2.3466
 5476SOL    HW227358   4.266   3.543   5.436 -1.9567  0.7865 -2.4646
 5477SOL     OW27359   6.527   8.857   3.366  0.4101  0.0805  0.5625
 5477SOL    HW127360   6.626   8.847   3.353  0.4221  0.6186  0.2204
 5477SOL    HW227361   6.478   8.797   3.303  0.5046  0.5976 -0.0025
 5478SOL     OW27362   3.932   9.103   1.660 -0.1606 -0.5023  0.0048
 5478SOL    HW127363   3.857   9.127   1.722 -0.5754 -2.1931  0.1707
 5478SOL    HW227364   4.014   9.083   1.713  0.2554  0.7391 -0.1480
 5479SOL     OW27365   0.215   4.074   5.620  0.9091  0.2395 -0.2988
 5479SOL    HW127366   0.132   4.130   5.625  0.5136 -0.4711  1.4748
 5479SOL    HW227367   0.212   4.016   5.539  0.6408  1.7064 -1.3528
 5480SOL     OW27368   8.805   6.491   0.071 -0.2892  0.1512  0.6663
 5480SOL    HW127369   8.782   6.438   0.153  0.1072 -0.3267  0.4695
 5480SOL    HW227370   8.882   6.551   0.090 -1.7147  1.8259  1.3560
 5481SOL     OW27371   3.576   0.254   3.781  0.5275  0.6862  0.0966
 5481SOL    HW127372   3.661   0.203   3.798  0.9685  1.7256  1.0372
 5481SOL    HW227373   3.511   0.238   3.855 -0.7762 -1.4630 -1.4598
 5482SOL     OW27374   9.839   3.335   1.734 -0.0559  0.0413 -0.1068
 5482SOL    HW127375   9.870   3.244   1.706  1.4003  0.7328 -0.8315
 5482SOL    HW227376   9.890   3.363   1.815  0.0027  0.4914 -0.2967
 5483SOL     OW27377   0.749   9.144   1.945 -0.3366 -0.3015  0.2795
 5483SOL    HW127378   0.769   9.195   1.862 -0.0149  0.3598  0.7615
 5483SOL    HW227379   0.834   9.117   1.990 -0.5082 -0.6398  0.4064
 5484SOL     OW27380   0.811   4.775   3.994 -0.4759 -0.6934 -0.1065
 5484SOL    HW127381   0.762   4.793   4.079  0.4598 -0.6890  0.4397
 5484SOL    HW227382   0.898   4.824   3.995  0.4200 -2.2570 -0.2218
 5485SOL     OW27383   7.436   0.270   3.321 -0.0160 -0.0710 -0.0105
 5485SOL    HW127384   7.504   0.202   3.292 -1.1298 -0.9571 -0.5876
 5485SOL    HW227385   7.470   0.361   3.300  1.2898 -0.4676  0.3197
 5486SOL     OW27386   2.211   8.314   5.552  0.3164  0.1564 -0.6264
 5486SOL    HW127387   2.179   8.328   5.458 -1.1572 -0.5458 -0.2388
 5486SOL    HW227388   2.159   8.240   5.595 -0.1769  1.5682  1.2981
 5487SOL     OW27389   9.804   5.188   4.443  0.2397  0.5844 -0.0042
 5487SOL    HW127390   9.835   5.100   4.407  0.5864  1.0437 -0.8327
 5487SOL    HW227391   9.822   5.260   4.376  0.1522  1.3223  0.7577
 5488SOL     OW27392   5.082   8.268   2.122  0.1026  0.0180 -0.0985
 5488SOL    HW127393   5.074   8.183   2.070  0.3843 -0.0607 -0.0134
 5488SOL    HW227394   5.094   8.345   2.059 -0.9723  0.1018 -0.2185
 5489SOL     OW27395   2.234   9.422   1.203  0.4180 -0.2246  0.3336
 5489SOL    HW127396   2.311   9.402   1.263  0.5033 -2.4303 -0.4622
 5489SOL    HW227397   2.256   9.394   1.109 -0.7281  0.6879 -0.2312
 5490SOL     OW27398   3.835   3.190   5.380  0.2972 -0.0384 -0.7408
 5490SOL    HW127399   3.758   3.211   5.441  0.6468 -1.3990  0.1876
 5490SOL    HW227400   3.854   3.092   5.384  1.9547  0.2673 -1.1169
 5491SOL     OW27401   8.196   9.678   3.429  0.4473 -0.2997 -0.0709
 5491SOL    HW127402   8.181   9.619   3.508  0.3832  0.0742  0.1954
 5491SOL    HW227403   8.262   9.749   3.452  0.7757 -0.4651 -0.4957
 5492SOL     OW27404   1.389   5.019   4.985  0.1888 -0.4853 -0.0539
 5492SOL    HW127405   1.487   5.024   5.006  0.6804 -0.0458 -2.2795
 5492SOL    HW227406   1.366   4.926   4.956  0.0618 -0.4696 -0.0015
 5493SOL     OW27407   9.704   2.673   3.364  0.1442 -0.1995 -0.4849
 5493SOL    HW127408   9.686   2.579   3.335 -0.6272 -0.4289  0.7011
 5493SOL    HW227409   9.617   2.723   3.369  0.5534  0.5772 -1.1161
 5494SOL     OW27410   7.561   5.283   4.053  0.7255 -0.4494 -0.4284
 5494SOL    HW127411   7.652   5.285   4.094 -0.7168  0.4026  2.8724
 5494SOL    HW227412   7.537   5.188   4.031  1.9960 -0.7874 -0.3990
 5495SOL     OW27413   2.413   2.976   3.923 -0.1009 -0.6116 -0.2986
 5495SOL    HW127414   2.474   3.009   3.996  1.2950 -0.9629 -1.2933
 5495SOL    HW227415   2.381   2.884   3.946 -0.7619 -0.1913  0.5184
 5496SOL     OW27416   9.116   2.418   4.914  0.3835  0.0561  1.1783
 5496SOL    HW127417   9.210   2.452   4.917  0.3520  0.2724  0.0316
 5496SOL    HW227418   9.102   2.367   4.829 -0.7551  0.6538  1.0030
 5497SOL     OW27419   9.975   0.352   2.807 -0.0406  0.0994 -1.0889
 5497SOL    HW127420   9.920   0.435   2.820  0.3804  0.2406 -0.1076
 5497SOL    HW227421   9.989   0.336   2.710  0.6350  1.6977 -1.2742
 5498SOL     OW27422   4.085   9.614   1.342 -0.0242  0.0195  0.7684
 5498SOL    HW127423   3.999   9.634   1.389 -2.7314 -0.9876 -3.4347
 5498SOL    HW227424   4.082   9.520   1.307  2.1400  0.4733 -0.7338
 5499SOL     OW27425   4.259   5.186   1.358  0.1736 -0.2458  0.6201
 5499SOL    HW127426   4.331   5.253   1.381  1.4820 -1.0935 -0.8631
 5499SOL    HW227427   4.170   5.223   1.383  1.0890  1.0595  2.0209
 5500SOL     OW27428   1.544   4.373   2.454  0.4613  0.4077 -0.3525
 5500SOL    HW127429   1.577   4.279   2.457  0.7136  0.4882 -0.5778
 5500SOL    HW227430   1.572   4.416   2.368  0.1042  0.6001 -0.3752
 5501SOL     OW27431   2.765   4.593   3.302  0.0808 -0.1435  0.5988
 5501SOL    HW127432   2.753   4.528   3.378 -0.5349  1.4223  1.8716
 5501SOL    HW227433   2.711   4.563   3.223 -1.2063 -0.5171  1.6027
 5502SOL     OW27434   4.721   1.357   0.803 -0.5073  0.1877  0.2457
 5502SOL    HW127435   4.813   1.364   0.764 -0.4221  1.7763  0.6696
 5502SOL    HW227436   4.726   1.315   0.893 -0.3071 -0.5607 -0.1134
 5503SOL     OW27437   0.257   9.845   4.779  0.3881 -0.2526 -0.3195
 5503SOL    HW127438   0.224   9.770   4.722 -2.2694 -0.3072  1.2341
 5503SOL    HW227439   0.293   9.808   4.865 -1.3092  0.2607  0.6264
 5504SOL     OW27440   1.187   2.591   4.923 -0.0660  0.2500  0.4153
 5504SOL    HW127441   1.221   2.554   5.010 -2.2544  0.4802  1.3888
 5504SOL    HW227442   1.149   2.516   4.869  1.2555  0.1154 -0.3577
 5505SOL     OW27443   4.116   3.480   4.325  0.3779  0.3311  0.2394
 5505SOL    HW127444   4.145   3.388   4.352  0.8632  0.2110 -0.6672
 5505SOL    HW227445   4.156   3.547   4.387  2.6598  0.1756 -0.9907
 5506SOL     OW27446   3.266   2.862   4.807  0.0125 -0.2082 -0.1338
 5506SOL    HW127447   3.209   2.944   4.801  0.3772  0.0099 -0.6563
 5506SOL    HW227448   3.302   2.853   4.900  0.3464  0.4845 -0.1885
 5507SOL     OW27449   2.527   7.887   0.252 -0.0196 -0.3910 -0.0326
 5507SOL    HW127450   2.496   7.874   0.346 -1.1077 -0.2062 -0.3509
 5507SOL    HW227451   2.546   7.984   0.237 -0.0926 -0.3829 -0.0715
 5508SOL     OW27452   1.118   7.597   5.215  0.2853  0.3218 -0.2089
 5508SOL    HW127453   1.094   7.513   5.166 -1.2999  1.3372 -1.2312
 5508SOL    HW227454   1.218   7.605   5.221  0.4512 -2.3571  1.2076
 5509SOL     OW27455   6.960   0.067   3.482 -0.2237  0.0775 -0.1984
 5509SOL    HW127456   6.946   0.107   3.573  0.8843 -0.6597  0.3137
 5509SOL    HW227457   6.987   0.139   3.418  1.2763  0.2510  0.5982
 5510SOL     OW27458   2.559   4.421   5.571  0.5180 -0.0077  0.4759
 5510SOL    HW127459   2.481   4.471   5.608  0.2122  0.9637 -1.3964
 5510SOL    HW227460   2.623   4.399   5.644 -0.0218  1.9093  1.5508
 5511SOL     OW27461   8.862   0.867   3.183 -0.0201 -0.7652  0.0592
 5511SOL    HW127462   8.840   0.821   3.097  0.4320 -1.8248  0.5055
 5511SOL    HW227463   8.791   0.849   3.250  0.5451 -1.4724  0.4767
 5512SOL     OW27464   2.657   2.411   0.097  0.3024  0.4029 -0.2010
 5512SOL    HW127465   2.596   2.333   0.080  0.7602 -0.0205  0.0871
 5512SOL    HW227466   2.673   2.460   0.011  0.2122  0.0363 -0.4279
 5513SOL     OW27467   2.836   8.050   5.155  0.4179  0.0523  0.3032
 5513SOL    HW127468   2.807   8.134   5.201 -1.2968  0.4706 -1.5152
 5513SOL    HW227469   2.781   7.974   5.188  1.2336 -0.2003  1.1321
 5514SOL     OW27470   7.664   0.718   3.845  0.7877  0.2333 -0.4889
 5514SOL    HW127471   7.644   0.774   3.764  0.7623 -0.6954 -1.1374
 5514SOL    HW227472   7.578   0.698   3.893  0.9608  2.0747  0.6610
 5515SOL     OW27473   4.579   3.445   4.327 -0.1385 -0.2790 -0.0432
 5515SOL    HW127474   4.536   3.534   4.312  2.3014  1.1608  1.1899
 5515SOL    HW227475   4.634   3.421   4.248 -1.2742 -0.9922 -0.6256
 5516SOL     OW27476   7.638   6.757   2.687  0.2043  0.3628  0.2150
 5516SOL    HW127477   7.576   6.809   2.628  1.0471  0.3701 -0.6785
 5516SOL    HW227478   7.725   6.743   2.640  0.7718  0.0645  1.3251
 5517SOL     OW27479   9.001   2.621   1.104 -0.5728 -0.1029  0.1641
 5517SOL    HW127480   8.957   2.539   1.067  1.4678 -1.4158  0.5941
 5517SOL    HW227481   9.100   2.612   1.095 -0.3122  2.0335  0.8358
 5518SOL     OW27482   3.057   8.364   4.218  0.0056  0.0257  0.2688
 5518SOL    HW127483   3.062   8.268   4.247 -0.2172 -0.5162 -1.3933
 5518SOL    HW227484   3.005   8.369   4.132  0.4441  1.5822  0.0899
 5519SOL     OW27485   1.324   1.597   2.389 -0.7123  0.2573  0.2587
 5519SOL    HW127486   1.373   1.612   2.303  0.5487  1.5560  1.1883
 5519SOL    HW227487   1.347   1.670   2.453 -1.4000 -0.8845  1.8170
 5520SOL     OW27488   9.241   1.498   3.896 -0.2842 -0.2741 -0.2809
 5520SOL    HW127489   9.285   1.414   3.864  2.1606  0.3288  1.3538
 5520SOL    HW227490   9.185   1.478   3.976  1.2567 -0.1797  0.8439
 5521SOL     OW27491   4.264   1.936   4.342 -0.5650  0.0366  0.2850
 5521SOL    HW127492   4.358   1.957   4.370 -0.8083  0.0340  1.0861
 5521SOL    HW227493   4.267   1.885   4.256  0.2380 -1.3558  1.1235
 5522SOL     OW27494   9.576   4.181   1.244  0.0114  0.1299 -0.4104
 5522SOL    HW127495   9.588   4.122   1.165 -1.2890  1.6910 -1.8193
 5522SOL    HW227496   9.666   4.205   1.281  0.6382 -0.6732 -1.3734
 5523SOL     OW27497   6.273   7.841   2.986  0.7278  0.1093  0.0089
 5523SOL    HW127498   6.252   7.850   2.889 -3.0692  3.2439  0.9788
 5523SOL    HW227499   6.280   7.744   3.010 -3.1961 -0.9042 -2.5089
 5524SOL     OW27500   0.245   1.134   5.405  0.4129 -0.3121 -0.4155
 5524SOL    HW127501   0.179   1.062   5.383 -0.6082  1.4202 -3.2601
 5524SOL    HW227502   0.257   1.139   5.504 -1.7115 -2.4153 -0.0066
 5525SOL     OW27503   0.595   3.750   4.575 -0.5460 -0.4146 -0.4313
 5525SOL    HW127504   0.599   3.786   4.482 -1.0524  1.4725  0.2562
 5525SOL    HW227505   0.579   3.651   4.572 -2.5004 -0.0853 -2.3118
 5526SOL     OW27506   6.610   7.956   3.585 -0.0344 -0.0871  0.4770
 5526SOL    HW127507   6.591   7.931   3.680  0.0725  1.1580  0.8388
 5526SOL    HW227508   6.555   7.899   3.524  0.7051 -1.6443  1.2407
 5527SOL     OW27509   1.613   0.109   1.889  0.0948  0.3284 -0.5429
 5527SOL    HW127510   1.697   0.076   1.931  0.5118 -0.2304 -1.7698
 5527SOL    HW227511   1.636   0.173   1.815 -0.4257 -1.4544 -2.3013
 5528SOL     OW27512   2.579   7.434   0.322 -0.2728  0.7523 -0.5557
 5528SOL    HW127513   2.624   7.372   0.257  0.9463  1.4465 -0.3924
 5528SOL    HW227514   2.606   7.410   0.415 -0.1595  1.2312 -0.4626
 5529SOL     OW27515   9.007   6.365   4.325  0.3552 -0.7585  0.0725
 5529SOL    HW127516   8.955   6.285   4.295 -1.0115  0.8468 -1.9804
 5529SOL    HW227517   8.949   6.426   4.377  0.5474  0.3509 -0.9851
 5530SOL     OW27518   8.836   8.348   4.598 -0.0377 -0.5953  0.4317
 5530SOL    HW127519   8.761   8.410   4.621 -0.2778 -0.7152 -0.0248
 5530SOL    HW227520   8.860   8.293   4.678 -0.9058 -1.0607  0.3711
 5531SOL     OW27521   9.483   4.402   2.594  0.4161 -0.2556  0.2600
 5531SOL    HW127522   9.544   4.324   2.605 -0.2910 -0.8019  0.2948
 5531SOL    HW227523   9.405   4.393   2.655 -0.9425 -0.7650 -1.5236
 5532SOL     OW27524   0.255   4.143   3.225 -0.0641  0.4923 -0.3412
 5532SOL    HW127525   0.226   4.231   3.188  0.0368  0.9119  0.5698
 5532SOL    HW227526   0.323   4.102   3.164  0.4550  1.4008 -0.3735
 5533SOL     OW27527   1.664   3.888   3.023  0.0875  0.3424 -0.0086
 5533SOL    HW127528   1.570   3.877   2.988  0.3601  0.4184 -0.7827
 5533SOL    HW227529   1.701   3.976   2.991  0.3377  0.4202  0.4937
 5534SOL     OW27530   3.707   7.590   4.003 -0.0116 -0.0096  0.8883
 5534SOL    HW127531   3.657   7.663   4.050  1.0788 -0.0228  2.1053
 5534SOL    HW227532   3.715   7.612   3.906 -2.6829 -0.1888  0.5927
 5535SOL     OW27533   1.613   8.695   2.798 -0.1113 -0.5952  0.1393
 5535SOL    HW127534   1.611   8.746   2.884 -1.9696 -1.4543  0.6405
 5535SOL    HW227535   1.672   8.615   2.809  0.8636  0.1174  0.1271
 5536SOL     OW27536   0.054   2.598   2.435 -0.1251 -0.1746 -0.1477
 5536SOL    HW127537   0.109   2.650   2.369  0.0803 -0.1043  0.0801
 5536SOL    HW227538   0.002   2.528   2.386  0.6893 -0.6911 -0.2978
 5537SOL     OW27539   9.383   2.358   1.292  0.6768 -0.7557  0.2861
 5537SOL    HW127540   9.393   2.415   1.373  1.9104 -1.7035  0.8076
 5537SOL    HW227541   9.292   2.317   1.292  0.7161 -0.8526  1.2540
 5538SOL     OW27542   5.990   8.080   1.412  0.5165  0.1125 -0.3447
 5538SOL    HW127543   5.901   8.049   1.377  0.4501  0.6259 -0.6389
 5538SOL    HW227544   5.985   8.178   1.434  0.1839 -0.4749  2.3252
 5539SOL     OW27545   3.755   0.881   3.897 -0.4132  0.8130 -0.4326
 5539SOL    HW127546   3.795   0.925   3.977 -0.3454  0.7294 -0.4200
 5539SOL    HW227547   3.826   0.829   3.848 -0.3133  1.4118 -0.9237
 5540SOL     OW27548   4.837   4.055   0.770  0.0683  0.3216  0.4028
 5540SOL    HW127549   4.889   4.120   0.826  0.9805  0.3853 -0.5004
 5540SOL    HW227550   4.859   4.070   0.674  0.2945 -1.3361  0.1890
 5541SOL     OW27551   0.189   7.670   5.002 -0.0312  0.4193 -0.1517
 5541SOL    HW127552   0.121   7.690   5.072 -0.0734 -0.4778  0.0652
 5541SOL    HW227553   0.157   7.704   4.914 -1.7898 -1.9672 -0.4822
 5542SOL     OW27554   7.015   9.452   3.804  0.0638  0.2970 -0.3995
 5542SOL    HW127555   7.087   9.510   3.841 -0.3463  1.1403 -0.9056
 5542SOL    HW227556   6.982   9.490   3.718  0.4552 -1.2287 -1.2256
 5543SOL     OW27557   7.939   1.580   2.964 -0.6281  0.0495 -0.4673
 5543SOL    HW127558   8.012   1.610   2.903 -0.3695 -1.0241 -0.7077
 5543SOL    HW227559   7.859   1.554   2.909 -0.9717  0.6192 -0.2440
 5544SOL     OW27560   3.648   8.359   2.066  0.1385 -0.0051 -0.3224
 5544SOL    HW127561   3.735   8.310   2.074  0.1321  0.1513  0.7363
 5544SOL    HW227562   3.580   8.318   2.127 -0.0380  0.9230  0.1300
 5545SOL     OW27563   6.769   6.543   3.634  0.1929 -0.0960  0.2697
 5545SOL    HW127564   6.689   6.598   3.613  0.2747 -0.4026 -0.8957
 5545SOL    HW227565   6.748   6.480   3.709 -0.4079  0.3484  0.4789
 5546SOL     OW27566   5.658   6.918   2.446  0.1547 -0.3583  1.0286
 5546SOL    HW127567   5.689   6.881   2.358 -1.8329 -0.3897  0.3087
 5546SOL    HW227568   5.705   6.870   2.520  0.3914 -1.7433  0.0175
 5547SOL     OW27569   9.419   1.258   5.222  0.0615 -0.2422 -0.4766
 5547SOL    HW127570   9.349   1.262   5.151  0.6088 -0.6045 -1.0438
 5547SOL    HW227571   9.440   1.350   5.254 -2.0738 -0.2450  1.0980
 5548SOL     OW27572   0.742   3.052   0.430 -0.1268 -0.1668 -0.2617
 5548SOL    HW127573   0.773   3.012   0.516  1.0860  0.7376 -0.2591
 5548SOL    HW227574   0.694   3.138   0.448 -2.0080 -1.1787 -0.3258
 5549SOL     OW27575   1.475   3.496   4.057 -0.3007  0.3389 -0.6089
 5549SOL    HW127576   1.545   3.549   4.105 -0.3229 -0.3016  0.1459
 5549SOL    HW227577   1.503   3.400   4.053 -2.2495 -0.3800  1.8723
 5550SOL     OW27578   1.755   0.026   0.573 -0.5756 -0.0732 -0.4604
 5550SOL    HW127579   1.731  -0.039   0.502 -0.2565 -0.1857 -0.4661
 5550SOL    HW227580   1.677   0.040   0.634 -0.6293 -0.4877 -0.4357
 5551SOL     OW27581   3.705   2.857   3.796 -0.1447  0.0766 -0.2170
 5551SOL    HW127582   3.761   2.919   3.740 -0.2980  0.7118  0.3254
 5551SOL    HW227583   3.763   2.807   3.860  0.4041 -2.6487 -2.7331
 5552SOL     OW27584   3.389   0.183   1.031 -0.2717  0.3814  0.8898
 5552SOL    HW127585   3.350   0.258   0.978 -1.1480  0.1249  1.1643
 5552SOL    HW227586   3.354   0.187   1.125  0.6080  0.3330  1.2289
 5553SOL     OW27587   9.006   8.714   0.116 -0.3914 -0.0772  0.0455
 5553SOL    HW127588   8.969   8.625   0.144 -0.3812 -0.7625 -1.9832
 5553SOL    HW227589   8.944   8.787   0.145 -1.8487 -0.9776 -0.7520
 5554SOL     OW27590   7.902   5.312   0.271  0.3023  0.3494 -0.4222
 5554SOL    HW127591   7.853   5.355   0.346  0.6222  2.3268 -1.3116
 5554SOL    HW227592   7.875   5.354   0.184  2.5255  0.5152 -1.0639
 5555SOL     OW27593   4.490   1.995   2.386  0.4286 -0.0253 -0.0105
 5555SOL    HW127594   4.413   2.029   2.332  0.7967 -0.6556 -0.9583
 5555SOL    HW227595   4.469   2.004   2.483 -1.3456 -1.2708 -0.2448
 5556SOL     OW27596   7.490   2.819   1.031 -0.4491 -0.8122 -0.5950
 5556SOL    HW127597   7.477   2.913   1.001  0.1590 -0.5818 -0.1365
 5556SOL    HW227598   7.416   2.792   1.092  1.2173  0.5322  2.1205
 5557SOL     OW27599   2.471   6.768   4.360  0.0796  0.0675 -0.0585
 5557SOL    HW127600   2.376   6.762   4.394  0.6754  0.5618  1.7742
 5557SOL    HW227601   2.532   6.728   4.428  1.3801  1.5524 -0.3436
 5558SOL     OW27602   8.014   9.195   0.049 -0.2852 -0.2379 -0.3498
 5558SOL    HW127603   8.078   9.222   0.120  1.4228  0.7769 -2.2321
 5558SOL    HW227604   7.925   9.237   0.067  0.2825  0.4798  0.8618
 5559SOL     OW27605   4.411   6.738   1.679 -0.0202  0.6721 -0.3344
 5559SOL    HW127606   4.429   6.836   1.682 -0.2887  0.8102 -2.3246
 5559SOL    HW227607   4.498   6.688   1.674  0.1603  0.7304  1.8773
 5560SOL     OW27608   9.887   8.989   2.398  0.5195 -0.0944 -0.3874
 5560SOL    HW127609   9.846   8.900   2.411  1.7759 -0.7270 -0.6552
 5560SOL    HW227610   9.849   9.054   2.464 -0.7950 -0.6791 -0.5530
 5561SOL     OW27611   0.529   2.826   5.114  0.5047 -0.0391 -0.5415
 5561SOL    HW127612   0.591   2.904   5.122 -0.1150  0.5717 -1.5486
 5561SOL    HW227613   0.436   2.859   5.097  0.0619 -0.9715  0.0149
 5562SOL     OW27614   2.144   0.999   5.330 -0.1669 -0.7748 -0.6944
 5562SOL    HW127615   2.140   1.097   5.310 -1.4525 -0.6311  0.2472
 5562SOL    HW227616   2.238   0.973   5.350 -0.1123  0.6830  1.0639
 5563SOL     OW27617   1.762   0.180   2.541 -0.0017 -0.0135  0.0825
 5563SOL    HW127618   1.790   0.250   2.607  2.1522  1.3692 -2.2075
 5563SOL    HW227619   1.812   0.095   2.559 -0.0846  0.0859  0.7850
 5564SOL     OW27620   1.780   4.387   0.008  0.0782  0.1105  0.1464
 5564SOL    HW127621   1.705   4.442  -0.030  1.0154  0.6738 -0.9170
 5564SOL    HW227622   1.830   4.442   0.076 -0.0085  0.0014  0.2974
 5565SOL     OW27623   2.519   6.604   3.220 -0.0704  0.4696 -0.3624
 5565SOL    HW127624   2.597   6.603   3.283  0.2542  0.9247 -0.7500
 5565SOL    HW227625   2.461   6.683   3.241 -1.4547 -0.9289  1.1562
 5566SOL     OW27626   9.483   0.707   1.164 -0.2890  0.2221 -0.0967
 5566SOL    HW127627   9.462   0.791   1.213 -1.0821  0.8205 -1.4336
 5566SOL    HW227628   9.582   0.695   1.159 -0.1874  0.5390  0.9690
 5567SOL     OW27629   9.249   9.110   1.711  0.3135  0.3660  0.2778
 5567SOL    HW127630   9.178   9.180   1.707 -0.9260 -0.9680 -1.8388
 5567SOL    HW227631   9.338   9.154   1.725 -0.5986  2.2528  0.3160
 5568SOL     OW27632   9.219   3.730   1.759  0.7135 -0.2018 -0.2009
 5568SOL    HW127633   9.224   3.726   1.659  0.8960  0.7299 -0.2265
 5568SOL    HW227634   9.309   3.754   1.796  0.6012 -0.3658  0.1784
 5569SOL     OW27635   1.957   8.717   1.886 -0.8232  0.2925 -0.0059
 5569SOL    HW127636   2.054   8.736   1.904 -0.7960  0.9580 -0.8441
 5569SOL    HW227637   1.901   8.785   1.934 -0.8264  0.7555 -0.6669
 5570SOL     OW27638   3.721   9.393   4.462 -0.2894  0.3597  0.8391
 5570SOL    HW127639   3.744   9.310   4.411 -0.0608  0.4333  0.8231
 5570SOL    HW227640   3.730   9.473   4.402 -1.4041  0.3103  0.5959
 5571SOL     OW27641   3.373   4.202   5.347  0.2107 -0.6309 -0.4673
 5571SOL    HW127642   3.316   4.262   5.404 -0.3105 -1.7965  0.2552
 5571SOL    HW227643   3.321   4.122   5.320  1.7507 -2.1662  0.9511
 5572SOL     OW27644   6.791   0.306   5.261 -0.4711 -0.2149 -0.2943
 5572SOL    HW127645   6.877   0.258   5.247 -0.4141 -0.4290  0.7255
 5572SOL    HW227646   6.807   0.405   5.258  0.1923 -0.2229  1.8953
 5573SOL     OW27647   3.502   2.423   3.535  0.3468  0.0917 -0.0884
 5573SOL    HW127648   3.542   2.507   3.571  1.6272 -0.4895 -0.1204
 5573SOL    HW227649   3.404   2.422   3.553  0.4884  1.1526  0.7792
 5574SOL     OW27650   2.801   9.411   4.260  0.1637  0.1141 -0.1523
 5574SOL    HW127651   2.894   9.444   4.272  0.4339 -0.1736 -1.4686
 5574SOL    HW227652   2.736   9.483   4.286  0.7423  0.4503  0.3767
 5575SOL     OW27653   0.614   4.201   1.710 -0.0758 -0.0684 -0.0548
 5575SOL    HW127654   0.621   4.102   1.692 -0.1663 -0.2878  1.0945
 5575SOL    HW227655   0.565   4.244   1.634 -0.4806 -0.9831 -0.3316
 5576SOL     OW27656   9.249   2.507   3.906  0.7698  0.3802 -0.5336
 5576SOL    HW127657   9.259   2.408   3.901 -1.7304  0.1009 -0.4287
 5576SOL    HW227658   9.156   2.533   3.879  0.8239  2.5435  1.1935
 5577SOL     OW27659   1.759   6.084   0.953  0.1130  0.1051 -0.4127
 5577SOL    HW127660   1.834   6.081   1.019  0.7465 -2.3802 -1.1982
 5577SOL    HW227661   1.751   6.177   0.916  0.6469  1.1995  2.0803
 5578SOL     OW27662   2.483   8.510   4.788 -0.5651  0.4387  0.0090
 5578SOL    HW127663   2.410   8.523   4.856  0.0572 -0.4317  0.8626
 5578SOL    HW227664   2.447   8.457   4.711 -1.9428  3.4500 -1.5194
 5579SOL     OW27665   7.705   1.676   1.294  0.2319  0.6439 -0.0265
 5579SOL    HW127666   7.771   1.720   1.233 -2.0501  1.7773 -1.7481
 5579SOL    HW227667   7.667   1.595   1.249  1.2649 -0.6760  1.4240
 5580SOL     OW27668   1.226   8.722   4.840  0.2998 -0.9132 -1.2280
 5580SOL    HW127669   1.128   8.701   4.844 -0.1564  1.1794 -1.0050
 5580SOL    HW227670   1.261   8.703   4.748  0.1687 -3.5649 -0.7939
 5581SOL     OW27671   4.719   2.211   3.988  1.2364 -0.6601 -0.3030
 5581SOL    HW127672   4.680   2.289   3.941  0.8003 -0.9757 -0.4632
 5581SOL    HW227673   4.803   2.183   3.942  1.4525 -0.2225 -0.1812
 5582SOL     OW27674   4.594   2.387   1.635 -0.0700  0.9617  0.1769
 5582SOL    HW127675   4.562   2.303   1.593 -0.5966  0.9278  0.6465
 5582SOL    HW227676   4.543   2.405   1.719  1.6501  0.4888  1.3547
 5583SOL     OW27677   8.601   6.177   1.726 -0.3436 -0.4430  0.0197
 5583SOL    HW127678   8.502   6.167   1.710 -0.4467  0.6533 -0.1241
 5583SOL    HW227679   8.625   6.133   1.812 -0.6468 -2.2189 -0.7824
 5584SOL     OW27680   3.864   1.952   4.682  0.0080  0.7268  0.4317
 5584SOL    HW127681   3.928   1.890   4.635  0.1675  0.3287  1.1718
 5584SOL    HW227682   3.911   1.997   4.758 -0.8508 -0.3289  1.6147
 5585SOL     OW27683   7.129   0.089   1.696  0.2053  0.2591 -0.1807
 5585SOL    HW127684   7.095   0.182   1.707  0.6535  0.5448 -1.0933
 5585SOL    HW227685   7.104   0.034   1.775  0.2647  1.2589  0.5430
 5586SOL     OW27686   9.851   0.757   2.935 -0.2100  0.5675 -0.0045
 5586SOL    HW127687   9.825   0.819   2.862 -0.3313  0.0326 -0.4174
 5586SOL    HW227688   9.913   0.804   2.998  1.7179  0.3300 -1.6910
 5587SOL     OW27689   2.793   1.835   3.810  0.1142  0.2135  0.7431
 5587SOL    HW127690   2.781   1.767   3.738 -2.4516  0.2150  1.1494
 5587SOL    HW227691   2.738   1.916   3.789 -0.6521  0.2201  2.6773
 5588SOL     OW27692   9.801   9.188   2.556  0.0566  0.1750  0.2585
 5588SOL    HW127693   9.854   9.270   2.535  0.7065 -0.6970 -1.5368
 5588SOL    HW227694   9.704   9.212   2.565  0.5432  1.5445  2.2621
 5589SOL     OW27695   0.639   8.473   2.091 -0.4393  0.2742 -0.2366
 5589SOL    HW127696   0.645   8.499   2.187 -1.5724 -0.4939  0.0491
 5589SOL    HW227697   0.714   8.411   2.068  1.4954  2.6752 -0.5867
 5590SOL     OW27698   3.185   5.761   1.498  0.1569 -0.4451 -0.7622
 5590SOL    HW127699   3.285   5.770   1.498  0.0892  0.3477 -1.1844
 5590SOL    HW227700   3.156   5.722   1.411  0.0411 -0.0644 -0.8917
 5591SOL     OW27701   8.200   0.391   0.733 -0.0379 -0.2159  0.1445
 5591SOL    HW127702   8.172   0.477   0.776 -1.2363 -0.7656  0.4771
 5591SOL    HW227703   8.191   0.317   0.799 -1.2733 -0.9660 -0.8398
 5592SOL     OW27704   9.052   7.359   2.299  0.1313  0.1528  0.2127
 5592SOL    HW127705   9.037   7.437   2.238  1.1427  0.1995  0.0137
 5592SOL    HW227706   9.093   7.284   2.247 -1.5750 -0.7986  0.2289
 5593SOL     OW27707   9.010   0.085   5.366 -1.0427  0.0361 -0.0919
 5593SOL    HW127708   9.051   0.077   5.456  0.8857 -0.4220 -0.9758
 5593SOL    HW227709   9.010  -0.005   5.321 -2.6991  0.1016 -0.2502
 5594SOL     OW27710   0.398   8.279   5.362 -0.3225 -0.2919 -0.1829
 5594SOL    HW127711   0.468   8.316   5.301 -2.8963  0.9036 -2.5342
 5594SOL    HW227712   0.401   8.179   5.358  1.0371 -0.2559 -0.4943
 5595SOL     OW27713   1.244   1.382   0.195 -0.2589  0.2335 -0.4237
 5595SOL    HW127714   1.150   1.415   0.203 -0.6966 -1.4149  1.8354
 5595SOL    HW227715   1.277   1.352   0.285  2.2600  0.2837 -1.2675
 5596SOL     OW27716   1.948   7.497   3.595 -0.4199  0.1415 -0.4120
 5596SOL    HW127717   1.951   7.578   3.654 -0.2459 -0.4373  0.3901
 5596SOL    HW227718   1.857   7.458   3.596 -0.4942  0.3037 -0.7704
 5597SOL     OW27719   0.263   6.796   0.156 -0.2028 -0.5447  0.1343
 5597SOL    HW127720   0.325   6.745   0.215  0.5222  0.6455  0.4287
 5597SOL    HW227721   0.261   6.754   0.065  2.5808  0.5160 -0.4667
 5598SOL     OW27722   8.549   7.759   3.031  0.3705 -0.2216  0.6703
 5598SOL    HW127723   8.628   7.771   3.092  1.4505  0.7373 -0.8755
 5598SOL    HW227724   8.467   7.745   3.086  1.3373  0.5165  2.3550
 5599SOL     OW27725   0.545   1.094   2.847  0.2178 -0.1085  0.6015
 5599SOL    HW127726   0.633   1.112   2.892  1.0200 -1.3557 -0.4373
 5599SOL    HW227727   0.554   1.016   2.785 -0.0115  3.3253 -4.0394
 5600SOL     OW27728   2.120   5.751   3.793  0.2762  0.2818  0.1780
 5600SOL    HW127729   2.181   5.830   3.788  1.3659 -0.4726  1.4319
 5600SOL    HW227730   2.124   5.699   3.708  1.6930  0.0076  0.4140
 5601SOL     OW27731   3.496   1.303   2.443 -0.1067 -0.4206  0.4915
 5601SOL    HW127732   3.488   1.255   2.357 -0.6005 -0.0912  0.3519
 5601SOL    HW227733   3.575   1.365   2.439 -1.2339  0.9892 -0.4134
 5602SOL     OW27734   9.520   0.805   5.099 -0.2146 -0.6729 -0.5215
 5602SOL    HW127735   9.433   0.774   5.137  0.2265 -0.6835  0.5017
 5602SOL    HW227736   9.563   0.868   5.163  1.4073 -2.0982 -0.1642
 5603SOL     OW27737   7.306   9.076   0.896  0.6783  0.2867  0.0424
 5603SOL    HW127738   7.209   9.097   0.907  0.3277 -0.8972 -0.7795
 5603SOL    HW227739   7.338   9.026   0.977  0.2328 -0.6692 -0.3714
 5604SOL     OW27740   8.257   5.843   0.530 -0.0138  0.5570  0.3233
 5604SOL    HW127741   8.205   5.858   0.446 -0.9557 -0.3128  0.7331
 5604SOL    HW227742   8.354   5.828   0.507 -0.1138  1.1771 -0.5295
 5605SOL     OW27743   9.938   9.242   0.049  0.4725 -0.1844 -0.6032
 5605SOL    HW127744  10.016   9.269   0.106  0.9542 -0.0418 -1.3350
 5605SOL    HW227745   9.873   9.190   0.105 -0.3406  2.2250  0.7752
 5606SOL     OW27746   4.808   3.464   0.047  0.1615 -0.0187  0.0529
 5606SOL    HW127747   4.869   3.431   0.119 -0.1041 -1.2949 -0.2981
 5606SOL    HW227748   4.838   3.429  -0.041  0.2453  1.2062 -0.4187
 5607SOL     OW27749   1.299   0.658   2.962  0.5255  0.0609  0.3362
 5607SOL    HW127750   1.368   0.650   2.889  0.5770 -1.2437  0.5222
 5607SOL    HW227751   1.241   0.577   2.962 -0.4805  0.7718  0.7404
 5608SOL     OW27752   7.116   9.459   0.754 -0.0095 -0.1624 -0.6068
 5608SOL    HW127753   7.076   9.395   0.820  0.9964 -0.9030 -0.7070
 5608SOL    HW227754   7.214   9.468   0.771 -0.3284  2.2642  0.1364
 5609SOL     OW27755   1.691   1.857   0.612 -0.1546 -0.0101 -0.2169
 5609SOL    HW127756   1.607   1.911   0.617 -1.3429 -1.4589 -3.2041
 5609SOL    HW227757   1.693   1.790   0.686 -1.7086 -0.0828 -0.2261
 5610SOL     OW27758   3.069   9.934   4.854  0.0564  0.7193 -0.2036
 5610SOL    HW127759   3.136   9.888   4.796  0.9360  0.1271  1.2681
 5610SOL    HW227760   3.017   9.999   4.799 -0.6924 -1.4663 -2.1929
 5611SOL     OW27761   3.801   0.517   1.290  0.1086 -0.3984  0.5936
 5611SOL    HW127762   3.876   0.573   1.256  0.2144 -0.9682 -0.1261
 5611SOL    HW227763   3.818   0.421   1.266 -1.4721 -0.3737 -0.6942
 5612SOL     OW27764   0.029   3.295   5.226 -0.3215 -0.6829 -0.3646
 5612SOL    HW127765  -0.040   3.365   5.242 -0.7978 -1.2774  0.2093
 5612SOL    HW227766   0.073   3.311   5.137 -0.4302  0.3252 -0.2448
 5613SOL     OW27767   4.585   3.863   0.057 -0.5727 -0.5815 -0.0743
 5613SOL    HW127768   4.507   3.861   0.119 -2.1594 -1.0957 -2.0250
 5613SOL    HW227769   4.586   3.780   0.001 -0.3015  0.7164 -2.0521
 5614SOL     OW27770   0.989   9.450   5.353 -0.1667 -0.2463 -0.4670
 5614SOL    HW127771   0.931   9.526   5.381 -0.9003  0.1179 -2.8449
 5614SOL    HW227772   1.074   9.451   5.405 -1.7425 -0.0423  2.1789
 5615SOL     OW27773   8.044   5.830   2.551  0.1744 -0.2536 -0.0433
 5615SOL    HW127774   8.046   5.809   2.453  1.0751 -1.7699  0.2771
 5615SOL    HW227775   7.969   5.781   2.594  1.5180 -1.8677  0.4972
 5616SOL     OW27776   3.740   1.344   1.112  0.1043 -0.2766 -0.4640
 5616SOL    HW127777   3.754   1.266   1.173 -2.6375 -0.3963  0.0709
 5616SOL    HW227778   3.642   1.365   1.107  0.5075  1.0737 -3.1864
 5617SOL     OW27779   4.161   7.535   2.300 -0.0823  0.3176  0.7578
 5617SOL    HW127780   4.141   7.437   2.303  2.7075 -0.3084  0.5432
 5617SOL    HW227781   4.232   7.557   2.367  0.6409  1.8583 -0.4839
 5618SOL     OW27782   9.402   5.126   3.553  0.4758  0.0352 -0.7613
 5618SOL    HW127783   9.455   5.102   3.635 -3.0165 -0.9225  1.3279
 5618SOL    HW227784   9.389   5.044   3.497 -0.9336 -0.3204  0.0567
 5619SOL     OW27785   0.722   6.146   4.538 -0.3695  0.2331  0.1500
 5619SOL    HW127786   0.793   6.177   4.601  0.7799 -1.4867 -0.2936
 5619SOL    HW227787   0.709   6.047   4.548 -1.6295  0.2892 -0.8595
 5620SOL     OW27788   1.566   6.494   4.799 -0.6313 -0.1419 -0.3694
 5620SOL    HW127789   1.613   6.461   4.880  1.8034 -0.1226 -1.7337
 5620SOL    HW227790   1.526   6.584   4.817 -1.2863 -0.7372  1.1974
 5621SOL     OW27791   1.097   9.998   1.773  0.2240  0.1857 -0.2329
 5621SOL    HW127792   1.029   9.929   1.750 -0.6044  0.7443  0.5269
 5621SOL    HW227793   1.091  10.021   1.870  0.7210  1.0683 -0.3994
 5622SOL     OW27794   4.930   4.079   0.524 -0.0873  0.2667 -0.4137
 5622SOL    HW127795   4.955   3.991   0.483 -0.6953  0.1524 -0.5425
 5622SOL    HW227796   4.927   4.149   0.453 -2.8834 -0.2843 -0.9003
 5623SOL     OW27797   8.120   1.693   1.220  0.6527 -0.3522 -0.3114
 5623SOL    HW127798   8.107   1.596   1.203 -1.4158 -0.6536  2.6010
 5623SOL    HW227799   8.206   1.708   1.269  0.8070 -0.7432 -0.4668
 5624SOL     OW27800   2.151   8.183   3.774 -0.3925 -0.0513 -0.1901
 5624SOL    HW127801   2.055   8.200   3.753 -0.1343  0.5319 -0.9171
 5624SOL    HW227802   2.207   8.256   3.734  0.3341 -0.2964  0.3779
 5625SOL     OW27803   6.961   7.530   1.690  0.3675  0.1568 -0.4727
 5625SOL    HW127804   6.974   7.472   1.770  1.1349 -1.0255 -1.4274
 5625SOL    HW227805   6.864   7.531   1.665  0.0467  0.9848  0.7981
 5626SOL     OW27806   7.307   7.389   2.213  0.0738 -0.0664 -0.5572
 5626SOL    HW127807   7.282   7.293   2.226 -0.7679  0.0644 -1.1683
 5626SOL    HW227808   7.298   7.413   2.116 -1.5733  1.1424 -0.1178
 5627SOL     OW27809   8.176   6.700   0.258 -0.6138 -0.3925 -0.1514
 5627SOL    HW127810   8.078   6.679   0.264 -0.9319  0.8710 -0.7131
 5627SOL    HW227811   8.229   6.618   0.281 -1.8010 -1.8407 -2.3140
 5628SOL     OW27812   2.564   5.261   2.750  0.1630 -0.0249 -0.0750
 5628SOL    HW127813   2.627   5.304   2.685  0.3459 -0.9251 -0.5018
 5628SOL    HW227814   2.520   5.182   2.707 -0.9842  0.3720  0.3443
 5629SOL     OW27815   0.933   5.819   2.605  0.5650 -0.3481 -0.0328
 5629SOL    HW127816   0.939   5.815   2.705  0.1752  1.3231  0.0814
 5629SOL    HW227817   1.008   5.875   2.570 -0.0555  0.1477 -0.5716
 5630SOL     OW27818   1.172   7.573   3.075  0.3838  0.3543  0.0139
 5630SOL    HW127819   1.078   7.603   3.088 -1.5999 -4.1115 -2.8824
 5630SOL    HW227820   1.215   7.628   3.003 -0.9348  0.5661 -0.6196
 5631SOL     OW27821   1.596   8.294   2.312 -0.0127 -0.2470 -0.0635
 5631SOL    HW127822   1.676   8.251   2.353 -0.3655  0.2974  1.2218
 5631SOL    HW227823   1.583   8.385   2.351  1.0094  1.2847 -3.1144
 5632SOL     OW27824   6.030   0.320   1.011  0.1908 -0.3427  0.2358
 5632SOL    HW127825   5.967   0.308   1.087 -0.2620  0.5076 -0.0073
 5632SOL    HW227826   6.030   0.415   0.981  1.2409 -0.4265 -0.0664
 5633SOL     OW27827   8.019   0.892   4.074 -0.6144 -0.5323 -0.2354
 5633SOL    HW127828   7.929   0.919   4.108 -0.4914 -0.8628  0.3609
 5633SOL    HW227829   8.013   0.802   4.031 -0.7197 -0.2223 -0.8845
 5634SOL     OW27830   1.049   7.549   2.608 -0.5652 -0.2626 -0.1868
 5634SOL    HW127831   1.133   7.496   2.623 -1.5838 -2.3052 -1.4581
 5634SOL    HW227832   1.073   7.637   2.568  1.0403 -0.4620  0.2734
 5635SOL     OW27833   2.486   9.274   3.404 -0.0443  0.4315 -0.3297
 5635SOL    HW127834   2.391   9.298   3.385  0.2625  1.2868 -0.7866
 5635SOL    HW227835   2.507   9.185   3.364 -1.0468 -0.4040  0.9518
 5636SOL     OW27836   9.593   4.779   4.678  0.4500 -0.1253  0.7018
 5636SOL    HW127837   9.663   4.748   4.613  0.7192  0.7392  0.5791
 5636SOL    HW227838   9.504   4.742   4.651  1.0704 -2.5010  1.7189
 5637SOL     OW27839   2.926   3.033   2.157 -0.4223  0.3679  0.3030
 5637SOL    HW127840   2.994   2.971   2.197 -1.0259  0.7156  1.8920
 5637SOL    HW227841   2.852   2.980   2.117 -1.6537  0.0593  2.9283
 5638SOL     OW27842   7.648   2.564   1.660 -0.2161  0.2058  0.3749
 5638SOL    HW127843   7.616   2.529   1.572 -0.4654  0.7493  0.2490
 5638SOL    HW227844   7.735   2.521   1.684 -0.5315 -0.5190  0.2308
 5639SOL     OW27845   9.412   7.147   2.564 -0.2119  0.3055  0.4335
 5639SOL    HW127846   9.358   7.080   2.513  0.7973 -0.8195  0.8266
 5639SOL    HW227847   9.350   7.212   2.608 -1.1999 -0.3189 -0.0038
 5640SOL     OW27848   2.444   4.302   2.680 -0.1803  0.1139  0.1637
 5640SOL    HW127849   2.426   4.395   2.648 -0.0496  0.1532  0.2048
 5640SOL    HW227850   2.542   4.290   2.694  0.2312 -1.1724 -3.4054
 5641SOL     OW27851   9.595   1.020   1.036  0.2950 -0.3287  0.5340
 5641SOL    HW127852   9.632   1.110   1.010 -0.2437 -0.3977 -0.5050
 5641SOL    HW227853   9.666   0.968   1.084  0.8263  0.3917  0.5546
 5642SOL     OW27854   7.799   5.226   4.210  0.1424  0.1172 -0.2276
 5642SOL    HW127855   7.838   5.318   4.208 -0.0974  0.2198 -0.1701
 5642SOL    HW227856   7.768   5.205   4.302 -1.7395  0.7916 -0.6920
 5643SOL     OW27857   1.352   4.351   5.117  0.1482  0.3781 -0.6341
 5643SOL    HW127858   1.325   4.357   5.213 -0.7767  1.2802 -0.9496
 5643SOL    HW227859   1.443   4.309   5.111  0.5956  1.1357  0.6951
 5644SOL     OW27860   9.573   6.450   4.383 -0.0839 -0.0411  0.0537
 5644SOL    HW127861   9.564   6.539   4.340  0.8506  0.6704  1.3015
 5644SOL    HW227862   9.557   6.378   4.315 -0.6659  1.0617 -0.9941
 5645SOL     OW27863   6.779   7.348   3.059 -0.1830  0.6759 -0.0451
 5645SOL    HW127864   6.787   7.388   2.968 -1.4032  2.0615  0.4365
 5645SOL    HW227865   6.684   7.354   3.090  0.3697  0.9764  1.6505
 5646SOL     OW27866   9.631   1.161   2.982  0.5293 -0.5363  0.5016
 5646SOL    HW127867   9.600   1.084   3.038 -0.3258  0.4740  1.4453
 5646SOL    HW227868   9.611   1.247   3.029  1.3539  0.2798 -0.5955
 5647SOL     OW27869   3.713   1.189   1.624 -0.0474 -0.0435  0.0487
 5647SOL    HW127870   3.761   1.263   1.670 -1.5235  1.0125 -0.0548
 5647SOL    HW227871   3.619   1.184   1.658  0.0781 -1.9835  0.1680
 5648SOL     OW27872   9.290   6.122   4.404 -0.3412  0.0192  0.1079
 5648SOL    HW127873   9.282   6.084   4.312 -0.7530  0.6715 -0.1321
 5648SOL    HW227874   9.291   6.222   4.399 -0.7842  0.0642  0.8455
 5649SOL     OW27875   9.083   7.968   4.283 -0.1169 -0.7907  0.1511
 5649SOL    HW127876   9.053   7.874   4.272 -0.8809 -0.6459  0.8512
 5649SOL    HW227877   9.179   7.970   4.313 -0.8741 -1.4513  2.7520
 5650SOL     OW27878   3.107   6.158   1.489  0.0470 -0.1554  0.6188
 5650SOL    HW127879   3.133   6.162   1.586 -1.8647  0.6281  1.1332
 5650SOL    HW227880   3.008   6.143   1.483 -0.0893  1.4739 -1.2232
 5651SOL     OW27881   2.869   2.785   1.359 -0.0599  0.1431  0.2477
 5651SOL    HW127882   2.949   2.842   1.339 -0.5381  0.5295 -0.6125
 5651SOL    HW227883   2.875   2.701   1.305 -0.7063  0.6001 -0.5373
 5652SOL     OW27884   3.956   9.189   0.659 -0.5167 -0.0693 -0.0550
 5652SOL    HW127885   3.900   9.236   0.727 -0.9771  0.1296 -0.5707
 5652SOL    HW227886   3.965   9.245   0.577  1.6889  0.5613  0.5784
 5653SOL     OW27887   4.517   2.943   3.961 -0.1577  0.1332  0.0372
 5653SOL    HW127888   4.453   3.009   3.922 -0.5712 -0.3977 -0.2059
 5653SOL    HW227889   4.596   2.933   3.902 -0.1248  0.3699  0.0438
 5654SOL     OW27890   0.805   7.615   5.455  0.5845  0.0826  0.6366
 5654SOL    HW127891   0.847   7.666   5.381  1.6530  0.6221  1.6009
 5654SOL    HW227892   0.825   7.517   5.445  1.5093  0.2621  0.7263
 5655SOL     OW27893   0.855   3.908   0.821 -0.2354  0.1681 -0.0958
 5655SOL    HW127894   0.922   3.910   0.748 -0.6965  0.5411 -0.5117
 5655SOL    HW227895   0.878   3.977   0.890 -0.3697  0.5326 -0.4074
 5656SOL     OW27896   9.239   4.718   1.087  0.6841  0.0518  0.1852
 5656SOL    HW127897   9.308   4.721   1.015 -0.4262  0.2010 -0.8785
 5656SOL    HW227898   9.277   4.672   1.167  1.5652 -1.0778 -0.8614
 5657SOL     OW27899   8.401   9.354   4.802  0.7289 -0.3068 -0.6023
 5657SOL    HW127900   8.413   9.330   4.706  0.5200  0.0759 -0.7218
 5657SOL    HW227901   8.378   9.451   4.810  0.7831 -0.3302 -0.1649
 5658SOL     OW27902   8.577   7.506   2.918  0.0424 -0.2530  0.5922
 5658SOL    HW127903   8.489   7.463   2.939 -0.7789  0.7051 -0.8630
 5658SOL    HW227904   8.578   7.598   2.956  0.5074 -0.3460  0.8003
 5659SOL     OW27905   3.560   4.590   1.620  0.5879 -0.1100 -0.0652
 5659SOL    HW127906   3.512   4.510   1.654 -0.1521  0.3364 -0.0421
 5659SOL    HW227907   3.609   4.567   1.535 -1.2793 -0.0822 -1.1700
 5660SOL     OW27908   4.818   0.544   4.372  0.0727 -0.6282 -0.4317
 5660SOL    HW127909   4.744   0.509   4.315  0.5794 -0.4923 -1.1883
 5660SOL    HW227910   4.904   0.538   4.321  0.4727 -0.1490  0.1810
 5661SOL     OW27911   3.457   0.413   4.692 -0.2915 -0.1864  0.3595
 5661SOL    HW127912   3.477   0.367   4.778  1.2817  1.0271  0.6539
 5661SOL    HW227913   3.372   0.465   4.701  0.1555  0.3755  1.3503
 5662SOL     OW27914   2.338   3.585   4.550  0.1251 -0.2791 -0.0975
 5662SOL    HW127915   2.293   3.544   4.472  0.6023  0.5570 -0.8219
 5662SOL    HW227916   2.291   3.669   4.576  1.0425  0.4135 -0.6355
 5663SOL     OW27917   4.284   0.292   3.710 -0.9221  0.0300  0.5505
 5663SOL    HW127918   4.289   0.204   3.663 -0.2419 -0.5646  1.7316
 5663SOL    HW227919   4.372   0.339   3.702 -0.3816 -0.6454  2.3163
 5664SOL     OW27920   0.459   5.914   5.163 -0.0427 -0.0487  0.1184
 5664SOL    HW127921   0.454   5.821   5.199  0.2538 -0.7056 -1.4879
 5664SOL    HW227922   0.373   5.936   5.116 -0.5656  0.9310  1.4958
 5665SOL     OW27923   8.846   8.645   5.400 -0.1894  0.5219 -0.2319
 5665SOL    HW127924   8.843   8.562   5.457 -0.4486  0.4679 -0.3265
 5665SOL    HW227925   8.883   8.622   5.310 -0.9755  0.3617 -0.5134
 5666SOL     OW27926   1.439   9.053   4.082  0.1428 -0.1972  0.1708
 5666SOL    HW127927   1.399   8.965   4.107 -1.4141  0.4086 -0.1214
 5666SOL    HW227928   1.442   9.113   4.162  0.8119 -0.3672  0.2747
 5667SOL     OW27929   5.520   8.564   3.344  0.0971 -0.4632 -0.0467
 5667SOL    HW127930   5.498   8.650   3.390  0.2253 -0.4436 -0.0247
 5667SOL    HW227931   5.566   8.582   3.258  0.5273 -0.5237  0.1707
 5668SOL     OW27932   5.258   7.664   2.980  0.8523  0.6095 -0.2899
 5668SOL    HW127933   5.162   7.635   2.982  1.4320 -1.3160  1.0276
 5668SOL    HW227934   5.303   7.627   2.899  0.5083  1.5392 -0.9254
 5669SOL     OW27935   1.560   1.036   4.049 -0.0265  0.5357 -0.9091
 5669SOL    HW127936   1.485   0.974   4.072  0.3997  0.4365  0.2403
 5669SOL    HW227937   1.527   1.130   4.048 -0.0816  0.5249 -0.0385
 5670SOL     OW27938   2.606   7.994   2.594 -0.4414  0.1789  0.4143
 5670SOL    HW127939   2.641   8.058   2.663  1.7585 -0.4358 -0.0646
 5670SOL    HW227940   2.614   7.900   2.629  1.7738 -0.2322 -1.0488
 5671SOL     OW27941   3.486   2.966   1.538 -0.0984  0.3648 -0.2536
 5671SOL    HW127942   3.483   3.062   1.564  0.1553 -0.4691  3.1616
 5671SOL    HW227943   3.576   2.944   1.500  1.0262  0.8008  2.0525
 5672SOL     OW27944   1.116   6.232   0.315 -0.3028  0.2248 -0.5381
 5672SOL    HW127945   1.090   6.227   0.219 -1.5215  0.7034 -0.2414
 5672SOL    HW227946   1.035   6.254   0.370  0.3876 -0.0402  0.5918
 5673SOL     OW27947   9.062   3.734   3.872 -0.0072 -0.3306 -0.3595
 5673SOL    HW127948   8.982   3.794   3.867  1.5017  1.8275  0.5863
 5673SOL    HW227949   9.129   3.761   3.803  1.5168  0.4100  1.3429
 5674SOL     OW27950   2.427   1.122   1.011  0.4319 -0.4576  0.1448
 5674SOL    HW127951   2.391   1.214   1.001  0.4155 -0.1484  2.7113
 5674SOL    HW227952   2.483   1.116   1.094  0.9833 -2.5867 -0.3278
 5675SOL     OW27953   5.754   9.746   1.423 -0.1329 -0.0304 -0.5304
 5675SOL    HW127954   5.779   9.814   1.493  0.1873  1.8130 -2.3902
 5675SOL    HW227955   5.657   9.721   1.435  0.0180 -0.0445  0.8065
 5676SOL     OW27956   0.991   2.249   1.019  0.1256  0.0067 -0.1559
 5676SOL    HW127957   1.066   2.202   1.066 -1.2382  0.9583  3.1034
 5676SOL    HW227958   0.956   2.322   1.077 -2.9927 -0.0290 -1.8834
 5677SOL     OW27959   3.929   4.595   3.575  0.2959 -0.2507 -0.4867
 5677SOL    HW127960   4.006   4.541   3.542  1.2118 -0.4094  1.8780
 5677SOL    HW227961   3.844   4.556   3.539  0.8425 -3.9067  1.9086
 5678SOL     OW27962   2.923   3.259   0.350  0.6832 -0.3946 -0.9926
 5678SOL    HW127963   2.891   3.233   0.259 -1.8933 -1.2357  0.1382
 5678SOL    HW227964   2.997   3.198   0.378 -2.1935 -3.7129 -0.2806
 5679SOL     OW27965   4.111   8.000   2.398  0.1692  0.2208 -0.2113
 5679SOL    HW127966   4.162   7.936   2.455 -0.8061  0.9314  1.5162
 5679SOL    HW227967   4.026   8.026   2.445  0.4151  2.5545 -0.9968
 5680SOL     OW27968   1.208   6.055   1.136  0.2458 -0.0928 -0.5556
 5680SOL    HW127969   1.294   6.057   1.186  0.2678  0.0087 -0.5970
 5680SOL    HW227970   1.137   6.101   1.190  0.1853 -0.3025 -0.4599
 5681SOL     OW27971   2.592   8.318   5.563 -0.2416 -0.2021 -0.4253
 5681SOL    HW127972   2.496   8.296   5.582 -0.0207  0.8850  2.1831
 5681SOL    HW227973   2.605   8.417   5.569  1.0665 -0.3440 -0.7248
 5682SOL     OW27974   1.347   6.573   0.126  1.0489  0.0047  0.0462
 5682SOL    HW127975   1.271   6.638   0.119  0.3829 -0.8565 -0.8338
 5682SOL    HW227976   1.321   6.498   0.186  0.8820 -0.7236 -0.9268
 5683SOL     OW27977   2.896   4.524   5.364  0.1888 -0.1874  0.0345
 5683SOL    HW127978   2.966   4.520   5.292  0.9874  1.2272  0.7154
 5683SOL    HW227979   2.876   4.431   5.395  2.0643 -0.6050  0.0941
 5684SOL     OW27980   0.405   1.037   4.368 -0.1929  0.1415  0.2617
 5684SOL    HW127981   0.329   1.061   4.307  2.4954  2.2364 -2.4224
 5684SOL    HW227982   0.401   1.095   4.450 -2.3287 -0.8710  0.9289
 5685SOL     OW27983   8.490   5.285   4.591  0.0379  0.5152 -0.1031
 5685SOL    HW127984   8.518   5.194   4.622 -0.8047  0.0153 -0.7690
 5685SOL    HW227985   8.569   5.337   4.561  0.4335 -0.2996 -0.4850
 5686SOL     OW27986   0.092   6.934   4.831  0.1879  0.4374 -0.2732
 5686SOL    HW127987   0.001   6.972   4.813 -0.1201 -0.9435 -1.8230
 5686SOL    HW227988   0.155   7.007   4.857 -1.0817  1.5708 -0.3241
 5687SOL     OW27989   0.263   3.125   1.722 -0.1111 -0.7054 -0.3506
 5687SOL    HW127990   0.183   3.186   1.724  0.4426 -0.0032  0.9378
 5687SOL    HW227991   0.285   3.096   1.815  1.9684  0.2240 -0.5219
 5688SOL     OW27992   0.204   1.129   0.060  0.0182 -0.2712  0.9799
 5688SOL    HW127993   0.131   1.192   0.085 -0.3265 -1.0866  2.0491
 5688SOL    HW227994   0.293   1.169   0.084 -0.1996 -0.2200  1.6921
 5689SOL     OW27995   2.556   2.850   4.332  0.2898 -0.2603  0.1292
 5689SOL    HW127996   2.554   2.913   4.410 -1.9928  2.9029 -2.3620
 5689SOL    HW227997   2.473   2.793   4.333 -0.0816  0.2693 -0.3623
 5690SOL     OW27998   1.712   8.174   2.100 -0.0958 -0.0067  0.2979
 5690SOL    HW127999   1.641   8.124   2.050 -0.2516  0.4118  0.0923
 5690SOL    HW228000   1.672   8.217   2.181  0.2491 -1.0530  1.0306
 5691SOL     OW28001   2.444   0.191   0.032  0.2378 -0.4101  0.2537
 5691SOL    HW128002   2.491   0.277   0.012  1.7513 -1.5172 -1.1107
 5691SOL    HW228003   2.401   0.156  -0.050  0.4467 -1.4329  0.5673
 5692SOL     OW28004   7.352   7.418   1.950  0.5877 -0.0783 -0.2902
 5692SOL    HW128005   7.299   7.390   1.869 -1.5962 -0.3385  1.1769
 5692SOL    HW228006   7.335   7.515   1.969  1.6200  0.1500 -0.5385
 5693SOL     OW28007   4.491   7.065   1.217  0.4195  0.0669 -0.0451
 5693SOL    HW128008   4.468   6.988   1.278  0.2733 -0.7870 -1.1688
 5693SOL    HW228009   4.460   7.044   1.125 -1.3861  2.3206  0.0097
 5694SOL     OW28010   0.875   6.253   0.431  0.0874  0.2821  0.3620
 5694SOL    HW128011   0.822   6.310   0.368  1.8796  0.6218 -0.8636
 5694SOL    HW228012   0.818   6.176   0.462 -0.9223  0.2665 -1.4471
 5695SOL     OW28013   1.447   3.922   0.470 -0.0207  0.2362  0.1446
 5695SOL    HW128014   1.384   3.931   0.393 -0.9670 -2.3677  0.5782
 5695SOL    HW228015   1.397   3.931   0.556  0.8423  1.9683  0.4900
 5696SOL     OW28016   3.107   6.817   2.486  0.0891 -0.0857  0.2579
 5696SOL    HW128017   3.033   6.767   2.441 -0.4608 -0.5084  1.6068
 5696SOL    HW228018   3.098   6.807   2.585  2.6248 -1.1410  0.4298
 5697SOL     OW28019   1.145   2.500   3.403  0.5719 -0.2738 -0.4521
 5697SOL    HW128020   1.219   2.447   3.444  0.0523 -2.4299 -2.1546
 5697SOL    HW228021   1.180   2.556   3.329  0.7074 -0.2746 -0.3877
 5698SOL     OW28022   2.895   5.269   4.051  0.3309 -0.2871 -0.2135
 5698SOL    HW128023   2.798   5.270   4.029  0.1047  3.1082  0.7474
 5698SOL    HW228024   2.907   5.255   4.150  0.9549 -3.0535 -0.6255
 5699SOL     OW28025   7.886   0.040   3.470  0.1826  0.5301  0.1533
 5699SOL    HW128026   7.970   0.052   3.418 -0.9131  2.1724 -1.2883
 5699SOL    HW228027   7.859   0.127   3.511 -2.5562  0.8917 -2.1886
 5700SOL     OW28028   5.375   0.024   3.654  0.3758 -0.4072  0.3287
 5700SOL    HW128029   5.386  -0.075   3.644  0.7477 -0.1755 -1.7195
 5700SOL    HW228030   5.439   0.071   3.594  1.2217  1.1143  2.3736
 5701SOL     OW28031   1.115   5.899   3.641  0.1839 -0.7147  0.3510
 5701SOL    HW128032   1.020   5.887   3.612  0.9541 -0.2967 -2.5033
 5701SOL    HW228033   1.135   5.996   3.650  0.2421 -0.8151  1.3202
 5702SOL     OW28034   2.358   9.096   1.310 -0.1353 -0.2584 -0.1555
 5702SOL    HW128035   2.259   9.101   1.319 -0.2836 -2.8249  0.0776
 5702SOL    HW228036   2.382   9.081   1.214  0.1271  1.8293 -0.4360
 5703SOL     OW28037   0.827   0.258   5.296 -0.6257 -0.7831  0.2238
 5703SOL    HW128038   0.830   0.255   5.395 -0.7236 -0.1877  0.2484
 5703SOL    HW228039   0.786   0.174   5.261 -0.5298 -1.0214  0.6828
 5704SOL     OW28040   3.617   9.141   4.847 -0.4984  0.1038 -0.1296
 5704SOL    HW128041   3.558   9.206   4.896 -1.5026 -0.5780 -0.4051
 5704SOL    HW228042   3.672   9.189   4.780 -0.0173  0.8848  0.8074
 5705SOL     OW28043   3.794   4.376   3.886  0.3849 -0.1663  0.3801
 5705SOL    HW128044   3.846   4.305   3.935  0.6351 -0.2152  0.0489
 5705SOL    HW228045   3.855   4.452   3.864  1.0532 -1.4412 -2.4942
 5706SOL     OW28046   1.586   4.691   3.909  0.1495 -0.3762  0.0595
 5706SOL    HW128047   1.588   4.783   3.870 -0.0530 -0.4897 -0.2233
 5706SOL    HW228048   1.495   4.672   3.945  0.0121 -0.6951 -0.4470
 5707SOL     OW28049   0.302   4.035   5.196  0.4089  0.5329  0.1097
 5707SOL    HW128050   0.341   4.116   5.240  1.9475  0.6059 -1.3470
 5707SOL    HW228051   0.345   4.021   5.107 -0.3164 -1.5135  0.0523
 5708SOL     OW28052   3.730   2.900   4.226  0.2927 -0.2412  0.2130
 5708SOL    HW128053   3.711   2.908   4.324 -0.3086  0.9776  0.0078
 5708SOL    HW228054   3.664   2.838   4.184  0.1094 -0.2141  0.4585
 5709SOL     OW28055   3.130   3.718   1.769 -0.2121  0.3190 -0.5945
 5709SOL    HW128056   3.207   3.655   1.770  1.9766  2.8352 -2.3955
 5709SOL    HW228057   3.066   3.691   1.697  0.4165 -0.1624 -0.9809
 5710SOL     OW28058   3.251   4.824   4.320  0.9136  0.6197  1.1211
 5710SOL    HW128059   3.214   4.903   4.271  0.4456  1.5249  2.8753
 5710SOL    HW228060   3.302   4.856   4.400 -0.1290 -0.8936  2.4217
 5711SOL     OW28061   1.120   1.489   4.992 -0.1078 -0.1397  0.2246
 5711SOL    HW128062   1.102   1.588   4.994 -0.7871 -0.2550 -0.0466
 5711SOL    HW228063   1.200   1.472   4.935  0.6368  0.3463  1.1242
 5712SOL     OW28064   8.368   3.773   0.079  0.6325  0.2202 -0.2938
 5712SOL    HW128065   8.412   3.860   0.099 -0.4269  0.5575  0.6257
 5712SOL    HW228066   8.272   3.789   0.055  0.8870 -0.5369 -1.8735
 5713SOL     OW28067   2.672   9.960   2.920  0.0505  0.2321  0.0511
 5713SOL    HW128068   2.636   9.949   2.827 -0.4787  0.3251  0.2456
 5713SOL    HW228069   2.601   9.996   2.980  0.8205  1.6488  0.1554
 5714SOL     OW28070   5.214   9.249   2.575 -0.6643  0.3626  0.0135
 5714SOL    HW128071   5.228   9.271   2.478 -2.4160 -1.0040 -0.5776
 5714SOL    HW228072   5.227   9.151   2.589  1.3720  0.8239  1.5323
 5715SOL     OW28073   0.571   0.467   2.043  0.0497 -0.3517  0.5660
 5715SOL    HW128074   0.632   0.413   1.985  0.0032 -0.9053  1.0228
 5715SOL    HW228075   0.476   0.452   2.015  0.2354  2.7880 -2.0803
 5716SOL     OW28076   7.150   1.609   0.486 -0.0863 -0.2427 -0.0381
 5716SOL    HW128077   7.133   1.553   0.405  0.1721 -1.5215  0.7755
 5716SOL    HW228078   7.081   1.589   0.555  1.1119 -0.9589  0.9737
 5717SOL     OW28079   0.575   0.452   3.175 -0.7367  0.1950  0.1057
 5717SOL    HW128080   0.532   0.366   3.203 -0.8539  0.5204  0.9461
 5717SOL    HW228081   0.588   0.453   3.076 -1.5420 -0.4240 -0.0048
 5718SOL     OW28082   1.868   6.062   3.015  0.4734  0.0952  0.2755
 5718SOL    HW128083   1.875   5.969   3.053  0.4116 -0.4866 -1.0903
 5718SOL    HW228084   1.774   6.077   2.982  0.6497  0.4162 -0.0803
 5719SOL     OW28085   2.495   1.527   2.754 -0.0295 -0.1260 -0.3538
 5719SOL    HW128086   2.574   1.484   2.798 -1.1364 -1.4915  0.3359
 5719SOL    HW228087   2.465   1.471   2.677 -0.1722  0.5331 -0.7829
 5720SOL     OW28088   8.108   8.422   1.130 -0.1495 -0.1325  0.1617
 5720SOL    HW128089   8.122   8.466   1.041 -0.3375  0.0106  0.2019
 5720SOL    HW228090   8.011   8.426   1.154 -0.3408 -1.5138 -0.3322
 5721SOL     OW28091   2.094   7.925   1.792  0.4201  0.1702 -0.2319
 5721SOL    HW128092   2.042   7.970   1.720 -1.9883 -1.4684  0.4294
 5721SOL    HW228093   2.149   7.851   1.753 -0.4770 -0.3712 -0.4860
 5722SOL     OW28094   8.992   9.588   4.330 -0.6140  0.2207  0.1385
 5722SOL    HW128095   8.962   9.663   4.389 -0.0114  1.8998 -1.6333
 5722SOL    HW228096   9.073   9.545   4.371 -1.0738  0.3973  1.2650
 5723SOL     OW28097   7.661   1.075   5.060 -0.1208 -0.4447 -0.1505
 5723SOL    HW128098   7.653   1.053   5.157  0.8504  1.8018  0.4439
 5723SOL    HW228099   7.573   1.108   5.026 -0.2700 -0.5599  0.1227
 5724SOL     OW28100   6.418   7.210   3.593 -0.1544  0.1338  0.1470
 5724SOL    HW128101   6.354   7.235   3.666 -0.8199  1.2625 -0.8175
 5724SOL    HW228102   6.391   7.121   3.555 -0.4943  0.0901  0.4819
 5725SOL     OW28103   9.594   9.593   2.079 -0.5183 -0.6224  0.2046
 5725SOL    HW128104   9.587   9.567   1.983  0.6889 -1.1866  0.2595
 5725SOL    HW228105   9.684   9.634   2.096 -0.5464 -0.9402  1.1840
 5726SOL     OW28106   9.763   3.774   1.121  0.1742 -0.3565  0.7385
 5726SOL    HW128107   9.841   3.831   1.147 -0.0640  0.3805 -0.1198
 5726SOL    HW228108   9.757   3.771   1.021  0.0294 -1.6875  0.7901
 5727SOL     OW28109   0.835   5.745   0.226  0.5084 -0.4906 -0.1477
 5727SOL    HW128110   0.921   5.786   0.259  0.0572 -0.0649  0.5096
 5727SOL    HW228111   0.804   5.795   0.145  1.1286 -0.9441 -0.6665
 5728SOL     OW28112   0.363   8.133   3.479  0.0720 -0.5778  0.2240
 5728SOL    HW128113   0.273   8.122   3.522 -0.5717  0.2260 -0.9027
 5728SOL    HW228114   0.365   8.218   3.427  1.6462 -0.3757  0.6070
 5729SOL     OW28115   2.459   5.848   2.341 -0.1628 -0.2858 -0.0569
 5729SOL    HW128116   2.409   5.769   2.377  0.7998 -0.9906 -0.2682
 5729SOL    HW228117   2.473   5.914   2.415 -3.2307  0.8878 -0.4576
 5730SOL     OW28118   9.912   1.535   2.886 -0.4027 -0.2787 -0.2033
 5730SOL    HW128119   9.815   1.550   2.865 -0.6047 -2.5658 -1.0449
 5730SOL    HW228120   9.966   1.537   2.802  0.2070  0.4502  0.2007
 5731SOL     OW28121   8.506   2.734   5.302 -0.0504 -0.1707  0.1718
 5731SOL    HW128122   8.606   2.738   5.301 -0.0439 -0.3352 -1.6264
 5731SOL    HW228123   8.471   2.803   5.366  1.1366  3.0522 -2.4696
 5732SOL     OW28124   6.307   1.633   2.191  0.1581 -0.4764 -0.2882
 5732SOL    HW128125   6.220   1.641   2.241  1.0325  0.9439  1.0623
 5732SOL    HW228126   6.347   1.543   2.209 -0.6277 -0.8209 -0.2320
 5733SOL     OW28127   1.668   3.546   1.688  0.4952 -0.1699 -0.1276
 5733SOL    HW128128   1.596   3.483   1.660 -1.1696  1.2689  0.7785
 5733SOL    HW228129   1.663   3.629   1.632  1.3163  0.0286  0.0921
 5734SOL     OW28130   7.902   9.801   4.944 -0.1893  0.1910 -0.2374
 5734SOL    HW128131   7.876   9.817   4.848  0.6960  1.9789 -0.1959
 5734SOL    HW228132   7.856   9.719   4.977 -1.0528 -0.0623 -1.9894
 5735SOL     OW28133   0.906   3.881   2.683 -0.4771  0.1121 -0.3038
 5735SOL    HW128134   1.004   3.886   2.667 -0.1904  0.7861  1.5129
 5735SOL    HW228135   0.878   3.785   2.690 -0.1813 -0.1213 -2.0238
 5736SOL     OW28136   8.838   7.602   0.429  0.1324  0.0573  0.1169
 5736SOL    HW128137   8.747   7.610   0.470 -0.7737  1.9184 -2.1436
 5736SOL    HW228138   8.887   7.688   0.441  0.4852  0.0431 -1.1619
 5737SOL     OW28139   1.418   4.549   4.125  0.2556 -0.2950 -0.6205
 5737SOL    HW128140   1.328   4.526   4.161  1.2726 -4.2941 -0.4747
 5737SOL    HW228141   1.476   4.584   4.199 -0.5341  0.3522 -0.3064
 5738SOL     OW28142   8.471   7.281   0.996 -0.2841  0.1284  0.4035
 5738SOL    HW128143   8.518   7.198   0.968  1.2731  0.4141  2.0784
 5738SOL    HW228144   8.375   7.261   1.016 -0.2393 -0.9773 -0.4682
 5739SOL     OW28145   3.104   4.059   5.348 -0.0959 -0.0528 -0.0246
 5739SOL    HW128146   3.056   4.112   5.418  0.0955 -0.8175  0.6870
 5739SOL    HW228147   3.040   4.036   5.274  0.1835  2.5075 -1.1289
 5740SOL     OW28148   0.584   9.478   3.106  0.4055 -0.1601 -0.3842
 5740SOL    HW128149   0.493   9.435   3.103 -0.1035  0.9544 -1.6744
 5740SOL    HW228150   0.603   9.522   3.018  2.4693 -0.9067 -0.3266
 5741SOL     OW28151   1.713   5.513   2.962  0.3955 -0.2146 -0.4148
 5741SOL    HW128152   1.749   5.595   2.918  1.4425 -0.1178  0.5942
 5741SOL    HW228153   1.754   5.432   2.921  0.5779 -0.1671 -0.3270
 5742SOL     OW28154   2.403   1.453   5.574  0.1275 -0.0050  0.0364
 5742SOL    HW128155   2.464   1.485   5.501 -0.4020 -0.0700 -0.4420
 5742SOL    HW228156   2.437   1.367   5.611 -0.6088 -0.9664 -1.4405
 5743SOL     OW28157   1.468   5.893   4.199  0.0115 -0.1085  0.4533
 5743SOL    HW128158   1.436   5.966   4.138 -0.5972  0.8367  1.8680
 5743SOL    HW228159   1.568   5.900   4.209  0.1548 -0.4590 -0.6559
 5744SOL     OW28160   3.898   8.480   5.288  0.0398 -0.1538 -0.4541
 5744SOL    HW128161   3.935   8.494   5.380 -0.1248 -0.3225 -0.3620
 5744SOL    HW228162   3.970   8.447   5.228 -0.6152 -3.5126  0.4627
 5745SOL     OW28163   9.922   0.051   3.697 -0.2232 -0.1776  0.3823
 5745SOL    HW128164   9.892   0.056   3.793  0.6932 -0.2266  0.6794
 5745SOL    HW228165  10.010   0.004   3.692 -0.8983 -1.3638 -0.6433
 5746SOL     OW28166   4.046   1.844   4.521  0.3020  0.4530 -0.2021
 5746SOL    HW128167   4.051   1.813   4.426  1.6593  0.8461 -0.2698
 5746SOL    HW228168   4.135   1.878   4.550 -0.9889  3.9198 -0.0099
 5747SOL     OW28169   9.905   8.116   0.021  0.0777 -0.3994 -0.4100
 5747SOL    HW128170   9.996   8.074   0.013 -0.2558 -0.8816 -1.7702
 5747SOL    HW228171   9.840   8.048   0.057  0.5923  0.4282  2.1747
 5748SOL     OW28172   8.690   4.166   4.616 -0.1482  0.4048  0.3522
 5748SOL    HW128173   8.684   4.266   4.609  1.6647  0.4804 -0.5252
 5748SOL    HW228174   8.599   4.128   4.629 -0.9806  2.1156 -0.2995
 5749SOL     OW28175   3.953   2.668   2.236  0.0822 -0.0907 -0.8127
 5749SOL    HW128176   4.015   2.590   2.245 -1.0255 -0.8660  0.2478
 5749SOL    HW228177   3.872   2.653   2.292 -0.5790  1.4067 -1.3361
 5750SOL     OW28178   8.473   9.316   2.743 -0.1877 -0.2054  0.2788
 5750SOL    HW128179   8.573   9.309   2.748 -0.0870  0.2406 -1.1282
 5750SOL    HW228180   8.443   9.399   2.790  0.1287 -0.1498  0.3807
 5751SOL     OW28181   6.104   6.590   3.191  0.1877 -0.1710  0.1636
 5751SOL    HW128182   6.131   6.677   3.149 -1.1795 -0.1881 -0.7874
 5751SOL    HW228183   6.125   6.593   3.289  2.3262  0.3139 -0.2829
 5752SOL     OW28184   2.614   1.755   4.892  0.3674  0.2762 -0.2931
 5752SOL    HW128185   2.599   1.665   4.931  0.6643 -0.2600 -1.3954
 5752SOL    HW228186   2.614   1.824   4.965 -1.6140 -0.3924  0.3482
 5753SOL     OW28187   3.947   8.293   2.763  0.8420 -0.3068 -0.1219
 5753SOL    HW128188   4.039   8.313   2.731  0.3362 -0.1698 -1.5287
 5753SOL    HW228189   3.888   8.372   2.748 -0.0653 -1.2094 -1.4462
 5754SOL     OW28190   2.413   9.097   1.016  0.1955  0.0128  0.2796
 5754SOL    HW128191   2.350   9.023   0.994 -0.8246  1.2873 -1.1572
 5754SOL    HW228192   2.374   9.184   0.988  2.1389  0.9372  0.3533
 5755SOL     OW28193   0.681   9.787   4.361 -0.6605  1.1417  0.0365
 5755SOL    HW128194   0.619   9.780   4.283 -0.4634  1.5000 -0.1556
 5755SOL    HW228195   0.707   9.883   4.374  0.0493  0.9586 -0.0398
 5756SOL     OW28196   5.035   2.941   1.690 -0.2130  0.0538 -0.2805
 5756SOL    HW128197   4.986   3.027   1.708 -1.2429 -0.1959 -1.7934
 5756SOL    HW228198   4.976   2.864   1.711  0.6365 -0.3012  0.8600
 5757SOL     OW28199   6.561   8.071   3.941 -0.0830 -0.0758  0.4138
 5757SOL    HW128200   6.536   8.156   3.986 -1.0912 -1.0165  1.6877
 5757SOL    HW228201   6.660   8.067   3.929  0.1569  0.4050  2.1324
 5758SOL     OW28202   2.281   0.172   4.725 -0.5662  0.1340  0.4075
 5758SOL    HW128203   2.258   0.229   4.804  0.5366 -0.5126  1.2098
 5758SOL    HW228204   2.303   0.079   4.756  0.4088  0.0186 -0.6018
 5759SOL     OW28205   3.200   6.285   5.439 -0.5203 -0.3100 -0.5108
 5759SOL    HW128206   3.186   6.320   5.532  0.5282 -1.2904  0.0271
 5759SOL    HW228207   3.217   6.362   5.377  0.1508  0.2605  0.3673
 5760SOL     OW28208   9.995   5.990   0.875  0.0033  0.1104  0.3035
 5760SOL    HW128209   9.903   6.030   0.869 -0.3710 -0.6870  0.5699
 5760SOL    HW228210  10.044   6.006   0.790 -1.0251 -1.0141 -0.5180
 5761SOL     OW28211   3.668   7.487   4.802  0.2376  0.1831 -0.3505
 5761SOL    HW128212   3.598   7.468   4.733  0.7699 -1.0129 -0.5718
 5761SOL    HW228213   3.756   7.451   4.771  0.6273  0.2831  0.6252
 5762SOL     OW28214   9.090   3.889   4.201  0.0092 -0.0063  0.2763
 5762SOL    HW128215   8.991   3.902   4.193 -0.2319 -1.8539  0.2367
 5762SOL    HW228216   9.135   3.976   4.183 -1.5031  0.4121 -1.7121
 5763SOL     OW28217   4.755   9.692   0.309 -0.0153  0.2840  0.4631
 5763SOL    HW128218   4.741   9.650   0.398 -1.2788 -0.1863  0.0595
 5763SOL    HW228219   4.798   9.781   0.320 -0.1461  0.2215  1.5436
 5764SOL     OW28220   0.826   7.195   0.581  0.4111 -0.2469 -0.0851
 5764SOL    HW128221   0.894   7.246   0.634  0.7804 -0.8662  0.0417
 5764SOL    HW228222   0.845   7.203   0.484  1.0971 -1.0162 -0.0190
 5765SOL     OW28223   2.264   6.997   4.726 -0.6989 -0.1544  0.1197
 5765SOL    HW128224   2.362   7.011   4.712 -0.4066 -0.9813  1.2544
 5765SOL    HW228225   2.234   6.915   4.678 -0.9625  0.4171 -0.7046
 5766SOL     OW28226   8.567   2.877   2.988 -0.2216  0.3791  0.1148
 5766SOL    HW128227   8.480   2.903   3.030 -0.8329  0.8079 -1.3818
 5766SOL    HW228228   8.606   2.957   2.943  0.2499 -0.1588 -0.4329
 5767SOL     OW28229   2.844   3.615   1.584  0.1589  0.3852 -0.1327
 5767SOL    HW128230   2.856   3.714   1.589  0.4319  0.3019  0.9352
 5767SOL    HW228231   2.759   3.590   1.630  0.5446  0.0317  0.3874
 5768SOL     OW28232   1.465   7.740   2.047  0.8054 -0.0073  0.2897
 5768SOL    HW128233   1.536   7.712   2.112  1.0866 -0.5745 -0.2577
 5768SOL    HW228234   1.378   7.697   2.074  0.8019  0.1978  0.6075
 5769SOL     OW28235   0.157   3.696   4.038  0.0297 -0.6478 -0.1712
 5769SOL    HW128236   0.122   3.628   3.974 -1.8231  0.0434  0.0504
 5769SOL    HW228237   0.083   3.722   4.101  0.4644  2.1869 -0.7934
 5770SOL     OW28238   8.616   7.574   5.088 -0.1226 -0.1458 -0.0375
 5770SOL    HW128239   8.660   7.623   5.163  0.1278 -1.8382  0.9425
 5770SOL    HW228240   8.517   7.590   5.091  0.0129  0.7585 -0.0945
 5771SOL     OW28241   2.261   7.603   3.185  0.8241  0.7194  0.4843
 5771SOL    HW128242   2.272   7.700   3.164 -0.5059  0.8314  0.2642
 5771SOL    HW228243   2.341   7.553   3.153  0.9272  1.5557 -0.6029
 5772SOL     OW28244   6.340   9.236   3.860 -0.4486  0.4935 -0.4574
 5772SOL    HW128245   6.282   9.202   3.933 -3.2198  0.9589 -2.3507
 5772SOL    HW228246   6.391   9.160   3.820  2.0835  0.4341  2.7245
 5773SOL     OW28247   9.034   8.358   2.073  0.1739  0.5875  0.0608
 5773SOL    HW128248   9.051   8.453   2.097 -1.1505  0.3838  1.7986
 5773SOL    HW228249   9.009   8.352   1.976 -0.5097  2.0813  0.1413
 5774SOL     OW28250   8.853   1.711   0.008  0.3683 -0.4825 -0.1153
 5774SOL    HW128251   8.842   1.612   0.013  2.3940 -0.7789 -1.1650
 5774SOL    HW228252   8.922   1.741   0.075 -1.2811  0.4248  1.2332
 5775SOL     OW28253   0.649   4.618   0.163  0.1398  0.0915  0.4204
 5775SOL    HW128254   0.630   4.712   0.190  0.0952  0.2919 -0.3020
 5775SOL    HW228255   0.745   4.609   0.137 -0.2352  0.3252 -1.0916
 5776SOL     OW28256   0.410   2.264   3.727  0.0260 -0.1250 -0.1284
 5776SOL    HW128257   0.368   2.339   3.778 -0.1848 -0.2297 -0.1468
 5776SOL    HW228258   0.477   2.217   3.785 -0.7356 -0.6971  0.2913
 5777SOL     OW28259   1.024   4.187   5.485 -0.3991 -0.0714 -0.4679
 5777SOL    HW128260   0.951   4.118   5.486  0.0758 -0.6004 -1.4538
 5777SOL    HW228261   1.020   4.241   5.569  0.1977 -2.2876  1.0047
 5778SOL     OW28262   1.989   4.296   0.461 -0.2490  0.8429  0.0786
 5778SOL    HW128263   1.963   4.251   0.376 -0.5356  0.1333  0.5398
 5778SOL    HW228264   2.089   4.291   0.472 -0.3379 -0.2849  0.4582
 5779SOL     OW28265   0.679   9.684   0.612 -0.0720 -0.2134 -0.3206
 5779SOL    HW128266   0.641   9.592   0.608 -1.3127  0.3692 -2.9118
 5779SOL    HW228267   0.608   9.750   0.636  0.8534  0.0898  1.7458
 5780SOL     OW28268   6.722   9.917   3.395 -0.3394  0.0933 -0.2815
 5780SOL    HW128269   6.804   9.956   3.437 -0.8388  0.2870  0.5429
 5780SOL    HW228270   6.726   9.817   3.399 -1.3534  0.0968  2.2466
 5781SOL     OW28271   9.118   7.384   3.094 -0.0445  0.5204 -0.2185
 5781SOL    HW128272   9.033   7.398   3.042 -0.5826 -1.5073  0.0669
 5781SOL    HW228273   9.196   7.391   3.032 -0.5898 -0.3733 -1.0287
 5782SOL     OW28274   8.300   0.062   1.940  0.1624  0.6864 -0.6212
 5782SOL    HW128275   8.331  -0.016   1.886  0.9736  0.7201 -0.2076
 5782SOL    HW228276   8.200   0.060   1.947  0.1035  0.3000 -1.5390
 5783SOL     OW28277   1.198   9.436   4.334  0.4844 -0.3157  0.1396
 5783SOL    HW128278   1.285   9.390   4.316  0.4824 -1.2748  2.4093
 5783SOL    HW228279   1.205   9.486   4.421  0.0859  3.0162 -1.6453
 5784SOL     OW28280   9.231   7.263   4.445 -0.0109  0.3027 -0.2335
 5784SOL    HW128281   9.251   7.166   4.460 -0.5444  0.3024  0.5115
 5784SOL    HW228282   9.156   7.292   4.506  0.2029  1.1994 -0.3838
 5785SOL     OW28283   7.911   6.259   5.006  0.2050  0.6105 -0.3356
 5785SOL    HW128284   7.819   6.226   5.025  0.9239 -0.0198  2.2231
 5785SOL    HW228285   7.959   6.194   4.947 -0.1639 -0.3046  0.3724
 5786SOL     OW28286   0.541   9.256   4.632  0.2243  0.1281 -0.6366
 5786SOL    HW128287   0.510   9.180   4.689 -0.9551  0.1376 -1.2350
 5786SOL    HW228288   0.462   9.295   4.584  0.8500  1.5893 -0.5043
 5787SOL     OW28289   9.112   2.201   2.701  0.4862  0.0162 -0.1616
 5787SOL    HW128290   9.122   2.299   2.683  0.6915  0.2143  0.9453
 5787SOL    HW228291   9.019   2.173   2.682 -0.1357  0.8864  1.4737
 5788SOL     OW28292   8.327   1.233   2.214  0.4038 -0.5782 -0.8037
 5788SOL    HW128293   8.411   1.257   2.166  0.8045 -1.7080 -0.6637
 5788SOL    HW228294   8.296   1.143   2.185 -1.8496  0.6304 -2.3233
 5789SOL     OW28295   0.537   9.990   5.443  0.4270 -0.5501 -0.1096
 5789SOL    HW128296   0.583   9.984   5.355 -0.0484  0.1109 -0.4049
 5789SOL    HW228297   0.599  10.031   5.510 -0.3088  2.0015 -0.9362
 5790SOL     OW28298   9.491   4.363   1.825 -0.4629  0.6455  0.2632
 5790SOL    HW128299   9.546   4.414   1.759 -1.5277  0.2386 -0.9534
 5790SOL    HW228300   9.545   4.286   1.860 -0.9430 -1.0152 -2.5099
 5791SOL     OW28301   0.786   1.519   5.124 -0.8356 -0.2375  0.2730
 5791SOL    HW128302   0.787   1.495   5.027 -0.1643 -1.3140  0.5315
 5791SOL    HW228303   0.771   1.436   5.179  0.5950  0.0687  1.1632
 5792SOL     OW28304   3.196   5.265   4.025  0.3584 -0.0744 -0.0263
 5792SOL    HW128305   3.113   5.317   4.002 -0.4820 -0.5122  1.9150
 5792SOL    HW228306   3.239   5.306   4.106 -0.9578 -3.0465  2.2621
 5793SOL     OW28307   8.563   5.311   3.493 -0.6261  0.2490 -0.2750
 5793SOL    HW128308   8.581   5.233   3.554 -1.1054  3.1782  3.8322
 5793SOL    HW228309   8.465   5.315   3.471 -0.4647 -0.7739 -1.2015
 5794SOL     OW28310   9.235   7.422   2.583 -0.3247  0.2571  0.0996
 5794SOL    HW128311   9.237   7.519   2.560  0.4621  0.4203  0.8336
 5794SOL    HW228312   9.140   7.392   2.589 -0.6005  1.3628  1.4550
 5795SOL     OW28313   0.037   3.937   3.788 -0.0392  0.0190 -0.6022
 5795SOL    HW128314  -0.035   3.936   3.858  0.8022 -1.6932  0.2762
 5795SOL    HW228315   0.060   4.031   3.765 -2.3467  0.5855 -0.6783
 5796SOL     OW28316   5.854   7.669   1.990 -0.2896 -0.1717 -0.4917
 5796SOL    HW128317   5.868   7.615   1.907  0.2870 -1.2240  0.2718
 5796SOL    HW228318   5.942   7.707   2.020 -0.7558  1.5595 -1.2539
 5797SOL     OW28319   0.569   8.891   1.590 -0.0794 -0.3404 -0.5333
 5797SOL    HW128320   0.618   8.835   1.657 -1.4315 -0.9234 -0.0075
 5797SOL    HW228321   0.509   8.833   1.535  0.5709  0.2195 -1.8596
 5798SOL     OW28322   1.966   7.557   5.564  0.1074 -0.5664 -0.1126
 5798SOL    HW128323   1.999   7.593   5.651  0.7378  0.4858 -0.7818
 5798SOL    HW228324   2.041   7.516   5.513 -0.2754 -1.2603 -0.1247
 5799SOL     OW28325   0.081   6.287   1.337  0.5268 -0.2881  0.1566
 5799SOL    HW128326   0.006   6.334   1.384 -0.2336 -1.5208  0.1895
 5799SOL    HW228327   0.126   6.225   1.401  1.9575  0.8428  0.2975
 5800SOL     OW28328   2.913   5.504   0.986  0.0904  0.2636  0.0205
 5800SOL    HW128329   2.836   5.467   0.935 -0.7602  1.2229  0.5917
 5800SOL    HW228330   2.880   5.543   1.072  1.2530  0.4201  0.4028
 5801SOL     OW28331   0.329   6.711   5.537 -0.5790  0.3625  0.1741
 5801SOL    HW128332   0.342   6.743   5.443  4.8741 -1.6859  0.0582
 5801SOL    HW228333   0.285   6.621   5.534  0.2019 -0.0112 -0.4949
 5802SOL     OW28334   9.034   8.044   1.794 -0.1952 -0.2557 -0.1588
 5802SOL    HW128335   9.103   8.110   1.762 -0.7034  1.0134  1.3224
 5802SOL    HW228336   9.079   7.957   1.815  0.9868  0.6083  0.9597
 5803SOL     OW28337   9.588   9.080   4.262 -0.1336 -0.4422  0.1014
 5803SOL    HW128338   9.609   9.142   4.338 -0.3949  2.6578 -2.2696
 5803SOL    HW228339   9.521   9.012   4.292  0.5918  0.0030  2.9302
 5804SOL     OW28340   4.049   4.208   0.039 -0.3007 -0.2819  0.0520
 5804SOL    HW128341   4.140   4.179   0.067 -0.2193 -1.0460 -0.9782
 5804SOL    HW228342   3.990   4.217   0.120  0.5464 -0.2321  0.6721
 5805SOL     OW28343   4.907   3.688   2.594 -0.3490  0.4524 -0.0002
 5805SOL    HW128344   4.836   3.638   2.545 -1.8381  2.0565  0.4900
 5805SOL    HW228345   4.991   3.687   2.540 -1.4769  0.7406 -1.7870
 5806SOL     OW28346   9.345   8.060   4.445  0.8770 -0.2420 -0.2765
 5806SOL    HW128347   9.408   8.137   4.429  1.7800 -0.9604 -0.1971
 5806SOL    HW228348   9.271   8.090   4.505  0.0361  1.1754 -1.9557
 5807SOL     OW28349   4.641   0.415   0.137  0.4621  0.2591 -0.4945
 5807SOL    HW128350   4.730   0.460   0.149  0.3286  0.8846 -1.7978
 5807SOL    HW228351   4.623   0.402   0.039 -0.5860 -0.4672 -0.2141
 5808SOL     OW28352   3.465   1.817   0.943 -0.2207  0.1664 -0.2648
 5808SOL    HW128353   3.481   1.802   1.041  0.1862  1.5748 -0.1123
 5808SOL    HW228354   3.384   1.766   0.915  0.3557 -1.2208  0.5399
 5809SOL     OW28355   4.754   9.598   2.204  0.5185 -0.4722  0.2578
 5809SOL    HW128356   4.810   9.681   2.196 -1.8895  1.3798  1.7152
 5809SOL    HW228357   4.794   9.538   2.273  2.6250 -0.8604 -1.2435
 5810SOL     OW28358   7.351   9.712   0.525  0.3519 -0.2531  0.0992
 5810SOL    HW128359   7.350   9.614   0.502 -0.1278 -0.2381  0.0417
 5810SOL    HW228360   7.413   9.760   0.462  0.7048 -0.5427  0.2254
 5811SOL     OW28361   9.908   5.264   1.234  0.3046 -0.1926 -0.0136
 5811SOL    HW128362   9.927   5.167   1.222 -1.9696 -0.4516 -1.9273
 5811SOL    HW228363   9.863   5.278   1.323  1.3213 -0.7668  0.6018
 5812SOL     OW28364   3.618   1.570   0.568 -0.1409  0.6753 -0.2725
 5812SOL    HW128365   3.661   1.591   0.656 -1.4156  0.0186  0.5051
 5812SOL    HW228366   3.675   1.607   0.494  1.8374 -0.2934  0.7375
 5813SOL     OW28367   4.512   3.094   2.055  0.2206  0.3615  0.2696
 5813SOL    HW128368   4.538   3.025   1.987  1.7906  0.9510  0.2468
 5813SOL    HW228369   4.422   3.131   2.033  0.5032  0.1832 -1.2043
 5814SOL     OW28370   4.876   8.123   2.672  0.4711  0.2178 -0.2295
 5814SOL    HW128371   4.952   8.060   2.690  0.5887  0.0448 -1.2924
 5814SOL    HW228372   4.792   8.086   2.709  0.9525  0.5361  1.2025
 5815SOL     OW28373   9.251   5.364   1.564  0.6915  0.3588  0.2583
 5815SOL    HW128374   9.266   5.270   1.595 -0.0051 -0.2890 -1.2978
 5815SOL    HW228375   9.190   5.363   1.484  0.2126  2.1788  0.5881
 5816SOL     OW28376   3.907   8.287   0.180  0.2817  0.2210  0.1737
 5816SOL    HW128377   3.958   8.257   0.099 -1.5269  0.2390 -0.9874
 5816SOL    HW228378   3.813   8.253   0.175 -0.1890  1.2626  1.6728
 5817SOL     OW28379   9.821   8.890   5.007  0.1094  0.1852  0.0713
 5817SOL    HW128380   9.722   8.880   5.005  0.2811 -2.2907  1.7043
 5817SOL    HW228381   9.848   8.937   5.091  0.4858 -1.9357  1.1745
 5818SOL     OW28382   9.444   6.728   3.042  0.3078 -0.0111 -0.2597
 5818SOL    HW128383   9.447   6.746   2.943  1.0253  0.3089 -0.1812
 5818SOL    HW228384   9.383   6.651   3.060 -0.2146  0.2480 -0.9099
 5819SOL     OW28385   6.782   0.759   0.515  0.0589  0.2848  0.1022
 5819SOL    HW128386   6.742   0.827   0.454  1.1066  2.0768  1.3450
 5819SOL    HW228387   6.809   0.678   0.463 -1.4768  0.6742 -1.3548
 5820SOL     OW28388   3.959   8.238   1.683 -0.2304  0.0139  0.2610
 5820SOL    HW128389   4.016   8.175   1.736 -1.9230 -0.5471  1.4681
 5820SOL    HW228390   3.874   8.256   1.733 -0.9931  1.0630 -1.3636
 5821SOL     OW28391   8.701   2.621   1.835  1.0738  0.3900 -0.0974
 5821SOL    HW128392   8.764   2.693   1.864  0.9604 -0.0968  1.3738
 5821SOL    HW228393   8.660   2.577   1.915 -1.1846  0.7217 -1.0267
 5822SOL     OW28394   1.116   4.231   4.655  0.2581 -0.2234 -0.5051
 5822SOL    HW128395   1.126   4.320   4.698 -0.9844 -1.1367  1.7697
 5822SOL    HW228396   1.179   4.166   4.698 -1.3587 -1.2660  0.3405
 5823SOL     OW28397   8.608   3.345   1.351 -0.1786 -0.1176 -0.0936
 5823SOL    HW128398   8.572   3.407   1.420 -0.5635  0.7598 -1.0637
 5823SOL    HW228399   8.639   3.260   1.394  1.7299  1.3235  1.4469
 5824SOL     OW28400   6.531   0.225   3.047 -0.4346 -0.2198  0.4532
 5824SOL    HW128401   6.468   0.288   3.002 -1.6184 -1.3540  0.4822
 5824SOL    HW228402   6.480   0.165   3.109  0.7938 -0.5692  1.1401
 5825SOL     OW28403   4.608   8.366   5.037 -0.4815 -0.7310  0.2454
 5825SOL    HW128404   4.655   8.450   5.008 -2.6434  0.4184  0.0042
 5825SOL    HW228405   4.589   8.309   4.957 -1.6493 -0.0696  0.0498
 5826SOL     OW28406   0.887   8.071   2.022 -0.4788 -0.0103  0.2639
 5826SOL    HW128407   0.846   7.987   2.059 -2.5097  0.5520 -0.6484
 5826SOL    HW228408   0.906   8.135   2.097  0.0238 -0.8273  0.8412
 5827SOL     OW28409   1.559   2.282   2.829 -0.2337  0.1344 -0.2249
 5827SOL    HW128410   1.632   2.338   2.789 -0.4537  1.3481  1.0283
 5827SOL    HW228411   1.589   2.247   2.918 -0.7979 -0.1686 -0.1524
 5828SOL     OW28412   1.469   2.209   3.226 -0.1038  0.4327  0.1650
 5828SOL    HW128413   1.543   2.261   3.184  0.5171 -0.5019  0.0821
 5828SOL    HW228414   1.401   2.185   3.157  0.3862 -0.1905 -0.1075
 5829SOL     OW28415   8.944   8.986   2.162 -0.5831 -0.0520  0.0495
 5829SOL    HW128416   8.902   9.077   2.158  0.4591  0.4303 -0.0440
 5829SOL    HW228417   9.042   8.994   2.142 -0.5589 -1.2430 -0.3152
 5830SOL     OW28418   3.978   3.078   3.257  0.3179  0.0102 -0.0995
 5830SOL    HW128419   3.942   3.116   3.172  1.1950  0.8825 -0.0856
 5830SOL    HW228420   3.902   3.045   3.313 -0.1963 -1.8055 -1.7844
 5831SOL     OW28421   8.199   9.347   2.191  0.2574 -0.0271 -0.2491
 5831SOL    HW128422   8.281   9.301   2.227 -1.6492 -1.7485  2.0323
 5831SOL    HW228423   8.177   9.425   2.249 -0.6388 -0.5365  0.0974
 5832SOL     OW28424   3.581   8.393   4.532  0.5200  0.2165  0.2069
 5832SOL    HW128425   3.630   8.437   4.456  1.4253  1.9242  1.7365
 5832SOL    HW228426   3.484   8.385   4.509  0.6765  1.3353 -0.8679
 5833SOL     OW28427   0.045   0.679   4.455  0.0648 -0.2131  0.1397
 5833SOL    HW128428   0.095   0.723   4.530  0.1495  1.2776 -0.7634
 5833SOL    HW228429  -0.039   0.731   4.437  0.2608 -0.3109 -1.0691
 5834SOL     OW28430   9.277   0.385   1.161  0.1396 -0.0493  0.4590
 5834SOL    HW128431   9.210   0.460   1.158  0.5428  0.3731  1.8001
 5834SOL    HW228432   9.341   0.401   1.235 -0.1160 -2.0496  1.1386
 5835SOL     OW28433   5.711   0.920   2.479 -0.5834  0.0258 -0.4487
 5835SOL    HW128434   5.633   0.901   2.538 -2.3092  1.3287 -2.2176
 5835SOL    HW228435   5.682   0.980   2.404  1.9819  0.0315 -1.4945
 5836SOL     OW28436   0.359   9.355   2.983  0.3658 -0.0379  0.5621
 5836SOL    HW128437   0.345   9.453   2.966  2.4725 -0.0511 -1.4338
 5836SOL    HW228438   0.310   9.302   2.913 -0.0376 -0.4037  1.1140
 5837SOL     OW28439   9.680   4.575   2.575  0.1024  0.0502  0.4379
 5837SOL    HW128440   9.604   4.515   2.598 -0.6862  1.3042  1.1356
 5837SOL    HW228441   9.711   4.555   2.482  0.0287 -1.6021  0.7578
 5838SOL     OW28442   8.208   8.630   2.726  0.7726  0.0090  0.1075
 5838SOL    HW128443   8.126   8.644   2.781  0.1247 -1.6573 -0.4000
 5838SOL    HW228444   8.272   8.705   2.741  0.7118 -0.5395  3.2964
 5839SOL     OW28445   3.590   4.948   0.041 -0.4439  0.1337  0.2520
 5839SOL    HW128446   3.551   5.032   0.080 -2.1844 -0.3254 -0.4241
 5839SOL    HW228447   3.653   4.972  -0.032 -3.3225  0.8471 -2.0992
 5840SOL     OW28448   5.438   3.307   0.427 -0.3179  0.0966 -0.2151
 5840SOL    HW128449   5.529   3.348   0.430 -0.8136  1.1336  1.5172
 5840SOL    HW228450   5.376   3.366   0.376 -0.3437  0.0816 -0.2012
 5841SOL     OW28451   4.673   3.095   2.713 -0.3555  0.0513 -0.6118
 5841SOL    HW128452   4.697   3.060   2.803  0.0525  0.5205 -0.5374
 5841SOL    HW228453   4.576   3.075   2.694 -0.4122 -0.1393 -0.1167
 5842SOL     OW28454   9.924   0.555   0.080 -0.0196  0.1074 -0.0353
 5842SOL    HW128455   9.846   0.515   0.031 -1.9307  1.7779  1.5197
 5842SOL    HW228456   9.911   0.541   0.179  0.2887  2.6843  0.4093
 5843SOL     OW28457   9.724   9.153   4.496 -0.1820 -0.7442  0.2423
 5843SOL    HW128458   9.801   9.152   4.431  0.7882  1.6646  1.3175
 5843SOL    HW228459   9.739   9.084   4.567  0.4843 -0.9635 -0.1114
 5844SOL     OW28460   9.502   3.043   1.114  0.2998 -0.0902 -0.2053
 5844SOL    HW128461   9.517   3.123   1.056  1.4443 -1.8710 -2.4372
 5844SOL    HW228462   9.532   2.960   1.066 -1.5577 -1.9722  1.7397
 5845SOL     OW28463   4.984   9.929   3.831  0.1919  0.5740  0.3828
 5845SOL    HW128464   4.894   9.971   3.841  0.1279  0.5842 -0.2220
 5845SOL    HW228465   5.048   9.994   3.791  0.5446  0.6578  1.0687
 5846SOL     OW28466   8.535   3.651   2.708  0.2487  0.1193  0.1414
 5846SOL    HW128467   8.485   3.666   2.793  1.3863  0.0940  0.8302
 5846SOL    HW228468   8.593   3.730   2.689 -0.2613  0.2675 -0.7888
 5847SOL     OW28469   9.102   7.114   0.693 -0.2113 -0.6352  0.1506
 5847SOL    HW128470   9.124   7.210   0.712  0.4357 -1.0058  1.3185
 5847SOL    HW228471   9.176   7.073   0.640 -0.0955 -0.7323  0.3926
 5848SOL     OW28472   4.329   0.287   5.065 -0.1262  0.3294 -0.3318
 5848SOL    HW128473   4.330   0.320   5.160  0.6350 -0.0371 -0.2046
 5848SOL    HW228474   4.238   0.255   5.042 -0.6747  1.7400 -0.1789
 5849SOL     OW28475   2.456   6.281   4.291  0.0653  0.0123  0.0871
 5849SOL    HW128476   2.497   6.363   4.330  2.3119 -0.1202 -1.9045
 5849SOL    HW228477   2.414   6.303   4.203 -2.2843 -0.3172  1.0821
 5850SOL     OW28478   2.558   7.676   2.019 -0.2321  0.1478 -0.1401
 5850SOL    HW128479   2.558   7.766   2.063 -0.5053  0.2791 -0.4041
 5850SOL    HW228480   2.473   7.628   2.043 -0.8713  0.6447 -1.3814
 5851SOL     OW28481   1.951   2.146   4.878  0.1595 -0.6049 -0.7488
 5851SOL    HW128482   2.010   2.066   4.877 -0.0063 -0.7352 -1.9127
 5851SOL    HW228483   1.860   2.120   4.911  0.0678 -0.9318 -1.2509
 5852SOL     OW28484   1.651   5.359   5.512 -0.3271  0.5804 -0.1759
 5852SOL    HW128485   1.555   5.387   5.504 -0.4317 -0.3493 -2.7461
 5852SOL    HW228486   1.665   5.274   5.461  1.8376  0.5886  0.3552
 5853SOL     OW28487   9.171   7.962   3.224  0.0732 -0.0470  0.0566
 5853SOL    HW128488   9.256   7.916   3.249 -0.2141 -0.7097 -0.1620
 5853SOL    HW228489   9.183   8.061   3.230  0.8304 -0.1403  0.1125
 5854SOL     OW28490   3.330   8.510   0.941 -0.4511  0.2359 -0.6699
 5854SOL    HW128491   3.285   8.552   1.021 -0.0886  0.7437 -0.7310
 5854SOL    HW228492   3.359   8.582   0.878 -0.5044 -0.1533 -1.1371
 5855SOL     OW28493   4.151   3.471   2.084 -0.1838 -0.6845  0.0256
 5855SOL    HW128494   4.068   3.487   2.031  0.3516 -1.5382 -1.0892
 5855SOL    HW228495   4.135   3.495   2.180 -0.6482  2.6086 -0.8024
 5856SOL     OW28496   0.483   3.444   1.227 -0.2498 -0.7900  1.0106
 5856SOL    HW128497   0.465   3.412   1.134  0.8213 -0.7372  0.7849
 5856SOL    HW228498   0.576   3.420   1.254  0.0352  0.7067  1.4302
 5857SOL     OW28499   9.547   0.979   4.876 -0.0075 -0.1676  0.5997
 5857SOL    HW128500   9.516   0.911   4.942  2.3501 -0.8765  1.0370
 5857SOL    HW228501   9.566   0.935   4.789 -0.9173  0.3765  0.1231
 5858SOL     OW28502   8.520   1.998   2.360 -0.0613  0.2679  0.0732
 5858SOL    HW128503   8.424   2.027   2.357 -0.2187 -0.3697 -1.5416
 5858SOL    HW228504   8.571   2.043   2.286  0.3870 -1.0876 -0.4576
 5859SOL     OW28505   3.184   7.990   4.640  0.0366  0.6766  0.2074
 5859SOL    HW128506   3.277   8.010   4.609  0.7252 -2.0056  0.4383
 5859SOL    HW228507   3.188   7.932   4.722 -1.8213  2.6237  1.7278
 5860SOL     OW28508   4.408   0.752   2.426  0.1762  0.7232 -0.0911
 5860SOL    HW128509   4.482   0.820   2.420 -0.0065  0.8200 -1.2842
 5860SOL    HW228510   4.416   0.703   2.513 -0.1718  2.8119  1.1522
 5861SOL     OW28511   6.201   0.221   3.698 -0.2097  0.0801 -0.4672
 5861SOL    HW128512   6.152   0.147   3.744 -0.6002  0.0636 -0.9071
 5861SOL    HW228513   6.193   0.210   3.599  0.0310  0.5126 -0.5358
 5862SOL     OW28514   8.566   2.837   0.936  0.0851 -0.2119  0.2567
 5862SOL    HW128515   8.505   2.909   0.972  1.0680  0.9936 -0.4472
 5862SOL    HW228516   8.647   2.831   0.994 -0.4462 -1.4404  0.8778
 5863SOL     OW28517   1.057   6.697   1.533 -0.4984 -0.3391 -0.1705
 5863SOL    HW128518   1.021   6.719   1.443 -0.9096 -1.0250 -0.1739
 5863SOL    HW228519   1.050   6.599   1.549 -0.1718 -0.2573  0.4974
 5864SOL     OW28520   9.536   6.009   3.582  0.6237 -0.1596  0.3142
 5864SOL    HW128521   9.619   5.954   3.574 -0.6078 -1.9912 -0.1102
 5864SOL    HW228522   9.517   6.054   3.494  0.8206 -0.2449  0.2286
 5865SOL     OW28523   5.121   7.487   1.676  0.2925 -0.1676 -0.1658
 5865SOL    HW128524   5.025   7.507   1.657  0.3531 -0.0545 -0.3504
 5865SOL    HW228525   5.146   7.398   1.636  0.3265 -0.0918 -0.3108
 5866SOL     OW28526   4.936   0.357   3.487 -0.0943  0.5040 -0.3062
 5866SOL    HW128527   4.846   0.394   3.507 -0.1585 -0.0304  0.4290
 5866SOL    HW228528   4.999   0.382   3.560  0.1761  0.2620 -0.4542
 5867SOL     OW28529   2.122   8.945   1.917  0.3721  0.0190  0.2232
 5867SOL    HW128530   2.186   9.017   1.888  1.6016 -0.8530  0.7322
 5867SOL    HW228531   2.172   8.861   1.934 -1.2382 -1.3454 -1.6249
 5868SOL     OW28532   0.309   0.204   4.642 -0.7125  0.2061 -0.3144
 5868SOL    HW128533   0.365   0.122   4.627  0.9455  1.1167  0.8025
 5868SOL    HW228534   0.239   0.184   4.710 -1.1322 -0.6421 -0.9736
 5869SOL     OW28535   9.987   1.044   1.021 -0.2902  0.5476  0.2750
 5869SOL    HW128536   9.947   0.953   1.022 -0.5013  0.6312 -0.1527
 5869SOL    HW228537  10.077   1.042   1.064 -0.1531  0.0714 -0.0298
 5870SOL     OW28538   3.334   1.817   4.365  0.2677  0.6316  0.1695
 5870SOL    HW128539   3.419   1.790   4.320 -0.8908 -2.8196 -0.0465
 5870SOL    HW228540   3.347   1.818   4.464  0.7070  0.6871  0.1125
 5871SOL     OW28541   5.472   0.534   0.522 -0.6620  0.2772  0.1385
 5871SOL    HW128542   5.538   0.497   0.457  0.8424  1.8188  0.7662
 5871SOL    HW228543   5.397   0.577   0.472  0.3658  1.2470 -0.5780
 5872SOL     OW28544   3.246   3.722   4.881  0.0826  0.4789 -0.1779
 5872SOL    HW128545   3.332   3.750   4.838 -0.6935 -2.0257 -3.4986
 5872SOL    HW228546   3.263   3.647   4.945  0.2733 -0.6280 -1.5097
 5873SOL     OW28547   6.301   0.563   3.245  0.1847 -0.2694 -0.0115
 5873SOL    HW128548   6.365   0.575   3.320  0.7262 -0.9983 -0.3477
 5873SOL    HW228549   6.348   0.520   3.168 -0.1716  1.1459 -1.0420
 5874SOL     OW28550   8.080   1.125   3.717  0.0527  0.3812  0.1830
 5874SOL    HW128551   8.089   1.027   3.702 -0.2201  0.5079 -0.9099
 5874SOL    HW228552   8.021   1.164   3.646 -1.2976  1.0534  1.6467
 5875SOL     OW28553   0.014   3.456   3.500 -0.1162  0.2765  0.2295
 5875SOL    HW128554  -0.032   3.541   3.476  0.4014  0.6798  0.6523
 5875SOL    HW228555  -0.053   3.381   3.503 -0.7427  0.8560  0.8234
 5876SOL     OW28556   7.179   9.315   1.149  0.5230  0.3388  0.0723
 5876SOL    HW128557   7.157   9.301   1.246  0.1845  0.3338 -0.0019
 5876SOL    HW228558   7.126   9.251   1.094 -0.3078  1.2366 -0.2022
 5877SOL     OW28559   4.223   1.097   5.261  0.3434  0.0472 -0.0340
 5877SOL    HW128560   4.191   1.189   5.285  0.5394  0.2333 -0.4780
 5877SOL    HW228561   4.159   1.056   5.195 -1.3820 -1.3080  2.4234
 5878SOL     OW28562   3.335   1.148   1.402  0.1787  0.8370 -0.0348
 5878SOL    HW128563   3.363   1.072   1.344 -0.8091  0.2956  0.2038
 5878SOL    HW228564   3.236   1.160   1.397  0.3594  2.3322 -0.3480
 5879SOL     OW28565   0.767   7.963   1.809  0.5068 -0.1347 -0.7105
 5879SOL    HW128566   0.806   8.019   1.882  1.6568 -0.9769 -0.6613
 5879SOL    HW228567   0.829   7.887   1.789 -0.2789 -0.4794 -1.8735
 5880SOL     OW28568   2.737   3.101   4.980 -0.2054  0.5931  0.0184
 5880SOL    HW128569   2.830   3.104   5.017 -0.2913  0.3849  0.2498
 5880SOL    HW228570   2.741   3.092   4.881  0.0694  3.9151 -0.3424
 5881SOL     OW28571   1.484   3.080   1.651  0.0217  0.9264 -0.1961
 5881SOL    HW128572   1.479   3.179   1.665  2.5521  1.2657 -1.2356
 5881SOL    HW228573   1.572   3.047   1.686 -0.0554 -0.6355 -1.4492
 5882SOL     OW28574   7.636   6.867   4.244 -0.0610 -0.1918  0.0701
 5882SOL    HW128575   7.646   6.849   4.342  0.4431 -1.9923 -0.2993
 5882SOL    HW228576   7.726   6.864   4.201 -0.4323 -0.7824 -0.6732
 5883SOL     OW28577   8.583   7.578   0.033 -0.0172 -0.0614 -0.4811
 5883SOL    HW128578   8.495   7.595   0.077  0.0411 -1.8626  0.3702
 5883SOL    HW228579   8.655   7.630   0.081 -0.2068 -0.7345  0.5514
 5884SOL     OW28580   2.248   3.312   3.695  0.2356 -0.3950 -0.2945
 5884SOL    HW128581   2.169   3.367   3.720  0.9981  0.6044 -0.0073
 5884SOL    HW228582   2.222   3.216   3.685 -0.7101 -0.2948  1.2084
 5885SOL     OW28583   9.806   1.909   0.678  0.2995  0.2907 -0.1926
 5885SOL    HW128584   9.861   1.973   0.624  0.1350  0.1193 -0.5660
 5885SOL    HW228585   9.849   1.819   0.677 -0.1451  0.0799 -0.7415
 5886SOL     OW28586   0.386   6.737   3.034 -0.0016  0.5470  0.4906
 5886SOL    HW128587   0.382   6.770   3.129 -0.4954  1.7819  0.0419
 5886SOL    HW228588   0.444   6.656   3.030 -0.5292  0.0797  1.9722
 5887SOL     OW28589   0.381   3.153   4.424  0.1121  0.0232  0.3229
 5887SOL    HW128590   0.441   3.095   4.480 -1.5834 -0.0846  2.1159
 5887SOL    HW228591   0.378   3.118   4.331 -0.6078 -2.6019  1.2853
 5888SOL     OW28592   5.108   2.696   0.245  0.0900 -0.2973 -0.2937
 5888SOL    HW128593   5.090   2.775   0.186  0.6647  0.6020  0.7111
 5888SOL    HW228594   5.072   2.613   0.202 -0.1230  0.4433 -1.5732
 5889SOL     OW28595   2.318   2.307   5.513 -0.0565  0.5862 -0.4616
 5889SOL    HW128596   2.245   2.338   5.574  0.0260  0.0132 -0.0766
 5889SOL    HW228597   2.401   2.292   5.565  0.0714  0.2958 -0.7488
 5890SOL     OW28598   4.959   2.654   1.555  0.3075  0.3431  0.0067
 5890SOL    HW128599   4.885   2.682   1.494  1.5138  2.1332 -0.6767
 5890SOL    HW228600   5.040   2.709   1.536  1.7576 -1.4281  0.8958
 5891SOL     OW28601   7.350   6.714   2.993  0.1874 -0.0810  0.1233
 5891SOL    HW128602   7.391   6.670   2.913  1.2485 -0.8818  1.1050
 5891SOL    HW228603   7.410   6.704   3.072 -0.5934  1.2016  0.9003
 5892SOL     OW28604   5.352   0.820   4.972 -0.1546 -0.4245  0.0861
 5892SOL    HW128605   5.361   0.906   4.921 -0.6833 -1.0201 -1.0078
 5892SOL    HW228606   5.413   0.751   4.935 -0.7834 -0.9641  0.0331
 5893SOL     OW28607   3.105   5.293   4.399  0.2780  0.6829  0.0011
 5893SOL    HW128608   3.185   5.324   4.348 -0.1045  0.4379 -0.7556
 5893SOL    HW228609   3.070   5.368   4.454  0.4206  1.0869 -0.4460
 5894SOL     OW28610   9.202   3.844   5.263  0.6906  0.1047  0.2351
 5894SOL    HW128611   9.227   3.834   5.359  2.7135 -0.2038 -0.2945
 5894SOL    HW228612   9.140   3.770   5.236  0.4443 -0.0417  1.1860
 5895SOL     OW28613   9.393   7.963   2.516 -0.4943  0.1944  0.3965
 5895SOL    HW128614   9.374   7.884   2.574 -1.3674 -0.4053 -0.6839
 5895SOL    HW228615   9.388   8.047   2.571  3.1113 -0.6338  2.1438
 5896SOL     OW28616   0.215   2.660   1.155  0.1110 -0.0825  0.3015
 5896SOL    HW128617   0.256   2.689   1.241 -0.1682 -0.7826  0.6805
 5896SOL    HW228618   0.224   2.560   1.146  0.1732 -0.0079 -0.4968
 5897SOL     OW28619   8.006   9.203   0.632  0.1318  0.4654  0.2844
 5897SOL    HW128620   8.003   9.303   0.622 -0.5974  0.3556 -0.6945
 5897SOL    HW228621   7.922   9.164   0.594  0.0729 -0.4679  1.3828
 5898SOL     OW28622   8.790   2.238   5.343  0.1021  0.7062 -0.7636
 5898SOL    HW128623   8.821   2.292   5.422  0.3599  1.2084 -1.2056
 5898SOL    HW228624   8.703   2.276   5.310 -1.5975 -1.3645  1.1524
 5899SOL     OW28625   3.944   9.802   4.382 -0.0675  0.7543 -0.0413
 5899SOL    HW128626   3.851   9.808   4.418 -0.3694  0.5335 -0.7590
 5899SOL    HW228627   3.996   9.883   4.408 -0.3721  0.7365  0.6208
 5900SOL     OW28628   4.101   9.634   0.573 -0.5327 -0.3572 -0.3936
 5900SOL    HW128629   4.121   9.706   0.506  0.6132 -0.1271  0.1765
 5900SOL    HW228630   4.041   9.671   0.644 -0.3964 -0.1174 -0.4007
 5901SOL     OW28631   8.667   8.352   0.958 -0.1325  0.2799  0.2723
 5901SOL    HW128632   8.598   8.307   1.015 -1.6447  0.6842 -1.2065
 5901SOL    HW228633   8.719   8.283   0.908 -0.9170  0.0460 -0.2415
 5902SOL     OW28634   8.244   3.913   1.965 -0.0899  0.1939 -0.1027
 5902SOL    HW128635   8.247   3.834   2.027 -0.4245 -0.0331 -0.3689
 5902SOL    HW228636   8.227   3.996   2.017 -0.3579  0.0051  0.1145
 5903SOL     OW28637   0.404   5.832   0.829  0.0969  0.1391 -0.1439
 5903SOL    HW128638   0.366   5.918   0.862  2.1507  1.2152 -0.4986
 5903SOL    HW228639   0.492   5.849   0.786  1.1748 -2.3287  0.9880
 5904SOL     OW28640   0.572   9.852   0.195  0.3717  0.2875  0.3225
 5904SOL    HW128641   0.664   9.881   0.221  0.9057 -0.0701 -1.1043
 5904SOL    HW228642   0.515   9.932   0.175  0.1927  0.5313  1.7481
 5905SOL     OW28643   5.624   9.014   3.927 -0.2516 -0.2017 -0.4493
 5905SOL    HW128644   5.652   9.071   4.005 -0.5934  1.4028 -1.4798
 5905SOL    HW228645   5.627   9.068   3.844 -3.5570 -0.8374 -1.0377
 5906SOL     OW28646   6.361   9.053   3.216 -0.2764 -0.5473 -0.2148
 5906SOL    HW128647   6.379   8.961   3.180 -0.0305  0.1785 -2.0132
 5906SOL    HW228648   6.430   9.076   3.284  2.2547 -0.0353 -2.8714
 5907SOL     OW28649   0.921   0.386   5.046 -0.1219 -0.7854 -0.4940
 5907SOL    HW128650   1.020   0.385   5.059 -0.2317  1.4798  0.7174
 5907SOL    HW228651   0.877   0.335   5.121  0.0822 -1.0277 -0.5402
 5908SOL     OW28652   9.973   0.502   1.553 -0.1242  0.2102 -0.2752
 5908SOL    HW128653   9.997   0.599   1.547 -0.1918  0.3286  1.1632
 5908SOL    HW228654  10.028   0.459   1.624 -1.7545 -0.2776  0.7110
 5909SOL     OW28655   0.866   8.997   3.625  0.3855  0.3800  0.0772
 5909SOL    HW128656   0.964   8.976   3.632  0.3980  0.2210 -0.6181
 5909SOL    HW228657   0.838   9.049   3.706  0.9777  0.1679  0.4242
 5910SOL     OW28658   7.312   8.890   3.714  0.9156 -0.0804 -0.0907
 5910SOL    HW128659   7.347   8.821   3.776  1.2232  1.9836  2.1132
 5910SOL    HW228660   7.384   8.956   3.693  0.7475 -0.6074 -2.4965
 5911SOL     OW28661   6.339   6.972   3.512 -0.0254  0.3208  0.1973
 5911SOL    HW128662   6.405   6.912   3.467  0.6697  0.3578  1.1476
 5911SOL    HW228663   6.248   6.957   3.472  0.4279 -0.2236 -0.6479
 5912SOL     OW28664   2.456   3.772   1.871 -0.2738  0.1018  0.1697
 5912SOL    HW128665   2.460   3.872   1.865 -1.3874  0.0490 -1.5202
 5912SOL    HW228666   2.442   3.745   1.967 -1.5217  1.6184  0.4317
 5913SOL     OW28667   0.403   7.067   0.186  0.2786 -0.1423  0.0849
 5913SOL    HW128668   0.336   7.007   0.140  0.3287  0.7268 -1.1398
 5913SOL    HW228669   0.362   7.156   0.202  1.3506  0.6088 -1.2717
 5914SOL     OW28670   6.863   1.586   3.827 -0.6707  0.3304 -0.3901
 5914SOL    HW128671   6.951   1.634   3.831 -0.5686  0.0865  0.3845
 5914SOL    HW228672   6.839   1.568   3.732  0.2969  0.0688 -0.5846
 5915SOL     OW28673   8.762   4.522   1.277  0.1614  0.2417  0.2147
 5915SOL    HW128674   8.838   4.542   1.338  0.8098 -0.3451 -0.3939
 5915SOL    HW228675   8.726   4.608   1.240 -0.0461  0.5780  1.1822
 5916SOL     OW28676   1.181   9.001   1.221 -0.1734 -0.4193  0.4356
 5916SOL    HW128677   1.182   8.924   1.285 -0.4433 -0.7127  0.0884
 5916SOL    HW228678   1.235   8.977   1.140  4.3296  1.7409  2.6268
 5917SOL     OW28679   0.567   0.441   2.344 -0.0295 -0.7372 -0.2602
 5917SOL    HW128680   0.616   0.509   2.399 -0.4771  0.1258 -0.9324
 5917SOL    HW228681   0.569   0.467   2.248  1.8203 -2.8982 -0.8432
 5918SOL     OW28682   1.164   3.164   5.127  0.2443 -0.5444  0.2769
 5918SOL    HW128683   1.212   3.243   5.089 -0.2684 -0.3202  0.0938
 5918SOL    HW228684   1.217   3.081   5.110  1.1784 -0.1355  1.1847
 5919SOL     OW28685   4.521   6.407   1.038 -0.3533 -0.2243  0.1008
 5919SOL    HW128686   4.606   6.416   1.090  0.1551 -1.6637 -0.4537
 5919SOL    HW228687   4.453   6.359   1.093  0.7990 -3.4662 -1.1772
 5920SOL     OW28688   3.052   6.512   0.793 -0.6987 -0.1202  0.2554
 5920SOL    HW128689   3.036   6.451   0.871 -1.3061 -1.0619 -0.5986
 5920SOL    HW228690   2.994   6.485   0.717  0.2040  0.5374 -0.6811
 5921SOL     OW28691   2.831   8.104   3.439 -0.1546 -0.9393 -0.0673
 5921SOL    HW128692   2.783   8.192   3.443  2.0325  0.3864 -1.8393
 5921SOL    HW228693   2.818   8.064   3.348  1.9619 -0.5936 -0.5493
 5922SOL     OW28694   1.746   1.908   2.840 -0.1460  0.1573 -0.0051
 5922SOL    HW128695   1.816   1.979   2.849  0.1753 -0.0544 -0.7327
 5922SOL    HW228696   1.657   1.951   2.825 -0.2619  0.4382  1.4576
 5923SOL     OW28697   0.814   3.122   0.125 -0.0297  0.0074 -0.3390
 5923SOL    HW128698   0.859   3.154   0.208 -0.0881  2.4359 -1.2216
 5923SOL    HW228699   0.749   3.049   0.149  3.0242 -2.3634  1.1637
 5924SOL     OW28700   5.773   0.141   1.979 -0.1863  0.5143 -0.4414
 5924SOL    HW128701   5.764   0.236   1.946 -0.9417  0.5921 -0.0372
 5924SOL    HW228702   5.780   0.141   2.079 -0.7894  0.1158 -0.3927
 5925SOL     OW28703   3.734   5.350   2.292  0.0498 -0.4673 -0.0262
 5925SOL    HW128704   3.823   5.305   2.290 -0.0391 -0.7943  2.1518
 5925SOL    HW228705   3.741   5.437   2.340 -0.9573 -0.8418  0.8183
 5926SOL     OW28706   7.144   1.272   3.014  0.6652 -0.2825  0.1383
 5926SOL    HW128707   7.120   1.254   2.918  0.0044 -2.8913  0.7406
 5926SOL    HW228708   7.168   1.186   3.059 -0.6502  0.6500  2.7574
 5927SOL     OW28709   3.438   3.920   0.084 -0.6522 -0.2001  0.4221
 5927SOL    HW128710   3.418   4.004   0.134  0.4663  0.3975 -0.1217
 5927SOL    HW228711   3.492   3.942   0.003  1.2380 -1.6492  1.2588
 5928SOL     OW28712   2.508   7.360   1.862 -0.0966  0.0661  0.4412
 5928SOL    HW128713   2.492   7.413   1.779 -0.0593  0.2323  0.5394
 5928SOL    HW228714   2.484   7.416   1.942  0.8669  0.2762  0.5862
 5929SOL     OW28715   3.693   8.247   1.790  0.2021 -0.6827  0.3056
 5929SOL    HW128716   3.647   8.307   1.856  1.7728 -1.9696  2.6564
 5929SOL    HW228717   3.656   8.155   1.798  0.0885 -0.7532 -0.9585
 5930SOL     OW28718   3.704   4.331   3.630  0.1524  0.9189  0.1838
 5930SOL    HW128719   3.720   4.386   3.711 -1.9020 -1.7083  2.4773
 5930SOL    HW228720   3.685   4.237   3.657 -0.9855  0.0668 -3.3173
 5931SOL     OW28721   9.661   5.256   4.997  0.1702  0.0354 -0.8097
 5931SOL    HW128722   9.741   5.263   4.938 -0.2417 -1.3339 -1.5639
 5931SOL    HW228723   9.651   5.161   5.028  0.2165  0.6669  1.2430
 5932SOL     OW28724   3.535   7.445   2.295 -0.5071 -0.5680  0.0982
 5932SOL    HW128725   3.564   7.359   2.336  2.1473 -0.7582 -2.0650
 5932SOL    HW228726   3.461   7.428   2.230  0.2322 -1.2681 -0.5621
 5933SOL     OW28727   7.487   7.414   3.207 -0.2778 -0.4458 -0.0552
 5933SOL    HW128728   7.392   7.443   3.215  0.1706  0.9087  0.4043
 5933SOL    HW228729   7.497   7.356   3.126 -0.8745  2.0283 -1.9620
 5934SOL     OW28730   3.225   2.078   3.060  0.5119 -0.0707  0.0713
 5934SOL    HW128731   3.269   2.167   3.071 -0.5826  0.3866  0.8509
 5934SOL    HW228732   3.273   2.009   3.114  0.8129  0.2418  0.2009
 5935SOL     OW28733   4.143   7.830   4.953 -0.2264  0.2897  0.2495
 5935SOL    HW128734   4.184   7.789   4.871 -0.4162  0.2655  0.1660
 5935SOL    HW228735   4.205   7.899   4.990 -0.1153  0.2630  0.1152
 5936SOL     OW28736   4.128   2.183   4.331  0.2097 -0.5433  0.0213
 5936SOL    HW128737   4.125   2.226   4.421 -0.4399  1.4757 -0.9333
 5936SOL    HW228738   4.184   2.101   4.335  2.7938  1.2411  1.5504
 5937SOL     OW28739   7.335   9.325   4.180 -0.1557 -0.8236  0.0507
 5937SOL    HW128740   7.347   9.226   4.172 -1.5148 -0.8915 -1.4591
 5937SOL    HW228741   7.256   9.344   4.238  0.3700 -0.6034  0.7020
 5938SOL     OW28742   4.855   1.513   3.200  0.1373  0.7093 -0.3022
 5938SOL    HW128743   4.906   1.545   3.280  1.3484 -0.6979 -0.4863
 5938SOL    HW228744   4.889   1.559   3.118  0.4964  0.4585 -0.2986
 5939SOL     OW28745   3.169   9.525   1.259 -0.0191  0.7248 -0.3661
 5939SOL    HW128746   3.264   9.557   1.252  0.3726 -0.7265 -1.9985
 5939SOL    HW228747   3.114   9.568   1.187  0.0789 -0.7126 -1.3242
 5940SOL     OW28748   2.448   3.540   1.296 -0.2831  0.0972  0.5044
 5940SOL    HW128749   2.447   3.495   1.385  0.1532 -0.8362  0.0517
 5940SOL    HW228750   2.421   3.474   1.226 -1.5084  1.0743  0.0513
 5941SOL     OW28751   6.290   8.138   2.894  0.2460  0.6104 -0.1571
 5941SOL    HW128752   6.252   8.056   2.937  2.3538 -0.5646 -0.4732
 5941SOL    HW228753   6.371   8.113   2.841  0.0194  2.6659 -1.5360
 5942SOL     OW28754   3.509   6.546   4.630 -0.6993 -0.1834  0.2150
 5942SOL    HW128755   3.567   6.615   4.587 -0.1650 -0.2139  0.8876
 5942SOL    HW228756   3.530   6.456   4.593 -0.3082 -0.1955  0.4637
 5943SOL     OW28757   6.459   8.189   2.206  0.7155 -0.3062 -0.0494
 5943SOL    HW128758   6.537   8.133   2.236  1.1591 -1.6112 -3.4516
 5943SOL    HW228759   6.485   8.241   2.125 -1.5992  0.1583 -0.5256
 5944SOL     OW28760   2.846   9.405   2.266 -0.7856 -0.2454  0.1385
 5944SOL    HW128761   2.864   9.325   2.322  1.2422  0.6861  0.8531
 5944SOL    HW228762   2.748   9.428   2.272 -0.7141 -0.4820  2.8533
 5945SOL     OW28763   2.035   9.800   4.857  0.4719 -0.3866 -0.3340
 5945SOL    HW128764   1.981   9.724   4.894 -2.4250  1.8528  0.1465
 5945SOL    HW228765   2.086   9.844   4.932  0.5073 -0.5363 -0.2695
 5946SOL     OW28766   8.492   0.362   2.147  0.1502  0.2556 -0.1105
 5946SOL    HW128767   8.464   0.397   2.237 -0.0449 -0.1566 -0.0088
 5946SOL    HW228768   8.447   0.274   2.131  0.1437  0.3567 -0.6368
 5947SOL     OW28769   9.106   3.946   2.836 -0.2677 -0.4972 -0.1014
 5947SOL    HW128770   9.025   4.004   2.826  0.5135  0.8101  1.0205
 5947SOL    HW228771   9.173   3.971   2.767 -0.4202 -0.8893 -0.3892
 5948SOL     OW28772   3.047   4.536   5.626  0.3766  0.3205 -0.1945
 5948SOL    HW128773   2.994   4.569   5.704  3.1435  2.8738  0.7083
 5948SOL    HW228774   2.996   4.552   5.542 -1.5958 -0.1650  0.9013
 5949SOL     OW28775   8.515   5.403   4.198  0.0369  0.1660  0.3422
 5949SOL    HW128776   8.450   5.383   4.124  0.8414  1.4506 -0.7232
 5949SOL    HW228777   8.479   5.476   4.256 -0.6153 -0.8721  1.2832
 5950SOL     OW28778   2.954   2.712   3.875 -0.0228  0.0735 -0.3533
 5950SOL    HW128779   2.856   2.721   3.856 -0.0041 -3.0392 -2.2019
 5950SOL    HW228780   2.969   2.632   3.933  1.2095  2.3169  2.5880
 5951SOL     OW28781   5.653   9.840   2.717  0.1249 -0.2006  0.1241
 5951SOL    HW128782   5.666   9.745   2.690 -1.8768  0.4311 -3.3010
 5951SOL    HW228783   5.627   9.843   2.814  1.4728 -3.0065  0.6274
 5952SOL     OW28784   3.825   1.703   5.135  0.2949  0.1270  0.6660
 5952SOL    HW128785   3.769   1.785   5.121 -0.5571 -0.3396  1.2735
 5952SOL    HW228786   3.920   1.723   5.110 -0.1247  0.9462 -0.3077
 5953SOL     OW28787   8.265   9.710   0.697  1.1120 -0.5930  0.2975
 5953SOL    HW128788   8.306   9.744   0.782  0.7848 -1.2430  0.7132
 5953SOL    HW228789   8.190   9.771   0.670  0.5306 -0.9758  1.0387
 5954SOL     OW28790   3.133   4.076   2.508 -0.1894 -0.4298 -0.4970
 5954SOL    HW128791   3.127   4.095   2.410  0.9581  1.8987 -0.1423
 5954SOL    HW228792   3.061   4.011   2.533 -2.6082  1.4402 -2.2981
 5955SOL     OW28793   6.655   0.579   0.869 -0.2126  0.2460 -0.0418
 5955SOL    HW128794   6.658   0.491   0.822 -0.2872  0.7994 -1.1021
 5955SOL    HW228795   6.616   0.567   0.960 -2.5704 -0.4374 -1.0905
 5956SOL     OW28796   0.559   0.860   1.538  0.2369  0.5387  0.6585
 5956SOL    HW128797   0.467   0.854   1.499 -0.5786 -1.9818  2.8205
 5956SOL    HW228798   0.626   0.868   1.464 -1.4598 -0.8788 -1.0936
 5957SOL     OW28799   8.998   7.762   3.165 -0.4317  0.1423  0.0248
 5957SOL    HW128800   9.034   7.679   3.207  1.0321  1.1526  0.8339
 5957SOL    HW228801   9.059   7.839   3.187 -2.1630  1.5696 -0.0567
 5958SOL     OW28802   9.551   1.248   3.435  0.2557 -0.2865 -0.0336
 5958SOL    HW128803   9.600   1.245   3.523  0.3817  0.2614 -0.0826
 5958SOL    HW228804   9.489   1.170   3.429  1.1172 -0.9841  0.0352
 5959SOL     OW28805   2.216   9.572   2.205  0.2850 -0.2812 -0.1280
 5959SOL    HW128806   2.274   9.652   2.186  0.7412 -0.7492 -0.7351
 5959SOL    HW228807   2.152   9.558   2.130  0.7696 -0.9752 -0.4221
 5960SOL     OW28808   1.982   5.456   1.640 -0.4038 -0.1790  0.3100
 5960SOL    HW128809   2.032   5.371   1.622  0.1608  0.0214  0.9303
 5960SOL    HW228810   2.021   5.530   1.585 -1.7435 -0.5933 -1.2419
 5961SOL     OW28811   5.282   6.635   2.521  0.1936  0.2958  0.2389
 5961SOL    HW128812   5.204   6.626   2.583 -1.2468  1.1700 -1.3928
 5961SOL    HW228813   5.299   6.732   2.503  1.4955  0.0986  0.3557
 5962SOL     OW28814   2.636   8.746   4.782  0.3643 -0.2414 -0.0863
 5962SOL    HW128815   2.573   8.670   4.774  0.1051 -0.1222  0.8242
 5962SOL    HW228816   2.703   8.727   4.854  0.4703  0.2607 -0.0476
 5963SOL     OW28817   2.297   0.547   2.988  0.4345  0.1628  0.3456
 5963SOL    HW128818   2.383   0.501   3.007  1.0369  0.5660 -1.3383
 5963SOL    HW228819   2.290   0.629   3.044  1.1057  0.0825  0.5477
 5964SOL     OW28820   4.754   4.036   1.840 -0.1679 -0.1681 -0.1417
 5964SOL    HW128821   4.678   3.976   1.816  0.0453 -0.0695 -1.0762
 5964SOL    HW228822   4.810   3.992   1.910 -0.9616 -0.3283  0.3970
 5965SOL     OW28823   3.264   1.890   2.735  0.3401  0.1926 -0.5273
 5965SOL    HW128824   3.176   1.917   2.775 -0.3317 -0.6793 -1.3773
 5965SOL    HW228825   3.256   1.890   2.635  1.6153  1.1091 -0.6268
 5966SOL     OW28826   3.751   6.449   3.603 -0.1131  0.1559 -0.6637
 5966SOL    HW128827   3.687   6.496   3.542  0.9952  1.3339 -0.9469
 5966SOL    HW228828   3.719   6.457   3.697 -1.0250 -0.3300 -0.9280
 5967SOL     OW28829   0.437   3.119   2.103  0.4047  0.0029  0.1454
 5967SOL    HW128830   0.346   3.113   2.062 -0.0821 -0.1772  1.2431
 5967SOL    HW228831   0.506   3.128   2.031 -0.2898 -1.9982 -0.8109
 5968SOL     OW28832   4.490   8.283   1.299  0.0010  0.2180 -0.1579
 5968SOL    HW128833   4.427   8.209   1.323  1.8839 -1.8737 -1.4664
 5968SOL    HW228834   4.493   8.293   1.199  2.2819 -0.2067 -0.1406
 5969SOL     OW28835   5.499   0.879   3.970 -0.1115  0.4690  0.0113
 5969SOL    HW128836   5.474   0.937   3.893  0.1811  0.6125  0.0221
 5969SOL    HW228837   5.563   0.928   4.029 -0.4412  0.4125  0.4184
 5970SOL     OW28838   9.658   2.062   4.001  0.4325  0.1391  0.0083
 5970SOL    HW128839   9.636   2.158   4.017 -1.7561  0.0572 -2.2007
 5970SOL    HW228840   9.573   2.010   3.989  1.6381 -1.2458 -3.2082
 5971SOL     OW28841   3.016   9.516   4.380  0.3549  0.6112 -0.4431
 5971SOL    HW128842   2.949   9.550   4.447 -2.3491 -0.0664 -2.7118
 5971SOL    HW228843   3.084   9.460   4.426 -0.8576  0.9938  1.8871
 5972SOL     OW28844   3.554   7.315   0.829 -0.1057 -0.3783 -0.1977
 5972SOL    HW128845   3.536   7.220   0.802 -0.1688 -0.6219  0.6796
 5972SOL    HW228846   3.626   7.354   0.771  0.7812 -1.3511  0.2434
 5973SOL     OW28847   1.390   9.751   2.655 -0.3541  0.1018 -0.4870
 5973SOL    HW128848   1.395   9.850   2.673  1.1870  0.3094 -1.9766
 5973SOL    HW228849   1.303   9.730   2.611 -1.7880  0.3916  2.0882
 5974SOL     OW28850   9.011   0.810   3.891 -0.5890 -0.1421 -0.6984
 5974SOL    HW128851   8.965   0.731   3.851 -3.0394  0.7944  0.1548
 5974SOL    HW228852   9.032   0.792   3.987 -1.1380  0.2335 -0.5057
 5975SOL     OW28853   4.455   7.513   2.516  0.1170  0.3377  0.9375
 5975SOL    HW128854   4.383   7.477   2.575 -0.6451  1.6529  0.8120
 5975SOL    HW228855   4.529   7.551   2.573  0.3440 -0.2619  1.0526
 5976SOL     OW28856   9.693   6.543   4.011 -0.4071  0.3806  0.1966
 5976SOL    HW128857   9.613   6.531   3.952  0.9311  1.4963 -1.8746
 5976SOL    HW228858   9.731   6.635   3.999 -0.1876  0.6982  2.9224
 5977SOL     OW28859   7.713   3.340   0.133 -0.1688  0.4640  0.3683
 5977SOL    HW128860   7.648   3.349   0.209 -0.6890  0.0780 -0.0243
 5977SOL    HW228861   7.806   3.351   0.167 -0.5363  3.3990  0.5620
 5978SOL     OW28862   4.348   7.041   3.252 -0.3941  0.2344 -0.1801
 5978SOL    HW128863   4.280   7.010   3.319 -0.2849 -0.1545 -0.2528
 5978SOL    HW228864   4.422   6.975   3.246 -1.8667 -1.2244 -2.8738
 5979SOL     OW28865   2.786   0.348   4.301 -0.3524  0.2302 -0.5280
 5979SOL    HW128866   2.754   0.427   4.352  1.8520  0.4388  0.5910
 5979SOL    HW228867   2.765   0.360   4.204 -3.1115  0.5712  0.0664
 5980SOL     OW28868   1.569   7.858   0.270 -0.3476  0.1527 -0.0486
 5980SOL    HW128869   1.516   7.890   0.192 -2.2167 -0.8627  0.7712
 5980SOL    HW228870   1.637   7.927   0.295  0.6723  0.2717 -2.8902
 5981SOL     OW28871   3.209   3.075   0.723 -0.2580 -0.1479  0.0569
 5981SOL    HW128872   3.257   3.138   0.784 -0.2023 -0.7094  0.5931
 5981SOL    HW228873   3.126   3.041   0.768  0.4048 -1.4735  0.2714
 5982SOL     OW28874   6.848   0.809   4.684  0.3011 -0.4704  0.0080
 5982SOL    HW128875   6.862   0.756   4.767  1.1200  0.3148  0.3874
 5982SOL    HW228876   6.771   0.772   4.632  0.5347 -1.6882  0.5214
 5983SOL     OW28877   8.469   4.574   2.567 -0.3559 -0.2206  0.2817
 5983SOL    HW128878   8.563   4.608   2.566 -0.5111  0.2692  1.5228
 5983SOL    HW228879   8.419   4.617   2.642 -1.5722 -0.4822 -0.3688
 5984SOL     OW28880   3.802   6.924   1.757 -0.3292 -0.4466 -0.0118
 5984SOL    HW128881   3.841   6.942   1.666  0.3875 -1.1750  0.1436
 5984SOL    HW228882   3.830   6.833   1.787  0.3814  0.2258  1.4184
 5985SOL     OW28883   5.886   7.225   2.007  0.1680  0.6167  0.0309
 5985SOL    HW128884   5.863   7.145   2.063  1.0322 -0.0812 -0.5914
 5985SOL    HW228885   5.831   7.223   1.924  1.3592 -0.2401 -0.7556
 5986SOL     OW28886   4.966   7.253   2.651 -0.3131  0.2474  0.5096
 5986SOL    HW128887   4.919   7.279   2.567 -1.0628 -0.3914  0.7288
 5986SOL    HW228888   5.013   7.333   2.689 -0.0339  0.5572 -0.4728
 5987SOL     OW28889   3.833   1.748   1.178  0.1475  0.2891  0.1303
 5987SOL    HW128890   3.930   1.755   1.156  0.0884  2.5840  0.4236
 5987SOL    HW228891   3.780   1.736   1.094  0.4916  1.7043 -0.3062
 5988SOL     OW28892   8.908   8.178   4.796  0.6248  0.0420 -0.4616
 5988SOL    HW128893   8.990   8.221   4.834 -0.1859  0.1164  1.2274
 5988SOL    HW228894   8.931   8.086   4.764  1.1491 -0.3577  1.0082
 5989SOL     OW28895   7.171   2.342   3.045  0.2948 -0.1972 -0.4347
 5989SOL    HW128896   7.242   2.392   2.996 -0.9340  0.9397 -1.1183
 5989SOL    HW228897   7.116   2.291   2.979  0.0112 -0.4635  0.0053
 5990SOL     OW28898   4.830   4.135   1.125  0.3033  0.0641  0.1668
 5990SOL    HW128899   4.865   4.203   1.061 -1.4456 -0.2715 -1.1870
 5990SOL    HW228900   4.901   4.068   1.145  0.8400  0.1183 -1.5035
 5991SOL     OW28901   9.862   7.672   5.079 -0.0409 -0.2373  0.4324
 5991SOL    HW128902   9.854   7.651   4.982  0.3134 -2.5373  0.8851
 5991SOL    HW228903   9.847   7.770   5.093  0.9838  0.3069 -2.0484
 5992SOL     OW28904   3.438   9.573   1.215 -0.0062  0.5977  0.2973
 5992SOL    HW128905   3.505   9.508   1.178 -0.2276 -0.3007  1.4333
 5992SOL    HW228906   3.423   9.646   1.149  0.3265 -0.4513 -0.9761
 5993SOL     OW28907   8.334   2.052   1.227  0.3601  0.3246  0.0148
 5993SOL    HW128908   8.307   1.990   1.301 -0.8243  1.7210  0.7542
 5993SOL    HW228909   8.285   2.027   1.144  3.8233 -3.1157 -1.1620
 5994SOL     OW28910   7.974   5.889   4.076 -0.3514  0.2243 -0.5313
 5994SOL    HW128911   7.984   5.898   3.977 -1.7216 -0.1830 -0.7109
 5994SOL    HW228912   8.005   5.798   4.104 -0.3343  0.1962 -0.6396
 5995SOL     OW28913   0.655   5.409   4.205  0.5776  0.1249  0.3858
 5995SOL    HW128914   0.586   5.482   4.197  0.3122 -0.2081 -0.3990
 5995SOL    HW228915   0.643   5.363   4.293 -0.5550 -0.2760  0.0380
 5996SOL     OW28916   8.453   3.509   1.136  0.1581 -0.4002  0.5108
 5996SOL    HW128917   8.471   3.454   1.218 -1.3994  0.6799  1.6235
 5996SOL    HW228918   8.500   3.598   1.146  0.6018 -0.5601 -0.1351
 5997SOL     OW28919   8.451   8.892   1.830 -0.3721  0.2058  0.4929
 5997SOL    HW128920   8.531   8.948   1.808  0.3456 -0.8969  0.2304
 5997SOL    HW228921   8.400   8.934   1.904 -0.3220  1.6472 -0.2772
 5998SOL     OW28922   8.191   4.301   4.370 -0.3151 -0.0065  0.4523
 5998SOL    HW128923   8.233   4.359   4.440 -1.8223  0.6310  0.8512
 5998SOL    HW228924   8.232   4.320   4.281  0.3223  0.5109  0.8537
 5999SOL     OW28925   4.296   3.052   3.570  0.2138 -0.2565  0.6031
 5999SOL    HW128926   4.326   3.088   3.658  1.4859 -0.3461  0.2258
 5999SOL    HW228927   4.376   3.037   3.512 -0.4168 -2.2089  0.2008
 6000SOL     OW28928   8.357   4.974   5.106  0.6740 -0.0115  0.1639
 6000SOL    HW128929   8.274   4.962   5.160  0.8068  0.7338  0.5394
 6000SOL    HW228930   8.432   4.925   5.148  0.0390 -2.1709 -1.1305
 6001SOL     OW28931   1.445   8.588   3.539  0.2372  0.3996 -0.6775
 6001SOL    HW128932   1.461   8.640   3.623  0.0082 -0.9241  0.2064
 6001SOL    HW228933   1.375   8.634   3.484 -1.4006  0.0104  1.0218
 6002SOL     OW28934   9.989   3.555   2.722 -0.4606  0.0733  0.2486
 6002SOL    HW128935   9.964   3.526   2.814  2.5799 -0.0101  1.0976
 6002SOL    HW228936  10.019   3.475   2.669 -1.8020  0.1802 -0.7061
 6003SOL     OW28937   8.314   7.652   0.151  0.0257 -0.4386 -0.1283
 6003SOL    HW128938   8.287   7.560   0.179  0.0727 -0.2964  0.3784
 6003SOL    HW228939   8.258   7.680   0.073  0.4509 -1.1472 -0.7028
 6004SOL     OW28940   3.647   2.049   0.579 -0.5302  0.4098 -0.2603
 6004SOL    HW128941   3.648   2.135   0.631 -1.5791  0.0313  0.4115
 6004SOL    HW228942   3.553   2.025   0.557 -0.3157 -0.9701  0.2518
 6005SOL     OW28943   1.282   8.218   4.932 -0.4766  0.5675 -0.5845
 6005SOL    HW128944   1.314   8.295   4.988 -0.4326  1.1038 -1.3319
 6005SOL    HW228945   1.350   8.145   4.933 -1.5701 -0.4627  2.0577
 6006SOL     OW28946   4.952   6.973   3.450  0.2017 -0.4084  0.1055
 6006SOL    HW128947   4.983   7.067   3.436 -0.4015 -0.3633 -0.9595
 6006SOL    HW228948   5.025   6.919   3.492  0.5488  0.5288  0.7119
 6007SOL     OW28949   1.683   6.519   1.079 -0.5819  0.3725  0.3093
 6007SOL    HW128950   1.758   6.584   1.092 -0.6813  0.4273  0.6154
 6007SOL    HW228951   1.640   6.499   1.167 -1.4852  1.0105  0.0188
 6008SOL     OW28952   4.895   1.075   1.301 -0.5261  0.2705 -0.2194
 6008SOL    HW128953   4.808   1.119   1.280 -0.8458 -0.8772 -1.4144
 6008SOL    HW228954   4.879   0.996   1.360 -0.5812 -1.1431 -2.0548
 6009SOL     OW28955   2.650   6.447   0.977  0.6311 -0.4896 -0.4576
 6009SOL    HW128956   2.682   6.466   1.070 -0.8404 -1.3010  0.2286
 6009SOL    HW228957   2.648   6.348   0.962  1.7447 -0.3382 -1.6826
 6010SOL     OW28958   3.378   2.147   2.034  0.1749  0.0623 -0.7657
 6010SOL    HW128959   3.307   2.103   1.979  0.3244 -0.1410 -0.7986
 6010SOL    HW228960   3.389   2.242   2.006 -1.7971  0.8164  0.8780
 6011SOL     OW28961   0.024   1.786   1.221 -0.4066 -0.4157 -0.5488
 6011SOL    HW128962  -0.001   1.698   1.262  1.1721  0.2412  1.9268
 6011SOL    HW228963  -0.056   1.846   1.217 -0.6299 -0.5649  1.4308
 6012SOL     OW28964   0.549   4.892   0.741 -0.6070 -0.0925  0.1866
 6012SOL    HW128965   0.539   4.914   0.838 -1.3358  0.3011  0.0237
 6012SOL    HW228966   0.483   4.945   0.688 -1.1595 -1.3391 -0.3826
 6013SOL     OW28967   9.571   9.793   0.037  0.3750 -0.4439 -0.0279
 6013SOL    HW128968   9.532   9.883   0.016  1.6731  0.0780 -0.2290
 6013SOL    HW228969   9.509   9.722   0.006 -0.4748  0.3761 -0.2403
 6014SOL     OW28970   9.249   8.810   1.378  0.2118  0.1220 -0.2276
 6014SOL    HW128971   9.226   8.718   1.410  1.4598  0.0444  0.4738
 6014SOL    HW228972   9.187   8.876   1.420  0.9296 -0.1312  1.2360
 6015SOL     OW28973   3.419   3.515   5.484 -0.1449  0.1575 -0.3995
 6015SOL    HW128974   3.395   3.589   5.547  1.5353 -0.6070  1.1963
 6015SOL    HW228975   3.477   3.550   5.411  1.0355  0.3358  0.6114
 6016SOL     OW28976   0.286   7.138   5.402 -0.0288  0.2393 -0.3428
 6016SOL    HW128977   0.300   7.235   5.421  0.0411 -0.2160  2.0348
 6016SOL    HW228978   0.369   7.087   5.423 -1.0922 -0.7553  1.5951
 6017SOL     OW28979   1.557   0.260   4.792 -0.4402  0.5068  0.0395
 6017SOL    HW128980   1.485   0.308   4.741  0.5007  1.1849 -0.6611
 6017SOL    HW228981   1.624   0.326   4.824  0.2500 -0.2139  0.0788
 6018SOL     OW28982   2.275   4.509   5.525 -0.1253 -0.1301 -0.1147
 6018SOL    HW128983   2.256   4.478   5.618 -2.0022  0.5883 -0.2302
 6018SOL    HW228984   2.311   4.603   5.528  0.8011 -0.4812 -0.0640
 6019SOL     OW28985   4.071   6.690   1.501 -0.2585 -0.1567  0.3160
 6019SOL    HW128986   4.106   6.679   1.594 -0.5627 -3.0785  0.1442
 6019SOL    HW228987   4.012   6.612   1.479 -0.3301  0.6007 -2.2572
 6020SOL     OW28988   1.857   7.151   1.354  0.0262 -0.3292 -0.5448
 6020SOL    HW128989   1.953   7.123   1.351 -0.0890 -1.2436  2.5892
 6020SOL    HW228990   1.801   7.083   1.306  0.5004 -2.0450  1.2790
 6021SOL     OW28991   0.571   4.053   3.293  0.6284 -0.2530 -0.5927
 6021SOL    HW128992   0.543   4.043   3.197 -0.7969 -0.0407 -0.2156
 6021SOL    HW228993   0.490   4.071   3.349  1.6860  1.5716  0.3894
 6022SOL     OW28994   7.153   0.960   0.534  0.0997  0.4050  0.2859
 6022SOL    HW128995   7.089   1.019   0.486 -1.3874 -1.7832 -0.5021
 6022SOL    HW228996   7.239   0.955   0.484 -1.1445 -1.1943 -1.7385
 6023SOL     OW28997   7.639   9.472   2.769 -0.1734  0.3522 -0.0158
 6023SOL    HW128998   7.662   9.485   2.866  0.9185  0.1826 -0.2453
 6023SOL    HW228999   7.557   9.416   2.761 -0.0938  0.1112  0.8096
 6024SOL     OW29000   9.645   2.770   3.998 -0.0672 -0.3333  0.3190
 6024SOL    HW129001   9.662   2.673   3.979 -1.2874 -0.4357 -0.3008
 6024SOL    HW229002   9.550   2.782   4.029  0.3097  0.5591  1.1452
 6025SOL     OW29003   2.891   1.142   1.908  0.0579 -0.0774 -0.0178
 6025SOL    HW129004   2.919   1.126   2.003  1.4548  1.0005 -0.2383
 6025SOL    HW229005   2.913   1.061   1.853 -3.1657 -1.7986  1.0388
 6026SOL     OW29006   7.234   7.299   1.712  0.9972  0.1409 -0.3561
 6026SOL    HW129007   7.269   7.354   1.636  0.6257 -0.3686 -0.9056
 6026SOL    HW229008   7.300   7.228   1.736  0.5566 -0.5139 -1.0687
 6027SOL     OW29009   3.355   5.398   1.089 -0.2130 -0.0992 -0.2987
 6027SOL    HW129010   3.344   5.344   1.005 -1.1207 -0.1758 -0.1343
 6027SOL    HW229011   3.279   5.380   1.150 -0.4166  1.2160 -0.1517
 6028SOL     OW29012   5.100   9.685   0.919  0.5318 -0.4909  0.3830
 6028SOL    HW129013   5.081   9.615   0.989 -2.1433  1.1243  1.3362
 6028SOL    HW229014   5.160   9.754   0.957 -0.0303 -0.1979  0.7512
 6029SOL     OW29015   5.339   7.392   2.891  0.0765  0.4793 -0.1431
 6029SOL    HW129016   5.406   7.458   2.858 -0.7758  0.0789 -2.7597
 6029SOL    HW229017   5.252   7.407   2.844 -0.7325 -1.1361  0.8131
 6030SOL     OW29018   3.285   2.636  -0.001  0.0595 -0.1270  0.1753
 6030SOL    HW129019   3.231   2.553   0.011  0.5456 -0.5669 -0.6487
 6030SOL    HW229020   3.363   2.634   0.062  0.1921 -0.4038  0.0069
 6031SOL     OW29021   7.503   1.588   4.829  0.3955  0.2101 -0.6948
 6031SOL    HW129022   7.532   1.677   4.795  0.7888  0.8663  1.3068
 6031SOL    HW229023   7.574   1.550   4.888  0.3467 -1.5677 -1.7297
 6032SOL     OW29024   1.194   4.506   0.965  0.5393 -0.0688 -0.1251
 6032SOL    HW129025   1.247   4.521   1.048  2.8311  1.3156 -1.7461
 6032SOL    HW229026   1.171   4.594   0.923 -0.0152 -0.7523 -1.2843
 6033SOL     OW29027   0.804   2.288   3.846 -0.3290  0.1226  0.2528
 6033SOL    HW129028   0.819   2.282   3.945 -0.9634  0.1053  0.3528
 6033SOL    HW229029   0.743   2.365   3.827 -0.4514 -0.0611 -0.0967
 6034SOL     OW29030   9.141   3.302   5.181 -0.4863 -0.2350 -0.0462
 6034SOL    HW129031   9.134   3.389   5.132  2.9700  1.4487  2.2244
 6034SOL    HW229032   9.063   3.292   5.244 -0.7904  1.3486 -0.1584
 6035SOL     OW29033   1.441   1.117   0.569  0.2045  0.0461  0.5739
 6035SOL    HW129034   1.345   1.140   0.589 -0.4236 -2.5466  0.7674
 6035SOL    HW229035   1.486   1.195   0.527 -1.8744  1.4801  0.9303
 6036SOL     OW29036   9.336   2.830   0.835  0.1022  0.2416 -0.5567
 6036SOL    HW129037   9.242   2.821   0.867 -0.0141  1.9105 -0.3692
 6036SOL    HW229038   9.385   2.745   0.852 -0.5846  0.2943  1.9300
 6037SOL     OW29039   9.352   9.766   4.523 -0.2318  0.1445 -0.2930
 6037SOL    HW129040   9.312   9.761   4.615 -1.5021 -0.2384 -0.8411
 6037SOL    HW229041   9.375   9.861   4.501 -0.7932  0.3668  0.0674
 6038SOL     OW29042   3.545   8.936   1.720  0.0540  0.1183  0.1968
 6038SOL    HW129043   3.488   8.967   1.644 -1.4756 -2.3229  0.2940
 6038SOL    HW229044   3.563   8.838   1.711 -0.6242 -0.3415  3.2587
 6039SOL     OW29045   5.293   0.869   1.023  0.2950  0.3181 -0.3720
 6039SOL    HW129046   5.342   0.785   0.997  1.7527  1.4452 -1.3401
 6039SOL    HW229047   5.296   0.934   0.947 -0.7893  1.2699  0.3908
 6040SOL     OW29048   8.495   3.460   3.324  0.3619  0.5051 -0.0305
 6040SOL    HW129049   8.573   3.408   3.357  0.2891  0.4438  0.0441
 6040SOL    HW229050   8.490   3.547   3.374  0.0900  0.2947  0.3098
 6041SOL     OW29051   8.652   3.763   0.885  0.9260 -0.0290 -0.1915
 6041SOL    HW129052   8.573   3.738   0.828  1.3293 -0.4170 -0.5816
 6041SOL    HW229053   8.646   3.859   0.910  0.0877 -0.1667  0.1513
 6042SOL     OW29054   3.288   7.448   4.632  0.3961  0.2409 -0.0171
 6042SOL    HW129055   3.222   7.514   4.598 -0.0369 -0.1373  0.0805
 6042SOL    HW229056   3.369   7.448   4.573 -0.3524 -0.4236 -1.0560
 6043SOL     OW29057   8.358   0.990   4.319  0.5127 -0.6006 -0.6781
 6043SOL    HW129058   8.450   0.953   4.306  1.1564  0.4861  0.7185
 6043SOL    HW229059   8.316   0.950   4.400  0.4731  0.2836 -0.2574
 6044SOL     OW29060   4.380   3.108   1.769 -0.0408 -0.2961 -0.6958
 6044SOL    HW129061   4.361   3.204   1.790 -0.2319 -0.4647 -0.0714
 6044SOL    HW229062   4.475   3.098   1.741  0.5040 -0.1986  1.0385
 6045SOL     OW29063   9.774   3.135   1.299 -0.2900 -0.5719 -0.0485
 6045SOL    HW129064   9.867   3.145   1.335 -0.2738 -2.0571  0.3326
 6045SOL    HW229065   9.779   3.100   1.205 -0.4274  0.8839 -0.6257
 6046SOL     OW29066   8.655   4.423   4.548  0.0422  0.5275  0.2317
 6046SOL    HW129067   8.735   4.483   4.536  2.1191 -1.5895  2.9626
 6046SOL    HW229068   8.586   4.471   4.602  0.2691  1.6220 -0.4087
 6047SOL     OW29069   5.096   0.299   0.289 -0.3825 -0.2172  0.0820
 6047SOL    HW129070   5.127   0.253   0.372 -0.8367  0.3223  0.5544
 6047SOL    HW229071   5.026   0.244   0.245 -1.0281  0.0825  0.7221
 6048SOL     OW29072   7.029   7.199   3.680  0.7966 -0.0604  0.4263
 6048SOL    HW129073   7.008   7.159   3.769  0.2009 -1.4456 -0.3173
 6048SOL    HW229074   7.129   7.202   3.668  0.8779  0.1109  1.1308
 6049SOL     OW29075   3.833   1.019   4.148 -0.0554  0.6053 -0.7936
 6049SOL    HW129076   3.924   0.991   4.179  0.4928 -2.0022 -4.4423
 6049SOL    HW229077   3.833   1.118   4.133  1.6517  0.8969  0.9434
 6050SOL     OW29078   0.190   8.134   5.032  0.2746  0.1671 -0.3778
 6050SOL    HW129079   0.217   8.101   5.123 -2.3890  0.3534  0.5238
 6050SOL    HW229080   0.211   8.064   4.964 -0.3730 -1.2139  0.7996
 6051SOL     OW29081   1.966   1.640   1.243 -0.3093 -0.0326  0.2424
 6051SOL    HW129082   1.911   1.710   1.289  1.0398  1.5060 -0.4391
 6051SOL    HW229083   2.047   1.619   1.299 -0.5350 -0.8213  0.2835
 6052SOL     OW29084   2.175   8.655   3.831 -0.0228  0.0669 -0.1663
 6052SOL    HW129085   2.263   8.609   3.820  0.8607  1.8877 -0.7772
 6052SOL    HW229086   2.149   8.699   3.744 -2.4954 -2.1042 -0.6030
 6053SOL     OW29087   7.887   4.587   5.349 -0.0164  0.3265 -0.1270
 6053SOL    HW129088   7.837   4.588   5.263 -1.8658 -1.5493  0.9048
 6053SOL    HW229089   7.872   4.500   5.396  0.5617  1.5087  2.3225
 6054SOL     OW29090   4.054   0.920   4.237  0.1129 -0.4122 -0.2468
 6054SOL    HW129091   4.104   0.974   4.304 -0.5620  0.4139 -0.3936
 6054SOL    HW229092   4.095   0.830   4.228  0.6809 -0.2446  0.6954
 6055SOL     OW29093   3.814   0.667   0.631 -0.2843 -0.3843  0.1071
 6055SOL    HW129094   3.908   0.701   0.623 -0.5123  0.5574  1.3934
 6055SOL    HW229095   3.768   0.680   0.543  0.4836  0.0670 -0.2431
 6056SOL     OW29096   9.874   5.317   0.704 -0.2643  0.0564 -0.0592
 6056SOL    HW129097   9.884   5.304   0.803 -0.8243 -0.9562 -0.1308
 6056SOL    HW229098   9.899   5.234   0.656 -0.4459  0.3908 -0.7466
 6057SOL     OW29099   3.674   9.977   3.086  0.4133 -0.1939  0.1834
 6057SOL    HW129100   3.643   9.889   3.048  0.0696  0.3395 -0.7953
 6057SOL    HW229101   3.659  10.049   3.018  1.2728  0.5205  0.7539
 6058SOL     OW29102   8.170   7.995   2.769 -0.4043 -0.5378  0.6631
 6058SOL    HW129103   8.185   8.056   2.691  0.0428 -0.1387  1.0565
 6058SOL    HW229104   8.141   7.905   2.736 -2.4496  0.2992  0.1424
 6059SOL     OW29105   7.616   0.768   0.294 -0.2164 -0.5704 -0.4746
 6059SOL    HW129106   7.544   0.801   0.355  0.7393  0.2097  0.2464
 6059SOL    HW229107   7.589   0.679   0.256 -1.9824  0.1369 -0.9617
 6060SOL     OW29108   8.785   1.235   5.540 -0.2471  0.0366  0.0444
 6060SOL    HW129109   8.689   1.264   5.544 -0.0686  1.2347 -3.0881
 6060SOL    HW229110   8.828   1.274   5.459  2.5843 -1.4984  0.7550
 6061SOL     OW29111   9.515   4.797   1.958  0.1789  0.6672  0.3509
 6061SOL    HW129112   9.469   4.715   1.924 -0.0781  0.7431  0.5062
 6061SOL    HW229113   9.563   4.776   2.043  0.6157  0.5341  0.0691
 6062SOL     OW29114   4.297   1.728   4.841  0.5334  0.2325  0.0195
 6062SOL    HW129115   4.323   1.824   4.845 -1.2253  0.7845 -1.4286
 6062SOL    HW229116   4.360   1.674   4.897  2.4944  2.0012 -0.4408
 6063SOL     OW29117   1.282   1.721   0.523 -0.1498 -0.6993 -0.0868
 6063SOL    HW129118   1.352   1.732   0.453  0.2390  1.7033  0.6317
 6063SOL    HW229119   1.194   1.753   0.487  0.1760  1.1392  0.6911
 6064SOL     OW29120   3.119   0.251   4.186  0.0181  0.1724  0.0118
 6064SOL    HW129121   3.030   0.293   4.204 -0.5364  0.0642 -2.3339
 6064SOL    HW229122   3.175   0.314   4.132  0.2646 -0.9268 -1.0311
 6065SOL     OW29123   8.721   5.277   1.240  0.1507 -0.2987  0.6908
 6065SOL    HW129124   8.799   5.234   1.195  1.0642  0.3997  1.5827
 6065SOL    HW229125   8.754   5.343   1.307 -1.1640  3.1983 -1.9148
 6066SOL     OW29126   4.862   0.571   2.507  0.6689 -0.4609 -0.1965
 6066SOL    HW129127   4.784   0.538   2.559  1.2818 -0.7379  0.5656
 6066SOL    HW229128   4.912   0.639   2.560  0.7327 -0.0147 -0.8246
 6067SOL     OW29129   7.687   0.729   2.617  0.4648  0.2301 -0.0639
 6067SOL    HW129130   7.674   0.700   2.712  1.2714 -0.0534 -0.0428
 6067SOL    HW229131   7.779   0.766   2.605  0.3052  0.4277 -0.6932
 6068SOL     OW29132   4.580   2.097   2.879 -0.3369 -0.3202 -0.4966
 6068SOL    HW129133   4.661   2.058   2.924  1.0179  1.3867 -1.4435
 6068SOL    HW229134   4.569   2.192   2.907 -1.0057 -0.0227 -1.7632
 6069SOL     OW29135   9.911   5.403   5.383 -0.3317  0.6896  0.2606
 6069SOL    HW129136   9.815   5.415   5.356 -0.4099  1.0583  0.7098
 6069SOL    HW229137   9.918   5.405   5.482 -0.2223 -2.0054  0.3476
 6070SOL     OW29138   2.675   1.635   1.456  0.2321 -0.5695 -0.4305
 6070SOL    HW129139   2.663   1.733   1.443 -0.6481 -0.1917  2.6449
 6070SOL    HW229140   2.598   1.599   1.510  1.3867 -2.6221 -0.0960
 6071SOL     OW29141   1.088   7.355   0.046 -0.2400  0.0247 -0.1103
 6071SOL    HW129142   1.118   7.430   0.104 -1.9310  1.2393 -0.7806
 6071SOL    HW229143   1.013   7.385  -0.013 -0.5939 -2.0302 -0.7719
 6072SOL     OW29144   8.952   8.796   0.806 -0.9704 -0.0843  0.3997
 6072SOL    HW129145   9.019   8.807   0.879 -1.5216  2.3445  0.5607
 6072SOL    HW229146   8.965   8.707   0.762  2.5140  0.4535  0.2515
 6073SOL     OW29147   8.063   1.316   2.089  0.1300  0.0333  0.4151
 6073SOL    HW129148   8.078   1.245   2.020 -0.5369  0.2354  0.0651
 6073SOL    HW229149   8.133   1.307   2.161  1.8996  0.9259 -1.1628
 6074SOL     OW29150   8.526   1.313   5.505  0.1302 -0.5242 -0.2258
 6074SOL    HW129151   8.520   1.312   5.405 -0.9465 -0.3615 -0.1735
 6074SOL    HW229152   8.496   1.402   5.539  0.1246 -0.7107  0.2631
 6075SOL     OW29153   8.269   9.971   2.826 -0.3253  0.2011 -0.3296
 6075SOL    HW129154   8.304  10.061   2.801  1.0084 -0.2238  0.0150
 6075SOL    HW229155   8.285   9.955   2.923  0.3403 -0.8262 -0.6119
 6076SOL     OW29156   7.855   0.844   2.044  0.3714 -0.3302 -0.6925
 6076SOL    HW129157   7.941   0.833   1.994  0.0305  0.1784 -1.4040
 6076SOL    HW229158   7.790   0.896   1.988 -0.9439 -2.0730 -0.8068
 6077SOL     OW29159   0.515   3.809   4.302 -0.0527  0.7154  0.4361
 6077SOL    HW129160   0.440   3.835   4.241 -0.4581  1.5828  1.2890
 6077SOL    HW229161   0.562   3.729   4.265 -1.2798  0.2757 -0.1950
 6078SOL     OW29162   8.519   3.105   4.512  0.0307  0.2868  0.1683
 6078SOL    HW129163   8.555   3.168   4.580 -0.8736 -0.4809  1.3921
 6078SOL    HW229164   8.524   3.011   4.548 -1.2188 -0.0380 -0.4713
 6079SOL     OW29165   1.686   0.851   0.185 -0.3723  0.1182  0.1045
 6079SOL    HW129166   1.655   0.889   0.272 -0.4528 -0.6053  0.3962
 6079SOL    HW229167   1.752   0.779   0.202 -1.1030 -0.6746 -0.3934
 6080SOL     OW29168   1.962   8.272   2.078  0.5981  0.3877 -0.3405
 6080SOL    HW129169   2.027   8.196   2.073 -0.7319 -0.7931 -0.0285
 6080SOL    HW229170   1.869   8.236   2.079 -0.0241  1.9373  1.5837
 6081SOL     OW29171   7.800   2.013   1.360  0.1596 -0.7789  0.3114
 6081SOL    HW129172   7.773   1.917   1.360 -0.4935 -0.6185  2.0738
 6081SOL    HW229173   7.722   2.069   1.387  1.0955  0.0647  1.3201
 6082SOL     OW29174   2.664   7.842   5.235  0.2761  0.3136 -0.0421
 6082SOL    HW129175   2.645   7.896   5.317  0.1999  0.0519  0.1142
 6082SOL    HW229176   2.652   7.745   5.256  0.2594  0.2463 -0.3628
 6083SOL     OW29177   7.269   1.049   2.197  0.6100 -0.9228 -0.1861
 6083SOL    HW129178   7.235   1.124   2.253 -0.0847 -1.8340  0.6430
 6083SOL    HW229179   7.365   1.065   2.173 -0.3300  1.6462 -2.4761
 6084SOL     OW29180   0.860   8.819   3.400 -0.5397 -0.1484  0.1163
 6084SOL    HW129181   0.937   8.864   3.353 -0.0187 -1.2792 -0.1262
 6084SOL    HW229182   0.835   8.872   3.481 -1.1386  1.5866 -1.1591
 6085SOL     OW29183   9.858   3.619   0.034  0.0549  0.1197  0.0028
 6085SOL    HW129184   9.768   3.598  -0.003  0.5287 -0.9736 -0.5506
 6085SOL    HW229185   9.881   3.715   0.014 -0.2789 -0.0700 -1.3141
 6086SOL     OW29186   8.075   9.477   0.648  0.1677  0.2624 -0.5046
 6086SOL    HW129187   8.100   9.528   0.565 -2.2978  0.4997 -1.1315
 6086SOL    HW229188   8.049   9.542   0.720 -0.1965 -0.0247 -0.3783
 6087SOL     OW29189   8.463   6.380   2.557 -0.7924  0.6773  0.5387
 6087SOL    HW129190   8.461   6.479   2.572  0.8376  1.0320 -1.4999
 6087SOL    HW229191   8.548   6.342   2.593 -1.8652 -0.1724  2.2506
 6088SOL     OW29192   7.334   7.881   4.195 -0.2528  0.5662  0.2016
 6088SOL    HW129193   7.412   7.823   4.217 -1.2437 -0.8553  0.0653
 6088SOL    HW229194   7.252   7.844   4.238 -0.7490  2.4460  0.9549
 6089SOL     OW29195   2.162   1.307   4.387 -0.0360 -0.1858 -0.5018
 6089SOL    HW129196   2.075   1.342   4.422 -0.9214  0.0743 -2.8867
 6089SOL    HW229197   2.237   1.368   4.415 -0.6915  0.0102  0.8932
 6090SOL     OW29198   0.808   0.582   4.872  0.3794  0.8077 -0.3440
 6090SOL    HW129199   0.859   0.578   4.786  1.4115  4.0549  0.0340
 6090SOL    HW229200   0.843   0.514   4.935  0.8121 -0.4056 -1.8693
 6091SOL     OW29201   3.812   7.360   3.243  0.3541 -0.0805  0.3679
 6091SOL    HW129202   3.869   7.419   3.301  1.7155 -1.9095  0.9592
 6091SOL    HW229203   3.850   7.358   3.150 -0.8689  1.5429 -0.1880
 6092SOL     OW29204   4.158   4.437   4.203 -0.5897  0.0208 -0.5737
 6092SOL    HW129205   4.170   4.435   4.104 -1.5455 -0.3294 -0.6915
 6092SOL    HW229206   4.069   4.477   4.225 -0.5496 -0.2587  0.1286
 6093SOL     OW29207   9.622   7.830   4.823  0.5410 -0.7793 -0.1600
 6093SOL    HW129208   9.554   7.895   4.857 -0.2728 -2.1022  0.7538
 6093SOL    HW229209   9.605   7.811   4.727 -0.7852 -1.6048  0.2320
 6094SOL     OW29210   8.408   9.803   2.662  0.5855  0.3169  0.6732
 6094SOL    HW129211   8.348   9.856   2.723  1.0682  3.1950 -1.2577
 6094SOL    HW229212   8.362   9.789   2.575  0.7482 -1.9091  0.9358
 6095SOL     OW29213   1.106   9.970   4.430  0.4102  0.2128 -0.3222
 6095SOL    HW129214   1.147   9.891   4.476  1.4586  0.9336 -0.0015
 6095SOL    HW229215   1.010   9.950   4.408  0.4673 -0.8793  0.3864
 6096SOL     OW29216   1.282   7.891   3.623 -0.4461 -0.2341  0.1520
 6096SOL    HW129217   1.336   7.974   3.610 -1.5499  0.3355 -0.8400
 6096SOL    HW229218   1.197   7.897   3.571 -2.1260 -0.5475  2.7259
 6097SOL     OW29219   0.492   6.165   1.966 -0.3156 -0.0596 -0.0889
 6097SOL    HW129220   0.588   6.185   1.984  0.1823 -0.8967 -1.6776
 6097SOL    HW229221   0.441   6.166   2.052  0.9930  0.9775  0.6945
 6098SOL     OW29222   3.748   2.471   4.395 -0.2224  0.1076 -0.3052
 6098SOL    HW129223   3.731   2.433   4.304 -0.1898 -1.9117  0.5033
 6098SOL    HW229224   3.661   2.476   4.445  0.1728 -1.7199  0.6240
 6099SOL     OW29225   4.063   7.688   5.386  0.0045  0.2340 -0.4619
 6099SOL    HW129226   4.130   7.627   5.344 -0.4627 -2.3366  2.3063
 6099SOL    HW229227   3.971   7.651   5.373 -0.3452  0.6781  0.6611
 6100SOL     OW29228   3.118   9.449   0.564  1.0174  0.1711  0.0281
 6100SOL    HW129229   3.184   9.383   0.601 -0.1383 -1.2472 -0.4219
 6100SOL    HW229230   3.116   9.443   0.465 -0.0015  0.0123  0.0542
 6101SOL     OW29231   0.373   2.385   2.870  0.4598  0.6766  0.1114
 6101SOL    HW129232   0.392   2.460   2.806 -0.1335 -0.7677 -1.7778
 6101SOL    HW229233   0.460   2.347   2.901  0.7430  0.6738 -0.6716
 6102SOL     OW29234   0.858   1.421   3.157  0.4298 -0.8845  0.1158
 6102SOL    HW129235   0.953   1.404   3.128  0.8856  2.2855 -0.4617
 6102SOL    HW229236   0.797   1.407   3.079  0.6840 -0.7927 -0.1040
 6103SOL     OW29237   7.964   1.190   2.555 -0.0401  0.0958 -0.2014
 6103SOL    HW129238   8.061   1.166   2.561 -0.3636 -1.1693  0.0945
 6103SOL    HW229239   7.934   1.225   2.644  0.6615  2.5489 -0.8951
 6104SOL     OW29240   7.932   5.004   0.307  0.5992 -0.5139  0.2674
 6104SOL    HW129241   7.904   5.100   0.303 -1.7812 -1.2009  0.0130
 6104SOL    HW229242   7.977   4.986   0.395  1.4681  0.9152  0.1360
 6105SOL     OW29243   1.815   5.941   4.634  0.2861 -0.2410 -0.1410
 6105SOL    HW129244   1.764   6.006   4.691  1.0831 -0.9615  1.3987
 6105SOL    HW229245   1.842   5.987   4.549  1.9121  1.8581  1.4434
 6106SOL     OW29246   1.466   7.001   5.506 -0.4004 -0.1732  0.2833
 6106SOL    HW129247   1.431   6.926   5.449 -1.2982  1.2842 -1.1570
 6106SOL    HW229248   1.551   7.036   5.466 -0.3231 -0.0246  0.5811
 6107SOL     OW29249   8.225   2.045   3.545  0.2671 -0.4321  0.3039
 6107SOL    HW129250   8.281   2.025   3.464  0.2876 -0.7749  0.4012
 6107SOL    HW229251   8.253   2.134   3.583 -1.5354  0.9976 -1.5844
 6108SOL     OW29252   9.102   6.338   0.833 -0.2288  0.4393  0.3188
 6108SOL    HW129253   9.180   6.328   0.895  1.8576 -0.9766 -2.4434
 6108SOL    HW229254   9.045   6.256   0.838 -0.7394  0.8282  1.1806
 6109SOL     OW29255   1.012   7.001   2.819  0.1975 -0.2347 -0.3412
 6109SOL    HW129256   0.932   7.043   2.777 -0.6622  0.4062  1.8465
 6109SOL    HW229257   0.983   6.928   2.880  1.4499 -1.5161 -1.2390
 6110SOL     OW29258   4.515   0.327   2.021 -0.4908 -0.4699 -0.1624
 6110SOL    HW129259   4.607   0.366   2.013  0.3496 -1.8184  2.1724
 6110SOL    HW229260   4.449   0.400   2.033  0.3459  0.4907 -1.3005
 6111SOL     OW29261   0.461   5.143   1.387  0.3334  0.1207 -0.8460
 6111SOL    HW129262   0.525   5.172   1.315  0.2759 -1.1077 -1.4154
 6111SOL    HW229263   0.368   5.145   1.351 -0.0383  2.5806  0.1989
 6112SOL     OW29264   9.412   2.392   5.444  0.0530  0.2240  0.3186
 6112SOL    HW129265   9.314   2.396   5.463  0.0607  0.4166  0.3125
 6112SOL    HW229266   9.463   2.434   5.519  0.0470  1.6620 -0.4712
 6113SOL     OW29267   3.558   0.555   4.316  0.1939 -0.1277 -0.4589
 6113SOL    HW129268   3.598   0.646   4.308 -2.0093  0.8072 -1.2562
 6113SOL    HW229269   3.462   0.563   4.344 -0.0842 -2.1873 -0.7344
 6114SOL     OW29270   1.584   1.332   2.427 -0.2863 -0.2065  0.1468
 6114SOL    HW129271   1.627   1.303   2.513  0.9510 -1.1797 -0.7914
 6114SOL    HW229272   1.645   1.395   2.379 -1.0865  0.5301  0.0998
 6115SOL     OW29273   3.326   2.995   1.961  0.2725  0.4762 -0.4558
 6115SOL    HW129274   3.415   2.998   1.915 -0.4485  0.1909 -1.9073
 6115SOL    HW229275   3.273   2.917   1.927 -0.6511  0.8123  0.1704
 6116SOL     OW29276   8.542   7.187   5.058  0.2272 -0.3236  0.0256
 6116SOL    HW129277   8.500   7.275   5.082  1.2704  0.3072 -0.4153
 6116SOL    HW229278   8.534   7.173   4.959  0.8266 -0.3172 -0.0235
 6117SOL     OW29279   7.978   2.093   2.409  0.2357  0.0686  0.1158
 6117SOL    HW129280   7.987   2.193   2.408 -0.8017  0.1600 -0.2654
 6117SOL    HW229281   7.913   2.064   2.340  0.1316 -0.8399  0.5811
 6118SOL     OW29282   8.721   8.715   1.228 -0.3840 -0.0577 -0.4486
 6118SOL    HW129283   8.633   8.684   1.193 -0.8277  1.0670 -0.3515
 6118SOL    HW229284   8.733   8.812   1.205  0.1339  0.2011  0.9136
 6119SOL     OW29285   3.734   7.562   2.899  0.1398 -0.1073  0.4712
 6119SOL    HW129286   3.654   7.537   2.952 -0.3485 -0.0964 -0.2521
 6119SOL    HW229287   3.742   7.662   2.896  0.6261 -0.1192  1.1938
 6120SOL     OW29288   2.012   7.163   4.571 -0.3781  0.0203  0.1545
 6120SOL    HW129289   2.024   7.144   4.473  0.5963  2.6118 -0.2706
 6120SOL    HW229290   2.073   7.104   4.624  0.2735 -0.2869 -0.9104
 6121SOL     OW29291   5.051   5.737   1.066 -0.5839 -0.3650 -0.4105
 6121SOL    HW129292   5.090   5.652   1.103 -1.8981  0.1226  2.2411
 6121SOL    HW229293   5.120   5.808   1.066 -0.1849 -0.7481 -0.1484
 6122SOL     OW29294   2.747   2.144   2.868 -0.0065 -0.8710 -0.1350
 6122SOL    HW129295   2.655   2.182   2.877  0.1004 -0.7749  0.5388
 6122SOL    HW229296   2.743   2.064   2.808 -0.5045 -0.7963 -0.2123
 6123SOL     OW29297   0.724   7.896   2.125  0.2208  0.2559  0.3972
 6123SOL    HW129298   0.642   7.952   2.110  0.2726  0.1344 -0.3607
 6123SOL    HW229299   0.705   7.828   2.196  0.0684  1.0462  1.1324
 6124SOL     OW29300   5.259   8.374   1.369 -1.0088  0.5447 -0.4753
 6124SOL    HW129301   5.160   8.377   1.388 -0.7936 -0.1616  0.8457
 6124SOL    HW229302   5.281   8.291   1.319 -0.9816  0.3609 -0.1558
 6125SOL     OW29303   8.207   3.482   5.042 -0.4487 -0.6004 -0.1989
 6125SOL    HW129304   8.209   3.578   5.016 -0.0583 -0.2931  0.9220
 6125SOL    HW229305   8.143   3.433   4.984  1.3040 -0.2050 -2.5627
 6126SOL     OW29306   9.374   1.014   3.386  0.5705  0.4293  0.3631
 6126SOL    HW129307   9.379   0.919   3.418  0.3467  0.5623  0.7899
 6126SOL    HW229308   9.285   1.031   3.345  1.4438 -0.2345 -1.9052
 6127SOL     OW29309   2.791   5.692   0.544  0.6506 -0.0359 -0.0610
 6127SOL    HW129310   2.843   5.763   0.496  1.4119  0.4843  1.5014
 6127SOL    HW229311   2.746   5.732   0.624 -0.3737 -0.9505 -0.1726
 6128SOL     OW29312   0.405   6.229   2.228  0.2527  0.4479 -0.0544
 6128SOL    HW129313   0.460   6.292   2.283  0.5114  1.0450 -0.9737
 6128SOL    HW229314   0.314   6.268   2.215 -0.1379 -0.1773  0.8186
 6129SOL     OW29315   2.366   2.828   0.311  0.1379  0.3393  0.1370
 6129SOL    HW129316   2.426   2.752   0.334  0.2139  0.1488 -0.6780
 6129SOL    HW229317   2.420   2.907   0.285  0.0396 -0.0021 -1.1355
 6130SOL     OW29318   9.751   2.796   0.755 -0.5424 -0.5114 -0.1501
 6130SOL    HW129319   9.792   2.729   0.816  1.6060  0.5350 -0.3788
 6130SOL    HW229320   9.806   2.802   0.671  0.0285  2.3698  0.3816
 6131SOL     OW29321   1.687   1.021   5.563 -0.0724  0.0939 -0.1424
 6131SOL    HW129322   1.607   1.080   5.561 -0.8282 -0.9453 -1.8548
 6131SOL    HW229323   1.693   0.976   5.653 -1.5612 -0.0346 -0.0944
 6132SOL     OW29324   9.850   0.839   4.735  0.3444  0.7620 -0.2982
 6132SOL    HW129325   9.750   0.847   4.742  0.3480  0.1457  0.5046
 6132SOL    HW229326   9.874   0.742   4.729  0.9277  0.8978 -0.1190
 6133SOL     OW29327   8.276   5.227   1.411  0.4320  0.3390  0.2042
 6133SOL    HW129328   8.275   5.179   1.498 -0.0938 -0.4243 -0.2215
 6133SOL    HW229329   8.299   5.323   1.426  1.7552 -0.0909  1.0293
 6134SOL     OW29330   3.640   0.322   1.883  0.5708  0.4397 -0.0568
 6134SOL    HW129331   3.705   0.275   1.944  0.3457  0.7457  0.4221
 6134SOL    HW229332   3.569   0.258   1.854  0.2124  0.5057  0.6693
 6135SOL     OW29333   0.478   4.563   4.077  0.2703  0.2773 -0.0351
 6135SOL    HW129334   0.451   4.468   4.064  1.4743 -0.2619  1.2489
 6135SOL    HW229335   0.534   4.570   4.160 -0.5694  2.2450  0.3862
 6136SOL     OW29336   6.819   8.538   1.679  0.0801 -0.0712 -0.1854
 6136SOL    HW129337   6.773   8.451   1.661  2.0529 -0.7465 -2.0963
 6136SOL    HW229338   6.836   8.585   1.593  1.4445  0.9649  0.6326
 6137SOL     OW29339   9.805   5.579   0.611 -0.3107 -0.5341 -0.2501
 6137SOL    HW129340   9.829   5.485   0.634 -0.6790 -0.7125 -0.5788
 6137SOL    HW229341   9.786   5.631   0.695  2.5029 -0.0177  0.1127
 6138SOL     OW29342   2.178   0.397   3.195  0.1419  0.2838 -0.2896
 6138SOL    HW129343   2.175   0.444   3.107 -0.0547  1.4799  0.3452
 6138SOL    HW229344   2.192   0.464   3.268  0.9725 -0.7631  0.5311
 6139SOL     OW29345   0.098   0.104   4.817  0.2982  0.3251 -0.2179
 6139SOL    HW129346   0.026   0.119   4.885  1.1160  0.8927  0.5373
 6139SOL    HW229347   0.126   0.009   4.818 -1.8688 -0.3892 -1.9671
 6140SOL     OW29348   3.738   2.439   3.853  0.1407  0.0349  0.3313
 6140SOL    HW129349   3.741   2.342   3.830  1.5832  0.1607 -0.0633
 6140SOL    HW229350   3.701   2.490   3.775  0.8621 -0.0341 -0.0667
 6141SOL     OW29351   9.940   3.187   2.783 -0.1071  0.1357 -0.4299
 6141SOL    HW129352   9.944   3.089   2.763  0.2555 -0.0756  0.6424
 6141SOL    HW229353   9.979   3.238   2.706  2.2939 -0.7102  0.1684
 6142SOL     OW29354   9.497   9.116   3.606  0.4899  0.6979 -0.0943
 6142SOL    HW129355   9.455   9.158   3.686  0.1089  2.2960 -1.1168
 6142SOL    HW229356   9.571   9.056   3.636 -1.6713 -1.2155  1.6483
 6143SOL     OW29357   9.014   3.631   5.207 -0.0318  0.5836  0.2949
 6143SOL    HW129358   9.050   3.585   5.288  0.5326  1.1195  0.3542
 6143SOL    HW229359   8.914   3.631   5.210 -0.0185  0.2272  0.7773
 6144SOL     OW29360   1.780   9.534   3.085 -0.4316  0.3200  0.6699
 6144SOL    HW129361   1.825   9.622   3.101  1.1160 -0.5016  0.8522
 6144SOL    HW229362   1.848   9.464   3.065 -1.7224 -0.6258 -0.5326
 6145SOL     OW29363   4.095   4.432   1.658  0.1317  0.1127  0.9461
 6145SOL    HW129364   4.124   4.514   1.608 -1.2761 -0.8608 -1.5965
 6145SOL    HW229365   4.155   4.356   1.633 -0.1178 -0.2128  1.3375
 6146SOL     OW29366   4.232   2.131   1.576 -0.2770 -0.2994  0.2253
 6146SOL    HW129367   4.222   2.227   1.602 -0.4521 -0.0998 -0.5657
 6146SOL    HW229368   4.327   2.104   1.587  0.2921  0.6774 -1.8665
 6147SOL     OW29369   9.869   7.794   3.535 -0.1186  0.4934 -0.2390
 6147SOL    HW129370   9.865   7.697   3.557 -2.0369  0.3928 -0.9381
 6147SOL    HW229371   9.882   7.847   3.619 -2.0041 -0.1988  0.5174
 6148SOL     OW29372   7.916   4.996   1.311 -0.3243  0.7887  0.3851
 6148SOL    HW129373   7.852   5.041   1.373 -0.8163  0.6589 -0.0287
 6148SOL    HW229374   7.942   4.907   1.348 -2.9844 -0.6527 -1.0342
 6149SOL     OW29375   2.143   1.840   4.548 -1.1726 -0.2827 -0.2608
 6149SOL    HW129376   2.138   1.843   4.648 -2.5706  1.5636 -0.3520
 6149SOL    HW229377   2.105   1.924   4.510 -0.0158 -0.6591 -2.3478
 6150SOL     OW29378   1.038   4.938   4.969  0.4005  0.5741 -0.0883
 6150SOL    HW129379   1.085   4.861   5.013  0.2846  0.9977  0.8024
 6150SOL    HW229380   1.040   4.927   4.870  2.3581  0.5599 -0.0611
 6151SOL     OW29381   9.056   3.016   4.037 -0.3712  0.9420 -0.6588
 6151SOL    HW129382   9.026   2.972   3.952 -0.7632 -0.4662  0.1842
 6151SOL    HW229383   8.993   2.991   4.111  0.9787  0.6942  0.4252
 6152SOL     OW29384   9.067   9.227   1.247 -0.8706 -0.3780 -0.1345
 6152SOL    HW129385   9.129   9.246   1.324 -0.4284  2.0834 -1.0481
 6152SOL    HW229386   9.004   9.304   1.236 -2.7477 -1.9585 -0.5196
 6153SOL     OW29387   8.801   6.048   3.495  0.1799 -0.3236  0.4354
 6153SOL    HW129388   8.776   5.992   3.417 -1.0114  2.6575 -1.4176
 6153SOL    HW229389   8.724   6.052   3.559 -0.6028  0.9825 -0.5505
 6154SOL     OW29390   9.426   8.133   5.526  0.9512 -0.5137 -0.2437
 6154SOL    HW129391   9.442   8.181   5.613 -0.9326 -0.8687  0.3152
 6154SOL    HW229392   9.475   8.046   5.527  0.6140 -0.7037  0.6469
 6155SOL     OW29393   9.940   7.177   4.221 -0.4550  0.7173 -0.9968
 6155SOL    HW129394  10.000   7.185   4.300 -1.2835 -0.3932 -0.2463
 6155SOL    HW229395   9.991   7.135   4.145 -0.5498 -1.1811 -0.0379
 6156SOL     OW29396   8.213   1.986   2.050 -0.3140 -0.4495  0.2373
 6156SOL    HW129397   8.238   1.891   2.069 -0.7062 -0.4657  0.6959
 6156SOL    HW229398   8.116   1.990   2.023 -0.1850 -0.2332 -0.1954
 6157SOL     OW29399   3.219   6.537   5.242  0.1986  0.0751  0.1208
 6157SOL    HW129400   3.224   6.455   5.185  0.0602 -0.3045  0.6482
 6157SOL    HW229401   3.175   6.610   5.190  0.8863  0.0107 -0.5688
 6158SOL     OW29402   2.030   2.849   4.711 -0.1477 -0.0015  0.2109
 6158SOL    HW129403   1.966   2.818   4.782  0.5006 -0.0061  0.8015
 6158SOL    HW229404   2.120   2.809   4.728  0.4105  1.2650  0.3088
 6159SOL     OW29405   7.590   4.810   4.145 -0.3183 -0.3440 -0.1026
 6159SOL    HW129406   7.644   4.742   4.095  1.5574 -0.5223  2.1009
 6159SOL    HW229407   7.547   4.872   4.080  2.9000  0.0868 -1.9364
 6160SOL     OW29408   2.370   1.732   2.545 -0.5898  0.2248  0.3897
 6160SOL    HW129409   2.372   1.655   2.610 -1.2518 -0.5694 -0.5184
 6160SOL    HW229410   2.455   1.784   2.553 -0.1676 -0.5462  1.0713
 6161SOL     OW29411   9.230   3.018   0.664 -0.0015 -0.2533 -0.4241
 6161SOL    HW129412   9.174   3.079   0.721 -0.5809 -1.3531  0.2141
 6161SOL    HW229413   9.275   2.950   0.723 -1.4776 -2.0812 -1.3648
 6162SOL     OW29414   3.665   3.160   1.070  0.2513  0.3183  0.6999
 6162SOL    HW129415   3.666   3.169   0.970  0.2034  0.9859  0.7564
 6162SOL    HW229416   3.758   3.171   1.105  0.2760  0.0320  0.7301
 6163SOL     OW29417   9.493   1.353   5.553 -0.0118  0.3428 -0.2181
 6163SOL    HW129418   9.488   1.392   5.461 -2.8881  1.1575  0.2421
 6163SOL    HW229419   9.404   1.361   5.597  1.1427 -0.7207  2.3765
 6164SOL     OW29420   0.485   3.725   1.483  0.2484 -0.2979  0.0946
 6164SOL    HW129421   0.468   3.664   1.560 -0.3738 -1.3130 -0.8257
 6164SOL    HW229422   0.581   3.753   1.483  0.2094 -0.1550  1.3242
 6165SOL     OW29423   8.869   3.314   0.725 -0.2498 -0.0329  0.1118
 6165SOL    HW129424   8.795   3.297   0.790  0.1450 -1.5665  0.1814
 6165SOL    HW229425   8.852   3.263   0.641 -0.2892  1.2190 -0.6484
 6166SOL     OW29426   6.179   0.816   0.418 -0.1865 -0.5681  0.6196
 6166SOL    HW129427   6.244   0.823   0.493 -0.5268 -0.1540  0.8826
 6166SOL    HW229428   6.086   0.829   0.454 -0.2520  0.9763 -0.0650
 6167SOL     OW29429   1.455   4.413   0.840 -0.1698 -0.4314  0.2645
 6167SOL    HW129430   1.437   4.340   0.774  0.4472  0.2688 -0.7062
 6167SOL    HW229431   1.372   4.469   0.851 -0.0585 -0.1045 -0.5025
 6168SOL     OW29432   3.242   7.331   0.282 -0.5070  0.2241  0.5266
 6168SOL    HW129433   3.306   7.331   0.205  0.2404  0.3019  1.1491
 6168SOL    HW229434   3.163   7.273   0.259  0.4668 -1.0536  0.3276
 6169SOL     OW29435   4.862   0.046   1.884 -0.1306 -0.1428 -0.6726
 6169SOL    HW129436   4.894   0.141   1.881  1.8159 -0.8051 -1.6470
 6169SOL    HW229437   4.924  -0.009   1.940  0.7966 -1.5537 -3.0008
 6170SOL     OW29438   6.072   9.726   1.074  0.1579  0.2670 -0.0318
 6170SOL    HW129439   6.022   9.769   0.999  0.6331 -1.0978 -1.1483
 6170SOL    HW229440   6.163   9.766   1.081  0.4161 -0.1843 -0.7383
 6171SOL     OW29441   2.830   5.434   3.492 -0.0236 -0.0613 -0.4210
 6171SOL    HW129442   2.743   5.386   3.486 -0.0458  0.1481 -2.2155
 6171SOL    HW229443   2.888   5.391   3.560 -1.1856 -0.7677  0.1276
 6172SOL     OW29444   3.279   0.952   1.768 -0.4230 -0.1849  0.5311
 6172SOL    HW129445   3.180   0.953   1.753 -0.1779 -0.4489 -1.1664
 6172SOL    HW229446   3.298   0.912   1.858 -1.8077 -1.0432  0.4684
 6173SOL     OW29447   6.973   9.968   1.055 -0.3879 -0.0267  0.0176
 6173SOL    HW129448   7.060   9.924   1.034 -1.0067 -0.3526 -1.9591
 6173SOL    HW229449   6.981  10.018   1.142  1.5449 -0.6161  0.2015
 6174SOL     OW29450   6.872   8.242   2.925 -0.3482  0.6566  0.8003
 6174SOL    HW129451   6.872   8.172   2.997 -1.8366  0.2672  0.4303
 6174SOL    HW229452   6.965   8.275   2.912  0.2464 -0.6410  1.5805
 6175SOL     OW29453   2.973   2.134   4.661 -0.2654 -0.1714 -0.1435
 6175SOL    HW129454   2.886   2.092   4.637 -1.1218  1.9256 -0.8420
 6175SOL    HW229455   3.034   2.133   4.581  0.4835 -1.8799  0.4196
 6176SOL     OW29456   3.005   2.407   5.460  0.0945 -0.0190 -0.0854
 6176SOL    HW129457   2.946   2.482   5.432 -1.0055 -0.6063  0.6399
 6176SOL    HW229458   3.037   2.421   5.553 -0.9450 -0.9473  0.4228
 6177SOL     OW29459   1.428   3.641   0.260  0.0576  0.5448  0.5876
 6177SOL    HW129460   1.448   3.550   0.225 -0.1765  0.2123  1.3160
 6177SOL    HW229461   1.508   3.700   0.249  0.0370  0.3945 -0.3551
 6178SOL     OW29462   8.730   8.871   2.827 -0.1439 -0.4132  0.4381
 6178SOL    HW129463   8.683   8.821   2.900 -0.2415 -0.7649  0.1409
 6178SOL    HW229464   8.664   8.928   2.778  0.5698  2.7082  2.9547
 6179SOL     OW29465   3.457   1.404   5.272 -0.4229 -0.4452  0.4745
 6179SOL    HW129466   3.407   1.341   5.212 -1.0368  0.3755  0.1183
 6179SOL    HW229467   3.553   1.405   5.246 -0.4733 -0.9555  0.2446
 6180SOL     OW29468   2.474   7.865   0.754  0.6044  0.3628 -0.2901
 6180SOL    HW129469   2.555   7.832   0.705  1.1219  0.8293  0.2453
 6180SOL    HW229470   2.424   7.786   0.791  0.8812  0.0765 -0.5184
 6181SOL     OW29471   3.526   4.415   4.013  0.0514  0.2139  0.2717
 6181SOL    HW129472   3.592   4.389   3.943 -0.9681 -0.5455 -0.4134
 6181SOL    HW229473   3.438   4.372   3.994 -0.9123  1.9663  0.6552
 6182SOL     OW29474   4.475   2.664   4.374 -0.1962  0.1264 -0.0290
 6182SOL    HW129475   4.506   2.682   4.281  1.5579  1.1431  0.7329
 6182SOL    HW229476   4.426   2.744   4.409  0.2345  0.2190  0.3645
 6183SOL     OW29477   2.372   9.168   0.529  0.2112  0.7621  0.2580
 6183SOL    HW129478   2.411   9.094   0.583  0.2471  0.7581  0.2256
 6183SOL    HW229479   2.423   9.252   0.546  1.0218  0.4780 -0.7466
 6184SOL     OW29480   0.237   5.726   3.291  0.1777  0.3357 -0.4041
 6184SOL    HW129481   0.156   5.746   3.237 -0.5984  0.0354  0.6337
 6184SOL    HW229482   0.233   5.776   3.378  1.3610  0.7426 -0.5746
 6185SOL     OW29483   4.799   3.578   2.828  0.0780 -0.3017  0.1279
 6185SOL    HW129484   4.863   3.626   2.769  1.1224  2.3012  3.1934
 6185SOL    HW229485   4.707   3.616   2.815 -0.0024 -0.8603 -0.9581
 6186SOL     OW29486   4.383   0.822   1.101 -0.1048 -0.2861 -0.0742
 6186SOL    HW129487   4.326   0.853   1.026  0.4417  0.8078 -0.0496
 6186SOL    HW229488   4.475   0.860   1.091  0.6077 -1.9636 -0.0750
 6187SOL     OW29489   2.872   4.159   1.813 -0.2609  0.4405  0.3227
 6187SOL    HW129490   2.942   4.199   1.753 -0.1293 -1.6256 -0.9913
 6187SOL    HW229491   2.912   4.141   1.903 -0.4849  3.6682  1.0920
 6188SOL     OW29492   9.523   2.105   0.371 -0.7016 -0.7182  0.3671
 6188SOL    HW129493   9.570   2.030   0.324  2.1701  1.0918  0.2770
 6188SOL    HW229494   9.508   2.181   0.307 -0.2684  0.2393  1.3919
 6189SOL     OW29495   2.125   2.700   0.496 -0.3825  0.8929  0.3609
 6189SOL    HW129496   2.117   2.708   0.596  0.9910  0.3113  0.5224
 6189SOL    HW229497   2.211   2.741   0.466  0.0435 -0.5244 -0.3933
 6190SOL     OW29498   8.519   2.678   2.515 -0.1008 -0.4443 -0.0049
 6190SOL    HW129499   8.538   2.776   2.527  0.7351 -0.5552 -0.3571
 6190SOL    HW229500   8.442   2.652   2.573 -1.5758  0.8288 -1.3213
 6191SOL     OW29501   7.084   6.867   3.429 -0.2733 -0.1639 -0.0098
 6191SOL    HW129502   7.183   6.871   3.445 -0.5050  1.7764  1.0183
 6191SOL    HW229503   7.058   6.935   3.361 -1.0321 -0.0811  0.3541
 6192SOL     OW29504   9.863   7.951   3.730  0.2944  0.0782  0.5051
 6192SOL    HW129505   9.823   8.041   3.745  0.7439  0.4975 -0.7134
 6192SOL    HW229506   9.908   7.920   3.813 -1.3592  0.2072  1.4655
 6193SOL     OW29507   8.165   5.630   3.858  0.5143 -0.0727 -0.1966
 6193SOL    HW129508   8.246   5.633   3.917  0.1285  0.2652  0.3252
 6193SOL    HW229509   8.087   5.595   3.910  0.5513 -1.3240 -0.9782
 6194SOL     OW29510   9.617   2.156   1.759  0.5519 -0.4979 -0.2250
 6194SOL    HW129511   9.616   2.249   1.795 -0.5323 -1.4502  2.3566
 6194SOL    HW229512   9.705   2.112   1.781  0.9408 -0.2106 -1.1657
 6195SOL     OW29513   7.547   6.432   2.519  0.1566  0.3156 -0.1353
 6195SOL    HW129514   7.580   6.364   2.453 -0.0630 -1.0613  1.1506
 6195SOL    HW229515   7.588   6.521   2.498  1.0451 -0.3638 -1.3774
 6196SOL     OW29516   8.287   7.166   0.324  0.4099  0.3827  0.1359
 6196SOL    HW129517   8.219   7.213   0.379  0.6142 -1.0034  1.6148
 6196SOL    HW229518   8.366   7.225   0.309  0.1489  0.9312  0.9292
 6197SOL     OW29519   4.768   2.930   3.416 -0.4805  0.0337  0.8085
 6197SOL    HW129520   4.774   2.830   3.423 -0.5126  0.1009  1.8395
 6197SOL    HW229521   4.825   2.972   3.486  1.2159  0.7594 -0.9780
 6198SOL     OW29522   1.679   6.172   1.432  0.4130  0.4661 -0.1836
 6198SOL    HW129523   1.767   6.219   1.428  0.8824 -0.3560  0.3386
 6198SOL    HW229524   1.695   6.073   1.436 -0.4960  0.3788  1.4823
 6199SOL     OW29525   2.162   0.934   4.602  0.4303 -1.2236  0.3284
 6199SOL    HW129526   2.208   0.851   4.634  1.7076 -0.6516 -0.0123
 6199SOL    HW229527   2.092   0.961   4.668  0.3475 -2.2941  0.6820
 6200SOL     OW29528   8.961   6.298   0.537 -0.1751  0.0307  0.5773
 6200SOL    HW129529   8.898   6.371   0.566 -1.2393 -0.0273 -1.5146
 6200SOL    HW229530   8.964   6.227   0.608 -2.3797  0.0946  0.7797
 6201SOL     OW29531   8.442   1.098   0.065  0.3857  0.1358  0.7103
 6201SOL    HW129532   8.477   1.178   0.017  1.9099 -0.3284  0.9986
 6201SOL    HW229533   8.343   1.095   0.058  0.2671  2.2949  1.0835
 6202SOL     OW29534   5.551   7.571   2.253 -0.0276 -0.7276  0.5662
 6202SOL    HW129535   5.649   7.551   2.250 -0.0243 -0.8816  1.6147
 6202SOL    HW229536   5.509   7.525   2.331 -0.5906  0.8048  1.2009
 6203SOL     OW29537   0.168   1.742   5.581 -0.3947  0.5682  1.0407
 6203SOL    HW129538   0.182   1.764   5.485 -0.1622  0.4322  1.0419
 6203SOL    HW229539   0.222   1.805   5.638  1.1165 -0.6551  1.0083
 6204SOL     OW29540   6.054   0.511   3.589 -0.2787 -0.0560  0.2996
 6204SOL    HW129541   6.098   0.436   3.539 -0.4730  0.6191 -0.9072
 6204SOL    HW229542   6.125   0.571   3.627 -0.1278 -0.7019  1.0690
 6205SOL     OW29543   3.649   3.850   1.971 -0.3735 -0.0084 -0.0597
 6205SOL    HW129544   3.717   3.844   2.044 -1.0849  0.4079  0.6409
 6205SOL    HW229545   3.558   3.832   2.008 -0.5121 -1.8312 -1.2269
 6206SOL     OW29546   1.539   8.587   0.639 -0.1842 -0.0537 -0.5247
 6206SOL    HW129547   1.584   8.663   0.592 -0.8071  0.0129 -1.0166
 6206SOL    HW229548   1.586   8.502   0.616  0.0021  0.0789 -0.6411
 6207SOL     OW29549   8.388   9.654   5.493 -0.4587  0.5322  0.2884
 6207SOL    HW129550   8.350   9.745   5.510  0.1931  0.8586  0.0622
 6207SOL    HW229551   8.320   9.584   5.513  0.1552  0.8852  3.9414
 6208SOL     OW29552   5.038   4.543   0.708 -0.5539 -0.0568  0.1660
 6208SOL    HW129553   5.049   4.588   0.619  0.2291  0.4697  0.5234
 6208SOL    HW229554   5.101   4.466   0.715  0.2133  0.6093  0.7112
 6209SOL     OW29555   9.276   0.198   1.493 -0.2039  0.2159 -0.5432
 6209SOL    HW129556   9.193   0.164   1.538  0.1661  0.0737  0.0351
 6209SOL    HW229557   9.269   0.297   1.480 -0.1114  0.3330  0.2623
 6210SOL     OW29558   9.959   3.613   3.857  0.5387 -0.4161 -0.2351
 6210SOL    HW129559   9.878   3.669   3.872  1.1946  0.5916 -0.3470
 6210SOL    HW229560   9.936   3.534   3.800 -0.4480 -0.3889  0.1261
 6211SOL     OW29561   0.466   6.698   2.264  0.6897 -0.3418  0.0966
 6211SOL    HW129562   0.472   6.605   2.300 -0.7578 -0.9744 -1.2411
 6211SOL    HW229563   0.556   6.728   2.233  1.1671 -1.2879  0.5551
 6212SOL     OW29564   8.290   6.862   1.650 -0.8457  0.2320  0.7708
 6212SOL    HW129565   8.211   6.834   1.704 -0.6932 -1.3021  0.2287
 6212SOL    HW229566   8.359   6.790   1.651 -0.3517  0.6685 -0.4991
 6213SOL     OW29567   9.012   6.479   1.835 -0.3525  0.4746  0.0036
 6213SOL    HW129568   9.024   6.384   1.805 -0.4816  0.3038  0.4829
 6213SOL    HW229569   9.102   6.521   1.849 -0.2923  0.0238  1.0220
 6214SOL     OW29570   1.328   8.504   3.098  0.1236  0.4465 -0.5095
 6214SOL    HW129571   1.250   8.563   3.079 -0.3252 -0.7930 -2.6865
 6214SOL    HW229572   1.296   8.414   3.128  0.6981  0.0474 -1.0628
 6215SOL     OW29573   9.759   5.566   2.245  0.5976  0.1018 -0.0435
 6215SOL    HW129574   9.843   5.599   2.203  0.4795  0.2102 -0.1961
 6215SOL    HW229575   9.765   5.575   2.345  0.3259  1.1580 -0.1126
 6216SOL     OW29576   1.209   1.842   4.426  0.4480  0.0701 -0.2638
 6216SOL    HW129577   1.213   1.742   4.428  0.1991  0.0484 -0.8432
 6216SOL    HW229578   1.130   1.873   4.479  1.6956  0.0471  1.6444
 6217SOL     OW29579   5.074   7.590   3.761 -0.4175 -0.2303 -0.4810
 6217SOL    HW129580   5.094   7.632   3.673 -1.9853  1.5716 -0.0156
 6217SOL    HW229581   5.089   7.657   3.835 -2.5190 -0.5628  0.3010
 6218SOL     OW29582   2.476   4.029   2.291 -0.3772  0.1907 -0.5245
 6218SOL    HW129583   2.531   4.048   2.373 -2.3618 -1.1178  1.1749
 6218SOL    HW229584   2.389   3.989   2.319 -2.2760  2.3405 -3.1395
 6219SOL     OW29585   8.585   3.113   5.514  0.2869  0.5011  0.4372
 6219SOL    HW129586   8.604   3.090   5.419  0.9993  0.0950  0.6719
 6219SOL    HW229587   8.670   3.114   5.566 -0.2245 -0.4000  1.3076
 6220SOL     OW29588   0.986   6.440   5.033  0.0433 -0.4428 -0.4523
 6220SOL    HW129589   1.050   6.447   5.109  0.0747  0.0647 -0.5238
 6220SOL    HW229590   0.906   6.497   5.051  0.7045  0.8534 -1.4396
 6221SOL     OW29591   9.490   5.123   1.746  0.0143  0.1281 -0.0127
 6221SOL    HW129592   9.434   5.109   1.828 -1.2619  1.0517 -0.7100
 6221SOL    HW229593   9.562   5.189   1.765 -1.0474  1.2889  0.0274
 6222SOL     OW29594   8.161   0.355   4.407  0.2014 -0.0004 -0.0697
 6222SOL    HW129595   8.069   0.318   4.415  0.0342 -0.1191 -2.3184
 6222SOL    HW229596   8.191   0.350   4.312  2.3099  0.5667  0.5396
 6223SOL     OW29597   4.518   3.407   2.394 -0.5328 -0.3464 -0.0237
 6223SOL    HW129598   4.562   3.358   2.319  0.5700  1.0223 -0.2773
 6223SOL    HW229599   4.560   3.379   2.481  1.7127  1.8351 -0.3594
 6224SOL     OW29600   5.793   0.485   3.250  0.1037  0.0720  0.0142
 6224SOL    HW129601   5.779   0.479   3.348 -1.2298 -2.2958 -0.3022
 6224SOL    HW229602   5.786   0.394   3.209 -0.2502  1.1491 -2.3961
 6225SOL     OW29603   3.896   3.387   1.866  0.2236  0.1322  0.8519
 6225SOL    HW129604   3.869   3.315   1.930 -0.7401  0.5726  0.9455
 6225SOL    HW229605   3.887   3.476   1.911  3.5324  0.2003  1.4871
 6226SOL     OW29606   3.167   7.608   0.316 -0.1683 -0.2319  0.2183
 6226SOL    HW129607   3.185   7.654   0.403  0.1531 -0.1000  0.0817
 6226SOL    HW229608   3.163   7.509   0.330 -1.7232 -0.1164  0.6648
 6227SOL     OW29609   0.287   5.999   2.645 -0.0787 -0.5616 -0.5732
 6227SOL    HW129610   0.272   6.098   2.648 -1.5907 -0.7676 -0.9121
 6227SOL    HW229611   0.385   5.980   2.645  0.2372  0.8650  2.1231
 6228SOL     OW29612   4.703   2.466   2.355  0.3414 -0.2549  0.3715
 6228SOL    HW129613   4.669   2.520   2.432 -0.1717 -1.5375  1.0603
 6228SOL    HW229614   4.791   2.424   2.380 -0.0588 -1.0658  0.4537
 6229SOL     OW29615   4.838   2.295   1.853 -0.1884 -0.5460  0.2357
 6229SOL    HW129616   4.889   2.210   1.837  1.5415  0.9193 -2.6006
 6229SOL    HW229617   4.798   2.326   1.767 -0.2718  1.8256  1.0878
 6230SOL     OW29618   4.281   9.848   0.822 -0.0682 -0.4371 -0.3317
 6230SOL    HW129619   4.224   9.778   0.864 -0.5494  0.1784  0.0512
 6230SOL    HW229620   4.351   9.877   0.887 -0.1769 -0.2158 -0.3123
 6231SOL     OW29621   3.679   1.925   5.010 -0.5185  0.0831 -0.1983
 6231SOL    HW129622   3.744   2.001   5.006 -0.3096 -0.0924 -0.1338
 6231SOL    HW229623   3.675   1.879   4.922  0.9161 -1.1332  0.3575
 6232SOL     OW29624   4.613   0.438   1.122 -0.3365 -0.0082 -0.1909
 6232SOL    HW129625   4.588   0.428   1.026 -2.9560  1.5170  0.2657
 6232SOL    HW229626   4.658   0.526   1.136 -0.9386  0.2577  0.1253
 6233SOL     OW29627   3.577   6.842   4.521 -0.3358 -0.8602  0.0526
 6233SOL    HW129628   3.620   6.813   4.436 -0.6371 -2.0796  0.3040
 6233SOL    HW229629   3.490   6.886   4.501 -0.8010 -1.8921 -0.2359
 6234SOL     OW29630   8.948   9.771   1.365 -0.0903  0.0709  0.1673
 6234SOL    HW129631   8.902   9.686   1.341  0.7935 -0.7642  1.3528
 6234SOL    HW229632   9.013   9.795   1.293 -0.7171  0.0270 -0.4192
 6235SOL     OW29633   6.374   0.764   2.926  0.4438  0.1576  0.1535
 6235SOL    HW129634   6.300   0.737   2.864  0.0468 -2.3352  1.6245
 6235SOL    HW229635   6.367   0.862   2.946 -1.5375  0.2664 -0.9136
 6236SOL     OW29636   1.800   0.063   1.595  0.3346 -0.1492  0.0075
 6236SOL    HW129637   1.758   0.153   1.604  1.4306  0.2487  1.3127
 6236SOL    HW229638   1.858   0.061   1.513  0.7251  0.4976  0.2686
 6237SOL     OW29639   9.407   0.641   4.764 -0.1869 -0.4500 -0.2775
 6237SOL    HW129640   9.463   0.581   4.822 -0.2956 -2.1091 -1.8654
 6237SOL    HW229641   9.312   0.638   4.796  0.2165  0.8054  1.1526
 6238SOL     OW29642   3.974   9.375   4.213  0.3440 -0.2828  0.3467
 6238SOL    HW129643   3.948   9.391   4.308  0.9842 -0.2523  0.5209
 6238SOL    HW229644   4.074   9.383   4.204  0.3874 -1.3445 -0.1179
 6239SOL     OW29645   0.157   8.248   2.258  0.7051  0.6339  0.2909
 6239SOL    HW129646   0.163   8.244   2.159 -0.6540  1.3396  0.1754
 6239SOL    HW229647   0.244   8.281   2.295  1.3357  0.0244 -0.6284
 6240SOL     OW29648   3.085   6.859   3.521  0.4560  0.9399  0.5805
 6240SOL    HW129649   3.107   6.937   3.462 -1.1317  2.0035  1.3476
 6240SOL    HW229650   3.085   6.889   3.617 -1.7204  0.3970  0.7720
 6241SOL     OW29651   0.387   4.237   0.090  0.0510 -0.0450  0.6866
 6241SOL    HW129652   0.430   4.302   0.026  0.8552 -0.4123  0.8467
 6241SOL    HW229653   0.321   4.180   0.040 -0.2095  0.4813  0.4228
 6242SOL     OW29654   4.755   9.283   1.386 -0.6641 -0.5072  0.1653
 6242SOL    HW129655   4.746   9.279   1.485  1.3973  2.3566  0.5347
 6242SOL    HW229656   4.837   9.233   1.357  0.4937  1.2889  0.2657
 6243SOL     OW29657   8.102   5.744   0.288 -0.4650  0.2371  0.1971
 6243SOL    HW129658   8.140   5.728   0.197 -0.2882  0.3477  0.2519
 6243SOL    HW229659   8.126   5.669   0.348 -0.7440  0.0711  0.1003
 6244SOL     OW29660   4.047   4.272   4.788  0.3588  0.1863 -0.2175
 6244SOL    HW129661   4.143   4.284   4.761  0.4343  1.2940  0.5293
 6244SOL    HW229662   4.041   4.201   4.858  0.6603  0.2731 -0.1028
 6245SOL     OW29663   0.158   3.924   1.187  0.1935 -0.0019  0.2439
 6245SOL    HW129664   0.175   3.826   1.196  1.9266  0.3393  0.9449
 6245SOL    HW229665   0.060   3.942   1.196 -0.2532 -1.7653 -0.9239
 6246SOL     OW29666   0.337   5.215   3.445  0.3244  0.1584 -0.1238
 6246SOL    HW129667   0.258   5.157   3.462 -0.6546  2.2387  2.7771
 6246SOL    HW229668   0.309   5.296   3.392  0.6332  0.5853  0.3594
 6247SOL     OW29669   0.577   4.038   0.149 -0.0201 -0.3987  0.1639
 6247SOL    HW129670   0.502   4.103   0.151  1.2939  1.1118  1.0441
 6247SOL    HW229671   0.551   3.958   0.094 -2.1900  0.1656  0.3562
 6248SOL     OW29672   7.800   7.743   2.380 -0.2299  0.4818 -0.1458
 6248SOL    HW129673   7.824   7.646   2.382 -0.5543  0.4080  0.2770
 6248SOL    HW229674   7.741   7.761   2.302 -2.3942 -0.1914  1.2956
 6249SOL     OW29675   9.813   9.879   4.960  0.2412 -0.0951  0.0508
 6249SOL    HW129676   9.913   9.868   4.960  0.3567  0.9573  0.6656
 6249SOL    HW229677   9.788   9.964   5.006 -0.9823 -0.6618  0.4575
 6250SOL     OW29678   1.918   8.886   0.916 -0.0434 -0.8901 -0.0294
 6250SOL    HW129679   1.833   8.913   0.960  0.0268  0.3393 -0.6249
 6250SOL    HW229680   1.985   8.858   0.986 -1.1422 -2.5500  0.3940
 6251SOL     OW29681   1.768   8.422   4.749 -0.2470 -0.0071  0.1985
 6251SOL    HW129682   1.670   8.402   4.759 -0.6483  2.0106  0.5319
 6251SOL    HW229683   1.811   8.425   4.839  0.1336 -0.9476  0.0475
 6252SOL     OW29684   8.828   8.539   2.568  0.2741  0.1151  0.0971
 6252SOL    HW129685   8.886   8.621   2.573  0.2896  0.2438 -1.7502
 6252SOL    HW229686   8.735   8.567   2.544  0.3104 -0.4180 -0.6644
 6253SOL     OW29687   9.554   3.573   1.029 -0.2321 -0.3113  0.0406
 6253SOL    HW129688   9.537   3.585   0.931 -1.7558  0.8564  0.4382
 6253SOL    HW229689   9.595   3.656   1.067 -0.9021 -0.2716  0.6740
 6254SOL     OW29690   0.349   9.994   4.137  0.4067 -0.8602 -0.2095
 6254SOL    HW129691   0.304   9.939   4.207 -0.9660 -0.1401 -0.5001
 6254SOL    HW229692   0.282  10.055   4.094  1.8844  1.0706  0.1468
 6255SOL     OW29693   0.588   1.911   1.346  0.1430  0.2617  0.1250
 6255SOL    HW129694   0.644   1.840   1.302  0.6457  1.2809 -0.8871
 6255SOL    HW229695   0.610   2.000   1.307 -0.4746  0.9871  1.4208
 6256SOL     OW29696   8.363   0.572   4.500  0.5011 -0.2719 -0.0258
 6256SOL    HW129697   8.315   0.599   4.583  0.3587  2.2345 -0.8835
 6256SOL    HW229698   8.306   0.509   4.447  0.5938 -1.8857  1.7346
 6257SOL     OW29699   8.961   3.760   4.785 -0.1665 -0.1689  0.2155
 6257SOL    HW129700   9.054   3.727   4.768  0.1050 -0.1768  1.6984
 6257SOL    HW229701   8.963   3.830   4.856 -1.0861  1.1113 -0.9947
 6258SOL     OW29702   7.723   2.078   0.037 -0.2236  0.7764 -0.4137
 6258SOL    HW129703   7.822   2.072   0.037 -0.2733 -0.7697 -2.7054
 6258SOL    HW229704   7.689   2.069   0.131  1.7476  0.7941  0.3293
 6259SOL     OW29705   4.154   4.867   1.806  0.4985 -0.9631 -0.5534
 6259SOL    HW129706   4.198   4.860   1.716 -0.3535 -1.1801 -0.9521
 6259SOL    HW229707   4.123   4.776   1.835 -1.9043 -0.4326 -1.3813
 6260SOL     OW29708   8.597   6.434   5.320  0.1773  0.0288 -0.4488
 6260SOL    HW129709   8.510   6.398   5.287  1.0592 -1.4614 -1.2190
 6260SOL    HW229710   8.587   6.531   5.343 -1.1655  0.4277 -2.5473
 6261SOL     OW29711   9.016   6.552   3.674  0.0911 -0.2947 -0.6945
 6261SOL    HW129712   9.093   6.615   3.682  0.9418 -1.5434  1.1472
 6261SOL    HW229713   9.014   6.513   3.582 -0.2302  2.1189 -1.7375
 6262SOL     OW29714   5.880   0.881   2.791 -0.4123 -0.9333 -0.7708
 6262SOL    HW129715   5.798   0.880   2.733 -0.9260  0.2731 -0.0827
 6262SOL    HW229716   5.960   0.900   2.734 -1.0342  1.2175 -0.9582
 6263SOL     OW29717   3.719   2.105   0.096 -0.2097 -0.0273  0.0053
 6263SOL    HW129718   3.625   2.095   0.062 -0.8744  1.7576  1.2455
 6263SOL    HW229719   3.747   2.201   0.088  1.4528 -0.5185 -0.1993
 6264SOL     OW29720   4.565   8.738   2.339  0.2598 -0.8552  0.7454
 6264SOL    HW129721   4.488   8.680   2.367 -1.5809  1.4499  0.5473
 6264SOL    HW229722   4.643   8.720   2.400 -1.9210  0.1026  3.9613
 6265SOL     OW29723   2.127   8.696   4.605 -0.0154  0.0117  0.9631
 6265SOL    HW129724   2.080   8.622   4.653  0.4602 -0.0249  1.3708
 6265SOL    HW229725   2.143   8.772   4.669 -0.2245  0.3402  0.6251
 6266SOL     OW29726   8.828   8.670   4.201  0.1059 -0.6635  0.4106
 6266SOL    HW129727   8.782   8.672   4.112 -0.2369 -0.0500  0.6001
 6266SOL    HW229728   8.890   8.591   4.205  1.1513  0.0697 -0.8956
 6267SOL     OW29729   4.586   0.943   3.827 -0.2640  0.4197 -0.3182
 6267SOL    HW129730   4.613   0.880   3.755 -1.4333 -0.4402 -0.0181
 6267SOL    HW229731   4.504   0.993   3.798  0.5123  1.6564 -0.4580
 6268SOL     OW29732   0.400   5.548   0.855 -0.1045  0.6774 -0.5608
 6268SOL    HW129733   0.383   5.644   0.834 -2.0234  0.6525  0.7666
 6268SOL    HW229734   0.434   5.501   0.773 -0.1754  2.2416 -1.4938
 6269SOL     OW29735   1.841   1.027   1.426 -0.3940 -0.1797 -0.4939
 6269SOL    HW129736   1.772   1.099   1.425  0.4984  0.7199  0.6079
 6269SOL    HW229737   1.797   0.938   1.434 -1.4406  0.3644 -0.1419
 6270SOL     OW29738   0.086   3.534   4.337  0.2589 -0.5871 -0.2959
 6270SOL    HW129739   0.145   3.586   4.399  0.0662 -0.1127 -0.5087
 6270SOL    HW229740   0.010   3.494   4.388  0.9507 -1.4859  0.0419
 6271SOL     OW29741   9.085   6.901   2.786  0.0751  0.8514  0.4054
 6271SOL    HW129742   9.180   6.885   2.815 -0.5333  0.5144  2.2798
 6271SOL    HW229743   9.023   6.874   2.859 -1.5727 -0.5282 -1.4533
 6272SOL     OW29744   8.351   3.205   0.385 -0.3523 -0.1206 -0.6212
 6272SOL    HW129745   8.347   3.107   0.365 -1.3041 -0.0786 -0.6771
 6272SOL    HW229746   8.382   3.254   0.303 -2.0253 -0.1728 -1.3225
 6273SOL     OW29747   4.702   7.550   3.481  0.0489  0.8701 -0.5873
 6273SOL    HW129748   4.620   7.495   3.470  1.5445 -1.7173  0.6696
 6273SOL    HW229749   4.734   7.544   3.575  1.1514  2.6048 -0.8320
 6274SOL     OW29750   4.466   7.980   1.373  0.6105  0.2036 -0.3650
 6274SOL    HW129751   4.391   8.014   1.430  0.6118 -0.0381 -0.2163
 6274SOL    HW229752   4.437   7.979   1.277 -0.0363 -1.1044 -0.1693
 6275SOL     OW29753   1.534   7.739   4.514 -0.5533 -0.0709  0.4539
 6275SOL    HW129754   1.614   7.699   4.469  0.1870  0.1775  1.5171
 6275SOL    HW229755   1.562   7.777   4.603 -1.4159  1.9497 -0.1163
 6276SOL     OW29756   3.272   9.737   1.951 -0.0025 -0.1779 -0.3944
 6276SOL    HW129757   3.350   9.764   2.007  0.6479  0.1041 -1.4279
 6276SOL    HW229758   3.296   9.656   1.897  0.7461  1.8885 -3.2674
 6277SOL     OW29759   4.000   3.475   0.485 -0.0487  0.0069  0.2234
 6277SOL    HW129760   4.058   3.510   0.411  0.4102  0.7218  0.9113
 6277SOL    HW229761   3.904   3.477   0.456  0.2999 -1.5805 -1.0713
 6278SOL     OW29762   5.687   0.876   3.010 -0.1580  0.3304 -0.3570
 6278SOL    HW129763   5.731   0.853   2.923 -0.9644 -0.8953 -0.4543
 6278SOL    HW229764   5.755   0.876   3.083  0.3615  0.4826 -0.8354
 6279SOL     OW29765   0.298   3.865   1.707 -0.2102  0.5715  0.2413
 6279SOL    HW129766   0.257   3.800   1.644 -0.8801  2.0003 -0.8319
 6279SOL    HW229767   0.249   3.864   1.794 -2.4182  2.1043 -0.9549
 6280SOL     OW29768   4.161   7.977   3.978 -0.5273  0.1145 -0.4578
 6280SOL    HW129769   4.212   8.063   3.988  0.8404 -0.6811 -0.4623
 6280SOL    HW229770   4.066   7.991   4.007 -0.1753  1.4807  0.0777
 6281SOL     OW29771   1.146   9.634   2.595  0.6048  0.3287 -0.6232
 6281SOL    HW129772   1.172   9.564   2.528 -1.6159 -0.0105 -1.1944
 6281SOL    HW229773   1.077   9.596   2.657  1.8490  0.9903  1.1918
 6282SOL     OW29774   0.953   9.511   0.927 -0.1271 -0.8268 -0.5060
 6282SOL    HW129775   0.903   9.528   1.012  1.2121 -0.6394  0.2598
 6282SOL    HW229776   1.019   9.437   0.942 -0.7523 -1.6672 -1.7460
 6283SOL     OW29777   3.671   8.066   3.461  0.2224 -0.2002 -0.1906
 6283SOL    HW129778   3.683   7.982   3.408 -2.5411 -0.4411 -0.5110
 6283SOL    HW229779   3.690   8.145   3.403  1.5775 -0.5359 -0.2409
 6284SOL     OW29780   1.713   0.716   3.323 -0.0777  0.2510 -0.2607
 6284SOL    HW129781   1.690   0.637   3.381  0.9595  0.4914  0.4962
 6284SOL    HW229782   1.759   0.684   3.241 -0.7410 -0.0192 -0.5349
 6285SOL     OW29783   3.118   3.773   3.208 -0.5522  0.2073  0.1543
 6285SOL    HW129784   3.140   3.871   3.205  1.5687 -0.2829 -0.6642
 6285SOL    HW229785   3.064   3.749   3.127  0.3632  0.3541 -0.4987
 6286SOL     OW29786   8.262   1.433   3.334 -0.4921 -0.1472  0.0422
 6286SOL    HW129787   8.273   1.345   3.379  1.4698  0.1301  0.1391
 6286SOL    HW229788   8.164   1.453   3.324 -0.9543 -1.8564  0.9124
 6287SOL     OW29789   8.219   6.220   5.503  0.9475  0.6954 -0.4679
 6287SOL    HW129790   8.214   6.223   5.603  2.2190  0.6811 -0.3928
 6287SOL    HW229791   8.263   6.134   5.475 -0.7360  0.0194 -1.1057
 6288SOL     OW29792   2.705   4.130   5.389  0.0410 -0.4743  0.5476
 6288SOL    HW129793   2.618   4.120   5.437 -0.2754 -1.0384 -0.1224
 6288SOL    HW229794   2.761   4.049   5.403  0.6617  0.0885  1.3626
 6289SOL     OW29795   1.005   8.076   2.890 -0.3902 -0.1144  0.0913
 6289SOL    HW129796   1.052   8.065   2.802 -0.3888  0.2005  0.0511
 6289SOL    HW229797   0.913   8.111   2.874 -0.7826 -1.0932  0.1446
 6290SOL     OW29798   2.295   1.255   3.949 -0.2947 -0.3906  0.3784
 6290SOL    HW129799   2.238   1.309   4.010 -0.1799 -0.1088  0.2366
 6290SOL    HW229800   2.392   1.272   3.970 -0.2547 -0.1536 -0.0068
 6291SOL     OW29801   1.400   7.336   4.021 -0.3028 -0.1305  0.2051
 6291SOL    HW129802   1.490   7.350   4.063  0.0032  0.3136 -0.5893
 6291SOL    HW229803   1.405   7.258   3.959  0.0435  1.0559 -1.2818
 6292SOL     OW29804   5.083   2.705   3.105 -0.6600  0.7553 -0.8440
 6292SOL    HW129805   5.103   2.769   3.030  3.2552 -0.2424 -0.7899
 6292SOL    HW229806   5.111   2.746   3.192 -0.5358 -0.0047 -0.5175
 6293SOL     OW29807   7.093   9.408   4.306  0.3128  0.5453 -0.1294
 6293SOL    HW129808   7.006   9.453   4.288 -0.4153 -1.3885 -1.7476
 6293SOL    HW229809   7.095   9.373   4.399 -1.5766 -1.3524 -0.7792
 6294SOL     OW29810   1.058   1.529   0.706 -0.2715 -0.1250  0.6630
 6294SOL    HW129811   1.007   1.489   0.630 -1.2261 -0.4869  1.4840
 6294SOL    HW229812   1.072   1.627   0.689 -0.3583 -0.2352 -0.0434
 6295SOL     OW29813   9.607   3.654   5.267 -0.1709 -0.1933 -0.4209
 6295SOL    HW129814   9.549   3.729   5.298  1.3500 -0.1436  2.4238
 6295SOL    HW229815   9.552   3.591   5.211 -1.8630  2.1075 -1.4369
 6296SOL     OW29816   3.113   1.252   3.748 -0.0007 -0.3818  0.4281
 6296SOL    HW129817   3.117   1.258   3.848  0.6784 -0.4509  0.4084
 6296SOL    HW229818   3.164   1.172   3.717 -2.3821 -1.8537  0.1826
 6297SOL     OW29819   0.306   5.553   1.935  0.3474 -0.2781 -0.3911
 6297SOL    HW129820   0.309   5.526   2.031  1.8510  2.1238  0.2758
 6297SOL    HW229821   0.258   5.483   1.882 -1.4669 -1.1192  2.2587
 6298SOL     OW29822   8.178   1.757   5.303  0.3069  0.2086  0.0791
 6298SOL    HW129823   8.226   1.767   5.390  0.2366 -3.2490  0.5725
 6298SOL    HW229824   8.237   1.786   5.228  0.7120  2.2937  1.1700
 6299SOL     OW29825   8.649   2.831   1.521 -0.4867  0.2413  0.1367
 6299SOL    HW129826   8.655   2.858   1.617  0.9294 -0.3449  0.2192
 6299SOL    HW229827   8.739   2.803   1.488 -1.5845 -2.9070 -0.3676
 6300SOL     OW29828   6.502   9.226   2.535  0.4872  0.5089  0.2050
 6300SOL    HW129829   6.585   9.246   2.587 -0.0958  0.9741  0.9706
 6300SOL    HW229830   6.500   9.129   2.511  2.0311  0.7994 -1.2008
 6301SOL     OW29831   8.086   2.546   0.048  0.0230  0.5929 -0.0216
 6301SOL    HW129832   7.987   2.535   0.053  0.1404 -0.5619  0.0094
 6301SOL    HW229833   8.127   2.521   0.137  0.4502 -0.3861 -0.4804
 6302SOL     OW29834   7.353   9.699   0.861 -0.5041 -0.1613  0.5903
 6302SOL    HW129835   7.391   9.719   0.952  0.1984  0.6529  0.1290
 6302SOL    HW229836   7.273   9.757   0.845  0.3225  0.8461  0.0616
 6303SOL     OW29837   1.215   5.217   5.043 -0.0284 -1.1203  0.3189
 6303SOL    HW129838   1.192   5.216   5.140  0.4778 -1.9684  0.4406
 6303SOL    HW229839   1.269   5.135   5.021  0.3457 -0.6425 -0.5579
 6304SOL     OW29840   2.783   4.726   1.625  0.7267 -0.2907 -0.4750
 6304SOL    HW129841   2.755   4.794   1.694  2.0379 -0.6940  0.4794
 6304SOL    HW229842   2.705   4.667   1.603  0.8017 -1.4816  2.2106
 6305SOL     OW29843   2.488   4.398   3.081  0.0568  0.1979 -0.0585
 6305SOL    HW129844   2.583   4.375   3.099  0.1090  0.3517 -0.1408
 6305SOL    HW229845   2.428   4.331   3.126  0.2297 -1.1540 -1.8065
 6306SOL     OW29846   9.025   9.383   2.602 -0.4130 -0.3058 -0.5227
 6306SOL    HW129847   8.984   9.474   2.591  0.5280  0.1530 -0.2482
 6306SOL    HW229848   9.103   9.374   2.541 -0.6934 -1.0529 -0.7773
 6307SOL     OW29849   8.300   4.478   1.204 -0.0611 -0.0951 -0.1269
 6307SOL    HW129850   8.204   4.491   1.177  0.2619  3.1353  0.0270
 6307SOL    HW229851   8.313   4.385   1.237 -2.5235 -1.4016 -2.6745
 6308SOL     OW29852   2.819   1.362   2.628 -0.2532  0.5387  0.3493
 6308SOL    HW129853   2.751   1.414   2.575  1.3285  1.8773 -0.3931
 6308SOL    HW229854   2.790   1.358   2.724 -1.2359  1.3342  0.0942
 6309SOL     OW29855   0.735   8.129   1.301  0.1431  0.1656  0.1691
 6309SOL    HW129856   0.799   8.147   1.376  3.2325 -1.4777 -1.9598
 6309SOL    HW229857   0.705   8.216   1.260  2.2656  0.9315  0.2029
 6310SOL     OW29858   0.343   4.250   2.129 -0.2690  0.3026 -0.0709
 6310SOL    HW129859   0.380   4.172   2.178 -0.1013  0.4810  0.0848
 6310SOL    HW229860   0.244   4.255   2.144 -0.0703  0.9549  1.0888
 6311SOL     OW29861   7.859   0.346   1.973  0.4502  0.2841  0.3459
 6311SOL    HW129862   7.891   0.294   2.052 -0.5237  1.4208  1.5165
 6311SOL    HW229863   7.910   0.319   1.892  1.7314 -0.6280  1.4405
 6312SOL     OW29864   5.365   1.030   2.190 -0.2126  0.1264  0.1468
 6312SOL    HW129865   5.418   0.945   2.192 -0.7898 -0.2223  0.8826
 6312SOL    HW229866   5.380   1.077   2.103 -0.7886 -1.2817 -0.7198
 6313SOL     OW29867   4.634   1.138   4.630 -0.7409  0.2340 -0.1543
 6313SOL    HW129868   4.692   1.196   4.687  0.5502 -0.4285 -0.7793
 6313SOL    HW229869   4.608   1.189   4.547  0.9109 -0.2846 -1.0042
 6314SOL     OW29870   2.188   2.789   1.272  0.5514 -0.4159 -0.2682
 6314SOL    HW129871   2.153   2.780   1.178  1.0676  0.1577 -0.5218
 6314SOL    HW229872   2.252   2.714   1.290 -0.5685 -1.2953  0.0945
 6315SOL     OW29873   2.984   0.600   1.369  0.6317 -0.0735 -0.0565
 6315SOL    HW129874   2.974   0.613   1.270  0.2298 -1.0096 -0.1383
 6315SOL    HW229875   3.022   0.509   1.387  1.8976  0.5701  0.5958
 6316SOL     OW29876   1.881   5.164   0.782  0.4189  0.1852  0.3246
 6316SOL    HW129877   1.902   5.069   0.804  0.7985 -0.0830 -1.1589
 6316SOL    HW229878   1.792   5.169   0.736  0.1598  0.6153  0.8568
 6317SOL     OW29879   3.129   6.813   4.612  0.0884  0.8374 -0.1039
 6317SOL    HW129880   3.058   6.795   4.680  1.2748  1.3606  1.3024
 6317SOL    HW229881   3.103   6.771   4.525  0.2912 -3.1251  1.6555
 6318SOL     OW29882   8.992   1.756   0.250  0.2591 -0.0208 -0.0268
 6318SOL    HW129883   9.019   1.851   0.234 -2.1878  0.7308  0.0516
 6318SOL    HW229884   8.960   1.746   0.344  0.9747 -1.0555  0.1163
 6319SOL     OW29885   0.523   5.333   2.018  0.1867 -0.3131  0.6326
 6319SOL    HW129886   0.453   5.290   2.076 -0.4566 -1.0185 -0.6410
 6319SOL    HW229887   0.518   5.432   2.029 -1.7595 -0.2927 -0.2682
 6320SOL     OW29888   9.132   5.421   1.153 -0.0066  0.7711 -0.0439
 6320SOL    HW129889   9.107   5.361   1.228  0.3820  1.8014  0.9193
 6320SOL    HW229890   9.056   5.483   1.133  0.5096  1.6178  0.6122
 6321SOL     OW29891   4.127   1.939   0.669  0.6535 -0.0491  0.0582
 6321SOL    HW129892   4.160   1.990   0.749 -0.1986  1.6280 -0.6565
 6321SOL    HW229893   4.028   1.926   0.676  0.6232 -0.1605 -0.5946
 6322SOL     OW29894   6.883   0.227   4.017  0.5673  0.0265  0.2200
 6322SOL    HW129895   6.909   0.134   3.992  0.0973 -0.3790  1.2345
 6322SOL    HW229896   6.797   0.226   4.067  1.5281  0.8142  1.9252
 6323SOL     OW29897   9.215   5.266   0.902 -0.0672 -0.2592  0.3450
 6323SOL    HW129898   9.312   5.289   0.897 -0.4560  1.3187 -0.5052
 6323SOL    HW229899   9.176   5.303   0.987 -0.5027  1.5994 -0.6195
 6324SOL     OW29900   0.615   3.020   2.287  0.6968 -0.1188 -0.5146
 6324SOL    HW129901   0.540   3.043   2.226 -1.5836 -0.8155  1.9204
 6324SOL    HW229902   0.638   2.923   2.277  1.1598  0.0546 -1.1367
 6325SOL     OW29903   0.162   8.329   0.493  0.4501  0.5592 -0.3121
 6325SOL    HW129904   0.184   8.249   0.548  0.6246  0.8849  0.1009
 6325SOL    HW229905   0.197   8.317   0.400 -1.9727 -1.0273 -1.0652
 6326SOL     OW29906   9.783   7.706   4.573 -0.9425 -0.0670 -0.0441
 6326SOL    HW129907   9.865   7.763   4.574 -0.3685 -0.8808  0.0732
 6326SOL    HW229908   9.704   7.761   4.546 -0.6573  1.1049  1.4675
 6327SOL     OW29909   3.333   3.519   1.048  0.1180  0.3688  0.5207
 6327SOL    HW129910   3.317   3.543   1.144  0.5598  3.1803 -0.0554
 6327SOL    HW229911   3.303   3.595   0.990  0.4900 -1.0243 -1.5468
 6328SOL     OW29912   7.535   9.311   3.550  0.4239 -0.2888 -0.5105
 6328SOL    HW129913   7.629   9.278   3.540  1.1304  0.9094  1.8947
 6328SOL    HW229914   7.536   9.406   3.581 -1.5893 -0.3573 -0.1662
 6329SOL     OW29915   4.151   8.103   5.268  0.3292 -0.1791 -0.3586
 6329SOL    HW129916   4.111   8.023   5.312  1.8725 -1.0679 -0.5397
 6329SOL    HW229917   4.219   8.074   5.201  0.5015  1.2771 -0.8422
 6330SOL     OW29918   3.549   2.032   4.499 -0.2675  0.0203 -0.4449
 6330SOL    HW129919   3.482   1.995   4.563  1.4569 -1.4188  0.5967
 6330SOL    HW229920   3.549   2.131   4.504 -0.2200 -0.0566  1.7773
 6331SOL     OW29921   8.784   4.634   4.819  0.5242 -0.2010 -0.1588
 6331SOL    HW129922   8.764   4.594   4.729 -0.6596 -3.0522  1.3278
 6331SOL    HW229923   8.882   4.625   4.839  0.5543 -0.8094 -0.5694
 6332SOL     OW29924   9.373   1.075   0.185 -0.3502  0.2553 -0.4251
 6332SOL    HW129925   9.423   1.063   0.099 -0.8924 -1.5082 -0.5151
 6332SOL    HW229926   9.426   1.133   0.247 -0.1078  1.8318 -2.0597
 6333SOL     OW29927   1.789   2.013   3.698 -0.6677  0.0950 -0.8304
 6333SOL    HW129928   1.833   2.098   3.726  2.5205 -1.3921 -1.0641
 6333SOL    HW229929   1.757   2.021   3.604  0.6211  0.7084 -1.2338
 6334SOL     OW29930   3.157   9.375   2.180 -0.0006 -0.0787  1.2915
 6334SOL    HW129931   3.136   9.450   2.242  1.6558  1.8081 -0.3480
 6334SOL    HW229932   3.090   9.374   2.105  1.3314  1.3498  0.0173
 6335SOL     OW29933   9.588   5.535   5.443  0.0563  0.0450 -0.1596
 6335SOL    HW129934   9.622   5.590   5.519 -0.6605 -0.0609  0.2410
 6335SOL    HW229935   9.515   5.475   5.476 -1.1456  0.9165 -1.1937
 6336SOL     OW29936   9.822   5.318   1.482  0.1822  0.3097  0.0074
 6336SOL    HW129937   9.911   5.363   1.487  0.7379 -0.4431 -2.4605
 6336SOL    HW229938   9.795   5.287   1.573  1.6511  2.0161  1.0601
 6337SOL     OW29939   2.087   6.854   2.675  0.1600 -0.0187  0.1508
 6337SOL    HW129940   2.056   6.861   2.770 -0.7113 -1.9374  0.0353
 6337SOL    HW229941   2.039   6.779   2.630  1.6499 -0.0855 -1.3812
 6338SOL     OW29942   2.182   1.088   2.046  0.5431 -0.4785 -0.2265
 6338SOL    HW129943   2.122   1.013   2.018  0.2739 -0.3237 -0.0729
 6338SOL    HW229944   2.204   1.079   2.143 -1.0878  0.7134  0.2782
 6339SOL     OW29945   6.000   8.573   1.043  0.2274  0.3906  0.0160
 6339SOL    HW129946   6.071   8.567   1.112  0.8385  1.0411 -0.5490
 6339SOL    HW229947   5.916   8.607   1.084  0.0277 -1.0540  0.8298
 6340SOL     OW29948   0.437   4.046   3.037 -0.3312 -0.2103 -0.2276
 6340SOL    HW129949   0.503   4.062   2.964 -0.7036 -1.5008 -0.8727
 6340SOL    HW229950   0.361   3.991   3.001 -0.5976 -0.7102  1.0827
 6341SOL     OW29951   5.267   7.396   3.790 -0.2828 -0.2856 -0.4562
 6341SOL    HW129952   5.359   7.434   3.792  0.1036 -1.1538 -1.3154
 6341SOL    HW229953   5.200   7.469   3.778  0.0276  0.7828  3.5202
 6342SOL     OW29954   9.715   7.478   0.826  0.4050 -0.5922  0.2097
 6342SOL    HW129955   9.644   7.456   0.894 -0.9973  1.0302 -0.6712
 6342SOL    HW229956   9.738   7.575   0.833  1.5730 -0.8199 -0.4225
 6343SOL     OW29957   1.347   1.758   3.097 -0.8421  0.2468  0.3134
 6343SOL    HW129958   1.402   1.804   3.166 -0.1262 -0.1677  0.0170
 6343SOL    HW229959   1.363   1.799   3.007  0.8121 -1.4340 -0.1788
 6344SOL     OW29960   2.237   0.794   3.098 -0.5841 -0.7152 -0.0983
 6344SOL    HW129961   2.159   0.830   3.149 -0.8966  0.6307 -1.5340
 6344SOL    HW229962   2.301   0.868   3.078 -0.9614 -1.0246 -2.5645
 6345SOL     OW29963   0.027   0.666   1.092 -0.3872  0.2662  0.1350
 6345SOL    HW129964   0.102   0.732   1.093 -0.6727  0.6054 -1.0930
 6345SOL    HW229965   0.056   0.583   1.141  0.3708  0.8465  0.6877
 6346SOL     OW29966   3.688   6.534   1.578 -0.2117 -0.0125  0.1800
 6346SOL    HW129967   3.696   6.633   1.568  0.4379 -0.2312 -1.5735
 6346SOL    HW229968   3.591   6.508   1.580 -0.3974  0.7465  1.7066
 6347SOL     OW29969   9.456   9.555   5.562  0.1690  0.1472 -0.2542
 6347SOL    HW129970   9.532   9.512   5.514 -1.7798 -2.0198 -1.4697
 6347SOL    HW229971   9.397   9.602   5.497  0.3383  1.6869  0.6660
 6348SOL     OW29972   1.663   6.365   5.498 -0.0910 -0.2365  0.3384
 6348SOL    HW129973   1.656   6.438   5.566 -0.2234 -1.0836  1.2406
 6348SOL    HW229974   1.732   6.299   5.527  1.7485  0.7338 -1.6235
 6349SOL     OW29975   4.305   6.414   1.955  0.0168 -0.1178  0.1740
 6349SOL    HW129976   4.257   6.386   1.873  1.4860 -0.7756 -0.4839
 6349SOL    HW229977   4.306   6.338   2.021 -0.7465  0.2471  0.6097
 6350SOL     OW29978   8.020   9.145   3.782  0.0810 -0.0882 -0.1189
 6350SOL    HW129979   8.048   9.060   3.826  1.3479  1.3579  1.9533
 6350SOL    HW229980   8.066   9.153   3.694 -1.8760 -2.6439 -1.4523
 6351SOL     OW29981   0.971   8.669   5.395  0.3471 -0.0834  0.0758
 6351SOL    HW129982   0.933   8.579   5.376 -0.8206  0.5202 -0.5093
 6351SOL    HW229983   0.896   8.735   5.409  1.1778  1.0233 -0.6090
 6352SOL     OW29984   2.210   9.389   3.387 -0.6617  0.3322  0.0800
 6352SOL    HW129985   2.221   9.479   3.427 -0.0860  0.2362  0.1493
 6352SOL    HW229986   2.158   9.331   3.449 -0.1578  0.3180  0.4978
 6353SOL     OW29987   3.569   3.208   4.646 -0.6736 -0.3423  0.6764
 6353SOL    HW129988   3.516   3.143   4.593 -0.5866 -0.5316  0.8196
 6353SOL    HW229989   3.531   3.300   4.635 -1.1645 -0.5093  0.9534
 6354SOL     OW29990   1.179   3.032   2.359  0.2679 -0.1331 -0.6693
 6354SOL    HW129991   1.228   3.118   2.373 -0.4835  0.1277  0.4898
 6354SOL    HW229992   1.245   2.959   2.342  1.0684  0.2606  0.6032
 6355SOL     OW29993   3.424   4.454   3.703 -0.4175  0.1750 -0.4593
 6355SOL    HW129994   3.454   4.375   3.650  3.0136  1.5355 -0.7143
 6355SOL    HW229995   3.346   4.497   3.657 -2.3129 -2.9767 -0.3254
 6356SOL     OW29996   6.838   8.877   1.213  0.0542 -0.4323 -0.0949
 6356SOL    HW129997   6.905   8.833   1.153 -0.3111  0.6189 -1.2884
 6356SOL    HW229998   6.839   8.976   1.197 -1.0837 -0.3093  0.5839
 6357SOL     OW29999   8.522   6.986   1.535  0.2004  0.8533 -0.1181
 6357SOL    HW130000   8.591   6.964   1.604 -0.1910 -0.2491 -0.0664
 6357SOL    HW230001   8.439   6.932   1.552  0.0957  0.5820 -1.4356
 6358SOL     OW30002   2.268   6.322   1.309 -0.4556 -0.5149 -0.0590
 6358SOL    HW130003   2.197   6.372   1.359 -0.2616 -0.3124  0.0162
 6358SOL    HW230004   2.266   6.349   1.212  1.1755  1.3935  0.4175
 6359SOL     OW30005   0.812   6.962   1.515  0.3692 -0.2993  0.1237
 6359SOL    HW130006   0.872   6.905   1.459  0.2287 -1.4343  1.1294
 6359SOL    HW230007   0.864   7.040   1.551  0.5718  0.2013 -1.1915
 6360SOL     OW30008   1.204   1.609   3.982  0.1674  0.3702 -0.1922
 6360SOL    HW130009   1.139   1.661   4.037 -1.7178 -1.3274 -0.7571
 6360SOL    HW230010   1.279   1.577   4.040  0.2765  1.9574  0.5575
 6361SOL     OW30011   1.711   1.648   5.420  0.0631 -0.2330  0.3210
 6361SOL    HW130012   1.618   1.614   5.430 -0.3135  0.9852  1.0368
 6361SOL    HW230013   1.776   1.578   5.451 -0.5650 -1.3373 -0.8047
 6362SOL     OW30014   9.319   3.583   2.244 -0.3630 -0.5465 -0.0300
 6362SOL    HW130015   9.268   3.606   2.161  0.0836 -0.2873 -0.2351
 6362SOL    HW230016   9.255   3.566   2.318 -0.7324  1.3132  0.1167
 6363SOL     OW30017   4.981   9.945   1.460  0.0728 -0.5654 -0.1043
 6363SOL    HW130018   5.007  10.035   1.495  1.7574 -0.0572 -2.5369
 6363SOL    HW230019   5.025   9.874   1.514  0.7075  0.1179  0.2917
 6364SOL     OW30020   0.702   1.027   1.025  0.6845 -0.2703  0.2196
 6364SOL    HW130021   0.724   0.948   0.968  2.2532  0.6898 -0.5512
 6364SOL    HW230022   0.710   1.001   1.121 -0.2586 -1.4332 -0.0019
 6365SOL     OW30023   9.276   2.032   5.303  0.3213  0.0531  0.4804
 6365SOL    HW130024   9.231   1.944   5.285 -1.3769  1.0514 -0.2832
 6365SOL    HW230025   9.268   2.090   5.222 -0.0079  1.5073  1.5388
 6366SOL     OW30026   5.714   8.049   4.338 -0.7397 -0.2443  0.4587
 6366SOL    HW130027   5.721   8.112   4.261 -2.1294 -0.5599  0.0657
 6366SOL    HW230028   5.730   8.098   4.424 -0.6661  0.3977  0.0719
 6367SOL     OW30029   2.268   5.138   3.941 -0.2090 -0.2104  0.1297
 6367SOL    HW130030   2.321   5.216   3.976 -0.1510  0.0203 -0.4643
 6367SOL    HW230031   2.315   5.053   3.965  0.1258 -0.0314  0.1175
 6368SOL     OW30032   8.207   8.676   4.108  0.1402  0.3949  0.2477
 6368SOL    HW130033   8.204   8.588   4.060 -0.6490  0.9816 -0.7965
 6368SOL    HW230034   8.250   8.744   4.049  1.0006  0.6544  1.1612
 6369SOL     OW30035   8.870   8.631   3.181 -0.0760  0.4527  0.2840
 6369SOL    HW130036   8.962   8.633   3.220 -0.4560 -0.8209  1.2792
 6369SOL    HW230037   8.806   8.674   3.244 -0.7916 -2.1313  1.3994
 6370SOL     OW30038   9.221   5.032   4.916  0.1424  0.2278  0.0176
 6370SOL    HW130039   9.309   4.984   4.909  1.0602  1.7384  1.0214
 6370SOL    HW230040   9.150   4.966   4.938  1.1221 -0.9235 -0.1907
 6371SOL     OW30041   0.820   6.713   4.407  0.4621  0.0080  0.4366
 6371SOL    HW130042   0.803   6.617   4.384 -0.2227  0.2180  0.0456
 6371SOL    HW230043   0.799   6.770   4.328  0.5842  0.5086  0.7657
 6372SOL     OW30044   9.558   5.894   1.701 -0.2860  0.0624 -0.4140
 6372SOL    HW130045   9.495   5.915   1.776 -1.1794  0.1791 -1.1917
 6372SOL    HW230046   9.606   5.808   1.721  0.1226  0.5446  0.6958
 6373SOL     OW30047   1.703   2.178   2.568  0.0987  0.3819  0.6293
 6373SOL    HW130048   1.635   2.172   2.641 -0.3833 -0.1328  0.1384
 6373SOL    HW230049   1.774   2.243   2.594  0.0789 -0.0164  1.6816
 6374SOL     OW30050   0.990   9.704   3.330  0.1561  0.0974  0.0353
 6374SOL    HW130051   1.054   9.751   3.390  0.0404 -1.2055  1.1996
 6374SOL    HW230052   0.974   9.611   3.364 -0.8769 -0.2316 -1.3088
 6375SOL     OW30053   1.230   2.417   2.811 -0.3439 -0.4912 -0.0701
 6375SOL    HW130054   1.251   2.334   2.863 -1.8045 -0.7085  0.2066
 6375SOL    HW230055   1.202   2.489   2.875  2.4909  0.7382 -0.1608
 6376SOL     OW30056   1.628   4.931   3.811  0.4442 -0.3907 -0.0074
 6376SOL    HW130057   1.725   4.922   3.790  0.4323 -0.6510  0.0451
 6376SOL    HW230058   1.587   5.000   3.752  0.9633  0.7296  0.9360
 6377SOL     OW30059   9.727   0.281   4.846  1.0411  0.0912  0.3145
 6377SOL    HW130060   9.790   0.259   4.772  0.1915  0.8568 -0.6429
 6377SOL    HW230061   9.655   0.211   4.850  2.0705 -0.9438  1.5918
 6378SOL     OW30062   0.022   8.632   3.130  0.2736 -0.5146 -0.3451
 6378SOL    HW130063   0.027   8.627   3.230  1.3278  0.1185 -0.3560
 6378SOL    HW230064  -0.073   8.627   3.101 -0.1841  1.2786  0.8088
 6379SOL     OW30065   8.024   9.186   3.067  0.4179 -0.0336  0.1375
 6379SOL    HW130066   8.010   9.152   3.160  1.4433 -1.9045 -0.3672
 6379SOL    HW230067   7.994   9.117   3.001  2.6695 -0.0372 -0.9125
 6380SOL     OW30068   4.541   0.926   5.600 -0.2563 -0.0981 -0.5380
 6380SOL    HW130069   4.597   0.869   5.540 -0.6634  0.2459 -1.2435
 6380SOL    HW230070   4.448   0.932   5.564 -0.9294 -1.1668  0.9614
 6381SOL     OW30071   0.599   2.876   2.649  0.4777  0.9398 -1.0389
 6381SOL    HW130072   0.678   2.832   2.605  0.1145 -0.0531 -0.6954
 6381SOL    HW230073   0.631   2.953   2.704  1.4195 -0.4434  0.4239
 6382SOL     OW30074   2.985   1.468   1.410 -0.4205  0.1926  0.1768
 6382SOL    HW130075   2.951   1.471   1.504 -1.3956  0.7261 -0.1905
 6382SOL    HW230076   2.909   1.479   1.346  0.5460  2.4638 -0.6377
 6383SOL     OW30077   7.636   9.414   0.914  0.2802 -0.6717 -0.6597
 6383SOL    HW130078   7.582   9.429   0.996  1.1347  1.9395 -0.5421
 6383SOL    HW230079   7.665   9.318   0.909 -0.8688 -1.1301  1.3873
 6384SOL     OW30080   4.743   0.219   4.859  0.1109  0.0540  0.3037
 6384SOL    HW130081   4.790   0.258   4.780 -1.3277  0.3633 -0.4183
 6384SOL    HW230082   4.795   0.140   4.893  1.2965  0.5708 -0.2775
 6385SOL     OW30083   8.970   5.462   4.091  0.2446  0.1545  0.1637
 6385SOL    HW130084   8.973   5.394   4.164  0.3587 -1.8939 -1.6730
 6385SOL    HW230085   8.910   5.537   4.117  0.3283 -0.5083  2.3514
 6386SOL     OW30086   3.226   5.155   1.574 -0.0081 -0.3142 -0.2347
 6386SOL    HW130087   3.128   5.142   1.585 -0.1676  0.6106 -0.5079
 6386SOL    HW230088   3.257   5.230   1.633  0.9466 -2.0879  1.5701
 6387SOL     OW30089   0.805   7.386   4.004  0.3013  0.1661 -0.4154
 6387SOL    HW130090   0.854   7.451   3.947  0.4213  1.3681  1.0408
 6387SOL    HW230091   0.706   7.398   3.992  0.2811  1.8182  1.1225
 6388SOL     OW30092   0.962   8.732   4.520 -0.0431 -0.2577  0.3402
 6388SOL    HW130093   1.047   8.734   4.467  0.3650 -0.7900  0.9739
 6388SOL    HW230094   0.916   8.821   4.511  0.7849  0.1796  0.3314
 6389SOL     OW30095   4.014   0.319   4.106 -0.3535 -0.4887 -0.0731
 6389SOL    HW130096   3.920   0.341   4.080  0.3126  0.5832 -1.6871
 6389SOL    HW230097   4.037   0.367   4.190 -0.6493  0.7854 -0.7016
 6390SOL     OW30098   9.404   0.275   5.138 -0.5734  0.2389  0.3929
 6390SOL    HW130099   9.416   0.374   5.152 -0.3535  0.6170 -2.1791
 6390SOL    HW230100   9.309   0.256   5.115 -0.3198  0.0693 -0.5587
 6391SOL     OW30101   6.375   9.851   4.360  0.1824  0.2519 -0.4075
 6391SOL    HW130102   6.364   9.857   4.459 -0.1564 -0.3662 -0.4039
 6391SOL    HW230103   6.286   9.846   4.316  0.3336  0.4183 -0.7361
 6392SOL     OW30104   8.748   1.451   4.632  0.5820 -0.3362  0.1151
 6392SOL    HW130105   8.721   1.513   4.559 -1.0098 -1.6673 -0.4583
 6392SOL    HW230106   8.842   1.420   4.616  1.0365  1.1369 -0.1280
 6393SOL     OW30107   4.624   1.486   0.294  0.2054 -0.0250  0.0474
 6393SOL    HW130108   4.551   1.418   0.286  0.5578 -0.4136  0.0779
 6393SOL    HW230109   4.622   1.526   0.385  1.1542 -1.3473  0.6699
 6394SOL     OW30110   7.832   0.964   3.697  0.7576  0.1203 -0.2761
 6394SOL    HW130111   7.795   0.882   3.741 -0.7394 -0.1297 -1.9118
 6394SOL    HW230112   7.878   1.021   3.765  1.1600 -1.7110  1.0185
 6395SOL     OW30113   3.284   1.162   2.118 -0.2203 -0.6394 -0.2253
 6395SOL    HW130114   3.383   1.164   2.104  0.1331 -2.2318  1.8404
 6395SOL    HW230115   3.242   1.235   2.064  2.1710  0.6809 -0.4025
 6396SOL     OW30116   1.668   3.391   2.422 -0.1214 -0.0785  0.0442
 6396SOL    HW130117   1.586   3.445   2.435  0.0953  0.6675 -1.5544
 6396SOL    HW230118   1.649   3.314   2.360  0.4438  0.2638 -0.5663
 6397SOL     OW30119   0.742   7.451   3.662 -0.1617 -0.3941  0.1203
 6397SOL    HW130120   0.824   7.395   3.650  0.1604  0.1235 -0.1139
 6397SOL    HW230121   0.661   7.398   3.637  0.0995 -0.9041  0.3430
 6398SOL     OW30122   1.988   7.256   3.766  0.2434  0.0332  0.3403
 6398SOL    HW130123   1.996   7.315   3.685  0.5334  0.4347  0.6575
 6398SOL    HW230124   1.987   7.313   3.848 -0.4801 -0.3497  0.5969
 6399SOL     OW30125   8.814   6.732   3.644  0.3872  0.3100 -0.2118
 6399SOL    HW130126   8.733   6.689   3.683  0.4954  0.5123  0.2338
 6399SOL    HW230127   8.894   6.675   3.663  0.8329  1.6825  2.0744
 6400SOL     OW30128   4.814   1.056   2.011 -0.6936  0.4990 -0.3396
 6400SOL    HW130129   4.789   1.138   1.961 -0.3020  0.6919 -0.2215
 6400SOL    HW230130   4.910   1.062   2.040 -0.7905  0.1994  0.0550
 6401SOL     OW30131   0.990   8.119   0.644 -0.1993 -0.3836  0.2661
 6401SOL    HW130132   0.901   8.074   0.641 -0.0876 -0.5672 -0.4488
 6401SOL    HW230133   0.995   8.179   0.724 -1.5166  0.7297 -0.4712
 6402SOL     OW30134   7.125   9.893   0.839 -0.8301  0.4685  0.2286
 6402SOL    HW130135   7.119   9.917   0.743  0.5961  1.1628  0.3009
 6402SOL    HW230136   7.040   9.918   0.885 -1.5084  0.1508 -0.8348
 6403SOL     OW30137   0.696   4.071   5.332  0.3290  0.4091  0.1572
 6403SOL    HW130138   0.750   4.153   5.352 -0.2825  0.3225  2.2734
 6403SOL    HW230139   0.600   4.095   5.324  0.2503  0.0199 -0.0606
 6404SOL     OW30140   1.951   1.655   3.227  0.0904  0.8396 -0.0435
 6404SOL    HW130141   1.942   1.594   3.306  2.0249  0.5705 -0.0248
 6404SOL    HW230142   1.862   1.662   3.180  0.0090 -2.5642 -0.5014
 6405SOL     OW30143   0.141   7.809   1.522 -0.0615  0.4650  0.0415
 6405SOL    HW130144   0.141   7.744   1.446  0.4801  0.1122  0.3376
 6405SOL    HW230145   0.235   7.826   1.551 -0.0379  3.1026 -1.4838
 6406SOL     OW30146   4.433   3.397   1.750  0.4333 -0.6687  0.2184
 6406SOL    HW130147   4.505   3.450   1.705 -1.8114  1.9481 -0.4454
 6406SOL    HW230148   4.434   3.415   1.848  0.9181 -0.9554  0.2693
 6407SOL     OW30149   3.051   1.998   2.871 -0.2838  0.1171  0.1532
 6407SOL    HW130150   3.123   2.014   2.939 -0.0635  0.7358 -0.2260
 6407SOL    HW230151   2.969   1.964   2.918 -0.2172  0.7866  0.7737
 6408SOL     OW30152   5.411   8.204   3.965 -0.6781  0.4541 -0.4989
 6408SOL    HW130153   5.446   8.156   3.884  1.0639 -0.6252  0.8584
 6408SOL    HW230154   5.340   8.149   4.008  0.8622 -0.6505  0.6837
 6409SOL     OW30155   2.058   8.231   3.483 -0.0212  0.4599  0.3825
 6409SOL    HW130156   2.081   8.144   3.527 -1.2275  0.0290  0.2014
 6409SOL    HW230157   1.972   8.265   3.522 -0.2870  0.8541 -0.5498
 6410SOL     OW30158   8.632   3.952   2.997 -0.0298  0.1532  0.3124
 6410SOL    HW130159   8.576   3.919   3.073 -0.3684  0.9153  0.3987
 6410SOL    HW230160   8.621   4.051   2.989  3.7212  0.8142  2.3411
 6411SOL     OW30161   3.314   1.445   4.372  0.2704 -0.2477 -0.0086
 6411SOL    HW130162   3.219   1.458   4.344 -0.0261  1.1223  1.5699
 6411SOL    HW230163   3.373   1.504   4.318  0.0677 -0.0604 -0.0265
 6412SOL     OW30164   9.538   2.325   0.926 -0.8483  0.3451  0.0679
 6412SOL    HW130165   9.626   2.318   0.879  0.1361 -0.4495  1.9699
 6412SOL    HW230166   9.506   2.234   0.951 -0.8078  0.8296  1.9129
 6413SOL     OW30167   6.115   9.884   3.092  0.1904  0.1148 -0.1226
 6413SOL    HW130168   6.205   9.911   3.060  0.5989  0.0759  0.9736
 6413SOL    HW230169   6.118   9.791   3.129 -0.1707  0.3033  0.4006
 6414SOL     OW30170   1.521   8.408   2.006  0.3964  0.4118 -0.0669
 6414SOL    HW130171   1.435   8.367   1.978  0.9623 -0.2691 -0.8248
 6414SOL    HW230172   1.503   8.480   2.073 -0.6345 -0.6712  0.8344
 6415SOL     OW30173   7.836   6.006   3.156  0.5069  0.0590  0.0693
 6415SOL    HW130174   7.781   6.002   3.072 -2.5400 -1.4888  2.0177
 6415SOL    HW230175   7.840   6.100   3.190 -0.1584  0.3339 -0.6043
 6416SOL     OW30176   0.860   8.409   0.388  0.0015  0.2281  0.3047
 6416SOL    HW130177   0.883   8.325   0.437  0.9882 -1.2764 -2.6487
 6416SOL    HW230178   0.944   8.452   0.355 -0.7652  0.0563 -1.9305
 6417SOL     OW30179   1.909   7.300   1.768  0.4565 -0.5717  0.5507
 6417SOL    HW130180   1.971   7.371   1.733 -0.0552 -0.5692 -0.3629
 6417SOL    HW230181   1.815   7.325   1.746  0.3000 -1.6883 -0.0456
 6418SOL     OW30182   0.051   6.315   3.890  0.3033  0.0650 -0.1994
 6418SOL    HW130183   0.038   6.292   3.793  1.1434 -3.1300  0.3989
 6418SOL    HW230184  -0.016   6.267   3.946  0.3683  1.2240  0.9098
 6419SOL     OW30185   2.032   4.945   1.742 -0.1459  0.3098 -0.5359
 6419SOL    HW130186   2.081   4.999   1.811 -0.5156 -0.2182  0.1520
 6419SOL    HW230187   1.960   4.892   1.787  1.4445 -2.2568 -0.9017
 6420SOL     OW30188   7.077   9.926   5.358  0.7630 -0.0322 -0.2209
 6420SOL    HW130189   7.081   9.967   5.449  1.2318 -0.0687 -0.2217
 6420SOL    HW230190   7.095   9.828   5.364  1.6653  0.1132 -0.4464
 6421SOL     OW30191   2.217   2.939   3.320  0.1950 -0.3019  0.3826
 6421SOL    HW130192   2.244   2.977   3.232  1.2775 -3.0700 -0.5484
 6421SOL    HW230193   2.291   2.953   3.387  0.3114 -0.1666  0.2248
 6422SOL     OW30194   6.244   1.519   3.708  0.2920  0.2214 -0.4332
 6422SOL    HW130195   6.157   1.502   3.755  0.8839 -0.5809  0.3714
 6422SOL    HW230196   6.242   1.477   3.617  0.2138 -0.6525 -0.0292
 6423SOL     OW30197   2.432   9.968   4.809  0.2238  0.1532  0.2292
 6423SOL    HW130198   2.440   9.907   4.730  1.0511  0.5067  0.0303
 6423SOL    HW230199   2.463   9.921   4.891 -1.2139 -0.4187  0.4551
 6424SOL     OW30200   4.469   0.660   1.466  0.1196  0.3871 -0.4032
 6424SOL    HW130201   4.510   0.601   1.536 -0.4218  2.2860  1.5775
 6424SOL    HW230202   4.413   0.605   1.405  1.4246 -1.4726  0.0117
 6425SOL     OW30203   3.387   7.300   2.763 -0.6794 -0.1324 -0.6181
 6425SOL    HW130204   3.338   7.329   2.681  0.3330 -0.9506 -1.5280
 6425SOL    HW230205   3.449   7.225   2.740 -0.4180 -0.4018  0.9096
 6426SOL     OW30206   6.658   8.163   1.938  0.3603 -0.6573  0.0937
 6426SOL    HW130207   6.642   8.138   1.842  0.6960 -0.7279  0.0556
 6426SOL    HW230208   6.729   8.233   1.943 -1.2423  1.0273  0.1228
 6427SOL     OW30209   0.840   6.475   3.197 -0.6675 -0.4591 -0.0447
 6427SOL    HW130210   0.753   6.438   3.229 -0.7689  0.1733  0.4311
 6427SOL    HW230211   0.871   6.424   3.117 -2.1729  0.2139 -1.0709
 6428SOL     OW30212   1.379   0.011   2.303  0.0139  0.1742 -0.4119
 6428SOL    HW130213   1.451   0.063   2.349 -2.0350  2.7306  0.0588
 6428SOL    HW230214   1.395   0.012   2.204  2.0154 -1.5214 -0.1293
 6429SOL     OW30215   3.078   6.183   4.459 -0.2844  0.6746 -0.5009
 6429SOL    HW130216   3.142   6.111   4.432 -0.6047 -0.0328  0.5807
 6429SOL    HW230217   2.987   6.161   4.423 -0.5682  0.0746  0.5464
 6430SOL     OW30218   4.496   2.372   2.208  0.4181  0.0721  0.1455
 6430SOL    HW130219   4.582   2.386   2.257  0.5561 -0.2019 -0.0216
 6430SOL    HW230220   4.514   2.325   2.122  0.4746  2.5187 -1.2364
 6431SOL     OW30221   0.620   5.151   2.476 -0.1150  0.1708  0.0379
 6431SOL    HW130222   0.667   5.187   2.395 -1.2455 -0.6888 -1.0131
 6431SOL    HW230223   0.565   5.224   2.516 -3.7725 -0.6897 -3.0896
 6432SOL     OW30224   9.099   0.224   3.010 -0.4357  0.2848  0.5062
 6432SOL    HW130225   9.174   0.282   2.977 -1.5894  1.0305 -0.8677
 6432SOL    HW230226   9.076   0.156   2.940 -0.5286 -0.4332  1.2322
 6433SOL     OW30227   4.207   1.681   3.425  0.5235 -0.7254  0.0311
 6433SOL    HW130228   4.242   1.600   3.379  1.0029 -0.6260  0.2213
 6433SOL    HW230229   4.130   1.656   3.483 -1.4983 -0.5197 -2.4733
 6434SOL     OW30230   3.306   5.397   4.222  0.0048 -0.1634  0.7182
 6434SOL    HW130231   3.293   5.485   4.178  0.0352  0.7587  2.5234
 6434SOL    HW230232   3.392   5.356   4.190  1.3733  1.7127  1.9192
 6435SOL     OW30233   1.488   2.859   1.198 -0.0595 -0.1131 -0.3384
 6435SOL    HW130234   1.472   2.870   1.296 -0.5199  0.7623 -0.5074
 6435SOL    HW230235   1.484   2.762   1.174 -0.2433 -0.3024  0.4584
 6436SOL     OW30236   4.853   1.899   3.445  0.7009 -0.3029  0.4679
 6436SOL    HW130237   4.774   1.862   3.494 -0.2522 -0.5587 -1.2471
 6436SOL    HW230238   4.848   1.874   3.349  0.4635  3.4990 -0.6163
 6437SOL     OW30239   7.425   0.915   0.464 -0.0732  0.1489 -0.0108
 6437SOL    HW130240   7.429   1.015   0.460 -0.9694  0.1481 -1.0490
 6437SOL    HW230241   7.490   0.882   0.533 -1.5129  1.5841  2.0619
 6438SOL     OW30242   0.117   3.325   4.127 -0.2649  0.5652 -0.7798
 6438SOL    HW130243   0.200   3.320   4.072 -0.2433 -0.8735 -0.6338
 6438SOL    HW230244   0.127   3.398   4.195  1.0153  0.1858 -0.5457
 6439SOL     OW30245   3.066   3.209   4.130  0.1210  0.4271 -0.2946
 6439SOL    HW130246   3.063   3.119   4.085  1.0292 -0.2596  0.9905
 6439SOL    HW230247   2.973   3.247   4.133 -0.2516 -0.4079 -0.9709
 6440SOL     OW30248   1.305   7.657   4.920 -0.2736  0.4001  0.0298
 6440SOL    HW130249   1.309   7.596   4.841  1.7492  0.5155  0.0098
 6440SOL    HW230250   1.298   7.602   5.004 -0.5114  0.2036 -0.1193
 6441SOL     OW30251   3.417   1.959   3.196 -0.1079 -0.6383  0.1334
 6441SOL    HW130252   3.468   1.884   3.237 -0.7746 -0.7564  0.7604
 6441SOL    HW230253   3.481   2.025   3.157  0.4679 -1.7310 -0.7818
 6442SOL     OW30254   0.354   4.832   4.544 -0.4733  0.2989  0.0726
 6442SOL    HW130255   0.378   4.885   4.464  0.9745 -0.8421 -0.2727
 6442SOL    HW230256   0.428   4.836   4.611 -1.3820  0.7016  1.0770
 6443SOL     OW30257   7.596   0.106   3.100  0.5691  0.5435  0.4396
 6443SOL    HW130258   7.502   0.103   3.134  0.7079 -0.6369  0.7387
 6443SOL    HW230259   7.621   0.200   3.079 -0.3191  0.9979  1.3830
 6444SOL     OW30260   5.618   6.811   2.825 -0.1596 -0.3110  0.3426
 6444SOL    HW130261   5.520   6.828   2.811 -0.4538  0.6307  3.1358
 6444SOL    HW230262   5.637   6.808   2.923  2.5558 -0.9399 -0.1639
 6445SOL     OW30263   8.633   8.693   4.360  0.3559  0.4498  0.2291
 6445SOL    HW130264   8.711   8.680   4.299 -0.8672 -1.2648 -1.0056
 6445SOL    HW230265   8.666   8.714   4.452  2.2390  1.3508 -0.6175
 6446SOL     OW30266   3.755   4.557   0.521  0.1330  0.0870  0.2271
 6446SOL    HW130267   3.839   4.530   0.475  0.4985  1.9425 -0.2069
 6446SOL    HW230268   3.761   4.535   0.618  0.6545 -0.8242 -0.0107
 6447SOL     OW30269   2.688   0.865   4.560 -0.8765 -0.2602 -0.9194
 6447SOL    HW130270   2.622   0.880   4.487  0.1544  2.1386 -1.4173
 6447SOL    HW230271   2.738   0.950   4.578  0.0568 -1.2492  1.4337
 6448SOL     OW30272   7.790   3.738   4.411  0.2666 -0.5994 -0.1117
 6448SOL    HW130273   7.714   3.687   4.372  0.1470  0.3338 -1.1361
 6448SOL    HW230274   7.876   3.704   4.373  0.1993 -0.2087 -0.6371
 6449SOL     OW30275   2.484   0.832   4.786 -0.1461  0.5035  0.3305
 6449SOL    HW130276   2.423   0.794   4.717  0.0085 -0.7225  0.8597
 6449SOL    HW230277   2.575   0.847   4.746 -0.2337  0.3995  0.0928
 6450SOL     OW30278   6.896   0.137   3.760 -0.4504 -0.6342 -0.0855
 6450SOL    HW130279   6.825   0.085   3.807 -1.4652  1.4898  0.7940
 6450SOL    HW230280   6.923   0.215   3.816  3.1544 -1.8183 -0.0470
 6451SOL     OW30281   1.442   7.888   4.937 -0.7451 -0.7306 -0.1442
 6451SOL    HW130282   1.368   7.820   4.943 -3.1236  1.8603  0.9927
 6451SOL    HW230283   1.489   7.893   5.025 -0.7196 -0.7166 -0.1583
 6452SOL     OW30284   3.398   4.577   5.279 -0.1255 -0.5262  0.4100
 6452SOL    HW130285   3.424   4.506   5.213  1.7952  0.3510  0.1899
 6452SOL    HW230286   3.302   4.602   5.264  0.0796 -0.8223 -1.6120
 6453SOL     OW30287   5.379   8.093   2.680  0.6370  0.2965 -0.2547
 6453SOL    HW130288   5.409   8.183   2.647  0.6125  0.6075  0.5738
 6453SOL    HW230289   5.413   8.078   2.772  0.6508 -0.5591 -0.3958
 6454SOL     OW30290   9.125   0.510   1.550  0.2116  0.6808 -0.1660
 6454SOL    HW130291   9.225   0.503   1.551  0.1351 -2.1117 -3.1942
 6454SOL    HW230292   9.097   0.578   1.482  0.0638  0.3819 -0.4100
 6455SOL     OW30293   0.492   9.348   1.434 -0.0049 -0.2913 -0.5745
 6455SOL    HW130294   0.512   9.415   1.363 -1.6588  0.4838 -0.3294
 6455SOL    HW230295   0.502   9.391   1.524 -1.0080 -0.3728 -0.4148
 6456SOL     OW30296   3.010   6.864   3.077 -0.3314 -0.0438  0.4474
 6456SOL    HW130297   3.107   6.882   3.091 -0.2150 -0.3331  0.0153
 6456SOL    HW230298   2.999   6.780   3.025 -0.7882  0.4954 -0.3329
 6457SOL     OW30299   2.272   7.525   3.664  0.1208  0.5601  0.1849
 6457SOL    HW130300   2.174   7.518   3.643 -0.1592  0.7948  1.3738
 6457SOL    HW230301   2.284   7.577   3.748  1.3237  1.1557 -0.3585
 6458SOL     OW30302   8.628   3.222   5.004 -0.2529  0.1064  0.1181
 6458SOL    HW130303   8.570   3.303   5.009 -1.0731 -0.3270 -2.0417
 6458SOL    HW230304   8.718   3.248   4.968 -0.3455  0.1459 -0.0862
 6459SOL     OW30305   1.057   5.306   4.813  0.0378 -0.3605  0.4857
 6459SOL    HW130306   1.115   5.296   4.894 -0.2535  1.1245  0.8959
 6459SOL    HW230307   1.061   5.222   4.759 -0.1428 -1.5532  2.2781
 6460SOL     OW30308   2.921   0.779   4.130 -0.6397  0.0588  0.1110
 6460SOL    HW130309   2.866   0.731   4.198  0.2710 -0.0733  0.7669
 6460SOL    HW230310   2.927   0.724   4.047  0.1749 -0.8557  0.7631
 6461SOL     OW30311   9.977   2.309   5.051  0.0366 -0.1971 -0.3041
 6461SOL    HW130312   9.955   2.387   5.111 -0.9909 -1.9365  1.6648
 6461SOL    HW230313   9.896   2.284   4.998 -0.1583 -1.0240  0.3741
 6462SOL     OW30314   8.799   3.061   5.337 -0.0293  0.0109 -0.0446
 6462SOL    HW130315   8.732   3.036   5.266 -2.0613 -0.6645  2.0399
 6462SOL    HW230316   8.836   3.152   5.318 -2.1089  0.7179 -0.8491
 6463SOL     OW30317   1.014   1.902   4.601 -0.3421  0.1359 -0.3442
 6463SOL    HW130318   0.962   1.835   4.654 -0.3276  0.2584 -0.1771
 6463SOL    HW230319   0.952   1.974   4.570 -1.0162 -1.5892 -3.2122
 6464SOL     OW30320   4.407   8.448   2.035 -0.0573 -0.3829  0.5079
 6464SOL    HW130321   4.504   8.426   2.046  0.0459  0.5471  1.6623
 6464SOL    HW230322   4.373   8.409   1.950  1.2773 -0.8926  0.1921
 6465SOL     OW30323   0.748   9.253   0.330 -0.4251 -0.3053 -0.6199
 6465SOL    HW130324   0.699   9.314   0.392  0.0091  0.8855 -1.4284
 6465SOL    HW230325   0.699   9.249   0.243 -0.4014 -1.0420 -0.5989
 6466SOL     OW30326   9.261   8.221   3.150  0.1199 -0.6515 -0.1572
 6466SOL    HW130327   9.343   8.165   3.141  0.4418 -0.0461 -1.0147
 6466SOL    HW230328   9.258   8.288   3.077 -1.8464 -1.5634 -0.9465
 6467SOL     OW30329   1.452   4.419   1.908  0.7626 -0.1730  0.1282
 6467SOL    HW130330   1.518   4.450   1.839 -0.4066 -0.2321 -1.0419
 6467SOL    HW230331   1.380   4.488   1.919  0.0578 -0.8961  0.0911
 6468SOL     OW30332   5.844   8.640   1.754  0.4583 -0.6364 -0.2745
 6468SOL    HW130333   5.942   8.643   1.773  0.2667 -1.3554  0.8878
 6468SOL    HW230334   5.813   8.729   1.721  1.1742  0.1116  1.0249
 6469SOL     OW30335   0.244   9.592   3.556 -0.8529  0.0558  0.1518
 6469SOL    HW130336   0.221   9.686   3.531 -0.4595 -0.0705 -0.6828
 6469SOL    HW230337   0.226   9.579   3.654  1.4995  1.7387  0.8517
 6470SOL     OW30338   2.766   7.238   2.665  0.1231 -0.3090  0.0045
 6470SOL    HW130339   2.809   7.147   2.665 -0.3522 -0.5332  1.0816
 6470SOL    HW230340   2.666   7.228   2.665  0.0671  0.2108  0.9002
 6471SOL     OW30341   1.854   1.722   2.130  1.0270  0.2365 -0.5607
 6471SOL    HW130342   1.835   1.811   2.090  0.5856  1.6360  2.5995
 6471SOL    HW230343   1.953   1.713   2.145  1.0205  0.4441 -0.3826
 6472SOL     OW30344   1.972   0.697   2.846  0.4964  0.2659  0.0220
 6472SOL    HW130345   2.046   0.667   2.786 -1.3071 -0.0262 -2.1236
 6472SOL    HW230346   1.968   0.797   2.847  0.8630  0.2801  0.0531
 6473SOL     OW30347   0.694   1.297   2.038  0.1347 -0.0854 -0.2312
 6473SOL    HW130348   0.638   1.301   1.956 -0.4646 -1.1534  0.1156
 6473SOL    HW230349   0.637   1.315   2.118  0.3688 -0.7088  0.0860
 6474SOL     OW30350   8.641   2.124   0.093 -0.8130  0.4075  0.5593
 6474SOL    HW130351   8.717   2.122   0.158 -0.9532  0.8322  0.7359
 6474SOL    HW230352   8.640   2.212   0.046  0.2840 -0.4997 -1.2044
 6475SOL     OW30353   5.601   0.666   3.206  0.4987 -0.2951 -0.5372
 6475SOL    HW130354   5.695   0.631   3.211  0.2672 -0.7930  0.5098
 6475SOL    HW230355   5.592   0.726   3.128  1.2767 -1.5171 -1.5890
 6476SOL     OW30356   8.488   2.663   2.841  0.3038  0.3394  0.4392
 6476SOL    HW130357   8.512   2.741   2.898  0.2783  0.4015  0.3659
 6476SOL    HW230358   8.565   2.600   2.835  1.2212  1.5953 -1.5559
 6477SOL     OW30359   2.929   0.960   1.461  0.0358  0.4181  0.2037
 6477SOL    HW130360   2.988   0.881   1.444 -0.0699  0.2791  0.4849
 6477SOL    HW230361   2.984   1.044   1.457  0.7013  0.1271  2.7730
 6478SOL     OW30362   5.708   9.689   4.505  0.3987  0.6884  0.3797
 6478SOL    HW130363   5.685   9.700   4.409 -1.1658  1.5259  0.8340
 6478SOL    HW230364   5.674   9.600   4.537  0.4980  0.6156  0.2810
 6479SOL     OW30365   3.031   7.679   1.933 -0.4147  0.2781  0.2693
 6479SOL    HW130366   3.055   7.755   1.873  0.6175 -0.7899 -0.6927
 6479SOL    HW230367   3.094   7.677   2.011  0.4858 -0.4915 -0.4833
 6480SOL     OW30368   5.797   1.228   3.580 -0.3216 -0.1210  0.0770
 6480SOL    HW130369   5.793   1.181   3.668 -1.0360 -1.6192 -0.7423
 6480SOL    HW230370   5.744   1.313   3.584 -1.9873 -1.1643  0.5116
 6481SOL     OW30371   0.816   6.493   5.427  0.2035  0.3325 -0.9453
 6481SOL    HW130372   0.800   6.563   5.356  0.1242  0.6874 -0.5781
 6481SOL    HW230373   0.906   6.506   5.467 -0.7574  1.7513  0.8276
 6482SOL     OW30374   3.779   0.491   4.082 -0.1447 -0.1070  0.0280
 6482SOL    HW130375   3.734   0.411   4.121 -2.0555  0.0618 -1.7430
 6482SOL    HW230376   3.746   0.574   4.127  0.6565 -0.1976  0.7860
 6483SOL     OW30377   8.711   2.151   4.228 -0.6926  0.0258 -0.2754
 6483SOL    HW130378   8.779   2.114   4.291 -1.7227 -0.2062  0.7209
 6483SOL    HW230379   8.723   2.111   4.137 -0.4195 -1.0945  0.2568
 6484SOL     OW30380   3.076   2.645   4.737 -0.0131  0.5555  0.3763
 6484SOL    HW130381   3.117   2.721   4.788  3.2342  0.5458 -2.0147
 6484SOL    HW230382   3.121   2.638   4.648 -2.9338 -1.7801 -0.9700
 6485SOL     OW30383   7.211   8.828   1.903 -0.0959  0.0603  0.4691
 6485SOL    HW130384   7.295   8.878   1.884  0.4639 -0.4478  1.5180
 6485SOL    HW230385   7.212   8.741   1.854 -1.1542  1.1329 -1.5032
 6486SOL     OW30386   7.982   3.040   3.084  0.3448 -0.3128  0.3857
 6486SOL    HW130387   8.068   3.005   3.046 -0.1652 -0.0494 -1.0354
 6486SOL    HW230388   7.998   3.130   3.124  0.6496 -0.1039 -0.2097
 6487SOL     OW30389   1.657   6.104   4.795 -0.9927 -0.5299 -0.0535
 6487SOL    HW130390   1.669   6.177   4.862 -0.4711  0.6439 -1.4022
 6487SOL    HW230391   1.566   6.111   4.755 -1.0567 -0.8131  0.0440
 6488SOL     OW30392   3.892   7.327   2.133 -0.4038 -0.1035 -0.2163
 6488SOL    HW130393   3.857   7.288   2.048  3.1364 -0.4694 -1.5746
 6488SOL    HW230394   3.894   7.427   2.125 -0.1977 -0.1312 -0.5242
 6489SOL     OW30395   3.632   0.477   1.502 -0.3319 -0.6632 -0.3268
 6489SOL    HW130396   3.638   0.549   1.571  0.3106 -2.4961  1.5458
 6489SOL    HW230397   3.683   0.506   1.421 -0.3007  1.1029  0.2866
 6490SOL     OW30398   2.329   7.494   5.567 -0.3878  0.2982 -0.0469
 6490SOL    HW130399   2.291   7.453   5.650  1.5812 -0.1897  0.6437
 6490SOL    HW230400   2.412   7.545   5.589  0.4884 -0.3157 -1.7808
 6491SOL     OW30401   9.308   5.703   0.080 -0.1061 -0.6896 -0.2626
 6491SOL    HW130402   9.382   5.648   0.118  1.2989 -0.5330 -2.6279
 6491SOL    HW230403   9.228   5.645   0.062  0.7608 -1.6339 -1.1277
 6492SOL     OW30404   7.359   1.107   4.991  0.4749  0.1858 -0.0617
 6492SOL    HW130405   7.315   1.159   5.064  0.1628 -0.4416  0.1960
 6492SOL    HW230406   7.291   1.053   4.942  0.8337 -0.1535 -0.1904
 6493SOL     OW30407   2.211   5.843   5.192  0.0849  0.7841 -0.0196
 6493SOL    HW130408   2.310   5.828   5.195 -0.2917 -1.8604  0.9804
 6493SOL    HW230409   2.168   5.800   5.272 -1.8433  2.1871 -0.2577
 6494SOL     OW30410   4.092   7.832   1.482  0.4570  0.0557  0.3324
 6494SOL    HW130411   4.053   7.820   1.574 -2.2317 -0.1893 -0.7859
 6494SOL    HW230412   4.147   7.752   1.459  2.1635  0.6511  2.1779
 6495SOL     OW30413   9.420   5.309   2.395  0.4063 -0.3442 -0.4989
 6495SOL    HW130414   9.459   5.353   2.475  0.5026 -0.6212 -0.3943
 6495SOL    HW230415   9.479   5.234   2.366  0.4664 -0.1295 -0.9368
 6496SOL     OW30416   9.993   4.132   2.591  0.3625  0.2881 -0.0392
 6496SOL    HW130417   9.940   4.089   2.664 -2.8342 -0.8192 -2.8760
 6496SOL    HW230418  10.055   4.064   2.550  0.3626  0.2353  0.0490
 6497SOL     OW30419   0.537   5.126   3.696 -0.2647 -0.1204 -0.0943
 6497SOL    HW130420   0.565   5.212   3.653 -1.9130 -0.3262 -1.6680
 6497SOL    HW230421   0.567   5.049   3.640 -0.9062 -0.4618  0.0201
 6498SOL     OW30422   8.862   9.818   0.267  0.0335 -0.2969 -0.6145
 6498SOL    HW130423   8.820   9.833   0.178 -0.0117  0.8578 -0.4045
 6498SOL    HW230424   8.798   9.770   0.326 -0.2901 -0.2257 -0.9038
 6499SOL     OW30425   8.451   5.742   1.599  0.1835  0.0498 -0.3341
 6499SOL    HW130426   8.366   5.713   1.556 -0.4124  0.5307  0.5019
 6499SOL    HW230427   8.528   5.723   1.538 -0.4949 -0.6522 -0.9684
 6500SOL     OW30428   3.615   4.732   2.851  0.1961 -0.1744  0.3026
 6500SOL    HW130429   3.675   4.689   2.918  1.0372 -0.4818 -0.6339
 6500SOL    HW230430   3.607   4.672   2.771  0.1319  0.7101 -0.3542
 6501SOL     OW30431   0.578   3.904   1.750  0.2919  0.1463  0.7552
 6501SOL    HW130432   0.608   3.873   1.661 -1.1162  3.2079 -0.8837
 6501SOL    HW230433   0.479   3.888   1.760  0.3137  0.4076  1.4838
 6502SOL     OW30434   0.732   5.939   4.217  0.5611  0.1509 -0.5382
 6502SOL    HW130435   0.661   5.893   4.269  1.1462  0.0824  0.2021
 6502SOL    HW230436   0.819   5.933   4.265  0.9257  0.8556 -1.0860
 6503SOL     OW30437   2.875   3.797   0.087 -0.1832  0.1678 -0.2704
 6503SOL    HW130438   2.964   3.751   0.084  0.0917  0.7630 -1.4336
 6503SOL    HW230439   2.889   3.894   0.107 -0.6703  0.0260  0.8147
 6504SOL     OW30440   3.155   2.936   5.203  0.0265 -0.0931 -0.5252
 6504SOL    HW130441   3.141   2.993   5.284 -0.6946 -1.7606  0.5559
 6504SOL    HW230442   3.132   2.841   5.225  0.6097 -0.7040 -2.4637
 6505SOL     OW30443   0.644   0.819   0.426 -0.0804  0.0050  0.2072
 6505SOL    HW130444   0.646   0.882   0.349 -1.8404  1.9125  1.6944
 6505SOL    HW230445   0.578   0.746   0.408 -0.1854  0.2120 -0.2471
 6506SOL     OW30446   9.202   9.544   2.373 -0.6961  0.1315 -0.2781
 6506SOL    HW130447   9.244   9.612   2.432 -3.7682  2.5184 -0.7347
 6506SOL    HW230448   9.221   9.452   2.408  0.5755  1.3584  2.3277
 6507SOL     OW30449   0.939   4.907   3.264  0.3227 -0.3188 -0.1816
 6507SOL    HW130450   0.866   4.890   3.331  0.8895  0.5528  0.6703
 6507SOL    HW230451   0.927   4.996   3.222  0.0599 -0.7996 -1.1317
 6508SOL     OW30452   9.953   2.421   0.165 -0.2201  0.1623  0.3102
 6508SOL    HW130453   9.926   2.515   0.149  3.0094  0.6686 -2.8430
 6508SOL    HW230454   9.897   2.360   0.110  0.2114  0.5884 -0.6108
 6509SOL     OW30455   0.471   7.272   1.975 -0.4078 -0.4614 -0.6298
 6509SOL    HW130456   0.483   7.361   1.932 -1.2716 -0.5204 -1.0097
 6509SOL    HW230457   0.388   7.274   2.032 -0.0238 -0.7949 -0.0573
 6510SOL     OW30458   8.510   5.574   0.417 -0.5862 -0.5037  0.2389
 6510SOL    HW130459   8.501   5.594   0.320 -0.4604 -0.9589  0.1328
 6510SOL    HW230460   8.575   5.638   0.459 -1.6897  0.5878  0.3106
 6511SOL     OW30461   9.162   2.182   1.215  0.0172  0.0613 -0.5208
 6511SOL    HW130462   9.111   2.117   1.271 -0.3587  1.6222  0.9939
 6511SOL    HW230463   9.111   2.200   1.131 -0.8765 -0.0510 -0.0104
 6512SOL     OW30464   0.908   4.744   0.393  0.3983  0.6764  0.2058
 6512SOL    HW130465   0.876   4.681   0.464 -1.5507  0.7388 -0.5989
 6512SOL    HW230466   0.957   4.693   0.323  0.1442  0.2721  0.3203
 6513SOL     OW30467   4.305   1.241   4.726  0.0127 -0.3922  0.4433
 6513SOL    HW130468   4.346   1.206   4.642  1.2275  2.1326 -0.0623
 6513SOL    HW230469   4.371   1.232   4.801  1.8798  4.0746 -0.4587
 6514SOL     OW30470   1.938   3.357   0.223  0.2439  0.1888 -0.3389
 6514SOL    HW130471   1.920   3.403   0.136  1.2026 -0.0510 -0.6720
 6514SOL    HW230472   2.036   3.351   0.238  0.0885 -0.0383  0.6238
 6515SOL     OW30473   8.665   6.843   4.775 -0.2433  0.0554 -0.1609
 6515SOL    HW130474   8.638   6.829   4.680  0.9997 -0.0525 -0.4927
 6515SOL    HW230475   8.717   6.764   4.807 -1.1187 -0.1552  0.7862
 6516SOL     OW30476   8.660   6.817   4.231 -0.1773  0.5303 -0.0052
 6516SOL    HW130477   8.577   6.866   4.203 -0.0633  0.3945 -0.5816
 6516SOL    HW230478   8.698   6.769   4.152 -0.8604 -1.3128  0.7566
 6517SOL     OW30479   1.075   0.407   2.208 -0.0413 -0.1478  0.1129
 6517SOL    HW130480   1.041   0.334   2.267  0.1597  0.7892  1.3981
 6517SOL    HW230481   1.059   0.496   2.251  0.8644  0.5041 -0.8574
 6518SOL     OW30482   1.490   3.942   5.336 -0.0666  0.0506 -0.3701
 6518SOL    HW130483   1.545   3.868   5.297  1.3465  1.2591 -0.6977
 6518SOL    HW230484   1.544   4.026   5.338 -0.3476  0.2395  3.4254
 6519SOL     OW30485   7.594   3.182   1.947  0.7383 -0.4474 -0.2444
 6519SOL    HW130486   7.637   3.258   1.996 -2.2897  1.4830 -0.4690
 6519SOL    HW230487   7.585   3.206   1.851 -0.1793 -1.1502 -0.3333
 6520SOL     OW30488   0.204   8.955   0.898  0.1800 -0.0669  0.2535
 6520SOL    HW130489   0.280   8.903   0.859 -0.2123  0.1664 -0.8597
 6520SOL    HW230490   0.193   8.932   0.994 -0.6778 -2.8997 -0.4684
 6521SOL     OW30491   0.553   4.681   2.330 -0.5545  0.0602  0.3124
 6521SOL    HW130492   0.554   4.584   2.306  0.1713  0.3818 -0.9757
 6521SOL    HW230493   0.626   4.700   2.396 -0.5382 -0.2100  0.3705
 6522SOL     OW30494   3.474   1.318   3.605  0.2280  0.3754 -0.0664
 6522SOL    HW130495   3.517   1.309   3.515 -0.0922  0.7372 -0.2584
 6522SOL    HW230496   3.514   1.252   3.668 -0.6714 -1.0101 -0.9088
 6523SOL     OW30497   8.613   6.531   3.719 -0.2369 -0.0237  0.1027
 6523SOL    HW130498   8.592   6.491   3.630  0.0489  0.0492 -0.0001
 6523SOL    HW230499   8.530   6.571   3.758  0.0837  1.8906 -1.1195
 6524SOL     OW30500   1.126   3.561   3.317  0.5878 -0.5820  0.0007
 6524SOL    HW130501   1.211   3.533   3.273  0.1347 -0.1224 -1.1936
 6524SOL    HW230502   1.048   3.526   3.265  0.0447 -0.2659  0.5879
 6525SOL     OW30503   9.531   8.631   2.303 -0.4787  0.6607  0.4766
 6525SOL    HW130504   9.555   8.545   2.348 -0.6957  0.2083 -0.2596
 6525SOL    HW230505   9.445   8.665   2.341 -0.9350  0.0084  0.0479
 6526SOL     OW30506   8.729   5.209   4.282 -0.2627 -0.7758  0.1333
 6526SOL    HW130507   8.813   5.255   4.311  0.1906  0.5763 -3.1238
 6526SOL    HW230508   8.652   5.272   4.288 -0.6907 -1.3641  1.0416
 6527SOL     OW30509   3.098   4.879   1.788  0.4931 -0.0977  0.0206
 6527SOL    HW130510   3.191   4.913   1.801  0.4324  0.7168 -1.4895
 6527SOL    HW230511   3.099   4.806   1.719 -0.0990  0.5108 -0.6347
 6528SOL     OW30512   0.620   3.128   4.879  0.4624 -0.0737 -0.3314
 6528SOL    HW130513   0.694   3.147   4.815  0.4323 -1.6783 -0.8847
 6528SOL    HW230514   0.642   3.044   4.930 -0.4848  0.0244  0.2405
 6529SOL     OW30515   8.875   6.646   2.218 -0.5495 -0.3100 -0.1352
 6529SOL    HW130516   8.965   6.653   2.174 -1.7063  1.2605 -2.3532
 6529SOL    HW230517   8.859   6.728   2.274 -2.2901  1.5044 -3.1488
 6530SOL     OW30518   8.290   0.368   5.294  0.0850  0.0166  0.2213
 6530SOL    HW130519   8.277   0.426   5.214  0.5755 -2.6229 -1.8335
 6530SOL    HW230520   8.235   0.403   5.370 -0.6491  2.3587 -1.3364
 6531SOL     OW30521   0.164   1.947   2.863 -0.4503  0.2701  0.3063
 6531SOL    HW130522   0.203   1.899   2.941  0.4488  1.0590  0.3508
 6531SOL    HW230523   0.096   2.013   2.894 -1.0476 -0.3412  0.3125
 6532SOL     OW30524   9.824   4.350   3.744 -0.1901 -0.4467 -0.2108
 6532SOL    HW130525   9.769   4.290   3.686 -1.2594 -0.2570  0.5864
 6532SOL    HW230526   9.823   4.443   3.708  1.3743 -0.8666 -1.3847
 6533SOL     OW30527   3.104   0.645   2.836 -0.0139  0.8359  0.4018
 6533SOL    HW130528   3.198   0.658   2.805  0.6186 -1.0271  1.4278
 6533SOL    HW230529   3.087   0.700   2.917  0.6062  0.2047  0.9624
 6534SOL     OW30530   8.698   3.168   0.267  0.2382  0.2746 -0.3393
 6534SOL    HW130531   8.656   3.079   0.284 -0.0236  0.1131 -1.7466
 6534SOL    HW230532   8.629   3.232   0.232  0.5389  0.8743  0.1428
 6535SOL     OW30533   2.844   5.839   4.842  0.2568 -0.4206 -0.2660
 6535SOL    HW130534   2.830   5.935   4.868 -1.1889 -0.8567  0.6274
 6535SOL    HW230535   2.891   5.835   4.753  1.2939  1.1002  0.1988
 6536SOL     OW30536   0.554   4.404   2.222 -0.0525 -0.2880  0.5867
 6536SOL    HW130537   0.487   4.333   2.203  0.1755 -0.3762  0.1085
 6536SOL    HW230538   0.618   4.411   2.146  0.6619 -0.4072  1.1755
 6537SOL     OW30539   8.578   0.722   0.226 -0.6421  0.2190 -0.1398
 6537SOL    HW130540   8.676   0.708   0.212 -0.3640  0.5722  1.3925
 6537SOL    HW230541   8.528   0.664   0.162  0.5602 -0.4772 -0.4841
 6538SOL     OW30542   5.674   7.389   3.100  0.2965 -0.3082 -0.0770
 6538SOL    HW130543   5.746   7.321   3.087  1.0507  0.7214 -1.3096
 6538SOL    HW230544   5.700   7.475   3.058 -1.2467  0.3679  0.2928
 6539SOL     OW30545   8.018   7.314   4.162  0.1071 -0.4483 -0.5636
 6539SOL    HW130546   8.111   7.279   4.152  0.3940  0.3173 -0.6309
 6539SOL    HW230547   7.975   7.321   4.072  0.7298  1.1848 -0.7478
 6540SOL     OW30548   1.189   3.127   0.393  0.0407 -0.0373 -0.6676
 6540SOL    HW130549   1.107   3.156   0.442 -0.1333  0.7245 -1.3894
 6540SOL    HW230550   1.163   3.097   0.301  0.4991 -0.3998 -0.6825
 6541SOL     OW30551   4.365   7.836   3.664  0.0649  0.0853  0.2820
 6541SOL    HW130552   4.388   7.764   3.729  0.9459  0.1466  0.0504
 6541SOL    HW230553   4.268   7.857   3.671 -0.0473 -0.5902  0.8867
 6542SOL     OW30554   0.042   8.368   0.740  0.2981 -0.0920  0.1298
 6542SOL    HW130555  -0.014   8.286   0.746  1.6591 -0.9847  0.6982
 6542SOL    HW230556   0.099   8.364   0.658  1.8914 -0.7029  1.2391
 6543SOL     OW30557   8.660   7.416   1.321 -0.3342 -0.2587  0.0291
 6543SOL    HW130558   8.627   7.411   1.227 -2.2333  1.9539  0.5322
 6543SOL    HW230559   8.628   7.336   1.372  0.1759 -1.1443 -1.0331
 6544SOL     OW30560   0.570   8.091   2.440  0.1562 -0.6247 -0.1328
 6544SOL    HW130561   0.516   8.102   2.523  2.0478  2.9724  0.7215
 6544SOL    HW230562   0.651   8.036   2.460  0.9462  0.7748  0.6331
 6545SOL     OW30563   4.638   3.055   1.664 -0.2784 -0.3775  0.1013
 6545SOL    HW130564   4.585   3.008   1.594  1.9767 -0.5430 -1.5261
 6545SOL    HW230565   4.699   3.122   1.622 -1.5481  2.2394  2.1936
 6546SOL     OW30566  -0.000   4.147   1.853  0.2631  0.1960 -0.4313
 6546SOL    HW130567   0.028   4.219   1.789  0.5096 -1.0845 -1.7873
 6546SOL    HW230568   0.022   4.175   1.946  0.4906  1.8130 -0.9525
 6547SOL     OW30569   0.308   5.242   4.835  0.6457  0.5308  0.6666
 6547SOL    HW130570   0.350   5.164   4.883 -0.4543 -1.0610 -0.8781
 6547SOL    HW230571   0.210   5.226   4.825  0.4544  2.0029  0.0846
 6548SOL     OW30572   7.326   7.246   3.715  0.4008  0.3714 -0.4826
 6548SOL    HW130573   7.348   7.291   3.802  1.8806 -0.5372 -0.3730
 6548SOL    HW230574   7.371   7.295   3.640  3.5900 -1.9265 -0.1859
 6549SOL     OW30575   0.013   4.621   2.411  0.0824  0.6073 -0.3110
 6549SOL    HW130576  -0.036   4.651   2.329  2.4582  0.9573 -1.6464
 6549SOL    HW230577   0.039   4.525   2.402  0.0367  0.5509  0.1672
 6550SOL     OW30578   0.463   1.893   0.836 -0.2759 -0.0398  0.1050
 6550SOL    HW130579   0.487   1.819   0.898 -0.6960 -0.3555 -0.1057
 6550SOL    HW230580   0.507   1.878   0.747  0.3696  0.4403  0.3436
 6551SOL     OW30581   0.926   7.743   1.372  0.3298  0.0573  0.0064
 6551SOL    HW130582   0.876   7.660   1.397 -1.6316  1.1061 -0.3596
 6551SOL    HW230583   0.913   7.813   1.443  1.5133  0.2509  0.0452
 6552SOL     OW30584   3.038   5.036   3.473  0.1637 -0.1360 -0.2667
 6552SOL    HW130585   3.074   5.085   3.394 -0.1140 -0.1116 -0.3795
 6552SOL    HW230586   2.976   4.964   3.442  0.5470 -0.5386 -0.0992
 6553SOL     OW30587   2.585   0.494   3.728 -0.3968 -0.3547 -0.1751
 6553SOL    HW130588   2.660   0.530   3.672 -0.5348 -0.3087 -0.3293
 6553SOL    HW230589   2.606   0.399   3.754  0.4024  0.1344  1.0173
 6554SOL     OW30590   0.245   1.148   2.821  0.2314 -0.2241  0.7970
 6554SOL    HW130591   0.337   1.144   2.859  1.0819  0.2408 -1.1732
 6554SOL    HW230592   0.248   1.186   2.728 -2.0663  0.8402  1.1151
 6555SOL     OW30593   4.263   0.865   2.102  0.0786 -0.0992 -0.3535
 6555SOL    HW130594   4.228   0.859   2.008  0.7437  0.7199 -0.6602
 6555SOL    HW230595   4.362   0.879   2.100  0.1582 -0.4984  0.4823
 6556SOL     OW30596   1.848   4.348   0.714  0.2355  0.5925  0.2102
 6556SOL    HW130597   1.899   4.344   0.629  2.8478  1.2721  1.6850
 6556SOL    HW230598   1.834   4.443   0.740  0.8286  0.3935  1.2994
 6557SOL     OW30599   8.614   6.134   4.176 -0.1663  0.3657 -0.0437
 6557SOL    HW130600   8.617   6.234   4.165  0.6073  0.4880  1.1716
 6557SOL    HW230601   8.560   6.094   4.102  0.3589  1.6035 -1.1307
 6558SOL     OW30602   9.734   8.002   2.343 -0.2942 -0.8929  0.1647
 6558SOL    HW130603   9.685   8.088   2.329  1.7280  0.1812 -0.5699
 6558SOL    HW230604   9.736   7.950   2.257  0.7994 -0.4068 -0.1141
 6559SOL     OW30605   3.670   8.121   2.829  0.1789  0.5879 -0.1983
 6559SOL    HW130606   3.675   8.032   2.784  0.0210  0.8110 -0.6530
 6559SOL    HW230607   3.740   8.181   2.792  0.2212  0.6859  0.0407
 6560SOL     OW30608   9.943   4.963   1.257 -0.0460  0.1226  0.2009
 6560SOL    HW130609   9.972   4.957   1.353  1.5784  0.5468 -0.2448
 6560SOL    HW230610   9.890   4.882   1.233 -0.7780  0.1795  1.5478
 6561SOL     OW30611   2.887   4.170   4.432 -0.2959  0.7524 -0.0754
 6561SOL    HW130612   2.918   4.226   4.355  1.4715 -0.2833 -0.1420
 6561SOL    HW230613   2.958   4.165   4.501 -0.6239 -0.9656  0.1664
 6562SOL     OW30614   2.088   1.208   0.246  0.7967  0.7087 -0.4649
 6562SOL    HW130615   2.141   1.290   0.265  1.9001 -0.1666  0.3096
 6562SOL    HW230616   2.148   1.128   0.248 -0.4869 -0.2624  0.0557
 6563SOL     OW30617   3.459   6.897   2.696 -0.3836 -0.2884  0.6195
 6563SOL    HW130618   3.547   6.913   2.741 -0.5644  0.5993  0.6558
 6563SOL    HW230619   3.448   6.959   2.619  0.1672 -2.1824 -1.0272
 6564SOL     OW30620   8.315   0.682   0.431 -0.3389  0.2104  0.6652
 6564SOL    HW130621   8.319   0.695   0.332 -1.7854  0.2921  0.6056
 6564SOL    HW230622   8.329   0.585   0.453 -1.9883 -0.1420  0.2288
 6565SOL     OW30623   3.961   0.782   1.524 -0.0165  0.1552 -0.3003
 6565SOL    HW130624   3.881   0.764   1.466  1.3470 -2.1422 -1.5393
 6565SOL    HW230625   4.038   0.809   1.467  0.4448  1.1305  0.7750
 6566SOL     OW30626   7.054   1.792   2.740 -0.0428 -0.0532  0.1798
 6566SOL    HW130627   6.957   1.793   2.765 -0.1341 -0.2661 -0.1743
 6566SOL    HW230628   7.064   1.762   2.645  0.4306 -0.8370  0.4745
 6567SOL     OW30629   1.628   8.962   0.711  0.0469 -0.1614  0.4162
 6567SOL    HW130630   1.717   8.970   0.665  0.6118 -1.1719  1.3136
 6567SOL    HW230631   1.641   8.965   0.810 -0.9612  0.0355  0.5512
 6568SOL     OW30632   2.635   8.473   0.620  0.5473  0.1413  0.0387
 6568SOL    HW130633   2.635   8.373   0.620  4.0168  0.0468  1.9222
 6568SOL    HW230634   2.730   8.506   0.622 -0.5517  3.4630  0.7285
 6569SOL     OW30635   4.725   9.409   1.099  0.7299  0.2786 -0.2019
 6569SOL    HW130636   4.759   9.373   1.186  2.1294 -0.9509 -1.2130
 6569SOL    HW230637   4.686   9.335   1.045  2.0138  0.5629 -1.5749
 6570SOL     OW30638   1.041   9.240   1.372  0.1951 -0.0181  0.1744
 6570SOL    HW130639   1.137   9.248   1.345 -0.2482  0.9551 -1.1381
 6570SOL    HW230640   1.013   9.144   1.369  0.8410 -0.1884 -0.4050
 6571SOL     OW30641   2.840   5.450   1.834  0.1732  0.5634  0.3729
 6571SOL    HW130642   2.927   5.490   1.804  0.7850 -0.4798  0.7240
 6571SOL    HW230643   2.780   5.522   1.868  1.0378  1.2503  0.4655
 6572SOL     OW30644   8.549   8.711   1.603  0.4080 -0.2850 -0.0068
 6572SOL    HW130645   8.568   8.730   1.700  2.5914  0.4182 -0.5448
 6572SOL    HW230646   8.571   8.616   1.582 -2.3274 -1.1290  0.6937
 6573SOL     OW30647   3.889   8.274   2.165 -0.0083  0.7876  0.0007
 6573SOL    HW130648   3.920   8.193   2.215 -0.9923 -0.5712 -1.5458
 6573SOL    HW230649   3.952   8.294   2.091 -0.2947  0.8399 -0.2298
 6574SOL     OW30650   9.387   3.137   3.556 -0.6064 -0.1352  0.0841
 6574SOL    HW130651   9.441   3.123   3.473 -0.5893  1.6080 -0.2286
 6574SOL    HW230652   9.289   3.133   3.533 -0.6183  1.7979 -0.3323
 6575SOL     OW30653   3.875   0.040   0.348  0.7572 -0.2902 -0.1682
 6575SOL    HW130654   3.844   0.073   0.259 -0.0062  0.6611  0.4358
 6575SOL    HW230655   3.898   0.118   0.407 -1.3217 -0.7978  1.3754
 6576SOL     OW30656   7.993   6.483   0.126  0.1116  0.0295 -0.4780
 6576SOL    HW130657   7.931   6.483   0.047 -0.8652 -0.2164  0.2742
 6576SOL    HW230658   8.084   6.510   0.097 -0.6870  1.8952 -1.3515
 6577SOL     OW30659   7.849   9.247   1.825 -0.7791  0.2604  0.1600
 6577SOL    HW130660   7.757   9.264   1.789 -1.4228 -1.1411  1.1121
 6577SOL    HW230661   7.854   9.155   1.863  2.1209 -1.0771 -3.1993
 6578SOL     OW30662   5.258   3.857   0.657  0.0931  0.3266 -0.0072
 6578SOL    HW130663   5.273   3.897   0.567  1.3768 -0.0139  0.0468
 6578SOL    HW230664   5.266   3.928   0.727  3.9733 -0.2404  0.2238
 6579SOL     OW30665   9.892   9.021   5.237 -0.2529 -0.3707  0.0084
 6579SOL    HW130666   9.991   9.006   5.243  0.0035  1.2245 -0.0836
 6579SOL    HW230667   9.868   9.103   5.288 -1.6204 -1.0636  0.4930
 6580SOL     OW30668   4.738   0.428   2.852 -0.5284 -0.3844  0.4160
 6580SOL    HW130669   4.743   0.392   2.945 -0.9883  0.6641  0.8589
 6580SOL    HW230670   4.644   0.419   2.819 -0.6858  0.5512  0.5958
 6581SOL     OW30671   3.432   0.175   1.748 -0.1335  0.3650 -0.2258
 6581SOL    HW130672   3.345   0.184   1.798  0.6558  2.4755  0.7970
 6581SOL    HW230673   3.446   0.079   1.723 -1.8559 -0.2886  1.2435
 6582SOL     OW30674   9.717   5.542   0.898 -0.0516 -0.2133  0.0552
 6582SOL    HW130675   9.726   5.456   0.848 -0.0018 -0.8785  1.1702
 6582SOL    HW230676   9.789   5.549   0.967 -0.3474  0.4841  0.3059
 6583SOL     OW30677   4.949   8.825   3.548 -0.3884 -0.2224  0.0175
 6583SOL    HW130678   4.989   8.791   3.463  3.4875  3.5203  0.1429
 6583SOL    HW230679   5.014   8.810   3.623 -0.4257  3.2701  0.8455
 6584SOL     OW30680   3.920   1.074   0.410  0.2012 -0.3074 -0.1417
 6584SOL    HW130681   4.012   1.046   0.383  0.5547  0.7414 -0.0521
 6584SOL    HW230682   3.873   1.116   0.332  0.7973  1.6343  0.5048
 6585SOL     OW30683   0.912   7.871   3.046 -0.1063 -0.1681 -0.1686
 6585SOL    HW130684   0.962   7.940   2.994 -1.9138  0.6372 -0.8910
 6585SOL    HW230685   0.890   7.794   2.985 -1.4670  0.3832 -0.3918
 6586SOL     OW30686   2.346   2.475   3.888  0.8281 -0.1553  0.1728
 6586SOL    HW130687   2.401   2.558   3.899 -0.2963  0.4327  1.5568
 6586SOL    HW230688   2.250   2.500   3.875  1.0636 -1.1020 -4.0354
 6587SOL     OW30689   7.581   1.177   4.395  0.1984  0.4907  0.5639
 6587SOL    HW130690   7.652   1.121   4.439  0.1225 -0.7076 -0.8194
 6587SOL    HW230691   7.491   1.150   4.430  0.1741 -0.1571  0.0118
 6588SOL     OW30692   2.871   8.808   0.112 -0.4600 -0.3520  0.4013
 6588SOL    HW130693   2.932   8.888   0.109 -1.9495  0.8114  0.8306
 6588SOL    HW230694   2.866   8.767   0.021  0.2517  0.0737  0.1648
 6589SOL     OW30695   9.144   1.761   5.600  0.3162  0.5419 -0.4453
 6589SOL    HW130696   9.208   1.764   5.676  0.9146  1.4307 -0.9884
 6589SOL    HW230697   9.081   1.838   5.606 -1.3835 -0.8896  0.6683
 6590SOL     OW30698   3.676   5.223   1.883 -0.0892 -0.2179 -0.1141
 6590SOL    HW130699   3.752   5.179   1.931  1.2506  1.7979 -0.2887
 6590SOL    HW230700   3.597   5.162   1.880  1.2761 -2.0523  0.7662
 6591SOL     OW30701   8.167   6.763   4.058 -0.2144 -0.3500  0.1223
 6591SOL    HW130702   8.119   6.705   4.124  1.5636 -1.2758  0.6354
 6591SOL    HW230703   8.138   6.740   3.966  0.8714 -2.4651  0.2819
 6592SOL     OW30704   4.338   2.638   2.221  0.6416  0.1948  0.1966
 6592SOL    HW130705   4.364   2.561   2.279 -2.3761 -1.7023 -0.8438
 6592SOL    HW230706   4.377   2.625   2.129  0.7944  0.3319  0.2413
 6593SOL     OW30707   7.556   5.593   5.524 -0.0700  0.1673  0.1704
 6593SOL    HW130708   7.641   5.599   5.471  0.5942  1.5919  1.3603
 6593SOL    HW230709   7.577   5.563   5.617 -0.9888 -0.3540  0.2130
 6594SOL     OW30710   1.056   6.218   2.417  0.0707 -0.0722 -0.8410
 6594SOL    HW130711   0.999   6.177   2.346 -1.7576 -0.6781  0.9397
 6594SOL    HW230712   1.139   6.163   2.429 -0.9423 -1.5516 -0.5630
 6595SOL     OW30713   8.477   3.376   5.523  0.1134  0.0384  0.7112
 6595SOL    HW130714   8.398   3.393   5.464  2.7596  1.0726 -2.7085
 6595SOL    HW230715   8.492   3.277   5.531 -0.3999 -0.1148 -0.1794
 6596SOL     OW30716   4.438   2.400   5.217  0.4246  0.3649 -0.0185
 6596SOL    HW130717   4.470   2.447   5.134 -0.0868  0.4318 -0.1782
 6596SOL    HW230718   4.440   2.464   5.294 -0.6991  0.7811 -0.3294
 6597SOL     OW30719   5.690   1.150   3.306 -0.1077 -0.7005  0.0171
 6597SOL    HW130720   5.714   1.196   3.391  0.0005 -0.3753 -0.1896
 6597SOL    HW230721   5.607   1.096   3.320  0.0098 -0.7899  0.3769
 6598SOL     OW30722   5.089   1.475   0.214  0.2982 -0.2565 -0.0463
 6598SOL    HW130723   5.146   1.509   0.139 -0.9685 -0.4693 -1.1207
 6598SOL    HW230724   5.013   1.537   0.230 -0.3385 -1.0367  0.0012
 6599SOL     OW30725   5.023   0.693   4.688  0.0958 -0.4424  0.1443
 6599SOL    HW130726   5.105   0.653   4.649  0.3598  0.2559 -0.0363
 6599SOL    HW230727   5.044   0.785   4.723 -0.1814 -0.9515  1.7127
 6600SOL     OW30728   0.303   4.678   1.429 -0.2634 -0.2219  0.7629
 6600SOL    HW130729   0.274   4.583   1.443  0.7498 -0.7574 -0.6873
 6600SOL    HW230730   0.259   4.715   1.347  0.5196  0.0802  0.4823
 6601SOL     OW30731   1.196   6.245   4.085 -0.2120  0.2218 -0.3391
 6601SOL    HW130732   1.282   6.197   4.100 -0.4732  0.2255  1.3047
 6601SOL    HW230733   1.215   6.339   4.057  0.3489  0.7250  1.6542
 6602SOL     OW30734   6.154   0.181   4.683 -0.0574  1.0136 -0.1911
 6602SOL    HW130735   6.065   0.177   4.639  0.0795  0.9886 -0.4715
 6602SOL    HW230736   6.188   0.089   4.700 -0.3408  1.0269  0.4467
 6603SOL     OW30737   9.573   3.970   3.037  0.7440 -0.1509 -0.4231
 6603SOL    HW130738   9.520   4.052   3.016  2.4602  0.8430 -0.9781
 6603SOL    HW230739   9.568   3.950   3.134 -2.3094 -1.2661 -0.7496
 6604SOL     OW30740   7.114   1.778   1.949 -0.8672  0.1666  0.3524
 6604SOL    HW130741   7.078   1.842   1.882 -0.5287  1.8206  1.6984
 6604SOL    HW230742   7.162   1.829   2.021  3.4175 -1.8851 -0.9000
 6605SOL     OW30743   4.979   7.851   3.173  0.0216 -0.1436  0.5453
 6605SOL    HW130744   4.984   7.759   3.134 -1.6877  0.4709 -1.2589
 6605SOL    HW230745   4.915   7.851   3.249 -0.6787 -0.2811 -0.0344
 6606SOL     OW30746   1.627   1.223   1.385  0.3747  0.9774 -0.2884
 6606SOL    HW130747   1.553   1.198   1.448 -0.2884 -0.4608 -1.6151
 6606SOL    HW230748   1.594   1.219   1.291  2.3544 -0.4545 -0.9493
 6607SOL     OW30749   8.238   3.246   3.059  0.0041 -0.8077 -0.0979
 6607SOL    HW130750   8.269   3.152   3.077  1.6042  0.1952  2.6477
 6607SOL    HW230751   8.250   3.266   2.962  4.2245 -1.8910  0.0619
 6608SOL     OW30752   8.778   5.559   0.209 -0.0592  0.1238  0.4149
 6608SOL    HW130753   8.688   5.569   0.166 -0.1172 -0.5721  0.3738
 6608SOL    HW230754   8.777   5.602   0.299 -0.1815  0.8682  0.0603
 6609SOL     OW30755   5.018   8.119   3.410  0.0687 -0.0746 -0.2713
 6609SOL    HW130756   4.962   8.082   3.484 -0.3245 -0.9207 -0.9796
 6609SOL    HW230757   5.103   8.156   3.448 -0.3295 -0.0827  0.6483
 6610SOL     OW30758   5.485   7.170   2.169 -0.3103  0.3651 -0.1390
 6610SOL    HW130759   5.525   7.082   2.143  1.8925  1.6897 -1.3466
 6610SOL    HW230760   5.532   7.205   2.250 -0.4365  0.9550 -0.3205
 6611SOL     OW30761   2.131   4.510   3.531 -0.0359  0.1434  0.4624
 6611SOL    HW130762   2.043   4.552   3.552 -0.1557 -0.0331  0.3126
 6611SOL    HW230763   2.127   4.412   3.550  0.0329  0.0820  0.1716
 6612SOL     OW30764   0.835   3.088   2.706 -0.6309  0.2656 -0.1486
 6612SOL    HW130765   0.765   3.116   2.773 -1.3939 -0.9669 -0.4226
 6612SOL    HW230766   0.855   2.991   2.718  1.9140  0.8534  0.7141
 6613SOL     OW30767   5.740   0.670   1.147  0.7277  0.5546  0.3819
 6613SOL    HW130768   5.701   0.618   1.071 -0.0640  1.3658  0.2242
 6613SOL    HW230769   5.728   0.620   1.232  1.4049 -0.2513  0.0142
 6614SOL     OW30770   3.297   6.067   1.838  0.0268  0.2820  0.1025
 6614SOL    HW130771   3.284   6.049   1.936  0.3451  0.8030  0.2441
 6614SOL    HW230772   3.312   5.981   1.790  1.6513  0.1752  0.7850
 6615SOL     OW30773   6.009   8.880   2.354 -0.4321  0.3984  0.6625
 6615SOL    HW130774   6.051   8.892   2.264  0.8263  1.4310  1.3761
 6615SOL    HW230775   5.918   8.841   2.343  0.5270 -1.4792 -0.9359
 6616SOL     OW30776   2.485   8.910   2.848  0.2927 -0.1318  0.3869
 6616SOL    HW130777   2.504   8.878   2.755  0.5820  1.3552 -0.0795
 6616SOL    HW230778   2.564   8.892   2.907 -0.1602 -1.7193  0.5296
 6617SOL     OW30779   3.744   3.553   2.079  0.4201 -0.2034 -0.1882
 6617SOL    HW130780   3.788   3.643   2.076 -1.3265  0.8002  2.2967
 6617SOL    HW230781   3.727   3.528   2.174 -3.7926 -0.8096 -1.0066
 6618SOL     OW30782   4.417   5.884   0.866 -0.1719  0.4751 -0.0637
 6618SOL    HW130783   4.349   5.954   0.887  0.0275 -0.0231  2.3522
 6618SOL    HW230784   4.372   5.805   0.825 -0.8647  0.6863  0.2897
 6619SOL     OW30785   8.374   3.538   2.352 -0.5341 -0.1706  0.7143
 6619SOL    HW130786   8.451   3.597   2.328 -0.4976 -0.2855  0.5469
 6619SOL    HW230787   8.400   3.480   2.429 -0.1871 -0.7535  0.1609
 6620SOL     OW30788   4.688   2.853   2.196 -0.0304  0.0147 -0.0917
 6620SOL    HW130789   4.761   2.913   2.230 -0.2384  0.7644 -0.9600
 6620SOL    HW230790   4.602   2.904   2.193 -0.7030 -1.0016  1.3814
 6621SOL     OW30791   6.423   1.237   3.648 -0.0590 -0.0263 -0.7796
 6621SOL    HW130792   6.457   1.311   3.706  0.7517 -0.9212 -0.0866
 6621SOL    HW230793   6.365   1.275   3.576 -1.3185  1.0804  0.7763
 6622SOL     OW30794   7.521   2.917   4.503 -0.2765  0.1560  0.2189
 6622SOL    HW130795   7.607   2.897   4.551 -0.8683  1.0248  1.6806
 6622SOL    HW230796   7.450   2.938   4.570 -1.0767  1.5781 -1.0456
 6623SOL     OW30797   2.191   1.576   2.816  0.1063 -0.3575  0.3234
 6623SOL    HW130798   2.183   1.477   2.824  1.8321 -0.3701  2.4024
 6623SOL    HW230799   2.287   1.602   2.822 -0.2522  1.4036 -0.9957
 6624SOL     OW30800   5.658   8.603   4.242 -0.2350 -0.4634 -1.0619
 6624SOL    HW130801   5.691   8.646   4.157  2.1377 -0.5299 -0.2027
 6624SOL    HW230802   5.735   8.562   4.291 -1.6846 -1.0065  0.8148
 6625SOL     OW30803   2.282   7.367   3.438 -0.1583  0.1735  0.3772
 6625SOL    HW130804   2.270   7.412   3.527  1.5751  1.0036  0.2025
 6625SOL    HW230805   2.211   7.297   3.427 -0.3866  0.0327  2.4318
 6626SOL     OW30806   9.635   6.434   1.283 -0.1844  0.4477 -0.3936
 6626SOL    HW130807   9.686   6.515   1.255  0.3855  0.2249 -0.0159
 6626SOL    HW230808   9.537   6.452   1.277 -0.0585  1.0770 -0.5607
 6627SOL     OW30809   7.306   8.663   2.535 -0.0683  0.1813  0.0988
 6627SOL    HW130810   7.316   8.762   2.543 -0.1409  0.0518  2.2088
 6627SOL    HW230811   7.215   8.642   2.500  0.8446  0.8987 -2.8300
 6628SOL     OW30812   2.603   6.860   5.054  0.0671 -0.2361  0.0035
 6628SOL    HW130813   2.702   6.856   5.067  0.0173 -0.7334  0.2606
 6628SOL    HW230814   2.573   6.955   5.050  0.4349 -0.0795  0.8711
 6629SOL     OW30815   9.940   5.798   3.222 -0.5553  0.0884 -0.5263
 6629SOL    HW130816   9.952   5.743   3.140 -0.1291 -0.3325 -0.1838
 6629SOL    HW230817   9.888   5.881   3.199 -1.1850 -0.4426 -1.0407
 6630SOL     OW30818   1.403   7.387   0.986 -0.3460  0.0578  0.4394
 6630SOL    HW130819   1.349   7.403   0.903 -0.3670  0.0150  0.4449
 6630SOL    HW230820   1.498   7.369   0.961 -0.5016 -0.6832  0.3851
 6631SOL     OW30821   9.220   9.602   3.029 -0.0218  0.1036  0.5116
 6631SOL    HW130822   9.171   9.624   2.945  2.4029  0.3023 -0.8957
 6631SOL    HW230823   9.297   9.542   3.008  0.5243  0.0256  2.6106
 6632SOL     OW30824   2.292   1.381   0.784  0.2275  0.4002  0.3932
 6632SOL    HW130825   2.196   1.407   0.780  0.6860  2.1985  0.7274
 6632SOL    HW230826   2.316   1.330   0.701 -0.7772  0.6967 -0.0907
 6633SOL     OW30827   4.114   7.020   3.102 -0.2710 -0.5608 -0.8114
 6633SOL    HW130828   4.127   7.100   3.043 -1.0373  2.1227  2.4799
 6633SOL    HW230829   4.200   6.997   3.146 -1.1808  2.0672  2.5276
 6634SOL     OW30830   4.166   8.636   0.362  0.1177  0.0919 -0.3465
 6634SOL    HW130831   4.214   8.553   0.393 -1.8212 -1.7900 -2.1768
 6634SOL    HW230832   4.209   8.671   0.280 -1.4710 -1.5351 -1.9281
 6635SOL     OW30833   9.046   0.373   2.160  0.0223  0.3421  0.4343
 6635SOL    HW130834   9.124   0.317   2.187 -1.2344 -0.3889  2.6662
 6635SOL    HW230835   8.961   0.322   2.175 -1.0421  2.1473  0.7264
 6636SOL     OW30836   7.144   0.379   4.912  0.1946  0.6989 -0.0379
 6636SOL    HW130837   7.147   0.365   5.011 -1.0041  0.3941 -0.0344
 6636SOL    HW230838   7.205   0.453   4.887  1.2054  0.1734  0.8242
 6637SOL     OW30839   4.761   3.560   2.373 -0.6316  0.0785 -0.1057
 6637SOL    HW130840   4.663   3.541   2.366 -0.9953  1.2546  1.4776
 6637SOL    HW230841   4.781   3.646   2.327 -0.6955  0.8128  1.2005
 6638SOL     OW30842   8.569   1.457   4.412 -0.3129  0.0903  0.2826
 6638SOL    HW130843   8.572   1.538   4.354  1.2613  0.1685  0.4335
 6638SOL    HW230844   8.517   1.385   4.367  0.6274  0.2537 -1.0967
 6639SOL     OW30845   8.768   7.097   2.900 -0.0116 -0.2370  0.1735
 6639SOL    HW130846   8.821   7.052   2.829  1.4260 -0.7283  1.5296
 6639SOL    HW230847   8.803   7.190   2.914 -0.3734 -0.0957  0.1446
 6640SOL     OW30848   2.543   7.564   2.960 -0.2498  0.0870 -0.2836
 6640SOL    HW130849   2.607   7.491   2.984  0.2927  0.4805 -0.5450
 6640SOL    HW230850   2.449   7.531   2.973 -0.0252 -1.0493 -1.5389
 6641SOL     OW30851   4.637   3.708   1.456 -0.3082 -0.1900 -0.1666
 6641SOL    HW130852   4.682   3.790   1.490 -0.1587 -0.5760  0.5767
 6641SOL    HW230853   4.538   3.721   1.456 -0.1996  0.7520 -2.0347
 6642SOL     OW30854   4.955   1.140   1.697 -0.1222  0.3343  0.3331
 6642SOL    HW130855   4.875   1.182   1.740  1.1006  3.4584 -0.2489
 6642SOL    HW230856   4.926   1.074   1.628 -2.2413  2.8677 -1.2885
 6643SOL     OW30857   9.328   0.361   4.865 -0.9717  0.5208 -0.3142
 6643SOL    HW130858   9.377   0.280   4.833 -0.9014  0.3853  0.1269
 6643SOL    HW230859   9.394   0.429   4.895 -1.0562  0.0422  0.9986
 6644SOL     OW30860   4.258   8.709   2.088  0.5016 -0.1309  0.4185
 6644SOL    HW130861   4.324   8.737   2.018  0.8203 -1.4226  0.2037
 6644SOL    HW230862   4.232   8.614   2.074  0.3209 -0.3081  1.8637
 6645SOL     OW30863   8.263   5.100   3.601 -0.2646 -0.0703  0.5931
 6645SOL    HW130864   8.271   5.179   3.540  0.1139 -1.2916 -0.9447
 6645SOL    HW230865   8.170   5.064   3.598  0.3202 -1.4813 -0.9614
 6646SOL     OW30866   2.847   5.825   4.302 -0.5437 -0.2218 -0.1685
 6646SOL    HW130867   2.760   5.777   4.290  0.4299 -1.8261 -0.9551
 6646SOL    HW230868   2.922   5.759   4.298  0.7945  1.3044 -0.6945
 6647SOL     OW30869   9.411   9.679   5.021  1.1049 -0.8024 -0.1950
 6647SOL    HW130870   9.442   9.701   4.929 -0.3793  1.0356 -0.2929
 6647SOL    HW230871   9.390   9.763   5.070 -3.2687 -1.8290 -0.0487
 6648SOL     OW30872   4.386   7.750   2.394  0.4508 -0.4955 -0.0782
 6648SOL    HW130873   4.437   7.668   2.421 -1.8225 -1.9986 -0.2358
 6648SOL    HW230874   4.337   7.787   2.472  1.3325  0.6637 -0.0472
 6649SOL     OW30875   8.146   3.787   1.390  0.0260  0.3046 -0.7856
 6649SOL    HW130876   8.108   3.760   1.302  1.1414 -0.9905 -0.8903
 6649SOL    HW230877   8.220   3.854   1.375  2.0575 -1.9225 -1.0805
 6650SOL     OW30878   1.642   1.781   4.932 -0.2335 -0.3562 -0.5734
 6650SOL    HW130879   1.725   1.745   4.889  0.4172 -0.8270  1.0399
 6650SOL    HW230880   1.652   1.778   5.032 -1.5897  1.0019 -0.3776
 6651SOL     OW30881   5.814   3.864   0.401  0.2860  0.1608 -0.1807
 6651SOL    HW130882   5.877   3.837   0.328  0.9977  0.4415  0.3240
 6651SOL    HW230883   5.838   3.955   0.434  0.7728 -0.4889  1.2836
 6652SOL     OW30884   1.497   3.292   4.366 -0.5415 -0.2131  0.3631
 6652SOL    HW130885   1.590   3.296   4.330 -0.3110 -0.4932  0.9226
 6652SOL    HW230886   1.435   3.258   4.295 -0.9051  3.6521 -1.2827
 6653SOL     OW30887   1.705   1.514   4.228  0.3796 -0.7257  0.8365
 6653SOL    HW130888   1.796   1.478   4.251  0.7714  0.1969  0.7935
 6653SOL    HW230889   1.689   1.503   4.130  0.2654 -1.2879  0.9193
 6654SOL     OW30890   8.739   9.568   3.138 -0.3253 -0.5460 -0.3577
 6654SOL    HW130891   8.679   9.491   3.163 -1.0694 -0.0370 -0.5571
 6654SOL    HW230892   8.834   9.544   3.158 -0.7027 -0.9181  1.0899
 6655SOL     OW30893   9.251   2.022   3.978 -0.2467 -0.6049  0.6248
 6655SOL    HW130894   9.246   1.953   3.906  1.7749 -0.6756  0.5051
 6655SOL    HW230895   9.260   2.113   3.937 -2.4356 -0.3128  0.7839
 6656SOL     OW30896   1.028   2.209   3.652 -0.3149 -0.0474  0.0874
 6656SOL    HW130897   0.984   2.136   3.705  0.1773 -0.5145 -0.1495
 6656SOL    HW230898   1.127   2.204   3.664 -0.3099  0.8511  0.4180
 6657SOL     OW30899   3.631   7.942   2.518  0.3069  0.7083 -0.2747
 6657SOL    HW130900   3.619   7.843   2.516  1.8181  0.4643  1.3383
 6657SOL    HW230901   3.549   7.987   2.482 -1.8164 -1.0342  2.2270
 6658SOL     OW30902   2.498   1.515   0.288  0.2049  0.6983  0.0770
 6658SOL    HW130903   2.452   1.575   0.222  0.2115 -0.9281 -1.4435
 6658SOL    HW230904   2.567   1.567   0.338 -1.4600  2.5416  0.5228
 6659SOL     OW30905   6.803   4.486   5.362  0.2549  0.3617 -0.1940
 6659SOL    HW130906   6.743   4.420   5.406  1.8246 -2.0033 -1.5009
 6659SOL    HW230907   6.749   4.559   5.321 -1.4278  0.6138  2.3957
 6660SOL     OW30908   2.128   7.826   1.427  0.0425  0.4861  0.3995
 6660SOL    HW130909   2.058   7.862   1.488  0.2823  0.6113  0.6037
 6660SOL    HW230910   2.092   7.821   1.334 -0.2773  0.4256  0.5294
 6661SOL     OW30911   8.486   3.349   0.195  0.3771  0.1162 -0.5836
 6661SOL    HW130912   8.451   3.347   0.102 -3.7193 -0.8540  0.8921
 6661SOL    HW230913   8.465   3.437   0.237  1.0283  0.0558 -0.1095
 6662SOL     OW30914   4.607   1.828   5.476 -0.3865  0.1309  0.1601
 6662SOL    HW130915   4.706   1.829   5.487 -0.4567 -0.2745  0.8858
 6662SOL    HW230916   4.565   1.881   5.550 -0.7178  0.1782 -0.0592
 6663SOL     OW30917   7.652   8.771   4.999 -0.1353  0.3369 -0.2559
 6663SOL    HW130918   7.593   8.794   5.077 -0.9082  2.3586 -1.3979
 6663SOL    HW230919   7.628   8.829   4.921  1.4004 -0.8685 -1.6569
 6664SOL     OW30920   4.562   0.108   3.539 -0.0414 -0.5491 -0.0622
 6664SOL    HW130921   4.633   0.045   3.507  1.8342  2.2700 -1.7050
 6664SOL    HW230922   4.554   0.102   3.638  3.1110 -0.4023  0.2683
 6665SOL     OW30923   8.819   6.679   1.033 -0.1245  0.4939  0.1322
 6665SOL    HW130924   8.790   6.733   0.953  0.5087  1.0674  0.2851
 6665SOL    HW230925   8.757   6.602   1.045 -1.2976  1.4226  0.1510
 6666SOL     OW30926   1.474   4.321   3.979  0.1760  0.4161  0.0907
 6666SOL    HW130927   1.457   4.413   4.012  0.8794  0.5748  0.0330
 6666SOL    HW230928   1.549   4.280   4.032 -1.8481 -1.0882  1.8525
 6667SOL     OW30929   2.994   0.227   0.706  0.1314 -0.2899 -0.7741
 6667SOL    HW130930   2.930   0.174   0.762 -0.1334 -0.1652 -0.9551
 6667SOL    HW230931   3.068   0.261   0.764 -1.3399  1.7569 -0.0258
 6668SOL     OW30932   4.480   3.369   4.812  0.0220  0.0754 -0.0690
 6668SOL    HW130933   4.477   3.283   4.760  1.6155  0.3830 -0.7013
 6668SOL    HW230934   4.509   3.443   4.751  1.6170  0.5027  1.1742
 6669SOL     OW30935   7.643   0.511   4.436  0.2553 -0.3815  0.8909
 6669SOL    HW130936   7.738   0.484   4.452 -0.1269 -0.3517  3.3478
 6669SOL    HW230937   7.588   0.430   4.416  0.7851 -0.4002 -0.5162
 6670SOL     OW30938   7.923   2.155   0.817  0.6061  0.3125 -0.3227
 6670SOL    HW130939   8.010   2.197   0.844 -0.3466  2.0784  0.0534
 6670SOL    HW230940   7.865   2.224   0.774 -0.6250 -0.8623 -0.5678
 6671SOL     OW30941   0.454   1.558   0.122  0.3854 -0.2730  0.5502
 6671SOL    HW130942   0.513   1.634   0.150  0.3067 -0.5872  1.5896
 6671SOL    HW230943   0.490   1.516   0.039 -0.5351  2.0318 -1.0675
 6672SOL     OW30944   5.185   7.167   3.100 -0.1184  0.1461 -0.4094
 6672SOL    HW130945   5.093   7.137   3.075 -0.2931 -0.1160  0.5415
 6672SOL    HW230946   5.233   7.200   3.018 -1.4453  1.3541 -0.7110
 6673SOL     OW30947   9.816   0.157   2.934 -0.2902 -0.1861 -0.2244
 6673SOL    HW130948   9.790   0.097   2.858 -0.5272  1.3707 -1.3883
 6673SOL    HW230949   9.886   0.221   2.903 -2.0006  1.9557  0.2077
 6674SOL     OW30950   9.174   4.073   3.088  0.2502  0.0625 -0.5479
 6674SOL    HW130951   9.131   4.016   3.018  2.8123 -1.1713 -1.1799
 6674SOL    HW230952   9.132   4.164   3.088 -0.0059 -0.0147 -3.4682
 6675SOL     OW30953   2.011   2.264   0.055 -0.2297  0.0100  0.1405
 6675SOL    HW130954   2.083   2.306   0.111  0.3802  0.7205 -1.1468
 6675SOL    HW230955   1.942   2.223   0.114  0.1917  1.1031  1.4047
 6676SOL     OW30956   0.339   2.376   1.342  0.0429 -0.0013 -0.0781
 6676SOL    HW130957   0.371   2.281   1.350  0.8413  0.0885 -1.8968
 6676SOL    HW230958   0.278   2.397   1.418  0.3904 -1.7649  0.7206
 6677SOL     OW30959   3.857   8.637   2.412 -0.2134 -0.3953 -0.1925
 6677SOL    HW130960   3.856   8.733   2.440 -1.7232 -0.5811  0.4652
 6677SOL    HW230961   3.872   8.632   2.313 -1.0279  0.5770 -0.3887
 6678SOL     OW30962   3.805   2.083   2.779  0.2444  0.6446 -0.2013
 6678SOL    HW130963   3.819   2.000   2.726  1.2548  0.3664  0.4846
 6678SOL    HW230964   3.888   2.139   2.776  1.1112 -0.4026  2.8618
 6679SOL     OW30965   3.366   8.340   3.306  0.0757 -0.1700  0.7241
 6679SOL    HW130966   3.404   8.356   3.215 -0.4530  2.1003  0.8580
 6679SOL    HW230967   3.282   8.286   3.299 -1.4121  2.1924 -0.4440
 6680SOL     OW30968   8.666   7.717   1.344 -0.2695 -0.2880  0.1774
 6680SOL    HW130969   8.693   7.621   1.342  0.1309 -0.2524  2.5457
 6680SOL    HW230970   8.571   7.725   1.312 -0.0326 -1.3400 -0.8425
 6681SOL     OW30971   1.119   5.481   4.097 -0.4702  0.2550  0.0788
 6681SOL    HW130972   1.180   5.560   4.102  1.7667 -1.4049  0.1780
 6681SOL    HW230973   1.092   5.453   4.189  0.7067 -0.5052  0.2187
 6682SOL     OW30974   9.174   6.750   0.943 -0.1066 -0.0227  0.0530
 6682SOL    HW130975   9.232   6.705   1.011  1.2136  0.3629 -0.7999
 6682SOL    HW230976   9.223   6.755   0.855 -1.1231  1.0277 -0.4637
 6683SOL     OW30977   1.495   8.421   4.750  0.3323  0.2163  0.1669
 6683SOL    HW130978   1.426   8.477   4.705 -0.8015 -0.1044  1.4763
 6683SOL    HW230979   1.473   8.412   4.847  0.1951 -2.8853 -0.0925
 6684SOL     OW30980   0.757   1.871   0.037 -0.1469 -0.2308 -0.4711
 6684SOL    HW130981   0.850   1.863  -0.000  1.0694 -0.5992  2.5165
 6684SOL    HW230982   0.724   1.964   0.024  1.5928  0.5518  0.5315
 6685SOL     OW30983   9.290   4.719   1.665 -0.0065  0.1949 -0.0854
 6685SOL    HW130984   9.269   4.637   1.612 -0.3326 -0.3065  0.8154
 6685SOL    HW230985   9.313   4.693   1.759 -0.2504  1.1443  0.2388
 6686SOL     OW30986   0.617   7.315   3.383 -0.1819  0.5527 -0.5254
 6686SOL    HW130987   0.585   7.221   3.368  0.8032 -0.0312  0.8880
 6686SOL    HW230988   0.712   7.323   3.353 -0.1687  1.0069 -0.3673
 6687SOL     OW30989   2.723   3.575   0.242  0.0542 -0.1154 -0.2629
 6687SOL    HW130990   2.728   3.486   0.197 -0.8753  0.3899 -1.3933
 6687SOL    HW230991   2.755   3.646   0.180 -1.5681  0.6271 -0.2858
 6688SOL     OW30992   3.983   2.590   0.852 -0.1015  0.0269  0.1889
 6688SOL    HW130993   4.073   2.593   0.895  1.2072 -1.0478 -2.3276
 6688SOL    HW230994   3.950   2.496   0.849  0.2268 -0.0664 -1.7911
 6689SOL     OW30995   4.749   1.926   3.059 -0.1093 -0.2938 -0.2865
 6689SOL    HW130996   4.712   1.849   3.007 -1.1158 -0.6230  0.9062
 6689SOL    HW230997   4.696   1.940   3.142  0.6078  1.1355 -0.0375
 6690SOL     OW30998   6.975   1.815   3.318 -0.2530 -0.2872 -0.1408
 6690SOL    HW130999   6.986   1.716   3.326 -1.4040 -0.2822  1.8293
 6690SOL    HW231000   6.913   1.836   3.243 -0.0140 -1.0516 -0.5568
 6691SOL     OW31001   1.030   7.231   1.296 -0.2828 -0.4357  0.2063
 6691SOL    HW131002   1.024   7.147   1.243 -1.4591  0.4190 -1.0591
 6691SOL    HW231003   1.106   7.286   1.262 -2.5263  1.2227 -2.2976
 6692SOL     OW31004   2.667   9.916   2.608  0.0505 -0.5145  0.4330
 6692SOL    HW131005   2.655   9.991   2.543  0.5486  1.0029  2.0622
 6692SOL    HW231006   2.750   9.931   2.662  0.6735 -2.7348  0.1452
 6693SOL     OW31007   0.617   4.192   3.654 -0.1308 -0.1553 -0.0414
 6693SOL    HW131008   0.677   4.117   3.625  2.3716  2.3891 -1.6008
 6693SOL    HW231009   0.538   4.195   3.593  0.5566 -0.5304 -0.9643
 6694SOL     OW31010   8.761   4.901   0.046 -0.4084 -0.0204  0.3100
 6694SOL    HW131011   8.852   4.934   0.073 -0.0981  1.1896 -2.0765
 6694SOL    HW231012   8.728   4.835   0.114  1.6309  0.5852  1.9525
 6695SOL     OW31013   8.523   0.432   1.318 -0.0954 -0.0856  0.4233
 6695SOL    HW131014   8.575   0.356   1.357  0.6424 -0.7771 -1.8089
 6695SOL    HW231015   8.430   0.401   1.297  0.0322 -0.2253  0.0497
 6696SOL     OW31016   7.853   2.892   0.116 -0.2424 -0.7481  0.4563
 6696SOL    HW131017   7.849   2.952   0.036 -1.0056 -0.6292  0.5792
 6696SOL    HW231018   7.939   2.906   0.164  0.8426 -1.8364 -1.1261
 6697SOL     OW31019   4.635   4.656   0.383 -0.4253 -0.0396 -0.1264
 6697SOL    HW131020   4.640   4.657   0.483  1.0953 -1.5495 -0.1744
 6697SOL    HW231021   4.597   4.743   0.352  0.1880  0.9236  1.7022
 6698SOL     OW31022   0.097   7.486   3.109  0.6385  0.2865 -0.2393
 6698SOL    HW131023   0.140   7.399   3.084  0.5646 -0.4013  1.9769
 6698SOL    HW231024   0.108   7.502   3.207 -0.2763  2.2800 -0.4397
 6699SOL     OW31025   9.064   0.411   4.917 -0.8432  0.1726  0.5588
 6699SOL    HW131026   9.149   0.395   4.867 -1.4357 -0.8698 -0.1446
 6699SOL    HW231027   9.059   0.350   4.996 -0.4026  1.0684  1.2914
 6700SOL     OW31028   9.442   2.935   5.189 -0.1374 -0.5050  0.1571
 6700SOL    HW131029   9.491   2.918   5.275 -1.0732  0.6670  0.9432
 6700SOL    HW231030   9.385   3.017   5.199  1.3335  0.8777 -2.2643
 6701SOL     OW31031   3.046   2.029   2.384 -0.5209  0.4143  0.1990
 6701SOL    HW131032   2.948   2.022   2.398 -0.5706  3.6061  1.7842
 6701SOL    HW231033   3.065   2.065   2.293 -0.8016 -0.2170 -0.1130
 6702SOL     OW31034   0.936   2.450   3.601  0.0574 -0.0357 -0.2490
 6702SOL    HW131035   0.990   2.497   3.531  1.1481 -0.0064  0.5805
 6702SOL    HW231036   0.979   2.362   3.623 -1.6771 -1.1943 -1.4068
 6703SOL     OW31037   2.684   1.182   4.463  0.0396  0.5388  0.5888
 6703SOL    HW131038   2.628   1.236   4.401 -1.0377 -0.2367  0.8546
 6703SOL    HW231039   2.669   1.213   4.557 -0.1761  0.1419  0.6891
 6704SOL     OW31040   4.481   2.806   3.388  0.4029 -0.8524  0.6803
 6704SOL    HW131041   4.545   2.734   3.416  3.5905  1.5130 -0.1946
 6704SOL    HW231042   4.479   2.811   3.288 -1.1654 -0.9026  0.7049
 6705SOL     OW31043   8.616   5.433   1.046  0.4870 -0.3880  0.5046
 6705SOL    HW131044   8.649   5.386   1.128  1.0529  0.2082  0.6225
 6705SOL    HW231045   8.560   5.511   1.071  0.0511 -0.6397  0.3151
 6706SOL     OW31046   8.315   7.246   2.622 -0.1960 -0.1261  0.0418
 6706SOL    HW131047   8.386   7.190   2.577 -1.8942 -2.3788  0.0874
 6706SOL    HW231048   8.261   7.293   2.552  1.2191  1.5056  0.0022
 6707SOL     OW31049   1.351   3.518   4.324  1.3024 -0.4654 -1.0021
 6707SOL    HW131050   1.388   3.525   4.231  0.3368 -0.6580 -1.4042
 6707SOL    HW231051   1.405   3.451   4.376  0.7457 -1.6974 -1.9710
 6708SOL     OW31052   2.337   9.497   3.698  0.0065 -0.7078  0.0316
 6708SOL    HW131053   2.325   9.557   3.776 -1.2030 -2.2020  1.0257
 6708SOL    HW231054   2.376   9.410   3.728  3.7388  0.2601 -1.6781
 6709SOL     OW31055   7.455   0.410   3.724  0.3200 -0.1406  0.8320
 6709SOL    HW131056   7.452   0.481   3.794 -0.2487  0.3760  0.2885
 6709SOL    HW231057   7.380   0.346   3.737  0.6464 -0.4654  1.1320
 6710SOL     OW31058   8.845   8.726   4.916  0.3441  0.1075 -0.4001
 6710SOL    HW131059   8.753   8.716   4.879  0.1840 -1.8286  0.4674
 6710SOL    HW231060   8.912   8.693   4.850  0.4197  1.3277 -0.9493
 6711SOL     OW31061   0.854   5.910   3.598 -0.1466 -0.4108 -0.4424
 6711SOL    HW131062   0.838   5.812   3.596 -2.2580 -0.0587 -1.6579
 6711SOL    HW231063   0.820   5.948   3.684  0.4198 -0.6805 -0.0929
 6712SOL     OW31064   6.786   0.753   3.762  0.0635 -0.2748 -0.0710
 6712SOL    HW131065   6.689   0.746   3.742  0.3087 -0.9637 -1.0408
 6712SOL    HW231066   6.838   0.691   3.703  1.1323  0.3772  0.1548
 6713SOL     OW31067   1.923   0.280   0.777 -0.2956  0.1702  0.0639
 6713SOL    HW131068   1.956   0.187   0.758 -0.0535  0.2781 -0.0469
 6713SOL    HW231069   2.001   0.340   0.796 -0.6244 -0.2415  2.8143
 6714SOL     OW31070   1.709   8.694   4.884 -0.2220 -0.0227  0.3033
 6714SOL    HW131071   1.782   8.644   4.838  0.8311  0.4074  1.4640
 6714SOL    HW231072   1.701   8.786   4.845 -1.3935 -0.6843 -1.0597
 6715SOL     OW31073   2.703   6.030   4.001 -0.3102 -0.2243  0.2533
 6715SOL    HW131074   2.706   5.940   3.957 -3.0745 -0.1192 -0.2425
 6715SOL    HW231075   2.682   6.019   4.098 -0.1501 -0.1428  0.2969
 6716SOL     OW31076   4.666   9.288   3.510  0.5430  0.5739 -0.0065
 6716SOL    HW131077   4.621   9.264   3.596  2.8033  1.6424  1.5034
 6716SOL    HW231078   4.755   9.243   3.505 -0.7572 -1.8802 -3.1756
 6717SOL     OW31079   9.131   7.650   0.742  0.3212  0.2074  0.1034
 6717SOL    HW131080   9.216   7.625   0.789  2.0326  2.1449 -1.8599
 6717SOL    HW231081   9.065   7.686   0.808  1.0898 -1.1192  1.6174
 6718SOL     OW31082   3.113   9.598   3.356  0.1571 -0.0772  0.4078
 6718SOL    HW131083   3.143   9.555   3.441 -0.4759 -4.3114 -1.4087
 6718SOL    HW231084   3.181   9.580   3.285 -1.7796 -1.0298 -1.2213
 6719SOL     OW31085   4.311   2.707   5.264 -0.2552  0.9840 -0.2500
 6719SOL    HW131086   4.308   2.799   5.225 -0.0316  0.6182 -1.1352
 6719SOL    HW231087   4.398   2.695   5.313  0.9820  0.2699 -2.5670
 6720SOL     OW31088   8.401   4.679   1.776  0.3287 -0.8219 -0.4136
 6720SOL    HW131089   8.315   4.638   1.745  1.0412 -2.2282 -0.6048
 6720SOL    HW231090   8.463   4.687   1.698  0.3486  0.2323 -0.2872
 6721SOL     OW31091   5.377   0.408   3.461 -0.3691 -0.3393 -0.2229
 6721SOL    HW131092   5.392   0.318   3.502 -1.9426 -0.3321  0.3883
 6721SOL    HW231093   5.299   0.404   3.398 -0.4208  0.5868 -0.2269
 6722SOL     OW31094   2.865   1.518   1.665 -0.0758  0.6175  0.2677
 6722SOL    HW131095   2.810   1.457   1.723 -0.9455  0.4705 -0.6856
 6722SOL    HW231096   2.804   1.570   1.605  0.8961 -0.4932 -1.7129
 6723SOL     OW31097   8.719   0.659   0.485 -0.2276 -0.6090 -0.1849
 6723SOL    HW131098   8.625   0.633   0.463 -1.3648  2.4795  0.7252
 6723SOL    HW231099   8.773   0.666   0.401 -0.8778 -2.0881 -0.7383
 6724SOL     OW31100   9.949   9.145   4.344  0.1361 -0.3215  0.4178
 6724SOL    HW131101   9.957   9.135   4.245  0.0437  0.7612  0.2879
 6724SOL    HW231102  10.040   9.142   4.386  0.1347 -1.2971  0.3599
 6725SOL     OW31103   8.338   7.682   5.082  0.6147 -0.0206 -0.1477
 6725SOL    HW131104   8.298   7.720   5.166 -1.4209 -1.4639 -0.4178
 6725SOL    HW231105   8.341   7.753   5.011 -2.2231 -0.0446 -0.3520
 6726SOL     OW31106   5.699   0.577   3.813  0.2017  0.0036 -0.0777
 6726SOL    HW131107   5.698   0.660   3.756 -2.6550 -1.0606 -1.6499
 6726SOL    HW231108   5.743   0.598   3.900  1.7506  2.5299 -1.3926
 6727SOL     OW31109   6.262   0.310   1.206  0.3612  0.3191  0.4241
 6727SOL    HW131110   6.187   0.298   1.142  0.9523  0.4193 -0.2997
 6727SOL    HW231111   6.243   0.261   1.291  0.3875 -1.3379 -0.5088
 6728SOL     OW31112   1.233   7.787   2.839  0.0668 -0.2850  0.0064
 6728SOL    HW131113   1.318   7.772   2.789  0.8419  0.0574  1.2002
 6728SOL    HW231114   1.158   7.739   2.794  1.0120 -1.0934 -0.7011
 6729SOL     OW31115   0.693   5.096   2.956  0.5900 -0.1391 -0.1711
 6729SOL    HW131116   0.678   5.193   2.939  1.7863  0.1306  0.2297
 6729SOL    HW231117   0.735   5.054   2.875  1.2568 -0.0319  0.1099
 6730SOL     OW31118   0.381   5.108   0.683  0.6593  0.2677 -0.0671
 6730SOL    HW131119   0.317   5.138   0.611  0.7968 -0.2900 -0.4241
 6730SOL    HW231120   0.448   5.180   0.700 -0.5126  1.1539  0.8345
 6731SOL     OW31121   2.440   4.738   3.336 -0.2681 -0.2429 -0.4077
 6731SOL    HW131122   2.522   4.713   3.285 -1.4844 -1.6706 -1.7339
 6731SOL    HW231123   2.385   4.800   3.280 -0.5153  0.0012  0.1104
 6732SOL     OW31124   4.759   4.565   1.291  0.0973 -0.0965 -0.1290
 6732SOL    HW131125   4.681   4.627   1.287  0.1852  0.0742  0.7752
 6732SOL    HW231126   4.746   4.499   1.365  0.1952 -0.9063 -0.8206
 6733SOL     OW31127   3.869   2.085   3.357 -0.2093 -0.5006  0.2845
 6733SOL    HW131128   3.844   2.077   3.261  0.9625 -1.4218  0.0433
 6733SOL    HW231129   3.968   2.085   3.366 -0.3113 -1.1354  1.5497
 6734SOL     OW31130   1.203   9.872   2.022  0.0913  0.4700 -1.2635
 6734SOL    HW131131   1.279   9.937   2.015  0.6792 -0.0229  0.2408
 6734SOL    HW231132   1.239   9.782   2.047 -0.9449  0.1084 -1.0527
 6735SOL     OW31133   3.182   4.927   2.601 -0.2935  0.3756  0.1773
 6735SOL    HW131134   3.157   4.961   2.510 -1.9682 -1.9002 -0.2500
 6735SOL    HW231135   3.244   4.848   2.591 -1.1352 -0.3974  0.9669
 6736SOL     OW31136   7.111   0.156   1.270  0.2768  0.5692  0.6204
 6736SOL    HW131137   7.128   0.079   1.332 -1.1160 -0.0823  0.2196
 6736SOL    HW231138   7.183   0.158   1.200  1.0312  0.4172  1.3775
 6737SOL     OW31139   4.462   1.251   3.034 -0.4130 -0.3010  0.5849
 6737SOL    HW131140   4.475   1.171   3.092 -1.0576 -0.5216  0.4273
 6737SOL    HW231141   4.551   1.294   3.017 -0.1645 -0.5117  1.3312
 6738SOL     OW31142   0.888   7.964   1.521  0.1185  0.1251 -0.0156
 6738SOL    HW131143   0.933   8.053   1.518  1.6391 -0.6583 -0.9669
 6738SOL    HW231144   0.851   7.949   1.613  0.1194  1.5910  0.2415
 6739SOL     OW31145   8.585   4.372   2.006 -0.1535  0.2760  0.4271
 6739SOL    HW131146   8.568   4.470   2.019  0.6299  0.3935  0.5764
 6739SOL    HW231147   8.634   4.358   1.920 -0.9631 -0.0562  0.0172
 6740SOL     OW31148   2.733   7.337   2.967 -0.5807  0.5599  0.2446
 6740SOL    HW131149   2.780   7.249   2.962 -2.5253 -0.3845 -2.8148
 6740SOL    HW231150   2.792   7.409   2.931 -0.0597  0.0393  0.0551
 6741SOL     OW31151   3.880   2.114   3.090 -0.0950 -0.1086  0.4972
 6741SOL    HW131152   3.954   2.049   3.073  0.8553  0.8494  0.9589
 6741SOL    HW231153   3.818   2.115   3.012  1.2846  0.2919 -0.6141
 6742SOL     OW31154   8.439   4.642   3.967  0.0705 -0.3444 -0.3068
 6742SOL    HW131155   8.380   4.573   4.009  1.1633 -1.7725 -1.0562
 6742SOL    HW231156   8.494   4.599   3.895  2.5761  0.7900  0.8878
 6743SOL     OW31157   5.859   7.947   1.827  0.3266 -0.8253 -0.4569
 6743SOL    HW131158   5.791   7.877   1.847  1.8385 -2.2588 -0.1594
 6743SOL    HW231159   5.857   8.018   1.898 -0.1826 -1.3636  0.0670
 6744SOL     OW31160   7.752   9.299   5.206  0.1507 -0.2374 -0.4913
 6744SOL    HW131161   7.747   9.216   5.260  0.6581 -0.5409 -0.9105
 6744SOL    HW231162   7.758   9.276   5.109 -1.9191  0.3086 -0.7796
 6745SOL     OW31163   9.459   9.071   3.332 -0.2403 -0.2571 -0.1122
 6745SOL    HW131164   9.383   9.011   3.308 -0.3714 -0.5105  0.9334
 6745SOL    HW231165   9.447   9.105   3.425  0.6277  0.1536 -0.1473
 6746SOL     OW31166   0.031   0.925   5.381  0.1870 -0.0990  0.2477
 6746SOL    HW131167  -0.037   0.978   5.431  1.9622  1.0839  1.4603
 6746SOL    HW231168   0.026   0.946   5.283  0.0998  1.4325  0.5843
 6747SOL     OW31169   2.079   5.217   1.600  0.2016  0.0903  0.5921
 6747SOL    HW131170   2.068   5.122   1.630 -0.2867 -0.6169 -1.7276
 6747SOL    HW231171   2.176   5.237   1.586  0.3091 -0.0498  1.1378
 6748SOL     OW31172   7.182   9.225   3.777 -0.6880 -0.2274 -0.0590
 6748SOL    HW131173   7.167   9.152   3.843 -0.7469 -0.2365 -0.0836
 6748SOL    HW231174   7.126   9.304   3.801 -1.6081 -0.6473 -0.7553
 6749SOL     OW31175   8.748   7.802   3.212  0.0974  0.1905 -0.1343
 6749SOL    HW131176   8.847   7.806   3.196  0.5424 -2.2054  1.7349
 6749SOL    HW231177   8.725   7.856   3.292 -0.0807  0.5034 -0.3933
 6750SOL     OW31178   1.323   4.098   4.829 -0.3381 -0.0131  0.1633
 6750SOL    HW131179   1.392   4.029   4.809 -0.3271 -0.0061  0.1765
 6750SOL    HW231180   1.244   4.054   4.872 -0.0892  0.0675  0.7143
 6751SOL     OW31181   7.457   9.388   5.164 -0.1489  0.7798  0.0454
 6751SOL    HW131182   7.383   9.455   5.163  0.0581  1.0132 -0.9013
 6751SOL    HW231183   7.514   9.401   5.082 -0.9088 -1.4391 -0.8702
 6752SOL     OW31184   8.411   7.900   3.442  0.1111 -0.1655  0.2167
 6752SOL    HW131185   8.381   7.843   3.365 -1.0840 -0.5993  1.0024
 6752SOL    HW231186   8.511   7.895   3.449  0.0392 -2.0928  0.2058
 6753SOL     OW31187   0.265   7.733   2.171 -0.9527 -0.1922  0.8496
 6753SOL    HW131188   0.260   7.643   2.215  0.2259 -0.3330  0.7090
 6753SOL    HW231189   0.291   7.802   2.239  1.6702 -0.5383  0.2203
 6754SOL     OW31190   1.582   3.699   5.261 -0.2511 -0.6393  0.8076
 6754SOL    HW131191   1.646   3.684   5.186 -0.6549  0.5726  0.2087
 6754SOL    HW231192   1.488   3.687   5.229 -0.4750  0.9444  0.8397
 6755SOL     OW31193   8.791   4.808   0.478 -0.0736 -0.0974  0.2381
 6755SOL    HW131194   8.754   4.900   0.465  1.0162  0.4267  0.7751
 6755SOL    HW231195   8.773   4.753   0.397  2.7501  1.7962 -1.7984
 6756SOL     OW31196   4.994   3.372   1.773  0.1513  0.6570  0.8004
 6756SOL    HW131197   5.086   3.403   1.796  1.0542 -0.9281 -0.5477
 6756SOL    HW231198   4.930   3.401   1.844  1.5658  2.3831  1.3999
 6757SOL     OW31199   9.326   3.640   5.448  0.2658  0.5089 -0.1094
 6757SOL    HW131200   9.378   3.589   5.379 -1.3911 -0.7229 -0.4745
 6757SOL    HW231201   9.381   3.717   5.480  2.0740 -0.4136 -0.9118
 6758SOL     OW31202   1.501   2.981   5.311  0.9150  0.0870 -0.0319
 6758SOL    HW131203   1.416   2.974   5.259  0.7450  0.3001  0.2182
 6758SOL    HW231204   1.570   3.028   5.256  1.7169 -2.4559 -1.2955
 6759SOL     OW31205   7.645   1.537   2.861 -0.1907 -0.2976 -0.4944
 6759SOL    HW131206   7.582   1.482   2.806  0.4952  0.2806 -1.8860
 6759SOL    HW231207   7.598   1.619   2.894 -1.4403 -2.0457  2.2304
 6760SOL     OW31208   6.694   8.339   3.763 -0.0615  0.6819 -0.0148
 6760SOL    HW131209   6.742   8.390   3.835  0.6875  0.3590 -0.2893
 6760SOL    HW231210   6.595   8.350   3.776  0.0797  3.6170 -1.0500
 6761SOL     OW31211   1.657   8.389   1.012  0.4024  0.4706  0.1173
 6761SOL    HW131212   1.719   8.341   0.950  1.1579  0.7145  0.6809
 6761SOL    HW231213   1.693   8.386   1.105 -1.3325 -0.9697  0.7829
 6762SOL     OW31214   2.405   4.376   1.953  0.0908 -0.3661 -0.8005
 6762SOL    HW131215   2.454   4.457   1.918  0.8681 -0.5762 -0.1990
 6762SOL    HW231216   2.471   4.313   1.993 -0.6992 -0.6018  0.1112
 6763SOL     OW31217   2.204   7.085   1.968  0.4183  0.1090  0.6664
 6763SOL    HW131218   2.221   7.160   2.032  0.9056 -2.0027  3.0633
 6763SOL    HW231219   2.105   7.071   1.960  0.2507  2.0858 -1.1160
 6764SOL     OW31220   3.254   7.183   4.709 -0.1877 -0.1812  0.1014
 6764SOL    HW131221   3.336   7.186   4.766 -0.4074 -2.5369  0.5870
 6764SOL    HW231222   3.244   7.270   4.660  1.3391  0.9566  1.7639
 6765SOL     OW31223   1.612   7.181   3.073  0.0605 -0.1418 -0.4135
 6765SOL    HW131224   1.634   7.276   3.095  0.1409  0.0095 -1.1230
 6765SOL    HW231225   1.522   7.177   3.030 -0.0160 -0.4103 -0.2313
 6766SOL     OW31226   7.615   4.555   0.420 -0.4546 -0.1566 -0.0189
 6766SOL    HW131227   7.688   4.623   0.415  0.6246 -1.3611 -0.8443
 6766SOL    HW231228   7.618   4.510   0.509 -0.1181 -0.2834 -0.0937
 6767SOL     OW31229   8.132   7.608   3.113 -0.0373  0.6101 -0.0751
 6767SOL    HW131230   8.053   7.656   3.075 -0.4994  0.1282  0.2560
 6767SOL    HW231231   8.106   7.566   3.201  0.9271  1.4644  0.6286
 6768SOL     OW31232   0.260   9.961   1.392 -0.0360 -0.4328 -0.0127
 6768SOL    HW131233   0.215  10.038   1.438 -1.2431 -0.0441 -1.7662
 6768SOL    HW231234   0.191   9.894   1.365  0.6864 -0.8542 -0.8510
 6769SOL     OW31235   4.678   1.574   0.554 -0.4944 -0.2981  0.0373
 6769SOL    HW131236   4.655   1.637   0.628 -1.6350 -0.1621 -0.4211
 6769SOL    HW231237   4.748   1.510   0.585 -1.3701 -0.6032  1.4179
 6770SOL     OW31238   2.212   6.971   3.098  0.1598  0.1521  0.8262
 6770SOL    HW131239   2.119   6.951   3.129 -0.5164  2.4822  0.3827
 6770SOL    HW231240   2.209   7.040   3.026  2.1196 -1.0885 -0.5073
 6771SOL     OW31241   9.362   5.404   4.615 -0.1729 -0.4546  0.0646
 6771SOL    HW131242   9.356   5.445   4.524 -0.8137  0.4710  0.5151
 6771SOL    HW231243   9.296   5.330   4.623  0.0360 -0.6808 -0.2975
 6772SOL     OW31244   3.069   2.142   3.590  0.4171  0.1356  0.1011
 6772SOL    HW131245   3.131   2.084   3.643 -0.9510 -1.1209  0.3738
 6772SOL    HW231246   3.032   2.090   3.513 -0.6998  0.6828  0.2530
 6773SOL     OW31247   9.609   8.602   0.255 -0.3665 -0.3568 -0.3547
 6773SOL    HW131248   9.554   8.586   0.338 -0.6965 -0.2864 -0.5579
 6773SOL    HW231249   9.639   8.514   0.218  0.1389 -0.3701  0.0754
 6774SOL     OW31250   8.685   3.682   0.447 -0.3626 -0.4829  0.1677
 6774SOL    HW131251   8.624   3.635   0.510 -1.4816  1.8414  0.8638
 6774SOL    HW231252   8.709   3.772   0.483  0.9942 -0.1007 -1.5598
 6775SOL     OW31253   6.442   0.824   4.381 -0.3890 -0.2535 -0.4719
 6775SOL    HW131254   6.485   0.744   4.423 -1.1919 -0.6807 -0.4678
 6775SOL    HW231255   6.477   0.907   4.425  0.1794 -0.6128 -0.2387
 6776SOL     OW31256   3.134   1.609   5.626  0.4906  0.3221  0.0164
 6776SOL    HW131257   3.171   1.528   5.671 -0.5087  0.5303  1.2543
 6776SOL    HW231258   3.180   1.691   5.662  1.8005  0.2900 -1.5410
 6777SOL     OW31259   0.282   0.754   2.615  0.0990  0.3192  0.3104
 6777SOL    HW131260   0.317   0.671   2.572  0.6817  1.3092 -1.1565
 6777SOL    HW231261   0.323   0.765   2.705  0.7512 -0.4727  0.1117
 6778SOL     OW31262   2.644   4.468   1.496 -0.0647 -0.0807 -0.0121
 6778SOL    HW131263   2.563   4.427   1.456 -1.4785 -1.0608  3.6778
 6778SOL    HW231264   2.667   4.422   1.582  1.8078  2.9937  1.2459
 6779SOL     OW31265   3.548   0.420   0.673  0.4184  0.2100  0.3049
 6779SOL    HW131266   3.497   0.469   0.602  1.3158  0.2882 -0.2843
 6779SOL    HW231267   3.512   0.327   0.681 -1.5183  1.0443  1.6639
 6780SOL     OW31268   8.971   2.784   0.603  0.5651  0.0151 -0.0394
 6780SOL    HW131269   8.905   2.858   0.620 -0.2320 -0.3360 -1.5020
 6780SOL    HW231270   9.019   2.762   0.687 -0.5666  0.8931  0.8505
 6781SOL     OW31271   1.810   3.690   3.194  0.2684 -0.0732 -0.0380
 6781SOL    HW131272   1.773   3.780   3.175 -0.4997 -0.2671  0.5496
 6781SOL    HW231273   1.910   3.696   3.200  0.4394  0.2839 -2.5184
 6782SOL     OW31274   2.761   3.429   3.586  0.5970 -0.7609  0.3015
 6782SOL    HW131275   2.780   3.452   3.491  0.0571 -3.3073 -0.4730
 6782SOL    HW231276   2.662   3.430   3.602  0.8106  3.3926  1.8880
 6783SOL     OW31277   9.712   4.620   4.155  0.4646 -0.2669 -0.4489
 6783SOL    HW131278   9.796   4.657   4.115 -0.8576 -0.4134 -3.4318
 6783SOL    HW231279   9.690   4.671   4.238  2.4842  0.9805 -0.6327
 6784SOL     OW31280   8.307   1.214   2.488  0.1717  0.1585 -0.2236
 6784SOL    HW131281   8.324   1.205   2.390 -0.2615  0.7112 -0.3484
 6784SOL    HW231282   8.278   1.126   2.525  1.4896 -0.3500 -0.3575
 6785SOL     OW31283   2.931   6.755   0.422 -0.0696  0.7391  0.0033
 6785SOL    HW131284   2.873   6.692   0.474  1.5882  0.2923  1.3404
 6785SOL    HW231285   2.900   6.757   0.326 -1.6311 -0.2605  0.4626
 6786SOL     OW31286   0.394   0.890   3.765 -0.3632  0.1657  0.1260
 6786SOL    HW131287   0.430   0.917   3.854 -0.3370 -2.8035  1.0662
 6786SOL    HW231288   0.463   0.836   3.716 -2.1241 -2.4146  0.3992
 6787SOL     OW31289   1.287   3.386   5.009  0.3980  0.4676  0.5261
 6787SOL    HW131290   1.296   3.412   4.913 -0.8467  0.5938  0.4347
 6787SOL    HW231291   1.289   3.467   5.067  1.6672  0.3543  0.6591
 6788SOL     OW31292   3.051   5.046   3.738 -0.0321 -0.0770  0.8050
 6788SOL    HW131293   2.986   4.985   3.784 -1.1802  0.5067 -0.0464
 6788SOL    HW231294   3.036   5.043   3.640 -0.4549  2.0062  0.8016
 6789SOL     OW31295   7.365   4.213   0.753  0.4673  0.6038  0.4324
 6789SOL    HW131296   7.407   4.165   0.831 -0.9199 -2.3661 -0.5651
 6789SOL    HW231297   7.385   4.163   0.669 -0.7988  1.9643 -0.7028
 6790SOL     OW31298   7.368   6.233   2.614 -0.3680  0.1496  0.7275
 6790SOL    HW131299   7.289   6.228   2.553  0.0806 -0.9180  0.2159
 6790SOL    HW231300   7.421   6.315   2.593  0.9273 -1.2693 -1.7819
 6791SOL     OW31301   1.182   6.327   4.491 -0.0939 -0.0336 -0.1013
 6791SOL    HW131302   1.198   6.426   4.490 -0.6618  0.0524 -2.0613
 6791SOL    HW231303   1.121   6.304   4.567  0.9745  0.9619  1.0804
 6792SOL     OW31304   1.296   5.706   3.616  0.1444  0.3232 -0.4983
 6792SOL    HW131305   1.377   5.733   3.565  0.7923 -2.2865 -0.8950
 6792SOL    HW231306   1.230   5.781   3.616  1.0768  1.1788 -3.2039
 6793SOL     OW31307   3.405   3.182   0.098 -0.6448 -0.0704 -0.0381
 6793SOL    HW131308   3.399   3.254   0.167 -0.3574 -0.0110 -0.0730
 6793SOL    HW231309   3.321   3.128   0.098 -0.4066 -0.4421  0.7572
 6794SOL     OW31310   9.277   6.689   3.980 -0.2347 -0.3309 -0.1475
 6794SOL    HW131311   9.360   6.741   4.002  1.0578 -2.1401 -0.6283
 6794SOL    HW231312   9.290   6.593   4.007 -1.4889 -1.0025 -1.8605
 6795SOL     OW31313   9.985   4.661   4.884 -0.3911 -0.2060  0.2226
 6795SOL    HW131314   9.943   4.625   4.801  1.3314 -0.6215 -0.5019
 6795SOL    HW231315  10.027   4.750   4.863  2.8674 -1.7663 -0.2374
 6796SOL     OW31316   4.493   4.798   5.516 -0.0512  0.0144 -0.7648
 6796SOL    HW131317   4.570   4.834   5.568 -0.4320 -2.7952  1.8418
 6796SOL    HW231318   4.418   4.777   5.578 -0.7902 -2.7416 -2.5175
 6797SOL     OW31319   4.546   5.069   1.583  0.0094  0.1130 -0.5072
 6797SOL    HW131320   4.535   5.117   1.670 -0.1154 -0.6377 -0.0999
 6797SOL    HW231321   4.592   5.128   1.517 -2.8067  1.8963 -0.9638
 6798SOL     OW31322   9.901   0.303   0.541  0.0037  0.1202  0.3003
 6798SOL    HW131323   9.999   0.315   0.553 -0.0277  0.2630  0.4045
 6798SOL    HW231324   9.854   0.320   0.627 -0.0005 -1.2458  0.5766
 6799SOL     OW31325   1.648   8.503   0.323  0.2366  0.0666  0.2871
 6799SOL    HW131326   1.717   8.477   0.256  0.7740 -2.3802  1.7401
 6799SOL    HW231327   1.569   8.443   0.315 -1.1069  1.8800 -0.3286
 6800SOL     OW31328   2.069   3.963   5.540 -0.2550 -0.0917 -0.5972
 6800SOL    HW131329   1.972   3.973   5.516 -0.7606 -2.3866  0.3509
 6800SOL    HW231330   2.096   3.867   5.530  1.2236  0.0524  1.6373
 6801SOL     OW31331   2.165   9.414   4.365  0.2430  0.0556 -0.2283
 6801SOL    HW131332   2.136   9.326   4.328 -0.0759 -0.5126  1.3312
 6801SOL    HW231333   2.264   9.414   4.377  0.1758 -0.3426  0.3757
 6802SOL     OW31334   2.101   9.220   0.834 -0.2207  0.1090 -0.7344
 6802SOL    HW131335   2.002   9.227   0.836 -0.3629 -1.5810  2.6910
 6802SOL    HW231336   2.141   9.312   0.828 -1.9919  1.0528  1.2700
 6803SOL     OW31337   8.015   1.223   5.558 -1.0383 -0.2497  0.3961
 6803SOL    HW131338   7.945   1.292   5.539 -0.4628 -0.2401 -1.8375
 6803SOL    HW231339   8.090   1.233   5.493  1.9447  0.8812  3.8561
 6804SOL     OW31340   1.737   8.021   1.775 -0.5969 -0.5521 -0.1023
 6804SOL    HW131341   1.759   7.988   1.867 -2.6495  1.1222  1.0270
 6804SOL    HW231342   1.659   8.083   1.779 -1.6302 -1.5360 -3.1842
 6805SOL     OW31343   5.038   1.263   5.179 -0.0981 -0.1544  0.2263
 6805SOL    HW131344   4.987   1.194   5.230 -2.5579  1.0137 -0.5823
 6805SOL    HW231345   5.009   1.354   5.209  1.2830  0.5449 -0.5069
 6806SOL     OW31346   1.807   5.068   3.030  0.0188  0.3437  0.6497
 6806SOL    HW131347   1.868   4.994   2.999 -0.4290  0.6354 -0.9704
 6806SOL    HW231348   1.837   5.100   3.120  1.0082 -0.9186  0.7921
 6807SOL     OW31349   1.527   4.876   3.465 -0.1756  0.8592  0.3891
 6807SOL    HW131350   1.535   4.965   3.510 -0.6223  1.2508 -0.2914
 6807SOL    HW231351   1.618   4.838   3.450  0.0785  1.8173 -0.5078
 6808SOL     OW31352   4.011   4.296   1.142 -0.3437 -0.0832  0.1252
 6808SOL    HW131353   4.004   4.206   1.185 -1.4689  0.1980  0.5542
 6808SOL    HW231354   4.103   4.334   1.156  0.2904 -1.3760 -0.4925
 6809SOL     OW31355   7.843   4.049   5.144  0.0295 -0.1844  0.0478
 6809SOL    HW131356   7.765   4.037   5.082 -1.1593  0.1340  1.4545
 6809SOL    HW231357   7.810   4.078   5.234  1.8739  1.1747  0.3131
 6810SOL     OW31358   2.592   8.179   1.250 -0.4082 -0.6337  0.4355
 6810SOL    HW131359   2.647   8.210   1.173 -0.5826  1.7498  1.2178
 6810SOL    HW231360   2.526   8.111   1.219 -1.2881  1.1824 -1.7481
 6811SOL     OW31361   2.530   5.303   3.511 -0.0511  0.3622 -0.9265
 6811SOL    HW131362   2.526   5.204   3.526 -1.6612  0.4163 -0.9308
 6811SOL    HW231363   2.517   5.323   3.414  0.7704  0.5572 -1.0006
 6812SOL     OW31364   1.451   8.112   3.618  0.0049  0.0972  0.3735
 6812SOL    HW131365   1.487   8.107   3.524  3.0744  1.7449  1.3924
 6812SOL    HW231366   1.415   8.204   3.634 -0.3606 -0.1349  0.8613
 6813SOL     OW31367   8.359   3.867   1.035  0.6889  0.4623 -0.0105
 6813SOL    HW131368   8.315   3.956   1.045  0.5309  0.1966  1.9110
 6813SOL    HW231369   8.458   3.878   1.031  0.7658  0.6444  1.8283
 6814SOL     OW31370   6.061   0.669   2.570  0.4689  0.1924 -0.2659
 6814SOL    HW131371   6.144   0.614   2.559  0.1699 -0.0952 -1.1135
 6814SOL    HW231372   6.086   0.761   2.599  0.9967 -0.2649  0.7879
 6815SOL     OW31373   5.709   0.892   1.780 -0.4633  0.3419 -0.6485
 6815SOL    HW131374   5.753   0.811   1.742  0.2897  1.1237 -1.4782
 6815SOL    HW231375   5.701   0.962   1.708  1.8702  2.2198  0.8285
 6816SOL     OW31376   2.064   9.644   4.210  0.2126  0.6351  0.3028
 6816SOL    HW131377   1.965   9.654   4.221  0.0427 -1.9507  1.4543
 6816SOL    HW231378   2.092   9.554   4.243  2.5865  0.3222 -2.3844
 6817SOL     OW31379   8.577   4.502   3.767  0.6381 -0.2005  0.4615
 6817SOL    HW131380   8.593   4.429   3.701 -0.6361 -0.2636  0.1959
 6817SOL    HW231381   8.596   4.591   3.725 -1.2935 -0.1613 -0.3978
 6818SOL     OW31382   7.825   0.174   0.350 -0.1384  0.1154  0.1186
 6818SOL    HW131383   7.740   0.191   0.399 -0.1617  0.3266  0.0051
 6818SOL    HW231384   7.879   0.258   0.346 -0.8923  0.5338 -1.6934
 6819SOL     OW31385   8.450   5.194   3.167 -0.3405 -0.5010  0.3072
 6819SOL    HW131386   8.423   5.134   3.091  0.4952 -0.5265  0.0281
 6819SOL    HW231387   8.473   5.138   3.247 -3.1146 -0.4090  1.2205
 6820SOL     OW31388   8.442   6.577   4.109 -0.0265 -0.3992 -0.0545
 6820SOL    HW131389   8.482   6.667   4.125 -0.5068 -0.2579  0.3391
 6820SOL    HW231390   8.367   6.561   4.173  0.7788 -1.5339  0.6460
 6821SOL     OW31391   5.646   7.445   1.534 -0.4448  0.2746  0.8392
 6821SOL    HW131392   5.580   7.520   1.519  0.0712  0.4828 -0.4708
 6821SOL    HW231393   5.739   7.479   1.520 -0.2379 -0.7536 -0.3710
 6822SOL     OW31394   2.494   6.105   0.872  0.0865 -0.1840  0.3309
 6822SOL    HW131395   2.470   6.015   0.838  0.9467 -0.3465  0.1557
 6822SOL    HW231396   2.547   6.155   0.803  1.1956 -0.2425  1.1166
 6823SOL     OW31397   1.155   0.721   5.327 -0.2495  0.2423  0.2742
 6823SOL    HW131398   1.206   0.635   5.322 -0.1050  0.2850  0.9347
 6823SOL    HW231399   1.089   0.715   5.402 -1.1985  0.1940 -0.5660
 6824SOL     OW31400   7.775   3.519   0.364  0.2314 -0.3217  0.2742
 6824SOL    HW131401   7.691   3.491   0.411 -0.0052  0.1142  0.1115
 6824SOL    HW231402   7.847   3.535   0.432 -0.6903  2.3515  0.6958
 6825SOL     OW31403   2.141   8.467   0.555 -0.0800 -0.5562 -0.1113
 6825SOL    HW131404   2.046   8.469   0.586  0.7888 -1.2311  2.8282
 6825SOL    HW231405   2.164   8.553   0.510 -1.7500  0.0588  0.1701
 6826SOL     OW31406   5.532   0.529   1.384  0.1638  0.1673  0.5840
 6826SOL    HW131407   5.549   0.561   1.478 -0.2323 -1.2869  1.1610
 6826SOL    HW231408   5.475   0.596   1.336  1.4057  1.5322  0.9672
 6827SOL     OW31409   9.390   8.311   1.898  0.0424 -0.1487  0.4487
 6827SOL    HW131410   9.373   8.238   1.832 -0.7051 -0.0192  0.4994
 6827SOL    HW231411   9.348   8.288   1.986  0.1584  0.1493  0.5851
 6828SOL     OW31412   1.271   1.262   3.857 -0.2325  0.4958  0.7401
 6828SOL    HW131413   1.273   1.166   3.826 -0.9675  0.7911 -0.2627
 6828SOL    HW231414   1.215   1.315   3.794  0.3331  1.6313  1.1948
 6829SOL     OW31415   7.939   0.857   2.528  0.6904  0.1426  0.0330
 6829SOL    HW131416   7.963   0.866   2.431  0.9036 -0.2089  0.0530
 6829SOL    HW231417   7.945   0.947   2.572  2.5116 -0.0354  0.1647
 6830SOL     OW31418   3.061   5.465   0.278  0.3392 -0.1966 -0.0715
 6830SOL    HW131419   3.059   5.478   0.378 -0.2947  0.8345 -0.2015
 6830SOL    HW231420   3.030   5.550   0.234  2.6809  0.0974 -1.2160
 6831SOL     OW31421   2.289   4.891   3.548  0.3988  0.6533 -0.0052
 6831SOL    HW131422   2.307   4.807   3.497  0.6407  1.0114 -0.5016
 6831SOL    HW231423   2.192   4.914   3.541  0.5360  1.0118 -0.7721
 6832SOL     OW31424   7.383   8.199   3.497 -0.0926  0.1157 -0.0139
 6832SOL    HW131425   7.295   8.195   3.546 -0.5655 -2.5034 -0.9827
 6832SOL    HW231426   7.422   8.290   3.507 -3.8409  1.9476 -1.1828
 6833SOL     OW31427   8.490   8.057   4.125 -0.1287  0.2087 -0.5389
 6833SOL    HW131428   8.467   8.067   4.222  0.8698 -1.6260 -0.0864
 6833SOL    HW231429   8.423   7.996   4.082  0.4326 -0.3849 -0.5847
 6834SOL     OW31430   9.794   7.549   4.839 -0.1423  0.1809 -0.0799
 6834SOL    HW131431   9.712   7.514   4.885  1.8714 -1.0693  2.6648
 6834SOL    HW231432   9.768   7.586   4.750 -3.9409  1.2259  1.3387
 6835SOL     OW31433   2.217   1.805   0.059  0.5204  0.1821  0.2517
 6835SOL    HW131434   2.220   1.797  -0.041  1.8680  0.1911  0.2773
 6835SOL    HW231435   2.149   1.742   0.095  0.8557 -0.6822 -0.5964
 6836SOL     OW31436   0.340   0.212   2.658  0.1438 -0.4436 -0.8967
 6836SOL    HW131437   0.347   0.264   2.743  0.3066 -1.2107 -0.4276
 6836SOL    HW231438   0.327   0.115   2.680 -1.0788 -0.4803 -1.7581
 6837SOL     OW31439   3.464   2.638   2.760 -0.0701  0.3362  0.3547
 6837SOL    HW131440   3.510   2.559   2.721 -0.2970  0.9356 -1.1382
 6837SOL    HW231441   3.386   2.607   2.815 -1.0912 -0.4036 -1.4814
 6838SOL     OW31442   8.376   1.199   0.413 -0.3455  0.4849 -0.0795
 6838SOL    HW131443   8.278   1.203   0.396 -0.3254 -0.9486 -0.5608
 6838SOL    HW231444   8.410   1.107   0.393  1.2755  1.2488 -0.9161
 6839SOL     OW31445   2.802   5.729   5.361  0.5685  0.2668 -0.4036
 6839SOL    HW131446   2.823   5.674   5.442  0.2246  1.3461  0.4298
 6839SOL    HW231447   2.887   5.749   5.312  0.9127  0.4262  0.2403
 6840SOL     OW31448   2.998   0.616   1.071  0.4354 -0.1074 -0.1658
 6840SOL    HW131449   2.998   0.633   0.972 -0.0959 -0.3991 -0.2154
 6840SOL    HW231450   3.086   0.644   1.109  0.8209 -0.4419 -0.8005
 6841SOL     OW31451   1.748   0.173   1.004 -0.3658 -0.5279 -0.4803
 6841SOL    HW131452   1.797   0.212   0.926 -0.5285  0.6679 -0.0100
 6841SOL    HW231453   1.713   0.248   1.061 -1.5597 -1.3859 -0.0867
 6842SOL     OW31454   1.619   0.222   3.335 -0.3977 -0.2461 -0.0084
 6842SOL    HW131455   1.662   0.204   3.424 -0.1669 -1.6125 -0.3981
 6842SOL    HW231456   1.677   0.186   3.262 -2.2181 -2.1818 -0.5497
 6843SOL     OW31457   6.310   9.129   4.233  0.2931  0.2793 -0.0185
 6843SOL    HW131458   6.325   9.139   4.332  1.5536  0.5357 -0.2272
 6843SOL    HW231459   6.385   9.173   4.183  0.6406 -1.4302 -1.0726
 6844SOL     OW31460   8.807   8.783   4.585 -0.9549 -0.1431  0.0305
 6844SOL    HW131461   8.871   8.716   4.622 -1.5533  0.0658  1.4872
 6844SOL    HW231462   8.735   8.801   4.653 -1.4937  1.0359 -0.8404
 6845SOL     OW31463   4.467   1.893   5.150  0.6000 -0.0610  0.3345
 6845SOL    HW131464   4.498   1.814   5.202 -4.1393 -1.1276  1.7718
 6845SOL    HW231465   4.476   1.976   5.205  0.1228 -0.4950  1.0748
 6846SOL     OW31466   1.140   0.595   4.237  0.9933 -0.5872 -0.1697
 6846SOL    HW131467   1.120   0.682   4.193  1.8837 -0.5263 -0.4752
 6846SOL    HW231468   1.080   0.524   4.200 -1.2061  0.3021  1.6119
 6847SOL     OW31469   4.083   7.940   5.485 -0.0230 -0.3419 -0.2956
 6847SOL    HW131470   4.148   7.968   5.556 -0.1466  2.2884 -1.1484
 6847SOL    HW231471   4.109   7.850   5.450  0.9853 -0.9523  1.9191
 6848SOL     OW31472   9.234   8.200   0.719  0.3758 -0.1184  0.2542
 6848SOL    HW131473   9.198   8.155   0.801  0.2987 -0.4726  0.0234
 6848SOL    HW231474   9.161   8.209   0.651  0.2782  0.7469  0.4635
 6849SOL     OW31475   3.490   2.045   2.294 -0.2210 -0.4692  0.0971
 6849SOL    HW131476   3.454   2.099   2.217 -0.3093 -0.0853  0.4060
 6849SOL    HW231477   3.489   2.101   2.377 -2.2440 -1.6308  0.8657
 6850SOL     OW31478   9.096   6.692   3.252  0.4788  0.4902  0.0385
 6850SOL    HW131479   9.072   6.788   3.241 -1.1781  0.1148  0.2606
 6850SOL    HW231480   9.145   6.679   3.339 -2.6709  0.5409  1.8709
 6851SOL     OW31481   9.001   4.174   0.595 -0.3713 -0.1976 -0.0625
 6851SOL    HW131482   9.026   4.271   0.594  0.5747 -0.4237  0.8353
 6851SOL    HW231483   8.995   4.142   0.689 -0.4468 -1.0703 -0.3630
 6852SOL     OW31484   3.043   3.730   5.346  0.2695  0.5863  0.4302
 6852SOL    HW131485   3.016   3.638   5.374 -1.0632  1.0759  0.7944
 6852SOL    HW231486   3.123   3.758   5.399 -0.2251  0.2025  1.4091
 6853SOL     OW31487   4.027   5.360   1.891 -0.1232  0.3706  0.3685
 6853SOL    HW131488   4.097   5.291   1.907 -1.3853 -1.3846 -1.4184
 6853SOL    HW231489   3.953   5.350   1.957 -0.8222 -0.7109 -0.5686
 6854SOL     OW31490   1.582   6.733   2.513  0.5804 -0.3151 -0.2909
 6854SOL    HW131491   1.506   6.667   2.510  0.9564 -0.7017 -1.5796
 6854SOL    HW231492   1.570   6.801   2.441  1.2798 -0.1739 -0.2771
 6855SOL     OW31493   3.412   8.389   1.689  0.4320  0.8580 -0.0737
 6855SOL    HW131494   3.395   8.463   1.624 -2.5628  0.9962  0.7860
 6855SOL    HW231495   3.325   8.358   1.729  1.7402 -2.2083  0.6094
 6856SOL     OW31496   2.799   3.152   4.066  0.5878 -0.2343  0.3175
 6856SOL    HW131497   2.771   3.219   3.998 -0.6122 -0.9410  0.0985
 6856SOL    HW231498   2.733   3.077   4.068  0.6607 -0.2655  2.2046
 6857SOL     OW31499   8.194   1.217   2.995 -0.3511 -0.1466 -0.8811
 6857SOL    HW131500   8.271   1.229   2.931 -0.6785  0.6489 -1.1339
 6857SOL    HW231501   8.210   1.272   3.077  0.4498 -1.7826  0.0898
 6858SOL     OW31502   5.772   7.617   2.923 -0.3892  0.1821 -0.4996
 6858SOL    HW131503   5.761   7.584   2.829  2.1313 -1.8800 -0.1185
 6858SOL    HW231504   5.861   7.589   2.958 -1.2263  1.0664  2.4889
 6859SOL     OW31505   8.069   9.529   2.344  0.2105 -0.5222 -0.2737
 6859SOL    HW131506   8.100   9.578   2.425  1.4477  0.1746 -1.1416
 6859SOL    HW231507   8.023   9.593   2.282  1.0258 -0.6165 -1.0010
 6860SOL     OW31508   6.976   4.025   0.059 -0.0044  0.0599  0.0330
 6860SOL    HW131509   6.889   4.075   0.053 -0.7611 -1.2954 -0.5301
 6860SOL    HW231510   6.964   3.945   0.118  0.6955 -0.4481 -0.5048
 6861SOL     OW31511   6.270   7.648   3.371  0.2089  0.1862  0.7377
 6861SOL    HW131512   6.343   7.626   3.435 -0.8748  0.3483  2.0524
 6861SOL    HW231513   6.239   7.742   3.385 -1.5339 -0.4699  1.5153
 6862SOL     OW31514   6.625   8.563   2.097 -0.2363  0.5155 -0.4717
 6862SOL    HW131515   6.622   8.646   2.153  0.1155  0.9888 -1.1553
 6862SOL    HW231516   6.669   8.490   2.149  0.6878  1.1415 -0.3737
 6863SOL     OW31517   8.241   4.812   2.594  0.9890 -0.3313  0.4420
 6863SOL    HW131518   8.164   4.875   2.600  2.1312  1.0470  0.8706
 6863SOL    HW231519   8.267   4.799   2.498  2.4256  1.9502  0.4871
 6864SOL     OW31520   8.657   8.685   3.377 -0.3273  0.3719  0.0156
 6864SOL    HW131521   8.606   8.677   3.463  1.4507 -2.3523  0.8873
 6864SOL    HW231522   8.672   8.594   3.338  0.5483  1.4213 -2.1843
 6865SOL     OW31523   2.426   6.259   2.366 -0.2744 -0.1369  0.2603
 6865SOL    HW131524   2.517   6.300   2.372 -0.7723  0.8998  0.8456
 6865SOL    HW231525   2.416   6.213   2.278  0.6313  0.1956 -0.0240
 6866SOL     OW31526   7.183   7.252   3.038  0.1144  0.4074 -0.0429
 6866SOL    HW131527   7.141   7.210   2.957 -2.8446  0.9334  1.1389
 6866SOL    HW231528   7.120   7.243   3.115  3.0556 -0.4364  2.3179
 6867SOL     OW31529   6.019   0.374   2.162  0.7378 -0.4985 -0.4863
 6867SOL    HW131530   6.062   0.355   2.250 -0.3215  0.1073  0.1799
 6867SOL    HW231531   5.981   0.467   2.163  0.8433 -0.4370 -1.6318
 6868SOL     OW31532   3.819   1.158   2.633 -0.3136 -0.1385  0.2477
 6868SOL    HW131533   3.880   1.093   2.677 -0.6833 -0.8460 -0.2685
 6868SOL    HW231534   3.773   1.113   2.556 -0.3497  0.8162 -0.2917
 6869SOL     OW31535   4.629   2.359   3.612  0.1912  0.1302  0.2827
 6869SOL    HW131536   4.629   2.379   3.710  0.8618  2.4864 -0.1841
 6869SOL    HW231537   4.609   2.442   3.560 -0.3006 -1.1193 -1.5959
 6870SOL     OW31538   8.163   2.295   1.861 -0.5778 -0.4487 -0.1220
 6870SOL    HW131539   8.172   2.292   1.961  0.7457 -1.4548 -0.2557
 6870SOL    HW231540   8.157   2.390   1.831  0.7681 -0.0694  0.7837
 6871SOL     OW31541   0.777   0.141   3.258  0.2029 -0.2184 -0.4388
 6871SOL    HW131542   0.790   0.236   3.287 -0.4141 -0.9944  2.6387
 6871SOL    HW231543   0.702   0.101   3.311 -0.0404 -2.2190 -2.2346
 6872SOL     OW31544   0.645   4.258   0.826 -0.4699 -0.1791  0.0370
 6872SOL    HW131545   0.668   4.349   0.793 -1.1422  0.5265  1.4793
 6872SOL    HW231546   0.617   4.263   0.921  0.0837 -1.9884  0.3220
 6873SOL     OW31547   9.901   3.520   1.050  0.0496 -0.1146 -0.2192
 6873SOL    HW131548   9.830   3.583   1.082  0.1988 -0.6344  1.1730
 6873SOL    HW231549   9.968   3.570   0.995  0.1141  0.9433  0.7831
 6874SOL     OW31550   3.766   2.384   2.084  0.1732  0.3775  0.5896
 6874SOL    HW131551   3.839   2.444   2.050  0.3337 -0.0180  0.2327
 6874SOL    HW231552   3.742   2.318   2.013 -1.2775  1.1930  0.3128
 6875SOL     OW31553   8.939   8.774   0.438  0.1940 -0.2044 -0.1540
 6875SOL    HW131554   8.850   8.768   0.394 -0.3939  1.8780  0.6598
 6875SOL    HW231555   8.958   8.870   0.461  2.5693 -0.6406 -0.1655
 6876SOL     OW31556   4.099   0.144   5.037  0.0366  0.0377  0.4153
 6876SOL    HW131557   4.113   0.073   5.106  1.4295 -0.8436 -0.7478
 6876SOL    HW231558   4.028   0.115   4.973  0.3919 -0.1930  0.1190
 6877SOL     OW31559   9.091   3.945   3.463  0.0432 -0.1728 -0.4400
 6877SOL    HW131560   9.062   3.856   3.429 -0.5400  0.7490 -2.4586
 6877SOL    HW231561   9.180   3.969   3.424 -0.0159  0.3238 -0.2783
 6878SOL     OW31562   3.374   0.165   2.396  0.0862 -0.0291  0.0584
 6878SOL    HW131563   3.348   0.252   2.439  0.0408  0.0060 -0.0385
 6878SOL    HW231564   3.330   0.089   2.444 -0.1380  0.0252 -0.0614
 6879SOL     OW31565   2.913   8.873   1.918 -0.4765  0.0066 -0.3762
 6879SOL    HW131566   2.976   8.808   1.961 -0.4573 -1.9447 -3.1915
 6879SOL    HW231567   2.966   8.941   1.867 -0.5422  1.2684  1.2257
 6880SOL     OW31568   2.719   0.649   4.383  0.3709 -0.4589 -0.2535
 6880SOL    HW131569   2.637   0.596   4.366  0.5007 -0.8011  0.1625
 6880SOL    HW231570   2.694   0.743   4.407  0.1178 -0.4781 -0.4474
 6881SOL     OW31571   0.932   3.431   2.519  0.2518  0.5068  0.2227
 6881SOL    HW131572   1.009   3.463   2.463  2.1301 -1.1811  1.7729
 6881SOL    HW231573   0.900   3.343   2.485 -1.4162  1.4543 -0.7574
 6882SOL     OW31574   2.649   8.219   0.616  0.4613  0.0560  0.4131
 6882SOL    HW131575   2.700   8.193   0.534 -0.0468 -0.5071  0.2708
 6882SOL    HW231576   2.700   8.188   0.697  0.6279  0.0007  0.2885
 6883SOL     OW31577   3.741   0.842   4.977  0.0341 -0.2892  0.1992
 6883SOL    HW131578   3.714   0.796   4.893 -0.2517 -0.5744  0.4465
 6883SOL    HW231579   3.666   0.899   5.010 -0.3903 -1.3088  1.0427
 6884SOL     OW31580   8.123   8.823   0.741 -0.1902  0.6141  0.1974
 6884SOL    HW131581   8.157   8.775   0.660 -0.2596 -2.3683  1.8668
 6884SOL    HW231582   8.197   8.875   0.783  0.2029  0.9822 -0.9485
 6885SOL     OW31583   9.214   5.754   4.383  0.6818 -0.4215  0.3971
 6885SOL    HW131584   9.273   5.767   4.463  0.8708  1.3951 -0.0153
 6885SOL    HW231585   9.200   5.841   4.337 -1.1551 -1.0827 -0.3578
 6886SOL     OW31586   8.694   3.071   1.125 -0.1788  0.0747  0.2728
 6886SOL    HW131587   8.765   3.140   1.138 -0.0154  0.0054 -0.2422
 6886SOL    HW231588   8.731   2.981   1.151 -0.8143  0.3638  2.2378
 6887SOL     OW31589   0.577   4.269   2.590 -0.6367  0.1935  0.2065
 6887SOL    HW131590   0.574   4.173   2.617  2.3726 -0.5392 -1.8456
 6887SOL    HW231591   0.516   4.284   2.512 -1.5175  0.0858  0.8687
 6888SOL     OW31592   0.238   4.375   1.642  0.7784 -0.4992  0.6349
 6888SOL    HW131593   0.220   4.288   1.595 -0.6687  0.9430 -1.5388
 6888SOL    HW231594   0.334   4.378   1.670  1.2711 -2.0760 -0.7790
 6889SOL     OW31595   4.147   3.469   3.617 -0.2870  0.0454  0.0675
 6889SOL    HW131596   4.114   3.383   3.580 -1.4979 -0.3579  2.0103
 6889SOL    HW231597   4.078   3.508   3.678  1.5728  0.7246  1.8092
 6890SOL     OW31598   8.909   8.241   3.580 -0.3196  0.1058 -0.0017
 6890SOL    HW131599   8.810   8.241   3.598 -0.4284  0.5508 -0.5842
 6890SOL    HW231600   8.934   8.158   3.532 -0.0859 -0.9428  1.8721
 6891SOL     OW31601   1.984   2.426   1.271 -0.0760  0.0588 -0.4270
 6891SOL    HW131602   2.015   2.368   1.196 -1.3469  0.1930 -1.0699
 6891SOL    HW231603   2.063   2.455   1.326  0.5443 -2.3590 -0.0181
 6892SOL     OW31604   8.274   7.633   3.589  0.5484 -0.2276  0.1776
 6892SOL    HW131605   8.327   7.563   3.542 -0.4218  0.4877 -2.0514
 6892SOL    HW231606   8.335   7.705   3.621  1.2250 -0.7220  0.0149
 6893SOL     OW31607   6.478   9.186   1.154 -0.3533  0.1100 -0.0944
 6893SOL    HW131608   6.473   9.088   1.174 -1.5650  0.2355  0.2516
 6893SOL    HW231609   6.455   9.202   1.058 -0.4502  0.0806 -0.0765
 6894SOL     OW31610   5.410   0.288   4.433 -0.4280 -0.3527  0.1434
 6894SOL    HW131611   5.310   0.292   4.434 -0.4474 -0.6932 -0.4327
 6894SOL    HW231612   5.439   0.193   4.448 -0.1589  0.0095  2.0514
 6895SOL     OW31613   8.256   0.808   5.054 -0.3585  0.5013  0.0772
 6895SOL    HW131614   8.249   0.906   5.034  0.2363  1.0830  2.4783
 6895SOL    HW231615   8.350   0.778   5.038 -0.5924  0.2772 -0.8707
 6896SOL     OW31616   9.655   5.044   3.023  0.1315 -0.4624  0.8311
 6896SOL    HW131617   9.714   5.078   3.096  0.6943  1.0990 -0.3267
 6896SOL    HW231618   9.573   5.004   3.063  1.2070 -1.1794  2.3861
 6897SOL     OW31619   5.287   1.265   4.528  0.4406  0.1927  0.4328
 6897SOL    HW131620   5.322   1.324   4.601  0.6255  1.4527 -0.6629
 6897SOL    HW231621   5.187   1.269   4.527  0.4004 -0.3771  1.0451
 6898SOL     OW31622   4.186   2.095   4.801  0.4621 -0.1743  0.4557
 6898SOL    HW131623   4.199   2.176   4.858  0.3211 -0.6522  1.1751
 6898SOL    HW231624   4.264   2.032   4.812  0.7501  0.0221 -0.3798
 6899SOL     OW31625   5.074   2.927   0.114 -0.2392 -0.0581  0.2162
 6899SOL    HW131626   5.006   2.952   0.046  0.7429  3.7664  0.5194
 6899SOL    HW231627   5.166   2.946   0.078  0.5679 -2.7118  0.7736
 6900SOL     OW31628   9.633   8.215   4.695 -0.0945 -0.3862 -0.0664
 6900SOL    HW131629   9.686   8.282   4.747  1.5764 -1.0578 -0.8904
 6900SOL    HW231630   9.536   8.229   4.714  0.3000  1.4161  0.7911
 6901SOL     OW31631   9.423   9.453   0.461 -0.3508  0.0344  0.4798
 6901SOL    HW131632   9.476   9.374   0.430 -0.3239  0.5187 -0.7362
 6901SOL    HW231633   9.480   9.511   0.520  0.0332 -0.1830  0.3185
 6902SOL     OW31634   8.603   0.921   3.714  0.1412 -0.3134 -0.4122
 6902SOL    HW131635   8.598   0.939   3.616 -1.1914 -1.7135 -0.6170
 6902SOL    HW231636   8.513   0.893   3.748  0.7455 -0.5131  1.0754
 6903SOL     OW31637   1.139   9.164   4.741 -0.4626 -0.2447 -0.2808
 6903SOL    HW131638   1.114   9.178   4.645  0.6604  1.0336 -0.4009
 6903SOL    HW231639   1.176   9.072   4.753 -2.3585 -1.0759 -0.6960
 6904SOL     OW31640   0.632   1.022   0.238 -0.2773  0.0362 -0.3605
 6904SOL    HW131641   0.583   1.015   0.152  1.3175  0.3195 -1.3162
 6904SOL    HW231642   0.620   1.113   0.277 -2.9990 -0.8543  0.9710
 6905SOL     OW31643   1.464   1.922   3.271 -0.1744  0.2328 -0.0482
 6905SOL    HW131644   1.479   2.010   3.225 -0.4648  1.3282  1.8965
 6905SOL    HW231645   1.389   1.932   3.336  0.1411 -1.3382  0.5564
 6906SOL     OW31646   9.587   7.922   3.590 -0.0275  0.7400  0.1354
 6906SOL    HW131647   9.683   7.908   3.614  0.6290  1.0106 -2.1822
 6906SOL    HW231648   9.570   8.020   3.582 -0.4886  0.6857  0.4471
 6907SOL     OW31649   3.725   8.572   4.191 -0.3791  0.1979 -0.0681
 6907SOL    HW131650   3.675   8.529   4.116  0.4393  1.5911 -1.4088
 6907SOL    HW231651   3.685   8.662   4.210 -1.6619 -0.8113  2.2999
 6908SOL     OW31652   7.022   9.869   1.855 -0.0750 -0.3517  0.3081
 6908SOL    HW131653   6.936   9.856   1.807  0.1859 -1.4469  0.1307
 6908SOL    HW231654   7.007   9.926   1.936 -0.5701  1.2126 -0.8698
 6909SOL     OW31655   2.712   2.463   0.659  0.2260 -0.3912 -0.1169
 6909SOL    HW131656   2.656   2.524   0.717  1.1827 -0.6209  1.0727
 6909SOL    HW231657   2.652   2.398   0.612 -0.5274 -0.6492  1.1637
 6910SOL     OW31658   9.011   0.995   0.880 -0.1888 -0.1502 -0.1562
 6910SOL    HW131659   9.054   0.915   0.922  0.0354  0.3794  0.6362
 6910SOL    HW231660   8.935   1.025   0.936 -0.7959 -0.3011 -0.8874
 6911SOL     OW31661   3.542   7.496   4.512  0.2921 -0.0935  0.0013
 6911SOL    HW131662   3.494   7.559   4.451  2.2989  0.8817 -0.6215
 6911SOL    HW231663   3.635   7.484   4.480  1.1311 -0.2549  2.3830
 6912SOL     OW31664   2.553   6.326   1.865  0.0645 -0.3999  0.2326
 6912SOL    HW131665   2.575   6.374   1.950 -2.5189  0.9865  0.1746
 6912SOL    HW231666   2.483   6.377   1.816 -1.9221 -3.6297 -0.4293
 6913SOL     OW31667   2.537   6.129   5.014 -0.8279  0.4215  0.2878
 6913SOL    HW131668   2.547   6.127   5.113 -0.3162  0.2105  0.2336
 6913SOL    HW231669   2.551   6.223   4.981 -2.5352  0.7833  0.5645
 6914SOL     OW31670   4.027   9.291   1.444 -0.0173 -0.0222 -0.1700
 6914SOL    HW131671   3.975   9.244   1.515  0.2357  1.1980  0.8529
 6914SOL    HW231672   4.119   9.253   1.438 -0.1271 -0.3100 -0.0305
 6915SOL     OW31673   3.222   6.508   1.885  0.2690 -0.6837 -0.1864
 6915SOL    HW131674   3.280   6.572   1.834 -1.7612  1.5286  0.2087
 6915SOL    HW231675   3.192   6.434   1.824 -0.1009  0.5712 -1.5512
 6916SOL     OW31676   4.724   5.874   1.432 -0.2720  0.1386  1.0041
 6916SOL    HW131677   4.769   5.935   1.497 -0.1172 -0.5365  1.5454
 6916SOL    HW231678   4.775   5.874   1.346  0.0969  0.2771  1.2211
 6917SOL     OW31679   1.468   9.243   3.050 -0.0917 -0.5921 -0.0312
 6917SOL    HW131680   1.404   9.204   3.116 -0.2355  0.5877  0.5430
 6917SOL    HW231681   1.509   9.326   3.088  0.6019 -0.4690 -1.0183
 6918SOL     OW31682   8.199   9.953   1.057  0.4248 -0.8854  0.2327
 6918SOL    HW131683   8.125   9.949   0.991 -0.3105 -1.1487  1.0642
 6918SOL    HW231684   8.179   9.892   1.134  1.1306 -0.3627  0.8428
 6919SOL     OW31685   9.158   5.360   5.334 -0.4643  0.2466 -0.3389
 6919SOL    HW131686   9.192   5.285   5.277 -0.0584 -0.3711  0.6959
 6919SOL    HW231687   9.165   5.446   5.285 -0.6601 -0.3572 -1.4368
 6920SOL     OW31688   1.653   1.120   2.171 -0.1661  0.0376  0.3524
 6920SOL    HW131689   1.566   1.165   2.153 -0.1142 -0.6023 -1.6889
 6920SOL    HW231690   1.715   1.184   2.217 -1.7293  0.4589  1.9139
 6921SOL     OW31691   0.659   1.202   4.380 -0.0344  0.0942 -0.3964
 6921SOL    HW131692   0.697   1.236   4.467 -1.2931 -0.4563  0.3770
 6921SOL    HW231693   0.566   1.170   4.395  1.0090 -3.5368 -1.1256
 6922SOL     OW31694   8.900   2.726   1.440 -0.6351 -0.1015 -0.1531
 6922SOL    HW131695   8.955   2.775   1.508 -1.7807  2.9415 -1.3221
 6922SOL    HW231696   8.953   2.715   1.356 -0.7686  0.1741 -0.2743
 6923SOL     OW31697   3.539   2.896   0.371 -0.0147  0.5142  0.5472
 6923SOL    HW131698   3.486   2.920   0.452 -0.9001 -0.8193  0.3801
 6923SOL    HW231699   3.560   2.799   0.373  0.3349  0.5585 -0.6054
 6924SOL     OW31700   8.315   6.898   5.043 -0.5736 -0.7365 -0.3688
 6924SOL    HW131701   8.250   6.874   5.115 -2.1393  1.3806 -1.0183
 6924SOL    HW231702   8.354   6.988   5.063  0.7558 -1.1593 -0.9849
 6925SOL     OW31703   5.438   8.743   3.703 -0.4470 -0.7465  0.1561
 6925SOL    HW131704   5.416   8.646   3.710  0.7086 -1.1100 -0.9933
 6925SOL    HW231705   5.395   8.781   3.622 -0.3373 -0.4625  0.2316
 6926SOL     OW31706   2.583   7.017   2.766 -0.5821  0.3886 -0.4028
 6926SOL    HW131707   2.618   6.949   2.831 -0.1702  0.4841 -0.5204
 6926SOL    HW231708   2.525   6.971   2.698 -0.7716  0.2429 -0.1455
 6927SOL     OW31709   0.812   8.944   4.626  0.4195 -0.3032 -0.2018
 6927SOL    HW131710   0.716   8.922   4.647  0.4228 -1.6770 -1.5197
 6927SOL    HW231711   0.853   8.992   4.703 -0.8850 -1.0959  1.0111
 6928SOL     OW31712   2.321   2.041   3.513 -0.1868  0.2522 -0.4399
 6928SOL    HW131713   2.381   2.115   3.484  0.6196  0.0168  0.6033
 6928SOL    HW231714   2.375   1.958   3.528 -0.8329 -0.0835  0.0523
 6929SOL     OW31715   2.013   8.882   2.966  0.4664 -0.2195 -0.5313
 6929SOL    HW131716   1.933   8.913   2.914  0.9780 -0.0807 -1.2489
 6929SOL    HW231717   2.071   8.961   2.988  0.6432 -0.3825 -0.4155
 6930SOL     OW31718   3.062   1.815   0.947 -0.0589  0.1068 -0.2384
 6930SOL    HW131719   3.075   1.844   1.042 -0.4295  0.8393 -0.4101
 6930SOL    HW231720   3.135   1.752   0.921 -0.1161 -0.3275  0.6232
 6931SOL     OW31721   5.976   3.814   0.195 -0.2846 -0.2309 -0.2495
 6931SOL    HW131722   5.981   3.716   0.177 -1.6136 -0.1609 -1.1249
 6931SOL    HW231723   6.046   3.862   0.142 -0.8656 -0.5381 -1.3125
 6932SOL     OW31724   6.753   3.803   5.496  0.1562  0.3450 -0.1937
 6932SOL    HW131725   6.759   3.864   5.576 -0.7691 -0.1388  0.2561
 6932SOL    HW231726   6.660   3.808   5.458  0.4970  0.3162 -1.0359
 6933SOL     OW31727   1.756   2.626   1.286 -0.7076 -0.2186 -0.0319
 6933SOL    HW131728   1.856   2.615   1.289 -0.5387  0.9834 -0.5628
 6933SOL    HW231729   1.734   2.723   1.294 -2.0420 -0.7710  3.9625
 6934SOL     OW31730   9.187   5.526   2.727 -0.0031 -0.5893 -0.0617
 6934SOL    HW131731   9.280   5.522   2.764 -0.1093 -0.4764  0.2142
 6934SOL    HW231732   9.146   5.435   2.733  0.5043 -0.9090 -1.2447
 6935SOL     OW31733   9.326   8.057   0.355 -0.3485  0.3578  0.3447
 6935SOL    HW131734   9.289   8.128   0.295  1.8319  1.0126 -0.2840
 6935SOL    HW231735   9.276   7.972   0.342  1.3860 -0.1152 -4.0159
 6936SOL     OW31736   7.409   0.418   1.734 -0.0495  0.0086  0.3418
 6936SOL    HW131737   7.339   0.372   1.680 -0.1973 -0.7842  1.1963
 6936SOL    HW231738   7.368   0.495   1.783  0.3671  1.6264 -1.7506
 6937SOL     OW31739   9.193   3.613   2.001 -0.3381  0.4895 -0.1709
 6937SOL    HW131740   9.133   3.534   1.996 -1.1616  1.1021 -0.1898
 6937SOL    HW231741   9.204   3.654   1.911  0.5961  0.0331 -0.2737
 6938SOL     OW31742   9.815   2.199   2.530 -0.0875 -0.0644 -0.1490
 6938SOL    HW131743   9.835   2.252   2.447  0.0114  1.5767  0.9095
 6938SOL    HW231744   9.892   2.139   2.550 -0.3183 -0.8360 -1.5316
 6939SOL     OW31745   9.561   7.654   3.634 -0.2418 -0.4325  0.3748
 6939SOL    HW131746   9.577   7.752   3.622  0.8324 -0.5708  0.6697
 6939SOL    HW231747   9.648   7.606   3.642 -0.7549 -1.4358  0.0919
 6940SOL     OW31748   1.230   2.127   0.044  1.1669 -0.4373  0.0624
 6940SOL    HW131749   1.152   2.128   0.106  1.1039 -1.3021  0.0141
 6940SOL    HW231750   1.236   2.037   0.001  2.5495 -0.5802  0.5234
 6941SOL     OW31751   9.947   9.342   5.427 -0.2965 -0.0126 -0.1665
 6941SOL    HW131752   9.947   9.297   5.516  0.4288  0.5233  0.1053
 6941SOL    HW231753  10.014   9.417   5.427 -0.6456  0.3052 -0.9969
 6942SOL     OW31754   0.575   6.780   1.037 -0.5998 -0.0743  0.0244
 6942SOL    HW131755   0.659   6.738   1.004  0.0704 -1.2071  2.9417
 6942SOL    HW231756   0.564   6.870   0.996  1.6130 -0.2442 -1.0220
 6943SOL     OW31757   4.556   7.764   3.229  0.6156  0.5253  0.3983
 6943SOL    HW131758   4.484   7.758   3.297  1.1191 -1.0659  0.8090
 6943SOL    HW231759   4.644   7.774   3.274  0.8397  0.5794 -0.0485
 6944SOL     OW31760   2.214   2.440   0.591 -0.5546 -0.5506 -0.2508
 6944SOL    HW131761   2.212   2.347   0.555  0.2041  0.0309 -1.8586
 6944SOL    HW231762   2.138   2.492   0.552 -0.1689 -0.1286 -0.4547
 6945SOL     OW31763   9.019   0.138   1.566 -0.3560 -0.8037 -0.4138
 6945SOL    HW131764   9.024   0.064   1.633 -0.0216 -1.5786 -1.2769
 6945SOL    HW231765   9.004   0.100   1.475  0.7354  0.1147 -1.0038
 6946SOL     OW31766   2.991   7.422   3.439 -0.2422 -0.1250  0.4193
 6946SOL    HW131767   2.919   7.482   3.476 -1.0740 -0.2563 -0.9647
 6946SOL    HW231768   2.967   7.394   3.347  2.2456  0.8892 -0.5720
 6947SOL     OW31769   3.919   9.174   3.750  0.0257  0.1563  0.0279
 6947SOL    HW131770   3.879   9.112   3.684 -1.0031  1.4464 -0.5766
 6947SOL    HW231771   3.874   9.162   3.839  0.3461 -0.4719  0.1127
 6948SOL     OW31772   3.098   0.938   4.390 -0.1620 -0.6530 -0.1917
 6948SOL    HW131773   3.042   0.872   4.339  1.5649  0.0802 -3.1201
 6948SOL    HW231774   3.068   1.031   4.369 -0.3676 -0.3715  1.2820
 6949SOL     OW31775   3.258   0.197   4.805 -0.0098  0.3163  0.0543
 6949SOL    HW131776   3.206   0.218   4.888 -0.1324 -2.1080  0.6405
 6949SOL    HW231777   3.355   0.218   4.820 -0.4321  2.5811 -0.2126
 6950SOL     OW31778   8.841   8.860   1.923  0.0215 -0.0299 -0.0372
 6950SOL    HW131779   8.898   8.910   1.989 -0.3995  0.2737  0.1023
 6950SOL    HW231780   8.767   8.814   1.972  0.1946 -0.4847 -0.2087
 6951SOL     OW31781   1.617   7.409   4.711 -0.1079  0.2482 -0.4503
 6951SOL    HW131782   1.687   7.480   4.709  0.2227 -0.1123 -2.2540
 6951SOL    HW231783   1.527   7.452   4.722  0.2253  0.8159  0.1553
 6952SOL     OW31784   0.548   1.132   4.826  0.0111 -0.1813 -0.2349
 6952SOL    HW131785   0.555   1.060   4.895 -0.1102  0.0464  0.0117
 6952SOL    HW231786   0.543   1.221   4.870 -1.1324 -0.1091 -0.5094
 6953SOL     OW31787   3.702   0.207   2.930 -0.0007 -0.2583 -0.0915
 6953SOL    HW131788   3.638   0.252   2.869  1.2087  2.1333  0.3583
 6953SOL    HW231789   3.708   0.257   3.016  0.9322 -1.6004  0.6558
 6954SOL     OW31790   8.670   1.188   4.687  0.2952 -0.2123  0.0627
 6954SOL    HW131791   8.712   1.146   4.767  2.3100  0.6668 -0.4977
 6954SOL    HW231792   8.678   1.288   4.694 -3.6757  0.1370  0.9858
 6955SOL     OW31793   8.853   9.678   4.946 -0.3691  0.3787  0.4251
 6955SOL    HW131794   8.760   9.645   4.933  0.2616 -1.3077  0.0399
 6955SOL    HW231795   8.893   9.702   4.858 -0.9795  2.6259  0.7537
 6956SOL     OW31796   9.447   9.797   3.598 -0.8869 -0.4601 -0.4067
 6956SOL    HW131797   9.442   9.711   3.547  0.1129 -0.7053 -0.0999
 6956SOL    HW231798   9.497   9.865   3.544 -0.1622 -0.6026  0.0820
 6957SOL     OW31799   1.007   8.219   1.786 -0.1515 -0.0825  0.3475
 6957SOL    HW131800   1.028   8.311   1.819 -0.1256  0.6110 -1.5377
 6957SOL    HW231801   1.013   8.154   1.862  2.9262  0.9808  1.1020
 6958SOL     OW31802   1.134   7.191   3.326 -0.2759  0.6798 -0.1158
 6958SOL    HW131803   1.139   7.101   3.284  0.2389 -0.5020  2.3438
 6958SOL    HW231804   1.218   7.208   3.379 -0.5557  2.4035 -0.1754
 6959SOL     OW31805   0.827   3.177   4.737  0.2296  0.1468  0.4440
 6959SOL    HW131806   0.880   3.259   4.758  1.4236 -0.1426 -1.3033
 6959SOL    HW231807   0.885   3.096   4.748 -0.3458 -0.3089  0.1581
 6960SOL     OW31808   2.598   9.286   0.144  0.3921 -0.1076  0.1112
 6960SOL    HW131809   2.536   9.209   0.161 -1.2730  0.8985 -1.2543
 6960SOL    HW231810   2.693   9.254   0.152 -0.2684 -2.0244  0.7293
 6961SOL     OW31811   0.671   1.098   3.449  0.5074  0.3590  0.0539
 6961SOL    HW131812   0.625   1.092   3.537  1.3679 -0.1836  0.4780
 6961SOL    HW231813   0.685   1.194   3.425  0.5580  0.5078  0.6718
 6962SOL     OW31814   1.570   1.288   0.375  0.1815  0.4968 -0.2203
 6962SOL    HW131815   1.580   1.306   0.277  0.5881  1.1327 -0.0647
 6962SOL    HW231816   1.504   1.353   0.414 -1.3432 -0.8958 -0.4050
 6963SOL     OW31817   2.637   4.205   3.795 -0.3329 -0.1659  0.2554
 6963SOL    HW131818   2.594   4.277   3.741  2.1137  1.7390  0.7502
 6963SOL    HW231819   2.684   4.246   3.873 -1.3158 -2.6048  2.1950
 6964SOL     OW31820   8.183   0.771   0.176  0.3583 -0.2696  0.7491
 6964SOL    HW131821   8.179   0.860   0.132 -3.4416 -1.0392 -0.6406
 6964SOL    HW231822   8.114   0.766   0.249 -0.1649 -2.3503  0.1670
 6965SOL     OW31823   9.457   4.780   5.164  0.0922 -0.5647  0.0391
 6965SOL    HW131824   9.374   4.798   5.217 -0.0538 -1.0753 -0.0080
 6965SOL    HW231825   9.442   4.806   5.069 -0.2872 -1.3809 -0.1305
 6966SOL     OW31826   3.368   6.773   4.212  0.2650 -0.1782 -0.3323
 6966SOL    HW131827   3.273   6.746   4.226 -0.3975  0.7614 -2.6970
 6966SOL    HW231828   3.371   6.860   4.163  2.3286 -1.2778 -2.2902
 6967SOL     OW31829   2.941   5.460   0.641 -0.2658 -0.3077  0.2948
 6967SOL    HW131830   2.904   5.367   0.630 -0.8516 -0.0254 -0.1555
 6967SOL    HW231831   2.866   5.526   0.635 -0.2558  0.0423  3.3316
 6968SOL     OW31832   2.780   3.736   2.297 -0.2969  0.0489  0.4686
 6968SOL    HW131833   2.703   3.762   2.239  0.4837 -0.6602 -0.9102
 6968SOL    HW231834   2.858   3.796   2.278  0.1820 -0.6257  0.2829
 6969SOL     OW31835   0.326   4.780   3.980  0.1684 -0.4401 -0.5468
 6969SOL    HW131836   0.392   4.708   4.004  1.4413 -0.2160 -3.1701
 6969SOL    HW231837   0.341   4.808   3.885 -1.4499  2.0952 -0.0899
 6970SOL     OW31838   8.363   3.825   0.546 -0.0831 -0.4382  0.1753
 6970SOL    HW131839   8.386   3.915   0.581 -1.0747 -0.4422  0.8679
 6970SOL    HW231840   8.294   3.833   0.474 -0.5718 -0.6690  0.6096
 6971SOL     OW31841   4.258   8.697   0.113  0.7103  0.4400  0.0787
 6971SOL    HW131842   4.316   8.671   0.036  1.0537  0.5052  0.3109
 6971SOL    HW231843   4.192   8.766   0.083  0.7895  0.4063 -0.1769
 6972SOL     OW31844   5.393   8.536   2.095 -0.3454 -0.6427 -0.0608
 6972SOL    HW131845   5.375   8.621   2.146 -1.6414 -0.0898 -1.3749
 6972SOL    HW231846   5.389   8.458   2.157  0.1645  0.2014  1.0436
 6973SOL     OW31847   1.506   1.960   3.588 -0.0489 -0.1631  0.4302
 6973SOL    HW131848   1.587   1.982   3.533 -0.3650  0.1988  0.1072
 6973SOL    HW231849   1.488   1.862   3.582  1.6396 -0.6146  2.2577
 6974SOL     OW31850   8.904   9.533   4.082 -0.0929 -0.2095 -0.3483
 6974SOL    HW131851   8.951   9.556   4.168  0.2019 -0.0999 -0.5393
 6974SOL    HW231852   8.826   9.474   4.102 -0.2001  0.0594  0.0285
 6975SOL     OW31853   1.172   7.244   2.405  0.4166  0.3458  0.6413
 6975SOL    HW131854   1.143   7.148   2.410  1.5542  0.0311  1.3386
 6975SOL    HW231855   1.172   7.274   2.310  0.1411 -0.3776  0.4075
 6976SOL     OW31856   4.578   8.187   2.391 -0.6416  0.9348 -0.0522
 6976SOL    HW131857   4.664   8.204   2.343  0.1589  0.7575  1.3216
 6976SOL    HW231858   4.508   8.251   2.357 -0.3415  0.2113 -2.0975
 6977SOL     OW31859   0.333   1.286   5.178 -0.0367  0.2452  0.1301
 6977SOL    HW131860   0.287   1.276   5.266 -1.4894 -0.5708 -0.7132
 6977SOL    HW231861   0.272   1.332   5.113  1.7035  2.5752  0.0693
 6978SOL     OW31862   4.665   3.276   5.308  0.3902 -0.4173  0.0027
 6978SOL    HW131863   4.627   3.314   5.224 -1.4289 -1.3508  0.3675
 6978SOL    HW231864   4.591   3.241   5.365  1.6995 -0.9301  1.4319
 6979SOL     OW31865   0.051   6.166   5.619 -0.0965  0.1496 -0.1726
 6979SOL    HW131866   0.145   6.153   5.590 -0.0953 -1.5933  0.5282
 6979SOL    HW231867  -0.004   6.199   5.543  0.8197 -0.1076 -0.9470
 6980SOL     OW31868   3.982   8.993   0.338  0.8502  0.1030  0.1774
 6980SOL    HW131869   3.918   8.916   0.330  1.8902 -0.8078  0.5466
 6980SOL    HW231870   3.950   9.056   0.408 -0.2378  0.2315 -0.4274
 6981SOL     OW31871   8.681   9.531   4.581  0.2438 -0.3320  0.5858
 6981SOL    HW131872   8.705   9.463   4.650  1.6799 -0.5861 -0.1350
 6981SOL    HW231873   8.705   9.495   4.490  2.4195  1.7267  0.3123
 6982SOL     OW31874   4.859   2.930   1.069 -0.4521  0.3847 -0.4226
 6982SOL    HW131875   4.884   2.868   0.995  1.1124 -1.7599  1.8342
 6982SOL    HW231876   4.940   2.977   1.103 -1.0127  0.6801  0.5287
 6983SOL     OW31877   4.847   8.228   3.957 -0.0607  0.2320 -0.1142
 6983SOL    HW131878   4.919   8.206   4.022  1.3846  1.1968 -1.3599
 6983SOL    HW231879   4.790   8.302   3.993 -0.3005 -0.3700  0.7612
 6984SOL     OW31880   9.381   9.284   3.804  0.0260  0.1239 -0.0394
 6984SOL    HW131881   9.434   9.364   3.833  0.4589 -0.2591  0.2403
 6984SOL    HW231882   9.349   9.235   3.885 -1.8192  1.0297 -0.1795
 6985SOL     OW31883   8.419   4.507   2.290 -0.7128  0.0236  0.1330
 6985SOL    HW131884   8.434   4.573   2.216  0.7677 -2.1561 -1.5699
 6985SOL    HW231885   8.450   4.547   2.377  1.2914  1.1253 -1.0541
 6986SOL     OW31886   1.864   0.331   3.752 -0.2611 -0.4259  0.3646
 6986SOL    HW131887   1.961   0.346   3.767 -0.1470 -0.6764 -0.1171
 6986SOL    HW231888   1.812   0.361   3.833  0.1555  0.3971  0.3278
 6987SOL     OW31889   2.036   4.239   4.677 -0.1886  0.4570 -0.4660
 6987SOL    HW131890   2.077   4.328   4.697 -0.0485  0.4164 -0.5748
 6987SOL    HW231891   2.010   4.235   4.580 -1.5469  0.9307 -0.1292
 6988SOL     OW31892   4.677   9.785   0.762  0.0984  0.2089  0.0803
 6988SOL    HW131893   4.642   9.731   0.838 -0.4912 -0.5584 -0.7222
 6988SOL    HW231894   4.777   9.785   0.764  0.1504 -2.2786 -0.8392
 6989SOL     OW31895   0.283   7.641   1.277  0.0181 -0.3120 -0.0081
 6989SOL    HW131896   0.322   7.719   1.227  0.0927 -0.4875 -0.2249
 6989SOL    HW231897   0.219   7.593   1.217 -1.0769  0.3974  0.5735
 6990SOL     OW31898   9.172   3.592   1.475 -0.6216  0.1841  0.0682
 6990SOL    HW131899   9.204   3.516   1.531 -2.3306 -1.9228 -1.6928
 6990SOL    HW231900   9.246   3.624   1.416 -0.4889 -1.6653 -0.8070
 6991SOL     OW31901   6.761   8.773   2.245  0.2991  0.0914 -0.0153
 6991SOL    HW131902   6.831   8.836   2.279 -1.3452  2.3400 -0.6452
 6991SOL    HW231903   6.732   8.713   2.319  0.7955  1.1225  1.0458
 6992SOL     OW31904   8.502   4.232   5.306  0.7538  0.1317  0.5192
 6992SOL    HW131905   8.512   4.321   5.349 -1.8445  1.7049 -1.9690
 6992SOL    HW231906   8.446   4.173   5.364 -0.9603  1.5353  0.3454
 6993SOL     OW31907   9.662   3.851   0.542  0.2895  0.0372  0.1512
 6993SOL    HW131908   9.691   3.774   0.598 -1.9746 -0.5054  0.5848
 6993SOL    HW231909   9.691   3.937   0.587  0.4457 -0.4588  1.0169
 6994SOL     OW31910   0.991   1.048   2.161  0.4705 -0.6713 -0.1349
 6994SOL    HW131911   0.937   0.968   2.134 -0.3028 -0.0264 -0.5306
 6994SOL    HW231912   0.930   1.119   2.197  1.1086 -0.1209 -0.1160
 6995SOL     OW31913   8.008   0.559   1.408  0.1167 -0.0622  0.7364
 6995SOL    HW131914   8.011   0.587   1.312  0.3082 -3.0537 -0.1709
 6995SOL    HW231915   7.944   0.483   1.419  0.6947 -0.2719  2.8405
 6996SOL     OW31916   4.381   4.537   0.417  0.3854  0.0425  0.2480
 6996SOL    HW131917   4.358   4.443   0.391 -0.2854  0.1410  0.4752
 6996SOL    HW231918   4.479   4.551   0.405  0.4233 -0.5507 -0.2222
 6997SOL     OW31919   6.919   1.370   2.174 -0.1505  0.1273 -0.0307
 6997SOL    HW131920   6.903   1.307   2.250 -0.1368 -0.1545 -0.2614
 6997SOL    HW231921   6.897   1.325   2.088  0.6241  0.1707 -0.2582
 6998SOL     OW31922   7.732   8.210   1.159 -0.1217  0.2826 -0.3834
 6998SOL    HW131923   7.717   8.241   1.065 -1.3224 -1.7212 -0.9021
 6998SOL    HW231924   7.790   8.128   1.158  1.0151  1.0616  0.7400
 6999SOL     OW31925   8.401   2.227   2.047 -0.4699  0.3614  0.3538
 6999SOL    HW131926   8.329   2.259   2.109  0.8777 -1.4648  2.9502
 6999SOL    HW231927   8.378   2.135   2.015 -0.2535  0.5712 -0.4109
 7000SOL     OW31928   0.444   9.120   2.305  0.0970 -0.0609 -0.0725
 7000SOL    HW131929   0.444   9.103   2.206  0.1704 -0.6037  0.0156
 7000SOL    HW231930   0.362   9.171   2.330 -0.8103 -1.4463 -0.1622
 7001SOL     OW31931   3.191   2.921   1.605 -0.0457  0.0579 -0.4290
 7001SOL    HW131932   3.284   2.956   1.618 -0.3635  1.1157 -0.9518
 7001SOL    HW231933   3.177   2.899   1.509 -0.0275 -1.0193 -0.1913
 7002SOL     OW31934   1.786   6.228   0.280 -0.2645 -0.3986 -0.1805
 7002SOL    HW131935   1.775   6.202   0.376  1.8357 -1.1421 -0.1219
 7002SOL    HW231936   1.883   6.231   0.257 -0.7494 -0.3243 -2.3095
 7003SOL     OW31937   3.956   6.934   1.528 -0.5384  0.4214 -0.3630
 7003SOL    HW131938   3.930   6.985   1.446  0.1167  0.2043 -0.7040
 7003SOL    HW231939   4.008   6.853   1.502 -1.1491 -0.1603  0.2133
 7004SOL     OW31940   5.353   0.368   0.732  0.3209 -0.0760  0.1698
 7004SOL    HW131941   5.380   0.421   0.651  1.9673  0.1227  0.8295
 7004SOL    HW231942   5.400   0.280   0.732 -1.2088 -0.9109 -0.1048
 7005SOL     OW31943   4.776   3.148   3.215 -0.3215 -0.4221  0.7978
 7005SOL    HW131944   4.852   3.104   3.168  0.7178  1.1201  1.0070
 7005SOL    HW231945   4.786   3.136   3.314 -0.5221 -0.4873  0.8114
 7006SOL     OW31946   7.480   1.123   2.474 -0.2752 -0.1248 -0.0531
 7006SOL    HW131947   7.485   1.119   2.574 -0.7966 -2.1531 -0.0861
 7006SOL    HW231948   7.571   1.143   2.437  0.6061 -2.6302  0.7073
 7007SOL     OW31949   5.343   0.682   1.258  0.2104  0.0395 -0.6012
 7007SOL    HW131950   5.366   0.742   1.181  0.3188  1.4669  0.5169
 7007SOL    HW231951   5.279   0.729   1.319 -0.7474 -1.5046 -0.3956
 7008SOL     OW31952   0.359   5.864   1.649 -0.0840 -0.5301  0.5871
 7008SOL    HW131953   0.359   5.800   1.572 -0.6520 -0.6193  0.6590
 7008SOL    HW231954   0.264   5.885   1.675  0.0196  2.4029 -1.1779
 7009SOL     OW31955   9.541   0.371   0.703  0.1584  0.4468 -1.0177
 7009SOL    HW131956   9.473   0.315   0.749  1.6023 -1.0308 -0.6374
 7009SOL    HW231957   9.516   0.381   0.606  0.5045 -1.9131 -1.3921
 7010SOL     OW31958   3.276   7.279   3.203 -0.4725 -0.0643  0.1819
 7010SOL    HW131959   3.342   7.214   3.164 -0.7657 -0.7607  0.8264
 7010SOL    HW231960   3.242   7.339   3.131 -0.8964 -1.2429 -0.6212
 7011SOL     OW31961   8.638   1.158   3.816 -0.2098 -0.1674 -0.6981
 7011SOL    HW131962   8.634   1.069   3.769  0.1791 -1.4216  1.5626
 7011SOL    HW231963   8.546   1.183   3.848 -0.2822  0.1311 -1.1497
 7012SOL     OW31964   2.077   4.452   1.416 -0.3387  0.2632 -0.3171
 7012SOL    HW131965   1.991   4.462   1.366 -0.3442 -0.2118 -0.4023
 7012SOL    HW231966   2.080   4.362   1.459 -0.0199  0.3991 -0.0538
 7013SOL     OW31967   3.596   4.842   5.250 -0.0383 -0.0626 -0.7530
 7013SOL    HW131968   3.514   4.784   5.258  0.7490 -1.2322 -1.0129
 7013SOL    HW231969   3.649   4.814   5.170 -0.5173  2.1590 -1.8821
 7014SOL     OW31970   1.612   3.697   4.451 -0.1838 -0.2068 -0.0704
 7014SOL    HW131971   1.677   3.704   4.526 -0.6653  1.5490  0.2133
 7014SOL    HW231972   1.620   3.607   4.407 -0.0100 -1.2980  2.1580
 7015SOL     OW31973   0.048   6.698   2.873  0.2882  0.5858 -0.3564
 7015SOL    HW131974   0.101   6.779   2.900  0.8392 -0.2956  1.2820
 7015SOL    HW231975  -0.049   6.714   2.892  0.4255  0.7704  0.1897
 7016SOL     OW31976   3.925   4.822   0.960 -0.6675 -0.2071  0.1616
 7016SOL    HW131977   3.832   4.848   0.984 -0.9231  0.9641 -2.0207
 7016SOL    HW231978   3.934   4.816   0.861  1.7051  0.1517  0.3180
 7017SOL     OW31979   2.256   5.966   4.611  0.1818  0.3979  0.2845
 7017SOL    HW131980   2.290   5.880   4.574 -0.7767 -0.3483  1.1353
 7017SOL    HW231981   2.180   5.949   4.673 -0.1124  1.8689  0.3543
 7018SOL     OW31982   1.481   7.202   5.075  0.7634  0.2970  0.0402
 7018SOL    HW131983   1.507   7.188   4.979  0.6122  0.1262  0.0232
 7018SOL    HW231984   1.470   7.113   5.120  1.0307  0.3800  0.2704
 7019SOL     OW31985   7.873   0.574   5.223 -0.2054  0.3749 -0.1433
 7019SOL    HW131986   7.797   0.551   5.162 -0.7572  0.4286  0.5174
 7019SOL    HW231987   7.936   0.496   5.228  1.0758  1.1799 -2.5778
 7020SOL     OW31988   3.410   9.000   1.486 -0.3319 -0.2407 -0.1469
 7020SOL    HW131989   3.502   9.033   1.465 -0.0522 -0.6149  0.4724
 7020SOL    HW231990   3.374   8.948   1.408  0.2996 -0.7804 -0.0803
 7021SOL     OW31991   3.980   8.665   4.769 -0.1662  0.0839  0.2569
 7021SOL    HW131992   3.969   8.586   4.708  1.5576 -1.2294  1.6028
 7021SOL    HW231993   4.053   8.723   4.735 -1.5271  1.1871 -0.8080
 7022SOL     OW31994   4.744   9.173   0.799 -0.2129  0.2532  0.0379
 7022SOL    HW131995   4.645   9.180   0.789 -0.4608 -0.9373  1.6120
 7022SOL    HW231996   4.785   9.156   0.709 -1.5973 -1.0768 -0.3600
 7023SOL     OW31997   1.760   8.153   4.974  0.2448  0.0845  0.1952
 7023SOL    HW131998   1.847   8.125   5.014  1.6126  0.4397 -2.4655
 7023SOL    HW231999   1.728   8.237   5.018  1.9810  0.7615  0.1719
 7024SOL     OW32000   0.127   0.037   0.903  0.2405  0.1377 -0.2139
 7024SOL    HW132001   0.030   0.062   0.904  0.2179  0.0390  0.1125
 7024SOL    HW232002   0.142  -0.033   0.833 -0.3401 -1.4696  1.2127
 7025SOL     OW32003   8.007   0.812   4.340 -0.5430  0.2793 -0.7435
 7025SOL    HW132004   8.035   0.811   4.244  0.4636  1.1840 -0.4679
 7025SOL    HW232005   8.084   0.838   4.397 -1.0987 -0.3985  0.3356
 7026SOL     OW32006   0.086   0.855   3.073  0.0457  0.3509  0.3926
 7026SOL    HW132007   0.154   0.918   3.113  0.1501  0.5217 -0.0525
 7026SOL    HW232008   0.060   0.888   2.982 -0.7694  0.3804  0.6322
 7027SOL     OW32009   6.934   8.684   2.877 -0.0844  0.1368  0.2224
 7027SOL    HW132010   6.993   8.707   2.801  0.6974 -1.3167  0.3723
 7027SOL    HW232011   6.986   8.686   2.962 -0.8284  1.2285  0.6741
 7028SOL     OW32012   4.261   3.645   4.497 -0.2567 -0.1234 -0.3097
 7028SOL    HW132013   4.329   3.591   4.545 -0.6284 -1.2442 -1.0340
 7028SOL    HW232014   4.261   3.739   4.533 -0.3264 -0.8603  1.6567
 7029SOL     OW32015   2.836   3.228   4.338  0.1238 -0.0355 -0.2739
 7029SOL    HW132016   2.807   3.182   4.254  0.2466 -1.7142  0.5607
 7029SOL    HW232017   2.925   3.193   4.365  0.1484  0.6018  0.4631
 7030SOL     OW32018   2.866   8.624   5.438 -0.2352 -0.7291  0.0591
 7030SOL    HW132019   2.904   8.713   5.414  1.7762 -0.6194  3.3335
 7030SOL    HW232020   2.920   8.552   5.395 -1.1811 -0.4181 -1.6818
 7031SOL     OW32021   3.443   6.625   0.667  0.3720  0.1966 -0.7919
 7031SOL    HW132022   3.442   6.689   0.591 -0.1693  1.1602  0.0115
 7031SOL    HW232023   3.383   6.547   0.646 -1.3926  1.4605 -0.5062
 7032SOL     OW32024   2.650   9.441   4.800 -0.2362 -0.4749  0.0341
 7032SOL    HW132025   2.585   9.448   4.724 -0.4427 -1.4026  0.1218
 7032SOL    HW232026   2.613   9.380   4.870 -0.4666  1.1234  1.3220
 7033SOL     OW32027   3.676   4.661   4.802 -0.3047 -0.4612 -0.0785
 7033SOL    HW132028   3.744   4.670   4.729 -0.2387  1.1039  0.1486
 7033SOL    HW232029   3.595   4.614   4.767  0.8757 -2.3388 -0.3500
 7034SOL     OW32030   7.501   4.776   5.385  0.1025 -0.6081  0.0047
 7034SOL    HW132031   7.596   4.806   5.393 -0.0182 -0.3336  0.3882
 7034SOL    HW232032   7.451   4.797   5.469  0.0520 -2.0060  0.3445
 7035SOL     OW32033   0.384   0.497   2.524 -1.0066 -0.0875 -0.6897
 7035SOL    HW132034   0.446   0.490   2.603 -0.8841  1.5248 -0.6308
 7035SOL    HW232035   0.426   0.451   2.446 -0.2326  0.0365 -0.3534
 7036SOL     OW32036   4.984   0.532   5.509  1.0237 -0.6868  0.2215
 7036SOL    HW132037   5.049   0.546   5.583  0.0959  1.1351  0.7368
 7036SOL    HW232038   4.932   0.448   5.525 -0.5537  0.6936  2.7539
 7037SOL     OW32039   8.267   7.156   4.149 -0.4018  0.0900 -0.2723
 7037SOL    HW132040   8.271   7.061   4.117 -3.4865  0.8019 -3.1410
 7037SOL    HW232041   8.358   7.186   4.176  0.9869 -3.0877 -1.1345
 7038SOL     OW32042   6.477   9.524   3.293  0.2982 -0.1454  0.1444
 7038SOL    HW132043   6.455   9.462   3.218 -0.8963 -0.4496  0.7242
 7038SOL    HW232044   6.536   9.477   3.359  0.9144 -0.0532 -0.3414
 7039SOL     OW32045   8.149   6.480   1.663 -0.2502  0.5843  0.1388
 7039SOL    HW132046   8.068   6.517   1.709 -0.5256 -0.1096  0.2209
 7039SOL    HW232047   8.224   6.473   1.728 -1.3039 -2.5537  1.0958
 7040SOL     OW32048   1.960   3.240   2.288 -0.0182  0.3839  0.3643
 7040SOL    HW132049   1.942   3.338   2.291 -0.5041  0.3482 -0.9568
 7040SOL    HW232050   1.888   3.190   2.336 -0.8109  0.5624 -0.6196
 7041SOL     OW32051   0.351   0.989   2.219 -0.3164 -0.4172  0.4389
 7041SOL    HW132052   0.388   0.919   2.280  0.6659 -0.8900 -0.6768
 7041SOL    HW232053   0.255   0.968   2.198 -0.0401 -1.4252  0.1440
 7042SOL     OW32054   2.382   6.974   3.515  0.2979 -0.3287  0.1474
 7042SOL    HW132055   2.420   7.065   3.532  0.1432 -0.3236  0.4746
 7042SOL    HW232056   2.423   6.909   3.579  0.3641 -0.4796 -0.0468
 7043SOL     OW32057   9.844   3.896   4.006 -0.4054 -0.5465  0.0643
 7043SOL    HW132058   9.872   3.832   4.078  2.7780 -1.0648 -1.5415
 7043SOL    HW232059   9.878   3.987   4.029  0.4501 -0.6755 -0.6805
 7044SOL     OW32060   0.738   5.820   2.804  0.0327  0.4719 -0.5388
 7044SOL    HW132061   0.672   5.749   2.829  1.2548 -1.1067 -1.8037
 7044SOL    HW232062   0.826   5.800   2.845  0.0645  1.9697  0.1705
 7045SOL     OW32063   7.766   2.905   2.342  0.3607 -0.1704  0.1103
 7045SOL    HW132064   7.750   2.968   2.418  2.8973  2.6556 -1.5488
 7045SOL    HW232065   7.698   2.920   2.271 -1.2234 -1.9063  1.2101
 7046SOL     OW32066   2.483   2.777   3.363 -0.5963  0.4290 -0.1102
 7046SOL    HW132067   2.489   2.867   3.406  0.5969  0.0526  0.5508
 7046SOL    HW232068   2.466   2.707   3.433 -1.0718  0.0901 -0.5612
 7047SOL     OW32069   2.154   3.600   4.320  0.3270  0.0613  0.3657
 7047SOL    HW132070   2.154   3.596   4.220  1.0743 -0.4069  0.3757
 7047SOL    HW232071   2.150   3.695   4.350 -1.3682  0.1451 -0.0981
 7048SOL     OW32072   9.783   6.782   2.984  0.4882  0.3161 -0.0960
 7048SOL    HW132073   9.705   6.817   2.931  0.9175  0.2762 -0.7564
 7048SOL    HW232074   9.749   6.728   3.061 -0.1616  1.0980  0.1806
 7049SOL     OW32075   0.142   7.932   0.415  0.1131  0.5764 -0.1654
 7049SOL    HW132076   0.116   8.018   0.372  3.5376  1.5002 -0.5012
 7049SOL    HW232077   0.098   7.856   0.367  0.7166  1.8501 -2.8088
 7050SOL     OW32078   1.374   7.099   3.869 -0.0390  0.0851 -0.2831
 7050SOL    HW132079   1.380   7.004   3.899  0.4563  0.4271  0.7004
 7050SOL    HW232080   1.359   7.101   3.770  0.3293 -1.0056 -0.3687
 7051SOL     OW32081   9.763   6.442   5.459  0.5704 -0.0302 -0.5328
 7051SOL    HW132082   9.833   6.511   5.443  1.1304 -0.2916  0.7501
 7051SOL    HW232083   9.676   6.486   5.480  1.0605  0.2827  0.8472
 7052SOL     OW32084   7.578   1.336   5.379 -1.0502  0.4950 -0.3806
 7052SOL    HW132085   7.502   1.344   5.444 -1.3200 -1.9380 -0.3381
 7052SOL    HW232086   7.548   1.370   5.290 -2.5874 -1.3967 -0.6320
 7053SOL     OW32087   8.103   2.546   4.442  0.6856 -0.5697  0.0894
 7053SOL    HW132088   8.114   2.446   4.439 -2.5367 -1.0051  0.6621
 7053SOL    HW232089   8.035   2.573   4.374 -0.2087  0.9531  1.5617
 7054SOL     OW32090   9.041   6.033   4.790 -0.6732  0.3231  0.0950
 7054SOL    HW132091   9.041   6.036   4.690 -0.6933 -0.2712  0.0787
 7054SOL    HW232092   9.080   5.947   4.821 -1.6876  0.0289  0.5895
 7055SOL     OW32093   7.991   3.489   4.580 -0.1080 -0.2942 -0.5472
 7055SOL    HW132094   8.066   3.530   4.631 -0.9812 -0.7825  1.1827
 7055SOL    HW232095   7.906   3.497   4.633 -1.3650  0.5807 -2.6244
 7056SOL     OW32096   3.163   6.334   3.414 -0.3814 -0.4555  0.3357
 7056SOL    HW132097   3.148   6.431   3.431  2.8714  0.3388 -0.8611
 7056SOL    HW232098   3.245   6.304   3.464 -0.5465 -2.2285 -0.4210
 7057SOL     OW32099   8.146   4.021   1.721  0.1581  0.4195  0.1842
 7057SOL    HW132100   8.185   4.002   1.811 -1.6997 -0.3303  0.8570
 7057SOL    HW232101   8.107   3.936   1.683  0.0233  0.9445 -0.8703
 7058SOL     OW32102   9.159   0.396   0.685  0.1313 -0.1237 -0.0925
 7058SOL    HW132103   9.078   0.454   0.689  0.5858  0.4513  1.0839
 7058SOL    HW232104   9.219   0.417   0.762  1.0106 -1.1207 -0.4875
 7059SOL     OW32105   1.040   5.108   1.642 -0.0499 -0.1443  0.2971
 7059SOL    HW132106   1.002   5.106   1.734 -1.3052 -0.4314 -0.2136
 7059SOL    HW232107   1.078   5.198   1.623 -0.8689  0.2820  0.6727
 7060SOL     OW32108   5.215   1.514   4.302  0.0237  0.1133 -0.0376
 7060SOL    HW132109   5.170   1.505   4.391 -2.5158  2.4568 -0.9984
 7060SOL    HW232110   5.306   1.472   4.306 -0.6015 -1.1006  3.2041
 7061SOL     OW32111   2.616   0.436   4.052  0.2857 -0.0014  0.2328
 7061SOL    HW132112   2.571   0.398   3.972  0.4875 -2.1552  1.1125
 7061SOL    HW232113   2.552   0.437   4.129  0.6856  0.2095  0.5669
 7062SOL     OW32114   2.607   4.009   2.838 -0.1776  0.5942 -0.3905
 7062SOL    HW132115   2.658   4.085   2.798 -0.2389  0.6592 -0.3441
 7062SOL    HW232116   2.645   3.923   2.804 -0.6227  0.6614 -1.0741
 7063SOL     OW32117   1.884   9.738   1.978  0.0095 -0.6249  0.2214
 7063SOL    HW132118   1.786   9.755   1.969  0.3725  0.8772 -1.1603
 7063SOL    HW232119   1.934   9.795   1.912  1.7899 -1.5877  0.7014
 7064SOL     OW32120   9.529   8.099   3.159 -0.4786  0.2703 -0.2021
 7064SOL    HW132121   9.622   8.107   3.194 -0.4875 -2.8684  0.7042
 7064SOL    HW232122   9.530   8.104   3.059  0.9100 -1.4348 -0.2969
 7065SOL     OW32123   0.594   1.900   0.587 -0.1467 -0.3959  0.4888
 7065SOL    HW132124   0.634   1.989   0.566 -1.1587 -0.1516 -0.4480
 7065SOL    HW232125   0.524   1.878   0.520 -0.1807 -1.7307  0.9442
 7066SOL     OW32126   3.605   4.323   4.792 -0.2496 -0.7221  0.2824
 7066SOL    HW132127   3.558   4.268   4.722 -0.2298  0.3357 -0.5646
 7066SOL    HW232128   3.684   4.369   4.751 -0.5086  0.2732  0.8989
 7067SOL     OW32129   8.354   7.921   4.896  0.0550  0.4684 -0.1472
 7067SOL    HW132130   8.345   7.989   4.969  1.8569 -2.1588  2.5989
 7067SOL    HW232131   8.376   7.968   4.810 -2.2584  3.6167  0.8920
 7068SOL     OW32132   9.113   3.137   0.380 -0.4186  0.3150 -0.0274
 7068SOL    HW132133   9.182   3.170   0.315  0.5802 -0.2418  0.7492
 7068SOL    HW232134   9.158   3.096   0.459 -1.6450 -0.3579  0.3312
 7069SOL     OW32135   4.843   8.101   3.651 -0.0706 -0.3835 -0.0202
 7069SOL    HW132136   4.750   8.066   3.639 -0.6296  0.6571  1.2383
 7069SOL    HW232137   4.858   8.124   3.747  1.3981 -0.2794 -0.2657
 7070SOL     OW32138   9.615   2.676   0.234 -0.9776  0.1551 -0.1319
 7070SOL    HW132139   9.593   2.720   0.321  0.4368 -0.1880  0.4085
 7070SOL    HW232140   9.714   2.664   0.227 -1.1801 -0.8953 -1.2678
 7071SOL     OW32141   1.068   2.903   5.364 -0.1422  0.0776 -0.0755
 7071SOL    HW132142   1.074   2.982   5.303  0.6210  0.4380  0.4573
 7071SOL    HW232143   1.156   2.889   5.409 -0.9500  0.3485  1.6270
 7072SOL     OW32144   4.581   2.120   4.188  0.3500  0.8703 -0.2067
 7072SOL    HW132145   4.630   2.149   4.106 -0.5080 -2.7812 -2.1116
 7072SOL    HW232146   4.489   2.160   4.189  0.0279  0.1944 -1.5524
 7073SOL     OW32147   2.008   0.918   2.461 -0.1856  0.2642  0.4634
 7073SOL    HW132148   1.944   0.860   2.410 -0.3066  0.8366 -0.0434
 7073SOL    HW232149   2.069   0.860   2.515 -0.4318 -0.3275  0.1214
 7074SOL     OW32150   7.337   1.055   4.455  0.4551  0.1962 -0.0825
 7074SOL    HW132151   7.355   0.957   4.444 -0.6843 -0.2684  1.9815
 7074SOL    HW232152   7.245   1.076   4.422  1.2714  0.8782 -1.9834
 7075SOL     OW32153   2.649   8.974   0.077 -0.0853  0.4709  1.1011
 7075SOL    HW132154   2.633   9.004  -0.017 -0.9528 -1.8379  0.4629
 7075SOL    HW232155   2.728   8.913   0.080  0.1556  0.8250  1.9158
 7076SOL     OW32156   4.953   9.723   2.995  0.1009 -0.1125 -0.1230
 7076SOL    HW132157   4.986   9.794   3.058  0.9632 -1.1265  0.5955
 7076SOL    HW232158   4.871   9.756   2.947  1.6065  2.1099 -1.2564
 7077SOL     OW32159   6.154   9.720   2.076 -0.4615 -0.0164  0.5732
 7077SOL    HW132160   6.098   9.802   2.068  0.4453  0.4538 -1.6343
 7077SOL    HW232161   6.109   9.652   2.134 -1.3738  1.9091  2.1313
 7078SOL     OW32162   8.053   5.950   1.386 -0.2376  0.4011 -0.8257
 7078SOL    HW132163   8.095   6.034   1.351  1.6137 -0.2078 -0.1691
 7078SOL    HW232164   8.008   5.901   1.312 -0.4966  1.5047 -1.4006
 7079SOL     OW32165   3.236   8.882   0.976 -0.3566  0.0522 -0.8537
 7079SOL    HW132166   3.150   8.921   0.943 -0.9497 -0.2198  0.3282
 7079SOL    HW232167   3.312   8.916   0.921 -1.0815  1.2889 -1.0991
 7080SOL     OW32168   9.592   3.176   0.674 -0.0307 -0.5494 -0.3313
 7080SOL    HW132169   9.566   3.087   0.710 -0.1311 -0.7651 -0.9282
 7080SOL    HW232170   9.517   3.241   0.688 -0.4460 -0.8766 -1.0025
 7081SOL     OW32171   1.552   7.819   3.948  0.0264 -0.3516 -0.7757
 7081SOL    HW132172   1.457   7.787   3.944  0.8041 -2.7814 -1.0088
 7081SOL    HW232173   1.604   7.778   3.872  1.5137  0.0203  0.0139
 7082SOL     OW32174   7.920   7.066   1.714 -0.4610 -0.6071  0.2955
 7082SOL    HW132175   7.956   7.078   1.806  1.6147 -0.2492 -0.5419
 7082SOL    HW232176   7.970   6.994   1.667 -2.2711 -1.5743 -0.1803
 7083SOL     OW32177   2.270   1.338   2.295 -0.3919  0.1149 -0.0288
 7083SOL    HW132178   2.192   1.368   2.350 -2.5100  0.0981 -2.9537
 7083SOL    HW232179   2.273   1.238   2.293 -0.8787  0.1104 -0.6972
 7084SOL     OW32180   2.644   4.043   0.278  0.5587  0.0509  0.1490
 7084SOL    HW132181   2.735   4.045   0.237  0.9628 -1.1730  0.9780
 7084SOL    HW232182   2.651   4.017   0.374 -0.7828 -1.4128 -0.1304
 7085SOL     OW32183   6.153   9.416   3.759 -0.5379 -0.0498 -0.0920
 7085SOL    HW132184   6.192   9.483   3.695  1.1775 -0.8903  0.0324
 7085SOL    HW232185   6.208   9.332   3.757 -0.7458 -0.2752  2.0912
 7086SOL     OW32186   2.996   3.100   5.035  0.1740 -0.2158 -0.2195
 7086SOL    HW132187   3.065   3.040   5.075 -1.1552 -0.4283  1.7817
 7086SOL    HW232188   3.003   3.191   5.076 -1.4666 -0.5485  0.8220
 7087SOL     OW32189   2.385   6.180   2.119 -0.4714 -0.0701  0.7830
 7087SOL    HW132190   2.442   6.111   2.074 -1.1284  0.2078 -0.5129
 7087SOL    HW232191   2.291   6.147   2.125 -0.7706  0.6499  0.2528
 7088SOL     OW32192   0.203   5.082   0.895  0.1033  0.0601 -0.2957
 7088SOL    HW132193   0.169   4.988   0.902  1.6104 -0.4452  0.4915
 7088SOL    HW232194   0.248   5.095   0.807 -1.0355  0.3660 -0.8374
 7089SOL     OW32195   8.647   7.558   3.318  0.5288 -0.1224 -0.9841
 7089SOL    HW132196   8.688   7.639   3.274  0.6872  0.3850  0.0873
 7089SOL    HW232197   8.703   7.478   3.299  1.5464  0.4097 -0.2817
 7090SOL     OW32198   1.786   9.945   5.440 -0.0490 -0.4971 -0.1924
 7090SOL    HW132199   1.819   9.960   5.533  0.7890  1.4628 -0.7902
 7090SOL    HW232200   1.723  10.018   5.414  0.5142 -0.4707 -1.5240
 7091SOL     OW32201   3.772   2.298   4.792  0.4467  0.0003 -0.1764
 7091SOL    HW132202   3.785   2.395   4.811 -1.3261  0.4946 -1.3497
 7091SOL    HW232203   3.754   2.286   4.694  1.0113 -1.5535 -0.1041
 7092SOL     OW32204   1.708   3.403   4.235  0.5645  0.0100 -0.2232
 7092SOL    HW132205   1.783   3.447   4.283  1.2898 -0.5162 -0.8563
 7092SOL    HW232206   1.741   3.365   4.148 -0.5947  0.4327 -0.8670
 7093SOL     OW32207   2.569   0.020   0.829 -0.0343 -0.2145  0.3405
 7093SOL    HW132208   2.659   0.063   0.825  1.1976 -2.7071 -0.3234
 7093SOL    HW232209   2.565  -0.040   0.909 -2.0246  1.7354  1.7632
 7094SOL     OW32210   3.421   6.266   4.217  0.1728 -0.3730  0.7723
 7094SOL    HW132211   3.482   6.239   4.143  1.6042 -0.4099  1.9532
 7094SOL    HW232212   3.378   6.353   4.195  0.5632 -0.3961 -0.1132
 7095SOL     OW32213   0.322   9.656   2.935 -0.5332  0.0078  0.0345
 7095SOL    HW132214   0.235   9.703   2.921 -0.6531 -0.1526  0.2494
 7095SOL    HW232215   0.395   9.709   2.891 -0.6564  0.4317  0.3298
 7096SOL     OW32216   2.728   6.033   5.486  0.1239 -0.0598 -0.0946
 7096SOL    HW132217   2.713   5.935   5.498 -0.6004  0.2179  1.3236
 7096SOL    HW232218   2.823   6.056   5.508  0.3576 -0.4696 -0.6594
 7097SOL     OW32219   3.379   6.274   4.494  0.3533  0.0804  0.0912
 7097SOL    HW132220   3.408   6.256   4.400 -1.1813  0.4443 -0.4679
 7097SOL    HW232221   3.306   6.343   4.494 -0.7646 -1.0720  1.4302
 7098SOL     OW32222   7.639   6.015   2.427  0.4171 -0.1058  0.0266
 7098SOL    HW132223   7.543   5.991   2.410  1.3321 -1.8210 -3.1304
 7098SOL    HW232224   7.653   6.112   2.410 -0.3967 -0.2256 -1.4553
 7099SOL     OW32225   1.442   1.548   5.419  1.0144 -0.3745  0.1211
 7099SOL    HW132226   1.420   1.480   5.489 -1.0242  0.9199  0.7871
 7099SOL    HW232227   1.397   1.523   5.333 -1.1039  0.9470  0.8061
 7100SOL     OW32228   1.214   3.876   2.669 -0.2396 -0.2315 -0.0238
 7100SOL    HW132229   1.234   3.944   2.599 -2.3109  1.1067  0.6403
 7100SOL    HW232230   1.261   3.901   2.754 -0.6190  0.1281  0.0832
 7101SOL     OW32231   8.974   8.231   5.328  0.0880  0.5020 -0.1821
 7101SOL    HW132232   9.006   8.158   5.267  0.4489  0.4522  0.0618
 7101SOL    HW232233   9.048   8.258   5.389 -0.1015  0.9516 -0.1483
 7102SOL     OW32234   7.787   9.552   5.003  0.3663  0.2487  0.1463
 7102SOL    HW132235   7.811   9.459   5.031  0.3853  0.1654 -0.1548
 7102SOL    HW232236   7.698   9.552   4.957 -1.5258  0.9174  3.6005
 7103SOL     OW32237   9.393   5.001   3.847  0.0737 -0.1156 -0.2769
 7103SOL    HW132238   9.311   4.952   3.816  1.0330 -2.7012  1.1362
 7103SOL    HW232239   9.474   4.944   3.834  1.4688  1.7471 -0.0920
 7104SOL     OW32240   3.611   3.468   1.854 -0.4096  0.0449  0.6630
 7104SOL    HW132241   3.645   3.488   1.946  0.9924  0.4274  0.0791
 7104SOL    HW232242   3.642   3.540   1.791 -0.8226 -0.5492 -0.2254
 7105SOL     OW32243   4.893   2.992   5.559 -0.0052 -0.2572 -0.3241
 7105SOL    HW132244   4.878   3.003   5.461  0.0809 -0.4879 -0.3641
 7105SOL    HW232245   4.807   2.966   5.603  0.1449 -0.9774 -0.4609
 7106SOL     OW32246   4.769   0.718   4.571  0.0317 -0.0874 -0.5759
 7106SOL    HW132247   4.781   0.656   4.494 -0.7762 -2.0823  0.8581
 7106SOL    HW232248   4.858   0.743   4.609  0.4026  0.4329 -1.7748
 7107SOL     OW32249   8.330   6.840   3.652  0.1912  0.4442  0.1550
 7107SOL    HW132250   8.401   6.832   3.582  1.9942  3.0937  1.5492
 7107SOL    HW232251   8.354   6.784   3.731 -1.0085 -1.2701 -0.6761
 7108SOL     OW32252   3.443   2.891   3.407  0.5222  0.1688  0.3891
 7108SOL    HW132253   3.475   2.984   3.394  3.1751 -0.3649  2.5469
 7108SOL    HW232254   3.476   2.833   3.332  1.6709  0.3092  0.7882
 7109SOL     OW32255   8.195   6.167   0.137 -0.3801 -0.8896 -0.0880
 7109SOL    HW132256   8.285   6.129   0.162 -0.1479 -1.1140 -1.2437
 7109SOL    HW232257   8.124   6.103   0.166 -0.0045 -2.1061 -1.7584
 7110SOL     OW32258   3.526   3.272   3.959 -0.0755  0.0863 -0.3603
 7110SOL    HW132259   3.601   3.307   3.903  0.3942 -0.4896 -0.0907
 7110SOL    HW232260   3.530   3.172   3.962  0.5347  0.1477  1.5710
 7111SOL     OW32261   8.954   6.775   5.092 -0.4417 -0.1446 -0.3245
 7111SOL    HW132262   8.928   6.858   5.044 -0.8960 -0.4998 -0.7002
 7111SOL    HW232263   8.886   6.753   5.161  0.6943  0.8932  1.1712
 7112SOL     OW32264   3.576   9.187   4.042  0.0495  0.5194  0.1230
 7112SOL    HW132265   3.596   9.096   4.007 -0.2463  0.0007  1.2647
 7112SOL    HW232266   3.488   9.186   4.089 -0.5103  1.6868 -0.8856
 7113SOL     OW32267   1.486   2.307   1.617 -0.3628  0.3090 -0.7539
 7113SOL    HW132268   1.417   2.236   1.604  0.8053 -1.0756  0.3214
 7113SOL    HW232269   1.524   2.299   1.710  2.5496 -0.2055 -1.9250
 7114SOL     OW32270   1.357   4.970   3.269 -0.2871 -0.3867  0.5647
 7114SOL    HW132271   1.295   4.891   3.272  1.0105 -1.4925 -1.1440
 7114SOL    HW232272   1.442   4.947   3.316  0.0662  0.0279  0.1365
 7115SOL     OW32273   2.402   2.752   2.218 -0.6109  0.5630  0.2451
 7115SOL    HW132274   2.468   2.678   2.234  0.0130  1.0917  0.1160
 7115SOL    HW232275   2.397   2.810   2.299  2.2243  2.9866 -1.2127
 7116SOL     OW32276   9.973   4.526   4.253  0.0327 -0.2930 -0.7421
 7116SOL    HW132277  10.028   4.607   4.233  0.2735 -0.4051 -0.5539
 7116SOL    HW232278   9.977   4.463   4.175 -0.3119 -0.0374 -0.9653
 7117SOL     OW32279   2.219   4.855   5.148  0.5220 -0.0841  0.3983
 7117SOL    HW132280   2.238   4.812   5.236  0.3619 -0.2183  0.3672
 7117SOL    HW232281   2.130   4.825   5.114  1.2972 -1.2954 -0.5873
 7118SOL     OW32282   7.606   8.026   4.049  0.3651 -0.3334  0.2714
 7118SOL    HW132283   7.513   8.023   4.015  0.9213  2.2445 -1.5510
 7118SOL    HW232284   7.611   8.086   4.129  0.0577 -2.3591  1.8722
 7119SOL     OW32285   1.174   0.874   0.448 -0.0513  0.1777  0.5836
 7119SOL    HW132286   1.260   0.850   0.403 -1.1224 -0.5623 -1.1291
 7119SOL    HW232287   1.183   0.862   0.547  1.4725 -0.9255  0.3183
 7120SOL     OW32288   8.061   9.717   3.165  0.3969  0.0504  0.1011
 7120SOL    HW132289   8.064   9.632   3.112 -0.9632 -0.8045  1.3682
 7120SOL    HW232290   8.105   9.703   3.254  1.0000  0.9428 -0.0490
 7121SOL     OW32291   9.698   2.114   2.932  0.1315  0.0544  0.6961
 7121SOL    HW132292   9.790   2.086   2.908  0.7127  3.8206 -1.7840
 7121SOL    HW232293   9.701   2.180   3.008 -0.3809  1.2593 -0.3107
 7122SOL     OW32294   3.860   2.934   5.391 -0.0102  0.2282 -0.5109
 7122SOL    HW132295   3.915   2.877   5.331 -0.7165 -1.6663  0.6144
 7122SOL    HW232296   3.768   2.896   5.398 -0.5715  1.6637  0.0322
 7123SOL     OW32297   4.033   9.441   0.168  0.3548  0.5735 -0.3104
 7123SOL    HW132298   4.123   9.457   0.127 -0.7058  0.8146 -2.6137
 7123SOL    HW232299   3.970   9.406   0.099 -0.7765 -1.6561  1.7732
 7124SOL     OW32300   4.615   8.940   3.474  0.3149 -0.6979 -0.2435
 7124SOL    HW132301   4.645   8.853   3.513 -0.3724 -0.9352 -0.2347
 7124SOL    HW232302   4.694   8.998   3.457  0.7614 -1.2582 -0.0811
 7125SOL     OW32303   8.493   6.794   3.429 -0.5150 -0.2656  0.4852
 7125SOL    HW132304   8.591   6.778   3.436 -0.6819 -0.9144  1.3175
 7125SOL    HW232305   8.477   6.889   3.400  0.4210 -0.9812 -2.5910
 7126SOL     OW32306   0.306   1.853   3.693 -0.3540  0.1741 -0.6799
 7126SOL    HW132307   0.380   1.857   3.760 -0.2094  1.0600 -0.8837
 7126SOL    HW232308   0.331   1.789   3.620 -0.2978 -0.4183 -0.1427
 7127SOL     OW32309   0.553   9.542   5.328  0.0833  0.0680  0.0777
 7127SOL    HW132310   0.507   9.607   5.389  0.6032  1.2028 -0.7201
 7127SOL    HW232311   0.506   9.541   5.240 -0.0881 -0.8482  0.1795
 7128SOL     OW32312   7.338   7.857   1.426  0.2920 -0.8253  0.2637
 7128SOL    HW132313   7.278   7.795   1.477 -1.0502  0.3265  0.1038
 7128SOL    HW232314   7.324   7.951   1.458  0.1173 -0.2157 -1.5817
 7129SOL     OW32315   5.813   1.591   3.317 -0.1186 -0.2729  0.5024
 7129SOL    HW132316   5.719   1.608   3.285 -0.0724  0.5058  0.7585
 7129SOL    HW232317   5.857   1.523   3.259 -1.1332 -1.2819  0.8912
 7130SOL     OW32318   9.820   7.105   3.264  0.2259 -0.2595 -0.4399
 7130SOL    HW132319   9.811   7.050   3.347  0.0556 -1.9470 -1.5470
 7130SOL    HW232320   9.735   7.101   3.212 -0.0609  1.7154 -0.1631
 7131SOL     OW32321   9.815   6.732   1.955  0.4923  0.7034 -0.1097
 7131SOL    HW132322   9.786   6.638   1.937 -0.1566  0.7362  0.7395
 7131SOL    HW232323   9.755   6.795   1.906  0.0659  0.7170  0.4210
 7132SOL     OW32324   1.108   6.178   5.231  0.5429 -0.1112 -0.5970
 7132SOL    HW132325   1.083   6.126   5.149  0.9530  0.6697 -1.2223
 7132SOL    HW232326   1.197   6.147   5.263  0.3139 -0.5242 -0.3534
 7133SOL     OW32327   4.276   0.808   0.363 -0.0897 -0.1235 -0.1905
 7133SOL    HW132328   4.280   0.712   0.393  1.0482  0.7974  2.7826
 7133SOL    HW232329   4.361   0.831   0.316 -0.2593 -0.4842 -0.6850
 7134SOL     OW32330   2.246   4.919   0.302 -0.3312  0.2934 -0.1517
 7134SOL    HW132331   2.168   4.943   0.360  1.0880 -2.6617  3.1426
 7134SOL    HW232332   2.329   4.959   0.339  0.0999  1.5750 -2.4034
 7135SOL     OW32333   1.638   8.888   0.983  0.3077  0.3652 -0.6440
 7135SOL    HW132334   1.608   8.793   0.974 -0.2721  0.5612 -0.8319
 7135SOL    HW232335   1.635   8.914   1.080 -0.0731  0.3628 -0.6534
 7136SOL     OW32336   3.293   6.482   4.094 -0.3042 -0.3617  0.0473
 7136SOL    HW132337   3.233   6.489   4.174  0.8287  0.7432  0.8339
 7136SOL    HW232338   3.357   6.559   4.095  1.6505 -1.9385 -0.3329
 7137SOL     OW32339   3.334   9.814   3.302  0.1012 -0.3358  0.6284
 7137SOL    HW132340   3.416   9.802   3.357  0.0685 -0.6106  0.6192
 7137SOL    HW232341   3.267   9.869   3.353  0.4835  0.3154  0.4340
 7138SOL     OW32342   9.067   8.424   4.453 -0.1775  0.2581  0.7426
 7138SOL    HW132343   9.077   8.523   4.457 -1.0724  0.3867 -0.0069
 7138SOL    HW232344   8.979   8.397   4.494 -0.9305 -0.0181 -1.0128
 7139SOL     OW32345   7.629   8.490   1.786  0.1651 -0.4044  0.1894
 7139SOL    HW132346   7.718   8.534   1.771 -0.2330  0.3764  0.1063
 7139SOL    HW232347   7.613   8.481   1.884 -0.2147  0.5941  0.2258
 7140SOL     OW32348   4.608   8.100   0.743  0.2893 -0.1746  0.1043
 7140SOL    HW132349   4.657   8.138   0.821 -0.0250 -0.0793  0.2552
 7140SOL    HW232350   4.554   8.021   0.772 -2.3728  1.7828  0.6561
 7141SOL     OW32351   2.312   3.735   3.624  0.1587  0.4505  0.0293
 7141SOL    HW132352   2.217   3.744   3.597  0.5604  0.2504 -1.4738
 7141SOL    HW232353   2.353   3.825   3.634  0.2643  0.5067 -0.9386
 7142SOL     OW32354   7.774   4.939   0.727 -0.4471 -0.3774  0.7691
 7142SOL    HW132355   7.729   4.914   0.813 -1.8413  1.2732  0.5631
 7142SOL    HW232356   7.705   4.972   0.662  0.9691  1.4406  0.1481
 7143SOL     OW32357   4.818   7.294   2.429 -0.0656 -0.0943 -0.3842
 7143SOL    HW132358   4.729   7.255   2.452  0.6514 -0.7723  1.3194
 7143SOL    HW232359   4.805   7.375   2.372 -1.6690 -1.3971 -1.9263
 7144SOL     OW32360   1.583   7.352   5.559 -0.7327 -0.0341 -0.0940
 7144SOL    HW132361   1.568   7.320   5.466 -0.0399 -3.4981  0.9284
 7144SOL    HW232362   1.520   7.307   5.622 -0.5414  1.5187  1.2668
 7145SOL     OW32363   9.089   1.886   3.065 -0.1363  0.0375  0.3114
 7145SOL    HW132364   9.007   1.889   3.123 -0.1304  2.4200  0.2366
 7145SOL    HW232365   9.170   1.878   3.123 -0.0269  3.8204  0.7961
 7146SOL     OW32366   8.176   1.796   2.506  0.1976 -0.3436  0.3400
 7146SOL    HW132367   8.102   1.759   2.450 -0.3143 -0.1762  0.9010
 7146SOL    HW232368   8.152   1.889   2.536  0.1363 -0.7138  1.4584
 7147SOL     OW32369   2.314   0.183   2.941 -0.0998  0.0766  0.8302
 7147SOL    HW132370   2.386   0.213   2.879 -0.0805 -0.5187  0.5682
 7147SOL    HW232371   2.351   0.117   3.006 -1.0255 -2.3967 -1.0725
 7148SOL     OW32372   4.281   0.154   4.151 -0.4098 -0.5083 -0.1355
 7148SOL    HW132373   4.235   0.217   4.088 -1.2123 -2.1891 -1.2850
 7148SOL    HW232374   4.222   0.137   4.230  0.2405  0.9608  0.6657
 7149SOL     OW32375   0.675   1.217   2.400 -0.6852 -0.6374  0.1731
 7149SOL    HW132376   0.595   1.248   2.348 -0.5491 -0.5677  0.0059
 7149SOL    HW232377   0.758   1.240   2.350 -0.5675 -0.9034  0.2439
 7150SOL     OW32378   8.255   1.392   1.041  0.2016  0.7412  0.0695
 7150SOL    HW132379   8.242   1.487   1.013  1.7071  0.5996 -1.1638
 7150SOL    HW232380   8.235   1.332   0.964 -1.4081 -0.0056  1.0364
 7151SOL     OW32381   3.318   4.305   2.076  0.6687  0.4883  0.7659
 7151SOL    HW132382   3.311   4.380   2.010 -1.3407 -0.3969 -0.0749
 7151SOL    HW232383   3.231   4.295   2.124  1.8725  0.6264  3.0389
 7152SOL     OW32384   0.636   6.920   3.143 -0.6858 -0.1639  0.1533
 7152SOL    HW132385   0.577   6.965   3.076 -0.2496  0.5913  0.2724
 7152SOL    HW232386   0.657   6.827   3.113  0.4234  0.5470 -1.3119
 7153SOL     OW32387   5.198   9.924   4.023 -0.0998  0.1498 -0.0188
 7153SOL    HW132388   5.254   9.844   4.001 -0.7230 -0.4162  0.4648
 7153SOL    HW232389   5.119   9.927   3.963 -0.4784 -0.0185  0.4670
 7154SOL     OW32390   2.479   0.664   0.284 -0.3150 -0.4217 -0.0579
 7154SOL    HW132391   2.570   0.628   0.305 -0.3659  0.1370  1.1238
 7154SOL    HW232392   2.457   0.739   0.346 -1.5179 -0.4440 -0.4455
 7155SOL     OW32393   7.044   1.549   3.355 -0.5217  0.2037 -0.2717
 7155SOL    HW132394   7.014   1.508   3.268 -0.2213 -0.4528 -0.0702
 7155SOL    HW232395   7.112   1.489   3.398 -0.8701  0.3980  0.5504
 7156SOL     OW32396   9.587   0.326   1.790 -0.3890  1.0829  0.1689
 7156SOL    HW132397   9.640   0.395   1.740  0.7195  0.3622  0.3360
 7156SOL    HW232398   9.555   0.257   1.725  2.0343 -0.4806  0.5979
 7157SOL     OW32399   3.375   9.060   1.929  0.3759  0.1360  0.5569
 7157SOL    HW132400   3.368   9.012   2.016  1.2409 -0.0627  0.5188
 7157SOL    HW232401   3.440   9.013   1.869 -0.0721  0.3764 -0.1292
 7158SOL     OW32402   8.943   8.400   3.045  0.3677 -0.2987 -0.0868
 7158SOL    HW132403   9.024   8.425   2.992  2.0818 -1.5519  1.8542
 7158SOL    HW232404   8.904   8.482   3.087  3.2310 -0.1682  2.4963
 7159SOL     OW32405   4.574   9.893   5.431  0.6286  0.0468  0.3668
 7159SOL    HW132406   4.514   9.865   5.506  0.6298  1.5984  0.9711
 7159SOL    HW232407   4.596   9.814   5.374  0.3063 -1.0768  1.7799
 7160SOL     OW32408   4.573   0.533   0.563 -0.3941 -0.0294 -0.0728
 7160SOL    HW132409   4.622   0.612   0.526 -0.4472 -0.3467 -0.8291
 7160SOL    HW232410   4.609   0.511   0.654  0.3285  0.2301 -0.2923
 7161SOL     OW32411   0.189   3.049   3.258 -0.2973  0.1220 -0.2308
 7161SOL    HW132412   0.113   2.985   3.257  1.0360 -1.4763 -1.5576
 7161SOL    HW232413   0.271   3.004   3.291  0.4920  1.3380 -0.4765
 7162SOL     OW32414   2.513   2.289   3.960 -0.4618 -0.1293  0.5275
 7162SOL    HW132415   2.433   2.347   3.946 -1.2540 -1.5887 -1.1255
 7162SOL    HW232416   2.493   2.221   4.030  0.4500  1.5012  2.4279
 7163SOL     OW32417   7.719   8.507   2.375  0.3929  0.3195 -0.1502
 7163SOL    HW132418   7.783   8.431   2.357  0.1128  0.2521 -0.8684
 7163SOL    HW232419   7.768   8.580   2.422  0.9096  0.1039 -0.3384
 7164SOL     OW32420   4.879   3.403   3.318  0.3155  0.2507 -0.4085
 7164SOL    HW132421   4.852   3.408   3.222  0.4130 -0.5291 -0.4819
 7164SOL    HW232422   4.834   3.475   3.370  0.9324  1.2119 -1.2015
 7165SOL     OW32423   7.316   3.358   4.936  0.1998 -0.0052 -0.3193
 7165SOL    HW132424   7.341   3.454   4.946  0.2504 -0.1847  1.4351
 7165SOL    HW232425   7.335   3.328   4.842  2.3337  1.0779 -0.2628
 7166SOL     OW32426   9.025   9.347   4.661  0.1366 -0.6727  0.4040
 7166SOL    HW132427   9.102   9.302   4.615 -0.5429 -2.3286  0.8783
 7166SOL    HW232428   9.060   9.424   4.715  1.3977 -1.0484  0.1494
 7167SOL     OW32429   8.102   4.008   5.516  0.4273  0.5908 -0.4556
 7167SOL    HW132430   8.136   4.023   5.609 -1.8746 -0.1162  0.5296
 7167SOL    HW232431   8.092   3.910   5.500 -2.1283  0.8017 -0.3307
 7168SOL     OW32432   1.875   3.529   2.306 -0.7848  0.5830  0.3970
 7168SOL    HW132433   1.793   3.485   2.342 -0.5007  0.1062  0.4741
 7168SOL    HW232434   1.943   3.536   2.379 -0.0678 -0.7170 -0.1332
 7169SOL     OW32435   1.301   2.877   5.534 -0.5289  0.2125 -0.1042
 7169SOL    HW132436   1.313   2.783   5.502 -0.3815  0.8329 -1.9745
 7169SOL    HW232437   1.387   2.927   5.525 -1.6971  1.7902 -3.6412
 7170SOL     OW32438   4.629   1.185   1.217  0.1389 -0.6862 -0.3142
 7170SOL    HW132439   4.543   1.220   1.179 -0.0132  0.5844  1.1665
 7170SOL    HW232440   4.636   1.087   1.198 -1.1125 -0.5839 -1.4017
 7171SOL     OW32441   9.655   5.329   3.819 -0.1614 -0.6325  0.1439
 7171SOL    HW132442   9.583   5.389   3.784  0.2659  0.4477  1.0900
 7171SOL    HW232443   9.619   5.279   3.899 -0.3159 -1.1672 -0.2584
 7172SOL     OW32444   0.254   9.155   1.379  0.2149  0.1411  0.1891
 7172SOL    HW132445   0.262   9.074   1.322 -0.9815  0.8975 -1.0626
 7172SOL    HW232446   0.335   9.213   1.366 -0.4107  0.6878 -1.3470
 7173SOL     OW32447   3.912   3.430   1.117  0.4285  0.4101 -0.1148
 7173SOL    HW132448   3.956   3.480   1.191  0.1544  0.3688  0.0743
 7173SOL    HW232449   3.918   3.332   1.134  0.6141  0.3894 -0.2888
 7174SOL     OW32450   6.725   7.256   3.931 -0.2688 -0.7124  0.0409
 7174SOL    HW132451   6.635   7.231   3.966 -0.8644  0.8277 -0.3450
 7174SOL    HW232452   6.778   7.173   3.912 -1.4276 -1.6154  0.7179
 7175SOL     OW32453   6.074   0.315   2.416 -0.1507 -0.5958  0.2345
 7175SOL    HW132454   6.147   0.286   2.478  0.1523 -2.7520 -1.1091
 7175SOL    HW232455   6.004   0.363   2.468  2.8130  2.7506  1.3753
 7176SOL     OW32456   1.778   3.348   3.406 -0.0797 -0.2999  0.1799
 7176SOL    HW132457   1.697   3.388   3.363 -0.2129 -0.1681  0.5477
 7176SOL    HW232458   1.858   3.366   3.349  0.1043  1.7279  1.0196
 7177SOL     OW32459   1.614   1.344   3.597  0.1539 -0.0309 -0.0980
 7177SOL    HW132460   1.555   1.385   3.527  0.4432  0.7495  0.1129
 7177SOL    HW232461   1.603   1.245   3.595  0.9598 -0.1028 -1.9943
 7178SOL     OW32462   7.789   4.763   1.026  0.3114  0.1174 -0.1533
 7178SOL    HW132463   7.810   4.861   1.024 -0.2040  0.2936  1.9697
 7178SOL    HW232464   7.693   4.748   1.004  0.2598  0.1393  0.0546
 7179SOL     OW32465   0.449   2.895   3.854  0.3845  0.2131 -0.3378
 7179SOL    HW132466   0.546   2.902   3.876 -0.3601  2.1233  2.5011
 7179SOL    HW232467   0.423   2.799   3.850  2.1997 -0.3010 -0.3184
 7180SOL     OW32468   8.881   0.553   0.718  0.2149  0.5303 -0.1093
 7180SOL    HW132469   8.817   0.582   0.646  0.4435  1.6201  0.1090
 7180SOL    HW232470   8.831   0.532   0.801  0.1707  1.9624  0.2440
 7181SOL     OW32471   1.243   2.504   1.291  0.0500  0.4619  0.0362
 7181SOL    HW132472   1.219   2.569   1.219  0.7219 -0.9652 -1.5325
 7181SOL    HW232473   1.343   2.501   1.301  0.1145 -1.3561 -0.9382
 7182SOL     OW32474   2.256   7.681   1.786  0.0936 -0.3199  0.0271
 7182SOL    HW132475   2.287   7.670   1.881  1.4559 -0.1150 -0.3902
 7182SOL    HW232476   2.322   7.639   1.724  0.5824  1.9459 -1.0163
 7183SOL     OW32477   8.071   0.329   0.245  0.1305  0.0328 -0.1922
 7183SOL    HW132478   7.987   0.356   0.198 -1.0298 -0.2158  1.6878
 7183SOL    HW232479   8.150   0.374   0.202 -1.2216  2.2563 -0.3614
 7184SOL     OW32480   4.522   0.794   4.226 -0.0988 -0.5283 -0.5817
 7184SOL    HW132481   4.458   0.832   4.160  0.5390 -1.6009 -1.8471
 7184SOL    HW232482   4.614   0.829   4.209  0.5188 -2.6552 -1.8452
 7185SOL     OW32483   1.298   8.855   2.089 -0.6511  0.5218  0.4494
 7185SOL    HW132484   1.326   8.883   1.997 -0.2188 -0.6907  0.1934
 7185SOL    HW232485   1.312   8.930   2.153 -1.6979  1.6516 -0.6048
 7186SOL     OW32486   7.904   2.668   2.337  0.2539 -0.1619  0.1768
 7186SOL    HW132487   7.823   2.616   2.309  1.0875 -1.5878  0.3394
 7186SOL    HW232488   7.880   2.764   2.346 -1.1256 -0.3671 -0.9928
 7187SOL     OW32489   2.323   0.501   4.927  0.0764  0.0516 -0.5126
 7187SOL    HW132490   2.230   0.536   4.941 -1.0010 -2.4920 -1.1039
 7187SOL    HW232491   2.330   0.408   4.964  2.8014  0.7280  0.7803
 7188SOL     OW32492   2.869   3.851   0.668 -0.5385 -0.6104  0.1497
 7188SOL    HW132493   2.943   3.916   0.650 -0.2748 -1.2941 -1.2660
 7188SOL    HW232494   2.863   3.835   0.767  1.0760 -0.4025  0.3013
 7189SOL     OW32495   3.097   0.835   5.491  0.3620  0.6218 -0.3408
 7189SOL    HW132496   3.002   0.804   5.492  0.2451  0.9407  2.2410
 7189SOL    HW232497   3.157   0.761   5.523  0.9773  0.4845 -1.7639
 7190SOL     OW32498   7.679   9.352   4.736  0.0255 -0.0778 -0.1693
 7190SOL    HW132499   7.777   9.372   4.729  0.0920 -0.0717  0.7784
 7190SOL    HW232500   7.645   9.322   4.647  1.2726 -1.8739 -0.0516
 7191SOL     OW32501   1.640   1.652   1.436 -0.5639  0.0565 -0.3565
 7191SOL    HW132502   1.699   1.730   1.416 -1.0277  0.1145 -1.5681
 7191SOL    HW232503   1.553   1.684   1.473 -1.0490  0.1718 -1.5764
 7192SOL     OW32504   4.543   2.938   1.418 -0.3168 -0.9830  0.0101
 7192SOL    HW132505   4.631   2.892   1.406 -0.7040 -1.9344  0.7840
 7192SOL    HW232506   4.555   3.036   1.405  0.8673 -1.1077  0.1311
 7193SOL     OW32507   5.689   1.305   2.701 -0.2494  0.3530 -0.3378
 7193SOL    HW132508   5.757   1.253   2.649 -0.3484  2.5635 -2.7376
 7193SOL    HW232509   5.611   1.245   2.721  1.8177 -1.8789  1.4544
 7194SOL     OW32510   7.632   0.323   2.718  0.2836  0.1456  0.1410
 7194SOL    HW132511   7.724   0.327   2.678  0.1799  1.1167 -0.0041
 7194SOL    HW232512   7.566   0.298   2.647  0.3980 -0.3612  0.2048
 7195SOL     OW32513   1.867   1.157   4.035 -0.2252 -0.0266 -0.7016
 7195SOL    HW132514   1.823   1.151   4.124  0.9649 -1.6541 -0.2071
 7195SOL    HW232515   1.836   1.082   3.977  1.4934 -0.9095 -0.5103
 7196SOL     OW32516   3.281   1.491   0.186  0.2016  0.0161  0.2245
 7196SOL    HW132517   3.281   1.396   0.215 -0.0946  0.2069  0.8868
 7196SOL    HW232518   3.256   1.549   0.264 -2.2759  0.4226 -0.8103
 7197SOL     OW32519   8.847   1.997   2.651 -0.4903 -0.2473  0.3205
 7197SOL    HW132520   8.852   1.923   2.718  0.2911 -0.1383  0.3825
 7197SOL    HW232521   8.819   1.960   2.562 -0.8549 -0.4964  0.5395
 7198SOL     OW32522   2.186   6.740   4.555  0.3575  0.6788  0.3282
 7198SOL    HW132523   2.160   6.662   4.613 -0.0645 -0.0791 -0.8549
 7198SOL    HW232524   2.180   6.713   4.459 -1.5179  2.7155 -0.1533
 7199SOL     OW32525   3.843   3.134   0.196  0.9214 -0.9710  0.2812
 7199SOL    HW132526   3.909   3.109   0.125  1.2532  1.9813 -0.5094
 7199SOL    HW232527   3.755   3.090   0.177  1.0559 -0.3577 -1.8910
 7200SOL     OW32528   4.783   2.648   0.648 -0.6802 -0.4611  0.0740
 7200SOL    HW132529   4.790   2.685   0.555  0.2113  0.1051  0.3615
 7200SOL    HW232530   4.809   2.552   0.647 -1.0947 -0.5714 -0.3382
 7201SOL     OW32531   4.403   0.673   4.736  0.5047 -0.3285  0.0869
 7201SOL    HW132532   4.451   0.758   4.715 -0.4873 -0.0132 -0.9901
 7201SOL    HW232533   4.395   0.662   4.835  0.8580  0.7042  0.2320
 7202SOL     OW32534   1.437   1.696   3.612  0.3426 -0.1295 -0.1295
 7202SOL    HW132535   1.427   1.646   3.526  1.8566 -1.1583  0.2812
 7202SOL    HW232536   1.507   1.653   3.668 -0.5953  0.5639  1.6171
 7203SOL     OW32537   0.658   2.265   0.266  0.5073 -0.1388  0.2335
 7203SOL    HW132538   0.573   2.309   0.294  0.5189 -0.0308  0.0998
 7203SOL    HW232539   0.725   2.335   0.241  0.6702 -0.2202  0.4376
 7204SOL     OW32540   2.784   5.012   2.967  0.2935  0.7417 -0.2235
 7204SOL    HW132541   2.881   4.989   2.977  0.4986  2.1352  1.1160
 7204SOL    HW232542   2.765   5.038   2.873  1.3443  1.0301 -0.3556
 7205SOL     OW32543   2.919   8.362   3.978 -0.0080 -0.5987  0.2204
 7205SOL    HW132544   2.860   8.443   3.974  0.0315 -0.5802 -0.0161
 7205SOL    HW232545   2.970   8.354   3.892  1.3259  0.1215  0.9405
 7206SOL     OW32546   1.786   7.886   2.943  0.1453 -0.2585 -0.1193
 7206SOL    HW132547   1.697   7.898   2.898  0.0548  1.0084  0.3712
 7206SOL    HW232548   1.775   7.896   3.042  0.8283 -0.1556 -0.0510
 7207SOL     OW32549   3.596   2.542   5.252  0.3261  0.1164  0.1727
 7207SOL    HW132550   3.530   2.535   5.178 -0.5607  0.2236  0.9437
 7207SOL    HW232551   3.618   2.451   5.287  1.0217  0.0388 -0.4581
 7208SOL     OW32552   8.586   0.099   1.845 -0.0282 -0.5834 -0.6220
 7208SOL    HW132553   8.619   0.187   1.810 -1.3377 -0.0884 -0.6417
 7208SOL    HW232554   8.486   0.101   1.851  0.1129 -0.7087  2.9584
 7209SOL     OW32555   2.416   0.236   4.219 -0.3931 -0.4653  0.0548
 7209SOL    HW132556   2.491   0.262   4.279  0.0390 -0.4485 -0.4831
 7209SOL    HW232557   2.417   0.136   4.207  0.4881 -0.3369 -1.1494
 7210SOL     OW32558   0.123   9.319   1.072 -0.2344 -0.1724  0.1487
 7210SOL    HW132559   0.208   9.372   1.063  0.2043 -0.5778  1.6145
 7210SOL    HW232560   0.067   9.331   0.990  1.2996 -0.0108 -0.8985
 7211SOL     OW32561   1.470   7.566   1.801 -0.1238  0.4571  0.3448
 7211SOL    HW132562   1.477   7.623   1.720  1.6277  1.7860  1.3978
 7211SOL    HW232563   1.468   7.624   1.883 -2.3103 -0.8300  1.2581
 7212SOL     OW32564   9.776   7.761   0.327  0.0880  0.1804  0.1433
 7212SOL    HW132565   9.721   7.680   0.306  0.6956  0.3919 -2.4337
 7212SOL    HW232566   9.873   7.738   0.322  0.2555  0.8714  0.1376
 7213SOL     OW32567   1.948   2.086   2.891 -0.5464  0.1190  0.2329
 7213SOL    HW132568   2.011   2.043   2.956 -0.1838 -1.1621 -0.9438
 7213SOL    HW232569   1.999   2.124   2.815 -1.0657  0.5790  0.1105
 7214SOL     OW32570   9.771   5.028   5.333 -0.1620 -0.1552  0.3313
 7214SOL    HW132571   9.754   4.929   5.338 -3.0122  0.2924  0.1297
 7214SOL    HW232572   9.815   5.050   5.246 -3.7704 -0.7214 -1.7307
 7215SOL     OW32573   8.678   6.473   2.066 -0.3220  0.2051 -0.6350
 7215SOL    HW132574   8.602   6.463   2.130  1.8312 -0.8117  1.8621
 7215SOL    HW232575   8.760   6.503   2.115  1.6677 -1.5853 -2.7081
 7216SOL     OW32576   3.837   0.337   1.698 -0.4418 -0.4105  0.2950
 7216SOL    HW132577   3.761   0.363   1.758 -0.3617 -0.2398  0.3239
 7216SOL    HW232578   3.827   0.385   1.610 -0.8778 -1.1119 -0.0404
 7217SOL     OW32579   4.279   0.225   2.595 -0.4935 -0.1464  0.6236
 7217SOL    HW132580   4.291   0.129   2.570 -0.7617 -0.0471  0.1087
 7217SOL    HW232581   4.244   0.276   2.517  0.6211  0.5762  0.5722
 7218SOL     OW32582   3.830   1.570   2.339 -0.2336 -0.3826  0.0564
 7218SOL    HW132583   3.917   1.529   2.309 -0.4224 -2.0505  1.6500
 7218SOL    HW232584   3.837   1.593   2.436 -0.7819  1.6980 -0.3931
 7219SOL     OW32585   3.323   9.322   0.691  0.0529 -0.1593  0.0041
 7219SOL    HW132586   3.299   9.235   0.735  2.2330 -0.4291  0.7045
 7219SOL    HW232587   3.370   9.381   0.757 -0.1209  0.9854 -0.8798
 7220SOL     OW32588   8.380   5.634   1.028  0.3240  0.0880  0.2727
 7220SOL    HW132589   8.296   5.582   1.042 -0.1203  1.0626  1.4076
 7220SOL    HW232590   8.359   5.732   1.028  1.1126  0.2831 -2.0121
 7221SOL     OW32591   2.673   5.855   0.726 -0.3112 -0.0368 -0.6287
 7221SOL    HW132592   2.721   5.931   0.769 -0.3010 -0.3665 -0.0487
 7221SOL    HW232593   2.576   5.877   0.718 -0.2750  0.1156 -0.6362
 7222SOL     OW32594   0.008   0.817   0.337 -0.2406  0.3597 -0.4736
 7222SOL    HW132595  -0.048   0.873   0.398  0.0304  0.2882 -0.1595
 7222SOL    HW232596  -0.004   0.848   0.243  0.0266  1.0409 -0.2841
 7223SOL     OW32597   1.065   1.476   1.027 -0.6211 -0.2369  0.2636
 7223SOL    HW132598   1.044   1.473   0.930 -1.5762 -0.9775  0.4864
 7223SOL    HW232599   1.152   1.524   1.041 -0.0913 -0.8011 -1.0152
 7224SOL     OW32600   3.483   7.521   3.035 -0.4169 -0.2469  0.2903
 7224SOL    HW132601   3.477   7.519   3.135  0.4598 -0.7551  0.3366
 7224SOL    HW232602   3.398   7.488   2.996 -0.6511 -0.3389  0.8727
 7225SOL     OW32603   3.826   5.217   1.124  0.1495 -0.0287  0.1087
 7225SOL    HW132604   3.853   5.313   1.130 -1.0965  0.2802  1.0417
 7225SOL    HW232605   3.727   5.210   1.138  0.2319 -1.4441  0.0099
 7226SOL     OW32606   2.115   4.802   0.781  0.5161 -0.2720 -0.0702
 7226SOL    HW132607   2.016   4.784   0.786  0.0290  1.9580 -0.9923
 7226SOL    HW232608   2.149   4.826   0.872 -0.3100  1.4085 -0.1920
 7227SOL     OW32609   4.058   7.451   3.107  0.3125  0.1738  0.6372
 7227SOL    HW132610   4.064   7.527   3.042 -1.2414  1.4806  1.9866
 7227SOL    HW232611   4.037   7.487   3.198  0.5471 -1.8079  1.4934
 7228SOL     OW32612   6.228   8.332   2.260  0.1760 -0.1439  0.4604
 7228SOL    HW132613   6.261   8.423   2.233  1.1940 -0.5178  0.4041
 7228SOL    HW232614   6.304   8.267   2.254 -0.4547 -0.9160  0.8786
 7229SOL     OW32615   7.466   4.860   0.181 -0.1056 -0.0280 -0.2501
 7229SOL    HW132616   7.405   4.844   0.103 -1.6657  1.3493  0.6291
 7229SOL    HW232617   7.561   4.845   0.154 -0.7447 -1.0856 -1.9779
 7230SOL     OW32618   9.065   1.415   4.091 -0.9122 -0.3126  0.4820
 7230SOL    HW132619   9.051   1.355   4.170  0.9157  1.1158  1.9182
 7230SOL    HW232620   8.985   1.409   4.031 -1.8541 -2.2543  1.8545
 7231SOL     OW32621   8.421   9.579   2.812  0.3779 -0.0248 -0.0992
 7231SOL    HW132622   8.408   9.655   2.748  0.8717  0.1850  0.0531
 7231SOL    HW232623   8.501   9.596   2.868  1.0472 -1.1172 -0.7095
 7232SOL     OW32624   9.255   2.846   1.426 -0.8734 -1.0702 -0.4118
 7232SOL    HW132625   9.334   2.785   1.433  0.3551  0.4731 -0.5655
 7232SOL    HW232626   9.249   2.882   1.333 -1.3324 -0.6503 -0.2197
 7233SOL     OW32627   6.599   0.457   4.825  0.7023  0.2788 -0.0457
 7233SOL    HW132628   6.542   0.378   4.848 -0.5877  0.9647 -0.7932
 7233SOL    HW232629   6.678   0.460   4.885 -1.7832  1.2108  3.3592
 7234SOL     OW32630   1.231   4.033   2.209 -0.2410 -0.2946  0.5286
 7234SOL    HW132631   1.230   4.018   2.110 -0.4437  1.1695  0.3025
 7234SOL    HW232632   1.326   4.040   2.241 -0.0965 -2.8801  0.7902
 7235SOL     OW32633   4.991   7.312   1.309 -0.1900  0.1662 -0.2000
 7235SOL    HW132634   5.080   7.268   1.315 -0.4098 -0.2265  0.1921
 7235SOL    HW232635   5.002   7.406   1.276  0.2212 -0.3553 -1.5560
 7236SOL     OW32636   4.211   6.860   3.444 -0.2564 -0.2285 -0.2892
 7236SOL    HW132637   4.237   6.859   3.540  0.6750 -1.7597 -0.5445
 7236SOL    HW232638   4.111   6.856   3.436 -0.3666  0.5340  0.6128
 7237SOL     OW32639   7.231   1.207   3.912  0.4376  0.3156  0.0633
 7237SOL    HW132640   7.177   1.260   3.847  2.2375 -1.6143 -3.1524
 7237SOL    HW232641   7.172   1.142   3.960 -0.9799  2.0300  0.7085
 7238SOL     OW32642   4.878   1.029   4.569  0.4691 -0.2099 -0.1225
 7238SOL    HW132643   4.887   0.991   4.476 -0.5929  1.4444 -0.9139
 7238SOL    HW232644   4.783   1.055   4.585  1.2755  2.6271  0.2004
 7239SOL     OW32645   3.686   8.114   5.486 -0.1877 -0.6771 -0.3803
 7239SOL    HW132646   3.595   8.107   5.529  0.5479 -0.0712  1.3420
 7239SOL    HW232647   3.728   8.023   5.484 -0.0785 -0.6524  0.5393
 7240SOL     OW32648   0.824   9.326   3.192  0.3065 -0.2557 -0.3773
 7240SOL    HW132649   0.831   9.235   3.150  1.7355 -0.3630  0.0900
 7240SOL    HW232650   0.757   9.380   3.141 -0.1981 -1.4034 -0.9604
 7241SOL     OW32651   8.534   0.540   3.772  0.1960 -0.4918  0.6208
 7241SOL    HW132652   8.437   0.557   3.755 -0.3950 -1.6651  2.6087
 7241SOL    HW232653   8.571   0.483   3.699 -0.3036  0.9311 -0.7612
 7242SOL     OW32654   0.328   0.347   0.107  0.0967  0.5840 -0.3485
 7242SOL    HW132655   0.364   0.430   0.066 -1.1096  1.8634  1.1256
 7242SOL    HW232656   0.359   0.340   0.202  0.1905 -0.6415 -0.4609
 7243SOL     OW32657   9.414   6.099   4.642  0.2610 -0.2545 -0.2753
 7243SOL    HW132658   9.480   6.166   4.676 -0.4859  0.5674 -0.4286
 7243SOL    HW232659   9.355   6.142   4.574  0.0430 -1.1875 -0.6931
 7244SOL     OW32660   8.865   5.444   0.895 -0.4060  0.3654 -0.3128
 7244SOL    HW132661   8.777   5.451   0.942 -0.0401 -1.3333  0.7076
 7244SOL    HW232662   8.888   5.347   0.883  1.7685  0.7736  0.3397
 7245SOL     OW32663   1.786   0.589   4.233 -0.1879  0.4029 -0.3345
 7245SOL    HW132664   1.877   0.598   4.192 -0.6718 -0.0708 -1.5251
 7245SOL    HW232665   1.724   0.657   4.193 -1.4743 -2.0704 -2.7076
 7246SOL     OW32666   2.792   0.736   3.857 -0.7793  0.0914 -0.2867
 7246SOL    HW132667   2.829   0.650   3.890  0.1142  0.7041  0.3329
 7246SOL    HW232668   2.751   0.786   3.933  0.6611  1.1932 -0.2092
 7247SOL     OW32669   8.846   9.624   2.520 -0.1549 -0.3769  0.3994
 7247SOL    HW132670   8.796   9.682   2.584  0.1115  0.6002 -0.2785
 7247SOL    HW232671   8.928   9.671   2.489  0.3239 -1.3094  0.2250
 7248SOL     OW32672   4.256   8.055   1.547  0.1460  0.1639  0.0680
 7248SOL    HW132673   4.199   8.125   1.590 -0.6619 -0.9884  0.9019
 7248SOL    HW232674   4.206   7.969   1.541  1.1549 -0.3785 -0.8776
 7249SOL     OW32675   8.747   6.556   1.817 -0.1217 -0.5410 -0.3119
 7249SOL    HW132676   8.709   6.506   1.895  0.9066 -1.3774 -0.3306
 7249SOL    HW232677   8.847   6.547   1.817  0.1356  1.8525 -0.0958
 7250SOL     OW32678   3.861   6.560   2.574  0.4705 -1.1330 -0.4922
 7250SOL    HW132679   3.940   6.522   2.526  1.0311  1.1620 -1.4752
 7250SOL    HW232680   3.778   6.533   2.526  0.8805 -0.8166 -1.4011
 7251SOL     OW32681   8.351   7.058   3.418  0.6253 -0.0664 -0.0480
 7251SOL    HW132682   8.274   6.997   3.395 -0.3870  2.3265 -3.3189
 7251SOL    HW232683   8.329   7.108   3.502  0.4326 -2.3757  1.3327
 7252SOL     OW32684   2.357   0.723   2.244 -0.3343 -0.2767  0.0616
 7252SOL    HW132685   2.328   0.735   2.149 -0.6801 -2.0786 -0.0751
 7252SOL    HW232686   2.401   0.807   2.276 -1.9803  1.0569 -1.0519
 7253SOL     OW32687   4.979   2.475   0.169 -0.1754 -0.5215  0.1583
 7253SOL    HW132688   4.946   2.456   0.076  1.0463 -2.0442 -0.0022
 7253SOL    HW232689   4.940   2.409   0.232 -1.0165  0.5246  0.7411
 7254SOL     OW32690   4.284   4.917   1.507 -0.2113 -1.0000 -0.0009
 7254SOL    HW132691   4.375   4.939   1.540  1.2671 -2.6493 -2.7846
 7254SOL    HW232692   4.267   4.966   1.421 -3.3400  1.9927  2.1989
 7255SOL     OW32693   7.138   0.836   3.076  0.2009 -0.0795 -0.5872
 7255SOL    HW132694   7.049   0.798   3.048  0.1211  0.0381 -0.4953
 7255SOL    HW232695   7.128   0.880   3.165  0.6056 -1.0373 -0.0626
 7256SOL     OW32696   2.881   5.600   1.238 -0.1996  0.1326  0.0183
 7256SOL    HW132697   2.834   5.678   1.198 -0.2936 -0.9911 -2.1572
 7256SOL    HW232698   2.821   5.555   1.305 -0.7787  0.9105  0.0228
 7257SOL     OW32699   3.782   4.703   2.027  0.1705 -0.1041  0.1106
 7257SOL    HW132700   3.699   4.758   2.031 -0.6088 -1.0360 -2.4908
 7257SOL    HW232701   3.849   4.749   1.968  0.9631 -0.1012  0.9943
 7258SOL     OW32702   9.638   8.334   4.175  0.5397  0.4726  0.1111
 7258SOL    HW132703   9.558   8.299   4.127 -0.3938  0.5172  1.6070
 7258SOL    HW232704   9.719   8.282   4.147 -0.4036 -1.1705  0.3675
 7259SOL     OW32705   8.499   0.258   3.852 -0.0875 -0.0790 -0.4262
 7259SOL    HW132706   8.522   0.340   3.799  1.5432 -1.0434 -1.2517
 7259SOL    HW232707   8.563   0.249   3.928 -1.5978  0.5647  0.9549
 7260SOL     OW32708   3.946   6.809   2.389 -0.4438 -0.0120  0.1504
 7260SOL    HW132709   3.926   6.900   2.354 -0.2466  0.2528  0.7221
 7260SOL    HW232710   3.915   6.740   2.324  1.3006  0.4925 -1.2491
 7261SOL     OW32711   5.160   2.679   2.033  0.2894  0.0138  0.1317
 7261SOL    HW132712   5.089   2.612   2.017 -0.9576  1.1158  0.8885
 7261SOL    HW232713   5.189   2.719   1.946  0.8065 -1.2514 -0.2847
 7262SOL     OW32714   0.578   7.076   2.920  0.2941 -0.1278  0.1686
 7262SOL    HW132715   0.677   7.084   2.926  0.4593 -1.0022 -1.1557
 7262SOL    HW232716   0.547   7.110   2.831 -0.4346 -1.1172  0.0340
 7263SOL     OW32717   3.735   7.546   1.401 -0.4471  0.6240 -0.4304
 7263SOL    HW132718   3.805   7.616   1.416  1.1894 -1.1034  0.3497
 7263SOL    HW232719   3.751   7.501   1.313  0.1956 -0.5793  0.2790
 7264SOL     OW32720   1.851   5.413   3.962  0.3671  0.4108 -0.2517
 7264SOL    HW132721   1.869   5.317   3.984  0.7716 -0.1212 -2.7783
 7264SOL    HW232722   1.938   5.462   3.957  0.2208  0.7110  0.1402
 7265SOL     OW32723   3.394   4.925   3.308  0.3216  0.0171 -0.3533
 7265SOL    HW132724   3.392   4.857   3.382  0.2240 -0.5131 -0.8466
 7265SOL    HW232725   3.408   5.016   3.348  1.2999 -0.3801  0.2381
 7266SOL     OW32726   3.450   8.135   1.559 -0.7097  0.1074 -0.7082
 7266SOL    HW132727   3.415   8.084   1.638  0.7490 -1.2492 -0.9235
 7266SOL    HW232728   3.448   8.233   1.580 -1.6015 -0.1481  0.4884
 7267SOL     OW32729   2.070   6.470   1.745 -0.0979  0.4213 -0.4380
 7267SOL    HW132730   2.019   6.410   1.807  1.9795 -0.8359  0.0925
 7267SOL    HW232731   2.120   6.538   1.799  1.2184 -0.2857 -0.7590
 7268SOL     OW32732   6.142   9.485   2.836 -0.1912  0.0059 -0.0417
 7268SOL    HW132733   6.207   9.415   2.866 -0.9441 -0.4036  0.6661
 7268SOL    HW232734   6.090   9.451   2.757 -0.6986 -0.3274  0.4280
 7269SOL     OW32735   1.357   5.462   1.677  0.0472  0.3225 -0.0917
 7269SOL    HW132736   1.312   5.551   1.667 -0.3401  0.1008 -0.3295
 7269SOL    HW232737   1.456   5.476   1.685 -0.0433  0.7963  0.2234
 7270SOL     OW32738   8.334   2.927   3.114  0.1761 -0.6965  0.2147
 7270SOL    HW132739   8.336   2.859   3.187  0.2601 -0.5584  0.3416
 7270SOL    HW232740   8.254   2.912   3.056  0.6137 -1.3824 -0.2127
 7271SOL     OW32741   9.583   2.741   1.078  0.0657 -0.4117 -0.1270
 7271SOL    HW132742   9.654   2.678   1.108  0.4433 -0.1213 -0.4153
 7271SOL    HW232743   9.587   2.752   0.979 -0.9762 -1.1087 -0.2536
 7272SOL     OW32744   2.951   8.438   5.247  0.2990  0.1134  1.1759
 7272SOL    HW132745   2.929   8.402   5.156 -0.3414  0.0457  1.3550
 7272SOL    HW232746   2.870   8.435   5.304  0.7150  0.1063  1.7710
 7273SOL     OW32747   3.254   5.774   0.600 -0.0331 -0.0163  0.0169
 7273SOL    HW132748   3.302   5.861   0.594  1.2856 -0.5751  1.8968
 7273SOL    HW232749   3.179   5.782   0.665  1.4917 -0.8445  1.9570
 7274SOL     OW32750   8.148   2.379   2.160 -0.1914 -0.1371 -0.6035
 7274SOL    HW132751   8.180   2.462   2.114  0.4928 -0.4081 -0.6368
 7274SOL    HW232752   8.064   2.398   2.210  0.5525  0.8474  0.2765
 7275SOL     OW32753   0.527   3.227   0.755  0.6162  0.4355 -0.2444
 7275SOL    HW132754   0.541   3.261   0.661 -0.7988  0.0168 -0.6170
 7275SOL    HW232755   0.434   3.191   0.764  1.2489 -0.9711  0.8837
 7276SOL     OW32756   3.568   9.908   0.645 -0.1437 -0.6773  0.6729
 7276SOL    HW132757   3.646   9.912   0.582 -0.0837  0.8571  0.8389
 7276SOL    HW232758   3.506   9.834   0.617  0.7713 -1.1450 -0.1413
 7277SOL     OW32759   8.722   1.506   1.941 -0.7236  0.3575  0.5587
 7277SOL    HW132760   8.664   1.516   1.861 -0.8783  1.4383  0.7950
 7277SOL    HW232761   8.813   1.545   1.922 -0.7399  0.5565  0.8768
 7278SOL     OW32762   2.606   7.502   5.204  0.3159 -0.1525 -0.1665
 7278SOL    HW132763   2.640   7.482   5.296  1.0800  0.6291 -0.2669
 7278SOL    HW232764   2.652   7.444   5.138  2.6000  1.9204 -0.4691
 7279SOL     OW32765   8.511   7.133   2.863 -0.0755 -0.4601 -0.4271
 7279SOL    HW132766   8.608   7.114   2.877 -0.4554 -0.8571  1.9194
 7279SOL    HW232767   8.483   7.206   2.926 -0.5363  2.1022 -3.4800
 7280SOL     OW32768   7.679   0.539   1.717 -0.1141  0.0285 -0.0080
 7280SOL    HW132769   7.706   0.634   1.729  0.6013 -0.1987  0.2487
 7280SOL    HW232770   7.581   0.530   1.731  0.2309  0.2683  2.9382
 7281SOL     OW32771   7.696   3.024   2.572  0.3227  0.2483  1.0368
 7281SOL    HW132772   7.716   2.980   2.660  0.5459 -0.7733  0.4831
 7281SOL    HW232773   7.758   3.101   2.558  3.4761 -2.4255 -0.3328
 7282SOL     OW32774   3.630   7.363   1.082  0.4515 -0.1280  0.2230
 7282SOL    HW132775   3.539   7.370   1.122  0.0627 -1.6125 -0.3679
 7282SOL    HW232776   3.622   7.343   0.985  1.4070  2.0177 -0.3413
 7283SOL     OW32777   8.946   2.871   5.486 -0.3402  0.3503  0.1761
 7283SOL    HW132778   9.022   2.855   5.422 -0.0961  0.6221  0.3952
 7283SOL    HW232779   8.879   2.931   5.444 -1.0745 -0.9268 -0.5103
 7284SOL     OW32780   1.145   9.835   0.724 -0.1534 -0.1391  0.4754
 7284SOL    HW132781   1.183   9.922   0.753  0.3335 -0.2848  0.2826
 7284SOL    HW232782   1.206   9.792   0.658 -1.2636  0.2101 -0.8079
 7285SOL     OW32783   7.769   8.005   3.042  0.2383  0.1305 -0.0648
 7285SOL    HW132784   7.859   8.020   3.083  0.8157 -2.6924 -0.1289
 7285SOL    HW232785   7.781   7.970   2.949 -0.8508 -2.0941  0.5992
 7286SOL     OW32786   4.746   2.424   4.182 -0.5840 -0.2287 -0.1659
 7286SOL    HW132787   4.715   2.335   4.148  0.7910  0.4748 -3.5163
 7286SOL    HW232788   4.688   2.496   4.143  0.2037  0.5388  0.0768
 7287SOL     OW32789   0.993   6.955   4.562  0.3961  0.2841 -0.6656
 7287SOL    HW132790   0.937   6.879   4.530 -0.5198  0.2403  0.9742
 7287SOL    HW232791   1.041   6.927   4.645  1.7045  0.8175 -1.2312
 7288SOL     OW32792   4.021   4.032   1.964 -0.0016  0.3931 -0.7599
 7288SOL    HW132793   4.092   3.983   2.014 -0.8015 -3.0087 -2.7668
 7288SOL    HW232794   4.049   4.043   1.869 -0.7462  2.0527 -0.8058
 7289SOL     OW32795   8.776   2.814   3.774 -0.0750  0.6099  0.8282
 7289SOL    HW132796   8.843   2.742   3.793  1.2066  1.4690 -0.3382
 7289SOL    HW232797   8.733   2.843   3.859  1.6581  0.6345  1.7068
 7290SOL     OW32798   8.439   6.097   0.192  0.1965 -0.6018  0.2242
 7290SOL    HW132799   8.471   6.154   0.268  1.4202 -1.8910  0.6939
 7290SOL    HW232800   8.510   6.092   0.122 -1.1904  1.1411 -1.3499
 7291SOL     OW32801   0.302   6.389   1.591 -0.3908 -0.4450 -0.6551
 7291SOL    HW132802   0.393   6.427   1.578 -0.1104 -1.3142 -1.2233
 7291SOL    HW232803   0.292   6.306   1.537 -1.2371 -0.8053  0.0402
 7292SOL     OW32804   0.741   3.828   1.540 -0.0818  0.0357  0.4007
 7292SOL    HW132805   0.802   3.772   1.596 -1.7634 -3.4591 -1.1056
 7292SOL    HW232806   0.749   3.799   1.445 -2.4012  1.0798 -0.1276
 7293SOL     OW32807   1.210   7.296   4.763 -0.0386  0.1333 -0.0901
 7293SOL    HW132808   1.114   7.319   4.751  0.4075  1.2706 -1.6210
 7293SOL    HW232809   1.238   7.231   4.692  0.5026  0.3196 -0.0460
 7294SOL     OW32810   1.856   6.150   2.012  0.2437  0.1422 -0.3115
 7294SOL    HW132811   1.850   6.161   1.913  0.8039  1.6037 -0.1897
 7294SOL    HW232812   1.910   6.224   2.051 -0.7710  0.1125  1.1962
 7295SOL     OW32813   3.899   7.678   1.811  0.3968  0.6104 -0.4029
 7295SOL    HW132814   3.806   7.650   1.787  0.9987 -0.4420 -1.6008
 7295SOL    HW232815   3.946   7.602   1.855  0.7368  1.0865  0.0483
 7296SOL     OW32816   2.896   2.365   3.348  0.1092  0.2214  0.1879
 7296SOL    HW132817   2.868   2.315   3.430  0.1555 -0.7083 -0.3584
 7296SOL    HW232818   2.928   2.301   3.279  1.5986  1.1229  0.0217
 7297SOL     OW32819   0.050   7.256   1.414 -0.2875 -0.1102 -0.1931
 7297SOL    HW132820  -0.035   7.224   1.457 -0.4627  0.4515 -0.1138
 7297SOL    HW232821   0.102   7.311   1.479 -0.5993  0.8258 -0.7194
 7298SOL     OW32822   5.477   9.310   1.364 -0.2872 -0.3736 -0.2469
 7298SOL    HW132823   5.394   9.362   1.340  0.7288  1.5092  0.2122
 7298SOL    HW232824   5.556   9.353   1.321  0.6202 -1.4208  0.3641
 7299SOL     OW32825   0.248   9.400   4.675  0.0921 -0.3384  0.3570
 7299SOL    HW132826   0.258   9.401   4.774  1.3782 -0.1504  0.2394
 7299SOL    HW232827   0.222   9.491   4.643  0.3359 -0.2260  0.4717
 7300SOL     OW32828   2.053   9.146   0.256 -0.6775 -0.5056 -0.2407
 7300SOL    HW132829   2.064   9.122   0.159 -2.7803 -0.7550 -0.4587
 7300SOL    HW232830   1.956   9.140   0.280 -0.3692  1.0762  1.4884
 7301SOL     OW32831   2.983   6.428   1.056  0.5032  0.6068 -0.0444
 7301SOL    HW132832   3.025   6.454   1.143 -1.1182  1.1360  0.5907
 7301SOL    HW232833   2.884   6.434   1.063  0.3684  1.3842 -2.1726
 7302SOL     OW32834   0.797   4.587   0.983 -0.3621 -0.1287 -0.0982
 7302SOL    HW132835   0.845   4.508   1.018 -2.4982 -1.9043 -1.0451
 7302SOL    HW232836   0.826   4.669   1.033  2.0989 -1.4273  0.6624
 7303SOL     OW32837   9.296   4.384   2.802  0.2837 -0.2690  0.2419
 7303SOL    HW132838   9.286   4.430   2.890  2.6980 -0.1168  0.4881
 7303SOL    HW232839   9.207   4.374   2.759 -0.5627  2.6073  1.2173
 7304SOL     OW32840   5.228   2.811   0.598  0.3456  0.4042 -0.0219
 7304SOL    HW132841   5.223   2.837   0.502 -1.1606 -2.9755 -0.9054
 7304SOL    HW232842   5.311   2.851   0.639  0.9239  1.9859 -2.6419
 7305SOL     OW32843   1.744   1.295   2.644 -0.6315 -0.1240 -0.1208
 7305SOL    HW132844   1.717   1.231   2.715 -0.7471 -1.5764 -1.4355
 7305SOL    HW232845   1.819   1.256   2.591 -1.7765  0.0935 -1.9674
 7306SOL     OW32846   9.899   3.086   2.290  0.1479  0.0225  0.1223
 7306SOL    HW132847   9.937   3.034   2.367  0.1810  0.6595  0.5483
 7306SOL    HW232848   9.908   3.184   2.310 -0.8756  0.1816 -0.1920
 7307SOL     OW32849   3.620   9.724   3.419 -0.6925 -0.6766  0.0702
 7307SOL    HW132850   3.615   9.800   3.484 -1.1847  0.0500 -0.8030
 7307SOL    HW232851   3.713   9.716   3.384 -0.8387  0.1240 -0.5261
 7308SOL     OW32852   0.670   8.026   3.856 -0.1756  0.4600  0.4223
 7308SOL    HW132853   0.770   8.023   3.853 -0.1262  0.7563  1.4778
 7308SOL    HW232854   0.640   8.111   3.898 -0.8599  0.1117  0.6634
 7309SOL     OW32855   9.836   8.472   3.515 -0.8372  0.1953 -0.1860
 7309SOL    HW132856   9.774   8.519   3.578 -0.7644 -1.5715  1.2367
 7309SOL    HW232857   9.787   8.452   3.430 -1.9524 -0.3470  0.5724
 7310SOL     OW32858   2.862   9.085   4.987  0.1546  0.1752  0.3149
 7310SOL    HW132859   2.845   9.131   4.900 -1.1803 -0.8343  0.0203
 7310SOL    HW232860   2.892   9.152   5.055  2.2524  0.8018 -1.1895
 7311SOL     OW32861   4.490   9.077   3.667 -0.6839 -0.3229 -0.0931
 7311SOL    HW132862   4.543   9.048   3.747  0.0714  0.1291 -0.4309
 7311SOL    HW232863   4.516   9.022   3.588 -0.1024  0.4717 -0.4587
 7312SOL     OW32864   0.518   2.024   0.250 -0.4090  0.0931 -0.5210
 7312SOL    HW132865   0.562   1.935   0.264  0.1779  0.7337  2.0838
 7312SOL    HW232866   0.588   2.096   0.249 -0.9879  0.6521 -1.3482
 7313SOL     OW32867   3.138   4.721   3.820  0.3110 -0.0263 -0.5681
 7313SOL    HW132868   3.041   4.740   3.810  0.4163  1.0635  0.4711
 7313SOL    HW232869   3.188   4.805   3.840  1.0117 -1.0513  2.2858
 7314SOL     OW32870   2.089   2.321   2.152 -0.2087  0.2073 -0.1837
 7314SOL    HW132871   2.102   2.350   2.246  0.2328  1.6614 -0.6805
 7314SOL    HW232872   2.171   2.343   2.098 -0.9053  0.4448 -1.1608
 7315SOL     OW32873   2.595   5.963   0.399  0.4525  0.7098  0.8541
 7315SOL    HW132874   2.627   5.936   0.308  0.8474  2.3791  0.4843
 7315SOL    HW232875   2.635   5.902   0.467 -0.2341 -0.8522 -0.1224
 7316SOL     OW32876   6.330   9.966   4.077 -0.3408  0.2307 -0.7627
 7316SOL    HW132877   6.248   9.912   4.096 -0.1712 -0.5308 -2.1543
 7316SOL    HW232878   6.411   9.908   4.085 -0.0121  0.7399 -0.3797
 7317SOL     OW32879   9.264   9.967   2.373  0.0764 -0.0300  0.4460
 7317SOL    HW132880   9.347   9.982   2.427  0.1232  3.2456 -0.4463
 7317SOL    HW232881   9.229  10.055   2.341 -3.0931 -1.4713 -0.1890
 7318SOL     OW32882   8.607   9.577   4.903 -1.1490 -0.3020  0.4550
 7318SOL    HW132883   8.547   9.548   4.978 -0.1723  0.8928  1.7016
 7318SOL    HW232884   8.635   9.496   4.850 -2.0694 -1.1152  1.1922
 7319SOL     OW32885   4.361   9.080   4.850  0.5642 -0.4591 -0.3721
 7319SOL    HW132886   4.401   9.078   4.758 -0.9450 -1.1533 -1.0328
 7319SOL    HW232887   4.428   9.048   4.916  1.5775 -0.2174 -1.2555
 7320SOL     OW32888   3.041   3.536   1.118  0.3232  0.1323  0.6920
 7320SOL    HW132889   2.989   3.514   1.201 -0.4784  0.7674  0.3713
 7320SOL    HW232890   3.119   3.474   1.110 -0.0020 -0.4000  1.5408
 7321SOL     OW32891   1.066   9.292   0.569 -0.6318  0.3525  0.2103
 7321SOL    HW132892   1.021   9.259   0.486  0.2968  1.7683 -0.8942
 7321SOL    HW232893   1.014   9.367   0.608  0.0750  1.1427 -0.3450
 7322SOL     OW32894   7.431   8.430   0.950  0.7975  0.0805 -0.1097
 7322SOL    HW132895   7.375   8.386   1.020 -0.3011  0.3876 -0.7892
 7322SOL    HW232896   7.421   8.529   0.956  1.5713  0.1573  0.0090
 7323SOL     OW32897   3.851   8.153   4.306 -1.0220 -0.4565 -0.5778
 7323SOL    HW132898   3.871   8.072   4.252  0.5805 -0.3925 -0.1037
 7323SOL    HW232899   3.843   8.127   4.403  0.1067  0.0269 -0.3455
 7324SOL     OW32900   8.577   6.724   2.222 -0.4386  0.1292  0.0101
 7324SOL    HW132901   8.526   6.642   2.246 -0.4330 -0.1773 -1.0027
 7324SOL    HW232902   8.669   6.719   2.262  0.1392 -1.1457 -1.4299
 7325SOL     OW32903   6.155   7.216   3.154  0.9471  0.3613  0.3606
 7325SOL    HW132904   6.225   7.187   3.089  0.5068  0.4108 -0.1368
 7325SOL    HW232905   6.199   7.247   3.239  1.5528  0.9460 -0.1614
 7326SOL     OW32906   3.141   3.408   1.491 -0.2691  0.4212  0.3430
 7326SOL    HW132907   3.116   3.384   1.585  1.5049 -1.1712  0.4438
 7326SOL    HW232908   3.059   3.413   1.435 -1.2546  0.2815  1.7452
 7327SOL     OW32909   0.333   3.286   3.563 -0.2530 -0.2325 -0.2817
 7327SOL    HW132910   0.331   3.267   3.464 -1.0079 -0.9993 -0.1202
 7327SOL    HW232911   0.413   3.343   3.584 -0.2941  0.2501 -1.3920
 7328SOL     OW32912   3.077   2.824   2.281  0.2022 -0.1353 -0.3190
 7328SOL    HW132913   3.106   2.732   2.305  0.6516 -0.3056 -1.4735
 7328SOL    HW232914   3.127   2.890   2.337  1.2752 -0.5211 -0.7963
 7329SOL     OW32915   1.591   6.253   5.254 -1.2866  0.0147  0.5367
 7329SOL    HW132916   1.616   6.295   5.341 -0.0391  0.4113  0.0091
 7329SOL    HW232917   1.635   6.164   5.246 -2.3785 -0.5593  0.8240
 7330SOL     OW32918   1.639   7.301   5.273  0.1044 -0.0720  0.0918
 7330SOL    HW132919   1.711   7.369   5.263  1.6203 -1.3307  2.0705
 7330SOL    HW232920   1.588   7.293   5.187  1.2701  1.9809 -0.8219
 7331SOL     OW32921   0.186   5.697   4.926  0.6370  0.7007 -0.4443
 7331SOL    HW132922   0.177   5.785   4.880 -1.0643  0.3676 -0.7798
 7331SOL    HW232923   0.170   5.708   5.024 -1.6899  0.4542 -0.7609
 7332SOL     OW32924   1.967   0.309   2.059 -0.5044  0.4152 -0.3719
 7332SOL    HW132925   1.906   0.322   2.137  0.6682 -1.0076  0.8098
 7332SOL    HW232926   1.943   0.224   2.012 -0.1699  0.4488 -0.6031
 7333SOL     OW32927   0.339   3.866   2.644  0.5604  0.5866 -0.1350
 7333SOL    HW132928   0.330   3.768   2.629 -0.2507  0.7126 -0.4723
 7333SOL    HW232929   0.287   3.892   2.725  0.8660  0.7242  0.0190
 7334SOL     OW32930   8.085   0.854   2.303 -0.6941 -0.0128 -0.6156
 7334SOL    HW132931   8.124   0.937   2.264  1.4244 -0.1062  1.1854
 7334SOL    HW232932   8.092   0.779   2.237  1.6665  0.1340 -0.5877
 7335SOL     OW32933   3.503   2.171   3.610 -0.1885  0.1416 -0.0909
 7335SOL    HW132934   3.415   2.128   3.632  0.2266  0.5525  2.5381
 7335SOL    HW232935   3.489   2.266   3.583 -0.6016 -0.0218 -0.4559
 7336SOL     OW32936   2.601   9.366   0.856  0.3675 -0.1274  0.2478
 7336SOL    HW132937   2.685   9.321   0.887  0.3695 -1.2802 -1.4254
 7336SOL    HW232938   2.612   9.397   0.762 -0.0754  2.3153  0.9562
 7337SOL     OW32939   5.568   1.636   4.135 -0.0404 -0.3384  0.3723
 7337SOL    HW132940   5.518   1.717   4.166 -0.0448  0.1546 -0.8624
 7337SOL    HW232941   5.511   1.585   4.070  0.8751  0.0118 -0.7361
 7338SOL     OW32942   9.642   7.979   3.974  0.0968 -0.4125 -0.7386
 7338SOL    HW132943   9.580   8.014   4.045  1.9817 -0.9760  1.2405
 7338SOL    HW232944   9.641   8.041   3.896 -0.9526  0.9917  0.3532
 7339SOL     OW32945   7.969   7.052   3.043  0.0371 -0.2161 -0.6265
 7339SOL    HW132946   7.903   7.031   2.972  0.1257 -1.1725 -0.4436
 7339SOL    HW232947   8.037   6.978   3.048 -0.1644 -0.3326  0.6664
 7340SOL     OW32948   2.023   3.688   3.560  0.1597 -0.1773 -0.2846
 7340SOL    HW132949   1.992   3.781   3.539  1.1239  0.8609  2.7554
 7340SOL    HW232950   1.947   3.636   3.598  0.7246  0.7592  2.2014
 7341SOL     OW32951   1.831   4.434   4.499 -0.4025 -0.2104 -0.3080
 7341SOL    HW132952   1.810   4.499   4.426  1.8163 -0.4837 -1.2351
 7341SOL    HW232953   1.759   4.365   4.504 -0.7001 -0.0587 -2.1230
 7342SOL     OW32954   8.647   5.898   4.632  0.5523 -0.2727  0.4045
 7342SOL    HW132955   8.658   5.984   4.682  3.6352 -0.0055 -0.6673
 7342SOL    HW232956   8.719   5.834   4.661 -1.2217 -2.2263  0.5941
 7343SOL     OW32957   1.929   9.286   2.511  0.6562 -0.3847  0.4436
 7343SOL    HW132958   1.863   9.225   2.467  1.3140 -0.1469 -0.9229
 7343SOL    HW232959   1.913   9.289   2.609  0.5694 -2.7206  0.5234
 7344SOL     OW32960  10.003   9.678   0.180 -0.3518 -0.1277  0.0045
 7344SOL    HW132961   9.943   9.600   0.199 -1.8826  1.1704  0.6069
 7344SOL    HW232962   9.950   9.751   0.137  0.9766  0.7380 -0.1770
 7345SOL     OW32963   1.210   5.004   0.130  0.2879 -0.3654  0.3376
 7345SOL    HW132964   1.241   4.910   0.115 -1.2315 -0.5006 -2.3540
 7345SOL    HW232965   1.132   5.022   0.071  0.9449  2.7964  0.3772
 7346SOL     OW32966   4.074   0.521   5.537  0.2050  0.6398 -0.4043
 7346SOL    HW132967   4.032   0.610   5.520 -0.6127  0.6277  1.4686
 7346SOL    HW232968   4.056   0.493   5.631 -0.4152 -1.9737 -1.2756
 7347SOL     OW32969   9.639   3.218   5.037  0.7387  0.6304  0.0434
 7347SOL    HW132970   9.644   3.207   5.136  1.6084 -0.4176 -0.1105
 7347SOL    HW232971   9.667   3.311   5.013  0.0347  1.0489  0.8122
 7348SOL     OW32972   3.475   7.488   3.309  0.8592 -0.7433 -0.0758
 7348SOL    HW132973   3.378   7.466   3.322  0.7051  0.1528  0.3174
 7348SOL    HW232974   3.531   7.409   3.334  0.3078 -0.7299  1.2234
 7349SOL     OW32975   2.583   9.689   5.234  0.0172  0.3945 -0.0131
 7349SOL    HW132976   2.558   9.604   5.189  1.0886  1.1960 -2.1916
 7349SOL    HW232977   2.507   9.719   5.293 -1.3497 -0.7738 -1.1440
 7350SOL     OW32978   7.931   0.212   4.477 -0.0201 -0.0978 -0.0005
 7350SOL    HW132979   7.896   0.232   4.569 -0.6044  1.6151 -0.5756
 7350SOL    HW232980   7.985   0.129   4.480  0.4609  0.2549  2.0237
 7351SOL     OW32981   2.876   8.526   1.498  0.1649 -0.1483 -0.0906
 7351SOL    HW132982   2.926   8.445   1.532 -1.2578 -0.5138  1.1816
 7351SOL    HW232983   2.790   8.535   1.548 -0.3160  1.3926 -1.1765
 7352SOL     OW32984   8.809   4.466   0.778 -0.0624  0.3207  0.2431
 7352SOL    HW132985   8.759   4.410   0.845 -2.0096  0.6506 -0.8967
 7352SOL    HW232986   8.817   4.559   0.813  1.3597 -0.1558  1.2264
 7353SOL     OW32987   2.547   1.154   1.697  0.2827 -0.2475 -0.1330
 7353SOL    HW132988   2.604   1.230   1.729 -0.4963  0.0814  0.5052
 7353SOL    HW232989   2.473   1.137   1.763  1.5074 -2.7670  0.6474
 7354SOL     OW32990   1.618   3.117   3.476 -0.0968 -0.7471  0.0405
 7354SOL    HW132991   1.553   3.120   3.400  1.4412  0.7301 -1.2913
 7354SOL    HW232992   1.688   3.187   3.461 -0.4660  0.4514  3.4922
 7355SOL     OW32993   0.500   6.355   5.613 -0.3958 -0.0509  0.0332
 7355SOL    HW132994   0.411   6.385   5.646  0.0614  0.1071  1.1553
 7355SOL    HW232995   0.524   6.405   5.530 -0.8524  0.7172  0.3591
 7356SOL     OW32996   3.951   0.065   4.243 -0.2409  0.0877 -0.4474
 7356SOL    HW132997   4.011  -0.010   4.214 -0.7111 -0.1743 -0.7321
 7356SOL    HW232998   3.975   0.149   4.194  0.3124  0.1403 -0.0995
 7357SOL     OW32999   2.029   9.606   0.022 -0.0362  0.4342 -0.4159
 7357SOL    HW133000   2.068   9.604  -0.070 -1.1237 -1.6051 -0.8692
 7357SOL    HW233001   2.073   9.538   0.079  0.2424  1.3082  0.4338
 7358SOL     OW33002   9.068   0.690   2.300  0.3923  0.4570 -0.1381
 7358SOL    HW133003   9.017   0.661   2.219 -0.5091  0.6971  0.3399
 7358SOL    HW233004   9.112   0.610   2.342 -0.4586  0.0904  0.0505
 7359SOL     OW33005   7.483   6.540   2.780  0.2898  0.3986 -0.0710
 7359SOL    HW133006   7.531   6.626   2.765 -1.2462  1.1316 -0.8979
 7359SOL    HW233007   7.473   6.492   2.692 -0.3306  0.1755  0.1206
 7360SOL     OW33008   1.201   8.025   0.514 -0.4546 -0.0218 -0.4897
 7360SOL    HW133009   1.277   8.073   0.557  0.8435  0.3627 -3.1565
 7360SOL    HW233010   1.116   8.049   0.562  1.0098 -0.3572  2.4219
 7361SOL     OW33011   9.254   2.754   3.018 -0.3417  0.5336  0.8314
 7361SOL    HW133012   9.310   2.809   2.956  0.8148 -0.6102  0.8317
 7361SOL    HW233013   9.176   2.716   2.967  1.0776 -1.1241 -0.1861
 7362SOL     OW33014   2.245   7.016   0.973  0.0948  0.2258 -0.1828
 7362SOL    HW133015   2.218   6.996   1.067 -0.5131  1.3554 -0.1059
 7362SOL    HW233016   2.239   6.933   0.918 -0.4389 -0.2365  0.5623
 7363SOL     OW33017   7.382   0.692   3.908  0.3179  0.5837  0.7811
 7363SOL    HW133018   7.313   0.698   3.835  2.0882  0.4420 -0.9254
 7363SOL    HW233019   7.404   0.784   3.941  0.9715  0.7931 -0.2453
 7364SOL     OW33020   9.333   9.835   0.695 -0.4259  0.0446  0.3005
 7364SOL    HW133021   9.399   9.897   0.653  1.3404 -2.7408 -1.1858
 7364SOL    HW233022   9.349   9.831   0.793 -0.3312  1.6259  0.3621
 7365SOL     OW33023   4.930   8.689   1.261 -0.0369  0.4794  0.2768
 7365SOL    HW133024   4.998   8.757   1.288 -1.1635  0.8910  2.1105
 7365SOL    HW233025   4.927   8.615   1.328 -1.0209  0.2033 -0.0570
 7366SOL     OW33026   1.724   0.759   1.479  0.3383  0.4048 -0.1120
 7366SOL    HW133027   1.708   0.787   1.574 -1.0160 -2.1983  0.4693
 7366SOL    HW233028   1.799   0.694   1.474 -0.7175 -0.8144 -0.5626
 7367SOL     OW33029   3.516   5.806   0.808  0.1869 -0.2375  0.5353
 7367SOL    HW133030   3.548   5.812   0.714  0.2890  0.1208  0.5918
 7367SOL    HW233031   3.442   5.739   0.815  2.3530 -2.6592  0.7864
 7368SOL     OW33032   0.508   1.804   5.317 -0.5340 -0.1682 -0.7534
 7368SOL    HW133033   0.565   1.731   5.355  0.9841  0.9217 -0.9152
 7368SOL    HW233034   0.481   1.866   5.391 -2.9505 -1.5932 -0.3726
 7369SOL     OW33035   3.289   7.002   0.303  0.0796  0.2019  0.2835
 7369SOL    HW133036   3.362   7.062   0.334  0.6156  0.0839 -0.7040
 7369SOL    HW233037   3.269   7.020   0.206 -1.6839  0.7141  0.7197
 7370SOL     OW33038   0.335   6.603   4.213  0.0445 -0.1990  0.4152
 7370SOL    HW133039   0.237   6.585   4.208 -0.1425  0.8826 -0.0585
 7370SOL    HW233040   0.356   6.649   4.299  0.3350 -1.5390  1.0765
 7371SOL     OW33041   3.408   4.757   1.358 -0.1941  0.9079  0.2603
 7371SOL    HW133042   3.417   4.854   1.381  1.1893  1.0602 -0.8875
 7371SOL    HW233043   3.481   4.705   1.404 -0.0369  0.6207 -0.3139
 7372SOL     OW33044   3.106   0.761   0.231 -0.3604 -0.5713 -0.5119
 7372SOL    HW133045   3.123   0.710   0.147 -2.7180 -0.0955 -1.3248
 7372SOL    HW233046   3.156   0.848   0.227  1.3484 -1.5136 -0.3865
 7373SOL     OW33047   2.238   0.827   3.714 -0.4035  0.7494 -0.1429
 7373SOL    HW133048   2.325   0.851   3.757 -0.5863 -0.3616  0.8747
 7373SOL    HW233049   2.166   0.889   3.748 -1.0765 -1.7677  3.2678
 7374SOL     OW33050   2.488   4.998   2.351 -0.3182  0.5610  0.0336
 7374SOL    HW133051   2.556   4.926   2.368 -0.7093  0.7365  2.4842
 7374SOL    HW233052   2.527   5.067   2.290 -0.0257 -1.8298 -2.5810
 7375SOL     OW33053   0.727   3.446   4.104  0.3413  0.6586  0.4932
 7375SOL    HW133054   0.731   3.352   4.138 -1.5344  1.1640  2.2151
 7375SOL    HW233055   0.730   3.510   4.182 -0.3666  1.9613 -0.5213
 7376SOL     OW33056   7.067   0.405   1.364  0.3716 -0.0682  0.5686
 7376SOL    HW133057   7.054   0.462   1.282  0.9267  0.3012  0.7326
 7376SOL    HW233058   7.104   0.316   1.337 -2.8328 -1.2971  0.0551
 7377SOL     OW33059   9.326   9.525   5.219  0.3339 -0.0900 -0.1171
 7377SOL    HW133060   9.313   9.585   5.297  0.4198  0.5032 -0.5551
 7377SOL    HW233061   9.335   9.580   5.136 -3.7609 -0.8155 -1.1393
 7378SOL     OW33062   1.717   3.588   5.034  0.1537 -0.1342  0.2807
 7378SOL    HW133063   1.794   3.582   4.971 -0.0032 -1.1121  0.1733
 7378SOL    HW233064   1.673   3.499   5.042 -0.8314  0.3615  0.5214
 7379SOL     OW33065   0.752   0.038   5.609  0.3010 -0.0894  0.6740
 7379SOL    HW133066   0.827   0.103   5.621  0.1401  0.4416 -1.0310
 7379SOL    HW233067   0.776  -0.049   5.652  2.1201 -0.0828 -0.2686
 7380SOL     OW33068   0.669   1.668   5.503 -0.0778  0.0133 -0.2329
 7380SOL    HW133069   0.738   1.597   5.493  0.6496  0.7616 -0.5698
 7380SOL    HW233070   0.699   1.735   5.571 -1.1403 -0.4436  0.7152
 7381SOL     OW33071   8.109   6.959   4.300 -0.2583 -0.2425  0.2805
 7381SOL    HW133072   8.169   6.880   4.290 -1.0091 -0.7210 -0.5648
 7381SOL    HW233073   8.027   6.946   4.243 -0.4948  1.0368  0.3125
 7382SOL     OW33074   2.047   2.847   3.793 -0.9241  0.3862  0.5999
 7382SOL    HW133075   1.991   2.925   3.762  1.2361  2.3162  1.4411
 7382SOL    HW233076   2.054   2.849   3.892  1.0983  0.5156  0.4652
 7383SOL     OW33077   9.075   6.087   5.543  0.0131 -0.2749 -0.4961
 7383SOL    HW133078   9.004   6.048   5.602  1.2076  0.2633  1.3579
 7383SOL    HW233079   9.040   6.096   5.450 -1.6850 -1.8355 -0.0492
 7384SOL     OW33080   8.448   7.835   3.717  0.0165 -0.2975 -0.4648
 7384SOL    HW133081   8.419   7.868   3.807  1.8037  0.9277 -0.3005
 7384SOL    HW233082   8.431   7.905   3.648  0.3421 -0.5077 -0.7632
 7385SOL     OW33083   2.540   1.370   3.568  0.4492 -0.4366 -0.4498
 7385SOL    HW133084   2.574   1.334   3.482  0.8165  0.5643 -0.7237
 7385SOL    HW233085   2.572   1.312   3.643  1.9291 -0.0700 -0.7886
 7386SOL     OW33086   8.437   0.213   2.761 -0.5889  1.2493  0.3861
 7386SOL    HW133087   8.360   0.275   2.745 -0.9564  0.3666 -1.3889
 7386SOL    HW233088   8.464   0.170   2.675  2.2855  1.9544  0.8775
 7387SOL     OW33089   6.229   7.708   2.262  0.4531  0.3120 -0.2671
 7387SOL    HW133090   6.313   7.756   2.234  2.1634 -2.0263  0.6591
 7387SOL    HW233091   6.253   7.615   2.291 -2.1310  0.5158  2.6964
 7388SOL     OW33092   0.967   4.748   1.688 -0.8833 -0.6436 -0.0886
 7388SOL    HW133093   1.044   4.804   1.718 -0.3952 -1.2016 -0.2931
 7388SOL    HW233094   0.884   4.804   1.688 -0.8110 -0.4989  1.7997
 7389SOL     OW33095   5.634   7.318   4.062  0.3203 -0.0764  0.6505
 7389SOL    HW133096   5.610   7.413   4.082 -1.3092 -0.2981 -0.1911
 7389SOL    HW233097   5.574   7.257   4.113  0.6499 -0.6395  0.3675
 7390SOL     OW33098   8.417   4.115   4.218  0.4706 -0.8834  0.6534
 7390SOL    HW133099   8.464   4.149   4.137 -1.9645 -0.0634 -0.4605
 7390SOL    HW233100   8.430   4.179   4.294  1.0567 -0.6161  0.3275
 7391SOL     OW33101   2.597   5.873   4.484 -0.0806 -0.5531 -0.3028
 7391SOL    HW133102   2.619   5.791   4.432  3.5699 -1.0338  1.8188
 7391SOL    HW233103   2.561   5.847   4.574 -1.5216  0.2204 -0.6408
 7392SOL     OW33104   7.682   8.695   3.925  0.1302  0.2325 -0.2806
 7392SOL    HW133105   7.610   8.755   3.961 -2.1888 -3.5277  1.6301
 7392SOL    HW233106   7.756   8.689   3.991 -0.6439 -0.7126  0.5105
 7393SOL     OW33107   2.658   3.944   0.542  0.2025  0.6459  0.0661
 7393SOL    HW133108   2.745   3.906   0.575  1.1118  2.1446 -0.5245
 7393SOL    HW233109   2.583   3.908   0.597  1.6052  2.5900  3.4369
 7394SOL     OW33110   2.874   1.005   5.165  0.1383  0.0614 -0.4262
 7394SOL    HW133111   2.854   0.909   5.147  2.0247 -0.0494 -2.1321
 7394SOL    HW233112   2.937   1.011   5.243  0.0873 -0.0999 -0.3722
 7395SOL     OW33113   7.751   2.321   5.501 -0.6177 -0.4907  0.1463
 7395SOL    HW133114   7.756   2.300   5.403  0.8668 -1.9510  0.5115
 7395SOL    HW233115   7.729   2.238   5.552  1.7017 -0.4534  1.3027
 7396SOL     OW33116   3.937   1.359   0.656  0.6234  0.2048 -0.2642
 7396SOL    HW133117   3.874   1.283   0.635 -0.4519  1.3709 -1.3491
 7396SOL    HW233118   3.960   1.407   0.572  0.8921  1.4053  0.4865
 7397SOL     OW33119   0.560   5.157   3.300 -0.4188  0.3305  0.1741
 7397SOL    HW133120   0.558   5.215   3.218 -2.1611 -2.1989 -1.6363
 7397SOL    HW233121   0.483   5.181   3.359 -0.8309  0.2263 -0.3155
 7398SOL     OW33122   2.856   7.785   3.495 -0.1632 -0.0990 -0.6255
 7398SOL    HW133123   2.876   7.870   3.545  0.9734  0.1148 -1.4064
 7398SOL    HW233124   2.858   7.708   3.558  2.4953  0.0069 -0.5028
 7399SOL     OW33125   2.339   8.760   3.071 -0.5086 -0.3041  0.3262
 7399SOL    HW133126   2.336   8.802   2.980 -0.5928  0.6380  0.7555
 7399SOL    HW233127   2.433   8.762   3.105  0.1180 -3.5461 -1.0528
 7400SOL     OW33128   1.868   3.911   3.553  0.0830  0.9262 -0.2006
 7400SOL    HW133129   1.851   4.005   3.581 -1.5389  0.6921 -0.2967
 7400SOL    HW233130   1.799   3.851   3.595  0.9835 -0.1977 -0.2786
 7401SOL     OW33131   1.153   8.943   4.375 -0.6814  0.2866  0.0885
 7401SOL    HW133132   1.139   9.033   4.417  0.9731  0.6221 -0.0630
 7401SOL    HW233133   1.074   8.920   4.318 -2.1532  0.6242  1.9280
 7402SOL     OW33134   1.391   8.739   1.134  0.5862 -0.5020 -0.0093
 7402SOL    HW133135   1.312   8.684   1.161  0.5413 -0.4220  0.0223
 7402SOL    HW233136   1.430   8.701   1.050 -1.2777  1.1684 -1.6870
 7403SOL     OW33137   8.146   5.066   4.002 -0.2780 -0.5224  0.1373
 7403SOL    HW133138   8.104   5.047   4.090 -0.1725 -0.4257  0.2099
 7403SOL    HW233139   8.120   4.996   3.935 -1.4950  0.1783 -0.1303
 7404SOL     OW33140   6.983   5.202   5.367 -0.1967  0.1008  0.2392
 7404SOL    HW133141   6.914   5.192   5.438 -1.2741  0.4800 -0.7454
 7404SOL    HW233142   7.042   5.280   5.389 -1.0338  0.7218  0.3182
 7405SOL     OW33143   0.611   5.958   0.695 -0.4211  0.5355 -0.4321
 7405SOL    HW133144   0.661   6.029   0.744 -0.1820  1.2483 -1.6757
 7405SOL    HW233145   0.668   5.921   0.621  0.0094 -2.0152  1.1145
 7406SOL     OW33146   7.355   8.232   1.205 -0.2344  0.2561 -0.2090
 7406SOL    HW133147   7.375   8.160   1.139 -1.1776 -0.1936 -0.0059
 7406SOL    HW233148   7.350   8.192   1.297 -1.6480  0.4221 -0.2016
 7407SOL     OW33149   0.728   7.584   1.627  0.1182  0.1927  0.4131
 7407SOL    HW133150   0.745   7.616   1.534  0.0093 -1.8622 -0.3408
 7407SOL    HW233151   0.807   7.605   1.685  1.0391 -0.3159 -0.6460
 7408SOL     OW33152   9.509   3.254   2.760 -0.4694  0.1825 -0.9591
 7408SOL    HW133153   9.459   3.303   2.831 -0.5475 -0.5942 -0.4712
 7408SOL    HW233154   9.577   3.194   2.803 -0.3496 -0.1048 -1.5472
 7409SOL     OW33155   1.753   1.448   4.953 -0.2513 -0.0626  0.1021
 7409SOL    HW133156   1.669   1.489   4.990  0.5687  1.3657  0.3937
 7409SOL    HW233157   1.784   1.501   4.875  0.7407 -0.1993  0.4013
 7410SOL     OW33158   5.264   9.485   1.292 -0.4402 -0.1200  0.5498
 7410SOL    HW133159   5.292   9.487   1.196 -0.4539  0.1697  0.5508
 7410SOL    HW233160   5.174   9.443   1.299 -0.4960 -0.0244  0.4206
 7411SOL     OW33161   5.005   1.788   2.258 -1.2596 -0.2046  0.1501
 7411SOL    HW133162   4.984   1.851   2.333  0.6669  1.1848 -0.4359
 7411SOL    HW233163   4.931   1.791   2.191 -1.4221  1.0542  0.3763
 7412SOL     OW33164   0.902   4.478   1.686  0.4377 -0.0461  0.0482
 7412SOL    HW133165   0.934   4.571   1.666  1.7277 -0.7659 -1.2944
 7412SOL    HW233166   0.962   4.436   1.754 -0.2773  0.1538  0.8234
 7413SOL     OW33167   7.472   0.690   1.062 -0.0204 -0.4772 -0.0272
 7413SOL    HW133168   7.556   0.728   1.101  0.8626 -0.5359 -1.8546
 7413SOL    HW233169   7.412   0.765   1.033  0.4594 -0.4614 -0.9685
 7414SOL     OW33170   4.237   8.236   5.516 -0.6406  0.0585  0.2894
 7414SOL    HW133171   4.221   8.199   5.424 -0.3618 -0.6112  0.5074
 7414SOL    HW233172   4.222   8.164   5.584 -0.3996  0.4314  0.7401
 7415SOL     OW33173   2.794   3.543   1.011 -0.2642  0.3438  0.9369
 7415SOL    HW133174   2.744   3.630   1.022 -0.9967 -0.0906  1.1055
 7415SOL    HW233175   2.886   3.553   1.049 -0.2823  1.1008  0.8019
 7416SOL     OW33176   9.041   4.471   1.361  0.2371 -0.0178  0.2617
 7416SOL    HW133177   9.096   4.499   1.282 -0.2769 -1.8110 -0.7580
 7416SOL    HW233178   9.102   4.443   1.435  0.7221  1.5466  0.4693
 7417SOL     OW33179   1.159   2.417   4.199 -0.3763 -0.1974  0.1967
 7417SOL    HW133180   1.078   2.451   4.151 -0.6371  0.3984  1.0435
 7417SOL    HW233181   1.217   2.367   4.135 -0.7297  0.5618 -0.7286
 7418SOL     OW33182   0.203   2.617   3.147  0.1871  0.3023  0.5085
 7418SOL    HW133183   0.296   2.619   3.110  0.1420  0.6287  0.4154
 7418SOL    HW233184   0.143   2.674   3.091  0.0502  0.5491  0.9065
 7419SOL     OW33185   2.363   3.164   0.847  0.0395  0.0938  0.6086
 7419SOL    HW133186   2.325   3.073   0.863  0.3799 -0.5935 -2.1633
 7419SOL    HW233187   2.305   3.233   0.889 -1.2488 -1.2871  1.1346
 7420SOL     OW33188   3.306   9.008   4.715 -0.4688 -0.3449  0.5084
 7420SOL    HW133189   3.383   9.046   4.664 -0.7365  1.6210  1.5377
 7420SOL    HW233190   3.291   8.913   4.686  2.8320 -1.0253  0.8825
 7421SOL     OW33191   3.989   7.291   1.703  0.3408  1.1597  0.2832
 7421SOL    HW133192   4.033   7.365   1.752  2.2522  1.3008 -1.5976
 7421SOL    HW233193   4.050   7.212   1.699 -1.0692  0.0192  0.9396
 7422SOL     OW33194   3.528   0.723   3.925 -0.5777  0.1717 -0.3213
 7422SOL    HW133195   3.603   0.787   3.944 -0.7957  1.0411 -2.2135
 7422SOL    HW233196   3.563   0.645   3.874 -0.9207  0.5374 -1.1309
 7423SOL     OW33197   5.203   8.093   4.383  0.5863  0.1845  0.0179
 7423SOL    HW133198   5.278   8.036   4.350 -0.0813  0.7322 -2.5730
 7423SOL    HW233199   5.237   8.185   4.403  0.3389  0.9596 -2.8774
 7424SOL     OW33200   8.235   0.921   2.788 -0.5089 -0.3831 -0.1380
 7424SOL    HW133201   8.194   0.952   2.874  1.2461  1.3749  0.0965
 7424SOL    HW233202   8.304   0.851   2.808  1.0052  1.1425  0.0477
 7425SOL     OW33203   3.747   1.066   5.340  0.0189  0.4461  0.7152
 7425SOL    HW133204   3.692   0.986   5.364 -0.6664  0.9075  0.6707
 7425SOL    HW233205   3.732   1.139   5.406  0.9940  0.3849  1.0191
 7426SOL     OW33206   8.793   8.109   1.853 -0.4405 -0.4503 -0.5707
 7426SOL    HW133207   8.818   8.118   1.950 -1.1816 -1.4348 -0.2772
 7426SOL    HW233208   8.876   8.097   1.799 -0.1023 -1.3808  0.1282
 7427SOL     OW33209   6.293   9.740   3.300 -0.1788 -0.3165  0.0674
 7427SOL    HW133210   6.390   9.758   3.285 -0.4574  0.0665 -1.3427
 7427SOL    HW233211   6.257   9.684   3.224 -0.9725 -0.7813  0.7701
 7428SOL     OW33212   3.346   1.777   5.053 -0.2355  0.1930 -0.2176
 7428SOL    HW133213   3.296   1.857   5.087  0.0248  0.7092 -1.0450
 7428SOL    HW233214   3.436   1.805   5.020 -0.0284 -0.4898 -0.2392
 7429SOL     OW33215   3.384   0.954   4.085  0.1553  0.7583  0.5996
 7429SOL    HW133216   3.460   1.009   4.119  1.3247 -1.1932  1.2021
 7429SOL    HW233217   3.417   0.864   4.059 -1.9874 -0.1629  0.9948
 7430SOL     OW33218   8.829   4.647   3.314  0.0611 -0.2058  0.8025
 7430SOL    HW133219   8.898   4.703   3.268  0.2232 -1.1718 -0.1440
 7430SOL    HW233220   8.870   4.560   3.341 -0.5257 -0.3759  1.1329
 7431SOL     OW33221   8.074   8.958   0.384 -0.1045 -0.0703  0.5907
 7431SOL    HW133222   7.980   8.953   0.416  0.8304 -0.7991  3.2920
 7431SOL    HW233223   8.131   9.003   0.453  1.7455 -0.6505 -0.5123
 7432SOL     OW33224   6.342   0.857   1.697 -0.5534  0.4170  0.5092
 7432SOL    HW133225   6.423   0.883   1.749  0.0539  0.2614 -0.3550
 7432SOL    HW233226   6.288   0.791   1.751  0.3471 -0.1611  0.7177
 7433SOL     OW33227   0.615   3.815   0.990  0.2342 -0.1785 -0.1131
 7433SOL    HW133228   0.530   3.767   0.968  0.1687 -0.4986  0.8402
 7433SOL    HW233229   0.639   3.875   0.914 -1.3955  0.7174  0.0660
 7434SOL     OW33230   5.330   1.763   2.268 -0.5417 -0.3527 -0.3976
 7434SOL    HW133231   5.339   1.830   2.342  0.6069  0.5543 -1.3400
 7434SOL    HW233232   5.234   1.736   2.259 -0.7994  0.1260  0.9041
 7435SOL     OW33233   8.929   6.852   1.949  0.1766 -0.4397  0.4547
 7435SOL    HW133234   8.969   6.918   1.885  2.2370 -0.9125  1.2145
 7435SOL    HW233235   8.892   6.901   2.028  0.2944 -0.0664  0.2817
 7436SOL     OW33236   9.661   6.017   0.740  0.1976  0.2952 -0.0160
 7436SOL    HW133237   9.714   6.071   0.805 -0.4846  0.1879  0.6346
 7436SOL    HW233238   9.644   5.926   0.778  0.2312  0.0534 -0.5651
 7437SOL     OW33239   8.623   9.771   4.328 -0.0565 -0.0653  0.3303
 7437SOL    HW133240   8.579   9.753   4.240  0.7998  1.0070 -0.3457
 7437SOL    HW233241   8.558   9.755   4.402 -1.2411  0.4186 -0.5783
 7438SOL     OW33242   8.414   6.865   4.075  0.5555 -0.3459 -0.4223
 7438SOL    HW133243   8.466   6.884   3.992 -1.1981  0.9956 -1.2359
 7438SOL    HW233244   8.321   6.839   4.050  0.0974 -0.2187  1.1230
 7439SOL     OW33245   7.305   9.071   1.370  0.1034 -0.1312  0.6993
 7439SOL    HW133246   7.222   9.127   1.371  0.0498 -0.2234  1.2384
 7439SOL    HW233247   7.287   8.984   1.415  0.7541  0.2085  1.6224
 7440SOL     OW33248   8.015   2.429   0.551  0.0590 -0.5322  0.2222
 7440SOL    HW133249   8.017   2.346   0.494  1.1853 -0.4573  0.1417
 7440SOL    HW233250   8.032   2.404   0.646 -4.2023 -0.9680  0.9596
 7441SOL     OW33251   2.995   8.288   1.594  0.0155  0.2375  0.7817
 7441SOL    HW133252   2.896   8.276   1.605 -0.3424 -0.3282 -2.4275
 7441SOL    HW233253   3.039   8.199   1.586  0.3669  0.5383 -0.7637
 7442SOL     OW33254   2.108   6.298   0.318 -0.1942 -0.4421 -0.0948
 7442SOL    HW133255   2.170   6.228   0.356  2.0893  1.4107 -0.2782
 7442SOL    HW233256   2.073   6.355   0.392  0.2412  0.0172 -0.2414
 7443SOL     OW33257   7.562   3.542   5.345  0.4604 -0.2514 -0.3410
 7443SOL    HW133258   7.637   3.551   5.410 -0.3102  1.4098  0.3556
 7443SOL    HW233259   7.566   3.618   5.279 -0.4377 -0.2984 -0.4604
 7444SOL     OW33260   0.135   8.892   2.598  0.3036 -0.6868 -0.1879
 7444SOL    HW133261   0.079   8.956   2.546 -0.5743 -0.0649  1.5080
 7444SOL    HW233262   0.198   8.846   2.536  1.4746  2.3417 -1.3573
 7445SOL     OW33263   2.490   6.336   3.640  0.2968  0.4083 -0.1919
 7445SOL    HW133264   2.489   6.266   3.712  0.0797  0.1847 -0.4113
 7445SOL    HW233265   2.577   6.330   3.590  0.5044  0.6532  0.1376
 7446SOL     OW33266   0.242   8.696   3.327  0.8938  0.2489  0.4754
 7446SOL    HW133267   0.144   8.704   3.348  0.3619 -0.2652 -1.6961
 7446SOL    HW233268   0.292   8.673   3.411 -0.9473 -0.2626  1.4660
 7447SOL     OW33269   0.008   3.106   0.029 -0.1408  0.0638 -0.3185
 7447SOL    HW133270  -0.004   3.050  -0.053 -1.0948 -0.2903  0.0515
 7447SOL    HW233271  -0.076   3.103   0.084  0.6586 -0.0907  0.9095
 7448SOL     OW33272   0.287   2.051   0.969 -0.7740 -0.4160 -0.2796
 7448SOL    HW133273   0.352   2.004   0.910  0.1688  1.8427 -1.1292
 7448SOL    HW233274   0.272   1.998   1.053  1.5555 -1.3429 -0.4213
 7449SOL     OW33275   0.893   5.904   1.903  0.3619 -0.1977 -0.3297
 7449SOL    HW133276   0.885   5.845   1.983 -1.3702 -0.9992 -1.0796
 7449SOL    HW233277   0.901   5.999   1.932  1.2591 -0.6105  0.8230
 7450SOL     OW33278   3.468   3.644   2.306  0.4827 -0.4618  0.6073
 7450SOL    HW133279   3.523   3.694   2.373  0.6836  1.5218 -0.9643
 7450SOL    HW233280   3.479   3.687   2.216 -2.3174 -1.0500 -0.0670
 7451SOL     OW33281   9.420   3.729   2.616  0.3853  0.0344  0.2775
 7451SOL    HW133282   9.483   3.739   2.540  1.5698 -1.7184  0.9958
 7451SOL    HW233283   9.466   3.753   2.701 -0.4858  0.5658  0.6061
 7452SOL     OW33284   4.600   9.062   0.481  0.1966  0.0863 -0.1694
 7452SOL    HW133285   4.521   9.116   0.453 -0.6158 -0.4310  1.0680
 7452SOL    HW233286   4.569   8.974   0.517  1.4314 -0.6899 -0.9805
 7453SOL     OW33287   5.083   7.773   2.025 -0.1146 -0.3625  0.4546
 7453SOL    HW133288   5.030   7.691   2.007 -1.3730  0.1529  1.7019
 7453SOL    HW233289   5.179   7.756   2.005 -0.3890 -2.0741  0.5305
 7454SOL     OW33290   5.168   0.161   2.082 -0.4810 -0.6282  0.2077
 7454SOL    HW133291   5.112   0.079   2.070 -0.7333 -0.4075 -0.1625
 7454SOL    HW233292   5.173   0.186   2.178 -2.1197  0.1035  0.1226
 7455SOL     OW33293   2.490   0.083   0.333 -0.2318 -0.0465  0.2145
 7455SOL    HW133294   2.480   0.150   0.259  0.3894  1.4952  1.5008
 7455SOL    HW233295   2.431   0.109   0.409  1.5349  0.2197  1.5297
 7456SOL     OW33296   4.770   7.794   2.563  0.1267 -0.4314 -0.1912
 7456SOL    HW133297   4.736   7.882   2.528  1.8377  1.3935  2.5389
 7456SOL    HW233298   4.706   7.759   2.631  0.6497 -0.0982  0.4700
 7457SOL     OW33299   9.287   0.841   2.350  0.1720 -0.0679 -0.1010
 7457SOL    HW133300   9.264   0.917   2.410 -0.0454 -0.4984  0.3643
 7457SOL    HW233301   9.204   0.789   2.329  0.2410  0.1047 -0.8055
 7458SOL     OW33302   6.635   6.990   2.293 -0.3560  0.6410  0.3590
 7458SOL    HW133303   6.558   6.942   2.249 -0.6133  0.3192  1.1530
 7458SOL    HW233304   6.651   7.077   2.247  1.3859 -1.0787 -2.3900
 7459SOL     OW33305   4.601   4.783   1.478  0.3852  0.4508  0.1185
 7459SOL    HW133306   4.675   4.738   1.529 -0.5434 -0.6261  0.5445
 7459SOL    HW233307   4.570   4.864   1.528 -1.0582 -1.0431  1.6953
 7460SOL     OW33308   0.495   0.593   0.419 -0.0898 -0.0182  0.0319
 7460SOL    HW133309   0.413   0.615   0.365 -0.7798 -0.2450  0.9841
 7460SOL    HW233310   0.499   0.494   0.434 -0.5894  0.1769  1.4902
 7461SOL     OW33311   0.295   5.878   0.135 -0.0473 -0.2048  0.3331
 7461SOL    HW133312   0.202   5.877   0.171 -1.1436 -1.7601 -2.3514
 7461SOL    HW233313   0.310   5.963   0.084 -0.4107 -0.4791 -0.2327
 7462SOL     OW33314   8.501   0.148   5.460 -0.0455  0.2448 -0.0301
 7462SOL    HW133315   8.568   0.148   5.386  0.1035 -1.0192  0.0806
 7462SOL    HW233316   8.493   0.240   5.498  0.1751  0.8090 -1.3413
 7463SOL     OW33317   9.947   1.748   5.055  0.2454 -0.2814 -0.0103
 7463SOL    HW133318  10.008   1.810   5.005  0.8331 -0.2669  0.7079
 7463SOL    HW233319   9.889   1.700   4.990  0.5134  0.2447 -0.6583
 7464SOL     OW33320   2.176   0.179   2.518  0.0462 -0.3545 -0.5022
 7464SOL    HW133321   2.114   0.178   2.440 -0.6358 -0.9306  0.0345
 7464SOL    HW233322   2.134   0.231   2.593 -0.2117 -1.5432  0.1887
 7465SOL     OW33323   5.131   8.425   3.235  0.1298  0.5210  0.3687
 7465SOL    HW133324   5.076   8.363   3.179  0.8116  0.5227 -0.3099
 7465SOL    HW233325   5.224   8.390   3.243  0.1426  0.7147  1.1957
 7466SOL     OW33326   8.112   2.468   5.401  0.3162 -0.4478 -0.1253
 7466SOL    HW133327   8.109   2.532   5.478  1.1472 -0.8710  0.2676
 7466SOL    HW233328   8.066   2.509   5.322  1.2602  0.8486 -0.0263
 7467SOL     OW33329   0.214   2.505   0.103  0.3402 -0.4051  0.5010
 7467SOL    HW133330   0.266   2.438   0.050 -0.3084 -0.1402 -0.4746
 7467SOL    HW233331   0.119   2.476   0.111  0.5295 -0.6553  1.8943
 7468SOL     OW33332   4.977   2.262   2.711  0.1147  0.1806 -0.2394
 7468SOL    HW133333   5.001   2.229   2.802  1.5167 -1.9672 -1.3419
 7468SOL    HW233334   5.055   2.250   2.649 -0.7734  1.6958 -1.7014
 7469SOL     OW33335   2.571   9.111   1.757 -0.3789  0.3781  0.4569
 7469SOL    HW133336   2.631   9.187   1.778  0.6204 -0.2334 -0.1619
 7469SOL    HW233337   2.622   9.025   1.764 -0.2194  0.0908 -3.5802
 7470SOL     OW33338   4.696   9.454   3.807  0.3004  0.4866  0.3651
 7470SOL    HW133339   4.750   9.538   3.802 -1.1115  1.3192 -2.3063
 7470SOL    HW233340   4.599   9.477   3.794 -0.1385 -1.5150  0.0191
 7471SOL     OW33341   5.296   1.411   1.342 -0.0393  0.2235 -0.6736
 7471SOL    HW133342   5.232   1.353   1.291 -2.3542  0.9761  1.2809
 7471SOL    HW233343   5.245   1.469   1.405  2.7186 -0.4291  2.2806
 7472SOL     OW33344   3.098   9.685   0.286  0.4783 -0.3149  0.4826
 7472SOL    HW133345   3.127   9.751   0.355 -2.5158 -0.2813  1.7928
 7472SOL    HW233346   3.081   9.731   0.200  1.4538  0.1041  0.5100
 7473SOL     OW33347   3.850   3.239   4.628 -0.2292  0.2987  0.3968
 7473SOL    HW133348   3.761   3.196   4.646 -0.8489  1.3064 -0.2198
 7473SOL    HW233349   3.850   3.275   4.535  1.2783 -0.7940 -0.0405
 7474SOL     OW33350   3.102   5.435   2.618  0.3741 -0.4130  0.2372
 7474SOL    HW133351   3.027   5.493   2.648  1.4008  0.9467  0.2055
 7474SOL    HW233352   3.176   5.491   2.580  1.4643 -1.7118  0.3661
 7475SOL     OW33353   0.644   7.618   4.243 -0.1297 -0.3439  0.2859
 7475SOL    HW133354   0.663   7.550   4.313 -0.7709  0.9134  1.7247
 7475SOL    HW233355   0.727   7.637   4.191 -0.1066 -2.6838 -0.5649
 7476SOL     OW33356   4.532   0.437   5.491 -0.8814 -0.5498  0.9301
 7476SOL    HW133357   4.536   0.483   5.402  0.1373  1.1085  1.7988
 7476SOL    HW233358   4.540   0.338   5.477 -1.8984 -0.4086 -0.8909
 7477SOL     OW33359   3.980   0.706   3.787  0.1367  0.3704 -0.5306
 7477SOL    HW133360   3.996   0.607   3.787  0.8051  0.4477  1.2552
 7477SOL    HW233361   4.064   0.754   3.762  0.5354  0.5410  1.0556
 7478SOL     OW33362   3.051   9.865   1.397  0.0017  0.4372  0.2461
 7478SOL    HW133363   3.145   9.896   1.384  0.0341  0.3516  0.2745
 7478SOL    HW233364   3.051   9.768   1.421 -0.2225 -0.2349 -2.3172
 7479SOL     OW33365   1.787   4.724   0.542  0.0391 -0.3234  0.4375
 7479SOL    HW133366   1.884   4.704   0.534 -0.0038 -0.3719  0.0455
 7479SOL    HW233367   1.738   4.685   0.464 -0.2483 -0.0042  0.4574
 7480SOL     OW33368   0.903   4.416   1.184  0.2942  0.5574  0.1721
 7480SOL    HW133369   0.995   4.449   1.206 -0.6171  2.2535  1.5772
 7480SOL    HW233370   0.849   4.410   1.268 -1.0458  0.0917 -0.7103
 7481SOL     OW33371   7.607   1.152   3.611  0.2254  0.6714  0.2348
 7481SOL    HW133372   7.685   1.185   3.558  1.2376  0.9543  1.8830
 7481SOL    HW233373   7.639   1.094   3.686 -1.0737  1.4514  1.4252
 7482SOL     OW33374   4.940   3.355   2.411  0.0816 -0.1789 -0.4372
 7482SOL    HW133375   4.850   3.398   2.405 -0.3277 -0.8017  1.1432
 7482SOL    HW233376   4.942   3.292   2.488  2.9829  2.4853  1.7991
 7483SOL     OW33377   3.098   4.981   2.342 -0.0764  0.3530 -0.0209
 7483SOL    HW133378   3.013   4.962   2.293  0.7905 -0.4898 -1.2147
 7483SOL    HW233379   3.131   5.072   2.318 -0.5578  0.6180  0.3225
 7484SOL     OW33380   8.654   1.587   0.658  0.3269 -0.5522  0.3271
 7484SOL    HW133381   8.613   1.521   0.594  0.6778  0.4222 -0.9347
 7484SOL    HW233382   8.741   1.551   0.691  1.2352 -0.1281 -1.4949
 7485SOL     OW33383   3.959   1.517   1.560  0.2833 -0.2752  0.0488
 7485SOL    HW133384   3.921   1.428   1.534 -0.9567  0.2936 -0.0999
 7485SOL    HW233385   3.923   1.588   1.500  2.4619  0.1234 -0.8123
 7486SOL     OW33386   2.385   9.254   2.631  0.3196  0.1349  0.0911
 7486SOL    HW133387   2.374   9.277   2.534 -0.9880 -1.3936 -0.1447
 7486SOL    HW233388   2.321   9.182   2.655  0.2179  0.9334  2.2624
 7487SOL     OW33389   0.025   2.219   0.677  0.1000 -0.6552  0.0988
 7487SOL    HW133390   0.045   2.144   0.614  1.6457 -0.9251  0.8910
 7487SOL    HW233391   0.095   2.289   0.668 -0.0895 -0.3542  0.9806
 7488SOL     OW33392   8.880   1.401   2.553  0.5241  0.4416 -0.3982
 7488SOL    HW133393   8.881   1.499   2.532 -1.0686  0.8432  1.2909
 7488SOL    HW233394   8.799   1.359   2.512  0.7559  0.0052 -0.4069
 7489SOL     OW33395   5.680   1.161   3.020  0.5760 -0.4434 -0.0141
 7489SOL    HW133396   5.692   1.165   3.119 -0.2056  0.4991  0.0600
 7489SOL    HW233397   5.706   1.071   2.986  0.4484 -0.9110  1.1080
 7490SOL     OW33398   0.074   1.718   3.807  0.2491  0.6222  0.7116
 7490SOL    HW133399   0.155   1.775   3.796  0.3869  0.5711  1.3970
 7490SOL    HW233400   0.004   1.769   3.858 -0.1510  0.6693  0.1155
 7491SOL     OW33401   3.206   2.022   5.092 -0.0565  0.6110  0.2393
 7491SOL    HW133402   3.192   2.110   5.136 -1.6011 -0.2505  1.5626
 7491SOL    HW233403   3.148   2.015   5.011  0.8147  1.1871 -0.4382
 7492SOL     OW33404   5.196   0.673   2.952 -0.0022  0.2079 -0.7970
 7492SOL    HW133405   5.136   0.599   2.924  1.0112  0.1712 -2.9802
 7492SOL    HW233406   5.262   0.640   3.019  0.2891 -0.7994 -1.5769
 7493SOL     OW33407   3.661   0.516   4.560  0.4615  0.1645 -0.3843
 7493SOL    HW133408   3.641   0.522   4.462  0.9317 -1.3956 -0.6072
 7493SOL    HW233409   3.577   0.499   4.611  0.6590 -2.7720 -0.9384
 7494SOL     OW33410   3.145   9.640   2.860  0.2781 -0.0767 -0.1536
 7494SOL    HW133411   3.224   9.702   2.862 -0.7521  1.2358  0.0811
 7494SOL    HW233412   3.099   9.648   2.771  2.0130 -2.9038 -1.3768
 7495SOL     OW33413   3.558   8.186   2.272  0.3697 -0.2867  0.7138
 7495SOL    HW133414   3.618   8.133   2.212  1.8695  0.9990  1.0387
 7495SOL    HW233415   3.505   8.124   2.330  0.6450 -1.4666 -0.2724
 7496SOL     OW33416   3.049   7.111   2.732  0.0626  0.3078  0.1075
 7496SOL    HW133417   3.111   7.033   2.747 -0.6145 -0.2372  0.1279
 7496SOL    HW233418   3.062   7.147   2.640  0.2425  0.0475  0.0302
 7497SOL     OW33419   2.044   7.613   0.208  0.3667 -0.1997 -0.3603
 7497SOL    HW133420   2.113   7.613   0.281  0.1807  0.1940 -0.1851
 7497SOL    HW233421   1.954   7.631   0.247  0.0082 -1.7820 -0.4471
 7498SOL     OW33422   3.634   4.222   0.500  0.4766 -0.4666 -0.4361
 7498SOL    HW133423   3.573   4.274   0.440  0.6943  0.9927  0.5899
 7498SOL    HW233424   3.579   4.170   0.565  0.2717 -1.1764 -1.1627
 7499SOL     OW33425   7.628   3.060   0.132 -0.2114  0.6283 -0.0858
 7499SOL    HW133426   7.678   3.146   0.128  0.0081  0.5620  1.0523
 7499SOL    HW233427   7.663   3.005   0.207 -0.1263 -0.6012 -1.0022
 7500SOL     OW33428   0.474   0.605   1.131 -0.1950  0.4763  0.1276
 7500SOL    HW133429   0.459   0.697   1.167 -0.7082  0.5204 -0.1894
 7500SOL    HW233430   0.472   0.609   1.031 -0.2821  0.1051  0.1172
 7501SOL     OW33431   1.519   2.329   5.629 -0.3566  0.1146  0.2679
 7501SOL    HW133432   1.586   2.271   5.674  0.8064 -0.0032 -1.5941
 7501SOL    HW233433   1.557   2.420   5.614 -1.2953  0.6294  0.9316
 7502SOL     OW33434   4.190   9.090   3.457 -0.4387 -0.1555  0.3075
 7502SOL    HW133435   4.222   9.152   3.529  0.1313  0.4874 -0.4775
 7502SOL    HW233436   4.104   9.124   3.419 -0.2842  0.0072  0.0912
 7503SOL     OW33437   3.753   7.572   2.452 -0.1659 -0.4481  0.4080
 7503SOL    HW133438   3.667   7.540   2.412 -0.3813  0.0744  0.4597
 7503SOL    HW233439   3.825   7.570   2.383 -0.1435 -1.1901  0.4459
 7504SOL     OW33440   7.405   2.690   2.753 -0.5151  0.4301  0.2287
 7504SOL    HW133441   7.464   2.688   2.672 -1.4446  0.8408 -0.4610
 7504SOL    HW233442   7.432   2.767   2.812 -0.1961  0.4633  0.0406
 7505SOL     OW33443   2.647   1.944   0.482 -0.3562  0.2878  0.4083
 7505SOL    HW133444   2.669   1.952   0.579  0.8004  0.8020  0.1190
 7505SOL    HW233445   2.720   1.987   0.428  0.4579 -2.5364 -0.8068
 7506SOL     OW33446   3.065   9.159   0.425 -0.9334  0.5480 -0.3970
 7506SOL    HW133447   3.071   9.252   0.389 -3.2839  0.9246  0.1164
 7506SOL    HW233448   3.095   9.094   0.355 -0.6777  1.6027 -1.2780
 7507SOL     OW33449   0.147   0.481   1.789 -0.3296  0.4894  0.3088
 7507SOL    HW133450   0.183   0.450   1.877 -1.5280  0.3124  0.7407
 7507SOL    HW233451   0.188   0.570   1.767  1.7042 -0.4969 -0.0610
 7508SOL     OW33452   8.891   5.195   1.020  0.0768  0.4846  0.2401
 7508SOL    HW133453   8.969   5.135   1.039 -0.1186  0.4641  0.9996
 7508SOL    HW233454   8.823   5.144   0.966  0.2452  0.2589  0.2375
 7509SOL     OW33455   0.376   9.110   5.507 -0.2353  0.6032  0.0286
 7509SOL    HW133456   0.399   9.207   5.516  0.0623  0.4558  0.9286
 7509SOL    HW233457   0.279   9.096   5.526 -0.4611  0.8374 -0.9376
 7510SOL     OW33458   3.642   3.849   0.717  0.3421  0.2328 -0.4674
 7510SOL    HW133459   3.680   3.807   0.634  0.5954  0.3472 -0.4076
 7510SOL    HW233460   3.706   3.917   0.753  0.6043 -0.4125  0.2957
 7511SOL     OW33461   0.320   0.049   5.137  0.2302  0.1728 -0.1012
 7511SOL    HW133462   0.336   0.075   5.232  0.8639 -1.1294  0.1591
 7511SOL    HW233463   0.377   0.106   5.077 -1.0377  1.8060  0.1937
 7512SOL     OW33464   9.077   5.356   4.962 -0.4068 -0.4044 -0.2121
 7512SOL    HW133465   9.133   5.336   4.881  0.1548 -0.9550  0.3137
 7512SOL    HW233466   9.016   5.279   4.979 -1.7526  0.4402 -1.1338
 7513SOL     OW33467   6.774   8.182   2.662  0.3726  0.6998 -0.1414
 7513SOL    HW133468   6.798   8.220   2.752  2.3460  1.5804 -1.0204
 7513SOL    HW233469   6.827   8.098   2.647 -0.1090  0.4427 -0.3905
 7514SOL     OW33470   3.055   2.733   0.739 -0.2792  0.3725  0.2063
 7514SOL    HW133471   3.141   2.762   0.781 -1.0494  1.0518  1.3356
 7514SOL    HW233472   2.986   2.719   0.810 -1.5411  1.3191 -0.8001
 7515SOL     OW33473   7.442   3.100   0.961  0.4806 -0.2270  0.4971
 7515SOL    HW133474   7.521   3.121   1.020  0.5845  0.4670  0.1186
 7515SOL    HW233475   7.446   3.158   0.879 -0.3136 -0.3429  0.3785
 7516SOL     OW33476   8.090   2.894   0.278  0.4122 -0.4395  0.0995
 7516SOL    HW133477   8.166   2.949   0.312  0.0980  0.1867 -0.2124
 7516SOL    HW233478   8.112   2.797   0.288  0.9898 -0.2589  0.5926
 7517SOL     OW33479   1.038   5.512   4.382 -0.6317  0.5969 -0.1710
 7517SOL    HW133480   0.945   5.549   4.380 -0.0924  2.0421  0.6712
 7517SOL    HW233481   1.096   5.573   4.436  0.8537 -0.1661 -0.9038
 7518SOL     OW33482   0.681   1.564   4.039  0.1173  0.1203  0.0850
 7518SOL    HW133483   0.697   1.592   3.944 -1.6648 -0.8581 -0.5395
 7518SOL    HW233484   0.755   1.505   4.070  0.1142 -0.5279 -1.1117
 7519SOL     OW33485   3.038   2.960   3.988 -0.0632 -0.6883 -0.5824
 7519SOL    HW133486   3.034   2.881   3.927  0.6342 -0.4297 -0.9624
 7519SOL    HW233487   2.945   2.991   4.008 -0.3080 -0.9240 -1.3250
 7520SOL     OW33488   8.665   0.909   1.097 -0.0116 -0.2635 -0.1888
 7520SOL    HW133489   8.605   0.887   1.173 -0.1535  0.8559  0.0356
 7520SOL    HW233490   8.693   0.825   1.051 -1.1761 -0.8401  0.1331
 7521SOL     OW33491   1.390   3.720   5.542 -0.0386  0.3987 -0.6388
 7521SOL    HW133492   1.485   3.729   5.515  0.1609  1.4637  0.3927
 7521SOL    HW233493   1.331   3.740   5.464  0.5644  0.6505 -1.0323
 7522SOL     OW33494   1.001   9.775   4.244  0.3965 -0.5845 -0.0547
 7522SOL    HW133495   0.973   9.687   4.207 -1.0448  0.4821 -1.5451
 7522SOL    HW233496   0.926   9.815   4.296 -0.1321  1.2482 -2.1514
 7523SOL     OW33497   4.993   1.290   3.171 -0.7373  0.3250  0.0329
 7523SOL    HW133498   4.925   1.361   3.191 -0.9962  0.1994 -0.3842
 7523SOL    HW233499   5.039   1.311   3.085  0.4961  0.9576  0.8390
 7524SOL     OW33500   1.012   5.935   3.227 -0.4680  0.2200 -0.0330
 7524SOL    HW133501   1.103   5.894   3.222 -0.0889  0.8152  1.4775
 7524SOL    HW233502   0.944   5.864   3.244 -0.2674 -0.2064 -0.9909
 7525SOL     OW33503   9.219   2.612   5.144  0.5417 -0.2170 -0.5200
 7525SOL    HW133504   9.303   2.559   5.138  0.2828 -0.9313  1.7044
 7525SOL    HW233505   9.145   2.562   5.098  0.7619 -0.8476 -0.2054
 7526SOL     OW33506   2.907   9.060   3.989  0.2589 -0.2306  0.4646
 7526SOL    HW133507   2.961   9.073   3.905  0.3869 -1.0646  0.4208
 7526SOL    HW233508   2.826   9.119   3.985 -0.3990 -1.1992 -0.8124
 7527SOL     OW33509   0.784   3.500   2.049  0.0034  0.1854  0.4858
 7527SOL    HW133510   0.799   3.444   1.967 -1.2909  0.9933 -0.3177
 7527SOL    HW233511   0.759   3.593   2.022  1.4866  0.9998  1.8131
 7528SOL     OW33512   9.228   1.385   0.990 -0.2149 -0.0678 -0.1605
 7528SOL    HW133513   9.136   1.408   0.959  0.3892 -0.2522 -2.1325
 7528SOL    HW233514   9.254   1.295   0.956  0.2803 -0.5122  1.3328
 7529SOL     OW33515   2.203   3.100   0.560 -0.2898 -0.0528 -0.1413
 7529SOL    HW133516   2.205   3.061   0.468 -0.3725 -1.1127  0.3029
 7529SOL    HW233517   2.251   3.188   0.560  0.2917 -0.3669 -1.0374
 7530SOL     OW33518   7.552   2.483   0.447  0.3528  0.2582  0.4241
 7530SOL    HW133519   7.625   2.415   0.444 -0.4881 -0.6095 -1.0767
 7530SOL    HW233520   7.518   2.500   0.354  0.2762  2.4390  0.8218
 7531SOL     OW33521   5.011   7.955   2.419 -0.1208  0.0700 -0.1417
 7531SOL    HW133522   5.031   8.018   2.495 -1.5233 -0.8957  1.0665
 7531SOL    HW233523   5.075   7.878   2.423 -0.0696  0.1160 -0.0465
 7532SOL     OW33524   1.846   6.742   2.049  0.0079 -0.5836 -0.4935
 7532SOL    HW133525   1.860   6.790   1.963  4.0256 -1.3542 -0.3354
 7532SOL    HW233526   1.814   6.649   2.031 -1.9506  0.1532 -0.9916
 7533SOL     OW33527   9.096   2.606   1.902  0.1457  0.2298 -0.4549
 7533SOL    HW133528   9.044   2.539   1.849  0.6970  1.1899 -2.2575
 7533SOL    HW233529   9.181   2.565   1.933 -0.1359 -0.3159 -0.4007
 7534SOL     OW33530   9.033   4.050   3.930 -0.2229  0.3040 -0.2200
 7534SOL    HW133531   8.979   3.992   3.869 -1.1911 -0.2680  1.1828
 7534SOL    HW233532   9.087   3.993   3.992  1.7845  0.8624 -1.3808
 7535SOL     OW33533   3.610   2.692   4.053  0.4964 -0.1119  0.0580
 7535SOL    HW133534   3.513   2.697   4.026  0.5147 -0.9623 -0.1856
 7535SOL    HW233535   3.628   2.603   4.094  0.9998  0.3425  0.8331
 7536SOL     OW33536   7.193   9.090   4.473  0.4620 -0.2749 -0.5640
 7536SOL    HW133537   7.248   9.083   4.557 -2.4991 -3.2844  1.2642
 7536SOL    HW233538   7.129   9.166   4.482 -0.3211 -1.0217  0.2053
 7537SOL     OW33539   9.541   3.814   3.279  0.1899 -0.6266 -0.2166
 7537SOL    HW133540   9.526   3.715   3.279  0.4099 -0.6623 -1.0824
 7537SOL    HW233541   9.517   3.851   3.368 -0.2115 -1.4131  0.0066
 7538SOL     OW33542   8.160   3.199   0.006 -0.8686  0.1247  0.4505
 7538SOL    HW133543   8.210   3.114   0.026 -1.5900 -0.3032  0.4483
 7538SOL    HW233544   8.195   3.238  -0.079 -0.4072 -0.0752  0.5439
 7539SOL     OW33545   1.243   6.500   3.624 -0.2293 -0.7913  0.2495
 7539SOL    HW133546   1.164   6.520   3.681 -1.7240  2.1039 -2.6612
 7539SOL    HW233547   1.219   6.434   3.553  0.1938 -0.5485 -0.1280
 7540SOL     OW33548   4.434   2.949   2.662 -0.3817  0.6123  0.0925
 7540SOL    HW133549   4.432   2.858   2.702  3.6382  1.7670  3.3010
 7540SOL    HW233550   4.457   2.942   2.565  1.5990 -1.7612  0.6737
 7541SOL     OW33551   1.920   5.957   2.336  0.0499 -0.3530 -0.5361
 7541SOL    HW133552   1.932   5.955   2.435 -0.9212  1.2607 -0.3806
 7541SOL    HW233553   1.997   5.910   2.292  1.9892  1.4665  0.8359
 7542SOL     OW33554   8.808   4.289   1.468  0.1484  0.4721  0.1307
 7542SOL    HW133555   8.904   4.310   1.451 -0.2343  1.4256 -0.9296
 7542SOL    HW233556   8.751   4.367   1.442 -1.2558 -1.5543 -3.2865
 7543SOL     OW33557   2.298   1.429   3.455 -0.1449  0.1897  0.3835
 7543SOL    HW133558   2.380   1.409   3.508  0.6666  2.8809  0.2188
 7543SOL    HW233559   2.224   1.455   3.516 -0.1746  0.0749  0.3959
 7544SOL     OW33560   1.001   9.143   0.317 -0.0904 -1.0381 -0.1753
 7544SOL    HW133561   1.025   9.053   0.281  0.1479 -1.1723  0.3148
 7544SOL    HW233562   0.902   9.148   0.330  0.0076 -1.5932  0.7804
 7545SOL     OW33563   3.016   5.679   3.975 -0.1474 -0.3755 -0.3221
 7545SOL    HW133564   2.959   5.732   3.912  0.0540 -0.4140 -0.5374
 7545SOL    HW233565   2.957   5.626   4.036 -0.3509  0.9812  0.6593
 7546SOL     OW33566   0.794   5.700   0.873  0.0968  0.1233 -0.0452
 7546SOL    HW133567   0.728   5.708   0.799 -0.1306 -0.7416  0.0574
 7546SOL    HW233568   0.826   5.605   0.879  0.0190  0.1631  1.0419
 7547SOL     OW33569   1.310   9.491   0.734  0.3191  0.4413  0.0053
 7547SOL    HW133570   1.233   9.429   0.716  1.1593 -0.2530 -1.3475
 7547SOL    HW233571   1.285   9.554   0.807 -0.9779 -0.7597  0.6494
 7548SOL     OW33572   9.539   5.359   1.250  0.0819 -0.0050  0.8581
 7548SOL    HW133573   9.591   5.329   1.171  0.2157 -0.3628  1.0799
 7548SOL    HW233574   9.489   5.281   1.289 -3.9333  1.1152 -1.8208
 7549SOL     OW33575   0.805   9.581   1.173 -0.0979  0.0491  0.2374
 7549SOL    HW133576   0.831   9.675   1.152 -2.2930  0.4543 -0.7940
 7549SOL    HW233577   0.837   9.557   1.265 -2.0631  2.8153  1.7182
 7550SOL     OW33578   1.494   0.309   2.843 -0.1817  0.2082 -0.2239
 7550SOL    HW133579   1.417   0.367   2.867 -1.9686 -2.2813  0.2316
 7550SOL    HW233580   1.558   0.305   2.919 -0.6627  0.5902  0.2001
 7551SOL     OW33581   8.386   9.153   4.972  0.2820  0.0812  0.3134
 7551SOL    HW133582   8.378   9.229   4.908 -1.4776 -0.6686 -0.4115
 7551SOL    HW233583   8.444   9.179   5.049  1.2667  1.4708 -0.8913
 7552SOL     OW33584   1.929   6.240   3.319 -0.1136  0.2990 -0.1594
 7552SOL    HW133585   1.982   6.272   3.241  1.4594  0.1160  0.8099
 7552SOL    HW233586   1.867   6.167   3.290 -0.8143  1.4120 -1.5680
 7553SOL     OW33587   8.675   8.274   4.394  0.3237 -0.0738 -0.2006
 7553SOL    HW133588   8.746   8.223   4.347  0.5511  1.1137 -1.1816
 7553SOL    HW233589   8.712   8.313   4.479  0.1152 -1.6047  0.6040
 7554SOL     OW33590   1.537   4.297   3.706  0.1186  0.1140  0.4300
 7554SOL    HW133591   1.452   4.273   3.660  0.9873 -1.1311 -0.5450
 7554SOL    HW233592   1.522   4.295   3.805 -0.7261 -1.1229  0.2911
 7555SOL     OW33593   6.654   0.690   4.554  0.1132 -0.1441 -0.5426
 7555SOL    HW133594   6.678   0.723   4.462  0.8253 -1.0132 -0.6713
 7555SOL    HW233595   6.637   0.592   4.550 -0.1826 -0.1216  0.1984
 7556SOL     OW33596   7.925   1.896   5.271  0.0460  0.8302 -0.4791
 7556SOL    HW133597   8.019   1.868   5.292  0.1163  2.0876  1.0169
 7556SOL    HW233598   7.883   1.934   5.353 -1.6192  0.7084 -1.2664
 7557SOL     OW33599   1.588   4.045   1.652  0.0067  0.4320  0.1928
 7557SOL    HW133600   1.516   4.065   1.586  1.5754 -0.2779 -1.7699
 7557SOL    HW233601   1.659   4.115   1.647 -0.4921  1.1037  2.0799
 7558SOL     OW33602   8.937   8.983   4.890  0.2975  0.3443 -0.1935
 7558SOL    HW133603   8.855   9.003   4.837  0.8981  0.7916 -0.9671
 7558SOL    HW233604   8.930   8.891   4.929 -0.6561  0.4610 -0.0786
 7559SOL     OW33605   8.860   3.090   2.298  0.3280  0.6811 -0.4678
 7559SOL    HW133606   8.927   3.079   2.372 -2.2824  0.0236  1.8683
 7559SOL    HW233607   8.786   3.024   2.310 -0.9858  1.6990 -2.7389
 7560SOL     OW33608   2.360   7.878   0.490 -0.1570  0.1002 -0.1928
 7560SOL    HW133609   2.413   7.797   0.465  0.3067  0.0087  1.0694
 7560SOL    HW233610   2.389   7.911   0.579 -0.9744  1.1297 -0.2974
 7561SOL     OW33611   1.289   0.953   4.046 -0.5591 -0.2929 -0.5169
 7561SOL    HW133612   1.236   0.967   3.962 -1.8542  0.9312  0.4787
 7561SOL    HW233613   1.228   0.960   4.125  1.0265  0.7219  0.6411
 7562SOL     OW33614   9.014   7.814   0.471 -0.0941  0.0187  0.1933
 7562SOL    HW133615   9.061   7.828   0.558 -0.5637  2.0039  0.1639
 7562SOL    HW233616   8.972   7.900   0.442 -0.1600 -0.6775 -1.8675
 7563SOL     OW33617   4.006   7.023   1.260  0.4403  0.2058 -0.2968
 7563SOL    HW133618   3.964   6.948   1.210 -0.6315  1.0770 -0.7218
 7563SOL    HW233619   4.028   7.097   1.197  1.3158  0.3382  0.1506
 7564SOL     OW33620   7.810   6.771   3.412  0.5375  0.1351  0.2308
 7564SOL    HW133621   7.776   6.843   3.473  1.5479 -0.8931  2.0461
 7564SOL    HW233622   7.799   6.800   3.317  0.1460  2.3154  0.9177
 7565SOL     OW33623   3.849   3.999   0.827  0.0266 -0.1482  0.1800
 7565SOL    HW133624   3.872   4.096   0.827 -0.3223 -0.0603  0.6751
 7565SOL    HW233625   3.906   3.951   0.893 -1.5166  0.1531  1.7682
 7566SOL     OW33626   1.417   6.520   5.461 -0.3251 -0.2181 -0.3519
 7566SOL    HW133627   1.511   6.487   5.472 -0.5394 -0.8099 -0.2856
 7566SOL    HW233628   1.379   6.543   5.550  0.3074  1.5701 -0.5205
 7567SOL     OW33629   8.682   2.453   2.478 -0.4525 -0.1473 -0.0107
 7567SOL    HW133630   8.614   2.525   2.487  0.8608  1.2614 -1.0946
 7567SOL    HW233631   8.774   2.493   2.481  0.3334 -1.9627  1.0251
 7568SOL     OW33632   7.354   7.438   1.504  0.0448 -0.5254 -0.5529
 7568SOL    HW133633   7.269   7.476   1.466  0.8706 -0.1154 -2.0483
 7568SOL    HW233634   7.384   7.493   1.581 -1.4281 -1.0972  0.4529
 7569SOL     OW33635   8.307   5.685   2.078 -0.3244 -0.0028  0.5296
 7569SOL    HW133636   8.393   5.700   2.127  0.4509 -0.9691 -0.5108
 7569SOL    HW233637   8.325   5.635   1.993 -1.9259 -0.2788  0.3327
 7570SOL     OW33638   9.967   4.602   2.134  0.0640 -0.0294  0.0516
 7570SOL    HW133639   9.898   4.529   2.137  0.9613 -0.9785 -1.4823
 7570SOL    HW233640  10.056   4.562   2.110  0.9970  1.2962  1.2327
 7571SOL     OW33641   8.710   6.030   2.677 -0.6988 -0.1914 -0.3292
 7571SOL    HW133642   8.736   6.041   2.773 -1.0899  3.4420 -0.5662
 7571SOL    HW233643   8.622   5.982   2.672  0.2167 -2.0780  0.9950
 7572SOL     OW33644   6.785   0.099   3.135  0.0539 -0.0546  0.5015
 7572SOL    HW133645   6.708   0.160   3.116 -0.0103  0.3239  1.8852
 7572SOL    HW233646   6.766   0.047   3.218  1.4080  0.2688  1.0307
 7573SOL     OW33647   4.890   9.673   3.788 -0.2073 -0.0572 -0.2352
 7573SOL    HW133648   4.929   9.764   3.805 -0.8851  0.4604 -1.3162
 7573SOL    HW233649   4.960   9.612   3.754  0.0014  0.4074 -0.6453
 7574SOL     OW33650   3.227   0.112   3.617 -0.7515 -0.1220 -0.2367
 7574SOL    HW133651   3.174   0.038   3.575 -0.3487 -1.1370  1.0229
 7574SOL    HW233652   3.277   0.076   3.696 -0.4407  1.4742  0.2975
 7575SOL     OW33653   7.070   0.896   0.813  0.4708 -0.2362 -0.8371
 7575SOL    HW133654   7.016   0.813   0.807 -0.0822  0.1337 -0.9921
 7575SOL    HW233655   7.099   0.925   0.722 -1.6220  1.2303 -1.0763
 7576SOL     OW33656   0.300   5.232   0.221  0.8619 -0.1558 -0.1577
 7576SOL    HW133657   0.258   5.269   0.304  1.0427  1.4076 -0.7602
 7576SOL    HW233658   0.375   5.170   0.246  0.6523 -0.0046  0.8472
 7577SOL     OW33659   2.689   2.383   2.567 -0.3165 -0.2818  0.2027
 7577SOL    HW133660   2.600   2.412   2.603  0.1576  2.1831 -0.4801
 7577SOL    HW233661   2.759   2.450   2.594  1.0480 -1.3827 -0.5479
 7578SOL     OW33662   9.708   1.370   4.556 -0.3690 -0.1721  0.1068
 7578SOL    HW133663   9.737   1.448   4.502  3.7259 -1.4734  0.2678
 7578SOL    HW233664   9.662   1.303   4.497  0.2234  0.3093 -0.9034
 7579SOL     OW33665   7.165   5.412   4.143 -0.4933  0.4465  0.8157
 7579SOL    HW133666   7.149   5.327   4.192  0.4272  0.1068  0.5165
 7579SOL    HW233667   7.216   5.394   4.059 -1.0963  1.1697  0.2866
 7580SOL     OW33668   6.875   0.780   2.191 -0.1839  0.9110 -0.4139
 7580SOL    HW133669   6.851   0.691   2.230  1.1431  0.2935 -0.9829
 7580SOL    HW233670   6.850   0.782   2.094 -0.5737  1.3122 -0.3090
 7581SOL     OW33671   8.517   7.459   5.432  0.3251 -0.3047  0.4210
 7581SOL    HW133672   8.538   7.509   5.515  1.3859 -1.2087  0.7041
 7581SOL    HW233673   8.580   7.486   5.359  0.4372 -0.7081  0.3680
 7582SOL     OW33674   5.114   7.695   2.656  0.1425 -0.1526 -0.2805
 7582SOL    HW133675   5.045   7.682   2.584 -0.7507  2.3134  0.0719
 7582SOL    HW233676   5.205   7.690   2.616 -0.3442  1.4525 -1.6921
 7583SOL     OW33677   1.070   0.695   1.080  0.1287 -0.1451 -0.1130
 7583SOL    HW133678   1.061   0.608   1.128  1.9161 -1.2671 -1.7453
 7583SOL    HW233679   1.020   0.691   0.994  0.2869  0.4032 -0.2314
 7584SOL     OW33680   2.753   2.590   1.559 -0.3870  0.0914  0.4515
 7584SOL    HW133681   2.795   2.501   1.549 -1.9541 -0.5874 -0.2222
 7584SOL    HW233682   2.794   2.655   1.495 -2.6718 -1.4192 -2.6769
 7585SOL     OW33683   0.240   6.305   3.489  0.7374 -0.0479 -0.3753
 7585SOL    HW133684   0.280   6.348   3.571  0.4449 -3.1685  1.4846
 7585SOL    HW233685   0.147   6.338   3.476 -0.5449 -2.1804  2.7540
 7586SOL     OW33686   9.209   0.481   2.408  0.0766 -0.4815  0.5364
 7586SOL    HW133687   9.182   0.434   2.492  1.4272  0.9912  1.8322
 7586SOL    HW233688   9.300   0.521   2.419 -0.8018  2.0142 -0.6642
 7587SOL     OW33689   8.193   8.784   3.431  0.5022 -0.0990  0.0595
 7587SOL    HW133690   8.216   8.715   3.363  0.5462  0.4427 -0.4861
 7587SOL    HW233691   8.253   8.863   3.419 -1.5689  1.3244 -1.3557
 7588SOL     OW33692   7.941   5.402   2.787  0.5770  0.4479  0.0483
 7588SOL    HW133693   7.897   5.468   2.847 -1.5711  0.0162 -1.0222
 7588SOL    HW233694   7.992   5.450   2.716 -0.6804  0.9671 -0.5128
 7589SOL     OW33695   8.940   0.217   0.815  0.0111 -0.3195  0.0408
 7589SOL    HW133696   9.007   0.278   0.772  1.0745 -1.3397  0.2419
 7589SOL    HW233697   8.910   0.257   0.901  0.1620  0.2678 -0.1721
 7590SOL     OW33698   8.618   9.703   3.391  0.3460 -0.3330 -0.5609
 7590SOL    HW133699   8.597   9.627   3.329  2.3839 -0.0729 -1.6002
 7590SOL    HW233700   8.711   9.736   3.374 -0.2739  1.9907  0.2874
 7591SOL     OW33701   9.691   6.052   1.409  0.1246 -0.2261  0.1332
 7591SOL    HW133702   9.703   6.080   1.505  0.9605 -0.6079  0.1498
 7591SOL    HW233703   9.709   5.954   1.401  2.6329  0.2596 -0.8352
 7592SOL     OW33704   2.015   0.260   4.869 -0.1543  0.3528  0.0088
 7592SOL    HW133705   1.956   0.256   4.949 -0.6938  0.7159 -0.3654
 7592SOL    HW233706   1.979   0.198   4.798 -0.3390  0.9071 -0.3860
 7593SOL     OW33707   9.205   8.769   3.532  0.7053 -0.1046 -0.1176
 7593SOL    HW133708   9.225   8.825   3.613  0.8465  0.2106 -0.3728
 7593SOL    HW233709   9.252   8.681   3.541  1.4288  0.2659 -0.2639
 7594SOL     OW33710   6.343   9.285   3.012 -0.4720  0.1639  0.3205
 7594SOL    HW133711   6.360   9.224   3.089  0.1584  0.8950  0.7685
 7594SOL    HW233712   6.430   9.325   2.981 -0.6623 -0.4459 -1.0413
 7595SOL     OW33713   2.381   0.986   0.763 -0.6737 -0.0363  0.0835
 7595SOL    HW133714   2.402   1.038   0.846  0.4703 -0.9782  0.3940
 7595SOL    HW233715   2.294   0.938   0.775  0.3809 -1.6541  1.4776
 7596SOL     OW33716   0.705   1.905   2.795 -0.1101  0.1039 -0.5127
 7596SOL    HW133717   0.629   1.960   2.831 -0.2267  1.9796 -3.4701
 7596SOL    HW233718   0.790   1.957   2.803  0.5000 -1.0449  0.5983
 7597SOL     OW33719   2.477   9.480   5.598  0.0693  0.1318  0.2519
 7597SOL    HW133720   2.541   9.455   5.671 -0.3775 -0.5655  0.4122
 7597SOL    HW233721   2.457   9.578   5.604 -1.1019 -0.1846  2.0022
 7598SOL     OW33722   9.109   0.258   5.168  0.0174  1.1125 -0.1986
 7598SOL    HW133723   9.045   0.185   5.193 -0.3867  1.4358 -0.2870
 7598SOL    HW233724   9.105   0.331   5.237  0.9746  0.7033  0.2899
 7599SOL     OW33725   3.879   8.565   0.363  0.0730  0.3703  0.3519
 7599SOL    HW133726   3.862   8.467   0.346 -2.0577  0.8278 -0.3498
 7599SOL    HW233727   3.976   8.584   0.353  0.2086 -1.2414 -1.7827
 7600SOL     OW33728   0.535   8.307   4.663  0.1557 -0.1010  0.2500
 7600SOL    HW133729   0.436   8.306   4.649  0.0034  0.3110  1.2560
 7600SOL    HW233730   0.572   8.216   4.645 -0.7814 -0.9529  2.4562
 7601SOL     OW33731   3.351   4.115   0.276  0.4327  0.2631  0.0240
 7601SOL    HW133732   3.392   4.200   0.306  1.4265 -0.6777  1.3903
 7601SOL    HW233733   3.399   4.038   0.318 -0.3705 -0.9756 -1.2795
 7602SOL     OW33734   9.850   1.902   3.537 -0.3516 -0.2059  0.1598
 7602SOL    HW133735   9.932   1.931   3.586 -0.0146  0.2541 -0.6718
 7602SOL    HW233736   9.807   1.981   3.494  0.0719 -0.7841 -1.3725
 7603SOL     OW33737   4.897   3.300   5.475  0.2841  0.1460  0.3043
 7603SOL    HW133738   4.823   3.295   5.408 -1.4164  0.6110  2.1002
 7603SOL    HW233739   4.918   3.207   5.508 -1.3533  0.2612  1.7341
 7604SOL     OW33740   8.581   9.039   2.215  0.0690  0.6738  0.2942
 7604SOL    HW133741   8.629   9.045   2.303  0.0442 -0.6163  0.4038
 7604SOL    HW233742   8.646   9.016   2.143 -0.5019 -2.1855  0.6169
 7605SOL     OW33743   5.153   0.794   3.665 -0.0692  0.1301 -0.2472
 7605SOL    HW133744   5.232   0.741   3.635  0.0787  0.0308  0.3154
 7605SOL    HW233745   5.181   0.887   3.688 -0.2248  0.2788 -0.6502
 7606SOL     OW33746   9.321   4.040   3.321  0.1374 -0.8825 -0.4466
 7606SOL    HW133747   9.401   4.100   3.326 -0.7811  0.2300  1.1850
 7606SOL    HW233748   9.296   4.028   3.225  1.1308  0.2732 -0.8797
 7607SOL     OW33749   3.424   8.513   5.086 -0.0390 -0.8594  0.2641
 7607SOL    HW133750   3.424   8.602   5.041 -2.3001 -0.9414  0.0801
 7607SOL    HW233751   3.508   8.503   5.141  0.1698  1.4083  0.3757
 7608SOL     OW33752   3.384   9.117   3.449 -0.4906 -0.8547  0.0374
 7608SOL    HW133753   3.300   9.171   3.444  0.0328  0.0478  0.9589
 7608SOL    HW233754   3.431   9.122   3.360  0.3632  1.5473  0.5691
 7609SOL     OW33755   3.625   8.269   4.095  0.2054 -0.3032 -0.2101
 7609SOL    HW133756   3.551   8.220   4.141  0.2045 -0.0955  0.0096
 7609SOL    HW233757   3.712   8.249   4.141 -0.1076  1.6678  1.2651
 7610SOL     OW33758   6.501   0.810   0.891  0.0148 -0.0562  0.0893
 7610SOL    HW133759   6.559   0.730   0.874  0.0349  0.3836 -2.0381
 7610SOL    HW233760   6.555   0.894   0.879 -0.7429  0.3324 -0.6537
 7611SOL     OW33761   7.894   4.249   0.400 -0.1970  0.3627 -0.2553
 7611SOL    HW133762   7.981   4.243   0.450 -0.1078 -0.5130 -0.4964
 7611SOL    HW233763   7.819   4.261   0.466 -0.0796 -0.7991  0.1077
 7612SOL     OW33764   1.770   6.916   4.053  0.3759  0.0504  0.1951
 7612SOL    HW133765   1.831   6.860   4.109 -0.3142  0.4447  1.3795
 7612SOL    HW233766   1.823   6.965   3.984  1.1403 -1.0820 -0.0288
 7613SOL     OW33767   5.338   8.203   3.544  0.7645 -0.1434  0.1679
 7613SOL    HW133768   5.259   8.172   3.597 -0.7496 -0.1962 -2.0391
 7613SOL    HW233769   5.321   8.295   3.509  1.5830 -0.2544 -0.5385
 7614SOL     OW33770   7.750   2.299   0.369  0.2250  0.1156  0.4822
 7614SOL    HW133771   7.810   2.327   0.295 -0.8487  1.3984  0.0861
 7614SOL    HW233772   7.734   2.200   0.363  1.2383 -0.0110 -0.1722
 7615SOL     OW33773   8.765   5.090   0.491  0.3571 -0.3035  1.2328
 7615SOL    HW133774   8.665   5.089   0.502  0.4286 -1.8726  1.7931
 7615SOL    HW233775   8.787   5.109   0.395 -0.5014 -0.9452  0.8941
 7616SOL     OW33776   0.915   8.909   2.441 -0.0196 -0.3658  0.3919
 7616SOL    HW133777   0.862   8.910   2.526  0.6689 -1.0237  0.8400
 7616SOL    HW233778   0.936   9.003   2.413  0.3582 -0.1556  1.3424
 7617SOL     OW33779   2.936   4.161   3.005 -0.7705 -0.2509 -0.6609
 7617SOL    HW133780   2.946   4.068   2.969 -1.7960 -0.2227 -1.0484
 7617SOL    HW233781   2.898   4.220   2.934 -0.8403  0.2959 -0.1742
 7618SOL     OW33782   0.549   2.821   1.127  0.3504  0.1370  0.1731
 7618SOL    HW133783   0.498   2.836   1.043 -0.6231 -0.6167  0.6304
 7618SOL    HW233784   0.531   2.730   1.163 -0.1989  0.8719  1.8450
 7619SOL     OW33785   8.075   2.091   0.554  0.5942  0.5117 -0.3405
 7619SOL    HW133786   8.011   2.096   0.631  2.1759 -0.2243  1.0368
 7619SOL    HW233787   8.069   2.001   0.511  0.8060  0.3927 -0.1211
 7620SOL     OW33788   8.223   6.092   1.168 -0.1484 -1.0132 -0.2953
 7620SOL    HW133789   8.206   6.151   1.090  0.8117 -1.6518 -0.9995
 7620SOL    HW233790   8.309   6.119   1.213 -0.5002 -0.8883  0.3130
 7621SOL     OW33791   9.504   8.852   2.629  0.5712 -0.1766 -0.5521
 7621SOL    HW133792   9.571   8.918   2.663  0.4091  0.1355 -0.8347
 7621SOL    HW233793   9.536   8.759   2.647 -0.1176 -0.0189  1.6554
 7622SOL     OW33794   2.404   5.447   2.535 -0.1676 -0.2543 -0.7005
 7622SOL    HW133795   2.498   5.416   2.520  0.7423  1.8918  0.2199
 7622SOL    HW233796   2.340   5.375   2.510  1.7533 -2.0321 -0.6409
 7623SOL     OW33797   0.803   0.428   0.756  0.4148  0.3664  0.0820
 7623SOL    HW133798   0.815   0.355   0.689  0.3371 -0.1270  0.6038
 7623SOL    HW233799   0.806   0.517   0.709 -0.4843 -0.0026 -0.7047
 7624SOL     OW33800   2.721   3.785   5.062 -0.6168 -0.1202 -0.0835
 7624SOL    HW133801   2.773   3.849   5.119  0.0376  0.2730 -1.1028
 7624SOL    HW233802   2.777   3.757   4.984 -0.5507 -2.6610  0.8172
 7625SOL     OW33803   0.553   6.478   1.523 -0.4325  0.0748 -0.3049
 7625SOL    HW133804   0.586   6.392   1.486  0.5540  0.7021 -0.9162
 7625SOL    HW233805   0.599   6.554   1.476 -1.3800  0.9279  0.1323
 7626SOL     OW33806   0.173   7.237   3.766 -0.0356  0.0806 -0.5041
 7626SOL    HW133807   0.143   7.273   3.855  2.1876 -0.3937  0.4676
 7626SOL    HW233808   0.205   7.143   3.777  1.7615  0.5513 -1.4871
 7627SOL     OW33809   0.601   9.273   5.373  0.1842 -0.0908  1.0484
 7627SOL    HW133810   0.558   9.364   5.366  0.1262 -0.1814  0.1480
 7627SOL    HW233811   0.607   9.233   5.282  0.2649 -0.9717  1.4437
 7628SOL     OW33812   3.626   1.856   4.761  0.1492 -0.3149  0.3086
 7628SOL    HW133813   3.637   1.774   4.705 -1.1893 -1.5101  1.7638
 7628SOL    HW233814   3.685   1.929   4.725  0.2949 -1.4554 -1.8423
 7629SOL     OW33815   4.184   1.430   1.967 -0.1510  0.2233 -0.2178
 7629SOL    HW133816   4.158   1.471   1.880 -1.4314  0.4151  0.2375
 7629SOL    HW233817   4.127   1.468   2.040  0.5937 -0.2696  0.6345
 7630SOL     OW33818   3.751   8.870   0.198 -0.3545 -0.6451  0.1701
 7630SOL    HW133819   3.665   8.897   0.241  0.9072  0.6022  1.9710
 7630SOL    HW233820   3.757   8.913   0.108 -1.9854 -1.4455 -0.3496
 7631SOL     OW33821   3.902   4.189   1.441 -0.4165 -0.2387 -0.0413
 7631SOL    HW133822   3.823   4.129   1.450 -1.1698  0.9565  1.6126
 7631SOL    HW233823   3.914   4.242   1.525  1.5388  0.3379 -0.6494
 7632SOL     OW33824   1.185   4.210   1.020 -0.2040 -0.0395  0.0612
 7632SOL    HW133825   1.091   4.191   0.995 -0.4535  0.6768  0.4335
 7632SOL    HW233826   1.218   4.290   0.969 -0.1740  0.3973  0.7532
 7633SOL     OW33827   9.850   1.404   4.063  0.1497  0.0915 -0.0209
 7633SOL    HW133828   9.809   1.352   4.137 -1.6690  1.6103  0.1042
 7633SOL    HW233829   9.832   1.358   3.976 -2.6798  1.1426 -0.0650
 7634SOL     OW33830   9.223   8.392   3.348  0.5943 -0.2622  0.2913
 7634SOL    HW133831   9.223   8.326   3.273 -0.4537 -1.3278  1.2021
 7634SOL    HW233832   9.310   8.387   3.396  0.7235 -0.6012  0.0264
 7635SOL     OW33833   9.142   7.925   3.953  0.0626 -0.6592  0.5116
 7635SOL    HW133834   9.065   7.883   4.001 -0.3306  0.2829  0.7096
 7635SOL    HW233835   9.226   7.906   4.003 -0.4259  0.8696  1.9466
 7636SOL     OW33836   2.779   5.689   2.357 -0.4363  0.5623 -0.2282
 7636SOL    HW133837   2.748   5.756   2.424 -2.2038  0.0132 -0.4881
 7636SOL    HW233838   2.701   5.644   2.316  0.7099 -1.1014 -0.6386
 7637SOL     OW33839   9.624   9.782   2.895 -0.7842  0.1569 -0.3376
 7637SOL    HW133840   9.644   9.684   2.898 -1.8961 -0.0754 -0.2615
 7637SOL    HW233841   9.648   9.823   2.983 -1.2029 -0.2365 -0.0307
 7638SOL     OW33842   0.740   6.803   0.540 -0.6805  1.2314  0.3582
 7638SOL    HW133843   0.732   6.717   0.590 -1.3819  1.1939  0.1757
 7638SOL    HW233844   0.730   6.786   0.442 -1.1411  1.5725  0.3489
 7639SOL     OW33845   7.450   0.884   4.245 -0.0869 -0.2612  0.4486
 7639SOL    HW133846   7.386   0.923   4.179  0.5820 -1.0635 -0.6808
 7639SOL    HW233847   7.528   0.945   4.257 -0.7252  0.4102  1.3494
 7640SOL     OW33848   1.352   5.419   3.394  0.1120  0.7823  0.7550
 7640SOL    HW133849   1.297   5.450   3.471  0.6023 -0.1246  1.4897
 7640SOL    HW233850   1.338   5.320   3.381 -0.8097  1.1302 -1.0180
 7641SOL     OW33851   8.559   6.971   0.788 -0.1771  0.2293 -0.2347
 7641SOL    HW133852   8.585   6.963   0.885 -0.9452 -2.7118 -0.2132
 7641SOL    HW233853   8.495   7.047   0.777 -0.4426  0.3103  1.6634
 7642SOL     OW33854   9.072   9.012   1.444  0.2815 -0.8953  0.2226
 7642SOL    HW133855   9.031   9.074   1.377 -2.6794 -1.8654  1.0385
 7642SOL    HW233856   9.095   9.063   1.526  0.8239 -0.3103 -0.2853
 7643SOL     OW33857   9.158   9.873   1.211 -0.1850 -0.6440 -0.2608
 7643SOL    HW133858   9.147   9.844   1.116 -0.4491  0.7024 -0.6546
 7643SOL    HW233859   9.251   9.906   1.225 -0.6139  0.6808 -0.4851
 7644SOL     OW33860   9.567   2.970   0.835 -0.3612 -0.1015  0.3832
 7644SOL    HW133861   9.486   2.911   0.847  0.3322 -1.5031 -1.5394
 7644SOL    HW233862   9.647   2.913   0.817  0.7696  1.3650  0.6958
 7645SOL     OW33863   0.887   7.625   4.854  0.1972  0.0425  0.0530
 7645SOL    HW133864   0.947   7.704   4.864  0.9298 -0.6923  1.4486
 7645SOL    HW233865   0.838   7.609   4.940  0.1760 -1.1294 -0.1768
 7646SOL     OW33866   0.670   1.531   0.470 -0.0501  0.2980 -0.1286
 7646SOL    HW133867   0.583   1.533   0.519  0.9765 -1.1734  1.8013
 7646SOL    HW233868   0.725   1.611   0.495 -0.0931  0.2706  0.0500
 7647SOL     OW33869   9.266   0.911   2.991  0.0476  0.2636  0.3837
 7647SOL    HW133870   9.234   0.995   2.948 -0.1550 -1.0420 -2.0811
 7647SOL    HW233871   9.365   0.906   2.985  0.0207  0.0936  0.0863
 7648SOL     OW33872   3.911   8.505   1.678 -0.2489  0.0050  0.1488
 7648SOL    HW133873   3.895   8.529   1.582 -0.2855 -0.6659 -0.0145
 7648SOL    HW233874   3.914   8.406   1.688  2.2784  0.0814  0.4350
 7649SOL     OW33875   3.837   0.962   1.699 -0.2588  0.3773 -0.0989
 7649SOL    HW133876   3.863   0.893   1.632 -0.7293  0.9947 -0.9318
 7649SOL    HW233877   3.791   1.038   1.652 -2.6834 -0.2361  1.1686
 7650SOL     OW33878   5.115   3.535   0.401  0.2741 -0.0702  0.0417
 7650SOL    HW133879   5.072   3.623   0.382  1.7131  0.6547  0.0017
 7650SOL    HW233880   5.075   3.495   0.484 -2.6679 -0.9697 -1.7725
 7651SOL     OW33881   8.622   1.272   1.362  0.3915 -0.0701  0.8664
 7651SOL    HW133882   8.705   1.308   1.319  0.4312  1.0445  1.8485
 7651SOL    HW233883   8.542   1.310   1.316  0.3473 -2.4659 -1.2141
 7652SOL     OW33884   9.252   2.825   3.492 -0.2083  0.2080  0.2954
 7652SOL    HW133885   9.159   2.858   3.506  0.1191  0.5217  1.8913
 7652SOL    HW233886   9.262   2.735   3.535  0.3960  0.4657  0.6984
 7653SOL     OW33887   8.811   5.917   0.547 -0.5751  0.1994  0.5054
 7653SOL    HW133888   8.907   5.942   0.550 -0.1138 -1.4142 -0.2670
 7653SOL    HW233889   8.754   5.999   0.559  0.8810  1.1304  1.1074
 7654SOL     OW33890   8.629   4.506   0.009  0.5687 -0.4448  0.0458
 7654SOL    HW133891   8.696   4.436   0.030  0.2333 -0.9832 -0.6600
 7654SOL    HW233892   8.589   4.489  -0.082  0.3047  0.5079 -0.0295
 7655SOL     OW33893   2.388   1.000   1.893  0.3086  0.4538  0.3894
 7655SOL    HW133894   2.368   0.904   1.915  0.8282  0.3243  0.2908
 7655SOL    HW233895   2.330   1.059   1.950 -1.9099  0.0752 -1.3872
 7656SOL     OW33896   7.727   6.457   3.417 -0.3358  0.1217  0.0046
 7656SOL    HW133897   7.662   6.411   3.478  0.0860  1.2879  1.3655
 7656SOL    HW233898   7.703   6.554   3.409  0.1810  0.1810 -0.9219
 7657SOL     OW33899   9.228   8.022   2.875 -0.1586  0.5352 -0.1840
 7657SOL    HW133900   9.203   8.005   2.780 -1.0766  1.8982 -0.1998
 7657SOL    HW233901   9.146   8.029   2.930  0.1785  3.7196  0.0026
 7658SOL     OW33902   8.993   2.155   3.031  0.0934  0.6926 -0.2285
 7658SOL    HW133903   8.952   2.231   2.980  1.7007  1.7565  0.0327
 7658SOL    HW233904   9.045   2.097   2.968 -1.7889 -0.7053 -0.5735
 7659SOL     OW33905   1.528   0.485   4.506  0.2925  0.1042  0.1001
 7659SOL    HW133906   1.463   0.424   4.550  1.1012 -1.2397 -0.5208
 7659SOL    HW233907   1.591   0.431   4.450  1.0199  1.5165 -0.4666
 7660SOL     OW33908   3.449   5.136   4.165 -0.1743  0.5230  0.0545
 7660SOL    HW133909   3.376   5.080   4.124  1.4716 -1.7567  0.1538
 7660SOL    HW233910   3.465   5.216   4.107 -1.8276  0.3660 -0.6769
 7661SOL     OW33911   4.745   1.092   2.485  0.4407  0.1785  0.7830
 7661SOL    HW133912   4.839   1.108   2.455  0.3435  0.6561  0.7328
 7661SOL    HW233913   4.741   1.096   2.585  1.0674 -2.9980  0.9891
 7662SOL     OW33914   4.068   9.435   5.143  0.0280  0.3094  0.0921
 7662SOL    HW133915   4.077   9.401   5.050 -0.0041  0.7290 -0.0627
 7662SOL    HW233916   4.008   9.374   5.195 -0.9846  0.7733 -0.5196
 7663SOL     OW33917   2.405   2.780   1.920 -0.7128 -0.2407 -0.3160
 7663SOL    HW133918   2.484   2.835   1.893 -2.0816  1.3695 -1.1127
 7663SOL    HW233919   2.397   2.780   2.020 -1.1468  1.6552 -0.3380
 7664SOL     OW33920   0.257   2.725   5.462  0.0408  0.1314 -0.6154
 7664SOL    HW133921   0.265   2.824   5.473  0.1050  0.0228  0.3119
 7664SOL    HW233922   0.324   2.679   5.521 -0.9905 -0.5120  0.0776
 7665SOL     OW33923   7.395   4.737   0.715 -0.1062 -0.1508  0.2998
 7665SOL    HW133924   7.320   4.673   0.730  1.1812 -2.3756 -2.2727
 7665SOL    HW233925   7.417   4.741   0.617  2.3135  1.3862  0.8476
 7666SOL     OW33926   9.643   7.421   1.120 -0.0502 -0.3124 -0.4174
 7666SOL    HW133927   9.733   7.394   1.153  0.8683  0.4008 -2.2723
 7666SOL    HW233928   9.582   7.341   1.122 -0.0155 -0.3446  2.7584
 7667SOL     OW33929   3.199   5.159   5.322 -0.2362 -0.8883  0.1323
 7667SOL    HW133930   3.110   5.172   5.278 -0.0888 -0.8505 -0.1593
 7667SOL    HW233931   3.254   5.096   5.267  0.2118 -0.2939 -0.1125
 7668SOL     OW33932   3.413   0.202   3.992  0.4349 -0.1786  0.2278
 7668SOL    HW133933   3.334   0.258   3.969  0.1848 -0.1965  1.0517
 7668SOL    HW233934   3.439   0.216   4.087  3.0526  1.8167 -0.7264
 7669SOL     OW33935   9.082   0.117   3.681 -0.5858  0.0167  0.8804
 7669SOL    HW133936   9.104   0.207   3.643  0.2375 -0.4368  0.2426
 7669SOL    HW233937   9.030   0.128   3.766 -2.3400  1.0572 -0.3003
 7670SOL     OW33938   2.030   5.357   2.623 -0.5268 -0.7593  0.2339
 7670SOL    HW133939   2.070   5.333   2.711 -3.7096 -2.6542  1.2167
 7670SOL    HW233940   1.931   5.357   2.630 -0.8358 -0.6401 -3.2817
 7671SOL     OW33941   3.170   5.075   0.917  0.5642  0.2467 -0.2326
 7671SOL    HW133942   3.093   5.017   0.891  0.0392  1.2611 -0.9869
 7671SOL    HW233943   3.144   5.171   0.907  2.1413  0.6041 -1.1323
 7672SOL     OW33944   1.744   4.592   4.275 -0.2777  0.1877 -0.0084
 7672SOL    HW133945   1.761   4.545   4.189 -0.3190 -2.8062  1.5695
 7672SOL    HW233946   1.677   4.665   4.261 -0.3590 -0.3363 -2.4600
 7673SOL     OW33947   0.554   5.835   4.405  0.6567  0.1589 -0.4732
 7673SOL    HW133948   0.503   5.792   4.479  0.3531  0.7406 -0.3348
 7673SOL    HW233949   0.494   5.846   4.325  0.8503 -0.0490 -0.6492
 7674SOL     OW33950   4.059   8.404   3.217 -0.2360 -0.2158 -0.3526
 7674SOL    HW133951   4.127   8.338   3.249 -0.6345 -0.5501 -0.1939
 7674SOL    HW233952   4.022   8.454   3.295 -0.9427 -0.7788 -0.3189
 7675SOL     OW33953   4.192   3.148   1.513 -0.3674  0.0389  0.3743
 7675SOL    HW133954   4.145   3.062   1.533  0.6525 -0.9025 -1.1981
 7675SOL    HW233955   4.278   3.153   1.565  0.3015 -0.5757 -0.6618
 7676SOL     OW33956   9.573   5.933   3.233 -0.0442  0.3540 -0.0194
 7676SOL    HW133957   9.476   5.947   3.210 -0.2679 -1.7457 -0.3927
 7676SOL    HW233958   9.597   5.837   3.220  1.9067  0.7110  0.8207
 7677SOL     OW33959   3.297   7.053   0.630  0.3475  0.3449 -0.2629
 7677SOL    HW133960   3.209   7.021   0.594  0.0358 -0.9325  1.5631
 7677SOL    HW233961   3.321   7.140   0.586 -0.7355 -0.3875 -2.3920
 7678SOL     OW33962   3.104   2.578   3.423 -0.4952 -0.0019 -0.8351
 7678SOL    HW133963   3.016   2.533   3.407 -0.7946 -0.0233  0.8114
 7678SOL    HW233964   3.155   2.582   3.337 -2.1694  0.1642 -1.8530
 7679SOL     OW33965   2.674   7.352   2.368  0.1716  0.5747 -0.0278
 7679SOL    HW133966   2.596   7.289   2.373 -0.6034  1.5826  1.0032
 7679SOL    HW233967   2.706   7.358   2.273 -0.0594 -0.9781 -0.2138
 7680SOL     OW33968   2.053   3.980   0.250  0.0752  0.3535 -0.5936
 7680SOL    HW133969   2.106   4.016   0.174  1.7067 -0.0574  0.3028
 7680SOL    HW233970   1.985   4.047   0.279 -1.2957  0.0745 -3.0910
 7681SOL     OW33971   3.272   0.845   2.777 -0.3248 -0.3384 -0.4400
 7681SOL    HW133972   3.369   0.863   2.794 -0.5742  2.0703 -1.4753
 7681SOL    HW233973   3.237   0.910   2.710 -2.9013 -0.6045  0.6015
 7682SOL     OW33974   5.008   0.120   2.787  0.1102  0.1709  0.5818
 7682SOL    HW133975   4.977   0.201   2.738  0.1563 -0.2308 -0.1094
 7682SOL    HW233976   5.099   0.094   2.756 -0.1143 -0.4472  0.4387
 7683SOL     OW33977   2.281   8.475   2.660  0.4648 -0.5908 -0.3043
 7683SOL    HW133978   2.265   8.396   2.720  3.1026 -0.5298  0.5383
 7683SOL    HW233979   2.199   8.532   2.659 -1.7154 -3.5819 -1.3651
 7684SOL     OW33980   1.206   0.333   0.242 -0.4885  0.5482 -0.0796
 7684SOL    HW133981   1.224   0.324   0.340 -1.1128  0.2384  0.0095
 7684SOL    HW233982   1.128   0.276   0.217  0.8442 -0.8568 -1.1211
 7685SOL     OW33983   3.331   6.709   1.701 -0.1123  0.2767 -0.1464
 7685SOL    HW133984   3.389   6.652   1.643  0.4785  0.3375  0.3833
 7685SOL    HW233985   3.357   6.805   1.692 -1.5785  0.5607 -1.5875
 7686SOL     OW33986   3.012   8.043   2.312  0.1663 -0.1767  0.2344
 7686SOL    HW133987   2.966   7.954   2.317  0.4559 -0.3153  0.4860
 7686SOL    HW233988   3.077   8.043   2.237 -0.4516  0.1185 -0.3005
 7687SOL     OW33989   0.861   9.761   3.868  0.4849 -0.6270 -0.1080
 7687SOL    HW133990   0.913   9.678   3.887  1.6009 -0.1681 -1.1158
 7687SOL    HW233991   0.787   9.741   3.804  1.8999 -0.4885 -1.8147
 7688SOL     OW33992   9.525   5.071   2.356  0.4014  0.1926  0.1130
 7688SOL    HW133993   9.489   4.995   2.409 -0.1151 -0.0834 -0.6178
 7688SOL    HW233994   9.597   5.038   2.295  1.1588  0.5504  0.8001
 7689SOL     OW33995   6.951   6.855   3.674 -0.0492 -0.1418  0.1093
 7689SOL    HW133996   7.004   6.845   3.590 -0.6219  1.2462 -0.4256
 7689SOL    HW233997   6.858   6.821   3.659 -0.0859 -0.1080  0.2605
 7690SOL     OW33998   6.759   1.203   4.536 -0.0576 -0.1928  0.3353
 7690SOL    HW133999   6.775   1.205   4.635 -0.1195 -1.0705  0.3677
 7690SOL    HW234000   6.845   1.221   4.489 -0.3412  1.8358  0.5507
 7691SOL     OW34001   3.599   3.798   2.492  0.6652  0.6561 -0.2746
 7691SOL    HW134002   3.540   3.784   2.571  0.7415 -2.1739 -0.6646
 7691SOL    HW234003   3.679   3.852   2.519  0.9099 -0.6376  1.6754
 7692SOL     OW34004   3.936   8.242   3.021 -0.2441 -0.4089 -0.2651
 7692SOL    HW134005   3.931   8.240   2.921  1.8734 -2.0921 -0.3787
 7692SOL    HW234006   3.997   8.316   3.051 -0.9507  0.1549 -0.2038
 7693SOL     OW34007   8.177   1.868   0.876 -0.0159 -0.6083  0.2473
 7693SOL    HW134008   8.164   1.963   0.905 -1.1987 -1.2941  2.0299
 7693SOL    HW234009   8.243   1.823   0.937 -0.3636 -1.2753  0.1379
 7694SOL     OW34010   8.823   0.436   4.763 -0.7033  0.2087  0.0752
 7694SOL    HW134011   8.813   0.336   4.768 -1.4747  0.2484 -0.5892
 7694SOL    HW234012   8.903   0.464   4.816 -0.4275 -0.7745  0.1895
 7695SOL     OW34013   7.426   9.448   1.106 -0.2949  0.3349  0.8331
 7695SOL    HW134014   7.326   9.446   1.100 -0.3053 -2.4989  1.4343
 7695SOL    HW234015   7.457   9.382   1.175  2.0513  0.4310 -0.0832
 7696SOL     OW34016   2.814   2.184   2.171  1.0984  0.0344 -0.6755
 7696SOL    HW134017   2.907   2.157   2.145  0.4913  0.2363 -3.2803
 7696SOL    HW234018   2.751   2.108   2.152  0.6444  0.0893  0.5663
 7697SOL     OW34019   5.082   7.589   1.230 -0.1823 -0.0508 -0.4328
 7697SOL    HW134020   5.161   7.552   1.278  1.3325 -0.9269 -3.4232
 7697SOL    HW234021   5.106   7.677   1.190 -0.6707 -0.3426 -1.3921
 7698SOL     OW34022   0.703   4.476   3.592 -0.4092  0.7085  0.1004
 7698SOL    HW134023   0.781   4.414   3.594 -0.8241  0.1881  0.7259
 7698SOL    HW234024   0.621   4.425   3.563 -0.7526  0.9625  0.6096
 7699SOL     OW34025   8.330   9.280   2.485 -0.6531  0.2282 -0.0828
 7699SOL    HW134026   8.383   9.287   2.569 -0.5280 -1.1584 -0.0315
 7699SOL    HW234027   8.389   9.296   2.406 -0.4874  0.1857  0.0335
 7700SOL     OW34028   6.571   0.773   2.468  0.3856  0.1961  0.0737
 7700SOL    HW134029   6.599   0.862   2.434  1.9861 -0.4305 -0.3159
 7700SOL    HW234030   6.544   0.715   2.391  0.4787 -0.0324  0.2121
 7701SOL     OW34031   1.406   2.217   2.592 -0.0371 -0.0233 -0.2386
 7701SOL    HW134032   1.392   2.299   2.648  0.2434 -0.1340 -0.0006
 7701SOL    HW234033   1.450   2.242   2.506  0.9918 -0.0470  0.2680
 7702SOL     OW34034   0.926   1.996   0.425  0.1732  0.0296  0.4713
 7702SOL    HW134035   0.911   1.901   0.452  0.4099  0.3109  1.6344
 7702SOL    HW234036   0.851   2.052   0.458  0.0374  0.2489 -0.2092
 7703SOL     OW34037   8.013   4.464   0.867  0.3882  0.2223  0.2633
 7703SOL    HW134038   8.040   4.495   0.958 -0.5715  1.0778  0.2710
 7703SOL    HW234039   7.952   4.532   0.826  1.7051  0.3813 -1.4674
 7704SOL     OW34040   4.184   2.572   1.031  0.4645 -0.1371  0.5911
 7704SOL    HW134041   4.222   2.625   1.107 -0.0433 -1.9738  2.1619
 7704SOL    HW234042   4.248   2.498   1.007  0.5779  0.3711 -0.7179
 7705SOL     OW34043   7.937   0.597   2.732 -0.3694  0.8497  0.5195
 7705SOL    HW134044   8.016   0.608   2.793  1.3227 -0.6471 -1.3270
 7705SOL    HW234045   7.932   0.674   2.669  0.7870  0.0155 -0.6179
 7706SOL     OW34046   3.623   9.811   1.440 -0.5388 -0.4472  0.1197
 7706SOL    HW134047   3.600   9.829   1.344 -0.2077  0.6860  0.2544
 7706SOL    HW234048   3.558   9.745   1.477 -1.7251  0.4176 -0.3846
 7707SOL     OW34049   6.254   0.600   4.469  0.6202 -0.3180  0.0320
 7707SOL    HW134050   6.186   0.556   4.528  0.1586 -0.8477 -0.8888
 7707SOL    HW234051   6.232   0.697   4.459  0.0364 -0.4746 -0.2093
 7708SOL     OW34052   1.932   4.702   1.201  0.3126 -0.1412  0.3887
 7708SOL    HW134053   2.004   4.705   1.132  0.9417  0.1351  1.0478
 7708SOL    HW234054   1.918   4.794   1.238 -1.7065  0.1871 -1.0778
 7709SOL     OW34055   9.940   6.426   0.078 -0.4602  0.8383 -0.3158
 7709SOL    HW134056   9.902   6.439  -0.014 -0.0243 -2.1956 -0.9905
 7709SOL    HW234057  10.010   6.355   0.075  1.4169  2.5248  1.9216
 7710SOL     OW34058   0.168   1.211   1.691  0.1651  0.3653 -0.5840
 7710SOL    HW134059   0.106   1.151   1.741 -1.7250  1.6154 -1.3412
 7710SOL    HW234060   0.217   1.270   1.755  0.4453 -0.5118  0.0100
 7711SOL     OW34061   0.541   7.632   3.479 -0.2335  0.1042  0.3875
 7711SOL    HW134062   0.570   7.724   3.452 -2.1591 -0.0506 -2.5066
 7711SOL    HW234063   0.621   7.577   3.503  1.0810  2.0612  0.6135
 7712SOL     OW34064   1.885   5.740   4.961  0.4597  0.2824  0.4718
 7712SOL    HW134065   1.875   5.641   4.951 -1.5610  0.4981  0.2989
 7712SOL    HW234066   1.964   5.770   4.907  1.2453 -1.2494  0.7089
 7713SOL     OW34067   4.476   1.127   4.333  0.3702 -0.1860  0.2908
 7713SOL    HW134068   4.470   1.222   4.301 -2.5839 -0.6180 -0.5881
 7713SOL    HW234069   4.563   1.088   4.304  0.4272  1.3943 -1.8137
 7714SOL     OW34070   5.065   2.844   3.386  1.0079  0.1401  0.8890
 7714SOL    HW134071   4.976   2.801   3.366  1.2104 -0.2678  0.8559
 7714SOL    HW234072   5.075   2.927   3.332  0.4294  0.4632  1.2647
 7715SOL     OW34073   3.881   0.063   2.480  0.5500  0.1431 -0.1662
 7715SOL    HW134074   3.942  -0.004   2.522 -0.8186 -0.3730  1.0627
 7715SOL    HW234075   3.914   0.155   2.497  1.5702 -0.1684 -0.4571
 7716SOL     OW34076   1.733   5.660   0.197  0.0416  0.1591  0.1051
 7716SOL    HW134077   1.761   5.710   0.115  2.1596 -0.1075  0.6625
 7716SOL    HW234078   1.670   5.587   0.171  0.7069  0.0660 -1.2897
 7717SOL     OW34079   2.074   2.578   3.723 -0.3786  0.0489 -0.5611
 7717SOL    HW134080   1.997   2.549   3.667 -0.1661 -0.3998 -0.6207
 7717SOL    HW234081   2.054   2.667   3.764 -0.4999  0.4293 -1.4324
 7718SOL     OW34082   2.730   4.540   3.743  1.1043  0.7021  0.2316
 7718SOL    HW134083   2.750   4.478   3.667  3.4776  2.0072 -0.2706
 7718SOL    HW234084   2.748   4.493   3.830 -2.0416 -0.9401  0.0642
 7719SOL     OW34085   2.774   1.348   4.918 -0.1983 -0.3168 -0.0301
 7719SOL    HW134086   2.844   1.295   4.966  0.8255 -1.3304 -2.5516
 7719SOL    HW234087   2.817   1.426   4.871 -0.7084 -0.9873 -1.6580
 7720SOL     OW34088   8.752   2.256   2.669 -0.1485  0.2368  0.0582
 7720SOL    HW134089   8.730   2.289   2.577  1.3039  0.9560 -0.0336
 7720SOL    HW234090   8.773   2.158   2.665 -0.7016  0.1275 -0.2663
 7721SOL     OW34091   8.573   6.875   1.266 -0.2069  0.4316  0.2057
 7721SOL    HW134092   8.556   6.929   1.348  0.5767  1.7624 -0.4947
 7721SOL    HW234093   8.486   6.838   1.232 -0.4471 -0.7993  2.0607
 7722SOL     OW34094   9.507   6.846   3.294  0.7864 -0.4030  0.1881
 7722SOL    HW134095   9.480   6.823   3.201  0.3292 -0.0433  0.2271
 7722SOL    HW234096   9.607   6.852   3.300  0.7667  0.9835 -0.6218
 7723SOL     OW34097   8.911   4.977   4.163 -0.0171  0.4112 -0.0435
 7723SOL    HW134098   8.989   5.002   4.106 -0.0191 -1.0822 -0.7021
 7723SOL    HW234099   8.865   5.061   4.195  1.1382  1.2734 -0.6091
 7724SOL     OW34100   4.368   5.984   1.477  0.3608 -0.3138 -0.3662
 7724SOL    HW134101   4.418   6.068   1.494  1.3445 -0.9339 -0.1393
 7724SOL    HW234102   4.280   6.005   1.436  0.1127  0.8998  0.7526
 7725SOL     OW34103   4.594   7.154   2.467  0.0220  0.4763 -0.0277
 7725SOL    HW134104   4.494   7.154   2.462 -0.1241  1.4042  2.3228
 7725SOL    HW234105   4.628   7.061   2.461 -0.9522  0.1698 -1.0465
 7726SOL     OW34106   8.450   7.567   4.682 -0.5267 -0.1318 -0.1977
 7726SOL    HW134107   8.523   7.619   4.726  0.0925 -1.1311 -0.0329
 7726SOL    HW234108   8.364   7.616   4.691 -0.4436 -0.3841  2.2686
 7727SOL     OW34109   9.755   7.382   0.129 -0.3257  0.3302  0.3196
 7727SOL    HW134110   9.714   7.470   0.151 -1.0728 -0.1567  0.8688
 7727SOL    HW234111   9.804   7.347   0.208  1.8044  1.2489 -0.5372
 7728SOL     OW34112   2.476   2.356   1.319 -0.4597 -0.6026  0.5938
 7728SOL    HW134113   2.431   2.443   1.335  1.5736  0.5205  0.4298
 7728SOL    HW234114   2.486   2.341   1.221  0.5396 -0.2580  0.6268
 7729SOL     OW34115   1.752   9.770   0.150  0.0871  0.1176  0.1584
 7729SOL    HW134116   1.840   9.816   0.138  0.1956  0.2789  1.5360
 7729SOL    HW234117   1.735   9.710   0.072  0.7427  1.1763 -0.8192
 7730SOL     OW34118   9.355   7.441   3.746  0.1237 -0.2424 -0.2015
 7730SOL    HW134119   9.415   7.518   3.768 -0.1964 -0.0926  0.1593
 7730SOL    HW234120   9.393   7.357   3.785  0.2918 -0.2071 -0.2898
 7731SOL     OW34121   1.062   5.908   0.322  0.0082 -0.0498 -0.5644
 7731SOL    HW134122   1.148   5.895   0.274  0.4501  1.1414 -0.1349
 7731SOL    HW234123   1.069   5.989   0.381 -0.6367 -1.2701  1.2153
 7732SOL     OW34124   3.938   8.209   5.536  0.4439  0.0124 -0.2019
 7732SOL    HW134125   3.981   8.126   5.498  1.4098  1.0766 -1.4777
 7732SOL    HW234126   3.839   8.198   5.536  0.3825  0.2214 -3.6269
 7733SOL     OW34127   9.895   3.350   2.376 -0.2273  0.5489  0.1311
 7733SOL    HW134128   9.914   3.430   2.318  0.7301  2.7472  3.3582
 7733SOL    HW234129   9.810   3.366   2.427 -1.2148 -1.4952 -0.8088
 7734SOL     OW34130   2.137   1.226   4.938  0.0870 -0.1071  0.0647
 7734SOL    HW134131   2.221   1.175   4.960 -0.2073  0.3672  2.3868
 7734SOL    HW234132   2.062   1.162   4.925  0.0243 -0.3727  1.6072
 7735SOL     OW34133   1.418   3.349   3.809  0.6174  0.3612 -0.1265
 7735SOL    HW134134   1.349   3.317   3.873  0.1494 -0.2567 -0.9328
 7735SOL    HW234135   1.378   3.416   3.747  0.7838  0.1331 -0.4816
 7736SOL     OW34136   2.051   6.840   3.311 -0.3034  0.0711  0.4938
 7736SOL    HW134137   2.067   6.744   3.332  0.2757 -0.5484 -2.4596
 7736SOL    HW234138   1.957   6.865   3.333 -0.7068 -1.4305  0.4838
 7737SOL     OW34139   2.368   9.150   0.258 -0.3022  0.0123  0.3928
 7737SOL    HW134140   2.358   9.176   0.354  2.2243  1.0796  0.3853
 7737SOL    HW234141   2.335   9.224   0.199 -0.7028 -0.1397  0.4263
 7738SOL     OW34142   9.574   4.953   1.085 -0.3464 -0.2988  0.6286
 7738SOL    HW134143   9.608   5.047   1.080 -1.6668  0.1222 -1.1357
 7738SOL    HW234144   9.544   4.924   0.994 -1.6127 -1.8015  1.4928
 7739SOL     OW34145   0.034   2.085   1.403 -0.2615  0.2005  0.4380
 7739SOL    HW134146   0.092   2.019   1.356 -1.1816 -0.9502  0.8804
 7739SOL    HW234147  -0.021   2.135   1.336 -1.1203 -1.0049  0.2100
 7740SOL     OW34148   4.541   2.056   4.469 -0.1754  0.2772 -0.1683
 7740SOL    HW134149   4.558   2.152   4.491 -0.2242  0.3145 -0.2888
 7740SOL    HW234150   4.588   2.033   4.383  0.5141 -0.0254  0.2884
 7741SOL     OW34151   6.021   9.956   2.104  0.0243  0.3286 -0.6117
 7741SOL    HW134152   6.099  10.015   2.085 -0.0022  0.7031  0.4230
 7741SOL    HW234153   5.937   9.999   2.071  0.2299  0.0083 -1.5623
 7742SOL     OW34154   8.845   8.316   1.572 -0.1369  0.6998  0.6439
 7742SOL    HW134155   8.778   8.324   1.498  2.9234  2.7754 -2.0663
 7742SOL    HW234156   8.892   8.228   1.564  1.0202  1.4085 -0.7153
 7743SOL     OW34157   7.778   6.237   4.186 -0.0571 -0.3574  0.6019
 7743SOL    HW134158   7.706   6.305   4.201 -0.4790 -0.5915 -0.3345
 7743SOL    HW234159   7.737   6.146   4.178  0.4655 -0.6648  1.4089
 7744SOL     OW34160   0.583   8.050   1.491 -0.3077  0.0511 -0.2440
 7744SOL    HW134161   0.640   8.049   1.409  0.1875 -1.1546  0.1040
 7744SOL    HW234162   0.605   8.131   1.546  2.2180 -1.2121  0.6766
 7745SOL     OW34163   8.059   5.886   2.994 -0.2974 -0.2302 -0.1526
 7745SOL    HW134164   7.998   5.923   3.065  0.0982 -1.4134  0.8267
 7745SOL    HW234165   8.004   5.848   2.920 -0.7622 -0.8779  0.5136
 7746SOL     OW34166   8.456   0.125   2.510  0.1011 -0.1713  0.0016
 7746SOL    HW134167   8.523   0.085   2.447  1.5724 -1.2703  2.2095
 7746SOL    HW234168   8.363   0.105   2.478  0.8147 -0.0029 -2.2276
 7747SOL     OW34169   9.267   2.733   2.473 -0.2957 -0.3004 -0.0181
 7747SOL    HW134170   9.246   2.668   2.400  0.3547 -1.8147  1.1422
 7747SOL    HW234171   9.181   2.765   2.514 -0.6274 -0.0925 -0.8542
 7748SOL     OW34172   1.726   7.618   4.385  0.0927  0.6265  0.1404
 7748SOL    HW134173   1.725   7.591   4.289  1.4220 -1.2033  0.6147
 7748SOL    HW234174   1.808   7.581   4.429 -0.7187  1.0874  2.0934
 7749SOL     OW34175   8.823   5.648   3.223  0.0305  0.0757  0.3663
 7749SOL    HW134176   8.815   5.577   3.153 -0.0385  1.8994 -1.5262
 7749SOL    HW234177   8.918   5.674   3.232 -0.3911  2.5951 -1.9185
 7750SOL     OW34178   2.909   1.364   2.218  0.4482 -0.1198 -0.3700
 7750SOL    HW134179   2.862   1.276   2.223 -0.4439  0.4137  0.9246
 7750SOL    HW234180   2.966   1.376   2.300  1.7753 -0.1548 -1.2735
 7751SOL     OW34181   3.051   2.330   4.449  0.6700  0.0119  0.2727
 7751SOL    HW134182   3.144   2.294   4.457  0.3859 -0.2510  2.9414
 7751SOL    HW234183   3.055   2.428   4.429  1.4940 -0.2064 -0.6755
 7752SOL     OW34184   8.346   2.139   0.479  0.0907 -0.6703 -0.2321
 7752SOL    HW134185   8.250   2.120   0.502  0.2952 -1.4651 -0.0245
 7752SOL    HW234186   8.365   2.107   0.387  0.0665 -0.1864 -0.4076
 7753SOL     OW34187   2.361   8.881   4.260 -0.0815  0.4122 -0.4175
 7753SOL    HW134188   2.262   8.897   4.261  0.1620  2.0192 -0.5301
 7753SOL    HW234189   2.385   8.818   4.334 -1.1714  0.0756 -0.3385
 7754SOL     OW34190   1.860   7.788   4.858 -0.6230 -0.0664  0.0627
 7754SOL    HW134191   1.946   7.837   4.844  0.4226 -2.1870 -1.2886
 7754SOL    HW234192   1.848   7.768   4.955  1.0731 -0.8586  0.1318
 7755SOL     OW34193   0.536   8.520   2.529 -0.1160 -0.2679 -0.2022
 7755SOL    HW134194   0.494   8.532   2.619 -1.2054  0.3955 -0.7877
 7755SOL    HW234195   0.623   8.568   2.525  0.4767 -1.2256  0.8584
 7756SOL     OW34196   9.003   5.965   4.033  0.1019  0.6342  0.1906
 7756SOL    HW134197   8.956   5.882   4.001 -0.5534 -0.5357  3.9367
 7756SOL    HW234198   8.958   6.045   3.994  0.2458 -0.6995 -2.8709
 7757SOL     OW34199   4.009   2.409   1.283  0.1741 -0.2605 -0.0710
 7757SOL    HW134200   3.973   2.487   1.232  0.9009  1.2447  1.6516
 7757SOL    HW234201   4.104   2.428   1.309  0.4008 -1.7968  0.2178
 7758SOL     OW34202   1.116   6.904   3.193  0.1129  0.3248 -0.3296
 7758SOL    HW134203   1.033   6.952   3.223  0.5847  0.9427 -0.0092
 7758SOL    HW234204   1.093   6.844   3.117 -0.4470  1.2332 -0.8979
 7759SOL     OW34205   8.390   7.231   5.442  0.1536 -0.1956  0.0810
 7759SOL    HW134206   8.444   7.314   5.438  2.2809 -1.5787 -0.7678
 7759SOL    HW234207   8.319   7.233   5.372  1.8808 -0.2177 -1.7027
 7760SOL     OW34208   6.754   9.658   3.504 -0.0377 -0.0631 -0.7443
 7760SOL    HW134209   6.822   9.673   3.576 -0.7704  0.3861 -0.1411
 7760SOL    HW234210   6.740   9.560   3.492  0.0708 -0.1406 -0.2602
 7761SOL     OW34211   1.680   4.788   1.390 -0.3173 -0.2098 -0.4503
 7761SOL    HW134212   1.584   4.784   1.361 -0.2790 -1.4805 -0.4400
 7761SOL    HW234213   1.685   4.823   1.483 -0.6383  1.5095 -1.0706
 7762SOL     OW34214   9.645   4.139   3.658  0.1197  0.2872 -0.4028
 7762SOL    HW134215   9.623   4.127   3.754 -0.8575  0.9051 -0.5305
 7762SOL    HW234216   9.597   4.070   3.604 -1.5840  1.6320 -0.6833
 7763SOL     OW34217   2.597   1.051   0.566  0.1089 -0.6128  0.3116
 7763SOL    HW134218   2.602   1.148   0.542  0.3923 -0.6739  0.1214
 7763SOL    HW234219   2.531   1.038   0.640 -1.0594 -0.4754 -0.6939
 7764SOL     OW34220   1.953   7.997   1.558 -0.5522  0.1448  0.2573
 7764SOL    HW134221   1.862   8.013   1.597 -0.3720  0.0113  0.7245
 7764SOL    HW234222   1.988   8.083   1.521 -0.5815  0.3411  0.6803
 7765SOL     OW34223   0.701   1.399   3.379 -0.0826  1.1010  0.7825
 7765SOL    HW134224   0.622   1.423   3.322  0.0138 -0.4745 -0.0473
 7765SOL    HW234225   0.783   1.398   3.322 -0.1442 -1.5761  0.6411
 7766SOL     OW34226   2.706   6.151   5.238  0.2573 -0.2057 -0.0097
 7766SOL    HW134227   2.698   6.095   5.320 -0.1752  0.6279  0.5196
 7766SOL    HW234228   2.726   6.245   5.263  2.1400 -0.3390 -0.9534
 7767SOL     OW34229   9.025   7.002   0.982  0.0697 -0.4858  0.1655
 7767SOL    HW134230   9.017   7.020   0.884  0.3076  0.8085  0.3682
 7767SOL    HW234231   9.054   6.908   0.997  2.2297 -0.0484 -1.0788
 7768SOL     OW34232   4.283   8.544   1.245 -0.0360  0.2356 -0.0920
 7768SOL    HW134233   4.359   8.480   1.255 -0.0763  0.4315  1.6205
 7768SOL    HW234234   4.260   8.554   1.148  2.4873  0.6068 -0.6725
 7769SOL     OW34235   6.953   9.309   2.519  0.2062  0.5686  0.0176
 7769SOL    HW134236   7.007   9.256   2.585 -0.1644 -0.9205 -0.8586
 7769SOL    HW234237   6.910   9.247   2.454  0.7168  2.0312 -1.7584
 7770SOL     OW34238   2.683   2.246   1.856 -0.2739  0.0835 -0.1262
 7770SOL    HW134239   2.757   2.239   1.923 -1.8688 -1.8645  1.4784
 7770SOL    HW234240   2.637   2.157   1.847 -0.3077  0.3759 -3.5808
 7771SOL     OW34241   3.978   1.165   3.757 -0.0170  0.0446  0.2696
 7771SOL    HW134242   3.944   1.258   3.740 -1.3060 -0.0418  2.1415
 7771SOL    HW234243   4.009   1.158   3.852  1.4256 -1.0572 -0.2666
 7772SOL     OW34244   2.379   5.759   0.224  0.2257  0.6171 -0.3199
 7772SOL    HW134245   2.436   5.707   0.289 -1.4864 -0.8981  0.0031
 7772SOL    HW234246   2.433   5.779   0.142  1.7126  0.5729  0.6143
 7773SOL     OW34247   2.617   4.547   4.481 -0.0094 -0.5689 -0.0717
 7773SOL    HW134248   2.543   4.611   4.461 -0.8332 -1.2326  0.8308
 7773SOL    HW234249   2.705   4.593   4.466 -0.5877  0.6754  0.2345
 7774SOL     OW34250   0.329   9.977   3.455  0.0366  0.3184  0.8505
 7774SOL    HW134251   0.310  10.075   3.455  0.2745  0.3838 -0.9128
 7774SOL    HW234252   0.249   9.927   3.422  0.1257 -0.0254  1.1567
 7775SOL     OW34253   2.686   8.858   4.029 -0.1875  0.7068  0.5871
 7775SOL    HW134254   2.763   8.825   4.083 -0.1720 -0.2609 -0.0169
 7775SOL    HW234255   2.706   8.950   3.995  0.5095  0.6355  0.7998
 7776SOL     OW34256   3.670   9.922   3.931 -0.1425  0.4802  0.4772
 7776SOL    HW134257   3.585   9.940   3.882  0.9645  1.3463 -1.1824
 7776SOL    HW234258   3.738   9.991   3.906  1.9866 -1.9140 -0.5696
 7777SOL     OW34259   8.025   3.033   4.269 -0.3410  0.2996  0.2738
 7777SOL    HW134260   8.046   3.035   4.172  0.7451  0.7839  0.5000
 7777SOL    HW234261   8.102   2.992   4.319  0.8054  3.4892  1.2890
 7778SOL     OW34262   6.186   0.747   3.982 -1.2765  0.1838 -0.5105
 7778SOL    HW134263   6.126   0.815   3.939 -1.4883  0.8369  0.7801
 7778SOL    HW234264   6.189   0.665   3.925  0.5559  1.9705 -3.1196
 7779SOL     OW34265   7.838   9.433   2.031  0.1640  0.3173  0.5424
 7779SOL    HW134266   7.865   9.357   1.973 -1.5099 -0.6831  1.0402
 7779SOL    HW234267   7.902   9.509   2.019 -1.3565  0.9947 -4.2615
 7780SOL     OW34268   9.830   9.104   1.069  0.2533  0.0427  0.3149
 7780SOL    HW134269   9.896   9.160   1.119 -0.1125 -0.6897  1.6302
 7780SOL    HW234270   9.800   9.153   0.987  2.7291  0.2105 -0.5262
 7781SOL     OW34271   0.115   9.635   4.630  0.4666 -0.1614  0.3270
 7781SOL    HW134272   0.055   9.650   4.708  0.2432  0.6060  0.0098
 7781SOL    HW234273   0.087   9.693   4.554  2.1456  0.8609  0.4615
 7782SOL     OW34274   3.293   6.040   0.902  0.1097 -0.3496 -0.5219
 7782SOL    HW134275   3.324   5.946   0.916  0.3622  0.0197  1.5410
 7782SOL    HW234276   3.219   6.060   0.966 -0.2692  0.7104 -1.2845
 7783SOL     OW34277   2.647   5.851   2.781  0.3794 -0.1508  0.2875
 7783SOL    HW134278   2.706   5.859   2.701 -0.3556  0.6097 -0.1805
 7783SOL    HW234279   2.659   5.760   2.822  1.9988  0.0427  0.3061
 7784SOL     OW34280   4.140   9.237   5.596  0.4265  0.4708 -0.4832
 7784SOL    HW134281   4.047   9.199   5.592  0.3680  0.4249  1.2325
 7784SOL    HW234282   4.170   9.260   5.503 -1.1403  0.1162 -1.0937
 7785SOL     OW34283   6.345   8.288   3.157 -0.1362  0.5118  0.0110
 7785SOL    HW134284   6.325   8.190   3.154  0.6159  0.3390  0.8388
 7785SOL    HW234285   6.343   8.325   3.063 -0.4646 -0.2762 -0.2958
 7786SOL     OW34286   0.020   5.166   4.642 -0.4955  0.1158  0.1113
 7786SOL    HW134287   0.096   5.104   4.657  0.9282  0.9765 -2.9769
 7786SOL    HW234288  -0.039   5.129   4.570 -1.5042  0.7076  0.6302
 7787SOL     OW34289   9.198   6.737   4.246 -0.2200  0.2410  0.7731
 7787SOL    HW134290   9.216   6.701   4.155 -0.3601  0.2233  0.7520
 7787SOL    HW234291   9.257   6.691   4.312  0.0176  0.3938  0.6655
 7788SOL     OW34292   9.534   6.831   0.956  0.2476 -0.0867 -0.1005
 7788SOL    HW134293   9.583   6.744   0.959  1.1166  0.4355  1.3065
 7788SOL    HW234294   9.563   6.888   1.032 -2.1806  0.4314  0.4939
 7789SOL     OW34295   4.045   0.989   3.506  0.4159  0.4178  0.2494
 7789SOL    HW134296   4.001   1.019   3.591 -0.2235  0.0002  0.0727
 7789SOL    HW234297   4.047   1.064   3.441 -1.1730  0.0963 -0.1909
 7790SOL     OW34298   7.431   0.635   0.520 -0.4942  0.0164  0.1968
 7790SOL    HW134299   7.402   0.731   0.518  2.0213  0.7973 -1.3680
 7790SOL    HW234300   7.514   0.627   0.575 -0.3448 -1.1812 -0.1998
 7791SOL     OW34301   2.816   4.893   3.336  0.3589  0.0104  0.1233
 7791SOL    HW134302   2.771   4.807   3.309 -0.4411  0.5345 -0.2242
 7791SOL    HW234303   2.846   4.941   3.254 -0.6683  0.8526  0.2272
 7792SOL     OW34304   0.052   3.327   2.589  0.5907  0.2151  0.9151
 7792SOL    HW134305   0.150   3.310   2.577  0.9282  3.2853 -1.3399
 7792SOL    HW234306   0.008   3.332   2.500 -0.8608  2.8765  1.7375
 7793SOL     OW34307   4.267   3.035   3.094  0.2517 -0.5387  0.2583
 7793SOL    HW134308   4.247   3.025   3.191  0.8008  2.1422  0.6822
 7793SOL    HW234309   4.355   3.082   3.083 -0.9190  1.2673 -1.5382
 7794SOL     OW34310   6.263   8.276   3.532 -0.2206  0.7135  0.3738
 7794SOL    HW134311   6.276   8.369   3.567  3.2362  0.8227 -1.0389
 7794SOL    HW234312   6.347   8.224   3.544 -2.1003 -2.2550  1.0777
 7795SOL     OW34313   1.717   2.080   3.459  0.0593  0.2943 -0.5172
 7795SOL    HW134314   1.747   2.175   3.462  1.0461  0.0620 -2.1042
 7795SOL    HW234315   1.701   2.053   3.364  0.7792 -1.4125 -0.1834
 7796SOL     OW34316   1.184   3.129   4.731 -0.7647 -0.8454  0.0584
 7796SOL    HW134317   1.122   3.055   4.757  0.1283 -1.1019  1.5271
 7796SOL    HW234318   1.146   3.217   4.759 -0.7665 -0.9468  0.3738
 7797SOL     OW34319   2.557   6.009   4.264  0.1060  1.0285 -0.2174
 7797SOL    HW134320   2.589   5.965   4.348  0.0828  2.1083  0.3660
 7797SOL    HW234321   2.521   6.100   4.285 -1.7918  0.5250 -1.0894
 7798SOL     OW34322   1.452   1.900   4.313  0.3642 -0.1362 -0.1845
 7798SOL    HW134323   1.360   1.885   4.348  1.2302 -0.4144  2.0418
 7798SOL    HW234324   1.450   1.972   4.243 -1.6349 -0.7015 -0.7317
 7799SOL     OW34325   5.745   8.124   3.439 -0.2938  0.0438  0.1837
 7799SOL    HW134326   5.814   8.172   3.385 -0.0757  0.1510  0.5569
 7799SOL    HW234327   5.711   8.185   3.511 -1.1619  0.1765 -0.3194
 7800SOL     OW34328   3.762   9.191   4.293  0.4890 -0.2181  0.0334
 7800SOL    HW134329   3.851   9.224   4.262  0.8763 -0.7307  0.5749
 7800SOL    HW234330   3.702   9.178   4.215  1.3406 -1.1671 -0.4692
 7801SOL     OW34331   7.647   8.317   3.133  0.3359 -0.3846  0.5257
 7801SOL    HW134332   7.660   8.231   3.180  2.2419  0.8251  2.2746
 7801SOL    HW234333   7.726   8.336   3.074 -0.4012 -0.1847 -0.4110
 7802SOL     OW34334   8.517   1.862   4.868  0.0129 -0.3915  0.6514
 7802SOL    HW134335   8.557   1.865   4.776  1.0971  0.5820  1.1501
 7802SOL    HW234336   8.584   1.894   4.935 -1.1623 -0.0013  1.6579
 7803SOL     OW34337   4.958   8.272   3.051 -0.0997 -0.1140 -0.1036
 7803SOL    HW134338   4.974   8.181   3.013 -0.2921 -0.2996  0.2543
 7803SOL    HW234339   4.973   8.341   2.980  2.7937 -0.2338  0.3385
 7804SOL     OW34340   7.422   1.968   3.507  0.7004  0.8629 -0.2483
 7804SOL    HW134341   7.497   1.904   3.491 -0.3529 -0.2908 -0.5884
 7804SOL    HW234342   7.361   1.970   3.428  1.3377  3.1801 -0.7452
 7805SOL     OW34343   4.270   9.375   1.143  0.4533  0.1131 -0.3461
 7805SOL    HW134344   4.349   9.423   1.106  0.0357  1.5127  0.5145
 7805SOL    HW234345   4.284   9.358   1.241 -0.6043  1.0226 -0.0224
 7806SOL     OW34346   8.055   0.124   2.957  0.2664  0.3152  0.0378
 7806SOL    HW134347   8.038   0.134   2.859  0.4726  0.2241 -0.0079
 7806SOL    HW234348   8.024   0.035   2.988 -2.1710  1.3164  0.5747
 7807SOL     OW34349   8.898   1.797   0.524  0.1831 -0.2240  0.0405
 7807SOL    HW134350   8.944   1.881   0.552  0.0614 -0.6088  1.4148
 7807SOL    HW234351   8.825   1.775   0.588 -0.6064 -0.7093 -1.0149
 7808SOL     OW34352   4.957   1.425   0.672 -0.1368 -0.5728  0.6961
 7808SOL    HW134353   5.032   1.383   0.622  0.6961  1.3583  0.2845
 7808SOL    HW234354   4.991   1.502   0.726 -1.8831  0.5911  0.1862
 7809SOL     OW34355   2.250   2.707   4.803 -0.0276 -0.5207  0.2686
 7809SOL    HW134356   2.229   2.616   4.837  1.4203 -0.8906  0.2379
 7809SOL    HW234357   2.268   2.768   4.880  4.8735 -1.7580  0.3006
 7810SOL     OW34358   3.981   9.918   2.227  0.6095 -0.0511 -0.2604
 7810SOL    HW134359   4.027   9.894   2.313 -1.8902  0.1003  1.1704
 7810SOL    HW234360   3.990  10.016   2.211 -1.9535  0.5960  1.7799
 7811SOL     OW34361   1.575   7.031   3.305 -0.3155 -0.1034 -0.3740
 7811SOL    HW134362   1.584   7.085   3.221  0.9729 -2.0694 -1.5311
 7811SOL    HW234363   1.496   6.970   3.296 -0.1381 -0.3590 -0.1880
 7812SOL     OW34364   2.120   6.963   3.542  0.2720 -0.6154 -0.0841
 7812SOL    HW134365   2.079   6.934   3.456 -1.7494  0.5033  0.4660
 7812SOL    HW234366   2.220   6.958   3.535  0.1087 -1.4202 -2.1570
 7813SOL     OW34367   0.978   1.582   1.281 -0.7793  0.4105 -0.5640
 7813SOL    HW134368   0.974   1.550   1.186 -1.4428  0.3644 -0.5201
 7813SOL    HW234369   0.940   1.674   1.287 -1.1922  0.2200 -0.2548
 7814SOL     OW34370   7.874   1.279   4.469  0.3160 -0.2356  0.2259
 7814SOL    HW134371   7.809   1.312   4.401  0.3026 -0.3964  0.1585
 7814SOL    HW234372   7.909   1.355   4.522 -0.4174 -0.2163  0.6890
 7815SOL     OW34373   0.983   2.641   0.496  0.3882  0.0188 -0.1404
 7815SOL    HW134374   1.006   2.727   0.541 -0.1876  0.0856  0.0337
 7815SOL    HW234375   0.953   2.659   0.402 -0.7081  0.1146  0.2167
 7816SOL     OW34376   7.196   3.720   5.188  0.0620 -0.2837 -0.7903
 7816SOL    HW134377   7.236   3.730   5.279  1.4946 -1.0351 -1.3332
 7816SOL    HW234378   7.096   3.724   5.195  0.1795  0.1451  0.7464
 7817SOL     OW34379   8.821   3.438   1.712  0.3093 -0.4185 -0.5424
 7817SOL    HW134380   8.853   3.533   1.714  0.8408 -0.5873 -0.7946
 7817SOL    HW234381   8.780   3.419   1.623 -0.1510 -0.3105 -0.3517
 7818SOL     OW34382   1.780   8.497   3.707 -0.4777  0.1332 -0.0081
 7818SOL    HW134383   1.736   8.473   3.620  0.4348 -1.5453 -0.0366
 7818SOL    HW234384   1.808   8.593   3.705  1.6468 -0.4741 -2.5247
 7819SOL     OW34385   3.776   2.609   5.608  0.0488  0.7518  0.1605
 7819SOL    HW134386   3.856   2.669   5.609  0.5422  0.1366 -1.3974
 7819SOL    HW234387   3.695   2.662   5.584  0.4654  0.8358 -1.0987
 7820SOL     OW34388   9.495   6.438   1.898 -0.4245 -0.3490  0.0506
 7820SOL    HW134389   9.584   6.393   1.906 -0.8397 -1.1936  0.0070
 7820SOL    HW234390   9.425   6.382   1.943 -0.7516  0.8543  1.0345
 7821SOL     OW34391   9.071   6.585   2.455  0.3684 -0.1333 -0.7034
 7821SOL    HW134392   9.074   6.512   2.524  1.3684  0.1502 -0.4380
 7821SOL    HW234393   9.016   6.555   2.377  1.4861 -1.5083 -0.9815
 7822SOL     OW34394   0.445   0.911   2.482 -0.2145 -0.0268 -0.1118
 7822SOL    HW134395   0.541   0.887   2.497 -0.5252 -2.2509 -1.5479
 7822SOL    HW234396   0.388   0.858   2.545 -0.6551 -0.4662 -0.8742
 7823SOL     OW34397   6.341   8.870   3.752  0.4710 -0.3263  0.2526
 7823SOL    HW134398   6.303   8.865   3.660  1.4833 -1.4872 -0.1115
 7823SOL    HW234399   6.415   8.937   3.755  1.6101 -1.5400 -0.2209
 7824SOL     OW34400   9.191   3.581   4.998 -0.1090  0.1905  0.0719
 7824SOL    HW134401   9.127   3.613   5.068  1.1947  0.9247  0.9373
 7824SOL    HW234402   9.275   3.635   5.001  0.9569 -1.3873 -0.4168
 7825SOL     OW34403   8.697   2.872   4.022 -0.6165  0.2977 -0.4132
 7825SOL    HW134404   8.629   2.917   4.079  0.9423  2.3373 -0.1056
 7825SOL    HW234405   8.754   2.812   4.078 -2.0938 -1.3547 -0.6596
 7826SOL     OW34406   8.540   8.324   4.077 -0.3787  0.2887 -0.4333
 7826SOL    HW134407   8.509   8.358   4.166 -0.4741  0.9303 -0.7139
 7826SOL    HW234408   8.504   8.232   4.062  1.1866 -0.6020  1.0318
 7827SOL     OW34409   7.989   1.640   4.295  0.2440 -0.6067 -0.4386
 7827SOL    HW134410   8.001   1.662   4.198  0.5461 -0.9655 -0.4846
 7827SOL    HW234411   7.891   1.637   4.317  0.1117 -2.1601 -1.1199
 7828SOL     OW34412   8.287   5.477   4.626 -0.0667  0.3133  0.2565
 7828SOL    HW134413   8.322   5.568   4.649  0.6966 -0.1923  1.1285
 7828SOL    HW234414   8.358   5.424   4.581 -0.4506  0.0817 -0.0750
 7829SOL     OW34415   2.335   7.138   0.105 -0.5505 -0.3310  0.3501
 7829SOL    HW134416   2.275   7.096   0.037 -0.7572 -0.9289  0.8961
 7829SOL    HW234417   2.304   7.113   0.197  0.8544 -1.1143  0.6292
 7830SOL     OW34418   0.614   2.285   2.344 -0.2918 -1.0844 -0.3314
 7830SOL    HW134419   0.605   2.220   2.269 -0.1139  0.9394 -2.1455
 7830SOL    HW234420   0.711   2.306   2.358 -0.2691 -1.9655  0.9447
 7831SOL     OW34421   3.310   7.893   3.052 -0.1257  0.0800  0.5515
 7831SOL    HW134422   3.287   7.833   2.976  2.1394  0.7588 -0.7205
 7831SOL    HW234423   3.282   7.850   3.138 -0.6225 -1.7402 -0.4981
 7832SOL     OW34424   5.267   9.844   1.090  0.4504 -0.2773 -0.0260
 7832SOL    HW134425   5.362   9.851   1.121 -0.5648  2.2206  2.7389
 7832SOL    HW234426   5.212   9.802   1.161 -0.8271 -0.2007 -0.9468
 7833SOL     OW34427   7.581   9.991   1.891 -0.2019 -0.0630  1.0326
 7833SOL    HW134428   7.493   9.955   1.922 -0.3652 -0.1052  0.5277
 7833SOL    HW234429   7.581  10.091   1.898 -0.9350  0.0774 -0.5890
 7834SOL     OW34430   4.847   0.882   4.253 -0.5840 -0.3448 -0.7012
 7834SOL    HW134431   4.900   0.875   4.168 -0.7185  0.3440 -0.8454
 7834SOL    HW234432   4.857   0.798   4.305  0.8991 -0.1153 -0.5821
 7835SOL     OW34433   1.508   8.333   3.911  0.3406  0.4119  0.6939
 7835SOL    HW134434   1.564   8.392   3.969  1.7259 -0.3470  0.1377
 7835SOL    HW234435   1.484   8.250   3.960  0.4120  0.3599  0.6416
 7836SOL     OW34436   8.165   1.245   4.575 -0.3410 -0.3759  0.9325
 7836SOL    HW134437   8.114   1.170   4.617 -0.5047  0.7241  2.7562
 7836SOL    HW234438   8.119   1.332   4.594  0.9658  0.4035  0.6220
 7837SOL     OW34439   7.056   9.066   1.067 -0.3821 -0.1133 -0.1757
 7837SOL    HW134440   6.976   9.077   1.126 -1.1813 -0.1114 -1.2490
 7837SOL    HW234441   7.086   8.971   1.067  0.1420  0.0429  0.8905
 7838SOL     OW34442   1.246   7.744   1.428  0.4686  0.1001 -0.3877
 7838SOL    HW134443   1.323   7.701   1.380  0.8536  2.5279 -2.0012
 7838SOL    HW234444   1.164   7.688   1.414  0.4601  0.9073 -4.3223
 7839SOL     OW34445   8.715   3.351   3.493 -0.4359  0.0173 -0.0151
 7839SOL    HW134446   8.718   3.302   3.580  2.1828  0.1170  0.0088
 7839SOL    HW234447   8.806   3.348   3.451 -1.4821  0.6341 -2.3805
 7840SOL     OW34448   7.983   0.953   4.907  0.1238  0.1424  0.1692
 7840SOL    HW134449   8.013   0.857   4.912  1.2881  0.4615 -0.4932
 7840SOL    HW234450   7.914   0.970   4.977 -0.8711 -1.4573 -0.4096
 7841SOL     OW34451   7.647   2.038   0.294 -0.1326 -0.2984 -0.0249
 7841SOL    HW134452   7.652   1.940   0.313 -0.1819 -0.6732 -1.8728
 7841SOL    HW234453   7.564   2.075   0.336  0.2112 -0.9029  1.2301
 7842SOL     OW34454   5.605   0.597   2.581 -0.3580  0.3704 -0.1869
 7842SOL    HW134455   5.699   0.585   2.613 -0.8022 -0.9643  0.6482
 7842SOL    HW234456   5.545   0.532   2.627 -1.1667 -1.0749 -3.1695
 7843SOL     OW34457   3.982   8.266   3.458 -0.1777 -0.3100 -0.2809
 7843SOL    HW134458   3.940   8.238   3.371  0.4843 -4.3634  0.6290
 7843SOL    HW234459   3.920   8.245   3.533  0.9827 -0.7295  0.5606
 7844SOL     OW34460   8.513   6.065   4.915 -0.1283 -0.3388  0.1344
 7844SOL    HW134461   8.479   6.134   4.980 -1.3496 -1.4202  0.6697
 7844SOL    HW234462   8.610   6.082   4.896 -0.7362  2.3048 -0.7710
 7845SOL     OW34463   4.186   0.584   1.608 -0.1789  0.3222 -0.4791
 7845SOL    HW134464   4.183   0.492   1.570  2.5484  0.6885 -1.7272
 7845SOL    HW234465   4.105   0.635   1.580 -2.6470 -2.2176  1.7776
 7846SOL     OW34466   4.453   0.425   4.558  0.4294 -0.3996 -0.1657
 7846SOL    HW134467   4.436   0.437   4.656 -2.7811 -1.5510 -0.5257
 7846SOL    HW234468   4.462   0.515   4.514  0.5597  0.1387  0.9399
 7847SOL     OW34469   4.008   2.364   3.956 -0.6190 -0.0599  0.3891
 7847SOL    HW134470   3.941   2.414   3.902 -1.0711  0.7048  1.6219
 7847SOL    HW234471   4.050   2.292   3.900  0.9684  2.4983 -1.7910
 7848SOL     OW34472   9.175   1.732   1.721 -0.1845  1.3024  0.1327
 7848SOL    HW134473   9.170   1.804   1.790  1.1830  1.9593 -0.4408
 7848SOL    HW234474   9.182   1.773   1.630  1.5519  0.4622 -0.1305
 7849SOL     OW34475   9.966   6.840   2.440  0.0895 -0.5107 -0.4057
 7849SOL    HW134476  10.030   6.889   2.499  0.5213 -2.5970  0.9254
 7849SOL    HW234477  10.009   6.823   2.351  0.4922  0.1695 -0.3459
 7850SOL     OW34478   2.017   8.039   5.105  0.2106  0.1163 -0.1601
 7850SOL    HW134479   2.047   8.127   5.141 -0.1279 -0.4066  1.4663
 7850SOL    HW234480   2.027   7.969   5.177 -3.6589 -0.3269  0.0449
 7851SOL     OW34481   7.236   0.641   4.903 -0.3103  0.5140  0.1695
 7851SOL    HW134482   7.294   0.662   4.982  0.2746  1.0160 -0.3888
 7851SOL    HW234483   7.273   0.686   4.822 -0.3917 -0.7562 -0.5730
 7852SOL     OW34484   1.705   7.337   0.320  0.1443  0.4631  0.1170
 7852SOL    HW134485   1.612   7.374   0.315  0.6298  1.7350  0.3007
 7852SOL    HW234486   1.753   7.357   0.235  1.1690  2.3605  1.1146
 7853SOL     OW34487   1.857   8.522   0.103 -0.4710 -0.0214  0.4157
 7853SOL    HW134488   1.802   8.458   0.050  0.4681  0.5875 -1.3079
 7853SOL    HW234489   1.900   8.474   0.180  0.7144 -1.5931 -1.2174
 7854SOL     OW34490   8.953   1.670   1.394  0.0874  0.8173 -0.5865
 7854SOL    HW134491   8.939   1.695   1.490  0.6120  1.0664 -0.5732
 7854SOL    HW234492   8.980   1.751   1.342 -1.8308  1.0487 -1.2897
 7855SOL     OW34493   0.322   2.768   2.859 -0.2138  0.3083  0.5910
 7855SOL    HW134494   0.225   2.756   2.881  0.2327 -0.6112  2.1516
 7855SOL    HW234495   0.360   2.840   2.916 -0.0302  0.8325 -0.1901
 7856SOL     OW34496   5.974   1.658   3.527 -0.1058  0.2226  0.0912
 7856SOL    HW134497   6.063   1.682   3.488 -0.7974  1.6824 -0.6343
 7856SOL    HW234498   5.913   1.627   3.453 -0.8668  1.2962  0.2555
 7857SOL     OW34499   8.318   8.884   1.528 -0.5076  0.0031  0.8852
 7857SOL    HW134500   8.328   8.976   1.567  1.6296  0.7380 -1.2850
 7857SOL    HW234501   8.379   8.821   1.576  1.1253  0.6196 -0.3602
 7858SOL     OW34502   0.190   4.949   1.828  0.0429  0.1116 -0.3752
 7858SOL    HW134503   0.158   5.043   1.842  0.8661  0.2049  0.8957
 7858SOL    HW234504   0.251   4.946   1.749 -1.4048  0.3109 -1.5283
 7859SOL     OW34505   2.334   2.991   4.924 -0.1359  0.3229 -0.6823
 7859SOL    HW134506   2.237   3.011   4.919 -0.4766 -0.5574  1.7686
 7859SOL    HW234507   2.384   3.074   4.951 -0.7323 -0.2394  2.3354
 7860SOL     OW34508   1.521   0.499   3.972 -0.2131  0.9000 -0.2426
 7860SOL    HW134509   1.514   0.537   3.880 -1.6500  2.0645  0.3336
 7860SOL    HW234510   1.546   0.572   4.036 -2.0680  0.6927  0.7393
 7861SOL     OW34511   8.130   5.670   4.218 -0.0954  0.4083  0.0555
 7861SOL    HW134512   8.217   5.712   4.191  0.2989  0.0908  0.8315
 7861SOL    HW234513   8.131   5.650   4.316  0.5645 -3.3271 -0.6295
 7862SOL     OW34514   1.691   2.844   2.682  0.3537 -0.1722  0.0132
 7862SOL    HW134515   1.731   2.916   2.626  0.7195 -1.3555 -1.3022
 7862SOL    HW234516   1.750   2.825   2.760 -0.6665  2.2004  1.3895
 7863SOL     OW34517   9.710   4.093   2.315  0.3364 -0.0052 -0.0573
 7863SOL    HW134518   9.700   4.074   2.413 -1.1878 -2.2425 -0.5938
 7863SOL    HW234519   9.782   4.034   2.277 -0.1354 -0.2515 -0.5735
 7864SOL     OW34520   8.013   8.979   3.299 -0.2848  0.1517 -0.2203
 7864SOL    HW134521   7.918   9.005   3.317 -0.2034  0.5021 -0.2899
 7864SOL    HW234522   8.054   8.944   3.382 -0.7861 -0.9671 -0.4417
 7865SOL     OW34523   8.163   3.910   0.384 -0.0019  0.0041  0.0024
 7865SOL    HW134524   8.186   3.985   0.322  0.9725 -1.3012 -1.2683
 7865SOL    HW234525   8.070   3.879   0.365 -0.7046  1.4159  1.0935
 7866SOL     OW34526   3.711   0.981   4.649 -0.2877  0.3328 -0.1732
 7866SOL    HW134527   3.690   1.070   4.690  2.3310  2.4143 -3.1742
 7866SOL    HW234528   3.810   0.972   4.636 -0.5351 -2.8964 -0.2727
 7867SOL     OW34529   2.168   5.420   5.242 -0.0944 -0.0644  0.3484
 7867SOL    HW134530   2.210   5.364   5.314  0.2579  1.6040  1.4709
 7867SOL    HW234531   2.240   5.460   5.185 -0.2843  0.2796  0.3470
 7868SOL     OW34532   8.166   5.469   1.070 -0.1132  0.1519 -0.1431
 7868SOL    HW134533   8.135   5.380   1.104  0.2216 -0.8796 -2.4936
 7868SOL    HW234534   8.093   5.511   1.016  0.2284  0.7136 -0.1698
 7869SOL     OW34535   2.198   5.905   1.241 -0.4462 -0.7828  0.0783
 7869SOL    HW134536   2.207   5.845   1.161 -1.2629 -1.0954  0.2181
 7869SOL    HW234537   2.207   5.851   1.324  1.5413 -0.2819  0.2072
 7870SOL     OW34538   0.747   8.076   5.523  0.5374  0.2268  0.7876
 7870SOL    HW134539   0.780   8.141   5.592 -0.2412  0.5880  0.8220
 7870SOL    HW234540   0.798   8.089   5.438  1.3226 -0.0455  1.2041
 7871SOL     OW34541   0.319   5.587   2.433  0.1847  0.4090 -0.2889
 7871SOL    HW134542   0.305   5.561   2.337 -0.3246 -0.0177 -0.0996
 7871SOL    HW234543   0.388   5.659   2.438  1.0101 -0.3316 -0.8882
 7872SOL     OW34544   3.896   6.009   1.132 -0.1559  0.0489  0.4409
 7872SOL    HW134545   3.936   6.059   1.055  1.3828  0.5663  1.5426
 7872SOL    HW234546   3.814   6.058   1.164  0.5930  1.1781  0.6748
 7873SOL     OW34547   0.686   5.333   3.568 -0.5373  0.1291  0.8627
 7873SOL    HW134548   0.683   5.259   3.500 -1.6261 -0.2805  1.3564
 7873SOL    HW234549   0.764   5.393   3.547 -0.4196 -0.4068 -0.3138
 7874SOL     OW34550   9.678   2.278   4.584 -0.2389 -0.8832  0.0002
 7874SOL    HW134551   9.706   2.272   4.488 -0.8717 -0.8301 -0.1931
 7874SOL    HW234552   9.708   2.196   4.632 -0.6606 -1.3093 -0.4463
 7875SOL     OW34553   1.489   7.421   3.124 -0.0332  0.4756 -0.5423
 7875SOL    HW134554   1.392   7.439   3.137 -0.3916 -1.2783 -0.6120
 7875SOL    HW234555   1.517   7.449   3.032 -0.2697  1.7192 -0.2467
 7876SOL     OW34556   2.407   1.350   2.579 -0.3522  0.0630 -0.1128
 7876SOL    HW134557   2.309   1.365   2.563 -0.4727 -0.3594  0.2338
 7876SOL    HW234558   2.430   1.255   2.558  0.1985  0.4376 -1.2444
 7877SOL     OW34559   2.491   0.513   3.463  0.3547  0.4954  0.2663
 7877SOL    HW134560   2.527   0.499   3.555 -0.1981 -0.0726  0.3975
 7877SOL    HW234561   2.523   0.441   3.402 -0.5430  0.0030  0.3792
 7878SOL     OW34562   1.275   4.331   2.550  0.3426 -0.1567  0.6266
 7878SOL    HW134563   1.253   4.379   2.635 -0.8023 -0.0282  0.2591
 7878SOL    HW234564   1.371   4.349   2.527  0.7781 -0.5303  2.0982
 7879SOL     OW34565   3.722   8.040   0.217  0.6289 -0.2536 -0.1183
 7879SOL    HW134566   3.726   7.959   0.276 -0.9166  0.5142  1.0758
 7879SOL    HW234567   3.638   8.091   0.237  1.5277  1.5640 -0.9517
 7880SOL     OW34568   2.231   9.973   1.820 -0.1175 -0.3816 -0.2570
 7880SOL    HW134569   2.146   9.973   1.767 -0.7829  1.0964  0.7637
 7880SOL    HW234570   2.212   9.941   1.913  0.1606  1.1305  0.3417
 7881SOL     OW34571   3.723   6.938   3.671 -0.1159 -0.2164 -0.3684
 7881SOL    HW134572   3.748   7.018   3.727  0.0421 -0.2502 -0.3911
 7881SOL    HW234573   3.796   6.919   3.606 -0.0249 -0.5594 -0.1680
 7882SOL     OW34574   0.243   1.634   1.899  0.3123  0.1749  0.2636
 7882SOL    HW134575   0.146   1.636   1.922  0.2988 -0.4503  0.2725
 7882SOL    HW234576   0.284   1.723   1.919 -0.8066  1.2651 -2.1173
 7883SOL     OW34577   4.838   7.340   4.053  0.6292  0.0771  0.3243
 7883SOL    HW134578   4.871   7.307   3.965  0.1987 -0.2773  0.2903
 7883SOL    HW234579   4.910   7.392   4.100  0.7047  0.6651 -0.4437
 7884SOL     OW34580   9.859   8.791   1.454 -0.0618  0.3575 -0.7110
 7884SOL    HW134581   9.826   8.700   1.428  0.5616  0.3831 -1.6000
 7884SOL    HW234582   9.804   8.825   1.530 -0.0642 -0.9234 -0.1202
 7885SOL     OW34583   3.884   4.227   0.534  0.1685 -0.3992 -0.1949
 7885SOL    HW134584   3.788   4.203   0.517  0.1071  0.2499 -0.7696
 7885SOL    HW234585   3.890   4.321   0.566  0.6164 -0.4222 -0.2115
 7886SOL     OW34586   0.348   2.091   0.438  0.0164 -1.0583 -0.2483
 7886SOL    HW134587   0.268   2.127   0.391  0.7204 -0.4531 -0.9810
 7886SOL    HW234588   0.408   2.045   0.373  1.1330  0.0231  0.0054
 7887SOL     OW34589   0.267   4.517   3.154  0.1015  0.3096  0.2143
 7887SOL    HW134590   0.277   4.616   3.158  1.2492  0.2111  0.0249
 7887SOL    HW234591   0.339   4.478   3.096 -0.2738 -0.6334  0.3662
 7888SOL     OW34592   4.946   2.378   0.650 -0.2316  0.4102  0.2206
 7888SOL    HW134593   4.925   2.289   0.608 -0.2261 -0.1679  1.4050
 7888SOL    HW234594   5.016   2.425   0.596  1.3428 -1.2617  0.7584
 7889SOL     OW34595   4.435   5.801   2.074  0.2437 -0.3992 -0.8298
 7889SOL    HW134596   4.454   5.865   2.149 -1.0000 -1.1734  0.1724
 7889SOL    HW234597   4.344   5.761   2.087 -0.0887 -0.3460 -2.9083
 7890SOL     OW34598   3.662   0.619   1.749  0.4575 -0.7422  0.5500
 7890SOL    HW134599   3.746   0.633   1.801  1.1675  2.4550 -1.3093
 7890SOL    HW234600   3.584   0.611   1.812  1.4594  1.6591  2.1640
 7891SOL     OW34601   5.090   1.719   2.572  0.6080  0.5454  0.3812
 7891SOL    HW134602   5.173   1.666   2.554 -1.1159 -1.7124 -1.3198
 7891SOL    HW234603   5.011   1.658   2.566 -1.2665  2.9206  0.6161
 7892SOL     OW34604   8.394   5.151   4.361 -0.2632 -0.1974  0.1362
 7892SOL    HW134605   8.397   5.217   4.437 -0.7474  0.6615 -0.5782
 7892SOL    HW234606   8.485   5.110   4.349 -0.1415 -0.2135  1.0643
 7893SOL     OW34607   2.576   7.943   2.167  0.3104  0.1661 -0.0079
 7893SOL    HW134608   2.634   7.990   2.235  0.7869  0.3425 -0.5260
 7893SOL    HW234609   2.483   7.937   2.201  0.4343  0.7278  0.4403
 7894SOL     OW34610   0.799   8.599   2.661  0.0807 -0.2753  0.5258
 7894SOL    HW134611   0.782   8.569   2.755 -0.3688 -0.5264  0.3642
 7894SOL    HW234612   0.801   8.698   2.657 -1.6824 -0.2348  0.4885
 7895SOL     OW34613   4.395   1.297   0.839  0.3734  0.1351  0.8421
 7895SOL    HW134614   4.327   1.319   0.769  1.5754  0.4113 -0.2716
 7895SOL    HW234615   4.482   1.276   0.794  0.7612 -1.2124  2.1832
 7896SOL     OW34616   6.446   0.304   0.853 -0.3068  0.4634 -0.8104
 7896SOL    HW134617   6.426   0.381   0.915 -1.4329  0.4320 -1.1117
 7896SOL    HW234618   6.545   0.292   0.845 -0.1062  2.2164 -1.1608
 7897SOL     OW34619   2.247   9.304   4.806 -0.3606 -0.3901 -0.1010
 7897SOL    HW134620   2.178   9.372   4.780  0.9436  0.9187 -0.1863
 7897SOL    HW234621   2.243   9.226   4.744 -1.3492 -0.0402 -0.4799
 7898SOL     OW34622   3.834   0.025   3.616 -0.0508  0.3297  0.1562
 7898SOL    HW134623   3.748  -0.017   3.589  0.5784 -0.0986 -1.1989
 7898SOL    HW234624   3.821   0.077   3.701 -1.8544  1.0272 -0.5284
 7899SOL     OW34625   5.122   1.319   0.466  0.3885 -0.2583  0.0334
 7899SOL    HW134626   5.086   1.232   0.430  0.1959  0.1388 -0.7365
 7899SOL    HW234627   5.154   1.375   0.390 -0.4096  0.7575  0.4449
 7900SOL     OW34628   4.754   9.902   1.296 -0.2312 -0.3004 -0.3335
 7900SOL    HW134629   4.785   9.931   1.206 -0.2997  2.8047  0.5908
 7900SOL    HW234630   4.831   9.903   1.360 -0.9113  1.2480  0.4938
 7901SOL     OW34631   0.429   1.175   4.588  0.2191  0.1747  0.0819
 7901SOL    HW134632   0.406   1.272   4.590  0.5788  0.2697 -0.2783
 7901SOL    HW234633   0.463   1.147   4.678  1.1490  0.6462 -0.1117
 7902SOL     OW34634   9.789   8.534   5.303  0.2244 -0.7930 -0.3932
 7902SOL    HW134635   9.776   8.633   5.303  1.0598 -0.6668  0.4707
 7902SOL    HW234636   9.730   8.492   5.372  0.6949 -0.7607  0.0382
 7903SOL     OW34637   3.147   0.772   4.634  0.3178  0.0355  0.0353
 7903SOL    HW134638   3.133   0.828   4.552 -0.0681 -1.7751 -1.1776
 7903SOL    HW234639   3.112   0.820   4.714 -1.7774  0.6955 -1.2409
 7904SOL     OW34640   3.091   9.995   1.127 -0.0301 -0.5178 -0.2228
 7904SOL    HW134641   3.110   9.969   1.032  0.0190  0.6123 -0.5249
 7904SOL    HW234642   3.042   9.921   1.172  0.7691 -1.4580 -0.8578
 7905SOL     OW34643   4.478   7.445   1.818  0.2188 -0.6311 -0.0086
 7905SOL    HW134644   4.391   7.487   1.795  0.6247 -0.1477 -0.6830
 7905SOL    HW234645   4.545   7.516   1.840  0.5359 -0.9846  0.1832
 7906SOL     OW34646   0.510   5.995   0.301  0.1702 -0.1793  0.7950
 7906SOL    HW134647   0.438   5.958   0.241 -0.2639 -1.6245  2.1715
 7906SOL    HW234648   0.538   6.085   0.268 -1.7157  0.0566 -0.2257
 7907SOL     OW34649   3.840   9.295   1.170 -0.4344  0.5653  0.5005
 7907SOL    HW134650   3.886   9.284   1.258 -0.7296 -0.1503  0.5657
 7907SOL    HW234651   3.863   9.218   1.110 -1.1556  0.4515  0.3614
 7908SOL     OW34652   4.230   1.008   2.677 -0.2861 -0.8489  0.1574
 7908SOL    HW134653   4.290   0.997   2.756  2.3522  2.2697 -1.2853
 7908SOL    HW234654   4.196   1.101   2.674 -1.8985 -1.4585 -1.3540
 7909SOL     OW34655   6.564   9.216   4.185 -0.0565 -0.2401 -0.3691
 7909SOL    HW134656   6.619   9.221   4.268 -2.3646  0.7919  1.1450
 7909SOL    HW234657   6.584   9.295   4.127 -1.2965  1.1936  1.0829
 7910SOL     OW34658   2.886   8.537   2.571 -0.0982 -0.2061 -0.4323
 7910SOL    HW134659   2.884   8.594   2.489 -0.8291 -0.0184 -0.2931
 7910SOL    HW234660   2.973   8.489   2.577  0.1743  0.2163 -1.0197
 7911SOL     OW34661   8.364   5.473   1.515  0.2346  0.0063  0.5493
 7911SOL    HW134662   8.287   5.529   1.486 -1.7778 -2.3925  1.1394
 7911SOL    HW234663   8.381   5.487   1.613  0.1777  0.0726  0.5497
 7912SOL     OW34664   8.864   2.415   0.980 -0.6391 -0.7964  0.4038
 7912SOL    HW134665   8.938   2.348   0.982 -1.8743 -2.2048  0.4133
 7912SOL    HW234666   8.818   2.411   0.891 -1.8230 -1.2358  1.0099
 7913SOL     OW34667   9.482   7.196   3.854  0.2449 -0.7432  0.1302
 7913SOL    HW134668   9.559   7.259   3.844  1.2873 -2.1726 -1.0621
 7913SOL    HW234669   9.494   7.119   3.791 -2.6623 -0.4930 -0.7960
 7914SOL     OW34670   4.570   8.006   3.583 -0.2855  0.2999  0.0748
 7914SOL    HW134671   4.482   7.959   3.588 -0.0044 -0.2843 -0.3409
 7914SOL    HW234672   4.587   8.035   3.489  1.0393 -1.7273 -0.3592
 7915SOL     OW34673   4.171   0.428   2.910  0.1575 -0.5229  0.2045
 7915SOL    HW134674   4.151   0.507   2.969  0.1364 -1.5055  1.5567
 7915SOL    HW234675   4.263   0.395   2.930 -0.3688 -1.7267  0.7275
 7916SOL     OW34676   1.540   0.247   2.434  0.2613  0.2900  0.3422
 7916SOL    HW134677   1.474   0.271   2.506 -0.3142 -1.4160  0.3989
 7916SOL    HW234678   1.621   0.206   2.477  0.4562  0.4264  0.1034
 7917SOL     OW34679   2.896   7.028   1.941  0.1309 -0.4662 -0.0721
 7917SOL    HW134680   2.967   7.025   1.871 -0.2601 -1.6901 -0.4451
 7917SOL    HW234681   2.813   7.068   1.903 -0.1477 -1.3245 -0.3872
 7918SOL     OW34682   1.821   5.386   5.239 -0.1685  0.1639 -0.4217
 7918SOL    HW134683   1.869   5.319   5.295 -1.7275  0.2848  1.1034
 7918SOL    HW234684   1.870   5.400   5.153  0.9896 -1.7828 -0.0926
 7919SOL     OW34685   5.171   4.417   0.064  0.3776 -0.0639  0.8053
 7919SOL    HW134686   5.101   4.477   0.025  0.8328 -0.0942 -0.0697
 7919SOL    HW234687   5.246   4.407  -0.001  1.1964 -0.0387  1.7284
 7920SOL     OW34688   0.978   6.931   1.873 -0.2630  0.1673  0.1199
 7920SOL    HW134689   0.892   6.884   1.852  0.0344  0.3399 -1.5600
 7920SOL    HW234690   1.048   6.904   1.807  1.1423 -0.3637  1.7854
 7921SOL     OW34691   6.765   0.103   0.637  0.3706  0.3408  0.2946
 7921SOL    HW134692   6.778   0.061   0.727 -0.2429 -0.9044 -0.1842
 7921SOL    HW234693   6.850   0.096   0.584  0.6380  0.7977  0.6585
 7922SOL     OW34694   8.702   1.759   4.450  0.6249  0.0622 -0.1699
 7922SOL    HW134695   8.631   1.724   4.388  1.0088 -1.2186  0.1120
 7922SOL    HW234696   8.790   1.758   4.404  0.6469  0.6390 -0.1475
 7923SOL     OW34697   3.332   9.499   1.793  0.9551  0.4097  0.0080
 7923SOL    HW134698   3.342   9.433   1.868 -0.6632 -1.4257 -1.3239
 7923SOL    HW234699   3.339   9.451   1.706 -2.5966  1.5517 -1.0107
 7924SOL     OW34700   8.381   6.457   0.251  0.3312  0.2657  0.6866
 7924SOL    HW134701   8.425   6.390   0.191 -2.6028 -1.1485  0.0306
 7924SOL    HW234702   8.344   6.411   0.331 -0.2125  1.3724  1.0726
 7925SOL     OW34703   1.372   3.213   4.140  0.0232  0.2705  0.0057
 7925SOL    HW134704   1.277   3.242   4.155 -0.0946 -0.2707  0.3488
 7925SOL    HW234705   1.373   3.133   4.080  0.0956 -1.1012  1.7829
 7926SOL     OW34706   4.017   5.986   1.998  0.2421  0.4951 -0.5826
 7926SOL    HW134707   4.023   5.886   2.003  0.3831  0.4769 -1.1241
 7926SOL    HW234708   3.948   6.018   2.063  0.0036  0.0257 -0.6019
 7927SOL     OW34709   9.658   2.728   1.950  0.7978  0.2843  0.2733
 7927SOL    HW134710   9.756   2.742   1.961  1.0090 -1.4189  0.6254
 7927SOL    HW234711   9.615   2.715   2.040  0.3228  0.5321  0.0867
 7928SOL     OW34712   9.661   3.903   4.647  0.1948  0.2712  0.2479
 7928SOL    HW134713   9.730   3.944   4.707  0.1492  2.7497 -1.3309
 7928SOL    HW234714   9.699   3.892   4.555 -1.3057  1.0731 -0.4882
 7929SOL     OW34715   8.333   9.244   2.991  0.3994 -0.2278  0.2425
 7929SOL    HW134716   8.388   9.238   2.908 -1.9039 -0.1737 -1.3364
 7929SOL    HW234717   8.298   9.154   3.014 -0.2911  0.0324  0.2166
 7930SOL     OW34718   4.805   2.486   3.008 -0.3964  0.0115 -0.3902
 7930SOL    HW134719   4.829   2.501   2.912 -0.7242 -1.4474 -0.7097
 7930SOL    HW234720   4.882   2.442   3.055 -0.9980 -1.1928 -0.5045
 7931SOL     OW34721   0.722   4.851   1.722  0.0780 -0.0851  0.1838
 7931SOL    HW134722   0.700   4.910   1.644  0.2165 -0.5787 -0.2291
 7931SOL    HW234723   0.685   4.760   1.706 -0.6424  0.0415  1.0846
 7932SOL     OW34724   7.203   1.095   2.539 -1.0294 -0.0727  0.1537
 7932SOL    HW134725   7.170   1.009   2.578 -1.2330 -0.0968 -0.0685
 7932SOL    HW234726   7.288   1.079   2.489 -0.7346 -0.0304  0.6384
 7933SOL     OW34727   7.813   5.567   2.993  0.1153 -0.2310  0.2362
 7933SOL    HW134728   7.771   5.631   2.929 -0.3254 -0.3892  0.3611
 7933SOL    HW234729   7.854   5.617   3.069 -1.3674 -0.1444  1.0130
 7934SOL     OW34730   1.672   5.706   5.490  0.0731 -0.4127  0.0690
 7934SOL    HW134731   1.682   5.608   5.472 -0.2733 -0.7828  1.8271
 7934SOL    HW234732   1.599   5.743   5.432 -0.1154 -1.2963 -0.2711
 7935SOL     OW34733   3.845   4.609   4.531  0.8085  0.3063  0.3839
 7935SOL    HW134734   3.754   4.647   4.514  0.7678 -0.0688 -0.2212
 7935SOL    HW234735   3.837   4.511   4.548  1.1073  0.2698  0.3024
 7936SOL     OW34736   0.914   8.048   5.233  0.0930  0.1407  0.0388
 7936SOL    HW134737   0.952   8.031   5.142 -2.3324 -1.2182 -0.7725
 7936SOL    HW234738   0.927   8.144   5.257 -0.6483  0.8982 -2.4352
 7937SOL     OW34739   1.499   1.641   2.155  0.1858  0.6155 -0.2977
 7937SOL    HW134740   1.579   1.691   2.187  0.0477  0.8513 -0.3196
 7937SOL    HW234741   1.461   1.687   2.075  0.0942  0.4420 -0.3536
 7938SOL     OW34742   9.071   8.773   3.928 -0.7815 -0.2944 -0.5091
 7938SOL    HW134743   9.094   8.680   3.957 -0.7456 -0.1212  0.0300
 7938SOL    HW234744   9.107   8.839   3.994  0.2601  0.1806 -1.5298
 7939SOL     OW34745   2.464   6.931   4.139 -0.2249  0.4348  0.2204
 7939SOL    HW134746   2.380   6.908   4.089 -0.6602  1.4161  0.4923
 7939SOL    HW234747   2.471   6.873   4.220  0.8763 -1.6980 -1.3684
 7940SOL     OW34748   1.052   9.311   5.135  0.1178 -0.2470  0.2221
 7940SOL    HW134749   1.064   9.218   5.169  0.6123  0.0066  0.7497
 7940SOL    HW234750   1.030   9.372   5.211 -0.7480 -0.0273 -0.1984
 7941SOL     OW34751   0.620   1.167   0.804 -0.0661 -0.0868 -0.4429
 7941SOL    HW134752   0.598   1.113   0.722 -0.7718  1.8350 -1.5577
 7941SOL    HW234753   0.641   1.105   0.880 -0.3612 -1.9155 -1.8040
 7942SOL     OW34754   1.183   8.421   4.521  0.4676  0.0808 -0.2494
 7942SOL    HW134755   1.165   8.351   4.590 -2.2051  0.5662 -0.4239
 7942SOL    HW234756   1.173   8.382   4.430 -0.2166  0.4930 -0.3498
 7943SOL     OW34757   4.544   3.739   2.711 -0.4874 -0.3839 -0.0550
 7943SOL    HW134758   4.471   3.683   2.673 -0.5145  0.1979 -0.8790
 7943SOL    HW234759   4.598   3.779   2.636  0.8233 -1.0129  0.5432
 7944SOL     OW34760   3.294   3.194   2.933  0.0605  0.0630  0.1443
 7944SOL    HW134761   3.372   3.156   2.983 -0.3045  0.5346  1.0845
 7944SOL    HW234762   3.229   3.234   2.998 -1.3506 -1.0113 -0.5857
 7945SOL     OW34763   5.217   7.342   2.442 -0.2986  0.1052  0.4409
 7945SOL    HW134764   5.123   7.353   2.475 -0.6637  0.8423 -0.8149
 7945SOL    HW234765   5.216   7.329   2.343  0.9528  0.4919  0.3689
 7946SOL     OW34766   7.665   3.080   5.264  0.3123 -0.0162  0.6227
 7946SOL    HW134767   7.710   3.086   5.353 -1.1689  0.2540  1.3526
 7946SOL    HW234768   7.568   3.098   5.273  0.8337  4.7411 -1.7362
 7947SOL     OW34769   9.431   4.423   4.186  0.2323  0.1906 -0.4286
 7947SOL    HW134770   9.455   4.408   4.089 -1.6458 -0.5228 -0.7982
 7947SOL    HW234771   9.335   4.398   4.201  1.0882 -1.8552  2.0929
 7948SOL     OW34772   9.552   6.746   0.395  0.1752 -0.1510  0.1052
 7948SOL    HW134773   9.629   6.684   0.383 -0.0233 -0.1611 -1.1079
 7948SOL    HW234774   9.473   6.712   0.345 -0.1155  0.7572 -0.0601
 7949SOL     OW34775   1.620   3.709   3.405 -0.4064 -0.3902 -0.6586
 7949SOL    HW134776   1.696   3.727   3.343  1.1411 -0.3779  1.1964
 7949SOL    HW234777   1.548   3.776   3.389 -0.7988 -1.4005 -3.5704
 7950SOL     OW34778   1.520   9.680   3.411  1.3895 -0.2251 -0.2264
 7950SOL    HW134779   1.514   9.765   3.359  2.2350  0.6960  1.1495
 7950SOL    HW234780   1.430   9.637   3.414  0.2483  2.1750  1.6240
 7951SOL     OW34781   1.161   9.960   4.824 -0.5067  0.2853 -0.3072
 7951SOL    HW134782   1.063   9.944   4.807 -0.2606 -0.3640 -1.1608
 7951SOL    HW234783   1.214   9.925   4.747  0.5143 -0.7766  0.8577
 7952SOL     OW34784   0.749   5.991   0.441  0.3664 -0.2704  0.2108
 7952SOL    HW134785   0.816   5.934   0.394  0.5155  0.5641 -0.5925
 7952SOL    HW234786   0.661   5.985   0.394  0.1376 -0.5354  0.6572
 7953SOL     OW34787   0.998   1.074   0.984 -0.3480  0.2837  0.2212
 7953SOL    HW134788   1.066   1.063   1.057  2.0092  3.4813 -1.3374
 7953SOL    HW234789   0.917   1.118   1.021  0.0752  0.2040  1.2845
 7954SOL     OW34790   0.923   4.347   0.067  0.7648 -0.1305 -0.3736
 7954SOL    HW134791   0.916   4.311   0.160 -0.4439  0.3445 -0.2767
 7954SOL    HW234792   0.935   4.446   0.070 -0.0046 -0.0253 -0.7408
 7955SOL     OW34793   1.679   1.089   3.272  0.4330 -0.3036  0.2472
 7955SOL    HW134794   1.742   1.166   3.283 -0.0848  0.1961 -0.2411
 7955SOL    HW234795   1.653   1.054   3.362  1.1858 -0.3306  0.4557
 7956SOL     OW34796   4.721   9.953   3.851  0.0233 -0.2986 -0.2998
 7956SOL    HW134797   4.662   9.909   3.784 -0.9259  0.3000  0.1393
 7956SOL    HW234798   4.740   9.889   3.926 -2.3558  0.4075  0.9543
 7957SOL     OW34799   4.741   0.809   4.927  0.3118  0.4227 -0.3481
 7957SOL    HW134800   4.688   0.789   4.844  1.7111  0.3965 -1.2547
 7957SOL    HW234801   4.820   0.749   4.932  0.9976  1.3518  0.2858
 7958SOL     OW34802   8.952   3.184   1.173 -0.3730  0.0580  0.2648
 7958SOL    HW134803   8.934   3.280   1.153  2.1833  0.7172  0.9865
 7958SOL    HW234804   8.955   3.171   1.272  2.5256 -0.0950  0.1888
 7959SOL     OW34805   3.294   3.327   0.319 -0.3005  0.3967 -0.0642
 7959SOL    HW134806   3.263   3.407   0.269 -1.4378 -0.9247 -1.5236
 7959SOL    HW234807   3.329   3.355   0.409  2.6030  2.8833 -1.9067
 7960SOL     OW34808   2.176   8.730   3.308 -0.1665 -0.4750 -0.5907
 7960SOL    HW134809   2.243   8.729   3.234 -2.1588  0.0918 -2.4257
 7960SOL    HW234810   2.101   8.793   3.286 -2.2675 -2.4851  0.5347
 7961SOL     OW34811   0.754   5.978   2.464  0.2327 -0.2082  0.1091
 7961SOL    HW134812   0.768   6.022   2.376  0.8710  0.5468  0.5824
 7961SOL    HW234813   0.841   5.946   2.501  0.1677  0.7087  1.0961
 7962SOL     OW34814   1.264   9.572   3.446 -0.2037  0.1540  0.3485
 7962SOL    HW134815   1.255   9.478   3.413 -0.4038 -0.0497  0.9872
 7962SOL    HW234816   1.187   9.595   3.505  0.0090  0.6118  0.4529
 7963SOL     OW34817   0.406   9.525   0.782 -0.3863 -0.3744 -0.2160
 7963SOL    HW134818   0.420   9.618   0.813 -1.5195 -0.3780  0.3080
 7963SOL    HW234819   0.404   9.523   0.682 -2.9488  0.5648 -0.2164
 7964SOL     OW34820   2.772   0.757   5.049  0.5353  0.0298 -0.1465
 7964SOL    HW134821   2.674   0.743   5.041  0.4023  0.4886  0.5540
 7964SOL    HW234822   2.815   0.750   4.959 -0.3977  1.6808 -0.7409
 7965SOL     OW34823   3.781   7.415   4.397 -0.3360  0.2809 -0.1630
 7965SOL    HW134824   3.831   7.409   4.310  0.1815 -0.5016  0.1870
 7965SOL    HW234825   3.837   7.376   4.470 -0.1481  2.2698  0.8007
 7966SOL     OW34826   8.496   2.109   4.362 -0.7706  0.1500  0.6429
 7966SOL    HW134827   8.573   2.131   4.302 -0.2554 -3.6762 -0.2133
 7966SOL    HW234828   8.411   2.137   4.317 -0.3077 -1.5887 -1.4115
 7967SOL     OW34829   1.248   6.043   2.450  0.6469 -0.2602  0.0420
 7967SOL    HW134830   1.262   5.947   2.426  0.7491  0.1527 -1.6209
 7967SOL    HW234831   1.332   6.080   2.492  0.8865 -0.6780 -0.0683
 7968SOL     OW34832   9.880   7.315   4.933 -0.0625 -0.3317 -0.6557
 7968SOL    HW134833   9.827   7.312   5.018  0.5676 -1.9594 -0.2905
 7968SOL    HW234834   9.862   7.401   4.885 -0.3977  0.6239  1.1376
 7969SOL     OW34835   2.860   7.583   2.422  0.1894  0.3221  0.2215
 7969SOL    HW134836   2.896   7.554   2.511  3.0986 -1.5877 -1.5053
 7969SOL    HW234837   2.783   7.525   2.396  1.5866 -1.4089 -0.0819
 7970SOL     OW34838   2.877   0.463   0.568 -0.2660  0.0299 -0.1750
 7970SOL    HW134839   2.834   0.518   0.640  1.4208  0.0519  0.8586
 7970SOL    HW234840   2.904   0.374   0.607  1.1115  0.2366 -0.6587
 7971SOL     OW34841   4.477   9.486   4.674  0.1285 -0.2923 -0.0364
 7971SOL    HW134842   4.542   9.422   4.716 -0.2569 -0.7484 -0.1302
 7971SOL    HW234843   4.390   9.440   4.660  0.2173 -0.1029 -1.2267
 7972SOL     OW34844   5.693   9.138   1.777  0.5515 -0.1631  0.1643
 7972SOL    HW134845   5.740   9.104   1.858 -0.0317  0.2811  0.6963
 7972SOL    HW234846   5.705   9.237   1.770 -0.4282 -0.0145  0.4011
 7973SOL     OW34847   4.580   7.021   1.623 -0.3701 -0.3853 -0.4988
 7973SOL    HW134848   4.556   6.978   1.536 -0.8225  0.1855 -0.6549
 7973SOL    HW234849   4.546   7.114   1.625  0.3112 -0.1404 -0.0124
 7974SOL     OW34850   9.587   4.583   2.898  0.6840  0.1295  0.3082
 7974SOL    HW134851   9.682   4.588   2.867  0.4506 -1.7312 -0.7492
 7974SOL    HW234852   9.575   4.506   2.960 -0.4179 -0.4680 -0.6237
 7975SOL     OW34853   9.183   8.420   2.680  0.2957  0.7013  0.1086
 7975SOL    HW134854   9.101   8.386   2.633 -0.4815  2.7885 -0.0789
 7975SOL    HW234855   9.262   8.409   2.619  0.0010 -0.4724 -0.0676
 7976SOL     OW34856   8.227   9.354   0.998  0.6009  0.4768  0.3995
 7976SOL    HW134857   8.311   9.371   0.946  0.8366  0.1371  0.6656
 7976SOL    HW234858   8.164   9.299   0.944  1.3596 -0.9564  0.9400
 7977SOL     OW34859   8.593   9.754   2.181 -0.0662  0.5623  0.2421
 7977SOL    HW134860   8.601   9.784   2.086 -0.8921  1.9946  0.6066
 7977SOL    HW234861   8.676   9.704   2.207 -0.4761 -1.1569 -1.6743
 7978SOL     OW34862   5.543   8.937   3.017 -0.2178  0.0804  0.1905
 7978SOL    HW134863   5.597   8.854   3.031  0.9827  1.1095  1.8063
 7978SOL    HW234864   5.508   8.939   2.923  2.3918 -0.7098 -0.8320
 7979SOL     OW34865   2.066   4.291   4.391  0.0906 -0.5479  0.1064
 7979SOL    HW134866   2.002   4.359   4.426  0.9804  0.7376 -0.7239
 7979SOL    HW234867   2.132   4.335   4.331 -0.2828 -2.3859 -1.7376
 7980SOL     OW34868   4.447   9.315   5.334  0.4437  0.5341  0.1144
 7980SOL    HW134869   4.459   9.391   5.398  1.8779  0.1146  0.3370
 7980SOL    HW234870   4.356   9.276   5.348  0.1237  1.4725  0.7866
 7981SOL     OW34871   8.838   9.594   5.588  0.0982 -0.1502  0.0978
 7981SOL    HW134872   8.901   9.586   5.665  0.7752  1.0089 -0.3287
 7981SOL    HW234873   8.818   9.690   5.571  1.7247 -0.2479 -2.5938
 7982SOL     OW34874   1.600   5.547   0.640  0.3793 -0.3755 -0.4557
 7982SOL    HW134875   1.686   5.529   0.594  0.7321  1.4743 -0.5882
 7982SOL    HW234876   1.556   5.627   0.598  1.4164  2.2966  3.2758
 7983SOL     OW34877   2.564   0.680   2.851 -0.9092 -0.1873 -0.9585
 7983SOL    HW134878   2.553   0.617   2.927 -1.4849  0.9558 -0.0709
 7983SOL    HW234879   2.661   0.693   2.832 -0.7499 -0.1151 -0.1088
 7984SOL     OW34880   7.875   3.605   1.629 -0.3376 -0.2104  0.4040
 7984SOL    HW134881   7.891   3.548   1.548  1.5622  1.0059 -0.0925
 7984SOL    HW234882   7.923   3.566   1.707  1.8263  1.2316 -0.1701
 7985SOL     OW34883   6.585   8.307   4.128  0.1374 -0.1874  0.1493
 7985SOL    HW134884   6.551   8.393   4.090 -2.0796 -0.2773  1.8478
 7985SOL    HW234885   6.567   8.303   4.226 -0.6901 -2.9749 -0.0489
 7986SOL     OW34886   3.114   3.672   5.621  0.4971 -0.4677  0.7636
 7986SOL    HW134887   3.147   3.637   5.709  0.6586  0.4180  1.0647
 7986SOL    HW234888   3.176   3.744   5.589  0.2516 -0.5579  0.0897
 7987SOL     OW34889   5.368   8.779   3.446 -0.1641 -0.0329 -0.1133
 7987SOL    HW134890   5.276   8.749   3.419 -0.4545  1.4412 -0.8532
 7987SOL    HW234891   5.379   8.876   3.422  1.4917 -0.1283  0.2235
 7988SOL     OW34892   4.192   9.241   5.313  0.0768 -0.1931 -0.2290
 7988SOL    HW134893   4.153   9.294   5.238 -1.3882 -1.0821 -0.1160
 7988SOL    HW234894   4.176   9.143   5.296  1.0251 -0.4827  0.5243
 7989SOL     OW34895   6.802   8.392   1.937 -0.1301 -0.8226  0.2172
 7989SOL    HW134896   6.816   8.436   1.848  1.1633 -2.3968 -0.3766
 7989SOL    HW234897   6.806   8.461   2.009  1.9688  0.0359 -0.6950
 7990SOL     OW34898   9.672   5.585   4.284  0.0073  0.1245 -0.6872
 7990SOL    HW134899   9.603   5.545   4.344  0.5980 -3.0682 -2.0608
 7990SOL    HW234900   9.760   5.540   4.300  0.7501  1.0239 -2.1305
 7991SOL     OW34901   7.044   0.353   1.700 -0.1427  0.5722 -0.2382
 7991SOL    HW134902   7.022   0.449   1.686 -1.1764  0.5281  1.0451
 7991SOL    HW234903   6.982   0.296   1.646 -0.7475  0.5664  0.4632
 7992SOL     OW34904   1.725   8.650   5.506 -0.0721 -0.3195  0.0440
 7992SOL    HW134905   1.789   8.609   5.571  1.0186  0.7948 -0.3244
 7992SOL    HW234906   1.726   8.749   5.515 -2.1737 -0.3030  0.4208
 7993SOL     OW34907   1.371   5.942   4.932  0.0315 -0.6808  0.1644
 7993SOL    HW134908   1.382   5.920   5.029  2.6143  0.2229  0.1004
 7993SOL    HW234909   1.425   6.023   4.909 -0.5469 -0.8743 -2.0284
 7994SOL     OW34910   3.543   7.167   4.327  0.5417  0.1788  0.2229
 7994SOL    HW134911   3.497   7.255   4.316  1.4017  0.6267  0.1359
 7994SOL    HW234912   3.486   7.106   4.381 -0.5494  0.4171 -0.6292
 7995SOL     OW34913   9.973   7.772   2.829 -0.1844  0.1067  0.2313
 7995SOL    HW134914   9.976   7.816   2.739  1.5266  1.6342  1.0154
 7995SOL    HW234915   9.900   7.814   2.883  0.9459  1.4936  0.7090
 7996SOL     OW34916   5.754   7.493   3.804 -0.5503  0.4017 -0.4781
 7996SOL    HW134917   5.813   7.550   3.746 -0.7162 -0.8712 -1.9263
 7996SOL    HW234918   5.748   7.401   3.766 -4.2651  0.7466 -0.9862
 7997SOL     OW34919   2.922   0.427   3.114 -0.1630 -0.0014 -0.4318
 7997SOL    HW134920   2.928   0.522   3.082  0.0899 -0.5651 -2.1344
 7997SOL    HW234921   3.007   0.379   3.092 -0.5670 -0.8150 -0.2384
 7998SOL     OW34922   9.587   7.458   4.993 -0.2151 -0.0104  0.5916
 7998SOL    HW134923   9.555   7.416   5.078 -0.2464 -1.2465 -0.0182
 7998SOL    HW234924   9.518   7.522   4.960 -0.4850 -0.0036  1.1639
 7999SOL     OW34925   1.164   3.532   2.411 -0.0240  0.1842 -0.4270
 7999SOL    HW134926   1.102   3.610   2.396  0.1593 -0.0853 -2.8152
 7999SOL    HW234927   1.223   3.551   2.490 -1.5108  1.4811  0.4096
 8000SOL     OW34928   8.078   4.228   3.994 -0.1160  0.3774 -0.5332
 8000SOL    HW134929   8.069   4.137   3.953  0.1938  0.7463 -1.4528
 8000SOL    HW234930   8.170   4.263   3.977  0.3612  0.1177  1.4059
 8001SOL     OW34931   4.781   0.397   3.790  0.0646  0.2760 -0.4709
 8001SOL    HW134932   4.763   0.345   3.874 -0.9932  0.6336 -0.4634
 8001SOL    HW234933   4.880   0.408   3.778  0.2359 -0.0536  0.5588
 8002SOL     OW34934   8.148   7.311   2.388  0.0292  0.1405  0.1281
 8002SOL    HW134935   8.207   7.307   2.308  0.5110 -0.2649  0.5007
 8002SOL    HW234936   8.114   7.219   2.409 -0.7329  0.3715 -0.0841
 8003SOL     OW34937   0.671   3.848   2.856 -0.5083  0.3150  0.0464
 8003SOL    HW134938   0.743   3.909   2.821 -0.0824  0.2885  0.8460
 8003SOL    HW234939   0.698   3.814   2.946  0.1525 -2.5659 -1.1765
 8004SOL     OW34940   8.564   1.300   3.262  0.3940 -0.2573  0.2899
 8004SOL    HW134941   8.470   1.334   3.254 -0.0339 -1.1413  1.5521
 8004SOL    HW234942   8.619   1.368   3.310 -0.0315 -0.5367  1.1788
 8005SOL     OW34943   1.232   0.477   3.542  0.5442 -0.7406 -0.1968
 8005SOL    HW134944   1.303   0.452   3.608 -0.1866 -1.0864  0.4700
 8005SOL    HW234945   1.261   0.558   3.491  0.9364 -0.2010  0.8600
 8006SOL     OW34946   9.180   2.508   1.463 -0.4355 -0.1305 -0.5507
 8006SOL    HW134947   9.263   2.563   1.449 -0.1546 -0.9429 -2.3306
 8006SOL    HW234948   9.195   2.444   1.539 -0.6204  1.9430  1.2576
 8007SOL     OW34949   2.834   4.283   5.166 -0.0823 -0.5794 -0.1038
 8007SOL    HW134950   2.782   4.228   5.231 -0.5079  1.2535  1.1183
 8007SOL    HW234951   2.783   4.291   5.080 -0.5353 -1.1195  0.1146
 8008SOL     OW34952   1.037   9.556   2.335 -0.2267 -0.3737 -0.4763
 8008SOL    HW134953   1.065   9.472   2.382  3.4557  0.0854 -1.6921
 8008SOL    HW234954   1.004   9.622   2.403 -1.5800 -2.1789  0.6619
 8009SOL     OW34955   3.422   2.957   2.231  0.0804  0.0216  0.0996
 8009SOL    HW134956   3.346   2.973   2.294 -0.4461  1.5609 -0.8946
 8009SOL    HW234957   3.390   2.961   2.137  0.7155 -3.0922 -0.3022
 8010SOL     OW34958   0.830   2.486   4.100 -0.1317  0.4061 -0.6430
 8010SOL    HW134959   0.897   2.498   4.027  1.2983  1.1594  0.7596
 8010SOL    HW234960   0.833   2.392   4.133  2.4462  1.2042  1.4960
 8011SOL     OW34961   8.728   7.433   2.267  0.0204  0.5750 -0.2337
 8011SOL    HW134962   8.728   7.446   2.168  1.2549 -1.8191 -0.5917
 8011SOL    HW234963   8.797   7.366   2.292 -1.8685 -0.6364  1.9900
 8012SOL     OW34964   3.982   3.924   4.542 -0.1436  0.7058  0.0481
 8012SOL    HW134965   4.021   4.016   4.537 -0.9550  1.0510 -0.0406
 8012SOL    HW234966   3.997   3.886   4.634  2.5425 -0.1391 -0.7209
 8013SOL     OW34967   1.993   5.174   3.987  0.5026  0.1425 -0.2189
 8013SOL    HW134968   1.947   5.098   4.033  0.9671 -1.2172 -1.9523
 8013SOL    HW234969   2.091   5.170   4.006  0.6690 -0.3094 -1.1061
 8014SOL     OW34970   3.186   8.239   0.426 -0.1191  0.5227  0.3058
 8014SOL    HW134971   3.275   8.251   0.470  0.6084 -2.6727 -0.2243
 8014SOL    HW234972   3.170   8.315   0.363  2.7633  0.4885 -0.5358
 8015SOL     OW34973   1.562   1.971   0.357 -0.2884 -0.0397 -0.0136
 8015SOL    HW134974   1.543   1.880   0.319 -0.1215 -0.7846  1.6415
 8015SOL    HW234975   1.658   1.975   0.387  0.5086  1.6028 -2.5387
 8016SOL     OW34976   0.360   5.350   2.825 -0.2490  0.0021  0.3162
 8016SOL    HW134977   0.326   5.291   2.899  2.3508 -1.0779  0.6880
 8016SOL    HW234978   0.444   5.312   2.787  0.5697  2.5791 -0.5969
 8017SOL     OW34979   4.212   1.652   2.591  0.1037 -0.5856  0.4091
 8017SOL    HW134980   4.218   1.659   2.491 -1.7008 -2.9020  0.0731
 8017SOL    HW234981   4.304   1.652   2.630  0.9918 -2.8179 -1.5428
 8018SOL     OW34982   1.714   1.715   3.072 -0.5527 -0.5642  0.1812
 8018SOL    HW134983   1.686   1.619   3.066  1.2168 -1.0641 -0.3102
 8018SOL    HW234984   1.719   1.754   2.980 -0.1189 -0.3419  0.3001
 8019SOL     OW34985   0.494   4.539   0.485 -0.1902 -0.0919  0.1252
 8019SOL    HW134986   0.526   4.466   0.425 -0.9364 -0.0691 -0.3014
 8019SOL    HW234987   0.559   4.550   0.561  0.3721 -0.6134 -0.2704
 8020SOL     OW34988   3.807   1.133   1.292 -0.4934 -0.6121 -0.4253
 8020SOL    HW134989   3.788   1.053   1.234 -0.6962 -0.7978 -0.0999
 8020SOL    HW234990   3.799   1.108   1.388  1.9490 -0.8407 -0.2616
 8021SOL     OW34991   8.298   3.513   3.126  0.1257 -0.5205 -0.1918
 8021SOL    HW134992   8.259   3.427   3.095  0.3239 -0.7415  0.1734
 8021SOL    HW234993   8.357   3.497   3.204 -0.6515  0.0931  0.5283
 8022SOL     OW34994   6.471   0.516   1.066 -0.2571  0.0049 -0.0811
 8022SOL    HW134995   6.437   0.441   1.122  0.9544 -0.0955  0.5463
 8022SOL    HW234996   6.422   0.600   1.088  0.0895 -0.0737  1.0126
 8023SOL     OW34997   3.303   4.860   5.438  0.0531  0.1968  0.0774
 8023SOL    HW134998   3.227   4.844   5.500 -1.3382  1.5219 -1.2463
 8023SOL    HW234999   3.270   4.865   5.344  1.9302 -0.3572 -0.6474
 8024SOL     OW35000   2.205   7.310   0.554 -0.4250 -0.2106  0.8102
 8024SOL    HW135001   2.189   7.263   0.640 -1.2584  1.1690  1.4285
 8024SOL    HW235002   2.219   7.408   0.571  0.0060 -0.0139 -0.5561
 8025SOL     OW35003   2.171   3.579   4.024  0.1281  0.5476 -0.5876
 8025SOL    HW135004   2.205   3.513   3.957 -0.8696  1.3190 -1.8728
 8025SOL    HW235005   2.145   3.664   3.977  1.2776  1.8243  1.0123
 8026SOL     OW35006   1.872   2.289   0.330 -0.1786  0.8190 -0.6928
 8026SOL    HW135007   1.954   2.244   0.364  0.4497  0.9056 -2.0482
 8026SOL    HW235008   1.812   2.313   0.406 -0.5784 -2.3871  0.0466
 8027SOL     OW35009   9.858   7.558   5.572 -0.5354  0.3007 -0.3497
 8027SOL    HW135010   9.886   7.504   5.493  0.3967 -0.2873  0.3615
 8027SOL    HW235011   9.828   7.496   5.645 -1.8472  0.8574 -0.4052
 8028SOL     OW35012   3.364   5.440   2.256 -0.0599 -0.0573 -0.5218
 8028SOL    HW135013   3.307   5.479   2.183  0.6598 -0.8126 -1.4953
 8028SOL    HW235014   3.447   5.403   2.217  1.1698  1.1150  0.9114
 8029SOL     OW35015   5.153   7.846   3.553  0.0160 -0.3775 -0.2411
 8029SOL    HW135016   5.156   7.920   3.621  0.7119  0.7147 -1.4298
 8029SOL    HW235017   5.214   7.868   3.477 -1.6517 -0.9911 -1.8020
 8030SOL     OW35018   1.613   3.750   4.849  0.5779  0.4773  0.0923
 8030SOL    HW135019   1.687   3.739   4.782  0.4350 -0.2629  0.0535
 8030SOL    HW235020   1.630   3.689   4.927 -0.4645 -0.3830 -0.3369
 8031SOL     OW35021   2.514   5.548   1.161 -0.4343 -0.0161 -0.0422
 8031SOL    HW135022   2.524   5.449   1.162 -0.3512 -0.0260 -1.2273
 8031SOL    HW235023   2.525   5.582   1.067  2.3470  1.3969  0.7461
 8032SOL     OW35024   3.762   7.421   1.641  0.5057  0.2334 -0.1197
 8032SOL    HW135025   3.860   7.399   1.640  0.4661  0.0609 -1.7864
 8032SOL    HW235026   3.738   7.468   1.555 -1.1560 -0.9561 -0.3157
 8033SOL     OW35027   0.055   3.182   0.422 -0.4456 -0.0883  0.0095
 8033SOL    HW135028  -0.008   3.259   0.423  0.5740  0.7584  1.3210
 8033SOL    HW235029   0.123   3.194   0.351 -0.9576 -0.3436 -0.5273
 8034SOL     OW35030   4.618   0.231   5.152 -0.2189  0.3430 -0.0450
 8034SOL    HW135031   4.669   0.207   5.068  0.5671  2.0675 -0.0741
 8034SOL    HW235032   4.526   0.261   5.127 -1.2034 -2.4536 -0.0167
 8035SOL     OW35033   1.586   4.094   3.407 -0.2334 -0.3309 -0.0992
 8035SOL    HW135034   1.525   4.108   3.328 -1.6676  0.4074  1.1041
 8035SOL    HW235035   1.566   4.006   3.449  1.0200 -1.0435 -0.9534
 8036SOL     OW35036   2.558   3.906   3.450  0.5571  0.5428 -0.4627
 8036SOL    HW135037   2.541   3.977   3.382  1.1018  0.3769 -0.7727
 8036SOL    HW235038   2.525   3.936   3.539 -0.3928  0.6574 -0.8528
 8037SOL     OW35039   9.745   5.652   3.340  0.0249 -0.5304  0.3270
 8037SOL    HW135040   9.751   5.646   3.439  1.3391  1.3094  0.3888
 8037SOL    HW235041   9.830   5.691   3.304 -0.6443 -0.6924 -1.4611
 8038SOL     OW35042   1.746   8.110   4.421 -0.1396  0.3661 -0.5859
 8038SOL    HW135043   1.810   8.187   4.430  2.0328 -1.4058 -0.3706
 8038SOL    HW235044   1.680   8.112   4.496  1.2833  0.7815  0.6824
 8039SOL     OW35045   8.562   4.753   1.575 -0.1327  0.7781 -0.4618
 8039SOL    HW135046   8.559   4.700   1.490 -1.1829  2.2139 -1.3399
 8039SOL    HW235047   8.654   4.747   1.615  0.1589 -0.5037 -1.3040
 8040SOL     OW35048   6.575   1.992   2.902  0.2222  0.3389 -0.0157
 8040SOL    HW135049   6.596   1.905   2.945  0.7063 -0.4596 -1.8297
 8040SOL    HW235050   6.538   1.977   2.811  1.8140  2.0369 -0.9904
 8041SOL     OW35051   8.154   6.506   2.920  0.0469 -0.2205 -0.1277
 8041SOL    HW135052   8.109   6.428   2.963 -0.0314  0.1720  0.5142
 8041SOL    HW235053   8.233   6.534   2.976  0.1484  0.0752 -0.4176
 8042SOL     OW35054   3.567   1.601   5.448  0.1508  0.0404  0.2932
 8042SOL    HW135055   3.520   1.686   5.424  3.0983  1.6385 -0.0221
 8042SOL    HW235056   3.553   1.534   5.375  0.8083  1.5117 -1.2247
 8043SOL     OW35057   7.027   9.573   2.788  0.0397 -0.4247  0.0411
 8043SOL    HW135058   7.020   9.553   2.690 -0.0571 -0.1631 -0.0053
 8043SOL    HW235059   7.074   9.661   2.801  0.4619 -0.6796  0.2446
 8044SOL     OW35060   1.933   3.918   2.566 -0.2568 -0.5799  0.1016
 8044SOL    HW135061   1.912   3.856   2.642 -1.2721  1.0874  1.2424
 8044SOL    HW235062   1.956   4.008   2.603 -1.0299  0.3311 -1.5940
 8045SOL     OW35063   2.829   7.097   5.181 -0.0960  0.1478  0.0711
 8045SOL    HW135064   2.749   7.129   5.130 -0.0142  0.6980  0.2746
 8045SOL    HW235065   2.825   7.133   5.274 -0.2390 -0.8420  0.4506
 8046SOL     OW35066   7.428   3.427   0.226  0.0976 -0.8966 -0.0068
 8046SOL    HW135067   7.469   3.424   0.317 -0.1825  0.1169  0.1626
 8046SOL    HW235068   7.405   3.334   0.196  3.3236 -1.5916 -0.4937
 8047SOL     OW35069   7.806   7.586   1.972  0.2532  0.3382 -0.3267
 8047SOL    HW135070   7.831   7.495   2.004 -0.7442 -0.0855 -0.7419
 8047SOL    HW235071   7.847   7.602   1.882  0.8725  0.5152 -0.0189
 8048SOL     OW35072   1.007   8.158   2.294 -0.2797 -0.1208  0.7285
 8048SOL    HW135073   1.034   8.079   2.348 -1.2268 -1.0514 -0.1537
 8048SOL    HW235074   1.086   8.217   2.280  0.1746 -0.3107  2.3644
 8049SOL     OW35075   9.854   8.406   2.152 -0.1167  0.4471 -0.7267
 8049SOL    HW135076   9.802   8.360   2.080  0.5619 -1.2767 -0.1388
 8049SOL    HW235077   9.865   8.344   2.230  1.7614  1.2471 -0.3385
 8050SOL     OW35078   8.565   9.603   0.066  0.3784 -0.2309  0.8869
 8050SOL    HW135079   8.492   9.620  -0.001  0.1551 -0.8397  0.9645
 8050SOL    HW235080   8.653   9.628   0.027  0.1473  0.3223  0.7168
 8051SOL     OW35081   1.828   4.008   5.436  0.4548  0.3187 -0.2643
 8051SOL    HW135082   1.864   3.966   5.353 -0.3283 -1.3278  0.2041
 8051SOL    HW235083   1.768   4.084   5.412 -1.1999 -1.2656 -1.3001
 8052SOL     OW35084   5.570   7.866   2.342  0.2995 -0.2342  0.3629
 8052SOL    HW135085   5.585   7.777   2.300  1.4004 -0.8408  2.0244
 8052SOL    HW235086   5.648   7.890   2.400 -0.6228  1.1616  1.0648
 8053SOL     OW35087   9.647   6.048   4.455  0.1183  0.2245  0.2625
 8053SOL    HW135088   9.691   6.105   4.525 -0.0904 -0.5215  1.0122
 8053SOL    HW235089   9.550   6.037   4.478 -0.3578  1.3938 -1.0787
 8054SOL     OW35090   3.311   7.903   5.125 -0.2373  0.3281 -0.6304
 8054SOL    HW135091   3.341   7.965   5.052  0.7711 -0.5839 -1.0052
 8054SOL    HW235092   3.330   7.944   5.214  2.0033 -0.1505 -0.8580
 8055SOL     OW35093   2.221   8.317   1.936  0.3443 -0.0976  0.9045
 8055SOL    HW135094   2.133   8.362   1.944  0.2008 -0.3429  0.7190
 8055SOL    HW235095   2.214   8.223   1.969  0.5058 -0.1589  0.7660
 8056SOL     OW35096   9.596   1.078   1.535 -0.6078  0.0056  0.0435
 8056SOL    HW135097   9.555   1.094   1.624 -0.7187  0.5458 -0.1046
 8056SOL    HW235098   9.543   1.010   1.485 -0.7881  0.0204  0.2173
 8057SOL     OW35099   9.827   7.496   5.289 -0.3640  0.3589 -0.2431
 8057SOL    HW135100   9.796   7.404   5.265  2.1041 -0.4746 -0.3744
 8057SOL    HW235101   9.841   7.549   5.206  0.6180  0.0190 -0.3054
 8058SOL     OW35102   3.279   8.641   1.798  0.0471 -0.5323  0.2923
 8058SOL    HW135103   3.312   8.680   1.712 -1.0473  0.3715  0.2668
 8058SOL    HW235104   3.357   8.613   1.853  0.7502 -1.6583 -1.2292
 8059SOL     OW35105   4.481   4.040   1.551  0.4879 -0.5054  0.0096
 8059SOL    HW135106   4.562   4.079   1.508  0.8323 -0.4906  0.6582
 8059SOL    HW235107   4.449   3.962   1.498  2.6957 -2.3778  1.3428
 8060SOL     OW35108   0.327   9.214   0.755 -0.0654 -0.2675 -0.1698
 8060SOL    HW135109   0.359   9.309   0.750 -2.0463  0.5868  1.9506
 8060SOL    HW235110   0.338   9.180   0.849  0.9196 -2.2580 -0.9909
 8061SOL     OW35111   2.330   7.406   2.976  0.1901 -0.2456 -0.8651
 8061SOL    HW135112   2.372   7.345   2.908  2.3957  0.1763  0.0615
 8061SOL    HW235113   2.285   7.351   3.046 -1.1826 -0.7086 -2.0864
 8062SOL     OW35114   8.557   5.105   3.926  0.5091  0.9494  0.2460
 8062SOL    HW135115   8.511   5.053   3.998  1.7284  0.0446  0.3964
 8062SOL    HW235116   8.563   5.201   3.953 -2.1120  1.2828 -0.2121
 8063SOL     OW35117   1.854   4.058   1.376 -0.1830 -0.5171 -0.1135
 8063SOL    HW135118   1.881   3.999   1.300  2.3586 -0.2825  0.5586
 8063SOL    HW235119   1.859   4.154   1.348 -0.2716 -0.4690  0.0337
 8064SOL     OW35120   6.481   0.216   3.372 -0.3753  0.0505 -0.0314
 8064SOL    HW135121   6.477   0.164   3.287 -0.0987 -1.3923  0.8174
 8064SOL    HW235122   6.491   0.153   3.450  2.5057  1.4486  0.8217
 8065SOL     OW35123   7.251   7.926   1.917  0.4373 -0.0110 -0.0428
 8065SOL    HW135124   7.334   7.980   1.899  0.1926  0.7884  1.1502
 8065SOL    HW235125   7.174   7.988   1.932  0.2160 -0.6637  1.6489
 8066SOL     OW35126   0.668   4.542   5.307 -0.1059 -0.2124  0.0800
 8066SOL    HW135127   0.631   4.522   5.216 -1.5059 -1.4920  0.9255
 8066SOL    HW235128   0.702   4.458   5.348 -1.8683 -0.1069  1.8071
 8067SOL     OW35129   8.984   7.984   3.477 -0.2104 -0.5236  0.1876
 8067SOL    HW135130   9.029   7.920   3.540  0.2837  0.6406  1.0365
 8067SOL    HW235131   9.035   7.986   3.391 -0.9389 -2.1885 -0.3022
 8068SOL     OW35132   9.563   7.244   1.766  0.1771 -0.1307  0.2949
 8068SOL    HW135133   9.614   7.188   1.831 -2.2428 -1.2890  1.2803
 8068SOL    HW235134   9.479   7.196   1.739  0.4886  0.9183 -2.6770
 8069SOL     OW35135   6.959   0.844   5.325 -0.3410  0.1779  0.1646
 8069SOL    HW135136   6.972   0.849   5.226 -0.8277  0.1337  0.0952
 8069SOL    HW235137   7.036   0.796   5.366 -0.2372  0.0078 -0.2215
 8070SOL     OW35138   0.852   5.389   2.674  0.2178  0.0348 -0.0459
 8070SOL    HW135139   0.867   5.483   2.643  0.9101 -0.0100  0.1351
 8070SOL    HW235140   0.875   5.325   2.600 -2.1351  0.0684 -0.8310
 8071SOL     OW35141   8.951   3.936   0.432  0.5286 -0.1208 -0.0628
 8071SOL    HW135142   8.952   4.032   0.461  0.0808  0.0216 -0.5080
 8071SOL    HW235143   8.892   3.883   0.494 -0.6121  0.2255 -0.8309
 8072SOL     OW35144   8.968   3.425   0.055 -0.4873 -0.0395 -0.3936
 8072SOL    HW135145   8.906   3.347   0.057 -0.4253 -0.0865 -0.2648
 8072SOL    HW235146   8.946   3.486   0.132  1.1118 -1.2036  1.0298
 8073SOL     OW35147   8.388   7.211   3.894 -0.3286  0.4723  0.3154
 8073SOL    HW135148   8.413   7.181   3.986  0.0037 -0.3409 -0.0368
 8073SOL    HW235149   8.311   7.275   3.900 -1.1083 -0.5216  1.0645
 8074SOL     OW35150   9.025   2.933   2.104 -1.0941  0.3172 -0.1208
 8074SOL    HW135151   9.123   2.940   2.090 -1.0041 -0.5014  0.1131
 8074SOL    HW235152   9.003   2.950   2.200 -1.0444 -0.8679  0.1039
 8075SOL     OW35153   9.169   9.075   1.027  0.7156  0.0583  0.0690
 8075SOL    HW135154   9.136   8.981   1.040  0.5511  0.3159  1.5763
 8075SOL    HW235155   9.147   9.130   1.108 -0.9624  1.9233 -1.6250
 8076SOL     OW35156   1.286   7.013   1.212 -0.0192 -0.2894  0.2941
 8076SOL    HW135157   1.305   6.915   1.213 -1.4469 -0.5732  0.4597
 8076SOL    HW235158   1.202   7.030   1.160  0.5790  0.9173 -0.3089
 8077SOL     OW35159   0.566   5.519   1.125  0.6514  0.2211 -0.1212
 8077SOL    HW135160   0.529   5.548   1.037  0.9917  0.6275 -0.1318
 8077SOL    HW235161   0.494   5.526   1.195  0.8967  1.6987 -0.0004
 8078SOL     OW35162   3.796   9.496   5.589 -0.0819 -0.5829 -0.6689
 8078SOL    HW135163   3.878   9.549   5.571 -0.4933 -0.1270 -1.2479
 8078SOL    HW235164   3.724   9.557   5.623 -0.5825 -0.7539 -1.4150
 8079SOL     OW35165   4.240   8.393   0.436  0.1040  0.0906  0.6175
 8079SOL    HW135166   4.311   8.344   0.488 -0.1162 -0.3025  0.5510
 8079SOL    HW235167   4.150   8.354   0.457  0.0299 -0.1760 -0.1787
 8080SOL     OW35168   3.629   7.636   3.722 -0.0643 -0.3879  0.0403
 8080SOL    HW135169   3.613   7.682   3.635  1.5462  0.1073 -0.0088
 8080SOL    HW235170   3.577   7.681   3.794 -3.1363 -2.1137 -1.0002
 8081SOL     OW35171   7.816   0.839   5.132  0.0235 -0.4421 -0.4186
 8081SOL    HW135172   7.830   0.751   5.178  0.5193 -0.7861 -1.2070
 8081SOL    HW235173   7.741   0.831   5.066 -0.4575 -0.0510  0.0819
 8082SOL     OW35174   2.294   7.211   5.280 -0.5256  0.3730  1.1399
 8082SOL    HW135175   2.288   7.228   5.182 -2.1055 -1.6345  0.8484
 8082SOL    HW235176   2.244   7.281   5.330 -0.5923  0.8258  0.4410
 8083SOL     OW35177   1.061   8.397   2.826  0.0317 -0.2459 -0.3752
 8083SOL    HW135178   1.122   8.421   2.901 -1.8559  2.3581  0.4198
 8083SOL    HW235179   0.971   8.439   2.842 -1.2069 -1.8858 -2.7604
 8084SOL     OW35180   9.755   5.845   3.635  0.3625  0.5500  0.4579
 8084SOL    HW135181   9.744   5.760   3.688  1.6363 -0.7914 -1.3836
 8084SOL    HW235182   9.852   5.864   3.623  0.1586 -0.5838 -3.5543
 8085SOL     OW35183   4.802   8.354   1.725 -0.6709  0.4320 -0.0383
 8085SOL    HW135184   4.846   8.415   1.790 -1.3818  0.1217  0.7446
 8085SOL    HW235185   4.754   8.408   1.656  0.5480  0.7635 -0.6398
 8086SOL     OW35186   1.167   8.949   2.931  0.1851  0.1691 -0.1319
 8086SOL    HW135187   1.198   8.946   2.836 -2.2062  1.4073 -0.9856
 8086SOL    HW235188   1.167   9.044   2.964  1.2512 -0.2749  1.2125
 8087SOL     OW35189   5.433   6.848   2.062 -0.0475 -0.4018  0.2949
 8087SOL    HW135190   5.348   6.850   2.009  0.0400  4.4175  0.0273
 8087SOL    HW235191   5.413   6.831   2.158 -1.1975 -0.6199  0.0166
 8088SOL     OW35192   3.233   6.194   2.517 -0.4849 -0.2233 -0.5736
 8088SOL    HW135193   3.282   6.254   2.454 -0.0588 -0.9017 -0.8844
 8088SOL    HW235194   3.135   6.198   2.496 -0.3335 -0.5253 -1.3414
 8089SOL     OW35195   8.651   7.797   1.702  0.3577 -0.2132  0.6708
 8089SOL    HW135196   8.732   7.855   1.690  0.8262 -0.7662  1.1604
 8089SOL    HW235197   8.637   7.743   1.619  1.2065 -1.0147  1.0444
 8090SOL     OW35198   7.638   3.231   1.394  0.1303  0.0321  0.2069
 8090SOL    HW135199   7.715   3.173   1.370 -0.8892 -1.2549 -0.0140
 8090SOL    HW235200   7.559   3.174   1.418 -2.0234  1.2320 -3.5471
 8091SOL     OW35201   0.062   9.701   3.851 -0.0184  0.3421  0.4211
 8091SOL    HW135202   0.099   9.790   3.824 -0.4438  0.1919 -0.7092
 8091SOL    HW235203   0.136   9.638   3.869  0.2941  0.4237 -0.5303
 8092SOL     OW35204   6.798   8.761   3.282  0.3165 -0.8746 -0.0302
 8092SOL    HW135205   6.854   8.838   3.312 -0.2678 -0.9612  1.3042
 8092SOL    HW235206   6.857   8.683   3.261  0.6632 -1.1844  2.0336
 8093SOL     OW35207   0.632   4.556   0.740 -0.5937  0.0463  0.0635
 8093SOL    HW135208   0.699   4.570   0.813 -0.1477 -2.0886  0.1048
 8093SOL    HW235209   0.546   4.601   0.763  0.2114  1.1390  0.9299
 8094SOL     OW35210   2.313   5.769   2.689 -0.1710  0.5051  0.2522
 8094SOL    HW135211   2.385   5.830   2.658  1.4334 -0.4077  2.0313
 8094SOL    HW235212   2.305   5.692   2.626 -1.7570  2.1942 -1.6393
 8095SOL     OW35213   5.845   0.660   1.717 -0.4387  0.0467 -0.2414
 8095SOL    HW135214   5.839   0.561   1.701 -1.2447 -0.1399  1.0562
 8095SOL    HW235215   5.899   0.676   1.800  2.1236  0.8647 -2.0002
 8096SOL     OW35216   8.114   0.118   3.305 -0.1641  0.0538  0.4150
 8096SOL    HW135217   8.182   0.159   3.366 -0.0052  0.3335  0.0500
 8096SOL    HW235218   8.089   0.184   3.234  0.4128 -0.6222 -0.4327
 8097SOL     OW35219   9.079   3.795   0.264  0.3123 -0.1855  0.0136
 8097SOL    HW135220   9.030   3.708   0.274 -0.2960  0.2587  1.0290
 8097SOL    HW235221   9.045   3.860   0.333  1.7280  0.4093  0.1644
 8098SOL     OW35222   1.844   8.307   2.441  0.2079  0.3505 -0.6265
 8098SOL    HW135223   1.874   8.310   2.536  0.6810 -0.5928 -0.7400
 8098SOL    HW235224   1.851   8.398   2.401  0.3316  0.6837  0.1441
 8099SOL     OW35225   0.369   1.457   4.580 -0.3747 -0.2172 -0.1638
 8099SOL    HW135226   0.429   1.519   4.530  1.8949 -2.2672 -0.0860
 8099SOL    HW235227   0.357   1.491   4.674  1.0466 -0.0086 -0.0470
 8100SOL     OW35228   2.191   5.400   0.410  0.3535  0.1457  0.3854
 8100SOL    HW135229   2.240   5.464   0.469  1.3104 -0.8483  0.6875
 8100SOL    HW235230   2.096   5.428   0.402  0.9487  2.0962 -0.1688
 8101SOL     OW35231   7.619   7.078   3.224  0.0668  0.1038  0.1785
 8101SOL    HW135232   7.539   7.104   3.170 -0.4919 -0.4742  0.7193
 8101SOL    HW235233   7.683   7.155   3.227 -0.4764  0.5830 -0.2319
 8102SOL     OW35234   2.627   6.562   2.068 -0.6216  0.6982  0.3239
 8102SOL    HW135235   2.652   6.637   2.006 -1.2464 -0.6574 -1.6196
 8102SOL    HW235236   2.529   6.545   2.062 -0.6560  0.4545  1.5753
 8103SOL     OW35237   9.385   9.874   1.008 -0.5785 -0.4438  0.1662
 8103SOL    HW135238   9.374   9.968   1.038  3.4772  0.4461 -0.8154
 8103SOL    HW235239   9.418   9.818   1.084 -1.1852 -0.6845  0.2581
 8104SOL     OW35240   0.676   0.305   1.862  0.6926  0.0999  0.6776
 8104SOL    HW135241   0.749   0.253   1.908  1.1907 -0.5326 -0.7788
 8104SOL    HW235242   0.617   0.242   1.811 -0.7603  0.6364  1.6833
 8105SOL     OW35243   3.535   3.390   3.431  0.1464  0.2149  0.0756
 8105SOL    HW135244   3.493   3.361   3.517 -1.0033  0.7667 -0.2862
 8105SOL    HW235245   3.534   3.490   3.425 -0.6699  0.1600 -0.9981
 8106SOL     OW35246   5.931   7.812   2.713 -0.6280  0.3527 -0.2707
 8106SOL    HW135247   5.891   7.858   2.792 -1.6061 -0.3155 -0.3690
 8106SOL    HW235248   5.886   7.843   2.630  1.2045  1.9457 -0.7043
 8107SOL     OW35249   7.120   7.163   4.222 -0.2391  0.0223 -0.0017
 8107SOL    HW135250   7.166   7.203   4.302  0.9755 -0.6488 -0.3621
 8107SOL    HW235251   7.021   7.181   4.229  0.1370  2.1177  0.4119
 8108SOL     OW35252   4.328   2.758   4.942 -0.2599  0.0245 -0.1726
 8108SOL    HW135253   4.341   2.837   5.002 -0.3408 -1.0234  1.2524
 8108SOL    HW235254   4.231   2.750   4.919 -0.5723 -0.7907  1.3117
 8109SOL     OW35255   3.673   2.393   4.110 -0.2898  0.3929 -0.4372
 8109SOL    HW135256   3.694   2.416   4.015  0.7350 -0.7454 -0.5028
 8109SOL    HW235257   3.698   2.298   4.127  0.1623  0.7823  1.1597
 8110SOL     OW35258   8.331   0.045   1.340  0.0559 -0.7067 -0.8881
 8110SOL    HW135259   8.288  -0.003   1.416  2.8380 -0.9082  0.6517
 8110SOL    HW235260   8.267   0.110   1.300 -2.1500 -2.1529  0.2153
 8111SOL     OW35261   8.203   3.023   1.988  0.6341 -0.1914  0.3082
 8111SOL    HW135262   8.258   2.962   2.045  1.5086 -0.4730 -0.8355
 8111SOL    HW235263   8.172   2.974   1.906 -0.6483  0.2010  0.5409
 8112SOL     OW35264   7.536   5.016   3.964 -0.6632 -0.1743 -0.1515
 8112SOL    HW135265   7.491   4.995   3.877 -0.8856  0.7101 -0.2568
 8112SOL    HW235266   7.630   5.046   3.947 -0.5268 -0.5448 -0.0476
 8113SOL     OW35267   6.393   9.074   2.195 -0.1134 -0.1371 -0.3261
 8113SOL    HW135268   6.371   9.164   2.158 -0.7103 -0.0861  0.1567
 8113SOL    HW235269   6.488   9.051   2.170  0.2748  0.9165  0.1309
 8114SOL     OW35270   8.411   0.829   0.649  0.2301 -0.3512  0.2172
 8114SOL    HW135271   8.364   0.805   0.563  1.5336 -0.5603 -0.4530
 8114SOL    HW235272   8.467   0.911   0.634 -0.0084 -0.0323  1.0466
 8115SOL     OW35273   0.226   0.277   4.156  0.0848  0.6218 -0.6653
 8115SOL    HW135274   0.211   0.348   4.225  0.4833 -1.5310  1.7188
 8115SOL    HW235275   0.324   0.267   4.140  0.2389 -1.4217  1.2886
 8116SOL     OW35276   2.274   4.436   3.951 -0.4631  0.1021  0.0803
 8116SOL    HW135277   2.277   4.498   3.872  0.9872 -0.1972 -0.1126
 8116SOL    HW235278   2.331   4.472   4.024 -0.4900 -0.4510  0.3785
 8117SOL     OW35279   0.401   8.308   2.349  0.2413 -0.2281  0.7778
 8117SOL    HW135280   0.445   8.384   2.397 -1.1460  1.1180 -0.0166
 8117SOL    HW235281   0.439   8.221   2.381  2.3650  0.8247  1.1839
 8118SOL     OW35282   8.691   3.733   4.748 -0.0266 -0.1821  0.3121
 8118SOL    HW135283   8.791   3.744   4.749 -0.1404  0.8887  0.0505
 8118SOL    HW235284   8.648   3.813   4.789 -0.7966 -0.4935  0.1257
 8119SOL     OW35285   3.002   3.369   1.697 -0.4749  0.8947  0.3069
 8119SOL    HW135286   2.949   3.319   1.766 -0.6752  1.0770  0.2845
 8119SOL    HW235287   2.942   3.432   1.647 -0.5217  0.0895 -0.6721
 8120SOL     OW35288   0.892   7.727   1.803 -0.0510 -0.5726  0.6137
 8120SOL    HW135289   0.985   7.714   1.770 -0.4440 -0.7050 -0.4646
 8120SOL    HW235290   0.893   7.735   1.903  1.1446 -0.2425  0.5881
 8121SOL     OW35291   0.174   2.283   3.308  0.4110  0.2702  0.4345
 8121SOL    HW135292   0.128   2.368   3.333  1.2265  0.8270  0.0950
 8121SOL    HW235293   0.263   2.279   3.355 -0.4959 -1.3690  2.0529
 8122SOL     OW35294   0.605   6.257   1.320 -0.6567  0.2445  0.0287
 8122SOL    HW135295   0.652   6.196   1.383 -1.6709 -0.0527  0.5133
 8122SOL    HW235296   0.615   6.223   1.227 -2.5107 -1.5341  0.4443
 8123SOL     OW35297   9.882   2.821   2.176 -0.1535  0.3469 -0.3274
 8123SOL    HW135298   9.878   2.906   2.228  1.8413  0.8386 -0.9120
 8123SOL    HW235299   9.807   2.760   2.203  1.1212  0.3849  3.4462
 8124SOL     OW35300   4.416   1.971   4.883  0.0405 -0.6236  0.0559
 8124SOL    HW135301   4.497   1.964   4.826  1.9059  0.4098  2.4932
 8124SOL    HW235302   4.434   1.929   4.972 -1.2673  1.6363  1.4579
 8125SOL     OW35303   8.061   3.370   3.764 -0.2663 -0.0498 -0.3463
 8125SOL    HW135304   8.029   3.320   3.683 -1.1563 -0.7901  0.4579
 8125SOL    HW235305   7.984   3.389   3.824  0.3433  0.7887  0.1819
 8126SOL     OW35306   2.213   0.175   0.330  0.1172 -0.2405 -0.4401
 8126SOL    HW135307   2.203   0.099   0.395  0.9389  0.1130  0.1006
 8126SOL    HW235308   2.223   0.138   0.237  0.3718 -0.7920 -0.1956
 8127SOL     OW35309   8.348   3.960   5.033 -0.0353 -0.1570 -0.0548
 8127SOL    HW135310   8.445   3.969   5.012  0.4864 -0.7730  1.9293
 8127SOL    HW235311   8.314   4.046   5.071 -0.5086  0.3530 -1.6032
 8128SOL     OW35312   8.751   0.255   1.042  0.0975  0.0293 -1.4336
 8128SOL    HW135313   8.829   0.263   1.103 -0.2732 -1.4535 -0.7435
 8128SOL    HW235314   8.701   0.341   1.041  0.2829  0.1729  0.1366
 8129SOL     OW35315   1.009   6.803   1.052  0.3970  0.1621  0.1686
 8129SOL    HW135316   1.087   6.817   0.991 -0.1034  1.9296 -0.0920
 8129SOL    HW235317   0.931   6.768   1.000  1.1776 -2.2495  0.5450
 8130SOL     OW35318   0.339   4.198   2.453  0.2417  0.3610 -0.5113
 8130SOL    HW135319   0.346   4.116   2.396  1.7661  0.4619 -0.4952
 8130SOL    HW235320   0.243   4.220   2.469 -0.1883 -1.6018 -0.2666
 8131SOL     OW35321   5.133   9.663   2.627 -0.1166 -0.6073  0.2205
 8131SOL    HW135322   5.228   9.689   2.609 -0.5141 -0.3055 -1.5515
 8131SOL    HW235323   5.131   9.579   2.681  1.1640 -1.3861 -0.8911
 8132SOL     OW35324   2.772   9.696   0.093  0.1533  0.3134 -0.1276
 8132SOL    HW135325   2.764   9.629   0.166  0.8222  1.6899  1.2442
 8132SOL    HW235326   2.868   9.707   0.067  0.1748  1.4057  0.3423
 8133SOL     OW35327   1.620   0.337   0.455  0.3489  0.6703  0.7279
 8133SOL    HW135328   1.567   0.341   0.371  0.2918 -1.6638  0.6376
 8133SOL    HW235329   1.717   0.349   0.434  0.2707  0.7390  0.4077
 8134SOL     OW35330   9.130   5.731   0.564  0.1159  0.3952  0.0928
 8134SOL    HW135331   9.115   5.634   0.587  0.0021  0.2149 -0.7000
 8134SOL    HW235332   9.116   5.743   0.465  2.8072  0.7084 -0.2749
 8135SOL     OW35333   2.756   9.825   4.312  0.4849 -0.1385  0.0317
 8135SOL    HW135334   2.734   9.833   4.409  2.1283 -2.0166  0.6182
 8135SOL    HW235335   2.855   9.826   4.301  0.3125 -0.2449 -1.5872
 8136SOL     OW35336   4.573   1.778   1.578  0.3303  0.0040  0.7614
 8136SOL    HW135337   4.628   1.856   1.608 -0.0476  0.3074  0.6757
 8136SOL    HW235338   4.621   1.729   1.506  0.5261  0.2136  0.7468
 8137SOL     OW35339   9.948   1.689   0.104  0.3284  0.0504 -0.0237
 8137SOL    HW135340  10.030   1.697   0.048  0.8331 -0.8894  0.5701
 8137SOL    HW235341   9.903   1.778   0.111  0.6751  0.3262 -1.2837
 8138SOL     OW35342   4.570   1.226   0.598  0.0281  0.4174 -0.0473
 8138SOL    HW135343   4.597   1.217   0.502  0.7327 -1.6238  0.2973
 8138SOL    HW235344   4.652   1.226   0.655 -0.4801 -2.2341  0.7794
 8139SOL     OW35345   8.232   5.853   2.746  0.3448 -0.1803 -0.3419
 8139SOL    HW135346   8.158   5.838   2.681 -0.1089 -1.5642  0.4617
 8139SOL    HW235347   8.194   5.871   2.837  0.9703 -0.3900 -0.0306
 8140SOL     OW35348   1.234   1.919   2.836  0.0133  0.5241 -0.1280
 8140SOL    HW135349   1.224   1.924   2.737 -1.5359 -0.9066 -0.0571
 8140SOL    HW235350   1.148   1.945   2.880  0.1270 -0.5839  0.7836
 8141SOL     OW35351   2.182   0.240   4.028  0.7622 -0.0406 -0.2445
 8141SOL    HW135352   2.263   0.193   4.064  1.8868  1.7167 -0.4174
 8141SOL    HW235353   2.104   0.178   4.031  1.6841 -1.1670  1.6669
 8142SOL     OW35354   9.878   2.145   0.440  0.1486  0.5920 -0.1139
 8142SOL    HW135355   9.822   2.199   0.502  0.3971 -0.8825  1.4453
 8142SOL    HW235356   9.821   2.105   0.368 -0.2425  1.7982 -0.4747
 8143SOL     OW35357   5.129   9.684   4.364  0.4365 -0.0347  0.2122
 8143SOL    HW135358   5.197   9.645   4.426 -0.8935 -2.0565  0.4747
 8143SOL    HW235359   5.119   9.626   4.284  0.0874  1.0477 -0.5455
 8144SOL     OW35360   5.205   0.571   4.518 -0.1935 -0.4003 -0.3343
 8144SOL    HW135361   5.164   0.555   4.428 -0.4924  1.4840 -0.5539
 8144SOL    HW235362   5.275   0.642   4.511  1.0663 -1.5227  0.5950
 8145SOL     OW35363   6.940   0.652   4.893 -0.2319 -0.8776 -0.2735
 8145SOL    HW135364   7.037   0.628   4.888 -0.1664 -0.4710 -0.9409
 8145SOL    HW235365   6.887   0.571   4.918 -0.0438 -1.8026 -2.7272
 8146SOL     OW35366   7.314   5.365   3.925  0.2335  0.0788 -0.2019
 8146SOL    HW135367   7.325   5.374   3.826  0.6485  0.9907 -0.0866
 8146SOL    HW235368   7.402   5.339   3.966 -0.1891 -1.3403 -0.1790
 8147SOL     OW35369   8.865   9.098   3.442 -0.0818 -0.4694  0.2553
 8147SOL    HW135370   8.875   9.191   3.478  3.4338 -0.2267 -1.1428
 8147SOL    HW235371   8.820   9.040   3.510  1.0580  1.3685  2.6442
 8148SOL     OW35372   7.255   1.352   3.381  0.4061 -0.1195 -0.1254
 8148SOL    HW135373   7.313   1.375   3.303  0.1108 -0.9082 -0.5848
 8148SOL    HW235374   7.310   1.309   3.452  0.4154 -0.7477 -0.5076
 8149SOL     OW35375   2.757   8.016   4.232 -0.1332 -0.0889 -0.5640
 8149SOL    HW135376   2.719   8.034   4.141 -0.2698  1.2482 -0.2600
 8149SOL    HW235377   2.707   8.070   4.300  0.1135 -0.9093  0.2824
 8150SOL     OW35378   3.234   2.555   2.895  0.0320 -0.3562  0.3177
 8150SOL    HW135379   3.229   2.459   2.869 -1.6628 -0.6764  1.6853
 8150SOL    HW235380   3.143   2.596   2.889  0.4972  0.8072  0.9713
 8151SOL     OW35381   8.956   4.783   3.088 -0.4655  0.5174 -0.1409
 8151SOL    HW135382   8.902   4.864   3.110 -2.7521 -0.4467 -1.9703
 8151SOL    HW235383   8.924   4.744   3.002  0.4954 -2.4446  0.7818
 8152SOL     OW35384   6.491   4.070   5.570  0.5708  0.1004  0.1288
 8152SOL    HW135385   6.481   4.004   5.496  0.8163  0.4176 -0.1901
 8152SOL    HW235386   6.548   4.146   5.539  1.1877 -0.0645  0.8453
 8153SOL     OW35387   4.186   6.982   1.890 -0.4083  0.4874 -0.4482
 8153SOL    HW135388   4.248   7.011   1.963  1.5422 -1.3865 -1.3224
 8153SOL    HW235389   4.135   6.901   1.920  0.2462 -0.1621 -1.0921
 8154SOL     OW35390   7.858   0.280   4.769 -0.4586  0.2739 -0.0289
 8154SOL    HW135391   7.817   0.369   4.790 -3.2506 -1.4098  1.8007
 8154SOL    HW235392   7.947   0.273   4.814 -1.0903  1.3803  1.4023
 8155SOL     OW35393   3.771   1.377   3.859 -0.7698 -0.3339 -0.4922
 8155SOL    HW135394   3.694   1.314   3.870  0.7974 -2.5866 -1.9585
 8155SOL    HW235395   3.747   1.447   3.793 -2.2980  0.2296  0.6330
 8156SOL     OW35396   7.099   2.120   2.835 -0.5221  0.0157  0.0195
 8156SOL    HW135397   7.021   2.163   2.789  0.6253  1.2341 -0.8553
 8156SOL    HW235398   7.084   2.022   2.842 -2.0611  0.2162 -0.2736
 8157SOL     OW35399   3.650   9.013   0.658 -0.5747 -0.3586 -0.1822
 8157SOL    HW135400   3.616   9.018   0.564 -1.4574  1.5638  0.2229
 8157SOL    HW235401   3.740   8.968   0.658 -1.4015 -2.1296 -1.6988
 8158SOL     OW35402   2.493   3.545   2.971  0.2804 -0.1290  0.0598
 8158SOL    HW135403   2.445   3.461   2.948 -0.2984  1.1042 -3.5326
 8158SOL    HW235404   2.429   3.622   2.972  1.1365  0.6009  1.3994
 8159SOL     OW35405   8.131   6.862   4.688  0.0854  0.1864 -0.0641
 8159SOL    HW135406   8.187   6.780   4.677 -0.4939  0.1683 -3.5324
 8159SOL    HW235407   8.037   6.836   4.710 -0.0208 -0.0775 -0.8196
 8160SOL     OW35408   9.912   9.908   1.357 -0.6131 -0.3416 -0.1029
 8160SOL    HW135409   9.932   9.820   1.400  0.6091  0.0315  0.1088
 8160SOL    HW235410   9.976   9.923   1.281 -1.3376  0.0026 -0.6550
 8161SOL     OW35411   3.059   0.840   3.789 -0.2952  0.0602  0.3604
 8161SOL    HW135412   3.111   0.776   3.847 -2.7433 -2.0553  0.3289
 8161SOL    HW235413   3.009   0.904   3.847  3.2585  2.9362  0.3695
 8162SOL     OW35414   7.304   4.842   5.601  0.2942  0.2045 -0.3997
 8162SOL    HW135415   7.265   4.752   5.584  1.5876 -0.3976 -0.2016
 8162SOL    HW235416   7.273   4.905   5.529 -1.3214 -0.1567 -0.0431
 8163SOL     OW35417   9.987   1.984   2.603 -0.2701  0.1620  0.0636
 8163SOL    HW135418  10.056   1.981   2.675 -0.7695  0.6884  0.5727
 8163SOL    HW235419   9.955   1.892   2.584 -0.4880  0.0604  0.8735
 8164SOL     OW35420   0.933   6.900   0.062 -0.6266  0.3843  0.6359
 8164SOL    HW135421   0.858   6.958   0.094 -2.9872 -1.4180 -1.4894
 8164SOL    HW235422   0.950   6.828   0.130 -1.5648  0.1664  0.6534
 8165SOL     OW35423   3.494   5.780   3.473 -0.1640 -0.1175 -0.8013
 8165SOL    HW135424   3.498   5.728   3.388 -0.5380 -1.0547 -0.2488
 8165SOL    HW235425   3.507   5.877   3.453  0.1537 -0.3778 -1.8788
 8166SOL     OW35426   3.707   1.506   4.868  0.0908 -0.1633  0.8436
 8166SOL    HW135427   3.697   1.548   4.777 -2.2928  0.2980  1.2834
 8166SOL    HW235428   3.801   1.518   4.900  0.4319  1.4695 -0.6821
 8167SOL     OW35429   8.655   5.906   2.333 -0.0290  0.0723  0.8533
 8167SOL    HW135430   8.617   5.903   2.426 -2.7448  1.0215 -0.2086
 8167SOL    HW235431   8.659   6.000   2.301  1.2071 -0.2234  0.1048
 8168SOL     OW35432   2.511   2.028   1.861  0.0327 -0.2158  0.5218
 8168SOL    HW135433   2.582   1.993   1.922 -1.1634 -0.8070  1.6023
 8168SOL    HW235434   2.421   1.999   1.895 -0.6094 -1.3430 -2.0531
 8169SOL     OW35435   1.190   8.669   3.405  0.1465 -0.0079 -0.2211
 8169SOL    HW135436   1.146   8.716   3.328 -2.9146 -0.3609  1.2431
 8169SOL    HW235437   1.152   8.578   3.414  1.6823 -0.5760  0.7359
 8170SOL     OW35438   8.476   8.437   0.180  0.0573  0.3064  0.3971
 8170SOL    HW135439   8.400   8.452   0.243  0.1713  1.6517  0.2171
 8170SOL    HW235440   8.555   8.490   0.209  0.6044 -0.2749 -0.0102
 8171SOL     OW35441   3.823   9.458   3.346 -0.0878 -0.2662  0.2566
 8171SOL    HW135442   3.851   9.553   3.330 -1.9661  0.2407 -0.2069
 8171SOL    HW235443   3.734   9.442   3.303  0.6640 -2.5408 -0.5471
 8172SOL     OW35444   2.234   3.108   0.050  0.3133  0.1063  0.1517
 8172SOL    HW135445   2.202   3.017   0.077  1.3193 -0.6162 -1.0898
 8172SOL    HW235446   2.260   3.160   0.132  0.1265 -0.8656  0.8274
 8173SOL     OW35447   2.077   3.057   0.784 -0.4114 -0.3389 -0.3810
 8173SOL    HW135448   1.999   3.118   0.792  0.8001  1.3617 -1.1265
 8173SOL    HW235449   2.115   3.063   0.692  0.1918 -1.6774 -0.2439
 8174SOL     OW35450   4.825   1.332   0.391 -0.1756 -0.2385 -0.4826
 8174SOL    HW135451   4.782   1.411   0.348  1.5210  0.4069 -1.0592
 8174SOL    HW235452   4.888   1.364   0.462 -0.3435 -1.1348  0.0758
 8175SOL     OW35453   4.359   7.070   2.080  0.0595 -0.4296  0.0232
 8175SOL    HW135454   4.353   7.170   2.080  1.5969 -0.3333  0.1873
 8175SOL    HW235455   4.323   7.035   2.167  1.6402  0.1246  0.9121
 8176SOL     OW35456   2.248   0.873   0.162  0.4373  0.5170 -0.0459
 8176SOL    HW135457   2.172   0.904   0.105 -0.5968 -0.4739  0.7847
 8176SOL    HW235458   2.234   0.778   0.189  0.7863  1.0288  2.0706
 8177SOL     OW35459   3.314   0.682   4.413 -0.2895 -0.5591  0.0893
 8177SOL    HW135460   3.337   0.779   4.405 -0.5992 -0.4467  0.5724
 8177SOL    HW235461   3.278   0.664   4.504  0.5016 -1.2819  0.2679
 8178SOL     OW35462   6.771   8.749   1.436  0.1976 -0.4154 -0.0059
 8178SOL    HW135463   6.800   8.798   1.354  0.4176  0.0643  0.3536
 8178SOL    HW235464   6.684   8.787   1.468 -1.8141 -3.0509 -2.1252
 8179SOL     OW35465   4.558   2.144   0.986 -0.1991  0.3826 -0.3514
 8179SOL    HW135466   4.608   2.204   0.924  0.9236  1.9397  2.0022
 8179SOL    HW235467   4.595   2.152   1.078 -1.1828 -2.6458  0.3707
 8180SOL     OW35468   9.713   0.839   0.362 -0.2319 -0.1893  0.0849
 8180SOL    HW135469   9.669   0.806   0.278 -1.7794  1.2653  0.2931
 8180SOL    HW235470   9.695   0.775   0.436 -2.5148  0.6287  0.2961
 8181SOL     OW35471   4.542   4.647   2.144  0.3756 -0.2113  0.3354
 8181SOL    HW135472   4.462   4.609   2.189  0.4750  1.5894  2.1265
 8181SOL    HW235473   4.515   4.725   2.088  0.8837  0.5414  1.1223
 8182SOL     OW35474   4.750   0.309   2.373  0.2066  0.0478  0.7647
 8182SOL    HW135475   4.695   0.231   2.345  0.5276 -0.4352  1.4786
 8182SOL    HW235476   4.692   0.373   2.424 -0.4701  1.1116 -1.2900
 8183SOL     OW35477   1.766   5.528   1.914 -0.1105 -0.5038 -0.2803
 8183SOL    HW135478   1.799   5.584   1.990  0.5915 -1.8524  0.4279
 8183SOL    HW235479   1.842   5.508   1.852 -0.1641 -1.3439 -0.0889
 8184SOL     OW35480   9.014   7.105   4.102 -1.2458  0.3433 -0.2248
 8184SOL    HW135481   9.085   7.164   4.143  0.5167 -0.8115 -1.5663
 8184SOL    HW235482   8.989   7.034   4.167 -0.0655 -0.1502 -0.2980
 8185SOL     OW35483   2.956   3.918   5.156 -0.4229  0.4184  0.7849
 8185SOL    HW135484   2.990   3.843   5.212  0.0652 -1.3083 -1.7343
 8185SOL    HW235485   3.020   3.936   5.082 -0.7660  3.0413  1.0732
 8186SOL     OW35486   8.713   9.098   4.445 -0.5284  0.0663 -0.6318
 8186SOL    HW135487   8.774   9.169   4.409  0.8965 -0.4949  0.6253
 8186SOL    HW235488   8.743   9.008   4.412 -1.2134 -0.1185 -0.7440
 8187SOL     OW35489   0.454   2.718   0.157  0.9348 -0.3405  0.3000
 8187SOL    HW135490   0.472   2.679   0.067  0.0938  0.9129 -0.4139
 8187SOL    HW235491   0.370   2.679   0.194 -0.6532  1.7492 -1.0020
 8188SOL     OW35492   4.909   3.807   2.032  0.0594  0.2619 -0.0081
 8188SOL    HW135493   4.992   3.858   2.011 -0.3908  1.6739  1.5673
 8188SOL    HW235494   4.880   3.827   2.126 -0.0799 -2.9548  0.7088
 8189SOL     OW35495   9.346   2.066   4.223 -0.0943 -0.1611  0.2152
 8189SOL    HW135496   9.344   2.165   4.206 -0.5900 -0.4354 -1.3498
 8189SOL    HW235497   9.330   2.017   4.138  1.3706 -1.6204  0.7496
 8190SOL     OW35498   3.880   8.047   2.506 -0.3624  0.0773  0.5557
 8190SOL    HW135499   3.795   7.995   2.518 -0.6248  0.3354 -0.1634
 8190SOL    HW235500   3.867   8.140   2.539 -0.3689  0.1234  0.4275
 8191SOL     OW35501   2.129   8.087   4.407 -0.3437 -0.0500 -0.0984
 8191SOL    HW135502   2.042   8.038   4.420 -0.9830  0.9432 -0.5543
 8191SOL    HW235503   2.133   8.125   4.315  0.1158  0.8013  0.2652
 8192SOL     OW35504   4.885   1.059   3.072  0.8579 -0.2561 -0.1362
 8192SOL    HW135505   4.923   1.133   3.128  2.0183  0.1006 -1.3793
 8192SOL    HW235506   4.914   0.971   3.111  0.1624 -0.0580  0.8596
 8193SOL     OW35507   8.773   0.938   5.508 -0.1275 -0.1333 -0.4097
 8193SOL    HW135508   8.827   0.920   5.426  0.6961  0.2010  0.0532
 8193SOL    HW235509   8.750   1.036   5.511 -0.8454 -0.2901 -0.6530
 8194SOL     OW35510   0.826   7.877   0.682  0.1177  0.6116  0.0197
 8194SOL    HW135511   0.910   7.824   0.698  0.6889  1.4362 -0.2256
 8194SOL    HW235512   0.774   7.883   0.767 -0.1893 -0.7498 -0.0588
 8195SOL     OW35513   4.604   0.930   1.607  0.0737  0.3373 -0.4302
 8195SOL    HW135514   4.517   0.886   1.584  1.8875 -2.1344 -2.8012
 8195SOL    HW235515   4.644   0.883   1.686  0.9782 -0.8726 -1.6061
 8196SOL     OW35516   1.552   9.910   1.575 -0.0533  0.3420  0.6105
 8196SOL    HW135517   1.627   9.975   1.594 -0.3633  0.8292  0.1587
 8196SOL    HW235518   1.473   9.960   1.541  0.3072 -0.4780 -1.4495
 8197SOL     OW35519   8.323   2.079   1.765  0.0077  0.2525  0.1259
 8197SOL    HW135520   8.276   2.014   1.824 -0.7519  0.5520 -0.1425
 8197SOL    HW235521   8.295   2.172   1.789 -2.6670  0.2587 -2.6728
 8198SOL     OW35522   1.297   3.774   0.912 -0.0036 -0.3868 -0.3726
 8198SOL    HW135523   1.379   3.720   0.890 -0.9748 -0.8643 -2.9764
 8198SOL    HW235524   1.220   3.713   0.927 -0.5807  0.1852 -0.9897
 8199SOL     OW35525   0.379   5.371   1.567 -0.0223  0.1396 -0.2219
 8199SOL    HW135526   0.376   5.303   1.493  1.7492  0.9577 -1.0865
 8199SOL    HW235527   0.383   5.463   1.528  0.1031  0.6217  0.9052
 8200SOL     OW35528   8.068   3.920   3.929  0.0206 -0.0775 -1.0367
 8200SOL    HW135529   7.979   3.946   3.966 -0.1862  0.6372 -2.0058
 8200SOL    HW235530   8.103   3.840   3.978 -0.6336  0.3215  0.0962
 8201SOL     OW35531   2.695   5.672   1.969  0.1906 -0.0504 -0.5590
 8201SOL    HW135532   2.618   5.724   1.932 -0.4071 -0.6572 -0.1786
 8201SOL    HW235533   2.664   5.615   2.044  1.2631  0.6194  0.4102
 8202SOL     OW35534   2.124   1.735   3.043 -0.4238  0.3707 -0.1535
 8202SOL    HW135535   2.057   1.715   3.115  0.8494 -0.9400  0.6896
 8202SOL    HW235536   2.099   1.686   2.960 -0.6196  0.0503  0.0914
 8203SOL     OW35537   5.064   8.684   4.016 -0.2771 -0.2026 -0.0588
 8203SOL    HW135538   4.999   8.752   4.051 -0.8530 -0.6316 -0.2950
 8203SOL    HW235539   5.142   8.677   4.078 -0.2079  0.6876 -0.0392
 8204SOL     OW35540   5.260   9.551   2.389  0.7662  0.1478  0.0635
 8204SOL    HW135541   5.195   9.598   2.448  0.1977  1.2519 -1.4097
 8204SOL    HW235542   5.326   9.617   2.353  3.4335 -1.1152  2.4134
 8205SOL     OW35543   2.474   8.935   0.659  0.1415  0.0641 -0.4560
 8205SOL    HW135544   2.505   8.867   0.592 -1.2826  0.3791 -1.4656
 8205SOL    HW235545   2.441   8.888   0.741  3.4730 -0.2652  0.7748
 8206SOL     OW35546   0.496   0.990   1.785 -0.3014  0.0536 -0.4465
 8206SOL    HW135547   0.500   0.964   1.689  1.3965  0.4831 -0.5080
 8206SOL    HW235548   0.586   1.022   1.815 -0.4242 -1.5128  1.7052
 8207SOL     OW35549   0.621   2.078   3.493  0.0714 -0.5187 -0.0728
 8207SOL    HW135550   0.665   2.107   3.578 -0.3383  0.1229 -0.0798
 8207SOL    HW235551   0.592   1.982   3.502  0.2743 -0.5388  0.4105
 8208SOL     OW35552   8.190   9.478   2.960 -0.0597  0.3434  0.1255
 8208SOL    HW135553   8.217   9.389   2.996 -1.6203 -0.5816 -0.9643
 8208SOL    HW235554   8.258   9.508   2.893 -0.8035 -1.1990 -1.3614
 8209SOL     OW35555   3.181   7.527   4.858  0.5216  0.1018  0.1478
 8209SOL    HW135556   3.089   7.492   4.876  0.2856  0.9814  0.6422
 8209SOL    HW235557   3.223   7.474   4.784 -0.5499 -0.0170 -0.3763
 8210SOL     OW35558   6.970   6.586   3.846 -0.3975  0.4674  0.2488
 8210SOL    HW135559   7.062   6.581   3.807  0.2094 -0.5425  1.7764
 8210SOL    HW235560   6.904   6.604   3.773  0.7611 -1.0287 -1.2118
 8211SOL     OW35561   0.814   3.042   3.605  0.2950 -0.1151  0.0409
 8211SOL    HW135562   0.859   2.981   3.541  1.7977 -0.6242  1.5262
 8211SOL    HW235563   0.750   2.990   3.662 -1.1761  0.3666 -1.1289
 8212SOL     OW35564   4.321   1.798   0.517 -0.6792  0.0668 -0.1025
 8212SOL    HW135565   4.352   1.706   0.539 -0.5341  0.0484 -0.3758
 8212SOL    HW235566   4.260   1.832   0.589 -2.5768 -1.1378 -1.0901
 8213SOL     OW35567   0.268   3.879   0.384 -0.3543  0.0456 -0.3941
 8213SOL    HW135568   0.240   3.841   0.295  1.5330 -2.2508 -0.0663
 8213SOL    HW235569   0.275   3.978   0.377  0.9676 -0.1939 -3.1953
 8214SOL     OW35570   7.536   8.479   2.071  0.2132  0.4253 -0.5624
 8214SOL    HW135571   7.514   8.530   2.154 -1.5484 -1.3350  0.0724
 8214SOL    HW235572   7.583   8.394   2.095 -0.4825 -0.1889 -1.3509
 8215SOL     OW35573   2.966   8.890   4.683 -0.1416 -0.6938  0.5145
 8215SOL    HW135574   2.911   8.828   4.628 -0.6033  0.4332 -0.2989
 8215SOL    HW235575   2.910   8.967   4.714  0.6125 -0.2918  0.8989
 8216SOL     OW35576   3.534   7.900   0.904 -0.3589 -0.2044  0.1908
 8216SOL    HW135577   3.581   7.859   0.983 -0.8704 -2.8097 -0.8225
 8216SOL    HW235578   3.435   7.890   0.915 -0.5122  1.1297  0.1056
 8217SOL     OW35579   3.985   9.833   5.069 -0.3055  0.2487  0.6632
 8217SOL    HW135580   4.064   9.774   5.083  0.7963  1.7706  1.0544
 8217SOL    HW235581   4.002   9.894   4.991 -1.0733  0.6100  0.7713
 8218SOL     OW35582   0.060   3.967   4.578 -0.5815 -0.2191  0.9016
 8218SOL    HW135583   0.122   3.894   4.606 -1.2459 -1.2399 -0.2809
 8218SOL    HW235584   0.111   4.053   4.572  0.4502 -0.7994  1.1666
 8219SOL     OW35585   0.965   9.994   2.124 -0.0932  0.4071 -0.1218
 8219SOL    HW135586   0.908   9.918   2.154 -0.7286  0.4490 -1.1874
 8219SOL    HW235587   1.058   9.960   2.105 -0.1320  0.0766  0.2704
 8220SOL     OW35588   8.086   5.291   2.022  0.1309 -0.2458 -0.3461
 8220SOL    HW135589   8.038   5.326   2.101 -0.1503 -0.4778 -0.4138
 8220SOL    HW235590   8.182   5.318   2.026 -0.2552  1.2483 -0.8241
 8221SOL     OW35591   3.218   3.366   2.177 -0.4983 -0.2602  0.0784
 8221SOL    HW135592   3.306   3.376   2.223 -1.3596  1.4490  1.4229
 8221SOL    HW235593   3.233   3.343   2.081  1.5210  2.6370 -0.3825
 8222SOL     OW35594   7.589   2.201   1.036  0.2498 -0.4703 -0.2859
 8222SOL    HW135595   7.569   2.286   1.085 -0.6657 -0.1283 -1.2274
 8222SOL    HW235596   7.579   2.217   0.937 -1.5771 -2.0859 -0.3780
 8223SOL     OW35597   6.743   0.187   2.042 -0.0965  0.3286  0.1204
 8223SOL    HW135598   6.682   0.133   2.101 -0.3997  0.6450  0.0996
 8223SOL    HW235599   6.835   0.147   2.044 -0.6400 -1.0192 -0.9934
 8224SOL     OW35600   2.036   7.379   3.996 -0.3455  0.2843 -0.5849
 8224SOL    HW135601   2.129   7.345   3.984 -1.2725 -1.9344 -1.5732
 8224SOL    HW235602   2.040   7.477   4.020  2.1391  0.8987 -3.1850
 8225SOL     OW35603   7.588   3.446   0.769 -0.4817 -0.0692 -0.1966
 8225SOL    HW135604   7.631   3.430   0.858  0.2805 -1.2099 -0.7593
 8225SOL    HW235605   7.499   3.402   0.766 -1.3751  1.6170  0.6829
 8226SOL     OW35606   8.703   9.387   5.444  0.1755  0.0716  0.2720
 8226SOL    HW135607   8.674   9.312   5.503  0.6520  0.5238  1.0899
 8226SOL    HW235608   8.745   9.459   5.500 -1.4181  1.5131 -0.3338
 8227SOL     OW35609   5.113   0.424   4.834 -0.2152 -0.0228  0.3388
 8227SOL    HW135610   5.033   0.443   4.777  0.3097  0.3010 -0.2903
 8227SOL    HW235611   5.089   0.355   4.903 -1.3166  0.8052  0.7969
 8228SOL     OW35612   0.911   9.802   1.599  0.2733 -0.1891 -0.5295
 8228SOL    HW135613   1.002   9.783   1.636  0.1943  2.9042  1.4840
 8228SOL    HW235614   0.919   9.860   1.518  0.0854  2.2381  1.1236
 8229SOL     OW35615   5.148   0.301   4.491 -0.0699 -0.2555  0.1416
 8229SOL    HW135616   5.140   0.400   4.484 -0.2484 -0.2708  0.1263
 8229SOL    HW235617   5.057   0.259   4.481  0.3146 -0.5671 -2.3433
 8230SOL     OW35618   5.352   1.160   1.870 -0.0414 -0.9584 -0.2581
 8230SOL    HW135619   5.256   1.170   1.842 -0.1177 -1.6707 -0.2675
 8230SOL    HW235620   5.385   1.070   1.842 -0.0973 -1.6707  1.8749
 8231SOL     OW35621   4.537   4.442   0.734  0.8315  0.0817 -0.4201
 8231SOL    HW135622   4.627   4.433   0.692  0.5177  0.2502 -1.1448
 8231SOL    HW235623   4.512   4.539   0.739  0.9221  0.0713  0.2819
 8232SOL     OW35624   4.041   3.708   4.164 -0.2488  0.1845  0.0918
 8232SOL    HW135625   3.986   3.742   4.240 -2.9678 -1.6946 -0.9422
 8232SOL    HW235626   4.100   3.634   4.197  0.0939  0.7595  0.7853
 8233SOL     OW35627   0.376   4.353   2.826  0.1898  0.0213  0.5425
 8233SOL    HW135628   0.424   4.363   2.738 -0.9012 -0.0627 -0.0763
 8233SOL    HW235629   0.419   4.280   2.879 -0.0825 -0.9665 -0.5791
 8234SOL     OW35630   0.817   9.199   5.478 -0.3421 -0.2386  0.1995
 8234SOL    HW135631   0.730   9.234   5.443 -0.5815 -1.1009 -0.0761
 8234SOL    HW235632   0.891   9.261   5.451 -1.1061  1.5470  2.0941
 8235SOL     OW35633   6.757   0.565   1.998  0.4874 -0.2231 -0.3028
 8235SOL    HW135634   6.815   0.516   2.062  0.2523 -0.6656 -0.4211
 8235SOL    HW235635   6.662   0.533   2.008  0.6454 -1.1679 -1.6904
 8236SOL     OW35636   9.055   4.437   0.687  0.2378  0.2472 -0.0815
 8236SOL    HW135637   8.958   4.447   0.707  0.6967  2.4265  1.2834
 8236SOL    HW235638   9.106   4.434   0.773  1.5041  0.6178 -0.8040
 8237SOL     OW35639   8.797   3.766   2.481  0.3543 -0.2245  0.1189
 8237SOL    HW135640   8.822   3.685   2.535 -1.6145 -0.2642  1.0065
 8237SOL    HW235641   8.752   3.833   2.541 -0.1849  0.5040 -1.0962
 8238SOL     OW35642   2.506   6.381   4.924 -0.1200 -0.1001 -0.1112
 8238SOL    HW135643   2.420   6.357   4.878 -0.5177  2.5850 -0.8711
 8238SOL    HW235644   2.489   6.450   4.994  1.6292  1.9350 -1.5964
 8239SOL     OW35645   2.801   0.694   0.688 -0.3310 -0.1331  0.6294
 8239SOL    HW135646   2.746   0.696   0.772 -2.9900  0.3447 -1.0642
 8239SOL    HW235647   2.812   0.787   0.653 -0.3266 -0.4483 -0.2213
 8240SOL     OW35648   2.008   7.760   2.002  0.3376 -0.5996  0.0097
 8240SOL    HW135649   2.052   7.808   1.926 -0.4093 -1.2291 -0.8163
 8240SOL    HW235650   1.925   7.809   2.028  0.4500 -0.5356  0.2521
 8241SOL     OW35651   2.261   2.421   3.004  0.4043  0.1667  0.2513
 8241SOL    HW135652   2.339   2.358   3.012 -0.2811 -0.8585 -0.9526
 8241SOL    HW235653   2.213   2.425   3.092  0.4983 -0.9422  0.3641
 8242SOL     OW35654   7.795   3.977   4.000 -0.4941 -0.2553 -0.0576
 8242SOL    HW135655   7.755   4.002   4.089  0.9976  0.7896  0.3317
 8242SOL    HW235656   7.722   3.976   3.931 -2.0263 -2.9769  1.5060
 8243SOL     OW35657   9.953   1.304   1.008  0.1133  0.5714 -0.1972
 8243SOL    HW135658  10.041   1.328   0.965 -0.4136  1.0604 -1.0120
 8243SOL    HW235659   9.950   1.206   1.023  0.5564  0.4707 -0.7272
 8244SOL     OW35660   1.600   1.096   5.158  0.1560  0.2689  0.7265
 8244SOL    HW135661   1.612   1.054   5.068  0.5557 -0.6123  1.1837
 8244SOL    HW235662   1.617   1.028   5.229 -0.6783  0.8177  1.4710
 8245SOL     OW35663   0.982   2.940   4.786  0.0688 -0.1608  0.5444
 8245SOL    HW135664   0.921   2.896   4.720  0.0030  0.5023  0.1573
 8245SOL    HW235665   0.992   2.881   4.866 -0.1984 -0.7762  0.1336
 8246SOL     OW35666   1.110   8.421   3.393 -0.3397  0.2854  0.3222
 8246SOL    HW135667   1.176   8.346   3.389 -0.8258 -0.0757 -1.2735
 8246SOL    HW235668   1.018   8.386   3.380 -0.3344  1.4268 -3.5094
 8247SOL     OW35669   4.574   3.461   1.042  0.7595 -0.3178  0.2640
 8247SOL    HW135670   4.640   3.468   1.117  2.8995 -0.3667 -1.5800
 8247SOL    HW235671   4.623   3.455   0.955 -1.6938 -0.2458 -1.1504
 8248SOL     OW35672   3.480   6.212   2.900 -0.0315  0.2570 -0.5123
 8248SOL    HW135673   3.380   6.209   2.906 -0.1287  2.1627 -0.8862
 8248SOL    HW235674   3.507   6.196   2.805  0.1677 -2.6474 -0.0184
 8249SOL     OW35675   8.452   5.289   2.404 -0.2551 -0.0949 -0.2717
 8249SOL    HW135676   8.432   5.240   2.489  2.0640  1.5147  1.2827
 8249SOL    HW235677   8.545   5.267   2.375 -0.6256  0.2942 -1.7716
 8250SOL     OW35678   2.197   5.236   3.130  0.7737  0.6865  0.0428
 8250SOL    HW135679   2.106   5.268   3.158  0.3296 -2.2251  2.1141
 8250SOL    HW235680   2.267   5.290   3.176  0.0717  1.1241  0.6161
 8251SOL     OW35681   5.890   9.992   0.959  0.5192 -0.0248  0.0456
 8251SOL    HW135682   5.832  10.065   0.923  0.2602 -0.2606 -0.0204
 8251SOL    HW235683   5.856   9.964   1.049  1.0290  0.4101  0.3797
 8252SOL     OW35684   8.385   5.303   2.126 -0.2007 -0.6972 -0.8061
 8252SOL    HW135685   8.459   5.368   2.110 -0.6831  0.0836  0.1618
 8252SOL    HW235686   8.372   5.290   2.224 -1.0512 -1.1809 -0.9783
 8253SOL     OW35687   2.151   0.479   1.918  0.1722 -0.1052 -0.3258
 8253SOL    HW135688   2.146   0.469   1.819 -2.6123 -0.7070 -0.1660
 8253SOL    HW235689   2.079   0.425   1.961  1.5042 -0.0711  2.0646
 8254SOL     OW35690   8.417   7.543   3.957  0.6546 -0.1828 -0.0242
 8254SOL    HW135691   8.498   7.506   3.913 -0.7331 -1.4275 -1.5733
 8254SOL    HW235692   8.336   7.526   3.900 -0.6108  1.6236  1.1601
 8255SOL     OW35693   3.771   0.502   0.223 -0.4757  0.2514 -0.8120
 8255SOL    HW135694   3.686   0.452   0.209 -0.5180  0.0819  0.0355
 8255SOL    HW235695   3.756   0.575   0.290  0.9179 -2.0658  2.0936
 8256SOL     OW35696   3.305   4.487   1.867 -0.2500  0.3571  0.1378
 8256SOL    HW135697   3.328   4.561   1.930  2.5747 -0.7443  0.4901
 8256SOL    HW235698   3.245   4.522   1.795  1.1250  3.0398  0.2253
 8257SOL     OW35699   0.152   8.337   3.167  0.0004  0.4866  0.3670
 8257SOL    HW135700   0.079   8.392   3.127 -0.4669  0.7035  1.5105
 8257SOL    HW235701   0.141   8.333   3.266  1.2673  0.1331  0.5102
 8258SOL     OW35702   4.081   8.333   5.160 -0.0010 -0.7787  0.1736
 8258SOL    HW135703   4.172   8.355   5.125 -0.4845 -1.0072 -1.2462
 8258SOL    HW235704   4.084   8.247   5.212  0.5992 -0.7502  0.1817
 8259SOL     OW35705   7.974   1.246   3.973 -0.2047  0.1836 -0.5219
 8259SOL    HW135706   8.047   1.290   4.026 -0.5237 -0.3371  0.3651
 8259SOL    HW235707   7.995   1.251   3.876  1.0922 -0.1063 -0.2602
 8260SOL     OW35708   0.707   0.961   2.463 -0.4452 -0.0751 -0.3630
 8260SOL    HW135709   0.684   1.053   2.432 -1.9551 -0.8956 -1.7658
 8260SOL    HW235710   0.759   0.967   2.548  0.4058  2.0990 -0.9970
 8261SOL     OW35711   1.362   3.443   3.164 -0.1941 -0.2633 -0.1247
 8261SOL    HW135712   1.456   3.472   3.184  0.3828 -2.2105  0.0791
 8261SOL    HW235713   1.333   3.483   3.077  0.8309  0.3752 -0.1850
 8262SOL     OW35714   3.614   5.431   2.697 -0.8120 -0.1442  0.0172
 8262SOL    HW135715   3.591   5.470   2.786 -0.1775 -1.0837  0.6086
 8262SOL    HW235716   3.562   5.347   2.682 -1.2308  0.2312 -0.6915
 8263SOL     OW35717   1.851   1.671   4.785 -0.2987  0.1223 -0.3715
 8263SOL    HW135718   1.846   1.690   4.687  0.2205 -0.8431 -0.5975
 8263SOL    HW235719   1.942   1.635   4.807  0.9531  4.0135  1.1367
 8264SOL     OW35720   2.949   6.158   5.080  0.1429  0.1571  0.3458
 8264SOL    HW135721   2.974   6.063   5.067  1.0071  0.4492 -0.1192
 8264SOL    HW235722   2.860   6.163   5.128 -0.5790 -0.8673 -0.8715
 8265SOL     OW35723   9.731   9.786   1.120 -0.0543 -0.3243 -0.9429
 8265SOL    HW135724   9.719   9.884   1.108  3.3331  0.1926 -0.7591
 8265SOL    HW235725   9.795   9.751   1.052  0.2154 -2.0328  0.1404
 8266SOL     OW35726   5.734   8.491   3.137 -0.1689 -0.7076 -0.4220
 8266SOL    HW135727   5.792   8.496   3.055 -1.0447 -1.1191 -1.0711
 8266SOL    HW235728   5.792   8.476   3.217  0.9372  2.1877 -0.6091
 8267SOL     OW35729   7.757   4.831   5.439  0.3865 -0.5862 -0.3550
 8267SOL    HW135730   7.819   4.908   5.428  1.0889 -1.2510 -1.1482
 8267SOL    HW235731   7.797   4.749   5.398 -0.1599 -1.4853  0.8647
 8268SOL     OW35732   0.741   8.724   5.026 -0.2101  0.4175  0.5689
 8268SOL    HW135733   0.655   8.696   4.984 -0.3642  2.5632 -0.6366
 8268SOL    HW235734   0.817   8.691   4.970 -0.3259  0.6806  0.2565
 8269SOL     OW35735   9.266   5.896   5.053  0.2840 -0.5611  0.5511
 8269SOL    HW135736   9.362   5.885   5.027  0.1714 -2.7362  0.9385
 8269SOL    HW235737   9.207   5.847   4.989 -0.6684  1.4303 -0.1621
 8270SOL     OW35738   4.115   3.450   0.752 -0.0267 -0.2725  0.3378
 8270SOL    HW135739   4.085   3.458   0.657  0.1435 -0.0349  0.3049
 8270SOL    HW235740   4.116   3.353   0.778  1.8766 -0.5113 -0.5417
 8271SOL     OW35741   0.762   8.966   5.148 -0.0119  0.3072 -0.1248
 8271SOL    HW135742   0.729   8.883   5.104  0.8471  0.3758 -0.9097
 8271SOL    HW235743   0.760   8.953   5.248  1.2548 -1.1181 -0.2639
 8272SOL     OW35744   2.010   2.456   5.475 -0.0110  0.1705  0.3417
 8272SOL    HW135745   2.015   2.387   5.548 -0.3230  0.7643  0.9222
 8272SOL    HW235746   1.991   2.545   5.514 -1.5920  0.2661 -0.5954
 8273SOL     OW35747   0.538   8.001   0.356 -0.0802 -0.3739  0.0196
 8273SOL    HW135748   0.466   8.060   0.391  0.1572  0.3284 -0.6532
 8273SOL    HW235749   0.537   8.003   0.256  1.2637  0.1195  0.0065
 8274SOL     OW35750   0.140   3.958   2.456 -0.4917 -0.2706 -0.5173
 8274SOL    HW135751   0.109   3.946   2.362 -2.2457  1.3921 -0.1943
 8274SOL    HW235752   0.233   3.924   2.466  0.1066  0.5436 -3.1248
 8275SOL     OW35753   9.154   1.480   3.380  0.2639 -0.5131  0.6207
 8275SOL    HW135754   9.193   1.455   3.291  0.2872 -0.9301  0.7489
 8275SOL    HW235755   9.084   1.414   3.405 -0.8793  0.5128  0.1582
 8276SOL     OW35756   4.523   2.398   0.223 -0.3416 -0.3592  0.2502
 8276SOL    HW135757   4.612   2.383   0.267  0.1073 -0.7627 -0.7727
 8276SOL    HW235758   4.485   2.485   0.254 -0.0627 -0.6594  1.4721
 8277SOL     OW35759   0.657   8.504   3.145  0.0908 -0.1508 -0.3454
 8277SOL    HW135760   0.609   8.552   3.218  0.5503 -0.4437  0.1523
 8277SOL    HW235761   0.633   8.407   3.147  1.6974 -0.5548  0.7515
 8278SOL     OW35762   2.759   8.988   3.174 -0.2146 -0.2543  0.0253
 8278SOL    HW135763   2.806   9.019   3.092 -3.9424  1.7383 -1.4798
 8278SOL    HW235764   2.764   9.059   3.245 -1.5352  0.3326 -0.4365
 8279SOL     OW35765   8.679   4.239   2.963 -0.5552  0.1590  0.6790
 8279SOL    HW135766   8.616   4.284   2.900 -0.0594 -1.1955 -0.7988
 8279SOL    HW235767   8.694   4.298   3.043 -0.5202  2.2712 -0.8546
 8280SOL     OW35768   9.109   5.137   3.225  0.3685 -0.1275  0.2170
 8280SOL    HW135769   9.203   5.124   3.193  0.4052 -0.8449  0.5881
 8280SOL    HW235770   9.089   5.235   3.233  0.9592  0.0309 -0.2255
 8281SOL     OW35771   9.799   3.906   5.080 -0.1703 -0.1705  0.1196
 8281SOL    HW135772   9.827   3.901   4.984  0.6489 -0.1398  0.3503
 8281SOL    HW235773   9.878   3.932   5.136 -0.8844  0.8549  0.6758
 8282SOL     OW35774   3.387   9.736   2.932  0.6738 -0.3721  0.2646
 8282SOL    HW135775   3.403   9.638   2.938  0.0146 -0.4905  0.0625
 8282SOL    HW235776   3.458   9.778   2.876  0.3168 -0.8848 -0.5715
 8283SOL     OW35777   9.728   3.875   1.878 -0.1621  0.3664  0.0970
 8283SOL    HW135778   9.825   3.884   1.854 -0.5830  1.6860 -1.1884
 8283SOL    HW235779   9.683   3.814   1.811 -0.0749 -0.8716  1.1413
 8284SOL     OW35780   3.287   7.072   0.050 -0.1749 -0.4053  0.2337
 8284SOL    HW135781   3.206   7.130   0.057 -0.2056 -0.6049  1.8660
 8284SOL    HW235782   3.368   7.129   0.038 -0.5930 -0.2310 -1.9143
 8285SOL     OW35783   8.393   8.828   3.898 -0.3364 -0.0909  0.0017
 8285SOL    HW135784   8.405   8.731   3.878  0.6636  0.4303 -2.1062
 8285SOL    HW235785   8.450   8.854   3.976 -0.6413 -1.1871  0.5979
 8286SOL     OW35786   6.883   0.581   2.521  0.0234 -0.3510 -0.2956
 8286SOL    HW135787   6.843   0.541   2.439 -2.0053 -2.4187  1.6090
 8286SOL    HW235788   6.812   0.632   2.571  1.2197  0.8958  0.1412
 8287SOL     OW35789   8.101   0.653   0.846 -0.0453  0.5230  0.1105
 8287SOL    HW135790   8.068   0.677   0.755  1.4717  0.7606 -0.3748
 8287SOL    HW235791   8.182   0.706   0.868  1.1503 -1.4281  0.5221
 8288SOL     OW35792   7.674   8.243   3.715  0.3909 -0.1075  0.0305
 8288SOL    HW135793   7.668   8.160   3.660  0.7850 -0.1002 -0.0254
 8288SOL    HW235794   7.584   8.264   3.754  0.5871 -1.3481  1.1880
 8289SOL     OW35795   2.269   5.656   2.443 -0.4342  0.2435 -0.1054
 8289SOL    HW135796   2.292   5.563   2.470  0.2316  0.6788  0.8196
 8289SOL    HW235797   2.192   5.654   2.378  0.3981 -1.0202 -1.0663
 8290SOL     OW35798   2.373   6.199   4.595  0.1117 -0.3665 -0.0999
 8290SOL    HW135799   2.324   6.113   4.595  1.4901 -1.1652  0.2774
 8290SOL    HW235800   2.469   6.183   4.619  0.2440  1.3439  0.6001
 8291SOL     OW35801   2.083   8.938   4.445 -0.3288  0.1465 -0.1208
 8291SOL    HW135802   2.116   8.867   4.508  1.2754  0.6879 -0.3237
 8291SOL    HW235803   2.033   8.895   4.370  2.3364 -0.9799 -1.3108
 8292SOL     OW35804   4.946   4.675   0.923  0.1589 -0.6244  0.4978
 8292SOL    HW135805   4.984   4.640   0.838 -0.1815  0.1078  0.0406
 8292SOL    HW235806   4.987   4.764   0.945 -0.7864 -0.1398  0.3456
 8293SOL     OW35807   9.082   6.167   2.717 -0.1055 -0.4366  0.3114
 8293SOL    HW135808   9.048   6.170   2.811 -2.6610  1.1870 -0.6184
 8293SOL    HW235809   9.026   6.106   2.662 -1.1845  1.7175 -1.0762
 8294SOL     OW35810   9.621   3.782   0.276 -0.3977 -0.2371 -0.4709
 8294SOL    HW135811   9.628   3.818   0.369 -1.6105 -0.2894 -0.3494
 8294SOL    HW235812   9.540   3.820   0.232  0.9314  0.9006 -2.0096
 8295SOL     OW35813   2.428   8.747   2.107  1.1644  0.1578  0.2378
 8295SOL    HW135814   2.515   8.796   2.114  0.1048  1.7546  3.1470
 8295SOL    HW235815   2.425   8.675   2.176  0.6479 -0.6673 -0.6435
 8296SOL     OW35816   0.708   4.889   4.515  0.6146 -0.1804  0.0833
 8296SOL    HW135817   0.725   4.805   4.463  1.8359  0.2201 -0.1929
 8296SOL    HW235818   0.678   4.961   4.453 -2.0184 -0.8310  0.5455
 8297SOL     OW35819   3.906   9.250   0.390  0.0441  0.4656  0.0278
 8297SOL    HW135820   4.001   9.279   0.379  0.0073  0.8105  0.5858
 8297SOL    HW235821   3.855   9.269   0.306 -0.5554  4.2349  1.1673
 8298SOL     OW35822   7.354   2.191   3.195 -0.1511 -0.0722 -0.1726
 8298SOL    HW135823   7.269   2.231   3.161 -0.2263 -0.9553 -1.0531
 8298SOL    HW235824   7.333   2.119   3.260 -0.0718 -0.1357 -0.2173
 8299SOL     OW35825   0.007   6.536   4.654  0.4130  0.5800  0.0067
 8299SOL    HW135826   0.052   6.487   4.729  0.1248  0.4124  0.0727
 8299SOL    HW235827  -0.034   6.469   4.591 -0.7587  0.7356  0.5738
 8300SOL     OW35828   5.803   0.719   4.023 -0.4518  0.7577 -0.1224
 8300SOL    HW135829   5.808   0.741   4.121  0.8160 -1.4538  0.3636
 8300SOL    HW235830   5.866   0.778   3.972  0.0317  0.8972  0.6230
 8301SOL     OW35831   1.595   6.776   1.414  0.4693  0.2975 -0.1992
 8301SOL    HW135832   1.535   6.845   1.452 -0.0758 -0.1053 -0.3201
 8301SOL    HW235833   1.592   6.780   1.314 -0.5471 -0.7234 -0.2278
 8302SOL     OW35834   1.600   3.005   4.562  0.0382 -0.1973  0.0500
 8302SOL    HW135835   1.605   2.954   4.477  1.5160  0.6940 -0.4004
 8302SOL    HW235836   1.506   3.037   4.576 -0.4091 -1.1383 -0.7605
 8303SOL     OW35837   2.609   4.763   4.792  0.4121  0.2123  0.3165
 8303SOL    HW135838   2.659   4.677   4.777 -0.7731 -0.7665  1.8863
 8303SOL    HW235839   2.535   4.748   4.857  0.1677  2.4370  0.5929
 8304SOL     OW35840   4.478   8.689   5.072  0.0498  0.3203 -0.2059
 8304SOL    HW135841   4.418   8.622   5.115  0.8096  1.2423  2.3976
 8304SOL    HW235842   4.548   8.643   5.019 -0.7805 -0.8674 -0.2794
 8305SOL     OW35843   3.175   3.972   4.989  0.2225  0.0670  0.0690
 8305SOL    HW135844   3.242   4.045   4.985 -0.9602  1.1112 -0.9981
 8305SOL    HW235845   3.210   3.891   4.941  0.8592  0.4726 -0.1459
 8306SOL     OW35846   0.337   1.695   2.444  0.1371 -0.2662  0.0264
 8306SOL    HW135847   0.292   1.726   2.528 -1.6111 -1.0924 -0.5857
 8306SOL    HW235848   0.297   1.742   2.365  1.0614 -0.2575 -0.4480
 8307SOL     OW35849   4.770   8.656   2.956 -0.0679  0.2347 -0.2017
 8307SOL    HW135850   4.763   8.715   2.876 -1.6839  2.9007  1.8087
 8307SOL    HW235851   4.813   8.707   3.031  1.4377 -2.2050  0.6488
 8308SOL     OW35852   4.945   7.561   1.971  0.4328 -0.5946  0.0835
 8308SOL    HW135853   4.928   7.599   1.880  2.5008 -0.5145 -0.2911
 8308SOL    HW235854   4.906   7.469   1.977  0.7912 -0.8272 -1.0771
 8309SOL     OW35855   8.720   3.051   3.650 -0.1128  0.3287 -0.1589
 8309SOL    HW135856   8.630   3.029   3.612 -0.9091  0.8706  1.3809
 8309SOL    HW235857   8.762   2.967   3.685 -1.0606  0.4334  1.2860
 8310SOL     OW35858   4.508   5.203   1.810  0.1422  0.4776  0.4398
 8310SOL    HW135859   4.471   5.276   1.867  1.5490  1.3177  0.2919
 8310SOL    HW235860   4.604   5.188   1.832  0.3888  0.0131 -0.8900
 8311SOL     OW35861   7.724   9.533   5.328  0.1045 -0.6239 -1.1201
 8311SOL    HW135862   7.717   9.455   5.265  0.9932 -0.9520 -0.8145
 8311SOL    HW235863   7.677   9.612   5.288 -0.4985 -1.2141 -1.5881
 8312SOL     OW35864   0.217   4.576   4.987 -0.2349 -0.3935  0.5081
 8312SOL    HW135865   0.127   4.596   4.948 -0.2973 -0.0588  0.8243
 8312SOL    HW235866   0.260   4.501   4.936 -0.4515 -0.1684 -0.0045
 8313SOL     OW35867   7.572   7.294   2.085 -0.1570  0.5574  0.3401
 8313SOL    HW135868   7.498   7.302   2.018 -0.3815 -0.7005  0.4163
 8313SOL    HW235869   7.567   7.370   2.150 -2.1238 -0.1441  1.0484
 8314SOL     OW35870   1.136   2.611   2.984 -0.1673  0.4350 -0.3273
 8314SOL    HW135871   1.093   2.582   3.069  0.7036  1.3027  0.4218
 8314SOL    HW235872   1.139   2.711   2.980  2.3397  0.4196 -0.0406
 8315SOL     OW35873   1.855   8.982   0.592  0.2856  0.4549 -0.5408
 8315SOL    HW135874   1.935   9.041   0.604  1.1803 -0.6228 -1.1230
 8315SOL    HW235875   1.884   8.895   0.552 -1.0403 -0.3302  0.1847
 8316SOL     OW35876   7.175   9.037   3.986  0.2919  0.3921 -0.3281
 8316SOL    HW135877   7.212   9.059   4.077 -0.1373 -0.1026 -0.0283
 8316SOL    HW235878   7.115   8.957   3.993  2.1718 -1.1642 -1.4652
 8317SOL     OW35879   2.908   1.517   4.778  0.0171  0.1730 -0.4234
 8317SOL    HW135880   2.839   1.575   4.732 -0.3003  1.3720  1.5119
 8317SOL    HW235881   2.970   1.575   4.830  1.1812 -1.0812 -0.4066
 8318SOL     OW35882   8.140   4.984   1.976 -0.2285  0.2615 -0.5583
 8318SOL    HW135883   8.093   4.951   1.894 -0.9274  0.3155 -0.1862
 8318SOL    HW235884   8.105   5.074   2.001 -0.5871 -0.0934  0.2460
 8319SOL     OW35885   8.875   4.318   0.357 -0.2124  0.0201 -0.3923
 8319SOL    HW135886   8.927   4.247   0.406  0.9262  0.5166 -0.8688
 8319SOL    HW235887   8.809   4.360   0.420  0.1467 -0.4273  0.2917
 8320SOL     OW35888   8.208   6.848   2.928 -0.0626 -0.1347  0.0325
 8320SOL    HW135889   8.195   6.763   2.979  0.5810  0.0565  0.5153
 8320SOL    HW235890   8.293   6.844   2.876 -0.0066  0.2361  0.0920
 8321SOL     OW35891   7.928   0.727   0.283 -0.0975 -0.0578  0.2985
 8321SOL    HW135892   7.926   0.646   0.226 -0.1166  0.8698 -1.0321
 8321SOL    HW235893   7.836   0.764   0.292  0.1996  0.9849 -0.8061
 8322SOL     OW35894   6.170   9.655   3.912 -0.0913  0.0926  0.3509
 8322SOL    HW135895   6.125   9.684   3.827  0.6559 -0.6496 -0.3084
 8322SOL    HW235896   6.144   9.560   3.933  1.0044 -0.2783  0.0659
 8323SOL     OW35897   2.249   0.270   2.091  0.0310 -0.1138 -0.2301
 8323SOL    HW135898   2.313   0.337   2.054 -0.7136 -0.1340 -1.5798
 8323SOL    HW235899   2.156   0.308   2.092 -0.0063 -0.2059  1.3918
 8324SOL     OW35900   4.761   4.478   0.581 -0.1091 -0.9080  0.0089
 8324SOL    HW135901   4.802   4.550   0.525  1.0451 -2.2031 -0.8473
 8324SOL    HW235902   4.824   4.455   0.656 -0.4164 -1.1117  0.2050
 8325SOL     OW35903   7.043   9.329   4.557 -0.3670 -0.4303 -0.4786
 8325SOL    HW135904   6.945   9.348   4.555 -0.8048 -2.5450 -1.2318
 8325SOL    HW235905   7.078   9.342   4.649 -1.0831  1.5877 -0.4792
 8326SOL     OW35906   4.632   9.552   0.090 -0.7047 -0.5159 -0.5289
 8326SOL    HW135907   4.613   9.457   0.114  3.0716 -1.5013 -1.0997
 8326SOL    HW235908   4.681   9.597   0.165 -0.6059  0.3390 -1.0972
 8327SOL     OW35909   2.742   2.857   2.043  0.4647  0.9490  0.3189
 8327SOL    HW135910   2.707   2.767   2.069  0.6043  0.5855 -0.7242
 8327SOL    HW235911   2.694   2.889   1.961  1.4286  1.1754 -0.1626
 8328SOL     OW35912   7.101   1.232   2.755  0.1276  0.5801 -0.2220
 8328SOL    HW135913   7.158   1.201   2.679  0.2086  1.5658 -0.5724
 8328SOL    HW235914   7.016   1.272   2.719 -0.1502  0.4050  0.2359
 8329SOL     OW35915   1.865   6.708   1.022  0.3773 -0.4933  0.2707
 8329SOL    HW135916   1.846   6.733   0.926  0.5464  0.6086  0.5171
 8329SOL    HW235917   1.960   6.678   1.030  0.7783  0.7292  0.3284
 8330SOL     OW35918   9.951   8.648   2.592  0.1002 -0.0946 -0.2960
 8330SOL    HW135919  10.050   8.647   2.574 -0.0883 -0.0676 -1.3386
 8330SOL    HW235920   9.902   8.674   2.509 -0.6964  1.6174  0.6782
 8331SOL     OW35921   9.233   7.077   5.552 -0.4647 -0.2333  0.4530
 8331SOL    HW135922   9.332   7.073   5.562 -0.5253 -0.2993  1.0474
 8331SOL    HW235923   9.202   6.998   5.499 -0.0845  0.3957 -0.7267
 8332SOL     OW35924   9.267   7.349   3.495  0.3681  0.1445 -0.4216
 8332SOL    HW135925   9.297   7.377   3.587 -0.3819 -0.3249 -0.0306
 8332SOL    HW235926   9.327   7.392   3.427  0.3738  1.2388  0.2448
 8333SOL     OW35927   9.539   5.504   3.640  0.3518 -0.0697 -0.1071
 8333SOL    HW135928   9.469   5.575   3.637  1.1178  0.7347  0.7925
 8333SOL    HW235929   9.629   5.546   3.657  0.6679 -1.3334  1.4992
 8334SOL     OW35930   2.787   4.025   3.563 -0.2244 -0.2655  0.2104
 8334SOL    HW135931   2.781   3.938   3.613  2.9625  0.1115  1.3314
 8334SOL    HW235932   2.708   4.033   3.502 -0.1541 -4.3375 -0.5779
 8335SOL     OW35933   2.920   4.959   4.560 -0.4013 -0.0350  0.6705
 8335SOL    HW135934   2.925   4.862   4.585 -0.4544 -0.2120  0.0063
 8335SOL    HW235935   2.941   4.969   4.463  0.7704  0.7460  0.9897
 8336SOL     OW35936   3.572   9.886   1.178 -0.4842  0.1820  0.3802
 8336SOL    HW135937   3.652   9.925   1.133 -1.9964  2.3205 -0.5694
 8336SOL    HW235938   3.528   9.820   1.117 -0.3841  0.2712  0.2100
 8337SOL     OW35939   2.410   0.959   5.431  1.1154 -0.1536  0.1608
 8337SOL    HW135940   2.432   0.889   5.498  2.1118 -0.8439 -0.8803
 8337SOL    HW235941   2.473   1.036   5.441  1.8178 -0.6269 -0.5267
 8338SOL     OW35942   6.608   9.329   2.963 -0.1367  0.5773  0.2009
 8338SOL    HW135943   6.662   9.410   2.986 -0.8298  0.6681  1.6143
 8338SOL    HW235944   6.620   9.307   2.867  1.5266  1.2544  0.2285
 8339SOL     OW35945   9.559   7.718   3.893 -0.5238 -0.0457  0.1271
 8339SOL    HW135946   9.555   7.698   3.795 -2.0919  0.5686  0.0500
 8339SOL    HW235947   9.597   7.809   3.908  1.6462 -0.9382  0.2103
 8340SOL     OW35948   9.176   5.979   2.942  0.2166  0.2106 -0.5931
 8340SOL    HW135949   9.128   5.903   2.898 -0.4018  0.2685 -0.0281
 8340SOL    HW235950   9.192   6.052   2.876 -0.0967  0.0098 -0.8887
 8341SOL     OW35951   2.425   1.408   1.396 -0.2122  0.2546 -0.1944
 8341SOL    HW135952   2.334   1.367   1.393 -0.2271  0.3303 -0.8197
 8341SOL    HW235953   2.434   1.462   1.479 -1.1234  1.1274 -0.6505
 8342SOL     OW35954   1.427   2.010   1.833 -0.0219  0.6419  0.2851
 8342SOL    HW135955   1.396   1.937   1.893 -1.1401 -0.6555 -1.8121
 8342SOL    HW235956   1.527   2.005   1.823 -0.0414 -0.2960  0.5179
 8343SOL     OW35957   1.645   6.500   1.349  0.2103  0.2990 -0.5368
 8343SOL    HW135958   1.605   6.434   1.413  2.7974 -0.2746  0.5381
 8343SOL    HW235959   1.632   6.593   1.384 -2.0950  0.3114 -1.3062
 8344SOL     OW35960   7.662   4.005   0.966  0.4648 -0.3012 -0.1923
 8344SOL    HW135961   7.742   4.059   0.940  0.4032 -0.3058 -0.3903
 8344SOL    HW235962   7.692   3.921   1.011  0.5298  0.5482  1.3807
 8345SOL     OW35963   0.404   1.220   3.451 -0.1440  0.1689  0.2033
 8345SOL    HW135964   0.466   1.158   3.402 -2.1500 -0.8409 -1.1361
 8345SOL    HW235965   0.420   1.314   3.421 -0.9478 -0.3731 -1.9976
 8346SOL     OW35966   2.275   3.698   2.581  0.0376 -0.0421  0.0842
 8346SOL    HW135967   2.237   3.750   2.658 -1.0546 -1.5887  0.6262
 8346SOL    HW235968   2.339   3.629   2.616  0.2526 -0.1268 -0.4761
 8347SOL     OW35969   1.316   4.575   2.132 -0.1027  0.0227 -0.1992
 8347SOL    HW135970   1.278   4.614   2.048 -0.9349  1.1967  0.7054
 8347SOL    HW235971   1.261   4.605   2.210  1.2946 -0.1889  0.8798
 8348SOL     OW35972   9.014   0.692   1.350 -0.0237 -0.0030 -0.6003
 8348SOL    HW135973   9.040   0.787   1.365  1.9187  0.3122 -4.9723
 8348SOL    HW235974   8.918   0.679   1.374  0.3784  2.3843  2.5236
 8349SOL     OW35975   1.603   3.557   3.812  0.3282 -0.4233 -0.4336
 8349SOL    HW135976   1.557   3.534   3.898  0.2378 -0.4394 -0.4862
 8349SOL    HW235977   1.546   3.527   3.735  0.1502  0.0945 -0.5037
 8350SOL     OW35978   3.459   8.856   2.649 -0.1178  0.0538 -0.2845
 8350SOL    HW135979   3.552   8.823   2.668 -0.2061  0.0130  0.0813
 8350SOL    HW235980   3.464   8.944   2.602  0.1099  0.1297 -0.1234
 8351SOL     OW35981   6.049   1.371   3.933 -0.4986 -0.5546 -0.2182
 8351SOL    HW135982   6.051   1.421   4.019  1.5445  0.2662 -0.7138
 8351SOL    HW235983   5.986   1.416   3.870 -0.1324  0.2808  0.0067
 8352SOL     OW35984   7.920   2.873   5.363 -0.0098  0.0130  0.2959
 8352SOL    HW135985   7.942   2.932   5.441  0.3964 -0.8244  0.8200
 8352SOL    HW235986   7.994   2.878   5.296  0.1361 -0.0863  0.4493
 8353SOL     OW35987   2.426   5.503   1.765 -0.1105 -0.1578 -0.1724
 8353SOL    HW135988   2.371   5.437   1.714 -0.6881 -0.1007  0.3856
 8353SOL    HW235989   2.494   5.543   1.703  0.6096 -1.6738 -0.3792
 8354SOL     OW35990   1.023   0.660   1.532 -0.2882  0.1663 -0.1524
 8354SOL    HW135991   0.980   0.732   1.478 -0.0704  0.0123 -0.5346
 8354SOL    HW235992   1.060   0.699   1.616  0.4180  0.6327 -0.6677
 8355SOL     OW35993   3.488   2.983   3.941 -0.1143  0.1426 -0.1262
 8355SOL    HW135994   3.427   2.928   3.999  0.3770 -1.5654 -1.1765
 8355SOL    HW235995   3.553   2.922   3.895  0.5831  1.6579 -1.1675
 8356SOL     OW35996   0.045   7.708   0.274 -0.1667 -0.2747  0.0067
 8356SOL    HW135997   0.080   7.616   0.259  1.0523  0.3718 -1.2980
 8356SOL    HW235998   0.079   7.768   0.201  0.3772  1.5527  1.7265
 8357SOL     OW35999   7.952   4.216   4.320  0.5823 -0.6415  0.1006
 8357SOL    HW136000   7.934   4.277   4.243 -0.5949 -0.1516  0.7533
 8357SOL    HW236001   8.040   4.240   4.361  0.5223  0.0765 -0.1720
 8358SOL     OW36002   3.361   9.935   5.253 -0.6454  0.0320  0.1447
 8358SOL    HW136003   3.269   9.971   5.237 -0.0425  1.2183 -0.7036
 8358SOL    HW236004   3.358   9.835   5.252 -1.9352  0.0617  0.2241
 8359SOL     OW36005   7.629   2.932   0.369  0.8256 -0.1099  0.0291
 8359SOL    HW136006   7.550   2.902   0.422 -1.0230  0.0746 -2.4891
 8359SOL    HW236007   7.691   2.855   0.354  1.2751 -0.1963  2.2389
 8360SOL     OW36008   4.507   8.825   0.563 -0.3323 -0.7699 -0.4401
 8360SOL    HW136009   4.545   8.747   0.513 -0.8075 -1.0325 -0.4022
 8360SOL    HW236010   4.483   8.796   0.656  0.7339 -0.2314  0.0048
 8361SOL     OW36011   0.544   9.550   1.247 -0.0685 -0.6087 -0.1058
 8361SOL    HW136012   0.642   9.561   1.228  0.0790  0.1199  1.0271
 8361SOL    HW236013   0.510   9.631   1.295 -1.3756 -0.5939 -1.0383
 8362SOL     OW36014   4.296   8.886   3.761  0.0975 -0.5973 -0.2506
 8362SOL    HW136015   4.267   8.814   3.698  1.2663 -0.3922 -1.0406
 8362SOL    HW236016   4.367   8.942   3.717 -0.3877  0.6769  0.5703
 8363SOL     OW36017   1.893   5.747   2.054  0.0741 -0.5211  0.0834
 8363SOL    HW136018   1.954   5.813   2.010  0.1496 -1.1951 -0.8250
 8363SOL    HW236019   1.812   5.794   2.090 -0.0602  0.0042 -0.9061
 8364SOL     OW36020   7.890   2.639   0.430 -0.4116  0.1276 -0.1065
 8364SOL    HW136021   7.860   2.614   0.338  0.7187  1.4244 -0.8598
 8364SOL    HW236022   7.937   2.561   0.472 -0.2720 -0.2293 -0.9160
 8365SOL     OW36023   7.701   2.041   2.851  0.1587 -0.7907 -0.0424
 8365SOL    HW136024   7.740   2.119   2.804  0.4474 -1.2955 -0.6406
 8365SOL    HW236025   7.664   2.070   2.940 -2.0086  0.5045 -1.3248
 8366SOL     OW36026   3.102   7.694   0.587  0.1623 -0.8148  0.2747
 8366SOL    HW136027   3.136   7.772   0.640 -1.4726  0.2213 -0.1839
 8366SOL    HW236028   3.053   7.631   0.647 -0.0659 -0.5874  0.3254
 8367SOL     OW36029   2.040   8.471   1.048  0.5809 -0.2906  0.3489
 8367SOL    HW136030   1.941   8.477   1.035  0.5740 -1.7537 -0.4326
 8367SOL    HW236031   2.069   8.536   1.118 -0.8077  0.7718 -0.0478
 8368SOL     OW36032   9.945   7.114   0.825  0.3216  0.5199 -0.2761
 8368SOL    HW136033   9.932   7.048   0.750  1.6141  0.1726 -0.2004
 8368SOL    HW236034   9.862   7.117   0.881 -0.0877 -0.3613 -0.8139
 8369SOL     OW36035   2.963   2.922   4.537 -0.9097 -0.0560  0.1264
 8369SOL    HW136036   2.908   2.860   4.480 -0.6704 -0.2915  0.1488
 8369SOL    HW236037   3.013   2.986   4.478 -1.8558  0.7095  0.1457
 8370SOL     OW36038   9.273   8.795   0.009  0.1722  0.0483  0.2539
 8370SOL    HW136039   9.357   8.764   0.053  1.1614  1.2108 -0.7716
 8370SOL    HW236040   9.219   8.716  -0.020  1.7125 -0.7081 -0.5924
 8371SOL     OW36041   2.936   5.918   4.583  0.2001  0.3246 -0.3145
 8371SOL    HW136042   2.928   5.884   4.489 -0.3575 -0.9351  0.1711
 8371SOL    HW236043   2.985   6.004   4.583  0.7676  0.0178 -1.7033
 8372SOL     OW36044   3.566   5.128   2.249 -0.2669 -0.0456  0.6537
 8372SOL    HW136045   3.500   5.127   2.324 -0.2061  1.1401  0.7266
 8372SOL    HW236046   3.630   5.203   2.261  0.1268 -0.2176 -0.2691
 8373SOL     OW36047   2.043   5.032   4.622 -0.6899  0.9971 -0.0646
 8373SOL    HW136048   2.135   5.069   4.613  0.0872 -0.9939 -0.3874
 8373SOL    HW236049   2.008   5.007   4.532 -0.8294  0.0553  0.2461
 8374SOL     OW36050   1.665   2.728   2.306 -0.0281  0.1386 -0.2639
 8374SOL    HW136051   1.672   2.667   2.385 -0.5129 -0.0041 -0.3292
 8374SOL    HW236052   1.717   2.689   2.229 -0.6375 -0.3742 -0.4195
 8375SOL     OW36053   0.141   1.786   0.329 -0.0030 -0.0168  0.7518
 8375SOL    HW136054   0.081   1.782   0.409 -2.1735 -2.0890 -0.8996
 8375SOL    HW236055   0.150   1.694   0.291  1.6888  0.8185 -0.8848
 8376SOL     OW36056   7.198   8.783   3.276 -0.0524 -0.0964 -0.4726
 8376SOL    HW136057   7.221   8.854   3.343 -1.4707 -0.6128  0.5725
 8376SOL    HW236058   7.247   8.801   3.190  0.2104  1.6944  0.0393
 8377SOL     OW36059   7.907   8.496   2.033  0.2069 -0.2006 -0.3196
 8377SOL    HW136060   7.893   8.422   1.968 -0.2627 -1.1829  0.8905
 8377SOL    HW236061   7.904   8.460   2.126 -0.4863  1.4061  0.2942
 8378SOL     OW36062   9.555   4.062   1.691 -0.0928 -0.2259  0.2370
 8378SOL    HW136063   9.540   3.981   1.634 -0.6078  0.9197 -1.2797
 8378SOL    HW236064   9.481   4.127   1.675  1.5741  1.5539 -0.3042
 8379SOL     OW36065   0.634   6.677   0.015 -0.1750 -0.3477 -0.0955
 8379SOL    HW136066   0.714   6.640  -0.031 -0.6812 -0.2363 -1.0727
 8379SOL    HW236067   0.551   6.651  -0.035 -0.7459 -0.3819  0.8474
 8380SOL     OW36068   6.922   1.382   2.597 -0.1165  0.0151 -0.0543
 8380SOL    HW136069   6.988   1.447   2.559 -0.5694  0.0435 -0.8142
 8380SOL    HW236070   6.839   1.431   2.624 -0.9326 -0.3728 -1.7413
 8381SOL     OW36071   0.799   5.378   1.953  0.5649 -0.2381 -0.2225
 8381SOL    HW136072   0.710   5.369   1.998  1.2837  0.6367  1.4434
 8381SOL    HW236073   0.792   5.444   1.878 -0.2898 -0.5185 -0.3976
 8382SOL     OW36074   1.616   7.858   4.735 -0.1677  0.3982 -0.1311
 8382SOL    HW136075   1.563   7.891   4.813 -0.7185  0.2781 -0.4556
 8382SOL    HW236076   1.701   7.816   4.768 -0.2594  0.6162  0.3825
 8383SOL     OW36077   5.144   3.798   0.094  0.0001 -0.4881 -0.2413
 8383SOL    HW136078   5.125   3.736   0.017 -4.3163 -0.5457  0.7466
 8383SOL    HW236079   5.103   3.887   0.076  3.1785  1.0681 -0.0853
 8384SOL     OW36080   0.916   0.992   4.031  0.7231 -0.2654 -0.7222
 8384SOL    HW136081   0.920   1.085   3.995 -1.3712 -0.4840 -1.6058
 8384SOL    HW236082   0.841   0.985   4.097  0.7282 -1.3576 -0.8220
 8385SOL     OW36083   0.080   4.296   2.799 -0.4961  0.1609 -0.3539
 8385SOL    HW136084   0.175   4.329   2.793 -0.2825 -0.3192  0.2308
 8385SOL    HW236085   0.058   4.242   2.718  0.2661 -1.0408  0.2113
 8386SOL     OW36086   5.452   9.745   3.714  0.0431  0.3230 -0.3592
 8386SOL    HW136087   5.532   9.805   3.716  0.4165 -0.1103 -1.5660
 8386SOL    HW236088   5.460   9.683   3.636  0.2309 -2.0786  1.5270
 8387SOL     OW36089   1.130   2.273   2.237 -0.7004 -0.4998 -0.0649
 8387SOL    HW136090   1.192   2.322   2.299 -2.4349  1.7940 -0.0606
 8387SOL    HW236091   1.065   2.220   2.291 -0.9299 -0.1206  0.0354
 8388SOL     OW36092   4.457   9.193   0.826 -0.0264  0.0775  0.7092
 8388SOL    HW136093   4.395   9.115   0.818  0.0699  0.1636 -1.0272
 8388SOL    HW236094   4.419   9.259   0.891 -2.3468  0.6058 -1.0809
 8389SOL     OW36095   8.455   5.547   2.805  0.2905 -0.3409 -0.3023
 8389SOL    HW136096   8.465   5.575   2.709 -0.3189 -1.8844 -0.8319
 8389SOL    HW236097   8.374   5.489   2.814  0.5884 -0.5488  1.0768
 8390SOL     OW36098   3.345   9.557   3.182 -0.7934  0.3303 -0.0799
 8390SOL    HW136099   3.311   9.518   3.097  1.2542 -0.2686 -0.6422
 8390SOL    HW236100   3.321   9.654   3.186 -1.7915  0.1183 -0.8541
 8391SOL     OW36101   3.690   4.487   5.041 -0.7052 -0.4406 -0.4020
 8391SOL    HW136102   3.640   4.553   4.983 -2.1023  0.1303  1.4180
 8391SOL    HW236103   3.625   4.430   5.090  0.4668 -0.4711  1.1385
 8392SOL     OW36104   4.739   7.499   2.996  0.8022 -0.3546  0.9066
 8392SOL    HW136105   4.643   7.488   2.971  1.0219  0.3741 -0.2902
 8392SOL    HW236106   4.756   7.456   3.085 -0.2256 -2.0389  0.3054
 8393SOL     OW36107   2.190   7.459   5.326 -0.3192 -0.4432 -0.1124
 8393SOL    HW136108   2.219   7.456   5.422 -0.5741 -1.6996 -0.0702
 8393SOL    HW236109   2.238   7.534   5.279 -1.8083  1.5873  1.4957
 8394SOL     OW36110   3.586   9.438   3.966 -0.5553  0.3516 -0.2400
 8394SOL    HW136111   3.528   9.450   3.886  0.2521 -0.2401 -0.9212
 8394SOL    HW236112   3.580   9.344   3.999  0.9321 -0.0304 -1.0410
 8395SOL     OW36113   8.907   1.020   0.097  0.2460 -0.5676  0.1143
 8395SOL    HW136114   8.856   0.988   0.017  1.4267 -0.3563 -0.7337
 8395SOL    HW236115   8.843   1.057   0.164 -0.7054  0.0189 -1.0893
 8396SOL     OW36116   0.348   9.852   2.442  0.2062  0.5471 -0.4267
 8396SOL    HW136117   0.364   9.939   2.397  1.5812  0.4315 -0.1893
 8396SOL    HW236118   0.434   9.803   2.451 -0.1496  0.2782  1.7284
 8397SOL     OW36119   4.213   9.325   4.896  0.1056 -0.1448 -0.1053
 8397SOL    HW136120   4.291   9.359   4.949 -0.9263  0.4664  1.0426
 8397SOL    HW236121   4.223   9.227   4.881  0.1934 -0.4073  1.5921
 8398SOL     OW36122   0.246   5.864   2.003 -0.2741  0.2800  0.3934
 8398SOL    HW136123   0.178   5.867   1.930  0.3780  0.5613 -0.2039
 8398SOL    HW236124   0.338   5.873   1.964  0.1865 -1.2419  1.0664
 8399SOL     OW36125   8.650   0.311   0.546 -0.2262  0.2580  0.5663
 8399SOL    HW136126   8.722   0.378   0.528 -1.1258  0.5834 -2.0783
 8399SOL    HW236127   8.689   0.219   0.544  0.1489  0.4325 -0.8174
 8400SOL     OW36128   8.386   0.610   3.994  0.2669  0.3461  0.1440
 8400SOL    HW136129   8.398   0.620   4.092  0.2451  1.9992 -0.0050
 8400SOL    HW236130   8.474   0.594   3.950  0.4093  0.6403  0.3226
 8401SOL     OW36131   0.015   6.467   5.151  0.4019 -0.1339 -0.2272
 8401SOL    HW136132   0.086   6.400   5.175  0.4052 -0.0845 -0.1012
 8401SOL    HW236133   0.045   6.520   5.072  0.7753  0.3159  0.2123
 8402SOL     OW36134   7.496   2.510   1.177 -0.2443 -0.4610 -0.2324
 8402SOL    HW136135   7.528   2.524   1.084  0.5027 -0.2113  0.0530
 8402SOL    HW236136   7.427   2.578   1.200  0.0999 -0.0715 -0.3599
 8403SOL     OW36137   0.438   3.514   4.223 -0.1871  0.2121 -0.4549
 8403SOL    HW136138   0.381   3.547   4.148  1.7275  2.4586 -0.9614
 8403SOL    HW236139   0.529   3.492   4.188 -0.1201 -1.4090  0.7162
 8404SOL     OW36140   0.350   2.481   4.741  0.1575  0.0935  0.1284
 8404SOL    HW136141   0.273   2.429   4.778 -0.9400  1.9071  0.4713
 8404SOL    HW236142   0.353   2.472   4.642  0.6807 -1.5310  0.2748
 8405SOL     OW36143   9.242   5.499   1.839 -0.1848 -0.2390 -0.2232
 8405SOL    HW136144   9.180   5.569   1.802 -0.0657 -1.2216 -2.3461
 8405SOL    HW236145   9.279   5.445   1.764  1.8456 -0.8431  1.1961
 8406SOL     OW36146   3.396   3.076   5.036  0.3606 -0.2456  0.0969
 8406SOL    HW136147   3.321   3.113   5.091 -0.0072  0.4883 -0.8771
 8406SOL    HW236148   3.480   3.076   5.090  0.0168  0.5034  0.6522
 8407SOL     OW36149   2.248   8.271   1.125 -0.5674 -0.0582 -0.4488
 8407SOL    HW136150   2.160   8.309   1.153  0.4914  1.0728  1.4302
 8407SOL    HW236151   2.321   8.310   1.181  1.0946 -1.3163 -1.6773
 8408SOL     OW36152   9.260   7.516   2.003 -0.3056  0.3820  0.2514
 8408SOL    HW136153   9.295   7.610   2.008  2.3904 -0.6343  1.6675
 8408SOL    HW236154   9.169   7.512   2.044 -2.1304  3.0505 -3.2047
 8409SOL     OW36155   2.927   8.598   0.298 -0.0967 -0.0924 -0.0279
 8409SOL    HW136156   2.890   8.673   0.242  0.2409 -1.0870 -1.6239
 8409SOL    HW236157   2.864   8.579   0.373 -1.4804  0.0810 -1.1068
 8410SOL     OW36158   1.965   7.833   4.556  0.0718  0.0295  0.3595
 8410SOL    HW136159   1.890   7.794   4.502 -1.8914  1.8200  1.6937
 8410SOL    HW236160   2.042   7.770   4.555 -0.7285 -1.0197 -2.6120
 8411SOL     OW36161   3.046   5.643   2.327  0.3811  0.9451  0.1858
 8411SOL    HW136162   2.956   5.686   2.323  0.1561  0.3668 -3.2319
 8411SOL    HW236163   3.094   5.660   2.240  2.5721 -0.8394  0.9992
 8412SOL     OW36164   9.602   8.366   0.452 -0.1105  0.0410 -0.4220
 8412SOL    HW136165   9.508   8.395   0.438 -0.2240 -0.9797 -1.8797
 8412SOL    HW236166   9.631   8.390   0.545 -1.8032  0.3139  0.0487
 8413SOL     OW36167   3.384   7.367   5.461 -0.9993 -0.1075  0.0960
 8413SOL    HW136168   3.461   7.431   5.458 -2.5595  1.7936 -0.2362
 8413SOL    HW236169   3.398   7.296   5.392  0.2830  0.4109 -0.1951
 8414SOL     OW36170   4.181   0.081   1.909  0.1840  0.2963  0.1869
 8414SOL    HW136171   4.151   0.164   1.863  1.4273  0.3723 -0.5145
 8414SOL    HW236172   4.280   0.086   1.924 -0.1480  0.1623  2.6342
 8415SOL     OW36173   3.019   7.995   0.368  0.7175 -0.1369 -0.0176
 8415SOL    HW136174   3.034   7.935   0.289  0.5522  1.2188 -1.0924
 8415SOL    HW236175   3.095   8.060   0.375 -1.3381  2.5989 -1.6932
 8416SOL     OW36176   3.104   5.840   5.635  0.6113  0.0635 -0.0343
 8416SOL    HW136177   3.199   5.849   5.607  1.0818  1.1645  1.8363
 8416SOL    HW236178   3.055   5.925   5.617  0.0856 -0.3672 -0.6360
 8417SOL     OW36179   8.560   3.178   3.229  0.0489  0.0546  0.6133
 8417SOL    HW136180   8.491   3.250   3.244  1.7880  2.1868 -1.1607
 8417SOL    HW236181   8.524   3.091   3.261 -2.2625  1.6393  2.5902
 8418SOL     OW36182   3.494   3.792   4.815  0.1807  0.3893  0.1512
 8418SOL    HW136183   3.550   3.839   4.747 -0.1250 -0.6994 -0.8698
 8418SOL    HW236184   3.542   3.791   4.903  1.4945 -0.0015 -0.5556
 8419SOL     OW36185   1.572   3.400   4.606 -0.1251  0.0074  0.1741
 8419SOL    HW136186   1.594   3.339   4.682 -1.4962  0.5404  1.0242
 8419SOL    HW236187   1.547   3.346   4.525 -1.3811 -0.5730  0.9378
 8420SOL     OW36188   6.390   1.746   3.715  0.3025  0.6399 -0.4844
 8420SOL    HW136189   6.389   1.722   3.813  0.8820  0.2113 -0.5846
 8420SOL    HW236190   6.320   1.693   3.668 -0.5471  1.4443 -0.1716
 8421SOL     OW36191   2.659   1.059   1.463  0.4902  0.6675  0.6908
 8421SOL    HW136192   2.748   1.024   1.492  0.8685  2.9860  2.5085
 8421SOL    HW236193   2.616   1.106   1.540 -1.4933  1.2005 -0.7158
 8422SOL     OW36194   4.074   9.340   0.960 -0.3810 -0.1035 -0.7217
 8422SOL    HW136195   4.083   9.257   0.906 -1.8400 -0.8983  0.2230
 8422SOL    HW236196   4.148   9.345   1.027  0.1027 -0.2892 -1.2433
 8423SOL     OW36197   7.671   4.968   5.015 -0.3185 -0.3827  0.3419
 8423SOL    HW136198   7.602   5.039   5.030 -2.9093 -2.8165  0.2426
 8423SOL    HW236199   7.638   4.902   4.948  1.8782 -1.9009  0.6844
 8424SOL     OW36200   1.943   7.092   5.543 -0.2155  0.2682  0.3744
 8424SOL    HW136201   2.029   7.046   5.564  0.2836  1.5373  1.1752
 8424SOL    HW236202   1.902   7.126   5.628 -1.6336 -0.5353  0.0255
 8425SOL     OW36203   0.600   8.577   1.417  0.2295  0.0776  0.1995
 8425SOL    HW136204   0.601   8.531   1.506  0.6974  1.9985  1.2089
 8425SOL    HW236205   0.525   8.643   1.414 -1.3059 -1.7065 -1.7540
 8426SOL     OW36206   2.819   7.018   2.484 -0.7503  0.2691  0.3110
 8426SOL    HW136207   2.725   7.046   2.465 -0.3440  1.7546  0.4416
 8426SOL    HW236208   2.881   7.090   2.454  0.2662 -0.1224  1.4813
 8427SOL     OW36209   0.421   7.806   1.552 -0.0758  0.0996  0.5583
 8427SOL    HW136210   0.476   7.889   1.561  0.5573 -0.4476  1.6891
 8427SOL    HW236211   0.470   7.738   1.498 -0.4854  0.3431 -0.1389
 8428SOL     OW36212   1.730   4.895   5.132 -0.2077  0.4578 -0.3260
 8428SOL    HW136213   1.694   4.870   5.042  0.8265  0.5790 -0.7689
 8428SOL    HW236214   1.678   4.973   5.168 -0.6608  0.3708 -0.7890
 8429SOL     OW36215   0.100   0.919   0.625  0.2999 -0.2551  0.3426
 8429SOL    HW136216   0.180   0.868   0.595  0.1840  0.1100 -0.5912
 8429SOL    HW236217   0.129   1.005   0.668  0.4048  0.0021 -0.2373
 8430SOL     OW36218   3.513   0.166   3.424 -0.4683 -0.6228  0.0563
 8430SOL    HW136219   3.494   0.135   3.331 -0.1373  0.5838 -0.4248
 8430SOL    HW236220   3.475   0.257   3.437 -1.5086 -1.2471  1.4734
 8431SOL     OW36221   0.849   2.951   0.646 -0.0934  0.2261  0.2514
 8431SOL    HW136222   0.943   2.917   0.638 -0.2783 -0.3550  0.5488
 8431SOL    HW236223   0.842   3.014   0.723 -0.0133  0.0494  0.4019
 8432SOL     OW36224   0.366   6.954   0.584  0.1629  0.2645 -0.5670
 8432SOL    HW136225   0.296   6.987   0.647 -0.5156  0.1389 -1.2537
 8432SOL    HW236226   0.456   6.985   0.615 -0.0761 -0.4779  0.9212
 8433SOL     OW36227   9.212   3.881   3.698  0.5981 -0.0331 -0.4788
 8433SOL    HW136228   9.160   3.904   3.616  0.0670  1.6701  0.3037
 8433SOL    HW236229   9.258   3.963   3.732 -1.2609 -0.0617  2.3585
 8434SOL     OW36230   7.447   9.542   1.432  0.5645  0.2127 -0.0084
 8434SOL    HW136231   7.542   9.567   1.415  1.0039  0.1419  2.1832
 8434SOL    HW236232   7.418   9.473   1.366  1.9938  0.3494 -0.7831
 8435SOL     OW36233   9.043   9.298   0.943 -0.2933 -0.1541  0.1584
 8435SOL    HW136234   9.102   9.374   0.915  0.2581 -0.2818  0.9507
 8435SOL    HW236235   9.083   9.212   0.911  0.8016 -0.3719  2.0774
 8436SOL     OW36236   4.079   7.342   3.589 -0.3418  0.0351 -0.1435
 8436SOL    HW136237   4.113   7.273   3.526 -0.1475 -1.1937  1.2640
 8436SOL    HW236238   4.002   7.304   3.642 -0.9333  1.2544 -0.0999
 8437SOL     OW36239   2.540   8.602   0.200  0.4009  0.3117  0.4134
 8437SOL    HW136240   2.596   8.614   0.118 -1.2889 -0.0626 -0.8278
 8437SOL    HW236241   2.445   8.626   0.180  0.0093  0.4951  2.3504
 8438SOL     OW36242   0.185   3.626   3.704 -0.3800  0.3049  0.2341
 8438SOL    HW136243   0.102   3.617   3.760  0.4821  0.6261  1.5805
 8438SOL    HW236244   0.169   3.584   3.614 -1.1863 -1.8180  1.3379
 8439SOL     OW36245   8.708   0.033   5.133  0.3996  0.1250 -0.0912
 8439SOL    HW136246   8.619   0.038   5.086  0.3755  0.3035 -0.0278
 8439SOL    HW236247   8.702   0.083   5.220  0.4651 -0.1449  0.0660
 8440SOL     OW36248   8.848   7.527   4.690 -0.5384 -0.6238 -0.6524
 8440SOL    HW136249   8.871   7.430   4.680  0.5212 -0.6234  1.5168
 8440SOL    HW236250   8.923   7.583   4.655  0.0385 -0.6186  0.5472
 8441SOL     OW36251   2.357   5.681   4.572  0.3399  0.2491 -0.4276
 8441SOL    HW136252   2.422   5.714   4.640  0.7396  0.0148 -0.6894
 8441SOL    HW236253   2.386   5.591   4.540 -0.7951 -0.4075  0.3581
 8442SOL     OW36254   3.211   8.529   2.561  0.1233 -0.4367  0.0898
 8442SOL    HW136255   3.311   8.527   2.569  0.1827  1.2386 -0.1287
 8442SOL    HW236256   3.179   8.439   2.530  1.5961 -0.8410 -0.3307
 8443SOL     OW36257   6.469   1.404   4.072  0.4916  0.4420 -0.8734
 8443SOL    HW136258   6.510   1.394   4.163  0.3402  0.7976 -0.7643
 8443SOL    HW236259   6.419   1.321   4.048 -1.8120  1.3965  0.5382
 8444SOL     OW36260   8.381   1.443   1.980  0.6427  0.3237 -0.4678
 8444SOL    HW136261   8.472   1.399   1.983  0.4957  0.0519  0.3613
 8444SOL    HW236262   8.375   1.509   2.055 -0.4999 -0.9984  0.6368
 8445SOL     OW36263   0.451   3.640   2.057 -0.1265 -0.0981  0.5373
 8445SOL    HW136264   0.499   3.557   2.086 -1.9352 -0.1680  3.5030
 8445SOL    HW236265   0.369   3.614   2.006  0.3435 -0.0821 -0.2313
 8446SOL     OW36266   1.543   1.592   0.115  0.3888  0.4455  0.0085
 8446SOL    HW136267   1.568   1.499   0.088  0.0090  0.3586 -0.0502
 8446SOL    HW236268   1.597   1.657   0.063  1.3406  0.2427  0.7438
 8447SOL     OW36269   1.093   6.526   3.311  0.2596 -0.0766  0.2729
 8447SOL    HW136270   1.128   6.616   3.335  0.8680 -0.7286  1.8912
 8447SOL    HW236271   0.993   6.527   3.313  0.2663  0.5596  0.2376
 8448SOL     OW36272   8.619   3.929   2.672  0.2857  0.0308  0.2200
 8448SOL    HW136273   8.637   4.007   2.612  0.4400 -0.2070 -0.0428
 8448SOL    HW236274   8.607   3.962   2.766  0.6038  0.3468  0.1534
 8449SOL     OW36275   1.057   5.544   3.609 -0.5727  0.4226 -0.0971
 8449SOL    HW136276   1.141   5.598   3.608  0.6516 -1.4580 -0.5949
 8449SOL    HW236277   1.027   5.532   3.704  1.4170 -1.4615  0.3202
 8450SOL     OW36278   9.495   9.949   1.777  0.3633  0.3176 -0.3826
 8450SOL    HW136279   9.501  10.018   1.705 -0.1671 -0.2270 -0.9681
 8450SOL    HW236280   9.441   9.984   1.853 -1.0018  0.1160 -1.2257
 8451SOL     OW36281   4.197   0.235   4.427 -0.2359  0.3502  0.1890
 8451SOL    HW136282   4.292   0.240   4.398 -0.8973 -1.2744 -2.4848
 8451SOL    HW236283   4.150   0.319   4.400  0.0453  0.4508  0.0079
 8452SOL     OW36284   7.910   3.951   0.176  0.4945  0.1236 -0.2039
 8452SOL    HW136285   7.899   3.858   0.139 -0.5196 -0.2442  0.9963
 8452SOL    HW236286   7.852   4.014   0.126 -0.5071 -0.2854  0.4383
 8453SOL     OW36287   1.352   0.036   2.572  0.3228 -0.5576 -0.6590
 8453SOL    HW136288   1.359   0.012   2.476 -0.7330 -1.4049 -0.5377
 8453SOL    HW236289   1.256   0.047   2.597  0.5201 -1.3742  0.5365
 8454SOL     OW36290   4.885   9.164   2.119 -0.2957  0.2327 -0.3923
 8454SOL    HW136291   4.790   9.151   2.089 -0.4480 -1.8214  0.8998
 8454SOL    HW236292   4.947   9.122   2.053 -0.3230  0.7839 -0.7731
 8455SOL     OW36293   1.320   9.187   5.428  0.0799  0.1120 -0.1422
 8455SOL    HW136294   1.241   9.126   5.428 -0.5356  0.8698  2.0712
 8455SOL    HW236295   1.379   9.164   5.350 -0.0730 -3.3972  0.6744
 8456SOL     OW36296   0.227   6.163   0.203 -0.2687 -0.6072  0.3037
 8456SOL    HW136297   0.174   6.150   0.119 -2.8518  0.4393  1.7355
 8456SOL    HW236298   0.307   6.221   0.183 -2.1654  1.6630 -0.9396
 8457SOL     OW36299   0.915   9.445   3.435 -0.3450 -0.2444  0.3591
 8457SOL    HW136300   0.847   9.418   3.504 -2.1297  1.4626 -0.6570
 8457SOL    HW236301   0.883   9.417   3.344  0.8968 -0.4836 -0.0107
 8458SOL     OW36302   8.002   9.481   3.762 -0.1325 -0.2326  0.1299
 8458SOL    HW136303   8.088   9.489   3.712 -0.9742 -0.9530 -1.4548
 8458SOL    HW236304   7.928   9.522   3.709 -0.3688  2.6438  2.5925
 8459SOL     OW36305   2.058   2.822   1.028 -0.1889  0.2456 -0.0165
 8459SOL    HW136306   1.976   2.764   1.026  0.4883 -0.8040  2.1575
 8459SOL    HW236307   2.031   2.917   1.044 -1.0274  0.0037  0.0362
 8460SOL     OW36308   2.722   0.095   5.467  0.0157  0.2600  0.0358
 8460SOL    HW136309   2.759   0.150   5.542  3.3136 -1.9816  0.1790
 8460SOL    HW236310   2.670   0.018   5.505  1.0922 -0.4734  0.0682
 8461SOL     OW36311   9.484   5.506   0.628 -0.6559 -0.6955  0.0649
 8461SOL    HW136312   9.491   5.605   0.613  1.3527 -0.8025  0.2186
 8461SOL    HW236313   9.538   5.459   0.558 -1.1096 -1.6637  0.3713
 8462SOL     OW36314   2.869   8.549   1.213  0.2688 -0.1980 -0.7218
 8462SOL    HW136315   2.929   8.626   1.191  1.5629 -1.0613 -0.2830
 8462SOL    HW236316   2.842   8.555   1.309  0.0167 -0.0579 -0.8008
 8463SOL     OW36317   8.194   6.644   3.389  0.1537 -0.6905 -0.2593
 8463SOL    HW136318   8.121   6.575   3.390 -0.4798 -0.0250 -0.3180
 8463SOL    HW236319   8.266   6.617   3.453  0.3082 -1.8385 -0.9162
 8464SOL     OW36320   0.364   3.094   5.186  0.2656 -0.0614 -0.0116
 8464SOL    HW136321   0.313   3.176   5.158 -0.5897 -1.1249 -1.6652
 8464SOL    HW236322   0.324   3.014   5.141  0.4438 -1.5231  2.3777
 8465SOL     OW36323   4.066   9.724   3.090  0.3175 -0.5695  0.6170
 8465SOL    HW136324   4.133   9.650   3.097 -0.1591 -1.0268  0.3848
 8465SOL    HW236325   4.037   9.734   2.995 -1.6640 -1.9217  1.0463
 8466SOL     OW36326   9.270   6.562   3.462  0.0124  0.1446  0.2955
 8466SOL    HW136327   9.365   6.547   3.432 -0.0402 -0.3852  0.3872
 8466SOL    HW236328   9.268   6.632   3.533  0.2295  0.8456 -0.3778
 8467SOL     OW36329   5.075   2.245   2.983  0.5835  0.0853 -0.2362
 8467SOL    HW136330   5.062   2.334   3.027  0.7386 -0.0609  0.1081
 8467SOL    HW236331   5.165   2.208   3.008  0.0224 -0.7247  0.6170
 8468SOL     OW36332   9.856   5.878   5.329  0.2681  0.2429  0.6349
 8468SOL    HW136333   9.857   5.844   5.423 -0.5259 -0.6355  0.3400
 8468SOL    HW236334   9.782   5.833   5.278  1.3435 -0.0806 -0.6961
 8469SOL     OW36335   0.063   3.019   0.690  0.0802  0.0480 -0.0555
 8469SOL    HW136336  -0.020   3.022   0.746  0.7650 -0.9032  1.0153
 8469SOL    HW236337   0.045   3.064   0.602 -1.2243  0.8597  0.6115
 8470SOL     OW36338   9.081   0.115   1.892 -0.2437 -0.3266 -0.4905
 8470SOL    HW136339   9.051   0.202   1.853 -1.4290 -0.4225  0.1599
 8470SOL    HW236340   9.174   0.123   1.927 -0.6802  0.9703  0.4282
 8471SOL     OW36341   8.044   3.549   5.368  0.1347 -0.2299 -0.1961
 8471SOL    HW136342   7.991   3.488   5.308 -0.0581 -0.3255  0.0697
 8471SOL    HW236343   8.051   3.639   5.325 -3.2510  0.8369  1.3237
 8472SOL     OW36344   3.105   3.662   2.600  0.0551 -0.3310 -0.3341
 8472SOL    HW136345   3.127   3.636   2.506 -0.9685 -1.5934 -0.2365
 8472SOL    HW236346   3.152   3.602   2.664 -0.8591 -0.7841 -0.0756
 8473SOL     OW36347   8.777   7.372   0.159 -0.2919 -0.0477  0.2428
 8473SOL    HW136348   8.792   7.446   0.094 -0.1676  1.0162  1.4668
 8473SOL    HW236349   8.825   7.392   0.244 -1.6321 -0.7308  1.1743
 8474SOL     OW36350   0.927   1.839   1.109  0.4292 -0.1517  0.4004
 8474SOL    HW136351   1.007   1.850   1.049 -0.6910 -1.6994 -1.4415
 8474SOL    HW236352   0.848   1.883   1.066 -0.0145  0.2171  1.5913
 8475SOL     OW36353   5.888   8.863   4.247  0.6213  0.6714 -0.2832
 8475SOL    HW136354   5.943   8.932   4.199  0.7549  0.9129  0.2190
 8475SOL    HW236355   5.847   8.801   4.180  0.4862  1.2502 -0.7441
 8476SOL     OW36356   1.679   7.556   3.800  0.1090 -0.2204  0.2454
 8476SOL    HW136357   1.659   7.465   3.836 -0.7453 -0.0504  0.2077
 8476SOL    HW236358   1.651   7.561   3.704  0.2389  0.0533  0.2213
 8477SOL     OW36359   2.102   4.595   2.414 -1.0528  0.0041 -0.0732
 8477SOL    HW136360   2.009   4.622   2.391 -0.8314  0.8379 -0.0271
 8477SOL    HW236361   2.134   4.648   2.493 -0.7159 -0.6215  0.2100
 8478SOL     OW36362   8.748   2.080   0.516 -0.1032  0.1564 -0.2948
 8478SOL    HW136363   8.732   2.007   0.450 -0.2248 -0.1435  0.0602
 8478SOL    HW236364   8.662   2.104   0.561 -0.0571  0.4919 -0.3866
 8479SOL     OW36365   1.151   1.942   1.543  0.1145 -0.1635 -0.1141
 8479SOL    HW136366   1.111   1.861   1.587 -0.2165  0.1817  0.2286
 8479SOL    HW236367   1.084   2.016   1.545  0.2329 -0.0417 -0.8882
 8480SOL     OW36368   9.022   3.271   3.952  0.7512 -0.2715  0.6836
 8480SOL    HW136369   9.019   3.179   3.990  0.0432  0.0689  1.4789
 8480SOL    HW236370   8.954   3.279   3.879  1.1923 -0.5422  0.2466
 8481SOL     OW36371   2.121   5.403   0.053  0.2368  0.6123  0.5843
 8481SOL    HW136372   2.058   5.457  -0.002 -1.2225 -1.4255  0.1832
 8481SOL    HW236373   2.204   5.385   0.002 -0.2438  0.5105 -0.1682
 8482SOL     OW36374   3.388   9.737   4.314 -0.1288 -0.1464  0.5592
 8482SOL    HW136375   3.355   9.660   4.260 -2.1935  0.7565  0.5192
 8482SOL    HW236376   3.431   9.703   4.398 -1.4985 -1.3259  0.7949
 8483SOL     OW36377   4.094   0.805   0.169 -0.2497 -0.3100  0.2896
 8483SOL    HW136378   4.163   0.835   0.234  1.9370 -0.0648 -2.0710
 8483SOL    HW236379   4.100   0.706   0.156 -1.1869 -0.4712  0.9908
 8484SOL     OW36380   1.714   1.960   1.788  0.7339  1.1064  0.5440
 8484SOL    HW136381   1.776   2.019   1.736 -0.6962  1.9333 -0.2477
 8484SOL    HW236382   1.735   1.864   1.769  0.6736  1.3993 -1.0469
 8485SOL     OW36383   1.275   7.722   3.893  0.3224  0.1397  0.1434
 8485SOL    HW136384   1.190   7.673   3.915 -0.2180  1.9443  2.2266
 8485SOL    HW236385   1.270   7.757   3.800 -2.0523  1.8731  0.8720
 8486SOL     OW36386   1.675   7.398   1.650  0.0848 -0.3505  0.1074
 8486SOL    HW136387   1.717   7.487   1.633 -3.1333  1.5337  1.4447
 8486SOL    HW236388   1.576   7.409   1.659 -0.4034 -4.1035  0.2928
 8487SOL     OW36389   2.851   8.882   5.333 -0.0990  0.3278  0.1065
 8487SOL    HW136390   2.945   8.893   5.304 -0.5596 -1.1433 -2.0913
 8487SOL    HW236391   2.801   8.827   5.266 -2.3325  0.4346  1.5959
 8488SOL     OW36392   9.272   2.606   4.160  0.0061 -0.3668  0.1831
 8488SOL    HW136393   9.265   2.570   4.067  2.1033 -0.5940  0.0902
 8488SOL    HW236394   9.291   2.704   4.157  1.3361 -0.6192  0.3580
 8489SOL     OW36395   3.084   9.426   0.286  0.3113 -0.6976 -0.0723
 8489SOL    HW136396   3.113   9.522   0.285 -1.5274 -0.1468 -1.8473
 8489SOL    HW236397   3.106   9.384   0.198 -0.3100 -1.4720  0.1432
 8490SOL     OW36398   4.771   6.394   2.533 -0.3882 -0.3316  0.3061
 8490SOL    HW136399   4.755   6.475   2.589 -0.5823 -0.0199 -0.1944
 8490SOL    HW236400   4.869   6.386   2.513 -0.5954  0.9559 -1.3767
 8491SOL     OW36401   1.542   9.640   1.512 -0.2709  0.3265 -0.1483
 8491SOL    HW136402   1.624   9.582   1.513 -0.2675  0.2281  3.7771
 8491SOL    HW236403   1.568   9.733   1.537 -1.1577  0.6274 -0.3593
 8492SOL     OW36404   1.365   2.694   0.311 -0.2805  0.4723 -0.0580
 8492SOL    HW136405   1.404   2.629   0.376  1.4467 -0.3271 -1.8345
 8492SOL    HW236406   1.374   2.787   0.347  0.0174 -0.0254  1.1556
 8493SOL     OW36407   0.763   7.298   1.638 -0.0910  0.0229  0.2371
 8493SOL    HW136408   0.672   7.295   1.678 -0.4055 -1.1463 -0.5225
 8493SOL    HW236409   0.768   7.372   1.570 -0.9514 -0.8601 -0.8085
 8494SOL     OW36410   7.866   4.753   4.611  0.1869 -0.0557  0.1942
 8494SOL    HW136411   7.806   4.673   4.597  0.7964 -0.1817 -1.8108
 8494SOL    HW236412   7.809   4.835   4.622 -0.4117 -0.5401  0.7814
 8495SOL     OW36413   2.451   9.775   3.599  0.0853  0.0577 -0.0853
 8495SOL    HW136414   2.540   9.743   3.629 -0.5513 -0.3506  1.4244
 8495SOL    HW236415   2.381   9.708   3.624 -0.8827  1.2592  0.4722
 8496SOL     OW36416   3.657   7.796   4.199  0.3835  0.5592  0.1142
 8496SOL    HW136417   3.558   7.790   4.210  0.4118 -0.5928 -0.2585
 8496SOL    HW236418   3.702   7.762   4.281  0.5256 -3.9851 -1.7017
 8497SOL     OW36419   1.146   3.513   4.061  0.0508  0.4422 -0.0204
 8497SOL    HW136420   1.102   3.587   4.111 -0.3651  0.3547 -0.2560
 8497SOL    HW236421   1.240   3.503   4.092  0.7895  2.4829 -1.4863
 8498SOL     OW36422   8.629   4.742   1.125  0.1594 -0.1555  0.4775
 8498SOL    HW136423   8.663   4.780   1.039  0.1047  0.6265  0.8026
 8498SOL    HW236424   8.540   4.700   1.110  1.3817 -2.5342 -0.4576
 8499SOL     OW36425   8.443   3.409   4.049  0.7150  0.1466  0.1112
 8499SOL    HW136426   8.421   3.494   4.099  1.3927  0.0044  0.6546
 8499SOL    HW236427   8.448   3.333   4.114  0.4151 -0.2637 -0.3380
 8500SOL     OW36428   9.811   4.757   0.033  0.2762 -0.0847  0.1400
 8500SOL    HW136429   9.736   4.735  -0.029 -0.2793  1.5251  0.2347
 8500SOL    HW236430   9.785   4.832   0.093  2.5619  1.6773 -0.9723
 8501SOL     OW36431   6.137   9.452   1.622 -0.5023  0.1699 -0.1824
 8501SOL    HW136432   6.054   9.437   1.567 -1.4571 -2.1929  1.7668
 8501SOL    HW236433   6.216   9.416   1.572 -1.3298 -1.8173 -0.1407
 8502SOL     OW36434   2.588   0.325   3.311 -0.5647 -0.7335 -0.5734
 8502SOL    HW136435   2.521   0.257   3.341  1.0886 -1.4857  1.5976
 8502SOL    HW236436   2.670   0.278   3.278  0.0272  0.1818 -0.4184
 8503SOL     OW36437   0.371   8.455   0.329 -0.0822 -0.3053 -0.5161
 8503SOL    HW136438   0.452   8.406   0.363 -1.2269 -2.0320 -0.2721
 8503SOL    HW236439   0.343   8.524   0.397 -0.3505 -1.4562  0.5523
 8504SOL     OW36440   3.774   3.767   1.030 -0.1334  0.4374  0.1423
 8504SOL    HW136441   3.741   3.721   0.947  1.5283 -0.1878 -0.1832
 8504SOL    HW236442   3.754   3.711   1.110 -1.8693  1.1055  0.2195
 8505SOL     OW36443   8.844   7.021   4.981  0.3409 -0.1097 -0.1665
 8505SOL    HW136444   8.774   6.997   4.913  0.2586 -1.0717  0.2423
 8505SOL    HW236445   8.823   7.110   5.021  1.2363  1.1634 -2.4916
 8506SOL     OW36446   0.234   5.987   4.998 -0.3206  0.6001  0.0885
 8506SOL    HW136447   0.283   6.073   4.986  0.8434 -0.0331  0.2191
 8506SOL    HW236448   0.196   5.958   4.910 -0.5056  1.1141 -0.0049
 8507SOL     OW36449   3.598   2.976   1.852  0.0625 -0.1828 -0.0090
 8507SOL    HW136450   3.645   2.890   1.833  0.5509  0.0743  0.0012
 8507SOL    HW236451   3.608   3.037   1.774  0.8557  0.3486  0.4894
 8508SOL     OW36452   8.211   3.891   2.974 -0.0355 -0.6023 -0.3719
 8508SOL    HW136453   8.254   3.952   3.041 -0.6623  0.1826 -0.6778
 8508SOL    HW236454   8.115   3.878   2.998  0.3208 -2.2479  0.2383
 8509SOL     OW36455   0.852   7.204   2.273 -0.0877  0.7686 -0.3181
 8509SOL    HW136456   0.900   7.140   2.332 -2.5633 -1.2964 -0.4446
 8509SOL    HW236457   0.875   7.298   2.298  1.3366 -0.1336  1.7964
 8510SOL     OW36458   0.224   4.199   4.512 -0.0515 -0.5800 -0.7920
 8510SOL    HW136459   0.226   4.200   4.412  0.5195 -1.3327 -0.7913
 8510SOL    HW236460   0.317   4.194   4.548 -0.1932  0.7583 -0.1946
 8511SOL     OW36461   3.906   8.917   0.674  0.0599 -0.2424 -0.3214
 8511SOL    HW136462   3.966   8.870   0.739 -0.9139  0.0291  0.7895
 8511SOL    HW236463   3.941   9.009   0.658 -0.4642  0.1837  0.9165
 8512SOL     OW36464   8.450   3.933   4.405  0.2055  0.4338 -0.2832
 8512SOL    HW136465   8.538   3.886   4.403  1.0827  2.0439 -0.3779
 8512SOL    HW236466   8.435   3.980   4.318 -0.1557  1.2261  0.1990
 8513SOL     OW36467   4.991   1.092   2.410 -0.1483 -0.0731 -1.2493
 8513SOL    HW136468   5.007   1.001   2.373 -0.9988 -0.0015 -1.8083
 8513SOL    HW236469   5.066   1.153   2.385 -0.2665 -0.2639 -2.0754
 8514SOL     OW36470   4.731   7.043   3.637  0.4511 -0.1920  0.8418
 8514SOL    HW136471   4.666   6.977   3.676 -0.6986 -0.1484 -0.9728
 8514SOL    HW236472   4.811   6.994   3.603 -0.1358 -0.6129  0.0409
 8515SOL     OW36473   3.464   5.905   2.447 -0.0912 -0.3187  0.2869
 8515SOL    HW136474   3.522   5.829   2.477  0.5580 -0.4071 -1.1630
 8515SOL    HW236475   3.509   5.992   2.469 -0.3796 -0.3582  1.0503
 8516SOL     OW36476   0.977   0.665   0.807 -0.6698 -0.1543  0.0964
 8516SOL    HW136477   0.939   0.577   0.837  0.5175 -0.4178  0.8639
 8516SOL    HW236478   0.952   0.682   0.712 -0.8695 -1.3478 -0.0701
 8517SOL     OW36479   7.976   1.677   1.749 -0.6309 -0.1890 -0.1583
 8517SOL    HW136480   7.995   1.679   1.651 -0.4869 -1.1320 -0.1499
 8517SOL    HW236481   8.039   1.613   1.794 -2.4919 -1.8351  0.1570
 8518SOL     OW36482   9.025   9.663   2.805 -0.7377  0.2509  0.1106
 8518SOL    HW136483   9.105   9.638   2.750 -0.5558  2.6755 -0.7639
 8518SOL    HW236484   8.949   9.602   2.782  0.7438 -1.8879  0.7456
 8519SOL     OW36485   3.545   2.509   0.840 -0.7814  0.0619 -0.0386
 8519SOL    HW136486   3.462   2.529   0.893  0.0218  2.1658  0.4933
 8519SOL    HW236487   3.550   2.572   0.763  0.4964  0.1806  0.1359
 8520SOL     OW36488   8.485   1.837   0.707 -0.3982 -0.0314 -0.2407
 8520SOL    HW136489   8.536   1.765   0.753 -1.4970 -0.0443  0.9730
 8520SOL    HW236490   8.392   1.806   0.686 -1.1275  1.2469  0.9545
 8521SOL     OW36491   8.341   2.917   5.556  0.3047  0.0706 -0.4444
 8521SOL    HW136492   8.427   2.962   5.579 -0.2563  0.4793  0.9265
 8521SOL    HW236493   8.348   2.819   5.578  1.3038 -0.4324 -2.8208
 8522SOL     OW36494   4.660   3.935   5.183 -0.4404  0.1171  0.3722
 8522SOL    HW136495   4.610   4.017   5.156 -0.9281  0.3387  1.9019
 8522SOL    HW236496   4.677   3.937   5.282  1.7112 -0.4514  0.0335
 8523SOL     OW36497   3.997   7.982   4.776 -0.0982 -0.3069 -0.4880
 8523SOL    HW136498   4.056   7.931   4.838 -0.9942 -1.6375 -0.7070
 8523SOL    HW236499   3.989   8.077   4.807  0.6206 -0.5936  0.5941
 8524SOL     OW36500   1.229   0.318   1.766  0.4805  0.4033 -0.2125
 8524SOL    HW136501   1.270   0.247   1.709  3.1269  0.9413  0.9594
 8524SOL    HW236502   1.131   0.324   1.746  0.5452 -2.3587 -1.5497
 8525SOL     OW36503   2.224   6.055   5.625  0.0335  0.2549 -0.1355
 8525SOL    HW136504   2.186   6.147   5.614  1.6412  0.6981 -2.2003
 8525SOL    HW236505   2.217   6.028   5.721 -2.1941  1.7500  0.1750
 8526SOL     OW36506   9.571   4.022   1.015 -0.3023  0.1184 -0.2486
 8526SOL    HW136507   9.622   3.940   0.989 -0.9561  0.1075 -1.5009
 8526SOL    HW236508   9.473   4.006   1.005 -0.5006  0.6546  0.6835
 8527SOL     OW36509   4.675   0.058   2.802  0.0832  0.5640 -0.0745
 8527SOL    HW136510   4.770   0.055   2.770 -0.1865  0.1291 -0.8619
 8527SOL    HW236511   4.673   0.053   2.902  0.8520 -0.5629 -0.1051
 8528SOL     OW36512   5.446   7.549   1.879  0.5676 -0.6520 -0.3871
 8528SOL    HW136513   5.506   7.617   1.920  0.6293 -0.8459 -0.1516
 8528SOL    HW236514   5.499   7.468   1.854  0.4207 -0.7871 -0.2611
 8529SOL     OW36515   3.002   4.320   2.714 -0.5137  0.3928  0.4202
 8529SOL    HW136516   3.036   4.408   2.745 -0.8234  0.6085  0.1441
 8529SOL    HW236517   3.072   4.250   2.730  0.2170  0.9082 -0.5108
 8530SOL     OW36518   5.237   8.449   2.494  0.1674 -0.5249 -0.0467
 8530SOL    HW136519   5.150   8.417   2.531 -0.3748  0.1769 -0.7037
 8530SOL    HW236520   5.251   8.411   2.402 -0.7113  1.4872 -1.0272
 8531SOL     OW36521   3.768   2.770   3.203  0.3930  0.1000  0.2057
 8531SOL    HW136522   3.866   2.753   3.188  0.4399 -1.1730  1.8132
 8531SOL    HW236523   3.757   2.849   3.262  0.4749 -0.1853  0.6036
 8532SOL     OW36524   9.231   3.924   1.340 -0.3418  0.2644 -0.2063
 8532SOL    HW136525   9.283   3.864   1.279  1.2629  0.7417  0.6667
 8532SOL    HW236526   9.290   3.997   1.374 -2.3379  2.5073 -1.4320
 8533SOL     OW36527   7.716   1.637   5.382 -0.1031  0.4458 -0.1073
 8533SOL    HW136528   7.715   1.737   5.374 -1.9235  0.2649 -2.6292
 8533SOL    HW236529   7.808   1.604   5.361  0.8097  1.6546  1.8784
 8534SOL     OW36530   9.580   0.245   3.682  0.0446  0.3075 -0.5078
 8534SOL    HW136531   9.645   0.245   3.606  0.3610  0.3935 -0.2359
 8534SOL    HW236532   9.491   0.212   3.649  0.5117 -0.8461 -0.6299
 8535SOL     OW36533   4.134   0.009   3.614 -0.1475  0.5995  0.0908
 8535SOL    HW136534   4.036   0.028   3.624 -0.6258 -1.0697 -1.1386
 8535SOL    HW236535   4.165   0.045   3.526 -0.2611 -1.1645 -0.6810
 8536SOL     OW36536   6.108   8.597   3.153 -0.7084  0.0372 -0.5081
 8536SOL    HW136537   6.137   8.524   3.090  0.2452 -0.3843  0.3977
 8536SOL    HW236538   6.061   8.556   3.231  0.1209  0.3549  0.1682
 8537SOL     OW36539   2.954   9.735   5.008 -0.0733  0.1914 -0.0129
 8537SOL    HW136540   3.000   9.798   4.946  0.0268  0.8252  0.7004
 8537SOL    HW236541   2.899   9.786   5.073 -1.8103 -0.5601 -0.8594
 8538SOL     OW36542   9.065   7.508   3.323  0.1925  0.0188  0.7228
 8538SOL    HW136543   9.091   7.471   3.234 -1.0962  2.2732 -0.6320
 8538SOL    HW236544   9.142   7.499   3.387  1.7501 -0.0475 -1.1209
 8539SOL     OW36545   8.563   4.479   5.375  0.2560  0.0857 -0.0539
 8539SOL    HW136546   8.660   4.458   5.388  0.1574 -0.3270  0.0473
 8539SOL    HW236547   8.552   4.544   5.300  0.4564 -1.6312 -1.6023
 8540SOL     OW36548   8.909   5.764   1.356  0.1387  0.3051  0.3281
 8540SOL    HW136549   8.905   5.727   1.264  1.5577  0.2423  0.2877
 8540SOL    HW236550   9.004   5.769   1.386 -0.2221  1.5267  1.2988
 8541SOL     OW36551   2.040   2.078   2.034  0.7391  0.4555 -0.0762
 8541SOL    HW136552   1.957   2.024   2.021  1.6420 -0.7617 -0.8734
 8541SOL    HW236553   2.016   2.165   2.078 -0.7394 -0.5892  1.2823
 8542SOL     OW36554   8.591   6.077   0.598  0.5817 -0.7582  0.0349
 8542SOL    HW136555   8.595   6.123   0.687  3.1663  0.1341 -0.5034
 8542SOL    HW236556   8.560   6.142   0.529  0.2475 -0.9716 -0.0163
 8543SOL     OW36557   2.394   4.766   0.701  0.2584 -0.5228  0.3366
 8543SOL    HW136558   2.426   4.859   0.718 -0.6428  0.2631 -2.0693
 8543SOL    HW236559   2.298   4.757   0.727 -0.4605  0.0443 -1.9677
 8544SOL     OW36560   6.608   9.107   3.453 -0.1668 -0.0558  0.4512
 8544SOL    HW136561   6.558   9.020   3.450 -2.0410  1.0407 -1.7280
 8544SOL    HW236562   6.666   9.115   3.372  1.9273 -0.3278  1.8765
 8545SOL     OW36563   9.603   5.730   5.263  0.0215 -0.1298 -0.5792
 8545SOL    HW136564   9.605   5.649   5.321 -2.8109  0.5683  0.5791
 8545SOL    HW236565   9.547   5.712   5.182 -1.0195  0.7907 -0.0797
 8546SOL     OW36566   2.951   5.652   0.119  0.2789 -0.2770  0.2770
 8546SOL    HW136567   3.017   5.708   0.069  1.0190 -1.7298 -0.4300
 8546SOL    HW236568   2.872   5.633   0.060 -0.4180  0.8076  0.8499
 8547SOL     OW36569   1.045   6.169   4.301 -0.5750 -0.4300 -0.4072
 8547SOL    HW136570   1.016   6.231   4.374 -0.3622  0.1720 -0.8235
 8547SOL    HW236571   1.076   6.223   4.223  0.9761 -1.0676 -0.2442
 8548SOL     OW36572   0.548   5.976   2.643  0.5845 -0.5307 -0.6730
 8548SOL    HW136573   0.608   6.010   2.571 -0.4099  0.9211 -0.8220
 8548SOL    HW236574   0.599   5.913   2.702  1.6642 -0.9588 -2.0526
 8549SOL     OW36575   6.115   8.581   1.288  0.4522 -0.2675  0.0823
 8549SOL    HW136576   6.132   8.522   1.367  0.0990  1.2604  1.3137
 8549SOL    HW236577   6.035   8.638   1.305  1.2471  1.1305 -0.7753
 8550SOL     OW36578   8.851   6.072   3.172 -0.3418 -0.0723 -0.4721
 8550SOL    HW136579   8.794   6.006   3.220  1.3569 -1.6748 -0.6416
 8550SOL    HW236580   8.934   6.090   3.224 -0.7552  1.9264 -0.4438
 8551SOL     OW36581   4.213   2.149   3.162  0.2930 -0.3719  0.3918
 8551SOL    HW136582   4.254   2.067   3.201 -0.4921 -1.2917 -0.6998
 8551SOL    HW236583   4.122   2.128   3.127  0.3335  0.8156 -0.4693
 8552SOL     OW36584   3.784   3.193   2.024  0.0827  0.2671  0.5574
 8552SOL    HW136585   3.745   3.160   2.110 -1.0753  0.8966  0.2850
 8552SOL    HW236586   3.724   3.166   1.948 -0.0434  1.6028  0.1720
 8553SOL     OW36587   3.154   1.421   2.944 -0.6402 -0.2220 -0.0418
 8553SOL    HW136588   3.191   1.335   2.911  0.9990  1.5767 -3.1742
 8553SOL    HW236589   3.228   1.478   2.980 -1.5120  0.3706  0.8339
 8554SOL     OW36590   1.841   7.161   0.831 -0.3441 -0.4387 -0.0430
 8554SOL    HW136591   1.797   7.131   0.746  0.7959 -1.0624 -0.4333
 8554SOL    HW236592   1.940   7.169   0.815 -0.1836 -0.1143  1.1057
 8555SOL     OW36593   0.110   6.986   5.165  0.0447  0.5994  0.2739
 8555SOL    HW136594   0.111   7.021   5.258 -1.2094  0.0996  0.4767
 8555SOL    HW236595   0.109   7.064   5.101  1.4828  0.9437  0.6507
 8556SOL     OW36596   0.020   5.093   5.071  0.4716  0.2845 -0.6503
 8556SOL    HW136597  -0.049   5.114   5.002 -0.5140  1.3694  0.6431
 8556SOL    HW236598   0.093   5.161   5.066  0.3002  0.4818 -0.4923
 8557SOL     OW36599   3.208   3.953   1.003 -0.6680  0.2285 -0.7864
 8557SOL    HW136600   3.281   4.010   1.040 -1.8369  0.5537  1.1287
 8557SOL    HW236601   3.155   3.915   1.079 -2.5674  0.1018 -2.1441
 8558SOL     OW36602   1.097   8.851   0.699 -0.2003  0.3730 -0.3306
 8558SOL    HW136603   1.168   8.861   0.768  0.1101  1.5342 -0.7969
 8558SOL    HW236604   1.137   8.820   0.613 -0.1429  1.5966 -0.7634
 8559SOL     OW36605   2.797   9.990   0.132 -1.0455 -0.0887 -0.6034
 8559SOL    HW136606   2.833   9.903   0.100 -0.1217  0.1509 -0.2238
 8559SOL    HW236607   2.779   9.985   0.231  2.2927  1.2181  0.1338
 8560SOL     OW36608   1.097   6.070   2.039  0.2460  0.3427  0.0405
 8560SOL    HW136609   1.121   6.160   2.075 -1.0138  0.3796  0.8219
 8560SOL    HW236610   1.181   6.019   2.017  0.9943  1.0750  1.1572
 8561SOL     OW36611   8.605   3.689   5.207  0.6278  0.5007 -0.2750
 8561SOL    HW136612   8.672   3.756   5.176  1.5752 -0.9103 -1.3559
 8561SOL    HW236613   8.521   3.736   5.234  0.5162  1.9795 -2.9996
 8562SOL     OW36614   9.435   7.859   3.252 -0.3164 -0.4374  0.3847
 8562SOL    HW136615   9.481   7.944   3.224  0.0302 -0.3967  1.0503
 8562SOL    HW236616   9.504   7.790   3.275 -0.5888 -0.6140  0.6851
 8563SOL     OW36617   9.832   0.101   5.108 -0.1653  0.2758 -0.0462
 8563SOL    HW136618   9.762   0.116   5.038  0.6460  0.4396 -0.8308
 8563SOL    HW236619   9.842   0.183   5.164  0.9556  1.0258 -1.3421
 8564SOL     OW36620   4.704   1.234   2.221 -0.1568 -0.3815  0.0129
 8564SOL    HW136621   4.738   1.162   2.161  1.4383  0.5771 -0.2515
 8564SOL    HW236622   4.725   1.211   2.316  0.7040 -0.0616 -0.1046
 8565SOL     OW36623   4.898   9.255   3.084  0.1833 -0.0025 -0.2150
 8565SOL    HW136624   4.896   9.283   2.988 -0.4030  0.4173 -0.0772
 8565SOL    HW236625   4.808   9.268   3.125  0.4676 -0.0605  0.4340
 8566SOL     OW36626   2.643   3.972   3.124 -0.0215 -0.2742 -0.6835
 8566SOL    HW136627   2.696   3.890   3.147 -2.5729 -2.3140 -1.8090
 8566SOL    HW236628   2.626   3.974   3.026  0.9239  2.2176 -0.8275
 8567SOL     OW36629   2.154   7.315   2.758 -0.2312 -0.2896  0.1235
 8567SOL    HW136630   2.183   7.255   2.684  2.1970 -0.9598  1.5675
 8567SOL    HW236631   2.186   7.408   2.741 -1.5734  0.0294 -0.7268
 8568SOL     OW36632   0.264   6.443   1.147  0.2415  0.2240  0.3479
 8568SOL    HW136633   0.264   6.366   1.212 -1.5653  0.4098  0.6068
 8568SOL    HW236634   0.190   6.430   1.081  1.1499  0.7848 -0.7835
 8569SOL     OW36635   4.101   3.923   1.524  0.7833 -0.8760 -0.3703
 8569SOL    HW136636   4.120   3.833   1.565 -0.2030 -0.9089  0.0069
 8569SOL    HW236637   4.029   3.914   1.456 -0.7972  0.0091  1.1757
 8570SOL     OW36638   9.057   2.092   4.175 -0.5289 -0.1170  0.4050
 8570SOL    HW136639   8.979   2.039   4.143 -1.9373  2.6746 -1.0380
 8570SOL    HW236640   9.137   2.071   4.119  0.0614 -3.6664  2.4692
 8571SOL     OW36641   9.750   0.268   1.175  0.1727 -0.0444 -0.2784
 8571SOL    HW136642   9.809   0.269   1.256  0.3584 -0.0244 -0.4138
 8571SOL    HW236643   9.744   0.360   1.137 -0.0745 -0.0155 -0.1726
 8572SOL     OW36644   4.326   8.376   3.631 -0.6069 -0.2503 -0.1374
 8572SOL    HW136645   4.381   8.459   3.625 -0.5078 -0.1485  1.8669
 8572SOL    HW236646   4.246   8.384   3.572 -1.4243  1.9193  1.2046
 8573SOL     OW36647   4.637   3.212   3.647 -0.3310  0.3863  0.0404
 8573SOL    HW136648   4.730   3.240   3.621 -0.3200 -0.2024 -0.5551
 8573SOL    HW236649   4.585   3.189   3.566 -0.9403  0.5222  0.3929
 8574SOL     OW36650   1.461   9.203   4.326  0.0239  0.3975  0.0337
 8574SOL    HW136651   1.475   9.274   4.395  0.3449  1.4543 -1.1145
 8574SOL    HW236652   1.441   9.116   4.372  1.4007  0.8211  1.4890
 8575SOL     OW36653   1.214   5.101   2.606  0.0267  0.1140  0.9295
 8575SOL    HW136654   1.187   5.022   2.552  0.1825  0.5574  0.1958
 8575SOL    HW236655   1.278   5.157   2.553  1.2177 -0.1342  2.0623
 8576SOL     OW36656   8.028   7.273   5.577 -0.2196 -0.7333  0.4429
 8576SOL    HW136657   8.092   7.305   5.507 -0.9198 -0.0998  0.0754
 8576SOL    HW236658   8.026   7.173   5.578 -2.3981 -0.8036 -2.5460
 8577SOL     OW36659   4.704   1.766   4.881 -0.3447 -0.0328  0.0261
 8577SOL    HW136660   4.668   1.805   4.796 -0.1599  0.4686  0.1762
 8577SOL    HW236661   4.628   1.741   4.941 -0.4582  2.0625  0.8140
 8578SOL     OW36662   2.463   0.462   2.345 -0.1856  0.0493 -0.1350
 8578SOL    HW136663   2.408   0.518   2.282  1.7140  0.9347 -1.0404
 8578SOL    HW236664   2.482   0.514   2.428  0.8019  0.4372 -0.5916
 8579SOL     OW36665   7.261   9.100   1.748  0.2733 -0.1968  0.5986
 8579SOL    HW136666   7.181   9.065   1.798  2.4363 -3.0926  2.1650
 8579SOL    HW236667   7.247   9.086   1.650 -0.2394 -2.7903  0.9898
 8580SOL     OW36668   7.959   5.526   4.012 -0.2985 -0.5344 -0.0963
 8580SOL    HW136669   7.951   5.512   4.110 -0.4854 -1.1996 -0.2021
 8580SOL    HW236670   7.986   5.440   3.968 -1.8107 -0.6567 -0.8113
 8581SOL     OW36671   7.680   4.329   5.004 -0.0434 -0.2846 -0.1029
 8581SOL    HW136672   7.680   4.298   5.099  1.2052  0.1300  0.0390
 8581SOL    HW236673   7.593   4.305   4.961  0.3400 -2.6941  0.4168
 8582SOL     OW36674   4.618   0.459   2.567  0.4174  0.7633  0.6396
 8582SOL    HW136675   4.565   0.544   2.560 -0.6198  0.0309 -0.8120
 8582SOL    HW236676   4.572   0.396   2.630 -1.0532 -0.2636 -1.3894
 8583SOL     OW36677   0.355   2.941   2.526 -0.0677  0.2598 -0.1189
 8583SOL    HW136678   0.438   2.944   2.581 -1.5178  2.4337  2.0979
 8583SOL    HW236679   0.367   2.878   2.449  2.5030 -1.8355  1.9165
 8584SOL     OW36680   8.010   1.590   3.804  0.1072  0.4917 -0.1614
 8584SOL    HW136681   7.917   1.555   3.793  0.0333  0.1595  1.4669
 8584SOL    HW236682   8.049   1.610   3.713 -1.4572  0.4287 -0.8658
 8585SOL     OW36683   1.131   8.695   3.069  0.7649 -0.5310  0.1031
 8585SOL    HW136684   1.156   8.767   3.004  1.0324 -1.9942 -1.4547
 8585SOL    HW236685   1.036   8.709   3.099  0.9388  0.6809  0.1045
 8586SOL     OW36686   4.118   9.870   0.431  0.2604  0.4316 -0.0167
 8586SOL    HW136687   4.209   9.898   0.462  1.1892  0.8076 -2.9007
 8586SOL    HW236688   4.064   9.952   0.410 -0.4065  0.1961  0.7865
 8587SOL     OW36689   3.770   7.851   2.800 -0.2801  0.2677  0.8244
 8587SOL    HW136690   3.823   7.834   2.718 -0.8878  1.9844  0.0347
 8587SOL    HW236691   3.829   7.889   2.872 -0.0116  0.0551  0.7131
 8588SOL     OW36692   8.224   1.243   0.808 -0.2502  0.0836  0.9769
 8588SOL    HW136693   8.168   1.266   0.729 -0.6259 -1.2146  0.8663
 8588SOL    HW236694   8.312   1.206   0.777  0.4954  1.6593  1.1537
 8589SOL     OW36695   2.572   4.503   2.319 -0.5413 -0.0892 -0.0121
 8589SOL    HW136696   2.564   4.526   2.416  0.6188  2.8403 -0.5566
 8589SOL    HW236697   2.650   4.441   2.306 -0.8038 -0.6326  0.9428
 8590SOL     OW36698   9.072   9.155   5.259 -0.1725 -0.1944 -0.1970
 8590SOL    HW136699   9.032   9.064   5.271  0.1145 -0.1908  0.8022
 8590SOL    HW236700   8.999   9.223   5.257 -0.2575 -0.2356  1.1747
 8591SOL     OW36701   8.255   0.701   5.443  0.4364  0.1543  0.2775
 8591SOL    HW136702   8.191   0.772   5.473  0.3904 -0.8608  2.7382
 8591SOL    HW236703   8.339   0.743   5.411 -0.7702  1.4305 -1.2622
 8592SOL     OW36704   1.015   7.273   5.258 -0.2465  0.1977 -0.1084
 8592SOL    HW136705   1.112   7.276   5.284 -0.6532  1.9830  1.3215
 8592SOL    HW236706   0.989   7.179   5.238  1.4270 -0.5024  0.8974
 8593SOL     OW36707   8.110   2.369   0.814 -0.0154  0.2485 -0.3788
 8593SOL    HW136708   8.199   2.395   0.779  0.3188 -0.0478  0.2412
 8593SOL    HW236709   8.080   2.436   0.882 -0.2033  0.2696 -0.4804
 8594SOL     OW36710   3.238   5.357   2.842  0.5629 -0.1455 -0.1541
 8594SOL    HW136711   3.316   5.419   2.838  1.1221 -0.8764 -0.6079
 8594SOL    HW236712   3.182   5.367   2.760 -0.2514  0.9180  0.5063
 8595SOL     OW36713   6.091   7.533   3.008  0.8602  0.3285 -0.5612
 8595SOL    HW136714   6.176   7.569   3.046  1.7448 -0.5492 -1.6787
 8595SOL    HW236715   6.065   7.450   3.057  0.4188  0.8329  0.0596
 8596SOL     OW36716   7.872   9.312   0.325 -0.0460 -0.4071 -0.1739
 8596SOL    HW136717   7.968   9.295   0.299 -0.1028  1.7227 -1.9685
 8596SOL    HW236718   7.856   9.410   0.327 -2.0969 -0.7472  0.6084
 8597SOL     OW36719   5.695   9.697   4.112  0.7135  0.2022  0.0437
 8597SOL    HW136720   5.599   9.707   4.085  0.3128 -0.9727  0.9811
 8597SOL    HW236721   5.753   9.708   4.032 -0.1776  1.3110 -0.4700
 8598SOL     OW36722   0.628   6.738   1.406 -0.0747 -0.3470  0.6766
 8598SOL    HW136723   0.622   6.836   1.420 -0.4698 -0.1756 -0.5797
 8598SOL    HW236724   0.547   6.706   1.357 -0.2553 -1.4062  1.6389
 8599SOL     OW36725   9.421   4.049   0.218 -0.1715 -0.2314  0.2651
 8599SOL    HW136726   9.468   4.019   0.135  2.8815 -1.4576  2.3133
 8599SOL    HW236727   9.420   4.149   0.221  0.3677 -0.1804 -0.8984
 8600SOL     OW36728   1.449   8.709   3.808 -0.2359  0.0577 -0.0709
 8600SOL    HW136729   1.436   8.808   3.804 -1.7797 -0.1307 -0.0130
 8600SOL    HW236730   1.388   8.670   3.877  1.3556 -0.7849  0.8988
 8601SOL     OW36731   0.532   6.440   2.339 -0.1324 -0.1787  0.1107
 8601SOL    HW136732   0.503   6.456   2.434 -1.2542  0.2639 -0.2963
 8601SOL    HW236733   0.619   6.485   2.323  0.9471 -1.7502  1.4385
 8602SOL     OW36734   1.764   2.901   1.053  0.0612 -0.0885  0.1413
 8602SOL    HW136735   1.790   2.808   1.030  1.7608  0.6334 -0.9722
 8602SOL    HW236736   1.778   2.916   1.151 -0.0553 -0.9443  0.2924
 8603SOL     OW36737   9.401   5.792   2.790 -0.1913 -0.0010  0.2281
 8603SOL    HW136738   9.448   5.873   2.755 -1.5391  2.5542  3.9556
 8603SOL    HW236739   9.321   5.772   2.733  0.6520  0.7256 -1.2312
 8604SOL     OW36740   3.366   7.405   1.479 -0.2171  0.0207  0.7275
 8604SOL    HW136741   3.387   7.498   1.452 -1.5937  0.1331  0.0125
 8604SOL    HW236742   3.364   7.399   1.579 -0.4722  0.8310  0.7749
 8605SOL     OW36743   0.743   2.863   1.795  0.4145 -0.1630  0.6500
 8605SOL    HW136744   0.745   2.861   1.695  1.7566  0.1797  0.6583
 8605SOL    HW236745   0.805   2.792   1.831  0.2946  0.0244  1.2378
 8606SOL     OW36746   8.417   6.720   4.849  0.2508 -0.4406  0.8035
 8606SOL    HW136747   8.494   6.778   4.825 -0.1482 -0.7811 -1.3954
 8606SOL    HW236748   8.347   6.774   4.896 -1.4629  1.6736 -3.8904
 8607SOL     OW36749   3.764   8.542   3.556  0.3866  0.4911 -0.8882
 8607SOL    HW136750   3.780   8.479   3.632  0.1455 -0.2548 -1.4445
 8607SOL    HW236751   3.726   8.491   3.478 -0.9671  1.5504 -0.9316
 8608SOL     OW36752   8.403   9.255   1.928 -0.0011  0.4501  0.0028
 8608SOL    HW136753   8.304   9.244   1.935  0.0550 -0.0690 -0.0038
 8608SOL    HW236754   8.427   9.282   1.835  0.0073 -1.0909 -0.4581
 8609SOL     OW36755   1.958   9.917   2.274  0.1418  0.0769 -0.5506
 8609SOL    HW136756   1.873   9.878   2.239 -0.6270  0.2171  1.1374
 8609SOL    HW236757   1.938   9.987   2.342  1.6138 -0.4698  0.4720
 8610SOL     OW36758   2.825   7.250   4.487  0.3855 -0.3930 -0.2197
 8610SOL    HW136759   2.749   7.189   4.508  0.4412  0.0279  1.3209
 8610SOL    HW236760   2.911   7.209   4.520  0.6951 -0.3826 -0.9897
 8611SOL     OW36761   4.173   6.647   1.735 -0.7379 -0.0232 -0.5949
 8611SOL    HW136762   4.144   6.709   1.808 -2.2576 -1.1948 -0.1877
 8611SOL    HW236763   4.271   6.657   1.720 -0.2390 -0.3966  2.2130
 8612SOL     OW36764   2.797   3.601   4.050 -0.0990 -0.3913  0.3036
 8612SOL    HW136765   2.850   3.571   4.130 -0.5049  1.2411  1.1948
 8612SOL    HW236766   2.773   3.697   4.060  0.3222 -0.0289 -2.0752
 8613SOL     OW36767   8.162   5.276   1.749 -0.4197 -0.5996  0.3714
 8613SOL    HW136768   8.231   5.210   1.720  0.1451 -0.1967  0.7959
 8613SOL    HW236769   8.126   5.250   1.839 -2.3290 -1.9711 -0.7564
 8614SOL     OW36770   1.028   1.569   2.301  0.8034 -0.8358 -0.3375
 8614SOL    HW136771   1.116   1.578   2.347 -0.1906 -0.7355  1.6190
 8614SOL    HW236772   1.009   1.652   2.249  0.9678 -0.0092  0.8835
 8615SOL     OW36773   0.948   9.475   0.286  0.1869  0.1941  0.2698
 8615SOL    HW136774   1.041   9.507   0.302  0.3151  0.5956 -1.1555
 8615SOL    HW236775   0.943   9.376   0.301  0.9105  0.1249  0.0598
 8616SOL     OW36776   8.230   2.326   1.260 -1.0132 -0.7897  0.1178
 8616SOL    HW136777   8.268   2.233   1.265  2.3206  0.5525  0.8457
 8616SOL    HW236778   8.197   2.353   1.350  0.1369 -0.4219  0.4326
 8617SOL     OW36779   9.716   6.350   0.333  0.4582 -0.3434  0.2973
 8617SOL    HW136780   9.768   6.321   0.253 -0.1678 -0.3407 -0.1117
 8617SOL    HW236781   9.624   6.313   0.328  0.7583 -1.2930  1.5971
 8618SOL     OW36782   0.161   0.233   3.486 -0.4862  0.2025 -0.4199
 8618SOL    HW136783   0.134   0.227   3.390  2.1704  1.5414 -1.2986
 8618SOL    HW236784   0.209   0.320   3.502 -0.9961  0.0592  2.1484
 8619SOL     OW36785   4.070   7.258   2.339  0.2558  0.0848 -0.4978
 8619SOL    HW136786   4.044   7.263   2.435  0.1369 -2.4137 -0.3684
 8619SOL    HW236787   3.989   7.272   2.282  0.0776  0.2270 -0.2104
 8620SOL     OW36788   9.208   1.759   4.580 -0.6144 -0.6180  0.7600
 8620SOL    HW136789   9.249   1.785   4.493 -1.6782 -0.2237  0.3791
 8620SOL    HW236790   9.217   1.660   4.593  0.4753 -0.5405  0.6949
 8621SOL     OW36791   4.622   1.840   4.100 -0.0952 -0.4501  0.6178
 8621SOL    HW136792   4.616   1.929   4.146 -0.1746  0.3182 -0.8520
 8621SOL    HW236793   4.603   1.768   4.166 -0.9133  0.6641  1.6370
 8622SOL     OW36794   9.859   6.397   1.431 -0.4129 -0.2986 -0.5486
 8622SOL    HW136795   9.773   6.410   1.380 -1.8122 -2.3002  1.2219
 8622SOL    HW236796   9.859   6.455   1.512  0.0184 -0.1288 -0.6697
 8623SOL     OW36797   2.799   7.566   3.650 -0.4374  0.0312  0.0658
 8623SOL    HW136798   2.708   7.553   3.611 -0.7732  0.9721  0.5186
 8623SOL    HW236799   2.790   7.601   3.744  0.3967  1.3628 -0.3406
 8624SOL     OW36800   0.025   0.639   4.184 -0.6400  0.1422  0.3207
 8624SOL    HW136801   0.082   0.633   4.266  0.4496 -0.6118 -0.4666
 8624SOL    HW236802   0.084   0.659   4.105 -1.7713  1.6796 -0.1619
 8625SOL     OW36803   7.925   7.314   1.854  0.1102 -0.4259 -0.8917
 8625SOL    HW136804   7.989   7.390   1.844 -0.5424  0.2687  0.0485
 8625SOL    HW236805   7.930   7.254   1.774  1.7414 -0.2430 -0.9302
 8626SOL     OW36806   3.143   4.529   2.485 -0.3730  0.2072 -0.3076
 8626SOL    HW136807   3.243   4.530   2.479 -0.3854 -2.0458 -1.5506
 8626SOL    HW236808   3.115   4.539   2.580  1.0182  0.9796  0.0384
 8627SOL     OW36809   1.804   0.656   4.625  0.0245  0.0772  0.0744
 8627SOL    HW136810   1.885   0.612   4.664  1.3066  1.2597 -1.1999
 8627SOL    HW236811   1.764   0.597   4.556  1.9500  1.0083 -1.8907
 8628SOL     OW36812   2.755   6.968   4.183  0.1715  1.1167  0.2624
 8628SOL    HW136813   2.655   6.974   4.184  0.0089 -1.1766  1.6704
 8628SOL    HW236814   2.785   6.913   4.105  0.1347 -0.5088  1.3605
 8629SOL     OW36815   5.702   8.619   2.133 -0.3112  0.0579  0.4987
 8629SOL    HW136816   5.730   8.527   2.106 -0.1462  0.1073  0.4969
 8629SOL    HW236817   5.612   8.640   2.096 -0.3470 -0.1021  0.4960
 8630SOL     OW36818   1.952   8.432   4.008  0.4209 -0.1175 -0.1061
 8630SOL    HW136819   1.956   8.469   3.915  0.0950  0.9773  0.3169
 8630SOL    HW236820   1.873   8.372   4.016  0.1138  0.2538 -0.3639
 8631SOL     OW36821   2.536   9.536   2.744 -0.0630  0.3722 -0.1958
 8631SOL    HW136822   2.498   9.627   2.728  0.6898  0.6421 -0.4881
 8631SOL    HW236823   2.502   9.473   2.674  0.7489  0.8281 -1.0148
 8632SOL     OW36824   1.294   4.825   0.770 -0.0409  1.1318 -0.4306
 8632SOL    HW136825   1.371   4.847   0.830  1.8039 -1.3299 -1.8363
 8632SOL    HW236826   1.217   4.793   0.825  0.7086  1.4543  0.8135
 8633SOL     OW36827   5.788   7.930   2.517  0.0007 -0.7359 -0.4172
 8633SOL    HW136828   5.745   8.014   2.550 -1.0452 -1.7531  0.8231
 8633SOL    HW236829   5.851   7.953   2.442 -0.0031  1.1917  0.1308
 8634SOL     OW36830   5.726   9.028   2.575 -0.5156 -0.4780 -0.3529
 8634SOL    HW136831   5.711   8.929   2.570 -0.5899 -0.5041  0.2959
 8634SOL    HW236832   5.711   9.059   2.669 -1.0403  0.2406 -0.6655
 8635SOL     OW36833   7.956   0.181   5.357  0.0400  0.1645  0.1086
 8635SOL    HW136834   7.950   0.090   5.315 -0.3496  1.1233 -2.0028
 8635SOL    HW236835   7.865   0.211   5.386 -0.0963  0.5231 -0.6628
 8636SOL     OW36836   4.303   7.580   4.286 -0.0991 -0.0541 -0.2762
 8636SOL    HW136837   4.347   7.500   4.245  1.8873  0.6402  0.4727
 8636SOL    HW236838   4.327   7.662   4.235 -0.2939  0.3706  0.3048
 8637SOL     OW36839   0.278   7.719   2.601  0.1560  0.9249  0.7386
 8637SOL    HW136840   0.342   7.643   2.599 -0.1727  0.6842 -1.3771
 8637SOL    HW236841   0.188   7.687   2.631 -0.4400  0.0770 -1.8113
 8638SOL     OW36842   5.952   9.096   3.934  0.0845  0.2268  0.1613
 8638SOL    HW136843   5.976   9.192   3.919 -4.0700  1.8195  2.6062
 8638SOL    HW236844   6.002   9.061   4.014  1.5559  0.3580 -0.6915
 8639SOL     OW36845   7.517   2.711   2.216 -0.4231 -0.2132  0.0809
 8639SOL    HW136846   7.493   2.801   2.178 -0.3983  0.0742  0.7456
 8639SOL    HW236847   7.597   2.675   2.168  0.2910  0.6547  0.6128
 8640SOL     OW36848   3.632   3.761   3.592 -0.4478  0.2764 -0.7222
 8640SOL    HW136849   3.646   3.786   3.687  0.5699  1.1353 -1.0828
 8640SOL    HW236850   3.534   3.753   3.573 -0.6269 -0.7759  0.6018
 8641SOL     OW36851   2.562   6.932   0.960 -0.1953  0.1020 -0.0267
 8641SOL    HW136852   2.497   7.004   0.986  0.2453  1.0285 -1.4458
 8641SOL    HW236853   2.630   6.969   0.897  1.8832 -0.8004  1.6404
 8642SOL     OW36854   1.711   3.664   1.948  0.1873  0.1188 -0.0346
 8642SOL    HW136855   1.671   3.659   1.856  1.4779 -1.9716 -0.4971
 8642SOL    HW236856   1.673   3.591   2.005  0.7923  0.2613  0.5544
 8643SOL     OW36857   3.593   7.688   1.089  0.4363 -0.1135  0.2730
 8643SOL    HW136858   3.496   7.666   1.102  0.5999 -0.5808  0.7297
 8643SOL    HW236859   3.646   7.604   1.080  0.8066  0.1392  0.0575
 8644SOL     OW36860   0.967   0.183   2.333 -0.2166 -0.6920 -0.1312
 8644SOL    HW136861   0.980   0.122   2.255  0.7473  1.2472 -1.5200
 8644SOL    HW236862   1.004   0.139   2.416 -0.2721 -2.3139 -0.9458
 8645SOL     OW36863   8.161   6.700   5.605 -0.2482 -0.7135 -0.4098
 8645SOL    HW136864   8.196   6.720   5.696 -0.6497 -0.8467 -0.2206
 8645SOL    HW236865   8.212   6.624   5.566  1.1485  0.5492 -1.0594
 8646SOL     OW36866   4.556   4.223   5.217 -0.2675  0.2709  0.1036
 8646SOL    HW136867   4.611   4.291   5.265  0.3411 -0.1571  0.0288
 8646SOL    HW236868   4.475   4.201   5.271 -0.1399  0.5926  0.4254
 8647SOL     OW36869   8.586   1.765   3.416 -0.1596 -0.0925 -0.1628
 8647SOL    HW136870   8.506   1.765   3.356  0.1023  2.0901 -0.5452
 8647SOL    HW236871   8.563   1.721   3.503 -1.8393  0.7152 -0.1917
 8648SOL     OW36872   4.195   3.659   1.563 -0.4874 -0.3664  0.2333
 8648SOL    HW136873   4.108   3.654   1.613 -0.6106 -1.5837 -0.0810
 8648SOL    HW236874   4.241   3.570   1.567 -0.3793 -0.4182 -1.5955
 8649SOL     OW36875   9.771   6.530   5.062 -0.1163 -0.0576  0.2677
 8649SOL    HW136876   9.862   6.503   5.093  0.6955  2.7492  0.4881
 8649SOL    HW236877   9.776   6.561   4.967 -1.5420 -3.2237 -0.9070
 8650SOL     OW36878   0.147   5.771   0.922  0.5763  0.3973  0.0708
 8650SOL    HW136879   0.226   5.775   0.860  0.9707  1.5931  0.6357
 8650SOL    HW236880   0.080   5.840   0.895  1.3738  1.8935  1.7961
 8651SOL     OW36881   2.645   5.391   0.874 -0.2282 -0.1330 -0.4279
 8651SOL    HW136882   2.597   5.330   0.936 -0.6866 -2.1702 -2.6863
 8651SOL    HW236883   2.689   5.337   0.802  2.4451  1.9601 -0.4471
 8652SOL     OW36884   7.392   4.042   0.979  0.3308  0.0248 -0.0747
 8652SOL    HW136885   7.341   3.968   1.023  2.7937 -1.7059 -0.0783
 8652SOL    HW236886   7.488   4.039   1.008  0.7487  2.4171 -1.0944
 8653SOL     OW36887   1.219   7.110   5.427 -0.3159 -0.2755  0.2820
 8653SOL    HW136888   1.316   7.090   5.442 -0.0749  0.3981 -0.3239
 8653SOL    HW236889   1.190   7.181   5.492 -0.7996 -1.5489  1.4742
 8654SOL     OW36890   3.505   2.675   2.250 -0.1419 -0.4194  1.0606
 8654SOL    HW136891   3.588   2.686   2.305 -0.6010  2.3646  1.2509
 8654SOL    HW236892   3.463   2.764   2.234 -1.7856 -1.5261 -1.0975
 8655SOL     OW36893   9.433   6.049   2.670  0.0343  0.4643 -0.0455
 8655SOL    HW136894   9.359   6.036   2.604 -1.0562 -1.1909  1.4682
 8655SOL    HW236895   9.507   6.101   2.627 -0.7864 -0.3112 -2.4644
 8656SOL     OW36896   3.973   5.237   0.880 -0.2998  0.0629  0.2954
 8656SOL    HW136897   4.063   5.274   0.905 -0.4869  1.1217 -0.5766
 8656SOL    HW236898   3.936   5.184   0.957  2.0940 -2.3975 -0.1642
 8657SOL     OW36899   1.108   3.737   0.136  0.2203  0.3628  0.7381
 8657SOL    HW136900   1.186   3.754   0.196 -0.2682  2.6558  0.7715
 8657SOL    HW236901   1.105   3.641   0.112  1.6540 -0.2081  2.6960
 8658SOL     OW36902   9.720   4.554   0.227  0.6527 -0.0771  0.4030
 8658SOL    HW136903   9.658   4.598   0.162 -2.4629 -4.4892  0.1629
 8658SOL    HW236904   9.804   4.528   0.180  1.7169  3.5655  0.0958
 8659SOL     OW36905   3.140   5.272   3.336  0.5597  0.0238 -0.0784
 8659SOL    HW136906   3.106   5.343   3.399  1.4371  0.3902 -0.0077
 8659SOL    HW236907   3.106   5.290   3.244 -0.5352 -0.3769  0.2383
 8660SOL     OW36908   3.232   7.417   2.966  0.6334  0.0345 -0.5335
 8660SOL    HW136909   3.134   7.410   2.947  0.4624 -1.5327  0.8349
 8660SOL    HW236910   3.283   7.373   2.893  0.2973  0.5324 -1.0706
 8661SOL     OW36911   3.727   9.600   1.907  0.4950 -0.4100 -0.2812
 8661SOL    HW136912   3.806   9.622   1.965  1.3916 -1.1348 -1.1939
 8661SOL    HW236913   3.678   9.684   1.885  1.1799  0.0914  0.0736
 8662SOL     OW36914   8.748   9.902   3.788 -0.0177  0.2299 -0.1167
 8662SOL    HW136915   8.799   9.853   3.858 -1.4546 -0.0589  0.7609
 8662SOL    HW236916   8.663   9.938   3.828 -0.1434  1.3306 -1.3490
 8663SOL     OW36917   1.976   3.813   4.947  0.1097  0.4229 -0.1004
 8663SOL    HW136918   2.043   3.885   4.932  0.1031  0.6678  1.0237
 8663SOL    HW236919   1.992   3.738   4.882  0.7193  1.0026 -0.6228
 8664SOL     OW36920   5.952   7.605   3.322  0.3223  0.6346  0.5964
 8664SOL    HW136921   5.946   7.648   3.232 -0.1732 -1.2853 -0.2963
 8664SOL    HW236922   6.047   7.610   3.355  0.9122 -0.3633 -0.8910
 8665SOL     OW36923   2.861   4.285   5.532  0.3555  0.3186 -0.0605
 8665SOL    HW136924   2.790   4.241   5.477  0.7303  0.9407 -1.0479
 8665SOL    HW236925   2.832   4.286   5.628 -1.3238  1.2491 -0.5561
 8666SOL     OW36926   3.679   0.429   3.101 -0.3052  0.1682 -0.7158
 8666SOL    HW136927   3.755   0.477   3.058 -0.2560  1.2885  0.6192
 8666SOL    HW236928   3.698   0.415   3.198 -2.3343  1.5421 -0.0992
 8667SOL     OW36929   1.449   9.747   3.061 -0.0637 -0.3117 -0.1342
 8667SOL    HW136930   1.375   9.721   2.999  1.7772 -0.5636 -2.2910
 8667SOL    HW236931   1.466   9.672   3.125 -0.8508 -0.7323 -0.4102
 8668SOL     OW36932   8.161   4.057   0.854 -0.9646 -0.0030  0.2788
 8668SOL    HW136933   8.197   4.146   0.828  1.2336 -0.5759  1.1890
 8668SOL    HW236934   8.080   4.069   0.911 -0.4459  1.4261  0.7387
 8669SOL     OW36935   8.297   3.001   5.302 -0.0894 -0.4233 -0.4913
 8669SOL    HW136936   8.286   3.013   5.401  1.3716 -2.1716 -0.0880
 8669SOL    HW236937   8.279   3.087   5.255  0.0132  0.6272  1.3671
 8670SOL     OW36938   1.775   5.485   4.740  0.7000  0.0454 -0.2371
 8670SOL    HW136939   1.757   5.584   4.733  0.0661  0.1322  2.1730
 8670SOL    HW236940   1.836   5.457   4.666 -1.7749  1.5944 -2.9756
 8671SOL     OW36941   7.864   0.500   3.092 -0.7850 -0.4810  0.0818
 8671SOL    HW136942   7.816   0.573   3.044 -0.9441 -0.0586  0.8759
 8671SOL    HW236943   7.806   0.419   3.095 -1.6056  0.1366  1.3466
 8672SOL     OW36944   2.226   4.626   0.312 -0.1954  0.3924 -0.6481
 8672SOL    HW136945   2.286   4.562   0.263  1.0614  1.1386 -0.1225
 8672SOL    HW236946   2.253   4.720   0.289  0.1046  0.7490  1.0771
 8673SOL     OW36947   0.162   2.910   4.295  0.6679 -0.0919  0.0007
 8673SOL    HW136948   0.066   2.936   4.296  0.1634 -1.7775 -1.5376
 8673SOL    HW236949   0.211   2.965   4.227 -0.0603 -1.9310 -2.0794
 8674SOL     OW36950   0.938   5.821   4.039 -0.2401 -0.5781 -0.3229
 8674SOL    HW136951   0.918   5.847   4.133 -0.1674  0.5962 -0.6292
 8674SOL    HW236952   0.876   5.748   4.011  0.1921 -1.4051  0.8598
 8675SOL     OW36953   8.578   5.350   1.803  0.0266  0.1962  0.0880
 8675SOL    HW136954   8.666   5.369   1.761  0.3451 -1.7595 -0.1644
 8675SOL    HW236955   8.514   5.316   1.735 -0.6721  0.7897  0.4346
 8676SOL     OW36956   2.279   4.436   1.152  0.6307 -0.5091  0.4074
 8676SOL    HW136957   2.210   4.464   1.219 -0.3414 -1.7237 -0.0584
 8676SOL    HW236958   2.303   4.514   1.095 -0.4893 -0.0975  0.4751
 8677SOL     OW36959   0.222   9.816   1.813  0.2261 -0.3357 -0.2947
 8677SOL    HW136960   0.199   9.784   1.721  0.0286  2.2760 -1.2000
 8677SOL    HW236961   0.320   9.838   1.817  0.3431 -0.9564  0.2775
 8678SOL     OW36962   1.399   3.551   4.786 -0.4798  0.2759  0.2424
 8678SOL    HW136963   1.454   3.629   4.814 -0.1492  0.4143 -0.7625
 8678SOL    HW236964   1.443   3.505   4.709 -0.3850 -1.2480  1.1868
 8679SOL     OW36965   2.321   5.738   4.912  0.0239  0.3321 -0.0125
 8679SOL    HW136966   2.264   5.807   4.956  1.0833  0.0931  1.7982
 8679SOL    HW236967   2.403   5.782   4.875  0.6596  0.0868  1.0690
 8680SOL     OW36968   5.598   8.798   2.607  0.4590  0.0725  0.0490
 8680SOL    HW136969   5.522   8.780   2.545  1.0223  0.6826 -0.8299
 8680SOL    HW236970   5.587   8.744   2.690 -1.4404  0.8429  0.3362
 8681SOL     OW36971   3.734   4.444   1.893  0.4904  0.1140 -1.1975
 8681SOL    HW136972   3.751   4.366   1.953  1.2996  0.7863 -0.5355
 8681SOL    HW236973   3.753   4.529   1.942 -2.2327  0.8151 -1.2897
 8682SOL     OW36974   3.196   5.950   4.407 -0.7661  0.1711 -0.4955
 8682SOL    HW136975   3.240   5.945   4.497 -1.2256 -0.0953 -0.2872
 8682SOL    HW236976   3.157   5.861   4.384 -1.7825  0.5897 -0.3875
 8683SOL     OW36977   5.754   0.229   0.852  0.2900  0.3361  0.2665
 8683SOL    HW136978   5.841   0.254   0.894  0.2336 -0.1965  0.6972
 8683SOL    HW236979   5.759   0.245   0.753  0.9506  0.0959  0.2604
 8684SOL     OW36980   3.521   8.680   4.761  0.4121 -0.3130 -0.2482
 8684SOL    HW136981   3.494   8.716   4.850  0.1829 -2.6364  0.6799
 8684SOL    HW236982   3.439   8.654   4.709  0.4494  2.7745 -1.9510
 8685SOL     OW36983   2.013   5.602   2.279 -0.2326  0.5487 -0.4046
 8685SOL    HW136984   1.937   5.583   2.342  1.3243 -1.2471  1.0035
 8685SOL    HW236985   1.981   5.663   2.206 -2.7567  0.6193  0.6863
 8686SOL     OW36986   0.037   0.948   2.822 -0.1836  0.4248 -0.1978
 8686SOL    HW136987   0.111   1.014   2.830 -0.5222  0.7142  0.5519
 8686SOL    HW236988  -0.014   0.965   2.737  0.6300  0.1935 -0.7332
 8687SOL     OW36989   3.949   4.735   1.388 -0.3866 -0.3880 -0.4466
 8687SOL    HW136990   3.949   4.835   1.382 -1.3514 -0.2157  1.9985
 8687SOL    HW236991   3.871   4.698   1.337 -0.9967  0.2024  0.0583
 8688SOL     OW36992   1.201   5.113   0.378 -0.2257  0.7890  0.0784
 8688SOL    HW136993   1.258   5.060   0.440 -0.3293  2.3617  1.5867
 8688SOL    HW236994   1.195   5.068   0.290  0.7469 -1.0011  0.9116
 8689SOL     OW36995   7.998   1.704   1.474 -0.3540 -0.3226  0.2630
 8689SOL    HW136996   8.009   1.740   1.381 -2.3206  1.6098  0.7186
 8689SOL    HW236997   7.952   1.615   1.470 -2.1789  0.6203 -0.5623
 8690SOL     OW36998   0.102   5.207   2.262  0.1345 -0.8016 -0.5556
 8690SOL    HW136999   0.116   5.202   2.361  1.1103 -0.7283 -0.6880
 8690SOL    HW237000   0.005   5.219   2.243 -0.0843 -1.0467  0.3872
 8691SOL     OW37001   8.660   3.448   5.334  0.5484  0.2161 -0.1567
 8691SOL    HW137002   8.580   3.420   5.387  0.2239 -1.2712 -1.3801
 8691SOL    HW237003   8.645   3.540   5.298 -1.0514 -0.4271 -1.1856
 8692SOL     OW37004   2.537   8.602   1.117 -0.5532 -0.2792 -0.4502
 8692SOL    HW137005   2.523   8.540   1.040 -1.7551 -0.3503 -0.1766
 8692SOL    HW237006   2.619   8.657   1.101  0.3283 -1.6921 -0.8480
 8693SOL     OW37007   6.340   1.278   2.353 -0.3870  0.4243 -0.0832
 8693SOL    HW137008   6.366   1.245   2.263 -1.1888  1.5930 -0.7524
 8693SOL    HW237009   6.244   1.258   2.371 -0.1407 -0.1175  0.6580
 8694SOL     OW37010   0.933   9.473   1.396  0.2149 -0.1359 -0.0851
 8694SOL    HW137011   0.976   9.385   1.378  0.5521  0.4501 -2.2933
 8694SOL    HW237012   0.938   9.493   1.494 -0.6341 -2.9354  0.5708
 8695SOL     OW37013   2.515   4.065   4.042  0.0110  0.2560  0.5385
 8695SOL    HW137014   2.468   3.979   4.025  1.8766 -0.7106  0.1489
 8695SOL    HW237015   2.451   4.141   4.030 -0.6889 -0.8066 -3.1964
 8696SOL     OW37016   6.990   0.769   3.941 -0.6090 -0.2165 -0.2554
 8696SOL    HW137017   6.906   0.731   3.903 -1.1055 -0.9472  1.5514
 8696SOL    HW237018   7.068   0.738   3.886 -1.4011 -0.4897 -1.2329
 8697SOL     OW37019   0.262   8.295   4.622 -0.5398 -0.1133 -0.4425
 8697SOL    HW137020   0.198   8.219   4.615  0.9569 -1.5109  0.5571
 8697SOL    HW237021   0.220   8.370   4.673 -1.7690 -0.5592 -0.7865
 8698SOL     OW37022   4.082   7.764   3.438  0.0866 -0.0947 -0.2599
 8698SOL    HW137023   4.142   7.702   3.488 -1.4411  0.2289  2.0739
 8698SOL    HW237024   4.096   7.857   3.470  0.3182  0.3879 -1.7087
 8699SOL     OW37025   4.832   6.699   2.709  0.4624 -0.7129  0.2057
 8699SOL    HW137026   4.765   6.647   2.762  1.1730 -0.9643  0.8779
 8699SOL    HW237027   4.785   6.768   2.655 -0.1663  0.6552  2.4205
 8700SOL     OW37028   4.508   8.184   4.843 -0.2309  0.1712  0.6730
 8700SOL    HW137029   4.418   8.192   4.799 -0.2733  0.2613  0.7777
 8700SOL    HW237030   4.566   8.124   4.788  0.9157  3.1375 -1.4856
 8701SOL     OW37031   7.553   5.804   3.420 -0.1835  0.2822  0.1983
 8701SOL    HW137032   7.542   5.709   3.448  1.5691  0.4091  1.4048
 8701SOL    HW237033   7.619   5.810   3.345 -1.8148  0.3686 -1.2772
 8702SOL     OW37034   9.673   4.736   3.095 -0.2123 -0.2124  0.7566
 8702SOL    HW137035   9.660   4.677   3.016 -0.7461  1.7763 -0.6965
 8702SOL    HW237036   9.723   4.818   3.067  0.9819 -0.2046  2.8375
 8703SOL     OW37037   8.753   9.886   0.028  0.2567  0.3151 -0.0082
 8703SOL    HW137038   8.715   9.972   0.061 -0.5655 -0.5312  1.3067
 8703SOL    HW237039   8.756   9.887  -0.072  0.3364  1.8943  0.0019
 8704SOL     OW37040   0.178   1.164   0.728 -0.1963  0.0425  0.2452
 8704SOL    HW137041   0.178   1.198   0.822 -0.9310  2.2404 -0.5274
 8704SOL    HW237042   0.233   1.224   0.670 -2.7056  0.7950 -1.4312
 8705SOL     OW37043   1.959   0.030   4.518  0.3894 -0.2068  0.4705
 8705SOL    HW137044   1.900   0.071   4.588 -0.0261  0.5625 -0.3174
 8705SOL    HW237045   2.027   0.097   4.488  0.5170 -0.5073  0.0774
 8706SOL     OW37046   4.399   9.650   4.978  0.5656  0.2357 -0.0971
 8706SOL    HW137047   4.450   9.567   5.000 -0.7151 -0.7582 -0.8061
 8706SOL    HW237048   4.369   9.647   4.883 -3.5350 -0.7426  1.0918
 8707SOL     OW37049   0.305   5.228   4.481  0.2523  0.0252 -0.0038
 8707SOL    HW137050   0.354   5.281   4.550 -1.5674 -0.6987  1.8718
 8707SOL    HW237051   0.367   5.161   4.440  1.9191  1.8987 -0.6653
 8708SOL     OW37052   0.542   4.850   4.726  0.5377  0.1005  0.0427
 8708SOL    HW137053   0.566   4.876   4.820  1.3551 -0.7731  0.0826
 8708SOL    HW237054   0.620   4.865   4.666 -0.6454  2.6949 -0.9242
 8709SOL     OW37055   4.099   3.502   2.365  0.6231  0.5396  0.1016
 8709SOL    HW137056   4.031   3.568   2.399  0.0192  0.1439 -0.3293
 8709SOL    HW237057   4.067   3.409   2.383  0.8971  0.3464 -0.4079
 8710SOL     OW37058   7.079   9.800   3.921 -0.0759  0.2287 -0.1975
 8710SOL    HW137059   7.112   9.834   3.833  2.0758 -0.7204  0.2221
 8710SOL    HW237060   7.147   9.738   3.961  0.8249  3.6337  3.9547
 8711SOL     OW37061   5.309   7.631   3.251 -0.2627 -0.0083 -0.1972
 8711SOL    HW137062   5.278   7.633   3.156 -0.7026  0.1674 -0.0521
 8711SOL    HW237063   5.408   7.643   3.254 -0.1350 -0.8774 -0.6850
 8712SOL     OW37064   0.708   0.733   2.703 -0.0182  0.1832 -0.1554
 8712SOL    HW137065   0.797   0.773   2.725  0.2001  0.1317 -0.9155
 8712SOL    HW237066   0.712   0.694   2.611 -0.7691  0.0051 -0.1107
 8713SOL     OW37067   8.092   5.541   2.590 -0.5502  0.1770 -0.6589
 8713SOL    HW137068   8.122   5.604   2.662 -0.0076 -1.0835  0.2475
 8713SOL    HW237069   8.164   5.531   2.522 -0.1736 -0.3394 -0.1934
 8714SOL     OW37070   6.502   0.500   4.214 -0.0981  0.3707 -0.3820
 8714SOL    HW137071   6.403   0.514   4.205 -0.2496 -2.1595 -3.4712
 8714SOL    HW237072   6.550   0.573   4.166 -0.5466 -0.1128 -1.5888
 8715SOL     OW37073   5.073   6.717   2.926 -0.2753 -0.0372 -0.3596
 8715SOL    HW137074   4.978   6.707   2.957  0.1274  0.1400  0.9296
 8715SOL    HW237075   5.124   6.773   2.990  0.8981 -0.7110 -0.6806
 8716SOL     OW37076   9.792   4.215   1.648  0.2103  0.3024 -0.0043
 8716SOL    HW137077   9.856   4.219   1.725  0.2615 -0.7522  0.0122
 8716SOL    HW237078   9.727   4.140   1.662  0.1136  0.2131 -0.9090
 8717SOL     OW37079   1.866   5.829   3.803  0.2963 -0.1437  0.4808
 8717SOL    HW137080   1.961   5.797   3.799  0.4941 -0.0102  3.3106
 8717SOL    HW237081   1.820   5.786   3.880 -1.0843  2.0370  0.9028
 8718SOL     OW37082   4.280   9.215   1.466 -0.7228 -0.2023  0.6926
 8718SOL    HW137083   4.300   9.273   1.545 -0.7288 -0.2016  0.6928
 8718SOL    HW237084   4.343   9.238   1.392 -2.1096  1.3284 -0.0690
 8719SOL     OW37085   9.234   5.977   4.151 -0.2326 -0.9780  0.8766
 8719SOL    HW137086   9.300   5.917   4.105  0.8044  0.2083  0.7746
 8719SOL    HW237087   9.154   5.990   4.092  0.5267 -0.4815 -0.0582
 8720SOL     OW37088   6.502   9.922   2.082 -0.4701 -0.0201 -0.5023
 8720SOL    HW137089   6.599   9.898   2.073 -1.2127 -2.0346 -4.2622
 8720SOL    HW237090   6.453   9.845   2.122 -0.9540 -0.1302 -1.3041
 8721SOL     OW37091   1.278   2.993   3.661 -0.1306  0.5482 -0.0314
 8721SOL    HW137092   1.364   2.961   3.700  1.6203  1.2502 -3.1075
 8721SOL    HW237093   1.228   3.047   3.728  0.6345 -1.9111  2.5995
 8722SOL     OW37094   8.145   4.740   0.826 -0.5132 -0.2568 -0.0884
 8722SOL    HW137095   8.128   4.819   0.885 -0.3345  1.0658 -1.7629
 8722SOL    HW237096   8.058   4.708   0.788 -0.4544 -0.1499 -0.3112
 8723SOL     OW37097   1.333   1.089   3.377  0.2082  0.0657 -0.1021
 8723SOL    HW137098   1.278   1.167   3.346 -0.0420  0.0237  0.2331
 8723SOL    HW237099   1.272   1.019   3.415  0.1792 -1.3747 -2.6594
 8724SOL     OW37100   6.332   7.598   3.098  0.1327 -0.1511 -0.7449
 8724SOL    HW137101   6.399   7.524   3.089  0.7121  0.1304  0.9731
 8724SOL    HW237102   6.317   7.617   3.195 -2.0666  0.1485 -1.1297
 8725SOL     OW37103   7.516   6.977   2.581 -0.4284  0.1546 -0.5818
 8725SOL    HW137104   7.606   7.014   2.602  0.0655 -0.9107 -0.7524
 8725SOL    HW237105   7.465   7.041   2.524 -0.1960  1.2390  0.3986
 8726SOL     OW37106   3.122   7.029   4.347 -1.1220  0.0084  0.3840
 8726SOL    HW137107   3.080   7.071   4.428 -0.5521  1.1771  0.0896
 8726SOL    HW237108   3.124   7.095   4.272 -3.0641 -1.5797 -1.0979
 8727SOL     OW37109   4.071   2.826   1.273 -0.4845  0.1558  0.1336
 8727SOL    HW137110   4.158   2.840   1.227 -1.1917  0.8147 -1.0316
 8727SOL    HW237111   4.000   2.806   1.205 -1.4733  0.7813  0.9635
 8728SOL     OW37112   7.285   3.959   5.013  0.2140 -0.5445 -0.0526
 8728SOL    HW137113   7.275   3.884   5.079  1.9025  0.1705  1.0576
 8728SOL    HW237114   7.382   3.972   4.992  0.0506  1.9309  0.5122
 8729SOL     OW37115   9.954   8.935   3.439 -1.0753 -0.6131  0.2261
 8729SOL    HW137116   9.895   8.967   3.513 -0.2326  1.4890  0.0291
 8729SOL    HW237117   9.948   8.999   3.362  2.3781  0.3540  0.6728
 8730SOL     OW37118   9.307   4.503   3.374 -0.0688  0.3588 -0.3685
 8730SOL    HW137119   9.367   4.541   3.304  0.1074  0.4023 -0.1949
 8730SOL    HW237120   9.351   4.424   3.416 -0.2377  0.2422 -0.4081
 8731SOL     OW37121   4.200   8.309   0.944  0.5494  0.3319 -0.1254
 8731SOL    HW137122   4.111   8.340   0.913  0.9843  1.3173 -0.3844
 8731SOL    HW237123   4.191   8.268   1.035 -0.0761  0.9173  0.0755
 8732SOL     OW37124   1.296   0.641   4.742 -0.0440 -0.1800  0.3691
 8732SOL    HW137125   1.276   0.665   4.837 -0.3615  0.1940  0.2050
 8732SOL    HW237126   1.306   0.542   4.735  0.6434 -0.1607  0.9207
 8733SOL     OW37127   1.361   4.176   4.472  0.1974 -0.5645  0.1465
 8733SOL    HW137128   1.281   4.178   4.412 -0.0269  0.4519  0.4686
 8733SOL    HW237129   1.380   4.081   4.499 -0.6848 -0.8475 -0.2072
 8734SOL     OW37130   9.144   3.364   2.925 -0.4377  0.0556 -0.2431
 8734SOL    HW137131   9.236   3.380   2.959 -1.7730  0.9027  3.1705
 8734SOL    HW237132   9.129   3.420   2.843  0.7518  3.1690  1.5570
 8735SOL     OW37133   4.514   3.173   0.365  0.7336  0.2440 -0.2889
 8735SOL    HW137134   4.434   3.114   0.359  0.5441  0.3197  1.2456
 8735SOL    HW237135   4.517   3.233   0.285 -1.8879  1.6545  0.6042
 8736SOL     OW37136   1.231   7.105   4.571  0.1615 -0.0177 -0.0129
 8736SOL    HW137137   1.303   7.054   4.525 -0.2497 -0.6787  0.0750
 8736SOL    HW237138   1.141   7.071   4.542 -0.1112 -1.3662  2.2813
 8737SOL     OW37139   5.999   9.919   3.371 -0.2513 -0.1601 -0.1478
 8737SOL    HW137140   6.082   9.929   3.426  0.1223 -1.8367 -0.3826
 8737SOL    HW237141   6.025   9.901   3.276 -0.8888  0.5022 -0.4495
 8738SOL     OW37142   6.793   7.543   2.592  1.0531 -0.4401  0.1050
 8738SOL    HW137143   6.797   7.527   2.493 -0.1247  0.8873 -0.1896
 8738SOL    HW237144   6.875   7.592   2.621 -0.2461  2.4797 -0.9151
 8739SOL     OW37145   9.177   7.608   1.101  0.0151 -0.1507 -0.9177
 8739SOL    HW137146   9.237   7.534   1.070  1.6193  1.4127 -1.6886
 8739SOL    HW237147   9.209   7.694   1.062 -1.3899  1.0491  0.5273
 8740SOL     OW37148   3.339   2.746   4.590  0.0318 -0.5186 -0.1223
 8740SOL    HW137149   3.300   2.802   4.662  0.9602 -1.0709  0.8283
 8740SOL    HW237150   3.394   2.803   4.529 -0.3683 -0.1282 -0.1161
 8741SOL     OW37151   2.690   8.219   1.591 -1.2503 -0.3352 -0.2051
 8741SOL    HW137152   2.674   8.201   1.494 -0.4897  1.3582 -0.6593
 8741SOL    HW237153   2.603   8.213   1.641 -1.7827 -0.3479 -1.1287
 8742SOL     OW37154   0.593   2.465   3.892  0.1271 -0.4633 -0.4601
 8742SOL    HW137155   0.579   2.416   3.979 -0.8215  0.0232 -0.3329
 8742SOL    HW237156   0.516   2.527   3.877  0.6735  0.0059 -1.2816
 8743SOL     OW37157   1.943   5.065   3.318  0.0144 -0.1724  0.0051
 8743SOL    HW137158   1.954   5.163   3.301 -0.1439 -0.3760 -1.2966
 8743SOL    HW237159   1.998   5.013   3.253 -0.0765 -0.9652  0.5463
 8744SOL     OW37160   8.023   8.102   2.488 -0.0955  0.4944  0.1917
 8744SOL    HW137161   8.107   8.155   2.499  0.7398 -0.5856 -0.8341
 8744SOL    HW237162   8.008   8.046   2.570 -0.0595  1.0248  0.5634
 8745SOL     OW37163   4.791   8.713   4.737 -0.2211  0.7573  0.5381
 8745SOL    HW137164   4.763   8.676   4.649 -1.6466 -1.5746  1.9245
 8745SOL    HW237165   4.886   8.746   4.731 -0.5545  1.3401 -2.0237
 8746SOL     OW37166   7.602   0.838   3.050 -0.4333 -0.0957  0.3151
 8746SOL    HW137167   7.633   0.757   3.000  0.3673  0.7050 -0.5099
 8746SOL    HW237168   7.512   0.865   3.017 -0.3719 -0.1988  0.0583
 8747SOL     OW37169   4.736   1.064   5.074  0.1340 -0.4611 -0.3460
 8747SOL    HW137170   4.807   1.064   5.144  1.2825 -0.0779 -1.4799
 8747SOL    HW237171   4.727   0.972   5.035 -0.4265 -0.6484  0.2123
 8748SOL     OW37172   2.823   9.941   5.182 -0.5677  0.2449  0.3992
 8748SOL    HW137173   2.819   9.964   5.279 -0.7211 -0.5880  0.5914
 8748SOL    HW237174   2.737   9.966   5.137 -0.9914 -0.5924  0.7470
 8749SOL     OW37175   0.475   1.252   2.215  0.1159  0.3170  0.2421
 8749SOL    HW137176   0.441   1.158   2.208  0.3062  0.1352  1.4878
 8749SOL    HW237177   0.400   1.312   2.243  0.6139  0.0264  2.3319
 8750SOL     OW37178   0.810   7.874   2.480  0.4332  0.4534  0.0196
 8750SOL    HW137179   0.783   7.810   2.408 -0.7323 -0.1247  0.9609
 8750SOL    HW237180   0.759   7.855   2.564  1.9300  0.9708  1.0913
 8751SOL     OW37181   5.423   1.974   2.455 -0.0472  0.5234  0.2760
 8751SOL    HW137182   5.505   1.993   2.401 -0.1666  1.7690  0.5182
 8751SOL    HW237183   5.450   1.949   2.549  0.0787  0.2387  0.1653
 8752SOL     OW37184   2.407   8.781   0.877 -0.0431  0.8689  0.4482
 8752SOL    HW137185   2.334   8.842   0.910 -0.6462 -0.9569  2.5890
 8752SOL    HW237186   2.375   8.687   0.880  2.5984 -0.0387  2.0384
 8753SOL     OW37187   5.395   0.635   0.955 -0.1810 -0.2717  0.5336
 8753SOL    HW137188   5.490   0.614   0.934 -0.4508 -1.3153  0.3059
 8753SOL    HW237189   5.348   0.552   0.985 -1.4196 -0.1244 -0.8948
 8754SOL     OW37190   8.745   5.386   4.819 -0.3976  0.2372 -0.0645
 8754SOL    HW137191   8.775   5.312   4.880 -0.9722 -0.0342 -0.1097
 8754SOL    HW237192   8.777   5.367   4.726  1.3957  1.1814  0.3303
 8755SOL     OW37193   0.208   5.438   4.342  0.1288  0.3651  0.2739
 8755SOL    HW137194   0.202   5.510   4.412 -1.0767  1.2744 -0.7374
 8755SOL    HW237195   0.241   5.354   4.384  1.2431  1.4058  1.5626
 8756SOL     OW37196   8.129   1.498   1.874  0.3082 -0.0701  0.0565
 8756SOL    HW137197   8.229   1.501   1.870  0.2898 -0.0862 -0.4304
 8756SOL    HW237198   8.100   1.446   1.954  0.6883 -0.2383  0.0845
 8757SOL     OW37199   1.551   9.064   2.644  0.5010  0.3069  0.7412
 8757SOL    HW137200   1.531   9.033   2.737 -1.2107 -1.2466 -0.0934
 8757SOL    HW237201   1.650   9.060   2.628  0.6988 -0.5960  2.0940
 8758SOL     OW37202   3.383   5.311   1.749  0.8894  0.3100 -0.4891
 8758SOL    HW137203   3.431   5.330   1.664  1.3862  0.5925 -0.1481
 8758SOL    HW237204   3.373   5.396   1.802 -1.4052  0.5744 -1.2768
 8759SOL     OW37205   3.563   8.661   1.761 -0.4435 -0.1176 -0.6336
 8759SOL    HW137206   3.567   8.655   1.860 -0.2368  0.2235 -0.6215
 8759SOL    HW237207   3.586   8.573   1.721  1.7886  0.3575 -0.4378
 8760SOL     OW37208   2.477   0.804   0.021  0.1824  0.0858  0.3773
 8760SOL    HW137209   2.431   0.839   0.102 -0.0055 -1.7550  1.0877
 8760SOL    HW237210   2.575   0.823   0.027  0.0926  0.4107  0.8020
 8761SOL     OW37211   7.301   9.410   2.192  0.2633  0.2928  0.4566
 8761SOL    HW137212   7.303   9.413   2.292  1.1295  0.9385  0.4259
 8761SOL    HW237213   7.369   9.473   2.156 -2.2848  2.5091 -0.5827
 8762SOL     OW37214   8.747   6.763   3.981  0.2150  0.4782 -0.3961
 8762SOL    HW137215   8.839   6.801   3.970  0.3459  0.2417 -0.1252
 8762SOL    HW237216   8.750   6.664   3.968  0.1397  0.3657  0.4090
 8763SOL     OW37217   6.247   9.535   2.534 -0.0422  0.4226 -0.2656
 8763SOL    HW137218   6.304   9.593   2.592  0.4473  0.4552 -0.7707
 8763SOL    HW237219   6.279   9.541   2.439  1.3207 -2.2261 -0.0175
 8764SOL     OW37220   2.751   7.748   0.929 -0.6289  0.0755 -0.0024
 8764SOL    HW137221   2.686   7.760   1.004 -0.0426  1.9025  0.2397
 8764SOL    HW237222   2.783   7.838   0.898  0.6674 -0.7447 -1.0911
 8765SOL     OW37223   9.822   3.927   2.794 -0.0952 -0.0102  0.3795
 8765SOL    HW137224   9.743   3.903   2.850  1.7280 -1.1951  2.5440
 8765SOL    HW237225   9.835   3.858   2.724 -1.5952  0.7642 -0.6872
 8766SOL     OW37226   9.873   8.838   2.834 -0.5656 -0.3081 -0.0436
 8766SOL    HW137227   9.812   8.779   2.888 -0.6784  0.0812  0.2574
 8766SOL    HW237228   9.919   8.783   2.764 -2.5587 -0.3111 -1.4065
 8767SOL     OW37229   9.409   8.235   4.032  0.4593  0.2919 -0.5268
 8767SOL    HW137230   9.371   8.194   3.950  0.2549  3.2177 -1.9511
 8767SOL    HW237231   9.337   8.278   4.085  1.0763  1.5803 -0.7105
 8768SOL     OW37232   4.674   8.225   3.091  0.0802  0.0013 -0.2173
 8768SOL    HW137233   4.638   8.317   3.110 -0.8995 -0.1549 -1.2453
 8768SOL    HW237234   4.773   8.230   3.082  0.2546  0.6186  1.6634
 8769SOL     OW37235   9.352   5.608   4.824  0.3620 -0.1431  0.5460
 8769SOL    HW137236   9.350   5.531   4.761  0.7482  0.2056  0.1005
 8769SOL    HW237237   9.444   5.618   4.861  0.2090 -0.1602  0.9353
 8770SOL     OW37238   0.803   3.415   5.330 -0.2466 -0.1887 -0.6161
 8770SOL    HW137239   0.764   3.325   5.312  1.2697 -1.1980  1.0107
 8770SOL    HW237240   0.737   3.469   5.383  0.6963 -2.1079  2.6606
 8771SOL     OW37241   8.749   2.490   0.369 -0.2556 -0.1997 -0.1987
 8771SOL    HW137242   8.702   2.570   0.333  0.6748  0.4901  0.0788
 8771SOL    HW237243   8.713   2.468   0.460 -1.3951 -0.8805 -0.8053
 8772SOL     OW37244   3.466   8.779   0.403 -0.1412 -0.4486 -0.1711
 8772SOL    HW137245   3.475   8.869   0.360 -1.2786  0.3311  1.1514
 8772SOL    HW237246   3.547   8.760   0.457  0.7109 -0.8414 -1.5835
 8773SOL     OW37247   8.060   6.805   1.796  0.2025  0.4400  0.5466
 8773SOL    HW137248   8.024   6.712   1.805  1.0007  0.2181  1.5986
 8773SOL    HW237249   8.024   6.863   1.868  0.4329  0.7087  0.4499
 8774SOL     OW37250   0.410   6.801   3.319  0.0834 -0.1062 -0.3278
 8774SOL    HW137251   0.411   6.889   3.366  3.7296 -0.5208  0.5152
 8774SOL    HW237252   0.429   6.728   3.384 -1.2622 -1.3464 -1.3107
 8775SOL     OW37253   0.636   1.761   0.226 -0.3232  0.1818  0.1291
 8775SOL    HW137254   0.683   1.682   0.265  0.7083  0.0620 -1.2917
 8775SOL    HW237255   0.690   1.797   0.149 -0.2556  2.8832  1.3592
 8776SOL     OW37256   2.424   2.713   4.023  0.3284  0.6172  0.3472
 8776SOL    HW137257   2.509   2.667   4.050  0.0954  0.4922  0.8740
 8776SOL    HW237258   2.373   2.740   4.105 -1.1391 -1.1675  0.0521
 8777SOL     OW37259   1.532   6.429   1.764 -0.3471 -0.9818  0.2014
 8777SOL    HW137260   1.513   6.346   1.711 -0.5062 -0.6559 -0.2448
 8777SOL    HW237261   1.496   6.509   1.716  1.8997 -0.3757 -0.5073
 8778SOL     OW37262   1.140   0.413   4.474 -0.2933 -0.1670 -0.8260
 8778SOL    HW137263   1.169   0.325   4.435  3.0870  0.7243 -0.5181
 8778SOL    HW237264   1.148   0.485   4.405 -0.5552  0.3279 -0.3434
 8779SOL     OW37265   8.526   4.271   2.398 -0.7204  0.1641  0.1880
 8779SOL    HW137266   8.575   4.219   2.329  0.0263 -0.4248  1.1439
 8779SOL    HW237267   8.479   4.348   2.355 -0.0868 -0.0644 -0.9348
 8780SOL     OW37268   9.159   4.063   1.870  0.1093  0.1207 -0.5110
 8780SOL    HW137269   9.213   4.085   1.952 -0.1300  1.4356 -0.6902
 8780SOL    HW237270   9.195   3.980   1.828  1.7637  0.7676 -0.4086
 8781SOL     OW37271   0.834   4.963   1.979 -0.3866 -0.5485 -0.1285
 8781SOL    HW137272   0.811   4.898   1.906 -0.8550  1.0792 -1.4477
 8781SOL    HW237273   0.751   5.003   2.015  0.0963  2.8543 -2.6078
 8782SOL     OW37274   3.284   5.506   5.556  0.2842  0.3535  0.0200
 8782SOL    HW137275   3.359   5.559   5.594 -0.1336  1.2547 -0.3801
 8782SOL    HW237276   3.242   5.450   5.627 -0.6246  2.1738  0.9663
 8783SOL     OW37277   0.535   4.461   3.091 -0.2775 -0.5423  0.0372
 8783SOL    HW137278   0.562   4.416   3.006 -0.0169 -0.6758  0.1917
 8783SOL    HW237279   0.609   4.520   3.123 -0.5600 -0.1161 -0.0850
 8784SOL     OW37280   4.646   3.359   4.068  0.5819  0.1968 -0.3613
 8784SOL    HW137281   4.662   3.261   4.079 -0.5953 -0.0539 -0.8816
 8784SOL    HW237282   4.604   3.377   3.979 -2.2640  0.8002  1.0333
 8785SOL     OW37283   5.819   0.190   2.250  0.6130  0.4052 -0.0372
 8785SOL    HW137284   5.816   0.198   2.350  0.3714  0.8649 -0.0804
 8785SOL    HW237285   5.898   0.240   2.215 -0.2794  1.7184 -0.2148
 8786SOL     OW37286   7.269   9.758   1.365 -0.3088  0.0190 -0.0282
 8786SOL    HW137287   7.347   9.696   1.362 -0.1592  0.0413  2.1241
 8786SOL    HW237288   7.261   9.807   1.278  3.1512  1.3353  0.3054
 8787SOL     OW37289   5.654   7.293   2.340  0.1596  0.0175  0.4011
 8787SOL    HW137290   5.722   7.348   2.291 -1.5933  1.2397 -0.7432
 8787SOL    HW237291   5.595   7.354   2.395 -0.2436 -0.9700  1.0755
 8788SOL     OW37292   3.609   3.504   5.052 -0.5509 -0.5932  0.0949
 8788SOL    HW137293   3.650   3.461   4.972 -0.7435 -1.3451  0.3939
 8788SOL    HW237294   3.537   3.445   5.088 -1.6188  0.5291 -0.1786
 8789SOL     OW37295   8.403   0.333   1.672  0.2909  0.2950 -0.0467
 8789SOL    HW137296   8.391   0.428   1.644 -0.3220  0.3394  0.3696
 8789SOL    HW237297   8.490   0.323   1.720  0.7793  0.4643 -0.8886
 8790SOL     OW37298   3.420   8.678   0.740 -0.1509 -0.2051 -0.1329
 8790SOL    HW137299   3.414   8.778   0.746  0.1117 -0.1419 -0.8923
 8790SOL    HW237300   3.504   8.652   0.692 -0.6951 -0.7695 -0.7888
 8791SOL     OW37301   3.107   1.871   2.024 -0.0983  0.5360  0.0048
 8791SOL    HW137302   3.064   1.813   1.955 -3.4596  0.5445  1.9947
 8791SOL    HW237303   3.159   1.815   2.088  2.0183  0.4239 -1.7178
 8792SOL     OW37304   5.893   0.842   4.249  0.2810 -0.1797 -0.1092
 8792SOL    HW137305   5.989   0.844   4.223 -0.4096  0.2412 -2.8356
 8792SOL    HW237306   5.878   0.770   4.317  2.3715 -0.8179 -0.2980
 8793SOL     OW37307   3.348   8.846   3.389  0.5779  0.4177  0.2527
 8793SOL    HW137308   3.357   8.929   3.444 -1.3723  0.4011  0.6262
 8793SOL    HW237309   3.299   8.777   3.441  1.0546 -0.5259 -0.5410
 8794SOL     OW37310   0.443   0.206   4.899  0.0597 -0.3886  0.1711
 8794SOL    HW137311   0.408   0.294   4.930  2.7691  0.3608  1.2852
 8794SOL    HW237312   0.427   0.197   4.800 -0.9506  1.0188  0.1964
 8795SOL     OW37313   5.466   1.146   2.814 -0.5235 -0.3963 -0.0722
 8795SOL    HW137314   5.514   1.167   2.899  0.6539 -1.0507 -0.5652
 8795SOL    HW237315   5.454   1.047   2.806 -0.2343 -0.3713 -0.8783
 8796SOL     OW37316   7.983   3.836   2.178 -0.8873 -0.0437 -0.5743
 8796SOL    HW137317   8.067   3.783   2.192 -0.8211  0.4505  0.9906
 8796SOL    HW237318   7.953   3.874   2.265 -2.3364  0.4016 -1.2571
 8797SOL     OW37319   1.408   8.772   1.389 -0.5744 -0.9866 -0.6832
 8797SOL    HW137320   1.394   8.760   1.291  0.1072 -1.8323 -0.6906
 8797SOL    HW237321   1.435   8.684   1.430 -0.8140 -0.6333  0.2504
 8798SOL     OW37322   4.848   2.176   3.433 -0.2460 -0.1342  0.5169
 8798SOL    HW137323   4.898   2.147   3.515  0.8327 -0.8794 -0.3969
 8798SOL    HW237324   4.830   2.097   3.375  1.0587  0.7161 -1.0876
 8799SOL     OW37325   9.131   3.023   2.983  0.1882  0.1712  0.2296
 8799SOL    HW137326   9.114   2.925   2.971 -1.0454  0.3373  0.6410
 8799SOL    HW237327   9.162   3.040   3.076  0.9866  0.1069 -0.0133
 8800SOL     OW37328   5.264   6.874   1.852 -0.9770  0.3604  0.1746
 8800SOL    HW137329   5.200   6.950   1.867  1.5031  2.2735  1.5721
 8800SOL    HW237330   5.327   6.898   1.778  0.2417  0.0110  1.0643
 8801SOL     OW37331   0.690   9.889   2.756  0.0682 -0.4408 -0.1030
 8801SOL    HW137332   0.662   9.897   2.660  1.2046  0.3253 -0.3857
 8801SOL    HW237333   0.615   9.916   2.815 -0.1474  0.5988 -0.8263
 8802SOL     OW37334   0.740   9.746   3.510 -0.4318 -0.0117 -0.4313
 8802SOL    HW137335   0.721   9.714   3.417 -2.9374  0.0121  0.0259
 8802SOL    HW237336   0.835   9.776   3.517  0.1613 -1.2804 -2.6114
 8803SOL     OW37337   9.445   3.393   4.366 -0.0503 -0.1247 -0.1488
 8803SOL    HW137338   9.543   3.402   4.384 -0.4453  0.9834  1.4880
 8803SOL    HW237339   9.411   3.310   4.409 -0.0579  0.0684  0.2144
 8804SOL     OW37340   3.502   3.642   1.505  0.3268  0.1656  0.0779
 8804SOL    HW137341   3.546   3.614   1.590 -0.0333 -0.1876  0.1477
 8804SOL    HW237342   3.563   3.623   1.428  0.1294 -0.7015  0.1356
 8805SOL     OW37343   6.358   8.775   3.149 -0.1251 -0.1991 -0.1834
 8805SOL    HW137344   6.265   8.746   3.127  0.0812 -2.2689  1.6533
 8805SOL    HW237345   6.423   8.702   3.126  1.0576  1.1518 -1.2757
 8806SOL     OW37346   0.493   7.141   1.723  0.5082 -0.4891 -0.3554
 8806SOL    HW137347   0.503   7.189   1.810  1.3537  1.6295 -1.5898
 8806SOL    HW237348   0.413   7.176   1.675  1.3182 -0.0716 -1.4123
 8807SOL     OW37349   0.623   7.234   5.597  0.1967 -0.0713  0.0823
 8807SOL    HW137350   0.682   7.272   5.525  0.2056  0.9683  0.6348
 8807SOL    HW237351   0.583   7.148   5.565  0.8880 -0.0577 -0.8394
 8808SOL     OW37352   3.686   8.443   5.113 -0.0699 -0.2368 -0.2419
 8808SOL    HW137353   3.723   8.495   5.036 -0.6952  1.2281  0.4289
 8808SOL    HW237354   3.755   8.437   5.186 -0.2278  0.2501 -0.0479
 8809SOL     OW37355   3.586   9.366   1.108 -0.3796  0.2964  0.2149
 8809SOL    HW137356   3.547   9.316   1.030 -1.8545  0.5740  0.7711
 8809SOL    HW237357   3.673   9.323   1.134 -0.2168 -0.2251 -1.1356
 8810SOL     OW37358   3.151   6.541   3.114  0.3013 -0.0532 -0.3609
 8810SOL    HW137359   3.102   6.567   3.031  0.1752 -0.7135 -0.4955
 8810SOL    HW237360   3.118   6.452   3.146  0.9306 -0.1890 -0.0778
 8811SOL     OW37361   0.245   4.226   4.242  0.2494  0.8697  0.0701
 8811SOL    HW137362   0.295   4.246   4.158  0.6764 -0.9586 -0.1266
 8811SOL    HW237363   0.162   4.176   4.220  0.4420  0.2414  0.7467
 8812SOL     OW37364   1.812   8.098   5.427 -0.1536 -0.3330 -0.2014
 8812SOL    HW137365   1.897   8.046   5.440  1.3167  2.0663  0.1577
 8812SOL    HW237366   1.734   8.041   5.454  1.4221 -2.1232  0.7806
 8813SOL     OW37367   8.125   0.320   1.557  0.2998 -0.4568 -0.3784
 8813SOL    HW137368   8.078   0.398   1.597  0.2568 -0.9816  0.5921
 8813SOL    HW237369   8.218   0.314   1.595  0.1305 -1.1715 -0.0753
 8814SOL     OW37370   4.493   1.997   1.303 -0.0096 -0.1007 -0.6411
 8814SOL    HW137371   4.417   2.008   1.238  0.1378  1.1875 -0.6036
 8814SOL    HW237372   4.540   1.911   1.283  0.2279  0.4235 -2.4590
 8815SOL     OW37373   2.048   5.979   1.659  0.2221 -0.0118  0.2079
 8815SOL    HW137374   2.083   6.007   1.570 -2.4344  0.8304 -0.6077
 8815SOL    HW237375   2.051   6.056   1.722  0.4613 -0.1283  0.3414
 8816SOL     OW37376   4.557   0.448   0.837 -0.2053 -0.0880  0.4278
 8816SOL    HW137377   4.536   0.350   0.846  0.3540 -0.1411  1.2817
 8816SOL    HW237378   4.472   0.500   0.841 -0.3686 -0.4251  1.8757
 8817SOL     OW37379   5.547   1.378   4.774 -0.0756  0.2553 -0.1509
 8817SOL    HW137380   5.608   1.316   4.725  0.4998 -0.1183  1.0291
 8817SOL    HW237381   5.490   1.327   4.838  0.1556  0.8965  0.5760
 8818SOL     OW37382   7.845   7.647   2.657 -0.0357  0.3761 -0.2271
 8818SOL    HW137383   7.825   7.671   2.562 -0.2896 -1.9043 -0.7848
 8818SOL    HW237384   7.794   7.708   2.719 -0.2659  1.5442 -1.5500
 8819SOL     OW37385   0.747   5.195   5.331  0.9188  0.0768 -0.3114
 8819SOL    HW137386   0.760   5.294   5.330  0.6969  0.1114  0.0269
 8819SOL    HW237387   0.795   5.154   5.253  2.8937  0.2216  0.7941
 8820SOL     OW37388   9.049   9.537   3.424  0.6776  0.5948 -0.0580
 8820SOL    HW137389   9.105   9.540   3.507  0.7972  0.1068 -0.1220
 8820SOL    HW237390   8.992   9.620   3.420 -1.4545 -0.7026  1.9787
 8821SOL     OW37391   7.205   9.681   5.332 -0.2539 -0.1314 -0.5955
 8821SOL    HW137392   7.205   9.673   5.233 -2.5923  1.6663 -0.7858
 8821SOL    HW237393   7.242   9.597   5.372  0.4207 -1.0003 -2.9542
 8822SOL     OW37394   7.989   9.545   2.696 -0.3549 -0.1638 -0.0367
 8822SOL    HW137395   8.036   9.487   2.763 -0.6361  0.6234  0.8545
 8822SOL    HW237396   8.021   9.639   2.705 -1.5383  0.2429  0.0701
 8823SOL     OW37397   8.056   8.840   4.923  0.0273  0.1112  0.2983
 8823SOL    HW137398   8.127   8.850   4.994  0.0961 -0.3206  0.2912
 8823SOL    HW237399   8.083   8.767   4.860 -0.9384 -0.7779  0.9097
 8824SOL     OW37400   2.469   6.883   2.246  0.4083  0.8986  0.0203
 8824SOL    HW137401   2.465   6.797   2.296 -0.5196  1.2608  0.5794
 8824SOL    HW237402   2.419   6.873   2.159  0.0890  0.9470  0.1979
 8825SOL     OW37403   9.770   1.747   1.629 -0.0571 -0.3846 -0.3973
 8825SOL    HW137404   9.690   1.776   1.682 -0.7429  0.1872 -1.7000
 8825SOL    HW237405   9.756   1.653   1.596  0.4038 -0.7676  0.4996
 8826SOL     OW37406   2.021   0.775   1.127 -0.8803 -0.4196 -0.0393
 8826SOL    HW137407   2.090   0.734   1.186 -2.9510 -3.0638  0.6407
 8826SOL    HW237408   2.022   0.874   1.138  1.0001 -0.6254  1.9382
 8827SOL     OW37409   2.991   8.280   2.680 -0.0070 -0.4252  0.4945
 8827SOL    HW137410   3.007   8.192   2.725  0.4532  0.1100  1.3964
 8827SOL    HW237411   3.029   8.278   2.588  0.0617 -1.1457  0.5375
 8828SOL     OW37412   3.817   4.420   5.272  0.1352  0.8646 -0.1269
 8828SOL    HW137413   3.774   4.437   5.184 -0.2927  1.9210  0.2730
 8828SOL    HW237414   3.809   4.502   5.329  1.6838  0.6780  0.3646
 8829SOL     OW37415   9.908   2.756   4.152  0.4285 -0.5795 -0.0160
 8829SOL    HW137416   9.841   2.715   4.090 -0.0633 -0.0406  0.1657
 8829SOL    HW237417   9.968   2.684   4.188  0.4874 -0.9450 -0.8280
 8830SOL     OW37418   9.487   7.110   1.444  0.3674  0.3752  0.2466
 8830SOL    HW137419   9.454   7.186   1.500 -0.3876 -0.6110  1.1586
 8830SOL    HW237420   9.423   7.033   1.451  1.4302 -0.5586 -0.1956
 8831SOL     OW37421   2.783   9.491   5.282 -0.2886 -0.0119 -0.6269
 8831SOL    HW137422   2.699   9.458   5.238  0.1622 -0.4264 -1.1998
 8831SOL    HW237423   2.767   9.581   5.322 -0.5792  0.5980 -2.0788
 8832SOL     OW37424   2.778   1.532   1.228  0.0639 -0.0747  0.4408
 8832SOL    HW137425   2.731   1.561   1.312  1.3861  0.1245  1.1245
 8832SOL    HW237426   2.756   1.595   1.154  0.2511  0.7375  1.0724
 8833SOL     OW37427   8.149   9.253   0.274  0.3803 -0.3191  0.4576
 8833SOL    HW137428   8.246   9.279   0.276  1.1263 -2.8678 -0.9095
 8833SOL    HW237429   8.140   9.156   0.297 -1.5776 -0.8312 -2.2392
 8834SOL     OW37430   5.008   1.350   3.533 -0.0021  0.3460 -0.2429
 8834SOL    HW137431   4.988   1.442   3.502  0.5648  0.8763  0.9063
 8834SOL    HW237432   5.006   1.347   3.633  0.3276 -0.8044 -0.2533
 8835SOL     OW37433   8.888   9.316   4.436 -0.3439  0.0845 -0.8098
 8835SOL    HW137434   8.932   9.304   4.525 -1.4298 -0.6387 -0.3426
 8835SOL    HW237435   8.945   9.372   4.377  1.4833 -1.3435 -0.4469
 8836SOL     OW37436   1.367   6.729   1.186 -0.4803  0.3513  0.0000
 8836SOL    HW137437   1.296   6.711   1.118  0.0719 -2.9338  0.2131
 8836SOL    HW237438   1.453   6.752   1.140 -0.5595 -0.0849 -0.3642
 8837SOL     OW37439   1.136   2.726   2.300 -0.3785 -0.6918  0.1462
 8837SOL    HW137440   1.077   2.695   2.375 -0.5750 -1.9613 -0.5101
 8837SOL    HW237441   1.211   2.662   2.289 -0.0014 -0.1675 -0.3363
 8838SOL     OW37442   3.117   9.671   1.612  0.0898 -0.1727 -0.1561
 8838SOL    HW137443   3.122   9.650   1.710  2.3577 -0.5838 -0.3459
 8838SOL    HW237444   3.206   9.654   1.570 -0.6068  0.9663 -2.1099
 8839SOL     OW37445   1.272   0.097   0.799  0.1896  0.4201  0.0750
 8839SOL    HW137446   1.198   0.145   0.846  1.3157  1.6304  0.6176
 8839SOL    HW237447   1.286   0.138   0.709  1.7487  1.7007  0.8902
 8840SOL     OW37448   2.394   1.831   1.566  1.1330  0.3111  0.5853
 8840SOL    HW137449   2.364   1.914   1.613 -0.6080  0.1734 -0.2329
 8840SOL    HW237450   2.475   1.852   1.511  0.7155  1.4686  0.3934
 8841SOL     OW37451   9.098   2.936   3.752 -0.0324  0.2220  0.4059
 8841SOL    HW137452   9.059   2.953   3.661  0.5170  0.3900  0.1992
 8841SOL    HW237453   9.191   2.901   3.743  0.2219  0.7518  0.9103
 8842SOL     OW37454   5.164   8.441   3.503  0.3331 -0.5738 -0.2320
 8842SOL    HW137455   5.091   8.451   3.571  1.4993 -0.8988  1.0775
 8842SOL    HW237456   5.125   8.452   3.411 -1.3139 -0.4600  0.4588
 8843SOL     OW37457   5.996   9.501   3.322  0.4355  0.1374 -0.0579
 8843SOL    HW137458   5.967   9.407   3.339  1.4465  0.2464  2.5285
 8843SOL    HW237459   5.940   9.541   3.250  0.9329 -2.8939 -2.2129
 8844SOL     OW37460   1.339   1.769   1.937 -0.1796 -0.5930  0.3384
 8844SOL    HW137461   1.244   1.784   1.964 -0.4112  0.1904 -0.9103
 8844SOL    HW237462   1.344   1.693   1.872 -0.1854  0.5680 -1.0384
 8845SOL     OW37463   6.629   8.623   2.427 -0.3031 -0.2521  0.3481
 8845SOL    HW137464   6.553   8.561   2.444 -0.2350 -0.2562  0.6509
 8845SOL    HW237465   6.678   8.639   2.513 -1.3622  1.5934  0.6368
 8846SOL     OW37466   4.958   7.895   1.184  0.1537 -0.1078  0.6368
 8846SOL    HW137467   4.885   7.943   1.135  2.6241  1.5279 -1.5857
 8846SOL    HW237468   4.919   7.842   1.259 -3.3129  0.5726 -0.6099
 8847SOL     OW37469   1.163   6.930   1.636 -0.3696  0.6104  0.4303
 8847SOL    HW137470   1.152   6.842   1.591  0.5059  0.7434 -0.0533
 8847SOL    HW237471   1.092   6.993   1.604  0.4643  0.8161 -1.0422
 8848SOL     OW37472   4.117   4.421   5.509  0.2784 -0.7464  0.2944
 8848SOL    HW137473   4.121   4.390   5.413 -0.8809 -0.3555  0.1147
 8848SOL    HW237474   4.081   4.347   5.565 -1.9417  0.0475 -0.0474
 8849SOL     OW37475   8.259   2.927   4.342  0.0683  0.7534 -0.0728
 8849SOL    HW137476   8.334   2.969   4.291  2.1202  0.2427  2.4462
 8849SOL    HW237477   8.277   2.829   4.352 -1.3016  0.4996 -0.0453
 8850SOL     OW37478   7.536   8.833   2.227 -0.2290  0.3503  0.6554
 8850SOL    HW137479   7.623   8.813   2.272  0.9840 -0.7420 -2.0692
 8850SOL    HW237480   7.476   8.753   2.231 -0.4949  0.5755  1.1696
 8851SOL     OW37481   0.399   5.738   3.972  0.3487 -0.2101  0.1820
 8851SOL    HW137482   0.372   5.821   3.923  1.7529  0.6458  0.7928
 8851SOL    HW237483   0.388   5.659   3.913 -1.8918  0.2997 -0.0961
 8852SOL     OW37484   8.769   1.194   1.932 -0.0243 -0.0232  0.4437
 8852SOL    HW137485   8.719   1.209   1.847  0.4218  0.7746  0.3217
 8852SOL    HW237486   8.791   1.096   1.940 -2.8476 -0.6330  1.2065
 8853SOL     OW37487   4.706   0.705   0.412  0.1513 -0.9902  0.0842
 8853SOL    HW137488   4.630   0.674   0.355 -0.8496 -0.2628  0.9854
 8853SOL    HW237489   4.751   0.783   0.368 -0.8184 -0.2249  0.4176
 8854SOL     OW37490   2.268   4.140   1.455 -0.4073  0.4377  0.2393
 8854SOL    HW137491   2.261   4.073   1.382 -0.2743  2.8833 -2.1268
 8854SOL    HW237492   2.182   4.146   1.505 -1.1224  0.0475 -0.9377
 8855SOL     OW37493   9.335   4.823   4.225 -0.0180 -0.0600 -0.3589
 8855SOL    HW137494   9.265   4.823   4.296  0.8237 -0.6890  0.4773
 8855SOL    HW237495   9.426   4.825   4.266  0.4731  0.3378 -1.4265
 8856SOL     OW37496   9.209   2.124   3.182 -0.2639 -0.2116 -0.4814
 8856SOL    HW137497   9.127   2.128   3.125  0.2805 -0.3051 -1.2864
 8856SOL    HW237498   9.211   2.036   3.231 -1.3328  0.3541  0.6085
 8857SOL     OW37499   0.190   1.440   5.559 -0.3008  0.4234 -0.3824
 8857SOL    HW137500   0.288   1.421   5.546 -0.9676 -3.6473  0.0190
 8857SOL    HW237501   0.178   1.537   5.579  3.8066  0.7834  0.8765
 8858SOL     OW37502   1.258   3.622   1.250 -0.5723  0.1212  0.1900
 8858SOL    HW137503   1.338   3.563   1.241  0.2113  1.3183 -0.8984
 8858SOL    HW237504   1.204   3.619   1.166  0.1781  1.9271 -0.3863
 8859SOL     OW37505   9.023   0.787   3.458 -0.5221  0.2387  0.1745
 8859SOL    HW137506   9.045   0.836   3.543 -0.5688  0.1629  0.2305
 8859SOL    HW237507   9.036   0.848   3.380 -1.1415  0.5165  0.2881
 8860SOL     OW37508   0.052   4.351   3.099 -0.4786 -0.6074  0.3489
 8860SOL    HW137509   0.098   4.426   3.147 -0.1171 -0.5486 -0.0896
 8860SOL    HW237510   0.059   4.364   3.000  0.2828 -1.6304  0.2556
 8861SOL     OW37511   8.197   2.635   0.389  0.1590 -0.1065  0.2018
 8861SOL    HW137512   8.111   2.621   0.437  0.1298 -1.1004 -0.1310
 8861SOL    HW237513   8.262   2.682   0.449 -0.2790 -0.2564  0.7897
 8862SOL     OW37514   4.223   7.029   2.699  0.2951  0.0889 -0.4590
 8862SOL    HW137515   4.199   6.954   2.637 -1.7282  1.2659 -1.1789
 8862SOL    HW237516   4.142   7.054   2.753  1.1443  1.2961  0.2808
 8863SOL     OW37517   6.782   8.495   3.004  0.1700 -0.1972 -0.2496
 8863SOL    HW137518   6.802   8.401   2.976 -1.9090  0.1107 -2.9862
 8863SOL    HW237519   6.846   8.557   2.960 -0.5466 -0.0723 -1.1437
 8864SOL     OW37520   7.114   8.325   2.537  0.6964  0.5733  0.1776
 8864SOL    HW137521   7.209   8.342   2.561  0.4538  1.5170  0.4784
 8864SOL    HW237522   7.104   8.230   2.508  1.8383  0.6337 -0.4439
 8865SOL     OW37523   9.294   3.992   0.897 -0.2029 -0.1618 -0.0691
 8865SOL    HW137524   9.302   3.953   0.805 -3.9002  1.4079 -1.1621
 8865SOL    HW237525   9.213   3.953   0.942 -1.1942  2.5986  0.6211
 8866SOL     OW37526   0.109   6.590   3.826  0.4253  0.1149  0.2979
 8866SOL    HW137527   0.085   6.493   3.834  0.9819 -0.0538 -0.0173
 8866SOL    HW237528   0.064   6.642   3.899  1.1286 -0.5638  1.2230
 8867SOL     OW37529   3.930   0.785   3.351 -0.1271 -0.2204  0.1645
 8867SOL    HW137530   3.852   0.751   3.403  0.5331 -0.3725  1.0509
 8867SOL    HW237531   3.976   0.857   3.402  0.6340 -0.4966 -0.1193
 8868SOL     OW37532   9.037   4.456   3.341  0.2569 -0.9532  0.4704
 8868SOL    HW137533   9.131   4.487   3.337 -0.1574  0.2343 -0.1445
 8868SOL    HW237534   9.015   4.429   3.435  1.0217 -0.6668  0.7356
 8869SOL     OW37535   6.305   8.912   1.759 -0.1379 -0.8872  0.2486
 8869SOL    HW137536   6.292   8.998   1.810  0.5604 -0.9283  0.5051
 8869SOL    HW237537   6.307   8.932   1.661 -0.0489 -0.6210  0.3029
 8870SOL     OW37538   2.763   4.388   3.476  0.3035 -0.1940  0.2938
 8870SOL    HW137539   2.841   4.335   3.509  0.7712  0.2600 -0.0736
 8870SOL    HW237540   2.682   4.328   3.470 -0.1966  0.0491  3.6876
 8871SOL     OW37541   1.500   4.075   2.173  0.0214 -0.1550 -0.6086
 8871SOL    HW137542   1.516   4.171   2.195 -2.1795  0.1462 -0.2599
 8871SOL    HW237543   1.487   4.064   2.075  0.6717 -0.1634 -0.6962
 8872SOL     OW37544   3.134   1.300   0.484  0.2187 -0.2813  0.5456
 8872SOL    HW137545   3.082   1.252   0.555 -1.1579  1.9464  1.1016
 8872SOL    HW237546   3.165   1.388   0.521  2.4614 -0.5882 -0.5289
 8873SOL     OW37547   3.957   9.734   2.817 -0.3667  0.6156  0.3802
 8873SOL    HW137548   3.886   9.664   2.803 -0.0023  0.3973 -0.3874
 8873SOL    HW237549   3.913   9.822   2.836 -0.8554 -0.4270  4.6957
 8874SOL     OW37550   6.965   0.592   5.595 -0.0240 -0.3696  0.3172
 8874SOL    HW137551   6.889   0.533   5.622 -0.9745  1.6454  2.1547
 8874SOL    HW237552   7.018   0.548   5.522 -1.2416 -3.0508  1.0324
 8875SOL     OW37553   4.969   3.902   1.201 -0.2351 -0.2987 -0.1051
 8875SOL    HW137554   5.034   3.848   1.148 -0.4424  0.1178 -0.7905
 8875SOL    HW237555   4.887   3.847   1.219  0.1233 -0.6749  0.3870
 8876SOL     OW37556   9.223   6.290   3.454  0.2497  0.5031 -0.1886
 8876SOL    HW137557   9.307   6.259   3.409 -0.2962  0.5886 -1.2758
 8876SOL    HW237558   9.224   6.390   3.460  0.4272  0.4796  0.2079
 8877SOL     OW37559   1.440   2.904   1.454  0.0679 -0.7907 -0.2541
 8877SOL    HW137560   1.380   2.837   1.498 -0.4980 -0.7893 -1.0052
 8877SOL    HW237561   1.446   2.986   1.511  0.3105 -1.2587  0.3948
 8878SOL     OW37562   4.286   9.257   3.200 -0.2784 -0.7093 -0.1166
 8878SOL    HW137563   4.335   9.280   3.283  0.5226 -0.0613 -0.7604
 8878SOL    HW237564   4.228   9.177   3.216 -0.8268 -0.0372  1.3136
 8879SOL     OW37565   9.933   8.348   5.523 -0.1671  0.0226  0.0344
 8879SOL    HW137566   9.901   8.274   5.582  0.5319  0.5180  1.0572
 8879SOL    HW237567   9.859   8.413   5.507  0.0361  0.6630  1.6029
 8880SOL     OW37568   9.295   4.011   2.666 -0.2175  0.0096  0.0313
 8880SOL    HW137569   9.287   3.929   2.610 -1.1293  0.0352  0.1183
 8880SOL    HW237570   9.390   4.040   2.670 -0.2557  0.4707 -2.1589
 8881SOL     OW37571   9.804   2.544   1.750  0.1598  0.3525  0.2527
 8881SOL    HW137572   9.770   2.496   1.670  1.5486  1.2591 -0.8992
 8881SOL    HW237573   9.844   2.631   1.723  1.6774  0.1618  1.7724
 8882SOL     OW37574   6.782   0.310   2.464 -0.6245  0.4008  0.2628
 8882SOL    HW137575   6.837   0.327   2.545  0.7012  0.1492 -0.5654
 8882SOL    HW237576   6.742   0.218   2.470 -0.1787  0.2152  0.4325
 8883SOL     OW37577   2.216   8.651   1.574  0.1459 -0.4704 -0.5045
 8883SOL    HW137578   2.270   8.573   1.604  2.0349  1.7235  2.1178
 8883SOL    HW237579   2.267   8.736   1.592 -2.2983  1.4398 -2.2050
 8884SOL     OW37580   7.806   0.063   4.974  0.2186 -0.2873  0.2092
 8884SOL    HW137581   7.869   0.096   4.903 -0.0285  1.1337  0.6289
 8884SOL    HW237582   7.788  -0.034   4.960  1.0010 -0.2644 -1.0533
 8885SOL     OW37583   5.315   7.663   4.447 -0.8131  0.4925 -0.8582
 8885SOL    HW137584   5.245   7.732   4.430 -1.0878  0.1212 -1.2715
 8885SOL    HW237585   5.278   7.572   4.425 -1.0946  0.0113  1.4758
 8886SOL     OW37586   7.913   1.278   2.831  0.2303 -0.5385  0.4178
 8886SOL    HW137587   7.931   1.371   2.864  2.8013 -0.8829  0.1207
 8886SOL    HW237588   7.950   1.212   2.896 -0.6462 -1.3367  0.1100
 8887SOL     OW37589   8.949   3.661   2.272 -0.6039 -0.1100  0.1843
 8887SOL    HW137590   8.879   3.702   2.330 -0.6537 -1.0770  0.8063
 8887SOL    HW237591   8.905   3.601   2.205 -0.3316 -1.1941  0.9675
 8888SOL     OW37592   2.680   7.459   5.465  0.5531  0.5551  0.1319
 8888SOL    HW137593   2.696   7.372   5.512  2.5784  0.2256 -1.0905
 8888SOL    HW237594   2.611   7.512   5.514 -2.5113 -2.7626 -0.3818
 8889SOL     OW37595   0.065   4.749   2.998 -0.4772 -0.7056 -0.2111
 8889SOL    HW137596   0.028   4.691   3.071  0.3736  0.3561  1.0790
 8889SOL    HW237597  -0.001   4.821   2.976  0.7455  1.1348  2.0282
 8890SOL     OW37598   3.197   8.783   0.299  0.2516  0.2783 -0.0062
 8890SOL    HW137599   3.138   8.704   0.312 -0.5763  0.7684 -0.7386
 8890SOL    HW237600   3.283   8.769   0.348  0.0156 -0.9641  0.0682
 8891SOL     OW37601   1.681   3.065   0.805  0.3681 -0.0753 -0.1250
 8891SOL    HW137602   1.627   3.128   0.750 -0.9926 -0.1387  1.1334
 8891SOL    HW237603   1.625   2.986   0.831  1.9577 -1.6967 -1.4381
 8892SOL     OW37604   3.417   4.640   4.218  0.0149  0.3224 -0.2220
 8892SOL    HW137605   3.420   4.667   4.122  2.1447  1.1886  0.0582
 8892SOL    HW237606   3.366   4.709   4.270 -1.0706 -0.1071 -0.6976
 8893SOL     OW37607   3.708   6.135   1.900 -0.0317 -0.4624 -0.2490
 8893SOL    HW137608   3.723   6.234   1.906  1.0129 -0.4960 -2.0931
 8893SOL    HW237609   3.687   6.099   1.991  0.7379  1.2654  0.6331
 8894SOL     OW37610   9.261   5.517   5.103  0.2079 -0.3383 -0.2811
 8894SOL    HW137611   9.191   5.460   5.061 -0.3060  0.3621 -0.3840
 8894SOL    HW237612   9.249   5.612   5.074  0.0867  0.0928  1.1232
 8895SOL     OW37613   1.199   0.166   3.687  0.3530 -0.4193  0.5556
 8895SOL    HW137614   1.288   0.157   3.642  0.3218 -2.6473  0.8756
 8895SOL    HW237615   1.212   0.172   3.786  0.3505  3.3630  0.4105
 8896SOL     OW37616   2.484   3.696   3.850 -0.4863  0.0685 -0.3541
 8896SOL    HW137617   2.436   3.744   3.923 -1.1765 -2.5608  0.9799
 8896SOL    HW237618   2.436   3.709   3.763 -0.1283  2.5071 -0.2165
 8897SOL     OW37619   0.799   1.757   4.246 -0.1388 -0.0707  0.1046
 8897SOL    HW137620   0.743   1.826   4.292 -0.4440 -0.7472  0.7672
 8897SOL    HW237621   0.746   1.716   4.172 -0.3097 -0.2755  0.3371
 8898SOL     OW37622  10.001   1.505   4.295  0.5727  0.1185 -0.0144
 8898SOL    HW137623   9.968   1.494   4.201 -0.6563 -0.4264  0.4683
 8898SOL    HW237624   9.923   1.519   4.356  1.3095 -0.3079  1.0350
 8899SOL     OW37625   8.781   2.808   4.447  0.6249 -0.0436  0.1401
 8899SOL    HW137626   8.842   2.870   4.497 -0.1504  0.6104  0.2979
 8899SOL    HW237627   8.809   2.714   4.463  1.7673  0.2607 -0.0231
 8900SOL     OW37628   3.599   1.990   5.277  0.0760  0.1137  0.6047
 8900SOL    HW137629   3.621   1.977   5.180 -0.6666  0.8627  0.3253
 8900SOL    HW237630   3.571   1.903   5.317 -1.7829  0.1953 -0.4289
 8901SOL     OW37631   1.521   0.053   2.776 -0.4804 -0.2389  0.3327
 8901SOL    HW137632   1.469   0.051   2.690  0.4097  1.4641 -0.2686
 8901SOL    HW237633   1.522   0.146   2.812 -0.1578 -0.7948  1.7689
 8902SOL     OW37634   1.466   3.363   0.188 -0.1799 -0.2793 -0.3228
 8902SOL    HW137635   1.513   3.283   0.152  1.3685  0.4623 -0.0037
 8902SOL    HW237636   1.414   3.407   0.115 -1.2358 -1.6874 -0.4438
 8903SOL     OW37637   1.524   9.951   3.946  0.0471 -0.2758 -0.5192
 8903SOL    HW137638   1.476   9.961   4.033  1.7535 -1.8079  0.6451
 8903SOL    HW237639   1.612   9.906   3.961 -0.4294 -2.3294 -3.2639
 8904SOL     OW37640   3.879   5.107   2.014 -0.1619  0.1268  0.2708
 8904SOL    HW137641   3.956   5.106   2.077 -0.2553 -1.2678  0.3771
 8904SOL    HW237642   3.886   5.030   1.951 -1.6328 -0.1999  0.4939
 8905SOL     OW37643   1.232   0.879   2.604 -0.3250  0.2121  0.1792
 8905SOL    HW137644   1.210   0.860   2.699  1.2807  0.0162  0.5243
 8905SOL    HW237645   1.321   0.924   2.599 -1.7192  2.9470 -1.0050
 8906SOL     OW37646   3.681   9.178   1.747 -0.9370 -0.0377  0.1680
 8906SOL    HW137647   3.656   9.247   1.814  0.4355 -0.1219  0.7884
 8906SOL    HW237648   3.640   9.090   1.773  0.8731 -0.4423  1.8132
 8907SOL     OW37649   7.443   9.669   2.391  0.2341 -0.0224 -0.4010
 8907SOL    HW137650   7.395   9.695   2.307  0.2246  1.2958 -0.0092
 8907SOL    HW237651   7.540   9.660   2.372 -0.0386 -1.7956 -1.0013
 8908SOL     OW37652   7.884   3.726   5.048  0.1535 -0.2802  0.1363
 8908SOL    HW137653   7.963   3.670   5.024  2.5709  2.7698  0.5918
 8908SOL    HW237654   7.856   3.780   4.969  2.0235  2.6252  1.3574
 8909SOL     OW37655   1.614   3.152   2.298  0.1118 -0.0459 -0.0661
 8909SOL    HW137656   1.602   3.086   2.372 -1.5151  1.1912  0.8200
 8909SOL    HW237657   1.618   3.104   2.211 -1.7330 -1.2980  0.4970
 8910SOL     OW37658   8.683   1.565   1.340  0.9009 -0.7249 -0.6307
 8910SOL    HW137659   8.707   1.594   1.433 -0.3849  2.3837 -1.1848
 8910SOL    HW237660   8.764   1.567   1.283  1.1127  0.5721 -0.3111
 8911SOL     OW37661   8.217   5.713   0.021  0.0712 -0.6247 -0.0007
 8911SOL    HW137662   8.307   5.755   0.034 -0.0123 -0.2786 -0.5198
 8911SOL    HW237663   8.178   5.743  -0.066 -0.9913  0.0518  0.6825
 8912SOL     OW37664   8.032   2.618   2.644 -0.0465 -0.6080  0.2998
 8912SOL    HW137665   8.024   2.708   2.602  1.3010  0.9900  3.3038
 8912SOL    HW237666   8.128   2.599   2.664 -0.6507 -1.0752  3.0239
 8913SOL     OW37667   3.114   7.661   5.326 -0.5377 -0.0147 -0.2283
 8913SOL    HW137668   3.084   7.743   5.278 -0.0405  0.3257  0.0458
 8913SOL    HW237669   3.188   7.617   5.274  0.5206  0.7662  0.6062
 8914SOL     OW37670   8.701   9.117   2.469  0.1703 -0.1397 -0.0914
 8914SOL    HW137671   8.694   9.215   2.455  0.6885  0.3860  2.8821
 8914SOL    HW237672   8.798   9.091   2.480  0.0601 -1.0340 -1.0658
 8915SOL     OW37673   4.576   9.112   5.199 -0.0170 -0.2101  0.0845
 8915SOL    HW137674   4.521   9.193   5.216  1.5824  0.9374 -0.0382
 8915SOL    HW237675   4.619   9.082   5.284  0.2116 -0.3146 -0.0655
 8916SOL     OW37676   4.167   7.608   3.648 -0.4510  0.7221 -0.6279
 8916SOL    HW137677   4.143   7.510   3.647 -0.0674  0.6303 -2.3151
 8916SOL    HW237678   4.247   7.622   3.706 -0.1374 -0.0677 -0.8598
 8917SOL     OW37679   2.819   1.740   1.024 -0.0653  0.0712 -0.2585
 8917SOL    HW137680   2.911   1.757   0.989  0.0770 -0.0708  0.0451
 8917SOL    HW237681   2.757   1.724   0.947  0.0359  0.7727 -0.4934
 8918SOL     OW37682   8.625   1.522   1.688 -0.3203  0.0117  0.3104
 8918SOL    HW137683   8.543   1.535   1.631  0.6536 -0.8062 -1.3295
 8918SOL    HW237684   8.689   1.597   1.672 -0.0253 -0.2432  0.2774
 8919SOL     OW37685  -0.000   1.514   5.187  0.5864 -0.6673 -0.1391
 8919SOL    HW137686  -0.004   1.610   5.158  0.9477 -0.1653  1.4072
 8919SOL    HW237687   0.063   1.464   5.129  2.5351  0.6908  0.7663
 8920SOL     OW37688   4.044   1.904   2.945 -0.0247 -0.4137 -0.8201
 8920SOL    HW137689   4.097   1.927   2.863 -1.2184  1.0630 -1.2255
 8920SOL    HW237690   3.993   1.819   2.929  0.3395 -0.5392 -1.3269
 8921SOL     OW37691   0.191   1.045   3.398 -0.7491 -0.2036  0.0291
 8921SOL    HW137692   0.236   1.134   3.395  1.3187 -1.2071  0.2199
 8921SOL    HW237693   0.170   1.021   3.493 -1.8217  0.3068 -0.0674
 8922SOL     OW37694   2.130   1.444   5.604  0.2076 -0.1871  0.5988
 8922SOL    HW137695   2.103   1.490   5.689 -0.1642  0.7229  0.0045
 8922SOL    HW237696   2.229   1.453   5.591  0.0127  1.3447 -0.0056
 8923SOL     OW37697   0.948   9.150   3.833 -0.2686  0.2052  0.1241
 8923SOL    HW137698   0.954   9.113   3.926 -1.0687  1.1354  0.5598
 8923SOL    HW237699   1.036   9.139   3.787  0.3471  0.3668  1.2453
 8924SOL     OW37700   9.970   9.530   1.901 -0.3746  0.3570  0.1039
 8924SOL    HW137701   9.942   9.596   1.831  0.7819  2.0446  1.1917
 8924SOL    HW237702   9.922   9.548   1.986  0.2091  0.0152  0.5123
 8925SOL     OW37703   3.572   6.497   3.203  0.8573 -0.0702 -0.0396
 8925SOL    HW137704   3.574   6.527   3.298  1.5525  0.0991 -0.1089
 8925SOL    HW237705   3.514   6.559   3.150  1.9669  0.9362 -0.1025
 8926SOL     OW37706   1.964   9.769   0.798 -0.2466  0.8070 -0.1051
 8926SOL    HW137707   1.935   9.683   0.757  1.2744  0.2483 -0.0257
 8926SOL    HW237708   1.928   9.775   0.891 -0.0136  0.0634  0.0382
 8927SOL     OW37709   2.512   8.530   2.531 -0.3594 -0.0566  0.3943
 8927SOL    HW137710   2.441   8.492   2.591  0.0521 -1.1457  0.2121
 8927SOL    HW237711   2.477   8.537   2.438 -0.6864  0.7361  0.5746
 8928SOL     OW37712   8.130   4.734   3.939  0.2532  0.2226  0.9602
 8928SOL    HW137713   8.206   4.743   3.875 -0.0477 -0.2044  0.5346
 8928SOL    HW237714   8.146   4.657   4.000  0.1138  0.0672  0.8008
 8929SOL     OW37715   3.925   8.645   3.040 -0.6592  0.7687  0.2519
 8929SOL    HW137716   3.967   8.577   3.100 -0.6567  0.4294 -0.1262
 8929SOL    HW237717   3.927   8.734   3.084 -0.5412  0.5488  0.7010
 8930SOL     OW37718   1.910   7.326   4.277  0.1310 -0.1837 -0.3648
 8930SOL    HW137719   1.971   7.323   4.198  2.4220 -1.5395  1.3855
 8930SOL    HW237720   1.948   7.388   4.346 -2.1759  1.4846 -0.5498
 8931SOL     OW37721   7.956   0.035   0.545  0.1000  0.2602  0.0148
 8931SOL    HW137722   8.033   0.064   0.602  0.8206  0.1576 -0.8843
 8931SOL    HW237723   7.931   0.109   0.482 -0.0855  0.0522 -0.1582
 8932SOL     OW37724   2.937   9.319   5.127 -0.3604  0.2367  0.1165
 8932SOL    HW137725   2.867   9.388   5.143 -1.3358 -0.5534 -0.6483
 8932SOL    HW237726   3.000   9.316   5.205 -1.0227  1.1288  0.6959
 8933SOL     OW37727   7.773   5.844   2.268 -0.4935  0.1327  0.4163
 8933SOL    HW137728   7.704   5.887   2.327 -1.3473 -1.0915  0.3320
 8933SOL    HW237729   7.842   5.911   2.243 -1.8150  1.4618  0.2728
 8934SOL     OW37730   8.706   6.290   1.294  0.5499  0.8556  0.6047
 8934SOL    HW137731   8.725   6.331   1.383  0.9849  1.1954  0.3530
 8934SOL    HW237732   8.768   6.213   1.279 -0.7814 -0.4183  1.4227
 8935SOL     OW37733   4.005   9.427   3.626 -0.1312 -0.2966  1.0612
 8935SOL    HW137734   3.949   9.436   3.544 -1.1811  0.4227  1.8436
 8935SOL    HW237735   3.983   9.342   3.673  1.7559 -1.5940 -0.3397
 8936SOL     OW37736   4.675   6.897   2.585  0.2255  0.2106 -0.2148
 8936SOL    HW137737   4.618   6.936   2.657  0.8185 -0.1970  0.4847
 8936SOL    HW237738   4.624   6.826   2.536  0.5031 -0.9421  1.1454
 8937SOL     OW37739   2.071   9.233   3.580 -0.0144 -0.4602  0.3354
 8937SOL    HW137740   1.997   9.300   3.571  1.4220  1.2276  0.9028
 8937SOL    HW237741   2.074   9.198   3.674  1.6647  1.5745  1.0647
 8938SOL     OW37742   9.894   3.392   0.476  0.3576 -0.5191 -0.2796
 8938SOL    HW137743   9.839   3.442   0.409  1.5654 -1.1653 -1.7817
 8938SOL    HW237744   9.969   3.449   0.508  0.0979 -0.3991  0.1165
 8939SOL     OW37745   5.900   4.179   0.473 -0.0826  0.3309 -0.5884
 8939SOL    HW137746   5.909   4.259   0.413  0.6396 -0.0036 -0.9364
 8939SOL    HW237747   5.888   4.208   0.567  2.1200  0.8531 -0.4445
 8940SOL     OW37748   1.724   0.301   4.004  0.1408 -0.1536 -0.0182
 8940SOL    HW137749   1.657   0.344   4.065  0.3976 -0.4761  0.5047
 8940SOL    HW237750   1.774   0.231   4.056 -0.5044 -1.3147 -0.9344
 8941SOL     OW37751   4.392   1.414   4.306 -0.0377  0.4727 -0.1600
 8941SOL    HW137752   4.481   1.395   4.348  0.3115  1.4011 -0.4698
 8941SOL    HW237753   4.319   1.395   4.372  0.3549 -0.9158 -0.1177
 8942SOL     OW37754   1.742   9.578   5.581 -0.6638  0.0459 -0.0321
 8942SOL    HW137755   1.690   9.541   5.504 -0.4465 -2.0570  0.7771
 8942SOL    HW237756   1.824   9.625   5.548 -1.6854  1.0243 -1.1779
 8943SOL     OW37757   5.349   6.841   2.787  0.1104  0.0117  0.6311
 8943SOL    HW137758   5.358   6.858   2.689 -0.8798  0.4673  0.6094
 8943SOL    HW237759   5.252   6.834   2.811  0.3705 -1.4391  1.3525
 8944SOL     OW37760   9.292   2.872   4.086  0.1360 -0.0182 -0.2514
 8944SOL    HW137761   9.366   2.940   4.088 -0.4571  0.6631 -1.4507
 8944SOL    HW237762   9.216   2.906   4.031 -1.0553 -0.7513  0.9093
 8945SOL     OW37763   3.981   4.240   2.603  0.0944 -0.1584  0.2892
 8945SOL    HW137764   4.079   4.245   2.584  0.3225 -0.7652  1.2702
 8945SOL    HW237765   3.931   4.287   2.530  1.1508  0.8600  0.2068
 8946SOL     OW37766   5.654   7.866   2.868 -0.1073  0.3694  0.0539
 8946SOL    HW137767   5.559   7.878   2.897 -0.1001  4.9918 -1.5233
 8946SOL    HW237768   5.695   7.790   2.920 -4.5022 -1.5532  0.9341
 8947SOL     OW37769   3.044   8.870   2.907 -0.2935  0.1615 -0.1164
 8947SOL    HW137770   3.097   8.819   2.839  0.0652 -0.8296  0.8784
 8947SOL    HW237771   2.999   8.805   2.969 -1.1692  1.0337  0.1826
 8948SOL     OW37772   3.620   1.146   3.814 -0.2247  0.1633  0.3990
 8948SOL    HW137773   3.540   1.162   3.873 -0.4556 -1.7741  0.6590
 8948SOL    HW237774   3.652   1.052   3.827  1.1517  0.4438 -0.8654
 8949SOL     OW37775   5.889   6.983   2.133 -0.2710 -0.0734 -0.2556
 8949SOL    HW137776   5.814   6.916   2.143 -0.4950  0.5087  2.2334
 8949SOL    HW237777   5.968   6.938   2.092 -0.6023 -1.7751  0.9054
 8950SOL     OW37778   1.108   1.082   0.732 -0.0203 -0.1619 -0.0413
 8950SOL    HW137779   1.045   1.064   0.656  1.6604  0.6678 -1.6758
 8950SOL    HW237780   1.056   1.095   0.816 -2.0100  0.3077 -1.3121
 8951SOL     OW37781   9.006   4.405   5.629 -0.0512 -0.1413  0.1886
 8951SOL    HW137782   9.077   4.346   5.668 -0.9576 -1.9367 -0.8004
 8951SOL    HW237783   8.917   4.378   5.664 -0.4880  0.6571 -0.2809
 8952SOL     OW37784   2.108   6.442   0.538 -0.2497  0.3695 -0.7852
 8952SOL    HW137785   2.151   6.532   0.541 -0.1452  0.2599  1.1661
 8952SOL    HW237786   2.156   6.379   0.599 -1.6247 -0.4285 -0.5050
 8953SOL     OW37787   6.851   9.985   4.463 -0.2991 -0.3328 -0.1079
 8953SOL    HW137788   6.903  10.070   4.454 -0.4635 -0.1233  0.9168
 8953SOL    HW237789   6.759   9.998   4.425  0.2028 -0.5538 -1.4548
 8954SOL     OW37790   1.593   8.317   2.678 -0.0409  0.1619  0.4220
 8954SOL    HW137791   1.606   8.404   2.631  0.0326  0.3620  0.8108
 8954SOL    HW237792   1.497   8.308   2.706 -0.0506  0.1146  0.3736
 8955SOL     OW37793   1.696   6.585   3.328  0.5067 -0.5363  0.4107
 8955SOL    HW137794   1.785   6.570   3.285  0.6025  1.7021 -0.2598
 8955SOL    HW237795   1.646   6.655   3.277 -1.6471 -1.7875  0.7758
 8956SOL     OW37796   2.939   9.708   3.049  0.7453  0.3621 -0.1243
 8956SOL    HW137797   2.874   9.769   3.005 -0.4960 -0.2456  0.8476
 8956SOL    HW237798   3.029   9.720   3.008  0.2192  1.8619 -0.8605
 8957SOL     OW37799   0.533   1.224   3.160  0.2938  0.0235 -0.1358
 8957SOL    HW137800   0.535   1.310   3.110  1.1291  0.8219  1.2398
 8957SOL    HW237801   0.611   1.168   3.133 -0.5601 -0.5597 -1.4483
 8958SOL     OW37802   7.682   6.212   2.764 -0.9378  1.3175 -0.2453
 8958SOL    HW137803   7.602   6.229   2.706 -0.9527  1.9701 -0.0367
 8958SOL    HW237804   7.763   6.199   2.707 -1.3972 -0.5990 -0.5206
 8959SOL     OW37805   1.357   7.448   3.684 -0.1415  0.6402  0.6470
 8959SOL    HW137806   1.406   7.492   3.759 -0.8054  0.6512  1.0736
 8959SOL    HW237807   1.271   7.410   3.717  1.2544 -2.6306  0.7096
 8960SOL     OW37808   9.616   4.341   5.406  0.1582  0.3372  0.1218
 8960SOL    HW137809   9.714   4.357   5.395  0.0790  1.0527  0.4644
 8960SOL    HW237810   9.567   4.372   5.324  0.3369 -1.1761 -0.5883
 8961SOL     OW37811   0.991   6.080   3.954 -0.4591 -0.2583 -0.6545
 8961SOL    HW137812   0.984   5.993   4.002 -0.7765 -0.6108 -1.3285
 8961SOL    HW237813   1.061   6.137   3.998  0.0600 -1.0258 -0.4747
 8962SOL     OW37814   1.772   6.528   2.834 -0.2566  0.8403  0.0931
 8962SOL    HW137815   1.835   6.459   2.869 -0.9560  0.3395  0.3699
 8962SOL    HW237816   1.801   6.619   2.865 -0.7494  0.4270  1.8119
 8963SOL     OW37817   4.125   1.601   1.755  0.3143 -0.1075  0.2436
 8963SOL    HW137818   4.192   1.670   1.729  0.1889  0.4993  1.5263
 8963SOL    HW237819   4.077   1.569   1.673  1.8885 -0.2711 -0.6262
 8964SOL     OW37820   0.227   2.901   5.072 -0.4308  0.1974  0.3848
 8964SOL    HW137821   0.133   2.909   5.039 -0.3482  0.7396  0.2799
 8964SOL    HW237822   0.261   2.808   5.053 -0.8612  0.0778  0.2001
 8965SOL     OW37823   1.717   9.810   0.407 -0.0391  0.5996  0.2826
 8965SOL    HW137824   1.716   9.778   0.313 -2.7666  2.0825 -0.2758
 8965SOL    HW237825   1.744   9.736   0.468  1.7490 -0.3704 -1.6452
 8966SOL     OW37826   4.237   9.515   3.117  0.1587 -0.0611 -0.1381
 8966SOL    HW137827   4.309   9.541   3.052  1.5543  1.5927  2.0014
 8966SOL    HW237828   4.260   9.427   3.158 -0.2996 -0.7072 -1.2434
 8967SOL     OW37829   9.399   9.545   3.455 -0.1785  0.0469  0.7763
 8967SOL    HW137830   9.457   9.467   3.430  1.0864  1.1297  0.2726
 8967SOL    HW237831   9.335   9.517   3.527 -1.0513 -1.9788 -0.7450
 8968SOL     OW37832   4.761   4.453   1.921 -0.1305 -0.2963 -0.4697
 8968SOL    HW137833   4.746   4.547   1.891 -0.1092 -0.0624  0.2517
 8968SOL    HW237834   4.858   4.431   1.916  0.0675  0.2424  0.8886
 8969SOL     OW37835   7.822   5.588   2.249  0.1191 -0.2138 -0.3593
 8969SOL    HW137836   7.794   5.683   2.265 -0.5713 -0.4737 -0.0313
 8969SOL    HW237837   7.823   5.571   2.150 -1.3306 -0.3303 -0.3676
 8970SOL     OW37838   8.289   6.154   2.772 -0.2890  0.1727 -0.0125
 8970SOL    HW137839   8.362   6.198   2.719 -0.8546  0.0454 -0.9099
 8970SOL    HW237840   8.313   6.058   2.786 -1.3595 -0.4775 -2.3588
 8971SOL     OW37841   0.817   0.674   0.586  0.3018  0.4388  0.3267
 8971SOL    HW137842   0.886   0.626   0.531 -3.2395 -2.1093 -2.0948
 8971SOL    HW237843   0.761   0.731   0.526 -1.0271  0.8239  1.9112
 8972SOL     OW37844   9.657   9.475   4.966 -0.1487  0.3321  0.1945
 8972SOL    HW137845   9.629   9.382   4.988  1.2303  0.0077  0.6160
 8972SOL    HW237846   9.581   9.538   4.984 -0.8365 -0.6126  0.6106
 8973SOL     OW37847   1.652   6.316   3.426  0.5271 -0.5653  0.3925
 8973SOL    HW137848   1.691   6.246   3.366  0.2276  0.4011 -0.9520
 8973SOL    HW237849   1.674   6.407   3.391  0.1307  0.0150  1.6168
 8974SOL     OW37850   3.131   2.238   1.561 -0.2083  0.0614  0.2051
 8974SOL    HW137851   3.177   2.326   1.568  0.3269 -0.3219  1.6597
 8974SOL    HW237852   3.148   2.199   1.470  0.1847  1.0978 -0.1749
 8975SOL     OW37853   1.477   0.369   0.956 -0.2600  0.5984  0.6553
 8975SOL    HW137854   1.421   0.448   0.928 -0.1088  1.2688  2.2171
 8975SOL    HW237855   1.527   0.335   0.876 -0.5808  1.8700 -0.1171
 8976SOL     OW37856   9.898   9.413   4.567 -0.0177 -0.3306 -0.1038
 8976SOL    HW137857   9.847   9.328   4.565  0.3207 -0.5711  0.8263
 8976SOL    HW237858   9.996   9.393   4.570  0.0692  0.0924 -0.0222
 8977SOL     OW37859   0.142   8.822   3.661  0.4054  0.0783  0.0495
 8977SOL    HW137860   0.067   8.816   3.595 -1.0483  2.0820  1.4682
 8977SOL    HW237861   0.135   8.747   3.727  0.5982 -0.6594 -0.7528
 8978SOL     OW37862   4.686   9.603   3.460  0.3383  0.4099 -0.3691
 8978SOL    HW137863   4.681   9.510   3.496  0.5917 -0.0219 -1.4027
 8978SOL    HW237864   4.599   9.650   3.476  0.3214  0.1077  0.4436
 8979SOL     OW37865   9.943   6.083   0.381  1.1488  0.8322  0.0731
 8979SOL    HW137866   9.901   6.007   0.431  0.2958  2.0276  1.2122
 8979SOL    HW237867   9.899   6.092   0.292  2.6549 -1.2916 -0.9348
 8980SOL     OW37868   1.132   1.786   4.944 -0.0087 -0.4976  0.2544
 8980SOL    HW137869   1.157   1.744   4.857 -0.0900  2.0046 -1.0410
 8980SOL    HW237870   1.214   1.804   4.997  0.1147 -1.2540  0.3218
 8981SOL     OW37871   8.426   1.738   1.835  0.2954 -0.0119  0.5051
 8981SOL    HW137872   8.450   1.641   1.833 -1.0905 -0.3779  0.9498
 8981SOL    HW237873   8.438   1.778   1.745 -3.3379 -1.6636 -0.8179
 8982SOL     OW37874   3.926   4.544   4.237  0.1331  0.5256 -0.4696
 8982SOL    HW137875   3.916   4.582   4.329  1.2317  1.0928 -0.5761
 8982SOL    HW237876   3.847   4.570   4.182 -1.2398 -1.0380  0.7255
 8983SOL     OW37877   1.634   5.702   4.565  0.0129 -0.2120 -0.0024
 8983SOL    HW137878   1.699   5.773   4.593 -0.3083  0.4791 -0.9703
 8983SOL    HW237879   1.546   5.745   4.544 -1.1260 -1.2669  2.4143
 8984SOL     OW37880   0.669   5.919   2.134 -0.3409 -0.1845 -0.3107
 8984SOL    HW137881   0.607   5.877   2.200  1.1483 -0.2412  1.0739
 8984SOL    HW237882   0.627   5.917   2.043 -1.2565 -2.6191  0.1340
 8985SOL     OW37883   9.804   6.740   3.662  0.0184 -0.0777  0.5308
 8985SOL    HW137884   9.818   6.646   3.630 -0.9130 -0.3440  0.8620
 8985SOL    HW237885   9.859   6.756   3.744 -1.8264 -1.2419  2.0807
 8986SOL     OW37886   2.117   8.248   4.177  0.3160 -0.2361 -0.1210
 8986SOL    HW137887   2.159   8.296   4.254 -4.1411  1.2321  1.5901
 8986SOL    HW237888   2.083   8.315   4.110 -0.2069 -1.2733 -0.9139
 8987SOL     OW37889   8.807   0.151   2.245  0.6037 -0.0763  0.0425
 8987SOL    HW137890   8.862   0.080   2.202  0.2763 -0.2327 -0.1198
 8987SOL    HW237891   8.792   0.128   2.341 -0.1224 -0.5964 -0.1944
 8988SOL     OW37892   7.667   8.851   1.703 -0.6569  0.6759  0.2327
 8988SOL    HW137893   7.720   8.766   1.705  0.3873  1.3067 -0.1567
 8988SOL    HW237894   7.658   8.887   1.796 -1.8808 -0.3378  0.5055
 8989SOL     OW37895   5.301   4.425   0.563  0.1487 -0.2336 -0.4004
 8989SOL    HW137896   5.286   4.457   0.469 -1.9800 -0.3935 -0.1236
 8989SOL    HW237897   5.245   4.344   0.581  1.7191 -1.1472  0.5321
 8990SOL     OW37898   5.388   9.436   4.156 -0.1451 -0.3246  0.4455
 8990SOL    HW137899   5.380   9.438   4.057  2.4924 -0.9463  0.1884
 8990SOL    HW237900   5.299   9.414   4.196 -1.1038 -0.6433 -1.7773
 8991SOL     OW37901   7.785   0.125   4.199 -0.3093 -0.3188  0.2172
 8991SOL    HW137902   7.844   0.167   4.267 -0.6914  0.8363 -0.1611
 8991SOL    HW237903   7.806   0.162   4.109 -1.6625  0.1694  0.0844
 8992SOL     OW37904   4.947   8.473   3.692  0.4169 -0.2304  0.0582
 8992SOL    HW137905   4.977   8.421   3.771 -0.5115  0.5556  0.9555
 8992SOL    HW237906   4.850   8.455   3.675  0.1911  0.8611  0.1275
 8993SOL     OW37907   2.743   9.292   1.874  0.3187  0.1871  0.2991
 8993SOL    HW137908   2.816   9.329   1.931 -0.0546  1.0225  0.2313
 8993SOL    HW237909   2.700   9.365   1.823 -0.1906 -0.3887 -0.1028
 8994SOL     OW37910   8.675   5.465   4.500  0.0769  0.5477  0.8477
 8994SOL    HW137911   8.677   5.553   4.453 -0.9996  1.1728  1.9628
 8994SOL    HW237912   8.766   5.445   4.537  0.6342  0.6040 -0.4472
 8995SOL     OW37913   8.678   3.336   3.950 -0.7512  0.3574 -0.4212
 8995SOL    HW137914   8.582   3.343   3.976 -0.4345 -1.8896  1.5485
 8995SOL    HW237915   8.735   3.338   4.033  0.6941 -1.2937 -1.3320
 8996SOL     OW37916   0.570   4.101   0.611  0.3026 -0.0407 -1.0218
 8996SOL    HW137917   0.601   4.162   0.685  1.5719 -1.6365 -0.2113
 8996SOL    HW237918   0.634   4.106   0.535 -0.2704  0.5662 -1.4726
 8997SOL     OW37919   8.466   8.252   1.230  0.0671 -0.3614 -0.3308
 8997SOL    HW137920   8.427   8.196   1.304  0.8901 -0.5170 -0.0107
 8997SOL    HW237921   8.460   8.348   1.254 -1.3674 -0.3007 -0.8875
 8998SOL     OW37922   8.822   9.596   3.715 -0.1579  0.2247  0.5169
 8998SOL    HW137923   8.728   9.600   3.748 -0.0945  2.4927  0.4652
 8998SOL    HW237924   8.841   9.677   3.659  2.1359  0.2982  1.3676
 8999SOL     OW37925   9.791   0.850   1.131  0.0714  0.1061  0.0746
 8999SOL    HW137926   9.776   0.844   1.230  0.1216  1.8299  0.1936
 8999SOL    HW237927   9.855   0.778   1.103 -1.1588 -1.4090  1.0302
 9000SOL     OW37928   4.188   8.088   0.549 -0.3475  0.4032 -0.4530
 9000SOL    HW137929   4.245   8.164   0.581 -0.3669 -0.1130  0.7987
 9000SOL    HW237930   4.165   8.028   0.625 -3.7532  1.3657 -0.6595
 9001SOL     OW37931   2.228   6.563   4.280 -0.0836 -0.3494 -0.1308
 9001SOL    HW137932   2.284   6.519   4.350  1.1339 -0.1657 -0.9712
 9001SOL    HW237933   2.151   6.503   4.257  1.4563 -1.9991 -1.1346
 9002SOL     OW37934   8.277   9.203   4.382  0.2013  0.3976 -0.7367
 9002SOL    HW137935   8.195   9.259   4.386 -0.2687 -0.2421 -1.3562
 9002SOL    HW237936   8.293   9.173   4.288  1.8094  1.4939 -0.8366
 9003SOL     OW37937   1.309   5.930   0.222 -0.1088 -0.4899  0.5288
 9003SOL    HW137938   1.340   5.837   0.203  0.0164 -0.8397  2.3293
 9003SOL    HW237939   1.341   5.991   0.150  2.0521 -1.3820  0.6843
 9004SOL     OW37940   1.872   2.433   2.529  0.0033  0.0070 -0.3747
 9004SOL    HW137941   1.874   2.426   2.430 -2.5948 -1.6290 -0.3625
 9004SOL    HW237942   1.963   2.417   2.566  0.9395  0.4130 -2.4604
 9005SOL     OW37943   7.102   8.855   4.377  0.1980 -0.0951  1.1166
 9005SOL    HW137944   7.177   8.797   4.346  0.1577  1.0475 -1.2206
 9005SOL    HW237945   7.138   8.941   4.413  0.0611  0.1177  0.7527
 9006SOL     OW37946   4.457   4.342   1.318 -0.3148  0.1213 -0.0664
 9006SOL    HW137947   4.365   4.303   1.313  0.1033 -0.6419 -2.4503
 9006SOL    HW237948   4.452   4.434   1.358 -1.8329 -0.6744  1.6701
 9007SOL     OW37949   1.675   6.589   0.018  0.2060  0.3074  0.1613
 9007SOL    HW137950   1.737   6.649  -0.034 -1.0685 -0.6645 -2.6115
 9007SOL    HW237951   1.643   6.636   0.099  1.7448  2.1745 -0.2732
 9008SOL     OW37952   3.160   2.889   2.861 -0.0387  0.5619 -0.3124
 9008SOL    HW137953   3.101   2.809   2.856  0.0191  0.5091 -0.1653
 9008SOL    HW237954   3.120   2.956   2.924  1.2277 -0.4697  1.6526
 9009SOL     OW37955   5.937   8.647   3.553 -0.1320  0.1682 -0.2138
 9009SOL    HW137956   5.966   8.718   3.488 -0.1553  1.5419  1.2463
 9009SOL    HW237957   5.879   8.688   3.623  1.6051 -0.8593  1.8853
 9010SOL     OW37958   9.012   3.291   3.421  0.6985 -0.6143  0.7634
 9010SOL    HW137959   9.055   3.368   3.468 -1.3526  1.9663 -1.3913
 9010SOL    HW237960   9.063   3.270   3.338 -0.0273 -0.0189  0.1550
 9011SOL     OW37961   1.578   9.645   1.065 -0.0800 -0.2971  0.2131
 9011SOL    HW137962   1.560   9.689   1.153 -3.0179 -0.5761 -0.2026
 9011SOL    HW237963   1.572   9.546   1.075 -0.8996 -0.3131 -0.3903
 9012SOL     OW37964   0.391   8.233   2.079  0.1136 -0.0499  0.4548
 9012SOL    HW137965   0.393   8.136   2.053 -0.5016 -0.1339  0.7233
 9012SOL    HW237966   0.379   8.240   2.178 -0.6857  0.3081  0.3366
 9013SOL     OW37967   0.981   6.114   3.430  0.1751  0.4899 -0.9313
 9013SOL    HW137968   0.989   6.047   3.356 -0.8588  0.9909 -1.5034
 9013SOL    HW237969   0.943   6.070   3.511 -3.0880  0.9642 -2.1429
 9014SOL     OW37970   8.303   4.780   3.540  0.7532 -0.5546 -0.1605
 9014SOL    HW137971   8.293   4.707   3.608 -1.2237 -0.5358 -0.3777
 9014SOL    HW237972   8.356   4.747   3.463  1.4849 -1.1587  0.5952
 9015SOL     OW37973   1.624   7.292   2.047  0.5132 -0.5088 -0.5789
 9015SOL    HW137974   1.541   7.296   1.990  0.7012  0.5721 -0.7939
 9015SOL    HW237975   1.668   7.203   2.036  0.0660 -0.6293 -1.4460
 9016SOL     OW37976   5.933   9.363   2.557  0.1374 -0.2711 -0.0242
 9016SOL    HW137977   5.967   9.279   2.599  1.6698 -0.2361 -1.1395
 9016SOL    HW237978   6.003   9.401   2.496 -1.7070  0.1199 -1.9875
 9017SOL     OW37979   8.748   4.033   5.615 -0.5607 -0.9153  0.0297
 9017SOL    HW137980   8.782   3.955   5.669 -2.2746 -1.0748  0.9018
 9017SOL    HW237981   8.784   4.026   5.522  2.3873 -0.6700  1.1029
 9018SOL     OW37982   8.906   6.049   5.291 -0.0639  0.3293  0.0878
 9018SOL    HW137983   8.924   6.146   5.276 -0.1478  0.2339 -0.6681
 9018SOL    HW237984   8.817   6.037   5.334  1.2591  0.7584  3.0391
 9019SOL     OW37985   3.135   6.412   4.289  0.1071  0.1083 -0.4658
 9019SOL    HW137986   3.125   6.316   4.314  0.3465  0.5017  1.1719
 9019SOL    HW237987   3.145   6.468   4.372  1.7937  1.3388 -1.4643
 9020SOL     OW37988   7.121   9.363   3.306  0.9108  0.3444 -0.5114
 9020SOL    HW137989   7.151   9.449   3.265  1.6954 -0.0561 -0.7827
 9020SOL    HW237990   7.192   9.328   3.367  0.4042  0.1247 -0.0421
 9021SOL     OW37991   7.175   1.193   4.689 -0.2860 -0.7100  0.4046
 9021SOL    HW137992   7.203   1.285   4.720  0.8800 -1.0379  0.3545
 9021SOL    HW237993   7.105   1.202   4.619  0.2652  0.1722 -0.0492
 9022SOL     OW37994   1.771   4.183   1.979 -0.0408  0.6894  0.0982
 9022SOL    HW137995   1.704   4.121   2.019  0.4128 -0.8264 -1.4251
 9022SOL    HW237996   1.736   4.220   1.893  0.2944  1.3966  0.2603
 9023SOL     OW37997   3.121   2.885   1.273 -0.1076 -0.2478 -0.1141
 9023SOL    HW137998   3.161   2.800   1.239 -1.2145 -1.0367  0.5486
 9023SOL    HW237999   3.103   2.946   1.195  1.2544 -0.3557 -0.5309
 9024SOL     OW38000   3.138   1.020   2.296 -0.3140  0.3684  0.0581
 9024SOL    HW138001   3.171   1.061   2.212  1.1530  1.1786  0.9992
 9024SOL    HW238002   3.038   1.015   2.295 -0.2766 -0.0012 -1.8792
 9025SOL     OW38003   9.077   3.022   0.987  0.1848 -0.4871 -0.1230
 9025SOL    HW138004   9.027   3.057   1.066 -1.2705  0.8540 -1.5976
 9025SOL    HW238005   9.149   2.960   1.018 -0.0293  0.4088  2.2696
 9026SOL     OW38006   5.164   8.438   3.873 -0.8916 -0.4325  0.3661
 9026SOL    HW138007   5.236   8.404   3.935 -0.9931 -1.4630 -0.0790
 9026SOL    HW238008   5.135   8.528   3.904 -0.0687 -0.4059  1.1110
 9027SOL     OW38009   4.080   0.744   0.564  0.0453 -0.4039  0.1102
 9027SOL    HW138010   4.148   0.671   0.556  2.0231  1.3739  0.1219
 9027SOL    HW238011   4.103   0.818   0.501  0.2672  1.8454  2.6941
 9028SOL     OW38012   2.127   2.470   4.965 -0.0427  0.1762  0.7098
 9028SOL    HW138013   2.182   2.422   5.034  2.5556  1.5301 -0.3499
 9028SOL    HW238014   2.030   2.459   4.986  0.5920 -2.5358  2.4845
 9029SOL     OW38015   7.858   6.727   2.263  0.5299  0.4766 -0.3484
 9029SOL    HW138016   7.812   6.810   2.231 -1.1193  0.7446  2.5035
 9029SOL    HW238017   7.956   6.745   2.273  0.0536  2.4442  1.2360
 9030SOL     OW38018   3.419   5.364   0.678 -0.4651  0.4159  0.3942
 9030SOL    HW138019   3.449   5.440   0.736  3.6996 -1.6775  1.1361
 9030SOL    HW238020   3.332   5.388   0.634 -1.1733  4.0496  3.5435
 9031SOL     OW38021   1.386   8.089   5.227  0.2461  0.1821 -0.4270
 9031SOL    HW138022   1.378   8.184   5.254  2.1998 -0.0255  0.9509
 9031SOL    HW238023   1.308   8.037   5.263  1.3902  0.4433  2.5426
 9032SOL     OW38024   5.004   7.213   1.602 -0.7305  0.8461  0.1254
 9032SOL    HW138025   4.961   7.262   1.526 -2.1474  0.4083  0.6319
 9032SOL    HW238026   4.967   7.120   1.607 -0.6209  0.8628  1.3354
 9033SOL     OW38027   5.929   1.586   3.783 -0.5484  0.9379 -0.1357
 9033SOL    HW138028   5.934   1.653   3.857  1.3150  1.0558 -0.3534
 9033SOL    HW238029   5.954   1.630   3.697 -1.2815  0.4388 -0.6050
 9034SOL     OW38030   8.542   7.658   4.236  0.5123  0.6008 -0.1577
 9034SOL    HW138031   8.594   7.594   4.292  0.9739  1.1098  0.0031
 9034SOL    HW238032   8.464   7.611   4.195 -0.4201  0.4598  1.7179
 9035SOL     OW38033   6.661   9.665   4.398  0.2592  0.6882 -0.4373
 9035SOL    HW138034   6.735   9.727   4.370  0.2831  0.4545 -0.8925
 9035SOL    HW238035   6.589   9.667   4.329  0.6162 -0.4016 -0.8500
 9036SOL     OW38036   2.031   6.966   4.339  0.1352 -0.0819  0.2545
 9036SOL    HW138037   2.094   7.029   4.293  2.2424 -0.9447  1.8863
 9036SOL    HW238038   1.997   6.899   4.274  2.3659 -0.7181 -0.3139
 9037SOL     OW38039   3.435   6.275   0.823 -0.1386  0.5918 -0.2150
 9037SOL    HW138040   3.368   6.205   0.847  1.9069 -1.8740 -1.5917
 9037SOL    HW238041   3.413   6.312   0.732  0.3888 -0.2158 -0.6667
 9038SOL     OW38042   8.586   1.922   1.234  0.1275 -0.5449  0.0485
 9038SOL    HW138043   8.498   1.967   1.241  0.5389  0.0303  1.5301
 9038SOL    HW238044   8.625   1.939   1.143 -1.0181 -0.3333 -0.4044
 9039SOL     OW38045   5.389   9.783   2.675  0.2704 -0.4254 -0.3782
 9039SOL    HW138046   5.378   9.752   2.770  0.2810  1.3319  0.2199
 9039SOL    HW238047   5.475   9.833   2.666  0.3076 -0.6508 -1.3398
 9040SOL     OW38048   3.410   1.962   1.655  0.1984 -0.1407 -0.0854
 9040SOL    HW138049   3.482   2.032   1.652 -0.1132  0.1407 -1.0807
 9040SOL    HW238050   3.452   1.871   1.650  0.6392 -0.0509  1.7272
 9041SOL     OW38051   8.192   5.326   0.280  0.6739  0.3647  0.1795
 9041SOL    HW138052   8.204   5.366   0.189  1.0299  1.5488  0.7433
 9041SOL    HW238053   8.105   5.277   0.283  0.9930 -0.2940 -1.0171
 9042SOL     OW38054   9.543   7.731   2.458  1.1775  0.0595  0.8687
 9042SOL    HW138055   9.496   7.818   2.445 -0.1949 -0.7988 -0.0349
 9042SOL    HW238056   9.497   7.679   2.531  1.6507 -0.1451  1.0236
 9043SOL     OW38057   0.268   3.143   0.823 -0.0223  0.2442 -0.0437
 9043SOL    HW138058   0.209   3.100   0.755 -0.7249 -0.2063  0.8450
 9043SOL    HW238059   0.214   3.170   0.903  0.8891  0.2105  0.5968
 9044SOL     OW38060   9.356   0.100   1.959 -0.0145 -0.1046 -0.2192
 9044SOL    HW138061   9.428   0.160   1.992  0.2847 -0.6776  0.1716
 9044SOL    HW238062   9.333   0.034   2.030 -1.5248  0.6158 -0.0062
 9045SOL     OW38063   2.628   5.588   3.973 -0.4957 -0.0432 -0.1355
 9045SOL    HW138064   2.655   5.524   3.901 -0.1605 -1.1012  0.9028
 9045SOL    HW238065   2.671   5.677   3.957  1.6111 -0.9745  0.0902
 9046SOL     OW38066   5.030   1.042   0.464  0.9623  0.2774  0.8071
 9046SOL    HW138067   5.096   0.967   0.461 -2.1540 -2.5682 -0.1716
 9046SOL    HW238068   5.004   1.068   0.371 -1.1769 -0.4268  1.1822
 9047SOL     OW38069   2.431   2.485   2.725 -0.6215  0.2026 -0.0526
 9047SOL    HW138070   2.425   2.579   2.758  0.0845  0.2104  0.0788
 9047SOL    HW238071   2.449   2.424   2.803  1.2243  0.2367 -0.4134
 9048SOL     OW38072   0.812   1.543   4.455 -0.4097 -0.0971  0.0606
 9048SOL    HW138073   0.824   1.446   4.432 -0.5124 -0.4706  1.5483
 9048SOL    HW238074   0.866   1.599   4.391 -1.1762 -1.0641 -1.4713
 9049SOL     OW38075   0.728   7.017   3.624  0.0842 -0.4163 -0.3141
 9049SOL    HW138076   0.771   7.071   3.697  0.2582 -2.9339  1.5505
 9049SOL    HW238077   0.798   6.962   3.579 -0.1960  0.3645 -1.7152
 9050SOL     OW38078   9.328   9.895   2.812  0.0165  0.6260  0.0099
 9050SOL    HW138079   9.289   9.809   2.778  0.8993  1.0850 -2.2460
 9050SOL    HW238080   9.411   9.875   2.865 -0.7578 -0.0239  0.9976
 9051SOL     OW38081   1.337   2.632   3.629  0.2946 -0.4859 -0.4221
 9051SOL    HW138082   1.432   2.604   3.619  0.4087 -0.7062  1.1294
 9051SOL    HW238083   1.288   2.564   3.684 -0.6958 -0.2536 -1.0114
 9052SOL     OW38084   2.805   3.170   2.367  0.3297 -0.3310  0.0630
 9052SOL    HW138085   2.716   3.133   2.393  1.4330 -1.9484  1.6685
 9052SOL    HW238086   2.835   3.126   2.282 -0.4318  0.2842 -0.5319
 9053SOL     OW38087   8.122   7.724   2.652  0.1220  0.4131  0.0451
 9053SOL    HW138088   8.025   7.697   2.653  0.1787  0.2237  0.5751
 9053SOL    HW238089   8.165   7.694   2.737  0.6531  0.4802 -0.2017
 9054SOL     OW38090   7.572   8.932   4.270  0.4930 -0.0686  0.4805
 9054SOL    HW138091   7.599   8.836   4.275  0.7923 -0.0675 -0.8918
 9054SOL    HW238092   7.632   8.986   4.328  0.9032 -0.5944  0.5521
 9055SOL     OW38093   0.826   0.022   4.347 -0.0964  0.3014 -0.1535
 9055SOL    HW138094   0.889   0.069   4.285  0.7482 -0.5727  0.0340
 9055SOL    HW238095   0.738   0.069   4.347  0.7822  1.9698  0.1448
 9056SOL     OW38096   1.581   3.450   2.096  0.1557 -0.5362 -0.5861
 9056SOL    HW138097   1.626   3.417   2.179  1.2454  0.4566 -0.7684
 9056SOL    HW238098   1.482   3.456   2.112  0.3612 -0.3115  0.6467
 9057SOL     OW38099   1.142   9.668   1.763 -0.0344 -0.4897  0.1409
 9057SOL    HW138100   1.167   9.744   1.823  1.7560 -0.6438 -0.3725
 9057SOL    HW238101   1.224   9.617   1.738 -1.2158 -2.5293  0.3653
 9058SOL     OW38102   1.470   0.460   0.269  0.5456 -0.3278 -0.0663
 9058SOL    HW138103   1.536   0.467   0.195 -0.8730  0.7087 -1.2566
 9058SOL    HW238104   1.382   0.432   0.233  0.3156 -1.7292  1.5190
 9059SOL     OW38105   7.722   8.686   1.046 -0.0778 -0.7364 -0.6651
 9059SOL    HW138106   7.630   8.674   1.010  0.6336  0.9143 -3.1890
 9059SOL    HW238107   7.737   8.783   1.068  1.8072 -0.5517 -2.5736
 9060SOL     OW38108   8.673   9.053   1.822  0.1532  0.0580  0.2730
 9060SOL    HW138109   8.751   9.005   1.861  0.1381  0.8246  1.2828
 9060SOL    HW238110   8.678   9.150   1.847 -0.8278  0.2178 -0.1152
 9061SOL     OW38111   0.458   8.645   0.130 -0.1422  0.3245 -0.5431
 9061SOL    HW138112   0.427   8.736   0.159 -0.4651 -0.1387  0.6088
 9061SOL    HW238113   0.406   8.575   0.179 -0.4399 -0.4942 -2.0011
 9062SOL     OW38114   8.352   3.272   1.658 -0.2417  0.0465 -0.4808
 9062SOL    HW138115   8.409   3.353   1.644 -1.5938  1.1637  0.2963
 9062SOL    HW238116   8.296   3.286   1.740 -1.6413 -1.0149 -1.2594
 9063SOL     OW38117   1.848   3.275   3.995  0.0145 -0.5653 -0.1153
 9063SOL    HW138118   1.851   3.210   3.919 -1.9644 -1.8658  0.8626
 9063SOL    HW238119   1.911   3.246   4.066  1.0578  0.0490 -0.7729
 9064SOL     OW38120   0.053   5.437   1.476 -0.3860  0.2119  0.5129
 9064SOL    HW138121   0.113   5.369   1.434  0.5863  0.4210  1.5338
 9064SOL    HW238122   0.064   5.525   1.429 -1.0922 -0.1480 -0.3303
 9065SOL     OW38123   5.337   8.332   2.273 -0.0250  0.7163  0.7122
 9065SOL    HW138124   5.262   8.293   2.220 -1.1228  2.6142  0.8157
 9065SOL    HW238125   5.399   8.260   2.302 -0.5719 -0.6082 -1.3369
 9066SOL     OW38126   1.838   9.140   1.139  0.3066  0.3444 -0.0503
 9066SOL    HW138127   1.825   9.185   1.051 -0.3706 -0.4792 -0.3777
 9066SOL    HW238128   1.748   9.124   1.181  0.5272 -0.8952 -0.0364
 9067SOL     OW38129   4.365   2.537   3.933  0.0358 -0.0654  0.2620
 9067SOL    HW138130   4.331   2.486   3.854 -0.6720  0.9693 -0.1169
 9067SOL    HW238131   4.288   2.559   3.994  0.2294  1.0662  0.1099
 9068SOL     OW38132   6.268   7.447   2.294 -0.0489  0.6685 -0.7257
 9068SOL    HW138133   6.243   7.421   2.387  1.3828 -2.6471 -1.2007
 9068SOL    HW238134   6.203   7.406   2.230  0.6483  0.5353 -1.3553
 9069SOL     OW38135   0.833   0.852   0.129 -0.1762 -0.0270 -0.3136
 9069SOL    HW138136   0.902   0.831   0.198 -3.1346 -2.9824  1.8865
 9069SOL    HW238137   0.782   0.934   0.156 -0.2864 -0.2715  0.2287
 9070SOL     OW38138   1.963   8.769   1.617  0.3333 -0.3150 -0.2000
 9070SOL    HW138139   1.958   8.779   1.716 -0.5945  0.2245 -0.2984
 9070SOL    HW238140   2.045   8.716   1.593 -0.2689 -1.7811  0.9357
 9071SOL     OW38141   3.775   2.952   3.408  0.2414 -0.2899  0.2879
 9071SOL    HW138142   3.811   2.950   3.501 -0.6545  1.0396  0.6737
 9071SOL    HW238143   3.691   3.006   3.405  0.3012 -0.2449 -1.3096
 9072SOL     OW38144   8.186   6.682   4.436  0.6217 -0.7528  0.1105
 9072SOL    HW138145   8.190   6.608   4.504  1.8526 -0.4338  0.4040
 9072SOL    HW238146   8.216   6.767   4.478 -2.3137  0.2906  0.2214
 9073SOL     OW38147   6.663   9.364   1.365 -0.3018 -0.0498  0.0769
 9073SOL    HW138148   6.736   9.324   1.420 -0.7345 -0.8280  0.0868
 9073SOL    HW238149   6.588   9.299   1.356 -0.6878  0.4740 -0.5473
 9074SOL     OW38150   3.350   2.327   0.103  0.1887 -0.1568 -0.2305
 9074SOL    HW138151   3.430   2.382   0.124  0.3089  1.3486 -4.2491
 9074SOL    HW238152   3.379   2.235   0.075  0.4416  0.0469 -0.6331
 9075SOL     OW38153   7.910   9.875   0.009  0.3420 -0.2047  0.0194
 9075SOL    HW138154   8.006   9.858   0.027  0.5181  0.1952 -0.5237
 9075SOL    HW238155   7.897   9.894  -0.089 -0.2796 -0.2431  0.0925
 9076SOL     OW38156   9.307   5.398   3.389  0.0342 -0.3123  0.1270
 9076SOL    HW138157   9.216   5.419   3.354  0.2133  3.5274  1.8176
 9076SOL    HW238158   9.300   5.366   3.484  0.4851  0.2966  0.3650
 9077SOL     OW38159   2.339   9.983   4.045  0.0884 -0.3192  0.6393
 9077SOL    HW138160   2.320   9.993   3.948 -0.7787 -2.4613  0.5475
 9077SOL    HW238161   2.426   9.935   4.058 -0.0996 -0.5878  0.9109
 9078SOL     OW38162   1.766   8.727   0.471 -0.7313 -0.1451 -0.0484
 9078SOL    HW138163   1.731   8.635   0.454 -3.0066  0.5419  0.6920
 9078SOL    HW238164   1.727   8.790   0.404  0.4908  0.3520 -0.2916
 9079SOL     OW38165   9.276   6.616   1.510  0.3186  0.4739  0.0520
 9079SOL    HW138166   9.344   6.616   1.583 -0.7452  1.2329  1.0629
 9079SOL    HW238167   9.303   6.552   1.438  1.3992 -0.2317  1.0849
 9080SOL     OW38168   5.573   8.598   2.802  0.4296  0.3145  0.4261
 9080SOL    HW138169   5.503   8.542   2.846  1.1508 -1.0492 -0.1535
 9080SOL    HW238170   5.658   8.593   2.853 -0.0886  2.6087  1.5761
 9081SOL     OW38171   4.348   3.642   2.443 -0.3228 -0.4394  0.4415
 9081SOL    HW138172   4.398   3.556   2.441 -1.9074 -1.3659 -0.7690
 9081SOL    HW238173   4.265   3.634   2.388  0.3723  2.4153 -1.1583
 9082SOL     OW38174   3.202   7.007   0.972 -0.0093 -0.3172 -0.7668
 9082SOL    HW138175   3.163   6.915   0.969  2.4102 -1.4389  0.7971
 9082SOL    HW238176   3.291   7.007   0.926  1.6130  0.3627  2.2270
 9083SOL     OW38177   0.872   6.088   3.040 -0.3611  0.0606  0.0570
 9083SOL    HW138178   0.887   6.187   3.046  2.3930 -0.2735 -0.9130
 9083SOL    HW238179   0.928   6.042   3.108  0.1964 -1.0000 -1.1137
 9084SOL     OW38180   9.642   9.728   0.822  0.8004  0.1459 -0.5259
 9084SOL    HW138181   9.548   9.705   0.848  0.7956 -1.4817 -1.8718
 9084SOL    HW238182   9.706   9.667   0.868  1.0292 -0.3365 -1.4670
 9085SOL     OW38183   4.036   0.045   1.229 -0.0563 -0.1376  0.1654
 9085SOL    HW138184   4.081  -0.007   1.302 -0.9263 -2.2899 -0.7874
 9085SOL    HW238185   4.100   0.112   1.193  0.9225 -0.1480  1.8060
 9086SOL     OW38186   8.254   9.932   3.124 -0.4836  0.3778 -0.7870
 9086SOL    HW138187   8.190   9.856   3.110 -1.4969  1.3734 -1.6938
 9086SOL    HW238188   8.209  10.004   3.178  0.0761  0.8211 -0.9018
 9087SOL     OW38189   7.847   3.511   2.440  0.4611  0.3142 -0.0916
 9087SOL    HW138190   7.913   3.446   2.477 -0.4709 -0.2445  0.5939
 9087SOL    HW238191   7.833   3.585   2.505 -0.3697 -0.1103  0.2116
 9088SOL     OW38192   9.741   7.756   0.760  0.0428  0.1226  0.0208
 9088SOL    HW138193   9.752   7.837   0.702  1.7439 -0.4226 -0.4580
 9088SOL    HW238194   9.824   7.742   0.814 -0.3847 -1.0672  0.3916
 9089SOL     OW38195   6.642   1.755   3.039  0.7389  0.0978  0.1779
 9089SOL    HW138196   6.715   1.802   3.089  2.1981 -0.7701 -1.0922
 9089SOL    HW238197   6.665   1.658   3.030 -0.1815 -0.0287 -0.9363
 9090SOL     OW38198   7.351   9.813   4.138 -0.1059 -0.7008 -0.1660
 9090SOL    HW138199   7.274   9.872   4.161 -0.3261 -0.9747 -0.1941
 9090SOL    HW238200   7.321   9.717   4.141  0.0692 -0.7805 -0.7840
 9091SOL     OW38201   9.839   3.908   4.428  0.0304 -0.2649  0.2255
 9091SOL    HW138202   9.812   3.989   4.375 -0.3140 -1.5274 -1.5974
 9091SOL    HW238203   9.926   3.926   4.474  0.4254  0.8302 -0.9147
 9092SOL     OW38204   1.454   2.434   0.474 -0.7591 -0.8367 -0.1728
 9092SOL    HW138205   1.442   2.368   0.401 -2.4928  0.3241 -0.9514
 9092SOL    HW238206   1.386   2.419   0.546  0.5883 -1.6255  0.9844
 9093SOL     OW38207   0.711   7.469   2.035 -0.1585 -1.1986 -0.3240
 9093SOL    HW138208   0.649   7.469   1.957  1.2738 -3.4420 -1.5013
 9093SOL    HW238209   0.658   7.464   2.120 -1.6764  0.0812 -1.1709
 9094SOL     OW38210   2.402   6.240   2.959  0.1665 -0.1249  0.3720
 9094SOL    HW138211   2.366   6.164   3.014  0.0919  0.2856  0.8854
 9094SOL    HW238212   2.345   6.250   2.877 -0.3664 -0.0497  0.7461
 9095SOL     OW38213   2.212   3.593   0.664 -0.4395  0.1135 -0.8883
 9095SOL    HW138214   2.176   3.646   0.587  0.3108  1.6094 -0.2483
 9095SOL    HW238215   2.307   3.567   0.644 -0.7606 -0.8824 -1.1370
 9096SOL     OW38216   4.148   8.965   1.361 -0.2683 -0.2185 -0.8686
 9096SOL    HW138217   4.211   8.965   1.283  0.1297 -0.0559 -0.5480
 9096SOL    HW238218   4.160   9.049   1.414  2.0177 -1.8792  1.4178
 9097SOL     OW38219   3.038   1.433   2.448  0.1463  0.5631  0.7237
 9097SOL    HW138220   2.975   1.379   2.504  0.1012  1.0372  1.1414
 9097SOL    HW238221   3.127   1.438   2.494  0.2821  0.4685  0.4699
 9098SOL     OW38222   7.022   0.676   0.200  0.1729  0.1728  0.2920
 9098SOL    HW138223   6.990   0.621   0.123  1.6209 -1.3851  0.7613
 9098SOL    HW238224   7.090   0.742   0.169 -0.6242  0.8392 -0.0597
 9099SOL     OW38225   2.003   6.723   3.930  0.2068  0.1466 -0.0273
 9099SOL    HW138226   1.997   6.631   3.891 -2.1935  0.4530 -0.4853
 9099SOL    HW238227   1.969   6.790   3.864 -3.6210  0.7187  2.3158
 9100SOL     OW38228   9.528   8.268   4.430 -0.6588 -0.4329  0.0945
 9100SOL    HW138229   9.587   8.299   4.355  0.8600 -0.1044  1.4056
 9100SOL    HW238230   9.584   8.231   4.503 -2.0714  0.0255  1.4341
 9101SOL     OW38231   1.770   2.507   3.823  0.2233 -0.0257  0.8497
 9101SOL    HW138232   1.843   2.444   3.796 -0.3823 -0.6651  0.7047
 9101SOL    HW238233   1.798   2.601   3.802  0.6285 -0.3415 -0.0409
 9102SOL     OW38234   8.485   8.548   2.078 -0.3772 -0.0122  0.0124
 9102SOL    HW138235   8.420   8.524   2.006 -0.8434 -2.4565  1.2038
 9102SOL    HW238236   8.562   8.485   2.076  0.6031  1.1612  0.3731
 9103SOL     OW38237   8.887   3.701   1.728  0.0791  0.3925 -0.0153
 9103SOL    HW138238   8.981   3.735   1.737  0.1812  0.3899 -1.0461
 9103SOL    HW238239   8.826   3.756   1.786  0.6666  0.5908  0.4174
 9104SOL     OW38240   0.533   9.429   1.709 -0.0324 -0.4325  0.1267
 9104SOL    HW138241   0.556   9.475   1.795  0.0330 -0.4147  0.0999
 9104SOL    HW238242   0.545   9.330   1.720  2.9752 -0.2297 -0.7649
 9105SOL     OW38243   2.875   5.347   2.265 -0.2585 -0.2329  0.0739
 9105SOL    HW138244   2.814   5.350   2.344 -0.3203  1.0659 -0.0053
 9105SOL    HW238245   2.951   5.412   2.279  3.0274 -4.1998  1.6687
 9106SOL     OW38246   6.914   1.110   5.017 -0.7353 -0.9497 -0.3026
 9106SOL    HW138247   6.879   1.123   4.925  0.3711 -1.2961 -0.7856
 9106SOL    HW238248   6.908   1.013   5.042 -0.7836 -0.8999 -0.1185
 9107SOL     OW38249   7.149   0.183   0.684 -0.4595  0.2003 -0.0202
 9107SOL    HW138250   7.138   0.169   0.783 -2.3800  1.3923 -0.0364
 9107SOL    HW238251   7.205   0.265   0.668 -2.7602  1.8438  0.1183
 9108SOL     OW38252   1.306   4.579   0.323 -0.0613  0.1193 -0.1186
 9108SOL    HW138253   1.332   4.638   0.246 -2.3958  1.2608 -0.0747
 9108SOL    HW238254   1.280   4.489   0.288  0.4678  0.1073 -0.4926
 9109SOL     OW38255   0.566   4.521   4.328 -0.0565  0.5071 -0.3252
 9109SOL    HW138256   0.560   4.456   4.404  0.8152 -1.2615 -1.7332
 9109SOL    HW238257   0.661   4.527   4.296 -0.5728  0.4467 -1.9295
 9110SOL     OW38258   9.854   6.533   4.230 -0.1818  0.4567  1.1724
 9110SOL    HW138259   9.827   6.503   4.322 -1.3911 -0.7509  0.4397
 9110SOL    HW238260   9.779   6.515   4.166  0.6834  1.2208 -0.0687
 9111SOL     OW38261   9.710   9.562   4.702 -0.0684  0.0525  0.9104
 9111SOL    HW138262   9.790   9.521   4.656 -1.3206 -0.0639 -1.2133
 9111SOL    HW238263   9.698   9.517   4.791  1.7082 -0.5371  0.8939
 9112SOL     OW38264   8.138   6.349   4.030  0.0615 -0.1840  0.1734
 9112SOL    HW138265   8.117   6.272   4.091 -1.7227 -0.7783 -1.1510
 9112SOL    HW238266   8.182   6.422   4.083 -0.7109 -1.0160  2.0115
 9113SOL     OW38267   2.431   0.544   0.869 -0.1980  0.2961 -0.3944
 9113SOL    HW138268   2.477   0.630   0.890 -0.1496  0.6816 -1.9927
 9113SOL    HW238269   2.401   0.500   0.954 -0.7694  2.1832  0.4008
 9114SOL     OW38270   8.329   1.758   3.291  0.4376  0.4413  0.2145
 9114SOL    HW138271   8.234   1.769   3.321  0.3216  0.7155 -0.2370
 9114SOL    HW238272   8.350   1.661   3.278 -0.5442  0.4949 -2.0585
 9115SOL     OW38273   9.519   8.894   4.683 -0.2083 -0.1514 -0.1554
 9115SOL    HW138274   9.512   8.984   4.726 -1.3632 -0.4034  0.2015
 9115SOL    HW238275   9.607   8.852   4.707  1.1371  1.6565 -1.8490
 9116SOL     OW38276   6.480   8.390   1.930  0.1048  0.8276 -0.2842
 9116SOL    HW138277   6.544   8.314   1.924  0.4882  1.2448 -1.8783
 9116SOL    HW238278   6.526   8.471   1.965 -0.0009  0.6523  0.2633
 9117SOL     OW38279   3.682   7.776   4.715  0.0533 -0.3253  0.2878
 9117SOL    HW138280   3.616   7.839   4.756  0.5808  1.2307 -1.1954
 9117SOL    HW238281   3.642   7.685   4.711 -1.5730  0.3515  0.4406
 9118SOL     OW38282   6.459   0.610   2.000  0.4150  0.3494 -0.2632
 9118SOL    HW138283   6.508   0.696   1.984  0.0803 -0.0824 -4.1564
 9118SOL    HW238284   6.380   0.606   1.939 -0.2768 -2.1978  0.7647
 9119SOL     OW38285   9.745   4.480   2.315  0.0926  0.1846  0.3955
 9119SOL    HW138286   9.798   4.416   2.372 -0.4775 -0.3689  0.3080
 9119SOL    HW238287   9.746   4.448   2.220 -3.3275 -1.7694  0.9617
 9120SOL     OW38288   0.581   4.475   5.063  0.4817 -0.0086  0.0549
 9120SOL    HW138289   0.552   4.512   4.974  0.5665  1.7623  0.7487
 9120SOL    HW238290   0.640   4.395   5.048 -1.1692 -0.9970 -1.4360
 9121SOL     OW38291   9.326   9.964   0.378 -0.8113 -0.3291 -0.1400
 9121SOL    HW138292   9.286  10.053   0.354 -0.7501  0.1398  1.4724
 9121SOL    HW238293   9.394   9.976   0.450  1.1816 -1.3216 -1.8142
 9122SOL     OW38294   5.139   1.799   2.848 -0.0855  0.1930  0.5267
 9122SOL    HW138295   5.130   1.803   2.748  2.2722 -1.2721  0.2076
 9122SOL    HW238296   5.129   1.891   2.886 -1.1775  0.7426 -1.0273
 9123SOL     OW38297   2.385   9.315   3.120 -0.0472  0.1048 -0.1036
 9123SOL    HW138298   2.380   9.415   3.131 -0.1324  0.0360  0.4974
 9123SOL    HW238299   2.427   9.294   3.032  0.7799  0.6785  0.1445
 9124SOL     OW38300   7.066   1.388   3.764 -0.1100 -0.7001 -0.1989
 9124SOL    HW138301   7.003   1.452   3.808 -1.5092 -2.0954 -0.0778
 9124SOL    HW238302   7.013   1.324   3.708  1.1602 -2.2076  0.2914
 9125SOL     OW38303   0.436   1.594   4.186  0.1940  0.2258  0.0739
 9125SOL    HW138304   0.532   1.580   4.163  0.4809 -0.8440  1.7852
 9125SOL    HW238305   0.383   1.514   4.159 -0.3818  1.1616 -1.6351
 9126SOL     OW38306   6.901   1.068   4.745  0.2518 -0.1696 -0.2320
 9126SOL    HW138307   6.853   0.986   4.712 -1.0329  0.4395  0.0600
 9126SOL    HW238308   6.999   1.051   4.746 -0.0301 -1.9353  0.4188
 9127SOL     OW38309   2.766   3.397   3.871  0.3226  0.6253 -0.8166
 9127SOL    HW138310   2.752   3.433   3.779  0.2312  2.6979 -0.0375
 9127SOL    HW238311   2.785   3.473   3.934  0.5672 -0.7642  0.8420
 9128SOL     OW38312   1.271   2.442   3.847 -0.2097  0.0099 -0.3507
 9128SOL    HW138313   1.266   2.347   3.878 -0.5332 -0.0966 -0.7196
 9128SOL    HW238314   1.346   2.488   3.893 -0.2657 -0.3312  0.0888
 9129SOL     OW38315   4.178   4.158   1.346 -0.2123  0.3221  0.0522
 9129SOL    HW138316   4.088   4.201   1.351 -1.1663 -1.6503  0.2290
 9129SOL    HW238317   4.175   4.068   1.390  1.2753 -0.6980 -1.8267
 9130SOL     OW38318   0.543   0.148   1.695 -0.5065  0.4835 -0.3092
 9130SOL    HW138319   0.473   0.182   1.632  0.7032 -0.0282 -1.9476
 9130SOL    HW238320   0.632   0.149   1.650  0.4382  0.4199  1.5118
 9131SOL     OW38321   9.768   8.541   1.422 -0.1497 -0.0586  0.5311
 9131SOL    HW138322   9.727   8.493   1.499 -0.5536  0.2586  0.5198
 9131SOL    HW238323   9.761   8.485   1.340 -1.1205  0.2394  0.4000
 9132SOL     OW38324   1.786   7.655   0.274 -1.1154 -0.1102  0.5784
 9132SOL    HW138325   1.775   7.571   0.221 -1.8967  0.5224 -0.2979
 9132SOL    HW238326   1.699   7.703   0.278 -0.1390  1.9176 -1.1391
 9133SOL     OW38327   9.278   8.498   1.243 -0.0409 -0.0230  0.1285
 9133SOL    HW138328   9.185   8.518   1.273 -0.1842  1.0583 -0.9863
 9133SOL    HW238329   9.342   8.517   1.318 -0.7255 -1.0024  0.9769
 9134SOL     OW38330   3.147   4.142   3.768 -0.0845 -0.3778 -0.3137
 9134SOL    HW138331   3.090   4.080   3.822 -0.3924 -0.9894 -1.3308
 9134SOL    HW238332   3.089   4.202   3.713  0.1838  1.5149  1.3954
 9135SOL     OW38333   3.206   3.138   4.834 -0.2716  0.0562  0.0917
 9135SOL    HW138334   3.289   3.098   4.873 -0.1040  0.9260  0.6372
 9135SOL    HW238335   3.144   3.164   4.908  0.3570  2.3953 -0.1697
 9136SOL     OW38336   7.682   0.651   4.172  0.2717  0.2474  0.0550
 9136SOL    HW138337   7.702   0.665   4.269  0.8487 -0.3836  0.0292
 9136SOL    HW238338   7.675   0.553   4.153  2.1424  0.2776 -0.9243
 9137SOL     OW38339   6.267   7.009   2.728 -0.1383 -0.3381 -0.0932
 9137SOL    HW138340   6.172   7.040   2.740 -0.3556 -0.8647 -0.4336
 9137SOL    HW238341   6.301   7.040   2.640 -0.2381 -0.7595 -0.2822
 9138SOL     OW38342   4.394   8.392   0.195 -0.2076 -1.0027  0.1834
 9138SOL    HW138343   4.451   8.471   0.220 -0.7724 -0.5937  0.1972
 9138SOL    HW238344   4.317   8.386   0.259 -0.7464 -0.9433 -0.4615
 9139SOL     OW38345   0.293   7.301   2.451  0.6119 -0.1206 -0.9631
 9139SOL    HW138346   0.246   7.214   2.434  0.0829  0.0862 -0.5460
 9139SOL    HW238347   0.291   7.322   2.548 -0.5244  1.0797 -1.2332
 9140SOL     OW38348   8.314   8.023   4.329  0.3838 -0.0917 -0.5803
 9140SOL    HW138349   8.285   7.992   4.420 -0.1984 -1.1334 -1.1196
 9140SOL    HW238350   8.274   8.113   4.311 -1.6598 -1.0204 -0.8702
 9141SOL     OW38351   0.440   8.671   4.022 -0.4878 -0.5693  0.0358
 9141SOL    HW138352   0.507   8.611   4.067 -0.7925 -0.3859  0.7486
 9141SOL    HW238353   0.402   8.624   3.943  1.3451 -0.2232 -1.0860
 9142SOL     OW38354   8.524   4.790   4.478 -0.3423 -0.2819 -0.3517
 9142SOL    HW138355   8.434   4.799   4.436 -0.6295  2.8491  0.8400
 9142SOL    HW238356   8.592   4.837   4.422  0.1650 -0.6625 -0.0591
 9143SOL     OW38357   5.650   6.669   2.002  0.2224 -0.2587 -0.5235
 9143SOL    HW138358   5.662   6.655   2.101 -0.5535  1.5951 -0.1420
 9143SOL    HW238359   5.566   6.721   1.986 -0.7956 -2.3482 -2.3257
 9144SOL     OW38360   7.137   9.990   4.289 -0.0234  0.2097 -0.5006
 9144SOL    HW138361   7.081  10.069   4.312  1.5370  1.5707 -1.2773
 9144SOL    HW238362   7.175   9.950   4.373 -1.7802 -0.4788 -0.0058
 9145SOL     OW38363   7.609   3.628   1.518  0.1511  0.0974 -0.1018
 9145SOL    HW138364   7.560   3.597   1.599  0.9178  0.4875  0.5164
 9145SOL    HW238365   7.706   3.638   1.540  0.4971 -0.5741 -1.2864
 9146SOL     OW38366   7.286   9.636   3.260  0.3595 -0.2650 -0.1524
 9146SOL    HW138367   7.314   9.626   3.165  1.6433 -1.6930  0.3644
 9146SOL    HW238368   7.268   9.732   3.280 -0.3004 -0.0042 -1.9317
 9147SOL     OW38369   8.987   0.043   1.321  0.7045  0.2315  0.1217
 9147SOL    HW138370   9.046   0.008   1.248  1.6909  0.7642  0.6615
 9147SOL    HW238371   8.906  -0.014   1.328 -0.0577  0.9496 -2.3044
 9148SOL     OW38372   3.695   3.419   3.048 -0.3195 -0.0088  0.3548
 9148SOL    HW138373   3.620   3.392   3.108  0.0146  0.5552  1.0288
 9148SOL    HW238374   3.764   3.469   3.100  0.7329 -0.8863 -0.1795
 9149SOL     OW38375   1.886   8.958   5.317 -0.5164 -0.2493 -0.0679
 9149SOL    HW138376   1.803   8.957   5.372 -0.4084  0.2029  0.1059
 9149SOL    HW238377   1.869   8.912   5.230 -1.1081  0.3236 -0.2567
 9150SOL     OW38378   0.519   5.459   0.185 -0.6121 -0.2503  0.6957
 9150SOL    HW138379   0.460   5.379   0.172  0.0134 -0.5292 -0.5193
 9150SOL    HW238380   0.614   5.430   0.184 -0.3476  0.6711 -0.9617
 9151SOL     OW38381   8.573   0.060   0.118  0.2980  0.0358  0.0168
 9151SOL    HW138382   8.536  -0.031   0.136  0.1230 -0.1277 -1.1733
 9151SOL    HW238383   8.499   0.127   0.117  0.4973  0.3075  1.5494
 9152SOL     OW38384   0.100   6.549   0.265 -0.3235  0.2427 -0.2565
 9152SOL    HW138385   0.017   6.508   0.228 -0.3636  0.7326 -0.7115
 9152SOL    HW238386   0.086   6.572   0.362 -0.5677 -0.0760 -0.2168
 9153SOL     OW38387   1.267   4.638   1.881 -0.0377 -0.2443  0.4919
 9153SOL    HW138388   1.203   4.574   1.838  0.5699 -0.5021 -0.0437
 9153SOL    HW238389   1.226   4.730   1.881  0.6367  0.1269 -2.2830
 9154SOL     OW38390   5.153   2.998   0.888 -0.2835 -0.3363 -0.0978
 9154SOL    HW138391   5.226   2.982   0.822  0.2588 -1.9083  0.8665
 9154SOL    HW238392   5.080   2.931   0.875 -1.5829  1.2284 -1.0621
 9155SOL     OW38393   4.577   2.348   2.968 -0.0490  0.1308  0.1746
 9155SOL    HW138394   4.650   2.416   2.976  1.0491 -0.9826 -0.3285
 9155SOL    HW238395   4.499   2.376   3.025  1.1443  0.8323  1.4851
 9156SOL     OW38396   1.685   1.801   5.202 -0.5871  0.1044 -0.5041
 9156SOL    HW138397   1.675   1.894   5.238 -0.9468 -0.2913  0.4161
 9156SOL    HW238398   1.691   1.736   5.277  1.0254 -0.4951 -1.1339
 9157SOL     OW38399   9.554   0.098   5.006  0.5481  0.6135 -0.3155
 9157SOL    HW138400   9.508   0.018   5.046  1.9684  0.2435  0.6059
 9157SOL    HW238401   9.498   0.179   5.020  0.5864  0.3316  1.6276
 9158SOL     OW38402   6.177   8.371   1.478  0.5019 -0.1223  0.2302
 9158SOL    HW138403   6.085   8.353   1.512  0.2497  1.5262  0.4834
 9158SOL    HW238404   6.230   8.286   1.477 -1.1764 -1.1810 -0.4163
 9159SOL     OW38405   0.557   4.907   3.111  0.2959  0.3227  0.3452
 9159SOL    HW138406   0.610   4.958   3.043 -0.6625 -0.7296 -1.2257
 9159SOL    HW238407   0.506   4.971   3.168  0.4436  1.2010 -0.4898
 9160SOL     OW38408   9.953   1.941   3.183 -0.2154  0.1287 -0.0434
 9160SOL    HW138409   9.965   1.850   3.142  2.8478  0.7820 -0.6899
 9160SOL    HW238410  10.010   1.948   3.265 -1.3829  1.0690  0.6952
 9161SOL     OW38411   5.181   8.490   1.944  0.1250  0.3372 -0.2421
 9161SOL    HW138412   5.220   8.464   1.855  0.7348 -0.8607  0.3633
 9161SOL    HW238413   5.254   8.525   2.003 -0.0382 -0.1928  0.2712
 9162SOL     OW38414   0.960   3.546   3.081 -0.1701 -0.5051 -0.4829
 9162SOL    HW138415   0.905   3.476   3.036 -1.0206  0.6023 -1.2231
 9162SOL    HW238416   0.904   3.628   3.094  0.9129  0.1667  0.0218
 9163SOL     OW38417   9.460   4.921   1.566 -0.7344 -0.4966 -0.1904
 9163SOL    HW138418   9.483   4.989   1.635  2.3273 -1.3560 -0.2812
 9163SOL    HW238419   9.419   4.841   1.610  1.9887 -1.3936  0.8215
 9164SOL     OW38420   3.214   9.007   3.189  0.2101  0.4449 -0.1254
 9164SOL    HW138421   3.192   8.933   3.125  0.7499 -0.3466  0.5954
 9164SOL    HW238422   3.190   8.979   3.282 -1.1087  1.8097 -0.0303
 9165SOL     OW38423   2.304   4.151   4.393  0.2135 -0.3666 -0.1432
 9165SOL    HW138424   2.395   4.192   4.381 -0.2826  0.4045 -1.3691
 9165SOL    HW238425   2.248   4.212   4.449  0.3849 -0.7508  0.4504
 9166SOL     OW38426   8.017   1.715   2.290 -0.7578 -0.1063  0.2119
 9166SOL    HW138427   8.060   1.711   2.200  0.4055 -0.1502  0.7648
 9166SOL    HW238428   8.019   1.624   2.332 -1.9056 -0.2314  0.0025
 9167SOL     OW38429   7.720   2.963   4.894 -0.2487  0.3722 -0.2900
 9167SOL    HW138430   7.728   2.914   4.981 -1.6372 -0.7146 -0.7536
 9167SOL    HW238431   7.627   2.999   4.884  0.8406  3.4798  0.2071
 9168SOL     OW38432   9.436   1.268   1.258 -0.0118  0.0949 -0.1400
 9168SOL    HW138433   9.476   1.239   1.172  0.9028 -2.5629  1.1212
 9168SOL    HW238434   9.484   1.349   1.292  1.0109 -0.1086 -1.0953
 9169SOL     OW38435   0.532   0.056   4.356 -0.1594 -0.2110 -0.0462
 9169SOL    HW138436   0.484   0.027   4.439 -1.0819  0.9855 -0.1495
 9169SOL    HW238437   0.467   0.062   4.281 -0.1244  2.6916  0.1094
 9170SOL     OW38438   9.696   4.712   0.731  0.4850 -0.5812 -0.5866
 9170SOL    HW138439   9.704   4.810   0.744  1.0927 -0.6505 -0.4189
 9170SOL    HW238440   9.650   4.693   0.645 -0.5565 -0.1415 -0.1382
 9171SOL     OW38441   4.534   9.660   1.859  0.0079 -0.1781 -0.3665
 9171SOL    HW138442   4.468   9.710   1.916 -0.2865 -1.5408  0.5111
 9171SOL    HW238443   4.488   9.583   1.814  1.4844 -2.7761  2.3453
 9172SOL     OW38444   4.468   0.610   2.194  0.6816  0.0896 -0.7808
 9172SOL    HW138445   4.380   0.572   2.167  1.2755 -1.4534 -0.5971
 9172SOL    HW238446   4.454   0.680   2.264 -0.5763  1.5798 -2.4641
 9173SOL     OW38447   2.650   2.850   5.307 -0.0208 -1.0065  0.4282
 9173SOL    HW138448   2.551   2.860   5.297  0.2773  0.0546 -1.5267
 9173SOL    HW238449   2.695   2.938   5.292  1.2190 -1.4383  1.5056
 9174SOL     OW38450   8.754   6.355   4.895  0.6492 -0.1740 -0.7696
 9174SOL    HW138451   8.825   6.408   4.941  0.6627 -1.5669  0.8520
 9174SOL    HW238452   8.696   6.417   4.841  1.0904  1.4040  0.5231
 9175SOL     OW38453   7.741   3.417   1.025  0.0940  0.2119  0.2857
 9175SOL    HW138454   7.672   3.387   1.091 -0.2941  2.8732  1.1333
 9175SOL    HW238455   7.801   3.340   1.004 -1.3863 -1.3879  1.7233
 9176SOL     OW38456   5.360   0.622   3.617  0.3908  0.2801  0.5652
 9176SOL    HW138457   5.373   0.601   3.714  0.2770  1.8255  0.9237
 9176SOL    HW238458   5.367   0.538   3.564  0.3374 -0.5999  1.9254
 9177SOL     OW38459   8.526   6.039   3.030  0.1068  0.5899  0.4145
 9177SOL    HW138460   8.617   6.040   2.989 -0.6427 -0.3749 -1.3327
 9177SOL    HW238461   8.472   5.965   2.990 -0.8708 -0.0131  2.7458
 9178SOL     OW38462   8.349   7.370   2.914 -0.5671  0.2169 -0.4526
 9178SOL    HW138463   8.360   7.308   2.837  1.4511  0.1446 -0.1197
 9178SOL    HW238464   8.256   7.361   2.951  0.0717 -3.6581  0.4550
 9179SOL     OW38465   1.481   4.370   0.523 -0.0335  0.4879 -0.1766
 9179SOL    HW138466   1.440   4.458   0.547  0.1189  0.6583 -0.5316
 9179SOL    HW238467   1.422   4.296   0.555 -2.2479  0.7271 -3.4281
 9180SOL     OW38468   2.989   6.547   4.924 -0.3427 -0.0871  0.2397
 9180SOL    HW138469   3.086   6.525   4.916  0.0045  0.8216  1.7891
 9180SOL    HW238470   2.961   6.605   4.847 -0.0350 -1.5683 -1.0162
 9181SOL     OW38471   7.294   6.840   2.457  0.0288  0.5584  0.0026
 9181SOL    HW138472   7.360   6.799   2.393 -0.8944 -2.7738  1.0426
 9181SOL    HW238473   7.342   6.900   2.520  1.6595  0.2729 -0.9371
 9182SOL     OW38474   9.338   6.946   3.507 -0.5466  0.2027 -0.3616
 9182SOL    HW138475   9.382   6.886   3.440 -0.5198  0.0441 -0.2011
 9182SOL    HW238476   9.249   6.975   3.472 -0.3579  0.4408 -0.6410
 9183SOL     OW38477   9.623   9.430   1.235 -0.1217  0.3654 -0.3446
 9183SOL    HW138478   9.613   9.340   1.277  0.3105 -0.2581 -1.5470
 9183SOL    HW238479   9.536   9.458   1.194 -0.1880  0.3795 -0.1912
 9184SOL     OW38480   8.853   3.178   1.814 -0.0715 -0.1628 -0.0875
 9184SOL    HW138481   8.825   3.186   1.910  1.6187  0.8567  0.3439
 9184SOL    HW238482   8.853   3.269   1.772  2.6167 -0.1105 -0.0457
 9185SOL     OW38483   1.637   0.300   1.571  0.3925  0.3157  0.0657
 9185SOL    HW138484   1.667   0.380   1.624  0.5661  0.6555 -0.5385
 9185SOL    HW238485   1.557   0.324   1.516 -0.5476 -0.3859  1.1041
 9186SOL     OW38486   4.753   4.141   0.202 -0.5923 -0.4372  0.0250
 9186SOL    HW138487   4.804   4.195   0.268 -1.4287  0.7077 -0.2576
 9186SOL    HW238488   4.704   4.067   0.249 -3.3456  1.9697  1.0655
 9187SOL     OW38489   3.362   7.368   2.070  0.4866 -0.1700 -0.1565
 9187SOL    HW138490   3.294   7.299   2.046  0.9606 -0.8158  0.3570
 9187SOL    HW238491   3.452   7.339   2.040  0.6677  0.2892 -0.0640
 9188SOL     OW38492   4.059   1.243   5.524  0.3739 -0.2096 -0.5518
 9188SOL    HW138493   3.964   1.272   5.511  0.2804 -0.2934 -0.0774
 9188SOL    HW238494   4.062   1.143   5.527 -0.1791 -0.1929  4.0385
 9189SOL     OW38495   9.300   3.191   2.077  0.1842  0.3482  0.4104
 9189SOL    HW138496   9.388   3.233   2.055 -0.0449  1.4226  1.4644
 9189SOL    HW238497   9.309   3.091   2.074  1.0143  0.4526 -1.0690
 9190SOL     OW38498   0.217   0.471   5.151 -0.2361 -0.5646  0.0705
 9190SOL    HW138499   0.162   0.538   5.202 -2.6812 -2.3675 -0.1156
 9190SOL    HW238500   0.297   0.447   5.205 -0.5054  0.8301  1.1368
 9191SOL     OW38501   4.228   9.684   4.781 -0.4949  0.0440 -0.3008
 9191SOL    HW138502   4.144   9.649   4.822 -1.4186  0.6822 -1.6254
 9191SOL    HW238503   4.223   9.784   4.775  0.6446  0.1510  0.2011
 9192SOL     OW38504   9.214   6.940   4.685 -0.4274  0.0381  0.1794
 9192SOL    HW138505   9.164   6.859   4.656 -1.4079  0.3663  0.9246
 9192SOL    HW238506   9.188   6.964   4.778  1.2106  0.1540  0.6269
 9193SOL     OW38507   7.614   8.640   4.250  0.0619  0.1095  0.0966
 9193SOL    HW138508   7.587   8.544   4.243 -1.7440  0.6999 -1.4206
 9193SOL    HW238509   7.699   8.654   4.200 -1.4754 -0.0434 -2.6465
 9194SOL     OW38510   3.416   1.086   4.926  0.5226  0.9741  0.5141
 9194SOL    HW138511   3.492   1.136   4.886 -0.4778  0.5531 -2.0286
 9194SOL    HW238512   3.408   0.997   4.881 -2.6038  1.7629 -0.6432
 9195SOL     OW38513   5.659   0.310   4.735  0.8211  0.1830  0.2988
 9195SOL    HW138514   5.717   0.373   4.788  0.8894  1.8073 -1.6161
 9195SOL    HW238515   5.564   0.341   4.739  0.5836 -0.6066  0.7762
 9196SOL     OW38516   2.478   0.748   1.185 -0.8233  0.4265  0.1789
 9196SOL    HW138517   2.536   0.720   1.261  1.0662  1.1920 -0.9554
 9196SOL    HW238518   2.455   0.845   1.194  2.8659  1.6412 -2.3405
 9197SOL     OW38519   8.057   5.310   3.861  0.5620  0.2365 -0.0091
 9197SOL    HW138520   8.111   5.250   3.920 -1.0880 -0.1508  1.1362
 9197SOL    HW238521   8.047   5.267   3.771  0.0836 -0.8434  0.5455
 9198SOL     OW38522   9.635   4.406   0.583  0.2881 -0.7434  0.2745
 9198SOL    HW138523   9.657   4.354   0.500 -0.0239 -0.5186  0.0485
 9198SOL    HW238524   9.614   4.500   0.558  1.0774 -0.4486  0.7089
 9199SOL     OW38525   9.742   8.696   0.542 -0.2598  0.4622  0.7939
 9199SOL    HW138526   9.748   8.685   0.443  3.7885  1.7119  0.8212
 9199SOL    HW238527   9.707   8.612   0.583 -0.3477 -0.6690 -1.5440
 9200SOL     OW38528   3.348   4.169   3.573 -0.0672 -0.2570  0.3979
 9200SOL    HW138529   3.440   4.134   3.591  0.6666  2.0952  1.3553
 9200SOL    HW238530   3.289   4.150   3.652  0.3307  0.6775  0.9192
 9201SOL     OW38531   1.906   0.609   0.220 -0.3262  0.3954  0.0582
 9201SOL    HW138532   1.916   0.673   0.296 -2.3113 -0.8994  1.4259
 9201SOL    HW238533   1.972   0.534   0.231 -1.1159 -0.1844  0.9301
 9202SOL     OW38534   4.239   3.925   3.834 -0.5120 -0.6228  0.2964
 9202SOL    HW138535   4.260   4.018   3.804 -0.0096 -1.2968 -1.5184
 9202SOL    HW238536   4.197   3.928   3.925  3.3910  1.1056  2.1936
 9203SOL     OW38537   7.934   1.350   0.943 -0.1588 -0.4229  0.3426
 9203SOL    HW138538   7.959   1.446   0.931  0.3089 -0.5076  0.6316
 9203SOL    HW238539   8.006   1.291   0.907  0.3132 -0.6686  1.6542
 9204SOL     OW38540   0.906   3.208   3.131 -0.9229 -0.5457 -0.3334
 9204SOL    HW138541   0.893   3.210   3.230 -2.1137 -0.7251 -0.4841
 9204SOL    HW238542   1.004   3.216   3.110 -0.5711 -1.4826  0.8923
 9205SOL     OW38543   2.263   4.326   0.507  0.0552  0.1874  0.2811
 9205SOL    HW138544   2.355   4.330   0.469  0.3550  0.7691  1.0708
 9205SOL    HW238545   2.268   4.308   0.606 -0.6579  0.6885  0.4137
 9206SOL     OW38546   3.801   1.319   5.575  0.4432 -0.3322  0.6751
 9206SOL    HW138547   3.819   1.297   5.671  2.2461 -2.1953 -0.0738
 9206SOL    HW238548   3.703   1.305   5.556  0.7979 -4.0367  1.2337
 9207SOL     OW38549   0.920   2.522   5.153 -0.4987  0.0892  0.7248
 9207SOL    HW138550   1.012   2.527   5.193 -0.8434  0.7458  1.4423
 9207SOL    HW238551   0.924   2.471   5.067  0.4911 -0.1283  0.8941
 9208SOL     OW38552   0.039   8.446   5.186 -0.5103  0.0042 -0.3082
 9208SOL    HW138553  -0.055   8.478   5.201 -0.1170  0.6422  0.9093
 9208SOL    HW238554   0.095   8.469   5.266  1.2261  1.7246 -1.9502
 9209SOL     OW38555   9.616   9.982   3.450 -0.0929  0.0445  0.0090
 9209SOL    HW138556   9.638  10.013   3.358 -1.1843 -0.9912 -0.6114
 9209SOL    HW238557   9.656  10.045   3.517  1.5179  0.2573 -1.1444
 9210SOL     OW38558   3.236   5.743   0.319  0.1893 -0.2345 -0.1980
 9210SOL    HW138559   3.239   5.770   0.415 -0.2388  0.8966 -0.5060
 9210SOL    HW238560   3.255   5.645   0.313 -0.7457 -0.5215  1.1274
 9211SOL     OW38561   4.697   8.375   2.013  0.4136  0.1516 -0.2654
 9211SOL    HW138562   4.690   8.305   1.942 -0.1771  0.0933 -0.1534
 9211SOL    HW238563   4.776   8.433   1.995  0.3508  0.0440 -0.8953
 9212SOL     OW38564   0.733   6.904   4.161  0.2067 -0.0081  0.6767
 9212SOL    HW138565   0.746   7.002   4.147  1.1060  0.0640  1.9701
 9212SOL    HW238566   0.741   6.857   4.072  1.8471  0.8695  0.3454
 9213SOL     OW38567   3.967   4.255   0.853 -0.0351  0.4917  1.2904
 9213SOL    HW138568   3.986   4.310   0.934  2.7239 -0.1243  1.1122
 9213SOL    HW238569   4.043   4.192   0.836 -2.3158 -2.1603  0.4711
 9214SOL     OW38570   6.230   0.560   4.191  0.5197  0.1564 -0.2793
 9214SOL    HW138571   6.222   0.634   4.124  0.8728 -1.8234 -2.5736
 9214SOL    HW238572   6.265   0.597   4.277 -0.1751  2.7965 -1.0877
 9215SOL     OW38573   4.114   8.615   2.567  0.4562 -0.1416 -0.9114
 9215SOL    HW138574   4.088   8.610   2.663 -0.7007 -2.2837 -1.3011
 9215SOL    HW238575   4.038   8.583   2.510  1.5177  0.0420 -2.4665
 9216SOL     OW38576   3.593   1.019   2.104  0.0763 -0.7515 -0.0989
 9216SOL    HW138577   3.691   1.019   2.124  0.6927 -0.5915 -2.8588
 9216SOL    HW238578   3.569   1.100   2.051 -1.4487 -1.0431  0.1120
 9217SOL     OW38579   2.335   4.977   3.199 -0.0338 -0.3548  0.0898
 9217SOL    HW138580   2.403   4.936   3.137  0.2174 -0.4477  0.4244
 9217SOL    HW238581   2.284   5.048   3.151  1.3087  0.7355  0.2666
 9218SOL     OW38582   2.141   9.646   3.925  0.1407 -0.0796 -0.1442
 9218SOL    HW138583   2.152   9.734   3.879 -0.8737  0.1111 -0.0503
 9218SOL    HW238584   2.136   9.660   4.024  2.1686 -0.4753  0.0223
 9219SOL     OW38585   8.710   7.938   3.424  0.4446  0.3857 -0.2023
 9219SOL    HW138586   8.661   8.025   3.435 -0.3561  0.0947 -1.4931
 9219SOL    HW238587   8.801   7.946   3.467  0.7247  2.1493 -1.0872
 9220SOL     OW38588   3.754   7.712   4.430 -0.8993 -0.2177  0.1665
 9220SOL    HW138589   3.798   7.622   4.433 -1.7018 -0.6060  0.5213
 9220SOL    HW238590   3.737   7.744   4.523  2.6981  1.9709  0.1277
 9221SOL     OW38591   1.847   1.184   0.136 -0.6388 -0.1352 -0.8969
 9221SOL    HW138592   1.933   1.228   0.161 -0.6443  0.2520 -1.5490
 9221SOL    HW238593   1.864   1.118   0.062 -0.4681 -1.9052  0.6916
 9222SOL     OW38594   3.650   1.555   3.692  0.1005 -0.5009 -0.5970
 9222SOL    HW138595   3.561   1.510   3.686  0.0155 -0.5461  0.9083
 9222SOL    HW238596   3.695   1.552   3.602 -1.6172 -0.0490 -1.4970
 9223SOL     OW38597   8.899   8.448   1.266  0.0641  0.4500  0.3364
 9223SOL    HW138598   8.823   8.506   1.239  0.5562  0.9278 -0.0278
 9223SOL    HW238599   8.869   8.353   1.269 -0.6875  0.7006  0.7403
 9224SOL     OW38600   5.628   9.557   3.299 -0.3714  0.4223  0.3361
 9224SOL    HW138601   5.554   9.537   3.235  0.7105 -0.9293 -0.5261
 9224SOL    HW238602   5.709   9.589   3.248  0.0267  0.7485  1.1562
 9225SOL     OW38603   9.739   7.473   1.566 -0.2486  0.5244  0.3486
 9225SOL    HW138604   9.770   7.521   1.484 -1.6933 -0.9050 -1.0807
 9225SOL    HW238605   9.641   7.453   1.557  0.1974 -2.1922  1.1215
 9226SOL     OW38606   3.227   0.391   3.894 -0.1335  0.3187 -0.4090
 9226SOL    HW138607   3.241   0.488   3.913  0.2428  0.2611 -0.3867
 9226SOL    HW238608   3.171   0.380   3.812  0.0005  0.5516 -0.5307
 9227SOL     OW38609   4.934   0.665   3.735  0.1503  0.0806  0.1618
 9227SOL    HW138610   4.863   0.728   3.703 -0.9771 -1.6571 -0.8650
 9227SOL    HW238611   5.021   0.713   3.741 -0.7177  1.7849 -0.3831
 9228SOL     OW38612   6.352   8.522   3.528 -0.1353  0.0771  0.6231
 9228SOL    HW138613   6.301   8.600   3.492 -1.4379 -0.2346  1.7738
 9228SOL    HW238614   6.413   8.487   3.457 -1.2122  0.7255 -0.6457
 9229SOL     OW38615   0.626   9.801   2.213  0.2673  0.2355 -0.7497
 9229SOL    HW138616   0.708   9.751   2.187 -0.1084 -1.0132  0.3551
 9229SOL    HW238617   0.558   9.736   2.247 -1.4701  1.1557 -2.3661
 9230SOL     OW38618   8.615   6.474   1.096 -0.1548 -0.1377  0.0697
 9230SOL    HW138619   8.674   6.437   1.167 -0.3286  2.1719  1.4895
 9230SOL    HW238620   8.520   6.473   1.128 -0.4669 -0.6818 -0.8440
 9231SOL     OW38621   1.619   8.313   1.766  0.1196 -0.1225 -0.4028
 9231SOL    HW138622   1.702   8.361   1.738  1.1029 -1.1869  0.6075
 9231SOL    HW238623   1.585   8.352   1.852  0.0566 -0.2322 -0.3768
 9232SOL     OW38624   1.227   4.598   3.119  0.8563 -0.1215  0.1581
 9232SOL    HW138625   1.225   4.515   3.064 -1.5901  0.4663 -0.7098
 9232SOL    HW238626   1.297   4.660   3.083  1.7312 -1.2061 -0.0453
 9233SOL     OW38627   4.559   6.941   2.202 -0.4444 -0.0682 -0.7080
 9233SOL    HW138628   4.517   6.887   2.275 -0.1239 -0.1605 -0.5941
 9233SOL    HW238629   4.487   6.984   2.147 -0.6949 -0.4020 -0.6433
 9234SOL     OW38630   9.667   6.193   1.193 -0.6761 -0.3258  0.5413
 9234SOL    HW138631   9.658   6.283   1.236  0.4405  0.3596 -0.6393
 9234SOL    HW238632   9.672   6.123   1.265  0.4000  0.7310  1.5263
 9235SOL     OW38633   0.948   9.173   2.359 -0.0417  0.1644 -0.1639
 9235SOL    HW138634   0.856   9.213   2.349 -1.3562 -2.3829  1.2258
 9235SOL    HW238635   0.987   9.200   2.447 -0.2615 -0.2790  0.0725
 9236SOL     OW38636   4.047   9.920   3.869 -0.1997 -0.8754 -0.1859
 9236SOL    HW138637   4.088   9.950   3.782 -1.7697  0.1486 -0.5906
 9236SOL    HW238638   4.026   9.823   3.864  0.4092 -0.9886 -0.6787
 9237SOL     OW38639   1.603   8.515   2.470  0.3225 -0.4079  0.2459
 9237SOL    HW138640   1.578   8.608   2.446 -0.7027 -1.1595 -1.6869
 9237SOL    HW238641   1.702   8.505   2.466  0.5651  1.0012  2.0507
 9238SOL     OW38642   9.032   8.435   4.906 -0.2704  0.1234  0.2710
 9238SOL    HW138643   9.120   8.410   4.945 -0.2786 -1.3757 -0.6287
 9238SOL    HW238644   8.960   8.418   4.972 -0.1471 -1.1038  0.0942
 9239SOL     OW38645   8.141   7.234   1.635  0.1432 -0.0277 -0.2039
 9239SOL    HW138646   8.134   7.153   1.578 -0.1977  0.5573 -1.0123
 9239SOL    HW238647   8.110   7.314   1.583  0.8625  0.6802  0.4316
 9240SOL     OW38648   1.937   1.874   5.068 -0.1144 -0.0654 -0.1972
 9240SOL    HW138649   1.856   1.823   5.099 -0.3210  0.7174  0.5806
 9240SOL    HW238650   1.951   1.954   5.127  0.5989  0.4080 -0.9873
 9241SOL     OW38651   3.013   6.093   5.567  0.1143  0.1847  0.1884
 9241SOL    HW138652   3.040   6.145   5.648  1.5910  1.1501 -0.8804
 9241SOL    HW238653   3.080   6.108   5.495 -1.2590 -0.5361 -1.2686
 9242SOL     OW38654   3.701   8.330   0.726 -0.1780  0.7963  0.1086
 9242SOL    HW138655   3.652   8.382   0.796 -1.3254 -0.7857  0.4932
 9242SOL    HW238656   3.754   8.257   0.769 -0.3624  0.2298 -0.6178
 9243SOL     OW38657   8.036   3.579   1.874 -0.1011  0.2090 -0.1659
 9243SOL    HW138658   7.985   3.665   1.876 -1.3294 -0.4964 -0.7123
 9243SOL    HW238659   8.017   3.527   1.957  2.0452  1.2455  1.0124
 9244SOL     OW38660   2.166   1.853   2.411  0.4244  0.2266  0.4195
 9244SOL    HW138661   2.137   1.937   2.457  0.6498  0.9021 -0.6559
 9244SOL    HW238662   2.244   1.813   2.460  1.7846  1.8776 -0.3710
 9245SOL     OW38663   2.696   0.440   0.072 -0.0356  0.3055 -0.2263
 9245SOL    HW138664   2.780   0.387   0.066 -0.5670 -0.6969  1.0328
 9245SOL    HW238665   2.687   0.479   0.164 -0.3326  1.4467 -0.7238
 9246SOL     OW38666   9.432   2.078   0.829  0.0482  0.0907  0.9337
 9246SOL    HW138667   9.448   2.015   0.753 -1.2786  0.5391  0.2773
 9246SOL    HW238668   9.398   2.026   0.908  0.6755 -0.2632  0.9757
 9247SOL     OW38669   8.040   7.156   0.867 -0.4085 -0.0717  0.9890
 9247SOL    HW138670   7.960   7.107   0.903  0.1713 -1.7423  0.0658
 9247SOL    HW238671   8.050   7.137   0.769 -0.3356  2.1647  0.5340
 9248SOL     OW38672   2.853   0.819   0.303 -0.1656  0.2655 -0.4243
 9248SOL    HW138673   2.945   0.798   0.271  1.0394  2.4517  1.4442
 9248SOL    HW238674   2.858   0.869   0.390 -3.1629 -1.3915  0.8148
 9249SOL     OW38675   9.517   2.118   4.840  0.7347  0.1651 -0.0011
 9249SOL    HW138676   9.518   2.019   4.824  1.1080  0.1054  0.3604
 9249SOL    HW238677   9.481   2.165   4.760 -0.0959 -0.3113  0.0931
 9250SOL     OW38678   3.296   1.875   2.401 -0.3909 -0.3864  0.2123
 9250SOL    HW138679   3.214   1.932   2.393 -0.0433  0.3180  1.5043
 9250SOL    HW238680   3.378   1.933   2.396  0.1081 -1.2006 -2.2532
 9251SOL     OW38681   8.921   1.662   5.318 -0.3932 -0.0735 -0.1935
 9251SOL    HW138682   8.893   1.679   5.224 -0.9869  0.2299  0.0361
 9251SOL    HW238683   8.877   1.728   5.379  1.3157  0.8271  0.1008
 9252SOL     OW38684   2.273   6.422   5.143  0.9790  0.2426  0.2548
 9252SOL    HW138685   2.341   6.495   5.157  1.4242 -0.1131 -0.0645
 9252SOL    HW238686   2.247   6.418   5.047 -0.6923  1.4360  0.6272
 9253SOL     OW38687   7.940   9.116   4.575 -0.6539  0.3164 -0.2538
 9253SOL    HW138688   7.923   9.037   4.634 -0.1964 -0.0050 -0.5461
 9253SOL    HW238689   8.037   9.140   4.577 -0.2925 -0.8345 -2.2575
 9254SOL     OW38690   8.490   4.215   3.324  0.6236 -0.1063  0.1553
 9254SOL    HW138691   8.417   4.149   3.341 -0.2018  0.8302  0.3038
 9254SOL    HW238692   8.573   4.167   3.296 -0.2600 -1.1405 -0.7393
 9255SOL     OW38693   0.081   3.333   1.952  0.1839 -0.2375  0.2201
 9255SOL    HW138694   0.148   3.377   1.892  0.2303  0.3667  0.7105
 9255SOL    HW238695   0.078   3.382   2.039 -3.1411  1.6273 -0.8773
 9256SOL     OW38696   8.287   5.333   3.423  0.2400  0.2164 -0.1827
 9256SOL    HW138697   8.262   5.326   3.326  1.7845 -1.2591 -0.4970
 9256SOL    HW238698   8.241   5.412   3.463 -2.7376 -0.8114 -1.4058
 9257SOL     OW38699   9.173   1.582   5.392  0.2227  0.4466  0.0418
 9257SOL    HW138700   9.182   1.650   5.465 -0.0103  0.8067 -0.2614
 9257SOL    HW238701   9.088   1.599   5.341  0.2103 -0.0147 -0.0941
 9258SOL     OW38702   2.138   4.386   2.027  0.1988 -0.0413 -0.0954
 9258SOL    HW138703   2.106   4.294   2.052 -0.4328 -0.3174 -1.8427
 9258SOL    HW238704   2.235   4.383   2.005  0.0896 -0.3832 -0.5439
 9259SOL     OW38705   3.046   8.753   4.310  0.0570 -0.1688  0.0533
 9259SOL    HW138706   3.116   8.683   4.323  0.4084  0.5367  2.2759
 9259SOL    HW238707   3.081   8.841   4.344 -2.1891  0.0173  1.9478
 9260SOL     OW38708   1.898   6.576   4.976 -0.3623  0.1766  0.3346
 9260SOL    HW138709   1.811   6.585   5.024 -1.8233 -0.8954 -2.0085
 9260SOL    HW238710   1.935   6.484   4.992 -0.4498  0.0954  0.0770
 9261SOL     OW38711   2.542   7.038   4.605  0.7260  0.1665  0.2030
 9261SOL    HW138712   2.591   7.107   4.659  0.2235 -0.1043  1.0237
 9261SOL    HW238713   2.605   6.994   4.542  1.5759 -0.2309  1.3066
 9262SOL     OW38714   8.938   7.869   2.026 -0.1765  0.1063 -0.8205
 9262SOL    HW138715   8.839   7.885   2.021 -0.3538 -0.9315 -0.7175
 9262SOL    HW238716   8.973   7.850   1.934  0.2360  2.1990 -1.1186
 9263SOL     OW38717   8.578   9.236   3.585 -0.3176 -0.2517 -0.0950
 9263SOL    HW138718   8.669   9.247   3.626 -1.4860  1.2486  2.1915
 9263SOL    HW238719   8.569   9.142   3.551  2.1787 -0.3460 -0.6301
 9264SOL     OW38720   4.421   1.575   1.090  0.0135  0.5034  0.5489
 9264SOL    HW138721   4.413   1.477   1.072 -1.1816  0.8014 -0.6282
 9264SOL    HW238722   4.371   1.598   1.173  0.5584  0.0747  1.0012
 9265SOL     OW38723   9.475   8.148   1.359  0.6789 -0.3219 -0.8828
 9265SOL    HW138724   9.430   8.059   1.354  2.5295 -1.2947 -0.4817
 9265SOL    HW238725   9.489   8.173   1.455  2.9987 -1.0708 -1.0034
 9266SOL     OW38726   6.731   8.625   2.677 -0.2629  0.2298 -0.3051
 9266SOL    HW138727   6.653   8.656   2.731  1.4612 -0.5069  2.7153
 9266SOL    HW238728   6.807   8.601   2.738  1.3674 -1.7846 -2.9984
 9267SOL     OW38729   1.112   3.093   2.795 -0.1304 -0.3372 -0.4935
 9267SOL    HW138730   1.018   3.095   2.763 -0.4360  0.2278  0.4052
 9267SOL    HW238731   1.166   3.159   2.744 -0.7523  1.0053  0.5260
 9268SOL     OW38732   1.212   3.544   4.588 -0.2530 -0.8381  0.0092
 9268SOL    HW138733   1.282   3.537   4.517  2.8219  0.1121  2.7860
 9268SOL    HW238734   1.255   3.576   4.673 -4.3807  1.3876  1.3905
 9269SOL     OW38735   8.137   1.950   2.942  0.0577 -0.0727  0.3704
 9269SOL    HW138736   8.174   2.038   2.973  0.1718 -0.3118  0.9053
 9269SOL    HW238737   8.206   1.903   2.887  0.2883 -0.1900  0.7580
 9270SOL     OW38738   4.420   9.545   5.504  0.2965 -0.3895  0.8397
 9270SOL    HW138739   4.370   9.627   5.476 -0.4942 -1.5323 -1.1859
 9270SOL    HW238740   4.481   9.568   5.580 -0.4543  1.8986  0.7962
 9271SOL     OW38741   7.869   0.527   5.514  0.1359  0.3239  0.2407
 9271SOL    HW138742   7.955   0.509   5.465 -0.2655 -0.6767 -0.1020
 9271SOL    HW238743   7.839   0.620   5.495  1.9809  1.2396  1.6411
 9272SOL     OW38744   0.053   1.127   1.971  0.6983  0.3559  0.4693
 9272SOL    HW138745  -0.032   1.110   1.922  0.3771  1.0637  0.7783
 9272SOL    HW238746   0.052   1.077   2.058  0.9834 -0.3584  0.0650
 9273SOL     OW38747   9.839   6.004   2.874 -0.1222  0.6196 -0.0409
 9273SOL    HW138748   9.804   5.976   2.963 -1.5608 -0.3794 -0.8765
 9273SOL    HW238749   9.933   5.971   2.862 -0.3036 -0.1841  0.6887
 9274SOL     OW38750   7.858   9.851   4.291  0.1558  0.1210  0.1370
 9274SOL    HW138751   7.763   9.880   4.308 -0.7549 -0.7374 -3.1088
 9274SOL    HW238752   7.911   9.930   4.260 -0.5716 -0.1887 -1.9873
 9275SOL     OW38753   0.422   5.965   3.806  0.3654  0.3135  0.3546
 9275SOL    HW138754   0.398   6.017   3.889  2.1581 -0.4635  1.3856
 9275SOL    HW238755   0.518   5.983   3.783  0.9304 -2.2655  0.5486
 9276SOL     OW38756   2.988   3.600   3.715 -0.3199  0.0688  0.0159
 9276SOL    HW138757   3.023   3.511   3.744 -0.2879  0.0652 -0.0340
 9276SOL    HW238758   2.929   3.588   3.635  0.6554  0.2296 -0.7352
 9277SOL     OW38759   2.222   5.576   1.168  0.3499  0.1522  0.6518
 9277SOL    HW138760   2.202   5.648   1.101 -0.3171 -0.1453  0.5305
 9277SOL    HW238761   2.320   5.559   1.169  0.5639  1.3250  0.9506
 9278SOL     OW38762   7.166   0.101   4.053 -0.8260 -0.3077 -0.1541
 9278SOL    HW138763   7.205   0.188   4.084 -1.3386  0.0259 -0.4193
 9278SOL    HW238764   7.157   0.039   4.131 -1.7972  0.4050  0.3213
 9279SOL     OW38765   2.035   3.554   1.400  0.1696 -0.7649  0.1238
 9279SOL    HW138766   1.964   3.625   1.405  3.1423  2.1989  2.1727
 9279SOL    HW238767   2.094   3.572   1.322  1.6331 -0.2106  1.3213
 9280SOL     OW38768   4.187   3.186   0.646  0.2551 -0.4648 -0.3100
 9280SOL    HW138769   4.282   3.210   0.665  0.1776 -1.0023  0.8311
 9280SOL    HW238770   4.184   3.105   0.587  0.4941 -0.5071 -0.2612
 9281SOL     OW38771   1.556   8.238   1.504 -0.0391  0.0243  0.2128
 9281SOL    HW138772   1.579   8.231   1.601  1.4161 -1.9738 -0.2527
 9281SOL    HW238773   1.632   8.283   1.456 -0.5395  0.5448 -0.0984
 9282SOL     OW38774   8.270   1.161   3.425  0.2979 -0.0371  0.0759
 9282SOL    HW138775   8.314   1.209   3.501  0.4581 -0.9968  0.6055
 9282SOL    HW238776   8.336   1.098   3.384  0.2818  0.6558 -1.0189
 9283SOL     OW38777   3.406   5.003   1.052 -0.9967  0.5359  0.3340
 9283SOL    HW138778   3.334   5.031   0.989  0.0688  0.8935 -0.7260
 9283SOL    HW238779   3.366   4.984   1.142 -2.2724  1.6611  0.0075
 9284SOL     OW38780   7.493   1.940   1.132 -0.0218  0.1748 -0.0115
 9284SOL    HW138781   7.536   2.028   1.111 -0.2807 -0.1236 -1.8660
 9284SOL    HW238782   7.529   1.870   1.071 -0.3562 -0.8697  0.9698
 9285SOL     OW38783   9.690   9.207   0.863  0.5397  0.1693 -0.1366
 9285SOL    HW138784   9.696   9.213   0.764  1.6622 -2.7062 -0.2839
 9285SOL    HW238785   9.596   9.187   0.891  0.1913  1.1465 -0.5777
 9286SOL     OW38786   9.982   0.686   5.490 -0.0409 -0.4743  0.1967
 9286SOL    HW138787   9.977   0.786   5.490  0.1188 -0.4626  1.3002
 9286SOL    HW238788   9.947   0.651   5.577  1.1901 -1.3118  0.3654
 9287SOL     OW38789   1.400   6.571   5.203  0.1353  0.1295 -0.3303
 9287SOL    HW138790   1.407   6.541   5.299 -0.4446  0.4766 -0.1807
 9287SOL    HW238791   1.491   6.565   5.161  0.2487 -0.7651  0.0161
 9288SOL     OW38792   0.382   9.426   1.044 -0.6483 -0.3309 -0.1171
 9288SOL    HW138793   0.423   9.493   1.106 -2.9600  1.2998 -0.2725
 9288SOL    HW238794   0.378   9.464   0.952 -1.5031 -0.8764 -0.3137
 9289SOL     OW38795   9.085   9.171   0.228  0.2554 -0.2835 -0.3232
 9289SOL    HW138796   9.010   9.119   0.188 -1.4317  1.8545 -0.0340
 9289SOL    HW238797   9.123   9.233   0.160 -0.6363  1.2038  0.4956
 9290SOL     OW38798   0.704   0.878   3.263 -0.7789  0.0350  0.8439
 9290SOL    HW138799   0.707   0.941   3.341  0.2411  2.7391 -1.2649
 9290SOL    HW238800   0.795   0.837   3.250 -0.3614  1.2452 -0.1726
 9291SOL     OW38801   0.493   7.322   3.653 -1.3171  0.2523 -0.3487
 9291SOL    HW138802   0.498   7.333   3.554 -2.1076 -1.5208 -0.6048
 9291SOL    HW238803   0.455   7.231   3.675  0.0374  0.1227  1.5718
 9292SOL     OW38804   0.130   9.359   0.578 -0.0488 -1.1297  0.6222
 9292SOL    HW138805   0.149   9.296   0.653 -1.2731 -1.7016  0.4690
 9292SOL    HW238806   0.065   9.316   0.514  0.2468 -0.2893 -0.2601
 9293SOL     OW38807   0.592   6.261   0.212  0.5437  0.0246 -0.5083
 9293SOL    HW138808   0.678   6.308   0.232  0.9634 -0.3305 -1.4569
 9293SOL    HW238809   0.563   6.284   0.119 -0.6988  0.6221  0.0172
 9294SOL     OW38810   4.584   1.766   1.189  0.7458 -0.1945  0.2660
 9294SOL    HW138811   4.521   1.689   1.176  1.1330 -0.2687 -1.3923
 9294SOL    HW238812   4.676   1.738   1.161  0.9327  0.7937 -0.1115
 9295SOL     OW38813   2.577   7.806   3.073  0.3333 -0.3551 -0.6917
 9295SOL    HW138814   2.622   7.868   3.009 -0.5195  1.3069  0.3022
 9295SOL    HW238815   2.573   7.714   3.033  0.0330  0.5980 -2.9282
 9296SOL     OW38816   3.109   9.037   3.719  0.3070 -0.0185  0.1659
 9296SOL    HW138817   3.193   8.992   3.691  0.1797  0.1636 -0.5207
 9296SOL    HW238818   3.030   8.982   3.690  0.2069 -0.6418  1.6039
 9297SOL     OW38819   0.993   2.576   0.019  0.1948 -0.3827  0.6142
 9297SOL    HW138820   1.088   2.549   0.011  0.3400  0.6701 -1.7692
 9297SOL    HW238821   0.986   2.676   0.016 -1.0419 -0.4703  0.0706
 9298SOL     OW38822   0.099   6.451   4.356  0.2147 -0.1012  0.6609
 9298SOL    HW138823   0.028   6.518   4.334  0.0579  0.0203  1.5394
 9298SOL    HW238824   0.056   6.364   4.379  0.4281 -0.5994 -0.7634
 9299SOL     OW38825   1.937   1.178   2.483 -0.1266  0.1326  0.3484
 9299SOL    HW138826   1.984   1.090   2.475 -1.8183 -0.8013  0.5019
 9299SOL    HW238827   1.917   1.213   2.391 -0.8458 -0.4114  0.2919
 9300SOL     OW38828   7.912   9.014   1.330 -0.1494  0.2532 -0.1291
 9300SOL    HW138829   7.982   8.944   1.312  1.5697  1.1945  2.4819
 9300SOL    HW238830   7.927   9.052   1.422 -1.9800  2.9893 -0.9127
 9301SOL     OW38831   9.157   4.766   4.426  0.1974 -0.4962  0.4753
 9301SOL    HW138832   9.072   4.814   4.405 -0.1617 -1.2418  0.2257
 9301SOL    HW238833   9.206   4.816   4.498  0.8507  1.4206 -1.2370
 9302SOL     OW38834   3.893   1.624   0.063  0.2046  0.4995 -0.1844
 9302SOL    HW138835   3.857   1.531   0.052  0.8681  0.2772 -0.5003
 9302SOL    HW238836   3.846   1.685  -0.000  1.1007  0.0096 -1.3408
 9303SOL     OW38837   1.687   3.508   1.382  0.9776  0.8910  0.0997
 9303SOL    HW138838   1.738   3.511   1.296  1.0382  0.7020  0.1293
 9303SOL    HW238839   1.749   3.491   1.458  0.6422 -1.2679 -0.0740
 9304SOL     OW38840   2.037   1.963   1.514 -0.2850 -0.2348  0.5038
 9304SOL    HW138841   2.085   1.935   1.597  1.1080  0.9530  0.1081
 9304SOL    HW238842   1.960   2.022   1.538  0.8148  1.0578  0.8852
 9305SOL     OW38843   2.038   5.836   4.767  0.0160  0.2583  0.0393
 9305SOL    HW138844   2.047   5.746   4.723  0.2408  0.0325  0.5362
 9305SOL    HW238845   1.969   5.889   4.720 -1.1377 -0.7155  0.6029
 9306SOL     OW38846   1.711   9.085   3.891  0.1710 -0.1196  0.0843
 9306SOL    HW138847   1.776   9.014   3.919  0.8119  0.5284  0.2568
 9306SOL    HW238848   1.705   9.087   3.791  1.2408  0.5554  0.0361
 9307SOL     OW38849   2.217   4.441   2.973 -0.5877  0.3961 -0.0910
 9307SOL    HW138850   2.316   4.426   2.975 -0.5934  0.4650  1.1547
 9307SOL    HW238851   2.183   4.448   3.067 -1.6468  1.2437 -0.5379
 9308SOL     OW38852   8.148   4.158   2.242  0.0874 -0.2138 -0.3109
 9308SOL    HW138853   8.160   4.248   2.284 -2.4115 -0.7551  1.7189
 9308SOL    HW238854   8.072   4.161   2.178 -0.8075 -1.1342  0.6797
 9309SOL     OW38855   8.742   4.187   3.692  0.3557 -0.0719  0.2017
 9309SOL    HW138856   8.667   4.224   3.636  2.8669  4.7271 -0.2323
 9309SOL    HW238857   8.805   4.136   3.634 -0.1149 -0.1013 -0.2897
 9310SOL     OW38858   5.612   9.163   3.693 -0.1715  0.4748  0.4727
 9310SOL    HW138859   5.705   9.201   3.697 -0.8893  2.3131  0.0717
 9310SOL    HW238860   5.578   9.169   3.599 -0.9587  0.4595  0.7550
 9311SOL     OW38861   4.561   6.841   3.720  0.2267 -0.0783  0.4294
 9311SOL    HW138862   4.473   6.881   3.746  0.9289  0.7257  1.6039
 9311SOL    HW238863   4.613   6.818   3.803 -0.2102 -3.5804 -0.1859
 9312SOL     OW38864   2.532   6.274   1.347  0.3205 -0.1227  0.3654
 9312SOL    HW138865   2.433   6.285   1.332  0.6968  0.2607 -2.1380
 9312SOL    HW238866   2.560   6.184   1.313  1.1785  0.6346 -0.9699
 9313SOL     OW38867   9.401   0.586   4.188 -0.4547  0.2137  0.0894
 9313SOL    HW138868   9.373   0.596   4.284 -0.0750  0.6560  0.1558
 9313SOL    HW238869   9.383   0.492   4.158 -0.1822 -0.0481  0.7243
 9314SOL     OW38870   8.563   0.198   1.426 -0.2249  0.4450 -0.6027
 9314SOL    HW138871   8.505   0.125   1.389 -0.5031  0.3687 -0.0138
 9314SOL    HW238872   8.522   0.235   1.509  0.7481  0.1517  0.0214
 9315SOL     OW38873   5.991   8.179   2.508  0.0801  0.1294 -0.0528
 9315SOL    HW138874   5.959   8.139   2.422 -0.3597  0.4892 -0.0590
 9315SOL    HW238875   5.990   8.279   2.501  1.3167  0.1552 -0.0900
 9316SOL     OW38876   3.265   1.202   3.405  0.3284 -0.2378  0.3605
 9316SOL    HW138877   3.240   1.148   3.485 -0.6888 -0.1990  0.0754
 9316SOL    HW238878   3.227   1.294   3.414 -0.8803 -0.6106 -0.7447
 9317SOL     OW38879   4.229   8.894   2.548  0.0357 -0.3876  0.0753
 9317SOL    HW138880   4.168   8.820   2.574 -1.8426  1.0301 -0.1909
 9317SOL    HW238881   4.274   8.872   2.461  1.1007 -2.1115  1.0453
 9318SOL     OW38882   4.230   6.900   2.268  0.0310 -0.2077 -0.2614
 9318SOL    HW138883   4.254   6.826   2.205 -2.2666 -0.0364 -1.4053
 9318SOL    HW238884   4.218   6.862   2.360 -3.4045 -1.8040 -1.2372
 9319SOL     OW38885   3.068   1.626   1.830 -0.1426 -0.4641 -0.1809
 9319SOL    HW138886   3.020   1.612   1.744  0.0086  0.8127 -0.4823
 9319SOL    HW238887   3.163   1.654   1.811 -0.4270  0.9270  0.3770
 9320SOL     OW38888   2.621   2.957   1.805 -0.0244  0.3877  0.6546
 9320SOL    HW138889   2.708   2.980   1.761 -0.0934 -0.9011 -0.1474
 9320SOL    HW238890   2.563   3.039   1.808 -0.7534  0.0835 -3.3011
 9321SOL     OW38891   1.551   4.572   4.504 -0.1531 -0.6669  0.5136
 9321SOL    HW138892   1.613   4.593   4.428 -0.6445  1.5882  0.6770
 9321SOL    HW238893   1.605   4.548   4.585  0.5128  0.7564  0.5136
 9322SOL     OW38894   2.922   4.951   0.961 -0.5294  0.4048 -0.0878
 9322SOL    HW138895   2.884   5.037   0.993 -1.8402 -0.5064  0.8675
 9322SOL    HW238896   2.901   4.878   1.027 -0.9497 -0.9824 -1.7056
 9323SOL     OW38897   7.822   6.021   4.439 -0.4279 -0.3535 -0.4747
 9323SOL    HW138898   7.868   6.109   4.455 -2.4750  0.3677  1.7590
 9323SOL    HW238899   7.781   6.021   4.348  0.9804  0.3364 -1.1364
 9324SOL     OW38900   1.119   4.876   1.917  0.0223  0.1517  0.6269
 9324SOL    HW138901   1.041   4.901   1.974  0.3238  1.7789  0.3602
 9324SOL    HW238902   1.197   4.937   1.938  0.5173 -0.0323 -0.6325
 9325SOL     OW38903   4.081   5.242   1.596 -0.1728 -0.4618 -0.5278
 9325SOL    HW138904   4.078   5.238   1.696  1.0806  0.4615 -0.4286
 9325SOL    HW238905   4.034   5.163   1.557 -2.7194  0.3719  0.7569
 9326SOL     OW38906   9.929   6.197   4.318 -0.4076 -0.0412  0.6334
 9326SOL    HW138907   9.883   6.276   4.358 -0.8666 -0.4431  0.8921
 9326SOL    HW238908   9.867   6.118   4.316 -0.4719  0.0301 -1.0707
 9327SOL     OW38909   6.737   0.328   0.781  0.1222 -0.0760  0.1407
 9327SOL    HW138910   6.804   0.379   0.727  1.9694 -0.9515  1.5594
 9327SOL    HW238911   6.717   0.241   0.735 -1.5935  1.0425 -1.3024
 9328SOL     OW38912   3.911   3.839   4.799  0.3641 -0.0486  0.1210
 9328SOL    HW138913   3.837   3.828   4.865 -1.7674 -1.6718 -2.3999
 9328SOL    HW238914   3.981   3.770   4.815 -0.3223 -0.6718  0.4601
 9329SOL     OW38915   4.661   0.038   2.511 -0.1023 -0.2999 -0.2566
 9329SOL    HW138916   4.671   0.034   2.611  1.9958 -0.6286 -0.4633
 9329SOL    HW238917   4.745   0.005   2.468 -0.8842  0.1349 -2.1431
 9330SOL     OW38918   1.913   3.475   4.401  0.5674  0.2152 -0.6085
 9330SOL    HW138919   1.995   3.513   4.359  0.9777 -0.5783 -0.5316
 9330SOL    HW238920   1.939   3.413   4.475 -0.1303  1.3642  0.6477
 9331SOL     OW38921   8.973   1.279   2.112  0.5232 -0.3750  0.5451
 9331SOL    HW138922   8.901   1.261   2.045 -0.4229 -0.5087  1.6077
 9331SOL    HW238923   8.966   1.215   2.188  1.0497  0.3531  1.2154
 9332SOL     OW38924   3.462   4.393   4.506 -0.4496 -0.1340 -0.8373
 9332SOL    HW138925   3.502   4.352   4.424  1.7880 -1.1606  0.7222
 9332SOL    HW238926   3.491   4.488   4.514 -1.1839  0.1561 -1.5536
 9333SOL     OW38927   0.836   7.245   2.970  0.4915 -0.2335  0.1036
 9333SOL    HW138928   0.919   7.208   2.927  1.2295 -0.1266  1.4164
 9333SOL    HW238929   0.858   7.278   3.062 -1.1167 -0.6877  0.6636
 9334SOL     OW38930   3.003   1.863   0.052  0.2326  0.0701  0.1015
 9334SOL    HW138931   2.936   1.938   0.049 -0.4551 -0.5281  0.4507
 9334SOL    HW238932   2.980   1.796  -0.018  1.0804  0.3761 -0.4715
 9335SOL     OW38933   3.649   5.922   1.010 -0.1096  0.0774 -0.3081
 9335SOL    HW138934   3.729   5.862   1.016 -1.1765 -1.1698  1.6840
 9335SOL    HW238935   3.588   5.889   0.938  0.2751 -0.0402 -0.5819
 9336SOL     OW38936   9.429   7.311   2.111 -0.2269 -0.2443 -0.2728
 9336SOL    HW138937   9.393   7.399   2.081  0.9560  0.1055 -0.6799
 9336SOL    HW238938   9.421   7.304   2.211  0.9378  0.9050 -0.0881
 9337SOL     OW38939   0.201   1.388   0.911 -0.4669 -0.6777 -0.8903
 9337SOL    HW138940   0.181   1.476   0.955  0.3951 -1.3668  0.9443
 9337SOL    HW238941   0.286   1.394   0.859  0.1110 -0.6683  0.0347
 9338SOL     OW38942   7.705   7.401   2.525  0.1603  0.3940  0.4639
 9338SOL    HW138943   7.798   7.389   2.559  0.5071 -0.0948 -0.6340
 9338SOL    HW238944   7.651   7.451   2.593  0.9082 -0.3018  1.5922
 9339SOL     OW38945   4.268   1.683   2.332 -0.0694 -0.1038 -0.3483
 9339SOL    HW138946   4.311   1.724   2.252  1.0799 -1.1678 -0.2901
 9339SOL    HW238947   4.301   1.589   2.344 -1.9437 -0.7371  0.0743
 9340SOL     OW38948   9.655   3.508   5.506 -0.3138 -0.4172  0.0588
 9340SOL    HW138949   9.720   3.432   5.507  0.3393  0.1237 -0.6560
 9340SOL    HW238950   9.653   3.549   5.414 -0.9793  0.1541  0.3241
 9341SOL     OW38951   8.339   2.231   4.849  0.5109 -0.1973 -0.4649
 9341SOL    HW138952   8.390   2.205   4.767  0.7742  0.5292 -0.5339
 9341SOL    HW238953   8.354   2.328   4.868  0.3211 -0.3292  0.3505
 9342SOL     OW38954   1.471   5.134   0.966 -0.1497  0.3259 -0.0557
 9342SOL    HW138955   1.488   5.211   0.905  0.7683 -1.1577 -1.7341
 9342SOL    HW238956   1.376   5.137   0.998  0.3916  3.1915  1.4754
 9343SOL     OW38957   1.056   7.714   0.765 -0.2594  0.1528 -0.1104
 9343SOL    HW138958   1.012   7.628   0.739 -0.7274  0.0929  0.8435
 9343SOL    HW238959   1.111   7.700   0.847 -1.5512  1.1017  0.9393
 9344SOL     OW38960   2.501   0.874   1.610  0.3332 -0.2060 -0.1526
 9344SOL    HW138961   2.553   0.822   1.542 -1.1988 -0.0019 -1.5023
 9344SOL    HW238962   2.543   0.964   1.622  0.2702 -0.0303 -1.2570
 9345SOL     OW38963   8.902   4.190   5.436  0.6559 -0.4291  0.1079
 9345SOL    HW138964   8.964   4.116   5.460  1.8065  0.7688  0.9249
 9345SOL    HW238965   8.933   4.275   5.479 -2.0308  0.0336  1.2310
 9346SOL     OW38966   4.468   2.667   0.332 -0.0699  0.3012  0.4683
 9346SOL    HW138967   4.449   2.715   0.418 -1.7384 -1.7944  1.3182
 9346SOL    HW238968   4.403   2.698   0.262 -0.3766  0.1330  0.6793
 9347SOL     OW38969   2.192   5.679   4.221 -0.5153 -0.9061 -0.2352
 9347SOL    HW138970   2.270   5.729   4.183  0.2145 -1.1828  0.8978
 9347SOL    HW238971   2.124   5.744   4.255 -0.9272 -0.6594 -1.4951
 9348SOL     OW38972   9.776   6.990   0.141 -0.1261  0.6183  0.7285
 9348SOL    HW138973   9.817   6.898   0.141 -1.2993  0.0718  2.6060
 9348SOL    HW238974   9.848   7.059   0.138  0.7498 -0.3005 -3.7370
 9349SOL     OW38975   3.079   8.734   4.963  0.0687  0.1962 -0.4302
 9349SOL    HW138976   3.086   8.683   5.049 -2.1537  1.3907  0.5219
 9349SOL    HW238977   3.132   8.818   4.970  0.3359  0.0285 -0.4345
 9350SOL     OW38978   3.642   3.724   1.738 -0.1940  0.4395 -0.2076
 9350SOL    HW138979   3.708   3.773   1.681 -0.4196  0.3279 -0.5617
 9350SOL    HW238980   3.626   3.776   1.822 -0.8471  1.2505 -0.8242
 9351SOL     OW38981   8.250   2.147   4.194 -0.2214 -0.4178 -0.1051
 9351SOL    HW138982   8.190   2.074   4.228 -0.1405  0.2959  1.5642
 9351SOL    HW238983   8.263   2.135   4.095 -0.7307 -2.2885  0.0334
 9352SOL     OW38984   1.257   7.942   1.643  0.3159  0.0702  0.1367
 9352SOL    HW138985   1.271   7.965   1.546  2.9961 -0.3806  0.3701
 9352SOL    HW238986   1.265   8.026   1.697 -0.7842  0.2620  0.0022
 9353SOL     OW38987   9.042   3.527   1.232 -0.4081 -0.5146 -0.0536
 9353SOL    HW138988   9.080   3.552   1.322 -1.9410  0.9757  0.2066
 9353SOL    HW238989   8.944   3.512   1.241 -0.5861 -0.2270 -1.5084
 9354SOL     OW38990   8.389   7.886   2.106  0.3724 -0.8023  0.0144
 9354SOL    HW138991   8.311   7.825   2.118 -0.9384  0.6075 -1.1408
 9354SOL    HW238992   8.380   7.936   2.020  1.7794  0.4947  0.5856
 9355SOL     OW38993   2.046   4.627   0.510  0.8119 -0.3393  0.3470
 9355SOL    HW138994   2.112   4.616   0.436  1.1152  1.6233  0.3064
 9355SOL    HW238995   2.083   4.587   0.594  1.2352 -0.9423 -0.1219
 9356SOL     OW38996   9.268   3.609   0.509 -0.3323 -0.2426  0.2781
 9356SOL    HW138997   9.265   3.698   0.464 -0.3504 -0.0407  0.6710
 9356SOL    HW238998   9.324   3.546   0.456 -2.0811 -0.6392 -1.1259
 9357SOL     OW38999   9.824   4.178   0.970  0.1444 -0.2057 -0.5076
 9357SOL    HW139000   9.732   4.138   0.978  0.0771  0.2357  1.0395
 9357SOL    HW239001   9.842   4.200   0.874 -1.4426 -0.1352 -0.8131
 9358SOL     OW39002   2.013   0.503   4.740  0.6445 -0.6030 -0.4479
 9358SOL    HW139003   2.013   0.455   4.827  0.5175 -0.6729 -0.4858
 9358SOL    HW239004   2.104   0.498   4.699  0.5027 -1.2493 -0.6902
 9359SOL     OW39005   4.395   4.784   1.946  0.3249 -0.4640 -0.0724
 9359SOL    HW139006   4.438   4.732   1.873 -0.8508  0.6162 -1.5562
 9359SOL    HW239007   4.307   4.819   1.915 -0.2607 -0.0866  1.9065
 9360SOL     OW39008   5.373   9.965   1.397  0.3772  0.1332 -0.6354
 9360SOL    HW139009   5.296  10.021   1.427  1.0507 -0.0628  1.5828
 9360SOL    HW239010   5.363   9.872   1.433  2.0820  0.3541  0.4772
 9361SOL     OW39011   7.725   0.800   1.737 -0.0717  0.0015 -0.2073
 9361SOL    HW139012   7.761   0.878   1.684 -1.3441  0.1629 -0.8444
 9361SOL    HW239013   7.647   0.830   1.792  0.3845 -0.4882  0.7269
 9362SOL     OW39014   9.375   6.649   0.173  0.3178 -0.3332 -0.5066
 9362SOL    HW139015   9.304   6.719   0.186  1.5830  0.6841  1.1261
 9362SOL    HW239016   9.361   6.576   0.240 -0.6726 -1.3869 -1.8462
 9363SOL     OW39017   0.908   4.497   2.438 -0.0714  0.1223 -0.3803
 9363SOL    HW139018   0.849   4.506   2.358 -0.6584  1.1167  0.1578
 9363SOL    HW239019   0.966   4.417   2.427 -0.2362  0.1754 -1.7457
 9364SOL     OW39020   3.419   1.739   2.927  0.3398  0.1931 -0.6219
 9364SOL    HW139021   3.376   1.823   2.895  2.7001  1.2624 -1.0359
 9364SOL    HW239022   3.443   1.682   2.848 -0.6773 -0.6115 -0.3684
 9365SOL     OW39023   0.226   5.466   2.181  0.1323 -0.8300 -0.1073
 9365SOL    HW139024   0.144   5.516   2.155 -0.1711 -0.0044  2.3720
 9365SOL    HW239025   0.200   5.376   2.216  0.1642 -0.0650  1.9276
 9366SOL     OW39026   3.325   0.575   4.939  0.2361  0.2703  0.3397
 9366SOL    HW139027   3.321   0.482   4.977 -0.1214  0.5049  0.8855
 9366SOL    HW239028   3.286   0.574   4.846  0.0774 -0.0947  0.4070
 9367SOL     OW39029   9.553   2.006   2.690 -0.2281 -0.3298 -0.3889
 9367SOL    HW139030   9.618   1.981   2.617 -0.4077 -1.5260 -0.1481
 9367SOL    HW239031   9.603   2.046   2.766  0.0698  0.0637 -0.7885
 9368SOL     OW39032   7.665   7.453   3.517 -0.5755  0.6983 -0.1825
 9368SOL    HW139033   7.696   7.478   3.426  0.6342  0.5396  0.1783
 9368SOL    HW239034   7.572   7.417   3.512  0.0995 -0.9047 -1.5930
 9369SOL     OW39035   0.000   8.009   3.410  0.2186 -0.7104 -0.1811
 9369SOL    HW139036   0.084   7.981   3.363  1.3342 -0.6273  1.7101
 9369SOL    HW239037  -0.056   7.928   3.427 -0.2281 -0.7321 -1.6998
 9370SOL     OW39038   0.101   5.740   0.565 -0.5017  0.3113 -0.4529
 9370SOL    HW139039   0.114   5.832   0.602 -2.6944  0.8827 -1.0576
 9370SOL    HW239040   0.078   5.677   0.639  0.5004  0.3318 -0.1114
 9371SOL     OW39041   9.338   4.535   4.862  0.1843  0.5717 -0.3075
 9371SOL    HW139042   9.299   4.445   4.880 -0.0411  0.9656  1.2311
 9371SOL    HW239043   9.433   4.538   4.894  0.2068  0.8692 -0.3954
 9372SOL     OW39044   0.192   1.817   5.292  0.0656  0.2074 -0.2797
 9372SOL    HW139045   0.142   1.789   5.211  0.2031  0.4030 -0.4341
 9372SOL    HW239046   0.282   1.774   5.292 -0.3854 -0.7562  0.3920
 9373SOL     OW39047   3.075   2.253   0.967  0.5493 -0.0282  0.0470
 9373SOL    HW139048   3.074   2.165   1.016  0.5631 -0.2599 -0.3676
 9373SOL    HW239049   3.011   2.316   1.011  0.7380 -0.1539  0.5107
 9374SOL     OW39050   0.299   6.535   0.700 -0.2379 -0.6621  0.4999
 9374SOL    HW139051   0.392   6.540   0.738  1.4133  1.4138 -3.4875
 9374SOL    HW239052   0.301   6.484   0.614 -2.8323 -0.7323  0.4438
 9375SOL     OW39053   0.542   6.030   5.407 -0.0451 -0.2454 -0.5697
 9375SOL    HW139054   0.526   6.125   5.379  0.2807 -0.6101 -2.0878
 9375SOL    HW239055   0.559   5.975   5.325  1.4148 -1.2995  0.4332
 9376SOL     OW39056   3.276   3.725   3.988  0.0957  0.0310  0.1661
 9376SOL    HW139057   3.346   3.791   4.013  0.4627 -0.6242  0.8953
 9376SOL    HW239058   3.318   3.635   3.975 -0.8055 -0.7047  2.1189
 9377SOL     OW39059   4.074   0.166   2.160  0.0568 -0.0295  0.0934
 9377SOL    HW139060   4.020   0.248   2.139  0.7892  0.5195  0.3219
 9377SOL    HW239061   4.129   0.141   2.081  0.7200  0.4021  0.4068
 9378SOL     OW39062   0.222   7.010   0.828 -0.2407 -0.1716  0.3628
 9378SOL    HW139063   0.219   6.943   0.902  0.5806  1.0186  1.4693
 9378SOL    HW239064   0.144   7.072   0.836 -1.1405 -1.1055 -0.8084
 9379SOL     OW39065   1.555   1.973   2.167  0.3547  0.7443 -0.6737
 9379SOL    HW139066   1.458   1.999   2.164 -0.1232 -0.9600 -0.7210
 9379SOL    HW239067   1.576   1.935   2.257  0.6897  0.0330 -1.0532
 9380SOL     OW39068   1.124   9.598   3.826  0.4517 -0.2132 -0.6771
 9380SOL    HW139069   1.199   9.554   3.876  0.4046  0.4368 -0.0318
 9380SOL    HW239070   1.063   9.528   3.790  0.9063 -0.7180 -0.4802
 9381SOL     OW39071   2.759   1.529   4.234 -0.1605 -0.2138 -0.1661
 9381SOL    HW139072   2.787   1.620   4.205  0.5372 -0.6914 -0.9972
 9381SOL    HW239073   2.669   1.535   4.278  0.3821  1.0285  0.8003
 9382SOL     OW39074   1.117   6.607   4.833 -0.0253  0.3970 -0.1651
 9382SOL    HW139075   1.050   6.558   4.888  1.9030 -0.8212  1.1749
 9382SOL    HW239076   1.131   6.559   4.747 -0.6155  0.4777 -0.3099
 9383SOL     OW39077   2.896   1.685   0.703 -0.2857  0.0018  0.3970
 9383SOL    HW139078   2.947   1.752   0.758  0.3991 -0.5410  0.4344
 9383SOL    HW239079   2.948   1.666   0.620  0.3205 -1.7003  1.1483
 9384SOL     OW39080   0.075   6.943   3.483 -0.1484 -0.1678  0.0494
 9384SOL    HW139081   0.052   6.854   3.445 -0.2893  0.3375 -1.0657
 9384SOL    HW239082  -0.005   7.004   3.478  1.0689  1.2759 -2.9120
 9385SOL     OW39083   9.051   7.679   2.555 -0.4458 -0.3877  0.1119
 9385SOL    HW139084   8.998   7.689   2.471  2.1317 -0.3204 -1.5640
 9385SOL    HW239085   9.084   7.768   2.586 -1.9588 -0.3222  1.6150
 9386SOL     OW39086   4.405   0.019   1.266 -0.2191  0.2886  0.1122
 9386SOL    HW139087   4.469   0.055   1.334 -0.2231 -0.8365  0.7234
 9386SOL    HW239088   4.330  -0.028   1.314 -1.2266  1.1458 -0.6074
 9387SOL     OW39089   0.165   6.336   0.888  0.3002  0.0390 -0.2054
 9387SOL    HW139090   0.070   6.337   0.858 -0.2363  1.9410  1.4768
 9387SOL    HW239091   0.219   6.400   0.832  0.3864 -0.3194 -0.5306
 9388SOL     OW39092   8.028   9.359   4.379 -0.2908  0.1341 -0.2217
 9388SOL    HW139093   8.020   9.291   4.307  0.3571  0.3103 -0.4690
 9388SOL    HW239094   7.954   9.426   4.370 -0.5964 -0.2180 -0.3190
 9389SOL     OW39095   9.660   8.597   4.230 -0.5961  0.1750  0.5631
 9389SOL    HW139096   9.672   8.507   4.188 -0.5758 -0.0730  1.1056
 9389SOL    HW239097   9.564   8.625   4.219 -0.7640 -0.2140  0.9918
 9390SOL     OW39098   1.876   6.904   1.806  0.2773 -0.0390  0.0441
 9390SOL    HW139099   1.968   6.871   1.784 -0.2731 -2.3048  0.9565
 9390SOL    HW239100   1.882   6.983   1.868  1.6153  0.4189 -0.6670
 9391SOL     OW39101   1.734   6.196   2.682 -0.2799 -0.0875 -0.0154
 9391SOL    HW139102   1.709   6.287   2.716 -1.6790 -0.1847 -0.7315
 9391SOL    HW239103   1.706   6.127   2.749  1.8521  0.0683  1.0711
 9392SOL     OW39104   8.495   9.214   1.498 -0.5387 -0.1030 -0.9829
 9392SOL    HW139105   8.524   9.123   1.469  1.8474  0.2290  0.2376
 9392SOL    HW239106   8.504   9.278   1.421  1.5368 -0.1182 -0.7781
 9393SOL     OW39107   2.356   3.955   0.469 -0.1882  0.1486 -0.4291
 9393SOL    HW139108   2.374   4.053   0.465  0.2743  0.0379 -1.1416
 9393SOL    HW239109   2.364   3.923   0.564 -1.2634  0.9666 -0.0504
 9394SOL     OW39110   2.623   5.557   3.284  0.5768  0.1981  0.6638
 9394SOL    HW139111   2.698   5.616   3.314  0.5052  0.3683  0.5140
 9394SOL    HW239112   2.543   5.573   3.340  0.8979 -0.5640  1.3374
 9395SOL     OW39113   1.092   7.021   0.380 -0.2999 -0.2499 -0.0526
 9395SOL    HW139114   1.069   6.951   0.312 -2.9163 -1.2823  1.8003
 9395SOL    HW239115   1.026   7.096   0.374  0.9477  0.8305 -0.3043
 9396SOL     OW39116   8.289   7.142   4.453 -0.3744 -0.6382  0.2101
 9396SOL    HW139117   8.228   7.115   4.378 -1.1271 -0.3498  0.7163
 9396SOL    HW239118   8.235   7.165   4.534  0.4674 -1.6930  1.0970
 9397SOL     OW39119   1.355   8.311   0.469  0.0289 -0.1944 -1.0612
 9397SOL    HW139120   1.348   8.248   0.546 -0.6818  0.5671 -0.5056
 9397SOL    HW239121   1.329   8.403   0.498 -1.6152 -0.1698 -2.5414
 9398SOL     OW39122   4.556   7.711   2.135 -0.4702  0.1660 -0.3974
 9398SOL    HW139123   4.602   7.759   2.060 -1.5801 -0.8486 -1.7703
 9398SOL    HW239124   4.576   7.756   2.221  0.8338  1.3718 -1.3087
 9399SOL     OW39125   9.729   7.364   3.822 -0.4143 -0.2050  0.3122
 9399SOL    HW139126   9.764   7.445   3.868 -0.5305  0.3843 -0.6075
 9399SOL    HW239127   9.765   7.282   3.866  0.1385  0.3581  0.9175
 9400SOL     OW39128   2.400   8.475   1.822 -0.6228  0.2575  0.5360
 9400SOL    HW139129   2.472   8.516   1.876 -1.0043  0.8145  0.6234
 9400SOL    HW239130   2.341   8.420   1.881  0.6103 -1.4413  0.2210
 9401SOL     OW39131   0.757   4.711   3.476 -0.4028  0.4495 -0.5356
 9401SOL    HW139132   0.753   4.680   3.381 -0.5913  0.9530 -0.6906
 9401SOL    HW239133   0.727   4.636   3.536 -0.9668  0.3632 -0.9197
 9402SOL     OW39134   4.218   8.337   2.682  0.0342  0.2398 -0.2309
 9402SOL    HW139135   4.210   8.436   2.673  0.4875  0.2656 -0.3364
 9402SOL    HW239136   4.302   8.306   2.639 -0.9656 -0.4091 -1.7808
 9403SOL     OW39137   8.728   7.876   0.634 -0.8356 -0.7969  0.5969
 9403SOL    HW139138   8.816   7.872   0.681 -0.6801 -0.0982  0.3783
 9403SOL    HW239139   8.676   7.792   0.652 -0.0220 -1.3282  0.5220
 9404SOL     OW39140   1.864   1.702   4.507 -0.2601 -0.6553 -0.1302
 9404SOL    HW139141   1.934   1.764   4.542  0.0049 -2.0807  1.9358
 9404SOL    HW239142   1.780   1.753   4.489  0.9212  0.8615 -1.5302
 9405SOL     OW39143   3.472   1.674   0.083  0.5406 -0.1911 -0.2294
 9405SOL    HW139144   3.408   1.601   0.107 -1.5658  0.7509 -2.7331
 9405SOL    HW239145   3.521   1.650  -0.001  1.4690  0.2931  0.1697
 9406SOL     OW39146   8.658   8.001   1.436 -0.4620  0.1116  0.7260
 9406SOL    HW139147   8.623   7.914   1.402 -0.5573  0.2478  0.4796
 9406SOL    HW239148   8.716   7.984   1.515  0.4943 -0.2656 -0.0554
 9407SOL     OW39149   3.157   8.596   3.534 -0.1914 -0.2135 -0.2940
 9407SOL    HW139150   3.206   8.510   3.531  0.2530  0.0596 -0.8950
 9407SOL    HW239151   3.123   8.612   3.627 -0.6210 -1.2180 -0.2755
 9408SOL     OW39152   0.372   1.097   1.058  0.8000  0.0751  0.3968
 9408SOL    HW139153   0.471   1.090   1.052  0.9488  2.4858 -0.2894
 9408SOL    HW239154   0.347   1.148   1.140  0.1584 -0.0963  0.3113
 9409SOL     OW39155   7.894   5.315   5.122  0.5260  0.1739  0.7791
 9409SOL    HW139156   7.797   5.295   5.131  0.6201 -0.4663  0.4282
 9409SOL    HW239157   7.923   5.296   5.028  1.1815 -0.4951  1.1079
 9410SOL     OW39158   7.701   2.088   2.049  0.1811 -0.0835  0.5980
 9410SOL    HW139159   7.772   2.033   2.094 -0.4670 -2.8332 -1.5895
 9410SOL    HW239160   7.628   2.108   2.114  1.4654  0.1122  2.0204
 9411SOL     OW39161   4.718   3.709   4.681 -0.4303 -0.2231 -0.4116
 9411SOL    HW139162   4.786   3.759   4.627  1.4731 -1.4584  0.7457
 9411SOL    HW239163   4.707   3.754   4.770 -0.4982 -0.4957 -0.2807
 9412SOL     OW39164   5.905   8.807   1.384 -0.1231 -0.1902  0.0435
 9412SOL    HW139165   5.865   8.756   1.307  1.1550  0.2141 -0.9187
 9412SOL    HW239166   5.832   8.846   1.440 -1.0863 -1.0610 -0.5827
 9413SOL     OW39167   4.299   3.679   5.604  0.0543 -0.2267 -0.2107
 9413SOL    HW139168   4.263   3.762   5.646 -1.5040 -1.1773  0.4066
 9413SOL    HW239169   4.353   3.629   5.672 -0.9032 -0.8294  0.1251
 9414SOL     OW39170   3.117   4.767   4.677 -0.0820  0.8493 -0.1906
 9414SOL    HW139171   3.185   4.797   4.609 -0.0472 -0.4501 -0.7367
 9414SOL    HW239172   3.157   4.772   4.769  0.2872  1.4144 -0.3813
 9415SOL     OW39173   9.459   0.368   4.388  0.3048 -0.5781  0.7198
 9415SOL    HW139174   9.479   0.354   4.291  2.2633 -0.9156  1.1451
 9415SOL    HW239175   9.362   0.353   4.404 -0.4144  1.4003 -1.5207
 9416SOL     OW39176   3.637   1.468   1.902  0.0841 -0.4592 -0.3037
 9416SOL    HW139177   3.672   1.561   1.893 -2.2506  0.7031  2.0979
 9416SOL    HW239178   3.559   1.456   1.840 -0.5763 -0.3303  0.5037
 9417SOL     OW39179   1.084   5.241   4.334 -0.1615  0.6929  1.3326
 9417SOL    HW139180   1.060   5.328   4.376  0.6932  1.6171 -0.0690
 9417SOL    HW239181   1.015   5.216   4.267  0.4298  1.1073  0.5620
 9418SOL     OW39182   1.672   2.344   1.860 -0.4170 -0.0934 -0.1085
 9418SOL    HW139183   1.715   2.371   1.774  1.4650 -0.4781  0.6792
 9418SOL    HW239184   1.681   2.419   1.926 -2.2724  0.3856 -0.3771
 9419SOL     OW39185   4.167   7.986   1.282 -0.5253 -0.4107 -0.0537
 9419SOL    HW139186   4.195   7.916   1.216 -1.7246 -1.0202  0.0732
 9419SOL    HW239187   4.121   7.943   1.359 -1.4603  0.5336 -0.0717
 9420SOL     OW39188   8.940   2.937   0.228 -0.4323  0.3287 -0.1978
 9420SOL    HW139189   8.941   2.975   0.321 -1.0506  0.5582 -0.2870
 9420SOL    HW239190   9.034   2.934   0.194 -0.1727  0.0327  0.5190
 9421SOL     OW39191   7.016   8.612   3.193  0.3290 -0.1904 -0.1265
 9421SOL    HW139192   7.081   8.684   3.214 -0.4955  0.4934  0.1396
 9421SOL    HW239193   7.064   8.528   3.171  1.2829  0.1638  0.6071
 9422SOL     OW39194   4.595   8.422   3.960 -0.7873 -0.4211 -0.3277
 9422SOL    HW139195   4.586   8.396   3.864  3.2401  0.8675 -1.1534
 9422SOL    HW239196   4.609   8.521   3.967  0.5843 -0.7015  1.4100
 9423SOL     OW39197   0.413   7.917   0.660 -0.1532  0.4689 -0.5441
 9423SOL    HW139198   0.470   7.852   0.709 -0.2351  0.5433 -0.3473
 9423SOL    HW239199   0.467   7.964   0.590  0.0547  0.6177 -0.2847
 9424SOL     OW39200   0.949   2.744   4.985  0.0380 -0.3123  0.3157
 9424SOL    HW139201   1.041   2.705   4.990 -0.5590 -1.5755  1.8295
 9424SOL    HW239202   0.884   2.680   5.026 -1.7409 -0.0948 -2.0806
 9425SOL     OW39203   5.180   2.796   1.497  0.5673  0.7892  0.4733
 9425SOL    HW139204   5.195   2.832   1.405 -0.5763  0.9755  0.3506
 9425SOL    HW239205   5.154   2.871   1.558  1.1282  0.6359  0.9004
 9426SOL     OW39206   2.430   4.367   1.366  0.1220  0.9578 -0.0623
 9426SOL    HW139207   2.391   4.416   1.288 -0.3409  0.2253 -0.2899
 9426SOL    HW239208   2.376   4.285   1.385  0.3812  0.9941  0.8690
 9427SOL     OW39209   7.090   6.725   2.604  0.1537  0.1013  0.0082
 9427SOL    HW139210   7.167   6.767   2.556  0.5970  0.1985  0.8021
 9427SOL    HW239211   7.048   6.655   2.546  1.5589 -0.7635  0.0237
 9428SOL     OW39212   3.444   9.508   0.835 -0.0037 -0.0930 -0.0973
 9428SOL    HW139213   3.517   9.532   0.899  0.2704 -0.8834 -0.1063
 9428SOL    HW239214   3.356   9.538   0.871 -0.0381 -1.9302  1.4102
 9429SOL     OW39215   5.519   8.153   2.329  0.4121  0.3756 -0.3862
 9429SOL    HW139216   5.550   8.159   2.424  0.9611  2.0402 -0.6513
 9429SOL    HW239217   5.559   8.072   2.286  0.7608  0.0273  0.5893
 9430SOL     OW39218   4.465   0.211   4.814  0.3912  0.2261 -0.6538
 9430SOL    HW139219   4.565   0.208   4.806  0.4357  0.8042 -0.3432
 9430SOL    HW239220   4.440   0.255   4.900 -0.1368  0.5669 -0.9816
 9431SOL     OW39221   8.729   2.016   2.108  0.5871  0.3227 -0.2788
 9431SOL    HW139222   8.785   1.940   2.074 -2.8854 -2.0591 -0.9899
 9431SOL    HW239223   8.718   2.084   2.036  1.5369  0.2227 -0.5278
 9432SOL     OW39224   9.877   5.565   3.614 -0.7337 -0.6298  0.8288
 9432SOL    HW139225   9.975   5.577   3.605 -0.9494  0.2912 -0.4580
 9432SOL    HW239226   9.850   5.582   3.709  0.3737 -1.1629  1.2444
 9433SOL     OW39227   2.075   4.555   5.307  0.2712 -0.0905  0.2747
 9433SOL    HW139228   2.130   4.500   5.244  1.0056  1.5234 -0.5500
 9433SOL    HW239229   2.132   4.586   5.383 -0.4524 -1.4965  1.3981
 9434SOL     OW39230   3.523   3.132   3.316 -0.1941 -0.2417  0.1215
 9434SOL    HW139231   3.523   3.134   3.216 -2.4428 -0.3225  0.0985
 9434SOL    HW239232   3.539   3.225   3.351  1.4312 -0.3474 -0.2773
 9435SOL     OW39233   2.837   7.889   1.546 -0.0234  0.3472  0.4697
 9435SOL    HW139234   2.744   7.853   1.554 -0.1224  0.7493  1.2126
 9435SOL    HW239235   2.856   7.948   1.624  1.4288 -1.0431  1.2003
 9436SOL     OW39236   0.371   5.549   3.772 -0.1815 -0.0843  0.5899
 9436SOL    HW139237   0.353   5.451   3.761 -0.6213 -0.2968  2.9728
 9436SOL    HW239238   0.468   5.564   3.792 -0.1446 -0.0332  0.3795
 9437SOL     OW39239   0.806   5.358   4.665 -0.0518  0.1194  0.1720
 9437SOL    HW139240   0.767   5.360   4.757 -0.6523 -0.3923 -0.0723
 9437SOL    HW239241   0.906   5.351   4.672 -0.0846  0.1535  0.7811
 9438SOL     OW39242   8.867   4.721   4.072  0.9650 -0.1296  0.0106
 9438SOL    HW139243   8.884   4.803   4.127 -0.4063 -0.6589  1.2634
 9438SOL    HW239244   8.812   4.745   3.993 -1.3518 -0.1736  1.5588
 9439SOL     OW39245   8.923   8.229   0.808  0.1138  0.4543  0.3561
 9439SOL    HW139246   8.972   8.256   0.725 -0.0749 -1.1214 -0.2808
 9439SOL    HW239247   8.952   8.288   0.884  1.0544  1.2366 -0.5873
 9440SOL     OW39248   3.429   8.050   5.574  0.0019  0.5758 -0.2708
 9440SOL    HW139249   3.382   7.967   5.603  0.6561  0.2750 -0.0417
 9440SOL    HW239250   3.422   8.120   5.646  2.1172 -0.3675  0.9009
 9441SOL     OW39251   9.760   5.121   3.268  0.4083 -0.3421  0.0027
 9441SOL    HW139252   9.797   5.038   3.310  3.5552  0.9469 -0.0310
 9441SOL    HW239253   9.757   5.194   3.336  0.4433  0.2941 -0.6739
 9442SOL     OW39254   8.158   7.282   5.324  0.0757 -0.1974  0.3446
 9442SOL    HW139255   8.192   7.326   5.241  1.8734  0.1750  1.2589
 9442SOL    HW239256   8.123   7.191   5.301 -0.7157  0.4272 -1.0270
 9443SOL     OW39257   7.517   9.133   5.294  0.7861  0.2060 -0.0384
 9443SOL    HW139258   7.452   9.139   5.370  0.3134  0.1980 -0.4379
 9443SOL    HW239259   7.503   9.211   5.233  0.9907  0.0718 -0.2549
 9444SOL     OW39260   2.800   8.826   5.005  0.3248  0.3738 -0.1378
 9444SOL    HW139261   2.885   8.781   4.976  0.9984  0.8128  1.0888
 9444SOL    HW239262   2.816   8.924   5.012  0.4514  0.1954  2.5318
 9445SOL     OW39263   9.085   1.028   2.084  0.0077 -0.0536  0.3892
 9445SOL    HW139264   9.062   0.990   2.174 -4.2647 -1.4536 -1.1809
 9445SOL    HW239265   9.057   1.124   2.080  0.1114 -0.0179  0.5006
 9446SOL     OW39266   2.005   8.421   2.724  0.9649 -0.3577  0.0790
 9446SOL    HW139267   2.002   8.321   2.725 -0.9831 -0.3041  0.6417
 9446SOL    HW239268   2.036   8.454   2.813  0.5626 -0.4317  0.2464
 9447SOL     OW39269   0.141   7.569   4.463  0.4553  0.0918  0.3011
 9447SOL    HW139270   0.050   7.577   4.422 -0.2041  0.0041  1.6911
 9447SOL    HW239271   0.186   7.488   4.427 -0.0930  0.0427 -0.2852
 9448SOL     OW39272   9.626   4.175   2.709 -0.1360 -0.6212  0.1326
 9448SOL    HW139273   9.715   4.209   2.740 -0.7092  1.7459 -0.6855
 9448SOL    HW239274   9.566   4.163   2.788  0.4625 -0.8729  0.5517
 9449SOL     OW39275   1.521   1.463   4.422  0.2129 -0.1212 -0.1567
 9449SOL    HW139276   1.588   1.499   4.356  0.7022  0.1148  0.4616
 9449SOL    HW239277   1.564   1.393   4.478 -0.0280  0.1042  0.3144
 9450SOL     OW39278   2.609   3.211   0.422  0.1132  0.4633  0.2695
 9450SOL    HW139279   2.601   3.124   0.375  0.6950 -0.4046  1.7332
 9450SOL    HW239280   2.644   3.280   0.359 -0.8111 -0.2341 -1.0243
 9451SOL     OW39281   1.529   5.205   4.143 -0.1017 -0.0389  0.1003
 9451SOL    HW139282   1.524   5.269   4.067  1.0442  0.2089  0.2313
 9451SOL    HW239283   1.511   5.253   4.229 -2.0957 -0.4487 -0.0581
 9452SOL     OW39284   3.382   3.681   3.441 -0.1683  0.5484 -0.0912
 9452SOL    HW139285   3.357   3.761   3.495  2.1444 -0.9008  3.3147
 9452SOL    HW239286   3.324   3.604   3.466  0.4275  0.0528 -0.1981
 9453SOL     OW39287   0.126   5.192   1.938 -0.0431 -0.0199 -0.7080
 9453SOL    HW139288   0.210   5.203   1.992  0.3537 -0.3526 -1.2512
 9453SOL    HW239289   0.122   5.263   1.868 -1.1622  1.1665  0.5172
 9454SOL     OW39290   0.187   2.084   5.181 -0.0023 -0.7431  0.6181
 9454SOL    HW139291   0.119   2.156   5.196 -0.5228 -1.4738  1.8117
 9454SOL    HW239292   0.173   2.010   5.246  3.3371  0.0822  2.3995
 9455SOL     OW39293   5.671   9.569   2.633 -0.6233  0.6195  0.1934
 9455SOL    HW139294   5.740   9.497   2.635  1.1524  2.2948  1.7850
 9455SOL    HW239295   5.584   9.534   2.668 -0.2743 -1.1905 -0.7114
 9456SOL     OW39296   1.750   7.966   2.381  0.0036  0.2876 -1.1703
 9456SOL    HW139297   1.844   7.937   2.398  0.5082  0.0115 -4.2013
 9456SOL    HW239298   1.709   7.998   2.467  2.6859  0.0006  0.2696
 9457SOL     OW39299   3.503   8.715   3.809  0.3343  0.1188 -0.1242
 9457SOL    HW139300   3.506   8.719   3.709 -1.5533 -0.6980 -0.2460
 9457SOL    HW239301   3.544   8.630   3.840 -1.4994 -0.9108 -0.4066
 9458SOL     OW39302   4.764   0.449   1.988 -0.2805  0.5525  0.4935
 9458SOL    HW139303   4.851   0.405   1.963 -0.9273 -0.1548 -0.5529
 9458SOL    HW239304   4.777   0.503   2.071  1.0013 -0.0661  0.7126
 9459SOL     OW39305   6.997   0.093   2.046  0.5168  0.2132  0.6572
 9459SOL    HW139306   7.037   0.178   2.010  0.0629 -0.7547 -2.2448
 9459SOL    HW239307   7.046   0.066   2.129  2.6757  1.6481 -0.1059
 9460SOL     OW39308   4.616   2.457   3.867 -0.1018  0.5292  0.3413
 9460SOL    HW139309   4.653   2.540   3.826  0.3130  0.4183  0.4878
 9460SOL    HW239310   4.534   2.479   3.919 -0.6950  0.6513 -0.6352
 9461SOL     OW39311   4.456   6.746   3.500 -0.3108  0.2155  0.2381
 9461SOL    HW139312   4.495   6.787   3.582  1.3454  1.0022 -0.9041
 9461SOL    HW239313   4.384   6.806   3.464 -0.3707  0.3466  0.5790
 9462SOL     OW39314   2.872   7.422   0.253  0.1480 -0.1631  0.2916
 9462SOL    HW139315   2.915   7.454   0.169  0.8803 -0.5961  0.4943
 9462SOL    HW239316   2.851   7.499   0.312  0.7663  0.0460  0.2424
 9463SOL     OW39317   0.647   7.735   2.302  0.1654 -0.2816 -0.4804
 9463SOL    HW139318   0.630   7.638   2.288 -2.3509  0.1120 -0.2381
 9463SOL    HW239319   0.563   7.781   2.328  1.3355  1.9740 -0.5376
 9464SOL     OW39320   9.277   5.188   5.154  0.3484 -0.3445  0.3695
 9464SOL    HW139321   9.272   5.162   5.057  0.3847  1.0193  0.0002
 9464SOL    HW239322   9.297   5.106   5.209  0.4620 -1.1042 -0.7800
 9465SOL     OW39323   3.636   8.817   4.556 -0.3878  0.3462 -0.3092
 9465SOL    HW139324   3.602   8.779   4.642 -1.3689  3.1345  0.5696
 9465SOL    HW239325   3.585   8.777   4.480  0.2536 -1.8833  0.3785
 9466SOL     OW39326   1.256   9.803   5.590  0.1201  0.4630 -0.7962
 9466SOL    HW139327   1.252   9.876   5.658 -0.7621  0.0625 -0.4037
 9466SOL    HW239328   1.316   9.830   5.515 -2.0749  2.5993 -1.8484
 9467SOL     OW39329   8.369   7.163   0.759  0.3084 -0.2429  0.0245
 9467SOL    HW139330   8.365   7.257   0.793 -0.9285  0.1091 -1.0837
 9467SOL    HW239331   8.285   7.141   0.710  0.0026 -2.3820  1.4385
 9468SOL     OW39332   2.184   1.174   1.737  0.1329  0.1369  0.1222
 9468SOL    HW139333   2.203   1.106   1.807  1.8307 -0.8769 -1.2683
 9468SOL    HW239334   2.220   1.142   1.649  0.9288  2.7837 -0.5690
 9469SOL     OW39335   3.946   5.026   1.494  0.2227 -0.2339  0.6204
 9469SOL    HW139336   3.968   5.007   1.399  0.2648  0.2262  0.5348
 9469SOL    HW239337   3.847   5.033   1.505  0.0385 -3.1636  1.1731
 9470SOL     OW39338   3.179   6.881   1.903 -0.0333 -0.3623  0.1086
 9470SOL    HW139339   3.142   6.823   1.975  0.7142 -0.9748  0.0109
 9470SOL    HW239340   3.126   6.868   1.819 -1.0127  0.4822  0.5912
 9471SOL     OW39341   9.133   9.233   3.430 -0.4098  0.0504  0.0144
 9471SOL    HW139342   9.079   9.307   3.389  2.1506  1.6777 -0.5128
 9471SOL    HW239343   9.175   9.179   3.358  0.1691 -0.0781  0.4499
 9472SOL     OW39344   8.285   9.119   4.107 -0.2094 -0.1431  0.0575
 9472SOL    HW139345   8.294   9.211   4.068 -1.5236  0.8896  2.0705
 9472SOL    HW239346   8.199   9.079   4.076 -0.0231 -0.3754 -0.1611
 9473SOL     OW39347   0.861   7.852   5.578 -0.1115  0.0135  0.2903
 9473SOL    HW139348   0.828   7.764   5.542 -0.4241  0.6597 -1.0206
 9473SOL    HW239349   0.800   7.925   5.547  0.0554  0.6870  1.5153
 9474SOL     OW39350   1.861   9.663   1.070  0.4241  0.6556  0.4009
 9474SOL    HW139351   1.904   9.572   1.076  0.9074  0.6327 -2.5690
 9474SOL    HW239352   1.762   9.652   1.070  0.4695 -0.1183 -2.2255
 9475SOL     OW39353   0.388   3.693   0.842  0.0358  0.0920  0.5882
 9475SOL    HW139354   0.345   3.763   0.899  0.4129 -0.8916  2.1362
 9475SOL    HW239355   0.386   3.721   0.746 -0.4374  1.8857  1.1050
 9476SOL     OW39356   7.873   6.679   3.692 -0.1464  0.0409 -0.0171
 9476SOL    HW139357   7.790   6.624   3.704 -0.5245  0.5619 -0.2433
 9476SOL    HW239358   7.877   6.711   3.597 -0.6007  1.4950  0.4506
 9477SOL     OW39359   4.078   2.270   4.603 -0.2783 -0.0231  0.1534
 9477SOL    HW139360   4.041   2.199   4.664  1.5127 -0.3260  0.9231
 9477SOL    HW239361   4.176   2.281   4.621  0.1521  0.3171 -2.2558
 9478SOL     OW39362   7.578   0.503   0.904 -0.2447 -0.0230 -0.2206
 9478SOL    HW139363   7.542   0.572   0.966  0.4823  1.0491 -0.9855
 9478SOL    HW239364   7.578   0.414   0.950 -3.3673  0.0210 -0.0042
 9479SOL     OW39365   2.254   9.687   1.098 -0.1802 -0.2266  0.3467
 9479SOL    HW139366   2.193   9.759   1.133 -0.8358 -0.4068 -0.4186
 9479SOL    HW239367   2.235   9.601   1.145  0.3669  0.0139  1.0163
 9480SOL     OW39368   1.600   9.844   1.985  0.2531 -0.6666  0.3275
 9480SOL    HW139369   1.578   9.931   1.941  0.0316 -0.7934  0.1806
 9480SOL    HW239370   1.529   9.777   1.962 -0.7631 -0.2879  2.2118
 9481SOL     OW39371   9.198   8.730   0.301 -0.1872 -0.4167  0.1801
 9481SOL    HW139372   9.132   8.752   0.373 -0.3848  2.0171 -0.7079
 9481SOL    HW239373   9.151   8.728   0.213  0.3188 -1.9993 -0.0637
 9482SOL     OW39374   6.408   0.224   3.915  0.4472  0.5643 -0.7012
 9482SOL    HW139375   6.370   0.240   3.824  0.9812 -0.2969 -1.0880
 9482SOL    HW239376   6.334   0.206   3.980  0.0859  0.7980 -1.0498
 9483SOL     OW39377   1.582   5.901   2.367  0.2586 -0.0655 -0.4597
 9483SOL    HW139378   1.534   5.988   2.376 -0.8735 -0.5426 -1.7621
 9483SOL    HW239379   1.642   5.903   2.288 -0.4864 -0.7816 -1.0606
 9484SOL     OW39380   9.194   2.585   2.277 -0.2905  0.3212  0.6160
 9484SOL    HW139381   9.103   2.557   2.245  0.1186  1.8568 -1.9728
 9484SOL    HW239382   9.264   2.541   2.220  0.5067  1.5610  0.6299
 9485SOL     OW39383   5.073   6.597   2.669  0.6438  0.0774  0.3344
 9485SOL    HW139384   5.118   6.599   2.758 -0.4937  0.4620  0.9026
 9485SOL    HW239385   4.982   6.638   2.676  0.4103 -0.1987 -0.9242
 9486SOL     OW39386   4.400   1.982   0.833  0.3614  0.6855  0.8271
 9486SOL    HW139387   4.363   1.898   0.873 -1.5445  1.8628  1.5923
 9486SOL    HW239388   4.450   2.033   0.904  2.5381 -0.3483  0.0759
 9487SOL     OW39389   8.710   7.458   2.657 -0.3722  0.2333 -0.4228
 9487SOL    HW139390   8.662   7.463   2.744 -0.6782  2.2088 -0.6772
 9487SOL    HW239391   8.645   7.476   2.582  0.2144  0.2536 -0.9349
 9488SOL     OW39392   6.869   8.704   1.999 -0.1955 -0.6602  0.4692
 9488SOL    HW139393   6.801   8.716   1.927  0.3743  1.8145  0.3055
 9488SOL    HW239394   6.826   8.717   2.088  0.0569  1.1108  0.3580
 9489SOL     OW39395   4.283   0.928   5.458  0.0040 -0.4248  0.3721
 9489SOL    HW139396   4.275   0.987   5.378 -1.5937 -1.7833 -0.5039
 9489SOL    HW239397   4.193   0.917   5.500  0.5265 -1.1518  1.3106
 9490SOL     OW39398   3.147   0.407   0.199  0.3218  0.2187 -0.3586
 9490SOL    HW139399   3.120   0.429   0.292 -1.6542 -0.7516 -0.6891
 9490SOL    HW239400   3.243   0.378   0.198  0.4852  0.6510  1.2805
 9491SOL     OW39401   1.343   6.290   3.172  0.2732 -0.0364  0.1836
 9491SOL    HW139402   1.405   6.368   3.164 -0.2013  0.0984 -2.6153
 9491SOL    HW239403   1.271   6.311   3.237  0.8932  1.3536  0.4345
 9492SOL     OW39404   1.008   0.916   1.397 -0.3883  0.0626 -0.3287
 9492SOL    HW139405   0.982   1.005   1.434 -0.1013  0.4848 -1.1223
 9492SOL    HW239406   1.084   0.928   1.333 -0.1672 -0.7887 -0.2318
 9493SOL     OW39407   1.578   3.823   2.618 -1.0461 -0.0649 -1.0073
 9493SOL    HW139408   1.566   3.915   2.655  1.2707  0.0649 -0.5186
 9493SOL    HW239409   1.584   3.828   2.519  2.6628  0.7923 -0.8155
 9494SOL     OW39410   9.413   6.253   1.521 -0.4905  0.0665 -0.7605
 9494SOL    HW139411   9.430   6.270   1.424  0.8847  0.6435 -0.4342
 9494SOL    HW239412   9.459   6.324   1.576 -0.5277 -0.7423  0.3415
 9495SOL     OW39413   4.090   1.936   1.091 -0.4129  0.1913 -0.2837
 9495SOL    HW139414   4.108   2.016   1.033  1.2456  1.1520  1.5084
 9495SOL    HW239415   4.116   1.853   1.042  1.2837  1.0098 -0.8069
 9496SOL     OW39416   4.878   6.963   1.595  0.8207  0.5624 -0.1557
 9496SOL    HW139417   4.779   6.967   1.595  0.8423  1.2252 -0.0483
 9496SOL    HW239418   4.909   6.889   1.654  0.3824  0.0669 -0.5447
 9497SOL     OW39419   8.331   7.347   1.368  0.4839  0.3415  0.0689
 9497SOL    HW139420   8.247   7.294   1.352 -0.1844  1.8055 -1.4298
 9497SOL    HW239421   8.404   7.286   1.398 -1.5852 -0.7206  3.1404
 9498SOL     OW39422   9.747   7.122   4.012  0.3057  0.1364 -0.1659
 9498SOL    HW139423   9.709   7.178   4.086  0.3954  0.3930 -0.3118
 9498SOL    HW239424   9.833   7.080   4.044 -0.3341 -0.8172  0.3198
 9499SOL     OW39425   0.756   3.421   2.892  0.3030  0.2870  0.1338
 9499SOL    HW139426   0.718   3.329   2.899  1.0651 -0.0423  0.0136
 9499SOL    HW239427   0.702   3.475   2.828 -1.7153  0.7393  2.1531
 9500SOL     OW39428   0.649   2.104   1.172  0.2933 -0.2104 -0.4816
 9500SOL    HW139429   0.610   2.192   1.144  1.3156  0.5541  0.4396
 9500SOL    HW239430   0.687   2.057   1.092  0.0777  0.3521 -0.9182
 9501SOL     OW39431   7.785   1.569   0.287 -0.1608  0.3404  0.1392
 9501SOL    HW139432   7.806   1.611   0.198 -1.2264  0.0871 -0.2354
 9501SOL    HW239433   7.745   1.638   0.347  1.7817  0.8608  0.9052
 9502SOL     OW39434   1.561   6.729   0.230 -1.0140  0.2556  0.5474
 9502SOL    HW139435   1.471   6.701   0.197 -0.7069  0.0951 -0.1617
 9502SOL    HW239436   1.571   6.827   0.218 -0.7577  0.1423 -0.2022
 9503SOL     OW39437   7.479   8.974   1.126 -0.5577  0.2292 -0.2218
 9503SOL    HW139438   7.559   8.923   1.157 -0.5780  0.5598  0.3827
 9503SOL    HW239439   7.423   9.000   1.205 -0.6847  0.9482 -0.5438
 9504SOL     OW39440   6.470   9.650   1.465  0.1356 -0.1738  0.0915
 9504SOL    HW139441   6.558   9.607   1.488 -0.7100 -1.3166  1.2322
 9504SOL    HW239442   6.486   9.725   1.402  2.0792  0.3979  1.2181
 9505SOL     OW39443   1.118   6.876   2.118 -0.4719 -0.0222  0.2159
 9505SOL    HW139444   1.108   6.947   2.187 -0.2582 -1.6521  1.9557
 9505SOL    HW239445   1.074   6.906   2.033 -2.1333  1.3611  1.5279
 9506SOL     OW39446   7.877   4.670   0.757  0.2626  0.5447  0.1046
 9506SOL    HW139447   7.844   4.750   0.808  0.6485  0.5966  0.2726
 9506SOL    HW239448   7.862   4.684   0.659 -0.9798  0.2154  0.2420
 9507SOL     OW39449   1.257   8.324   1.980 -0.0760  0.6886  0.7353
 9507SOL    HW139450   1.231   8.316   2.076 -3.6357  0.7477 -0.1416
 9507SOL    HW239451   1.213   8.404   1.940  0.7043  0.1999 -1.1530
 9508SOL     OW39452   3.947   4.541   4.970  0.2776 -0.0215  0.0650
 9508SOL    HW139453   3.987   4.478   4.903  0.3661  1.7509 -1.5809
 9508SOL    HW239454   3.859   4.505   5.000 -1.6509  1.0035 -3.9881
 9509SOL     OW39455   8.039   5.380   5.343 -0.4779  0.0828  0.1853
 9509SOL    HW139456   7.996   5.335   5.265 -1.8224  1.5025  0.0689
 9509SOL    HW239457   7.969   5.429   5.395  0.9057  1.9518  0.3357
 9510SOL     OW39458   4.649   0.532   4.162 -0.4000  0.4493 -0.3330
 9510SOL    HW139459   4.590   0.606   4.194 -0.1423  0.4755  0.0960
 9510SOL    HW239460   4.593   0.456   4.130 -0.6650  1.0005 -1.1854
 9511SOL     OW39461   2.672   3.110   5.240 -0.1633  0.0928 -0.0590
 9511SOL    HW139462   2.699   3.125   5.145 -0.3999  0.8422 -0.0077
 9511SOL    HW239463   2.603   3.178   5.266 -0.2258 -0.2197  0.5970
 9512SOL     OW39464   2.510   8.056   4.896 -0.0130 -0.2583 -0.1547
 9512SOL    HW139465   2.514   8.081   4.800  0.3447 -0.2304 -0.1315
 9512SOL    HW239466   2.595   8.012   4.923 -0.0187 -0.0446  0.2117
 9513SOL     OW39467   0.060   9.671   1.478  0.2896 -0.2157  0.0181
 9513SOL    HW139468   0.146   9.634   1.515  0.7106  0.0488 -0.6903
 9513SOL    HW239469   0.006   9.597   1.438  0.8724 -0.1502 -0.8886
 9514SOL     OW39470   4.564   4.345   0.998  0.1864  0.2803 -0.1444
 9514SOL    HW139471   4.544   4.363   0.902  0.6960 -1.0712 -0.5166
 9514SOL    HW239472   4.645   4.396   1.026 -0.6296  1.5756 -0.1026
 9515SOL     OW39473   2.318   9.729   3.062 -0.0016 -0.2647  0.2063
 9515SOL    HW139474   2.345   9.797   3.130  1.5162 -0.7659  0.1092
 9515SOL    HW239475   2.399   9.688   3.021 -0.8951 -2.1946  0.2958
 9516SOL     OW39476   9.902   6.148   1.557  0.3721 -0.3188  0.0868
 9516SOL    HW139477   9.860   6.233   1.525 -0.2785 -0.4422  0.5856
 9516SOL    HW239478   9.927   6.090   1.479  1.8240  0.7967 -0.2987
 9517SOL     OW39479   7.646   6.011   2.966  0.1488  0.0609 -0.3370
 9517SOL    HW139480   7.688   6.092   2.926 -1.4448  0.2262 -1.7278
 9517SOL    HW239481   7.549   6.009   2.943 -0.3691 -0.9343  1.8035
 9518SOL     OW39482   4.912   9.845   2.674 -0.1765  0.2917 -0.7846
 9518SOL    HW139483   4.981   9.773   2.661 -2.5685 -2.0341 -0.9337
 9518SOL    HW239484   4.828   9.805   2.709 -1.7426  2.9839 -1.3187
 9519SOL     OW39485   9.860   2.560   4.694  0.6718 -0.4396  0.0145
 9519SOL    HW139486   9.778   2.614   4.713  0.8752  0.3134 -1.1814
 9519SOL    HW239487   9.864   2.482   4.756 -1.1082 -0.6374 -0.1026
 9520SOL     OW39488   7.311   6.973   3.167  0.2425  0.5045 -0.0698
 9520SOL    HW139489   7.211   6.971   3.167  0.1734  2.7302  0.9417
 9520SOL    HW239490   7.344   6.970   3.073 -0.7253 -1.1451 -0.3845
 9521SOL     OW39491   8.295   1.501   3.862  0.4088  0.3010 -0.2477
 9521SOL    HW139492   8.360   1.565   3.903  1.5879  1.1553 -3.3067
 9521SOL    HW239493   8.203   1.540   3.864  0.5571  0.6131  0.9062
 9522SOL     OW39494   0.917   8.768   1.262 -0.9081 -0.8863 -0.8560
 9522SOL    HW139495   0.831   8.778   1.211 -0.4946 -0.9653 -1.5754
 9522SOL    HW239496   0.949   8.674   1.254  0.8965 -0.1219 -3.2832
 9523SOL     OW39497   0.629   2.758   2.259  0.1650  0.0551  0.4261
 9523SOL    HW139498   0.561   2.687   2.276  1.1364 -0.5998  1.5944
 9523SOL    HW239499   0.687   2.770   2.339  0.6061  1.5318 -0.0843
 9524SOL     OW39500   4.122   1.799   1.371 -0.2377 -0.8212 -0.0528
 9524SOL    HW139501   4.194   1.731   1.368 -0.9802 -1.5575 -1.9766
 9524SOL    HW239502   4.107   1.836   1.279 -0.0216  1.7579  0.9055
 9525SOL     OW39503   8.998   6.938   3.244  0.1403 -0.3607  0.3136
 9525SOL    HW139504   9.027   7.026   3.282  0.9476 -0.9440  1.0490
 9525SOL    HW239505   8.899   6.938   3.232  0.1281  0.6210  0.3867
 9526SOL     OW39506   1.777   0.114   3.097  0.1850  0.3886  0.1136
 9526SOL    HW139507   1.874   0.126   3.079  0.6597 -1.0090  1.5467
 9526SOL    HW239508   1.759   0.018   3.119 -1.7821  0.3266 -1.6084
 9527SOL     OW39509   9.479   9.758   2.258  0.4384 -0.1207 -0.1415
 9527SOL    HW139510   9.530   9.696   2.199  0.7948  0.7177 -0.7214
 9527SOL    HW239511   9.419   9.815   2.201  0.2078  0.1532  0.3807
 9528SOL     OW39512   2.873   5.323   5.452 -0.1321  0.4303  0.8273
 9528SOL    HW139513   2.900   5.310   5.357 -2.6760 -1.8134  0.3489
 9528SOL    HW239514   2.942   5.282   5.512  0.6750  0.3996 -0.1148
 9529SOL     OW39515   3.622   7.758   0.635 -0.6368  0.5487  0.0849
 9529SOL    HW139516   3.598   7.774   0.731  0.6670  1.7207  0.2307
 9529SOL    HW239517   3.569   7.819   0.577 -2.3393 -1.0200 -0.0580
 9530SOL     OW39518   4.296   4.710   5.341 -0.1254 -0.0032  0.1933
 9530SOL    HW139519   4.228   4.677   5.406  0.1993 -1.0900 -0.0070
 9530SOL    HW239520   4.365   4.764   5.389 -0.6329  0.3513  0.5302
 9531SOL     OW39521   9.139   8.116   5.096 -0.1372  0.3994  0.5256
 9531SOL    HW139522   9.051   8.074   5.074  0.2442  1.1190 -2.7415
 9531SOL    HW239523   9.206   8.045   5.117 -0.6108 -0.3706 -0.5387
 9532SOL     OW39524   0.904   9.035   0.738  0.3610 -0.2136 -0.2771
 9532SOL    HW139525   0.976   8.990   0.687  0.8165 -0.6140  0.7207
 9532SOL    HW239526   0.896   8.995   0.829 -1.7566 -0.8295 -0.6952
 9533SOL     OW39527   2.758   0.909   0.071 -0.0585 -0.2915 -0.3564
 9533SOL    HW139528   2.834   0.971   0.050 -0.0877 -0.8235 -2.1867
 9533SOL    HW239529   2.779   0.857   0.154  1.8053 -0.7539 -1.0865
 9534SOL     OW39530   0.713   9.402   3.612 -0.5784  0.5125 -0.6914
 9534SOL    HW139531   0.648   9.476   3.596  0.7828  1.4839 -1.7718
 9534SOL    HW239532   0.666   9.314   3.599 -0.9948  1.1894 -4.5999
 9535SOL     OW39533   3.404   8.054   3.462 -0.6429  0.6231  0.2463
 9535SOL    HW139534   3.390   7.970   3.409 -0.0415 -0.1272  1.2420
 9535SOL    HW239535   3.502   8.073   3.467 -0.5196 -0.4199  2.7213
 9536SOL     OW39536   1.865   0.335   0.343  0.2399 -0.1369  0.1886
 9536SOL    HW139537   1.880   0.245   0.302 -0.3106 -0.4487  0.6592
 9536SOL    HW239538   1.947   0.391   0.332  0.1360 -0.2510 -1.2377
 9537SOL     OW39539   2.396   5.648   3.440 -0.7195  0.2709 -0.0304
 9537SOL    HW139540   2.381   5.745   3.457  3.7887  1.1261 -0.4739
 9537SOL    HW239541   2.368   5.595   3.520 -0.8457  2.1688  1.2005
 9538SOL     OW39542   2.865   3.900   5.450 -0.5457  0.2407  0.1336
 9538SOL    HW139543   2.926   3.833   5.408  1.6298  1.5229  1.1161
 9538SOL    HW239544   2.861   3.884   5.549  0.6647  2.0067  0.5019
 9539SOL     OW39545   8.659   7.810   1.973  0.0485  0.0116  0.3134
 9539SOL    HW139546   8.568   7.806   2.013  0.0073  0.0828  0.2289
 9539SOL    HW239547   8.651   7.822   1.874  0.1352  3.1066  0.6246
 9540SOL     OW39548   9.014   7.993   4.631 -0.4943  0.0853  0.0458
 9540SOL    HW139549   9.026   7.919   4.697 -2.2979 -0.3974 -0.1391
 9540SOL    HW239550   8.966   7.959   4.550  1.5312  0.7187 -1.4618
 9541SOL     OW39551   0.536   2.096   3.104 -0.3020 -0.4416  0.4329
 9541SOL    HW139552   0.509   2.075   3.010 -0.0248 -1.3837  0.5629
 9541SOL    HW239553   0.631   2.070   3.118 -0.1629  0.2577  0.8059
 9542SOL     OW39554   1.089   8.544   0.319  0.2509  0.0331  0.2906
 9542SOL    HW139555   1.152   8.587   0.383 -0.5818  0.6409  0.7070
 9542SOL    HW239556   1.132   8.538   0.229  1.1788 -0.2374  0.7433
 9543SOL     OW39557   0.197   2.295   4.888  0.3817 -0.0152 -0.2624
 9543SOL    HW139558   0.206   2.201   4.854  0.8522 -0.1404  0.1967
 9543SOL    HW239559   0.128   2.298   4.960 -1.1375  0.3845 -1.7158
 9544SOL     OW39560   9.678   8.969   3.185  0.1865  0.6914 -0.3357
 9544SOL    HW139561   9.766   9.016   3.194  1.1020 -1.1900  0.8125
 9544SOL    HW239562   9.608   9.023   3.232  1.0850  1.2743  0.3683
 9545SOL     OW39563   3.087   6.484   0.145 -0.0390  0.2268 -0.5667
 9545SOL    HW139564   3.142   6.524   0.072 -0.9522  0.8716 -0.9147
 9545SOL    HW239565   3.106   6.532   0.231 -1.6429  1.8982 -1.1231
 9546SOL     OW39566   8.696   5.038   5.322  0.4842  0.4564 -0.4850
 9546SOL    HW139567   8.614   5.001   5.365  0.9921 -0.6602 -0.4576
 9546SOL    HW239568   8.684   5.136   5.305 -0.1895  0.6586  1.0823
 9547SOL     OW39569   9.749   7.931   2.989 -0.0183  0.1774  0.4266
 9547SOL    HW139570   9.781   7.980   3.070  1.2678 -0.3209  0.2300
 9547SOL    HW239571   9.670   7.978   2.950 -0.7949  0.2965  2.0986
 9548SOL     OW39572   3.020   0.707   3.109 -0.1153 -0.5456  0.4777
 9548SOL    HW139573   2.966   0.718   3.192 -1.1634  0.0802 -0.2815
 9548SOL    HW239574   3.117   0.706   3.133 -0.4421 -1.4182  1.8160
 9549SOL     OW39575   8.832   4.674   1.649 -0.2325 -0.0070  0.4041
 9549SOL    HW139576   8.882   4.591   1.670  0.5232  0.1605 -0.7263
 9549SOL    HW239577   8.896   4.750   1.639 -0.9642  0.8886  2.1523
 9550SOL     OW39578   3.135   0.383   1.393 -0.3361 -0.4918 -0.3006
 9550SOL    HW139579   3.220   0.405   1.442 -1.0471  2.3463 -0.2700
 9550SOL    HW239580   3.068   0.346   1.457 -0.4430  0.9421  0.4273
 9551SOL     OW39581   9.712   7.134   0.984 -0.4039  0.2461 -0.4081
 9551SOL    HW139582   9.684   7.116   1.078  0.0834  1.0147 -0.1104
 9551SOL    HW239583   9.634   7.121   0.923 -1.0766  1.1196  0.2586
 9552SOL     OW39584   4.331   8.743   0.792 -0.6144  0.4298  0.1248
 9552SOL    HW139585   4.326   8.841   0.809  1.4939  0.4832  0.4739
 9552SOL    HW239586   4.258   8.717   0.728 -0.0761  2.5151 -1.3979
 9553SOL     OW39587   4.044   3.918   0.298  0.4426 -0.8058  0.4879
 9553SOL    HW139588   4.069   3.968   0.381  0.1490  1.7392 -0.8817
 9553SOL    HW239589   3.945   3.917   0.289  0.5051  0.2388 -0.5412
 9554SOL     OW39590   3.194   9.987   0.123  1.1844 -0.6071  0.2472
 9554SOL    HW139591   3.139  10.025   0.197  1.1096 -1.6069  0.7128
 9554SOL    HW239592   3.288  10.021   0.131  1.1641 -0.6698  0.7661
 9555SOL     OW39593   8.411   3.668   0.772 -0.3854 -0.2480  0.4990
 9555SOL    HW139594   8.394   3.704   0.680 -0.3424  1.0386  0.9757
 9555SOL    HW239595   8.327   3.677   0.826 -0.1110 -0.0248  0.8904
 9556SOL     OW39596   8.904   8.003   5.041  0.5618  0.1423  0.1137
 9556SOL    HW139597   8.834   8.073   5.025  0.4227  0.1429  0.7148
 9556SOL    HW239598   8.897   7.932   4.970 -0.5898 -0.2852  0.6283
 9557SOL     OW39599   7.753   9.923   3.998  0.3478 -0.2545  0.9190
 9557SOL    HW139600   7.722   9.829   4.016  1.9952 -0.6821  1.5874
 9557SOL    HW239601   7.801   9.958   4.078 -0.1905  1.1485  0.6398
 9558SOL     OW39602   0.145   6.003   5.277  0.4020 -0.0879  0.4759
 9558SOL    HW139603   0.095   5.943   5.340  0.0480 -2.1425 -1.6663
 9558SOL    HW239604   0.184   5.948   5.202  0.0887  2.3483 -1.5638
 9559SOL     OW39605   2.057   2.776   0.741 -0.7515 -0.5596 -0.2414
 9559SOL    HW139606   2.079   2.873   0.757 -5.2600  0.5662 -0.0978
 9559SOL    HW239607   2.051   2.729   0.829 -0.1413 -0.5899 -0.2140
 9560SOL     OW39608   1.705   8.224   3.252 -0.4702  0.8576  0.0914
 9560SOL    HW139609   1.653   8.277   3.185 -1.5888 -1.2612 -0.7436
 9560SOL    HW239610   1.786   8.185   3.209 -1.5536 -1.0825 -0.2579
 9561SOL     OW39611   6.230   1.743   3.438 -0.1084 -0.1176  0.2413
 9561SOL    HW139612   6.275   1.818   3.487  0.2725  0.7149 -1.3634
 9561SOL    HW239613   6.287   1.715   3.360 -1.2334 -0.6951 -0.3759
 9562SOL     OW39614   6.637   8.725   1.790  0.1224 -0.0019  0.0379
 9562SOL    HW139615   6.559   8.753   1.734  1.8906  3.6372 -0.7008
 9562SOL    HW239616   6.666   8.633   1.762 -2.4195 -0.4519 -1.2472
 9563SOL     OW39617   6.330   8.633   2.619 -0.2915 -0.9330  0.1654
 9563SOL    HW139618   6.313   8.678   2.531  0.0603 -0.6361  0.2493
 9563SOL    HW239619   6.369   8.543   2.603  3.4262  0.6068  0.0625
 9564SOL     OW39620   9.559   0.436   3.327  0.0393  0.1405  0.2956
 9564SOL    HW139621   9.462   0.451   3.350  0.2170  2.0382 -0.1672
 9564SOL    HW239622   9.616   0.477   3.397  0.5496 -2.9915  1.8184
 9565SOL     OW39623   5.191   0.062   0.925 -0.2371  0.5688  0.5211
 9565SOL    HW139624   5.207   0.155   0.958 -3.3867  0.7588  1.6234
 9565SOL    HW239625   5.229  -0.004   0.991 -1.4045  1.0359  1.6741
 9566SOL     OW39626   3.428   3.421   3.184 -0.7500  0.1362 -0.3143
 9566SOL    HW139627   3.343   3.371   3.164 -0.4692 -0.1233 -0.8664
 9566SOL    HW239628   3.459   3.399   3.276 -0.4805 -0.9073 -0.6590
 9567SOL     OW39629   9.815   6.220   3.982 -0.6705  0.1815 -0.0937
 9567SOL    HW139630   9.815   6.315   4.014 -1.4489  0.3532 -0.5889
 9567SOL    HW239631   9.791   6.159   4.058  2.1747  0.1442  0.8461
 9568SOL     OW39632   7.564   0.550   4.780 -0.4259 -0.3618  0.2571
 9568SOL    HW139633   7.493   0.599   4.730  1.3275  1.6005 -0.3991
 9568SOL    HW239634   7.536   0.455   4.794 -2.6001  0.0485 -1.0912
 9569SOL     OW39635   3.858   7.094   3.162 -0.2946 -0.3188 -0.1957
 9569SOL    HW139636   3.825   7.133   3.076  2.0434  1.7634 -0.1791
 9569SOL    HW239637   3.952   7.061   3.151 -0.2362 -0.7309  1.3634
 9570SOL     OW39638   4.291   6.104   0.949  0.3577  0.2190 -0.0823
 9570SOL    HW139639   4.345   6.136   1.027  1.7150  0.5453 -1.1319
 9570SOL    HW239640   4.327   6.145   0.865 -1.8568  0.8275 -0.7507
 9571SOL     OW39641   2.168   3.053   3.074  0.2943 -0.4004  0.1915
 9571SOL    HW139642   2.238   3.055   3.002  0.2666  0.5838  0.1853
 9571SOL    HW239643   2.083   3.015   3.037  0.4865 -0.5505 -0.0995
 9572SOL     OW39644   7.441   2.519   0.189 -0.0393  0.4138 -0.2243
 9572SOL    HW139645   7.439   2.420   0.178 -2.2032  0.3861  0.1044
 9572SOL    HW239646   7.496   2.560   0.117  0.1722 -0.9659 -0.8624
 9573SOL     OW39647   4.007   6.156   0.940  0.2238  0.3683 -0.3578
 9573SOL    HW139648   4.103   6.173   0.963  0.1226 -0.3785  0.6028
 9573SOL    HW239649   3.973   6.232   0.884  1.0080  1.2489  0.3528
 9574SOL     OW39650   4.443   2.690   3.086 -0.0244  0.4005  0.2040
 9574SOL    HW139651   4.412   2.765   3.027  0.5074  0.3124 -0.2001
 9574SOL    HW239652   4.364   2.642   3.123 -0.3743  1.3796  0.7502
 9575SOL     OW39653   0.849   9.662   3.016  0.1013  0.3328  0.0951
 9575SOL    HW139654   0.758   9.668   2.974  0.3112 -1.3569 -0.6372
 9575SOL    HW239655   0.857   9.732   3.087 -2.3331 -0.4826  1.2369
 9576SOL     OW39656   0.576   7.459   1.189  0.1150  0.6292 -0.7662
 9576SOL    HW139657   0.486   7.486   1.155 -0.6949 -1.5585 -0.4199
 9576SOL    HW239658   0.617   7.393   1.125  0.9479  0.6869 -0.2952
 9577SOL     OW39659   1.159   2.996   0.141  0.1365  0.1222  0.1776
 9577SOL    HW139660   1.215   2.957   0.068  0.1044  0.3221  0.0440
 9577SOL    HW239661   1.102   2.925   0.181 -1.2242  0.3726 -1.2555
 9578SOL     OW39662   0.395   4.617   0.846  0.2325  0.0531 -0.5624
 9578SOL    HW139663   0.346   4.531   0.860 -0.0318  0.3597  0.4259
 9578SOL    HW239664   0.407   4.664   0.933 -0.7076  1.6024 -1.2311
 9579SOL     OW39665   3.597   8.474   0.943 -0.0184 -0.5251 -0.1701
 9579SOL    HW139666   3.500   8.498   0.954  0.3359  0.2595  1.4278
 9579SOL    HW239667   3.638   8.460   1.033  1.7899  0.9229 -0.7243
 9580SOL     OW39668   1.384   0.058   2.019 -0.0148 -0.0166 -0.2214
 9580SOL    HW139669   1.471   0.061   1.970 -0.1978 -0.7754 -0.5935
 9580SOL    HW239670   1.343   0.149   2.019 -0.5128 -0.2122 -2.3789
 9581SOL     OW39671   1.293   3.939   1.320 -0.0303  0.6432 -0.6162
 9581SOL    HW139672   1.334   3.848   1.324 -1.7010 -0.0801  0.9695
 9581SOL    HW239673   1.327   3.988   1.240  1.5347 -1.0591 -1.0121
 9582SOL     OW39674   8.326   9.803   4.223 -0.6510 -0.3391 -0.1445
 9582SOL    HW139675   8.372   9.826   4.137  1.4766 -1.6932  0.5779
 9582SOL    HW239676   8.274   9.718   4.211 -1.0759 -0.0566 -0.3210
 9583SOL     OW39677   4.433   8.626   3.618  0.1358  0.4818 -0.1202
 9583SOL    HW139678   4.515   8.622   3.561 -0.7981  0.9367 -1.5171
 9583SOL    HW239679   4.360   8.673   3.568 -1.2629 -0.7272  0.7500
 9584SOL     OW39680   1.379   8.718   5.068  0.4734  0.3323  0.0895
 9584SOL    HW139681   1.470   8.679   5.061  0.3124 -0.0657  0.2125
 9584SOL    HW239682   1.325   8.693   4.988  0.4262  0.4491  0.0841
 9585SOL     OW39683   3.152   1.148   4.009  0.0346  0.1693 -0.0067
 9585SOL    HW139684   3.209   1.066   4.013  1.0822  0.7221 -2.6054
 9585SOL    HW239685   3.056   1.122   4.010  0.3631 -1.0968 -1.0026
 9586SOL     OW39686   4.408   1.170   2.305 -0.5405  0.1069 -0.0208
 9586SOL    HW139687   4.449   1.211   2.224  0.1197 -0.3463  0.0816
 9586SOL    HW239688   4.463   1.092   2.335 -0.6670  0.3978  0.9919
 9587SOL     OW39689   4.482   3.279   0.695  0.3090 -0.2044 -0.0405
 9587SOL    HW139690   4.464   3.376   0.677  0.6233  0.6575  3.8066
 9587SOL    HW239691   4.577   3.259   0.672  0.3500  0.4828 -0.5077
 9588SOL     OW39692   8.428   1.722   2.779  0.0306  0.4936 -0.5029
 9588SOL    HW139693   8.446   1.654   2.707  1.1460  0.5095 -0.2442
 9588SOL    HW239694   8.438   1.814   2.741  0.5455  0.5022 -0.3521
 9589SOL     OW39695   4.693   2.174   2.350  0.0388 -0.3896 -0.0480
 9589SOL    HW139696   4.715   2.170   2.448  0.8520 -0.9054 -0.2433
 9589SOL    HW239697   4.612   2.117   2.333 -0.3946  0.0856  0.3988
 9590SOL     OW39698   8.722   5.228   2.320 -0.0066  0.0955 -0.1128
 9590SOL    HW139699   8.755   5.145   2.365  2.7691  0.9511 -0.4777
 9590SOL    HW239700   8.730   5.218   2.221  0.6693  0.9043 -0.1468
 9591SOL     OW39701   3.222   7.364   2.547 -0.3891 -0.1724  0.2139
 9591SOL    HW139702   3.203   7.277   2.502  0.4349 -0.2789  0.0790
 9591SOL    HW239703   3.203   7.439   2.483  2.4643 -0.3813 -0.9099
 9592SOL     OW39704   8.821   1.974   5.379 -0.2531  0.0663 -0.4186
 9592SOL    HW139705   8.812   2.072   5.364 -0.7371  0.3503  1.6361
 9592SOL    HW239706   8.742   1.941   5.431  1.4645 -0.8195  1.6881
 9593SOL     OW39707   0.612   9.625   2.883  0.3605  0.3698 -0.8372
 9593SOL    HW139708   0.636   9.707   2.832  0.3144 -0.1868 -1.7742
 9593SOL    HW239709   0.598   9.549   2.819 -1.2411  0.0413 -0.1285
 9594SOL     OW39710   1.797   3.739   4.671 -0.0167 -0.1188 -0.1157
 9594SOL    HW139711   1.827   3.835   4.667 -0.0732 -0.0967 -0.0073
 9594SOL    HW239712   1.875   3.680   4.688  0.2461 -0.2185 -1.5724
 9595SOL     OW39713   2.237   2.848   2.700 -0.5224  0.0676 -0.5048
 9595SOL    HW139714   2.318   2.814   2.748 -1.3233 -0.4186  0.5216
 9595SOL    HW239715   2.185   2.908   2.761  0.8102  3.0764 -2.2584
 9596SOL     OW39716   8.520   2.643   3.976 -0.2802 -0.2052  0.2357
 9596SOL    HW139717   8.544   2.732   4.016 -1.4262  0.7571 -1.1949
 9596SOL    HW239718   8.602   2.586   3.972  0.3650  0.5974  1.6242
 9597SOL     OW39719   7.076   7.754   2.335 -0.2954  0.5196  0.7240
 9597SOL    HW139720   7.075   7.746   2.435  0.6851  2.4172  0.9167
 9597SOL    HW239721   7.169   7.770   2.304 -0.0927 -3.1688 -0.8321
 9598SOL     OW39722   2.946   5.766   1.976 -0.1477  0.2535 -0.6150
 9598SOL    HW139723   2.972   5.798   1.885 -0.3407 -0.1104 -0.7977
 9598SOL    HW239724   2.853   5.729   1.974 -0.5729  1.2739 -0.0229
 9599SOL     OW39725   7.712   8.998   2.583  0.5277  0.0022 -0.9329
 9599SOL    HW139726   7.679   8.916   2.536 -1.7207  0.1635  0.3175
 9599SOL    HW239727   7.686   9.079   2.530 -1.7651  0.1691  0.4107
 9600SOL     OW39728   8.505   6.240   3.851 -0.1447 -0.2427 -0.2216
 9600SOL    HW139729   8.533   6.292   3.932  0.4513  1.8222 -1.7201
 9600SOL    HW239730   8.445   6.296   3.794 -0.3187 -1.5678 -1.3603
 9601SOL     OW39731   5.096   9.503   4.857 -0.2894  0.4802  0.4492
 9601SOL    HW139732   5.129   9.412   4.832  0.6813  0.8352  0.4446
 9601SOL    HW239733   5.075   9.555   4.774 -2.0490 -0.1634  0.4592
 9602SOL     OW39734   4.309   2.117   2.223  0.1953 -0.2135 -0.3713
 9602SOL    HW139735   4.222   2.095   2.179 -0.6887  2.7817 -0.2231
 9602SOL    HW239736   4.360   2.182   2.167  1.6350 -0.7379  0.2956
 9603SOL     OW39737   8.755   4.903   4.719  0.4920 -0.1531 -0.5147
 9603SOL    HW139738   8.665   4.947   4.711  0.5243 -0.3138 -1.9062
 9603SOL    HW239739   8.747   4.823   4.778  0.4772  1.8067  2.2417
 9604SOL     OW39740   8.679   2.524   1.573  0.2562 -0.3566  0.1899
 9604SOL    HW139741   8.702   2.553   1.666 -1.4313  1.3105  0.1206
 9604SOL    HW239742   8.750   2.553   1.510  0.0419  1.0036  0.5678
 9605SOL     OW39743   2.962   3.427   4.837  0.5392 -0.2607 -0.3318
 9605SOL    HW139744   2.926   3.401   4.747  0.7329  0.1595 -0.5353
 9605SOL    HW239745   2.969   3.527   4.842  1.2692 -0.3155 -0.1360
 9606SOL     OW39746   3.261   2.163   0.792  0.4297  0.0294 -0.3837
 9606SOL    HW139747   3.210   2.215   0.860  3.0237  2.1681 -0.0020
 9606SOL    HW239748   3.201   2.095   0.751 -1.5567 -0.4491  3.0954
 9607SOL     OW39749   2.831   5.141   1.420 -0.0472  0.0892  0.2252
 9607SOL    HW139750   2.860   5.046   1.413 -0.5533 -0.2771  2.7028
 9607SOL    HW239751   2.895   5.192   1.477 -1.2865  0.5372  1.2485
 9608SOL     OW39752   0.500   1.352   4.970  0.3231 -0.2537  0.1607
 9608SOL    HW139753   0.451   1.433   4.936  0.8604  0.1767  0.3977
 9608SOL    HW239754   0.477   1.338   5.066  0.0524 -0.5165  0.0559
 9609SOL     OW39755   9.595   0.973   4.023 -0.3510 -0.7057 -0.2124
 9609SOL    HW139756   9.621   0.925   3.939 -1.7621  0.4442 -1.3405
 9609SOL    HW239757   9.556   0.909   4.088 -1.3995 -1.2475 -1.3510
 9610SOL     OW39758   3.092   4.732   0.837 -0.0787  0.3849 -0.0897
 9610SOL    HW139759   3.103   4.676   0.918 -1.7150 -1.0353 -0.8038
 9610SOL    HW239760   3.021   4.801   0.853 -0.7952 -0.2488 -0.4605
 9611SOL     OW39761   9.428   9.876   3.849  0.4332  0.2980  0.3024
 9611SOL    HW139762   9.433   9.848   3.753 -1.2493 -0.6020  0.4525
 9611SOL    HW239763   9.503   9.938   3.870  1.1479  0.0460 -1.4470
 9612SOL     OW39764   5.404   8.999   3.242  0.5704  0.2309  0.4647
 9612SOL    HW139765   5.481   8.952   3.199 -0.1326 -1.3160  0.8769
 9612SOL    HW239766   5.323   8.992   3.182  0.6049  1.4079  0.2684
 9613SOL     OW39767   0.317   4.754   0.608 -0.0963  0.5452  0.0151
 9613SOL    HW139768   0.368   4.722   0.688  0.1764 -0.0401 -0.3895
 9613SOL    HW239769   0.374   4.747   0.527 -1.2518 -1.3755 -0.6514
 9614SOL     OW39770   8.689   8.734   0.299  0.0879  0.0426  0.6023
 9614SOL    HW139771   8.610   8.734   0.238  0.3328 -1.1387  0.2631
 9614SOL    HW239772   8.687   8.815   0.356  0.5301  1.8260 -1.8437
 9615SOL     OW39773   8.007   7.278   3.850  0.0614 -0.0194  0.0254
 9615SOL    HW139774   7.988   7.181   3.836 -0.2005 -0.2184  1.7106
 9615SOL    HW239775   7.920   7.327   3.861  0.2307  0.2914 -0.0323
 9616SOL     OW39776   2.866   4.205   0.796  0.0751  0.3922  0.0856
 9616SOL    HW139777   2.947   4.147   0.804 -0.3254 -0.5613 -2.4184
 9616SOL    HW239778   2.893   4.296   0.766  0.2015 -0.0181 -1.0585
 9617SOL     OW39779   4.757   3.186   0.500 -0.2422 -0.6493  0.5905
 9617SOL    HW139780   4.676   3.179   0.441 -0.0647 -1.7453  0.4545
 9617SOL    HW239781   4.839   3.170   0.445  0.0177 -0.2771  0.8719
 9618SOL     OW39782   1.755   1.971   3.190 -0.5458  0.1791  0.2808
 9618SOL    HW139783   1.710   1.894   3.144 -1.0422 -0.0667  1.1684
 9618SOL    HW239784   1.850   1.977   3.159 -0.8482 -0.0441 -0.6987
 9619SOL     OW39785   9.673   3.015   2.564 -0.7437 -0.8660 -0.3797
 9619SOL    HW139786   9.615   3.093   2.545 -1.7225 -1.8942 -1.6773
 9619SOL    HW239787   9.617   2.932   2.572  0.2820 -1.4605  0.8879
 9620SOL     OW39788   2.880   7.851   2.711 -0.1588  0.0885  0.4212
 9620SOL    HW139789   2.824   7.908   2.771 -0.0510  1.1372 -0.4656
 9620SOL    HW239790   2.823   7.781   2.669 -1.1133  1.9644 -1.4987
 9621SOL     OW39791   1.788   0.946   2.005  0.0095  0.2897  0.4402
 9621SOL    HW139792   1.701   0.907   1.976  0.3361  0.2902 -0.5490
 9621SOL    HW239793   1.771   1.021   2.069 -0.6877 -0.1564  0.7822
 9622SOL     OW39794   0.917   1.651   3.653 -0.1296  0.1417  0.4315
 9622SOL    HW139795   0.884   1.699   3.572 -0.5439  0.1289  0.5922
 9622SOL    HW239796   1.008   1.685   3.677 -0.2272  0.5186  0.2758
 9623SOL     OW39797   8.131   7.054   3.687  0.3817  0.0014  0.5531
 9623SOL    HW139798   8.205   6.988   3.676 -0.8014 -1.3155  0.3497
 9623SOL    HW239799   8.169   7.146   3.689  2.0828 -0.6839  1.0934
 9624SOL     OW39800   5.057   9.014   1.968  0.4344  0.1264  0.4406
 9624SOL    HW139801   5.142   9.013   1.916  0.8796  1.2349  1.1194
 9624SOL    HW239802   5.065   8.953   2.047  0.9271  0.8896  0.9893
 9625SOL     OW39803   0.201   7.718   0.632  0.0549  0.0018  0.0311
 9625SOL    HW139804   0.252   7.803   0.635 -0.4115  0.2588  0.8936
 9625SOL    HW239805   0.129   7.724   0.562  0.1298  0.2478 -0.0241
 9626SOL     OW39806   2.057   7.652   3.360 -0.2134  0.0481  0.3864
 9626SOL    HW139807   2.073   7.641   3.458  0.9837  1.4846  0.3759
 9626SOL    HW239808   2.145   7.647   3.312 -0.8109 -0.8109 -0.6316
 9627SOL     OW39809   4.977   9.623   4.644 -0.6375 -0.1320  0.2909
 9627SOL    HW139810   4.985   9.664   4.553  1.9699 -0.2224  0.4613
 9627SOL    HW239811   4.951   9.527   4.635  0.6040 -0.4100 -0.4269
 9628SOL     OW39812   7.309   3.543   0.481 -0.6467  0.1326  0.1354
 9628SOL    HW139813   7.312   3.539   0.381 -3.4920  3.6946 -0.1782
 9628SOL    HW239814   7.377   3.609   0.514  1.4559 -2.2603  0.7307
 9629SOL     OW39815   0.292   8.236   0.938  0.3246 -0.0279 -0.2751
 9629SOL    HW139816   0.302   8.321   0.990 -0.2454  0.3514 -0.7647
 9629SOL    HW239817   0.269   8.161   0.999 -0.1684  0.3811  0.0471
 9630SOL     OW39818   3.243   3.721   0.480  0.2984 -0.8708  0.2625
 9630SOL    HW139819   3.176   3.662   0.526 -0.6379  0.8420  1.1202
 9630SOL    HW239820   3.329   3.720   0.532 -0.3544  0.0759  1.3785
 9631SOL     OW39821   9.049   1.433   1.347  0.6631  0.2556 -0.2327
 9631SOL    HW139822   8.993   1.360   1.388 -0.7574  0.9006 -0.9807
 9631SOL    HW239823   8.996   1.517   1.345  1.0651  0.4780 -2.4809
 9632SOL     OW39824   1.299   2.151   3.592 -0.1657  0.3368  0.0844
 9632SOL    HW139825   1.353   2.226   3.555 -1.1092 -0.3538 -2.7713
 9632SOL    HW239826   1.359   2.075   3.618  0.4672  0.7016 -0.3136
 9633SOL     OW39827   1.408   9.997   0.414 -0.4614  0.2429  0.1827
 9633SOL    HW139828   1.405   9.908   0.460 -0.8562 -0.2359 -0.7542
 9633SOL    HW239829   1.472   9.993   0.337  0.5975  1.1960  1.0114
 9634SOL     OW39830   8.308   1.689   0.422 -0.0498  0.2307  0.6600
 9634SOL    HW139831   8.291   1.783   0.392  1.4772  0.2885 -0.0682
 9634SOL    HW239832   8.225   1.652   0.465 -1.5213  1.0012 -1.4060
 9635SOL     OW39833   3.195   0.240   5.364  0.1312  0.0296 -0.2983
 9635SOL    HW139834   3.125   0.211   5.299 -1.2810  1.3206  0.5879
 9635SOL    HW239835   3.159   0.316   5.419  1.0812 -1.3671  2.3386
 9636SOL     OW39836   7.401   0.517   2.852 -0.3910  0.0137 -0.6338
 9636SOL    HW139837   7.332   0.445   2.850  0.1634 -0.5389  0.0108
 9636SOL    HW239838   7.383   0.582   2.778 -1.6323 -0.0963 -0.4432
 9637SOL     OW39839   1.938   8.337   0.281 -0.0259 -0.3330  0.2191
 9637SOL    HW139840   1.877   8.319   0.358 -0.4978 -1.2567 -0.3590
 9637SOL    HW239841   2.033   8.323   0.309 -0.1943 -0.6113  0.6481
 9638SOL     OW39842   4.424   8.582   2.946  0.1910  0.0434 -0.1233
 9638SOL    HW139843   4.437   8.678   2.973 -2.1011  0.0850  0.9594
 9638SOL    HW239844   4.459   8.522   3.018 -0.6276  0.0991  0.3253
 9639SOL     OW39845   1.016   7.663   3.415 -0.0730 -0.3087 -0.3367
 9639SOL    HW139846   0.924   7.687   3.386 -0.8154 -0.1131  2.0461
 9639SOL    HW239847   1.083   7.702   3.352 -1.6294 -0.9877 -2.4466
 9640SOL     OW39848   3.223   9.312   3.784  0.1726 -0.1543  0.0341
 9640SOL    HW139849   3.318   9.333   3.763  0.2573  0.2286  0.8002
 9640SOL    HW239850   3.203   9.218   3.758  0.5806 -0.0362 -0.7273
 9641SOL     OW39851   9.524   7.472   5.467  0.3982  0.4954 -0.5037
 9641SOL    HW139852   9.580   7.548   5.435  0.3591  0.4593 -0.6565
 9641SOL    HW239853   9.583   7.399   5.500  0.4589  0.0871 -1.5139
 9642SOL     OW39854   3.274   1.403   2.549 -0.5726  0.1254  0.4013
 9642SOL    HW139855   3.252   1.336   2.621  1.3263 -0.7891  0.1472
 9642SOL    HW239856   3.351   1.369   2.495 -0.0009  2.2442 -0.1322
 9643SOL     OW39857   9.565   1.156   2.151  0.3260  0.1633  0.1965
 9643SOL    HW139858   9.575   1.058   2.167 -1.6603  0.3116  2.7373
 9643SOL    HW239859   9.545   1.172   2.054  0.9021 -1.9103 -0.2912
 9644SOL     OW39860   1.877   0.081   0.134  0.1156 -0.2436  0.7078
 9644SOL    HW139861   1.943   0.007   0.144  0.9259  0.3771  0.0854
 9644SOL    HW239862   1.910   0.146   0.065 -1.3861 -0.1804  0.0312
 9645SOL     OW39863   7.331   1.449   4.533  0.1229  0.1249  0.3530
 9645SOL    HW139864   7.429   1.465   4.526  0.6311 -2.0923  1.9285
 9645SOL    HW239865   7.304   1.447   4.629 -1.4290  0.5009 -0.0527
 9646SOL     OW39866   8.840   8.166   2.127 -0.1987  0.0542  0.2368
 9646SOL    HW139867   8.896   8.246   2.150 -1.0781  0.0739  2.4467
 9646SOL    HW239868   8.886   8.083   2.158 -0.2962 -0.1255 -0.0968
 9647SOL     OW39869   0.059   9.124   4.083 -0.0308  0.4559  0.3144
 9647SOL    HW139870   0.151   9.126   4.121  1.0784 -1.1612 -2.0981
 9647SOL    HW239871   0.029   9.217   4.062  1.2252  0.9584  0.7112
 9648SOL     OW39872   2.689   8.372   2.175  0.0143 -0.1344 -0.2234
 9648SOL    HW139873   2.739   8.384   2.261 -0.5088  0.9074 -0.0566
 9648SOL    HW239874   2.712   8.283   2.136 -0.3439 -0.9583  1.3892
 9649SOL     OW39875   1.468   0.672   2.766  0.7819  1.2013 -0.6167
 9649SOL    HW139876   1.453   0.688   2.668 -0.0907 -2.1301 -1.0665
 9649SOL    HW239877   1.565   0.652   2.781  1.2292  3.3073 -0.5290
 9650SOL     OW39878   6.092   9.102   3.258  0.3800  0.3087 -0.5518
 9650SOL    HW139879   6.190   9.087   3.274  0.2343  0.8168  0.9606
 9650SOL    HW239880   6.079   9.148   3.171  1.3574 -1.3633 -1.6133
 9651SOL     OW39881   4.412   5.766   1.645 -0.7493 -0.0862  0.1994
 9651SOL    HW139882   4.400   5.837   1.576 -0.4379  0.1415  0.3739
 9651SOL    HW239883   4.450   5.808   1.728  0.4957 -0.6575 -0.0844
 9652SOL     OW39884   2.229   7.150   4.221 -0.3490 -0.9321 -0.6437
 9652SOL    HW139885   2.320   7.110   4.211  1.0891  1.8077  1.1499
 9652SOL    HW239886   2.212   7.214   4.146 -1.4000 -2.4159 -1.7288
 9653SOL     OW39887   5.570   7.159   3.531  0.1067 -0.0996  0.2247
 9653SOL    HW139888   5.655   7.190   3.488  0.2584  0.7255  1.0975
 9653SOL    HW239889   5.493   7.214   3.497  0.0859 -0.0836  0.2970
 9654SOL     OW39890   0.976   5.488   3.845 -0.1764 -0.4038 -0.3213
 9654SOL    HW139891   0.884   5.524   3.858 -1.1091 -1.5971 -3.0774
 9654SOL    HW239892   1.028   5.497   3.929 -3.1152 -0.5541  1.5785
 9655SOL     OW39893   5.949   1.069   1.413 -0.0904 -0.6153  0.7749
 9655SOL    HW139894   5.957   1.075   1.314  2.1095 -0.1462  0.9435
 9655SOL    HW239895   5.984   0.981   1.444  2.2446  0.4907  1.3770
 9656SOL     OW39896   3.483   3.373   2.295  0.3148 -0.5906 -0.3726
 9656SOL    HW139897   3.565   3.326   2.263  0.8787 -0.6038  1.0537
 9656SOL    HW239898   3.492   3.471   2.278 -0.6141 -0.9048 -2.8180
 9657SOL     OW39899   0.212   6.281   5.228  0.6973  0.5235 -0.5451
 9657SOL    HW139900   0.147   6.212   5.261 -0.1266  2.1988  1.4569
 9657SOL    HW239901   0.291   6.235   5.188 -0.2497 -1.5735 -0.1243
 9658SOL     OW39902   8.102   8.811   1.339  0.4445  0.6139  0.4690
 9658SOL    HW139903   8.152   8.828   1.254  3.0418 -0.4308  1.7126
 9658SOL    HW239904   8.168   8.800   1.414 -1.7848  1.4027  2.5959
 9659SOL     OW39905   0.529   8.605   3.374  0.0613 -0.2111 -0.1210
 9659SOL    HW139906   0.621   8.613   3.413  0.4459  0.8253 -1.2125
 9659SOL    HW239907   0.462   8.645   3.436  0.5967  0.8906 -0.2372
 9660SOL     OW39908   1.580   5.829   1.852  0.1391  0.2047 -0.2072
 9660SOL    HW139909   1.644   5.856   1.780  1.0043  1.4312  0.9839
 9660SOL    HW239910   1.622   5.847   1.941 -1.8202  0.8639  0.5936
 9661SOL     OW39911   8.322   2.385   0.337  0.5642 -0.3328 -0.0737
 9661SOL    HW139912   8.288   2.474   0.366 -0.4521 -0.6025 -0.4215
 9661SOL    HW239913   8.359   2.337   0.417  1.6105  0.6068  0.0169
 9662SOL     OW39914   2.724   0.734   1.991  0.3356  0.8130  0.2096
 9662SOL    HW139915   2.667   0.674   1.935 -1.5419  0.9637  1.8956
 9662SOL    HW239916   2.745   0.689   2.078  3.1470  0.6101 -0.5325
 9663SOL     OW39917   1.696   0.199   3.596 -0.1920  0.2758  0.2327
 9663SOL    HW139918   1.636   0.139   3.649 -0.8786 -0.2145 -1.0767
 9663SOL    HW239919   1.771   0.230   3.654  1.0435 -3.0713  0.5077
 9664SOL     OW39920   2.890   3.163   2.792  0.5869  0.1744 -0.5294
 9664SOL    HW139921   2.916   3.124   2.880 -0.7156 -0.3096 -0.3385
 9664SOL    HW239922   2.971   3.192   2.742  1.3092  0.9492  1.0615
 9665SOL     OW39923   9.736   7.918   0.559  0.0174 -0.1874  0.4963
 9665SOL    HW139924   9.653   7.972   0.571 -0.1079 -0.4859  1.0242
 9665SOL    HW239925   9.724   7.854   0.483  0.7632  1.6320 -1.1816
 9666SOL     OW39926   1.068   0.049   2.628  0.2293  0.1032  0.1600
 9666SOL    HW139927   1.021   0.002   2.703 -1.6160  0.5184 -0.7159
 9666SOL    HW239928   1.092   0.142   2.657  1.3255 -0.3966  0.9065
 9667SOL     OW39929   6.264   0.088   2.065  0.2038 -0.3534 -0.0803
 9667SOL    HW139930   6.325   0.166   2.054 -2.4187  1.7959  0.0236
 9667SOL    HW239931   6.313   0.003   2.046  2.6481  1.4326 -1.9180
 9668SOL     OW39932   8.780   5.676   0.453  0.3839 -0.7192 -0.5765
 9668SOL    HW139933   8.786   5.768   0.493 -2.4034 -1.0399  0.6693
 9668SOL    HW239934   8.833   5.612   0.508  0.6424 -0.2296 -0.2538
 9669SOL     OW39935   0.899   0.190   1.976  0.4225 -0.1806 -0.2827
 9669SOL    HW139936   0.913   0.118   2.044  1.0390  0.6104  0.4405
 9669SOL    HW239937   0.902   0.279   2.021 -1.1864  0.2703 -1.0381
 9670SOL     OW39938   7.414   7.037   4.245 -0.1976  0.1946 -0.2768
 9670SOL    HW139939   7.334   7.006   4.194 -0.2094  0.5682 -0.4892
 9670SOL    HW239940   7.484   6.965   4.244 -0.2234  0.1738 -0.7682
 9671SOL     OW39941   7.820   0.482   0.143  0.2355 -0.6694 -0.4390
 9671SOL    HW139942   7.724   0.455   0.150 -0.4053  0.8302 -2.8090
 9671SOL    HW239943   7.844   0.495   0.047  3.2506 -2.4219  0.0205
 9672SOL     OW39944   2.400   4.390   4.650  0.0465  0.5621 -0.5236
 9672SOL    HW139945   2.410   4.376   4.749  1.6976  1.0068 -0.6203
 9672SOL    HW239946   2.489   4.383   4.606 -0.7874 -0.4461 -2.1052
 9673SOL     OW39947   1.964   8.870   3.237  0.0818 -0.2996 -0.0557
 9673SOL    HW139948   1.969   8.875   3.137  2.3634 -0.3212  0.0208
 9673SOL    HW239949   1.869   8.856   3.266 -0.7832  1.0646 -2.1527
 9674SOL     OW39950   2.928   0.547   1.703  0.5206 -0.2045  0.3437
 9674SOL    HW139951   2.978   0.461   1.707 -1.6255 -1.5504 -0.4128
 9674SOL    HW239952   2.946   0.601   1.785  3.5699 -0.3986 -0.1580
 9675SOL     OW39953   0.022   4.212   2.158 -0.3052 -0.0813  0.5452
 9675SOL    HW139954  -0.077   4.200   2.166 -0.2092 -1.7164 -0.4286
 9675SOL    HW239955   0.067   4.124   2.171  0.7509 -0.1074 -2.8246
 9676SOL     OW39956   3.663   1.421   4.214 -0.1902  0.2636  0.1229
 9676SOL    HW139957   3.609   1.505   4.210  0.1713  0.4651 -0.7323
 9676SOL    HW239958   3.631   1.364   4.290 -1.0302  0.7671  0.1568
 9677SOL     OW39959   8.329   2.666   4.368 -0.1558  0.3193  0.4448
 9677SOL    HW139960   8.379   2.665   4.455  1.9167  0.0069 -0.7187
 9677SOL    HW239961   8.249   2.607   4.375  1.6553 -2.1143  1.1946
 9678SOL     OW39962   2.052   5.028   3.571 -0.4852  0.1074  0.2516
 9678SOL    HW139963   2.105   5.100   3.615  0.3146 -0.4978  0.2750
 9678SOL    HW239964   2.027   5.056   3.478  2.0838 -0.6662 -0.6951
 9679SOL     OW39965   7.375   0.048   5.394  0.4583  0.2854 -0.0151
 9679SOL    HW139966   7.278   0.046   5.419  0.0224 -0.0132 -1.6289
 9679SOL    HW239967   7.418  -0.039   5.418  0.0217 -0.0353 -0.3769
 9680SOL     OW39968   4.616   8.487   3.111 -0.0985 -0.0001  0.2878
 9680SOL    HW139969   4.674   8.515   3.188 -1.1654 -1.1440  1.5172
 9680SOL    HW239970   4.645   8.536   3.028  1.4390  0.7965  1.2778
 9681SOL     OW39971   5.225   6.889   3.131  0.0175 -0.1223  0.5176
 9681SOL    HW139972   5.139   6.849   3.162 -0.9888  0.7675 -1.0967
 9681SOL    HW239973   5.213   6.986   3.113  0.9788 -0.2665 -1.0455
 9682SOL     OW39974   4.136   5.588   1.848 -0.0208  0.1511  0.2849
 9682SOL    HW139975   4.083   5.657   1.798  0.1385  0.7944  0.9769
 9682SOL    HW239976   4.083   5.504   1.855 -0.5165  0.4380  0.0379
 9683SOL     OW39977   3.312   7.017   1.333  0.7211  0.0319 -0.1791
 9683SOL    HW139978   3.250   6.938   1.341  1.2241 -0.3686 -0.2326
 9683SOL    HW239979   3.261   7.101   1.352  0.1615 -0.2983 -0.2041
 9684SOL     OW39980   4.746   2.286   0.858 -0.4256  0.2717 -0.6258
 9684SOL    HW139981   4.828   2.302   0.802 -0.4820 -0.8256 -1.0277
 9684SOL    HW239982   4.759   2.330   0.948  1.1497 -0.9803 -0.2114
 9685SOL     OW39983   8.004   3.711   1.152  0.2178  0.0464  0.4924
 9685SOL    HW139984   8.062   3.701   1.071  1.1366 -1.3917  1.2922
 9685SOL    HW239985   7.912   3.737   1.124  0.7826  0.5357 -0.9417
 9686SOL     OW39986   0.521   5.750   3.188  0.3225 -0.1672 -0.6230
 9686SOL    HW139987   0.430   5.712   3.207  0.7479 -0.3285  1.2187
 9686SOL    HW239988   0.513   5.849   3.175 -0.0678 -0.1260 -0.0850
 9687SOL     OW39989   1.834   7.369   2.471  0.3083 -0.3913  0.1350
 9687SOL    HW139990   1.842   7.458   2.517 -1.2392 -0.9062  1.4421
 9687SOL    HW239991   1.825   7.297   2.539 -0.7976 -1.3075 -0.9583
 9688SOL     OW39992   1.199   6.469   2.430 -0.1716  0.4305 -0.3419
 9688SOL    HW139993   1.157   6.534   2.368 -0.8209  0.4746  0.1393
 9688SOL    HW239994   1.148   6.383   2.429 -0.2823  0.4828  0.2382
 9689SOL     OW39995   0.208   0.524   3.683 -0.1630 -0.1369  0.3934
 9689SOL    HW139996   0.273   0.512   3.608 -0.5039 -1.1343  0.2483
 9689SOL    HW239997   0.120   0.555   3.647 -0.8182 -2.1513  0.1630
 9690SOL     OW39998   1.060   1.313   4.666  0.3235  0.6548 -0.5352
 9690SOL    HW139999   1.051   1.287   4.570  1.9143 -0.3239 -0.4456
 9690SOL    HW240000   1.114   1.397   4.672  0.9923  0.2310 -0.4721
 9691SOL     OW40001   4.935   7.143   2.101 -0.6406  0.7093 -0.5450
 9691SOL    HW140002   4.891   7.194   2.174  2.0776 -0.8268  2.2795
 9691SOL    HW240003   4.904   7.048   2.103 -0.0841  0.5142 -0.9400
 9692SOL     OW40004   9.585   0.590   0.864 -0.7478 -0.0726 -0.2252
 9692SOL    HW140005   9.544   0.681   0.870  0.1425  0.3098  0.0702
 9692SOL    HW240006   9.526   0.531   0.809 -2.2195  0.1764  1.0556
 9693SOL     OW40007   7.876   2.126   1.116 -0.5917 -0.0732 -0.0257
 9693SOL    HW140008   7.785   2.138   1.075 -0.5450 -0.3149 -0.1988
 9693SOL    HW240009   7.866   2.103   1.213 -0.7564 -1.4144 -0.3425
 9694SOL     OW40010   6.753   6.975   2.604  0.5985  0.0306  0.3016
 9694SOL    HW140011   6.767   6.892   2.551 -2.2743 -1.5152  1.8595
 9694SOL    HW240012   6.824   6.982   2.674  1.7216 -0.3203 -0.7936
 9695SOL     OW40013   3.340   3.549   1.849 -0.2665 -0.0422  0.3861
 9695SOL    HW140014   3.431   3.523   1.818 -0.6106 -1.8934  0.9028
 9695SOL    HW240015   3.292   3.469   1.886 -1.5384  1.2179  1.5390
 9696SOL     OW40016   7.765   9.782   1.097  0.4421  0.4956 -0.6416
 9696SOL    HW140017   7.822   9.825   1.167 -0.7788  0.7715  0.2033
 9696SOL    HW240018   7.796   9.688   1.082  0.7883  0.4626  0.2180
 9697SOL     OW40019   7.193   8.413   4.360 -0.0054 -0.0079 -0.1758
 9697SOL    HW140020   7.159   8.346   4.294  0.3327 -0.3329 -0.0294
 9697SOL    HW240021   7.117   8.463   4.400 -0.1373  1.1486 -1.8035
 9698SOL     OW40022   9.057   4.999   5.566 -0.5943  0.2366 -0.3104
 9698SOL    HW140023   9.031   5.003   5.470 -0.4613  0.5098 -0.3365
 9698SOL    HW240024   9.067   5.092   5.602 -1.5997  0.1457  0.2288
 9699SOL     OW40025   4.374   6.108   1.791 -0.1152 -0.1719  0.6705
 9699SOL    HW140026   4.438   6.036   1.816 -0.3428 -0.4144  0.5575
 9699SOL    HW240027   4.404   6.151   1.706 -0.5343 -0.8307  0.1800
 9700SOL     OW40028   0.326   1.782   4.039 -0.2198 -0.3406  0.2383
 9700SOL    HW140029   0.358   1.719   4.110 -0.6541  0.7217  1.4034
 9700SOL    HW240030   0.405   1.822   3.993  0.0733 -0.7313  0.3948
 9701SOL     OW40031   3.679   3.661   3.354 -0.4761  0.3352  0.2113
 9701SOL    HW140032   3.610   3.691   3.288 -1.3551 -0.2859  0.8338
 9701SOL    HW240033   3.667   3.711   3.440  0.0906  0.4944  0.1994
 9702SOL     OW40034   8.579   7.839   4.652 -0.6462  0.7668  0.4724
 9702SOL    HW140035   8.617   7.781   4.724 -2.0166  1.7139  1.9665
 9702SOL    HW240036   8.630   7.823   4.567  0.1013 -1.3570  1.2846
 9703SOL     OW40037   2.208   1.729   1.370  0.1468 -0.0489 -0.7663
 9703SOL    HW140038   2.243   1.787   1.444 -0.4641  1.1120 -1.3599
 9703SOL    HW240039   2.284   1.680   1.328  0.4113 -1.2707  1.0669
 9704SOL     OW40040   8.286   8.143   2.560  0.5713  0.0862  0.2165
 9704SOL    HW140041   8.321   8.123   2.468 -0.6041  0.2301 -0.2749
 9704SOL    HW240042   8.323   8.231   2.590  1.2087 -0.1064  0.0136
 9705SOL     OW40043   6.843   0.628   1.748 -0.0096  0.1703 -0.1111
 9705SOL    HW140044   6.800   0.587   1.828 -0.1020 -0.6868 -0.5932
 9705SOL    HW240045   6.835   0.566   1.670  1.2457  0.4147 -0.4500
 9706SOL     OW40046   6.202   8.874   2.134 -0.0859 -0.0583  0.1946
 9706SOL    HW140047   6.273   8.936   2.168 -1.6154  0.9652  1.6585
 9706SOL    HW240048   6.233   8.779   2.140  1.1246  0.3812  0.8522
 9707SOL     OW40049   9.682   5.933   2.484  0.6879 -0.8996  0.1712
 9707SOL    HW140050   9.658   6.022   2.524  1.3895 -1.6043  2.1861
 9707SOL    HW240051   9.760   5.894   2.532 -0.3998 -3.2045  0.1322
 9708SOL     OW40052   0.967   8.948   1.968 -0.5288  0.0860 -0.2917
 9708SOL    HW140053   0.960   8.860   2.015 -3.4414 -0.2655 -1.3107
 9708SOL    HW240054   0.991   8.933   1.872 -0.2129  0.4679 -0.2757
 9709SOL     OW40055   2.957   0.407   4.772 -0.1351  0.3555 -0.1417
 9709SOL    HW140056   2.907   0.412   4.858 -0.7629  1.7910 -0.5660
 9709SOL    HW240057   2.900   0.443   4.698  0.1713 -1.4272 -1.2688
 9710SOL     OW40058   0.970   4.494   4.810  0.3145 -0.2798  0.1211
 9710SOL    HW140059   0.981   4.512   4.712  1.3921  3.3471  0.8502
 9710SOL    HW240060   1.060   4.475   4.850 -0.0504 -1.1130  0.5553
 9711SOL     OW40061   1.924   7.304   2.222  0.1130  0.0406 -0.3308
 9711SOL    HW140062   1.904   7.318   2.319  2.1979 -0.4089  0.1910
 9711SOL    HW240063   1.906   7.388   2.171  0.8757  0.8856  0.7692
 9712SOL     OW40064   1.771   7.579   0.950 -0.5384  0.2405 -0.3493
 9712SOL    HW140065   1.725   7.596   1.038  0.7168  0.6455  0.2505
 9712SOL    HW240066   1.739   7.646   0.883 -3.4840 -1.7078 -0.9834
 9713SOL     OW40067   2.559   9.410   5.168  0.0109  0.5994 -0.1667
 9713SOL    HW140068   2.555   9.341   5.096  0.8730  0.3993 -0.0317
 9713SOL    HW240069   2.479   9.402   5.228 -0.0316 -0.0973 -0.3188
 9714SOL     OW40070   6.062   8.309   1.794 -0.6968 -0.6406  0.4523
 9714SOL    HW140071   6.030   8.354   1.878  1.5470 -1.1715  1.6364
 9714SOL    HW240072   6.112   8.226   1.819  0.1989 -0.6756 -1.4274
 9715SOL     OW40073   2.223   1.882   0.789  1.1924  0.3510  0.0373
 9715SOL    HW140074   2.320   1.860   0.802  1.3479 -0.1201 -1.7530
 9715SOL    HW240075   2.181   1.814   0.729 -0.1299  0.8283  0.4037
 9716SOL     OW40076   8.311   1.500   5.054  0.0037  0.3072 -0.0605
 9716SOL    HW140077   8.371   1.562   5.003  1.2000  0.6207  1.6978
 9716SOL    HW240078   8.362   1.416   5.076 -0.0303  0.7826  1.8671
 9717SOL     OW40079   5.593   7.711   2.038 -0.0657  0.0744  0.0742
 9717SOL    HW140080   5.693   7.704   2.036  0.0410  1.3961  0.3905
 9717SOL    HW240081   5.559   7.669   2.122  0.1988 -0.6224 -0.1635
 9718SOL     OW40082   8.673   9.075   3.252 -0.1372 -0.1787 -0.2007
 9718SOL    HW140083   8.627   8.987   3.246 -0.1458 -0.1243 -1.0177
 9718SOL    HW240084   8.753   9.067   3.311 -0.4506 -0.5930  0.1734
 9719SOL     OW40085   9.894   2.924   2.693  0.1335 -0.0507  0.4972
 9719SOL    HW140086   9.822   2.950   2.629 -1.7206 -1.4112  1.9717
 9719SOL    HW240087   9.922   2.830   2.675  1.7230  0.5341 -0.2009
 9720SOL     OW40088   9.056   0.089   3.252 -0.2033  0.1084  0.0037
 9720SOL    HW140089   9.134   0.060   3.307 -1.4176 -0.3842  1.4843
 9720SOL    HW240090   9.089   0.136   3.170  1.7057 -1.9858 -0.4819
 9721SOL     OW40091   3.451   6.831   1.190  0.0081 -0.3683  0.6436
 9721SOL    HW140092   3.444   6.801   1.095  3.5133  0.0588  0.1853
 9721SOL    HW240093   3.437   6.929   1.196 -0.0144 -0.3654  0.5276
 9722SOL     OW40094   3.611   7.569   0.243 -0.4862 -0.6273  0.2059
 9722SOL    HW140095   3.636   7.638   0.175 -1.3726  0.8474  1.3317
 9722SOL    HW240096   3.684   7.562   0.311  0.0279 -1.5004 -0.4246
 9723SOL     OW40097   8.029   2.535   1.341  0.7836 -0.0083  0.0262
 9723SOL    HW140098   7.982   2.472   1.279  0.3348  1.2483 -0.9319
 9723SOL    HW240099   8.062   2.485   1.421  0.0901 -1.3798 -0.5344
 9724SOL     OW40100   9.389   8.299   4.767 -0.0388 -0.3168  0.5674
 9724SOL    HW140101   9.313   8.261   4.714  1.4566  0.0911 -1.9441
 9724SOL    HW240102   9.352   8.356   4.841 -2.1827 -0.4874 -0.3234
 9725SOL     OW40103   4.148   9.487   2.795  0.3063 -0.6252  0.1548
 9725SOL    HW140104   4.102   9.499   2.883 -1.0543 -1.3385 -0.4337
 9725SOL    HW240105   4.187   9.574   2.765  1.0365 -0.4433  1.5945
 9726SOL     OW40106   0.818   2.546   2.133 -0.3386 -0.2020 -0.0376
 9726SOL    HW140107   0.854   2.513   2.221 -3.5323 -2.8342  0.3776
 9726SOL    HW240108   0.737   2.602   2.150  0.7889  1.8259 -1.1973
 9727SOL     OW40109   3.684   9.300   2.473  0.3736 -0.2911 -0.3137
 9727SOL    HW140110   3.758   9.313   2.540  0.0983  2.8304 -0.5649
 9727SOL    HW240111   3.720   9.313   2.381  0.2527 -2.3800 -0.6914
 9728SOL     OW40112   9.513   3.148   1.376  0.1329 -0.5854 -0.0611
 9728SOL    HW140113   9.589   3.213   1.376  0.2853 -0.7551 -0.8811
 9728SOL    HW240114   9.503   3.108   1.284 -1.0368 -0.4631  0.0030
 9729SOL     OW40115   3.078   4.530   5.168  0.2825  0.0133  0.5838
 9729SOL    HW140116   3.086   4.431   5.161 -0.5081 -0.0262  0.2184
 9729SOL    HW240117   3.060   4.569   5.077  0.7017  0.5025  0.7051
 9730SOL     OW40118   1.091   6.207   0.048 -0.2599 -0.0317  0.4855
 9730SOL    HW140119   1.176   6.207  -0.005  0.1431 -1.9109  1.0825
 9730SOL    HW240120   1.024   6.148   0.003 -0.8164  0.4346  0.6936
 9731SOL     OW40121   3.126   5.743   3.355 -0.4433  0.0237  0.2889
 9731SOL    HW140122   3.186   5.684   3.410  1.5627  1.4360 -0.3460
 9731SOL    HW240123   3.161   5.751   3.262 -1.5133  1.0250 -0.0551
 9732SOL     OW40124   7.855   4.252   5.485  0.0324  0.0676 -0.0520
 9732SOL    HW140125   7.829   4.222   5.576 -1.4266  0.3190 -0.3852
 9732SOL    HW240126   7.955   4.256   5.479  0.1346  0.7913  1.7674
 9733SOL     OW40127   1.645   4.547   1.712 -0.0561  0.0179 -0.0549
 9733SOL    HW140128   1.564   4.568   1.657 -0.7438 -0.4400  0.7699
 9733SOL    HW240129   1.726   4.590   1.671 -0.6355  0.0516 -1.1635
 9734SOL     OW40130   0.424   3.500   5.316  0.0738  0.0602  0.3149
 9734SOL    HW140131   0.472   3.459   5.238  2.8681 -0.0347  2.0510
 9734SOL    HW240132   0.369   3.429   5.361  1.0312 -0.6611  0.3739
 9735SOL     OW40133   0.549   7.367   2.986 -0.3465  0.7337  0.3505
 9735SOL    HW140134   0.591   7.280   3.010 -1.2441  0.8097  2.2116
 9735SOL    HW240135   0.517   7.414   3.068 -1.1677  2.1722 -0.7478
 9736SOL     OW40136   2.862   8.827   0.862 -0.1531 -0.3570 -0.7076
 9736SOL    HW140137   2.829   8.852   0.771 -0.5164 -0.0005 -0.4798
 9736SOL    HW240138   2.792   8.849   0.930  0.5107  0.3195 -0.2281
 9737SOL     OW40139   0.090   8.371   3.447 -0.1411 -0.3761  0.2372
 9737SOL    HW140140   0.002   8.398   3.485  0.3943  2.1361 -0.2166
 9737SOL    HW240141   0.161   8.434   3.480  1.1720 -1.2664 -0.8338
 9738SOL     OW40142   4.252   8.060   3.124  0.7641  0.9339 -0.3953
 9738SOL    HW140143   4.311   8.116   3.182 -0.0263  1.3584  0.0103
 9738SOL    HW240144   4.258   8.091   3.029  2.1684  0.1507 -0.5742
 9739SOL     OW40145   3.792   3.812   2.236 -0.5332  0.4399  0.6018
 9739SOL    HW140146   3.821   3.774   2.324 -0.0138  1.4268  0.8659
 9739SOL    HW240147   3.827   3.905   2.227 -3.1014  1.4337  0.6193
 9740SOL     OW40148   2.716   8.273   5.294 -0.1340  0.4182 -0.1698
 9740SOL    HW140149   2.669   8.261   5.382  0.4907 -2.5201 -0.1654
 9740SOL    HW240150   2.653   8.311   5.227 -0.4838  3.1625  1.6580
 9741SOL     OW40151   0.129   0.966   2.520  0.0656 -0.6689  0.1397
 9741SOL    HW140152   0.182   0.887   2.552  0.1223 -0.3372  0.8687
 9741SOL    HW240153   0.190   1.042   2.499 -0.1261 -0.2248  1.1562
 9742SOL     OW40154   2.649   8.861   1.024  0.7074  0.1910  0.1726
 9742SOL    HW140155   2.643   8.956   1.054  1.4324  0.5360 -0.7588
 9742SOL    HW240156   2.562   8.833   0.984  0.4893  0.4549  0.4595
 9743SOL     OW40157   3.957   4.971   1.232  0.2610 -0.0848  0.3874
 9743SOL    HW140158   3.906   5.052   1.202 -1.2563 -1.3030 -0.4385
 9743SOL    HW240159   3.994   4.925   1.151 -0.2931 -1.1092  0.7160
 9744SOL     OW40160   8.779   9.973   0.807 -0.2627 -0.2093  0.0344
 9744SOL    HW140161   8.840  10.053   0.801 -1.1823  0.6849  1.9944
 9744SOL    HW240162   8.757   9.955   0.903  0.2544 -3.1117 -0.3451
 9745SOL     OW40163   3.765   1.268   2.282 -0.6265 -0.1747 -0.1911
 9745SOL    HW140164   3.834   1.340   2.289 -1.1283  0.2423  0.6221
 9745SOL    HW240165   3.727   1.267   2.190 -0.7896  0.7736 -0.1426
 9746SOL     OW40166   2.573   4.103   2.545 -0.1612  0.0360  0.0945
 9746SOL    HW140167   2.596   4.014   2.584  0.4518 -0.2810 -0.9563
 9746SOL    HW240168   2.493   4.140   2.590 -1.0771 -1.5480 -0.1940
 9747SOL     OW40169   4.149   2.566   5.434 -0.2175 -0.6765 -0.1990
 9747SOL    HW140170   4.214   2.617   5.379 -2.2282  1.0814 -1.0286
 9747SOL    HW240171   4.143   2.472   5.401  0.4309 -0.3163 -1.3696
 9748SOL     OW40172   2.541   8.935   3.425  0.0798 -0.3854  0.5276
 9748SOL    HW140173   2.474   8.950   3.352  1.1778 -0.7616 -0.5791
 9748SOL    HW240174   2.495   8.900   3.506 -1.2402  0.5553  0.1959
 9749SOL     OW40175   3.024   6.660   2.886 -0.4760  0.1089 -0.3382
 9749SOL    HW140176   3.068   6.583   2.840  0.3430  0.4115 -0.0632
 9749SOL    HW240177   2.978   6.718   2.818 -1.6282 -0.9493 -0.4881
 9750SOL     OW40178   2.398   1.915   0.376 -0.3279  0.2176  0.1732
 9750SOL    HW140179   2.482   1.921   0.429 -0.2392 -0.1860  0.0790
 9750SOL    HW240180   2.419   1.888   0.282 -0.6432 -0.7678  0.3806
 9751SOL     OW40181   2.722   8.370   3.717  0.1085 -0.3338  0.2945
 9751SOL    HW140182   2.693   8.324   3.632 -0.8854 -1.7555  1.3770
 9751SOL    HW240183   2.680   8.460   3.722 -0.2165 -0.4370 -0.5045
 9752SOL     OW40184   1.873   7.048   2.355 -0.0476  0.3069 -0.1053
 9752SOL    HW140185   1.882   7.135   2.307  0.4318  0.6059  0.5082
 9752SOL    HW240186   1.902   7.060   2.450  0.8593 -0.7273 -0.2405
 9753SOL     OW40187   2.984   9.796   5.352 -0.4081 -0.0262  0.6911
 9753SOL    HW140188   2.963   9.839   5.265  1.8711 -0.0686  0.1146
 9753SOL    HW240189   2.898   9.774   5.399 -1.6361  1.3007 -0.8672
 9754SOL     OW40190   1.325   6.792   1.967 -0.7828  0.2716  0.0073
 9754SOL    HW140191   1.373   6.872   1.930  1.0928  0.9713  3.7179
 9754SOL    HW240192   1.262   6.821   2.039 -1.1488 -1.4419  0.4046
 9755SOL     OW40193   9.932   1.422   1.696 -0.1383 -0.3486  0.0270
 9755SOL    HW140194   9.920   1.366   1.614  0.0472 -0.8055  0.3059
 9755SOL    HW240195  10.021   1.401   1.737 -0.8562 -1.2081  1.1683
 9756SOL     OW40196   4.374   9.683   2.698 -0.0064 -0.9870  0.0938
 9756SOL    HW140197   4.346   9.636   2.614  0.6583 -0.8488 -0.2059
 9756SOL    HW240198   4.359   9.782   2.687 -1.4557 -1.1168  0.7437
 9757SOL     OW40199   2.607   2.479   3.136  0.1954  0.0297 -0.1993
 9757SOL    HW140200   2.704   2.472   3.159  0.1784 -1.5325 -0.5120
 9757SOL    HW240201   2.552   2.464   3.218  0.2220  2.5667  0.3090
 9758SOL     OW40202   8.307   6.229   0.934  0.4238  0.2438  0.1297
 9758SOL    HW140203   8.406   6.214   0.926  0.5378 -0.5632  2.5483
 9758SOL    HW240204   8.262   6.199   0.851  2.1812  0.2968 -0.8747
 9759SOL     OW40205   8.199   9.771   2.437 -0.8477  0.3168  0.1083
 9759SOL    HW140206   8.200   9.869   2.455 -1.0939  0.4115 -0.3856
 9759SOL    HW240207   8.189   9.755   2.339  0.0228 -0.1999  0.0978
 9760SOL     OW40208   6.401   8.417   3.784  0.4551 -0.0670 -0.0537
 9760SOL    HW140209   6.363   8.468   3.861  2.4932  0.3304  0.7198
 9760SOL    HW240210   6.395   8.472   3.701 -1.3099 -0.3102 -0.1145
 9761SOL     OW40211   6.684   1.535   3.620  0.5464 -0.1174  0.2431
 9761SOL    HW140212   6.669   1.585   3.534 -0.3423 -1.7209 -0.5581
 9761SOL    HW240213   6.599   1.533   3.672  0.7642 -0.2052  0.5937
 9762SOL     OW40214   0.580   0.574   0.864 -0.3686  0.0286  0.1782
 9762SOL    HW140215   0.656   0.523   0.822 -1.7004 -1.2346 -0.7269
 9762SOL    HW240216   0.494   0.527   0.844 -1.3564  1.2885  1.4713
 9763SOL     OW40217   1.673   3.851   1.126  0.2281 -0.0640  0.3887
 9763SOL    HW140218   1.615   3.829   1.204 -1.4167  3.1500  0.1492
 9763SOL    HW240219   1.620   3.842   1.042  0.9662 -0.0281 -0.0889
 9764SOL     OW40220   2.391   6.893   2.591  0.2461  0.5558  0.0990
 9764SOL    HW140221   2.292   6.874   2.595  0.3440  0.2696  2.3119
 9764SOL    HW240222   2.434   6.831   2.527 -0.6378 -1.2704  1.2099
 9765SOL     OW40223   7.083   7.257   1.918  0.1237 -0.0767  0.0892
 9765SOL    HW140224   6.987   7.286   1.916  0.2126  0.2195  0.0500
 9765SOL    HW240225   7.127   7.279   1.831  0.5073  0.7809  0.4896
 9766SOL     OW40226   6.347   9.131   4.502  0.1480  0.0997  0.0450
 9766SOL    HW140227   6.349   9.037   4.534 -0.3995  0.1122  0.1295
 9766SOL    HW240228   6.276   9.181   4.551  1.0242  0.7917  0.6272
 9767SOL     OW40229   3.831   9.611   0.737  0.5661 -0.1842 -0.2269
 9767SOL    HW140230   3.795   9.583   0.648  0.1102 -0.2349 -0.0242
 9767SOL    HW240231   3.840   9.710   0.739 -0.3637 -0.1018  0.0267
 9768SOL     OW40232   9.576   5.171   5.430 -0.1189  0.1486 -0.6049
 9768SOL    HW140233   9.582   5.265   5.399 -0.0282 -0.1412 -1.4738
 9768SOL    HW240234   9.645   5.116   5.382  0.6531 -0.1180  0.7821
 9769SOL     OW40235   1.432   9.266   4.740  0.0033  0.3349  0.6285
 9769SOL    HW140236   1.336   9.247   4.719 -0.3111  1.1940  1.2753
 9769SOL    HW240237   1.457   9.218   4.824 -0.2402  1.2066  1.1981
 9770SOL     OW40238   7.139   1.069   5.422 -0.2942 -0.7791  0.8703
 9770SOL    HW140239   7.206   0.994   5.420 -1.1190 -1.5362  1.4157
 9770SOL    HW240240   7.050   1.034   5.393 -0.4050  0.2871 -0.1105
 9771SOL     OW40241   3.079   6.767   0.934 -0.0942  0.4624  0.3877
 9771SOL    HW140242   3.064   6.773   1.033  1.4617  0.9568  0.6182
 9771SOL    HW240243   3.065   6.673   0.905  0.0517  0.1774  1.2037
 9772SOL     OW40244   8.700   1.140   0.220  0.0149  0.1485  0.3333
 9772SOL    HW140245   8.601   1.126   0.228  0.4506 -2.2888  2.0211
 9772SOL    HW240246   8.738   1.163   0.310  0.8779  2.0435 -0.4830
 9773SOL     OW40247   2.596   7.915   3.782 -0.0237  0.1014 -0.3976
 9773SOL    HW140248   2.562   7.969   3.859  1.7775  1.1122 -0.2634
 9773SOL    HW240249   2.611   7.820   3.811 -2.1435 -0.2218 -0.3220
 9774SOL     OW40250   7.786   3.433   4.759 -0.2230  0.3525 -0.0981
 9774SOL    HW140251   7.721   3.506   4.738 -1.1424 -0.9148 -1.7631
 9774SOL    HW240252   7.748   3.374   4.830 -0.2936  0.3633 -0.1278
 9775SOL     OW40253   0.019   1.369   0.127  0.0794  0.1097  0.2764
 9775SOL    HW140254   0.022   1.402   0.033 -1.7819  0.8796  0.4639
 9775SOL    HW240255   0.065   1.435   0.187  0.7038 -0.0688 -0.0028
 9776SOL     OW40256   8.499   3.913   1.548  0.1716  0.0580  0.1425
 9776SOL    HW140257   8.466   3.871   1.632 -1.3964 -0.1222 -0.5496
 9776SOL    HW240258   8.498   4.013   1.557  2.1268  0.0239  1.1127
 9777SOL     OW40259   9.961   2.088   5.638  0.3141 -0.0085  0.0305
 9777SOL    HW140260   9.899   2.063   5.563 -0.4679  0.3105  0.5689
 9777SOL    HW240261  10.023   2.160   5.607  0.2779 -0.1763 -0.4414
 9778SOL     OW40262   0.157   2.149   4.142  0.0870 -0.1933  0.2972
 9778SOL    HW140263   0.164   2.072   4.206 -3.0857  0.8200  1.9285
 9778SOL    HW240264   0.200   2.229   4.183 -0.0115 -0.1104  0.2371
 9779SOL     OW40265   0.323   3.112   2.735 -0.2031  0.6903 -0.7342
 9779SOL    HW140266   0.325   3.195   2.679 -2.6735  0.1299 -1.7080
 9779SOL    HW240267   0.308   3.033   2.677 -1.2070 -0.0729  0.5408
 9780SOL     OW40268   5.143   3.668   0.770 -0.3849 -0.7196  0.1090
 9780SOL    HW140269   5.060   3.709   0.808  0.2158 -0.9990  1.7236
 9780SOL    HW240270   5.200   3.739   0.729 -0.1315 -0.1583  1.4271
 9781SOL     OW40271   3.557   2.668   4.756  0.0793  0.3612  0.1445
 9781SOL    HW140272   3.561   2.758   4.799 -1.8586  0.4995  0.0785
 9781SOL    HW240273   3.490   2.670   4.682  0.6245 -0.9192 -0.3909
 9782SOL     OW40274   5.479   7.682   1.623  0.0159  0.7066  0.3446
 9782SOL    HW140275   5.496   7.771   1.667  0.9537  0.7265 -0.0404
 9782SOL    HW240276   5.478   7.610   1.693 -0.5602  0.9892  0.6356
 9783SOL     OW40277   8.718   6.980   1.751 -0.1781  0.6412 -0.2243
 9783SOL    HW140278   8.703   6.917   1.827 -0.0687  0.7464 -0.1157
 9783SOL    HW240279   8.795   6.948   1.696 -0.1607  0.6469 -0.2036
 9784SOL     OW40280   5.022   8.194   4.194 -0.1060 -0.0845 -0.1011
 9784SOL    HW140281   4.965   8.269   4.225  0.6030 -0.1117  1.3235
 9784SOL    HW240282   5.088   8.170   4.265  1.1564 -0.5845 -1.3859
 9785SOL     OW40283   7.642   3.297   4.289 -0.0857 -0.2520 -0.3205
 9785SOL    HW140284   7.714   3.297   4.358 -1.9280  0.0985  1.6424
 9785SOL    HW240285   7.656   3.374   4.226  0.5929  0.5215  0.7603
 9786SOL     OW40286   0.374   5.256   5.158 -0.4568  0.4552  0.4692
 9786SOL    HW140287   0.334   5.344   5.133 -0.5210  0.5169  0.7871
 9786SOL    HW240288   0.460   5.244   5.109  0.5228  1.5509  1.8611
 9787SOL     OW40289   3.404   5.123   2.459 -0.1012  0.8041 -0.7753
 9787SOL    HW140290   3.308   5.149   2.450 -1.0488 -2.5059 -0.5830
 9787SOL    HW240291   3.429   5.122   2.556 -0.7563 -1.3084 -0.6102
 9788SOL     OW40292   0.189   4.574   1.956 -0.3255 -0.3902 -0.0408
 9788SOL    HW140293   0.219   4.658   2.002  0.3803 -1.2197  1.0258
 9788SOL    HW240294   0.269   4.528   1.917 -0.9339  0.4347 -2.3657
 9789SOL     OW40295   2.023   6.862   2.211  0.1172 -0.1033 -0.3024
 9789SOL    HW140296   1.962   6.834   2.137 -0.6068  1.5509 -0.3751
 9789SOL    HW240297   1.972   6.918   2.277  1.5004  1.2046 -0.2932
 9790SOL     OW40298   9.257   4.909   4.640  0.0396 -0.2055  0.0475
 9790SOL    HW140299   9.265   4.974   4.716  1.8438 -0.5678  0.1997
 9790SOL    HW240300   9.329   4.928   4.573  0.1165 -1.5550 -0.2675
 9791SOL     OW40301   4.072   7.513   4.442 -0.3093 -0.2995 -0.6435
 9791SOL    HW140302   4.123   7.587   4.397 -0.6752  0.2931 -0.0956
 9791SOL    HW240303   4.022   7.550   4.520  1.1318 -1.4796  0.8750
 9792SOL     OW40304   0.459   2.640   0.495 -0.2489 -0.2299 -0.6412
 9792SOL    HW140305   0.531   2.698   0.534  1.0936 -0.1014 -3.1606
 9792SOL    HW240306   0.378   2.696   0.478  0.2468  0.4228 -0.9195
 9793SOL     OW40307   3.527   2.128   4.783  0.1456 -1.1603  0.4466
 9793SOL    HW140308   3.593   2.203   4.779 -0.9799 -0.0374  1.9034
 9793SOL    HW240309   3.567   2.050   4.831  0.7588 -0.8567  0.4323
 9794SOL     OW40310   7.870   3.024   1.695  0.6119  0.0077  0.7259
 9794SOL    HW140311   7.872   2.986   1.788  0.6860 -1.6101  0.0776
 9794SOL    HW240312   7.964   3.041   1.664  0.6363 -0.4305  0.5573
 9795SOL     OW40313   7.828   6.386   5.498  0.2749  0.2471 -0.2690
 9795SOL    HW140314   7.870   6.300   5.528  0.7599  0.5897  0.0502
 9795SOL    HW240315   7.729   6.377   5.499  0.2394  0.7000  2.8019
 9796SOL     OW40316   1.696   1.295   4.530 -0.5416  0.2617  0.2495
 9796SOL    HW140317   1.735   1.307   4.621 -0.4418  0.3122  0.2005
 9796SOL    HW240318   1.634   1.217   4.530 -2.8235  2.0058  1.1077
 9797SOL     OW40319   2.172   9.919   3.755 -0.0747  0.2213 -0.1893
 9797SOL    HW140320   2.072   9.926   3.758 -0.0379  0.9772 -0.6100
 9797SOL    HW240321   2.207   9.975   3.680  0.7121  0.4490  0.3436
 9798SOL     OW40322   5.117   7.954   2.712 -0.7818  0.4564  0.8201
 9798SOL    HW140323   5.119   7.857   2.687 -1.0438  1.1194 -1.9051
 9798SOL    HW240324   5.208   7.993   2.702 -1.1988  1.0881 -0.6609
 9799SOL     OW40325   9.597   7.323   3.565  0.6107  0.1907  0.9800
 9799SOL    HW140326   9.591   7.389   3.491  1.0147 -1.0285 -0.1550
 9799SOL    HW240327   9.665   7.354   3.632  0.9243  0.8401  0.3686
 9800SOL     OW40328   5.853   8.557   2.906 -0.4369 -0.0902  0.3958
 9800SOL    HW140329   5.886   8.643   2.946 -0.3454 -0.7426  1.7554
 9800SOL    HW240330   5.931   8.501   2.880 -0.4917 -0.0046  0.0515
 9801SOL     OW40331   8.870   9.824   4.026  0.2302  0.0246  0.0066
 9801SOL    HW140332   8.891   9.888   4.100 -3.3635  1.4862 -0.1691
 9801SOL    HW240333   8.854   9.733   4.064  0.7222  0.2419  0.7435
 9802SOL     OW40334   5.128   1.290   1.835  0.2044  0.3261 -0.8208
 9802SOL    HW140335   5.088   1.378   1.860  1.2155  0.4517  0.4095
 9802SOL    HW240336   5.070   1.245   1.767 -1.3785  1.0242  0.0372
 9803SOL     OW40337   7.811   5.056   3.978  0.4047  0.2753 -0.5240
 9803SOL    HW140338   7.849   4.966   3.998 -1.8418 -0.4613  0.5412
 9803SOL    HW240339   7.825   5.117   4.056 -2.2105 -0.5547  0.6322
 9804SOL     OW40340   8.949   1.812   4.366  0.0951 -0.7298 -0.0609
 9804SOL    HW140341   8.954   1.814   4.266  0.2556  0.7809 -0.0415
 9804SOL    HW240342   8.998   1.732   4.401  2.1738  0.0653 -1.0790
 9805SOL     OW40343   3.818   2.876   0.539  0.3495  0.2371 -0.4407
 9805SOL    HW140344   3.858   2.928   0.614  0.1359 -0.9346  0.4909
 9805SOL    HW240345   3.750   2.933   0.492  2.3122  1.8823 -1.4018
 9806SOL     OW40346   1.498   2.033   3.876  0.2621 -0.2003  0.3738
 9806SOL    HW140347   1.554   1.960   3.916  0.3298 -0.0127  0.6222
 9806SOL    HW240348   1.497   2.023   3.777 -0.1183 -0.8265  0.4361
 9807SOL     OW40349   9.317   9.404   2.733 -0.0470 -0.0051 -0.3592
 9807SOL    HW140350   9.399   9.373   2.687  1.0439  0.6827  1.0722
 9807SOL    HW240351   9.298   9.345   2.812  0.4426  1.2644  0.7219
 9808SOL     OW40352   5.748   8.822   2.323 -0.0230  0.4148  0.6139
 9808SOL    HW140353   5.747   8.748   2.256  0.3542 -0.3093  1.3966
 9808SOL    HW240354   5.655   8.836   2.358 -0.1942  0.6949  0.0531
 9809SOL     OW40355   1.927   9.807   3.134 -0.2646  0.2727 -0.4010
 9809SOL    HW140356   1.938   9.887   3.192  0.1217 -0.7207  0.9138
 9809SOL    HW240357   1.959   9.828   3.042  1.1963  1.1697  0.2990
 9810SOL     OW40358   8.740   0.584   2.278 -0.2025  0.3715 -0.2439
 9810SOL    HW140359   8.784   0.611   2.363 -0.7963  2.0812 -0.4646
 9810SOL    HW240360   8.678   0.508   2.295 -1.1743  1.4350  1.0918
 9811SOL     OW40361   7.713   3.936   0.376  0.1028 -0.0671 -0.8270
 9811SOL    HW140362   7.786   3.963   0.314 -0.3504 -0.5465 -1.5773
 9811SOL    HW240363   7.636   3.901   0.323  0.0067 -1.1939  0.0352
 9812SOL     OW40364   1.576   5.492   5.190 -0.6655  0.4657 -0.1182
 9812SOL    HW140365   1.662   5.453   5.221 -0.5854  1.2776  0.6980
 9812SOL    HW240366   1.546   5.446   5.106  0.0665 -0.4705  0.1334
 9813SOL     OW40367   2.037   1.065   1.239 -0.0233  1.0141  0.7502
 9813SOL    HW140368   1.961   1.038   1.298 -1.6038 -1.4300 -2.2081
 9813SOL    HW240369   2.030   1.162   1.216 -1.0343  1.2902  2.1678
 9814SOL     OW40370   0.909   0.389   2.732  0.4051  0.7735  0.3626
 9814SOL    HW140371   0.832   0.403   2.669 -0.2898  1.4701  1.3498
 9814SOL    HW240372   0.896   0.304   2.783 -0.4118  1.5801  1.5134
 9815SOL     OW40373   0.458   6.278   2.787  0.3376  0.3043 -0.6499
 9815SOL    HW140374   0.478   6.188   2.826  0.7854  1.0024  0.7659
 9815SOL    HW240375   0.370   6.275   2.741 -0.8291 -0.2189  1.5527
 9816SOL     OW40376   0.368   6.499   5.152  0.2281  0.2275  0.2851
 9816SOL    HW140377   0.325   6.577   5.107 -0.5887  0.9675  2.2868
 9816SOL    HW240378   0.304   6.422   5.154  0.7981 -0.2973 -1.1059
 9817SOL     OW40379   3.622   2.975   0.132 -0.0404  0.2223 -0.2411
 9817SOL    HW140380   3.597   2.946   0.225 -0.7464 -0.0082 -0.4968
 9817SOL    HW240381   3.549   3.032   0.095  0.1025  0.0605 -0.7676
 9818SOL     OW40382   1.133   2.956   4.224 -0.6459 -0.3224 -0.3835
 9818SOL    HW140383   1.212   2.913   4.182  0.8940  0.5875  1.4863
 9818SOL    HW240384   1.128   3.052   4.196 -0.4081 -0.0744  0.4031
 9819SOL     OW40385   6.175   9.206   2.404 -0.3229 -0.2131  0.4893
 9819SOL    HW140386   6.275   9.199   2.407 -0.4261 -2.5082 -0.4018
 9819SOL    HW240387   6.138   9.181   2.494 -0.1400 -0.2421  0.5575
 9820SOL     OW40388   8.640   8.990   1.546 -0.0129 -0.2824  0.0086
 9820SOL    HW140389   8.651   8.995   1.646  1.4993  0.5323 -0.1754
 9820SOL    HW240390   8.685   8.908   1.512  2.4291  1.1428 -0.3398
 9821SOL     OW40391   1.864   5.531   0.529 -0.1133 -0.3389 -0.4945
 9821SOL    HW140392   1.924   5.544   0.449 -0.0231 -0.1569 -0.3976
 9821SOL    HW240393   1.905   5.464   0.591  2.4271  3.2662  1.9534
 9822SOL     OW40394   0.740   6.095   1.471  0.1179  0.3595  0.0723
 9822SOL    HW140395   0.818   6.086   1.409  0.3356  0.8798  0.2635
 9822SOL    HW240396   0.742   6.021   1.538 -0.0216 -0.1066 -0.4387
 9823SOL     OW40397   3.743   7.413   2.676  0.2104  0.0510  0.8655
 9823SOL    HW140398   3.738   7.461   2.589  0.4258 -0.0618  0.7902
 9823SOL    HW240399   3.736   7.479   2.751 -2.4977 -0.1057  0.7791
 9824SOL     OW40400   2.824   9.490   2.762  0.4148 -0.8090 -0.0400
 9824SOL    HW140401   2.730   9.488   2.726  0.2929 -1.4482  0.3111
 9824SOL    HW240402   2.827   9.442   2.849  1.2841 -1.7160 -0.5569
 9825SOL     OW40403   1.193   7.406   1.168  0.1113 -0.3919  0.5109
 9825SOL    HW140404   1.240   7.394   1.080  1.1303  0.0750  0.9871
 9825SOL    HW240405   1.231   7.486   1.215  0.0501 -1.0516  1.6983
 9826SOL     OW40406   9.727   0.538   1.648 -0.2131 -0.0909  0.0313
 9826SOL    HW140407   9.702   0.629   1.616  0.5365  0.5303  1.2059
 9826SOL    HW240408   9.822   0.519   1.626 -0.4048 -0.6468 -0.3289
 9827SOL     OW40409   8.327   8.572   4.575  0.5570 -0.1961  0.4537
 9827SOL    HW140410   8.396   8.583   4.504  0.4415  0.1578  0.3969
 9827SOL    HW240411   8.340   8.484   4.620  1.3195  0.0515  0.7303
 9828SOL     OW40412   3.994   4.600   3.831 -0.1285  0.4753  0.1397
 9828SOL    HW140413   3.980   4.607   3.733  0.1326 -0.3364  0.0479
 9828SOL    HW240414   3.956   4.682   3.876  0.2177  1.0866 -0.6761
 9829SOL     OW40415   8.456   4.213   0.955 -0.1513 -0.0860  0.0428
 9829SOL    HW140416   8.444   4.310   0.932  0.7133  0.3810  1.5736
 9829SOL    HW240417   8.403   4.191   1.037 -1.4200 -1.2408 -1.0511
 9830SOL     OW40418   0.569   8.932   1.952 -0.6864 -0.0769 -0.1365
 9830SOL    HW140419   0.480   8.978   1.943 -0.3570  0.3641 -1.1798
 9830SOL    HW240420   0.642   9.000   1.940 -0.2018 -0.6534 -0.4510
 9831SOL     OW40421   8.139   2.473   4.111  0.8958 -0.5545 -0.0610
 9831SOL    HW140422   8.187   2.411   4.173  0.0923 -2.6948 -1.5157
 9831SOL    HW240423   8.195   2.488   4.029  1.0015  0.5116  0.1998
 9832SOL     OW40424   9.713   3.406   2.082  0.0959  0.6217 -0.1208
 9832SOL    HW140425   9.632   3.355   2.053  1.8156 -0.7755 -2.7085
 9832SOL    HW240426   9.749   3.366   2.167 -0.5830 -0.2488 -0.2333
 9833SOL     OW40427   6.634   8.873   3.028  0.1063 -0.3716  0.2957
 9833SOL    HW140428   6.636   8.818   3.111 -1.5121 -1.1873 -0.1792
 9833SOL    HW240429   6.676   8.820   2.953 -0.2122 -0.4149  0.1485
 9834SOL     OW40430   4.521   6.750   1.946  0.0710 -0.1409 -0.0771
 9834SOL    HW140431   4.493   6.727   1.853 -1.2479 -0.5751  0.4165
 9834SOL    HW240432   4.572   6.836   1.945 -0.4623  0.1728 -1.1185
 9835SOL     OW40433   4.285   8.449   4.075  0.5815  0.1075  0.0352
 9835SOL    HW140434   4.322   8.529   4.026 -1.0169  1.7586  1.4661
 9835SOL    HW240435   4.320   8.449   4.169 -0.0987 -0.4238  0.2850
 9836SOL     OW40436   3.778   7.625   5.018  0.1288 -0.7559 -0.5686
 9836SOL    HW140437   3.764   7.576   4.933 -0.3205 -2.3918  0.4289
 9836SOL    HW240438   3.729   7.713   5.014 -0.0532 -0.9101 -1.9047
 9837SOL     OW40439   0.120   1.959   0.601 -0.2013  1.0363 -0.3075
 9837SOL    HW140440   0.191   2.003   0.546  0.6333  1.1591  0.8285
 9837SOL    HW240441   0.145   1.864   0.618  0.3501  1.4266  1.1672
 9838SOL     OW40442   1.151   0.800   0.077  0.2384 -0.5965  0.4064
 9838SOL    HW140443   1.120   0.888   0.042  0.5127 -1.4511 -2.1286
 9838SOL    HW240444   1.082   0.763   0.140  0.0938  1.3530  1.4252
 9839SOL     OW40445   9.459   9.417   3.093  0.3498 -0.1456 -0.1650
 9839SOL    HW140446   9.491   9.390   3.184 -1.3609 -0.3827  0.3809
 9839SOL    HW240447   9.394   9.349   3.059  0.3513  0.3704 -1.2105
 9840SOL     OW40448   2.804   3.139   3.633 -0.4886 -0.5647  0.4309
 9840SOL    HW140449   2.781   3.139   3.536 -0.2041 -0.8399  0.3642
 9840SOL    HW240450   2.771   3.224   3.675 -2.4457 -1.3669  0.5349
 9841SOL     OW40451   1.582   4.394   2.783 -0.2545 -0.1913  0.2091
 9841SOL    HW140452   1.526   4.342   2.847 -1.6811 -0.3240 -1.1096
 9841SOL    HW240453   1.592   4.342   2.698  1.2357  0.1749  0.1495
 9842SOL     OW40454   1.316   4.704   3.544  0.4787 -0.6834 -0.2681
 9842SOL    HW140455   1.401   4.756   3.546  0.7818 -1.1934  1.2942
 9842SOL    HW240456   1.262   4.730   3.464  1.4094  0.7567 -0.4388
 9843SOL     OW40457   9.412   2.303   2.338 -0.4932 -0.6474 -0.5383
 9843SOL    HW140458   9.470   2.325   2.417  0.3103 -0.4373 -1.1845
 9843SOL    HW240459   9.330   2.256   2.370 -1.1564  1.2236  0.6462
 9844SOL     OW40460   1.004   1.060   5.156  0.5894  0.0797  0.4262
 9844SOL    HW140461   0.978   0.966   5.136  2.7543 -0.1899 -1.4008
 9844SOL    HW240462   1.104   1.065   5.167  0.3818  1.9589  1.6965
 9845SOL     OW40463   4.453   4.089   3.758 -0.0832 -0.3387 -0.5017
 9845SOL    HW140464   4.479   4.030   3.682  0.2548 -1.0750  0.1749
 9845SOL    HW240465   4.359   4.121   3.745  0.5908  1.0079 -2.1203
 9846SOL     OW40466   4.042   3.149   0.408  0.5025  0.1613 -0.9618
 9846SOL    HW140467   3.962   3.164   0.349 -0.5132 -1.3343 -0.0124
 9846SOL    HW240468   4.056   3.229   0.466 -0.4747  0.3397 -0.9600
 9847SOL     OW40469   4.244   0.683   4.219 -0.0654  0.0223  0.0593
 9847SOL    HW140470   4.305   0.722   4.150 -0.1475  1.0845  0.5793
 9847SOL    HW240471   4.267   0.719   4.309 -1.1809  0.1062  0.3246
 9848SOL     OW40472   0.906   6.907   3.463  0.1648 -0.1232  0.5639
 9848SOL    HW140473   0.847   6.832   3.435  2.0981 -1.5476  0.1897
 9848SOL    HW240474   0.906   6.978   3.392  0.0410 -0.7865 -0.1048
 9849SOL     OW40475   2.500   4.054   4.656 -0.1643 -0.1303  0.7004
 9849SOL    HW140476   2.413   4.007   4.645 -0.2844  0.4791 -1.0611
 9849SOL    HW240477   2.560   4.000   4.715 -0.5041 -2.2042 -0.7969
 9850SOL     OW40478   8.094   8.372   4.486 -0.1260  0.2965  0.3299
 9850SOL    HW140479   8.015   8.380   4.424  0.0020 -0.3705  0.0763
 9850SOL    HW240480   8.071   8.310   4.561  0.6736 -1.1409 -0.5842
 9851SOL     OW40481   3.498   8.766   3.165 -0.2105 -0.4869  0.5803
 9851SOL    HW140482   3.443   8.793   3.244 -2.1316  2.3550 -1.6070
 9851SOL    HW240483   3.439   8.722   3.097  0.4819  1.2681 -1.1906
 9852SOL     OW40484   0.371   8.081   1.301 -0.0450 -0.4136 -0.6167
 9852SOL    HW140485   0.431   8.051   1.375 -1.0498 -1.0973 -0.0571
 9852SOL    HW240486   0.365   8.181   1.301  1.3260 -0.3276 -0.8714
 9853SOL     OW40487   3.597   3.668   4.014 -0.3343 -0.0746  0.6791
 9853SOL    HW140488   3.644   3.728   3.949 -0.7189  0.7280  1.1408
 9853SOL    HW240489   3.542   3.601   3.963 -0.3373  0.3039  0.1768
 9854SOL     OW40490   9.882   0.772   1.850  0.2496 -0.3394 -0.0810
 9854SOL    HW140491   9.966   0.727   1.880 -0.3064 -1.5831 -0.3656
 9854SOL    HW240492   9.811   0.760   1.919  0.1751  0.3285 -0.0414
 9855SOL     OW40493   0.489   6.637   3.537 -0.5005 -0.2202  0.1613
 9855SOL    HW140494   0.392   6.637   3.561 -0.1187 -0.2227  1.7332
 9855SOL    HW240495   0.534   6.557   3.578 -0.1181 -1.0240 -1.7677
 9856SOL     OW40496   8.874   1.446   0.721 -0.5758 -0.4929  0.0773
 9856SOL    HW140497   8.880   1.416   0.816  0.8944 -0.1058  0.1046
 9856SOL    HW240498   8.916   1.378   0.662 -0.1734 -0.0329 -0.1652
 9857SOL     OW40499   3.620   1.754   3.323  0.0642  0.2468  0.2961
 9857SOL    HW140500   3.651   1.675   3.377  1.9102  1.0263  0.4033
 9857SOL    HW240501   3.627   1.837   3.379 -1.4522  0.5555  0.0343
 9858SOL     OW40502   1.808   7.808   3.516 -0.1086 -0.1791 -0.3976
 9858SOL    HW140503   1.890   7.775   3.563  0.6053  0.5806 -1.0746
 9858SOL    HW240504   1.730   7.750   3.538  0.2711  0.0207  1.5099
 9859SOL     OW40505   0.830   0.988   5.444  0.2087  0.4067  0.4725
 9859SOL    HW140506   0.888   1.050   5.392  0.4329  1.3892  1.8840
 9859SOL    HW240507   0.874   0.898   5.449  0.4716  0.4780 -0.5061
 9860SOL     OW40508   9.445   6.174   3.339  0.3028  0.4191  0.3615
 9860SOL    HW140509   9.530   6.226   3.351  1.6575 -1.8996  1.1331
 9860SOL    HW240510   9.442   6.137   3.246  0.2254  0.3447  0.3934
 9861SOL     OW40511   0.453   4.027   2.238  0.1234 -0.3235  0.2176
 9861SOL    HW140512   0.407   3.938   2.250  0.6079 -0.4516  1.1522
 9861SOL    HW240513   0.542   4.025   2.283  0.1509  0.6325  0.2144
 9862SOL     OW40514   8.256   4.920   4.429 -0.1036  0.3445  0.0314
 9862SOL    HW140515   8.175   4.970   4.461  0.9097  1.6435  0.6124
 9862SOL    HW240516   8.313   4.981   4.373  1.1722 -0.1272  0.7970
 9863SOL     OW40517   3.395   9.930   1.643 -0.0808  0.3832  0.1333
 9863SOL    HW140518   3.302   9.945   1.677 -0.0088  1.0492  0.0381
 9863SOL    HW240519   3.391   9.898   1.548 -0.1723  1.7006 -0.3152
 9864SOL     OW40520   3.585   6.568   2.487  0.3568 -0.4879 -0.1544
 9864SOL    HW140521   3.610   6.628   2.410 -0.5415  1.1832  0.8416
 9864SOL    HW240522   3.504   6.515   2.463  0.5791 -0.5942 -0.6781
 9865SOL     OW40523   1.094   1.372   3.044 -0.0752 -0.5201 -0.3787
 9865SOL    HW140524   1.086   1.463   3.003 -0.0070  0.4909  1.7752
 9865SOL    HW240525   1.078   1.302   2.974 -1.3168  1.1497 -1.8065
 9866SOL     OW40526   2.301   8.365   3.660 -0.1772  0.2992 -0.2388
 9866SOL    HW140527   2.263   8.417   3.584 -2.2908  1.1036  1.3239
 9866SOL    HW240528   2.368   8.421   3.709  0.6399  0.0368 -1.0362
 9867SOL     OW40529   3.701   4.623   4.121 -0.2826  0.3645  0.2312
 9867SOL    HW140530   3.631   4.638   4.191 -0.7945  1.9694 -0.5992
 9867SOL    HW240531   3.666   4.561   4.051  0.1682 -1.1085  1.2826
 9868SOL     OW40532   0.357   7.138   1.318  0.6787 -0.3579 -0.1370
 9868SOL    HW140533   0.308   7.207   1.372  0.9335 -1.2160  1.1981
 9868SOL    HW240534   0.426   7.093   1.374  1.2302 -0.9895 -1.2896
 9869SOL     OW40535   2.577   5.639   0.903  0.4546 -0.3600 -0.2359
 9869SOL    HW140536   2.609   5.555   0.861  2.9080  0.8007 -0.7435
 9869SOL    HW240537   2.579   5.713   0.836 -1.9602  0.0662  0.1257
 9870SOL     OW40538   1.724   7.072   5.379  0.0628 -0.6088 -0.1523
 9870SOL    HW140539   1.801   7.097   5.437 -0.4390  0.4743  0.0590
 9870SOL    HW240540   1.691   7.153   5.331  0.1015 -1.3893 -1.4985
 9871SOL     OW40541   5.975   9.274   2.181  0.0687  0.0440 -0.5961
 9871SOL    HW140542   5.899   9.211   2.192 -0.4928  1.0740  1.7134
 9871SOL    HW240543   6.048   9.249   2.245  0.4451  0.8390 -0.7076
 9872SOL     OW40544   1.766   2.974   1.662 -0.4801  0.0745  0.0252
 9872SOL    HW140545   1.829   3.003   1.734 -1.4277  2.0234  0.0766
 9872SOL    HW240546   1.805   2.996   1.573 -0.4316 -0.0793  0.0073
 9873SOL     OW40547   3.734   4.099   4.225 -0.2292  0.4547  0.1007
 9873SOL    HW140548   3.829   4.088   4.193 -0.1223  3.1483 -0.6384
 9873SOL    HW240549   3.678   4.026   4.186  1.2425 -0.2882 -0.7086
 9874SOL     OW40550   8.457   3.252   4.281  0.4389  0.4580  0.2625
 9874SOL    HW140551   8.367   3.284   4.309  0.6276 -0.0886  1.5591
 9874SOL    HW240552   8.502   3.208   4.359  0.4826 -2.2882 -1.2466
 9875SOL     OW40553   8.467   7.093   4.802  0.2189  0.6395  0.6118
 9875SOL    HW140554   8.414   7.024   4.754  0.6665  1.5127 -1.1981
 9875SOL    HW240555   8.564   7.081   4.781  0.4706  0.7615  1.6666
 9876SOL     OW40556   7.923   9.477   3.037 -0.2380  0.4048  0.0810
 9876SOL    HW140557   7.887   9.383   3.033 -1.0756  0.7703 -1.1453
 9876SOL    HW240558   8.020   9.476   3.011  0.1022 -0.2862  1.3201
 9877SOL     OW40559   4.573   2.179   3.327  0.2161 -0.2128 -0.2627
 9877SOL    HW140560   4.644   2.232   3.374  0.6239  0.2400 -1.3868
 9877SOL    HW240561   4.509   2.241   3.281 -1.1134 -0.6026  0.9953
 9878SOL     OW40562   0.777   2.902   0.964  0.2020 -0.1694  0.3843
 9878SOL    HW140563   0.692   2.888   1.014  0.3429 -1.3265  0.3087
 9878SOL    HW240564   0.781   2.996   0.931 -1.4413 -0.3354 -0.3447
 9879SOL     OW40565   4.992   3.077   0.336  0.0612  0.2799 -0.1914
 9879SOL    HW140566   5.003   3.013   0.260 -0.7758 -0.7258  0.5166
 9879SOL    HW240567   5.023   3.034   0.421 -0.3788  0.8586  0.2717
 9880SOL     OW40568   7.025   8.783   2.621  0.1662  0.2075 -0.4198
 9880SOL    HW140569   6.943   8.837   2.605 -0.4422 -0.9370 -1.2391
 9880SOL    HW240570   7.039   8.719   2.545  0.8259 -0.8447  0.5540
 9881SOL     OW40571   9.884   1.901   3.929  0.1821 -0.3270 -0.9806
 9881SOL    HW140572   9.839   1.815   3.952 -1.6066  0.7721 -0.2802
 9881SOL    HW240573   9.817   1.976   3.930  1.6056  1.0044 -2.0597
 9882SOL     OW40574   1.483   1.152   1.143  0.3074 -0.3470 -0.1464
 9882SOL    HW140575   1.479   1.066   1.092  1.3925  0.1277 -1.0609
 9882SOL    HW240576   1.395   1.169   1.188  0.3573 -2.3597  0.7548
 9883SOL     OW40577   1.750   7.163   4.595 -0.7683 -0.3729  0.1871
 9883SOL    HW140578   1.847   7.157   4.620 -1.0092 -1.3104  0.8945
 9883SOL    HW240579   1.724   7.260   4.589  0.7949 -0.0437 -2.2819
 9884SOL     OW40580   7.761   7.954   1.779 -0.2614 -0.1187  0.3181
 9884SOL    HW140581   7.850   7.913   1.799  0.8676  2.2164  0.2565
 9884SOL    HW240582   7.705   7.956   1.862  1.8729  3.4078  1.7942
 9885SOL     OW40583   4.713   4.777   0.066 -0.2452  0.0581  0.5115
 9885SOL    HW140584   4.753   4.697   0.020 -1.2181  0.2450 -0.6772
 9885SOL    HW240585   4.778   4.811   0.134  0.1699 -1.7702  1.0750
 9886SOL     OW40586   7.692   6.987   4.491 -0.5259  0.4374 -0.3029
 9886SOL    HW140587   7.689   7.055   4.418  0.8185  1.1424  0.2836
 9886SOL    HW240588   7.730   7.029   4.574  0.4982 -1.0658  0.0094
 9887SOL     OW40589   2.677   9.191   4.073  0.8070  0.3971 -0.2123
 9887SOL    HW140590   2.701   9.287   4.089 -0.1815  0.6086  0.0307
 9887SOL    HW240591   2.614   9.160   4.144  2.4471 -0.9508  0.6777
 9888SOL     OW40592   3.097   9.879   0.877 -0.1520  0.1925 -0.0739
 9888SOL    HW140593   3.177   9.833   0.838  0.3887  1.0999 -0.0417
 9888SOL    HW240594   3.048   9.927   0.804  0.5561  1.4433  0.2669
 9889SOL     OW40595   4.247   9.739   5.411  0.0633  0.3039 -0.3951
 9889SOL    HW140596   4.221   9.829   5.446  1.3624  0.3040  0.6022
 9889SOL    HW240597   4.225   9.733   5.313 -3.3809  0.3966  0.3015
 9890SOL     OW40598   2.821   6.148   4.320 -0.2159 -0.4568 -0.1193
 9890SOL    HW140599   2.751   6.206   4.361  1.9341  1.2359  1.2966
 9890SOL    HW240600   2.794   6.052   4.328 -2.3798  0.1620  0.3175
 9891SOL     OW40601   1.458   5.371   4.958  0.3805 -0.3914  0.0405
 9891SOL    HW140602   1.470   5.406   4.866 -0.3941 -2.0242 -0.6974
 9891SOL    HW240603   1.363   5.341   4.971  0.3960  0.1111  1.4704
 9892SOL     OW40604   8.760   0.084   0.442  0.1325 -0.2751  0.9879
 9892SOL    HW140605   8.850   0.075   0.484  1.2709  1.4456 -0.9993
 9892SOL    HW240606   8.754   0.025   0.361 -1.1751 -1.7072  2.0839
 9893SOL     OW40607   7.136   1.310   1.194 -0.3107  0.4100  0.2633
 9893SOL    HW140608   7.113   1.248   1.119  1.1300 -0.4415  0.5122
 9893SOL    HW240609   7.103   1.272   1.280  0.3087  0.1233  0.3778
 9894SOL     OW40610   7.624   8.563   1.506 -0.3166 -0.6262 -0.4617
 9894SOL    HW140611   7.708   8.614   1.488  0.2761 -2.1127 -2.1192
 9894SOL    HW240612   7.622   8.535   1.602  0.3019  0.7882 -0.0185
 9895SOL     OW40613   8.169   1.780   3.604  0.2709 -0.0075  0.7668
 9895SOL    HW140614   8.191   1.877   3.601  0.4716 -0.0947 -1.3057
 9895SOL    HW240615   8.089   1.762   3.547 -1.8043 -0.5694  3.7692
 9896SOL     OW40616   4.372   7.715   3.416  0.1301 -0.1070  0.3304
 9896SOL    HW140617   4.386   7.618   3.439 -1.3648 -0.2050  0.9332
 9896SOL    HW240618   4.382   7.770   3.499  1.9084  0.3822 -0.1854
 9897SOL     OW40619   7.521   9.553   5.601  0.4829  0.3313  0.4399
 9897SOL    HW140620   7.604   9.522   5.556  1.8546  1.8980  1.8377
 9897SOL    HW240621   7.508   9.502   5.686 -0.2504 -0.2314 -0.0005
 9898SOL     OW40622   4.836   0.230   5.520  0.4119  0.4069  0.2577
 9898SOL    HW140623   4.762   0.192   5.464  1.2488  0.1932 -0.7251
 9898SOL    HW240624   4.848   0.173   5.601  0.7658 -0.6658 -0.5340
 9899SOL     OW40625   9.057   6.415   1.528  0.1881  0.8490  0.2181
 9899SOL    HW140626   8.958   6.431   1.523  0.0033 -0.0303  0.8905
 9899SOL    HW240627   9.105   6.502   1.528 -0.4824  1.2666 -1.9909
 9900SOL     OW40628   4.237   1.038   2.987 -0.2172 -0.0485  0.4703
 9900SOL    HW140629   4.155   1.018   3.041  0.3354  0.2512  1.4271
 9900SOL    HW240630   4.270   1.130   3.009  0.2487 -0.0812 -0.0799
 9901SOL     OW40631   1.382   6.663   1.644  0.5991 -0.2402 -0.6618
 9901SOL    HW140632   1.412   6.755   1.619  0.8031  0.3732  1.7631
 9901SOL    HW240633   1.306   6.669   1.709  1.8051 -1.7534  0.9330
 9902SOL     OW40634   4.382   9.886   0.552  0.1478  0.1122 -0.2516
 9902SOL    HW140635   4.459   9.948   0.563 -0.6335  1.1239 -0.4673
 9902SOL    HW240636   4.349   9.858   0.642 -1.0743  1.9788 -0.1030
 9903SOL     OW40637   0.556   8.658   1.891  0.0779  0.3304  0.1783
 9903SOL    HW140638   0.582   8.752   1.912 -0.1737  0.7168 -1.1819
 9903SOL    HW240639   0.595   8.596   1.959  0.3619  1.3974  1.0023
 9904SOL     OW40640   0.657   5.560   3.745  0.1107 -0.8783  0.3905
 9904SOL    HW140641   0.655   5.467   3.707 -0.6409 -1.2983  1.4111
 9904SOL    HW240642   0.699   5.622   3.679  0.4865 -1.9157 -0.3707
 9905SOL     OW40643   8.083   2.616   4.848  0.1684 -0.5657 -0.3479
 9905SOL    HW140644   8.078   2.670   4.763  0.8773 -0.3394 -0.2447
 9905SOL    HW240645   7.994   2.618   4.893  0.6218  1.9226  0.5059
 9906SOL     OW40646   9.149   7.602   2.825  0.6428 -0.4693  0.6255
 9906SOL    HW140647   9.085   7.619   2.899  0.8002  2.5075  0.1271
 9906SOL    HW240648   9.098   7.583   2.741  0.4507 -1.5391  0.9780
 9907SOL     OW40649   3.030   7.505   3.813  0.3289 -0.2148 -0.2013
 9907SOL    HW140650   2.999   7.543   3.900 -0.3040  1.4919 -1.1499
 9907SOL    HW240651   2.951   7.492   3.753  0.5205 -3.0542  0.0742
 9908SOL     OW40652   0.268   7.511   1.751 -0.7261  0.4683  0.3268
 9908SOL    HW140653   0.189   7.450   1.752 -1.7284  1.6744 -1.7160
 9908SOL    HW240654   0.252   7.589   1.810 -0.1188 -0.3846  1.6495
 9909SOL     OW40655   0.798   5.041   2.671  0.1306 -0.2608  0.0470
 9909SOL    HW140656   0.734   5.085   2.608  0.3003  0.9712  0.7211
 9909SOL    HW240657   0.886   5.087   2.667  0.6318 -1.2340 -0.0427
 9910SOL     OW40658   0.138   2.726   1.662  0.4172 -0.1257  0.0836
 9910SOL    HW140659   0.064   2.702   1.724 -1.7330  0.4739 -2.1574
 9910SOL    HW240660   0.214   2.766   1.714 -1.1369 -0.0008  2.3226
 9911SOL     OW40661   1.437   4.812   5.380  0.0755 -0.5128 -0.0799
 9911SOL    HW140662   1.446   4.905   5.414  1.2670 -0.6262 -0.0749
 9911SOL    HW240663   1.359   4.806   5.318  0.2995  0.5886 -0.4603
 9912SOL     OW40664   7.861   7.268   2.103  0.4247 -0.4145  0.1192
 9912SOL    HW140665   7.895   7.268   2.010 -1.0802 -0.5444 -0.4512
 9912SOL    HW240666   7.761   7.275   2.102  0.3452 -1.0282  1.6971
 9913SOL     OW40667   2.353   3.756   3.293  0.4628  0.0732 -0.0240
 9913SOL    HW140668   2.363   3.728   3.388  1.0534 -1.4410 -0.5149
 9913SOL    HW240669   2.441   3.747   3.246 -0.1571 -0.5650 -1.0732
 9914SOL     OW40670   0.535   7.784   1.835  0.2891  0.1621  0.2773
 9914SOL    HW140671   0.635   7.792   1.825  0.2474 -0.7337 -0.9508
 9914SOL    HW240672   0.494   7.768   1.745 -0.9578  0.3587  0.8043
 9915SOL     OW40673   6.739   0.312   1.049 -0.3496 -0.4357 -0.3495
 9915SOL    HW140674   6.691   0.237   1.095  1.5292 -1.0351  0.7080
 9915SOL    HW240675   6.743   0.294   0.951  0.5783 -2.0327 -0.0367
 9916SOL     OW40676   8.323   7.661   1.752  0.1540 -0.1361  0.1260
 9916SOL    HW140677   8.274   7.632   1.670  0.4895  1.9631 -0.8513
 9916SOL    HW240678   8.377   7.743   1.732  3.2425 -1.7526  1.4439
 9917SOL     OW40679   3.655   3.107   2.260  0.3315  0.7408 -0.2126
 9917SOL    HW140680   3.671   3.132   2.355  1.8594 -0.1659 -0.2066
 9917SOL    HW240681   3.566   3.063   2.251  0.7994 -0.4989  1.0775
 9918SOL     OW40682   6.053   0.751   1.267  0.4386  0.0719 -0.0122
 9918SOL    HW140683   5.992   0.812   1.216  0.0236 -1.4679 -1.4138
 9918SOL    HW240684   6.127   0.804   1.307 -1.1147  1.8055  0.6465
 9919SOL     OW40685   8.969   2.719   2.935  0.2532 -0.0058  0.3020
 9919SOL    HW140686   8.897   2.715   3.004  1.1052  2.4683  1.3743
 9919SOL    HW240687   8.952   2.796   2.873  0.9412 -0.5919 -0.6324
 9920SOL     OW40688   0.447   1.761   0.406 -0.6552 -0.1663  0.0697
 9920SOL    HW140689   0.518   1.740   0.338  0.9041  0.8688  1.3382
 9920SOL    HW240690   0.368   1.801   0.360  0.3239  0.3917 -1.1554
 9921SOL     OW40691   1.764   7.702   1.238  0.5020 -0.9692 -0.0239
 9921SOL    HW140692   1.732   7.613   1.272  1.4238 -0.8540  1.1690
 9921SOL    HW240693   1.858   7.693   1.205  0.1675 -0.7116 -1.0582
 9922SOL     OW40694   1.839   4.623   1.550  0.2501 -0.3615 -0.6450
 9922SOL    HW140695   1.923   4.577   1.522 -0.6505 -2.9756  0.8193
 9922SOL    HW240696   1.794   4.662   1.470  1.0252 -2.0837 -1.9506
 9923SOL     OW40697   0.592   6.980   2.635 -0.0198  1.0456  0.0304
 9923SOL    HW140698   0.560   6.917   2.705  4.1403 -0.5928  0.5869
 9923SOL    HW240699   0.548   6.957   2.547 -0.7521 -0.7093  0.8338
 9924SOL     OW40700   8.166   2.901   1.738 -0.4446  0.2270 -0.7293
 9924SOL    HW140701   8.158   2.802   1.732  0.7017  0.2378 -2.8757
 9924SOL    HW240702   8.216   2.936   1.659  1.6694  2.2505  1.4022
 9925SOL     OW40703   2.084   2.329   4.720 -0.1340  0.0145  0.1555
 9925SOL    HW140704   2.109   2.396   4.790 -1.2489 -0.1157  0.6830
 9925SOL    HW240705   2.049   2.246   4.765  0.9908 -0.8327 -0.4934
 9926SOL     OW40706   3.894   0.225   0.102 -0.0719  0.1602 -0.3655
 9926SOL    HW140707   3.883   0.292   0.176  0.9245 -0.7462  0.6347
 9926SOL    HW240708   3.991   0.217   0.080 -0.2518 -0.4968 -0.9084
 9927SOL     OW40709   7.187   1.285   0.073 -0.3184  0.5541 -0.6252
 9927SOL    HW140710   7.106   1.226   0.073 -1.0215  1.5100 -0.9503
 9927SOL    HW240711   7.267   1.230   0.049 -1.0835 -0.1256 -1.7109
 9928SOL     OW40712   3.886   1.352   1.819  0.0083  0.2795  0.1717
 9928SOL    HW140713   3.822   1.394   1.883  1.3424  1.1155  1.0043
 9928SOL    HW240714   3.944   1.423   1.780  1.4017 -0.6274  0.5575
 9929SOL     OW40715   1.359   6.806   5.372  0.0415 -0.1861 -0.5292
 9929SOL    HW140716   1.264   6.800   5.404 -0.1436  1.2598 -0.7885
 9929SOL    HW240717   1.392   6.714   5.351 -0.8939 -0.8331  0.7352
 9930SOL     OW40718   8.081   0.791   1.900  0.6201 -0.0669 -0.0076
 9930SOL    HW140719   8.089   0.890   1.901  1.1633 -0.0868 -1.2576
 9930SOL    HW240720   8.103   0.756   1.809  2.5475 -1.4905  0.9520
 9931SOL     OW40721   2.569   4.803   0.169  0.1551 -0.3763  0.5301
 9931SOL    HW140722   2.652   4.819   0.115 -0.7911  0.1573 -0.8044
 9931SOL    HW240723   2.528   4.891   0.192 -1.3147 -0.6687 -0.8753
 9932SOL     OW40724   2.717   7.278   3.446 -0.3406 -0.3455 -0.3536
 9932SOL    HW140725   2.770   7.222   3.382  0.7755  2.2603 -1.7865
 9932SOL    HW240726   2.639   7.319   3.399 -0.0428  0.8413  0.1607
 9933SOL     OW40727   7.019   8.794   4.018  0.0307 -0.1185  0.0931
 9933SOL    HW140728   6.991   8.752   4.105 -0.5518 -0.5554 -0.3044
 9933SOL    HW240729   6.943   8.789   3.953 -0.2205  2.0373  0.2081
 9934SOL     OW40730   0.368   9.204   2.630 -0.5189  0.4225 -0.2384
 9934SOL    HW140731   0.344   9.233   2.538 -0.4956  0.0325 -0.3711
 9934SOL    HW240732   0.297   9.231   2.694  0.2070  2.0856 -0.1189
 9935SOL     OW40733   7.893   2.606   0.961 -0.4424  1.0331  0.1082
 9935SOL    HW140734   7.831   2.668   1.010 -2.2657 -0.9851  0.3934
 9935SOL    HW240735   7.935   2.543   1.026 -2.4025 -1.2632 -0.7859
 9936SOL     OW40736   4.542   3.384   3.819  0.2362 -0.2440 -0.3330
 9936SOL    HW140737   4.558   3.300   3.767 -0.2133 -0.6820  0.2313
 9936SOL    HW240738   4.578   3.462   3.769  0.4716 -0.7556 -0.9558
 9937SOL     OW40739   9.879   0.460   1.904  0.6950 -0.2578 -0.5877
 9937SOL    HW140740   9.967   0.506   1.911 -0.1444  1.3545 -0.5163
 9937SOL    HW240741   9.813   0.519   1.858 -1.2593 -0.1218  2.2731
 9938SOL     OW40742   8.175   8.728   1.787  0.0698  0.0520 -0.0515
 9938SOL    HW140743   8.119   8.758   1.864 -0.2988 -0.2953 -0.1824
 9938SOL    HW240744   8.249   8.794   1.772 -0.3046  0.5119  0.1178
 9939SOL     OW40745   2.492   7.400   3.274  0.2654  0.4906  0.5895
 9939SOL    HW140746   2.489   7.313   3.225  0.6253  1.5675 -1.4045
 9939SOL    HW240747   2.408   7.411   3.327 -0.1188 -0.7054  0.2508
 9940SOL     OW40748   0.848   5.350   3.346 -0.6203  0.4786  0.2329
 9940SOL    HW140749   0.874   5.434   3.296 -0.2710  0.7950  0.9412
 9940SOL    HW240750   0.850   5.273   3.283  0.9811  0.6791  0.0060
 9941SOL     OW40751   7.543   0.115   5.044  0.2626  0.7181 -0.1065
 9941SOL    HW140752   7.640   0.103   5.020  0.0108 -0.3645 -0.6389
 9941SOL    HW240753   7.536   0.160   5.133  1.2587  0.9678 -0.1456
 9942SOL     OW40754   1.130   6.921   3.657 -0.3375  0.1761 -0.5355
 9942SOL    HW140755   1.053   6.938   3.597 -0.1889 -1.7509 -1.3136
 9942SOL    HW240756   1.199   6.867   3.609  0.5263  0.0308  0.8228
 9943SOL     OW40757   9.123   2.815   4.467 -0.1922 -0.1891  0.7720
 9943SOL    HW140758   9.168   2.894   4.426 -2.5933  0.6440 -0.3134
 9943SOL    HW240759   9.066   2.844   4.543 -1.6406 -0.7700 -0.0694
 9944SOL     OW40760   7.553   2.189   0.731  0.1847  0.8529  0.0091
 9944SOL    HW140761   7.638   2.239   0.720 -0.6341  2.4923  0.9445
 9944SOL    HW240762   7.476   2.253   0.733 -1.1159 -0.6225 -1.1963
 9945SOL     OW40763   9.379   7.630   4.920 -0.5598 -0.1918 -0.0792
 9945SOL    HW140764   9.365   7.715   4.869 -0.0328  0.0934  0.2494
 9945SOL    HW240765   9.299   7.571   4.909 -1.4560  0.8623  0.6761
 9946SOL     OW40766   8.538   0.809   1.862  0.1418  0.0245  0.4059
 9946SOL    HW140767   8.630   0.832   1.893  0.2969 -1.2848  0.9307
 9946SOL    HW240768   8.471   0.833   1.932  0.2052 -0.2202  0.5480
 9947SOL     OW40769   3.179   4.837   5.201  0.4512 -0.1008  0.0281
 9947SOL    HW140770   3.199   4.796   5.112 -0.0136 -0.0915 -0.0809
 9947SOL    HW240771   3.083   4.823   5.223  0.3610  0.6620  0.1329
 9948SOL     OW40772   5.840   0.366   1.264  0.0038 -0.1414  0.0728
 9948SOL    HW140773   5.745   0.335   1.273  0.6429 -2.0429  0.4883
 9948SOL    HW240774   5.853   0.450   1.318 -1.5339  0.3793 -0.3430
 9949SOL     OW40775   5.344   1.083   1.295  0.6135 -0.1684  0.3627
 9949SOL    HW140776   5.342   1.056   1.391  1.3449 -0.6103  0.2607
 9949SOL    HW240777   5.305   1.010   1.239 -1.5069  0.8574  0.4865
 9950SOL     OW40778   0.788   5.593   4.442 -0.4714 -0.0279 -0.1455
 9950SOL    HW140779   0.690   5.614   4.445 -0.4131  0.1690  0.7271
 9950SOL    HW240780   0.810   5.530   4.517  0.2912  0.9416  0.4596
 9951SOL     OW40781   3.149   5.130   5.587  0.4862 -0.3095 -0.1707
 9951SOL    HW140782   3.202   5.139   5.502 -1.2317  0.3406 -1.1929
 9951SOL    HW240783   3.200   5.073   5.652  2.1815 -0.1510 -1.3347
 9952SOL     OW40784   3.170   9.197   1.288 -0.3579  0.5668  0.7207
 9952SOL    HW140785   3.156   9.133   1.363 -0.6989 -0.4959 -0.2390
 9952SOL    HW240786   3.249   9.254   1.307  1.5198 -1.8721  0.4307
 9953SOL     OW40787   8.169   8.810   1.068 -0.0885  0.1968 -0.3689
 9953SOL    HW140788   8.214   8.878   1.009 -0.7328 -1.5731 -2.9680
 9953SOL    HW240789   8.150   8.727   1.015 -0.9544 -1.3485  2.2875
 9954SOL     OW40790   0.522   8.770   2.198 -0.5656  0.1008  0.3794
 9954SOL    HW140791   0.527   8.841   2.128 -1.0656 -0.8561 -0.6395
 9954SOL    HW240792   0.454   8.702   2.172 -0.0261 -0.8033  1.2993
 9955SOL     OW40793   1.521   6.103   1.724 -0.6632  0.4365  0.0010
 9955SOL    HW140794   1.585   6.033   1.694  1.0551  1.1243  1.9103
 9955SOL    HW240795   1.461   6.129   1.648  0.2838 -1.3442 -1.3773
 9956SOL     OW40796   0.824   0.214   3.745  0.9856  0.1067  0.0278
 9956SOL    HW140797   0.805   0.278   3.819  0.8392 -1.0822  1.0343
 9956SOL    HW240798   0.872   0.134   3.781  0.0026 -0.9667 -0.9825
 9957SOL     OW40799   8.875   8.997   0.642  0.4026  0.2153 -0.1385
 9957SOL    HW140800   8.902   8.918   0.697 -0.2578 -0.9178 -1.4435
 9957SOL    HW240801   8.957   9.042   0.607  0.7581 -0.2731  0.0566
 9958SOL     OW40802   1.403   8.519   2.804  0.3903  0.2062 -0.2637
 9958SOL    HW140803   1.463   8.599   2.806  1.0675 -0.3105  0.5180
 9958SOL    HW240804   1.382   8.490   2.897 -0.5294 -0.0283 -0.5353
 9959SOL     OW40805   5.862   9.385   4.024  0.1638  0.7401  0.2981
 9959SOL    HW140806   5.778   9.339   3.995  0.3385  0.0811  0.8429
 9959SOL    HW240807   5.876   9.466   3.967 -0.1755  0.1579 -0.6245
 9960SOL     OW40808   9.935   7.266   3.629  0.2572  0.1017 -0.0344
 9960SOL    HW140809   9.876   7.194   3.666  0.3795  1.3671  2.8072
 9960SOL    HW240810  10.023   7.264   3.676  1.1669  0.5408 -1.6830
 9961SOL     OW40811   1.948   5.330   3.264 -0.2489  0.0598  0.2570
 9961SOL    HW140812   2.012   5.384   3.318 -2.2143  1.4499  1.2808
 9961SOL    HW240813   1.892   5.392   3.208 -0.2599 -1.1670 -1.1199
 9962SOL     OW40814   1.415   2.978   0.377  0.0007  0.4358  0.1553
 9962SOL    HW140815   1.333   3.032   0.398 -0.5226 -0.2361 -0.1358
 9962SOL    HW240816   1.493   3.039   0.367  0.1897  0.8454  3.5030
 9963SOL     OW40817   7.616   0.198   3.592  0.2045  0.3427  0.3196
 9963SOL    HW140818   7.550   0.266   3.625  0.0814  0.5527 -0.3397
 9963SOL    HW240819   7.706   0.240   3.585  1.2292 -0.8927  4.6641
 9964SOL     OW40820   8.311   2.848   2.175  0.3315  0.4479  0.1673
 9964SOL    HW140821   8.408   2.850   2.200  0.0778  1.6682  1.0894
 9964SOL    HW240822   8.258   2.808   2.250 -0.1029  1.5795  0.4759
 9965SOL     OW40823   4.687   1.815   2.402  0.4021  0.0061 -0.4361
 9965SOL    HW140824   4.781   1.841   2.426  0.3049 -0.1179  0.0752
 9965SOL    HW240825   4.630   1.896   2.399 -0.1262 -0.2249  2.1377
 9966SOL     OW40826   7.614   7.363   1.487 -0.1169  0.3524 -0.4284
 9966SOL    HW140827   7.517   7.379   1.470 -0.5227  0.1840  1.6813
 9966SOL    HW240828   7.655   7.446   1.525  0.6730  0.5476 -1.6626
 9967SOL     OW40829   1.300   7.232   0.746  0.1194 -0.1955  0.3569
 9967SOL    HW140830   1.286   7.174   0.665 -1.1081  1.3849 -0.5949
 9967SOL    HW240831   1.321   7.174   0.825  1.4011 -1.7631 -1.0946
 9968SOL     OW40832   8.554   6.309   3.167  0.6387  0.2941  0.3385
 9968SOL    HW140833   8.599   6.223   3.143 -0.9401 -0.3204 -0.4594
 9968SOL    HW240834   8.456   6.301   3.152  0.4604  2.2115  0.3544
 9969SOL     OW40835   2.041   4.913   3.111 -0.5831 -0.4488 -0.0008
 9969SOL    HW140836   2.057   4.929   3.014  1.1643 -1.1330  0.1529
 9969SOL    HW240837   2.080   4.824   3.137 -1.2801 -0.3965  1.2632
 9970SOL     OW40838   1.770   9.539   2.188 -0.4128  0.1888  0.5508
 9970SOL    HW140839   1.738   9.633   2.203  0.7735  0.3510  2.2761
 9970SOL    HW240840   1.805   9.502   2.274 -1.0212 -1.9135 -0.0759
 9971SOL     OW40841   2.661   1.847   5.174  0.0735  0.0517  0.1432
 9971SOL    HW140842   2.591   1.806   5.232 -0.0141  2.4592  1.8367
 9971SOL    HW240843   2.749   1.843   5.221  0.5086 -0.3772 -0.7152
 9972SOL     OW40844   3.507   0.267   2.730  0.2132 -0.5648  0.0492
 9972SOL    HW140845   3.552   0.221   2.654  2.8359 -0.9908  1.8149
 9972SOL    HW240846   3.463   0.351   2.697 -0.2478 -1.6696 -2.2320
 9973SOL     OW40847   0.869   0.798   2.011 -0.1182  0.0088 -0.3028
 9973SOL    HW140848   0.805   0.764   2.080  1.2346  1.9768  1.9824
 9973SOL    HW240849   0.886   0.726   1.943 -2.2545 -1.6181  0.8250
 9974SOL     OW40850   0.806   0.389   3.360  0.2413  0.4583  0.0416
 9974SOL    HW140851   0.784   0.477   3.320  1.4124  0.3028 -0.9797
 9974SOL    HW240852   0.845   0.403   3.451  0.3549  0.9942 -0.0869
 9975SOL     OW40853   1.225   4.807   5.199  0.1063 -0.7949 -0.2323
 9975SOL    HW140854   1.181   4.719   5.216 -0.8913 -0.0612  1.1329
 9975SOL    HW240855   1.247   4.815   5.102 -2.1240 -1.5203 -0.8460
 9976SOL     OW40856   1.969   6.296   4.975  0.2869 -0.0511  0.1116
 9976SOL    HW140857   2.052   6.339   4.942 -0.4317  0.9914 -0.3669
 9976SOL    HW240858   1.991   6.207   5.016  1.8582  1.0262  1.6684
 9977SOL     OW40859   6.572   1.279   4.300  0.2132 -0.3523  0.0651
 9977SOL    HW140860   6.622   1.314   4.379 -0.3381  1.3489 -0.3311
 9977SOL    HW240861   6.619   1.198   4.264  0.7583 -0.8260  1.7996
 9978SOL     OW40862   9.323   0.843   0.326  0.0150 -0.3196 -0.4126
 9978SOL    HW140863   9.367   0.767   0.277 -0.4891  0.0883 -1.5196
 9978SOL    HW240864   9.332   0.927   0.272 -0.8110  0.0799  0.0583
 9979SOL     OW40865   2.804   9.221   4.738 -0.3175 -0.3778 -0.2410
 9979SOL    HW140866   2.784   9.197   4.643  1.6320 -1.2447 -0.4569
 9979SOL    HW240867   2.772   9.313   4.757 -2.8633 -1.0449 -1.0446
 9980SOL     OW40868   8.410   7.843   1.286  0.0316  0.3819 -0.6897
 9980SOL    HW140869   8.397   7.915   1.217 -0.5547  0.3255 -0.6417
 9980SOL    HW240870   8.374   7.757   1.251  0.6825  0.1210 -0.7245
 9981SOL     OW40871   4.364   2.940   0.866 -0.2721  0.1465  0.0885
 9981SOL    HW140872   4.432   2.984   0.925 -0.7542 -0.8950  1.4536
 9981SOL    HW240873   4.385   2.959   0.770  0.8573  1.3885  0.5737
 9982SOL     OW40874   4.460   1.591   5.004 -0.2192  0.1171 -0.5160
 9982SOL    HW140875   4.491   1.623   5.094 -1.6151 -0.2981  0.1318
 9982SOL    HW240876   4.449   1.491   5.006 -0.9420  0.1832 -0.9190
 9983SOL     OW40877   2.240   5.000   1.271  0.2437 -0.0212  0.0343
 9983SOL    HW140878   2.333   4.964   1.282  0.4178 -0.1685 -1.6957
 9983SOL    HW240879   2.185   4.975   1.351  1.2684 -1.2728  0.3798
 9984SOL     OW40880   3.855   2.180   1.326  0.1218 -0.1167  0.3255
 9984SOL    HW140881   3.920   2.110   1.358  0.5537  0.2401  0.2262
 9984SOL    HW240882   3.902   2.267   1.314 -0.3328  0.0932  0.0424
 9985SOL     OW40883   2.558   3.461   4.648 -0.6753 -0.3900 -0.2660
 9985SOL    HW140884   2.543   3.496   4.741  2.3206  2.3306 -0.7270
 9985SOL    HW240885   2.488   3.496   4.587 -0.5060  0.8800  0.2528
 9986SOL     OW40886   2.436   8.375   4.117  0.3523 -0.2086 -0.5242
 9986SOL    HW140887   2.466   8.470   4.107 -1.1255  0.5425  1.8407
 9986SOL    HW240888   2.437   8.350   4.213 -1.6093 -1.8149 -0.8978
 9987SOL     OW40889   0.469   0.938   4.036  0.2996  0.2951  0.1633
 9987SOL    HW140890   0.426   0.882   4.107  3.2726 -1.3923  0.7351
 9987SOL    HW240891   0.568   0.938   4.050  0.6878  2.2939 -2.3402
 9988SOL     OW40892   5.195   8.871   1.735  0.1030  0.1140  0.1019
 9988SOL    HW140893   5.272   8.838   1.790 -1.1177  1.0211  2.3975
 9988SOL    HW240894   5.228   8.937   1.668  1.5185 -0.5303  0.1421
 9989SOL     OW40895   9.097   0.114   4.839 -0.6156 -0.1357  0.4414
 9989SOL    HW140896   9.005   0.132   4.874 -0.7308  0.8231 -0.3615
 9989SOL    HW240897   9.158   0.190   4.864 -0.5069  0.1649 -0.7366
 9990SOL     OW40898   9.306   0.324   4.052  0.2946  0.8165  0.1032
 9990SOL    HW140899   9.312   0.241   3.997  0.1320  1.1116 -0.3611
 9990SOL    HW240900   9.237   0.384   4.013 -0.1461  0.8289  0.8929
 9991SOL     OW40901   0.821   8.176   4.846 -0.0181 -0.3607  0.2972
 9991SOL    HW140902   0.741   8.144   4.896 -0.1206  0.3341  0.5861
 9991SOL    HW240903   0.816   8.145   4.751 -0.8133 -0.0108  0.2220
 9992SOL     OW40904   7.115   4.037   0.775  0.0783  0.2047 -0.3071
 9992SOL    HW140905   7.105   3.946   0.815  0.7993 -0.1025 -0.8186
 9992SOL    HW240906   7.210   4.066   0.780 -0.0660  0.7354 -0.5656
 9993SOL     OW40907   6.300   1.038   3.042  0.0370  0.2026  0.2945
 9993SOL    HW140908   6.351   1.088   3.112  0.5708 -1.0465  0.8067
 9993SOL    HW240909   6.226   0.986   3.085  1.2727 -1.7263  0.1205
 9994SOL     OW40910   1.712   2.212   3.054  0.1277  0.2620 -0.4435
 9994SOL    HW140911   1.793   2.219   2.996 -0.0141  2.0277 -0.4720
 9994SOL    HW240912   1.722   2.135   3.116  0.4424 -1.4345 -2.5538
 9995SOL     OW40913   1.815   2.366   4.287 -0.0549 -0.0812 -0.0322
 9995SOL    HW140914   1.850   2.459   4.278 -1.9061  0.6687  0.1050
 9995SOL    HW240915   1.832   2.333   4.380 -0.3133  0.5292  0.2367
 9996SOL     OW40916   1.135   9.590   1.236 -0.3381  0.2723 -0.1498
 9996SOL    HW140917   1.088   9.547   1.312 -1.0290  1.2558 -0.0084
 9996SOL    HW240918   1.133   9.529   1.157  1.3529 -1.2167  0.9356
 9997SOL     OW40919   1.893   3.773   2.773  0.4952 -0.5772  0.0874
 9997SOL    HW140920   1.857   3.681   2.791 -0.3809 -0.0616  1.0238
 9997SOL    HW240921   1.892   3.826   2.858  0.1234  0.6010 -0.6413
 9998SOL     OW40922   8.051   8.040   2.025  0.3566 -0.0865  0.0435
 9998SOL    HW140923   8.127   8.103   2.040 -0.3807  0.6491  0.6972
 9998SOL    HW240924   8.013   8.012   2.113 -0.0103 -0.6025 -0.2773
 9999SOL     OW40925   1.777   9.594   0.642  0.1391 -0.2029 -0.0942
 9999SOL    HW140926   1.703   9.644   0.687 -2.3345 -2.1634 -1.8032
 9999SOL    HW240927   1.740   9.509   0.603  3.6291 -2.0119  0.3580
10000SOL     OW40928   8.890   4.438   1.862 -0.6134  0.3601 -0.0300
10000SOL    HW140929   8.887   4.434   1.962 -0.8017  1.2183  0.0021
10000SOL    HW240930   8.845   4.357   1.824  0.5976 -0.6239  0.5783
10001SOL     OW40931   8.144   8.499   3.045 -0.1061 -0.0610 -0.2080
10001SOL    HW140932   8.204   8.432   3.001  1.3552  2.7738 -2.6854
10001SOL    HW240933   8.055   8.499   2.998 -0.4241 -0.8627  0.3789
10002SOL     OW40934   5.326   0.032   1.812  0.1784  0.6530 -0.5896
10002SOL    HW140935   5.358   0.113   1.861 -0.4166  1.0249 -0.8089
10002SOL    HW240936   5.404  -0.019   1.777  0.6058  0.4343  0.6657
10003SOL     OW40937   1.321   5.876   0.831 -0.4107  0.2512  0.5019
10003SOL    HW140938   1.264   5.863   0.750  2.3356  0.6574 -1.5519
10003SOL    HW240939   1.351   5.971   0.836  0.3986 -0.0428  1.3491
10004SOL     OW40940   2.251   0.574   1.177  0.0397 -0.3221 -0.3301
10004SOL    HW140941   2.265   0.487   1.129 -1.2670 -0.3853 -0.6014
10004SOL    HW240942   2.330   0.634   1.160  0.0155 -0.6933 -1.8104
10005SOL     OW40943   9.595   2.594   2.958  0.0715  0.2705  0.2243
10005SOL    HW140944   9.506   2.550   2.964 -0.5385  1.4582  0.0932
10005SOL    HW240945   9.585   2.684   2.915  1.3465  0.3685  0.1130
10006SOL     OW40946   4.484   8.157   0.094 -0.2637  0.7809  0.7559
10006SOL    HW140947   4.447   8.245   0.124  2.4519  1.5962  1.8958
10006SOL    HW240948   4.530   8.170   0.006 -0.3691  0.3811  0.6431
10007SOL     OW40949   8.077   6.655   2.704  0.4455 -0.0498 -0.1546
10007SOL    HW140950   8.110   6.601   2.781  0.8964 -0.1853 -0.4336
10007SOL    HW240951   8.135   6.736   2.693  1.6023 -1.0271 -1.5314
10008SOL     OW40952   7.411   7.237   4.008 -0.3286  0.0373  0.0999
10008SOL    HW140953   7.346   7.213   4.080  0.9422  0.0768  1.2733
10008SOL    HW240954   7.496   7.186   4.021 -0.4468 -0.7526 -1.9907
10009SOL     OW40955   9.418   4.152   2.909  0.0475 -0.0899  0.4994
10009SOL    HW140956   9.376   4.227   2.857  0.3468  0.0001  0.3872
10009SOL    HW240957   9.349   4.108   2.966 -0.0137  0.6106  0.9693
10010SOL     OW40958   3.423   5.099   0.226  0.1757 -0.4722 -0.4445
10010SOL    HW140959   3.380   5.187   0.206  0.0546 -0.6996 -1.2382
10010SOL    HW240960   3.418   5.080   0.324 -1.5636 -0.5055 -0.5205
10011SOL     OW40961   3.145   9.252   1.013  0.1054 -0.0651  0.4474
10011SOL    HW140962   3.144   9.159   0.977  1.9229 -0.1083  0.4682
10011SOL    HW240963   3.140   9.249   1.113  3.3041 -0.2931  0.6359
10012SOL     OW40964   2.238   2.129   2.553  0.2293  0.0667 -0.2752
10012SOL    HW140965   2.187   2.208   2.588 -0.0074  0.7782 -2.1597
10012SOL    HW240966   2.268   2.148   2.460  2.0730 -1.2224  0.0350
10013SOL     OW40967   8.191   5.208   4.679  0.7096 -0.3058  0.1361
10013SOL    HW140968   8.233   5.297   4.662  0.8261 -0.3604  0.1355
10013SOL    HW240969   8.218   5.176   4.769  1.6930 -0.9179 -0.3708
10014SOL     OW40970   0.655   7.377   4.419 -0.1578  0.1236  0.5847
10014SOL    HW140971   0.568   7.413   4.453 -0.8619  0.2769 -1.2860
10014SOL    HW240972   0.691   7.310   4.483 -2.2711 -0.8236  0.8119
10015SOL     OW40973   7.366   9.583   3.000 -0.3823  0.0911 -0.1681
10015SOL    HW140974   7.463   9.558   2.991 -0.1415  0.9702 -0.1249
10015SOL    HW240975   7.326   9.592   2.909  0.2353  2.1545 -0.2667
10016SOL     OW40976   1.268   1.205   1.302 -0.3797 -0.2121  0.0324
10016SOL    HW140977   1.260   1.303   1.322 -2.5873  0.3486 -3.2553
10016SOL    HW240978   1.177   1.164   1.301  0.4206 -2.0128 -0.0418
10017SOL     OW40979   9.016   9.665   2.162 -0.2528  0.0843 -0.3570
10017SOL    HW140980   8.943   9.598   2.153  0.9163 -0.9310 -2.7251
10017SOL    HW240981   9.103   9.625   2.132  0.6223  2.3816 -1.0267
10018SOL     OW40982   7.459   9.812   3.697  0.0446 -0.0281 -0.0508
10018SOL    HW140983   7.452   9.868   3.615 -0.4712  0.0210  0.0243
10018SOL    HW240984   7.456   9.871   3.778  2.4504  0.1013 -0.0229
10019SOL     OW40985   4.919   0.725   5.297 -0.1841 -0.1484 -0.6666
10019SOL    HW140986   4.938   0.664   5.374  0.3255  1.2905  0.3716
10019SOL    HW240987   4.979   0.700   5.220 -0.0752 -1.0293 -0.3116
10020SOL     OW40988   9.987   0.529   0.761 -0.7775  0.0268  0.5033
10020SOL    HW140989   9.992   0.529   0.661 -2.3815  0.7964  0.4100
10020SOL    HW240990  10.070   0.570   0.799  0.1468 -0.9036 -0.4878
10021SOL     OW40991   8.372   6.752   1.143 -0.3110  0.2031  0.3829
10021SOL    HW140992   8.337   6.658   1.133  0.6291 -0.1196  0.0782
10021SOL    HW240993   8.346   6.805   1.062 -0.8713  0.2174  0.5684
10022SOL     OW40994   7.450   0.819   5.237 -0.4280 -0.3563 -0.4455
10022SOL    HW140995   7.464   0.823   5.138  1.2758 -1.4759 -0.2651
10022SOL    HW240996   7.505   0.889   5.282  0.5600 -1.3230 -0.1313
10023SOL     OW40997   9.200   3.415   1.029  0.1395 -0.7575 -0.1497
10023SOL    HW140998   9.165   3.342   0.969  1.6120 -2.2080  0.7274
10023SOL    HW240999   9.146   3.418   1.113 -3.0701  2.4357 -2.1770
10024SOL     OW41000   1.783   1.358   3.312  0.0113  0.3966  0.2562
10024SOL    HW141001   1.692   1.398   3.318 -0.5106 -0.9461  1.5639
10024SOL    HW241002   1.841   1.394   3.385 -0.4603 -1.1884  1.4383
10025SOL     OW41003   4.333   9.751   2.027 -0.6119  0.0255  0.2900
10025SOL    HW141004   4.381   9.818   2.084  1.2842 -0.6850 -0.4510
10025SOL    HW241005   4.236   9.775   2.023 -0.1215  2.2248  0.7525
10026SOL     OW41006   8.354   6.476   5.530 -0.2595  0.6870 -0.1968
10026SOL    HW141007   8.291   6.404   5.502 -0.2476  0.9154 -0.8130
10026SOL    HW241008   8.432   6.435   5.577 -0.0897  0.2554 -0.8373
10027SOL     OW41009   1.896   1.442   4.440 -0.2441  0.0485 -0.1459
10027SOL    HW141010   1.822   1.382   4.472  0.5712 -0.8881 -0.0161
10027SOL    HW241011   1.884   1.533   4.480 -0.3861 -0.5600  1.2160
10028SOL     OW41012   4.141   7.096   1.646 -0.7280 -0.0064 -0.3139
10028SOL    HW141013   4.165   7.050   1.731 -1.5398  1.6391  0.8452
10028SOL    HW241014   4.082   7.038   1.591  1.3699 -1.8696 -0.6753
10029SOL     OW41015   2.824   9.282   1.020 -0.3267  0.2304  0.3777
10029SOL    HW141016   2.810   9.337   1.103 -0.9229 -1.2749  1.2996
10029SOL    HW241017   2.922   9.263   1.008 -0.4388 -1.6481  2.1546
10030SOL     OW41018   4.110   5.901   2.796 -0.5653  0.5843  0.0973
10030SOL    HW141019   4.073   5.825   2.742  0.2622 -0.0314  0.3770
10030SOL    HW241020   4.077   5.893   2.891  1.7459 -1.0437  0.8036
10031SOL     OW41021   9.987   9.860   1.954  0.4554 -0.6874 -0.3926
10031SOL    HW141022  10.080   9.859   1.916  0.9003  2.2399  0.4768
10031SOL    HW241023   9.920   9.863   1.879  1.2284  1.7208 -1.0413
10032SOL     OW41024   2.001   7.914   3.198 -1.0422  0.5445  0.3755
10032SOL    HW141025   1.904   7.929   3.220 -1.9258 -2.8043 -0.8316
10032SOL    HW241026   2.037   7.839   3.254  0.2532  0.4037 -0.6196
10033SOL     OW41027   1.473   6.440   3.754 -0.0236  0.6453  0.2679
10033SOL    HW141028   1.412   6.482   3.687  0.3430 -1.4369 -1.3896
10033SOL    HW241029   1.562   6.484   3.750  0.0938  0.3137 -0.8416
10034SOL     OW41030   9.734   8.610   4.492  0.6501  0.2839 -0.3786
10034SOL    HW141031   9.703   8.616   4.397  1.5642  0.1679 -0.6941
10034SOL    HW241032   9.758   8.515   4.514 -0.8391  0.0770  0.3875
10035SOL     OW41033   1.375   7.855   0.062  0.1158 -0.3817 -0.4487
10035SOL    HW141034   1.361   7.757   0.072 -2.5637 -0.4659 -4.0673
10035SOL    HW241035   1.301   7.904   0.109  0.3606 -0.1412 -0.3129
10036SOL     OW41036   8.277   5.047   2.864 -0.6756  0.4627  0.3794
10036SOL    HW141037   8.233   5.129   2.903 -1.6436  0.9927 -1.7689
10036SOL    HW241038   8.279   4.975   2.933 -1.7039  1.6084  1.6456
10037SOL     OW41039   8.359   8.088   3.136  0.1446 -0.5127  0.3099
10037SOL    HW141040   8.412   8.143   3.072 -0.2944 -1.3476 -0.7813
10037SOL    HW241041   8.264   8.120   3.136  0.1417 -0.5187  0.5496
10038SOL     OW41042   8.097   0.226   4.904  0.2709  0.8099  0.6449
10038SOL    HW141043   8.055   0.290   4.968 -1.4286  0.5924 -0.2238
10038SOL    HW241044   8.099   0.135   4.945  0.3617  0.9196  0.8850
10039SOL     OW41045   9.737   6.618   0.926  0.3824  0.7731 -0.0077
10039SOL    HW141046   9.661   6.557   0.901  0.5266  0.6138 -0.0577
10039SOL    HW241047   9.775   6.659   0.843  2.8342 -2.0819 -0.3856
10040SOL     OW41048   0.675   4.210   5.078  0.0657 -0.5133  0.4708
10040SOL    HW141049   0.613   4.150   5.027 -0.3233  1.9880 -2.1305
10040SOL    HW241050   0.770   4.181   5.062 -0.0716 -0.0134 -1.4296
10041SOL     OW41051   3.482   8.520   2.598 -0.2292 -0.8214  0.2574
10041SOL    HW141052   3.581   8.537   2.589 -0.1114 -0.4293  2.0710
10041SOL    HW241053   3.466   8.460   2.677 -1.5640  0.4446  0.9711
10042SOL     OW41054   1.831   6.253   4.021 -1.0723 -0.2704  0.1986
10042SOL    HW141055   1.807   6.169   3.972 -1.2125 -0.6137  0.8475
10042SOL    HW241056   1.747   6.303   4.042 -1.1702 -1.0716  1.7585
10043SOL     OW41057   2.059   6.146   3.584 -0.2176 -0.4341 -0.2986
10043SOL    HW141058   2.100   6.161   3.494  1.2126  3.2606  0.8762
10043SOL    HW241059   1.960   6.159   3.579 -0.1263 -0.1098 -1.3288
10044SOL     OW41060   1.635   6.811   1.157 -0.2599 -0.4388 -0.3281
10044SOL    HW141061   1.702   6.756   1.108  0.6976  0.1737  0.2708
10044SOL    HW241062   1.659   6.908   1.149 -0.7323 -0.2555  0.3851
10045SOL     OW41063   0.672   5.837   5.554  0.0551 -0.2859 -0.4847
10045SOL    HW141064   0.603   5.780   5.600 -0.3658 -0.6357 -1.5209
10045SOL    HW241065   0.627   5.915   5.512  0.6375  0.8190  0.9285
10046SOL     OW41066   0.175   7.331   2.056 -0.0350 -0.0115 -0.2743
10046SOL    HW141067   0.093   7.373   2.016  0.7504  1.2665 -0.5558
10046SOL    HW241068   0.205   7.386   2.135  0.8905 -0.1401 -0.5324
10047SOL     OW41069   9.188   3.509   4.417 -0.3013  0.0090 -1.0095
10047SOL    HW141070   9.100   3.490   4.374 -0.4278  1.0297 -1.2211
10047SOL    HW241071   9.262   3.482   4.355 -0.4431 -1.7284 -0.4472
10048SOL     OW41072   7.514   0.261   5.283 -0.0502 -0.5881 -0.0543
10048SOL    HW141073   7.479   0.185   5.338 -0.0866  0.9693  2.1031
10048SOL    HW241074   7.585   0.310   5.333 -0.0984  0.8962 -1.3697
10049SOL     OW41075   1.358   9.039   0.987  0.1643 -0.2265  0.4418
10049SOL    HW141076   1.392   8.954   0.946 -1.4094 -0.7031  0.0890
10049SOL    HW241077   1.315   9.095   0.916  1.8548  1.2097  0.5406
10050SOL     OW41078   1.548   9.498   3.195  0.1576  0.0057 -0.2039
10050SOL    HW141079   1.550   9.534   3.288  0.8761 -0.2849 -0.1089
10050SOL    HW241080   1.639   9.502   3.155 -0.2663  0.7296 -1.1315
10051SOL     OW41081   7.112   0.855   2.532 -0.0995 -0.5318  0.4021
10051SOL    HW141082   7.138   0.802   2.451 -0.7584 -1.4295  0.7696
10051SOL    HW241083   7.038   0.808   2.580 -0.1902  0.3552  1.1422
10052SOL     OW41084   5.104   9.762   1.628 -0.6706  0.3011 -0.3103
10052SOL    HW141085   5.112   9.808   1.716  0.3637  0.0748 -0.2828
10052SOL    HW241086   5.061   9.673   1.641 -1.8037  0.8390 -0.2361
10053SOL     OW41087   9.558   4.673   3.579  0.5582  0.3381  0.2234
10053SOL    HW141088   9.632   4.609   3.561 -0.8277 -1.1045 -0.3834
10053SOL    HW241089   9.482   4.625   3.624 -0.2557  1.6689  0.2954
10054SOL     OW41090   7.092   1.687   2.501 -0.5283  0.0760 -0.3050
10054SOL    HW141091   7.128   1.601   2.537  2.6846  0.6809 -1.8731
10054SOL    HW241092   7.059   1.673   2.408 -0.9623  0.3275 -0.1899
10055SOL     OW41093   7.909   3.161   2.491 -0.1030  0.6882 -0.7012
10055SOL    HW141094   7.936   3.160   2.394  3.1454 -1.9391  0.1234
10055SOL    HW241095   7.970   3.222   2.542 -0.1307  0.0216  0.1306
10056SOL     OW41096   8.644   2.090   1.848 -0.7542  0.4855  0.3074
10056SOL    HW141097   8.688   2.159   1.792 -0.2531 -1.4911 -1.8013
10056SOL    HW241098   8.556   2.066   1.809 -2.1989  1.9105  2.5868
10057SOL     OW41099   2.710   1.808   1.961  0.8308 -0.2031 -0.1960
10057SOL    HW141100   2.754   1.764   2.039  0.1549  1.6169  1.2583
10057SOL    HW241101   2.779   1.855   1.905  1.1278 -0.1707  0.1996
10058SOL     OW41102   1.690   0.489   5.304  0.1936 -0.5875 -0.0933
10058SOL    HW141103   1.651   0.561   5.362  2.7867  0.2774  0.6535
10058SOL    HW241104   1.636   0.482   5.220  1.8745  4.7163 -1.8138
10059SOL     OW41105   8.985   2.537   3.832 -0.1597 -0.3916 -0.2620
10059SOL    HW141106   8.962   2.444   3.860  1.7319 -0.4566  1.1631
10059SOL    HW241107   8.984   2.543   3.732 -2.2443 -1.4019 -0.3390
10060SOL     OW41108   2.983   0.283   1.607  0.4770  0.2824 -0.5601
10060SOL    HW141109   3.014   0.194   1.640  0.9445  0.3633 -0.7691
10060SOL    HW241110   2.884   0.289   1.614  0.3438 -0.6404 -1.4867
10061SOL     OW41111   4.479   1.706   2.613 -0.1703 -0.1524  0.3803
10061SOL    HW141112   4.456   1.803   2.605 -0.5282 -0.4063 -1.9838
10061SOL    HW241113   4.492   1.667   2.522 -0.5341 -2.4555  1.2757
10062SOL     OW41114   2.451   7.209   3.681 -0.2896  0.5435 -0.4482
10062SOL    HW141115   2.541   7.232   3.717  1.9434 -0.9919 -4.7567
10062SOL    HW241116   2.426   7.274   3.608 -1.9111 -0.0671 -0.4713
10063SOL     OW41117   4.480   0.274   1.507  0.1644 -0.3286 -0.1243
10063SOL    HW141118   4.510   0.333   1.582  1.4847  1.6685 -2.1765
10063SOL    HW241119   4.519   0.183   1.519  2.5630  0.7172  0.2299
10064SOL     OW41120   5.182   0.705   0.680 -0.0147 -0.1697 -0.2987
10064SOL    HW141121   5.120   0.629   0.662 -2.3184  0.8518  2.8285
10064SOL    HW241122   5.208   0.704   0.777  0.1803  2.7757 -0.2641
10065SOL     OW41123   2.713   3.693   3.401 -0.6927 -0.2670  0.3178
10065SOL    HW141124   2.807   3.702   3.433 -0.6992 -1.9588  0.8579
10065SOL    HW241125   2.660   3.772   3.430  1.3238  2.3999 -2.8320
10066SOL     OW41126   9.007   5.154   2.162  0.2492  0.5989  0.1439
10066SOL    HW141127   9.029   5.245   2.126 -0.6511  0.9121  0.3704
10066SOL    HW241128   9.091   5.102   2.175  0.6779  0.9611 -1.1511
10067SOL     OW41129   5.211   0.193   1.247 -0.3491 -0.0479 -0.0527
10067SOL    HW141130   5.268   0.218   1.169 -0.1757 -0.7787 -0.1668
10067SOL    HW241131   5.172   0.102   1.232  1.3497 -1.0948  1.6167
10068SOL     OW41132   2.923   4.173   1.265  0.6072 -0.3493  0.5913
10068SOL    HW141133   2.874   4.258   1.282 -0.2877 -1.1629  2.2056
10068SOL    HW241134   2.988   4.186   1.190 -1.8943  0.8159 -1.4342
10069SOL     OW41135   5.538   1.681   3.248  0.3792  0.1122  0.1441
10069SOL    HW141136   5.566   1.735   3.169 -0.5472  0.9828  0.4082
10069SOL    HW241137   5.438   1.685   3.259  0.6997  2.1547  2.8800
10070SOL     OW41138   8.489   0.817   1.279  0.0977  0.6828 -0.2434
10070SOL    HW141139   8.540   0.786   1.359 -1.0733  1.3759  0.7873
10070SOL    HW241140   8.425   0.888   1.306 -0.7563  0.4789 -1.6964
10071SOL     OW41141   0.248   6.416   0.077 -0.2059 -0.8106 -0.0899
10071SOL    HW141142   0.211   6.472   0.151  2.1307  0.0698  0.4907
10071SOL    HW241143   0.207   6.443  -0.010  0.8563  1.8752  0.1856
10072SOL     OW41144   9.161   0.945   1.455 -0.4290 -0.1536  0.2802
10072SOL    HW141145   9.167   1.044   1.440  0.1822 -0.5759 -2.4800
10072SOL    HW241146   9.203   0.922   1.543  1.2399  1.8152  0.0183
10073SOL     OW41147   9.425   0.921   1.318  0.3054 -0.1883 -0.1110
10073SOL    HW141148   9.334   0.913   1.359  0.1167  0.5810 -0.3629
10073SOL    HW241149   9.421   0.988   1.243  1.0731 -0.1763 -0.1401
10074SOL     OW41150   7.574   9.652   3.269  0.0351 -0.1377 -0.0386
10074SOL    HW141151   7.483   9.628   3.302 -0.8649  0.6635 -1.8485
10074SOL    HW241152   7.614   9.721   3.329 -1.1150  0.5009  0.0089
10075SOL     OW41153   1.084   7.453   4.439  0.5959 -0.3213  0.4820
10075SOL    HW141154   1.030   7.466   4.356  2.2215  0.2403 -0.5021
10075SOL    HW241155   1.180   7.446   4.415  0.8484 -2.7932  2.0833
10076SOL     OW41156   1.854   3.139   1.468 -0.3061  0.0417  0.3784
10076SOL    HW141157   1.810   3.201   1.533 -1.3735  0.1535 -0.4435
10076SOL    HW241158   1.866   3.185   1.380 -1.4352 -1.0372 -0.3513
10077SOL     OW41159   8.303   2.590   2.676  0.3506 -0.3382  0.0357
10077SOL    HW141160   8.368   2.626   2.744  0.6971  0.0591 -0.5008
10077SOL    HW241161   8.324   2.494   2.658 -0.6940 -0.8891  1.6148
10078SOL     OW41162   1.757   0.959   2.668 -0.4492 -0.2724  0.4657
10078SOL    HW141163   1.806   0.923   2.747 -1.3566 -1.6330  0.4347
10078SOL    HW241164   1.821   1.010   2.609  0.5888 -0.7017  1.2020
10079SOL     OW41165   0.146   2.467   1.514 -0.4915 -0.3226  0.1806
10079SOL    HW141166   0.154   2.555   1.560  2.3154  0.7160 -2.0690
10079SOL    HW241167   0.087   2.476   1.433 -2.3287 -1.1931  1.3937
10080SOL     OW41168   3.409   0.355   3.596 -0.4210 -0.0539 -0.4259
10080SOL    HW141169   3.470   0.349   3.674 -1.2383  0.2943  0.2401
10080SOL    HW241170   3.345   0.278   3.597 -2.6500  1.7388  1.1429
10081SOL     OW41171   3.064   3.239   2.597 -0.6559 -0.1219  0.6639
10081SOL    HW141172   3.049   3.316   2.535 -0.5954  0.8525  1.8271
10081SOL    HW241173   3.160   3.235   2.623 -0.3160 -1.7164 -0.8264
10082SOL     OW41174   5.180   3.927   0.984  0.3741  0.1025 -0.1701
10082SOL    HW141175   5.249   3.857   1.000 -0.3816 -0.6316 -0.0859
10082SOL    HW241176   5.097   3.885   0.947  0.4648  1.1654 -1.6253
10083SOL     OW41177   2.177   0.460   5.250  0.0472 -0.1735 -0.5755
10083SOL    HW141178   2.165   0.511   5.165 -0.5528  2.4023  1.0185
10083SOL    HW241179   2.176   0.522   5.328  2.3261 -2.2866  1.2482
10084SOL     OW41180   0.599   7.109   2.194  0.8602  0.0094 -0.2056
10084SOL    HW141181   0.568   7.154   2.110  1.7207 -0.1439 -0.6156
10084SOL    HW241182   0.674   7.160   2.234  1.8536 -1.0494 -0.6822
10085SOL     OW41183   3.055   9.040   0.841 -0.6406  0.0890  0.1970
10085SOL    HW141184   2.983   8.971   0.840 -0.7874  0.2180 -1.8454
10085SOL    HW241185   3.034   9.111   0.774  0.2725  1.3073  1.1865
10086SOL     OW41186   0.107   8.168   1.967 -0.8296  0.1699 -0.4067
10086SOL    HW141187   0.156   8.085   1.943 -1.6634 -0.7395  0.9117
10086SOL    HW241188   0.169   8.246   1.962  0.1956 -0.6526 -0.7942
10087SOL     OW41189   0.970   1.694   2.579 -0.7476 -0.3414 -0.3901
10087SOL    HW141190   1.045   1.678   2.644 -0.8280  1.6296  0.2292
10087SOL    HW241191   1.000   1.666   2.488  0.3910 -0.5099  0.0169
10088SOL     OW41192   9.713   8.880   3.698  0.2988 -0.1977  0.5806
10088SOL    HW141193   9.807   8.897   3.726  0.5490 -0.0551 -0.3209
10088SOL    HW241194   9.657   8.861   3.778  1.2680 -1.1122  1.0526
10089SOL     OW41195   8.034   4.921   4.766  0.2702 -0.5066 -0.0383
10089SOL    HW141196   7.978   4.847   4.729 -0.6628  0.3909 -0.4352
10089SOL    HW241197   8.058   4.985   4.692  0.6731 -0.1601  0.3908
10090SOL     OW41198   9.769   0.712   4.125  0.4379 -0.2583 -0.7398
10090SOL    HW141199   9.865   0.684   4.125  0.6587  0.4703 -0.2447
10090SOL    HW241200   9.715   0.643   4.173  1.0027  0.2343  0.6374
10091SOL     OW41201   7.268   2.698   0.300 -0.2116  0.1712  0.1586
10091SOL    HW141202   7.294   2.623   0.239 -0.9164  0.0308  0.0234
10091SOL    HW241203   7.344   2.719   0.361 -0.3828 -1.3852  0.9335
10092SOL     OW41204   3.257   4.044   3.128 -0.4098 -0.1541  0.3018
10092SOL    HW141205   3.292   4.117   3.186 -1.7463  0.4013  0.4227
10092SOL    HW241206   3.213   4.083   3.047 -2.7260 -0.7131  1.2468
10093SOL     OW41207   3.402   9.947   3.824  0.2290  0.0921 -0.2416
10093SOL    HW141208   3.371  10.019   3.886  0.3641  0.0224 -0.0931
10093SOL    HW241209   3.363   9.859   3.853 -0.4010  0.2004 -0.7626
10094SOL     OW41210   2.354   1.242   3.261 -0.6695 -0.7866 -0.0044
10094SOL    HW141211   2.315   1.177   3.326  0.3566 -0.2282  1.1839
10094SOL    HW241212   2.341   1.335   3.295  1.8272 -0.5883  0.5378
10095SOL     OW41213   0.789   7.157   2.602 -0.1136  0.1192  0.1820
10095SOL    HW141214   0.775   7.249   2.640 -0.1361  1.5313 -3.1014
10095SOL    HW241215   0.715   7.097   2.633  0.6453  0.7591  3.5033
10096SOL     OW41216   7.669   2.773   3.096  0.7775 -0.5379 -0.5108
10096SOL    HW141217   7.757   2.726   3.087  0.4938 -1.1325 -0.2015
10096SOL    HW241218   7.601   2.709   3.131  1.2317  0.9939  3.5205
10097SOL     OW41219   8.921   3.521   4.370 -0.6729  0.1563 -0.1991
10097SOL    HW141220   8.886   3.614   4.380 -4.1316 -1.1553  0.6462
10097SOL    HW241221   8.928   3.478   4.460 -0.6977 -0.9778 -0.7296
10098SOL     OW41222   5.535   0.790   0.653  0.3522  0.1339 -0.0739
10098SOL    HW141223   5.461   0.791   0.720  0.4479 -0.1191  0.0364
10098SOL    HW241224   5.534   0.703   0.603  0.4940  0.1812 -0.1591
10099SOL     OW41225   2.797   4.986   0.713  0.0328  0.1373 -0.1843
10099SOL    HW141226   2.851   4.985   0.798 -1.6746 -1.2743  0.9396
10099SOL    HW241227   2.795   4.893   0.675  0.9062  0.8040 -1.8558
10100SOL     OW41228   9.023   8.242   0.519 -0.2728 -0.3152  0.1339
10100SOL    HW141229   8.943   8.300   0.538 -0.1389 -0.8835  2.5018
10100SOL    HW241230   9.003   8.183   0.440 -2.0104 -0.1219  0.4053
10101SOL     OW41231   1.214   5.734   4.106 -0.2170 -0.0820  0.2385
10101SOL    HW141232   1.139   5.793   4.076  0.1487 -0.0240 -0.5868
10101SOL    HW241233   1.286   5.790   4.146  0.8479  0.2486 -2.0182
10102SOL     OW41234   1.930   4.876   2.836  0.4327 -0.2145  0.7016
10102SOL    HW141235   1.945   4.778   2.849  0.3791 -0.3483 -0.1994
10102SOL    HW241236   1.867   4.890   2.760 -0.7407  0.4725  1.7821
10103SOL     OW41237   3.633   1.294   3.365  0.3287 -0.0124  0.2743
10103SOL    HW141238   3.666   1.202   3.385 -1.3895 -0.7399 -0.1035
10103SOL    HW241239   3.579   1.292   3.281  2.3285  1.8337 -1.0945
10104SOL     OW41240   1.151   0.864   2.909 -0.2454  0.1495  0.0596
10104SOL    HW141241   1.099   0.898   2.988  0.8581  0.8890  0.4875
10104SOL    HW241242   1.224   0.804   2.941 -0.7725 -0.8249 -0.5355
10105SOL     OW41243   1.759   9.890   3.437  0.2483 -0.2170  0.4540
10105SOL    HW141244   1.724   9.833   3.511  0.7514  0.2887  1.0847
10105SOL    HW241245   1.682   9.921   3.381 -0.0889 -0.9922  0.4716
10106SOL     OW41246   7.500   9.530   3.714  0.7856 -0.4663 -0.4426
10106SOL    HW141247   7.491   9.489   3.805  0.8481 -0.1702 -0.3016
10106SOL    HW241248   7.469   9.625   3.717 -1.2753 -1.1000 -1.2457
10107SOL     OW41249   9.992   3.541   2.203 -0.2567 -0.6254  0.4370
10107SOL    HW141250   9.983   3.590   2.117  0.7083 -1.1973  0.0102
10107SOL    HW241251  10.078   3.491   2.205 -0.8387 -1.6141  1.2269
10108SOL     OW41252   8.096   9.395   1.746 -0.1969 -0.1979  0.2717
10108SOL    HW141253   8.103   9.311   1.799 -0.7117 -1.2151 -1.2429
10108SOL    HW241254   8.002   9.406   1.712 -0.1922  1.1062  0.6533
10109SOL     OW41255   6.789   9.824   1.726 -0.1865 -0.0811 -0.5450
10109SOL    HW141256   6.756   9.742   1.679 -1.6596 -0.1070  0.4686
10109SOL    HW241257   6.750   9.905   1.683  0.5414  0.0387 -0.9802
10110SOL     OW41258   2.923   5.283   3.754  0.0392 -0.0637 -0.4643
10110SOL    HW141259   2.934   5.187   3.731  1.9969  0.0547 -0.0773
10110SOL    HW241260   2.929   5.294   3.853 -0.0023  0.4796 -0.5211
10111SOL     OW41261   4.855   7.477   1.634  0.3430  0.7800  0.1801
10111SOL    HW141262   4.814   7.422   1.561  0.4849  0.8337  0.0593
10111SOL    HW241263   4.843   7.430   1.722 -0.9720  1.3345  0.3120
10112SOL     OW41264   5.936   8.603   4.327  0.8269  0.7464 -0.2916
10112SOL    HW141265   5.921   8.700   4.309 -1.8653  0.6677  1.1837
10112SOL    HW241266   5.996   8.594   4.407  0.6998  1.2130 -0.1365
10113SOL     OW41267   9.832   6.368   4.499  0.5460  0.4285  0.6707
10113SOL    HW141268   9.741   6.411   4.491  0.2847 -0.3608 -0.8003
10113SOL    HW241269   9.835   6.312   4.582  0.2796  1.8136  1.6452
10114SOL     OW41270   1.203   9.317   1.637  0.3433  0.4525  0.0515
10114SOL    HW141271   1.227   9.221   1.653 -0.0043  0.3368 -0.1128
10114SOL    HW241272   1.104   9.325   1.627  0.4534  0.6883 -0.8816
10115SOL     OW41273   5.703   0.805   3.621  0.3576 -0.5110 -0.1322
10115SOL    HW141274   5.779   0.788   3.560  0.5723 -2.0458  0.5535
10115SOL    HW241275   5.617   0.806   3.569  0.4849 -2.3382 -0.3835
10116SOL     OW41276   2.534   8.927   4.598  0.1192  0.4961 -0.3470
10116SOL    HW141277   2.593   8.953   4.522  0.5704  2.9151  0.7585
10116SOL    HW241278   2.581   8.862   4.657  0.2207 -0.4652 -1.4751
10117SOL     OW41279   5.249   3.447   1.675 -0.1661  0.3111 -0.2567
10117SOL    HW141280   5.252   3.489   1.584 -0.2434  0.3740 -0.2309
10117SOL    HW241281   5.263   3.349   1.667 -0.6147  0.2563 -0.3796
10118SOL     OW41282   2.480   5.062   0.135 -0.5292 -0.3326 -0.0704
10118SOL    HW141283   2.522   5.108   0.057 -1.5880  0.9807  0.1151
10118SOL    HW241284   2.417   5.125   0.181  0.3806 -0.9446  2.0958
10119SOL     OW41285   4.256   9.232   2.911 -0.0873  0.0382 -0.0675
10119SOL    HW141286   4.235   9.327   2.888  1.8295  0.2758 -0.9704
10119SOL    HW241287   4.296   9.228   3.003  0.7504  0.2346 -0.4203
10120SOL     OW41288   9.425   7.737   1.983 -0.0912 -0.1341  0.1938
10120SOL    HW141289   9.455   7.811   1.923 -0.9502  0.7161  0.7974
10120SOL    HW241290   9.493   7.723   2.055 -0.2186  0.4786  0.4357
10121SOL     OW41291   3.858   2.602   5.125  0.2159  0.5565 -0.2215
10121SOL    HW141292   3.763   2.581   5.145  0.5992  0.3998  1.4793
10121SOL    HW241293   3.878   2.580   5.029 -0.7770 -1.7789  0.0942
10122SOL     OW41294   5.698   8.234   4.154  0.1120 -0.2095 -0.1866
10122SOL    HW141295   5.773   8.296   4.131  1.4642 -1.8056 -0.1642
10122SOL    HW241296   5.657   8.198   4.071  0.3071 -0.4470 -0.1798
10123SOL     OW41297   1.081   3.433   2.079  0.0626 -0.1190 -0.4415
10123SOL    HW141298   1.038   3.352   2.039 -1.2678 -0.1315  0.9734
10123SOL    HW241299   1.062   3.436   2.177 -0.7877  2.4565 -0.6576
10124SOL     OW41300   3.958   3.273   1.625  0.2889 -0.0460  0.0185
10124SOL    HW141301   4.057   3.260   1.619  0.6547  2.6454 -0.3726
10124SOL    HW241302   3.935   3.310   1.715 -0.1888  0.6457 -0.3810
10125SOL     OW41303   7.473   7.234   2.994 -0.0673  0.1296  0.5938
10125SOL    HW141304   7.509   7.156   2.943 -0.5326 -1.2972  2.4015
10125SOL    HW241305   7.374   7.240   2.980  0.1989  1.4988 -0.9577
10126SOL     OW41306   5.002   9.445   1.032  0.6672  0.0668 -0.1604
10126SOL    HW141307   4.903   9.459   1.034  0.7735  0.7402  1.0870
10126SOL    HW241308   5.030   9.419   0.940 -0.3760  2.2262 -1.1320
10127SOL     OW41309   9.701   7.232   2.098  0.1737  0.3528  0.8398
10127SOL    HW141310   9.725   7.249   2.193  0.0823 -1.6367  1.2396
10127SOL    HW241311   9.607   7.260   2.081 -0.4937 -1.2480  1.8786
10128SOL     OW41312   0.588   9.290   3.372  0.0163  0.0079  0.0901
10128SOL    HW141313   0.659   9.307   3.304 -1.7407  0.2834 -1.7258
10128SOL    HW241314   0.504   9.261   3.326 -1.2127  0.1939  2.1484
10129SOL     OW41315   8.109   3.503   0.314 -0.0591 -0.4554  0.6343
10129SOL    HW141316   8.209   3.505   0.314 -0.0172 -2.0025  1.1465
10129SOL    HW241317   8.075   3.524   0.406 -0.1757 -0.7879  0.6690
10130SOL     OW41318   8.817   1.372   4.342  0.0561  0.2233 -0.0639
10130SOL    HW141319   8.833   1.273   4.343  1.9328  0.4935  1.0422
10130SOL    HW241320   8.725   1.392   4.375  0.0998 -1.0923  0.8840
10131SOL     OW41321   9.130   3.635   0.892  0.1213  0.1359 -0.2066
10131SOL    HW141322   9.077   3.608   0.812 -1.7190 -2.2702  1.7301
10131SOL    HW241323   9.147   3.555   0.949  0.4394  1.9655  2.3392
10132SOL     OW41324   4.180   3.559   2.901 -1.0228  0.1876 -0.4942
10132SOL    HW141325   4.139   3.470   2.919 -1.1410 -0.1244 -2.2868
10132SOL    HW241326   4.251   3.550   2.831  2.2531  0.6828  2.5430
10133SOL     OW41327   0.051   7.069   5.536  0.6153 -0.2848 -0.0657
10133SOL    HW141328   0.137   7.089   5.489  0.1458  0.7058 -0.5150
10133SOL    HW241329   0.054   7.107   5.629 -0.0151  1.3534 -0.6895
10134SOL     OW41330   3.628   2.812   5.374 -0.3816  0.2114 -0.0181
10134SOL    HW141331   3.549   2.825   5.434  0.4503  3.3447  0.4777
10134SOL    HW241332   3.624   2.721   5.333 -2.9889 -0.5546  1.8163
10135SOL     OW41333   0.226   3.411   2.170  0.3878 -0.2639  0.1860
10135SOL    HW141334   0.314   3.456   2.183  0.7349 -0.6555 -0.7175
10135SOL    HW241335   0.233   3.315   2.198  0.0623 -0.1226  0.7469
10136SOL     OW41336   8.169   2.198   5.503  0.5633  0.5157 -0.3489
10136SOL    HW141337   8.140   2.128   5.438 -1.4415  0.3572  0.6931
10136SOL    HW241338   8.168   2.288   5.458 -1.9189  0.5673 -0.2582
10137SOL     OW41339   9.109   4.438   2.356  0.1946  0.5785  0.0469
10137SOL    HW141340   9.043   4.384   2.302  0.2151  1.1989 -0.5955
10137SOL    HW241341   9.150   4.379   2.425 -1.2640  0.2488  0.6615
10138SOL     OW41342   7.460   9.230   2.755 -0.3333 -0.1614  0.3218
10138SOL    HW141343   7.538   9.189   2.802 -0.1790 -0.2395 -0.0073
10138SOL    HW241344   7.441   9.179   2.671 -1.4389 -0.8396  0.9681
10139SOL     OW41345   8.708   3.590   1.989 -0.3179 -0.5354  0.1835
10139SOL    HW141346   8.621   3.558   1.952  0.4167 -1.1980 -1.0351
10139SOL    HW241347   8.735   3.674   1.943 -0.5706 -0.0321  0.9457
10140SOL     OW41348   7.813   5.756   4.275 -0.0018 -1.0429  0.4763
10140SOL    HW141349   7.890   5.790   4.328 -0.5847  1.8259 -0.4275
10140SOL    HW241350   7.821   5.787   4.180 -1.4786 -1.9813  0.0222
10141SOL     OW41351   9.539   0.473   2.480 -0.0910  0.3180 -0.0607
10141SOL    HW141352   9.547   0.568   2.508 -0.5763  0.4255 -0.2800
10141SOL    HW241353   9.573   0.413   2.553  1.6683  0.7016 -0.5303
10142SOL     OW41354   4.612   9.002   3.194  0.1234 -0.1417 -0.0136
10142SOL    HW141355   4.575   8.988   3.103  0.2734  2.7974 -0.5839
10142SOL    HW241356   4.551   8.962   3.262 -1.8417  0.7859 -1.1986
10143SOL     OW41357   9.865   9.864   0.062  0.5028  0.7354  0.0844
10143SOL    HW141358   9.770   9.833   0.074  1.0400 -1.0025  0.0640
10143SOL    HW241359   9.865   9.959   0.033 -1.2305  0.8805  0.4658
10144SOL     OW41360   3.584   4.773   0.279  0.1118 -0.2870 -0.1920
10144SOL    HW141361   3.605   4.814   0.368  1.4444  0.1279 -0.6914
10144SOL    HW241362   3.625   4.827   0.207 -0.1051 -1.1967 -1.0099
10145SOL     OW41363   5.706   1.994   2.378  0.3126 -0.3613  0.3325
10145SOL    HW141364   5.710   1.973   2.281 -1.8055 -1.1358  0.4013
10145SOL    HW241365   5.769   1.934   2.428  0.5193 -0.7635 -0.4083
10146SOL     OW41366   8.030   8.621   4.331  0.4693  0.0541  0.2632
10146SOL    HW141367   8.042   8.593   4.426  1.3738 -2.1681 -0.4596
10146SOL    HW241368   8.119   8.634   4.288  0.0839  0.2148 -0.5094
10147SOL     OW41369   1.700   9.053   1.491 -0.2200 -0.3016 -0.3984
10147SOL    HW141370   1.606   9.080   1.474 -0.2957 -0.8039 -0.7689
10147SOL    HW241371   1.739   9.112   1.562 -1.6932 -1.8461  1.7474
10148SOL     OW41372   0.161   0.330   3.000  0.3034  0.2777  0.0492
10148SOL    HW141373   0.092   0.360   2.935 -0.6965 -1.6657  0.1785
10148SOL    HW241374   0.227   0.404   3.015 -1.0049  1.7058 -1.0526
10149SOL     OW41375   0.146   8.432   4.333 -0.4006  0.0434 -0.2717
10149SOL    HW141376   0.231   8.415   4.383 -1.0242  0.1442  0.8242
10149SOL    HW241377   0.149   8.523   4.293 -0.5220  0.5261  0.8239
10150SOL     OW41378   1.827   8.823   3.967  0.4336 -0.2522  0.3397
10150SOL    HW141379   1.777   8.753   4.017  1.1962 -1.2073 -0.2283
10150SOL    HW241380   1.852   8.789   3.877  0.1743  1.0133 -0.2301
10151SOL     OW41381   3.295   0.952   0.983 -0.2290  0.2502 -0.1034
10151SOL    HW141382   3.292   1.019   0.908 -1.8785  1.0381  0.6386
10151SOL    HW241383   3.262   0.864   0.950  1.3864 -0.0753 -0.9284
10152SOL     OW41384   6.839   9.467   4.246  1.0453  0.2194 -0.5246
10152SOL    HW141385   6.818   9.565   4.247 -3.2154 -0.5864  1.2910
10152SOL    HW241386   6.792   9.424   4.169 -2.4065 -1.2900  2.2650
10153SOL     OW41387   3.728   5.328   4.228 -0.6439  0.3026  0.3985
10153SOL    HW141388   3.747   5.235   4.197 -0.5072  0.9181 -1.4480
10153SOL    HW241389   3.814   5.379   4.236 -0.8183  0.6282  0.2112
10154SOL     OW41390   2.978   4.909   1.462 -0.3426 -0.2209  0.6768
10154SOL    HW141391   2.930   4.852   1.529  0.7483 -2.4892 -0.4445
10154SOL    HW241392   3.076   4.900   1.475 -0.1472  0.6070 -0.1982
10155SOL     OW41393   2.484   7.456   4.689  0.1465 -0.1395  0.0567
10155SOL    HW141394   2.520   7.481   4.599  3.1211  1.6656  1.6805
10155SOL    HW241395   2.474   7.538   4.745 -0.5928 -1.3688  1.7790
10156SOL     OW41396   5.591   7.901   1.763  0.0118  0.1914  0.3442
10156SOL    HW141397   5.575   7.910   1.862 -1.3436  0.3979  0.1113
10156SOL    HW241398   5.663   7.965   1.735  0.7000 -0.1654  1.2686
10157SOL     OW41399   2.976   9.614   1.083 -0.2431 -0.1057  0.5292
10157SOL    HW141400   3.012   9.564   1.004 -3.1956 -1.0323 -0.3169
10157SOL    HW241401   2.895   9.666   1.055 -0.6145  0.5438  2.6980
10158SOL     OW41402   9.926   9.257   0.383 -0.0464  0.3257  0.3672
10158SOL    HW141403   9.877   9.290   0.464 -0.8859 -1.5876  0.6597
10158SOL    HW241404   9.888   9.169   0.355  0.4843  0.7893 -1.8999
10159SOL     OW41405   6.632   7.392   3.677  0.3481  0.0370 -0.0124
10159SOL    HW141406   6.568   7.318   3.657  0.9603 -0.3480 -0.5525
10159SOL    HW241407   6.673   7.377   3.767 -0.5867  0.4788  0.4936
10160SOL     OW41408   4.353   8.340   3.331  0.1295 -0.3746 -0.1037
10160SOL    HW141409   4.398   8.272   3.389  1.0662 -0.4621 -0.9117
10160SOL    HW241410   4.418   8.411   3.306 -0.8045  0.7533  0.5979
10161SOL     OW41411   1.207   1.949   3.417 -0.2374 -0.0229  0.2269
10161SOL    HW141412   1.252   2.022   3.467 -0.8597  1.5342 -1.4454
10161SOL    HW241413   1.113   1.976   3.395 -0.4706 -1.2996 -0.4321
10162SOL     OW41414   3.136   3.575   0.273 -0.7077 -0.5847 -0.8483
10162SOL    HW141415   3.207   3.638   0.305 -0.2458 -0.8372 -1.3897
10162SOL    HW241416   3.061   3.573   0.340 -0.2351 -0.2750 -0.3099
10163SOL     OW41417   0.552   8.397   0.974  0.2733 -0.1272  0.3001
10163SOL    HW141418   0.512   8.436   0.891 -2.1158 -1.3705  0.8359
10163SOL    HW241419   0.560   8.298   0.964  1.2430 -0.1325  1.0443
10164SOL     OW41420   3.661   8.266   2.553 -0.0413  0.0849 -0.2114
10164SOL    HW141421   3.646   8.243   2.457 -1.5189  1.3679 -0.3022
10164SOL    HW241422   3.573   8.279   2.598  0.6929  1.4685  0.8309
10165SOL     OW41423   4.599   0.878   4.697 -0.4725 -0.2325 -0.1596
10165SOL    HW141424   4.658   0.827   4.634 -0.0664  0.1279 -0.0760
10165SOL    HW241425   4.626   0.975   4.696 -1.8709  0.1642 -1.0693
10166SOL     OW41426   8.733   9.815   5.406  0.6723  0.1767  0.6494
10166SOL    HW141427   8.786   9.800   5.322  0.9569 -0.3963  0.9330
10166SOL    HW241428   8.646   9.766   5.399  0.4482  0.6001  0.4492
10167SOL     OW41429   6.657   6.879   3.735 -0.7744 -0.3023 -0.2011
10167SOL    HW141430   6.688   6.925   3.819 -0.4263  1.9016 -1.5031
10167SOL    HW241431   6.578   6.821   3.756 -0.0090 -0.6349  1.8538
10168SOL     OW41432   0.720   4.688   3.201  0.8488  0.0498  0.3218
10168SOL    HW141433   0.811   4.658   3.170  1.0569  1.0591 -0.0490
10168SOL    HW241434   0.688   4.763   3.144  0.8250  1.3183  1.9421
10169SOL     OW41435   4.994   9.054   4.636 -0.9540  0.2699 -0.6951
10169SOL    HW141436   4.998   8.961   4.672  1.4336  1.1709  1.5299
10169SOL    HW241437   4.960   9.052   4.542  0.1743 -2.9463 -1.0844
10170SOL     OW41438   2.391   7.886   1.400  0.0064 -0.0253  0.2726
10170SOL    HW141439   2.404   7.934   1.314  1.1752 -0.1838  0.3463
10170SOL    HW241440   2.294   7.864   1.413 -0.0877 -0.5762 -1.3082
10171SOL     OW41441   3.073   4.249   1.046 -0.7422 -0.0517 -0.2392
10171SOL    HW141442   3.158   4.302   1.047 -1.5610  1.2530  1.7239
10171SOL    HW241443   3.070   4.194   0.962  2.8742 -1.5249  0.5174
10172SOL     OW41444   3.183   5.809   3.096  0.1831  0.1519 -0.4910
10172SOL    HW141445   3.235   5.805   3.011  1.6895 -0.4254  0.4301
10172SOL    HW241446   3.183   5.903   3.131  0.7881  0.1228 -0.4000
10173SOL     OW41447   2.618   7.701   2.698  0.8607 -0.3803 -0.0611
10173SOL    HW141448   2.602   7.643   2.778  2.0384 -0.1905  0.3339
10173SOL    HW241449   2.632   7.643   2.617 -2.6075 -0.5354 -0.6222
10174SOL     OW41450   1.588   6.393   4.117  0.5270  0.2354  0.2740
10174SOL    HW141451   1.624   6.394   4.210 -1.6134 -2.0122  1.1832
10174SOL    HW241452   1.505   6.448   4.112 -0.0026 -0.5924 -0.0404
10175SOL     OW41453   2.385   5.104   0.969 -0.3132  0.2313  0.3346
10175SOL    HW141454   2.367   5.030   1.034 -1.4722 -2.1610 -2.6075
10175SOL    HW241455   2.300   5.152   0.948 -0.5993 -1.2615 -2.0289
10176SOL     OW41456   4.000   9.436   1.995 -0.2898  0.0346 -0.4211
10176SOL    HW141457   3.993   9.523   2.045  0.6370  0.4252 -0.9498
10176SOL    HW241458   3.997   9.361   2.061  2.7157  0.5985  0.4668
10177SOL     OW41459   8.865   8.733   3.760  0.5188 -1.0443  0.7123
10177SOL    HW141460   8.948   8.751   3.813  0.5687 -1.9050  0.9271
10177SOL    HW241461   8.872   8.643   3.718  0.5211 -0.3365 -0.8339
10178SOL     OW41462   2.555   9.888   1.668  0.3551 -0.1860 -0.2166
10178SOL    HW141463   2.484   9.818   1.667  0.4378 -0.2619 -1.6663
10178SOL    HW241464   2.552   9.936   1.756  0.0852 -1.7699  0.6752
10179SOL     OW41465   4.468   8.488   0.748 -0.1964 -0.2950 -0.2715
10179SOL    HW141466   4.496   8.504   0.654 -0.7836 -0.3159 -0.4501
10179SOL    HW241467   4.440   8.574   0.790  1.6466  0.0095  0.4158
10180SOL     OW41468   3.369   2.816   5.435  0.0950 -0.0633  0.0952
10180SOL    HW141469   3.316   2.764   5.502 -0.3669 -0.2774 -0.4311
10180SOL    HW241470   3.340   2.791   5.343  0.2518  0.7293 -0.1728
10181SOL     OW41471   7.986   1.482   2.445 -0.0135  0.5324 -0.1160
10181SOL    HW141472   8.000   1.405   2.508  0.2321  1.8940  1.5411
10181SOL    HW241473   7.906   1.464   2.388  1.7933 -2.3051 -1.9034
10182SOL     OW41474   4.341   4.132   0.532  0.1963 -0.0647  0.6609
10182SOL    HW141475   4.246   4.101   0.535  0.3802 -0.5751  1.5107
10182SOL    HW241476   4.393   4.086   0.604  0.8384  1.0370  0.9116
10183SOL     OW41477   1.797   9.111   3.568  0.0287  0.1524 -0.2812
10183SOL    HW141478   1.764   9.133   3.476  1.6942 -2.2039 -1.5008
10183SOL    HW241479   1.882   9.161   3.586  0.0964  0.0646 -0.3490
10184SOL     OW41480   1.952   4.551   4.711  0.3483 -0.5960  0.1664
10184SOL    HW141481   1.903   4.533   4.797  1.1300 -0.3761  0.6698
10184SOL    HW241482   1.905   4.507   4.635 -0.8487 -0.0642  0.5869
10185SOL     OW41483   2.507   4.862   4.517 -0.7006 -0.5062 -0.1948
10185SOL    HW141484   2.417   4.904   4.525 -0.1343  0.6069  0.4447
10185SOL    HW241485   2.535   4.826   4.606  0.3370  0.9493  0.0868
10186SOL     OW41486   4.941   1.919   2.487  0.5059  0.0960  0.1372
10186SOL    HW141487   4.916   1.987   2.555 -0.0175 -1.4203  1.4932
10186SOL    HW241488   5.015   1.862   2.522 -0.6571 -1.5343 -0.0075
10187SOL     OW41489   7.341   1.234   3.615 -0.9117 -0.1041  0.0052
10187SOL    HW141490   7.435   1.199   3.612 -1.1327 -0.6241 -1.2269
10187SOL    HW241491   7.325   1.280   3.702  0.7319  0.6538 -0.0815
10188SOL     OW41492   4.577   8.054   3.321  0.5929 -0.7527  0.2073
10188SOL    HW141493   4.627   8.124   3.270  0.0406 -1.1709 -0.9247
10188SOL    HW241494   4.538   7.988   3.258 -2.4306  0.2313  0.9420
10189SOL     OW41495   0.314   7.412   4.943 -0.3339  0.6205 -0.3640
10189SOL    HW141496   0.293   7.497   4.991 -1.2313 -0.4533  1.2195
10189SOL    HW241497   0.285   7.418   4.848 -1.9360  1.4719  0.1709
10190SOL     OW41498   6.229   9.488   3.486 -0.3498  0.9333 -0.2071
10190SOL    HW141499   6.145   9.513   3.437  1.2082  2.2553 -2.2763
10190SOL    HW241500   6.307   9.531   3.442  1.4238 -0.1288  1.8193
10191SOL     OW41501   9.039   9.065   3.032  0.2511 -0.0847 -0.2043
10191SOL    HW141502   8.981   9.144   3.013  0.2569  0.1784  0.8714
10191SOL    HW241503   9.010   9.021   3.116  0.4686 -1.0325 -0.6179
10192SOL     OW41504   1.710   5.939   4.997  0.0572 -0.4418 -0.1357
10192SOL    HW141505   1.772   5.861   4.988 -0.3112 -0.6301 -1.1163
10192SOL    HW241506   1.701   5.985   4.909  0.0374  0.5444  0.3648
10193SOL     OW41507   1.438   0.666   4.265  0.0248 -0.0694  0.4981
10193SOL    HW141508   1.338   0.658   4.260 -0.0895  0.1209  2.0708
10193SOL    HW241509   1.474   0.592   4.322  0.7829 -0.1244 -0.0537
10194SOL     OW41510   1.004   5.123   1.324 -0.4518  0.9569 -0.2091
10194SOL    HW141511   0.953   5.054   1.376  1.2700 -0.4861 -0.4169
10194SOL    HW241512   1.021   5.202   1.383 -0.1435  0.1070  0.8613
10195SOL     OW41513   9.023   2.770   2.597  0.3136 -0.4791 -0.4390
10195SOL    HW141514   8.959   2.739   2.527 -2.4544  1.7441  1.0140
10195SOL    HW241515   8.979   2.838   2.655  3.3364 -0.4602  1.9698
10196SOL     OW41516   4.314   9.076   4.528 -0.3366 -0.3387  0.4379
10196SOL    HW141517   4.222   9.083   4.566 -0.5751 -2.5201  0.3081
10196SOL    HW241518   4.359   8.994   4.562  0.7199 -0.5152 -1.2943
10197SOL     OW41519   7.475   1.349   3.873  0.3132  0.1338 -0.2284
10197SOL    HW141520   7.387   1.306   3.894  0.6352 -0.2424  0.3776
10197SOL    HW241521   7.543   1.317   3.939  0.4939  1.7735  0.3977
10198SOL     OW41522   0.113   7.147   4.426 -0.1395 -0.0526 -0.1626
10198SOL    HW141523   0.053   7.177   4.500 -0.1030 -1.2221  0.3530
10198SOL    HW241524   0.208   7.147   4.457 -0.2308 -1.6733  0.1991
10199SOL     OW41525   3.160   1.590   4.022 -0.3252  0.5629  0.5292
10199SOL    HW141526   3.209   1.548   3.945 -0.3162  0.9828  0.3036
10199SOL    HW241527   3.159   1.527   4.099  2.6470  1.4112  1.3612
10200SOL     OW41528   9.061   7.621   4.530 -0.0589 -0.2977  0.2574
10200SOL    HW141529   9.018   7.569   4.456 -1.4074 -1.3721  1.7686
10200SOL    HW241530   9.123   7.689   4.491  0.3831 -1.8383 -1.8217
10201SOL     OW41531   3.288   8.357   3.596  0.1857 -0.0798 -0.0333
10201SOL    HW141532   3.307   8.327   3.503 -0.5059 -0.3274 -0.0953
10201SOL    HW241533   3.375   8.370   3.645  0.5318 -1.0950 -0.3476
10202SOL     OW41534   8.420   8.832   2.366  0.2871 -0.2779 -0.3259
10202SOL    HW141535   8.348   8.874   2.421 -0.4270 -1.9439  0.0408
10202SOL    HW241536   8.480   8.903   2.330 -0.7098  1.0215  0.5332
10203SOL     OW41537   9.626   1.807   5.579  0.0976  0.6159 -0.1858
10203SOL    HW141538   9.604   1.875   5.510 -0.4002  0.9390  0.2895
10203SOL    HW241539   9.693   1.743   5.542 -0.0715  0.8583 -0.9248
10204SOL     OW41540   7.560   0.508   3.196 -0.7463  0.0663 -0.2527
10204SOL    HW141541   7.501   0.573   3.149 -1.5224  0.1241  0.8012
10204SOL    HW241542   7.568   0.532   3.292  0.7122 -0.1437 -0.2966
10205SOL     OW41543   9.358   6.579   2.335  0.4794 -0.4147 -0.1084
10205SOL    HW141544   9.275   6.557   2.285  0.7521  2.3318 -1.8768
10205SOL    HW241545   9.344   6.561   2.433 -1.9425 -0.6780 -0.4812
10206SOL     OW41546   3.789   3.392   0.288  0.3930 -0.1847 -0.1158
10206SOL    HW141547   3.693   3.418   0.300  0.1912 -0.3399 -1.3295
10206SOL    HW241548   3.795   3.294   0.269  0.7905 -0.1587 -0.1343
10207SOL     OW41549   2.742   8.366   1.049  0.4451 -0.9224 -0.0856
10207SOL    HW141550   2.658   8.395   1.003  2.2697  2.7252 -1.3376
10207SOL    HW241551   2.776   8.441   1.106  4.3046 -1.2854 -1.7524
10208SOL     OW41552   7.978   6.177   3.583 -0.8388  0.7109 -0.5026
10208SOL    HW141553   7.939   6.206   3.670 -1.1620  2.7167 -1.2867
10208SOL    HW241554   7.914   6.115   3.536 -1.1974  0.6103  0.1207
10209SOL     OW41555   4.397   3.881   5.452  0.5740 -0.3360  0.2317
10209SOL    HW141556   4.492   3.910   5.439  0.5572 -1.7952 -4.2243
10209SOL    HW241557   4.395   3.799   5.509  1.9197  0.2080  1.0701
10210SOL     OW41558   6.977   9.293   0.929  0.0749  0.0791 -0.8525
10210SOL    HW141559   6.987   9.197   0.955  1.3865  0.1026 -1.2319
10210SOL    HW241560   6.927   9.341   1.001  2.6929 -0.0892  1.1620
10211SOL     OW41561   8.895   6.077   1.281  0.1571 -0.4054  0.7277
10211SOL    HW141562   8.849   5.989   1.288 -0.1592 -0.2915  0.0552
10211SOL    HW241563   8.982   6.066   1.233 -0.9325  0.0434 -1.3607
10212SOL     OW41564   7.088   0.417   2.620 -0.3762  0.6743  0.1798
10212SOL    HW141565   7.108   0.332   2.573 -0.2191  0.3393  0.8391
10212SOL    HW241566   7.030   0.475   2.562  0.3058  0.5277 -0.6497
10213SOL     OW41567   4.848   7.899   4.458 -0.3039 -0.0344  0.0007
10213SOL    HW141568   4.799   7.958   4.393  2.0596 -0.7213 -2.4719
10213SOL    HW241569   4.938   7.875   4.421  0.0411 -2.6574  2.3585
10214SOL     OW41570   7.891   7.485   2.915 -0.2362 -0.4460 -0.1062
10214SOL    HW141571   7.904   7.513   3.010 -0.6035  0.3590 -0.2837
10214SOL    HW241572   7.877   7.567   2.858 -1.5298 -1.0170 -0.6165
10215SOL     OW41573   7.383   1.048   0.190  0.1485 -0.3013  0.1380
10215SOL    HW141574   7.376   1.087   0.281  1.4207  1.2561 -0.4075
10215SOL    HW241575   7.470   1.074   0.149 -1.6863  1.6351 -2.7264
10216SOL     OW41576   2.743   9.511   1.674  0.4238  0.1247 -0.2457
10216SOL    HW141577   2.745   9.611   1.685 -0.2025  0.2287 -1.0842
10216SOL    HW241578   2.837   9.477   1.667  0.6979  0.5034  1.3611
10217SOL     OW41579   1.908   3.103   3.675  0.3958 -0.0973  0.1498
10217SOL    HW141580   1.931   3.098   3.578  1.3733 -0.2689  0.3881
10217SOL    HW241581   1.809   3.113   3.685 -0.0663 -3.1793 -0.8180
10218SOL     OW41582   3.319   0.662   2.444  0.1914 -0.5204 -0.1468
10218SOL    HW141583   3.224   0.649   2.418 -0.0344 -1.8362  1.2915
10218SOL    HW241584   3.338   0.760   2.454 -1.4249 -0.3127  1.0697
10219SOL     OW41585   5.073   9.464   3.065  0.0691 -0.9624 -0.3429
10219SOL    HW141586   5.015   9.399   3.115  1.0055 -2.1338 -0.7396
10219SOL    HW241587   5.027   9.553   3.060 -0.7865 -1.3032  1.1008
10220SOL     OW41588   4.350   5.345   0.689  0.0392  0.8302  0.1344
10220SOL    HW141589   4.317   5.356   0.782  1.8450 -1.3130  1.0639
10220SOL    HW241590   4.315   5.259   0.651  1.4555  0.3845 -0.1999
10221SOL     OW41591   8.049   0.962   1.596  0.2837  0.0611 -0.1276
10221SOL    HW141592   8.109   0.998   1.525 -2.6117  0.0700 -2.6450
10221SOL    HW241593   8.059   0.863   1.602  1.1460  0.1561  0.0637
10222SOL     OW41594   4.124   8.317   3.884  0.2861  0.0314 -0.1770
10222SOL    HW141595   4.167   8.376   3.952  0.5503 -1.9332  1.4118
10222SOL    HW241596   4.171   8.326   3.796  0.3213  2.1432  0.0546
10223SOL     OW41597   8.936   1.764   2.850  0.2872  0.1887  0.1213
10223SOL    HW141598   9.009   1.802   2.908  0.5898  1.7465 -1.2465
10223SOL    HW241599   8.958   1.670   2.826  0.1705 -0.4899  2.5004
10224SOL     OW41600   6.289   8.115   2.533 -0.4060  0.2582  0.2701
10224SOL    HW141601   6.206   8.155   2.494 -1.3128  0.2442  2.0924
10224SOL    HW241602   6.333   8.181   2.594  0.3350 -0.1071  0.1402
10225SOL     OW41603   9.095   5.414   0.486  0.4525 -0.0137 -0.0211
10225SOL    HW141604   9.118   5.320   0.509  0.3382 -0.0379 -0.0056
10225SOL    HW241605   9.007   5.438   0.527  1.1415  0.5448  1.1199
10226SOL     OW41606   9.683   8.371   5.119  0.0038  0.1198 -0.0384
10226SOL    HW141607   9.731   8.432   5.182 -1.8947  1.5561  0.0665
10226SOL    HW241608   9.721   8.381   5.028 -0.4853  1.7392 -0.0872
10227SOL     OW41609   1.775   6.553   2.558  0.0974  0.5895  0.1250
10227SOL    HW141610   1.780   6.530   2.656  1.5997 -1.2126 -0.3336
10227SOL    HW241611   1.702   6.618   2.543 -1.8751 -1.0675  2.1035
10228SOL     OW41612   4.369   9.406   1.713  0.3197  0.4670  0.1497
10228SOL    HW141613   4.379   9.460   1.630 -0.6505  2.6737  1.4149
10228SOL    HW241614   4.291   9.440   1.766  1.3745 -0.3879  2.3360
10229SOL     OW41615   8.479   2.428   3.190 -0.1406 -0.3059  0.1985
10229SOL    HW141616   8.459   2.421   3.288  1.2092  0.4876  0.5450
10229SOL    HW241617   8.405   2.477   3.144  0.2331  1.1935  1.1867
10230SOL     OW41618   1.961   6.396   2.035 -0.6709  0.2171 -0.0322
10230SOL    HW141619   1.962   6.445   2.122 -1.4851 -1.4906  0.9716
10230SOL    HW241620   1.871   6.405   1.993 -0.3848  0.7476 -0.5411
10231SOL     OW41621   9.651   9.698   4.196  0.4888 -0.1718  0.3066
10231SOL    HW141622   9.688   9.666   4.284  1.3850 -0.6579 -0.2474
10231SOL    HW241623   9.725   9.706   4.130 -0.2740 -0.3335 -0.5748
10232SOL     OW41624   3.402   3.898   2.956 -0.8559  0.0806  0.1342
10232SOL    HW141625   3.487   3.950   2.966 -0.9430  0.2061  0.2187
10232SOL    HW241626   3.328   3.945   3.003 -1.3008  0.7544 -1.2009
10233SOL     OW41627   8.831   8.510   0.229 -0.6969  0.6283  0.3572
10233SOL    HW141628   8.854   8.454   0.309 -1.0584 -1.3246 -0.8593
10233SOL    HW241629   8.768   8.583   0.256  0.7370  1.2271  2.2155
10234SOL     OW41630   1.274   8.214   3.319 -0.2544 -0.4032 -0.4269
10234SOL    HW141631   1.362   8.168   3.325  0.2810  0.6666 -0.1576
10234SOL    HW241632   1.249   8.225   3.223  0.3335  0.1216 -0.5189
10235SOL     OW41633   2.800   1.986   4.156 -0.3214  0.1585  0.3871
10235SOL    HW141634   2.822   1.889   4.150  1.9879  0.4631  2.8369
10235SOL    HW241635   2.862   2.039   4.098  0.7272  0.4211  1.7157
10236SOL     OW41636   0.067   5.928   1.370  0.5664  0.3391  0.0522
10236SOL    HW141637   0.030   5.909   1.278  0.2695  0.8041  0.0735
10236SOL    HW241638   0.159   5.966   1.362  0.1854  1.2342 -0.0896
10237SOL     OW41639   9.507   2.592   0.004 -0.1000 -0.6489  0.3858
10237SOL    HW141640   9.552   2.613   0.090  0.2736  1.6183 -0.3327
10237SOL    HW241641   9.480   2.677  -0.042  1.8016 -1.6598 -2.8283
10238SOL     OW41642   9.569   2.881   0.427  0.4939  0.3365 -0.2261
10238SOL    HW141643   9.572   2.981   0.428 -0.4748  0.3941 -1.3501
10238SOL    HW241644   9.662   2.845   0.433  0.8701  1.3053 -0.0499
10239SOL     OW41645   2.056   4.187   2.934  0.1295 -0.5834  0.1929
10239SOL    HW141646   2.078   4.276   2.975 -1.4559 -0.1975  0.2134
10239SOL    HW241647   2.111   4.175   2.851  1.1292 -0.0484  0.7698
10240SOL     OW41648   1.276   5.917   2.886 -0.3967  0.2924 -0.5139
10240SOL    HW141649   1.291   6.016   2.886  0.8581  0.1321  1.5130
10240SOL    HW241650   1.309   5.878   2.800  0.1257  1.4880 -0.8628
10241SOL     OW41651   7.756   6.447   2.180 -0.4378 -0.1971 -0.0889
10241SOL    HW141652   7.674   6.479   2.132 -0.6285  0.8290  0.8815
10241SOL    HW241653   7.801   6.525   2.224  0.2407 -0.9720  0.6043
10242SOL     OW41654   8.941   5.071   3.742 -0.4797  0.5925  0.0064
10242SOL    HW141655   8.979   5.135   3.809  0.2416  0.2837 -0.1045
10242SOL    HW241656   8.953   5.107   3.650 -1.5249  1.0442  0.0347
10243SOL     OW41657   6.049   9.852   3.747  0.2548 -0.6621 -0.0069
10243SOL    HW141658   6.122   9.843   3.679  2.7493 -2.3990  2.7965
10243SOL    HW241659   6.062   9.937   3.799 -0.0678 -0.7099  0.1567
10244SOL     OW41660   3.179   3.810   3.772  0.3372  0.1744 -0.1661
10244SOL    HW141661   3.107   3.751   3.734  2.1642 -1.4340 -1.2565
10244SOL    HW241662   3.213   3.769   3.857  3.3643 -1.7897 -2.2357
10245SOL     OW41663   9.158   9.538   0.564 -0.1305 -0.1229 -0.5079
10245SOL    HW141664   9.254   9.525   0.540 -0.1100  2.3870 -2.0606
10245SOL    HW241665   9.100   9.497   0.493 -0.1527  0.3331 -0.7596
10246SOL     OW41666   2.176   5.458   3.344  0.5355  0.2796  0.2224
10246SOL    HW141667   2.231   5.512   3.280  0.5953  0.2520  0.2504
10246SOL    HW241668   2.229   5.442   3.427  1.5299 -2.1092 -0.8139
10247SOL     OW41669   0.806   5.501   1.715 -0.0943  0.1776 -0.0914
10247SOL    HW141670   0.809   5.446   1.631  0.8356  2.0256 -1.2908
10247SOL    HW241671   0.711   5.526   1.735 -0.3042 -0.1282 -0.6861
10248SOL     OW41672   8.493   1.590   4.860 -0.1282  0.4664  0.0380
10248SOL    HW141673   8.514   1.686   4.842  2.3006 -0.0747 -0.1936
10248SOL    HW241674   8.438   1.553   4.785  1.4550  0.9063 -1.3799
10249SOL     OW41675   0.195   8.330   2.700 -0.0631 -0.0173  0.0014
10249SOL    HW141676   0.194   8.406   2.765  1.8203 -1.0503  1.2796
10249SOL    HW241677   0.275   8.338   2.641 -1.2770  0.4083 -1.6250
10250SOL     OW41678   0.809   1.146   3.049  0.4666  0.1019 -0.4904
10250SOL    HW141679   0.861   1.195   2.979  2.0277 -1.8935 -0.7546
10250SOL    HW241680   0.872   1.094   3.107 -0.9401  0.4392  1.4074
10251SOL     OW41681   9.825   2.484   3.037 -0.6542 -0.0909  0.1838
10251SOL    HW141682   9.744   2.517   2.988  0.5610  3.0548  0.1380
10251SOL    HW241683   9.894   2.454   2.971 -0.1416  1.3617  0.0441
10252SOL     OW41684   9.257   4.441   1.525  0.0424 -0.0913 -0.1180
10252SOL    HW141685   9.282   4.353   1.565  0.6026  0.0237 -0.2053
10252SOL    HW241686   9.338   4.483   1.483 -0.3637  0.1631 -0.6480
10253SOL     OW41687   4.736   0.338   1.359  0.5565 -0.0561 -1.0598
10253SOL    HW141688   4.688   0.381   1.282 -0.7005 -0.7721 -0.6848
10253SOL    HW241689   4.670   0.289   1.416  1.3203  1.4099  1.1205
10254SOL     OW41690   4.834   5.921   1.179 -0.3336  0.0850 -0.5394
10254SOL    HW141691   4.905   5.854   1.157  1.6689  2.4327 -1.2854
10254SOL    HW241692   4.754   5.903   1.121  0.6111 -0.9234 -1.5669
10255SOL     OW41693   2.184   9.090   2.737 -0.4887 -0.1808 -0.8843
10255SOL    HW141694   2.099   9.141   2.739 -0.9071 -0.9114  0.3891
10255SOL    HW241695   2.190   9.037   2.652  0.6624  3.1211 -2.9564
10256SOL     OW41696   9.194   6.179   3.718 -0.1297 -0.5129 -0.5459
10256SOL    HW141697   9.181   6.239   3.639  1.5332  0.4918 -0.0772
10256SOL    HW241698   9.123   6.109   3.718 -0.4584 -0.2161 -2.6362
10257SOL     OW41699   4.739   7.663   1.771  0.6280  0.3815  0.0856
10257SOL    HW141700   4.776   7.603   1.700 -2.7658 -1.9240  0.0962
10257SOL    HW241701   4.667   7.720   1.732 -0.3646  0.0338  1.3713
10258SOL     OW41702   3.789   0.223   1.273  0.0673 -0.1730 -0.3777
10258SOL    HW141703   3.882   0.188   1.268  0.2112  0.0112  0.6905
10258SOL    HW241704   3.746   0.189   1.357 -0.6250  0.2046 -0.5798
10259SOL     OW41705   1.388   8.628   2.181 -0.1872 -0.8589 -0.0264
10259SOL    HW141706   1.359   8.594   2.270 -0.5967  0.8975  0.5408
10259SOL    HW241707   1.353   8.721   2.168  3.4569  0.5991 -0.1389
10260SOL     OW41708   7.564   5.569   5.050  0.5255  0.5619 -0.4817
10260SOL    HW141709   7.503   5.504   5.095  1.3134  0.5372  0.5695
10260SOL    HW241710   7.598   5.530   4.965  0.1513  0.0238 -0.3851
10261SOL     OW41711   1.345   6.138   5.330 -0.7220 -0.1794 -0.2597
10261SOL    HW141712   1.420   6.191   5.290 -0.6187 -1.1493 -1.3722
10261SOL    HW241713   1.372   6.106   5.421 -0.4214  0.8495  0.0297
10262SOL     OW41714   8.372   2.052   3.270  0.0008 -0.0578 -0.4038
10262SOL    HW141715   8.294   2.099   3.230  0.0722  0.5601  0.1785
10262SOL    HW241716   8.378   1.959   3.233 -0.2417  0.3271 -1.4271
10263SOL     OW41717   2.729   8.072   2.335 -0.5018  0.1227  0.0068
10263SOL    HW141718   2.805   8.137   2.337  0.1732 -0.6401 -0.6671
10263SOL    HW241719   2.702   8.050   2.429  2.1552 -1.9429  0.3771
10264SOL     OW41720   8.829   3.354   4.175 -0.2132 -0.1055  0.5440
10264SOL    HW141721   8.894   3.338   4.100 -1.7450 -2.0953 -0.4033
10264SOL    HW241722   8.871   3.413   4.244  2.3491 -0.7989 -0.3808
10265SOL     OW41723   0.066   7.706   4.766  0.2453 -0.3593 -0.1427
10265SOL    HW141724  -0.018   7.655   4.751  0.3071 -0.4077 -0.3237
10265SOL    HW241725   0.107   7.731   4.678 -0.4299  1.0667 -0.0725
10266SOL     OW41726   5.375   8.466   3.693  0.6556 -0.0060  0.2616
10266SOL    HW141727   5.311   8.418   3.753  0.0673  0.8906  0.3677
10266SOL    HW241728   5.326   8.498   3.612  1.2076 -0.2568 -0.1725
10267SOL     OW41729   1.291   2.996   4.487 -0.1329 -0.6170  0.2322
10267SOL    HW141730   1.263   3.060   4.558 -0.9447 -0.6368 -0.0581
10267SOL    HW241731   1.243   3.018   4.402  0.6587 -0.7298 -0.2474
10268SOL     OW41732   2.147   8.888   2.199  0.2258  0.1212  0.4586
10268SOL    HW141733   2.159   8.966   2.138  2.1226 -1.6798 -1.5346
10268SOL    HW241734   2.051   8.859   2.196 -0.8239  3.1617  2.2782
10269SOL     OW41735   2.495   5.857   5.179 -0.4823 -0.2380  0.5697
10269SOL    HW141736   2.557   5.907   5.119  0.6566 -0.5317  1.4836
10269SOL    HW241737   2.536   5.769   5.204 -1.1521 -0.3351  1.3725
10270SOL     OW41738   3.334   4.539   2.928 -0.0227 -0.1227 -0.1888
10270SOL    HW141739   3.360   4.587   3.012 -1.2915  0.2261  0.0099
10270SOL    HW241740   3.369   4.445   2.932  0.3554  0.0392  0.5074
10271SOL     OW41741   3.261   0.231   3.283 -0.3812  0.0154  0.2411
10271SOL    HW141742   3.326   0.173   3.233  0.9606  0.7013  1.1846
10271SOL    HW241743   3.180   0.177   3.306  0.0270 -0.9652 -0.5521
10272SOL     OW41744   9.218   0.555   1.982 -0.4253 -0.0376  0.0153
10272SOL    HW141745   9.269   0.624   2.033 -2.2536  1.2947  0.0841
10272SOL    HW241746   9.135   0.531   2.032 -1.2792 -0.1397 -1.4124
10273SOL     OW41747   3.871   9.977   2.841  0.4655 -0.1847 -0.2021
10273SOL    HW141748   3.812  10.042   2.794  0.6034 -0.4946 -0.8203
10273SOL    HW241749   3.935  10.026   2.900 -0.5560  0.1373  0.6445
10274SOL     OW41750   5.441   1.128   4.196 -0.0963  0.8292  0.0184
10274SOL    HW141751   5.521   1.068   4.195  0.1245  0.9793  3.7201
10274SOL    HW241752   5.469   1.220   4.221 -1.1513  1.3426 -0.6636
10275SOL     OW41753   3.665   1.020   3.477 -0.0486  0.0382 -0.0127
10275SOL    HW141754   3.662   1.033   3.576 -0.2342 -1.6464  0.2221
10275SOL    HW241755   3.622   0.932   3.454 -0.3544  0.5896 -1.6214
10276SOL     OW41756   3.666   4.808   4.316 -0.3921  0.2777  0.0774
10276SOL    HW141757   3.619   4.892   4.342 -0.5890  0.7162 -1.6222
10276SOL    HW241758   3.730   4.828   4.241  0.1188 -0.9396  0.1841
10277SOL     OW41759   4.549   0.850   2.067 -0.1573 -0.0739 -0.2874
10277SOL    HW141760   4.558   0.771   2.126 -1.5272 -1.4612 -1.8912
10277SOL    HW241761   4.594   0.832   1.979  2.1814  2.0910  0.3929
10278SOL     OW41762   1.708   0.402   0.095  0.1711  0.5304  0.2801
10278SOL    HW141763   1.736   0.427   0.187  0.2316  3.8015 -0.5795
10278SOL    HW241764   1.786   0.365   0.044  0.6810  0.9310  0.7807
10279SOL     OW41765   4.629   3.548   1.682 -0.8659  0.1199 -0.3086
10279SOL    HW141766   4.708   3.560   1.742 -2.4862  3.1097  1.3593
10279SOL    HW241767   4.645   3.596   1.595 -0.4601 -0.1277 -0.3714
10280SOL     OW41768   9.593   9.187   1.386  0.5144  0.3248 -0.1981
10280SOL    HW141769   9.555   9.095   1.397  0.0594  0.1379 -2.9585
10280SOL    HW241770   9.692   9.184   1.398  0.7904 -0.9811 -2.5726
10281SOL     OW41771   4.810   7.017   3.235 -0.9396 -0.0033  0.2900
10281SOL    HW141772   4.859   7.006   3.321 -1.5584  2.9689  1.0767
10281SOL    HW241773   4.711   7.019   3.254 -1.0916  0.2935 -0.5249
10282SOL     OW41774   1.940   8.844   4.230  0.5723  0.0766  0.2748
10282SOL    HW141775   2.013   8.784   4.196  1.5055  1.3947 -0.1010
10282SOL    HW241776   1.885   8.875   4.153 -1.1630 -1.8818  0.6870
10283SOL     OW41777   9.378   4.434   0.707  0.6150 -0.8334 -0.5070
10283SOL    HW141778   9.461   4.392   0.671  1.4364  2.3190 -2.5616
10283SOL    HW241779   9.319   4.463   0.631  0.2219  1.8656  0.7506
10284SOL     OW41780   7.301   7.719   3.526  0.3096 -0.3536 -0.2855
10284SOL    HW141781   7.214   7.669   3.536  0.6540 -0.9264 -0.0794
10284SOL    HW241782   7.303   7.766   3.439 -0.9381  1.0862  0.4381
10285SOL     OW41783   2.898   5.499   3.028 -0.6936 -0.1588 -0.5066
10285SOL    HW141784   2.918   5.530   3.121 -1.1774 -1.5613  0.0753
10285SOL    HW241785   2.919   5.401   3.020 -1.2789 -0.1950 -1.6791
10286SOL     OW41786   0.448   9.800   0.735 -0.3265  0.1391 -0.7282
10286SOL    HW141787   0.455   9.894   0.768 -0.9701  0.0896 -0.4547
10286SOL    HW241788   0.369   9.791   0.674  0.3326  0.0130 -1.5742
10287SOL     OW41789   2.349   4.782   5.601  0.3486 -0.7765  0.0267
10287SOL    HW141790   2.416   4.778   5.675 -0.6243 -1.2686  0.8966
10287SOL    HW241791   2.366   4.863   5.545  0.9777 -0.2952  0.9026
10288SOL     OW41792   7.651   6.530   3.739 -0.0435  0.0911 -0.3236
10288SOL    HW141793   7.617   6.438   3.721  0.3449  0.1772 -1.4866
10288SOL    HW241794   7.575   6.590   3.764 -0.3264 -0.4729  0.1757
10289SOL     OW41795   1.398   1.942   5.517  0.0967  0.5323  0.0382
10289SOL    HW141796   1.472   1.883   5.549 -0.0138 -1.3072 -2.8727
10289SOL    HW241797   1.425   2.038   5.527  2.1104 -0.0848  0.7432
10290SOL     OW41798   5.720   9.483   3.686  0.4372 -0.0997  0.3669
10290SOL    HW141799   5.654   9.496   3.612 -0.8093 -1.9880  1.0863
10290SOL    HW241800   5.789   9.416   3.659  0.4923 -0.1352  0.5890
10291SOL     OW41801   1.090   6.569   5.489  0.0949 -0.2922 -0.2108
10291SOL    HW141802   1.095   6.668   5.482  0.2054 -0.4157 -2.0159
10291SOL    HW241803   1.121   6.527   5.404  2.2526 -1.9386  1.3247
10292SOL     OW41804   3.114   7.083   2.455 -0.7510  0.0631  0.3431
10292SOL    HW141805   3.116   6.987   2.480 -1.5060  0.1130  0.5961
10292SOL    HW241806   3.106   7.091   2.355  3.1193 -0.1367 -0.0865
10293SOL     OW41807   2.795   6.959   4.862  0.3126 -0.5617 -0.2090
10293SOL    HW141808   2.752   7.034   4.812 -2.1480 -0.9727  1.1815
10293SOL    HW241809   2.879   6.991   4.905  1.0408  0.4914 -2.3522
10294SOL     OW41810   3.203   9.165   1.570  0.1724  0.1356 -0.2723
10294SOL    HW141811   3.180   9.258   1.541  0.6102  0.4572  0.4160
10294SOL    HW241812   3.291   9.139   1.532  1.0845  0.8215  1.3356
10295SOL     OW41813   3.187   8.766   2.711  0.6444 -0.2438  0.4135
10295SOL    HW141814   3.274   8.812   2.693  1.1461 -0.9608  0.9737
10295SOL    HW241815   3.181   8.683   2.656 -0.1354  0.3249 -0.3803
10296SOL     OW41816   3.934   3.715   3.896  0.1600  0.3677  0.1896
10296SOL    HW141817   3.949   3.725   3.994 -0.5197 -0.3644  0.3693
10296SOL    HW241818   3.986   3.637   3.862 -1.1849 -0.6169  0.3485
10297SOL     OW41819   0.598   3.354   5.024  0.3192 -0.0705  0.4266
10297SOL    HW141820   0.582   3.315   5.114  0.9552 -1.4019 -0.0163
10297SOL    HW241821   0.604   3.280   4.957 -2.2447  0.9942 -1.0540
10298SOL     OW41822   4.831   7.783   1.407  0.0371  0.5276  0.2633
10298SOL    HW141823   4.884   7.698   1.404  2.0299  1.6537  2.4495
10298SOL    HW241824   4.737   7.762   1.435  0.2358 -1.0562 -0.1887
10299SOL     OW41825   4.599   2.274   1.257  0.0689 -0.6887 -0.2647
10299SOL    HW141826   4.557   2.275   1.348 -0.5342 -1.4036 -0.5300
10299SOL    HW241827   4.557   2.343   1.199  1.6699  1.0052  0.5223
10300SOL     OW41828   3.630   4.844   1.718 -0.0346 -0.0332  0.2769
10300SOL    HW141829   3.552   4.887   1.765  0.2854  0.2621  0.5401
10300SOL    HW241830   3.596   4.772   1.658 -0.4213 -0.6631  1.2319
10301SOL     OW41831   0.487   9.591   0.076  0.1670  0.6053 -0.5907
10301SOL    HW141832   0.547   9.517   0.106  1.8697  1.3734 -2.0322
10301SOL    HW241833   0.509   9.674   0.127  1.1835  1.1972 -1.9534
10302SOL     OW41834   1.978   8.534   4.370  0.3004 -0.2243 -0.0890
10302SOL    HW141835   1.988   8.439   4.397  1.9445  0.0249  0.2264
10302SOL    HW241836   1.993   8.593   4.449 -2.0039  0.2824  0.0286
10303SOL     OW41837   0.544   6.349   4.622 -0.2296 -0.5541  0.3146
10303SOL    HW141838   0.613   6.280   4.598 -0.4514 -0.6066 -0.1965
10303SOL    HW241839   0.479   6.357   4.546 -1.6770 -1.6246  1.4242
10304SOL     OW41840   2.719   7.631   0.683 -0.7677  0.2226  0.2595
10304SOL    HW141841   2.795   7.566   0.692 -0.6801  0.1923 -0.6033
10304SOL    HW241842   2.709   7.683   0.768  1.2392  1.3237 -0.1437
10305SOL     OW41843   3.218   4.244   0.592  0.5708  0.2441  0.1001
10305SOL    HW141844   3.256   4.328   0.631  0.8812  0.9239 -1.5918
10305SOL    HW241845   3.166   4.267   0.510  1.3730 -1.3124 -0.8641
10306SOL     OW41846   8.176   8.387   4.026  0.2275  0.0893  0.5561
10306SOL    HW141847   8.192   8.351   4.118  1.7710 -0.5949  0.0405
10306SOL    HW241848   8.207   8.320   3.958 -1.4579  0.3433 -0.4759
10307SOL     OW41849   9.395   6.092   1.156 -0.2752 -0.0760 -0.1187
10307SOL    HW141850   9.362   6.020   1.218  1.1498 -0.5375  0.1148
10307SOL    HW241851   9.491   6.109   1.173 -0.3523  1.1786 -0.8914
10308SOL     OW41852   9.065   9.314   1.673  0.2469  0.2925 -0.1907
10308SOL    HW141853   9.078   9.383   1.745  2.3010 -0.6360  0.3859
10308SOL    HW241854   8.968   9.296   1.661 -0.1498  0.6161  2.2471
10309SOL     OW41855   1.104   8.210   2.630  0.5507  0.1866 -1.1165
10309SOL    HW141856   1.065   8.280   2.690 -2.4553 -1.9139 -0.5615
10309SOL    HW241857   1.063   8.217   2.539  0.6824 -0.5003 -1.2295
10310SOL     OW41858   9.892   7.331   0.372 -0.0719 -0.2716 -0.6016
10310SOL    HW141859   9.976   7.366   0.413 -0.5283  0.1199  0.0146
10310SOL    HW241860   9.823   7.316   0.443 -1.5695  2.3919 -1.4247
10311SOL     OW41861   0.862   4.609   2.174 -0.4822  0.0604 -0.1861
10311SOL    HW141862   0.800   4.667   2.120 -0.2938  0.6267  0.1923
10311SOL    HW241863   0.926   4.563   2.113  0.0583  1.0895 -0.4117
10312SOL     OW41864   2.207   3.013   4.279  0.1135 -0.6250  0.4874
10312SOL    HW141865   2.194   3.088   4.215 -1.2932 -1.1160  0.1841
10312SOL    HW241866   2.225   3.050   4.371 -0.0114  0.0767  0.2286
10313SOL     OW41867   5.498   3.484   2.274  0.1457 -0.0235 -0.1541
10313SOL    HW141868   5.456   3.554   2.216 -1.5899  0.5047  1.6874
10313SOL    HW241869   5.485   3.509   2.370  1.0614 -1.9866  0.4934
10314SOL     OW41870   6.080   6.979   2.343  0.3440 -0.3321  0.9244
10314SOL    HW141871   6.052   6.912   2.412 -1.9704 -0.6564 -0.2743
10314SOL    HW241872   6.016   6.976   2.266  0.8542  2.4640  0.3378
10315SOL     OW41873   4.039   1.309   3.449  0.0410 -0.7898  0.3632
10315SOL    HW141874   4.011   1.399   3.480 -0.3459 -0.9748  0.5591
10315SOL    HW241875   4.069   1.314   3.353 -0.4784 -0.5511  0.2119
10316SOL     OW41876   8.855   5.466   0.595 -0.7085  0.0786 -0.1745
10316SOL    HW141877   8.766   5.420   0.587 -1.1654  0.6113  1.5366
10316SOL    HW241878   8.867   5.499   0.689  1.3279 -0.0179 -0.3854
10317SOL     OW41879   1.815   4.865   4.405 -0.4099  0.8113 -0.8365
10317SOL    HW141880   1.748   4.842   4.335  1.4426 -1.2376 -2.0200
10317SOL    HW241881   1.883   4.927   4.367 -0.3130  0.9873 -0.3725
10318SOL     OW41882   5.220   0.929   1.655  0.2721  0.0949 -0.2230
10318SOL    HW141883   5.155   0.978   1.712 -0.4883  0.4675 -1.3974
10318SOL    HW241884   5.296   0.895   1.712 -0.5904  0.2447  1.0273
10319SOL     OW41885   8.157   7.380   0.165 -0.2419  0.7352  0.6417
10319SOL    HW141886   8.192   7.293   0.200 -0.2859  0.4302 -0.0770
10319SOL    HW241887   8.096   7.363   0.088  0.5656  1.4504 -0.1733
10320SOL     OW41888   5.111   3.671   1.441 -0.1888 -0.2390  0.0559
10320SOL    HW141889   5.095   3.768   1.460 -1.2405 -0.3646 -0.1257
10320SOL    HW241890   5.057   3.644   1.361  2.0808 -0.3597 -1.4848
10321SOL     OW41891   3.719   3.435   3.831 -0.2767  0.4733  0.2691
10321SOL    HW141892   3.799   3.472   3.879 -0.0687 -0.4051  0.6134
10321SOL    HW241893   3.741   3.423   3.734  0.7855 -1.8550  0.7463
10322SOL     OW41894   7.080   9.543   1.289 -0.2286 -0.3512  0.1669
10322SOL    HW141895   7.106   9.481   1.215 -0.9554  0.3935 -0.7325
10322SOL    HW241896   7.150   9.614   1.299 -0.6573  0.1911 -0.5681
10323SOL     OW41897   0.328   3.402   0.367 -0.2050 -0.8724 -0.5178
10323SOL    HW141898   0.315   3.485   0.313 -0.1836  0.5099  1.5434
10323SOL    HW241899   0.293   3.323   0.316 -0.5094  0.4277 -2.3720
10324SOL     OW41900   9.465   6.650   2.079  1.0110  0.2556  1.1549
10324SOL    HW141901   9.409   6.598   2.143 -0.9422 -1.0210 -1.4884
10324SOL    HW241902   9.506   6.588   2.012  1.9539  1.6876  0.3757
10325SOL     OW41903   5.284   7.517   1.383  0.1962 -0.2461 -0.1413
10325SOL    HW141904   5.324   7.596   1.428 -2.1864  0.0559  1.5386
10325SOL    HW241905   5.317   7.433   1.427  0.7676 -0.0928 -0.2777
10326SOL     OW41906   0.271   5.343   5.407  0.1647 -0.6635  0.4087
10326SOL    HW141907   0.193   5.403   5.393 -0.6833 -1.7436  0.4144
10326SOL    HW241908   0.291   5.294   5.322  0.6506 -0.6174  0.4934
10327SOL     OW41909   5.245   0.318   4.193 -0.2784 -0.1232  0.0482
10327SOL    HW141910   5.333   0.320   4.239  0.3646 -0.1582 -1.1567
10327SOL    HW241911   5.198   0.231   4.213  0.7065 -0.8281 -0.6576
10328SOL     OW41912   7.005   1.228   4.433  0.3161  0.1228  0.1734
10328SOL    HW141913   7.050   1.147   4.395 -0.5601 -0.9586  1.3977
10328SOL    HW241914   7.034   1.309   4.383 -0.5625 -1.2152 -2.5942
10329SOL     OW41915   3.568   2.429   1.604 -0.5752 -0.2159  0.1869
10329SOL    HW141916   3.557   2.490   1.682  0.8932  0.6844 -0.2881
10329SOL    HW241917   3.581   2.483   1.521 -0.3390 -1.1580 -0.3994
10330SOL     OW41918   3.011   0.062   2.425  0.2836  0.2391  0.3000
10330SOL    HW141919   3.017   0.156   2.392 -0.9147  0.3591  0.4015
10330SOL    HW241920   3.103   0.026   2.439  0.7623  1.2090 -0.2618
10331SOL     OW41921   3.723   2.265   1.089  0.0355 -0.5309 -0.4829
10331SOL    HW141922   3.767   2.257   1.178  1.7249 -0.4854 -1.2831
10331SOL    HW241923   3.634   2.309   1.099  0.3433 -0.2657  1.1446
10332SOL     OW41924   2.281   7.732   3.873 -0.0911  0.2317 -0.0216
10332SOL    HW141925   2.372   7.742   3.914 -0.0709 -0.5764  0.1426
10332SOL    HW241926   2.260   7.813   3.818  1.3152 -0.1862 -1.2194
10333SOL     OW41927   2.778   9.774   0.980 -0.2366 -0.2136 -0.3375
10333SOL    HW141928   2.800   9.758   0.884  1.4822 -2.0279  0.3149
10333SOL    HW241929   2.679   9.767   0.994 -0.4728 -0.1448 -1.9285
10334SOL     OW41930   0.459   7.515   2.627 -0.5425 -0.1958 -0.4646
10334SOL    HW141931   0.441   7.445   2.697  0.1113  1.6999  1.6568
10334SOL    HW241932   0.531   7.483   2.566  1.9345 -0.1853  2.3585
10335SOL     OW41933   4.540   1.873   4.657  0.1888 -0.1223 -0.6299
10335SOL    HW141934   4.551   1.957   4.604 -4.0823  2.1735  1.7647
10335SOL    HW241935   4.475   1.813   4.611 -0.4172  0.0752 -0.0503
10336SOL     OW41936   1.679   0.542   2.012  0.0562  0.3926  0.5406
10336SOL    HW141937   1.625   0.484   2.072  0.9672 -1.3008 -0.2165
10336SOL    HW241938   1.773   0.547   2.046 -0.0718  1.6595  0.7416
10337SOL     OW41939   8.727   4.673   0.236  0.0694  0.0053  0.5726
10337SOL    HW141940   8.663   4.620   0.179 -0.6240 -0.5649  1.8647
10337SOL    HW241941   8.821   4.650   0.210 -0.2186  1.6564 -2.0806
10338SOL     OW41942   2.528   5.026   3.587  0.1494 -0.3142 -0.1717
10338SOL    HW141943   2.617   4.986   3.610  0.0951 -0.7893 -0.7651
10338SOL    HW241944   2.465   4.953   3.558 -0.1775  0.1158 -0.5561
10339SOL     OW41945   4.378   8.367   2.291 -0.1976  0.3231 -0.3805
10339SOL    HW141946   4.357   8.440   2.357  1.5746 -0.1856  0.7916
10339SOL    HW241947   4.387   8.407   2.200  3.1041  2.0347  0.5921
10340SOL     OW41948   3.539   0.005   5.621  0.5921  0.0638 -0.5169
10340SOL    HW141949   3.639   0.014   5.616  0.5508  0.3085 -0.9714
10340SOL    HW241950   3.497   0.073   5.560  0.1034  1.5375  1.4147
10341SOL     OW41951   2.598   1.444   5.371  0.2522  0.1309 -0.5419
10341SOL    HW141952   2.546   1.390   5.304  0.7972 -2.4394  1.0464
10341SOL    HW241953   2.695   1.421   5.364  0.2634 -0.4751  1.4038
10342SOL     OW41954   2.927   9.193   0.654 -0.2232 -0.3291 -0.1141
10342SOL    HW141955   2.983   9.185   0.571  0.3879  0.2453  0.2401
10342SOL    HW241956   2.830   9.180   0.630  0.1842 -3.0034 -0.4634
10343SOL     OW41957   7.799   0.385   3.580  0.0245  0.0166 -0.1198
10343SOL    HW141958   7.807   0.412   3.676  1.2701 -1.3214  0.1583
10343SOL    HW241959   7.882   0.410   3.531 -0.4286  0.2889 -0.7538
10344SOL     OW41960   1.541   1.058   3.534 -0.0549  0.1999  0.4835
10344SOL    HW141961   1.521   0.985   3.599 -1.4078  0.5275  0.4658
10344SOL    HW241962   1.464   1.067   3.470  0.2693  1.3801  0.2450
10345SOL     OW41963   3.889   8.548   1.401  0.4688  0.1045 -0.1368
10345SOL    HW141964   3.952   8.625   1.411 -0.2138  0.8099 -1.0912
10345SOL    HW241965   3.803   8.580   1.359 -0.2355 -0.9764  0.4475
10346SOL     OW41966   8.356   8.988   3.436 -0.1207 -0.4927  0.4394
10346SOL    HW141967   8.402   8.972   3.524  0.8186 -0.9623 -0.1263
10346SOL    HW241968   8.421   8.972   3.361 -0.4527  1.5408 -0.3050
10347SOL     OW41969   2.965   2.555   0.990  0.0080 -0.3879  0.8815
10347SOL    HW141970   2.950   2.524   1.084  0.2040  0.2755  1.1335
10347SOL    HW241971   2.924   2.646   0.978 -0.2107 -0.5650  0.2619
10348SOL     OW41972   4.379   3.188   5.398  0.0752 -0.0771  0.6823
10348SOL    HW141973   4.362   3.285   5.382 -1.2858 -0.2648  0.8858
10348SOL    HW241974   4.312   3.133   5.347  0.8451 -0.9065  0.5523
10349SOL     OW41975   9.035   4.836   5.271  0.4283  0.1270  0.3309
10349SOL    HW141976   8.946   4.838   5.316  0.2698 -0.4515  0.0412
10349SOL    HW241977   9.022   4.829   5.172  0.7270  3.0950  0.0138
10350SOL     OW41978   8.647   7.631   3.619  0.0274  0.3561  0.2956
10350SOL    HW141979   8.636   7.608   3.523 -1.0430  0.0404  0.4894
10350SOL    HW241980   8.584   7.706   3.643  0.7134  0.8430  0.6074
10351SOL     OW41981   9.493   9.287   4.612  0.5330  0.0971  0.4716
10351SOL    HW141982   9.483   9.385   4.596 -1.6109 -0.4492 -1.9039
10351SOL    HW241983   9.571   9.253   4.560  1.1055  0.5064  1.0667
10352SOL     OW41984   6.915   4.963   5.259 -0.5270  0.2019  0.2704
10352SOL    HW141985   6.939   5.053   5.295  0.0040  0.2104 -0.1024
10352SOL    HW241986   6.912   4.967   5.159  2.3935 -0.8805  0.0831
10353SOL     OW41987   7.305   0.783   4.685 -0.3208 -0.2739  0.5043
10353SOL    HW141988   7.227   0.795   4.624 -0.4517 -2.1252  0.2799
10353SOL    HW241989   7.390   0.789   4.633 -0.3817 -0.4650  0.3847
10354SOL     OW41990   1.058   8.870   3.879  1.1438  0.2422 -0.1441
10354SOL    HW141991   1.093   8.956   3.843  1.4220  0.0573 -0.3188
10354SOL    HW241992   1.099   8.794   3.829  3.7745 -0.1204  2.4523
10355SOL     OW41993   1.238   9.740   4.621 -0.5470 -0.3548 -0.0565
10355SOL    HW141994   1.327   9.743   4.576 -0.2127 -0.8473  0.5760
10355SOL    HW241995   1.230   9.657   4.676 -1.4875 -0.4299 -0.2911
10356SOL     OW41996   6.131   1.221   2.070 -0.5539  0.1039  0.2099
10356SOL    HW141997   6.075   1.302   2.049 -1.2954 -0.9419 -2.0399
10356SOL    HW241998   6.071   1.145   2.092 -0.1257 -1.2746 -3.1013
10357SOL     OW41999   1.452   6.145   4.055 -0.0536 -0.4898 -0.1197
10357SOL    HW142000   1.451   6.134   3.956 -1.3735 -1.1575 -0.0461
10357SOL    HW242001   1.490   6.235   4.078 -1.8235  0.5960 -1.3356
10358SOL     OW42002   8.015   2.092   3.232  0.2083 -0.2578 -0.5226
10358SOL    HW142003   8.054   2.020   3.175 -1.8608 -0.4225 -1.7711
10358SOL    HW242004   7.954   2.051   3.300 -0.2645  0.2284 -0.6489
10359SOL     OW42005   8.862   9.293   5.233 -0.1663 -0.1301  0.5230
10359SOL    HW142006   8.914   9.366   5.188 -0.3661  0.0465  0.5752
10359SOL    HW242007   8.821   9.329   5.317 -0.8295 -0.1077  0.1973
10360SOL     OW42008   8.556   2.718   0.427  0.0731  0.1474  0.2728
10360SOL    HW142009   8.620   2.769   0.370  0.8722  1.7431  2.5086
10360SOL    HW242010   8.520   2.779   0.498 -0.7907 -1.8042  1.5389
10361SOL     OW42011   4.388   2.767   1.775  0.2226  0.1341 -0.0792
10361SOL    HW142012   4.478   2.801   1.802  0.1205  1.5077 -1.4201
10361SOL    HW242013   4.318   2.831   1.807 -0.3575 -1.2513  1.5273
10362SOL     OW42014   2.265   3.285   5.137  0.7426  0.1947 -0.2333
10362SOL    HW142015   2.192   3.308   5.201  1.6400 -0.6446  1.1345
10362SOL    HW242016   2.262   3.346   5.059  0.9786  2.7118  1.6766
10363SOL     OW42017   5.643   9.913   2.972 -0.3505  0.0754  0.4138
10363SOL    HW142018   5.626   9.943   3.066 -1.0514 -0.0393  0.3320
10363SOL    HW242019   5.734   9.872   2.966 -0.8027 -1.1244  1.3604
10364SOL     OW42020   1.917   3.878   5.209 -0.0877 -0.3930 -0.4626
10364SOL    HW142021   1.920   3.845   5.114 -0.2235  0.9072 -0.9262
10364SOL    HW242022   1.999   3.846   5.257  1.2674  1.0398 -1.7412
10365SOL     OW42023   3.106   9.504   4.988  0.0910  0.0484  0.3547
10365SOL    HW142024   3.064   9.422   5.026  1.3590 -0.0600  1.5462
10365SOL    HW242025   3.049   9.583   5.009 -0.4400 -0.3338  0.3777
10366SOL     OW42026   3.438   2.858   2.955 -0.0361  0.0417 -0.4830
10366SOL    HW142027   3.487   2.793   2.897  1.0638  1.3258 -1.0156
10366SOL    HW242028   3.347   2.876   2.917  0.1763 -0.1484 -1.0739
10367SOL     OW42029   2.027   8.140   0.642 -0.0830 -0.0048 -0.0683
10367SOL    HW142030   2.082   8.172   0.719  1.3871  0.0729 -1.1440
10367SOL    HW242031   2.086   8.119   0.565 -1.5515 -0.0302 -1.2044
10368SOL     OW42032   7.727   1.663   1.876  0.4104 -0.0165  0.0273
10368SOL    HW142033   7.766   1.657   1.968  0.2216  1.4405  0.2051
10368SOL    HW242034   7.801   1.676   1.810  0.4480  0.0886  0.0892
10369SOL     OW42035   4.261   1.169   3.543 -0.4938  0.2122  0.4251
10369SOL    HW142036   4.178   1.221   3.522 -0.8900 -0.1114  1.1686
10369SOL    HW242037   4.337   1.232   3.555 -0.9596  0.6271  1.2545
10370SOL     OW42038   3.982   6.163   1.546  0.3114 -0.0575  0.2004
10370SOL    HW142039   4.019   6.115   1.625 -0.2771  0.2447  0.6596
10370SOL    HW242040   3.904   6.113   1.510 -1.0450  1.1628  1.4040
10371SOL     OW42041   8.741   4.913   1.311  1.0124 -0.6662 -0.2892
10371SOL    HW142042   8.645   4.925   1.337  1.0468 -1.5254  0.2706
10371SOL    HW242043   8.746   4.853   1.231  1.1287 -1.6631  0.4402
10372SOL     OW42044   9.688   1.515   1.505 -0.3942  0.1816 -0.3798
10372SOL    HW142045   9.648   1.445   1.563  0.1723 -0.0572 -0.2746
10372SOL    HW242046   9.629   1.531   1.426 -2.2796  2.0668  1.3523
10373SOL     OW42047   1.411   4.340   0.187  0.3055 -0.3266  0.5459
10373SOL    HW142048   1.337   4.334   0.255 -1.5463  0.6874 -1.3160
10373SOL    HW242049   1.476   4.266   0.202 -1.4421 -1.6503  1.8259
10374SOL     OW42050   9.762   2.228   4.917 -0.2864  0.0214 -0.1340
10374SOL    HW142051   9.803   2.184   4.837  1.3437  1.1461  0.0652
10374SOL    HW242052   9.665   2.203   4.922  0.2817 -2.4809 -0.7622
10375SOL     OW42053   8.379   0.759   2.083  0.1043  0.2879 -0.3633
10375SOL    HW142054   8.311   0.687   2.082  0.8012 -0.3914  0.4595
10375SOL    HW242055   8.424   0.762   2.172  2.4438 -0.4926 -1.4780
10376SOL     OW42056   9.868   1.776   2.475 -0.4055 -0.2214 -0.3569
10376SOL    HW142057   9.821   1.843   2.418 -3.5879  0.7382  3.2000
10376SOL    HW242058   9.833   1.684   2.455 -1.9882  0.1893  0.4459
10377SOL     OW42059   9.415   9.671   1.806  0.5319 -0.4470  0.3623
10377SOL    HW142060   9.463   9.754   1.779 -0.7309 -0.4557 -2.1059
10377SOL    HW242061   9.330   9.663   1.753 -0.2946 -2.3636  1.8914
10378SOL     OW42062   8.699   4.476   3.103 -0.5772 -0.7038 -0.1750
10378SOL    HW142063   8.601   4.476   3.121 -0.5982  0.7706 -0.2254
10378SOL    HW242064   8.746   4.529   3.175 -0.0459  0.2992 -1.2360
10379SOL     OW42065   8.007   1.291   0.650  0.1898  0.5238 -0.2023
10379SOL    HW142066   7.936   1.360   0.634 -0.7400 -0.4401 -0.2412
10379SOL    HW242067   7.965   1.202   0.663  1.3148  0.1710  1.1618
10380SOL     OW42068   9.314   3.378   4.644  0.1321 -0.0373 -0.6820
10380SOL    HW142069   9.285   3.423   4.560 -0.0530 -0.8619 -1.0642
10380SOL    HW242070   9.237   3.377   4.709 -0.0404 -0.3035 -0.8872
10381SOL     OW42071   0.491   8.514   4.454  0.2674  0.1627  0.3798
10381SOL    HW142072   0.527   8.471   4.537  1.8728 -0.5197 -0.6407
10381SOL    HW242073   0.433   8.592   4.479  0.5735 -0.1539  2.1414
10382SOL     OW42074   8.212   4.740   0.020  0.2993  0.3049  0.0072
10382SOL    HW142075   8.287   4.679   0.047  0.5180  0.0407 -1.1519
10382SOL    HW242076   8.192   4.726  -0.077  0.5825  2.3556 -0.3572
10383SOL     OW42077   2.554   3.319   4.338 -1.2366 -0.3860 -0.5639
10383SOL    HW142078   2.535   3.412   4.306 -0.1776  0.2819  0.7012
10383SOL    HW242079   2.645   3.316   4.380 -1.3640 -1.9437 -0.3601
10384SOL     OW42080   5.587   1.459   3.568  0.3481 -0.0535  0.2001
10384SOL    HW142081   5.621   1.526   3.503  0.6448 -0.3668  0.0320
10384SOL    HW242082   5.487   1.453   3.560  0.2255  1.0011  0.8331
10385SOL     OW42083   8.497   6.708   0.294 -0.0031  0.3113 -0.4862
10385SOL    HW142084   8.463   6.615   0.284 -0.3390  0.4619 -0.7919
10385SOL    HW242085   8.510   6.748   0.203 -1.9532  1.3051 -0.3661
10386SOL     OW42086   8.590   1.912   3.151  0.1215  0.1722  0.0748
10386SOL    HW142087   8.587   1.850   3.072  0.0673 -0.6390  0.7034
10386SOL    HW242088   8.620   1.861   3.232  2.2848  1.4764  0.1344
10387SOL     OW42089   7.097   8.346   2.821 -0.4357 -0.3233 -0.0015
10387SOL    HW142090   7.171   8.402   2.858 -1.6942 -0.5523  2.9913
10387SOL    HW242091   7.098   8.351   2.721  1.9604  1.7750  0.0824
10388SOL     OW42092   4.324   6.394   1.636 -0.1535  0.6022  0.3285
10388SOL    HW142093   4.296   6.489   1.623  0.9902  0.7462 -1.1599
10388SOL    HW242094   4.407   6.391   1.692 -0.4428  0.4491  0.7506
10389SOL     OW42095   1.129   8.225   4.690  0.0474  0.2238  0.4912
10389SOL    HW142096   1.163   8.216   4.784  0.8222  0.1596  0.2062
10389SOL    HW242097   1.129   8.136   4.646  1.0928  0.4854 -0.0500
10390SOL     OW42098   1.783   1.041   3.044  0.7185 -0.0188 -0.2713
10390SOL    HW142099   1.706   1.005   2.991 -1.2512  3.2369  0.1694
10390SOL    HW242100   1.756   1.049   3.140  1.3573  1.6998 -0.2106
10391SOL     OW42101   6.379   9.797   1.030  0.4162  0.3823 -0.2356
10391SOL    HW142102   6.358   9.877   0.973  2.7888  1.1729 -0.0501
10391SOL    HW242103   6.458   9.749   0.992 -1.1044 -2.0223 -0.4471
10392SOL     OW42104   3.778   1.686   0.378 -0.6227  0.7652  0.4848
10392SOL    HW142105   3.826   1.772   0.397 -1.2206  0.6889  2.4616
10392SOL    HW242106   3.838   1.625   0.326 -0.0099  2.1739 -0.4860
10393SOL     OW42107   1.396   7.594   5.525  0.3272  0.6008  0.5351
10393SOL    HW142108   1.338   7.595   5.607  1.4027  1.9073  1.2911
10393SOL    HW242109   1.454   7.513   5.526  0.0159  0.3793  0.8387
10394SOL     OW42110   2.003   7.559   2.858  0.2748 -0.3634 -0.1858
10394SOL    HW142111   2.030   7.631   2.921  0.2179 -0.3092 -0.2233
10394SOL    HW242112   2.069   7.484   2.862  1.2150  0.3932 -1.3306
10395SOL     OW42113   3.519   8.546   0.050  0.6497 -0.3103  0.0955
10395SOL    HW142114   3.610   8.587   0.047 -0.0492  1.3231  0.4167
10395SOL    HW242115   3.489   8.538   0.145  0.2946 -0.4775 -0.0291
10396SOL     OW42116   8.643   7.499   1.017 -0.2402 -0.2221 -0.3693
10396SOL    HW142117   8.576   7.427   0.998 -1.7686  1.4564 -1.5169
10396SOL    HW242118   8.735   7.464   1.000 -0.8655 -2.3110  0.4112
10397SOL     OW42119   2.879   4.631   4.455  0.0246 -0.3412 -0.3094
10397SOL    HW142120   2.940   4.583   4.519  2.0781  0.4770 -1.5815
10397SOL    HW242121   2.933   4.667   4.379 -1.4305  3.8788  0.5210
10398SOL     OW42122   9.680   4.029   0.731 -0.0576  0.0278 -0.0405
10398SOL    HW142123   9.766   4.072   0.705 -0.9159  0.4370 -2.3058
10398SOL    HW242124   9.605   4.095   0.723 -0.9358 -1.0004 -0.4549
10399SOL     OW42125   4.773   8.612   0.042  0.1025  0.2118 -0.4347
10399SOL    HW142126   4.747   8.613  -0.055 -1.7944 -0.1570  0.0523
10399SOL    HW242127   4.841   8.683   0.058  1.1432 -0.3285 -2.2128
10400SOL     OW42128   2.334   0.615   3.850 -0.7351 -0.7228  0.0855
10400SOL    HW142129   2.285   0.682   3.794 -0.2186  0.5968  1.1955
10400SOL    HW242130   2.430   0.613   3.822  0.0002  1.4659  2.2577
10401SOL     OW42131   9.276   1.954   2.685 -0.1852 -0.2586  0.0129
10401SOL    HW142132   9.234   2.043   2.698 -0.8833 -0.7713  1.3482
10401SOL    HW242133   9.375   1.961   2.698 -0.2872  0.2329  0.5374
10402SOL     OW42134   1.734   5.910   1.641 -0.0599 -0.2929  0.1017
10402SOL    HW142135   1.750   5.818   1.607  0.5761  0.1799 -0.8927
10402SOL    HW242136   1.821   5.956   1.658 -0.3574  0.5654 -0.6303
10403SOL     OW42137   3.267   0.744   0.657  0.6473  0.5581  0.2660
10403SOL    HW142138   3.333   0.813   0.628  3.2563 -1.7742  0.4357
10403SOL    HW242139   3.261   0.673   0.587  1.2013 -1.1667  1.9150
10404SOL     OW42140   1.922   1.823   3.530  0.7942  0.3445  0.2691
10404SOL    HW142141   1.896   1.888   3.602 -2.1500  0.4105 -0.7878
10404SOL    HW242142   1.841   1.773   3.499  2.7999 -3.0880  0.2691
10405SOL     OW42143   8.604   4.927   2.054  0.5266  0.3352  0.0847
10405SOL    HW142144   8.675   4.871   2.012  0.7205 -1.6055  2.9182
10405SOL    HW242145   8.522   4.925   1.996  1.4575 -0.5712 -1.2343
10406SOL     OW42146   7.423   4.735   0.449  0.3181  0.0218  0.6141
10406SOL    HW142147   7.426   4.786   0.364 -1.9562 -1.6491 -0.5415
10406SOL    HW242148   7.483   4.656   0.444 -0.4436 -0.5384  0.2242
10407SOL     OW42149   3.127   9.504   0.841  0.1316 -0.1839 -0.7939
10407SOL    HW142150   3.117   9.411   0.877 -1.1900 -0.2837 -1.3975
10407SOL    HW242151   3.128   9.502   0.741  0.5198  0.4161 -0.8086
10408SOL     OW42152   6.197   1.208   2.661  0.4126 -0.3359 -0.1640
10408SOL    HW142153   6.198   1.289   2.602  2.7918 -0.0554  0.1976
10408SOL    HW242154   6.186   1.236   2.756 -1.1732 -0.6286 -0.2506
10409SOL     OW42155   0.600   3.660   3.524 -0.2769  0.0569  0.1542
10409SOL    HW142156   0.595   3.631   3.620 -2.4984 -1.9285 -0.5360
10409SOL    HW242157   0.510   3.691   3.493  0.8378  2.5477 -0.7703
10410SOL     OW42158   0.894   5.431   5.004 -0.4229 -0.7660 -0.2065
10410SOL    HW142159   0.949   5.403   4.926  0.2595  0.7265 -0.2806
10410SOL    HW242160   0.896   5.531   5.012 -2.1822 -0.7678  0.4722
10411SOL     OW42161   1.033   4.482   3.366 -0.1004  0.2005 -0.2079
10411SOL    HW142162   0.980   4.508   3.285 -0.5419 -0.2433 -0.0634
10411SOL    HW242163   1.061   4.564   3.415 -2.2216  0.4087  0.7190
10412SOL     OW42164   1.518   2.967   2.535 -0.3437 -0.2281  0.0959
10412SOL    HW142165   1.570   2.904   2.593 -0.7099 -1.1384 -0.5539
10412SOL    HW242166   1.489   2.919   2.452 -0.6101  0.8062 -0.4137
10413SOL     OW42167   3.491   2.703   3.173 -0.1994  0.3760 -0.1491
10413SOL    HW142168   3.463   2.764   3.099  0.8243 -0.1199 -0.9634
10413SOL    HW242169   3.589   2.713   3.189 -0.3561  0.2286  0.9146
10414SOL     OW42170   0.801   7.719   3.260 -0.0655 -0.1317 -0.4388
10414SOL    HW142171   0.707   7.727   3.228  0.5530  0.0649 -2.2426
10414SOL    HW242172   0.844   7.809   3.259 -0.2817  0.0164  1.7634
10415SOL     OW42173   4.538   3.313   0.146 -0.1706 -0.6446  0.2594
10415SOL    HW142174   4.494   3.401   0.167  1.2937  0.1210  0.1606
10415SOL    HW242175   4.607   3.326   0.075 -1.3133 -2.2438 -1.1892
10416SOL     OW42176   3.170   0.831   1.430 -0.0034  0.4388 -0.1294
10416SOL    HW142177   3.266   0.826   1.461  1.0628  2.1355 -2.9972
10416SOL    HW242178   3.140   0.740   1.403  0.5556 -0.2381  1.4430
10417SOL     OW42179   4.425   1.319   2.040  0.3661 -0.1338 -0.5848
10417SOL    HW142180   4.333   1.356   2.023  0.3037  0.2102  0.4592
10417SOL    HW242181   4.438   1.237   1.984 -1.5265 -1.6289  1.0787
10418SOL     OW42182   1.092   8.080   5.611  0.3414  0.4099  0.1460
10418SOL    HW142183   1.069   8.176   5.601 -0.0296  0.0267 -3.1990
10418SOL    HW242184   1.016   8.032   5.655  0.2233  1.4913  1.1292
10419SOL     OW42185   0.776   4.884   1.361  0.1259 -0.0246 -0.1601
10419SOL    HW142186   0.698   4.821   1.355  0.8598 -0.9165 -0.4431
10419SOL    HW242187   0.754   4.958   1.425 -0.7077 -0.6162  0.2547
10420SOL     OW42188   0.193   3.225   0.197  0.0661  0.5353 -0.3299
10420SOL    HW142189   0.125   3.175   0.143 -1.5924  2.5102 -0.1081
10420SOL    HW242190   0.275   3.241   0.141 -0.3233 -0.3183 -1.1669
10421SOL     OW42191   2.967   1.049   0.032 -0.2712  0.4701 -0.0299
10421SOL    HW142192   2.958   1.134  -0.020  1.4194  1.2506  0.8978
10421SOL    HW242193   3.038   0.992  -0.010 -2.0357 -0.9244 -1.1882
10422SOL     OW42194   1.453   6.363   1.015  0.3918 -0.3623  0.1694
10422SOL    HW142195   1.446   6.334   1.110  1.8558  0.8614  0.6442
10422SOL    HW242196   1.533   6.420   1.002  1.1444 -1.8577 -2.1485
10423SOL     OW42197   9.415   1.626   2.504 -0.1801 -0.2368  0.0338
10423SOL    HW142198   9.491   1.656   2.447  0.2814  0.4428  1.0060
10423SOL    HW242199   9.350   1.702   2.515 -0.6336 -0.5892 -0.1768
10424SOL     OW42200   2.217   8.157   2.764 -0.1579  0.0840 -0.1269
10424SOL    HW142201   2.118   8.157   2.778 -0.0352 -2.1844  1.0212
10424SOL    HW242202   2.263   8.161   2.852  0.7354 -0.8787 -0.5369
10425SOL     OW42203   1.366   2.615   1.040  0.1639 -0.1672 -0.0476
10425SOL    HW142204   1.282   2.563   1.025 -0.6586  1.3640 -0.9201
10425SOL    HW242205   1.440   2.575   0.986  0.1399 -1.8678  1.1647
10426SOL     OW42206   8.501   5.841   2.665 -0.2853  0.9907  0.0461
10426SOL    HW142207   8.412   5.840   2.709 -1.3835  0.6068 -2.1098
10426SOL    HW242208   8.521   5.751   2.627  1.6056  0.7251  1.5714
10427SOL     OW42209   0.729   0.790   0.914 -0.0065  0.0466  0.0433
10427SOL    HW142210   0.811   0.807   0.859 -0.2817  0.0519 -0.3682
10427SOL    HW242211   0.691   0.701   0.891  0.1601 -0.1700  0.5890
10428SOL     OW42212   4.986   7.566   3.035 -0.2102 -0.2021  0.3112
10428SOL    HW142213   4.887   7.571   3.024 -0.1725  0.5704  0.2276
10428SOL    HW242214   5.008   7.523   3.122 -0.6560  1.2584  1.1635
10429SOL     OW42215   0.578   4.565   4.808 -0.1299  0.2330  0.0466
10429SOL    HW142216   0.565   4.654   4.762  1.0465  0.0124 -0.7248
10429SOL    HW242217   0.669   4.530   4.787  0.4678  0.1661  2.6540
10430SOL     OW42218   2.010   5.862   4.348 -0.0693 -0.8182 -0.0857
10430SOL    HW142219   1.954   5.941   4.373 -0.6047 -1.5988  1.2333
10430SOL    HW242220   1.963   5.778   4.373  1.0803 -1.5236 -0.2350
10431SOL     OW42221   0.430   1.758   2.829  0.5010 -0.1035 -0.0005
10431SOL    HW142222   0.501   1.728   2.766  0.6222  2.6489 -1.2446
10431SOL    HW242223   0.341   1.729   2.794  0.8094 -1.5534  0.3741
10432SOL     OW42224   4.713   8.081   1.521  0.5191 -0.5430  0.0715
10432SOL    HW142225   4.734   8.178   1.507  0.0949 -0.0085  2.8654
10432SOL    HW242226   4.640   8.054   1.459  2.5581  0.1538 -2.7212
10433SOL     OW42227   4.195   8.956   0.534 -0.0921  0.4270  0.2345
10433SOL    HW142228   4.135   8.983   0.459 -0.0276  1.3665  0.5193
10433SOL    HW242229   4.168   8.866   0.568 -0.9568  0.5848 -0.0402
10434SOL     OW42230   7.460   3.350   4.661  0.2977 -0.1964  0.2238
10434SOL    HW142231   7.459   3.327   4.564  1.0014 -1.9697  0.6322
10434SOL    HW242232   7.533   3.417   4.679 -0.0827  0.4197 -0.5281
10435SOL     OW42233   1.537   1.527   5.116  0.0203  0.4823  0.7754
10435SOL    HW142234   1.454   1.486   5.078  1.0461  0.1579 -1.1960
10435SOL    HW242235   1.557   1.486   5.205 -0.1305 -1.8273 -0.2134
10436SOL     OW42236   3.122   0.550   0.435  0.3393  0.3901 -0.5037
10436SOL    HW142237   3.038   0.527   0.484  1.1674 -0.1757  0.6630
10436SOL    HW242238   3.107   0.632   0.379 -0.0080  2.3846  2.4030
10437SOL     OW42239   8.533   3.701   3.464 -0.7956  0.2752 -0.2475
10437SOL    HW142240   8.625   3.670   3.489 -0.0480  2.3094 -0.3607
10437SOL    HW242241   8.477   3.711   3.546 -0.7729 -0.5587 -0.1342
10438SOL     OW42242   1.953   3.000   1.867  0.1137 -0.3988 -0.3603
10438SOL    HW142243   2.024   2.931   1.879 -0.4844 -0.5602  2.5427
10438SOL    HW242244   1.982   3.086   1.909 -0.5379  0.1302 -0.9843
10439SOL     OW42245   3.921   3.530   2.682  0.2998  0.3434  0.0154
10439SOL    HW142246   3.824   3.533   2.706  0.1228  3.0670 -0.9326
10439SOL    HW242247   3.975   3.515   2.765 -0.7793  1.2507  0.8940
10440SOL     OW42248   1.130   4.752   4.537  0.5635  0.6604  0.0002
10440SOL    HW142249   1.093   4.831   4.587  0.4033  0.4502  0.2137
10440SOL    HW242250   1.078   4.670   4.560  0.9449  0.4272  0.0343
10441SOL     OW42251   7.647   2.522   0.007 -0.2574 -0.0588  0.8425
10441SOL    HW142252   7.644   2.599  -0.056  0.0560 -0.5321  0.2457
10441SOL    HW242253   7.682   2.441  -0.040 -1.7626 -0.9005  1.1255
10442SOL     OW42254   2.246   6.278   4.865  0.2513 -0.4345  0.0168
10442SOL    HW142255   2.223   6.199   4.922 -1.0899 -0.9187 -1.1695
10442SOL    HW242256   2.238   6.253   4.768  1.3846  0.7038 -0.3897
10443SOL     OW42257   4.956   3.577   1.245  0.2374  0.4008 -0.0462
10443SOL    HW142258   4.867   3.544   1.275  1.4810 -1.7576  1.4152
10443SOL    HW242259   4.989   3.522   1.168  0.0551  1.5771 -0.9774
10444SOL     OW42260   9.647   5.258   1.018 -0.0628  0.5224 -0.0793
10444SOL    HW142261   9.588   5.324   0.970 -0.7470 -0.6050 -0.8105
10444SOL    HW242262   9.742   5.273   0.990 -0.0141  2.1812  0.9115
10445SOL     OW42263   6.483   7.126   4.026 -0.2123  0.5017  0.5845
10445SOL    HW142264   6.417   7.168   4.090 -0.0737 -0.1344  1.1537
10445SOL    HW242265   6.436   7.099   3.942 -0.6776  0.1026  0.9680
10446SOL     OW42266   8.598   0.509   1.941 -0.4422 -0.6883 -0.0361
10446SOL    HW142267   8.587   0.454   2.024  2.4190  1.3356  1.7677
10446SOL    HW242268   8.559   0.600   1.957 -1.4416 -0.8240 -1.5674
10447SOL     OW42269   8.916   5.223   3.480 -0.0899 -0.2511  0.3194
10447SOL    HW142270   8.904   5.306   3.426 -1.4816 -1.0917 -0.7124
10447SOL    HW242271   9.002   5.228   3.531  0.0501  1.6237 -0.0553
10448SOL     OW42272   0.793   4.703   5.506  0.2586 -0.3610 -0.2711
10448SOL    HW142273   0.811   4.792   5.466  1.4659  0.3735  1.8081
10448SOL    HW242274   0.766   4.639   5.434  0.5043  1.3638 -1.9497
10449SOL     OW42275   7.284   9.718   2.180 -0.1026  0.1175 -0.2109
10449SOL    HW142276   7.332   9.723   2.093  0.7509 -1.2304  0.1678
10449SOL    HW242277   7.186   9.706   2.164 -0.0154  0.4315 -0.9780
10450SOL     OW42278   7.628   1.267   0.201 -0.9171 -0.1744  0.8945
10450SOL    HW142279   7.649   1.299   0.294  0.9482  0.2154  0.3650
10450SOL    HW242280   7.597   1.344   0.146 -0.7946 -0.1634  0.8421
10451SOL     OW42281   8.560   8.516   3.610  0.3075  0.6527 -0.3863
10451SOL    HW142282   8.466   8.508   3.576  0.0570  1.6965  0.0400
10451SOL    HW242283   8.597   8.425   3.628 -0.9044  0.2619  0.2011
10452SOL     OW42284   9.756   0.507   1.333 -0.4688 -0.4113 -0.3607
10452SOL    HW142285   9.836   0.452   1.360 -0.4823  0.6092  1.8455
10452SOL    HW242286   9.766   0.534   1.237  1.6083 -0.7055 -0.2638
10453SOL     OW42287   7.642   1.320   3.031  0.2962  0.2583 -0.4610
10453SOL    HW142288   7.682   1.254   2.968  0.1786 -0.7169  0.4730
10453SOL    HW242289   7.641   1.411   2.989 -0.5153 -0.5290 -2.1664
10454SOL     OW42290   2.192   4.789   1.044  0.0735 -0.0217  0.6028
10454SOL    HW142291   2.262   4.717   1.043 -0.5751 -0.6583 -0.9012
10454SOL    HW242292   2.218   4.859   1.110  3.0554  0.6485 -1.1670
10455SOL     OW42293   8.773   4.297   0.099  0.4563 -1.0698 -0.1629
10455SOL    HW142294   8.821   4.280   0.186  0.3087 -0.6845 -0.0043
10455SOL    HW242295   8.748   4.210   0.058  3.2319 -1.3766 -1.3300
10456SOL     OW42296   3.337   3.222   2.666  0.3582 -0.0162 -0.0966
10456SOL    HW142297   3.430   3.216   2.630  0.1817 -0.4158 -0.4973
10456SOL    HW242298   3.338   3.206   2.765  0.6510 -0.5879 -0.1890
10457SOL     OW42299   0.473   9.952   1.843 -0.5678  0.0041 -0.3514
10457SOL    HW142300   0.485   9.961   1.942 -0.2178  1.4258 -0.5099
10457SOL    HW242301   0.516  10.030   1.797 -1.3245 -0.2939 -1.5852
10458SOL     OW42302   2.797   7.519   1.976 -0.2329 -0.3890  0.1413
10458SOL    HW142303   2.713   7.574   1.976 -0.7220 -1.1317  0.8538
10458SOL    HW242304   2.876   7.579   1.990 -0.6924  0.2363  0.0778
10459SOL     OW42305   7.964   1.457   3.335 -0.8137  0.1205 -0.5364
10459SOL    HW142306   7.948   1.392   3.410 -1.0302  1.2111  0.3798
10459SOL    HW242307   7.901   1.437   3.260 -1.5114 -0.1598  0.1172
10460SOL     OW42308   9.303   3.418   1.636 -0.4108 -0.5891 -0.5389
10460SOL    HW142309   9.396   3.451   1.652 -0.1567 -1.6768  0.2918
10460SOL    HW242310   9.270   3.370   1.717 -2.1753  0.8600 -0.3440
10461SOL     OW42311   8.804   7.298   5.073 -0.3360  0.5892 -0.1648
10461SOL    HW142312   8.839   7.284   5.166 -0.7066  0.8520  0.0176
10461SOL    HW242313   8.704   7.309   5.076 -0.4786 -0.5625 -0.7326
10462SOL     OW42314   0.553   2.229   4.652  0.1759 -0.2035  0.9461
10462SOL    HW142315   0.490   2.154   4.670 -0.1708  0.1949  1.4004
10462SOL    HW242316   0.567   2.282   4.736  0.6437  0.0716  0.6997
10463SOL     OW42317   0.392   8.349   3.312 -0.3988 -0.4543 -0.6310
10463SOL    HW142318   0.440   8.433   3.337  0.0353 -1.1791  1.0536
10463SOL    HW242319   0.326   8.369   3.239 -1.4559  1.7010  0.8451
10464SOL     OW42320   2.409   3.275   1.177  0.0571  0.6567  0.3848
10464SOL    HW142321   2.366   3.195   1.218  1.0693  0.0768  0.3126
10464SOL    HW242322   2.362   3.298   1.091 -1.0985  0.9679  1.0922
10465SOL     OW42323   1.650   4.585   0.787 -0.1194  0.0461 -0.1984
10465SOL    HW142324   1.657   4.603   0.689  0.0480  1.5965  0.0890
10465SOL    HW242325   1.579   4.515   0.803 -0.4376  0.0892 -1.3794
10466SOL     OW42326   9.667   1.293   0.999 -0.1594 -0.0189 -0.1722
10466SOL    HW142327   9.767   1.300   1.005 -0.0994 -1.2133  0.1609
10466SOL    HW242328   9.632   1.368   0.942  0.9392  0.3078 -0.4209
10467SOL     OW42329   8.124   2.570   1.769  0.4584  0.1035  0.7773
10467SOL    HW142330   8.175   2.581   1.683 -1.2221 -2.7046 -0.6601
10467SOL    HW242331   8.036   2.616   1.762 -0.2065 -1.1823  0.4829
10468SOL     OW42332   0.995   5.261   3.565  0.0764 -0.4679 -0.0631
10468SOL    HW142333   1.049   5.346   3.567 -0.9536  0.2102 -0.3805
10468SOL    HW242334   0.918   5.273   3.501  0.0913 -1.7476 -0.3198
10469SOL     OW42335   6.737   9.400   2.197 -0.1572  0.9321 -0.4194
10469SOL    HW142336   6.833   9.374   2.189 -0.2383  0.4073  0.2622
10469SOL    HW242337   6.689   9.372   2.114 -0.0713 -0.4007 -0.0423
10470SOL     OW42338   0.613   6.448   1.788 -0.0491 -0.1170  0.2375
10470SOL    HW142339   0.521   6.454   1.827  0.0992 -2.1078  0.9456
10470SOL    HW242340   0.608   6.465   1.689 -1.0282  0.7810  0.4295
10471SOL     OW42341   2.788   5.573   4.575  0.5494  0.3032 -0.0099
10471SOL    HW142342   2.735   5.644   4.620  0.7177 -0.4435  1.3914
10471SOL    HW242343   2.727   5.508   4.530  0.2370 -0.8392  2.0287
10472SOL     OW42344   3.850   4.346   4.621 -0.1787  0.4956  0.0504
10472SOL    HW142345   3.926   4.314   4.678  1.2224  2.1718 -0.8204
10472SOL    HW242346   3.814   4.269   4.568 -0.3999 -0.7248  1.9387
10473SOL     OW42347   8.495   7.652   0.346  0.2490  0.3311  0.2604
10473SOL    HW142348   8.417   7.687   0.293  1.3861  1.3057 -0.7820
10473SOL    HW242349   8.570   7.718   0.343  1.2149 -0.7154  1.0441
10474SOL     OW42350   8.738   6.562   3.144  0.2849 -0.4237  0.1716
10474SOL    HW142351   8.767   6.569   3.240 -0.6753 -1.4191  0.5467
10474SOL    HW242352   8.671   6.489   3.135 -0.8371  0.7326 -0.9980
10475SOL     OW42353   2.963   9.374   3.882  0.0701  0.7878 -0.0387
10475SOL    HW142354   3.055   9.360   3.847  0.2818  0.2826  0.7015
10475SOL    HW242355   2.960   9.349   3.979 -1.0207  0.0322 -0.2537
10476SOL     OW42356   8.340   7.781   3.205 -0.2040  0.9365 -0.5640
10476SOL    HW142357   8.289   7.703   3.168  2.0549  0.2472 -2.2848
10476SOL    HW242358   8.316   7.864   3.154 -1.5196  1.1207  0.3248
10477SOL     OW42359   2.045   4.868   1.449  0.2661 -0.5550  0.6132
10477SOL    HW142360   2.001   4.873   1.539  0.1483  1.3004  0.4807
10477SOL    HW242361   1.991   4.919   1.382  1.6132  0.1628  0.0444
10478SOL     OW42362   8.549   5.470   3.148  0.1588  0.4561 -0.0208
10478SOL    HW142363   8.527   5.377   3.180 -0.9149  1.5168  2.4355
10478SOL    HW242364   8.613   5.464   3.072  0.0826 -2.3096  0.0586
10479SOL     OW42365   8.756   5.652   4.842 -0.2049 -0.1590  0.1314
10479SOL    HW142366   8.670   5.683   4.883  0.0276  0.8716 -0.1352
10479SOL    HW242367   8.759   5.552   4.840 -0.5913 -0.2153  1.8431
10480SOL     OW42368   4.318   1.057   3.784  0.4415  0.0045 -0.1233
10480SOL    HW142369   4.309   1.110   3.700 -0.1618 -0.2308 -0.2111
10480SOL    HW242370   4.258   1.095   3.854  1.0383  0.2766  0.2398
10481SOL     OW42371   2.328   7.854   3.161  0.2885  0.0033 -0.4330
10481SOL    HW142372   2.420   7.856   3.122  1.0379 -0.3081  1.2986
10481SOL    HW242373   2.297   7.947   3.180 -0.6574  0.2799 -3.0108
10482SOL     OW42374   3.458   3.501   4.703  0.0635  0.4061  0.0775
10482SOL    HW142375   3.470   3.600   4.702 -1.4577  0.6100  0.8931
10482SOL    HW242376   3.365   3.477   4.676  1.2689 -0.9814 -3.0462
10483SOL     OW42377   0.371   8.349   1.284 -0.7765 -0.0886  0.4181
10483SOL    HW142378   0.463   8.376   1.257 -0.0787 -1.3421  1.4710
10483SOL    HW242379   0.309   8.426   1.273  0.2579  0.5606 -0.9638
10484SOL     OW42380   4.050   2.013   5.134 -0.0546 -0.1808 -0.2433
10484SOL    HW142381   4.130   2.072   5.128 -0.3665  0.2533 -0.2002
10484SOL    HW242382   3.976   2.052   5.079  0.2901 -1.4287 -1.6228
10485SOL     OW42383   1.335   0.844   4.539  0.5408 -0.4793  0.0333
10485SOL    HW142384   1.358   0.798   4.454  1.9847  0.2369  0.0269
10485SOL    HW242385   1.329   0.777   4.613  0.2424 -0.9729 -0.4382
10486SOL     OW42386   0.386   9.195   3.244  0.2269 -0.2865  0.3758
10486SOL    HW142387   0.393   9.095   3.236 -0.2170 -0.2079 -1.0862
10486SOL    HW242388   0.294   9.225   3.221  0.2521  0.4369  1.1825
10487SOL     OW42389   2.082   8.894   2.513  0.5068 -0.4785  0.4960
10487SOL    HW142390   2.086   8.810   2.566  2.0534 -1.4878 -1.1515
10487SOL    HW242391   1.999   8.894   2.457  0.5974 -1.0184  0.3569
10488SOL     OW42392   7.895   7.126   3.507  0.1634 -0.3962 -0.3962
10488SOL    HW142393   7.837   7.146   3.586  1.2097  1.9263 -0.1670
10488SOL    HW242394   7.981   7.086   3.537 -0.0142 -0.8220 -0.4620
10489SOL     OW42395   3.763   5.917   2.651 -0.4038  0.1191 -0.6438
10489SOL    HW142396   3.780   6.012   2.677 -0.6810 -0.7870  3.1811
10489SOL    HW242397   3.698   5.876   2.715  0.0156 -2.7794 -1.9962
10490SOL     OW42398   8.467   0.267   4.807  0.9037 -0.1928  0.5603
10490SOL    HW142399   8.402   0.226   4.744  2.7992 -0.8830 -1.0007
10490SOL    HW242400   8.470   0.215   4.892 -1.5454  0.6445  1.1940
10491SOL     OW42401   9.967   8.750   0.949 -0.3697  0.1037 -0.6501
10491SOL    HW142402   9.900   8.723   1.018 -0.4227 -0.9652 -1.1213
10491SOL    HW242403  10.054   8.771   0.994 -0.3989 -0.5960 -0.2643
10492SOL     OW42404   6.034   9.862   2.648  0.7887 -0.1177 -0.2124
10492SOL    HW142405   6.074   9.882   2.559  3.0706 -0.2329  0.7582
10492SOL    HW242406   6.107   9.846   2.715 -0.8882 -0.5418  1.5644
10493SOL     OW42407   7.259   1.901   2.362 -0.1390 -0.2899  0.3366
10493SOL    HW142408   7.313   1.961   2.421  0.0749  0.2402 -0.3950
10493SOL    HW242409   7.192   1.851   2.418  0.3446 -0.1092  1.0844
10494SOL     OW42410   9.184   6.293   3.067 -0.5257 -0.1964  0.5409
10494SOL    HW142411   9.087   6.300   3.047 -0.1258  0.2667 -1.2603
10494SOL    HW242412   9.210   6.197   3.075 -0.6972 -0.4019 -1.1842
10495SOL     OW42413   3.609   4.846   0.976 -0.0973 -0.2011  0.0092
10495SOL    HW142414   3.536   4.910   1.000  0.1139 -0.3752  1.1504
10495SOL    HW242415   3.634   4.858   0.880 -1.3865  0.0961 -0.2968
10496SOL     OW42416   3.517   5.991   0.555 -0.4157 -0.1475 -0.2582
10496SOL    HW142417   3.575   6.025   0.630 -1.1352 -0.2933  0.3755
10496SOL    HW242418   3.495   6.066   0.493  0.6236 -0.1350 -0.6132
10497SOL     OW42419   2.467   6.828   1.461 -0.2439  0.0685 -0.1748
10497SOL    HW142420   2.428   6.749   1.415 -0.0128  0.4093 -0.9637
10497SOL    HW242421   2.393   6.887   1.493 -0.3989  0.2937 -0.9294
10498SOL     OW42422   7.322   4.456   4.779  0.1891 -0.0865 -0.1048
10498SOL    HW142423   7.288   4.543   4.813  2.4087  0.7256  0.1167
10498SOL    HW242424   7.247   4.390   4.775 -1.1880  1.3656  1.2230
10499SOL     OW42425   7.169   7.503   4.319  0.4631  0.2029 -0.1723
10499SOL    HW142426   7.219   7.419   4.342  0.3397 -0.2036 -1.3950
10499SOL    HW242427   7.139   7.500   4.224 -1.7040  0.5397  0.4778
10500SOL     OW42428   9.022   9.571   0.149 -0.3254 -0.2521  0.0070
10500SOL    HW142429   9.069   9.493   0.191 -0.0941  0.2000  0.5937
10500SOL    HW242430   9.059   9.656   0.187  0.9927  0.2144 -2.2588
10501SOL     OW42431   7.594   1.670   0.665  0.1107  0.7538  0.0566
10501SOL    HW142432   7.575   1.728   0.744 -1.2579 -0.0979  0.3620
10501SOL    HW242433   7.512   1.619   0.640  1.1835 -0.7530 -0.4706
10502SOL     OW42434   2.736   5.992   0.147 -0.3646 -0.0778 -0.6942
10502SOL    HW142435   2.714   6.085   0.119  0.8145  0.2177 -0.6834
10502SOL    HW242436   2.687   5.927   0.088 -1.8545  0.5406 -0.1408
10503SOL     OW42437   4.001   8.261   0.446 -0.3012 -0.0480  0.1748
10503SOL    HW142438   4.042   8.173   0.472 -1.3753 -0.7968 -0.5802
10503SOL    HW242439   3.984   8.261   0.347 -0.0830  1.1141  0.1325
10504SOL     OW42440   3.113   9.710   4.640  0.4590  0.4042 -0.3938
10504SOL    HW142441   3.031   9.696   4.696  0.1603 -0.7515 -1.1072
10504SOL    HW242442   3.169   9.628   4.641  0.0118  0.0319 -2.4901
10505SOL     OW42443   9.124   6.713   2.129  0.5901 -0.2700 -0.7105
10505SOL    HW142444   9.049   6.755   2.077 -0.2870 -0.5154  0.3539
10505SOL    HW242445   9.182   6.784   2.168 -0.1760 -0.0504  0.0402
10506SOL     OW42446   9.418   8.831   3.857  0.0014  0.1369 -0.4552
10506SOL    HW142447   9.457   8.884   3.933  0.8003  0.5248 -1.1292
10506SOL    HW242448   9.349   8.886   3.810 -0.9463 -0.3335  0.3671
10507SOL     OW42449   2.071   8.372   3.237 -0.2963 -0.3361  0.1956
10507SOL    HW142450   2.094   8.332   3.326 -2.2223 -3.9127 -0.7998
10507SOL    HW242451   1.984   8.420   3.243 -0.8820 -1.3771  0.0280
10508SOL     OW42452   0.055   2.724   2.948 -0.3388 -0.6114  0.4196
10508SOL    HW142453   0.039   2.698   2.853  1.4409  0.6202 -0.2347
10508SOL    HW242454  -0.032   2.746   2.992 -1.0307  0.0761 -1.2823
10509SOL     OW42455   7.240   6.565   3.745 -0.3982  0.5148  0.2885
10509SOL    HW142456   7.325   6.604   3.781 -0.9141  0.0266  2.0721
10509SOL    HW242457   7.262   6.496   3.676  0.6412  0.5573  0.5735
10510SOL     OW42458   3.047   1.724   4.902 -0.4989  0.4713  0.0741
10510SOL    HW142459   3.049   1.822   4.884 -0.2515  0.5377  0.4532
10510SOL    HW242460   3.040   1.709   5.001 -0.5981  0.1090  0.0129
10511SOL     OW42461   9.230   3.497   3.513  0.3296 -0.4518  0.1419
10511SOL    HW142462   9.142   3.503   3.560  0.2728  1.9708 -0.2145
10511SOL    HW242463   9.301   3.473   3.579  0.0843  1.8993  1.3140
10512SOL     OW42464   7.677   4.132   4.592 -0.3385 -0.4531  0.1380
10512SOL    HW142465   7.772   4.163   4.592 -0.8068  0.9835  0.3742
10512SOL    HW242466   7.628   4.171   4.670 -1.1524 -1.1041 -0.0365
10513SOL     OW42467   2.286   6.978   1.590  0.0075  0.2659  0.0547
10513SOL    HW142468   2.189   6.996   1.581  0.1756  1.0838 -0.1195
10513SOL    HW242469   2.329   7.052   1.641 -0.0994 -1.8567  3.4328
10514SOL     OW42470   6.698   0.370   3.319 -0.9270  0.5393  0.1479
10514SOL    HW142471   6.700   0.392   3.416  0.0049  0.9621  0.0377
10514SOL    HW242472   6.619   0.311   3.299  0.2270 -1.5435  1.5748
10515SOL     OW42473   1.139   1.731   3.259  0.0427  0.2185 -0.2281
10515SOL    HW142474   1.208   1.710   3.189 -0.7125 -0.5073 -0.7702
10515SOL    HW242475   1.177   1.795   3.325  1.1611  0.0045 -0.6511
10516SOL     OW42476   0.244   8.706   0.496  0.3283 -0.4183  0.1799
10516SOL    HW142477   0.186   8.684   0.574  0.0669 -0.2427  0.0342
10516SOL    HW242478   0.317   8.768   0.524 -0.8529  1.1120 -0.1227
10517SOL     OW42479   2.730   9.748   2.129 -0.2884 -0.6124 -0.2404
10517SOL    HW142480   2.695   9.667   2.176 -1.4548  0.8263  1.4413
10517SOL    HW242481   2.654   9.810   2.109  0.8786  1.1844  0.7222
10518SOL     OW42482   4.118   1.219   1.116  0.2491  0.0049 -0.5480
10518SOL    HW142483   4.077   1.133   1.084 -0.0162  0.3054 -1.0322
10518SOL    HW242484   4.076   1.296   1.066  0.1101  0.4523  0.2502
10519SOL     OW42485   7.000   8.860   3.715  0.2185  0.0347 -0.5507
10519SOL    HW142486   7.098   8.844   3.727 -0.0659 -0.3223  1.4766
10519SOL    HW242487   6.957   8.780   3.673  0.6159 -0.2240 -0.4589
10520SOL     OW42488   2.730   8.427   4.876  0.2905 -0.5721 -0.6167
10520SOL    HW142489   2.642   8.451   4.835  0.2183 -1.5132 -1.0034
10520SOL    HW242490   2.804   8.473   4.826 -0.1283  2.5432  1.4241
10521SOL     OW42491   9.472   7.651   4.342  0.0227  0.0752  0.2133
10521SOL    HW142492   9.444   7.578   4.404  2.5788 -0.0534  1.2875
10521SOL    HW242493   9.551   7.621   4.289 -0.4836  1.1544 -1.1874
10522SOL     OW42494   0.066   0.073   2.267 -0.8525  0.5616 -0.0678
10522SOL    HW142495   0.130   0.143   2.299 -1.9114  1.5359 -0.0945
10522SOL    HW242496   0.029   0.100   2.179 -0.1482 -0.7422 -0.7781
10523SOL     OW42497   1.007   0.124   4.172  0.0744 -0.5631  0.0858
10523SOL    HW142498   1.082   0.058   4.168  1.7766  1.3514 -0.5868
10523SOL    HW242499   1.043   0.216   4.162 -2.4670  0.3766 -1.0907
10524SOL     OW42500   6.796   8.402   2.255 -0.5215  0.8752  0.3830
10524SOL    HW142501   6.795   8.307   2.223 -2.3056  0.8102  0.5759
10524SOL    HW242502   6.889   8.427   2.283 -0.1351 -0.9663  0.8102
10525SOL     OW42503   4.888   4.207   1.687  0.2372 -0.2718  0.1328
10525SOL    HW142504   4.861   4.211   1.590 -0.3309  1.0132  0.3341
10525SOL    HW242505   4.815   4.164   1.740 -0.4319  1.0697  0.3203
10526SOL     OW42506   0.968   9.032   1.698  0.4988  0.1335 -0.7496
10526SOL    HW142507   0.907   9.107   1.724  0.2748 -0.2274 -0.2258
10526SOL    HW242508   0.954   9.009   1.602  0.3481  0.5566 -0.8294
10527SOL     OW42509   6.573   1.023   4.517  0.0584 -0.8448  0.5357
10527SOL    HW142510   6.490   1.054   4.562 -0.5288 -3.6547  1.4919
10527SOL    HW242511   6.642   1.095   4.519 -1.7403  0.8678  1.3321
10528SOL     OW42512   5.122   0.090   3.649  0.1672  0.2181 -0.8088
10528SOL    HW142513   5.104   0.188   3.642  0.7608  0.2867 -1.4564
10528SOL    HW242514   5.220   0.074   3.641 -0.0349 -0.5277 -1.7819
10529SOL     OW42515   9.120   5.543   0.794  0.1014 -0.0513  0.0956
10529SOL    HW142516   9.041   5.502   0.839  1.3632 -0.3454  2.1043
10529SOL    HW242517   9.171   5.471   0.745  0.2096 -0.2134  0.4446
10530SOL     OW42518   8.124   3.072   4.002  0.4670  0.1359 -0.0597
10530SOL    HW142519   8.115   2.982   3.959  0.3421  0.1984 -0.1653
10530SOL    HW242520   8.126   3.142   3.931 -1.7351  0.4030  0.1149
10531SOL     OW42521   8.132   4.084   0.144  0.0331  0.6934  0.0931
10531SOL    HW142522   8.048   4.035   0.166  0.6110 -0.1326  0.4825
10531SOL    HW242523   8.135   4.170   0.195  0.4169 -0.2643  1.7303
10532SOL     OW42524   9.637   2.865   1.348 -0.2861  0.0276  0.0020
10532SOL    HW142525   9.629   2.833   1.254 -0.2005  0.1723 -0.0557
10532SOL    HW242526   9.619   2.963   1.352  0.5217  0.1828  0.0049
10533SOL     OW42527   1.006   0.694   0.273 -0.1986  0.1373 -0.4602
10533SOL    HW142528   0.992   0.608   0.322 -0.8908  0.1714 -0.5924
10533SOL    HW242529   1.075   0.749   0.320  0.0313 -0.3642 -0.2127
10534SOL     OW42530   7.066   3.720   0.145  0.1779 -0.4305  0.1617
10534SOL    HW142531   7.110   3.730   0.234 -0.1873  0.4644  0.2525
10534SOL    HW242532   6.967   3.720   0.157  0.0467  2.3344 -0.4582
10535SOL     OW42533   8.882   3.241   2.941 -0.3176 -0.0734 -0.2209
10535SOL    HW142534   8.863   3.222   3.037  0.9714  0.2103  0.0960
10535SOL    HW242535   8.981   3.251   2.927 -0.4949 -0.0653 -1.5630
10536SOL     OW42536   0.846   0.671   3.719 -0.6394  0.0376  0.0201
10536SOL    HW142537   0.850   0.575   3.692  0.7814  0.4052 -1.1222
10536SOL    HW242538   0.903   0.685   3.800 -2.8019 -0.5420  1.6923
10537SOL     OW42539   3.020   2.149   2.646  0.2966 -0.0049  0.1915
10537SOL    HW142540   3.009   2.084   2.721  0.2231 -0.5169 -0.2614
10537SOL    HW242541   3.030   2.099   2.560 -1.4939  0.6117 -0.3939
10538SOL     OW42542   7.243   9.834   2.520  0.0572 -0.2429  0.0346
10538SOL    HW142543   7.234   9.821   2.619  2.8997 -0.9355  0.2324
10538SOL    HW242544   7.314   9.774   2.484  0.9914  1.9683 -1.9710
10539SOL     OW42545   9.186   0.601   3.754  0.0335 -0.5873 -0.6381
10539SOL    HW142546   9.221   0.659   3.828 -1.4676 -0.7263  0.2096
10539SOL    HW242547   9.257   0.589   3.685  0.7829  1.2696 -0.2396
10540SOL     OW42548   0.197   3.735   1.477  0.5425  0.4587  0.1618
10540SOL    HW142549   0.295   3.733   1.461  0.4712  1.2703 -0.3867
10540SOL    HW242550   0.156   3.650   1.444  0.9498  0.4423 -0.3020
10541SOL     OW42551   3.713   0.079   1.496  0.2913 -0.1449 -0.1053
10541SOL    HW142552   3.688   0.107   1.588  1.1493 -1.5827  0.5772
10541SOL    HW242553   3.667  -0.007   1.473  1.6498 -0.8555 -0.2402
10542SOL     OW42554   5.373   6.892   2.514  0.4842 -0.2129 -0.4477
10542SOL    HW142555   5.471   6.887   2.494  0.6602 -0.0715  0.3792
10542SOL    HW242556   5.347   6.986   2.533  0.7658 -0.6542  2.2215
10543SOL     OW42557   9.668   0.069   0.351  0.4178  0.2592  0.5091
10543SOL    HW142558   9.606   0.119   0.291  0.8398 -0.0633 -0.2130
10543SOL    HW242559   9.762   0.088   0.324  0.5650 -1.9881 -0.7003
10544SOL     OW42560   2.366   9.697   1.606  0.5874  0.9229 -0.7155
10544SOL    HW142561   2.388   9.601   1.621 -0.6294  0.7468  0.0750
10544SOL    HW242562   2.319   9.707   1.518 -0.1297  0.6481 -0.3672
10545SOL     OW42563   9.205   0.428   0.293  0.1150 -0.2533 -0.1441
10545SOL    HW142564   9.240   0.338   0.320  0.6072 -0.2744 -0.8215
10545SOL    HW242565   9.148   0.465   0.366  3.0909  0.6160  1.8518
10546SOL     OW42566   0.694   5.134   0.075  0.0572 -0.1607 -0.5929
10546SOL    HW142567   0.783   5.168   0.047 -0.0103  2.5900  2.2631
10546SOL    HW242568   0.622   5.187   0.028 -0.0512  0.3145  0.1010
10547SOL     OW42569   1.468   0.717   0.093 -0.4993  0.1381  0.3198
10547SOL    HW142570   1.432   0.681   0.179 -1.0769  1.0422  0.4662
10547SOL    HW242571   1.550   0.771   0.111  1.6638 -2.8794 -0.1403
10548SOL     OW42572   7.491   9.088   3.664 -0.2347 -0.6243 -0.4684
10548SOL    HW142573   7.499   9.187   3.650 -1.1079 -0.3777  0.6921
10548SOL    HW242574   7.574   9.043   3.630  0.0678  0.4726 -1.2313
10549SOL     OW42575   6.491   9.296   0.898 -0.4447  0.1886 -0.3043
10549SOL    HW142576   6.495   9.392   0.925  4.0040  0.3027 -1.0717
10549SOL    HW242577   6.475   9.289   0.799  0.8347  0.1799 -0.5113
10550SOL     OW42578   3.637   1.774   4.391 -0.3999  0.0264  0.5195
10550SOL    HW142579   3.651   1.864   4.433  1.8337 -0.7211  1.4571
10550SOL    HW242580   3.701   1.763   4.315 -0.2903 -0.9639  0.7526
10551SOL     OW42581   2.938   0.574   5.143 -0.7976 -0.0157  0.4743
10551SOL    HW142582   2.908   0.481   5.121 -1.1617  0.4689 -1.1903
10551SOL    HW242583   2.866   0.639   5.119 -1.1099  0.5961  2.9700
10552SOL     OW42584   4.127   2.385   3.409  0.0436  0.0703  0.5334
10552SOL    HW142585   4.059   2.384   3.336 -0.5367 -0.8580  1.0822
10552SOL    HW242586   4.168   2.476   3.414 -1.3870  0.7380  0.4147
10553SOL     OW42587   0.680   8.262   1.629  0.0194  0.0035 -0.3358
10553SOL    HW142588   0.658   8.225   1.720 -0.1007  0.0017 -0.3660
10553SOL    HW242589   0.777   8.248   1.611 -0.1477 -0.8617 -0.6103
10554SOL     OW42590   0.486   7.260   4.161  0.2138  0.0466 -0.2253
10554SOL    HW142591   0.488   7.314   4.077 -0.1059 -1.2484 -1.0856
10554SOL    HW242592   0.578   7.253   4.199  0.1958  1.5293  0.1235
10555SOL     OW42593   2.523   3.343   0.171 -0.1497  0.2108  1.1152
10555SOL    HW142594   2.489   3.437   0.164  0.7733  0.5395  1.0678
10555SOL    HW242595   2.612   3.336   0.128 -0.8786 -1.0456 -0.2382
10556SOL     OW42596   7.824   3.355   5.274  0.2220  0.5738 -0.0783
10556SOL    HW142597   7.774   3.419   5.215 -1.4463 -2.3431 -1.9450
10556SOL    HW242598   7.773   3.341   5.359 -0.8983 -0.5013 -0.9196
10557SOL     OW42599   9.574   8.754   0.043 -0.8475  0.1836 -0.1684
10557SOL    HW142600   9.577   8.700   0.127  0.8407  0.3694 -0.0871
10557SOL    HW242601   9.551   8.849   0.066  0.3380  0.3939  0.1825
10558SOL     OW42602   1.822   0.926   3.732 -0.2463 -0.0143  0.3974
10558SOL    HW142603   1.878   0.850   3.766 -0.7191 -0.9626 -0.9428
10558SOL    HW242604   1.836   0.936   3.634 -0.4425  1.4354  0.5114
10559SOL     OW42605   3.123   2.999   3.297  0.6372  0.3276  0.0519
10559SOL    HW142606   3.190   2.937   3.339  0.0568  1.1942  2.3392
10559SOL    HW242607   3.036   2.950   3.284  0.1930  0.6294  1.8096
10560SOL     OW42608   9.159   8.642   1.745  0.0175 -0.9966 -0.9090
10560SOL    HW142609   9.153   8.587   1.829  1.6566  0.5179  0.2331
10560SOL    HW242610   9.072   8.689   1.731  0.0201 -0.5598  0.4527
10561SOL     OW42611   9.834   3.738   1.400 -0.0172 -0.6458 -0.0056
10561SOL    HW142612   9.776   3.768   1.324 -1.3861 -1.9241  0.5053
10561SOL    HW242613   9.908   3.680   1.364  0.7741  0.7411 -0.6266
10562SOL     OW42614   1.402   1.678   0.795  0.0432 -0.3254  0.6556
10562SOL    HW142615   1.407   1.767   0.841 -1.9239  0.1688 -0.0518
10562SOL    HW242616   1.378   1.692   0.699  1.4368 -1.5294  0.1052
10563SOL     OW42617   2.715   7.047   5.477 -0.4005 -0.3181 -0.9416
10563SOL    HW142618   2.629   7.098   5.479 -0.7055 -0.8374 -0.4341
10563SOL    HW242619   2.696   6.951   5.454  0.0856 -0.3561 -1.1950
10564SOL     OW42620   4.505   2.822   2.422 -0.3162 -0.5083 -0.9189
10564SOL    HW142621   4.464   2.748   2.369 -0.7345 -1.6222  0.9027
10564SOL    HW242622   4.605   2.815   2.418 -0.3488 -0.7557 -1.2983
10565SOL     OW42623   2.392   8.615   5.025  0.0021  1.2027  0.2672
10565SOL    HW142624   2.472   8.669   5.049  0.2276  1.5063 -1.1131
10565SOL    HW242625   2.310   8.672   5.031  0.0466  1.2542  0.3813
10566SOL     OW42626   7.535   9.893   0.681 -0.3891  0.1830  0.3000
10566SOL    HW142627   7.465   9.822   0.677 -0.5331  0.2395  1.5471
10566SOL    HW242628   7.498   9.979   0.646  0.6612 -0.9855 -4.0088
10567SOL     OW42629   8.425   0.522   4.857  0.0179  0.2721  0.1749
10567SOL    HW142630   8.433   0.427   4.825 -2.0456  0.3848 -0.7218
10567SOL    HW242631   8.487   0.580   4.803  0.2595 -0.3356 -0.2086
10568SOL     OW42632   5.516   3.047   0.497  0.3784 -0.4764  0.6075
10568SOL    HW142633   5.517   3.143   0.470  2.0768 -0.0355  2.1518
10568SOL    HW242634   5.458   2.995   0.434  0.9088  1.2291 -1.3361
10569SOL     OW42635   9.416   0.136   0.785 -0.0816  0.2622 -0.2078
10569SOL    HW142636   9.467   0.106   0.704 -0.1104 -1.5893  0.4342
10569SOL    HW242637   9.323   0.102   0.780  0.5800 -1.9567  1.7347
10570SOL     OW42638   7.449   8.905   5.139  0.3189  0.7216 -0.3264
10570SOL    HW142639   7.438   8.937   5.044  0.2093  1.8805  0.0687
10570SOL    HW242640   7.456   8.984   5.200  1.3470 -0.0218  0.5332
10571SOL     OW42641   9.690   0.905   5.304 -0.4585 -0.1063  0.2173
10571SOL    HW142642   9.698   1.004   5.308  0.0925 -0.1943  1.2120
10571SOL    HW242643   9.719   0.865   5.390  1.2015 -1.2528 -0.8288
10572SOL     OW42644   7.694   1.455   3.475 -0.0943  0.0923 -0.0401
10572SOL    HW142645   7.639   1.475   3.394 -1.2872  0.1188  0.7504
10572SOL    HW242646   7.711   1.540   3.526  0.6592  0.0792 -0.2728
10573SOL     OW42647   2.202   2.355   0.203  0.0630  0.5090  0.0572
10573SOL    HW142648   2.254   2.280   0.244 -0.7358  0.6057  1.3009
10573SOL    HW242649   2.188   2.427   0.271 -2.4216  0.1050  0.0315
10574SOL     OW42650   9.318   5.458   4.338  0.0145 -0.0101 -0.0609
10574SOL    HW142651   9.246   5.526   4.340  0.1848  0.1484  0.7671
10574SOL    HW242652   9.335   5.430   4.243  0.3425  1.5166 -0.4612
10575SOL     OW42653   9.093   5.264   3.903  0.0860 -0.4515  0.2634
10575SOL    HW142654   9.052   5.329   3.967 -0.5061  0.9739 -1.5095
10575SOL    HW242655   9.139   5.191   3.953 -0.5239  0.5367  2.2882
10576SOL     OW42656   3.022   7.088   4.579  0.3772 -0.5719  0.5641
10576SOL    HW142657   3.050   6.993   4.593  0.3700 -0.4843  1.1767
10576SOL    HW242658   3.070   7.146   4.644 -0.5295 -0.3056  0.9937
10577SOL     OW42659   7.019   6.820   2.230  0.1503 -0.7185  0.4827
10577SOL    HW142660   7.058   6.893   2.174  0.8922 -0.0342  1.8646
10577SOL    HW242661   7.067   6.734   2.211  1.1336 -0.2552  0.8912
10578SOL     OW42662   3.197   0.159   1.862 -0.1381  0.1679 -0.3615
10578SOL    HW142663   3.181   0.143   1.960  1.0502 -0.5617 -0.2817
10578SOL    HW242664   3.155   0.085   1.809  1.1127 -0.6250 -0.2684
10579SOL     OW42665   2.462   7.164   3.158 -0.0674 -0.5950 -0.1973
10579SOL    HW142666   2.391   7.093   3.158  0.3172 -1.0021  1.1473
10579SOL    HW242667   2.546   7.127   3.118  0.7076 -1.5449  2.1638
10580SOL     OW42668   9.598   6.002   2.221  0.8145  0.0082 -0.1479
10580SOL    HW142669   9.675   5.970   2.165  0.2293 -1.3823 -0.1773
10580SOL    HW242670   9.618   5.986   2.317  0.2892 -0.9595 -0.1977
10581SOL     OW42671   9.603   1.689   5.250  0.2978 -0.1617  0.3222
10581SOL    HW142672   9.640   1.779   5.227 -1.1058  0.8838  2.0324
10581SOL    HW242673   9.679   1.623   5.258  1.3399  0.8789 -0.8322
10582SOL     OW42674   2.345   4.051   2.964 -0.0176 -0.5570 -0.2805
10582SOL    HW142675   2.302   4.080   2.879 -3.2053 -2.3252  0.6171
10582SOL    HW242676   2.436   4.015   2.945  0.0999  0.8916 -2.6418
10583SOL     OW42677   2.506   1.448   2.192 -0.0581  0.0797  0.6511
10583SOL    HW142678   2.420   1.417   2.232 -0.2677  1.4177  1.2860
10583SOL    HW242679   2.489   1.488   2.102 -0.3977  2.0805  1.5805
10584SOL     OW42680   3.417   1.195   1.678 -0.1304 -0.2927  0.2609
10584SOL    HW142681   3.356   1.204   1.599  0.3736 -1.8582 -0.3225
10584SOL    HW242682   3.392   1.114   1.731  0.5524 -0.1521  0.8083
10585SOL     OW42683   2.590   8.333   4.432  0.1117 -0.8338 -0.7967
10585SOL    HW142684   2.690   8.338   4.433  0.0854 -0.2244  1.6411
10585SOL    HW242685   2.558   8.272   4.504 -1.3478  1.4420  0.5777
10586SOL     OW42686   7.938   9.798   3.555 -0.1909  0.7060  0.2377
10586SOL    HW142687   7.935   9.885   3.506 -0.1136  0.8502  0.4912
10586SOL    HW242688   8.022   9.749   3.529  0.1563  1.0548  0.6909
10587SOL     OW42689   0.378   4.281   0.551 -0.7513 -0.4202  0.4048
10587SOL    HW142690   0.408   4.371   0.582 -1.8045  0.1746 -0.2508
10587SOL    HW242691   0.449   4.213   0.570  0.7164  0.8269 -0.5629
10588SOL     OW42692   2.651   1.647   3.383 -0.4809  0.0744 -0.7928
10588SOL    HW142693   2.619   1.562   3.341 -0.1128 -0.7479  0.5534
10588SOL    HW242694   2.619   1.725   3.330 -1.0987 -0.8987 -1.8610
10589SOL     OW42695   7.005   0.462   3.970  0.7739 -0.2652 -0.1244
10589SOL    HW142696   7.057   0.505   4.044 -0.6263  1.7416 -0.2839
10589SOL    HW242697   6.971   0.373   4.000  1.7492 -0.2590  1.0164
10590SOL     OW42698   0.945   2.271   4.429 -0.6120  0.4271  0.4166
10590SOL    HW142699   0.899   2.239   4.511 -1.2226 -0.8532 -0.4165
10590SOL    HW242700   1.018   2.335   4.455  0.5418 -1.4876  2.0994
10591SOL     OW42701   0.999   9.093   1.007 -0.1880  0.3671  0.1240
10591SOL    HW142702   0.907   9.095   1.046 -0.3237 -1.6740 -0.0632
10591SOL    HW242703   1.066   9.086   1.081 -0.1949  1.2258  0.2226
10592SOL     OW42704   0.836   4.865   1.087  0.3830 -0.0146  0.4018
10592SOL    HW142705   0.936   4.858   1.090  0.3885 -0.2441 -0.2921
10592SOL    HW242706   0.799   4.849   1.179  1.0129  0.5417  0.7567
10593SOL     OW42707   3.498   8.710   1.262 -0.1979 -0.4579  0.1907
10593SOL    HW142708   3.426   8.672   1.319 -0.8569  0.6639  0.1204
10593SOL    HW242709   3.460   8.781   1.202  0.9392  0.0908  0.0931
10594SOL     OW42710   9.719   8.423   1.694  0.1755  0.0896 -0.2308
10594SOL    HW142711   9.799   8.484   1.696  1.0107 -0.9457 -1.8887
10594SOL    HW242712   9.654   8.453   1.764  1.4481  1.6984  0.3067
10595SOL     OW42713   9.052   2.226   0.957 -0.6267  0.2341 -0.8053
10595SOL    HW142714   8.999   2.142   0.948 -0.0346 -0.2273 -0.0563
10595SOL    HW242715   9.119   2.232   0.883  0.2872 -0.6577 -0.0605
10596SOL     OW42716   1.255   7.560   0.380  0.7898 -0.3882  0.2615
10596SOL    HW142717   1.297   7.649   0.399 -0.7034  0.1764  1.0040
10596SOL    HW242718   1.165   7.556   0.423  0.3423 -1.8125 -0.7689
10597SOL     OW42719   9.173   9.022   4.379 -0.3388 -0.3534  0.4722
10597SOL    HW142720   9.108   9.008   4.454 -0.2452 -0.0649  0.6098
10597SOL    HW242721   9.135   9.089   4.315  1.0819  2.1193  2.1000
10598SOL     OW42722   0.639   7.971   4.366  0.4427  0.2155  0.2196
10598SOL    HW142723   0.651   8.042   4.297  3.0136  1.5461  1.9328
10598SOL    HW242724   0.709   7.900   4.355  0.1680 -0.1463  0.7538
10599SOL     OW42725   0.393   8.783   1.417  0.0532 -0.2523 -0.6754
10599SOL    HW142726   0.416   8.863   1.361 -0.9632 -0.2362 -1.0807
10599SOL    HW242727   0.295   8.767   1.414 -0.0072 -0.3399  0.9993
10600SOL     OW42728   9.082   3.362   4.812 -0.3811 -0.2216  0.2921
10600SOL    HW142729   9.004   3.339   4.871 -0.2910  1.7258  1.2140
10600SOL    HW242730   9.151   3.411   4.866  0.8374 -0.6774 -0.8497
10601SOL     OW42731   9.689   3.270   3.919  0.3272  0.1398 -0.1150
10601SOL    HW142732   9.615   3.337   3.916  0.7730  0.6006 -1.1377
10601SOL    HW242733   9.717   3.254   4.014 -3.0399 -2.2152  0.5460
10602SOL     OW42734   2.099   3.533   2.114  0.8375 -0.4907  0.2243
10602SOL    HW142735   2.038   3.592   2.166 -1.5139 -1.5524 -1.2311
10602SOL    HW242736   2.068   3.527   2.020  3.0837 -1.2643 -0.5171
10603SOL     OW42737   2.231   3.301   0.264 -0.3128  0.1636 -0.9678
10603SOL    HW142738   2.246   3.391   0.224  1.9301  0.8099  1.2189
10603SOL    HW242739   2.283   3.292   0.348 -1.8507 -2.5819 -0.2220
10604SOL     OW42740   1.708   0.350   3.009 -0.2563  0.1432 -0.0403
10604SOL    HW142741   1.746   0.414   3.076  0.5324 -0.5618  0.1954
10604SOL    HW242742   1.737   0.257   3.031  0.9305  0.0139 -1.9486
10605SOL     OW42743   3.243   0.662   1.170  0.2568  0.7852  0.2870
10605SOL    HW142744   3.317   0.724   1.193  0.0767  1.1657 -0.1487
10605SOL    HW242745   3.270   0.568   1.191  0.3086  1.0620  1.5044
10606SOL     OW42746   9.817   3.176   3.384 -0.4475  0.0530  0.5405
10606SOL    HW142747   9.870   3.124   3.450 -1.1381 -1.6871 -0.2468
10606SOL    HW242748   9.749   3.232   3.432 -0.8143 -1.0490  1.3425
10607SOL     OW42749   7.408   2.242   2.705 -0.2186 -0.2510  0.3073
10607SOL    HW142750   7.369   2.313   2.646 -0.7448 -0.9510 -0.1963
10607SOL    HW242751   7.422   2.279   2.797  1.1732  1.0327 -0.3978
10608SOL     OW42752   7.298   3.756   5.445 -0.1012 -0.3456 -0.3524
10608SOL    HW142753   7.221   3.697   5.470 -1.2235  1.1323 -0.2896
10608SOL    HW242754   7.371   3.744   5.513 -1.6786  0.8938  1.6270
10609SOL     OW42755   0.499   1.846   4.624  0.5603  0.1283 -0.7403
10609SOL    HW142756   0.507   1.784   4.546  1.6518 -0.2207 -0.3720
10609SOL    HW242757   0.528   1.797   4.707  2.0218  1.3036 -0.5326
10610SOL     OW42758   4.861   6.259   2.303  0.7487  0.3494 -0.0095
10610SOL    HW142759   4.925   6.308   2.363 -0.0704  0.3757  0.8577
10610SOL    HW242760   4.783   6.227   2.356 -0.1205  0.5937 -1.1130
10611SOL     OW42761   9.206   5.361   0.160  0.5940  0.0272 -0.4158
10611SOL    HW142762   9.181   5.432   0.225  0.4876 -0.2187 -0.1858
10611SOL    HW242763   9.202   5.272   0.206  2.6763  0.0551 -0.1385
10612SOL     OW42764   9.326   6.498   3.150  0.3102  0.2650  0.1634
10612SOL    HW142765   9.255   6.551   3.196  0.0732  2.9601 -3.1718
10612SOL    HW242766   9.285   6.424   3.097  0.0480  1.1226 -0.8442
10613SOL     OW42767   5.367   7.304   3.406 -0.5919 -0.0768  0.0942
10613SOL    HW142768   5.270   7.287   3.422 -0.7240  0.2581 -0.3261
10613SOL    HW242769   5.380   7.335   3.312 -0.2120  0.9173  0.4585
10614SOL     OW42770   0.944   7.627   3.682  0.0124 -0.1559  0.8697
10614SOL    HW142771   0.861   7.572   3.684  0.4056 -0.7509  0.7944
10614SOL    HW242772   0.985   7.622   3.591 -0.8277  1.5771  0.3622
10615SOL     OW42773   7.714   4.856   0.130 -0.4448  0.3100 -0.7854
10615SOL    HW142774   7.785   4.884   0.195 -0.5419  0.6145 -0.8097
10615SOL    HW242775   7.756   4.836   0.042 -0.6431  2.6924 -1.4564
10616SOL     OW42776   1.384   0.073   3.000  0.0390 -0.0052 -0.5167
10616SOL    HW142777   1.439   0.052   2.919  0.0319 -1.1807 -0.2318
10616SOL    HW242778   1.287   0.064   2.978  0.0163  0.3155 -0.5484
10617SOL     OW42779   8.988   6.016   0.200 -0.3023 -0.3382 -0.0828
10617SOL    HW142780   9.001   6.107   0.238  0.4071 -0.1367 -0.7971
10617SOL    HW242781   9.063   5.957   0.230 -0.7349 -0.6800  0.3397
10618SOL     OW42782   0.009   4.303   0.545  0.0505  0.3560  0.7299
10618SOL    HW142783   0.046   4.381   0.495  0.6948  0.8003  1.8865
10618SOL    HW242784   0.084   4.251   0.585 -0.5352  0.9170  2.5882
10619SOL     OW42785   9.848   4.590   2.808  0.2103  0.5309  0.1606
10619SOL    HW142786   9.913   4.665   2.817  0.8334  0.2115 -1.4007
10619SOL    HW242787   9.834   4.570   2.711  0.0230 -1.3287  0.5439
10620SOL     OW42788   7.989   1.034   4.646  0.2171  0.1213 -0.8304
10620SOL    HW142789   7.983   0.998   4.740  0.4113 -3.0651 -1.9611
10620SOL    HW242790   7.898   1.062   4.616 -0.6523 -2.7559 -1.0840
10621SOL     OW42791   7.941   4.902   5.025  0.0838  0.2225  0.2938
10621SOL    HW142792   7.855   4.952   5.029  0.8011  1.4289  1.2893
10621SOL    HW242793   7.985   4.918   4.937 -0.8774 -0.6946 -0.3578
10622SOL     OW42794   8.964   0.169   3.919 -0.0190  0.8685 -0.2256
10622SOL    HW142795   9.012   0.127   3.996  0.2772  1.1213 -0.2750
10622SOL    HW242796   8.866   0.169   3.938  0.1987  2.5252  0.9410
10623SOL     OW42797   2.329   0.493   4.078 -0.5090 -0.5989 -0.0521
10623SOL    HW142798   2.321   0.521   3.983 -0.0781 -2.2194 -0.5906
10623SOL    HW242799   2.306   0.396   4.086 -0.6385 -0.4590  1.5191
10624SOL     OW42800   9.051   6.084   4.525 -0.3700  0.7569 -0.1212
10624SOL    HW142801   8.973   6.073   4.463  0.0905 -1.3484 -0.3498
10624SOL    HW242802   9.135   6.093   4.471  0.0228 -1.0190  0.1873
10625SOL     OW42803   4.674   8.673   3.956 -0.3167 -0.2283  0.2404
10625SOL    HW142804   4.689   8.699   4.051  0.9617 -0.3094  0.0788
10625SOL    HW242805   4.706   8.746   3.896 -0.6259 -0.3986 -0.1358
10626SOL     OW42806   9.255   2.867   1.147 -0.1390 -0.8073  0.3553
10626SOL    HW142807   9.280   2.770   1.142  1.0439 -0.5618  1.1964
10626SOL    HW242808   9.332   2.922   1.113 -1.0668 -0.1847 -0.7651
10627SOL     OW42809   4.287   7.323   3.252 -0.1348 -0.0616  0.6856
10627SOL    HW142810   4.307   7.229   3.225  0.6743 -0.0684  1.3023
10627SOL    HW242811   4.193   7.346   3.227 -0.8069 -1.5140  1.8162
10628SOL     OW42812   2.558   5.241   4.925 -0.3705  0.3134 -0.0396
10628SOL    HW142813   2.519   5.152   4.903 -0.5114  0.0036  1.4163
10628SOL    HW242814   2.593   5.240   5.019  0.8436  1.3721 -0.4732
10629SOL     OW42815   0.762   7.197   4.177 -0.0659  0.0409  0.2381
10629SOL    HW142816   0.806   7.257   4.111  0.9141 -0.6050  0.2833
10629SOL    HW242817   0.773   7.235   4.269 -0.4521  0.3791  0.1422
10630SOL     OW42818   0.238   4.826   2.059  0.0444  0.3064 -0.0879
10630SOL    HW142819   0.229   4.877   2.144 -0.3486  0.3448 -0.1524
10630SOL    HW242820   0.221   4.887   1.982  0.4757  0.2909 -0.2000
10631SOL     OW42821   4.315   7.799   3.079 -0.2780 -0.2614 -0.5413
10631SOL    HW142822   4.384   7.771   3.146  0.5825  0.4861 -1.0986
10631SOL    HW242823   4.280   7.890   3.103 -0.6747 -0.4035 -0.5709
10632SOL     OW42824   3.115   5.144   4.635 -0.5596 -0.0495  0.4289
10632SOL    HW142825   3.044   5.074   4.634 -1.1799  0.5687 -0.6683
10632SOL    HW242826   3.118   5.189   4.546  1.0966  0.0558  0.5286
10633SOL     OW42827   3.941   1.551   4.501 -0.0941  0.4510 -0.0332
10633SOL    HW142828   3.896   1.534   4.414 -0.9107  2.9080 -0.1462
10633SOL    HW242829   3.964   1.648   4.508  2.0510 -0.1372  1.5171
10634SOL     OW42830   8.560   2.956   2.458  0.1023  0.2517 -0.2627
10634SOL    HW142831   8.590   2.887   2.392 -1.4627 -0.2365 -0.4954
10634SOL    HW242832   8.492   3.015   2.415  0.2791  0.9592  0.4205
10635SOL     OW42833   4.377   1.756   2.050 -0.2927 -0.5553 -0.4080
10635SOL    HW142834   4.450   1.701   2.009  0.3466  0.2375 -0.3328
10635SOL    HW242835   4.319   1.793   1.977  0.9827  1.0480 -0.6464
10636SOL     OW42836   3.647   9.807   2.879 -0.1674 -0.2994 -0.4264
10636SOL    HW142837   3.693   9.723   2.852  0.4479  0.1105 -0.6828
10636SOL    HW242838   3.707   9.885   2.861 -1.1767  0.3008 -1.3030
10637SOL     OW42839   4.255   1.375   5.346 -0.1056 -1.0974 -0.3806
10637SOL    HW142840   4.211   1.415   5.266  1.4974 -1.1763 -1.3308
10637SOL    HW242841   4.202   1.396   5.428 -1.5706 -0.7023 -1.4114
10638SOL     OW42842   8.757   6.577   3.420  0.2381  0.5178 -0.1877
10638SOL    HW142843   8.793   6.631   3.496  0.8878 -0.3225  0.1144
10638SOL    HW242844   8.723   6.490   3.455 -0.4258  0.5597 -0.7229
10639SOL     OW42845   8.133   7.343   0.484  0.6414 -0.8177  0.2273
10639SOL    HW142846   8.088   7.399   0.414  0.7524 -0.2898  0.5761
10639SOL    HW242847   8.193   7.401   0.539  1.3841 -1.4348  0.0653
10640SOL     OW42848   9.860   4.302   4.816 -0.2595 -0.3048  0.3939
10640SOL    HW142849   9.912   4.298   4.901 -1.4323  1.1508  1.2007
10640SOL    HW242850   9.922   4.322   4.740  0.5875 -0.1722  1.1133
10641SOL     OW42851   4.416   8.734   1.882 -0.1063  0.1248  0.5523
10641SOL    HW142852   4.470   8.651   1.896  0.0692 -0.1222 -1.4804
10641SOL    HW242853   4.358   8.723   1.801  0.2636  2.1531 -0.0141
10642SOL     OW42854   9.203   0.308   4.366 -0.5931 -0.3910 -0.0718
10642SOL    HW142855   9.159   0.323   4.455 -1.1084  0.1246 -0.4079
10642SOL    HW242856   9.138   0.329   4.293  0.6110  1.7213 -0.5970
10643SOL     OW42857   0.755   1.040   1.888  0.0316 -0.3172  0.4284
10643SOL    HW142858   0.750   1.122   1.945 -0.3322 -0.0361 -0.0079
10643SOL    HW242859   0.775   0.960   1.946  1.2666  0.2034  0.7374
10644SOL     OW42860   9.850   3.211   0.788 -0.2688 -0.0509 -0.0987
10644SOL    HW142861   9.884   3.266   0.713 -1.8578  0.2088 -0.6588
10644SOL    HW242862   9.754   3.186   0.770  0.3603 -2.8609  0.2045
10645SOL     OW42863   8.138   4.567   4.159  0.3540  0.0939  0.3768
10645SOL    HW142864   8.125   4.644   4.221 -0.4368 -0.0418  0.3885
10645SOL    HW242865   8.226   4.522   4.178  1.2866  1.6103 -0.3133
10646SOL     OW42866   1.115   4.836   1.133  0.4970 -0.2905 -0.1331
10646SOL    HW142867   1.201   4.791   1.110  0.4368 -0.3484 -0.2439
10646SOL    HW242868   1.132   4.932   1.155  0.4726 -0.0905 -0.9866
10647SOL     OW42869   8.394   1.656   1.303 -0.3507  0.1148  0.9350
10647SOL    HW142870   8.492   1.654   1.283 -0.5470  1.5237 -0.2753
10647SOL    HW242871   8.374   1.594   1.379  1.6645  0.7467  2.0292
10648SOL     OW42872   6.357   7.654   3.778 -0.0960 -0.4279  0.0070
10648SOL    HW142873   6.295   7.724   3.742  0.5258  0.6592  1.0293
10648SOL    HW242874   6.319   7.616   3.862  0.5750  0.1719  0.5831
10649SOL     OW42875   9.091   5.968   0.686 -0.5605 -0.8511 -0.7128
10649SOL    HW142876   9.115   5.875   0.658  0.3985 -0.6104 -0.7079
10649SOL    HW242877   9.165   6.006   0.741 -1.5430 -0.5733  0.4148
10650SOL     OW42878   5.703   8.918   1.545 -0.4532  0.3325 -0.2569
10650SOL    HW142879   5.636   8.966   1.489 -0.9030  0.2623  0.2174
10650SOL    HW242880   5.708   8.961   1.635  0.3606  0.5296 -0.3909
10651SOL     OW42881   6.217   9.865   3.542 -0.1934 -0.0714  0.1728
10651SOL    HW142882   6.218   9.801   3.465 -1.2205 -1.7377  1.5087
10651SOL    HW242883   6.308   9.905   3.553  0.3548 -0.9963 -0.9168
10652SOL     OW42884   5.419   9.530   3.095  0.3582  0.0492 -0.9789
10652SOL    HW142885   5.383   9.564   3.008 -0.3395  0.4009 -0.5562
10652SOL    HW242886   5.344   9.497   3.152  0.8099 -0.1592 -0.4936
10653SOL     OW42887   5.186   9.533   3.378  0.3653 -0.1267 -0.3239
10653SOL    HW142888   5.167   9.459   3.313  0.7374 -2.0639  1.7084
10653SOL    HW242889   5.102   9.557   3.426  0.2667  0.7144 -0.9151
10654SOL     OW42890   1.397   9.740   0.544  0.2665 -0.3266  0.1935
10654SOL    HW142891   1.456   9.687   0.483  0.5351 -1.0015  1.0267
10654SOL    HW242892   1.438   9.742   0.636 -0.8540 -0.5491  0.7035
10655SOL     OW42893   4.584   4.721   0.676  0.0500  0.2957 -0.4020
10655SOL    HW142894   4.665   4.745   0.730  0.3268  1.1712 -1.1931
10655SOL    HW242895   4.529   4.804   0.661 -0.0934  0.0245 -1.3625
10656SOL     OW42896   1.850   6.816   3.696  0.3158 -0.4228  0.0717
10656SOL    HW142897   1.890   6.845   3.609 -0.2800  1.9002  0.5287
10656SOL    HW242898   1.799   6.731   3.683  1.4763 -0.8937 -1.5098
10657SOL     OW42899   0.772   2.177   5.333  0.8026  0.3377  0.2636
10657SOL    HW142900   0.822   2.263   5.349  0.6432  0.4118  0.3562
10657SOL    HW242901   0.831   2.114   5.282  0.4856  0.9504 -0.8574
10658SOL     OW42902   1.951   1.442   3.522  0.1946  0.0314  0.3763
10658SOL    HW142903   1.984   1.380   3.592  0.4663  0.6211  0.7740
10658SOL    HW242904   1.919   1.527   3.564  0.8452  0.5973 -0.2495
10659SOL     OW42905   0.256   0.767   5.448  0.1017 -0.4218 -1.1856
10659SOL    HW142906   0.269   0.786   5.351 -0.7848 -1.2921 -1.4774
10659SOL    HW242907   0.173   0.814   5.480  0.7316  0.3751 -0.6953
10660SOL     OW42908   8.421   8.719   2.974 -0.9056  0.4603 -0.0975
10660SOL    HW142909   8.383   8.661   3.046 -0.9468 -0.7978 -1.1109
10660SOL    HW242910   8.350   8.780   2.939 -0.9549  0.8848  0.7382
10661SOL     OW42911   3.202   0.351   2.582 -0.1486 -0.1690  0.2700
10661SOL    HW142912   3.154   0.329   2.497  0.4864 -0.0591 -0.1272
10661SOL    HW242913   3.137   0.357   2.657 -0.8023  0.4298 -0.3436
10662SOL     OW42914   7.330   1.927   2.071  0.0676  0.2765 -0.0977
10662SOL    HW142915   7.344   1.939   2.169 -0.2173  2.8938 -0.3355
10662SOL    HW242916   7.400   1.866   2.034  1.0037  0.3686  1.4900
10663SOL     OW42917   1.791   7.221   3.492  0.0170 -0.0144  0.2566
10663SOL    HW142918   1.740   7.269   3.420  1.1932  1.8348  0.6284
10663SOL    HW242919   1.727   7.182   3.558 -0.9343  1.7769  0.4029
10664SOL     OW42920   0.072   5.124   3.425 -0.1846  0.2379 -0.1919
10664SOL    HW142921  -0.011   5.070   3.432  0.3768 -0.5225  0.7506
10664SOL    HW242922   0.050   5.221   3.437 -1.1124  0.1725 -1.3193
10665SOL     OW42923   7.891   4.195   0.890 -0.4600  0.2141  0.6197
10665SOL    HW142924   7.826   4.190   0.814  0.2436  0.7529 -0.0336
10665SOL    HW242925   7.936   4.284   0.888  2.1761 -1.0988 -0.5159
10666SOL     OW42926   9.187   3.962   0.038 -0.3343  0.2786  0.4786
10666SOL    HW142927   9.109   3.962  -0.024 -1.1208  1.7309  1.4482
10666SOL    HW242928   9.172   3.898   0.113 -0.6754  0.6825  0.7565
10667SOL     OW42929   2.855   8.371   1.919  0.1665  0.8651  0.3104
10667SOL    HW142930   2.782   8.419   1.871 -0.7592  1.1766  2.0067
10667SOL    HW242931   2.830   8.275   1.932  1.6790  0.0587 -2.3826
10668SOL     OW42932   7.250   1.396   0.810  0.2960  0.2405  0.4621
10668SOL    HW142933   7.163   1.383   0.762 -0.1386  0.8648  1.0845
10668SOL    HW242934   7.241   1.470   0.876  1.9848  1.9850 -1.1774
10669SOL     OW42935   7.761   2.268   2.676  0.0459 -0.0550  0.2496
10669SOL    HW142936   7.664   2.248   2.684 -0.0562  0.6657  0.9694
10669SOL    HW242937   7.775   2.367   2.674  0.8002 -0.1393  0.8105
10670SOL     OW42938   9.063   3.127   2.496 -0.0546 -0.2202 -0.0839
10670SOL    HW142939   9.132   3.166   2.434 -0.0344  0.7072  0.5190
10670SOL    HW242940   9.095   3.135   2.590 -1.5423  1.3406  0.2994
10671SOL     OW42941   0.566   5.331   0.683  0.2862 -0.0607 -0.3656
10671SOL    HW142942   0.643   5.356   0.743  1.0978 -2.0333 -0.5365
10671SOL    HW242943   0.597   5.331   0.588 -0.3967  0.8493 -0.5887
10672SOL     OW42944   3.989   2.891   2.790  0.1086  0.2747 -0.0407
10672SOL    HW142945   4.050   2.956   2.744  0.5722  0.5455  0.9362
10672SOL    HW242946   3.962   2.819   2.726  1.9549 -0.2001 -0.3192
10673SOL     OW42947   8.397   5.940   0.777 -0.3215 -0.3653  0.0306
10673SOL    HW142948   8.425   6.036   0.775  0.2530 -0.5138  0.9016
10673SOL    HW242949   8.344   5.919   0.694  0.0443  0.5502 -0.4404
10674SOL     OW42950   0.413   1.531   0.549  0.6787  0.1544  0.6292
10674SOL    HW142951   0.388   1.615   0.502 -0.3022  0.4218  1.6171
10674SOL    HW242952   0.349   1.458   0.525 -1.4210  0.9651  3.5349
10675SOL     OW42953   0.896   3.405   0.325  0.0795 -0.4213  0.0405
10675SOL    HW142954   0.837   3.457   0.387  1.3304 -0.4819  1.3048
10675SOL    HW242955   0.887   3.440   0.232  1.4232  2.4832  0.9809
10676SOL     OW42956   0.667   8.391   1.231  0.1224 -0.0452 -0.0015
10676SOL    HW142957   0.671   8.470   1.292 -0.4566  0.1824 -0.2573
10676SOL    HW242958   0.637   8.421   1.140  0.6702 -0.4314 -0.3136
10677SOL     OW42959   8.585   1.822   3.831  0.8489  0.5421 -0.4029
10677SOL    HW142960   8.544   1.754   3.770 -0.4001 -0.2159  1.2407
10677SOL    HW242961   8.513   1.880   3.868  1.6362  1.1966  0.1072
10678SOL     OW42962   8.678   2.892   0.235  0.3973 -0.0972  1.0833
10678SOL    HW142963   8.659   2.811   0.180  0.6713 -0.2147  1.1582
10678SOL    HW242964   8.776   2.912   0.233  0.1944  0.8641  0.1945
10679SOL     OW42965   0.806   7.347   5.389 -0.4263  0.1525  0.4727
10679SOL    HW142966   0.884   7.306   5.342 -0.2949 -1.5255  2.1009
10679SOL    HW242967   0.721   7.316   5.346 -0.2599  0.1564  0.1401
10680SOL     OW42968   3.744   9.809   0.420  0.0349  0.2905  0.2584
10680SOL    HW142969   3.803   9.879   0.378 -0.9062 -0.2219 -2.0082
10680SOL    HW242970   3.794   9.722   0.424  0.1252  0.3374  0.1525
10681SOL     OW42971   4.724   1.910   3.847  0.0240  0.0832  0.3157
10681SOL    HW142972   4.680   1.905   3.936 -0.5957  0.0267  0.0116
10681SOL    HW242973   4.662   1.953   3.781 -0.2270 -1.4654 -0.5031
10682SOL     OW42974   9.722   0.439   4.446 -0.4577 -0.2459  0.2015
10682SOL    HW142975   9.637   0.398   4.412 -0.2145 -0.9849  0.4777
10682SOL    HW242976   9.706   0.481   4.535  0.0963 -2.8841  1.6240
10683SOL     OW42977   3.948   4.190   4.030  0.2658 -0.2059  0.6895
10683SOL    HW142978   3.976   4.096   4.047  0.6836 -0.3052 -0.4681
10683SOL    HW242979   4.028   4.250   4.033  0.2461 -0.1295 -0.1939
10684SOL     OW42980   3.555   5.348   1.540 -0.7534  0.6874  0.6539
10684SOL    HW142981   3.612   5.268   1.520 -1.6620 -0.7772  3.7282
10684SOL    HW242982   3.599   5.430   1.502  0.6822 -1.0919 -1.6860
10685SOL     OW42983   2.953   6.414   0.513  0.1307  0.6735  0.1388
10685SOL    HW142984   2.863   6.455   0.506 -0.9547 -1.0393  3.2325
10685SOL    HW242985   2.950   6.320   0.480  1.0860  0.9988 -0.9089
10686SOL     OW42986   9.371   7.149   5.042 -0.0065  0.1340  0.5955
10686SOL    HW142987   9.407   7.237   5.072 -0.6741  0.2947  0.9483
10686SOL    HW242988   9.445   7.083   5.033  0.2949  0.3095  1.7912
10687SOL     OW42989   1.560   2.709   5.312  0.2414  0.3833 -0.1473
10687SOL    HW142990   1.659   2.698   5.324  0.2155  2.0171  1.7726
10687SOL    HW242991   1.541   2.801   5.277 -0.5632 -0.2087 -1.3003
10688SOL     OW42992   1.841   1.954   0.121 -0.0086 -0.4915 -0.2072
10688SOL    HW142993   1.926   1.985   0.080 -0.2471 -1.0703 -1.1723
10688SOL    HW242994   1.850   1.951   0.220  1.9247 -2.9542 -0.4180
10689SOL     OW42995   2.645   1.110   5.055 -0.1999  0.1882  0.1639
10689SOL    HW142996   2.717   1.063   5.107  0.8240  3.4646  1.9163
10689SOL    HW242997   2.687   1.172   4.989 -1.4989 -1.2673 -2.0636
10690SOL     OW42998   3.330   1.210   0.314 -0.5461 -0.4280 -0.1338
10690SOL    HW142999   3.413   1.255   0.349 -0.1744 -0.7603 -0.5891
10690SOL    HW243000   3.252   1.237   0.371 -0.8844  3.2025 -2.1802
10691SOL     OW43001   0.851   6.125   0.906 -0.5977  0.1806  0.0952
10691SOL    HW143002   0.923   6.167   0.851 -0.3817  0.9490  0.9593
10691SOL    HW243003   0.890   6.054   0.964 -0.6645  0.0559 -0.0117
10692SOL     OW43004   9.219   1.200   1.416 -0.0544 -0.2506 -0.1798
10692SOL    HW143005   9.147   1.262   1.385  1.2874  2.6006  2.1792
10692SOL    HW243006   9.305   1.223   1.370  0.1234 -1.3821 -0.4223
10693SOL     OW43007   3.397   0.745   0.073  0.7420 -0.1868 -0.6463
10693SOL    HW143008   3.367   0.749   0.169  0.6505 -4.3914 -0.3633
10693SOL    HW243009   3.334   0.686   0.022  2.4139 -0.3145 -2.5882
10694SOL     OW43010   9.342   2.903   2.775  0.5480 -0.3797  0.1131
10694SOL    HW143011   9.440   2.894   2.760  1.0447  0.9918  2.3586
10694SOL    HW243012   9.316   2.999   2.770 -0.4795 -0.6242  0.6141
10695SOL     OW43013   3.271   4.685   1.120  0.3358 -0.0140  0.0044
10695SOL    HW143014   3.314   4.719   1.203 -1.1821  0.6671  0.5107
10695SOL    HW243015   3.340   4.636   1.065  1.6324  0.6174  1.0390
10696SOL     OW43016   4.104   7.246   2.929  0.1688  0.0293 -0.0058
10696SOL    HW143017   4.087   7.318   2.997  0.4386  1.6653 -1.6343
10696SOL    HW243018   4.183   7.271   2.873  0.8204 -1.9780 -0.0210
10697SOL     OW43019   3.427   0.456   5.314  0.4428 -0.0832 -0.3812
10697SOL    HW143020   3.503   0.507   5.275  0.8249 -1.7890 -1.9333
10697SOL    HW243021   3.449   0.358   5.314 -1.5601 -0.5572 -0.4158
10698SOL     OW43022   7.209   5.360   5.452 -0.4519  0.0397  0.1104
10698SOL    HW143023   7.245   5.425   5.385 -2.8407  1.7619  0.4147
10698SOL    HW243024   7.267   5.361   5.533 -0.4039  1.7707  0.0802
10699SOL     OW43025   4.695   3.987   5.461  0.0716  0.3381  0.1019
10699SOL    HW143026   4.733   4.077   5.480 -1.5568  0.8397  1.1156
10699SOL    HW243027   4.664   3.945   5.547  0.7983 -1.1769 -0.3659
10700SOL     OW43028   4.520   7.337   1.303 -0.7895  0.1097 -0.2172
10700SOL    HW143029   4.442   7.316   1.362 -0.3994 -0.4467  0.1056
10700SOL    HW243030   4.535   7.261   1.239  0.4868 -0.5326  0.8044
10701SOL     OW43031   1.122   5.032   3.657  0.0367  1.1599  0.3535
10701SOL    HW143032   1.070   5.114   3.633 -1.7392  0.0312  0.3044
10701SOL    HW243033   1.060   4.960   3.687  1.4460 -0.6848 -1.0402
10702SOL     OW43034   3.203   3.690   0.872  0.0299  0.3328  0.0547
10702SOL    HW143035   3.190   3.785   0.898  0.4183  1.3534 -3.1908
10702SOL    HW243036   3.131   3.663   0.808 -0.0187 -1.5448  0.8614
10703SOL     OW43037   4.096   2.696   2.006  0.1682  0.1068  0.2522
10703SOL    HW143038   4.155   2.776   1.995 -0.0782 -0.0260 -2.5477
10703SOL    HW243039   4.033   2.711   2.082  1.0176  2.0341  0.6003
10704SOL     OW43040   3.915   2.732   1.072  0.0887  0.1942  0.0828
10704SOL    HW143041   3.816   2.735   1.077  0.1021  1.0296 -0.1335
10704SOL    HW243042   3.943   2.671   0.997 -0.3219  2.9599 -2.3988
10705SOL     OW43043   3.019   0.955   3.342 -0.8786  0.1443 -0.3581
10705SOL    HW143044   2.945   0.887   3.345  0.0412 -0.8151  0.9931
10705SOL    HW243045   3.004   1.023   3.413 -0.7029  0.2188 -0.3934
10706SOL     OW43046   4.296   4.773   0.055 -0.8116 -0.9181  0.4594
10706SOL    HW143047   4.271   4.747   0.149 -0.1395 -1.5387  0.4741
10706SOL    HW243048   4.214   4.775  -0.002 -1.2029 -0.7128  1.0233
10707SOL     OW43049   7.895   1.661   0.060 -0.1181  0.2279 -0.1554
10707SOL    HW143050   7.957   1.737   0.078  0.2212 -0.0563 -0.1121
10707SOL    HW243051   7.943   1.590   0.008  0.2042 -0.8576  1.5519
10708SOL     OW43052   9.289   9.573   2.030 -0.0860  0.0569  0.0408
10708SOL    HW143053   9.316   9.489   2.076 -0.0549  0.0017 -0.0805
10708SOL    HW243054   9.339   9.583   1.944  0.5753  0.6432  0.4821
10709SOL     OW43055   2.976   7.892   3.779  0.6864  0.1449 -0.2539
10709SOL    HW143056   2.943   7.984   3.757 -2.2202 -0.7767  0.0284
10709SOL    HW243057   2.985   7.883   3.878  1.5044  0.3033 -0.3148
10710SOL     OW43058   5.352   0.392   1.578  0.0037  0.7852  0.3475
10710SOL    HW143059   5.384   0.436   1.494 -1.5116 -0.3784 -0.8830
10710SOL    HW243060   5.409   0.313   1.599 -0.3404  0.3670 -0.2748
10711SOL     OW43061   8.248   5.191   0.756  0.1434 -0.0927  0.3161
10711SOL    HW143062   8.206   5.101   0.768  1.1416 -0.6140 -0.0146
10711SOL    HW243063   8.342   5.189   0.788  0.1255  0.8872  0.4600
10712SOL     OW43064   1.296   4.270   3.583 -0.8170  0.5527 -1.1495
10712SOL    HW143065   1.257   4.357   3.612 -0.1223 -0.2192  2.2805
10712SOL    HW243066   1.223   4.201   3.579 -0.5274  0.0396  1.4683
10713SOL     OW43067   8.773   3.402   2.350  0.5317  0.4567 -0.7270
10713SOL    HW143068   8.848   3.439   2.405  0.4165 -0.1106 -0.1818
10713SOL    HW243069   8.791   3.305   2.331  0.0365  0.3734 -0.7634
10714SOL     OW43070   9.055   2.876   1.581  0.5101 -1.0395 -0.5714
10714SOL    HW143071   9.075   2.908   1.674 -1.3892 -1.7507  0.1074
10714SOL    HW243072   9.139   2.872   1.528  1.4244  0.6689  0.7162
10715SOL     OW43073   8.389   3.857   3.940  0.1504 -0.0137  0.6418
10715SOL    HW143074   8.345   3.799   4.008 -1.7587  0.9166  0.2463
10715SOL    HW243075   8.424   3.800   3.865 -0.7712 -0.7352  0.7527
10716SOL     OW43076   2.049   9.820   0.357 -0.0179  0.3938 -0.5040
10716SOL    HW143077   2.075   9.887   0.426 -0.3292  0.4649 -0.4565
10716SOL    HW243078   1.950   9.813   0.353  0.0153 -1.5990  0.9824
10717SOL     OW43079   6.368   7.170   1.989  0.3319  0.1271 -0.4848
10717SOL    HW143080   6.354   7.132   2.080  0.9050 -0.9705 -0.8428
10717SOL    HW243081   6.289   7.149   1.931  0.4485 -0.1390 -0.5506
10718SOL     OW43082   0.765   8.111   2.787  0.1467  0.3441 -0.0778
10718SOL    HW143083   0.685   8.131   2.844  0.3558  0.6749  0.0995
10718SOL    HW243084   0.782   8.188   2.725  0.5261  0.4076  0.1095
10719SOL     OW43085   2.041   4.621   4.319  0.1864 -0.4514  0.2674
10719SOL    HW143086   2.099   4.604   4.398  1.1992 -0.2896 -0.4304
10719SOL    HW243087   1.961   4.674   4.347  1.5242  1.3209  0.8410
10720SOL     OW43088   8.288   2.616   1.558  0.5642 -0.1309  0.1039
10720SOL    HW143089   8.334   2.537   1.518  1.6084  0.8282 -0.6501
10720SOL    HW243090   8.347   2.657   1.628  1.5901  1.9971 -1.9066
10721SOL     OW43091   1.569   7.142   3.654  0.0444  0.8680  0.0949
10721SOL    HW143092   1.562   7.199   3.737  1.5017  0.0081  0.8185
10721SOL    HW243093   1.554   7.046   3.678 -1.7927  0.8353 -1.0328
10722SOL     OW43094   2.265   6.043   3.097 -0.1003  0.2326 -0.1983
10722SOL    HW143095   2.169   6.016   3.102 -0.2493  0.3295 -2.1092
10722SOL    HW243096   2.321   5.962   3.076  0.0143  0.5205 -1.0080
10723SOL     OW43097   5.984   0.445   4.252 -0.2252  0.8387  0.4260
10723SOL    HW143098   6.074   0.447   4.206 -0.7249  1.9394 -0.5289
10723SOL    HW243099   5.968   0.354   4.289 -0.1466 -0.3544 -2.3357
10724SOL     OW43100   5.156   0.209   3.066 -0.5189  0.0611  0.0864
10724SOL    HW143101   5.092   0.132   3.063  0.1134 -0.4634  0.0160
10724SOL    HW243102   5.248   0.176   3.084 -0.1672  0.7613 -0.3782
10725SOL     OW43103   2.431   1.021   3.117  0.3527 -0.3898 -0.2884
10725SOL    HW143104   2.384   1.090   3.171  0.5708  0.1569 -0.7886
10725SOL    HW243105   2.519   0.999   3.160  0.5305  0.0519 -0.4207
10726SOL     OW43106   8.654   9.808   1.926  0.0239 -0.2048 -0.5727
10726SOL    HW143107   8.673   9.721   1.880  0.1440 -0.1214 -0.6827
10726SOL    HW243108   8.737   9.863   1.928 -0.4658  0.6177 -2.0473
10727SOL     OW43109   7.892   0.964   0.897  0.3858  0.1516  0.3680
10727SOL    HW143110   7.878   0.999   0.804  2.3752  0.3375  0.1188
10727SOL    HW243111   7.812   0.911   0.925  0.3215 -1.0288 -1.9609
10728SOL     OW43112   9.786   1.217   0.243 -0.0212  0.3378  1.0367
10728SOL    HW143113   9.786   1.189   0.339  1.3447 -1.7397  0.4555
10728SOL    HW243114   9.871   1.265   0.222  0.4707 -0.7727  0.4442
10729SOL     OW43115   2.119   9.490   2.459  0.7606  0.7961  0.0438
10729SOL    HW143116   2.057   9.413   2.462  0.2314  1.2599  1.4523
10729SOL    HW243117   2.157   9.499   2.367  2.3651 -2.3294  0.3259
10730SOL     OW43118   7.545   0.483   0.225 -0.7907 -0.0700  0.7070
10730SOL    HW143119   7.537   0.483   0.325 -2.0259  1.2726  0.6268
10730SOL    HW243120   7.457   0.510   0.185  0.0813  0.7010 -0.7149
10731SOL     OW43121   2.402   2.191   0.336  0.1977  0.1354  0.1930
10731SOL    HW143122   2.429   2.237   0.421  4.6691 -1.0685 -0.4446
10731SOL    HW243123   2.392   2.093   0.353  1.2563 -0.1344 -0.6559
10732SOL     OW43124   3.853   4.806   0.527 -0.1586  0.1254  0.2166
10732SOL    HW143125   3.807   4.718   0.530 -0.7438  0.3787 -0.9323
10732SOL    HW243126   3.940   4.797   0.478 -0.2811  0.2125 -0.0177
10733SOL     OW43127   6.339   0.870   2.180  0.8209 -0.2453 -0.1639
10733SOL    HW143128   6.316   0.921   2.263 -1.9106 -0.0198 -1.0145
10733SOL    HW243129   6.376   0.781   2.205 -0.7672 -0.5136  1.3098
10734SOL     OW43130   0.510   5.006   0.980  0.3013  0.3522  0.0821
10734SOL    HW143131   0.423   5.056   0.977  0.2296  0.2658  0.6948
10734SOL    HW243132   0.584   5.070   1.003  0.2586  0.2432  0.5268
10735SOL     OW43133   2.919   5.032   5.475  0.4612 -0.0918 -0.0385
10735SOL    HW143134   2.946   4.979   5.394  1.1952 -0.9717  0.7596
10735SOL    HW243135   3.001   5.057   5.527 -0.0865 -0.6676  1.1171
10736SOL     OW43136   2.457   3.988   3.687 -0.0513 -0.2949  0.4218
10736SOL    HW143137   2.363   4.019   3.693  0.3015  0.5004  1.9539
10736SOL    HW243138   2.518   4.057   3.725  0.9754 -1.7331  1.4425
10737SOL     OW43139   7.742   2.839   4.642 -0.0938  0.5302 -0.2532
10737SOL    HW143140   7.842   2.828   4.645 -0.4789 -3.1193  1.8535
10737SOL    HW243141   7.709   2.867   4.732 -1.1193  0.3092 -0.5524
10738SOL     OW43142   9.930   7.709   4.307 -0.0521  0.7838 -0.2238
10738SOL    HW143143   9.865   7.640   4.277  1.4397  0.6728 -3.3950
10738SOL    HW243144   9.885   7.798   4.312 -0.8905  0.3798 -0.4664
10739SOL     OW43145   3.773   9.371   2.981  0.1380 -0.0114 -0.3191
10739SOL    HW143146   3.849   9.351   3.042 -0.9668 -1.3389  0.6579
10739SOL    HW243147   3.718   9.288   2.968 -0.7976  0.7793 -1.4813
10740SOL     OW43148   3.614   5.705   2.154  0.4787 -0.4109 -0.6447
10740SOL    HW143149   3.621   5.664   2.063  0.5283  0.2938 -0.9564
10740SOL    HW243150   3.664   5.648   2.220 -0.4108 -1.4768 -0.8661
10741SOL     OW43151   7.947   7.192   2.791 -0.4866  0.6663  0.2684
10741SOL    HW143152   7.941   7.288   2.819  1.1005  1.2663 -1.3672
10741SOL    HW243153   8.043   7.162   2.796 -0.6315 -0.1278 -1.5228
10742SOL     OW43154   8.532   0.750   5.037  0.2980 -0.3788  0.2294
10742SOL    HW143155   8.515   0.668   5.091 -0.2349  0.0391  0.7029
10742SOL    HW243156   8.625   0.749   5.001  0.2112 -1.3017  0.0406
10743SOL     OW43157   2.820   1.272   1.082  0.3432  0.4917  0.0963
10743SOL    HW143158   2.800   1.178   1.108  2.0636 -0.0354 -0.4129
10743SOL    HW243159   2.776   1.335   1.147 -0.9216 -0.6456  0.3583
10744SOL     OW43160   7.764   9.038   5.340 -0.7381 -0.1173  0.1148
10744SOL    HW143161   7.796   8.970   5.274 -1.6470 -1.2719  0.8414
10744SOL    HW243162   7.667   9.057   5.323 -0.7763  0.1541  0.6341
10745SOL     OW43163   9.455   2.825   5.500  0.4441  0.8152 -0.2886
10745SOL    HW143164   9.537   2.876   5.472  0.4390  0.5283 -0.8500
10745SOL    HW243165   9.375   2.885   5.495  0.4101  0.7216 -1.1188
10746SOL     OW43166   9.639   2.991   5.418  0.4229 -0.3109 -0.2255
10746SOL    HW143167   9.737   2.972   5.428  0.4895 -0.0933 -0.4499
10746SOL    HW243168   9.627   3.087   5.394  0.1284 -0.2261  0.2439
10747SOL     OW43169   4.305   3.226   0.023 -0.1177  0.1040  0.0652
10747SOL    HW143170   4.340   3.223  -0.071  0.7706 -0.7633  0.4147
10747SOL    HW243171   4.382   3.231   0.087 -0.4939 -3.6079  0.9241
10748SOL     OW43172   9.347   1.511   4.644 -0.1589 -0.0502 -0.4455
10748SOL    HW143173   9.389   1.434   4.595 -1.3390 -0.6407 -0.5404
10748SOL    HW243174   9.410   1.544   4.714  0.7848 -0.4159 -1.1021
10749SOL     OW43175   0.569   1.449   3.001  0.7539 -0.1254  0.0832
10749SOL    HW143176   0.595   1.411   2.912 -0.8335  1.6136 -1.1619
10749SOL    HW243177   0.584   1.548   3.001  0.6953 -0.1119  1.7273
10750SOL     OW43178   7.661   3.854   4.614 -0.1617 -0.0973  0.1991
10750SOL    HW143179   7.641   3.951   4.599 -0.9095 -0.3565 -0.5463
10750SOL    HW243180   7.711   3.818   4.535 -0.6940 -0.5338  0.0562
10751SOL     OW43181   9.579   2.747   3.679 -0.1718  0.2693 -0.6871
10751SOL    HW143182   9.658   2.722   3.735 -0.1770 -0.4931 -1.0124
10751SOL    HW243183   9.538   2.831   3.715 -1.3437 -1.2323  1.6323
10752SOL     OW43184   4.608   5.787   1.038  0.5934  0.2651  0.5033
10752SOL    HW143185   4.566   5.771   1.127 -0.9332 -4.3321 -0.9040
10752SOL    HW243186   4.543   5.832   0.977  0.4088  0.1751  0.6365
10753SOL     OW43187   6.848   7.999   3.392 -0.1011  0.6637  0.1205
10753SOL    HW143188   6.791   7.982   3.473  0.9971 -0.1290  0.7386
10753SOL    HW243189   6.816   8.082   3.346 -2.2230 -0.1590  0.0259
10754SOL     OW43190   0.159   4.723   4.178  0.2317  0.1229 -0.1863
10754SOL    HW143191   0.195   4.764   4.094 -0.7990 -0.0195 -0.7079
10754SOL    HW243192   0.215   4.644   4.203 -0.5087 -0.9325 -1.7601
10755SOL     OW43193   9.957   7.322   3.376 -0.2664  0.4105  0.3924
10755SOL    HW143194   9.906   7.252   3.326  0.2364  0.5105 -0.2691
10755SOL    HW243195   9.957   7.300   3.474 -1.3829  0.2928  0.3726
10756SOL     OW43196   4.073   2.825   3.258  0.8861 -0.0226  0.0980
10756SOL    HW143197   4.062   2.808   3.356 -2.4005  0.3550 -0.1628
10756SOL    HW243198   4.053   2.921   3.238 -3.0360 -1.0697 -1.4952
10757SOL     OW43199   0.227   8.005   2.659 -0.3951  0.0088  0.3101
10757SOL    HW143200   0.139   8.030   2.619  0.5829  0.5395 -1.6060
10757SOL    HW243201   0.240   7.906   2.654 -0.6330 -0.0074  0.0453
10758SOL     OW43202   2.597   0.709   4.094 -0.4309 -0.3184  0.1322
10758SOL    HW143203   2.577   0.616   4.063  1.5970 -0.4260 -0.9488
10758SOL    HW243204   2.583   0.715   4.192 -1.3331 -1.5552  0.0901
10759SOL     OW43205   1.332   4.032   2.476 -0.0821  0.0486 -0.0413
10759SOL    HW143206   1.260   4.015   2.409 -0.7613 -1.9324  1.1553
10759SOL    HW243207   1.332   4.128   2.502 -0.4294  0.6385 -2.1586
10760SOL     OW43208   1.319   3.605   2.619  0.4343  0.1496  0.0401
10760SOL    HW143209   1.305   3.703   2.632  0.8055  0.2159 -0.0283
10760SOL    HW243210   1.397   3.575   2.676 -0.8457 -0.4760  1.5008
10761SOL     OW43211   0.593   6.992   5.107 -0.6302  0.6315 -0.4165
10761SOL    HW143212   0.628   6.987   5.014 -2.8818 -0.3959 -1.2374
10761SOL    HW243213   0.517   7.057   5.111 -0.7939  0.3959  0.6171
10762SOL     OW43214   7.698   9.132   0.282  1.1369 -0.0908 -0.0764
10762SOL    HW143215   7.744   9.215   0.315  1.1215  0.3761 -1.2218
10762SOL    HW243216   7.721   9.117   0.186  0.9839 -1.3129  0.0782
10763SOL     OW43217   1.040   1.001   3.148 -0.6312  0.1160 -0.0018
10763SOL    HW143218   1.074   1.036   3.235  0.1572  0.3165 -0.3874
10763SOL    HW243219   1.018   0.904   3.157 -0.0447  0.0070  0.2748
10764SOL     OW43220   4.531   9.875   5.081  0.0614  0.6510  0.5254
10764SOL    HW143221   4.623   9.841   5.101  0.0394  0.5886  0.5174
10764SOL    HW243222   4.475   9.801   5.042  0.1048  0.7745  0.2264
10765SOL     OW43223   2.331   7.345   4.031 -0.0754 -0.2310 -0.0490
10765SOL    HW143224   2.370   7.384   4.114 -0.2531 -0.8468  0.3280
10765SOL    HW243225   2.390   7.271   3.998 -0.0728 -0.0748 -0.3985
10766SOL     OW43226   3.749   4.059   1.792  1.3943  0.2158  0.3904
10766SOL    HW143227   3.726   3.986   1.855  1.5159  0.2156  0.4358
10766SOL    HW243228   3.805   4.127   1.839  3.0491 -0.6996 -0.1801
10767SOL     OW43229   8.233   8.732   2.087 -0.1487 -0.9079 -0.1454
10767SOL    HW143230   8.274   8.823   2.078  0.0395 -0.7017  2.5631
10767SOL    HW243231   8.306   8.664   2.102 -0.5636 -0.9072  1.9978
10768SOL     OW43232   3.543   8.210   5.233 -0.4044 -0.0706  0.2855
10768SOL    HW143233   3.553   8.300   5.191 -0.4682  0.4799  1.4287
10768SOL    HW243234   3.618   8.194   5.297 -1.9707  0.4216  2.3099
10769SOL     OW43235   0.010   2.902   0.344 -0.0141 -0.0558  0.1786
10769SOL    HW143236   0.096   2.869   0.383  0.5083  0.6672 -0.3541
10769SOL    HW243237   0.013   3.001   0.338 -0.9583 -0.0174  0.3101
10770SOL     OW43238   1.395   0.213   0.579 -0.3586  0.3772  0.6861
10770SOL    HW143239   1.399   0.127   0.527 -0.5998  1.2853 -0.8487
10770SOL    HW243240   1.478   0.266   0.563 -0.6636  0.8951  0.8180
10771SOL     OW43241   0.530   1.089   5.265  0.1488 -0.0824 -0.2300
10771SOL    HW143242   0.453   1.151   5.249 -0.2627 -0.8571 -1.2867
10771SOL    HW243243   0.518   1.045   5.354  1.2103  2.4402  1.2165
10772SOL     OW43244   3.134   4.499   4.014 -0.3857  0.2706 -0.2604
10772SOL    HW143245   3.139   4.581   3.958 -1.2274  0.5712  0.0914
10772SOL    HW243246   3.208   4.437   3.990  0.5764  1.3692 -0.1542
10773SOL     OW43247   7.826   8.468   1.192  0.4842 -0.0023  0.0565
10773SOL    HW143248   7.784   8.377   1.191  0.1163  0.1674 -1.7531
10773SOL    HW243249   7.787   8.523   1.118 -1.3454  2.5755  2.7771
10774SOL     OW43250   3.230   2.563   4.136  0.2613 -0.4252 -0.1594
10774SOL    HW143251   3.262   2.622   4.062  1.0645 -0.9429 -0.2285
10774SOL    HW243252   3.277   2.475   4.132 -0.1243 -0.6742  0.6066
10775SOL     OW43253   1.991   9.408   0.535 -0.0421 -0.1444 -0.0490
10775SOL    HW143254   1.901   9.415   0.491  0.4527 -1.9552 -1.4105
10775SOL    HW243255   2.019   9.313   0.539  1.7289  0.3797  0.5810
10776SOL     OW43256   1.199   8.810   0.427 -0.0471 -0.1386  0.5376
10776SOL    HW143257   1.143   8.816   0.344  0.5028  0.1085  0.1836
10776SOL    HW243258   1.281   8.866   0.416 -0.3449  0.5175  1.5484
10777SOL     OW43259   8.227   0.280   4.152 -0.2805  0.8472 -0.8274
10777SOL    HW143260   8.250   0.325   4.066  1.1288 -0.5876 -1.2064
10777SOL    HW243261   8.301   0.219   4.179 -0.3887  1.7866  1.7669
10778SOL     OW43262   1.225   9.593   2.130  0.2323  0.0412 -0.6388
10778SOL    HW143263   1.274   9.509   2.109  0.2380  0.2752 -1.5842
10778SOL    HW243264   1.156   9.575   2.199  2.4344 -0.0538  1.6121
10779SOL     OW43265   4.234   7.746   4.720 -0.0939 -0.3323 -0.1832
10779SOL    HW143266   4.253   7.827   4.665  1.9635 -0.4555  0.3031
10779SOL    HW243267   4.271   7.665   4.674  0.0473 -0.6665  0.5087
10780SOL     OW43268   9.759   0.526   1.059  0.3740 -0.3662 -0.3520
10780SOL    HW143269   9.688   0.547   0.991 -0.4018  1.3096  0.9328
10780SOL    HW243270   9.848   0.529   1.015 -0.1261  0.6303 -1.3390
10781SOL     OW43271   8.438   7.936  -0.001  0.0837  0.0661 -0.1482
10781SOL    HW143272   8.445   8.029   0.036 -1.6670  0.4363 -0.7051
10781SOL    HW243273   8.465   7.871   0.070  0.8025  0.9757  0.4281
10782SOL     OW43274   1.873   9.252   2.797 -0.2439  0.0601 -0.2970
10782SOL    HW143275   1.954   9.306   2.819 -1.0475  1.2823 -0.2743
10782SOL    HW243276   1.792   9.312   2.797 -1.5675 -1.6500  2.5484
10783SOL     OW43277   4.785   3.644   3.453 -0.2498 -0.2828 -0.1520
10783SOL    HW143278   4.687   3.639   3.471  0.0333  1.1739  2.1691
10783SOL    HW243279   4.812   3.740   3.443  0.9911 -0.6454 -0.4480
10784SOL     OW43280   1.410   7.896   2.557 -0.1072 -0.6485  0.2295
10784SOL    HW143281   1.408   7.797   2.544 -0.6738 -0.6600  0.3853
10784SOL    HW243282   1.394   7.941   2.468 -3.3017 -0.7273  0.6857
10785SOL     OW43283   1.085   9.337   4.078 -0.5983 -0.5187 -0.0519
10785SOL    HW143284   1.017   9.366   4.146 -1.1670  2.0466 -1.6171
10785SOL    HW243285   1.151   9.411   4.065  0.7059 -1.8034 -0.7979
10786SOL     OW43286   7.949   9.863   2.980 -0.1243 -0.2905 -0.8338
10786SOL    HW143287   7.849   9.859   2.982 -0.1009 -1.7566 -1.8911
10786SOL    HW243288   7.986   9.807   3.054 -0.0545 -5.0626 -4.2407
10787SOL     OW43289   8.340   6.552   0.717 -0.0215  0.2376  0.7503
10787SOL    HW143290   8.329   6.648   0.692 -2.1430 -0.5665 -1.6180
10787SOL    HW243291   8.297   6.536   0.806  1.1304  1.6323  1.5865
10788SOL     OW43292   9.291   8.872   2.454 -0.1747 -0.2794 -0.8414
10788SOL    HW143293   9.261   8.777   2.463 -1.1806  0.3368  2.7888
10788SOL    HW243294   9.377   8.885   2.505 -0.2834  0.8750 -0.9409
10789SOL     OW43295   3.557   4.814   2.199 -0.0675 -0.1492 -0.2459
10789SOL    HW143296   3.575   4.790   2.294  2.8301  0.6995 -0.5266
10789SOL    HW243297   3.547   4.913   2.191 -0.5195 -0.2403 -0.7744
10790SOL     OW43298   3.910   3.093   1.383 -0.0358  0.0096  0.2255
10790SOL    HW143299   3.917   3.188   1.415 -0.7900 -0.0625  0.6062
10790SOL    HW243300   3.964   3.034   1.443  1.2373  0.3330 -0.5947
10791SOL     OW43301   8.376   7.568   1.210  0.1780 -0.1594 -0.3335
10791SOL    HW143302   8.389   7.487   1.268  1.4979 -0.7151 -1.3734
10791SOL    HW243303   8.345   7.540   1.119 -0.7170  0.6180 -0.2774
10792SOL     OW43304   5.924   7.029   3.555  0.2433  0.9001 -0.4954
10792SOL    HW143305   5.987   7.037   3.632 -0.0150  0.3111 -0.2193
10792SOL    HW243306   5.840   6.984   3.585  0.2624  0.3931 -1.1931
10793SOL     OW43307   5.227   0.864   4.136 -0.3980  0.3792 -0.2159
10793SOL    HW143308   5.275   0.777   4.149  1.1169  1.4721  1.6551
10793SOL    HW243309   5.277   0.937   4.181 -3.1989  1.7555  0.7781
10794SOL     OW43310   7.748   1.118   2.386  0.1155 -0.2107 -0.0265
10794SOL    HW143311   7.727   1.025   2.356 -1.6013  0.0013  0.4761
10794SOL    HW243312   7.826   1.117   2.449 -0.6945 -1.4418  0.9630
10795SOL     OW43313   8.488   9.259   4.567 -0.1942  0.8299 -0.3966
10795SOL    HW143314   8.432   9.226   4.491  0.7994 -1.1157 -0.3257
10795SOL    HW243315   8.581   9.223   4.559  0.3186  1.7978  0.9464
10796SOL     OW43316   9.056   9.640   3.893  0.7810  0.2578  0.7190
10796SOL    HW143317   9.039   9.727   3.939 -1.8322  1.4650 -2.3146
10796SOL    HW243318   8.981   9.577   3.911 -1.0934  1.2799 -2.8877
10797SOL     OW43319   0.878   2.419   0.634 -0.2151  0.0695  0.0679
10797SOL    HW143320   0.943   2.482   0.593 -2.2187  1.9576 -0.2819
10797SOL    HW243321   0.853   2.348   0.567 -1.8581  1.9134 -1.3209
10798SOL     OW43322   9.891   8.391   3.944 -0.5738  0.0496 -0.5468
10798SOL    HW143323   9.857   8.484   3.953  0.5497  0.5136 -0.9901
10798SOL    HW243324   9.990   8.390   3.961 -0.8121 -1.2807  0.8483
10799SOL     OW43325   0.384   6.315   0.446  0.4271  0.5208 -0.0522
10799SOL    HW143326   0.442   6.319   0.365  0.1362 -0.1478 -0.2933
10799SOL    HW243327   0.396   6.227   0.492  1.5810  1.4075  1.3696
10800SOL     OW43328   8.370   7.322   4.852  0.1134 -0.1378  0.2095
10800SOL    HW143329   8.394   7.231   4.819  1.1821 -0.4146  1.7343
10800SOL    HW243330   8.397   7.390   4.785  1.5851 -0.7533  0.1756
10801SOL     OW43331   4.018   2.749   5.613  0.2658 -0.4539  0.1053
10801SOL    HW143332   4.045   2.667   5.563  1.0003 -0.9988  1.3415
10801SOL    HW243333   4.077   2.759   5.694  0.0725  1.1948  0.0700
10802SOL     OW43334   2.427   6.314   0.164  0.6671 -0.6258 -0.6267
10802SOL    HW143335   2.456   6.311   0.068 -1.4102  0.4236 -1.3082
10802SOL    HW243336   2.436   6.222   0.204  1.7404 -1.0327 -1.7537
10803SOL     OW43337   7.036   9.100   3.586  0.5441  0.1465 -0.3950
10803SOL    HW143338   7.002   9.015   3.626  0.6442 -0.5134 -1.6993
10803SOL    HW243339   7.089   9.150   3.655 -0.8443 -0.0660  0.8532
10804SOL     OW43340   5.044   1.125   4.946 -0.4909 -0.2515 -0.3984
10804SOL    HW143341   5.016   1.165   5.033  0.1929  0.0162 -0.2974
10804SOL    HW243342   5.002   1.175   4.871 -0.4474  0.0165 -0.2438
10805SOL     OW43343   9.717   3.778   0.848  0.5125  0.7969  0.2689
10805SOL    HW143344   9.773   3.731   0.780 -0.5833  1.4752 -1.1455
10805SOL    HW243345   9.685   3.865   0.810 -0.1930  1.1490  1.6282
10806SOL     OW43346   0.793  10.000   0.293 -0.3436  0.4153 -0.3404
10806SOL    HW143347   0.876   9.952   0.265  0.2854  1.7224 -0.7724
10806SOL    HW243348   0.787  10.001   0.393  0.0886  0.1897 -0.3103
10807SOL     OW43349   4.311   0.923   3.393  0.1248 -0.0155 -0.4645
10807SOL    HW143350   4.409   0.938   3.382 -0.0477 -0.5494 -3.2432
10807SOL    HW243351   4.269   1.004   3.434  1.6127  0.4612  0.1483
10808SOL     OW43352   4.483   0.090   3.246 -0.1792 -0.1537  0.1515
10808SOL    HW143353   4.522   0.127   3.331  1.7011 -3.2840  0.7336
10808SOL    HW243354   4.410   0.026   3.268 -0.3296 -0.2664 -0.6633
10809SOL     OW43355   4.378   6.504   1.359  0.3348  0.2161  0.2289
10809SOL    HW143356   4.394   6.436   1.431 -1.3270  0.5981  0.9807
10809SOL    HW243357   4.280   6.520   1.350  0.4322 -0.5234 -2.7884
10810SOL     OW43358   1.174   2.475   1.751 -0.2036 -0.2499  0.2210
10810SOL    HW143359   1.162   2.406   1.822 -1.1916 -0.1676  0.1364
10810SOL    HW243360   1.144   2.564   1.784  0.0670 -0.0638 -0.0301
10811SOL     OW43361   8.687   0.735   3.386  0.1712 -0.5952 -0.1225
10811SOL    HW143362   8.649   0.655   3.432  0.2635  0.1602  1.3082
10811SOL    HW243363   8.787   0.736   3.398  0.2051 -0.4172 -0.3991
10812SOL     OW43364   5.305   8.374   2.948 -0.3645  0.3264  0.3692
10812SOL    HW143365   5.398   8.339   2.935 -0.6774 -0.6226  0.6292
10812SOL    HW243366   5.250   8.305   2.996 -0.5791  1.7800  2.2876
10813SOL     OW43367   5.039   4.451   2.030  0.4700 -0.6411  0.1392
10813SOL    HW143368   5.115   4.386   2.021 -0.4129 -1.7856  0.8007
10813SOL    HW243369   5.044   4.495   2.120  1.7896  1.1616 -0.7845
10814SOL     OW43370   7.494   7.837   3.090  0.0741  0.3626 -0.3796
10814SOL    HW143371   7.587   7.803   3.077  0.3631  1.2736 -0.7211
10814SOL    HW243372   7.496   7.934   3.114 -0.8533  1.0260 -2.7772
10815SOL     OW43373   4.177   9.683   2.355  0.3218  0.0617 -0.1309
10815SOL    HW143374   4.261   9.682   2.301  0.6410 -0.4674  0.3775
10815SOL    HW243375   4.117   9.608   2.326 -0.3886  0.9953 -1.1358
10816SOL     OW43376   8.829   3.788   0.663 -0.3116  0.6175 -0.7238
10816SOL    HW143377   8.786   3.838   0.738  2.2232  0.4293  0.9387
10816SOL    HW243378   8.858   3.698   0.695  0.4320  0.3706 -2.0408
10817SOL     OW43379   1.009   7.241   1.873 -0.2997 -0.4841 -0.0330
10817SOL    HW143380   0.992   7.160   1.929 -1.7557  0.9980  1.7396
10817SOL    HW243381   0.922   7.274   1.836  0.1293  0.9260  0.2004
10818SOL     OW43382   4.825   6.158   1.536 -0.5481  0.0032 -0.3908
10818SOL    HW143383   4.864   6.218   1.606  0.3399 -1.1742  0.1149
10818SOL    HW243384   4.839   6.199   1.446 -0.0424  0.6161 -0.0383
10819SOL     OW43385   1.202   8.647   1.589  0.4596 -0.4062 -0.1931
10819SOL    HW143386   1.232   8.729   1.540  1.3881 -0.9300 -0.5037
10819SOL    HW243387   1.281   8.598   1.625 -0.1434 -0.7067  0.7491
10820SOL     OW43388   1.406   6.175   3.488 -0.6404 -0.5762  0.1753
10820SOL    HW143389   1.325   6.227   3.460  0.4340  0.0668 -1.7842
10820SOL    HW243390   1.487   6.212   3.444  0.4118 -2.7735  0.1851
10821SOL     OW43391   5.014   1.585   3.397  0.2543  0.0977  0.2379
10821SOL    HW143392   5.012   1.638   3.482  0.0828  0.5574 -0.0527
10821SOL    HW243393   5.097   1.607   3.346  0.0078  0.3557 -0.0537
10822SOL     OW43394   1.905   6.574   1.298 -0.3933  0.4317 -0.2688
10822SOL    HW143395   1.901   6.673   1.284 -1.6019  0.4879  0.4002
10822SOL    HW243396   1.812   6.537   1.301  0.0072 -0.5239  0.7978
10823SOL     OW43397   9.017   4.630   2.523 -0.1936 -0.3249  0.4115
10823SOL    HW143398   9.054   4.573   2.450 -1.3309 -1.2985  0.5696
10823SOL    HW243399   9.047   4.594   2.611 -1.4086 -1.0564  0.5358
10824SOL     OW43400   1.527   0.635   5.457 -0.3524 -0.3202 -0.7596
10824SOL    HW143401   1.488   0.622   5.548 -1.7602 -1.3705 -1.4983
10824SOL    HW243402   1.547   0.732   5.443 -2.4591  0.2102 -0.2342
10825SOL     OW43403   6.905   9.216   3.930 -0.4927  0.0499  0.0821
10825SOL    HW143404   6.938   9.302   3.892  0.3357 -0.0977  0.4545
10825SOL    HW243405   6.977   9.174   3.985 -2.1518  1.0445  3.1451
10826SOL     OW43406   3.273   5.598   2.466  0.1233  0.0743 -0.1725
10826SOL    HW143407   3.319   5.545   2.395 -0.9091 -0.0143 -0.7734
10826SOL    HW243408   3.179   5.615   2.440  0.3067  1.7925  0.2561
10827SOL     OW43409   4.100   3.229   3.474 -0.1242 -0.1770  0.1411
10827SOL    HW143410   4.055   3.170   3.407 -0.3073  0.8357 -0.6426
10827SOL    HW243411   4.163   3.175   3.529 -0.4966 -1.1531 -0.3845
10828SOL     OW43412   3.408   0.986   5.510 -0.0532 -1.1420  0.5316
10828SOL    HW143413   3.438   0.954   5.420 -1.2017 -1.4466  0.2547
10828SOL    HW243414   3.439   0.921   5.580  1.8077 -0.3256  0.4942
10829SOL     OW43415   7.395   1.365   3.150  0.5004  0.2597  0.1699
10829SOL    HW143416   7.475   1.338   3.096  0.7655 -1.0203  1.1936
10829SOL    HW243417   7.312   1.352   3.096  0.8761  0.4171 -0.4515
10830SOL     OW43418   9.665   2.853   2.852  0.8598  0.1371 -0.5557
10830SOL    HW143419   9.731   2.879   2.781  0.5244  1.3000 -0.4566
10830SOL    HW243420   9.703   2.877   2.942  0.6145  0.1428 -0.4542
10831SOL     OW43421   8.970   5.033   2.851 -0.1269  0.0730  0.8484
10831SOL    HW143422   8.999   4.942   2.878 -1.0101 -1.2601 -2.3766
10831SOL    HW243423   8.879   5.052   2.887 -0.3540 -0.7258  0.6842
10832SOL     OW43424   8.369   1.723   1.014 -0.5273 -0.5357 -0.4881
10832SOL    HW143425   8.360   1.701   1.111  0.2885  1.3938  0.0380
10832SOL    HW243426   8.457   1.688   0.980  1.9275  3.8341  0.9591
10833SOL     OW43427   4.729   1.991   1.651 -0.2177  0.3445  0.2384
10833SOL    HW143428   4.767   1.995   1.743 -1.0590  1.1114  0.5454
10833SOL    HW243429   4.781   2.053   1.591 -1.2946  1.7770  0.7725
10834SOL     OW43430   9.269   6.825   1.738 -0.0629 -0.8970  0.5524
10834SOL    HW143431   9.280   6.754   1.808  1.2869 -1.4504 -0.2031
10834SOL    HW243432   9.178   6.818   1.698 -1.4916  0.5012  3.4079
10835SOL     OW43433   7.698   9.747   0.121 -0.4724 -0.7243 -0.1349
10835SOL    HW143434   7.645   9.695   0.054  1.9476 -1.8185 -1.2525
10835SOL    HW243435   7.783   9.779   0.078 -1.0600  2.6304  1.0492
10836SOL     OW43436   2.290   6.448   1.079  0.0722 -0.4694 -0.4309
10836SOL    HW143437   2.213   6.504   1.049  0.1612 -0.8310 -1.3378
10836SOL    HW243438   2.367   6.461   1.017  0.0211 -1.7615 -0.7783
10837SOL     OW43439   6.301   0.556   2.554 -0.8236  0.0878  0.1323
10837SOL    HW143440   6.321   0.508   2.468  0.4394 -0.4210  0.7027
10837SOL    HW243441   6.359   0.520   2.626 -0.8045  1.5769  0.8707
10838SOL     OW43442   1.089   2.750   1.521 -0.2019  0.0140  0.6720
10838SOL    HW143443   1.173   2.696   1.516  0.8670  1.6896 -0.1629
10838SOL    HW243444   1.110   2.840   1.559 -1.0117  1.5697 -2.4476
10839SOL     OW43445   2.307   5.922   3.460  0.4522 -0.0651  0.0523
10839SOL    HW143446   2.300   6.021   3.452  0.0028  0.0909  2.0907
10839SOL    HW243447   2.237   5.879   3.402  1.1651  0.7744 -1.4454
10840SOL     OW43448   7.156   0.612   0.882 -0.5022 -0.1237 -0.4065
10840SOL    HW143449   7.171   0.708   0.906 -1.1137 -0.2182  0.3481
10840SOL    HW243450   7.073   0.604   0.827  0.0686 -0.1057 -1.2909
10841SOL     OW43451   2.136   0.662   5.424 -0.3665  0.0914 -0.2699
10841SOL    HW143452   2.231   0.653   5.456  0.0328  1.9261 -0.8689
10841SOL    HW243453   2.079   0.696   5.499  0.0466  1.8319 -0.7253
10842SOL     OW43454   0.072   1.632   0.956 -0.4196  0.0606 -0.1922
10842SOL    HW143455   0.081   1.719   0.908 -0.0299 -0.1577 -0.5084
10842SOL    HW243456   0.118   1.639   1.045 -2.0082  0.8012  0.6099
10843SOL     OW43457   9.459   0.235   0.211  0.1364 -0.3067 -0.6314
10843SOL    HW143458   9.504   0.206   0.127 -2.6272 -1.1919 -1.8764
10843SOL    HW243459   9.362   0.252   0.193 -0.1406  1.2337  1.9987
10844SOL     OW43460   3.123   9.954   1.717 -0.0058 -0.0233  0.4983
10844SOL    HW143461   3.093   9.938   1.811  1.2970  0.5241  1.0321
10844SOL    HW243462   3.103   9.874   1.661 -3.2150  0.6533  0.6025
10845SOL     OW43463   3.426   6.358   3.546 -0.0689 -0.1287 -0.1436
10845SOL    HW143464   3.431   6.370   3.645  2.1112  2.7449 -0.5346
10845SOL    HW243465   3.473   6.434   3.501 -1.9202 -0.8513 -3.4205
10846SOL     OW43466   2.115   6.385   2.758  0.2264  0.6544 -0.3214
10846SOL    HW143467   2.136   6.308   2.698 -0.2056  0.1928  0.1142
10846SOL    HW243468   2.180   6.459   2.742  0.1291  0.5241 -1.3426
10847SOL     OW43469   3.136   9.237   3.482 -0.0478  0.3072  0.0460
10847SOL    HW143470   3.096   9.223   3.391  0.9685 -1.6126 -0.1430
10847SOL    HW243471   3.090   9.176   3.547  0.6229  0.1778  0.3953
10848SOL     OW43472   8.920   5.644   1.078 -0.8500 -0.0508  0.3401
10848SOL    HW143473   8.883   5.575   1.016 -1.0630  1.0936 -0.8595
10848SOL    HW243474   8.913   5.734   1.034  1.0032  0.5083  1.1477
10849SOL     OW43475   4.936   4.558   5.591  0.2207 -0.1739  0.3436
10849SOL    HW143476   4.921   4.639   5.534  1.6726 -0.9282 -1.1691
10849SOL    HW243477   4.881   4.482   5.557  0.0486 -0.2500  0.7933
10850SOL     OW43478   9.331   1.529   2.227  0.4500  0.2931 -0.4463
10850SOL    HW143479   9.334   1.465   2.303  0.7707 -0.1382 -0.8241
10850SOL    HW243480   9.286   1.486   2.149 -1.2941  1.2452 -0.0172
10851SOL     OW43481   3.934   1.441   0.337 -0.1268  0.4037  0.3432
10851SOL    HW143482   3.968   1.523   0.382  0.8681  0.6516 -0.8213
10851SOL    HW243483   4.011   1.384   0.309 -0.8261 -1.1574  1.5562
10852SOL     OW43484   2.802   6.071   3.467  0.3947 -0.0200 -0.1343
10852SOL    HW143485   2.800   6.171   3.469 -1.2939  0.0804 -3.5581
10852SOL    HW243486   2.896   6.040   3.449  0.7602  0.9855 -0.0167
10853SOL     OW43487   9.743   6.918   1.522  0.6272 -0.0556 -0.0147
10853SOL    HW143488   9.803   6.942   1.446 -0.2455 -0.2243 -0.7572
10853SOL    HW243489   9.661   6.975   1.520 -0.9495 -2.3084 -1.1561
10854SOL     OW43490   3.643   9.569   5.196 -0.0136  0.2592  0.1755
10854SOL    HW143491   3.688   9.530   5.115 -0.0968 -1.0385  0.7364
10854SOL    HW243492   3.707   9.629   5.244  0.3813  0.2002 -0.2721
10855SOL     OW43493   2.882   3.922   1.644 -0.6761 -0.2409  0.3118
10855SOL    HW143494   2.891   3.994   1.713 -1.4588 -0.0902  0.2694
10855SOL    HW243495   2.791   3.929   1.601  0.6544  1.1894 -2.4115
10856SOL     OW43496   7.070   8.578   2.431  0.5299  0.8903 -0.4730
10856SOL    HW143497   7.069   8.489   2.476  0.7248  0.7137 -0.8140
10856SOL    HW243498   7.069   8.566   2.331  2.4573  1.2160 -0.5539
10857SOL     OW43499   2.480   4.139   1.618  0.1758 -0.3843  0.0002
10857SOL    HW143500   2.510   4.050   1.582 -1.0935 -1.1788  0.8498
10857SOL    HW243501   2.409   4.177   1.558  1.8345  0.8102 -1.2217
10858SOL     OW43502   2.682   6.074   1.807 -0.1789 -0.0819  0.0808
10858SOL    HW143503   2.632   5.991   1.831  0.0950 -0.6104 -1.1314
10858SOL    HW243504   2.621   6.152   1.811 -0.7593 -0.5252 -0.0560
10859SOL     OW43505   2.845   4.222   2.477 -0.5820 -0.0358  0.1273
10859SOL    HW143506   2.762   4.180   2.513 -0.0956 -0.4031  0.8436
10859SOL    HW243507   2.907   4.242   2.553  0.8508 -1.6765 -0.5787
10860SOL     OW43508   1.798   4.286   1.053 -0.7807  0.1845  0.4135
10860SOL    HW143509   1.870   4.223   1.023 -0.3883 -0.5480  2.7894
10860SOL    HW243510   1.713   4.264   1.005 -0.2173 -1.0372 -0.0450
10861SOL     OW43511   1.413   9.659   1.932  0.2729 -0.3149  0.0198
10861SOL    HW143512   1.429   9.607   1.849  3.7420 -2.3529  1.8465
10861SOL    HW243513   1.336   9.620   1.983 -0.6417 -0.2071 -1.2578
10862SOL     OW43514   7.295   1.424   4.819 -0.2144  0.2312 -0.6846
10862SOL    HW143515   7.254   1.394   4.905 -1.9034  1.1455 -1.1470
10862SOL    HW243516   7.355   1.502   4.836 -0.9799  0.7675 -0.3971
10863SOL     OW43517   3.760   2.176   3.727  0.1020 -0.0511  0.2880
10863SOL    HW143518   3.675   2.154   3.679 -0.3518  2.1954  0.0257
10863SOL    HW243519   3.805   2.091   3.755 -1.5077 -1.2976 -0.8099
10864SOL     OW43520   8.067   3.812   5.260  0.5883 -0.4639  0.1153
10864SOL    HW143521   7.996   3.798   5.192  1.2475 -0.6163 -0.5478
10864SOL    HW243522   8.083   3.910   5.272  0.6638 -0.4434 -0.1516
10865SOL     OW43523   4.645   9.981   4.481  0.2273  0.0741  0.0924
10865SOL    HW143524   4.563   9.939   4.522  1.4127 -1.7948  0.6121
10865SOL    HW243525   4.721   9.974   4.545  0.9106  1.4066 -0.5735
10866SOL     OW43526   7.866   3.068   1.259  0.0923  0.2076 -0.5048
10866SOL    HW143527   7.949   3.120   1.280 -0.1151 -0.0296  0.9231
10866SOL    HW243528   7.890   2.971   1.251  0.0680  0.2248 -0.8006
10867SOL     OW43529   9.796   8.084   3.230  0.5616  0.5123 -0.1883
10867SOL    HW143530   9.828   8.038   3.313  0.1019 -0.9535 -0.8103
10867SOL    HW243531   9.862   8.155   3.203  0.6535  1.0785  1.4860
10868SOL     OW43532   8.511   2.588   3.691  0.4025  0.1142  0.1609
10868SOL    HW143533   8.599   2.626   3.661 -0.7493  2.7898  0.0770
10868SOL    HW243534   8.503   2.596   3.791  0.9838 -1.8155  0.3977
10869SOL     OW43535   8.133   2.877   0.792 -0.3217  0.4636 -0.1674
10869SOL    HW143536   8.094   2.895   0.882 -1.3120 -1.9185 -0.0796
10869SOL    HW243537   8.060   2.866   0.724  0.3420  0.3892 -0.8819
10870SOL     OW43538   1.509   4.979   2.798  0.2312  0.3484 -0.3931
10870SOL    HW143539   1.561   4.939   2.722  0.8945 -0.4531  0.4684
10870SOL    HW243540   1.552   5.064   2.827 -0.4074  1.0093 -1.3455
10871SOL     OW43541   3.816   4.202   2.801  0.2102  0.3493  0.7085
10871SOL    HW143542   3.886   4.220   2.731 -0.1292  1.7948  0.7202
10871SOL    HW243543   3.729   4.241   2.770 -1.0363 -3.0012 -0.1243
10872SOL     OW43544   1.995   5.194   0.149 -0.1999  0.2494 -0.0427
10872SOL    HW143545   1.950   5.191   0.238  0.6729  0.3720  0.4019
10872SOL    HW243546   2.037   5.284   0.136 -2.5947  1.1875 -1.7001
10873SOL     OW43547   1.395   4.149   1.474  0.2149  0.1165 -0.5547
10873SOL    HW143548   1.349   4.080   1.418  1.2539  0.1238 -1.4280
10873SOL    HW243549   1.405   4.233   1.422 -1.2704  1.0328  0.5990
10874SOL     OW43550   4.961   9.532   1.661 -0.2236 -0.3332 -0.4250
10874SOL    HW143551   4.897   9.581   1.719  2.6627 -0.6205  3.2010
10874SOL    HW243552   4.942   9.434   1.665 -0.1118 -0.3401 -0.0282
10875SOL     OW43553   8.724   3.065   2.631  0.1797 -0.4630  0.2787
10875SOL    HW143554   8.668   3.103   2.704 -0.0571  1.6619 -0.9677
10875SOL    HW243555   8.668   3.005   2.573 -0.1624 -0.3905  0.5374
10876SOL     OW43556   2.959   1.983   3.359 -0.3866 -0.0756 -0.2710
10876SOL    HW143557   2.864   1.956   3.373  0.4606 -3.3854 -0.4540
10876SOL    HW243558   2.968   2.032   3.272 -1.7163 -0.8816 -0.8670
10877SOL     OW43559   8.255   3.333   0.656  0.0219 -0.4204  0.4590
10877SOL    HW143560   8.160   3.302   0.663 -0.1409 -0.3762 -1.3310
10877SOL    HW243561   8.288   3.317   0.563  1.3839  0.6715  0.7432
10878SOL     OW43562   4.386   4.595   1.427  0.1572  0.3130  0.0306
10878SOL    HW143563   4.454   4.667   1.441  0.5108  0.5386 -2.6561
10878SOL    HW243564   4.296   4.636   1.413  0.1751  0.1897 -0.4453
10879SOL     OW43565   0.033   9.698   2.868  0.1201  0.0297 -0.3801
10879SOL    HW143566  -0.023   9.689   2.950 -0.1656  0.2040 -0.5531
10879SOL    HW243567   0.033   9.611   2.818 -0.0359  0.0422 -0.4030
10880SOL     OW43568   1.394   9.718   2.304  0.1181  0.1563 -0.4213
10880SOL    HW143569   1.330   9.674   2.242 -3.2082 -1.4414  3.8646
10880SOL    HW243570   1.364   9.812   2.321 -0.5042 -0.2490  0.7573
10881SOL     OW43571   3.697   7.036   4.119  0.5308  0.5888 -0.3222
10881SOL    HW143572   3.781   6.995   4.155 -1.0114 -2.0475  0.4473
10881SOL    HW243573   3.654   7.092   4.190  0.5780  0.2565 -0.0294
10882SOL     OW43574   0.195   0.337   0.537 -0.1296  0.3733  0.3621
10882SOL    HW143575   0.258   0.263   0.513  0.8121  1.2069  0.2141
10882SOL    HW243576   0.241   0.400   0.600 -1.2751  0.2679  1.3147
10883SOL     OW43577   8.945   7.351   0.491 -0.2738  0.4427 -0.4070
10883SOL    HW143578   9.033   7.348   0.537 -1.4007  1.7190  1.9617
10883SOL    HW243579   8.925   7.445   0.463 -0.9911  0.2187 -0.6757
10884SOL     OW43580   2.413   8.891   3.979  0.6042  0.2847 -0.4760
10884SOL    HW143581   2.379   8.883   4.073  0.3883 -0.4465 -0.6119
10884SOL    HW243582   2.512   8.876   3.979  0.3569 -1.4879 -0.5845
10885SOL     OW43583   8.101   6.546   3.818 -0.7125 -0.6793  0.4893
10885SOL    HW143584   8.018   6.585   3.778 -0.4411 -0.8385 -0.2384
10885SOL    HW243585   8.079   6.457   3.859 -0.9864 -0.5243  0.6858
10886SOL     OW43586   1.272   8.516   0.129 -0.1417  0.1435 -0.0257
10886SOL    HW143587   1.293   8.420   0.146 -2.6527 -0.3660  0.4179
10886SOL    HW243588   1.353   8.562   0.095  0.8524 -2.3726 -1.2141
10887SOL     OW43589   9.920   6.662   5.533 -0.1531 -0.0289 -0.3318
10887SOL    HW143590   9.904   6.662   5.632 -2.5081 -0.5609 -0.6762
10887SOL    HW243591   9.851   6.720   5.488  0.2421 -0.6314 -1.7557
10888SOL     OW43592   2.196   9.912   2.654 -0.0255 -0.0468  0.0327
10888SOL    HW143593   2.166   9.991   2.602  0.9720  1.3434  1.5132
10888SOL    HW243594   2.169   9.923   2.750  0.3400 -1.3674  0.2991
10889SOL     OW43595   3.570   7.169   2.631  0.0987  0.1378 -0.7763
10889SOL    HW143596   3.606   7.249   2.680 -0.2712 -0.4542  0.4717
10889SOL    HW243597   3.589   7.179   2.533  0.6371  1.4442 -0.5495
10890SOL     OW43598   4.893   9.454   2.408  0.3016  0.1461 -0.3967
10890SOL    HW143599   4.971   9.471   2.468 -1.2224  1.7317  1.1860
10890SOL    HW243600   4.881   9.356   2.396  1.9204 -0.1356  0.1821
10891SOL     OW43601   1.920   8.071   4.682  0.1303 -0.1685 -0.6597
10891SOL    HW143602   1.855   8.066   4.758  1.1213  0.8465  0.2779
10891SOL    HW243603   1.932   7.980   4.642 -0.4464 -0.7051  0.3794
10892SOL     OW43604   3.542   6.226   3.188  0.4569  0.2762 -0.0005
10892SOL    HW143605   3.540   6.326   3.195 -0.1332  0.4237 -2.0273
10892SOL    HW243606   3.517   6.198   3.095  1.4386 -1.7268  0.2969
10893SOL     OW43607   8.868   4.109   0.851 -0.4385  0.3150  0.6215
10893SOL    HW143608   8.866   4.190   0.908  1.5170  0.8139  0.0289
10893SOL    HW243609   8.887   4.028   0.907 -2.9220  0.1399  1.2927
10894SOL     OW43610   0.719   4.092   0.376 -0.5069  0.7060 -0.1875
10894SOL    HW143611   0.793   4.025   0.369 -2.1121 -1.4718  2.8710
10894SOL    HW243612   0.669   4.095   0.289 -0.0829 -1.6720 -0.5505
10895SOL     OW43613   2.947   2.182   0.060 -0.2838  0.1590 -0.4491
10895SOL    HW143614   2.868   2.236   0.088  0.2000  0.2571  0.7496
10895SOL    HW243615   3.028   2.240   0.057  0.2969 -0.5512  1.1380
10896SOL     OW43616   5.801   0.373   1.696 -0.3309 -0.8722 -0.3569
10896SOL    HW143617   5.770   0.342   1.607 -0.8467 -0.6428 -0.2568
10896SOL    HW243618   5.723   0.391   1.755 -0.1014  1.2585 -0.6250
10897SOL     OW43619   3.777   7.206   2.914  0.5275  0.3437  0.2237
10897SOL    HW143620   3.823   7.294   2.901  1.7113 -0.0376  1.6526
10897SOL    HW243621   3.806   7.142   2.842  1.5665  0.3729  0.6151
10898SOL     OW43622   1.365   3.007   3.140  0.2741  0.0282 -0.2302
10898SOL    HW143623   1.296   3.036   3.074 -1.6401  0.8767  2.0526
10898SOL    HW243624   1.334   2.924   3.187  0.4463  0.8089  1.3171
10899SOL     OW43625   8.538   4.913   5.524  0.2028 -0.6981  0.2903
10899SOL    HW143626   8.612   4.911   5.591  2.8492 -0.2075 -2.5445
10899SOL    HW243627   8.534   4.825   5.476  0.3483 -0.0172 -1.0079
10900SOL     OW43628   7.850   4.021   1.329 -0.0857 -0.0771 -0.1481
10900SOL    HW143629   7.778   3.958   1.299 -0.3176 -0.3930  1.0427
10900SOL    HW243630   7.866   4.009   1.427 -0.3848  1.9747  0.1714
10901SOL     OW43631   7.844   0.564   4.723  0.1261  0.4290 -0.1922
10901SOL    HW143632   7.866   0.555   4.626 -0.1869 -0.8268 -0.1425
10901SOL    HW243633   7.745   0.562   4.735  0.2381 -3.6780  0.5562
10902SOL     OW43634   9.610   0.067   3.929  0.4602  0.6331  0.2952
10902SOL    HW143635   9.595   0.132   3.855  0.2572  0.8922  0.5645
10902SOL    HW243636   9.692   0.094   3.980  0.8009  0.2571 -0.0483
10903SOL     OW43637   8.546   2.205   3.399 -0.1705 -0.0781  0.3616
10903SOL    HW143638   8.486   2.137   3.357 -0.3437  1.0780 -1.2890
10903SOL    HW243639   8.492   2.284   3.428  0.4272  0.5520 -0.2509
10904SOL     OW43640   2.737   6.580   0.505  0.0732 -0.0022  0.0781
10904SOL    HW143641   2.666   6.554   0.440 -0.0079 -1.3657  0.7002
10904SOL    HW243642   2.701   6.648   0.570 -0.8612 -1.1746  0.7970
10905SOL     OW43643   0.897   8.342   4.449 -0.6666  0.5126 -0.0034
10905SOL    HW143644   0.969   8.317   4.513 -1.2937  0.8121  0.8347
10905SOL    HW243645   0.908   8.438   4.422 -0.3511  0.3619 -0.4099
10906SOL     OW43646   1.888   2.766   4.933  0.0479  0.7035 -0.3811
10906SOL    HW143647   1.908   2.814   5.018 -0.1015  0.0066  0.0508
10906SOL    HW243648   1.885   2.667   4.950  0.5034  0.5267 -1.2872
10907SOL     OW43649   7.344   7.828   2.198 -0.0415  0.0168 -0.7075
10907SOL    HW143650   7.341   7.765   2.121  0.3223  0.6839 -1.2808
10907SOL    HW243651   7.374   7.918   2.166 -0.1252  0.3651  0.1705
10908SOL     OW43652   7.795   9.223   4.965  0.1175  0.2419  0.7012
10908SOL    HW143653   7.873   9.171   4.932 -0.4963  0.0068 -0.3925
10908SOL    HW243654   7.727   9.232   4.892  0.2888  2.7269  0.8081
10909SOL     OW43655   2.522   5.184   1.371 -0.0060  0.1025  0.5191
10909SOL    HW143656   2.486   5.095   1.399 -0.0838 -0.0719 -0.1274
10909SOL    HW243657   2.607   5.203   1.421  0.7026 -0.9155 -0.2778
10910SOL     OW43658   4.180   1.678   5.511  0.3789 -0.5213 -0.6189
10910SOL    HW143659   4.196   1.692   5.413  0.6320 -2.8788 -0.9610
10910SOL    HW243660   4.087   1.706   5.534  0.3216  0.0668 -1.5441
10911SOL     OW43661   4.252   8.967   2.793 -0.2082  0.0901  0.1066
10911SOL    HW143662   4.238   8.965   2.694 -1.6895 -0.3688  0.3055
10911SOL    HW243663   4.232   9.058   2.828  0.5540  0.3164 -0.0532
10912SOL     OW43664   1.283   1.430   5.198 -0.3848 -0.4854  0.1103
10912SOL    HW143665   1.294   1.332   5.184  0.5889 -0.1387 -1.6424
10912SOL    HW243666   1.220   1.467   5.130  1.3221  0.5532 -0.9266
10913SOL     OW43667   0.555   3.438   2.226 -0.0008  0.2536  0.1849
10913SOL    HW143668   0.638   3.461   2.173  0.1728  0.4885  0.5574
10913SOL    HW243669   0.568   3.350   2.271  0.4321  0.7574  1.0472
10914SOL     OW43670   5.571   7.104   2.760 -0.1811  0.2350  0.1091
10914SOL    HW143671   5.539   7.036   2.826 -1.8354  0.7569 -0.1150
10914SOL    HW243672   5.494   7.133   2.703  0.2672  3.0091  0.8478
10915SOL     OW43673   3.046   1.201   1.487 -0.3174  0.5738 -0.0785
10915SOL    HW143674   3.017   1.286   1.443 -0.2657  0.2985 -0.6539
10915SOL    HW243675   3.063   1.218   1.584 -2.3001  0.7495  0.2578
10916SOL     OW43676   0.831   1.169   4.951 -0.2247  0.0025  0.2390
10916SOL    HW143677   0.737   1.136   4.947 -0.8107  1.5737  0.6714
10916SOL    HW243678   0.880   1.123   5.025 -0.7927 -0.4615  0.3269
10917SOL     OW43679   0.259   2.337   1.953 -0.1208 -0.0816  0.4902
10917SOL    HW143680   0.331   2.394   1.915 -0.3480 -0.3595 -0.3536
10917SOL    HW243681   0.173   2.354   1.905 -0.5337 -0.0308  1.2378
10918SOL     OW43682   2.397   5.830   4.115  0.3174 -0.1544  0.1128
10918SOL    HW143683   2.350   5.879   4.041  0.3613 -0.6102 -0.2147
10918SOL    HW243684   2.430   5.896   4.182  0.3188  0.2636 -0.2953
10919SOL     OW43685   1.597   2.109   1.290 -0.1945 -0.3144  0.3439
10919SOL    HW143686   1.677   2.161   1.319 -1.4156  1.7251  0.1272
10919SOL    HW243687   1.528   2.111   1.362 -0.9497 -0.1227 -0.3780
10920SOL     OW43688   2.640   3.935   4.842  0.3165  0.2086 -0.3072
10920SOL    HW143689   2.736   3.925   4.818  0.0374 -1.7172 -0.6716
10920SOL    HW243690   2.622   3.885   4.927 -0.3229  0.7566 -0.1172
10921SOL     OW43691   3.464   0.893   3.680 -0.0668  0.4629 -0.2368
10921SOL    HW143692   3.476   0.834   3.600  0.9105  1.8302 -1.1162
10921SOL    HW243693   3.486   0.843   3.763 -0.8239 -0.8898 -0.8426
10922SOL     OW43694   4.907   9.987   4.625 -0.3886  0.4681  0.3333
10922SOL    HW143695   4.898   9.997   4.724  1.0505  0.6235  0.4664
10922SOL    HW243696   4.979   9.920   4.606 -0.4279  0.6973 -0.6083
10923SOL     OW43697   9.080   8.548   1.453 -0.0916  0.1354  0.1172
10923SOL    HW143698   9.007   8.510   1.398  1.2986 -2.7088  0.1566
10923SOL    HW243699   9.053   8.547   1.550 -0.6998  0.7947 -0.0435
10924SOL     OW43700   3.965   2.518   4.544  0.2982 -0.4587 -0.2643
10924SOL    HW143701   3.875   2.498   4.507 -0.4664  1.5754  0.4148
10924SOL    HW243702   3.997   2.441   4.599 -1.1445 -1.0648 -0.2620
10925SOL     OW43703   2.621   1.304   0.468 -0.1494  1.2122 -0.0253
10925SOL    HW143704   2.592   1.376   0.405 -1.1717  0.8253 -0.0042
10925SOL    HW243705   2.715   1.277   0.447 -0.5989  0.8263 -1.6309
10926SOL     OW43706   2.931   9.056   1.244  0.0715 -0.0024  0.6308
10926SOL    HW143707   3.002   9.125   1.234 -0.5583  0.4882 -0.5234
10926SOL    HW243708   2.864   9.086   1.313 -0.2002  0.5403  0.1340
10927SOL     OW43709   1.093   1.203   2.561 -0.2762  0.1728 -0.2993
10927SOL    HW143710   1.098   1.111   2.524  1.5755 -0.8916  2.4169
10927SOL    HW243711   1.160   1.261   2.514  0.5423 -0.5955 -0.0938
10928SOL     OW43712   8.072   1.979   3.896 -0.1269 -0.3043  0.0101
10928SOL    HW143713   8.051   2.063   3.946 -2.5133 -0.3686 -0.8341
10928SOL    HW243714   8.001   1.962   3.828  0.4885 -2.8727 -0.0365
10929SOL     OW43715   3.974   0.194   0.554 -1.1938  0.0060 -0.0196
10929SOL    HW143716   3.933   0.258   0.620 -0.6610  0.8680 -0.5112
10929SOL    HW243717   4.026   0.124   0.602 -1.1970  0.3617  0.5008
10930SOL     OW43718   6.267   0.499   1.464  0.2896  0.3626  0.4253
10930SOL    HW143719   6.265   0.497   1.364  1.7250 -1.5090  0.4354
10930SOL    HW243720   6.193   0.441   1.500 -0.2410  1.0533  0.4751
10931SOL     OW43721   7.613   6.991   3.511 -0.0677  0.1316 -0.6251
10931SOL    HW143722   7.660   7.015   3.595 -0.6403  1.8130 -0.7793
10931SOL    HW243723   7.666   7.022   3.432  0.3100 -1.1539 -0.9037
10932SOL     OW43724   6.855   8.543   4.235  0.2984 -0.2005 -0.5885
10932SOL    HW143725   6.797   8.464   4.258 -1.3943  0.3632 -2.7542
10932SOL    HW243726   6.824   8.623   4.287  1.3847 -0.7007  0.8623
10933SOL     OW43727   0.944   4.075   2.483 -0.3786  0.2302 -0.1348
10933SOL    HW143728   0.929   4.041   2.577  1.7825 -0.6135 -0.0766
10933SOL    HW243729   0.899   4.014   2.419  1.2463 -1.3002  0.1460
10934SOL     OW43730   0.230   4.161   0.316  0.0033 -0.0357  0.6353
10934SOL    HW143731   0.245   4.209   0.229  0.8280 -0.7918  0.3557
10934SOL    HW243732   0.274   4.212   0.390 -0.0271  0.1932  0.4990
10935SOL     OW43733   9.352   0.660   4.491 -0.5619 -0.2091  0.2810
10935SOL    HW143734   9.404   0.664   4.576  0.0699  0.3629 -0.1294
10935SOL    HW243735   9.267   0.609   4.507  0.4576 -1.7636  0.7518
10936SOL     OW43736   8.985   7.273   4.638 -0.0083 -0.6340 -1.0135
10936SOL    HW143737   9.024   7.277   4.730 -0.7637 -1.6940 -0.6428
10936SOL    HW243738   8.932   7.189   4.627 -0.5403 -0.1640 -2.1771
10937SOL     OW43739   9.640   4.917   0.216  0.4620 -0.2310 -0.0502
10937SOL    HW143740   9.602   4.996   0.169  1.9345  0.4421 -0.1596
10937SOL    HW243741   9.607   4.915   0.311  1.1873  1.0870  0.2452
10938SOL     OW43742   1.197   1.016   3.769 -0.7147  1.4813  0.1802
10938SOL    HW143743   1.194   0.966   3.683  1.3610  1.4152  0.1129
10938SOL    HW243744   1.139   1.098   3.763 -1.9900  0.5327 -0.6319
10939SOL     OW43745   9.789   6.977   3.508  0.7726 -0.0295 -0.4908
10939SOL    HW143746   9.775   6.883   3.539  1.1970 -0.4783 -1.6409
10939SOL    HW243747   9.707   7.031   3.529 -0.0276 -0.9895 -1.0780
10940SOL     OW43748   9.044   1.071   4.082 -0.2943 -0.2207 -0.1584
10940SOL    HW143749   9.095   1.088   3.998  1.2494 -1.0785  0.5755
10940SOL    HW243750   8.956   1.118   4.078  0.4474  1.0975 -1.5597
10941SOL     OW43751   7.752   0.586   2.108 -0.0220  0.4979  0.6351
10941SOL    HW143752   7.776   0.524   2.033 -1.6465 -0.3754  0.8111
10941SOL    HW243753   7.772   0.680   2.081 -0.6988  0.2062 -0.9584
10942SOL     OW43754   1.553   0.878   4.909 -0.2241 -0.4975  0.5215
10942SOL    HW143755   1.547   0.821   4.827 -0.5960 -0.6754  0.6677
10942SOL    HW243756   1.525   0.824   4.988 -1.4522  0.1456  0.5388
10943SOL     OW43757   0.547   7.463   1.798 -0.5358 -0.1673 -0.9033
10943SOL    HW143758   0.615   7.496   1.733 -0.7855 -0.0731 -1.1177
10943SOL    HW243759   0.455   7.486   1.765 -0.5770  2.3445  0.8162
10944SOL     OW43760   1.079   6.978   2.456 -0.4294  0.2858 -0.0530
10944SOL    HW143761   1.122   6.888   2.464 -1.1232 -0.1534 -1.0767
10944SOL    HW243762   0.990   6.977   2.502 -0.3945  0.4660  0.0167
10945SOL     OW43763   2.909   6.558   4.088 -0.4202 -0.0343  0.2854
10945SOL    HW143764   2.997   6.511   4.083 -0.4097  0.0799 -0.6785
10945SOL    HW243765   2.838   6.503   4.045 -0.4347  0.7568 -0.7255
10946SOL     OW43766   6.876   0.522   0.362 -0.2837 -0.3665 -0.4148
10946SOL    HW143767   6.936   0.590   0.320 -3.4982  1.9420 -1.4899
10946SOL    HW243768   6.887   0.434   0.316  1.4691  0.2843 -1.2880
10947SOL     OW43769   2.239   8.669   0.162 -0.6924 -0.3863  0.5466
10947SOL    HW143770   2.264   8.765   0.147  1.0795 -1.0983 -1.4592
10947SOL    HW243771   2.238   8.649   0.259 -0.2027  1.4386  0.9448
10948SOL     OW43772   8.725   4.890   2.671 -0.4784 -0.3791  0.2959
10948SOL    HW143773   8.673   4.949   2.733 -1.2739 -0.0745 -0.6388
10948SOL    HW243774   8.763   4.946   2.597 -1.4370 -1.0565 -0.7295
10949SOL     OW43775   9.471   1.655   3.995 -0.0640 -0.3755  0.0935
10949SOL    HW143776   9.407   1.600   3.942  1.3222 -1.5416 -0.3958
10949SOL    HW243777   9.478   1.619   4.088 -0.9282  0.4194  0.4795
10950SOL     OW43778   8.567   1.566   0.377 -0.3500 -0.2703  0.1570
10950SOL    HW143779   8.482   1.617   0.386  0.1244  0.4181  0.8260
10950SOL    HW243780   8.571   1.523   0.287 -0.6042  1.1715 -0.5538
10951SOL     OW43781   1.988   6.454   4.271 -0.0309  0.2197  0.3227
10951SOL    HW143782   1.988   6.363   4.229  1.0395 -0.6323  2.1037
10951SOL    HW243783   1.956   6.447   4.366  2.7539  1.2347  1.3775
10952SOL     OW43784   5.672   7.228   3.762 -0.6363 -0.3087 -0.0472
10952SOL    HW143785   5.605   7.196   3.695 -0.5399 -2.1547  0.6959
10952SOL    HW243786   5.627   7.237   3.852 -0.6133  1.5185 -0.2005
10953SOL     OW43787   2.188   2.353   2.738 -0.5164 -0.0302  0.1399
10953SOL    HW143788   2.260   2.416   2.709  1.9386 -1.4569  2.8697
10953SOL    HW243789   2.180   2.355   2.838 -2.1349 -2.1625  0.0933
10954SOL     OW43790   4.004   8.459   5.533  0.5544  0.4130 -0.0216
10954SOL    HW143791   4.095   8.447   5.572 -0.1729  1.1427  1.9581
10954SOL    HW243792   3.959   8.370   5.524  0.6493  0.2559  1.0254
10955SOL     OW43793   2.841   6.041   1.576 -0.0556  0.2115  0.2063
10955SOL    HW143794   2.790   6.017   1.493  1.4250  1.9188 -1.2558
10955SOL    HW243795   2.778   6.054   1.652 -1.6593  0.7420 -1.1806
10956SOL     OW43796   9.866   9.688   1.696  0.5813  0.3476 -0.3451
10956SOL    HW143797   9.770   9.695   1.670  0.6328 -0.0015 -0.6258
10956SOL    HW243798   9.923   9.692   1.614  0.7743 -0.0731 -0.2347
10957SOL     OW43799   8.817   7.701   2.403 -0.4562  0.0795 -0.2830
10957SOL    HW143800   8.772   7.618   2.369  0.4615  0.1198 -1.6626
10957SOL    HW243801   8.751   7.758   2.452 -1.5482 -0.5663 -0.9879
10958SOL     OW43802   9.880   8.986   4.678  0.3895  0.4922  0.0577
10958SOL    HW143803   9.955   8.937   4.635 -0.3806 -0.8095  0.1908
10958SOL    HW243804   9.917   9.052   4.744  1.3875 -0.4611  0.4626
10959SOL     OW43805   0.059   1.004   2.212 -0.5057  0.4080  0.2786
10959SOL    HW143806   0.026   0.911   2.227  1.6397 -0.0768  2.3175
10959SOL    HW243807   0.034   1.062   2.289 -1.8899  1.5716 -1.0103
10960SOL     OW43808   3.380   4.954   1.753  0.4418 -0.4849  0.0661
10960SOL    HW143809   3.367   5.045   1.713 -0.4766 -0.8816 -0.5636
10960SOL    HW243810   3.396   4.963   1.851  2.0050  0.4579 -0.2456
10961SOL     OW43811   0.462   8.939   1.200 -0.0152  0.4846 -0.2519
10961SOL    HW143812   0.533   8.882   1.160 -1.6284 -1.0776 -0.9479
10961SOL    HW243813   0.444   9.017   1.141  0.5750  0.4571 -0.4651
10962SOL     OW43814   2.866   6.716   4.738 -0.8724 -0.1141  0.6328
10962SOL    HW143815   2.790   6.673   4.689 -1.3904  2.8476 -1.2842
10962SOL    HW243816   2.832   6.792   4.794  0.5056  0.5120  0.6652
10963SOL     OW43817   3.419   6.573   1.343 -0.1123 -0.4589 -0.2816
10963SOL    HW143818   3.485   6.559   1.269  2.0454  1.2354  1.2827
10963SOL    HW243819   3.406   6.671   1.358 -0.6824 -0.7847  1.4457
10964SOL     OW43820   7.603   3.942   5.573  0.2303 -0.0258 -0.5826
10964SOL    HW143821   7.511   3.953   5.536 -0.1721 -0.1434  0.3782
10964SOL    HW243822   7.626   4.021   5.629  0.8945  0.2161 -1.1841
10965SOL     OW43823   3.783   4.458   1.199  0.5935  0.0940  0.1138
10965SOL    HW143824   3.756   4.441   1.104  0.4048  0.8047  0.0356
10965SOL    HW243825   3.871   4.415   1.218  0.6925  0.0639 -0.4211
10966SOL     OW43826   2.334   0.278   0.556 -0.1193  0.0378 -0.2821
10966SOL    HW143827   2.329   0.377   0.569 -0.7205 -0.0341  0.0358
10966SOL    HW243828   2.283   0.252   0.474 -1.2940 -0.1852  0.5088
10967SOL     OW43829   1.901   9.155   1.926 -0.3262 -0.5020 -0.5213
10967SOL    HW143830   1.865   9.063   1.940 -1.9967  0.3832  1.3029
10967SOL    HW243831   1.964   9.178   2.000  1.3603 -0.7671 -1.8528
10968SOL     OW43832   0.913   4.312   0.351  0.0856 -0.0517  0.2565
10968SOL    HW143833   0.826   4.263   0.356 -0.5423  0.8308 -1.6934
10968SOL    HW243834   0.910   4.391   0.413 -1.1572  0.9487 -1.0534
10969SOL     OW43835   4.465   9.607   2.304  0.6384 -0.3260 -0.1175
10969SOL    HW143836   4.558   9.588   2.272  1.0732  0.9256  0.3787
10969SOL    HW243837   4.459   9.702   2.335 -0.5329 -0.7155  0.8736
10970SOL     OW43838   7.155   9.968   1.453 -0.6685  0.2071  0.1802
10970SOL    HW143839   7.205   9.881   1.454 -0.3079  0.4041  1.4617
10970SOL    HW243840   7.152  10.005   1.546 -1.7775  1.0247 -0.1702
10971SOL     OW43841   3.893   8.739   1.801  0.7551 -0.0882  0.0442
10971SOL    HW143842   3.901   8.650   1.756 -1.1036  0.3870 -1.2955
10971SOL    HW243843   3.799   8.753   1.831  0.7673  1.8364 -0.6868
10972SOL     OW43844   1.884   8.208   3.727  0.2167  0.5162  0.8510
10972SOL    HW143845   1.829   8.124   3.727  1.2201 -0.1967 -1.7585
10972SOL    HW243846   1.827   8.286   3.752 -0.6101 -0.9881  3.8281
10973SOL     OW43847   9.549   8.631   4.910 -0.2160 -0.0220 -0.4618
10973SOL    HW143848   9.621   8.671   4.853 -0.1729 -0.9202 -1.0609
10973SOL    HW243849   9.487   8.577   4.852 -0.7562 -0.1268  0.2002
10974SOL     OW43850   4.026   9.072   5.068 -0.4432 -0.0067  0.5218
10974SOL    HW143851   4.118   9.034   5.074  0.3229  1.3474 -1.9945
10974SOL    HW243852   3.963   9.002   5.035  0.2997 -0.0865 -0.7654
10975SOL     OW43853   2.716   4.224   3.204  0.2074  0.4786 -0.2659
10975SOL    HW143854   2.812   4.253   3.205  0.1646  0.6031  0.2077
10975SOL    HW243855   2.709   4.134   3.161  0.7274 -0.1813  0.9958
10976SOL     OW43856   0.897   1.879   5.023 -0.0033  0.1162  0.2143
10976SOL    HW143857   0.983   1.847   4.985 -0.2089 -0.4810  0.2408
10976SOL    HW243858   0.844   1.925   4.952 -0.3973 -1.0170 -0.2485
10977SOL     OW43859   2.329   2.559   1.138 -0.4196  0.7566  0.1171
10977SOL    HW143860   2.406   2.504   1.107 -0.2677  1.7084 -1.2470
10977SOL    HW243861   2.252   2.499   1.161  0.3154 -0.1159  0.3330
10978SOL     OW43862   2.384   5.896   5.458 -0.3394  0.1692 -0.2989
10978SOL    HW143863   2.338   5.977   5.495  1.3285  1.0982 -0.1993
10978SOL    HW243864   2.428   5.920   5.372  0.8577 -0.4089  0.1409
10979SOL     OW43865   1.628   1.820   5.593  0.2395  0.5423 -0.1090
10979SOL    HW143866   1.693   1.882   5.638  1.5230 -0.6888 -0.2307
10979SOL    HW243867   1.673   1.774   5.516 -0.3038 -1.4593  0.7220
10980SOL     OW43868   0.951   2.104   2.348  0.2353  0.3016 -0.2037
10980SOL    HW143869   0.914   2.044   2.419  0.2585  0.4269 -0.0845
10980SOL    HW243870   0.918   2.075   2.259  0.8994 -0.3918 -0.2334
10981SOL     OW43871   3.706   6.365   2.877  0.2964  0.1408  1.0694
10981SOL    HW143872   3.695   6.462   2.854  1.8171  0.1786  0.4751
10981SOL    HW243873   3.618   6.329   2.910 -0.8526  1.1862 -0.7209
10982SOL     OW43874   2.425   7.381   1.024  0.0081  0.4730  0.1781
10982SOL    HW143875   2.489   7.371   1.100 -1.4674 -2.1701  1.1691
10982SOL    HW243876   2.331   7.383   1.060 -0.7864 -2.2628 -1.5902
10983SOL     OW43877   2.623   4.911   1.781  0.0395  0.3887 -0.3124
10983SOL    HW143878   2.549   4.857   1.741  1.8080 -1.3041 -1.3939
10983SOL    HW243879   2.617   4.908   1.881 -1.1395 -0.0108 -0.3930
10984SOL     OW43880   6.382   8.441   2.930 -0.1184 -0.8624  0.5996
10984SOL    HW143881   6.448   8.483   2.992 -1.1879  0.6091  0.7806
10984SOL    HW243882   6.430   8.378   2.868  1.8495  1.9923 -0.8888
10985SOL     OW43883   9.819   8.715   1.770  0.6431 -0.0397 -0.5588
10985SOL    HW143884   9.792   8.685   1.861 -0.9482 -1.0986 -1.3674
10985SOL    HW243885   9.909   8.677   1.748  0.7732 -0.2565  0.3178
10986SOL     OW43886   0.324   6.087   3.352 -0.0293  0.5820 -0.1112
10986SOL    HW143887   0.330   6.011   3.417  0.8344  1.3115  0.6834
10986SOL    HW243888   0.296   6.170   3.401 -0.9615  0.7741 -0.9727
10987SOL     OW43889   3.822   2.943   4.854  0.2293  0.1930  0.1358
10987SOL    HW143890   3.853   3.024   4.803  2.6222 -1.1365 -0.5870
10987SOL    HW243891   3.725   2.928   4.837  0.2985  1.5595 -1.5675
10988SOL     OW43892   9.147   6.998   4.941 -0.5257  0.0692 -0.7257
10988SOL    HW143893   9.210   7.070   4.969 -1.0286  0.0853  0.4169
10988SOL    HW243894   9.053   7.031   4.950 -0.7826 -0.9408  0.4736
10989SOL     OW43895   3.416   6.748   0.908 -0.4598  0.0067 -0.1152
10989SOL    HW143896   3.322   6.719   0.928 -0.4542 -0.9661 -1.4393
10989SOL    HW243897   3.442   6.717   0.817  1.7951 -1.4186  0.9556
10990SOL     OW43898   6.876   1.880   3.077  0.0856 -0.4186 -0.6042
10990SOL    HW143899   6.964   1.840   3.053  0.3135 -0.0726 -0.3509
10990SOL    HW243900   6.883   1.980   3.076 -0.2356 -0.3919 -0.3302
10991SOL     OW43901   1.021   1.825   5.587  0.1146 -0.1255  0.2486
10991SOL    HW143902   1.094   1.792   5.646 -0.2510 -1.1434  0.1297
10991SOL    HW243903   1.050   1.821   5.492  0.6085  1.2749  0.3269
10992SOL     OW43904   3.982   9.501   2.306  0.1879  0.1144  0.2292
10992SOL    HW143905   3.930   9.490   2.221 -0.2003  2.2511  0.1622
10992SOL    HW243906   3.961   9.426   2.368 -0.7633 -0.6022 -0.9442
10993SOL     OW43907   1.148   4.586   3.961  0.2413  0.1888 -0.0526
10993SOL    HW143908   1.165   4.550   4.053  0.4917 -1.6667 -0.7894
10993SOL    HW243909   1.196   4.673   3.949 -0.7924  1.0596  1.9702
10994SOL     OW43910   1.968   8.165   3.074 -0.3598 -0.1397  0.1419
10994SOL    HW143911   2.028   8.228   3.123 -1.2587  1.7021 -1.0408
10994SOL    HW243912   2.017   8.081   3.053  1.3516  0.7632  0.4238
10995SOL     OW43913   6.117   9.804   1.543 -0.5592 -0.4505  0.4377
10995SOL    HW143914   6.075   9.746   1.474  0.0425 -1.4398  0.8902
10995SOL    HW243915   6.160   9.747   1.614  0.8498  0.5235  0.4081
10996SOL     OW43916   0.466   0.769   2.826  0.0242  0.7042  0.7773
10996SOL    HW143917   0.465   0.779   2.926  0.1047 -0.7179  0.9350
10996SOL    HW243918   0.560   0.758   2.794  0.0375  1.5958  0.4830
10997SOL     OW43919   1.409   1.597   3.362 -0.1504  0.1373 -0.0509
10997SOL    HW143920   1.443   1.506   3.338 -0.2144  0.4834 -1.5134
10997SOL    HW243921   1.315   1.607   3.331 -0.5331  0.2967  1.1461
10998SOL     OW43922   6.910   1.096   0.330 -0.7947 -0.1514  0.1699
10998SOL    HW143923   6.825   1.044   0.337 -1.5722  1.1601  0.6788
10998SOL    HW243924   6.957   1.072   0.245 -1.5285 -1.0940  0.0293
10999SOL     OW43925   7.458   9.830   5.048  0.3707 -0.0889  0.3836
10999SOL    HW143926   7.467   9.809   4.951  2.1670  1.1988  0.2361
10999SOL    HW243927   7.469   9.929   5.061 -2.4595  0.1090  1.6152
11000SOL     OW43928   1.744   8.463   2.858 -0.1118 -0.1331  0.1043
11000SOL    HW143929   1.711   8.386   2.804 -1.0059 -0.8026  1.5828
11000SOL    HW243930   1.837   8.445   2.890 -0.5624 -0.8898  0.9985
11001SOL     OW43931   3.286   5.117   5.021  0.1225 -0.3598 -0.2084
11001SOL    HW143932   3.351   5.153   5.088  0.1188 -0.5608 -0.0953
11001SOL    HW243933   3.335   5.079   4.943  0.1089  0.3676 -0.5687
11002SOL     OW43934   7.889   9.442   3.998  0.4944  0.4360 -1.1589
11002SOL    HW143935   7.860   9.348   4.014  2.9446 -0.4280 -1.5051
11002SOL    HW243936   7.908   9.455   3.900  0.6211  1.1518 -1.0401
11003SOL     OW43937   1.348   5.011   0.567 -0.1715 -1.0219  0.8303
11003SOL    HW143938   1.294   4.962   0.635 -0.3157  1.5680  2.6748
11003SOL    HW243939   1.430   5.048   0.610  1.9544 -2.9195 -1.4064
11004SOL     OW43940   4.137   0.557   2.666  0.0368 -0.2871  0.6098
11004SOL    HW143941   4.142   0.514   2.757 -0.2328 -1.7081 -0.0349
11004SOL    HW243942   4.041   0.570   2.641  0.0575 -2.1385 -0.4963
11005SOL     OW43943   8.055   2.229   0.301 -0.2129 -0.1845 -0.3590
11005SOL    HW143944   8.064   2.177   0.386  1.1555  0.6799  0.0417
11005SOL    HW243945   8.144   2.268   0.276 -0.4526 -0.9699 -2.5367
11006SOL     OW43946   1.853   2.769   3.392  0.3114 -0.3452 -0.2199
11006SOL    HW143947   1.887   2.847   3.445  0.1591 -0.5726  0.2148
11006SOL    HW243948   1.756   2.781   3.373 -0.4239 -1.7668  2.3082
11007SOL     OW43949   2.067   0.143   3.094 -0.0768  0.4623  0.5438
11007SOL    HW143950   2.082   0.230   3.143  0.0793 -0.0271  1.3737
11007SOL    HW243951   2.141   0.130   3.027 -0.7696  1.5604 -0.4600
11008SOL     OW43952   3.559   9.110   3.643 -0.6671  0.0946 -0.3085
11008SOL    HW143953   3.492   9.115   3.569 -1.2181  2.0294  0.2871
11008SOL    HW243954   3.645   9.074   3.608 -1.9761 -2.3614 -1.0909
11009SOL     OW43955   9.786   4.334   2.898  0.0229  0.6903  0.4362
11009SOL    HW143956   9.866   4.303   2.948 -0.3963 -0.4012  0.4528
11009SOL    HW243957   9.804   4.422   2.856  1.3262  0.3105  0.2026
11010SOL     OW43958   9.464   3.109   0.205 -0.4684 -0.2873 -0.2001
11010SOL    HW143959   9.552   3.156   0.194 -0.8083  0.6258  0.9582
11010SOL    HW243960   9.414   3.148   0.282 -1.8550 -0.8768 -0.7825
11011SOL     OW43961   8.376   8.036   1.845 -0.4476  0.0968  0.0988
11011SOL    HW143962   8.448   8.080   1.791 -0.5158  0.0569 -0.0238
11011SOL    HW243963   8.332   8.104   1.903 -1.3379  0.4251 -0.9456
11012SOL     OW43964   8.316   0.795   0.891  0.1973  0.2270 -0.4084
11012SOL    HW143965   8.349   0.813   0.798 -0.3466  0.9087 -0.4705
11012SOL    HW243966   8.297   0.882   0.936 -1.4012 -0.1614 -0.3284
11013SOL     OW43967   3.276   5.945   2.643  0.1113 -0.1754 -0.5502
11013SOL    HW143968   3.247   6.041   2.651  1.5100  0.1284  1.2937
11013SOL    HW243969   3.340   5.936   2.567  0.0980  0.3774 -0.6294
11014SOL     OW43970   7.698   1.241   3.283  0.0454 -0.1151  0.2093
11014SOL    HW143971   7.702   1.268   3.187  1.8397 -0.0305  0.2868
11014SOL    HW243972   7.702   1.323   3.341  3.0394 -0.3699  0.4045
11015SOL     OW43973   7.433   9.741   4.776  0.5989  0.0162  0.3014
11015SOL    HW143974   7.339   9.775   4.776  0.8212  0.6391 -0.7506
11015SOL    HW243975   7.470   9.743   4.683  1.9909  0.7195  0.8426
11016SOL     OW43976   0.512   4.265   4.428  0.8402 -0.0901  0.2864
11016SOL    HW143977   0.572   4.192   4.394  0.3880 -0.7550  0.9102
11016SOL    HW243978   0.443   4.285   4.358  0.5195 -0.7694  0.3985
11017SOL     OW43979   4.557   1.551   1.953  0.3064  0.5890  0.1943
11017SOL    HW143980   4.525   1.566   1.859  2.3776 -0.1863 -0.6813
11017SOL    HW243981   4.506   1.475   1.994 -1.2950  1.5742  0.0718
11018SOL     OW43982   5.818   7.497   2.236  0.2159  0.6714 -0.5116
11018SOL    HW143983   5.843   7.541   2.150  1.8392  0.4555 -0.1712
11018SOL    HW243984   5.872   7.537   2.310 -1.3104  0.9977  0.4496
11019SOL     OW43985   7.151   8.245   4.139 -0.2398  0.0348  0.1902
11019SOL    HW143986   7.104   8.300   4.069  0.2562 -0.3592 -0.4512
11019SOL    HW243987   7.103   8.158   4.151 -0.4075  0.1593  0.4502
11020SOL     OW43988   9.864   8.331   3.026  1.1208 -0.2226 -0.6567
11020SOL    HW143989   9.846   8.408   2.966 -0.0946 -0.4226 -0.5547
11020SOL    HW243990   9.902   8.255   2.972 -1.4573 -0.9652 -1.4672
11021SOL     OW43991   8.950   6.982   4.525  0.1424 -0.1568 -0.2157
11021SOL    HW143992   9.035   6.961   4.573 -0.3395 -0.3649  0.5503
11021SOL    HW243993   8.960   6.959   4.428  1.6655  1.7925 -0.5488
11022SOL     OW43994   5.923   8.431   2.548 -0.5278  0.1570  0.7272
11022SOL    HW143995   5.965   8.516   2.582 -0.5240  0.3369  0.2771
11022SOL    HW243996   5.848   8.454   2.486  1.1516 -0.1762 -1.4856
11023SOL     OW43997   2.116   6.178   3.995 -0.5429 -0.2945 -0.0716
11023SOL    HW143998   2.157   6.269   3.999 -0.8160 -0.0797 -1.6186
11023SOL    HW243999   2.016   6.187   3.998 -0.5715 -0.5366 -0.2560
11024SOL     OW44000   0.791   4.934   5.380  0.2373  0.0440 -0.2413
11024SOL    HW144001   0.727   4.892   5.315 -0.1172 -1.2787  0.9376
11024SOL    HW244002   0.761   5.027   5.400 -2.7303 -1.3256  2.1022
11025SOL     OW44003   9.681   8.888   1.194  0.0433  0.0989  0.0697
11025SOL    HW144004   9.714   8.961   1.134  0.6713 -0.1622  0.0951
11025SOL    HW244005   9.619   8.926   1.263 -1.3633  0.2866 -1.2584
11026SOL     OW44006   7.812   1.942   3.728  0.7122 -0.0228  0.3520
11026SOL    HW144007   7.861   2.003   3.665  0.2895 -0.8771 -0.8263
11026SOL    HW244008   7.746   1.996   3.781  0.0006  0.4799 -1.0249
11027SOL     OW44009   4.574   0.375   3.593  0.0933  0.1114 -0.6754
11027SOL    HW144010   4.626   0.395   3.676 -0.6799 -0.2988 -0.0880
11027SOL    HW244011   4.584   0.278   3.570 -0.5998 -0.0279 -0.4164
11028SOL     OW44012   3.488   4.594   0.991  0.9398 -0.0209 -0.9178
11028SOL    HW144013   3.507   4.690   0.967  0.4673 -0.1774 -1.9633
11028SOL    HW244014   3.568   4.538   0.971  0.5609 -0.1435 -2.1262
11029SOL     OW44015   9.223   0.205   0.455 -0.5730 -0.0907 -0.0752
11029SOL    HW144016   9.150   0.139   0.471 -0.8980  0.3239  0.1273
11029SOL    HW244017   9.216   0.280   0.520 -0.0346  0.0061 -0.1283
11030SOL     OW44018   9.266   6.586   1.879  0.2458 -0.6570  0.2162
11030SOL    HW144019   9.255   6.641   1.962  1.5864  0.5103 -0.3499
11030SOL    HW244020   9.360   6.551   1.875  0.3559 -0.2410 -1.0712
11031SOL     OW44021   8.211   9.854   1.571 -0.0551 -0.0465 -0.1546
11031SOL    HW144022   8.282   9.858   1.640  0.5286 -0.1375 -0.7438
11031SOL    HW244023   8.122   9.870   1.613  0.1999 -1.0432  0.7609
11032SOL     OW44024   9.389   4.511   3.809 -0.5559  0.6005 -0.0650
11032SOL    HW144025   9.299   4.551   3.789 -0.3434  1.0547 -0.1097
11032SOL    HW244026   9.422   4.547   3.896 -0.1042  0.9657 -0.3862
11033SOL     OW44027   0.359   4.817   2.670 -0.1022 -0.1851 -0.1609
11033SOL    HW144028   0.335   4.746   2.737  2.3242  0.1624  1.1204
11033SOL    HW244029   0.282   4.881   2.662 -0.9900 -1.0268  1.2297
11034SOL     OW44030   5.350   9.105   1.852 -0.3065  0.5641 -0.2484
11034SOL    HW144031   5.356   9.148   1.762 -0.3038  1.2887  0.0956
11034SOL    HW244032   5.404   9.020   1.852 -0.0335  0.7359 -0.8274
11035SOL     OW44033   1.262   0.225   4.873 -0.0191  0.0138  0.1819
11035SOL    HW144034   1.350   0.177   4.869  0.2936  0.7356 -2.4194
11035SOL    HW244035   1.188   0.159   4.870  0.4298 -0.4444 -1.0592
11036SOL     OW44036   9.070   4.888   1.641 -0.5892  0.0237 -0.5423
11036SOL    HW144037   9.150   4.830   1.624 -1.2814 -0.9548 -0.4794
11036SOL    HW244038   9.089   4.949   1.718 -0.4416 -1.2383  0.4293
11037SOL     OW44039   2.979   8.957   2.590  0.0343  0.7439  0.4901
11037SOL    HW144040   2.964   8.976   2.687 -0.6649  0.2895  0.4744
11037SOL    HW244041   3.064   8.905   2.580 -0.1810  0.2997  0.9163
11038SOL     OW44042   8.275   2.187   3.034  0.2396  0.3052 -0.3232
11038SOL    HW144043   8.373   2.198   3.022  0.1677  1.1884 -0.1179
11038SOL    HW244044   8.238   2.264   3.087 -0.7045  0.4549 -1.1763
11039SOL     OW44045   5.880   0.348   3.765 -0.1169 -0.5040  0.4915
11039SOL    HW144046   5.809   0.406   3.803  0.7560 -0.3781  1.9354
11039SOL    HW244047   5.955   0.404   3.730  0.8583 -0.7457  2.1471
11040SOL     OW44048   0.950   6.403   1.588 -0.2603  0.0999 -0.1162
11040SOL    HW144049   0.962   6.327   1.653  0.2864  1.5370  1.5041
11040SOL    HW244050   0.885   6.376   1.517 -0.1335 -1.8542  0.4744
11041SOL     OW44051   2.717   4.284   0.132 -0.6642 -0.3768 -0.0862
11041SOL    HW144052   2.733   4.327   0.221 -1.7109  0.3469 -0.2431
11041SOL    HW244053   2.679   4.193   0.145  2.7914 -1.8526  0.2827
11042SOL     OW44054   0.161   0.450   4.342 -0.3737  0.0354 -0.5290
11042SOL    HW144055   0.258   0.476   4.336  0.1737 -1.7107  0.2425
11042SOL    HW244056   0.111   0.521   4.392  0.6420  0.6505 -0.3616
11043SOL     OW44057   8.060   9.983   4.143  0.3240 -0.1730  0.0291
11043SOL    HW144058   8.098   9.899   4.180 -0.6177 -0.6520 -0.0987
11043SOL    HW244059   8.130  10.030   4.089  0.9875 -0.6271  0.4894
11044SOL     OW44060   8.991   8.927   3.257 -0.0552 -0.8383  0.1970
11044SOL    HW144061   8.966   8.975   3.341  0.3609 -0.6289  0.1996
11044SOL    HW244062   8.953   8.834   3.260 -0.5405 -0.6362  0.3544
11045SOL     OW44063   3.499   9.011   2.177  0.3769  0.3239  0.1040
11045SOL    HW144064   3.581   8.996   2.122  0.0650  0.1961 -0.3269
11045SOL    HW244065   3.490   8.939   2.246  0.8012  0.5215  0.3664
11046SOL     OW44066   1.647   4.127   2.481  0.0519  0.6319  0.1477
11046SOL    HW144067   1.742   4.146   2.456  0.4941 -1.1336  0.4148
11046SOL    HW244068   1.619   4.039   2.443 -0.9985  0.4419  1.3126
11047SOL     OW44069   4.489   1.893   0.320  0.6458  0.0092 -0.0989
11047SOL    HW144070   4.419   1.879   0.391  0.6062 -0.4864 -0.2330
11047SOL    HW244071   4.580   1.890   0.362  0.5323  2.3375  0.3413
11048SOL     OW44072   7.409   0.563   5.166  0.3340 -0.3832  0.0654
11048SOL    HW144073   7.339   0.495   5.188  1.6687 -1.3745  1.3599
11048SOL    HW244074   7.406   0.637   5.233  0.8854 -0.7181  0.4678
11049SOL     OW44075   9.161   9.383   5.447 -0.3849  0.1312 -0.2782
11049SOL    HW144076   9.141   9.289   5.418 -0.6883 -0.2463  1.1458
11049SOL    HW244077   9.206   9.432   5.371  1.1780 -1.6192 -0.5247
11050SOL     OW44078   3.044   7.206   0.102 -0.7320  0.1542  0.0638
11050SOL    HW144079   3.054   7.289   0.047  0.2815 -0.4320 -0.6604
11050SOL    HW244080   2.951   7.170   0.091 -1.1232  1.1028  0.2580
11051SOL     OW44081   3.773   3.789   2.875  0.0175 -0.4044 -0.0518
11051SOL    HW144082   3.861   3.778   2.830 -0.8101  1.9088 -2.3236
11051SOL    HW244083   3.717   3.708   2.858  1.3492 -1.5025  0.6658
11052SOL     OW44084   8.966   6.268   2.227 -0.1029 -0.4490  0.0156
11052SOL    HW144085   8.920   6.231   2.146 -0.7896  3.5470 -1.5497
11052SOL    HW244086   8.900   6.315   2.285  0.8642 -0.9224  1.5376
11053SOL     OW44087   4.596   3.525   2.051  0.2671  0.1244  0.5045
11053SOL    HW144088   4.605   3.443   2.106 -0.1549 -0.3879 -0.1912
11053SOL    HW244089   4.682   3.542   2.003  0.1245 -0.2974  0.1040
11054SOL     OW44090   1.327   7.920   3.071  0.1604 -0.5312  0.5687
11054SOL    HW144091   1.355   8.015   3.059 -3.0384  0.5479  1.1170
11054SOL    HW244092   1.293   7.883   2.985  0.7427 -0.9547  0.5167
11055SOL     OW44093   1.768   8.384   1.381  1.0023 -0.3844  0.5823
11055SOL    HW144094   1.809   8.321   1.314  1.6646 -1.8849  2.3443
11055SOL    HW244095   1.828   8.390   1.461  0.1807  1.3235  1.0812
11056SOL     OW44096   3.123   7.530   2.350  0.0869 -0.1581  0.1556
11056SOL    HW144097   3.139   7.542   2.252 -1.7834 -0.1908 -0.1746
11056SOL    HW244098   3.025   7.537   2.369  0.3236 -1.1350  1.8831
11057SOL     OW44099   2.478   9.270   3.679 -0.1802  0.0014 -0.2588
11057SOL    HW144100   2.478   9.284   3.580 -0.4590  0.5292 -0.1829
11057SOL    HW244101   2.451   9.176   3.699 -1.5415  0.3141 -0.6240
11058SOL     OW44102   7.634   5.211   5.214  0.1021 -0.3487  0.7497
11058SOL    HW144103   7.606   5.132   5.270 -0.3748 -0.1020  0.8601
11058SOL    HW244104   7.554   5.266   5.191  0.0440 -1.3323 -1.5609
11059SOL     OW44105   0.150   6.280   2.235  0.1257 -0.2463 -0.0299
11059SOL    HW144106   0.164   6.343   2.311  0.6452  1.0709 -1.1916
11059SOL    HW244107   0.082   6.211   2.261  3.2061 -2.3213  3.0840
11060SOL     OW44108   8.790   9.683   1.153 -0.0358  0.2017 -0.4670
11060SOL    HW144109   8.776   9.776   1.187  1.2749  0.7964 -1.4876
11060SOL    HW244110   8.714   9.659   1.091 -0.4068  0.5707 -0.1594
11061SOL     OW44111   9.126   5.684   3.138 -0.6100 -0.4206  0.0728
11061SOL    HW144112   9.115   5.713   3.043  0.2890 -0.2396  0.0198
11061SOL    HW244113   9.195   5.742   3.183 -0.3169 -1.1326  0.5504
11062SOL     OW44114   8.425   8.674   5.097 -0.1460 -0.0818 -0.0123
11062SOL    HW144115   8.458   8.652   5.188 -1.6170 -1.1061  0.2918
11062SOL    HW244116   8.371   8.758   5.100 -2.6277 -1.6417  0.6335
11063SOL     OW44117   9.223   9.361   0.082 -0.0980 -0.4683  0.0406
11063SOL    HW144118   9.188   9.390  -0.007 -0.4234 -1.2396 -0.0901
11063SOL    HW244119   9.255   9.440   0.133  1.5696 -0.1812 -1.3933
11064SOL     OW44120   8.764   8.964   3.678  1.0959  0.0856 -0.4430
11064SOL    HW144121   8.771   8.865   3.682 -1.6024 -0.1446  0.0465
11064SOL    HW244122   8.815   9.004   3.754 -0.6370 -1.1583  1.4516
11065SOL     OW44123   2.432   9.549   4.616 -0.0725  0.4908  0.0773
11065SOL    HW144124   2.360   9.570   4.682  0.7749 -1.3677  1.6692
11065SOL    HW244125   2.434   9.451   4.599  0.9183  0.7423 -1.3299
11066SOL     OW44126   7.805   9.440   5.567  0.0956 -0.5121  0.1480
11066SOL    HW144127   7.785   9.455   5.470 -0.0059 -2.5230 -0.1692
11066SOL    HW244128   7.870   9.509   5.599 -0.0772  0.3214 -1.2772
11067SOL     OW44129   2.585   0.512   4.809 -0.2482 -0.5541 -0.4930
11067SOL    HW144130   2.584   0.445   4.735 -1.0886  0.9405 -1.8770
11067SOL    HW244131   2.495   0.554   4.817 -0.0598 -0.4278  1.1428
11068SOL     OW44132   2.482   3.719   0.301  0.0431 -0.3008 -0.2764
11068SOL    HW144133   2.497   3.813   0.333 -1.5064  0.1616 -0.8816
11068SOL    HW244134   2.568   3.683   0.264  0.1645  1.6723 -2.0395
11069SOL     OW44135   2.702   8.517   2.998  0.1248  0.2176  0.7688
11069SOL    HW144136   2.754   8.568   2.930  0.5955  1.0950  1.7612
11069SOL    HW244137   2.680   8.426   2.963 -0.8984  1.1605 -1.1015
11070SOL     OW44138   9.920   5.250   3.732  0.0586  0.2549  0.4697
11070SOL    HW144139   9.824   5.263   3.755 -0.5767 -0.8606 -1.4191
11070SOL    HW244140   9.941   5.298   3.647  0.8876 -0.3611  0.3133
11071SOL     OW44141   8.822   9.228   3.028  0.0628 -0.4820 -0.5855
11071SOL    HW144142   8.768   9.174   3.093 -0.7191 -0.0100 -0.8296
11071SOL    HW244143   8.826   9.323   3.057 -1.1149 -0.0703 -1.7145
11072SOL     OW44144   6.915   8.576   1.275  0.0292 -0.0218  1.3350
11072SOL    HW144145   7.009   8.610   1.279  0.9110 -2.2847  1.0997
11072SOL    HW244146   6.853   8.641   1.319  2.0730  0.3473  3.7886
11073SOL     OW44147   3.410   1.227   3.992 -0.0454 -0.2976 -0.5832
11073SOL    HW144148   3.318   1.191   4.004  0.5615 -1.3574  1.1668
11073SOL    HW244149   3.465   1.206   4.073  0.4513  4.2841  0.4433
11074SOL     OW44150   0.101   3.499   0.557 -0.0908  0.6324  0.6359
11074SOL    HW144151   0.189   3.458   0.533 -0.6678  0.3580 -1.0546
11074SOL    HW244152   0.104   3.597   0.541 -0.7457  0.3393 -1.4994
11075SOL     OW44153   9.844   3.613   0.676  0.1909 -0.8014  0.5145
11075SOL    HW144154   9.923   3.606   0.615  1.7361  0.4458  2.3159
11075SOL    HW244155   9.827   3.524   0.719  0.8170 -1.0001  0.3528
11076SOL     OW44156   2.281   0.076   1.182 -0.6507 -0.2797 -0.3595
11076SOL    HW144157   2.363   0.092   1.128  0.2138  2.1143  1.5408
11076SOL    HW244158   2.212   0.028   1.127  1.1999 -0.3681 -2.6352
11077SOL     OW44159   9.072   8.694   4.410  0.8540  0.3115  0.3870
11077SOL    HW144160   9.014   8.749   4.349 -0.2046 -1.3816 -0.1538
11077SOL    HW244161   9.090   8.746   4.493 -4.5645 -0.4345  2.2353
11078SOL     OW44162   3.591   4.015   5.529  0.1262  0.2476 -0.5941
11078SOL    HW144163   3.675   3.988   5.482 -0.7238 -1.1639 -1.3508
11078SOL    HW244164   3.597   4.111   5.556  1.1491  0.7464 -2.4823
11079SOL     OW44165   2.208   9.000   3.487  0.0784  0.0369 -0.0660
11079SOL    HW144166   2.147   9.080   3.483  0.9506  0.6938 -0.4628
11079SOL    HW244167   2.279   9.010   3.417  0.5192 -0.8212  0.2645
11080SOL     OW44168   6.566   9.968   3.834 -0.1242  0.4897  0.3177
11080SOL    HW144169   6.519  10.052   3.862 -2.1023 -0.9777  1.5377
11080SOL    HW244170   6.553   9.898   3.903  2.2796 -0.5838 -0.2565
11081SOL     OW44171   5.189   0.456   0.080 -0.4267  0.0487  0.1387
11081SOL    HW144172   5.211   0.397   0.158 -1.1548 -0.4922 -0.0593
11081SOL    HW244173   5.271   0.468   0.023 -0.0790 -0.1399  0.5942
11082SOL     OW44174   5.174   6.900   3.608 -0.7070 -0.2115 -0.1019
11082SOL    HW144175   5.266   6.912   3.569 -1.5237  1.1431 -1.6511
11082SOL    HW244176   5.143   6.987   3.646 -1.3740 -0.6542  0.3595
11083SOL     OW44177   3.716   8.778   2.723  0.1046  0.0211 -0.5219
11083SOL    HW144178   3.728   8.691   2.772  0.8218 -0.6479 -1.8391
11083SOL    HW244179   3.789   8.787   2.654  0.8068  2.2872  0.4812
11084SOL     OW44180   9.817   1.522   0.831  0.2277  0.1009 -0.1880
11084SOL    HW144181   9.755   1.565   0.897  0.1570  2.0570 -1.4978
11084SOL    HW244182   9.912   1.534   0.862  0.2670  2.0774 -1.0294
11085SOL     OW44183   7.234   7.489   3.270  0.4043 -0.1301  0.1240
11085SOL    HW144184   7.142   7.474   3.233  0.8343 -0.3172 -0.8919
11085SOL    HW244185   7.252   7.587   3.277 -0.4858 -0.0844  1.8813
11086SOL     OW44186   8.957   3.423   1.999 -0.0442  0.0028  0.1093
11086SOL    HW144187   8.876   3.469   1.961 -0.2975 -0.9408 -0.5302
11086SOL    HW244188   8.936   3.326   2.012  1.3564 -0.4951 -1.2018
11087SOL     OW44189   2.858   1.645   5.569 -0.2390  0.7414  0.2480
11087SOL    HW144190   2.955   1.635   5.591 -0.2347  3.7054  1.7409
11087SOL    HW244191   2.807   1.570   5.612  1.0553  0.7568  1.8855
11088SOL     OW44192   4.867   0.291   2.631  0.3426  0.1260  0.0662
11088SOL    HW144193   4.826   0.285   2.540  1.2710  0.4613 -0.3784
11088SOL    HW244194   4.805   0.342   2.691 -0.4280 -0.3846 -0.2820
11089SOL     OW44195   2.935   5.952   0.981 -0.8703 -0.3009 -0.0658
11089SOL    HW144196   2.852   5.929   1.032  0.5355 -0.0286  2.4252
11089SOL    HW244197   2.970   6.041   1.011 -0.2469  0.0873 -1.8511
11090SOL     OW44198   1.936   0.548   3.503  0.3258  0.2996  0.3343
11090SOL    HW144199   2.017   0.600   3.474  0.7823 -0.3368  0.4427
11090SOL    HW244200   1.959   0.492   3.583 -0.4116  0.6188  0.7764
11091SOL     OW44201   4.062   0.155   2.947  0.1145 -0.2407 -0.3084
11091SOL    HW144202   4.155   0.123   2.962 -0.3141 -0.2980  2.5635
11091SOL    HW244203   4.063   0.255   2.939  0.3014 -0.1317  0.9577
11092SOL     OW44204   1.240   4.919   1.512 -0.5015  0.0213 -0.1030
11092SOL    HW144205   1.293   4.956   1.588 -0.1365  2.6566 -1.5868
11092SOL    HW244206   1.145   4.950   1.519 -0.1146  1.6097 -1.5452
11093SOL     OW44207   3.243   2.672   1.112  0.7383 -0.2426  0.4149
11093SOL    HW144208   3.156   2.623   1.100  1.0117 -0.7453  0.4754
11093SOL    HW244209   3.316   2.606   1.132  1.3003  0.1016 -0.5049
11094SOL     OW44210   8.116   6.761   2.236 -0.6165  0.3510 -0.0502
11094SOL    HW144211   8.154   6.847   2.203 -1.4589  0.9480  0.4895
11094SOL    HW244212   8.171   6.685   2.203  0.7905  1.1610  0.3901
11095SOL     OW44213   3.338   8.331   1.352  0.4494 -0.1003 -0.0651
11095SOL    HW144214   3.254   8.366   1.311  0.4191  0.8206  0.7440
11095SOL    HW244215   3.330   8.233   1.366 -0.3827 -0.0648 -0.2492
11096SOL     OW44216   4.908   0.185   4.441 -0.4433  0.3329 -0.2158
11096SOL    HW144217   4.902   0.102   4.495 -0.3436  1.6917  1.9477
11096SOL    HW244218   4.877   0.167   4.347 -0.6317 -2.0537  0.2904
11097SOL     OW44219   4.023   8.538   3.454  0.4714  0.0858 -0.1594
11097SOL    HW144220   4.034   8.442   3.480  1.1903  0.5306  1.2348
11097SOL    HW244221   3.931   8.569   3.480  0.3233 -0.1647 -0.3875
11098SOL     OW44222   1.388   0.098   0.024  0.1262 -0.7846  0.1297
11098SOL    HW144223   1.423   0.182  -0.017  1.9759 -2.3440 -1.5885
11098SOL    HW244224   1.447   0.070   0.100  0.7802 -1.6776 -0.6947
11099SOL     OW44225   6.418   9.197   1.657 -0.6796 -0.0617 -0.1105
11099SOL    HW144226   6.440   9.227   1.564  0.4563 -0.8731 -0.1059
11099SOL    HW244227   6.442   9.269   1.722 -0.4066  0.0532 -0.3398
11100SOL     OW44228   0.185   9.182   2.379 -0.2254  0.0121  0.2629
11100SOL    HW144229   0.133   9.122   2.440  0.0600 -2.4542 -1.8496
11100SOL    HW244230   0.133   9.197   2.295  0.8065  0.6996 -0.2602
11101SOL     OW44231   8.494   0.824   5.316 -0.0103  1.0973 -0.1039
11101SOL    HW144232   8.572   0.824   5.254  0.3503  1.3050  0.3482
11101SOL    HW244233   8.430   0.896   5.289 -0.4285  0.4203 -0.9468
11102SOL     OW44234   2.957   6.417   3.708  0.0380 -0.1298 -0.6650
11102SOL    HW144235   3.019   6.407   3.787 -1.6715 -0.0173  0.7254
11102SOL    HW244236   2.999   6.478   3.641  0.8028  1.1633  0.9440
11103SOL     OW44237   1.869   4.521   0.248 -0.5854 -0.2113  0.2943
11103SOL    HW144238   1.943   4.543   0.311  0.9924 -3.3124 -0.4210
11103SOL    HW244239   1.782   4.549   0.289  0.4566 -1.4651  3.5664
11104SOL     OW44240   2.828   8.319   2.390  0.1933 -0.2478  0.5976
11104SOL    HW144241   2.794   8.347   2.480 -0.4918 -0.2967  0.3578
11104SOL    HW244242   2.924   8.344   2.381  0.0458  0.4821  1.0346
11105SOL     OW44243   0.829   8.318   2.570  0.8471  0.2404 -0.6458
11105SOL    HW144244   0.835   8.415   2.595 -0.9354  0.1379  0.3105
11105SOL    HW244245   0.754   8.305   2.505  0.3962 -0.6431  0.0358
11106SOL     OW44246   0.604   1.332   2.713  0.3865  0.0069  0.0245
11106SOL    HW144247   0.675   1.299   2.651  1.5782  0.5105  1.0885
11106SOL    HW244248   0.539   1.259   2.732 -0.6660  0.1830 -2.7312
11107SOL     OW44249   8.514   5.782   4.917 -0.2597  0.0230  0.1110
11107SOL    HW144250   8.445   5.755   4.984 -0.5316  0.9719  0.2132
11107SOL    HW244251   8.520   5.881   4.912  0.4710 -0.0429 -0.5457
11108SOL     OW44252   2.254   6.627   4.964  0.9881  0.0539 -0.3263
11108SOL    HW144253   2.179   6.618   4.899 -0.4613  0.3746  1.2614
11108SOL    HW244254   2.227   6.689   5.037  3.2763  1.1609 -0.3845
11109SOL     OW44255   2.833   1.826   2.949 -0.7586 -0.9839  0.4200
11109SOL    HW144256   2.755   1.853   2.893  0.6109  1.0040 -0.6075
11109SOL    HW244257   2.872   1.741   2.912  0.3987  0.5339 -2.0274
11110SOL     OW44258   1.389   2.227   0.257  0.1350  0.5278  0.1578
11110SOL    HW144259   1.367   2.253   0.163  0.7351  2.6299  0.5775
11110SOL    HW244260   1.448   2.146   0.257  0.5090  0.7969 -1.2962
11111SOL     OW44261   3.400   3.749   2.042 -0.3631  0.1041  0.3027
11111SOL    HW144262   3.399   3.667   1.985  0.5638 -0.1648  0.6611
11111SOL    HW244263   3.349   3.821   1.996  2.2066  0.6005 -1.9414
11112SOL     OW44264   2.204   8.061   2.015 -0.2190  0.6747  0.5903
11112SOL    HW144265   2.157   8.008   1.944 -0.3624 -0.3513  1.4536
11112SOL    HW244266   2.224   8.003   2.093  0.6988  1.6004  1.0631
11113SOL     OW44267   2.987   7.148   2.182 -0.4777  0.1030  0.7321
11113SOL    HW144268   2.928   7.219   2.219 -1.1374 -0.2068  0.2996
11113SOL    HW244269   2.936   7.095   2.114  0.5302  0.3088 -0.1975
11114SOL     OW44270   4.997   1.337   3.806  0.2702 -0.3630 -0.2293
11114SOL    HW144271   5.003   1.394   3.888  1.2523 -0.2510 -0.3693
11114SOL    HW244272   4.970   1.244   3.832  0.5432 -0.3183  0.2161
11115SOL     OW44273   5.702   0.420   4.130  0.4876  0.1429  0.2763
11115SOL    HW144274   5.690   0.486   4.056  0.3599 -1.2710 -0.9926
11115SOL    HW244275   5.795   0.428   4.166  0.9417  0.0432 -0.8423
11116SOL     OW44276   8.894   2.119   3.724  0.6193 -0.3974 -0.1586
11116SOL    HW144277   8.943   2.181   3.663  1.3799 -0.7749  0.0582
11116SOL    HW244278   8.900   2.025   3.689  2.0234 -0.7898  1.0575
11117SOL     OW44279   9.089   9.996   4.582 -0.3251  0.3261  0.5018
11117SOL    HW144280   9.177   9.972   4.540  0.5081  1.2317  1.6894
11117SOL    HW244281   9.105  10.037   4.672 -1.8854  1.6903  0.1781
11118SOL     OW44282   4.478   1.366   3.539  0.4500 -0.1793  0.4475
11118SOL    HW144283   4.510   1.428   3.611 -0.2213  1.5521 -0.6955
11118SOL    HW244284   4.555   1.340   3.480  0.4871  0.8040  0.0445
11119SOL     OW44285   4.793   9.610   1.889 -0.3147 -0.2975 -0.1074
11119SOL    HW144286   4.789   9.566   1.979  0.1825  0.4697  0.2857
11119SOL    HW244287   4.702   9.643   1.864  0.2631  2.9570  1.8444
11120SOL     OW44288   9.337   6.793   4.933  0.1909  0.1085 -0.4043
11120SOL    HW144289   9.266   6.861   4.949  0.3802 -0.2230  2.0812
11120SOL    HW244290   9.427   6.836   4.939  0.2527  0.2439 -2.0788
11121SOL     OW44291   0.541   7.454   0.129 -0.3465 -0.2293  0.1263
11121SOL    HW144292   0.590   7.385   0.076 -1.8775 -1.0760 -0.1992
11121SOL    HW244293   0.606   7.504   0.186  1.1676 -0.0842 -1.6627
11122SOL     OW44294   4.926   4.145   2.031  0.8995  0.5968 -0.1227
11122SOL    HW144295   4.854   4.165   1.964  0.5306  0.2181  0.1584
11122SOL    HW244296   5.007   4.199   2.010  0.4420  1.2212 -0.2891
11123SOL     OW44297   2.626   2.741   0.378 -0.2870  1.0356 -0.9353
11123SOL    HW144298   2.600   2.645   0.365  1.9563  0.4007 -1.0979
11123SOL    HW244299   2.724   2.746   0.400 -0.4081  3.2859 -0.7732
11124SOL     OW44300   9.018   5.888   0.988  0.0403  0.0886  0.0316
11124SOL    HW144301   9.094   5.823   0.987  1.4248  1.6593 -1.2964
11124SOL    HW244302   9.050   5.975   1.026 -1.6353  0.1867  1.2774
11125SOL     OW44303   1.986  10.002   0.682  0.5199  1.0729 -0.0892
11125SOL    HW144304   1.899  10.034   0.644  1.1817  1.4652 -1.3207
11125SOL    HW244305   1.973   9.911   0.722  0.0260  0.1293 -2.2884
11126SOL     OW44306   3.375   5.931   2.884 -0.0402  0.1948 -0.3181
11126SOL    HW144307   3.364   6.019   2.932 -3.6139 -1.7926  2.7776
11126SOL    HW244308   3.333   5.937   2.794 -0.4371  1.5855 -0.0584
11127SOL     OW44309   1.814   6.194   5.627 -0.0647 -0.1333 -0.0839
11127SOL    HW144310   1.803   6.105   5.584 -0.3840  0.6154 -1.6066
11127SOL    HW244311   1.759   6.199   5.710  0.0401 -1.3750  0.0655
11128SOL     OW44312   1.664   7.336   0.934 -0.0057  0.3926 -0.0309
11128SOL    HW144313   1.709   7.418   0.970 -0.4572  0.5813  0.1110
11128SOL    HW244314   1.731   7.279   0.886  0.3442  0.7572  0.0229
11129SOL     OW44315   9.468   4.190   5.593 -0.7376 -0.2551 -0.7096
11129SOL    HW144316   9.371   4.189   5.571 -1.3447  1.6509  1.6339
11129SOL    HW244317   9.517   4.248   5.528 -1.6497  1.0612 -0.2398
11130SOL     OW44318   2.372   2.118   2.293  0.1043 -0.1927  0.6166
11130SOL    HW144319   2.396   2.169   2.211  2.6429  0.3956  1.6671
11130SOL    HW244320   2.298   2.054   2.273 -2.7058  3.3843 -0.9090
11131SOL     OW44321   0.456   4.534   1.885 -0.1496 -0.1436 -0.4929
11131SOL    HW144322   0.428   4.627   1.907  1.1977  0.0646  0.3794
11131SOL    HW244323   0.457   4.479   1.969 -0.3771 -0.7958 -0.9143
11132SOL     OW44324   7.952   6.554   1.850  0.3713  0.4242  0.3211
11132SOL    HW144325   7.975   6.484   1.917  1.3040 -0.3553 -0.7811
11132SOL    HW244326   7.873   6.606   1.881  0.5506 -0.1882  1.8237
11133SOL     OW44327   0.260   6.142   4.701  0.4906  0.0711 -0.2155
11133SOL    HW144328   0.294   6.167   4.610 -3.5524 -1.9721 -2.3689
11133SOL    HW244329   0.225   6.224   4.747  3.7579  1.3491  0.1367
11134SOL     OW44330   3.770   2.027   2.274  0.1523 -0.5803 -0.3504
11134SOL    HW144331   3.775   1.973   2.190 -0.2629 -0.1594 -0.6430
11134SOL    HW244332   3.675   2.037   2.302  0.2456 -0.2021 -0.1661
11135SOL     OW44333   0.611   2.391   4.860  0.0473  0.0618 -0.1158
11135SOL    HW144334   0.523   2.427   4.831  0.4316  0.8398 -0.3266
11135SOL    HW244335   0.650   2.451   4.931  0.3323 -0.3670  0.0942
11136SOL     OW44336   1.005   8.879   0.225 -0.2165 -0.0125  0.5339
11136SOL    HW144337   0.906   8.866   0.235 -0.5141  1.3044 -0.3986
11136SOL    HW244338   1.038   8.821   0.150 -0.3081 -0.3515  0.7538
11137SOL     OW44339   3.038   4.237   3.271  0.4629  0.5902 -0.2455
11137SOL    HW144340   3.135   4.226   3.291  0.2643 -0.0176  0.4061
11137SOL    HW244341   3.014   4.185   3.189  0.9396  1.7485 -1.1362
11138SOL     OW44342   6.765   9.872   2.296  0.7800  0.2458 -0.2218
11138SOL    HW144343   6.775   9.898   2.200  1.4225 -0.8145 -0.4588
11138SOL    HW244344   6.854   9.876   2.341  0.7251 -0.5465 -0.0220
11139SOL     OW44345   2.618   6.859   0.642 -0.1941  0.2899  0.0260
11139SOL    HW144346   2.579   6.794   0.706  2.1429 -0.4632  0.7299
11139SOL    HW244347   2.647   6.941   0.692 -1.2732  1.0593 -0.5692
11140SOL     OW44348   9.838   5.734   1.911 -0.1884 -0.4381 -0.5592
11140SOL    HW144349   9.752   5.686   1.894 -0.2060  0.1827 -2.2862
11140SOL    HW244350   9.869   5.779   1.827  1.7603 -0.5334  0.0808
11141SOL     OW44351   5.653   9.454   1.211  0.4384  0.5130  0.1470
11141SOL    HW144352   5.604   9.539   1.194  1.7074  0.9156 -1.6343
11141SOL    HW244353   5.751   9.472   1.210  0.6774 -0.6107  1.8370
11142SOL     OW44354   4.397   2.336   2.634  0.3834 -0.5610  0.7995
11142SOL    HW144355   4.495   2.356   2.641  0.8261 -1.7108 -1.5337
11142SOL    HW244356   4.361   2.375   2.549 -0.7628 -1.7125  0.7383
11143SOL     OW44357   6.917   9.116   2.069 -0.4635  0.6712 -0.3646
11143SOL    HW144358   6.969   9.033   2.091  0.6625  1.7401  1.1779
11143SOL    HW244359   6.960   9.194   2.114 -3.4550  1.6002  0.9879
11144SOL     OW44360   6.103   6.836   1.985  0.6948 -0.2682  0.2115
11144SOL    HW144361   6.126   6.894   1.906 -0.1836  0.7189  0.6638
11144SOL    HW244362   6.036   6.768   1.957 -1.8713  1.9580  0.7639
11145SOL     OW44363   8.113   7.120   0.618  0.2702  0.0032 -0.1469
11145SOL    HW144364   8.126   7.217   0.601 -1.7527  0.1390 -0.9505
11145SOL    HW244365   8.146   7.068   0.539 -1.3001  0.1962 -0.9411
11146SOL     OW44366   9.429   7.330   0.688  0.1391 -0.3017 -0.3736
11146SOL    HW144367   9.471   7.255   0.738  0.7884  1.4860  1.8659
11146SOL    HW244368   9.471   7.339   0.598  2.7994 -0.1619  0.8430
11147SOL     OW44369   3.578   9.142   2.981  0.1156 -0.3894 -0.1818
11147SOL    HW144370   3.635   9.098   2.911 -0.0229  0.8398 -1.0854
11147SOL    HW244371   3.484   9.147   2.948 -0.5814 -2.5239  1.3590
11148SOL     OW44372   1.758   8.359   5.540 -0.0105 -0.3288  0.2582
11148SOL    HW144373   1.778   8.393   5.448  1.8762 -1.4746  0.2346
11148SOL    HW244374   1.747   8.260   5.537 -0.1203 -0.3444  1.2377
11149SOL     OW44375   6.861   7.285   4.202  0.1693 -0.2741 -0.4329
11149SOL    HW144376   6.803   7.292   4.120 -2.1433  0.3369  1.2131
11149SOL    HW244377   6.880   7.376   4.237  1.1509 -0.5349 -0.2726
11150SOL     OW44378   2.181   8.293   5.266 -0.4313 -0.1645  0.4003
11150SOL    HW144379   2.235   8.212   5.291 -1.5227 -1.8469 -2.4228
11150SOL    HW244380   2.241   8.358   5.219 -0.4264 -1.2664 -1.1785
11151SOL     OW44381   2.377   7.869   0.007 -0.2433  1.0026 -0.7099
11151SOL    HW144382   2.419   7.862   0.097  1.1064 -2.5893 -1.5158
11151SOL    HW244383   2.278   7.856   0.015 -0.0165 -0.3283  0.1821
11152SOL     OW44384   9.884   4.023   4.819  0.8811  0.2254  0.8332
11152SOL    HW144385   9.852   4.117   4.819  1.3549  0.4601 -2.3491
11152SOL    HW244386   9.966   4.016   4.761 -0.7609 -2.6202 -1.2688
11153SOL     OW44387   7.067   1.288   0.435  0.5419 -0.0105 -0.3267
11153SOL    HW144388   6.987   1.236   0.405  1.5938 -2.3288  0.7988
11153SOL    HW244389   7.135   1.291   0.362  0.2466  0.2829 -0.5911
11154SOL     OW44390   2.920   4.041   0.202  0.4658 -0.6834 -0.0756
11154SOL    HW144391   2.951   4.047   0.297 -1.3195  0.1371  0.4746
11154SOL    HW244392   2.987   4.084   0.142  1.2789 -0.6111  0.8814
11155SOL     OW44393   1.339   2.830   4.867  0.1133 -0.5505  0.6888
11155SOL    HW144394   1.427   2.804   4.828 -0.1182 -0.2821 -0.0221
11155SOL    HW244395   1.285   2.748   4.885  0.3771 -0.6959  0.8237
11156SOL     OW44396   3.104   3.954   0.417 -0.0977 -0.1083  0.6589
11156SOL    HW144397   3.168   4.029   0.400 -0.2912  0.6198  2.9393
11156SOL    HW244398   3.154   3.874   0.450 -0.1975 -0.0559  0.9372
11157SOL     OW44399   5.194   6.578   1.910 -0.1329 -0.2655 -0.0832
11157SOL    HW144400   5.254   6.657   1.900  2.1573 -1.8871  0.3963
11157SOL    HW244401   5.142   6.585   1.995 -1.0308  1.4107 -0.7580
11158SOL     OW44402   4.482   1.246   4.944 -0.2437 -0.1330 -0.1673
11158SOL    HW144403   4.459   1.149   4.948 -2.2040  0.2996 -0.3854
11158SOL    HW244404   4.506   1.279   5.036 -1.7095 -0.3457  0.3069
11159SOL     OW44405   0.086   5.437   3.879  0.0142 -0.2507 -0.2202
11159SOL    HW144406   0.018   5.366   3.861  1.2806 -2.0365  1.7480
11159SOL    HW244407   0.178   5.402   3.859  0.5696  1.2843 -0.4584
11160SOL     OW44408   4.689   0.386   3.124  0.1605  0.1727 -0.2272
11160SOL    HW144409   4.687   0.485   3.116 -1.1801  0.2037  0.2620
11160SOL    HW244410   4.737   0.360   3.208  0.9794  0.3879 -0.6290
11161SOL     OW44411   8.086   7.608   4.303 -0.0706  0.3510 -0.1992
11161SOL    HW144412   8.015   7.539   4.316  0.5863  0.0314  1.8810
11161SOL    HW244413   8.170   7.565   4.271 -0.4311  0.5489 -1.4101
11162SOL     OW44414   9.595   6.249   2.892 -0.0925  0.0178 -1.1050
11162SOL    HW144415   9.553   6.168   2.853 -0.2919  0.3534 -1.5965
11162SOL    HW244416   9.566   6.330   2.840 -0.1212  0.4332 -0.4502
11163SOL     OW44417   4.091   3.549   1.319 -0.0350 -0.3376  0.2348
11163SOL    HW144418   4.145   3.533   1.237 -0.2100  0.7861 -0.1029
11163SOL    HW244419   4.151   3.575   1.394 -0.0107 -0.1156  0.1360
11164SOL     OW44420   2.035   5.601   4.613 -0.2734 -0.2454 -0.0975
11164SOL    HW144421   1.991   5.634   4.530 -0.7439  0.3969  0.3942
11164SOL    HW244422   2.133   5.616   4.608 -0.3289 -0.0125 -0.4448
11165SOL     OW44423   3.456   7.304   0.092  0.7948 -0.4103  0.0118
11165SOL    HW144424   3.424   7.336   0.003  1.6334 -2.0184 -0.8721
11165SOL    HW244425   3.511   7.376   0.135 -0.3157  0.6928 -0.3640
11166SOL     OW44426   8.083   7.810   4.084 -0.1088  0.4038  0.1972
11166SOL    HW144427   8.097   7.764   4.172  2.0523 -0.0272 -0.3406
11166SOL    HW244428   8.031   7.894   4.098 -0.1254  0.1384  1.8207
11167SOL     OW44429   3.849   9.658   1.517  0.1691  0.3158 -0.3264
11167SOL    HW144430   3.771   9.719   1.500  0.4663  0.3359 -1.6986
11167SOL    HW244431   3.815   9.566   1.539 -0.2387  0.2437 -1.2363
11168SOL     OW44432   9.360   5.018   1.991  0.0438  0.1473  0.1924
11168SOL    HW144433   9.421   4.939   1.980  1.2661  0.7992  2.0174
11168SOL    HW244434   9.303   5.005   2.072  1.3334  1.7980  1.4038
11169SOL     OW44435   4.729   7.862   1.974 -0.7852  0.3567  0.1902
11169SOL    HW144436   4.789   7.860   2.055 -1.6135  0.2464  0.8098
11169SOL    HW244437   4.763   7.796   1.906  0.5929  1.2917 -0.0446
11170SOL     OW44438   4.392   0.447   1.323 -0.0343  0.0087 -0.2034
11170SOL    HW144439   4.461   0.445   1.251  0.3767  1.5324  0.1138
11170SOL    HW244440   4.416   0.380   1.394  0.5221 -0.2519 -0.6343
11171SOL     OW44441   8.846   1.305   0.938 -0.4930  0.0130  0.4192
11171SOL    HW144442   8.866   1.233   1.005  0.6472  0.6364  0.7785
11171SOL    HW244443   8.765   1.281   0.885 -0.4650 -1.2492  0.9382
11172SOL     OW44444   0.707   6.255   5.084  0.6090 -0.5345  0.0374
11172SOL    HW144445   0.763   6.219   5.159  0.5670  1.0097  0.8467
11172SOL    HW244446   0.737   6.348   5.063 -1.6367  0.3078  0.4778
11173SOL     OW44447   1.970   9.475   5.317 -0.5841  0.2111  0.4395
11173SOL    HW144448   1.923   9.415   5.381  0.4227 -1.4125 -0.3182
11173SOL    HW244449   2.006   9.421   5.241 -0.2343  1.8686 -0.6008
11174SOL     OW44450   9.957   3.047   3.578  0.0665  0.4887  0.2492
11174SOL    HW144451   9.969   3.135   3.624 -1.5204  1.6293 -1.4571
11174SOL    HW244452  10.045   2.999   3.573  1.0250  2.1579  0.8004
11175SOL     OW44453   9.375   0.148   1.050 -0.3451 -0.0463  0.2810
11175SOL    HW144454   9.340   0.228   1.098 -1.5347 -0.3683 -0.0244
11175SOL    HW244455   9.380   0.168   0.952  2.1650  0.6447  0.5033
11176SOL     OW44456   4.402   7.988   1.902  0.2429 -0.3981 -0.0131
11176SOL    HW144457   4.378   7.962   1.996  0.0164  0.0929  0.0699
11176SOL    HW244458   4.485   8.044   1.904 -0.3700  0.5325  0.0090
11177SOL     OW44459   1.435   3.297   1.071  0.6502  0.4948  0.0019
11177SOL    HW144460   1.511   3.236   1.089  0.4898  0.4602  0.5707
11177SOL    HW244461   1.350   3.244   1.064  0.3928  0.7200  1.2613
11178SOL     OW44462   8.929   2.246   3.358  0.1871  0.0105 -0.3611
11178SOL    HW144463   8.856   2.308   3.330  0.1502 -0.6768 -1.8645
11178SOL    HW244464   8.928   2.165   3.298  1.0395 -0.8303  0.7483
11179SOL     OW44465   4.631   2.964   4.341  0.0645 -0.5837 -0.2509
11179SOL    HW144466   4.664   2.890   4.399  3.0244  0.1305 -0.9544
11179SOL    HW244467   4.605   2.927   4.251 -0.1669 -1.0077 -0.0119
11180SOL     OW44468   9.735   7.891   2.072 -0.0304  0.2470 -0.0143
11180SOL    HW144469   9.721   7.806   2.122 -0.9151  0.2577 -0.2427
11180SOL    HW244470   9.804   7.876   2.000  0.1229 -0.1602  0.2165
11181SOL     OW44471   1.284   4.504   4.488 -0.5083  0.3612 -0.1203
11181SOL    HW144472   1.382   4.525   4.485 -0.1283 -1.2399  0.9100
11181SOL    HW244473   1.233   4.588   4.507  0.7194  1.0498  0.2052
11182SOL     OW44474   1.555   8.004   5.481 -0.5417  0.4395  0.1673
11182SOL    HW144475   1.504   7.999   5.395 -0.3128  0.3674  0.0376
11182SOL    HW244476   1.492   7.986   5.557 -0.7231  0.4060  0.0100
11183SOL     OW44477   7.141   8.146   3.120  0.4297  0.0033 -0.4370
11183SOL    HW144478   7.218   8.158   3.058  0.9962  2.4933  0.6464
11183SOL    HW244479   7.133   8.227   3.178 -3.2790 -0.0041 -0.8063
11184SOL     OW44480   8.798   6.487   0.637  0.0389  0.9239 -0.1910
11184SOL    HW144481   8.729   6.484   0.710 -1.6017  1.8740 -1.6552
11184SOL    HW244482   8.883   6.524   0.674 -0.1352 -0.4573  1.7071
11185SOL     OW44483   9.922   5.074   0.624  0.5857 -0.2036  0.0421
11185SOL    HW144484   9.934   5.057   0.526  0.7044  0.6113 -0.0883
11185SOL    HW244485   9.983   5.014   0.675 -0.4338 -1.5740 -0.3230
11186SOL     OW44486   2.518   2.737   0.006 -0.5029  0.4958 -0.4845
11186SOL    HW144487   2.566   2.824  -0.000 -0.7923  0.5522 -2.2859
11186SOL    HW244488   2.584   2.662   0.001 -0.3798  0.6050 -0.4903
11187SOL     OW44489   0.827   0.054   0.955  0.0734 -0.7864 -0.3506
11187SOL    HW144490   0.781   0.047   1.043 -1.2651  0.3110 -0.9345
11187SOL    HW244491   0.851  -0.037   0.923  0.2457 -1.2148  0.9817
11188SOL     OW44492   4.068   9.857   2.570 -0.5175 -0.0401 -0.4421
11188SOL    HW144493   4.116   9.787   2.518  1.9573  2.4818 -1.7083
11188SOL    HW244494   4.045   9.821   2.661  0.2851 -2.6025 -1.2136
11189SOL     OW44495   8.692   9.834   2.658  0.4402 -0.2067 -0.2766
11189SOL    HW144496   8.725   9.863   2.747  0.7456  2.9414 -1.3686
11189SOL    HW244497   8.598   9.801   2.666  0.7269 -0.6748  1.3086
11190SOL     OW44498   1.500   1.997   2.822 -0.2522  0.0095 -0.0201
11190SOL    HW144499   1.473   2.090   2.798 -1.8571 -0.7471 -1.2761
11190SOL    HW244500   1.424   1.935   2.803  0.7437 -1.5425  0.9559
11191SOL     OW44501   1.436   2.856   2.298 -0.4472 -0.8714 -0.3950
11191SOL    HW144502   1.514   2.794   2.298  0.2040 -0.0764  1.0016
11191SOL    HW244503   1.431   2.904   2.211  1.8865  0.6089  0.2350
11192SOL     OW44504   4.183   3.685   0.583  0.0513  0.5807  0.0916
11192SOL    HW144505   4.240   3.725   0.511 -1.5824  2.6000 -0.1403
11192SOL    HW244506   4.103   3.641   0.542 -0.2608  0.6712  0.5971
11193SOL     OW44507   7.900   9.151   2.244  0.2216 -0.0863 -0.0315
11193SOL    HW144508   7.809   9.183   2.218 -0.0206 -1.5372 -1.0298
11193SOL    HW244509   7.932   9.204   2.323 -2.4450 -1.0583  1.7937
11194SOL     OW44510   6.800   9.095   2.821 -0.3487 -0.0629  0.5866
11194SOL    HW144511   6.877   9.159   2.808  0.8839 -1.4996  0.6738
11194SOL    HW244512   6.804   9.058   2.914 -0.6626 -0.7677  0.3175
11195SOL     OW44513   4.597   9.312   1.853 -0.3382  0.1032 -0.2479
11195SOL    HW144514   4.540   9.345   1.777 -1.3370 -0.6364  0.1740
11195SOL    HW244515   4.559   9.346   1.939  0.1658  0.0317  0.0014
11196SOL     OW44516   8.068   6.644   0.573 -0.6759 -0.0166  0.5893
11196SOL    HW144517   8.145   6.588   0.603  0.0090 -1.3967 -3.5047
11196SOL    HW244518   8.084   6.739   0.600  1.8587 -0.4916  0.8694
11197SOL     OW44519   4.098   3.958   4.090 -0.2402  1.5615 -0.7804
11197SOL    HW144520   4.192   3.969   4.123  0.1776  1.2506 -1.8266
11197SOL    HW244521   4.068   3.864   4.108  0.3303  1.1085 -2.0918
11198SOL     OW44522   1.831   5.614   1.214 -0.1039  0.0649  0.9084
11198SOL    HW144523   1.864   5.686   1.153 -0.6103 -0.0643  0.4744
11198SOL    HW244524   1.746   5.577   1.177 -0.5396  0.1519  1.8283
11199SOL     OW44525   9.223   1.788   2.232 -0.0247 -0.1374 -0.3302
11199SOL    HW144526   9.176   1.801   2.320  1.0889 -1.1675  0.4239
11199SOL    HW244527   9.259   1.695   2.227  2.1691  0.7078 -0.7900
11200SOL     OW44528   3.949   4.915   2.285  0.2513 -0.4964 -0.2230
11200SOL    HW144529   4.004   4.837   2.313  0.0000 -1.0311 -1.1670
11200SOL    HW244530   4.008   4.994   2.270  0.4604 -0.3961  1.1068
11201SOL     OW44531   6.972   0.765   4.220 -0.2757  0.5380 -0.2391
11201SOL    HW144532   6.967   0.771   4.121  0.2464  0.4194 -0.2730
11201SOL    HW244533   6.885   0.796   4.260 -0.3403  0.9793 -0.7147
11202SOL     OW44534   4.186   9.936   1.457 -0.2684  0.1134 -0.3876
11202SOL    HW144535   4.252   9.884   1.511 -0.9001  0.2999  0.5737
11202SOL    HW244536   4.098   9.939   1.505 -0.5900  1.0134 -1.0144
11203SOL     OW44537   9.574   6.389   3.125 -0.2133  0.5381 -0.7366
11203SOL    HW144538   9.566   6.331   3.044 -0.6434 -1.2152  0.5439
11203SOL    HW244539   9.486   6.433   3.142 -0.2367  0.5929 -0.9883
11204SOL     OW44540   0.924   6.373   2.952  0.4813 -0.3792  0.3489
11204SOL    HW144541   0.842   6.372   2.896  0.3471 -2.1273  0.5387
11204SOL    HW244542   1.002   6.340   2.898  1.4353  2.8640 -0.3401
11205SOL     OW44543   2.016   3.114   1.101 -0.1216 -0.1975 -0.3480
11205SOL    HW144544   1.972   3.170   1.171  0.7960  1.9780 -1.4378
11205SOL    HW244545   1.974   3.132   1.012  0.7153 -0.6536 -0.8438
11206SOL     OW44546   1.864   3.248   0.850 -0.3589  0.2630  0.0880
11206SOL    HW144547   1.823   3.338   0.867 -0.3925  0.2322  0.1690
11206SOL    HW244548   1.791   3.181   0.835 -0.3355  0.2302  0.1221
11207SOL     OW44549   9.758   5.971   4.219  0.1493 -0.5862  0.1331
11207SOL    HW144550   9.697   5.969   4.298 -0.1309 -3.9926 -0.1299
11207SOL    HW244551   9.839   5.916   4.237  0.7127 -0.3112 -1.4735
11208SOL     OW44552   7.510   9.716   1.138 -0.0980 -0.0811 -0.1288
11208SOL    HW144553   7.607   9.741   1.144 -0.0656 -0.0660 -0.7317
11208SOL    HW244554   7.501   9.617   1.135 -0.2148 -0.1587  2.0022
11209SOL     OW44555   5.097   1.243   1.244  0.1166 -0.4052 -0.2717
11209SOL    HW144556   5.169   1.187   1.284  0.2951 -1.0892 -1.5257
11209SOL    HW244557   5.011   1.192   1.244  0.0568 -0.3040 -0.5107
11210SOL     OW44558   4.194   8.933   5.285 -0.6532 -0.3346 -0.2954
11210SOL    HW144559   4.113   8.891   5.327 -0.3724 -1.2315 -0.6490
11210SOL    HW244560   4.210   8.892   5.196 -1.2000  1.5013 -1.2811
11211SOL     OW44561   2.462   4.971   3.859  0.2182 -0.5967 -0.1315
11211SOL    HW144562   2.487   5.015   3.773  0.0681 -0.4841 -0.1193
11211SOL    HW244563   2.413   4.886   3.841 -0.7290 -0.0552 -0.1695
11212SOL     OW44564   1.194   6.327   1.831  0.5132 -0.7263 -0.3633
11212SOL    HW144565   1.232   6.290   1.916  1.9822  0.8303 -0.3070
11212SOL    HW244566   1.181   6.426   1.841 -1.6212 -0.8969 -1.1265
11213SOL     OW44567   4.429   3.089   2.337 -0.4419  0.2040  0.2004
11213SOL    HW144568   4.413   2.993   2.361 -1.0748 -0.3036 -2.1670
11213SOL    HW244569   4.457   3.096   2.241 -0.4203  2.3967  0.3336
11214SOL     OW44570   7.906   4.567   3.814  0.1511  0.0063  0.2174
11214SOL    HW144571   7.956   4.485   3.787  1.1408  0.9975 -1.0437
11214SOL    HW244572   7.967   4.646   3.808 -0.5019  0.7203  2.3732
11215SOL     OW44573   7.574   6.626   3.122 -0.4224  0.3028  0.3457
11215SOL    HW144574   7.536   6.610   3.213  0.2800 -2.0506  0.2565
11215SOL    HW244575   7.572   6.541   3.070 -0.3586  1.5124 -1.6814
11216SOL     OW44576   2.523   4.829   3.050  0.1947  0.4378 -0.1902
11216SOL    HW144577   2.495   4.756   2.988 -0.6324  0.0774  0.5858
11216SOL    HW244578   2.608   4.870   3.018 -0.2384  0.2726 -1.5581
11217SOL     OW44579   1.692   5.371   3.728  0.0627 -0.2197  0.0276
11217SOL    HW144580   1.747   5.376   3.645  0.5982  0.1936  0.4082
11217SOL    HW244581   1.749   5.393   3.807 -0.0822 -2.0634  0.6578
11218SOL     OW44582   9.480   3.068   4.055 -0.5929  0.4353 -0.1204
11218SOL    HW144583   9.437   3.154   4.028 -0.9426  0.1877 -0.3511
11218SOL    HW244584   9.510   3.074   4.151 -0.5766  0.8272 -0.1499
11219SOL     OW44585   0.145   2.027   3.382 -0.1169 -0.7549 -0.0129
11219SOL    HW144586   0.144   2.112   3.328  2.2392 -0.7139 -0.0156
11219SOL    HW244587   0.107   2.045   3.473 -0.4732  0.0872 -0.3223
11220SOL     OW44588   6.000   1.360   3.223  0.0194 -0.3941 -0.2075
11220SOL    HW144589   5.943   1.375   3.143 -1.1120 -0.4263  0.5814
11220SOL    HW244590   5.963   1.285   3.278  0.3424  0.1216  0.7350
11221SOL     OW44591   3.742   3.482   2.378 -0.5390 -0.1095  0.8635
11221SOL    HW144592   3.809   3.412   2.403  2.4391  2.2663 -0.2327
11221SOL    HW244593   3.745   3.557   2.444 -1.3802  0.5198  0.2142
11222SOL     OW44594   3.287   9.191   5.410  0.3488 -0.1796  0.3879
11222SOL    HW144595   3.348   9.251   5.463  0.2256  1.4423 -1.2579
11222SOL    HW244596   3.340   9.143   5.340 -0.0180  0.0709 -0.0602
11223SOL     OW44597   3.543   1.326   0.463  0.1861 -0.0881  0.1079
11223SOL    HW144598   3.561   1.424   0.473  0.6640 -0.2816  1.1898
11223SOL    HW244599   3.592   1.276   0.533 -1.6277 -0.9504  0.7944
11224SOL     OW44600   3.418   4.473   0.709  0.0020 -0.1866 -0.7111
11224SOL    HW144601   3.430   4.491   0.806 -3.7356 -0.7210 -0.0721
11224SOL    HW244602   3.388   4.557   0.663  1.0531 -0.1127 -1.2681
11225SOL     OW44603   9.711   2.369   1.542 -0.0113 -0.3150 -0.1002
11225SOL    HW144604   9.694   2.272   1.528  1.6387 -0.7831  0.8766
11225SOL    HW244605   9.691   2.420   1.459 -0.6182 -1.5326 -0.7028
11226SOL     OW44606   5.475   7.856   3.553 -0.6146 -0.1897 -0.1541
11226SOL    HW144607   5.521   7.768   3.538 -0.7114 -0.2111 -0.3231
11226SOL    HW244608   5.434   7.887   3.467 -0.5463  0.0408 -0.1038
11227SOL     OW44609   1.263   5.054   4.273  0.2477  0.1246  0.2467
11227SOL    HW144610   1.249   5.054   4.174  0.2298  1.5088  0.2403
11227SOL    HW244611   1.225   5.138   4.313  1.6773  0.3413  1.2051
11228SOL     OW44612   0.819   5.969   4.741  0.0458  0.4140 -0.3841
11228SOL    HW144613   0.761   5.930   4.812  0.2165  0.9518  0.0479
11228SOL    HW244614   0.886   6.031   4.782  2.0392 -1.4736 -0.6671
11229SOL     OW44615   3.883   0.115   4.855 -0.1307 -0.1822  0.6891
11229SOL    HW144616   3.831   0.189   4.813 -0.5081 -0.1024  1.2937
11229SOL    HW244617   3.821   0.041   4.881 -0.3964  1.1882  4.2001
11230SOL     OW44618   2.244   3.641   1.766  0.3227  0.2137 -0.3878
11230SOL    HW144619   2.167   3.639   1.830  2.5470 -0.1118  2.3660
11230SOL    HW244620   2.317   3.698   1.803  1.9497 -0.5511 -2.3107
11231SOL     OW44621   8.499   5.126   1.274 -0.2192  0.1113 -0.5587
11231SOL    HW144622   8.434   5.165   1.339  0.2988  0.1601 -0.0670
11231SOL    HW244623   8.582   5.182   1.272  0.3003 -0.6455 -0.2683
11232SOL     OW44624   8.639   6.060   3.721 -0.3145  0.1506  0.9580
11232SOL    HW144625   8.591   6.139   3.758 -0.0215  0.0162  1.6224
11232SOL    HW244626   8.573   5.994   3.685 -0.6654 -0.4346  2.6647
11233SOL     OW44627   3.218   3.600   5.167 -0.1823  0.0689  0.3898
11233SOL    HW144628   3.314   3.613   5.187  0.4578 -1.2034 -1.6147
11233SOL    HW244629   3.164   3.674   5.207  2.0201  2.8111 -1.5062
11234SOL     OW44630   1.319   8.966   4.765 -0.2035  0.6526  0.4201
11234SOL    HW144631   1.287   8.876   4.795  1.6684 -0.0660  0.4001
11234SOL    HW244632   1.362   9.014   4.841  2.5674 -0.2575 -0.4939
11235SOL     OW44633   2.361   1.997   2.771 -0.4555 -0.4186 -0.3991
11235SOL    HW144634   2.335   2.061   2.699 -0.0907 -2.1056 -2.0477
11235SOL    HW244635   2.321   1.908   2.753 -1.7780 -0.4457  2.4137
11236SOL     OW44636   1.369   8.131   2.716 -0.2124 -0.2398  0.5793
11236SOL    HW144637   1.376   8.044   2.668  0.9530 -0.2750  0.7817
11236SOL    HW244638   1.292   8.184   2.680 -0.0182 -0.7261 -0.5634
11237SOL     OW44639   0.765   2.843   3.397  0.6526 -0.1542  0.1779
11237SOL    HW144640   0.711   2.801   3.325 -0.7949  2.7209 -0.4896
11237SOL    HW244641   0.744   2.800   3.485 -2.4479  0.6189 -0.1310
11238SOL     OW44642   6.755   0.493   3.074 -0.3445  0.3145 -0.2179
11238SOL    HW144643   6.733   0.440   3.156 -1.4970 -0.4543 -0.9993
11238SOL    HW244644   6.853   0.486   3.055 -0.0699  0.5007  1.0825
11239SOL     OW44645   2.680   0.708   1.389  0.5009 -0.2647 -0.2370
11239SOL    HW144646   2.761   0.680   1.338  0.7214  0.3684 -0.2402
11239SOL    HW244647   2.698   0.702   1.487  0.4164 -0.5130 -0.2367
11240SOL     OW44648   0.673   9.504   4.380  0.0563  0.0261  0.3026
11240SOL    HW144649   0.631   9.480   4.468  0.8723  0.0421  0.7055
11240SOL    HW244650   0.692   9.602   4.379 -3.4241  0.7444 -1.4052
11241SOL     OW44651   8.999   4.760   2.101 -0.9632  0.2712 -0.0850
11241SOL    HW144652   9.088   4.755   2.147 -1.3170 -0.0366  0.5712
11241SOL    HW244653   8.926   4.752   2.169 -1.4962  1.2715 -0.5370
11242SOL     OW44654   1.415   8.886   3.168 -0.6531 -0.1646 -0.1596
11242SOL    HW144655   1.341   8.867   3.103 -0.2489 -0.4427 -0.5383
11242SOL    HW244656   1.396   8.973   3.215 -2.7509 -1.6938  1.9280
11243SOL     OW44657   2.122   5.051   1.977  0.4647 -0.1780 -0.5660
11243SOL    HW144658   2.165   4.999   2.051  0.9883  0.7112 -0.2311
11243SOL    HW244659   2.078   5.132   2.015 -0.8756 -0.6887 -1.0054
11244SOL     OW44660   8.699   6.686   2.678 -0.4748 -0.3355 -0.6279
11244SOL    HW144661   8.715   6.718   2.584  1.1877  1.5368  0.2504
11244SOL    HW244662   8.636   6.748   2.724  0.0400 -0.2803  0.0114
11245SOL     OW44663   7.799   1.666   2.625  0.0688  0.0276  0.0196
11245SOL    HW144664   7.883   1.627   2.586  0.8729  0.5876  1.1531
11245SOL    HW244665   7.765   1.606   2.697 -0.5763 -0.2386 -0.4908
11246SOL     OW44666   3.531   9.110   2.580  0.2727 -0.2657 -0.2515
11246SOL    HW144667   3.450   9.165   2.602  0.3170  0.1835 -1.1861
11246SOL    HW244668   3.588   9.161   2.516  1.6371 -0.2960  0.9238
11247SOL     OW44669   7.688   3.235   1.689 -0.5669 -0.4265  0.8246
11247SOL    HW144670   7.747   3.154   1.692  0.4765  0.2873  0.0146
11247SOL    HW244671   7.671   3.260   1.594 -0.8830  0.3188  1.0736
11248SOL     OW44672   1.385   5.764   1.627  0.4525  0.6550 -0.0120
11248SOL    HW144673   1.463   5.802   1.677  0.6298 -0.1288  0.3112
11248SOL    HW244674   1.336   5.838   1.581  0.4268  1.3459  1.1223
11249SOL     OW44675   8.968   5.298   4.350 -0.0524  0.3086  0.6151
11249SOL    HW144676   9.059   5.257   4.352  0.2388  0.9775  1.1591
11249SOL    HW244677   8.964   5.375   4.414  0.0291  2.5416 -1.9944
11250SOL     OW44678   2.119   7.834   4.251  0.3935 -0.1997  0.1328
11250SOL    HW144679   2.037   7.885   4.222  0.1109 -1.5913 -1.6002
11250SOL    HW244680   2.195   7.898   4.265 -0.1418  0.7721 -1.3247
11251SOL     OW44681   9.934   6.990   0.565 -0.2396 -0.7583  0.4123
11251SOL    HW144682  10.001   6.983   0.491  0.7761 -2.0351  1.4244
11251SOL    HW244683   9.842   6.980   0.528  0.2368 -0.8683 -0.7453
11252SOL     OW44684   7.825   8.901   4.726 -0.1184  0.0699  0.0269
11252SOL    HW144685   7.779   8.818   4.696  0.0917  0.5172 -1.5559
11252SOL    HW244686   7.898   8.877   4.790 -1.0989 -0.8238  0.8236
11253SOL     OW44687   5.521   9.731   1.860  0.2375  0.3918  0.0474
11253SOL    HW144688   5.612   9.738   1.901  0.5117  0.0185 -0.4881
11253SOL    HW244689   5.457   9.692   1.927  1.3401 -3.0740 -0.8048
11254SOL     OW44690   7.254   1.560   3.591 -0.5004  0.0450  0.0433
11254SOL    HW144691   7.197   1.487   3.629  0.2980 -0.8051 -0.3985
11254SOL    HW244692   7.319   1.522   3.526 -0.1151  1.1580 -0.2358
11255SOL     OW44693   8.319   1.237   1.724  0.6826  0.3501 -0.8779
11255SOL    HW144694   8.298   1.282   1.811 -2.2518 -4.4430  1.1317
11255SOL    HW244695   8.418   1.241   1.707  0.9864  3.7080  1.2447
11256SOL     OW44696   1.466   5.397   2.994 -0.0021 -0.5232 -0.2965
11256SOL    HW144697   1.549   5.453   2.990  1.5492 -2.6676  1.0969
11256SOL    HW244698   1.451   5.355   2.905 -0.9271  1.7042 -1.2280
11257SOL     OW44699   0.731   4.129   1.317 -0.0067  0.5779  0.4890
11257SOL    HW144700   0.657   4.061   1.321  0.9098 -0.4268  0.4650
11257SOL    HW244701   0.726   4.187   1.398 -1.7955  1.5552 -0.2795
11258SOL     OW44702   2.981   3.034   3.031 -0.5486  0.8835  0.2198
11258SOL    HW144703   3.036   3.065   3.109 -0.7016 -2.7403  1.8428
11258SOL    HW244704   2.897   2.991   3.065 -0.6850 -0.6211 -1.9682
11259SOL     OW44705   5.100   0.409   2.896  0.5337 -0.0242 -0.4316
11259SOL    HW144706   5.122   0.326   2.947 -0.6124 -0.4258 -0.5653
11259SOL    HW244707   5.006   0.402   2.861  0.2353  1.5431  0.0100
11260SOL     OW44708   0.333   0.110   3.754 -0.5380 -0.0667 -0.1564
11260SOL    HW144709   0.410   0.075   3.807 -0.3346  1.5107  0.6162
11260SOL    HW244710   0.367   0.152   3.670 -0.4954  1.1075  0.4390
11261SOL     OW44711   4.784   2.322   0.307 -0.0520 -0.4832 -0.6237
11261SOL    HW144712   4.772   2.240   0.251 -0.9723 -2.5388  2.4330
11261SOL    HW244713   4.795   2.296   0.403 -0.2744  2.9826  0.4386
11262SOL     OW44714   0.713   3.541   0.494  0.5832  0.7697  0.0443
11262SOL    HW144715   0.691   3.608   0.423 -0.3282  2.0384  1.4707
11262SOL    HW244716   0.695   3.582   0.584  1.7708 -0.7709  1.0096
11263SOL     OW44717   1.494   0.799   1.325 -0.3435  0.1369  0.2463
11263SOL    HW144718   1.576   0.780   1.379  0.0337  1.3495  0.1140
11263SOL    HW244719   1.421   0.832   1.385  0.0917  1.5328  0.0265
11264SOL     OW44720   4.062   1.768   4.974  0.2248  0.0968 -0.2037
11264SOL    HW144721   4.086   1.840   5.039  0.0885  0.9812 -1.1274
11264SOL    HW244722   4.130   1.764   4.901 -0.4527  0.1450 -0.8467
11265SOL     OW44723   3.777   9.642   3.892 -0.4853 -0.6749  0.5476
11265SOL    HW144724   3.730   9.731   3.893 -0.4407 -0.6532  0.5920
11265SOL    HW244725   3.711   9.570   3.912 -0.7450 -0.7557 -0.5519
11266SOL     OW44726   8.109   2.819   3.887  0.2082  0.0726 -0.1442
11266SOL    HW144727   8.078   2.787   3.798  0.5150 -0.0420 -0.2094
11266SOL    HW244728   8.088   2.750   3.956 -0.3872  0.3292 -0.0616
11267SOL     OW44729   8.885   6.669   1.444 -0.1721  0.2789  0.1431
11267SOL    HW144730   8.790   6.638   1.435  0.6375 -1.9317 -1.2542
11267SOL    HW244731   8.911   6.721   1.363 -0.0374  0.4485  0.2949
11268SOL     OW44732   4.146   2.107   2.460  0.5290  0.4386  0.4406
11268SOL    HW144733   4.216   2.111   2.389 -1.2244  0.3643 -1.3145
11268SOL    HW244734   4.167   2.032   2.523  2.5614  1.0511  0.5338
11269SOL     OW44735   1.981   8.570   2.999 -0.3282 -0.1596 -0.2247
11269SOL    HW144736   2.030   8.656   3.011 -0.1535 -0.4825  1.4039
11269SOL    HW244737   1.944   8.539   3.087 -0.9337 -1.4217 -0.9051
11270SOL     OW44738   3.275   8.064   1.306 -0.2334  0.1724  0.2756
11270SOL    HW144739   3.337   8.003   1.354  0.6106  0.6787 -0.1602
11270SOL    HW244740   3.301   8.071   1.210  1.9316  4.0073  1.0482
11271SOL     OW44741   4.756   7.307   3.182 -0.1164 -0.1291 -0.1046
11271SOL    HW144742   4.748   7.277   3.277 -1.3252  1.5544  0.3481
11271SOL    HW244743   4.734   7.230   3.121 -0.5941 -0.8801  0.9851
11272SOL     OW44744   3.006   4.058   4.104 -0.1459 -0.4178  0.0314
11272SOL    HW144745   2.936   4.041   4.035  0.5102 -0.6563 -0.5862
11272SOL    HW244746   2.984   4.141   4.154 -0.2733  0.1357 -0.9222
11273SOL     OW44747   4.109   9.744   0.162  0.4640 -0.0411  0.0427
11273SOL    HW144748   4.178   9.671   0.159  0.2100 -0.3222  0.9068
11273SOL    HW244749   4.120   9.796   0.246  0.4236  0.7150 -0.4110
11274SOL     OW44750   6.542   0.845   0.027 -0.1191  0.6171  0.0146
11274SOL    HW144751   6.638   0.819   0.037 -0.2093 -0.0186 -0.7317
11274SOL    HW244752   6.489   0.801   0.100  0.1302  0.8499  0.3399
11275SOL     OW44753   7.374   9.949   0.202  0.0197  0.1650 -0.1161
11275SOL    HW144754   7.456   9.915   0.248  1.4150 -0.5774 -2.9968
11275SOL    HW244755   7.401  10.007   0.125 -2.1641 -0.2027 -1.2002
11276SOL     OW44756   8.878   4.842   4.407 -0.1511  0.4652  0.4172
11276SOL    HW144757   8.839   4.903   4.476 -1.2417 -1.1908  1.2752
11276SOL    HW244758   8.882   4.890   4.319  0.4694  2.3036  1.4210
11277SOL     OW44759   5.669   9.430   3.005  0.4583  0.2850  0.0881
11277SOL    HW144760   5.597   9.489   3.041  0.7551  0.4239  0.4459
11277SOL    HW244761   5.628   9.364   2.942 -0.0179  0.2312  0.4479
11278SOL     OW44762   0.138   2.267   5.532 -0.4005  0.4314  0.0422
11278SOL    HW144763   0.221   2.291   5.583 -0.7073  2.4894 -0.3676
11278SOL    HW244764   0.133   2.324   5.449 -1.9991  0.0216 -0.1489
11279SOL     OW44765   3.440   4.103   1.141 -0.0088 -1.0538  0.1959
11279SOL    HW144766   3.511   4.040   1.108 -0.2579 -1.7868  1.0478
11279SOL    HW244767   3.462   4.132   1.234 -1.3742 -2.1163  0.8600
11280SOL     OW44768   8.981   3.479   3.648 -0.2153 -0.2416 -0.8327
11280SOL    HW144769   8.939   3.390   3.665 -0.0272 -0.1936 -0.0902
11280SOL    HW244770   8.976   3.535   3.731  0.6097  0.0541 -0.9751
11281SOL     OW44771   2.892   8.865   3.642 -0.2921  0.6049 -0.0629
11281SOL    HW144772   2.923   8.911   3.559 -2.3198 -2.6685 -2.7692
11281SOL    HW244773   2.815   8.915   3.682 -0.3128  1.3684 -1.0333
11282SOL     OW44774   4.029   9.139   2.121  0.3699  0.3398 -0.0852
11282SOL    HW144775   4.040   9.051   2.077 -0.4318  0.8284 -1.2751
11282SOL    HW244776   4.103   9.153   2.187 -0.1935 -1.7382  1.0246
11283SOL     OW44777   9.793   9.657   2.393 -0.1256  0.4011  0.2315
11283SOL    HW144778   9.698   9.666   2.423 -0.0357  1.3038  0.2659
11283SOL    HW244779   9.848   9.729   2.434  0.6040 -0.1939  0.3118
11284SOL     OW44780   0.596   2.167   2.093  0.0038  0.4927 -0.2983
11284SOL    HW144781   0.668   2.227   2.060 -0.8288  2.5349  1.4583
11284SOL    HW244782   0.509   2.192   2.048 -0.5887  1.4875  1.3408
11285SOL     OW44783   0.342   8.183   3.040  0.1042 -0.1993 -0.0517
11285SOL    HW144784   0.266   8.237   3.073 -0.1896 -1.1837  0.9109
11285SOL    HW244785   0.316   8.086   3.039  0.1448 -0.2350 -3.0080
11286SOL     OW44786   6.016   6.838   2.549  0.2136  0.1009  0.1825
11286SOL    HW144787   6.063   6.891   2.619  0.2569  0.2634  0.0325
11286SOL    HW244788   5.927   6.809   2.583 -0.0365  0.7392  0.0640
11287SOL     OW44789   6.448   8.412   2.458 -0.3328  0.1534  0.1546
11287SOL    HW144790   6.380   8.388   2.388 -1.4532  1.6658  0.6917
11287SOL    HW244791   6.518   8.341   2.462 -1.0821 -0.7064 -1.4429
11288SOL     OW44792   0.706   9.317   3.973 -0.0577  0.5058 -0.4755
11288SOL    HW144793   0.756   9.269   4.045 -1.3378  0.3689  0.3549
11288SOL    HW244794   0.743   9.292   3.884 -0.0757 -1.3132 -0.0011
11289SOL     OW44795   2.103   5.833   0.543 -0.1129 -0.0545 -0.0663
11289SOL    HW144796   2.155   5.905   0.588 -0.0270 -1.2385  1.7763
11289SOL    HW244797   2.005   5.851   0.554 -0.1531  1.6547 -2.7026
11290SOL     OW44798   3.267   0.981   0.185  0.4666 -0.1056  0.0006
11290SOL    HW144799   3.296   1.063   0.235 -0.3226  0.3817 -0.3210
11290SOL    HW244800   3.266   1.001   0.087  2.2792 -1.1452 -0.2271
11291SOL     OW44801   7.527   6.327   3.603  0.3600  0.1564 -0.4232
11291SOL    HW144802   7.437   6.324   3.560 -0.2106  0.7967  0.7001
11291SOL    HW244803   7.570   6.237   3.598 -0.3373 -0.1481 -0.9567
11292SOL     OW44804   1.167   1.295   2.173 -0.2313  0.2971 -0.0731
11292SOL    HW144805   1.224   1.278   2.254 -2.1798 -2.5954  0.7886
11292SOL    HW244806   1.073   1.310   2.202 -0.5222  1.7932 -1.7002
11293SOL     OW44807   2.202   1.020   0.482 -0.4033 -0.2711  0.6879
11293SOL    HW144808   2.109   1.054   0.494 -0.0819  0.5593  0.8723
11293SOL    HW244809   2.267   1.093   0.503  0.2843 -0.7509  0.2520
11294SOL     OW44810   2.284   5.864   2.098 -0.1777  0.0947 -0.1675
11294SOL    HW144811   2.314   5.878   2.192 -1.6418 -0.9025  0.4627
11294SOL    HW244812   2.316   5.776   2.064 -0.8478 -0.1697 -0.1174
11295SOL     OW44813   0.629   3.714   0.282  0.6057  0.0388  0.6277
11295SOL    HW144814   0.592   3.659   0.207 -0.3475  1.3432  0.1190
11295SOL    HW244815   0.557   3.772   0.320  0.4981 -2.2163  4.0769
11296SOL     OW44816   1.749   6.039   5.258  0.2702  0.0734  0.3172
11296SOL    HW144817   1.765   5.966   5.324 -1.5169  0.0516  0.7543
11296SOL    HW244818   1.718   5.999   5.171 -0.4897  0.2852  0.4858
11297SOL     OW44819   3.221   9.500   3.600 -0.4993  0.3337 -0.0754
11297SOL    HW144820   3.186   9.416   3.640  2.5646 -0.1541  1.6870
11297SOL    HW244821   3.305   9.480   3.549  0.5516  2.3651  0.8021
11298SOL     OW44822   0.523   1.183   3.925 -0.4814 -0.1471 -0.5352
11298SOL    HW144823   0.488   1.119   3.993 -3.2012  0.2820 -1.4769
11298SOL    HW244824   0.533   1.137   3.837  3.6322 -0.8699  0.1935
11299SOL     OW44825   8.554   4.765   5.209  0.2755 -0.8852 -0.0551
11299SOL    HW144826   8.476   4.702   5.204 -0.0720 -0.5675  1.2711
11299SOL    HW244827   8.639   4.712   5.206  0.0003 -1.3387  0.0186
11300SOL     OW44828   6.963   6.906   2.779  0.1136 -0.2438  0.2352
11300SOL    HW144829   7.008   6.839   2.720 -1.2595 -0.0301 -1.0849
11300SOL    HW244830   6.895   6.860   2.835  0.7646 -0.3026  0.9778
11301SOL     OW44831   8.872   2.004   3.201 -0.8217 -0.1202  0.3140
11301SOL    HW144832   8.928   2.058   3.139  1.1397 -0.7203  1.5420
11301SOL    HW244833   8.778   2.000   3.166  0.1372 -0.0584 -2.3419
11302SOL     OW44834   8.049   0.325   5.150 -0.2249  0.3403 -0.4275
11302SOL    HW144835   8.147   0.328   5.173 -0.3979 -1.1916  0.5269
11302SOL    HW244836   7.998   0.283   5.225 -1.4405 -0.1635 -1.5238
11303SOL     OW44837   2.091   5.874   2.560  0.0804  0.4651 -0.6386
11303SOL    HW144838   2.074   5.962   2.603  0.4501  1.0946 -1.7541
11303SOL    HW244839   2.162   5.825   2.610 -1.6507 -0.1744  1.2926
11304SOL     OW44840   6.020   8.814   3.014  0.2356 -0.9693  0.1389
11304SOL    HW144841   6.060   8.746   3.076  2.1269 -1.3126 -1.3917
11304SOL    HW244842   6.092   8.850   2.954 -1.2616  0.4644 -0.8302
11305SOL     OW44843   0.345   2.653   2.570 -0.6156  1.2012 -0.0282
11305SOL    HW144844   0.245   2.661   2.575 -0.7831 -1.3564  1.3989
11305SOL    HW244845   0.387   2.716   2.635 -1.3600  1.0738  0.5811
11306SOL     OW44846   4.424   0.949   4.918 -0.0033 -0.6281 -0.0143
11306SOL    HW144847   4.455   0.938   4.823 -0.9733 -0.1330 -0.3987
11306SOL    HW244848   4.493   0.912   4.980  1.1786  0.1014 -0.8581
11307SOL     OW44849   1.773   3.298   2.691 -0.7778 -0.0910  0.1793
11307SOL    HW144850   1.721   3.267   2.771 -2.0149 -0.1970 -0.6475
11307SOL    HW244851   1.710   3.315   2.615  0.4147 -0.2549 -0.8613
11308SOL     OW44852   4.775   4.420   5.328  0.2362 -0.2938 -0.0818
11308SOL    HW144853   4.815   4.431   5.237  0.7335 -1.6584 -0.0413
11308SOL    HW244854   4.842   4.378   5.389 -0.2822  0.1020  0.7708
11309SOL     OW44855   0.558   6.181   4.305  0.0928 -0.2893 -0.3838
11309SOL    HW144856   0.623   6.179   4.228  0.8109  0.0913  0.2089
11309SOL    HW244857   0.607   6.166   4.390 -0.3847  1.3670  0.2072
11310SOL     OW44858   1.652   7.442   1.275 -0.3260  0.2831  0.4414
11310SOL    HW144859   1.594   7.365   1.251 -1.2476  1.0406  0.1855
11310SOL    HW244860   1.744   7.410   1.297 -0.5363 -0.8158 -0.2557
11311SOL     OW44861   5.350   9.703   1.484  0.0263 -0.4598  0.4251
11311SOL    HW144862   5.313   9.645   1.411  1.4131  0.6098 -1.1453
11311SOL    HW244863   5.280   9.714   1.555  0.2130 -5.3824  1.5936
11312SOL     OW44864   8.265   8.571   3.272 -0.4069 -0.3913  0.4869
11312SOL    HW144865   8.216   8.544   3.189  1.1683  1.6992 -1.2033
11312SOL    HW244866   8.342   8.510   3.287 -0.7331 -0.8141  0.4414
11313SOL     OW44867   9.744   7.552   1.842  0.4060 -0.4383 -0.0910
11313SOL    HW144868   9.755   7.553   1.743  1.8677 -0.0195  0.0703
11313SOL    HW244869   9.646   7.549   1.865  0.0641 -0.3940 -1.5340
11314SOL     OW44870   7.826   1.391   5.478 -0.3808 -0.8325 -0.0559
11314SOL    HW144871   7.868   1.462   5.421  0.2829 -1.6759 -0.6270
11314SOL    HW244872   7.734   1.372   5.445 -0.4594 -0.4411 -0.0706
11315SOL     OW44873   8.646   8.670   3.996 -0.5978 -0.1512 -0.3534
11315SOL    HW144874   8.580   8.610   3.950 -0.9637  0.4859 -0.6610
11315SOL    HW244875   8.698   8.721   3.927  0.6306 -1.0716 -0.1407
11316SOL     OW44876   8.678   7.775   1.069  0.2936  0.0968 -0.4061
11316SOL    HW144877   8.655   7.683   1.038 -2.1490  1.0197 -1.5194
11316SOL    HW244878   8.678   7.779   1.169  2.0777 -1.4793 -0.3303
11317SOL     OW44879   8.323   6.628   3.119 -0.6741  0.0171  0.2508
11317SOL    HW144880   8.284   6.634   3.212  1.4509 -0.0141  1.1607
11317SOL    HW244881   8.419   6.655   3.121 -0.6082  0.0106 -1.9637
11318SOL     OW44882   0.208   1.399   3.209 -0.5191 -0.1543  0.6926
11318SOL    HW144883   0.157   1.364   3.130  1.0663 -1.4303  0.1989
11318SOL    HW244884   0.144   1.439   3.275 -1.7965  1.7298 -1.6170
11319SOL     OW44885   9.328   0.235   3.512 -0.5729  0.5370 -0.5408
11319SOL    HW144886   9.313   0.166   3.441 -0.3256  0.5674 -0.6219
11319SOL    HW244887   9.298   0.324   3.479 -0.8007  0.4872 -0.4716
11320SOL     OW44888   2.610   2.880   0.636  0.8182  0.5646  0.7511
11320SOL    HW144889   2.601   2.973   0.673  1.4692  1.0922 -0.3726
11320SOL    HW244890   2.576   2.878   0.542  0.2308 -0.4883  0.9847
11321SOL     OW44891   1.040   0.616   2.362  0.2528 -0.3502 -0.0416
11321SOL    HW144892   1.100   0.686   2.322 -0.0762  0.2027  0.4116
11321SOL    HW244893   1.020   0.641   2.457 -0.7023 -0.5162 -0.1968
11322SOL     OW44894   0.433   7.967   2.019 -0.1233  0.5825  0.3893
11322SOL    HW144895   0.484   7.927   1.943 -2.6501  0.2775 -1.2205
11322SOL    HW244896   0.381   7.896   2.065 -0.8538  1.2292  0.5775
11323SOL     OW44897   6.628   1.373   3.306  0.5521  0.2083  0.2800
11323SOL    HW144898   6.579   1.460   3.297 -2.7940 -1.3585  2.1022
11323SOL    HW244899   6.726   1.390   3.310  0.0462  3.7655 -0.8185
11324SOL     OW44900   9.532   5.115   1.380 -0.1302  0.2145  0.4950
11324SOL    HW144901   9.623   5.131   1.420 -0.2123  1.2236  0.2864
11324SOL    HW244902   9.488   5.039   1.428  0.8622 -0.3529  0.5360
11325SOL     OW44903   9.579   4.394   4.955 -0.3958 -0.0855  0.1563
11325SOL    HW144904   9.608   4.312   5.005 -0.1708  0.1045  0.3330
11325SOL    HW244905   9.608   4.385   4.859 -1.3409 -0.7118 -0.0784
11326SOL     OW44906   2.948   5.290   0.086  0.3611 -0.4343  0.0687
11326SOL    HW144907   2.992   5.345   0.156  1.0861 -1.2188  0.2405
11326SOL    HW244908   3.018   5.246   0.029 -0.1623 -2.1327  0.6934
11327SOL     OW44909   3.601   5.641   1.823  0.7905  0.0479 -0.1339
11327SOL    HW144910   3.658   5.723   1.821 -0.3227  0.8213 -1.1945
11327SOL    HW244911   3.657   5.560   1.806  2.0284  0.4902  1.6767
11328SOL     OW44912   1.413   5.158   4.704  0.3406  0.0362  0.3779
11328SOL    HW144913   1.428   5.120   4.795 -0.3973  0.4708  0.6810
11328SOL    HW244914   1.466   5.242   4.693  0.1019  0.2096  0.5549
11329SOL     OW44915   3.734   3.931   0.247 -0.2792 -0.5709  0.5198
11329SOL    HW144916   3.704   3.888   0.161 -1.6560  0.2298  0.5710
11329SOL    HW244917   3.765   4.025   0.228  1.2216 -1.0338  0.6320
11330SOL     OW44918   0.084   0.969   4.745  0.0301  0.5578  0.8345
11330SOL    HW144919   0.002   0.912   4.741  1.2662 -1.3046  1.0585
11330SOL    HW244920   0.096   1.017   4.658 -0.9870  0.4119  0.6121
11331SOL     OW44921   4.073   1.760   3.934 -0.6326 -0.5292 -0.2172
11331SOL    HW144922   4.024   1.676   3.910 -1.3839 -0.0211 -0.4977
11331SOL    HW244923   4.020   1.839   3.901  1.6353 -0.0491 -2.9089
11332SOL     OW44924   0.127   9.061   5.562  0.0965 -0.0162  0.2488
11332SOL    HW144925   0.121   8.991   5.632  0.6385 -1.1249 -0.7952
11332SOL    HW244926   0.045   9.118   5.563 -0.8263 -1.3503  0.3919
11333SOL     OW44927   5.145   4.887   0.719  0.4684 -0.1622  0.0567
11333SOL    HW144928   5.205   4.931   0.785  0.4659  1.4535 -0.9925
11333SOL    HW244929   5.060   4.940   0.712 -0.7967 -2.0320  1.0169
11334SOL     OW44930   9.544   5.605   3.151 -0.3990 -0.4583 -0.4258
11334SOL    HW144931   9.461   5.568   3.194 -0.5027  2.2478  1.8301
11334SOL    HW244932   9.614   5.620   3.221  1.2023 -0.5761 -1.9684
11335SOL     OW44933   2.058   7.663   4.055 -0.2714  0.0641  0.5395
11335SOL    HW144934   2.130   7.663   3.986 -0.3006 -1.3743  0.5086
11335SOL    HW244935   2.085   7.722   4.131  0.5595  0.2115  0.1329
11336SOL     OW44936   2.401   0.865   2.719 -0.2665 -0.1176  0.1496
11336SOL    HW144937   2.458   0.799   2.768 -0.9139 -1.3503 -0.7178
11336SOL    HW244938   2.346   0.817   2.651 -0.2330  1.4186 -0.9944
11337SOL     OW44939   2.439   9.817   5.448  0.3713 -0.2601 -0.0563
11337SOL    HW144940   2.460   9.824   5.545 -0.7268  1.4536  0.0620
11337SOL    HW244941   2.416   9.907   5.412  0.8516 -0.8629 -1.9304
11338SOL     OW44942   9.974   4.144   4.110  0.3261  0.6071 -0.3179
11338SOL    HW144943   9.912   4.145   4.189  1.0402  0.3050  0.2513
11338SOL    HW244944   9.962   4.228   4.057  0.4679  1.2157  0.5996
11339SOL     OW44945   1.206   2.429   4.462 -0.5581  0.0637 -0.1888
11339SOL    HW144946   1.197   2.433   4.362 -2.9026  0.7102  0.0293
11339SOL    HW244947   1.266   2.503   4.492  3.0223 -2.1742 -1.3605
11340SOL     OW44948   1.071   6.727   0.246  0.0319  0.0792 -0.0638
11340SOL    HW144949   1.131   6.721   0.325 -0.3799 -2.4253  0.1150
11340SOL    HW244950   1.034   6.636   0.226 -1.7648  1.1284 -1.6542
11341SOL     OW44951   3.637   9.330   1.985  0.2464 -0.5172  0.0296
11341SOL    HW144952   3.541   9.348   2.005 -0.1210 -0.6633 -1.5983
11341SOL    HW244953   3.685   9.417   1.971  0.6324 -0.3764  2.0028
11342SOL     OW44954   2.289   9.296   0.029 -0.1135  0.4012  0.4823
11342SOL    HW144955   2.228   9.352   0.086 -0.4707 -0.4065  0.9087
11342SOL    HW244956   2.375   9.344   0.015  0.1462  0.4287  2.0712
11343SOL     OW44957   3.127   3.356   5.068  0.2405 -0.2411  0.0069
11343SOL    HW144958   3.168   3.434   5.114  1.6900  0.6136 -2.6092
11343SOL    HW244959   3.053   3.387   5.008  0.3282 -0.9517 -0.4823
11344SOL     OW44960   1.165   8.807   2.474 -0.1355  0.1169 -0.3170
11344SOL    HW144961   1.073   8.839   2.449 -0.8259 -1.0709  0.7031
11344SOL    HW244962   1.160   8.746   2.552  1.3440 -1.3755 -1.3471
11345SOL     OW44963   0.497   6.016   3.162 -0.1843 -0.0010  0.6018
11345SOL    HW144964   0.429   6.055   3.224 -1.5033 -2.6338  0.8931
11345SOL    HW244965   0.515   6.081   3.088 -0.9803  1.8516  1.9796
11346SOL     OW44966   3.310   0.988   3.246 -0.3200 -0.5843 -0.1152
11346SOL    HW144967   3.214   0.964   3.255 -1.0551  0.8621 -3.4381
11346SOL    HW244968   3.330   1.068   3.303 -1.1789 -0.6746  0.3168
11347SOL     OW44969   0.935   6.332   2.114  0.2799  0.4669  0.6303
11347SOL    HW144970   0.886   6.325   2.028  2.3979  0.8752 -0.6333
11347SOL    HW244971   0.907   6.415   2.162 -1.0889  0.1083  0.4657
11348SOL     OW44972   1.846   8.763   3.689  0.1755  0.0468 -0.2944
11348SOL    HW144973   1.777   8.812   3.637  1.7885  1.8921 -0.7846
11348SOL    HW244974   1.924   8.741   3.630 -0.2059 -2.5261  0.0996
11349SOL     OW44975   3.378   0.362   1.542  0.0208  0.0519 -0.1106
11349SOL    HW144976   3.390   0.285   1.604  0.4917 -1.2377 -1.7495
11349SOL    HW244977   3.463   0.415   1.537  1.6357 -2.6548 -3.2757
11350SOL     OW44978   1.329   3.730   1.884  0.7474  0.0642  0.1929
11350SOL    HW144979   1.357   3.689   1.971  0.6242  0.5099  0.4406
11350SOL    HW244980   1.289   3.820   1.900  2.3062  0.8954 -0.4809
11351SOL     OW44981   0.399   8.237   4.006  0.1665 -0.0009 -0.5316
11351SOL    HW144982   0.381   8.149   3.963 -1.4781  0.6183 -1.1680
11351SOL    HW244983   0.496   8.262   3.993  0.1531 -0.7519 -2.1508
11352SOL     OW44984   0.949   1.255   2.804 -0.0602 -0.1736 -0.2337
11352SOL    HW144985   0.893   1.335   2.825 -1.6075 -0.7383 -2.0568
11352SOL    HW244986   0.940   1.233   2.707  2.6881 -0.7947 -0.3837
11353SOL     OW44987   9.406   5.857   1.301 -0.1934  0.2099  0.0019
11353SOL    HW144988   9.359   5.770   1.286  0.7669 -0.1289 -1.1565
11353SOL    HW244989   9.408   5.878   1.399  0.7646 -1.7781  0.4318
11354SOL     OW44990   1.204   0.413   5.083  0.7980  0.4799 -0.2331
11354SOL    HW144991   1.268   0.429   5.159 -0.3496  2.1070  0.4117
11354SOL    HW244992   1.244   0.346   5.020  1.3968 -1.5748  2.2583
11355SOL     OW44993   0.181   7.846   0.078 -0.5176 -0.1728  0.3119
11355SOL    HW144994   0.212   7.794  -0.002 -0.1628 -0.2136  0.4758
11355SOL    HW244995   0.181   7.944   0.055 -2.8268 -0.3402 -0.5581
11356SOL     OW44996   4.398   0.591   2.667 -0.0054 -0.2006 -0.4062
11356SOL    HW144997   4.300   0.586   2.649  0.1838 -1.7783 -1.0535
11356SOL    HW244998   4.414   0.601   2.765 -0.9026  3.6321 -0.5821
11357SOL     OW44999   9.216   9.520   4.451 -0.6232 -0.1157  0.4127
11357SOL    HW145000   9.213   9.421   4.469 -0.8566  0.0579  1.3958
11357SOL    HW245001   9.305   9.556   4.478 -0.0818 -0.2620 -1.1313
11358SOL     OW45002   3.757   0.287   4.711 -0.0443 -0.0411  0.0656
11358SOL    HW145003   3.741   0.378   4.673 -0.4382 -0.0771  0.1442
11358SOL    HW245004   3.806   0.231   4.644  1.0851  0.5401  0.3958
11359SOL     OW45005   1.317   5.634   4.920 -0.6845  0.1000  0.1586
11359SOL    HW145006   1.325   5.606   5.016 -1.0877 -0.5721 -0.0053
11359SOL    HW245007   1.348   5.729   4.911  2.6499 -0.9190  0.3361
11360SOL     OW45008   9.169   4.596   3.623  0.0302 -0.0768 -0.2068
11360SOL    HW145009   9.218   4.616   3.538 -1.0953  1.1025 -0.5899
11360SOL    HW245010   9.095   4.532   3.604 -1.4040  1.6198 -0.4995
11361SOL     OW45011   0.882   7.499   3.104  0.0109  0.6443 -0.0269
11361SOL    HW145012   0.866   7.579   3.162  0.7102  1.4476 -0.9307
11361SOL    HW245013   0.874   7.526   3.007  0.8581 -0.2481 -0.3500
11362SOL     OW45014   2.554   7.056   0.459 -0.4603  0.4567  0.5418
11362SOL    HW145015   2.623   7.091   0.396  0.2642  1.5369  1.9126
11362SOL    HW245016   2.588   6.971   0.501 -0.4110  0.4168  0.4231
11363SOL     OW45017   7.627   1.763   0.393  0.0088  0.0021  0.3159
11363SOL    HW145018   7.610   1.724   0.484 -0.0042  1.1115  0.8020
11363SOL    HW245019   7.541   1.768   0.343 -0.0750 -0.0950  0.4484
11364SOL     OW45020   9.127   1.814   3.809  0.3641 -0.2465 -0.1379
11364SOL    HW145021   9.044   1.842   3.762  0.6690  0.2016 -0.4121
11364SOL    HW245022   9.151   1.720   3.782 -1.0170 -1.0394  1.2697
11365SOL     OW45023   7.821   3.252   4.518 -0.2465 -0.0090  0.3320
11365SOL    HW145024   7.875   3.174   4.486  0.3770  0.7129 -0.4053
11365SOL    HW245025   7.843   3.270   4.614  0.4170 -0.0879  0.2036
11366SOL     OW45026   1.540   3.958   4.715  0.8230  0.5487  0.2519
11366SOL    HW145027   1.620   4.019   4.718  2.2631 -1.2846  0.3396
11366SOL    HW245028   1.564   3.871   4.758 -0.9569 -0.3627 -0.5716
11367SOL     OW45029   2.498   5.186   1.920 -0.0060 -0.1752 -0.1158
11367SOL    HW145030   2.532   5.236   1.841  0.1076 -0.0047  0.0399
11367SOL    HW245031   2.430   5.119   1.890 -0.3737  0.2743 -0.2896
11368SOL     OW45032   4.915   2.126   1.502  0.1014 -0.1341 -0.2752
11368SOL    HW145033   4.902   2.112   1.403  0.5773  3.3418 -0.8761
11368SOL    HW245034   4.896   2.221   1.525 -2.3017 -1.3982  3.4145
11369SOL     OW45035   4.389   2.455   0.920 -0.1118 -0.1313  0.5629
11369SOL    HW145036   4.412   2.524   0.853 -2.3254  0.5222  0.4457
11369SOL    HW245037   4.379   2.366   0.875  0.0021 -0.0045  0.2890
11370SOL     OW45038   2.066   9.794   4.580 -0.3277 -0.7785 -0.2284
11370SOL    HW145039   2.046   9.881   4.536  0.0615 -1.3405 -1.5218
11370SOL    HW245040   2.099   9.811   4.674  1.9798  0.6133 -1.2453
11371SOL     OW45041   7.735   1.058   2.941 -0.3767  0.8925  0.2537
11371SOL    HW145042   7.676   1.008   3.004 -0.7144  1.1174  0.1174
11371SOL    HW245043   7.831   1.040   2.964 -0.4376 -1.6516 -1.2100
11372SOL     OW45044   1.439   7.039   1.917 -0.1626 -0.8717 -0.8447
11372SOL    HW145045   1.412   7.135   1.906 -1.3320 -0.8967  1.4628
11372SOL    HW245046   1.513   7.033   1.984  0.0643 -1.5664 -1.1515
11373SOL     OW45047   0.170   8.540   4.751 -0.1887 -0.2509 -0.6548
11373SOL    HW145048   0.078   8.576   4.770  1.1921  2.5602  1.0624
11373SOL    HW245049   0.199   8.482   4.828  0.5317  1.1156  0.1267
11374SOL     OW45050   1.168   0.854   2.339 -0.6411 -0.4351 -0.3147
11374SOL    HW145051   1.187   0.891   2.430 -3.3155  0.6537 -0.1449
11374SOL    HW245052   1.112   0.920   2.287 -0.2902 -1.6270 -2.2576
11375SOL     OW45053   2.475   3.014   3.531  0.7757 -0.0468  0.5704
11375SOL    HW145054   2.384   3.030   3.570  0.1790 -0.1930 -0.7217
11375SOL    HW245055   2.523   2.945   3.586  0.6221  0.9618  2.0129
11376SOL     OW45056   2.924   9.674   1.940  0.4103 -0.0732 -0.4346
11376SOL    HW145057   2.901   9.728   1.859  0.8978  1.3205  0.3311
11376SOL    HW245058   2.867   9.704   2.017  0.7756 -0.5712  0.0288
11377SOL     OW45059   4.551   8.253   4.502  0.0837 -0.0986  0.0132
11377SOL    HW145060   4.570   8.251   4.404  2.3796  1.4585  0.3854
11377SOL    HW245061   4.572   8.164   4.542 -0.8354 -0.7298 -0.9062
11378SOL     OW45062   5.026   2.441   3.170  0.9435  0.7901 -0.5265
11378SOL    HW145063   4.972   2.450   3.253 -1.6937 -0.7280 -2.0084
11378SOL    HW245064   5.052   2.532   3.137 -2.2552  1.6789 -0.7285
11379SOL     OW45065   7.728   8.034   3.554  0.8691 -0.1409 -0.5709
11379SOL    HW145066   7.827   8.021   3.551  0.9867  0.9527 -1.7852
11379SOL    HW245067   7.684   7.958   3.506  1.1799 -0.0986 -0.9348
11380SOL     OW45068   0.019   2.906   1.445  0.0144 -0.3886 -0.5075
11380SOL    HW145069  -0.007   2.879   1.352 -1.0220 -2.0003  0.2340
11380SOL    HW245070   0.051   2.826   1.495 -0.5603  0.2403  0.8933
11381SOL     OW45071   4.062   0.422   4.789 -0.7423  0.1330 -0.0510
11381SOL    HW145072   4.116   0.343   4.759 -1.2330 -0.3847  0.4200
11381SOL    HW245073   3.977   0.390   4.832 -1.7333  0.9543 -1.3544
11382SOL     OW45074   4.466   3.340   2.965  0.7229  0.4542  0.2479
11382SOL    HW145075   4.444   3.432   2.998  0.7871  0.5716 -0.0288
11382SOL    HW245076   4.438   3.332   2.869  1.0992  0.3197  0.1514
11383SOL     OW45077   2.765   2.547   4.570  1.1161  0.7463  0.5536
11383SOL    HW145078   2.745   2.449   4.579 -1.4852  1.0568 -1.1897
11383SOL    HW245079   2.786   2.585   4.660  0.0005 -0.9942  1.5848
11384SOL     OW45080   7.620   0.862   0.644 -0.1859  0.6687 -0.2767
11384SOL    HW145081   7.660   0.770   0.650  1.3763  1.4169  1.2284
11384SOL    HW245082   7.591   0.891   0.735 -1.0128  1.5368 -0.8135
11385SOL     OW45083   0.242   9.607   2.017  0.3681 -0.1674 -0.4236
11385SOL    HW145084   0.202   9.664   1.945 -1.5459 -1.4692 -0.4362
11385SOL    HW245085   0.236   9.656   2.105 -1.2552 -0.2970 -0.4339
11386SOL     OW45086   0.952   4.610   3.109 -0.1981  0.4843  0.3938
11386SOL    HW145087   0.908   4.617   3.019 -0.2262  1.8145  0.5023
11386SOL    HW245088   1.051   4.623   3.099  0.2370 -2.6897  0.1249
11387SOL     OW45089   9.621   9.795   0.337 -0.1691  0.1494  0.7486
11387SOL    HW145090   9.640   9.761   0.245  0.3726 -0.8775  1.2444
11387SOL    HW245091   9.636   9.894   0.339  0.2904  0.1022 -0.1360
11388SOL     OW45092   2.218   6.341   3.730 -0.0004  0.7283 -0.2099
11388SOL    HW145093   2.170   6.283   3.664  1.7190  0.7550 -1.5092
11388SOL    HW245094   2.309   6.363   3.696  1.2542  0.0303  2.5820
11389SOL     OW45095   8.810   0.411   2.774  0.1231 -0.0954  0.3075
11389SOL    HW145096   8.889   0.471   2.765 -0.3134  0.4307 -0.0520
11389SOL    HW245097   8.838   0.316   2.762  0.9577 -0.0361  1.7049
11390SOL     OW45098   1.020   0.269   3.125 -0.5539 -0.0405  0.5895
11390SOL    HW145099   0.938   0.211   3.123 -0.4927 -0.1721  1.6077
11390SOL    HW245100   1.055   0.274   3.219  1.2384 -0.8819 -0.0050
11391SOL     OW45101   1.798   7.927   2.053 -0.7384  0.5177 -0.4253
11391SOL    HW145102   1.787   8.018   2.092 -2.8915 -0.3209  0.9915
11391SOL    HW245103   1.761   7.858   2.116  1.6382 -1.4327 -1.0568
11392SOL     OW45104   9.802   7.596   3.951 -0.4562 -1.0763 -0.9106
11392SOL    HW145105   9.870   7.668   3.941 -1.4281 -0.3391 -2.3130
11392SOL    HW245106   9.710   7.636   3.950 -0.9516 -2.0937  0.5798
11393SOL     OW45107   3.685   1.762   1.878 -0.2023 -0.7360 -0.0684
11393SOL    HW145108   3.637   1.767   1.966  1.1535  0.4799  0.6223
11393SOL    HW245109   3.772   1.811   1.885 -0.6748  0.5056 -2.4594
11394SOL     OW45110   1.846   8.863   2.318  0.7919 -0.4462 -0.1028
11394SOL    HW145111   1.788   8.825   2.246  0.6761 -0.7771  0.1651
11394SOL    HW245112   1.796   8.863   2.405  1.5029 -1.5637  0.3169
11395SOL     OW45113   0.537   1.333   1.164  0.3749 -0.4706 -0.1474
11395SOL    HW145114   0.516   1.368   1.072  0.5269 -2.0777 -0.8130
11395SOL    HW245115   0.461   1.354   1.226  0.5788  1.2504 -0.4578
11396SOL     OW45116   3.399   0.368   2.083  0.6475  0.8754 -0.0265
11396SOL    HW145117   3.365   0.277   2.059 -0.7131  1.5025 -0.5501
11396SOL    HW245118   3.482   0.387   2.030  0.8719 -0.0133 -0.0014
11397SOL     OW45119   9.308   6.221   2.002  0.3537  0.4280 -0.5750
11397SOL    HW145120   9.245   6.203   1.927  0.3891 -2.4454  0.0216
11397SOL    HW245121   9.257   6.252   2.082 -0.2025 -0.8215 -0.4322
11398SOL     OW45122   0.738   3.796   5.292  0.1055 -0.7925  0.1670
11398SOL    HW145123   0.710   3.891   5.308  2.1775 -0.2657  0.7874
11398SOL    HW245124   0.798   3.766   5.366  0.5585 -2.1485 -0.7379
11399SOL     OW45125   2.799   6.512   1.760 -0.2074 -0.1214  0.6150
11399SOL    HW145126   2.829   6.432   1.812  1.1125  0.1893  0.3551
11399SOL    HW245127   2.754   6.483   1.676 -2.6716 -0.6422  2.0492
11400SOL     OW45128   3.652   6.535   3.855 -0.1554 -0.0450 -0.5436
11400SOL    HW145129   3.648   6.629   3.890 -1.3213 -1.0216  2.1232
11400SOL    HW245130   3.559   6.504   3.835  0.3041 -0.3548 -2.2031
11401SOL     OW45131   0.718   4.295   3.898 -0.6212  0.8042  0.2662
11401SOL    HW145132   0.784   4.370   3.892  1.4141 -1.0630 -1.5924
11401SOL    HW245133   0.704   4.256   3.807 -1.4449 -1.2349  1.2440
11402SOL     OW45134   8.334   2.443   2.381  0.3301  0.2870  0.2648
11402SOL    HW145135   8.352   2.389   2.463 -0.3386  0.2457  0.3891
11402SOL    HW245136   8.266   2.396   2.325 -0.5922  1.2186  0.5995
11403SOL     OW45137   3.433   2.083   5.632 -0.2564 -0.1124  0.8617
11403SOL    HW145138   3.386   2.011   5.683 -0.3719 -0.3623  0.4094
11403SOL    HW245139   3.407   2.077   5.535  1.0967 -0.5652  0.5115
11404SOL     OW45140   8.253   0.516   0.140  0.0529 -0.0818 -0.2723
11404SOL    HW145141   8.233   0.613   0.152  1.5446  0.2743 -0.6148
11404SOL    HW245142   8.345   0.496   0.174  0.5090 -0.9954 -2.0047
11405SOL     OW45143   3.879   3.459   1.472  0.3526 -0.1009 -0.8652
11405SOL    HW145144   3.892   3.379   1.532 -0.4051 -0.2190 -0.8445
11405SOL    HW245145   3.964   3.480   1.425  1.5143  1.1528  1.6825
11406SOL     OW45146   1.262   5.770   2.393  0.1756  0.2835 -0.2634
11406SOL    HW145147   1.305   5.707   2.329 -0.9025  1.2440 -1.9654
11406SOL    HW245148   1.175   5.732   2.424  0.0945  0.3894 -0.3594
11407SOL     OW45149   3.734   8.571   4.875  0.0055  0.3717  0.6776
11407SOL    HW145150   3.651   8.593   4.824 -0.5129  1.4053  1.9371
11407SOL    HW245151   3.811   8.622   4.836 -0.4859  1.5493  1.2220
11408SOL     OW45152   1.066   0.830   1.734  0.3699  0.1950 -0.1284
11408SOL    HW145153   1.085   0.833   1.832  0.3249  0.0840 -0.1151
11408SOL    HW245154   0.968   0.841   1.718  0.7108  3.3654 -0.3551
11409SOL     OW45155   5.887   9.260   3.673  0.0187 -0.1079  0.2652
11409SOL    HW145156   5.917   9.169   3.643  1.1497  0.5288 -0.5905
11409SOL    HW245157   5.965   9.323   3.670 -0.3222  0.4502  2.6804
11410SOL     OW45158   8.962   6.661   3.027 -0.4305  0.5579 -0.1160
11410SOL    HW145159   8.872   6.629   3.055 -0.1176  0.0177  0.2708
11410SOL    HW245160   9.023   6.667   3.107 -0.7840  3.1535  0.0257
11411SOL     OW45161   0.468   5.687   0.045  0.2110 -0.4939 -0.3437
11411SOL    HW145162   0.490   5.606   0.099 -0.9495 -0.1447  0.6864
11411SOL    HW245163   0.396   5.739   0.091  0.9101  1.1105 -1.0040
11412SOL     OW45164   2.802   6.363   4.932 -0.0392  0.3505  0.3514
11412SOL    HW145165   2.880   6.425   4.918  0.5559 -0.6225 -0.6949
11412SOL    HW245166   2.732   6.383   4.864 -0.0934  0.2727  0.3855
11413SOL     OW45167   8.519   4.621   2.007 -0.3750 -0.1996 -0.0637
11413SOL    HW145168   8.601   4.676   2.020 -1.7207  1.5879  0.9356
11413SOL    HW245169   8.473   4.648   1.922  0.1249 -1.3037 -0.7033
11414SOL     OW45170   9.165   5.086   4.095  0.1152  0.7287  0.2284
11414SOL    HW145171   9.219   5.002   4.096 -0.6046  0.2852  1.2714
11414SOL    HW245172   9.191   5.143   4.172  0.0685  1.1383 -0.0562
11415SOL     OW45173   0.774   6.462   0.259  0.4306 -0.0853 -0.1534
11415SOL    HW145174   0.868   6.470   0.226  0.0833  2.0944 -0.6888
11415SOL    HW245175   0.728   6.551   0.250 -0.7200 -0.3112  2.9913
11416SOL     OW45176   2.869   0.512   3.968 -0.3988  0.3541  0.2516
11416SOL    HW145177   2.902   0.460   3.889  0.7933 -0.7237  1.4309
11416SOL    HW245178   2.782   0.472   4.000  0.1250 -0.4524  0.6846
11417SOL     OW45179   9.678   8.176   3.802  0.1465  0.2854 -0.0027
11417SOL    HW145180   9.657   8.201   3.708  0.9660  0.2739 -0.1916
11417SOL    HW245181   9.705   8.257   3.853 -0.0180  0.2477  0.1431
11418SOL     OW45182   4.162   6.167   2.795  0.0615  0.1759  0.4931
11418SOL    HW145183   4.234   6.181   2.727 -0.4243 -1.4418 -0.3950
11418SOL    HW245184   4.136   6.070   2.796 -1.9125  0.6876  0.9901
11419SOL     OW45185   3.194   7.939   0.644 -0.2115 -0.2584  0.4516
11419SOL    HW145186   3.146   8.024   0.621  0.5769 -0.0872 -0.6373
11419SOL    HW245187   3.289   7.947   0.616  0.0508 -1.2149  1.0699
11420SOL     OW45188   9.324   0.408   0.898  0.0350  0.1616  0.9466
11420SOL    HW145189   9.329   0.506   0.877  1.0766 -0.1287 -0.2346
11420SOL    HW245190   9.326   0.395   0.997  0.1840  1.3136  1.1031
11421SOL     OW45191   2.862   5.566   2.610  0.2724 -0.1772 -0.1105
11421SOL    HW145192   2.863   5.625   2.529  1.9199 -0.8414 -0.5901
11421SOL    HW245193   2.798   5.604   2.677  0.6655  1.6753 -0.7464
11422SOL     OW45194   4.015   9.620   3.805  0.1023 -0.4909  0.2295
11422SOL    HW145195   3.920   9.640   3.826  0.4899  1.9563 -0.2080
11422SOL    HW245196   4.020   9.544   3.740 -1.6216  0.4818 -1.0524
11423SOL     OW45197   6.840   7.864   1.407  0.1643 -0.3338  0.3708
11423SOL    HW145198   6.872   7.805   1.482  2.5470 -0.5349 -0.7708
11423SOL    HW245199   6.878   7.955   1.418  0.1134 -0.2245 -0.3429
11424SOL     OW45200   6.457   9.612   4.220  0.1648 -0.2285 -0.1266
11424SOL    HW145201   6.400   9.687   4.255 -0.6956 -1.5273  1.3071
11424SOL    HW245202   6.405   9.527   4.221  1.7482 -1.2221  0.0956
11425SOL     OW45203   3.513   8.341   3.041 -0.3925  0.1555 -0.4101
11425SOL    HW145204   3.598   8.299   3.009  0.7162  2.2841 -0.4059
11425SOL    HW245205   3.529   8.439   3.058 -1.8328 -0.1944  3.4215
11426SOL     OW45206   8.560   3.972   4.865 -0.1264  0.3595  0.3243
11426SOL    HW145207   8.506   3.992   4.783 -0.5694  0.2915  0.5995
11426SOL    HW245208   8.624   4.047   4.881 -0.6533  0.7917  0.4203
11427SOL     OW45209   6.101   6.865   3.421  0.1376  0.3607  0.1895
11427SOL    HW145210   6.108   6.778   3.468  0.0877  0.9842  1.3624
11427SOL    HW245211   6.040   6.926   3.472  1.0873  1.4870  0.0077
11428SOL     OW45212   5.629   0.499   0.936  0.7128  0.1666 -0.3849
11428SOL    HW145213   5.600   0.405   0.918 -1.6051  0.9700 -1.1432
11428SOL    HW245214   5.704   0.524   0.875  0.4631 -0.7848 -1.0850
11429SOL     OW45215   4.431   2.580   1.972  0.0492  0.3613  0.0561
11429SOL    HW145216   4.525   2.587   2.004  0.4149  0.0159 -0.9426
11429SOL    HW245217   4.412   2.652   1.905 -1.1478  1.9771  2.0495
11430SOL     OW45218   9.840   7.117   4.771  0.3997 -0.3786 -0.0144
11430SOL    HW145219   9.807   7.040   4.825 -0.4128 -0.1609 -0.1803
11430SOL    HW245220   9.856   7.196   4.830 -0.4977 -0.1378 -0.0706
11431SOL     OW45221   1.563   5.793   2.825 -0.5853  0.0853 -0.2042
11431SOL    HW145222   1.495   5.772   2.755 -1.4049 -0.2297  0.6753
11431SOL    HW245223   1.536   5.750   2.911  0.2212  0.7747  0.3995
11432SOL     OW45224   4.189   9.545   1.823  0.7111  0.4487  0.0443
11432SOL    HW145225   4.108   9.506   1.867  1.0857 -1.0249 -0.5602
11432SOL    HW245226   4.164   9.629   1.775 -0.1666  0.7716  1.0403
11433SOL     OW45227   6.995   0.858   5.053 -0.4220 -0.5867 -0.0727
11433SOL    HW145228   7.047   0.927   5.001 -1.0677 -0.1711 -0.1676
11433SOL    HW245229   6.964   0.786   4.991 -1.4775  0.0808 -0.3235
11434SOL     OW45230   1.980   6.405   2.464  0.3593  0.1496  0.1653
11434SOL    HW145231   1.913   6.469   2.500  0.5579 -0.1865  1.1384
11434SOL    HW245232   1.933   6.334   2.411  0.1723  1.2837 -1.2240
11435SOL     OW45233   1.988   5.433   5.046  0.1967 -0.1822 -0.2134
11435SOL    HW145234   2.032   5.437   5.136  0.5381 -1.4153 -0.3231
11435SOL    HW245235   2.056   5.448   4.975  0.1219 -0.2921 -0.3087
11436SOL     OW45236   4.107   3.295   2.957  0.0562  0.1456  0.2231
11436SOL    HW145237   4.018   3.262   2.990  0.2275 -0.6686 -0.1400
11436SOL    HW245238   4.167   3.218   2.940 -0.3477  0.4536 -2.9849
11437SOL     OW45239   0.037   0.167   5.445  0.2733 -0.1190  0.6992
11437SOL    HW145240   0.128   0.140   5.415 -0.5457 -0.1561 -1.8521
11437SOL    HW245241  -0.010   0.215   5.371 -1.4207  0.8186  2.3215
11438SOL     OW45242   1.844   7.040   0.177 -0.3668 -0.0676  0.2266
11438SOL    HW145243   1.873   6.954   0.218  0.1814  0.3947  0.8354
11438SOL    HW245244   1.874   7.116   0.236 -1.1165  0.5145 -0.1398
11439SOL     OW45245   1.162   4.911   2.810  0.2536 -0.1445  0.1113
11439SOL    HW145246   1.200   4.943   2.897 -2.7217  0.5062  1.2491
11439SOL    HW245247   1.169   4.984   2.742 -1.4326  0.9770  1.1051
11440SOL     OW45248   1.316   0.335   2.041  0.8694  0.3631  0.0785
11440SOL    HW145249   1.276   0.404   2.101  0.5371  1.0130 -0.8694
11440SOL    HW245250   1.257   0.321   1.962  1.8636  0.3926 -0.6868
11441SOL     OW45251   0.503   6.472   2.970  0.2973 -0.1847 -0.0680
11441SOL    HW145252   0.510   6.431   3.060  1.1684 -0.6204 -0.3307
11441SOL    HW245253   0.487   6.401   2.901 -0.5028  0.1590 -0.2436
11442SOL     OW45254   5.849   9.671   3.886  0.1684 -0.4295 -0.3437
11442SOL    HW145255   5.913   9.734   3.841 -0.3063 -0.2698 -0.7897
11442SOL    HW245256   5.788   9.631   3.819 -0.3566 -0.4051  0.1187
11443SOL     OW45257   4.720   1.692   0.095  0.0293 -0.0703  0.2403
11443SOL    HW145258   4.646   1.742   0.049 -0.6234  2.0491  3.4283
11443SOL    HW245259   4.687   1.603   0.124 -0.7754  0.1917  0.1452
11444SOL     OW45260   7.444   9.804   5.474 -0.3073 -0.0560 -0.2033
11444SOL    HW145261   7.357   9.775   5.433  0.1351  0.3173 -1.4379
11444SOL    HW245262   7.472   9.738   5.544 -0.5259 -1.3064 -1.2830
11445SOL     OW45263   2.842   0.073   4.164  0.5884 -0.2917 -0.1636
11445SOL    HW145264   2.784   0.090   4.244  0.4176  0.4866 -0.4493
11445SOL    HW245265   2.917   0.012   4.190 -0.8003 -1.9379  0.0080
11446SOL     OW45266   2.682   9.052   5.434  0.3513 -0.1045 -0.4467
11446SOL    HW145267   2.716   9.145   5.419  0.6573 -0.6482 -3.5727
11446SOL    HW245268   2.750   8.986   5.401 -0.8026 -1.3806 -0.3305
11447SOL     OW45269   1.193   9.918   4.099 -0.0327 -0.0362  0.0893
11447SOL    HW145270   1.126   9.855   4.138 -1.7784  1.9021  0.3412
11447SOL    HW245271   1.202   9.901   4.001  0.7024 -1.7023  0.4371
11448SOL     OW45272   8.373   8.385   2.680  0.6672 -0.2771  0.1202
11448SOL    HW145273   8.471   8.398   2.663  0.5033 -1.5301 -1.9936
11448SOL    HW245274   8.332   8.471   2.708  2.7055 -0.1224  2.8118
11449SOL     OW45275   3.481   5.194   2.710 -0.2850 -0.0433  0.2319
11449SOL    HW145276   3.409   5.234   2.767 -1.3967 -2.2620  0.4418
11449SOL    HW245277   3.535   5.131   2.764  1.2009  0.8424 -0.1922
11450SOL     OW45278   1.726   1.071   0.389  0.3463  0.1055 -0.2747
11450SOL    HW145279   1.668   1.150   0.408  2.1668  1.3488  0.2560
11450SOL    HW245280   1.741   1.064   0.290 -0.2858  0.0709 -0.3706
11451SOL     OW45281   1.198   2.128   1.142 -0.5078  0.5365 -0.1275
11451SOL    HW145282   1.213   2.063   1.216 -1.2568  0.3275 -0.1480
11451SOL    HW245283   1.285   2.169   1.114 -0.1324  0.0836  0.3777
11452SOL     OW45284   7.906   1.959   2.173  0.3100 -0.4326 -0.1298
11452SOL    HW145285   7.936   1.932   2.081 -1.7357 -0.5852 -0.7899
11452SOL    HW245286   7.951   1.901   2.241  1.1164 -0.9624 -1.0993
11453SOL     OW45287   2.396   9.817   4.589  0.2657  0.3643  0.1196
11453SOL    HW145288   2.438   9.733   4.623 -0.5473  0.5907  1.6979
11453SOL    HW245289   2.343   9.797   4.507 -1.1295 -0.9329  1.3193
11454SOL     OW45290   0.452   8.836   0.833  0.3498 -0.3670 -0.4374
11454SOL    HW145291   0.456   8.933   0.856  1.7105 -0.9102  1.8299
11454SOL    HW245292   0.475   8.824   0.737  0.7025  1.5235 -0.6099
11455SOL     OW45293   1.954   2.848   0.353  0.1662 -0.5092 -0.3409
11455SOL    HW145294   2.025   2.789   0.391  0.2356 -0.1918  0.0260
11455SOL    HW245295   1.866   2.801   0.356  0.5127 -1.2511 -1.6308
11456SOL     OW45296   0.016   8.584   0.067 -1.0627  0.0533 -0.3757
11456SOL    HW145297  -0.048   8.597  -0.008 -1.0320 -0.5528 -0.5104
11456SOL    HW245298  -0.034   8.576   0.153 -1.1323  0.1880 -0.4041
11457SOL     OW45299   1.161   4.749   5.550 -0.7796  0.2739  0.4243
11457SOL    HW145300   1.112   4.832   5.523  1.7428  1.0913 -1.8705
11457SOL    HW245301   1.171   4.689   5.471  1.8655  0.1134  0.8457
11458SOL     OW45302   9.942   1.945   0.233 -0.1114  0.6013 -0.2887
11458SOL    HW145303  10.025   1.890   0.237  1.4330  2.8888  0.3016
11458SOL    HW245304   9.950   2.012   0.159 -1.3396  0.9699 -0.1014
11459SOL     OW45305   2.658   6.751   2.893  0.9534  0.3813 -0.0926
11459SOL    HW145306   2.604   6.667   2.891  2.3145 -0.5001 -1.4780
11459SOL    HW245307   2.649   6.794   2.982 -0.6935 -0.6169  0.2539
11460SOL     OW45308   3.930   6.418   1.480  0.0760  0.0854  0.4454
11460SOL    HW145309   3.970   6.333   1.515  1.8392  0.6287 -0.1936
11460SOL    HW245310   3.836   6.427   1.513  0.2197 -1.6084  1.3543
11461SOL     OW45311   7.419   0.234   2.083 -0.4583 -1.0613  0.3036
11461SOL    HW145312   7.486   0.260   2.014  0.8335 -0.7812  1.6293
11461SOL    HW245313   7.348   0.305   2.089 -0.6460 -1.1529 -0.8065
11462SOL     OW45314   3.875   2.732   3.986  0.9657 -0.4969 -0.6293
11462SOL    HW145315   3.940   2.708   4.058  1.8467 -0.3977 -1.3686
11462SOL    HW245316   3.787   2.688   4.003  1.6438 -1.7763 -0.3432
11463SOL     OW45317   9.097   5.963   2.133 -0.1086 -0.0156  0.1757
11463SOL    HW145318   9.138   5.894   2.074  0.9479 -0.8644  1.8559
11463SOL    HW245319   9.169   6.012   2.182 -0.8223  2.6460 -1.3688
11464SOL     OW45320   7.971   2.119   3.572  0.0266  0.0959  0.1855
11464SOL    HW145321   8.068   2.101   3.555 -0.4354 -1.0497 -1.3957
11464SOL    HW245322   7.950   2.214   3.549  0.5266 -0.0002 -0.7120
11465SOL     OW45323   1.949   4.577   2.043  0.1077 -0.1641 -0.7312
11465SOL    HW145324   2.037   4.530   2.048  0.9242  1.3772 -0.3500
11465SOL    HW245325   1.878   4.519   2.083  1.3815 -0.3814  1.2785
11466SOL     OW45326   2.592   7.838   1.617  0.2035 -0.5827  0.3270
11466SOL    HW145327   2.537   7.855   1.535  0.1974 -1.3842  0.1662
11466SOL    HW245328   2.562   7.899   1.690 -0.1358 -0.2233 -0.1108
11467SOL     OW45329   1.701   5.677   3.973 -0.4871  0.0911 -0.3492
11467SOL    HW145330   1.617   5.680   3.919  0.3407 -0.8066 -1.7245
11467SOL    HW245331   1.722   5.583   3.999  0.7004  0.1495 -1.0199
11468SOL     OW45332   1.552   0.791   1.978  0.5057 -0.1462 -0.0966
11468SOL    HW145333   1.576   0.694   1.985  0.2732 -0.0847  1.9658
11468SOL    HW245334   1.463   0.806   2.021  0.9209  1.1059  0.3494
11469SOL     OW45335   1.498   6.168   2.110  0.3189 -0.0436  0.2094
11469SOL    HW145336   1.579   6.224   2.125  1.7171 -2.1747  0.8544
11469SOL    HW245337   1.416   6.224   2.119  1.6663  1.8625  0.8515
11470SOL     OW45338   9.021   7.228   5.272 -0.6841  0.8551 -0.0614
11470SOL    HW145339   8.971   7.143   5.287  1.6507 -0.4566  0.5989
11470SOL    HW245340   9.027   7.279   5.357  2.1656 -0.7691  0.7978
11471SOL     OW45341   8.794   0.760   4.969 -0.1901 -0.5945  0.4553
11471SOL    HW145342   8.860   0.743   5.043 -0.0068 -1.3891  0.1141
11471SOL    HW245343   8.837   0.817   4.899 -0.7990  1.3239  1.5919
11472SOL     OW45344   2.426   8.231   1.696  0.1652 -0.2441 -0.2714
11472SOL    HW145345   2.369   8.219   1.614  0.1829  0.9925 -0.4618
11472SOL    HW245346   2.403   8.317   1.741 -0.7727 -1.5188  1.7709
11473SOL     OW45347   8.847   4.387   2.134 -0.2502 -0.5424  0.2624
11473SOL    HW145348   8.766   4.387   2.192 -0.8588  1.7042 -0.5721
11473SOL    HW245349   8.903   4.306   2.155 -1.0958 -0.4401  3.0647
11474SOL     OW45350   9.849   2.743   3.573 -0.5804  0.3058 -0.0147
11474SOL    HW145351   9.774   2.707   3.518 -1.5692  1.1650  0.7486
11474SOL    HW245352   9.877   2.832   3.538 -1.2010  0.8453  0.8517
11475SOL     OW45353   9.380   3.394   3.050  0.1256  0.3879  0.3305
11475SOL    HW145354   9.347   3.438   3.133  1.2303 -0.2055  1.0937
11475SOL    HW245355   9.474   3.361   3.064 -0.7792 -2.5193 -0.0855
11476SOL     OW45356   5.420   6.860   1.647 -0.4725  0.7321 -0.0248
11476SOL    HW145357   5.434   6.763   1.630 -0.3847  0.8062 -0.3641
11476SOL    HW245358   5.389   6.905   1.564  1.1058  1.3096 -0.3234
11477SOL     OW45359   2.347   1.244   0.501 -0.5747 -0.1547  0.0107
11477SOL    HW145360   2.298   1.312   0.448  0.1897  0.2422 -0.1934
11477SOL    HW245361   2.446   1.257   0.490 -0.4031 -0.1722  1.3938
11478SOL     OW45362   8.282   6.919   0.936 -0.1270 -0.2446 -0.4817
11478SOL    HW145363   8.317   6.880   0.851 -1.2689 -1.2210 -0.5139
11478SOL    HW245364   8.284   7.019   0.931  2.2081 -0.2729 -0.6587
11479SOL     OW45365   2.554   8.075   1.874 -0.7979 -0.1036  0.0642
11479SOL    HW145366   2.485   8.008   1.900 -0.0045 -0.9132  0.0998
11479SOL    HW245367   2.514   8.141   1.810 -1.1529 -1.4996 -1.1657
11480SOL     OW45368   9.036   6.333   4.620 -0.0374 -0.3652 -0.0899
11480SOL    HW145369   9.062   6.244   4.584  0.1903  0.0332 -0.9200
11480SOL    HW245370   9.092   6.355   4.699  1.6274  0.1397 -1.3889
11481SOL     OW45371   4.541   9.382   0.611 -0.2208  0.6446  0.4448
11481SOL    HW145372   4.564   9.289   0.638  0.6024  0.8747  0.5577
11481SOL    HW245373   4.462   9.414   0.664 -0.1851  0.1996  0.7685
11482SOL     OW45374   3.087   6.359   3.963 -0.0876 -0.3077 -0.3777
11482SOL    HW145375   3.059   6.269   3.996  0.7544 -0.5848 -0.4049
11482SOL    HW245376   3.167   6.390   4.014 -0.5902  0.5961 -0.1138
11483SOL     OW45377   8.827   6.483   2.840  0.3461 -0.1327 -0.0060
11483SOL    HW145378   8.765   6.537   2.784  0.4672  0.4837  0.4423
11483SOL    HW245379   8.892   6.544   2.886  0.3024 -0.6296  0.7269
11484SOL     OW45380   7.623   2.200   1.477  0.0704  0.0566 -0.0523
11484SOL    HW145381   7.657   2.163   1.564 -1.3661  2.4756  1.6011
11484SOL    HW245382   7.528   2.172   1.464 -0.3537  1.3779  0.1667
11485SOL     OW45383   1.608   5.123   0.643  0.0018  0.6694  0.2450
11485SOL    HW145384   1.577   5.204   0.693  0.9442  0.7772  0.6626
11485SOL    HW245385   1.608   5.044   0.705  0.1223  0.5773  0.1267
11486SOL     OW45386   8.366   6.080   2.240 -0.2579  0.0274 -0.2661
11486SOL    HW145387   8.464   6.097   2.227 -0.4517  0.4641 -1.1559
11486SOL    HW245388   8.324   6.160   2.282 -0.8337  1.0968 -2.8303
11487SOL     OW45389   8.599   1.648   0.938 -0.3595  0.4246 -0.2924
11487SOL    HW145390   8.637   1.613   0.853 -1.3141 -0.6532 -0.2806
11487SOL    HW245391   8.633   1.594   1.015 -1.4267 -0.1546 -0.2239
11488SOL     OW45392   9.502   7.992   4.213 -0.1151  0.4595  0.3129
11488SOL    HW145393   9.456   8.066   4.261 -1.7375  0.8040 -1.6887
11488SOL    HW245394   9.437   7.946   4.153  1.2148 -1.6980  0.4772
11489SOL     OW45395   2.573   2.668   0.793 -0.2889  0.5519 -0.0346
11489SOL    HW145396   2.608   2.736   0.728 -0.8109  1.6130  0.7752
11489SOL    HW245397   2.607   2.689   0.884  1.1476 -1.4506 -0.0955
11490SOL     OW45398   1.108   9.214   3.007  1.3671  0.1133 -0.1937
11490SOL    HW145399   1.175   9.267   2.956  0.8350  1.7309  0.7550
11490SOL    HW245400   1.077   9.266   3.087 -2.5991  0.3145 -1.7726
11491SOL     OW45401   5.174   1.068   3.613  0.3773 -0.0057 -0.0192
11491SOL    HW145402   5.097   1.125   3.583  0.7096  0.6668  0.4039
11491SOL    HW245403   5.260   1.114   3.593  0.6265  0.0637  1.1770
11492SOL     OW45404   1.009   6.548   3.749  0.1323 -0.9611  0.3166
11492SOL    HW145405   0.953   6.477   3.792  0.0478 -1.9933 -1.4591
11492SOL    HW245406   0.968   6.576   3.662  1.1619 -0.0663  0.1025
11493SOL     OW45407   0.964   4.523   4.547  0.4747 -0.2366 -0.0234
11493SOL    HW145408   0.983   4.440   4.494 -0.0356 -0.5629  0.3008
11493SOL    HW245409   0.897   4.579   4.498 -2.0378 -1.7982  1.4723
11494SOL     OW45410   7.651   0.332   2.984  0.2579  0.3989  0.0277
11494SOL    HW145411   7.625   0.343   2.889 -1.6521  0.3223  0.5175
11494SOL    HW245412   7.620   0.411   3.037  0.9411  0.2507  0.6668
11495SOL     OW45413   0.680   9.278   2.349  0.3832 -0.2043 -0.3707
11495SOL    HW145414   0.598   9.221   2.349  0.4532 -0.3057 -0.5226
11495SOL    HW245415   0.677   9.341   2.272  1.1305 -1.1921 -1.2129
11496SOL     OW45416   8.317   4.351   1.967  0.1647  0.3713  0.1064
11496SOL    HW145417   8.414   4.346   1.990 -0.4734  0.1336  3.0271
11496SOL    HW245418   8.280   4.439   1.998 -1.1218 -0.6485  1.5274
11497SOL     OW45419   8.318   8.453   1.843 -0.0678 -0.2733 -0.1012
11497SOL    HW145420   8.302   8.392   1.766 -0.8215 -0.2871  0.0621
11497SOL    HW245421   8.277   8.542   1.824 -1.5548 -0.7295  0.8987
11498SOL     OW45422   4.879   4.298   0.382  0.1633  0.2235 -0.1195
11498SOL    HW145423   4.837   4.320   0.470 -0.3005 -2.5829  0.4184
11498SOL    HW245424   4.859   4.370   0.316 -1.0812  1.4427  1.5607
11499SOL     OW45425   8.053   4.928   3.555 -0.4348  0.5017 -0.0387
11499SOL    HW145426   8.141   4.882   3.566 -1.0172 -0.8697 -0.9121
11499SOL    HW245427   8.028   4.931   3.458 -2.2508 -0.8904  0.3528
11500SOL     OW45428   6.251   7.505   3.981  0.1013  0.1730 -0.0255
11500SOL    HW145429   6.280   7.433   4.044 -0.2286 -0.9342 -1.1280
11500SOL    HW245430   6.197   7.465   3.907  0.7609  1.4327 -1.1990
11501SOL     OW45431   3.430   0.174   0.671  0.0770 -0.7604 -0.1714
11501SOL    HW145432   3.361   0.193   0.601 -0.1316 -0.2786  0.1614
11501SOL    HW245433   3.465   0.081   0.658  0.2303 -0.5856 -1.0743
11502SOL     OW45434   9.193   8.305   5.462 -0.0079 -0.0304  0.3209
11502SOL    HW145435   9.271   8.243   5.471  0.5276  0.6862  0.6419
11502SOL    HW245436   9.223   8.399   5.476 -0.7034  0.3614 -0.8056
11503SOL     OW45437   0.676   3.147   5.501  0.1373  0.0078  0.1979
11503SOL    HW145438   0.690   3.169   5.598  0.9225 -0.1259  0.1162
11503SOL    HW245439   0.712   3.056   5.482 -1.8429 -0.8185  0.2171
11504SOL     OW45440   7.522   9.365   3.239 -0.2729  0.0229 -0.3900
11504SOL    HW145441   7.585   9.437   3.211 -0.0871 -0.2837 -0.7611
11504SOL    HW245442   7.494   9.380   3.334  1.6730 -0.7580  0.3430
11505SOL     OW45443   6.905   9.046   3.066  0.3568  0.2764  0.2116
11505SOL    HW145444   7.000   9.036   3.095  1.0795  4.5199 -0.3998
11505SOL    HW245445   6.844   9.019   3.141  2.0828  0.8963  1.8788
11506SOL     OW45446   4.284   1.000   0.881  0.3514  0.1727  0.5310
11506SOL    HW145447   4.270   1.097   0.861 -0.1357  0.3590  1.7125
11506SOL    HW245448   4.201   0.949   0.857  0.9711 -0.1289 -1.0670
11507SOL     OW45449   5.752   9.944   1.795  0.1375 -0.2591  0.3584
11507SOL    HW145450   5.768  10.020   1.859 -0.8762  0.6874 -0.4990
11507SOL    HW245451   5.768   9.858   1.843 -0.6400  0.4308  1.9186
11508SOL     OW45452   9.503   9.682   2.507 -0.1347 -0.2163 -0.1657
11508SOL    HW145453   9.548   9.759   2.553  2.1888 -2.2268  1.0761
11508SOL    HW245454   9.485   9.706   2.411  1.6679  1.4407 -0.1193
11509SOL     OW45455   6.878   8.136   2.130  0.0637 -0.0634  0.2571
11509SOL    HW145456   6.944   8.125   2.055 -1.8366 -1.1132 -1.3349
11509SOL    HW245457   6.795   8.085   2.108 -0.7440  0.0417  2.8834
11510SOL     OW45458   7.026   7.892   3.174  0.1577 -0.3796  0.2352
11510SOL    HW145459   7.055   7.987   3.179 -0.8084 -0.0722  0.1587
11510SOL    HW245460   6.980   7.866   3.260 -1.2574 -0.2004 -0.4479
11511SOL     OW45461   9.987   9.620   0.686  0.3860 -0.5135  0.2428
11511SOL    HW145462  10.057   9.685   0.657  0.1606 -0.4158 -0.0806
11511SOL    HW245463   9.950   9.572   0.607 -0.0399 -0.4347  0.3902
11512SOL     OW45464   7.619   7.826   3.396  0.3244  0.4560 -0.6082
11512SOL    HW145465   7.575   7.788   3.477  0.3502 -1.7562 -1.6012
11512SOL    HW245466   7.634   7.754   3.329  1.4818  2.0085 -2.0730
11513SOL     OW45467   4.094   8.931   0.076 -0.5499 -0.0670  0.1132
11513SOL    HW145468   4.040   8.932   0.161 -0.4633  1.6908  0.1756
11513SOL    HW245469   4.175   8.989   0.088  0.6451 -1.5883 -0.4398
11514SOL     OW45470   5.345   9.859   3.081 -0.2630  0.0114  0.1386
11514SOL    HW145471   5.293   9.845   3.165 -0.4150  2.1827  0.4448
11514SOL    HW245472   5.432   9.904   3.102  0.2503 -0.5447 -0.7371
11515SOL     OW45473   8.416   1.833   1.598 -0.0159 -0.3919  0.2103
11515SOL    HW145474   8.350   1.879   1.539  1.1660 -1.3195 -1.8975
11515SOL    HW245475   8.509   1.857   1.569  0.5981 -2.9799 -0.0205
11516SOL     OW45476   0.105   2.386   1.198  0.4345  0.0835  0.1845
11516SOL    HW145477   0.104   2.350   1.105  2.5376  0.7147 -0.1085
11516SOL    HW245478   0.192   2.363   1.242 -0.7138 -0.5748  2.1493
11517SOL     OW45479   4.146   1.910   2.672  0.2555  0.2993  0.0461
11517SOL    HW145480   4.047   1.906   2.661  0.1434  0.2403  1.0084
11517SOL    HW245481   4.188   1.834   2.622 -0.1501  0.5407 -0.6692
11518SOL     OW45482   2.315   9.298   2.249  0.3674 -0.1165  0.1425
11518SOL    HW145483   2.395   9.247   2.217  0.4586  0.5254 -0.6756
11518SOL    HW245484   2.329   9.395   2.231  0.0962  0.1732  1.4876
11519SOL     OW45485   3.350   5.083   0.465 -0.2632  0.6837  0.3032
11519SOL    HW145486   3.369   5.164   0.519  0.1258  0.6350  0.2392
11519SOL    HW245487   3.410   5.008   0.494  2.7730  1.7733 -2.8749
11520SOL     OW45488   2.325   0.191   3.366 -0.2748 -0.3118 -0.1606
11520SOL    HW145489   2.303   0.094   3.359 -1.1036 -0.2029  0.8041
11520SOL    HW245490   2.268   0.243   3.302 -1.4464 -0.2374  0.9226
11521SOL     OW45491   3.612   6.764   2.284  0.2105  0.2476  0.1375
11521SOL    HW145492   3.664   6.849   2.283  1.5182 -0.5474 -1.3910
11521SOL    HW245493   3.515   6.784   2.270  0.9815  1.2284 -4.6687
11522SOL     OW45494   9.596   5.901   1.119  0.1589 -0.1014 -0.7654
11522SOL    HW145495   9.594   5.856   1.030  0.3986  0.7082 -1.1806
11522SOL    HW245496   9.518   5.870   1.173  0.5739 -1.3628 -0.8743
11523SOL     OW45497   3.687   4.756   2.437 -0.3598  0.4135  0.3312
11523SOL    HW145498   3.742   4.834   2.467 -1.5262  0.3846  2.6880
11523SOL    HW245499   3.748   4.680   2.413  0.6915  1.1522  0.6176
11524SOL     OW45500   2.055   6.302   0.952 -0.2345 -0.2431 -0.2791
11524SOL    HW145501   2.066   6.251   1.037  1.4930 -2.0737 -1.5645
11524SOL    HW245502   1.961   6.293   0.919 -0.6338 -0.3760  0.8528
11525SOL     OW45503   3.794   7.782   0.314  0.3573 -0.1691 -0.4043
11525SOL    HW145504   3.842   7.815   0.396 -2.3131  0.8007  0.8355
11525SOL    HW245505   3.853   7.791   0.235  1.6563  2.5688  0.8004
11526SOL     OW45506   8.037   6.136   4.179  0.1787  0.1159 -0.2217
11526SOL    HW145507   8.026   6.041   4.152 -0.7339  0.4437 -1.0466
11526SOL    HW245508   7.947   6.180   4.181  0.6005  0.9720  0.0967
11527SOL     OW45509   9.966   4.787   1.858 -0.2489  0.3153  0.0300
11527SOL    HW145510   9.992   4.692   1.841  0.0761  0.0758  1.7628
11527SOL    HW245511  10.044   4.846   1.838  0.0152  0.0782  0.3471
11528SOL     OW45512   1.320   4.719   2.670  0.0123 -0.5772 -1.0744
11528SOL    HW145513   1.315   4.621   2.687  0.8234 -0.4550 -0.0395
11528SOL    HW245514   1.262   4.767   2.735  0.5182 -0.3062 -0.8158
11529SOL     OW45515   2.535   6.605   5.178 -0.3854 -0.1327  0.1419
11529SOL    HW145516   2.499   6.630   5.268  1.1878  1.5869  0.3217
11529SOL    HW245517   2.554   6.687   5.126  2.2325 -1.0133 -0.3569
11530SOL     OW45518   4.368   2.293   4.229  0.0941 -0.0708  0.2215
11530SOL    HW145519   4.274   2.263   4.247  1.0692 -2.9274  0.8249
11530SOL    HW245520   4.389   2.372   4.286 -1.7699  0.2771  0.4744
11531SOL     OW45521   8.474   1.633   3.648  0.9680  0.4068  0.4110
11531SOL    HW145522   8.375   1.629   3.631  0.7612  2.8368  0.8296
11531SOL    HW245523   8.498   1.568   3.720 -0.3792  0.0539  0.5541
11532SOL     OW45524   9.843   4.802   4.392 -0.1533 -0.2608  0.1269
11532SOL    HW145525   9.866   4.713   4.431 -0.5514 -1.8379 -3.0176
11532SOL    HW245526   9.927   4.855   4.379  0.2953 -0.8812  0.4679
11533SOL     OW45527   4.284   8.158   2.875  0.0261  0.0795 -0.0042
11533SOL    HW145528   4.381   8.152   2.852 -0.0406 -1.1468 -0.0148
11533SOL    HW245529   4.239   8.226   2.818  1.1832  1.7540  1.0397
11534SOL     OW45530   8.967   1.269   3.463 -0.6506  0.2734 -0.0939
11534SOL    HW145531   8.908   1.333   3.514 -0.9473 -0.4245  0.4478
11534SOL    HW245532   9.008   1.204   3.527 -0.9187 -0.5234 -0.7289
11535SOL     OW45533   3.349   9.322   1.986 -0.3480 -0.3055 -0.0733
11535SOL    HW145534   3.273   9.324   2.051  0.8961 -1.1764  1.4342
11535SOL    HW245535   3.368   9.227   1.960 -0.9165  0.0445 -1.8171
11536SOL     OW45536   0.421   7.841   1.177 -0.1793 -0.3390  0.4822
11536SOL    HW145537   0.493   7.820   1.243 -1.7397 -1.7227  1.7488
11536SOL    HW245538   0.377   7.927   1.202  1.3788  0.8284 -0.6327
11537SOL     OW45539   7.689   7.637   3.175 -0.1453  0.0563 -0.1455
11537SOL    HW145540   7.765   7.586   3.216 -0.2855  0.0771  0.1357
11537SOL    HW245541   7.606   7.581   3.176  0.1528 -0.4554 -1.5920
11538SOL     OW45542   5.167   7.786   1.706 -0.2209 -0.2378 -0.4335
11538SOL    HW145543   5.150   7.688   1.715 -0.0486 -0.2826 -0.5886
11538SOL    HW245544   5.228   7.817   1.779  0.4709 -0.4300 -0.9287
11539SOL     OW45545   9.827   5.303   2.298  0.2623 -0.1815  0.2659
11539SOL    HW145546   9.798   5.393   2.268  0.0320 -0.7558 -1.2764
11539SOL    HW245547   9.785   5.282   2.386 -1.4418  0.3053 -0.4157
11540SOL     OW45548   0.908   3.655   1.671 -0.3378  0.0643 -0.2230
11540SOL    HW145549   0.900   3.562   1.634  0.5271 -0.2045  0.2472
11540SOL    HW245550   0.948   3.651   1.763  0.8817  0.9887 -0.6976
11541SOL     OW45551   0.409   4.439   1.207 -0.1562  0.0028 -0.2935
11541SOL    HW145552   0.318   4.440   1.248  0.2083 -3.4260  0.7921
11541SOL    HW245553   0.464   4.513   1.245 -1.6984  0.4908  0.9995
11542SOL     OW45554   8.309   7.477   0.622 -0.3917  0.1012 -0.6842
11542SOL    HW145555   8.390   7.443   0.576 -0.2155  1.1628 -1.1637
11542SOL    HW245556   8.335   7.541   0.694 -0.6974 -1.1026  0.5388
11543SOL     OW45557   4.775   3.122   1.364  0.4566  0.4037  0.0990
11543SOL    HW145558   4.792   3.192   1.433  0.1007 -0.2345  0.8334
11543SOL    HW245559   4.745   3.166   1.279 -1.1501  1.0567  0.9821
11544SOL     OW45560   0.923   3.621   2.720 -0.4241  0.3033 -0.2453
11544SOL    HW145561   0.878   3.584   2.801  0.6605 -0.2017  0.1380
11544SOL    HW245562   0.941   3.546   2.656  0.2349  0.4443 -0.2226
11545SOL     OW45563   0.846   1.346   4.210 -0.1722 -0.1205  0.5207
11545SOL    HW145564   0.863   1.306   4.120  0.3088 -0.6476  0.8433
11545SOL    HW245565   0.771   1.297   4.254  0.4252 -0.6717  0.9211
11546SOL     OW45566   4.291   2.395   2.399  0.0848 -0.2893 -0.4226
11546SOL    HW145567   4.200   2.395   2.358 -0.9751 -0.4448  1.8187
11546SOL    HW245568   4.356   2.352   2.337 -1.6086 -1.2163 -1.5873
11547SOL     OW45569   3.316   4.840   0.178 -0.4611  0.3520 -0.3912
11547SOL    HW145570   3.404   4.801   0.152 -1.8847 -2.4314 -1.1757
11547SOL    HW245571   3.327   4.939   0.194  2.5004  0.2874 -1.6982
11548SOL     OW45572   1.820   0.328   2.325  0.5284 -0.6214  0.0873
11548SOL    HW145573   1.725   0.345   2.296  0.5559 -0.8612 -0.1492
11548SOL    HW245574   1.820   0.271   2.407  0.4789 -1.1955 -0.3038
11549SOL     OW45575   3.176   9.422   1.510  0.0575  0.3656  0.2689
11549SOL    HW145576   3.135   9.450   1.597  1.0755 -0.2136  0.9495
11549SOL    HW245577   3.138   9.478   1.436 -2.3369 -0.5299  0.7844
11550SOL     OW45578   0.783   0.531   5.355 -0.0608  0.0682  0.4829
11550SOL    HW145579   0.816   0.436   5.355 -1.5999 -0.4992 -1.1727
11550SOL    HW245580   0.782   0.566   5.261 -1.9663  0.8343  0.7730
11551SOL     OW45581   7.532   0.983   0.860 -0.4316 -0.1632 -0.1141
11551SOL    HW145582   7.565   0.988   0.954  0.6547 -1.2606 -0.4245
11551SOL    HW245583   7.495   1.072   0.833 -1.2061  0.0300  1.5036
11552SOL     OW45584   1.306   7.831   4.349  0.6882  0.7585 -0.4420
11552SOL    HW145585   1.354   7.919   4.354 -1.6860  1.9597  1.8892
11552SOL    HW245586   1.367   7.758   4.380  2.1070  1.8099 -0.7135
11553SOL     OW45587   0.173   5.207   4.108  0.5157  0.4118  0.0176
11553SOL    HW145588   0.269   5.222   4.131  0.7658 -0.3761 -0.4889
11553SOL    HW245589   0.166   5.133   4.042 -0.3891  0.9524 -0.5018
11554SOL     OW45590   7.725   8.416   4.440 -0.6388 -0.1063 -0.1890
11554SOL    HW145591   7.725   8.482   4.515  0.2985  0.4898 -0.6979
11554SOL    HW245592   7.632   8.404   4.406 -0.8120  0.9946 -0.1238
11555SOL     OW45593   7.886   1.830   0.544  0.5627 -0.0676 -0.1340
11555SOL    HW145594   7.883   1.850   0.642  0.6749 -1.7217  0.2113
11555SOL    HW245595   7.799   1.792   0.514  1.9794 -3.8605  0.2968
11556SOL     OW45596   3.165   2.303   2.832  0.4391 -0.3376  0.4910
11556SOL    HW145597   3.190   2.254   2.916  1.0963  1.4463  1.3843
11556SOL    HW245598   3.110   2.244   2.773 -1.0687 -1.2495  2.7319
11557SOL     OW45599   1.863   8.268   0.887  0.0820  0.3790  0.6375
11557SOL    HW145600   1.873   8.170   0.900 -1.3520  0.2712  0.9845
11557SOL    HW245601   1.935   8.300   0.825  0.5937 -0.8676  0.5615
11558SOL     OW45602   4.491   8.256   2.641  0.2776 -0.0343 -0.1032
11558SOL    HW145603   4.533   8.204   2.716 -0.3484 -0.8433 -0.3108
11558SOL    HW245604   4.517   8.215   2.554 -2.3002 -1.6273 -0.1932
11559SOL     OW45605   8.263   6.083   4.821 -0.3636 -0.1123 -0.0679
11559SOL    HW145606   8.206   6.082   4.904  1.2499  1.5903  1.0938
11559SOL    HW245607   8.356   6.057   4.844  0.8170  3.1961 -0.7375
11560SOL     OW45608   7.761   6.030   5.334  0.0678  0.6918 -0.1875
11560SOL    HW145609   7.835   6.068   5.389 -1.3662  1.4415  1.2709
11560SOL    HW245610   7.729   6.098   5.269  0.5755  0.4159 -0.7229
11561SOL     OW45611   0.521   1.116   3.667  0.3400 -0.3109 -0.0336
11561SOL    HW145612   0.471   1.030   3.676 -0.5862  0.2564  0.3609
11561SOL    HW245613   0.477   1.173   3.597 -0.3633  0.7328  1.2321
11562SOL     OW45614   9.625   4.572   5.550 -0.1721 -0.0636 -0.1794
11562SOL    HW145615   9.641   4.643   5.481 -0.9211 -1.0029 -1.3374
11562SOL    HW245616   9.628   4.482   5.507  1.9560 -0.8173  1.4976
11563SOL     OW45617   9.276   8.923   4.130 -0.6548  0.1840  0.0705
11563SOL    HW145618   9.303   9.002   4.075 -0.6086 -0.3349 -0.6588
11563SOL    HW245619   9.266   8.951   4.226  2.5600  0.3904  0.4099
11564SOL     OW45620   2.287   3.309   4.397 -1.0405  0.6325  0.1441
11564SOL    HW145621   2.382   3.313   4.366 -1.0309 -0.9177 -0.0606
11564SOL    HW245622   2.284   3.298   4.496 -0.9994  0.3361  0.1124
11565SOL     OW45623   7.730   5.448   0.476 -0.0279  0.7525  0.5192
11565SOL    HW145624   7.691   5.393   0.550 -0.3557 -0.2079 -0.3427
11565SOL    HW245625   7.793   5.515   0.513  1.9537 -1.5445  1.4732
11566SOL     OW45626   7.483   9.101   0.435 -0.2206  0.1639  0.3575
11566SOL    HW145627   7.562   9.115   0.377 -1.0390 -1.0016 -1.0745
11566SOL    HW245628   7.506   9.123   0.530  1.3731  1.2232 -0.2719
11567SOL     OW45629   2.523   1.701   5.380  0.0633 -0.4770 -0.1552
11567SOL    HW145630   2.575   1.615   5.379 -1.0206 -1.1559  0.6001
11567SOL    HW245631   2.429   1.682   5.408 -0.5249  0.7814 -1.2383
11568SOL     OW45632   3.079   3.842   4.477 -0.5490  0.3586 -0.2846
11568SOL    HW145633   2.986   3.870   4.500 -1.4139 -0.7608 -2.2671
11568SOL    HW245634   3.083   3.816   4.380  2.1159  1.6194 -0.5682
11569SOL     OW45635   8.168   3.687   0.927  0.0198 -0.1479 -0.1495
11569SOL    HW145636   8.116   3.726   0.851  0.0497  1.2985  0.5472
11569SOL    HW245637   8.233   3.755   0.962 -0.7755 -0.3688  1.8727
11570SOL     OW45638   9.516   5.123   4.753 -0.0731  0.0509  0.2290
11570SOL    HW145639   9.538   5.027   4.769 -3.2290 -0.6618  0.6414
11570SOL    HW245640   9.548   5.178   4.831 -0.4301 -1.0129  1.1371
11571SOL     OW45641   9.838   3.836   3.257  0.5817  0.3155 -0.3933
11571SOL    HW145642   9.898   3.804   3.330  0.8805  1.3446 -0.1846
11571SOL    HW245643   9.750   3.790   3.264  0.7908  0.0157  0.2915
11572SOL     OW45644   4.610   5.236   1.346 -0.6045  0.2334  0.2006
11572SOL    HW145645   4.707   5.248   1.365 -0.5965 -1.1256  1.0491
11572SOL    HW245646   4.567   5.326   1.337  0.8056  0.8454 -0.6244
11573SOL     OW45647   0.839   4.063   3.576  0.0937 -0.2207 -0.2175
11573SOL    HW145648   0.829   4.031   3.482 -0.4681  0.2577 -0.3242
11573SOL    HW245649   0.890   4.149   3.577 -0.2296 -0.0283 -0.1216
11574SOL     OW45650   4.367   9.422   2.101  0.2719  0.2872  0.3054
11574SOL    HW145651   4.297   9.437   2.030  0.0140 -1.0566  0.2718
11574SOL    HW245652   4.369   9.501   2.162  1.1661  1.8983 -1.7476
11575SOL     OW45653   9.795   0.334   0.790  0.1062 -0.2697  0.1320
11575SOL    HW145654   9.854   0.415   0.795  0.3575 -0.4133 -0.3837
11575SOL    HW245655   9.700   0.363   0.779  0.1733 -0.0412  0.1442
11576SOL     OW45656   7.867   9.860   4.678 -0.0843 -0.0472  0.1393
11576SOL    HW145657   7.864   9.765   4.648 -1.5020  0.9675 -3.1326
11576SOL    HW245658   7.944   9.906   4.634 -1.6147  1.2358 -1.2531
11577SOL     OW45659   6.747   8.127   4.294 -0.5450 -0.0944 -0.3876
11577SOL    HW145660   6.721   8.184   4.216 -3.8007 -0.1672  0.6037
11577SOL    HW245661   6.765   8.034   4.262  0.5608  0.4468 -1.3804
11578SOL     OW45662   3.004   3.374   2.352  0.5819  0.0721 -0.0380
11578SOL    HW145663   2.942   3.296   2.344  2.1682 -1.2469  0.2289
11578SOL    HW245664   3.065   3.376   2.273  1.3987  0.2892  0.5946
11579SOL     OW45665   4.555   3.658   0.459 -0.0750  0.6343  0.1354
11579SOL    HW145666   4.603   3.735   0.501 -0.1751  0.8853 -0.2123
11579SOL    HW245667   4.502   3.610   0.530  3.8305 -2.0806  1.3666
11580SOL     OW45668   9.665   4.245   4.613  0.5322  0.1599 -1.1370
11580SOL    HW145669   9.702   4.303   4.541  1.1397 -1.3032 -2.0131
11580SOL    HW245670   9.719   4.257   4.696 -0.0352  1.6799 -0.9569
11581SOL     OW45671   1.615   6.095   2.928  0.1049  0.4774  0.0951
11581SOL    HW145672   1.541   6.154   2.959 -0.7015 -1.2998  1.6483
11581SOL    HW245673   1.578   6.006   2.902  1.3505  0.4794 -1.8660
11582SOL     OW45674   6.486   0.696   4.833  0.4039 -0.4844 -0.7681
11582SOL    HW145675   6.544   0.619   4.859 -0.6032 -1.3138 -0.9442
11582SOL    HW245676   6.491   0.709   4.734  1.2543  0.2320 -0.6301
11583SOL     OW45677   2.807   6.928   3.671 -0.3582 -0.1084 -0.2922
11583SOL    HW145678   2.893   6.882   3.692 -1.1914 -1.0914  1.0244
11583SOL    HW245679   2.805   7.018   3.716  0.0028 -0.0491 -0.3921
11584SOL     OW45680   5.980   8.095   2.811  0.2207  0.2537  0.2315
11584SOL    HW145681   5.962   8.158   2.736 -0.0020 -1.3478 -1.0781
11584SOL    HW245682   6.079   8.089   2.826  0.2547  0.7413  0.2189
11585SOL     OW45683   8.288   9.904   4.505  0.3676 -0.3993  0.3968
11585SOL    HW145684   8.274   9.854   4.420  0.0526  1.5578 -0.7459
11585SOL    HW245685   8.343   9.849   4.568  2.0401 -1.2020 -1.7026
11586SOL     OW45686   7.048   7.582   2.107  0.0255 -0.2184 -0.6243
11586SOL    HW145687   7.037   7.646   2.182 -0.3992 -0.3534 -0.5658
11586SOL    HW245688   7.067   7.491   2.143  1.1684 -0.0166 -0.7259
11587SOL     OW45689   3.743   2.759   1.824 -0.2921 -0.5093  0.3757
11587SOL    HW145690   3.750   2.751   1.923  0.4228  1.3723  0.4935
11587SOL    HW245691   3.835   2.767   1.785 -0.5113 -2.2371 -0.5453
11588SOL     OW45692   3.701   3.602   1.269  0.6652 -0.2115  0.1251
11588SOL    HW145693   3.756   3.565   1.343  2.5744  1.0966 -0.6043
11588SOL    HW245694   3.643   3.530   1.230 -0.4554 -0.8906  2.9266
11589SOL     OW45695   9.881   5.827   1.055 -0.0296  0.0199  0.4196
11589SOL    HW145696   9.930   5.894   1.001  1.1393  1.2508  2.9099
11589SOL    HW245697   9.785   5.855   1.065 -0.0741  0.1491 -0.3715
11590SOL     OW45698   0.181   7.717   1.921  0.5288  0.0336 -0.5204
11590SOL    HW145699   0.233   7.717   2.007 -0.4232 -1.9821  0.0915
11590SOL    HW245700   0.183   7.808   1.881  1.2537  0.9347  1.4910
11591SOL     OW45701   0.166   9.264   2.813  0.3323  0.1186  0.5899
11591SOL    HW145702   0.109   9.186   2.837  0.5848 -0.4171 -0.5235
11591SOL    HW245703   0.108   9.344   2.796 -0.1885 -0.6554 -1.4491
11592SOL     OW45704   9.424   7.476   1.772 -0.1634 -0.3809  0.4311
11592SOL    HW145705   9.368   7.469   1.854 -1.8764 -1.2980 -0.7908
11592SOL    HW245706   9.476   7.392   1.759  1.0338  0.2186  1.2011
11593SOL     OW45707   8.756   6.371   1.564 -0.0475  0.0318 -0.7438
11593SOL    HW145708   8.720   6.285   1.601  0.1470  0.2831  0.0504
11593SOL    HW245709   8.733   6.446   1.627  2.0918  0.1535 -0.0614
11594SOL     OW45710   4.414   7.592   1.284  0.3079  0.5406 -0.1120
11594SOL    HW145711   4.490   7.645   1.321 -0.3065 -0.3878  2.5991
11594SOL    HW245712   4.442   7.497   1.270  0.3424  0.7386 -1.4677
11595SOL     OW45713   4.251   2.769   0.214  0.6698 -0.4506  0.1126
11595SOL    HW145714   4.260   2.868   0.228  1.2425 -0.2362 -1.7159
11595SOL    HW245715   4.171   2.736   0.265  0.1282  1.0532  0.2726
11596SOL     OW45716   7.557   3.681   0.637  0.4320  0.1507  0.7794
11596SOL    HW145717   7.552   3.590   0.677 -0.1768  0.2509  0.9265
11596SOL    HW245718   7.652   3.701   0.613  0.5865 -0.4716  0.8612
11597SOL     OW45719   8.414   0.700   2.438  0.0112 -0.2620 -0.1910
11597SOL    HW145720   8.497   0.755   2.449 -0.5910  0.5926  0.1548
11597SOL    HW245721   8.439   0.604   2.426  1.0701  0.0553 -0.6090
11598SOL     OW45722   3.701   9.539   0.503 -0.4101 -0.4822  0.0824
11598SOL    HW145723   3.667   9.448   0.526  1.1640 -1.2248 -0.5146
11598SOL    HW245724   3.738   9.539   0.410  3.0448 -0.2267  1.3850
11599SOL     OW45725   2.516   0.901   2.350  0.4758  0.3905 -0.1938
11599SOL    HW145726   2.547   0.929   2.259  0.5688  0.3466 -0.1755
11599SOL    HW245727   2.587   0.847   2.394  0.1068 -0.2938 -0.4220
11600SOL     OW45728   1.627   3.162   0.090  0.0846  0.3879 -0.1837
11600SOL    HW145729   1.598   3.067   0.078 -0.5774  0.2816  2.0109
11600SOL    HW245730   1.687   3.169   0.170 -2.5438  2.2944  1.7240
11601SOL     OW45731   3.548   1.825   2.619  1.0187 -0.3925  0.4647
11601SOL    HW145732   3.489   1.752   2.652 -0.8416 -0.1618 -2.1907
11601SOL    HW245733   3.495   1.910   2.614  2.4960  0.5807  1.1833
11602SOL     OW45734   3.685   8.168   0.524  0.7544  0.2265 -0.3013
11602SOL    HW145735   3.670   8.215   0.610 -0.2527 -1.7087  0.5990
11602SOL    HW245736   3.745   8.223   0.466  0.1729  2.2584  0.9966
11603SOL     OW45737   8.453   0.184   4.273 -0.3983 -0.3268 -0.0998
11603SOL    HW145738   8.524   0.117   4.252 -0.3655  0.2434 -1.9700
11603SOL    HW245739   8.491   0.255   4.332  0.4480 -0.3125 -0.6527
11604SOL     OW45740   1.155   5.101   4.579 -0.3377  0.0063  0.2417
11604SOL    HW145741   1.247   5.132   4.603 -1.1761  2.3847  0.4680
11604SOL    HW245742   1.129   5.136   4.489 -1.0121 -0.6914  0.1545
11605SOL     OW45743   3.182   5.506   0.559  0.4942 -0.4245 -0.6123
11605SOL    HW145744   3.212   5.600   0.576  0.9703 -0.7914  0.6512
11605SOL    HW245745   3.097   5.489   0.609  1.0816 -1.0503  0.1706
11606SOL     OW45746   8.354   6.481   1.867 -0.1038  0.0229  0.2383
11606SOL    HW145747   8.354   6.381   1.856 -0.2315  0.0705 -0.2121
11606SOL    HW245748   8.438   6.518   1.830 -0.1104  0.0945  0.2959
11607SOL     OW45749   2.895   3.468   1.360  0.2302  0.3990 -0.6347
11607SOL    HW145750   2.812   3.413   1.363  0.6033 -0.1794 -0.7405
11607SOL    HW245751   2.885   3.548   1.419  0.1038 -0.3839  0.4207
11608SOL     OW45752   1.342   1.521   1.818 -0.0966  0.1854  1.1400
11608SOL    HW145753   1.438   1.504   1.842 -0.3131  0.3813  2.1771
11608SOL    HW245754   1.321   1.475   1.732  0.3523 -1.6617  1.9844
11609SOL     OW45755   9.504   0.864   0.834  0.5432  0.3593  0.1659
11609SOL    HW145756   9.529   0.935   0.901 -1.1603  0.5390  0.6546
11609SOL    HW245757   9.483   0.907   0.746  2.5562  0.1455 -0.4317
11610SOL     OW45758   5.554   0.462   1.900  0.3582  0.0544  0.7028
11610SOL    HW145759   5.522   0.536   1.840  0.9641 -0.2956 -0.0665
11610SOL    HW245760   5.481   0.395   1.913  0.1585  0.2326  0.5027
11611SOL     OW45761   9.537   5.513   5.042 -0.0533  0.1055  0.1441
11611SOL    HW145762   9.580   5.423   5.041 -0.8214 -0.3043  1.6973
11611SOL    HW245763   9.438   5.503   5.051 -0.1228  1.1014  0.6587
11612SOL     OW45764   1.256   0.903   5.162 -0.3038 -0.0933  0.2441
11612SOL    HW145765   1.217   0.834   5.223 -0.4219 -1.4279 -1.2878
11612SOL    HW245766   1.251   0.870   5.067 -0.3050  2.0013 -0.5170
11613SOL     OW45767   9.399   3.233   0.419 -0.8927  0.2527 -0.7033
11613SOL    HW145768   9.417   3.324   0.384  1.4432 -0.1280 -0.5649
11613SOL    HW245769   9.384   3.237   0.518 -1.3011  0.5407 -0.7770
11614SOL     OW45770   7.408   5.088   4.944 -0.3087  0.0159  0.2559
11614SOL    HW145771   7.359   5.009   4.982 -0.5505 -0.5701 -1.2383
11614SOL    HW245772   7.342   5.154   4.909 -0.0888  0.6574  1.0136
11615SOL     OW45773   0.540   1.614   4.438  0.2792  0.4593  0.1613
11615SOL    HW145774   0.629   1.570   4.437  0.6849  1.2505  1.3995
11615SOL    HW245775   0.511   1.632   4.343  1.9797  1.3183 -0.2114
11616SOL     OW45776   9.765   6.470   2.006  0.4963  0.1512 -0.0079
11616SOL    HW145777   9.734   6.486   2.100 -0.4379  2.1796 -0.6210
11616SOL    HW245778   9.771   6.372   1.989  0.3065 -0.2467  2.0459
11617SOL     OW45779   7.178   9.101   3.151 -0.0951 -0.5151  0.6345
11617SOL    HW145780   7.138   9.163   3.219  0.9543 -0.5832  1.3265
11617SOL    HW245781   7.216   9.155   3.076  0.3136 -0.3512  0.9590
11618SOL     OW45782   8.428   8.042   1.081  0.1758 -0.5767  0.0388
11618SOL    HW145783   8.435   8.130   1.128 -0.9818 -0.8851  0.7970
11618SOL    HW245784   8.503   8.034   1.015 -0.9989  1.9569 -1.6768
11619SOL     OW45785   9.936   5.279   0.392 -0.6774  0.2819  0.6130
11619SOL    HW145786   9.928   5.371   0.355  0.0908 -0.1853 -0.7264
11619SOL    HW245787  10.016   5.273   0.452 -0.8218  0.5221  0.8305
11620SOL     OW45788   7.185   8.551   3.428 -0.0328  0.4874  0.3871
11620SOL    HW145789   7.276   8.561   3.469 -0.2975  0.6735  0.9436
11620SOL    HW245790   7.162   8.635   3.378 -0.2739  0.7951  1.0137
11621SOL     OW45791   6.894   7.637   3.429 -0.0330  0.2699 -0.6133
11621SOL    HW145792   6.910   7.568   3.500 -0.8368  0.3993 -0.3005
11621SOL    HW245793   6.868   7.723   3.471 -0.7202  0.2907 -1.0680
11622SOL     OW45794   4.626   4.876   1.172 -0.0826 -0.1365 -0.7534
11622SOL    HW145795   4.632   4.880   1.272 -0.6083 -0.9530 -0.6896
11622SOL    HW245796   4.532   4.892   1.143  0.0176 -0.1795 -1.1061
11623SOL     OW45797   4.082   9.918   5.567  0.4731  0.1242  0.0699
11623SOL    HW145798   4.101  10.006   5.612 -0.0175  0.0855  0.3606
11623SOL    HW245799   4.067   9.848   5.637  0.7802 -0.1724 -0.1617
11624SOL     OW45800   1.897   1.286   2.247 -0.0591 -0.1416 -0.0533
11624SOL    HW145801   1.968   1.306   2.180  0.3271 -0.6923  0.1875
11624SOL    HW245802   1.850   1.370   2.272  0.7620  0.2846  0.0698
11625SOL     OW45803   1.460   4.787   4.686 -0.2314  0.1977  0.1691
11625SOL    HW145804   1.499   4.696   4.680 -0.7418 -0.0383  0.4091
11625SOL    HW245805   1.422   4.813   4.597 -1.5872 -0.5008  0.5425
11626SOL     OW45806   2.312   6.020   0.370  0.5162  0.2671  0.4697
11626SOL    HW145807   2.266   5.941   0.328 -0.0557  1.4981 -1.2831
11626SOL    HW245808   2.411   6.003   0.374  0.3605 -0.6813  0.4485
11627SOL     OW45809   2.884   3.454   5.312  0.2101  0.2914  0.2272
11627SOL    HW145810   2.828   3.432   5.232  1.0458  1.7291 -0.7673
11627SOL    HW245811   2.937   3.373   5.338 -1.1079 -0.5926  0.1934
11628SOL     OW45812   1.851   7.544   4.728 -0.6249 -0.0942  0.4710
11628SOL    HW145813   1.850   7.637   4.765  3.5301 -0.7651  2.5746
11628SOL    HW245814   1.838   7.478   4.802  0.4398 -1.2639 -0.3596
11629SOL     OW45815   0.565   3.513   0.084  0.5079  0.1360 -0.1441
11629SOL    HW145816   0.592   3.529  -0.011 -1.3424  0.3214 -0.6581
11629SOL    HW245817   0.471   3.544   0.098  0.5806 -0.3622  1.6246
11630SOL     OW45818   8.632   9.148   5.108 -0.0341 -0.0581 -0.9371
11630SOL    HW145819   8.690   9.213   5.158 -0.5495  0.4432 -0.9802
11630SOL    HW245820   8.690   9.083   5.059  0.4894  0.4929 -1.0551
11631SOL     OW45821   0.875   3.878   0.255 -0.5357  0.1036  0.0803
11631SOL    HW145822   0.798   3.816   0.241 -0.9221  0.5172  0.3832
11631SOL    HW245823   0.956   3.841   0.209 -0.9972 -0.1648 -0.5231
11632SOL     OW45824   8.835   9.311   3.687 -0.0615  0.3175 -0.3229
11632SOL    HW145825   8.808   9.407   3.697 -1.2135 -0.1157  0.8664
11632SOL    HW245826   8.934   9.303   3.700 -0.1295  1.1860  0.8824
11633SOL     OW45827   3.895   7.731   2.608 -0.6252  0.4604  0.2275
11633SOL    HW145828   3.841   7.663   2.557  1.2808 -0.7457 -0.2323
11633SOL    HW245829   3.967   7.767   2.549  0.4971  0.3522  1.5072
11634SOL     OW45830   8.466   6.456   2.230  0.0478  0.5312 -0.2601
11634SOL    HW145831   8.374   6.480   2.199 -0.0251 -0.5218 -0.8846
11634SOL    HW245832   8.460   6.382   2.297  0.5947 -1.4795 -2.3620
11635SOL     OW45833   9.845   8.262   0.354 -0.3659 -0.0147  0.2360
11635SOL    HW145834   9.752   8.299   0.359 -0.7087 -0.8607  0.1023
11635SOL    HW245835   9.884   8.257   0.446 -1.5245 -2.3878  0.6330
11636SOL     OW45836   3.830   1.252   5.146  0.3323  0.2755  0.4220
11636SOL    HW145837   3.781   1.202   5.218  0.5530 -0.7149 -0.1127
11636SOL    HW245838   3.882   1.188   5.091  0.1841  1.0399 -0.6171
11637SOL     OW45839   0.783   3.151   0.863  0.0052  0.3361  0.1924
11637SOL    HW145840   0.691   3.175   0.833  0.1889 -0.4182 -0.9945
11637SOL    HW245841   0.832   3.233   0.890 -1.0983  0.7132  1.0788
11638SOL     OW45842   7.725   4.245   0.652 -0.4516  0.0177 -0.4698
11638SOL    HW145843   7.676   4.332   0.653 -0.7443 -0.0648 -2.8855
11638SOL    HW245844   7.659   4.170   0.645 -0.1204 -0.2702 -0.5059
11639SOL     OW45845   0.581   9.388   2.709  0.1656 -0.1909 -0.5518
11639SOL    HW145846   0.505   9.344   2.661  1.0319  0.1266 -2.2453
11639SOL    HW245847   0.666   9.340   2.689  0.2750 -1.3210  2.3536
11640SOL     OW45848   8.850   1.807   2.394  0.1446 -0.1854 -0.6548
11640SOL    HW145849   8.775   1.749   2.426  1.3219 -0.6765  1.2841
11640SOL    HW245850   8.849   1.810   2.294 -2.0061 -0.7740 -0.6725
11641SOL     OW45851   8.308   7.483   4.213 -0.5349 -0.7374 -0.4136
11641SOL    HW145852   8.306   7.383   4.210  1.6246 -0.7854 -1.6102
11641SOL    HW245853   8.338   7.518   4.125  0.6451  0.8817  0.6094
11642SOL     OW45854   3.296   0.697   3.136 -0.0349  0.9187  0.4982
11642SOL    HW145855   3.338   0.786   3.122 -0.0845  0.4579 -3.2101
11642SOL    HW245856   3.339   0.630   3.075 -1.3285 -1.1609  1.7984
11643SOL     OW45857   7.913   6.245   3.832 -0.1925 -0.1632  0.9320
11643SOL    HW145858   7.997   6.265   3.882  0.1463  1.0500 -0.1017
11643SOL    HW245859   7.839   6.304   3.864  0.0453  0.6719 -0.0237
11644SOL     OW45860   9.305   9.291   1.360  0.4139 -0.3728  0.0954
11644SOL    HW145861   9.323   9.370   1.419  0.9578 -0.2070 -0.2905
11644SOL    HW245862   9.385   9.231   1.360  0.5006 -0.2665 -0.6289
11645SOL     OW45863   2.447   0.152   2.548 -0.1757 -0.4406 -0.4757
11645SOL    HW145864   2.488   0.157   2.457  1.0497  0.8049  0.1232
11645SOL    HW245865   2.348   0.162   2.540  0.0903  1.7666 -1.5167
11646SOL     OW45866   4.259   2.239   2.844  0.4283  0.7706 -0.5221
11646SOL    HW145867   4.331   2.214   2.909  0.2365  0.0619 -0.5775
11646SOL    HW245868   4.300   2.289   2.767  0.6473  1.6517  0.1534
11647SOL     OW45869   9.749   3.651   2.329 -0.4484  0.1480 -0.1102
11647SOL    HW145870   9.681   3.582   2.307  0.6687 -1.2914  0.8997
11647SOL    HW245871   9.840   3.617   2.306  0.1715  1.0264  1.0030
11648SOL     OW45872   8.582   4.771   3.661  0.0258 -0.1269  0.0574
11648SOL    HW145873   8.562   4.717   3.579 -0.1007  0.0435 -0.0235
11648SOL    HW245874   8.558   4.866   3.646 -1.0029 -0.2802  0.6589
11649SOL     OW45875   4.315   9.959   2.707 -0.3766 -0.1575  0.2308
11649SOL    HW145876   4.223   9.970   2.671 -0.8606  0.1130  1.5145
11649SOL    HW245877   4.314   9.973   2.806  1.2168  0.8383  0.1275
11650SOL     OW45878   0.854   6.214   5.315  0.5082 -0.6876  0.0809
11650SOL    HW145879   0.952   6.197   5.304  0.6410 -0.7534  1.3553
11650SOL    HW245880   0.840   6.296   5.369 -0.1510  0.2778 -1.5185
11651SOL     OW45881   3.470   6.996   0.838  0.2597 -0.0644  0.2134
11651SOL    HW145882   3.476   6.900   0.864  1.3117  0.0795  0.5212
11651SOL    HW245883   3.409   7.005   0.759 -0.7071 -0.8389  0.8657
11652SOL     OW45884   5.540   9.867   3.353  0.1797 -0.1590  0.4619
11652SOL    HW145885   5.453   9.826   3.383  0.8231 -0.6961  1.6601
11652SOL    HW245886   5.616   9.812   3.389  1.0014 -0.4309 -1.6622
11653SOL     OW45887   2.913   9.108   1.545 -0.1273 -0.3053  0.8205
11653SOL    HW145888   2.819   9.140   1.552 -0.5166 -0.6717 -1.9906
11653SOL    HW245889   2.976   9.182   1.571 -1.1414  0.7361  0.3497
11654SOL     OW45890   4.828   3.398   3.037  0.1464  0.2013 -0.4049
11654SOL    HW145891   4.731   3.399   3.059 -0.1026 -0.9783 -1.4176
11654SOL    HW245892   4.849   3.472   2.973 -0.2263 -0.0433 -0.8083
11655SOL     OW45893   6.444   7.756   2.633  0.2395  0.2855 -0.0009
11655SOL    HW145894   6.371   7.763   2.701 -1.3744  1.2927 -1.7814
11655SOL    HW245895   6.528   7.797   2.669 -0.4989  0.4659  1.5262
11656SOL     OW45896   1.166   6.444   5.249  0.0303  0.1658 -0.5893
11656SOL    HW145897   1.254   6.480   5.219 -0.5768  1.0133 -1.3596
11656SOL    HW245898   1.162   6.346   5.231  1.0558  0.0083  0.0176
11657SOL     OW45899   3.204   4.637   1.619  0.2343  0.1248  0.2847
11657SOL    HW145900   3.285   4.696   1.616 -0.9499  1.7554 -0.7233
11657SOL    HW245901   3.194   4.590   1.531 -0.6122  0.8975 -0.0349
11658SOL     OW45902   0.864   6.086   2.232  0.0956  0.4547  0.3672
11658SOL    HW145903   0.809   6.018   2.184  0.7077  0.5901 -0.5166
11658SOL    HW245904   0.886   6.162   2.170  0.5253  0.8344  0.9734
11659SOL     OW45905   5.814   0.141   3.569 -0.0114  0.3316  0.1720
11659SOL    HW145906   5.902   0.098   3.587 -0.4413 -0.9135 -0.6335
11659SOL    HW245907   5.806   0.224   3.623  1.5877  0.3715  0.3751
11660SOL     OW45908   2.360   7.608   5.170  0.5451  0.6612 -0.0655
11660SOL    HW145909   2.317   7.581   5.084  0.1809  0.8318  0.0601
11660SOL    HW245910   2.444   7.555   5.184 -0.3085 -0.6192  0.3175
11661SOL     OW45911   2.060   2.009   3.388 -0.9396  0.2375  0.0011
11661SOL    HW145912   2.142   2.025   3.444 -1.1103  1.3898 -0.0670
11661SOL    HW245913   2.006   1.936   3.429 -1.4481  1.5757  1.7905
11662SOL     OW45914   4.682   6.659   1.655  0.2812  0.2765 -0.3188
11662SOL    HW145915   4.769   6.672   1.703  0.3587  1.4348 -0.7622
11662SOL    HW245916   4.699   6.631   1.561  0.1730  0.0602 -0.2732
11663SOL     OW45917   9.718   9.216   4.810 -0.1257  0.0354 -0.0427
11663SOL    HW145918   9.802   9.161   4.815  0.1031  0.4120  0.3320
11663SOL    HW245919   9.642   9.162   4.846  0.1725  0.1044  0.7111
11664SOL     OW45920   7.930   0.570   4.460 -0.2145  0.1359  0.8097
11664SOL    HW145921   8.012   0.512   4.457  0.0440  0.3956  2.4352
11664SOL    HW245922   7.952   0.660   4.424 -0.4062 -0.5016 -0.9556
11665SOL     OW45923   8.258   0.962   2.532 -0.1875  0.3883  0.7860
11665SOL    HW145924   8.261   0.954   2.632 -1.0989  1.0284  0.8808
11665SOL    HW245925   8.205   0.887   2.495  1.1809 -0.5323  0.6765
11666SOL     OW45926   2.982   3.486   3.175 -0.0279 -0.2405 -0.0571
11666SOL    HW145927   2.995   3.525   3.266  0.2446  0.3478 -0.3472
11666SOL    HW245928   2.888   3.503   3.144  0.4911  1.4502 -0.7719
11667SOL     OW45929   0.797   7.172   4.540 -0.2035  0.1832  0.6068
11667SOL    HW145930   0.814   7.243   4.608  0.0895 -2.0669  2.9827
11667SOL    HW245931   0.876   7.110   4.537 -0.5717 -0.2153 -1.2153
11668SOL     OW45932   6.600   8.690   3.709  0.6111  0.0452 -0.7057
11668SOL    HW145933   6.518   8.712   3.655 -0.4094 -1.9082 -0.0238
11668SOL    HW245934   6.630   8.771   3.759 -1.3109  0.6413 -0.4673
11669SOL     OW45935   3.724   0.965   1.032  0.2807  0.1677 -0.3624
11669SOL    HW145936   3.804   1.011   0.993 -0.8617 -0.5266 -3.6255
11669SOL    HW245937   3.744   0.868   1.043  0.2144  0.1624 -0.2881
11670SOL     OW45938   1.632   3.429   0.905 -0.6200 -0.3228  0.3202
11670SOL    HW145939   1.627   3.519   0.860  0.2031 -1.2845 -1.7296
11670SOL    HW245940   1.548   3.414   0.957 -1.0088  1.3880  0.2435
11671SOL     OW45941   2.518   0.282   4.607  0.3034  0.5514  0.2507
11671SOL    HW145942   2.524   0.205   4.543  0.7691  1.4189 -0.7536
11671SOL    HW245943   2.452   0.260   4.679 -0.2976 -0.3980 -0.5745
11672SOL     OW45944   3.798   1.014   2.926 -0.5119 -0.0049  0.0472
11672SOL    HW145945   3.759   0.945   2.987  0.8098 -0.3177  0.5629
11672SOL    HW245946   3.868   0.972   2.868 -0.9110  0.5468 -0.8625
11673SOL     OW45947   2.377   3.294   0.526  0.4176 -0.3909  0.0540
11673SOL    HW145948   2.406   3.384   0.561 -1.4685  0.8237 -1.3758
11673SOL    HW245949   2.452   3.253   0.474  0.0716  2.1642 -2.6177
11674SOL     OW45950   7.355   0.597   4.184  0.2331  0.3851 -0.1109
11674SOL    HW145951   7.369   0.628   4.090  2.8356 -1.1347 -0.2601
11674SOL    HW245952   7.422   0.641   4.244 -0.0411 -0.2787  0.6871
11675SOL     OW45953   9.417   2.458   2.081  0.0295 -0.1868 -0.3368
11675SOL    HW145954   9.440   2.427   2.173 -0.2165  0.8278  0.0721
11675SOL    HW245955   9.321   2.436   2.062 -0.6350  1.7626  0.5870
11676SOL     OW45956   3.878   3.598   3.576 -0.2517  0.7900  0.2358
11676SOL    HW145957   3.805   3.650   3.531 -2.1219 -0.5287  1.6655
11676SOL    HW245958   3.966   3.623   3.536 -1.6071  1.4171 -2.4674
11677SOL     OW45959   0.123   9.915   1.155  0.3608 -0.1676 -0.1233
11677SOL    HW145960   0.130   9.944   1.059 -1.8129  0.5812 -0.0922
11677SOL    HW245961   0.120   9.815   1.159 -0.1685 -0.1923 -0.9057
11678SOL     OW45962   6.482   9.983   3.559  0.5080  0.2454 -0.5325
11678SOL    HW145963   6.517   9.956   3.648 -1.7139  0.5775  0.4878
11678SOL    HW245964   6.553   9.973   3.490  2.1210 -0.4369  1.2007
11679SOL     OW45965   0.280   7.666   3.526 -0.4411 -0.1605  0.2828
11679SOL    HW145966   0.378   7.652   3.511 -0.4430  0.8685 -0.7509
11679SOL    HW245967   0.257   7.639   3.620  0.8212 -0.4398  0.5287
11680SOL     OW45968   1.707   3.978   0.063 -0.4855 -0.1202  0.2139
11680SOL    HW145969   1.758   3.966  -0.021  1.2357 -0.6310  1.3113
11680SOL    HW245970   1.746   4.053   0.116 -1.7821  0.4416  0.4116
11681SOL     OW45971   9.334   0.342   2.899  0.0426 -0.0700 -0.1083
11681SOL    HW145972   9.273   0.421   2.905 -1.1736 -0.8653 -1.6045
11681SOL    HW245973   9.421   0.364   2.942  0.2348  2.5884 -1.7310
11682SOL     OW45974   9.903   8.920   3.940 -0.2048  0.0533  0.7764
11682SOL    HW145975   9.857   8.932   4.028  0.6173  1.2584  1.0537
11682SOL    HW245976   9.966   8.996   3.925  0.7484 -0.9188 -0.1924
11683SOL     OW45977   8.989   6.794   1.670 -0.3706  0.4419 -0.6044
11683SOL    HW145978   8.961   6.748   1.754  0.2406  0.2520 -0.4987
11683SOL    HW245979   8.962   6.739   1.591 -0.6575  0.4626 -0.5204
11684SOL     OW45980   9.844   0.783   0.746  0.1553  0.4059  0.0832
11684SOL    HW145981   9.897   0.702   0.772 -1.2752  0.2066  2.6276
11684SOL    HW245982   9.900   0.843   0.689  1.7699 -1.6174 -0.5269
11685SOL     OW45983   3.191   4.489   1.393  0.4521 -0.1186 -0.7125
11685SOL    HW145984   3.146   4.399   1.398  0.2669  0.0633  1.2697
11685SOL    HW245985   3.259   4.488   1.320  0.9996 -2.1285 -0.2026
11686SOL     OW45986   4.272   9.192   2.242  0.2351 -0.1831  0.1660
11686SOL    HW145987   4.311   9.252   2.172 -2.2962  0.6981 -0.5689
11686SOL    HW245988   4.310   9.100   2.233  2.0241  0.6046 -0.5476
11687SOL     OW45989   2.183   0.571   2.702 -0.7867  0.6173  0.1988
11687SOL    HW145990   2.213   0.586   2.796  0.3682 -0.2233 -0.0196
11687SOL    HW245991   2.154   0.475   2.692  2.6811 -0.3845 -1.2036
11688SOL     OW45992   1.137   7.982   4.575  0.5910  0.5759 -0.4946
11688SOL    HW145993   1.100   7.895   4.609  1.9711  0.7815  1.6545
11688SOL    HW245994   1.213   7.964   4.513 -0.3296  0.2346 -1.5398
11689SOL     OW45995   1.624   4.250   4.409  0.1664 -0.4551 -0.0663
11689SOL    HW145996   1.637   4.255   4.310 -0.0360 -0.8809 -0.1135
11689SOL    HW245997   1.527   4.243   4.430  0.2663 -1.2181  0.1292
11690SOL     OW45998   5.440   7.633   2.757 -0.2201  0.1277 -0.0442
11690SOL    HW145999   5.423   7.696   2.682 -0.6469 -1.2471 -1.1109
11690SOL    HW246000   5.527   7.655   2.800 -1.0900  2.4289  0.6090
11691SOL     OW46001   8.404   0.015   0.478  0.3457  0.0706  0.5335
11691SOL    HW146002   8.458  -0.028   0.550  1.7608 -2.0750 -1.7575
11691SOL    HW246003   8.465   0.053   0.408 -1.0327  0.4381 -0.4942
11692SOL     OW46004   3.267   6.062   3.233  0.4536 -0.2807  0.4891
11692SOL    HW146005   3.222   6.147   3.258 -0.2963 -0.9815  1.5874
11692SOL    HW246006   3.354   6.054   3.284 -0.0750 -0.7357  1.3424
11693SOL     OW46007   2.609   7.690   3.337 -0.6571 -0.0261 -0.0395
11693SOL    HW146008   2.592   7.731   3.248  0.7995 -0.6180 -0.6041
11693SOL    HW246009   2.694   7.727   3.375  0.1354 -1.7254 -0.0962
11694SOL     OW46010   7.710   0.770   1.192 -0.5364 -0.2363 -0.2477
11694SOL    HW146011   7.675   0.861   1.211  1.0573  0.3709 -0.1906
11694SOL    HW246012   7.703   0.713   1.274 -0.9461  0.0133 -0.1088
11695SOL     OW46013   0.834   4.663   4.349 -0.5787  0.2738  0.0491
11695SOL    HW146014   0.751   4.706   4.315 -1.1638 -1.1110 -0.3385
11695SOL    HW246015   0.914   4.710   4.312 -1.2016  1.1821 -0.1418
11696SOL     OW46016   4.070   4.135   1.712  0.7817 -0.2431  0.3873
11696SOL    HW146017   4.048   4.064   1.646 -0.2989 -0.4890  0.9988
11696SOL    HW246018   4.160   4.173   1.692  0.4250 -0.2434 -1.2843
11697SOL     OW46019   8.869   3.171   0.487  0.7713 -0.3065  0.3716
11697SOL    HW146020   8.964   3.172   0.458  0.0717 -2.0558 -2.1667
11697SOL    HW246021   8.810   3.198   0.410 -0.7667  1.0481  1.9888
11698SOL     OW46022   4.305   7.906   2.139 -0.0483  0.1994  0.0476
11698SOL    HW146023   4.357   7.839   2.191 -0.8766 -0.8585 -0.4714
11698SOL    HW246024   4.265   7.974   2.202  1.1278  0.4478  0.5285
11699SOL     OW46025   8.665   9.435   4.129 -0.4359  0.1643 -0.7110
11699SOL    HW146026   8.589   9.454   4.192  1.5641 -0.1462  1.9175
11699SOL    HW246027   8.643   9.354   4.075 -0.5455 -2.1614  2.6254
11700SOL     OW46028   2.354   5.046   4.886  0.2241 -0.6374  0.1377
11700SOL    HW146029   2.297   5.091   4.956 -0.4520 -0.9197 -0.2240
11700SOL    HW246030   2.360   4.949   4.906 -3.0338 -1.3916 -2.2031
11701SOL     OW46031   9.307   6.017   0.856  0.2964  0.0389 -0.3200
11701SOL    HW146032   9.341   5.935   0.903 -1.9170 -0.4457  0.4684
11701SOL    HW246033   9.355   6.097   0.892  0.1053 -0.5468  1.3138
11702SOL     OW46034   8.490   8.723   0.100  0.5603  0.5417 -0.1060
11702SOL    HW146035   8.394   8.696   0.099 -0.2120  3.0127  1.7737
11702SOL    HW246036   8.532   8.704   0.011 -1.6345 -0.6500 -0.9029
11703SOL     OW46037   8.589   1.299   2.128  0.8147  0.3381 -0.5877
11703SOL    HW146038   8.652   1.271   2.056  1.0024  0.9941 -0.6899
11703SOL    HW246039   8.623   1.384   2.170 -0.1198  0.8204 -0.7909
11704SOL     OW46040   7.060   9.357   1.818  0.0621 -0.9945  0.9093
11704SOL    HW146041   7.063   9.261   1.845  0.2857 -1.5020 -0.8723
11704SOL    HW246042   7.124   9.372   1.743 -0.7033  0.3302  0.5161
11705SOL     OW46043   2.377   8.025   1.153  0.2608 -0.4547  0.1327
11705SOL    HW146044   2.360   7.953   1.086  2.1593 -0.4914 -0.3387
11705SOL    HW246045   2.334   8.110   1.122  0.6323 -0.6146 -0.8491
11706SOL     OW46046   3.534   1.246   5.502  0.0492  0.8234  0.3883
11706SOL    HW146047   3.489   1.333   5.482  0.0737  0.5755 -0.7624
11706SOL    HW246048   3.469   1.171   5.492  0.0928  0.6772  1.1356
11707SOL     OW46049   8.855   4.041   3.516 -0.0128 -0.4695 -0.6025
11707SOL    HW146050   8.796   3.967   3.548  1.2809 -0.8566  0.9757
11707SOL    HW246051   8.946   4.004   3.497  0.6423  0.7039  0.1947
11708SOL     OW46052   4.272   8.988   0.781  0.2799 -0.6638  0.2658
11708SOL    HW146053   4.197   9.017   0.840  1.3237  1.0449  0.7797
11708SOL    HW246054   4.246   9.003   0.685 -1.0697 -2.6243  0.3006
11709SOL     OW46055   3.518   0.949   2.794  0.6950  0.0381 -0.1806
11709SOL    HW146056   3.510   0.999   2.881  1.1282  0.3920 -0.3396
11709SOL    HW246057   3.612   0.953   2.762  0.8911 -1.5129  0.1679
11710SOL     OW46058   6.857   9.438   1.164 -0.1953  0.4804 -0.3078
11710SOL    HW146059   6.910   9.510   1.208 -0.5299  0.7438 -0.3290
11710SOL    HW246060   6.765   9.436   1.204  0.1801 -0.7107  0.5113
11711SOL     OW46061   3.588   0.049   4.439 -0.0633  0.1416  0.0098
11711SOL    HW146062   3.519   0.121   4.452 -0.5841 -0.2828 -0.3724
11711SOL    HW246063   3.578   0.010   4.347  0.3143 -0.3105  0.1605
11712SOL     OW46064   9.416   3.581   0.765  0.3977 -0.3675 -0.0570
11712SOL    HW146065   9.392   3.633   0.683  0.3959 -0.8885 -0.3876
11712SOL    HW246066   9.344   3.592   0.834  0.8065  0.7558  0.1954
11713SOL     OW46067   0.349   9.510   0.498  0.4626 -0.2314 -0.2583
11713SOL    HW146068   0.274   9.451   0.527 -0.2094  0.7113 -0.0206
11713SOL    HW246069   0.319   9.567   0.421  0.6653  0.7063  0.3436
11714SOL     OW46070   8.001   9.640   0.857 -0.8032  0.0908 -0.5277
11714SOL    HW146071   8.010   9.740   0.857  0.5153  0.0009  0.8470
11714SOL    HW246072   7.972   9.609   0.948  3.8120 -1.0980  0.7157
11715SOL     OW46073   8.639   1.245   1.696 -0.3119 -0.1185 -0.0556
11715SOL    HW146074   8.612   1.179   1.626 -0.7783  0.2074 -0.1856
11715SOL    HW246075   8.602   1.335   1.673 -1.0439 -0.1462  0.9626
11716SOL     OW46076   9.000   5.602   4.431  0.1534  0.3218  0.3759
11716SOL    HW146077   9.081   5.661   4.430 -0.2340  0.8669 -1.3394
11716SOL    HW246078   8.930   5.643   4.373 -0.1835 -1.7489 -0.6906
11717SOL     OW46079   0.799   0.654   2.962  0.2298  0.0681 -0.9241
11717SOL    HW146080   0.727   0.706   2.916 -2.0923  0.2894  2.7751
11717SOL    HW246081   0.773   0.557   2.965 -0.9665  0.4349  2.1630
11718SOL     OW46082   3.705   0.223   4.152 -0.3166 -0.0741 -0.2673
11718SOL    HW146083   3.618   0.240   4.197  0.4911  1.0711  0.8744
11718SOL    HW246084   3.754   0.150   4.200  1.2338  2.2027  1.7135
11719SOL     OW46085   0.403   2.383   0.348  0.0458 -0.4464  0.3670
11719SOL    HW146086   0.428   2.475   0.379 -0.7501  0.2076 -0.9058
11719SOL    HW246087   0.323   2.351   0.398 -0.9897  0.4420 -0.7035
11720SOL     OW46088   7.110   9.873   3.666  0.2115 -0.5722  0.3482
11720SOL    HW146089   7.189   9.933   3.676 -0.3513  0.0078  1.3369
11720SOL    HW246090   7.046   9.913   3.601  0.6511 -0.9615 -0.3264
11721SOL     OW46091   3.674   7.762   0.027  0.0027  0.5782  0.2188
11721SOL    HW146092   3.694   7.797  -0.064 -0.0992  0.3057  0.0907
11721SOL    HW246093   3.707   7.827   0.096  0.5440  0.5409 -0.0030
11722SOL     OW46094   0.988   1.985   2.936 -0.0145  0.1498  0.2934
11722SOL    HW146095   0.974   2.038   2.853 -0.6918 -3.1548 -1.8025
11722SOL    HW246096   0.914   2.004   3.001 -0.9189  0.8239 -0.9095
11723SOL     OW46097   7.325   1.013   1.769 -0.4102 -0.4598 -0.8081
11723SOL    HW146098   7.259   0.972   1.706 -0.8001  1.9884 -2.0970
11723SOL    HW246099   7.317   1.113   1.764  2.2073 -0.1526  0.2938
11724SOL     OW46100   0.761   8.123   4.565  0.5300 -0.4655  0.2238
11724SOL    HW146101   0.700   8.069   4.506  3.0055 -0.5988 -2.3120
11724SOL    HW246102   0.787   8.207   4.518  1.1727  0.2940  1.8971
11725SOL     OW46103   1.790   9.713   4.654 -0.2635 -0.2873  0.1592
11725SOL    HW146104   1.847   9.635   4.630 -0.0453  0.4043 -1.6217
11725SOL    HW246105   1.845   9.780   4.705  0.0627 -0.4107 -0.0288
11726SOL     OW46106   3.162   5.258   2.360  0.1466 -0.4401  0.3976
11726SOL    HW146107   3.096   5.308   2.415  1.1249  1.9861 -0.5552
11726SOL    HW246108   3.215   5.323   2.305  1.8274 -2.5041 -0.4740
11727SOL     OW46109   8.770   0.195   5.365  0.0102 -0.3505 -0.0534
11727SOL    HW146110   8.763   0.266   5.435  1.0997 -0.8267  0.5459
11727SOL    HW246111   8.855   0.145   5.377 -1.2275 -2.4552  0.1724
11728SOL     OW46112   9.537   8.186   2.310 -0.4487 -0.3934 -0.2170
11728SOL    HW146113   9.455   8.184   2.252 -1.3393  2.1775  0.9141
11728SOL    HW246114   9.514   8.154   2.402 -0.0022 -0.3931 -0.1054
11729SOL     OW46115   3.922   7.919   4.162  0.6853 -0.2086 -0.0230
11729SOL    HW146116   3.844   7.857   4.155  1.2090 -0.9590  0.7326
11729SOL    HW246117   3.974   7.898   4.245  1.1640  0.8951 -0.0361
11730SOL     OW46118   7.347   1.803   2.760 -0.0784 -0.3029  0.1410
11730SOL    HW146119   7.256   1.790   2.721  0.0259 -0.7734  0.0526
11730SOL    HW246120   7.414   1.809   2.686 -0.0476  0.1052  0.2035
11731SOL     OW46121   4.510   1.664   5.282 -0.1090 -0.2040  0.2650
11731SOL    HW146122   4.536   1.727   5.355  1.6027 -0.6493  0.0465
11731SOL    HW246123   4.508   1.570   5.318 -0.6200 -0.2669  0.0768
11732SOL     OW46124   3.101   8.052   1.522 -0.1600  0.0312  0.0874
11732SOL    HW146125   3.104   7.953   1.533  0.9384  0.1862  1.2346
11732SOL    HW246126   3.175   8.082   1.462 -1.6120 -0.0136 -1.7891
11733SOL     OW46127   8.665   7.370   0.654 -0.0996  0.1631  0.2279
11733SOL    HW146128   8.626   7.343   0.566 -0.4430  0.5240  0.2701
11733SOL    HW246129   8.722   7.296   0.689  0.9719  0.4565 -0.8561
11734SOL     OW46130   0.048   4.308   5.025  0.5279 -0.0648 -0.2588
11734SOL    HW146131   0.035   4.375   5.098 -0.4472 -0.1829 -0.3192
11734SOL    HW246132   0.145   4.304   5.000  0.6067  1.2701 -0.2006
11735SOL     OW46133   9.024   8.614   0.622 -0.3230 -0.7618 -0.3037
11735SOL    HW146134   9.122   8.599   0.633 -0.2446  0.5526  0.9749
11735SOL    HW246135   9.008   8.681   0.550 -0.2480 -0.4029  0.0155
11736SOL     OW46136   4.643   9.775   2.740  0.4559 -0.0962 -0.1850
11736SOL    HW146137   4.570   9.711   2.767  0.6152  0.2736  1.1584
11736SOL    HW246138   4.610   9.869   2.749  1.6688  0.1389  2.2395
11737SOL     OW46139   0.154   8.076   1.149 -0.6793  0.1173 -0.2942
11737SOL    HW146140   0.197   8.065   1.239 -0.4938 -0.4922 -0.4580
11737SOL    HW246141   0.055   8.087   1.161 -1.1140 -3.3286 -0.1954
11738SOL     OW46142   8.397   3.563   0.334 -0.0449  0.5531 -0.1638
11738SOL    HW146143   8.403   3.638   0.268 -0.2637  1.0804  0.4089
11738SOL    HW246144   8.461   3.580   0.409  0.1281  0.0077 -0.1913
11739SOL     OW46145   9.761   0.839   2.657  0.5341 -0.4429  0.4208
11739SOL    HW146146   9.678   0.894   2.647 -0.7021 -2.2276  0.6602
11739SOL    HW246147   9.813   0.842   2.572 -0.4599 -0.4028 -0.1971
11740SOL     OW46148   9.403   1.716   5.044 -0.1140 -0.1432 -0.3451
11740SOL    HW146149   9.316   1.758   5.068  0.2676 -0.2779  1.3690
11740SOL    HW246150   9.463   1.715   5.124  0.6136 -2.1276 -0.8727
11741SOL     OW46151   2.447   6.670   1.675  0.2792  0.8737  0.3536
11741SOL    HW146152   2.511   6.684   1.751  0.2577  2.2899  0.1353
11741SOL    HW246153   2.462   6.741   1.605 -0.8751  0.6485 -0.1441
11742SOL     OW46154   2.360   0.584   0.592  0.3529  0.2865 -0.4081
11742SOL    HW146155   2.365   0.679   0.559 -1.8217  0.4573 -0.2872
11742SOL    HW246156   2.354   0.584   0.691 -1.3064  0.0963 -0.5006
11743SOL     OW46157   2.047   5.374   1.048  0.3899  0.2833 -0.8229
11743SOL    HW146158   2.114   5.440   1.083 -0.6610  0.9003  0.0697
11743SOL    HW246159   2.061   5.285   1.091 -1.6915  1.3392  2.2525
11744SOL     OW46160   8.276   2.627   2.032  0.0624 -0.1288 -0.1223
11744SOL    HW146161   8.287   2.717   2.073 -1.6080 -0.2472  0.6316
11744SOL    HW246162   8.200   2.629   1.967  0.9162 -0.6409 -1.1487
11745SOL     OW46163   3.503   0.526   2.308 -0.0633  0.8253 -0.2758
11745SOL    HW146164   3.453   0.480   2.235 -2.1654  1.0165  1.0049
11745SOL    HW246165   3.439   0.573   2.369  1.5849  0.3239  1.9398
11746SOL     OW46166   3.201   0.519   4.687 -0.1298 -0.2361  0.0828
11746SOL    HW146167   3.171   0.612   4.665 -0.3387 -0.7531 -1.8670
11746SOL    HW246168   3.122   0.466   4.719 -0.6280 -0.5799 -1.6563
11747SOL     OW46169   3.278   5.338   0.169 -0.4051 -0.2940  0.1978
11747SOL    HW146170   3.194   5.364   0.216 -0.6422 -0.4561 -0.1313
11747SOL    HW246171   3.355   5.390   0.206 -0.8790  0.9018 -0.4717
11748SOL     OW46172   2.642   5.140   4.063  0.3989  0.4944  0.0275
11748SOL    HW146173   2.595   5.077   4.002  1.3774 -0.9929  0.7880
11748SOL    HW246174   2.575   5.188   4.120 -0.2770 -0.7188  0.2677
11749SOL     OW46175   2.389   6.694   5.387 -0.3910  0.4432 -0.2888
11749SOL    HW146176   2.335   6.624   5.435  0.4145  0.3396  0.4818
11749SOL    HW246177   2.328   6.767   5.356 -0.8681  0.8048  1.4238
11750SOL     OW46178   3.924   0.772   2.522 -0.2120  0.1145 -0.0021
11750SOL    HW146179   4.005   0.803   2.471  0.3578 -1.9047 -0.3523
11750SOL    HW246180   3.857   0.737   2.458 -0.2319 -0.7772  0.5065
11751SOL     OW46181   1.689   8.116   0.243  0.0327  0.4543  0.1577
11751SOL    HW146182   1.710   8.165   0.327 -2.3884  1.6358  0.1379
11751SOL    HW246183   1.771   8.108   0.187  1.5718  0.0634  2.4012
11752SOL     OW46184   8.071   1.878   0.059  0.0307  0.0033 -0.0153
11752SOL    HW146185   8.043   1.973   0.042  0.2437  0.3936  1.6394
11752SOL    HW246186   8.159   1.861   0.016  1.0733  1.2770  1.5433
11753SOL     OW46187   9.449   6.587   4.743 -0.1372  0.0793 -0.7177
11753SOL    HW146188   9.392   6.662   4.776  1.0495 -0.3200  2.4119
11753SOL    HW246189   9.441   6.509   4.805  0.4283 -1.5780 -2.6559
11754SOL     OW46190   0.161   5.215   5.623 -0.1030  0.1898  0.1828
11754SOL    HW146191   0.229   5.207   5.696  0.8721  0.1546 -0.7118
11754SOL    HW246192   0.206   5.247   5.539 -1.3986  1.2515 -0.1198
11755SOL     OW46193   9.777   6.135   0.941  0.5182 -0.0387 -0.2524
11755SOL    HW146194   9.739   6.119   1.032 -1.2070 -0.4820 -1.0356
11755SOL    HW246195   9.790   6.233   0.926  0.6963  0.0401  0.4139
11756SOL     OW46196   4.580   1.230   1.500 -0.0094  0.3572 -0.1316
11756SOL    HW146197   4.607   1.141   1.538 -0.5759  0.0488 -0.4480
11756SOL    HW246198   4.588   1.228   1.401  0.0793  0.6921 -0.1307
11757SOL     OW46199   9.928   0.264   4.271  0.1467  0.6424 -0.0980
11757SOL    HW146200   9.870   0.340   4.300  0.9051  1.6072 -1.0859
11757SOL    HW246201  10.024   0.288   4.286  0.3336 -0.7100  0.9662
11758SOL     OW46202   4.120   7.926   3.704 -0.1315 -0.3805 -0.3431
11758SOL    HW146203   4.032   7.880   3.705  0.1118 -0.8417  0.1737
11758SOL    HW246204   4.143   7.958   3.796  0.2420 -0.2745 -0.4691
11759SOL     OW46205   1.188   8.596   1.222  0.1408  0.0720 -0.0711
11759SOL    HW146206   1.134   8.557   1.148 -0.4583  1.0831 -0.1769
11759SOL    HW246207   1.157   8.559   1.310 -0.4564  0.3508 -0.1648
11760SOL     OW46208   7.165   0.336   3.729  0.1413  0.0046 -0.3214
11760SOL    HW146209   7.170   0.237   3.740  0.2951  0.1482  1.0024
11760SOL    HW246210   7.101   0.374   3.796  2.3366  1.0860  1.2459
11761SOL     OW46211   0.805   2.288   1.982 -0.0149  0.1130 -0.3175
11761SOL    HW146212   0.795   2.378   2.025 -0.6056 -0.1291  0.0687
11761SOL    HW246213   0.901   2.272   1.960  0.1613  0.6446  0.0439
11762SOL     OW46214   3.135   4.172   0.100 -0.2671  0.2296  0.1040
11762SOL    HW146215   3.214   4.140   0.152 -0.9790  0.7693  1.5285
11762SOL    HW246216   3.165   4.240   0.033  0.8442 -1.4142 -1.1120
11763SOL     OW46217   4.712   3.478   1.329 -0.3169 -0.0072 -0.7819
11763SOL    HW146218   4.672   3.566   1.357 -1.2366 -0.4849 -0.5722
11763SOL    HW246219   4.655   3.404   1.364 -0.1992 -0.6603 -1.9726
11764SOL     OW46220   8.143   5.953   3.808  0.3555  0.0950 -0.6507
11764SOL    HW146221   8.104   5.947   3.716  1.0135 -2.3376 -0.8193
11764SOL    HW246222   8.184   5.865   3.832  2.7426  1.5532  0.8374
11765SOL     OW46223   2.715   3.915   2.018  0.1297  0.0549  0.3964
11765SOL    HW146224   2.697   4.011   2.040  0.6699  0.4369 -0.7837
11765SOL    HW246225   2.629   3.871   1.990 -0.4231 -0.2459  2.4612
11766SOL     OW46226   4.683   2.646   3.175 -0.8162 -0.0743 -0.0354
11766SOL    HW146227   4.603   2.689   3.134  0.0805  0.3987 -1.3159
11766SOL    HW246228   4.728   2.587   3.108  1.6194  1.9906 -0.3247
11767SOL     OW46229   2.839   9.660   4.772  0.0441 -0.0899  0.0260
11767SOL    HW146230   2.863   9.677   4.867 -2.5901  1.3506  0.4889
11767SOL    HW246231   2.771   9.588   4.766  0.1366 -0.1237 -0.7563
11768SOL     OW46232   0.248   0.382   4.903 -0.0411  0.2027 -0.6383
11768SOL    HW146233   0.231   0.416   4.996 -1.9488 -0.8931 -0.5544
11768SOL    HW246234   0.263   0.459   4.841 -1.1973  1.0503  0.1253
11769SOL     OW46235   8.046   7.635   3.434  0.0475  0.1188 -0.3371
11769SOL    HW146236   7.970   7.654   3.496 -0.9290 -2.8294 -0.5554
11769SOL    HW246237   8.131   7.665   3.476 -0.9617  1.2381  0.9607
11770SOL     OW46238   0.968   7.398   4.698  0.3492  0.4807 -0.1124
11770SOL    HW146239   0.948   7.491   4.726  0.5573  1.2774 -2.5067
11770SOL    HW246240   1.013   7.398   4.608 -0.6411 -1.9584 -0.6698
11771SOL     OW46241   2.817   6.747   0.166  0.3160 -0.1809 -0.4758
11771SOL    HW146242   2.722   6.758   0.195  0.5400  0.4580  0.0376
11771SOL    HW246243   2.831   6.654   0.133 -0.5181 -0.2428 -0.6692
11772SOL     OW46244   3.770   5.511   1.447 -0.5159  0.0855 -0.4669
11772SOL    HW146245   3.713   5.594   1.448 -0.9918 -0.2202 -1.5905
11772SOL    HW246246   3.806   5.495   1.539 -0.8421  1.2497 -0.1228
11773SOL     OW46247   1.863   9.947   3.788 -0.5905  0.2574  0.5336
11773SOL    HW146248   1.889   9.984   3.699 -0.9519  2.0910  1.1715
11773SOL    HW246249   1.790   9.880   3.776 -0.9871  0.8639 -0.5096
11774SOL     OW46250   1.353   7.815   0.448  0.5185  0.0152  0.0979
11774SOL    HW146251   1.437   7.831   0.396 -0.8329 -0.4251 -2.3195
11774SOL    HW246252   1.300   7.900   0.454 -0.3451 -0.4093 -1.1737
11775SOL     OW46253   8.740   2.402   2.223  0.1835 -0.0312 -0.1629
11775SOL    HW146254   8.672   2.412   2.151 -1.0116  0.7565  1.0394
11775SOL    HW246255   8.696   2.414   2.312  1.6668 -0.7615  0.6945
11776SOL     OW46256   7.680   5.464   3.212  0.5982 -0.3058 -0.9539
11776SOL    HW146257   7.740   5.478   3.133  0.7824 -0.0475 -0.7678
11776SOL    HW246258   7.647   5.552   3.246  2.3576 -0.2418  0.6787
11777SOL     OW46259   0.461   9.869   3.157  0.1966 -0.1488 -0.0780
11777SOL    HW146260   0.369   9.838   3.181 -0.0266 -0.6324 -1.4734
11777SOL    HW246261   0.528   9.808   3.199 -0.0262  1.4294  2.6714
11778SOL     OW46262   8.087   3.394   2.542 -0.4020 -0.2919 -0.5940
11778SOL    HW146263   8.137   3.468   2.587 -0.4724 -0.5868 -0.0174
11778SOL    HW246264   8.146   3.350   2.475  0.2354 -0.8561  0.3214
11779SOL     OW46265   1.461   9.176   0.298  0.1429  0.5578  0.3612
11779SOL    HW146266   1.476   9.190   0.200  0.9001 -0.6155  0.2990
11779SOL    HW246267   1.412   9.254   0.336 -2.2623 -0.0011 -1.4401
11780SOL     OW46268   3.005   3.947   2.851  0.2645 -0.2147  0.7937
11780SOL    HW146269   2.981   3.935   2.755 -2.8836  1.0504  1.3792
11780SOL    HW246270   2.983   3.863   2.901  2.5376 -1.1285  0.3733
11781SOL     OW46271   4.624   9.921   1.734 -0.2666 -0.4612 -0.2196
11781SOL    HW146272   4.703   9.976   1.763  0.7501 -1.6232 -0.7219
11781SOL    HW246273   4.615   9.842   1.794 -1.2780 -0.1476  0.0508
11782SOL     OW46274   1.369   0.556   1.713  0.7119  0.3676 -0.2308
11782SOL    HW146275   1.464   0.526   1.722  0.8430  1.3968  2.0315
11782SOL    HW246276   1.308   0.481   1.737  0.9613 -0.0299 -0.8367
11783SOL     OW46277   8.394   3.276   0.872  0.4779  0.3929 -0.2846
11783SOL    HW146278   8.411   3.366   0.913  0.2566  0.3828 -0.1682
11783SOL    HW246279   8.346   3.287   0.785  3.2110  0.5553 -1.8251
11784SOL     OW46280   0.256   2.775   4.766 -0.2557 -0.3221  0.3686
11784SOL    HW146281   0.267   2.753   4.669  0.1456 -0.4354  0.4396
11784SOL    HW246282   0.158   2.774   4.789 -0.3237 -0.7646  0.0735
11785SOL     OW46283   4.217   9.213   4.145  0.3815  0.3441  0.1438
11785SOL    HW146284   4.262   9.302   4.133  0.0070  0.4514 -0.4521
11785SOL    HW246285   4.200   9.172   4.056  1.2721 -0.6868  0.4389
11786SOL     OW46286   4.330   3.132   3.840  0.3196  0.1202  0.3552
11786SOL    HW146287   4.323   3.217   3.893  1.1351 -0.4480  1.3795
11786SOL    HW246288   4.259   3.068   3.870 -0.2037  0.3781 -0.3183
11787SOL     OW46289   4.322   7.360   4.010  0.1293 -0.0264  0.1368
11787SOL    HW146290   4.226   7.338   3.994  0.0133  0.7173 -0.2058
11787SOL    HW246291   4.344   7.347   4.107 -0.6068  0.8729  0.4273
11788SOL     OW46292   3.274   3.238   1.206 -0.2942  0.0894 -0.1218
11788SOL    HW146293   3.218   3.186   1.271  0.1471  0.0825  0.2554
11788SOL    HW246294   3.348   3.284   1.256  1.1921 -1.4434 -0.8404
11789SOL     OW46295   0.963   0.738   3.985 -0.0726 -0.7166  0.3404
11789SOL    HW146296   1.056   0.743   3.950  0.5157 -0.6084  1.9015
11789SOL    HW246297   0.932   0.830   4.009 -0.3123 -0.8475  0.5317
11790SOL     OW46298   1.356   3.367   5.363  0.0124 -0.4669  0.3242
11790SOL    HW146299   1.272   3.334   5.320 -0.3111  0.0793  0.5320
11790SOL    HW246300   1.336   3.398   5.456  0.2694  0.4812  0.0721
11791SOL     OW46301   4.816   3.825   2.271  0.3526  0.1947  0.2448
11791SOL    HW146302   4.725   3.812   2.309  0.7098  0.1302  1.1013
11791SOL    HW246303   4.841   3.922   2.276 -0.2246  0.4269 -1.2869
11792SOL     OW46304   9.281   6.995   4.309 -0.6082 -0.3437 -0.6737
11792SOL    HW146305   9.321   7.057   4.242 -2.0389 -0.2167 -1.4201
11792SOL    HW246306   9.247   6.913   4.263 -1.0722 -0.5197 -0.0277
11793SOL     OW46307   9.569   3.617   1.947  0.4200  0.7182  0.0175
11793SOL    HW146308   9.649   3.574   1.991 -0.2327 -0.4383  0.0844
11793SOL    HW246309   9.515   3.665   2.016  0.0305 -0.1130  0.3011
11794SOL     OW46310   5.440   0.603   3.883  0.3396  0.0529 -0.2835
11794SOL    HW146311   5.539   0.593   3.869  0.7269 -0.4582  2.5114
11794SOL    HW246312   5.420   0.694   3.919 -0.2275  0.2236 -1.0287
11795SOL     OW46313   0.519   9.528   3.948  0.1417 -0.2451  0.0259
11795SOL    HW146314   0.578   9.448   3.961 -0.7515 -0.8908  0.1052
11795SOL    HW246315   0.565   9.594   3.888  0.1721 -1.5735 -1.4254
11796SOL     OW46316   3.696   4.831   3.950 -0.4677 -0.3414 -0.7109
11796SOL    HW146317   3.713   4.757   4.015  0.0891 -0.2905 -0.7943
11796SOL    HW246318   3.680   4.792   3.859  0.2724 -0.3430 -0.8447
11797SOL     OW46319   8.190   8.731   0.241 -0.0612  0.2770 -0.0670
11797SOL    HW146320   8.119   8.729   0.171  0.5869  1.1166 -0.7514
11797SOL    HW246321   8.172   8.807   0.304  0.0620  0.2934 -0.0529
11798SOL     OW46322   1.416   5.265   2.483 -0.7135  0.2462  0.0268
11798SOL    HW146323   1.506   5.252   2.439 -0.2939 -0.4285  1.0697
11798SOL    HW246324   1.406   5.361   2.510  0.4897 -0.0435  1.6016
11799SOL     OW46325   9.356   8.244   1.129 -0.4448  0.2925 -0.7418
11799SOL    HW146326   9.404   8.189   1.198 -1.8879  0.1092  0.1332
11799SOL    HW246327   9.330   8.332   1.169  0.1029  0.8191 -1.5391
11800SOL     OW46328   0.727   0.267   1.206  0.6162 -0.0994  0.5742
11800SOL    HW146329   0.722   0.172   1.177  0.5322  0.5529 -1.6072
11800SOL    HW246330   0.647   0.290   1.261  1.3546 -1.6721  2.3695
11801SOL     OW46331   9.837   4.317   0.741  0.3108  0.1421  0.3681
11801SOL    HW146332   9.914   4.318   0.676 -1.1870 -1.0596 -1.4750
11801SOL    HW246333   9.759   4.363   0.701 -0.8612 -1.2145  1.0443
11802SOL     OW46334   1.927   4.269   3.900 -0.2111  0.2125  0.5749
11802SOL    HW146335   1.884   4.238   3.815  1.8256 -2.0632  0.3075
11802SOL    HW246336   1.892   4.359   3.924 -2.0499  0.1900 -1.7883
11803SOL     OW46337   0.007   0.578   0.493 -0.4677  0.3515  0.6591
11803SOL    HW146338   0.009   0.658   0.434 -2.3650  0.2334  0.3935
11803SOL    HW246339   0.081   0.516   0.468  0.8252  1.8672  0.6710
11804SOL     OW46340   0.271   0.476   4.622  0.0088  0.1524  0.1661
11804SOL    HW146341   0.305   0.383   4.614  0.9763  0.5658 -0.7241
11804SOL    HW246342   0.171   0.475   4.628 -0.0060 -0.9115 -0.1639
11805SOL     OW46343   7.778   2.599   0.703  0.6062  0.1007 -0.0559
11805SOL    HW146344   7.821   2.654   0.631 -1.7157  2.5453  0.3235
11805SOL    HW246345   7.821   2.620   0.790  0.3997  0.5396 -0.0604
11806SOL     OW46346   9.280   2.225   3.802 -0.1345  0.4374  0.2481
11806SOL    HW146347   9.213   2.239   3.729 -0.6525  1.3063  0.8746
11806SOL    HW246348   9.369   2.259   3.772 -0.2798  0.5106 -0.1020
11807SOL     OW46349   7.637   2.932   2.088  0.0545 -0.5983  0.3540
11807SOL    HW146350   7.593   2.862   2.031  0.0867  1.2967 -2.0844
11807SOL    HW246351   7.595   3.021   2.070  2.6713  0.6944  0.4389
11808SOL     OW46352   3.477   3.793   3.204  0.5293  0.2589 -0.5950
11808SOL    HW146353   3.429   3.836   3.128  0.1205  0.4512 -0.2292
11808SOL    HW246354   3.410   3.757   3.270  0.8653 -0.7646 -0.8046
11809SOL     OW46355   1.471   3.572   0.543 -0.5464 -0.3896 -0.3938
11809SOL    HW146356   1.444   3.634   0.470  0.0553  1.2101  0.7021
11809SOL    HW246357   1.474   3.478   0.508 -0.0426  0.3690 -2.4714
11810SOL     OW46358   8.150   8.524   0.889  0.5050  0.0045 -0.2024
11810SOL    HW146359   8.120   8.438   0.847 -2.0094 -0.0142  1.4917
11810SOL    HW246360   8.117   8.601   0.833 -0.1537 -0.0792  0.0650
11811SOL     OW46361   2.921   3.521   0.452 -0.3888 -0.4406  0.6375
11811SOL    HW146362   2.918   3.425   0.424  1.1116 -0.2039 -0.3345
11811SOL    HW246363   2.847   3.572   0.407 -0.6290 -0.9480  0.4574
11812SOL     OW46364   8.658   9.705   0.427 -0.2115  0.1084  0.4448
11812SOL    HW146365   8.648   9.756   0.513 -0.4593 -0.1040  0.5431
11812SOL    HW246366   8.569   9.695   0.383 -0.0659  0.3170  0.1003
11813SOL     OW46367   7.778   9.590   0.600 -0.2809 -0.4540 -0.2178
11813SOL    HW146368   7.778   9.685   0.632  0.7457 -0.2587 -0.8034
11813SOL    HW246369   7.792   9.529   0.679 -1.7919 -0.1750  0.2845
11814SOL     OW46370   1.730   6.150   0.552  0.0940  0.3435 -0.1893
11814SOL    HW146371   1.761   6.085   0.622  0.1814  0.9626  0.3510
11814SOL    HW246372   1.641   6.188   0.579 -0.2615 -0.0398 -0.8233
11815SOL     OW46373   1.608   1.883   2.450  0.8608  0.2539 -0.4067
11815SOL    HW146374   1.667   1.945   2.503 -0.5233  2.0076 -0.8451
11815SOL    HW246375   1.660   1.804   2.421  2.6229  1.0810  0.4167
11816SOL     OW46376   0.164   9.412   1.726 -0.4230 -0.2033  0.2541
11816SOL    HW146377   0.117   9.453   1.805 -1.7873 -1.1634 -0.0409
11816SOL    HW246378   0.230   9.478   1.690 -0.4034  0.5831  1.6592
11817SOL     OW46379   2.326   1.699   3.366 -0.0142  0.8101  0.0684
11817SOL    HW146380   2.332   1.606   3.403 -0.9880  0.2283 -1.2050
11817SOL    HW246381   2.230   1.720   3.346  0.1253  2.3477  1.0033
11818SOL     OW46382   0.918   8.096   0.191  0.1395  0.5378 -0.3833
11818SOL    HW146383   0.875   8.012   0.158  0.4151  0.4648 -0.5610
11818SOL    HW246384   0.856   8.173   0.177 -1.1020  0.0334  1.9263
11819SOL     OW46385   1.518   5.770   3.086 -0.1974 -0.1125 -0.5006
11819SOL    HW146386   1.471   5.698   3.137 -1.1701  0.3785 -0.6854
11819SOL    HW246387   1.513   5.855   3.138  0.1247  0.0399 -0.7211
11820SOL     OW46388   5.408   7.896   1.461  0.1913  0.3188 -0.8797
11820SOL    HW146389   5.502   7.862   1.466 -0.3867 -1.3000 -0.6844
11820SOL    HW246390   5.351   7.844   1.525 -0.7783  1.4923 -0.7786
11821SOL     OW46391   0.183   4.524   3.858 -0.0007 -0.5419 -0.0566
11821SOL    HW146392   0.259   4.529   3.793  1.5056 -3.0728  1.4663
11821SOL    HW246393   0.138   4.613   3.862  1.8142  0.5354 -2.2298
11822SOL     OW46394   9.611   1.442   3.089 -0.3292 -0.0423  0.0043
11822SOL    HW146395   9.689   1.419   3.147 -0.6910 -0.9163  0.1511
11822SOL    HW246396   9.644   1.483   3.004  0.2575  0.1721  0.3262
11823SOL     OW46397   8.159   1.370   1.452 -0.4811  0.3067  0.3247
11823SOL    HW146398   8.097   1.364   1.530 -0.6403  0.1238  0.1880
11823SOL    HW246399   8.111   1.337   1.370 -0.7190  1.6403 -0.0823
11824SOL     OW46400   3.429   4.546   2.388  0.0407  0.3343  0.2550
11824SOL    HW146401   3.395   4.511   2.300  0.7584 -0.2958  0.2222
11824SOL    HW246402   3.412   4.644   2.393  1.0302  0.5898 -1.0859
11825SOL     OW46403   3.999   2.702   1.690 -0.5874 -0.3208  0.2607
11825SOL    HW146404   3.969   2.624   1.635 -0.9811  0.3423 -0.4628
11825SOL    HW246405   3.996   2.676   1.787  0.5629 -1.6407 -0.0404
11826SOL     OW46406   0.419   5.530   4.178 -0.1643  0.4248  0.8040
11826SOL    HW146407   0.337   5.517   4.233 -0.1720 -0.0500  0.6810
11826SOL    HW246408   0.402   5.601   4.109 -1.1358 -1.0560 -0.5171
11827SOL     OW46409   9.456   8.003   4.930  0.3023 -0.1195  0.0607
11827SOL    HW146410   9.505   8.003   5.017  1.2810 -1.3482 -0.4726
11827SOL    HW246411   9.432   8.097   4.905 -0.1372  0.2270  1.7283
11828SOL     OW46412   9.769   8.425   4.859  0.2629 -0.4514 -0.1417
11828SOL    HW146413   9.682   8.467   4.886  0.8768  0.3793  0.5825
11828SOL    HW246414   9.819   8.487   4.799  1.1834 -0.1157  0.9476
11829SOL     OW46415   2.797   6.687   4.368  0.5298  0.1243 -0.5318
11829SOL    HW146416   2.799   6.631   4.451 -1.9295  0.2500 -0.3561
11829SOL    HW246417   2.773   6.629   4.290  1.0434  0.3660 -0.8724
11830SOL     OW46418   3.548   6.298   3.977  0.3049 -0.2441  0.0996
11830SOL    HW146419   3.556   6.236   3.899  0.1774 -0.0655 -0.0559
11830SOL    HW246420   3.595   6.383   3.957 -0.0862 -0.0371  0.0481
11831SOL     OW46421   1.306   2.278   5.490 -0.1122 -0.5792  0.4636
11831SOL    HW146422   1.247   2.231   5.556  0.6133 -0.8871  0.9038
11831SOL    HW246423   1.395   2.297   5.533  0.3424 -0.7212 -0.4000
11832SOL     OW46424   9.684   1.213   3.679  0.0926 -0.2204  0.2396
11832SOL    HW146425   9.769   1.264   3.691  0.5502 -1.1351  0.9265
11832SOL    HW246426   9.696   1.121   3.714 -0.9761 -0.5613 -0.2922
11833SOL     OW46427   4.239   8.813   5.044 -0.0367 -0.2915  0.7241
11833SOL    HW146428   4.221   8.845   4.951  0.0309  0.2862  0.9069
11833SOL    HW246429   4.319   8.752   5.044 -2.2214 -3.2704 -0.1704
11834SOL     OW46430   2.964   5.309   5.184 -0.0027  0.2442  0.1466
11834SOL    HW146431   2.933   5.371   5.112  0.5897 -1.0125 -1.2321
11834SOL    HW246432   3.004   5.227   5.142  1.5389  0.0627  1.8969
11835SOL     OW46433   9.983   0.340   4.703 -0.2318 -0.1726  0.0684
11835SOL    HW146434   9.958   0.284   4.625 -0.2627 -0.6244  0.4022
11835SOL    HW246435  10.039   0.286   4.767  0.5825  0.4650 -0.0876
11836SOL     OW46436   2.983   5.945   0.681 -0.0866  0.1144 -0.8002
11836SOL    HW146437   2.984   5.938   0.781 -1.4645  0.7077 -0.7382
11836SOL    HW246438   2.890   5.962   0.650  0.5251  1.1392 -2.1005
11837SOL     OW46439   3.478   4.374   3.136  0.3327  0.2413  0.1094
11837SOL    HW146440   3.475   4.318   3.054  0.5632  0.1145  0.1867
11837SOL    HW246441   3.506   4.318   3.214  0.6372  0.4792  0.1722
11838SOL     OW46442   9.796   8.650   2.024  0.0062  0.0223  0.4901
11838SOL    HW146443   9.817   8.569   2.080 -0.2385  0.0057  0.5624
11838SOL    HW246444   9.842   8.730   2.062 -0.9954  0.2093  1.3435
11839SOL     OW46445   0.132   2.276   0.932 -0.2917  0.4495  0.1984
11839SOL    HW146446   0.198   2.211   0.970 -1.4931 -0.1054  1.3915
11839SOL    HW246447   0.084   2.234   0.855  1.5836  1.2844 -1.4306
11840SOL     OW46448   6.807   0.466   1.539  0.1130  0.4172 -0.4393
11840SOL    HW146449   6.878   0.465   1.469  0.1922  0.6383 -0.3650
11840SOL    HW246450   6.720   0.435   1.500  0.4790 -0.8356 -0.2732
11841SOL     OW46451   3.247   1.885   0.135 -0.0294 -0.4071  0.2934
11841SOL    HW146452   3.247   1.911   0.232  0.1925  2.5455 -0.4355
11841SOL    HW246453   3.153   1.887   0.100  0.0630  0.0857  0.0703
11842SOL     OW46454   7.956   7.507   2.316  0.5173 -0.0491  0.0719
11842SOL    HW146455   7.947   7.484   2.219  1.2745  0.9583 -0.2464
11842SOL    HW246456   8.028   7.451   2.357  0.8454  0.1910 -0.1746
11843SOL     OW46457   4.413   0.604   4.995 -0.3392  0.2499 -0.6522
11843SOL    HW146458   4.389   0.634   5.088 -2.6173 -0.5569 -0.9332
11843SOL    HW246459   4.510   0.580   4.991 -0.6852 -1.9062  2.1552
11844SOL     OW46460   4.187   0.402   2.418 -0.5582 -0.0861  0.3489
11844SOL    HW146461   4.158   0.451   2.501  0.3980  0.1519  0.5541
11844SOL    HW246462   4.117   0.411   2.348 -0.6732  1.0653  0.5984
11845SOL     OW46463   4.181   8.682   1.705 -0.0951  0.1365 -0.2222
11845SOL    HW146464   4.090   8.673   1.745  0.1780 -1.3784  0.1130
11845SOL    HW246465   4.172   8.707   1.608 -0.8631  0.0631 -0.1731
11846SOL     OW46466   8.281   4.884   0.631 -0.2036  0.0087  0.8200
11846SOL    HW146467   8.266   4.799   0.682  1.3130 -2.1743 -2.2122
11846SOL    HW246468   8.195   4.916   0.592 -0.5330 -0.9285  0.7742
11847SOL     OW46469   6.775   8.934   2.619  0.4220 -0.0004  0.0431
11847SOL    HW146470   6.788   8.984   2.704  0.7153 -1.2131  0.7203
11847SOL    HW246471   6.679   8.937   2.592  1.0412  4.2606 -2.0250
11848SOL     OW46472   4.122   9.900   4.120  0.5130  0.1101 -0.3332
11848SOL    HW146473   4.069   9.816   4.132  1.7893 -0.8181 -1.0743
11848SOL    HW246474   4.108   9.935   4.028  0.4163  0.4222 -0.2018
11849SOL     OW46475   2.755   3.772   3.761  0.3823  0.5484 -0.1219
11849SOL    HW146476   2.675   3.716   3.782  1.2015 -0.9645 -0.9614
11849SOL    HW246477   2.838   3.724   3.788  1.0778  1.6807 -0.1825
11850SOL     OW46478   4.661   4.496   5.580  0.1732  0.1847 -0.5467
11850SOL    HW146479   4.663   4.488   5.480  0.9365 -2.0379 -0.3716
11850SOL    HW246480   4.567   4.514   5.610 -0.0897  0.6794 -1.6369
11851SOL     OW46481   2.114   4.026   4.171 -0.2212  0.4300  0.0995
11851SOL    HW146482   2.158   4.073   4.094  0.0252 -1.0278 -0.6661
11851SOL    HW246483   2.128   4.078   4.255  2.5065  0.2798 -0.2294
11852SOL     OW46484   8.098   7.196   1.321 -0.0068 -0.2562  0.4365
11852SOL    HW146485   8.107   7.124   1.389 -0.9271  0.0571  0.8991
11852SOL    HW246486   8.016   7.250   1.340 -0.2260 -0.1135 -0.8738
11853SOL     OW46487   3.085   3.339   3.808  0.7570  0.1017  0.1581
11853SOL    HW146488   3.151   3.267   3.786 -0.2023 -0.4179 -1.1004
11853SOL    HW246489   3.032   3.311   3.888  0.7002 -0.3902 -0.0496
11854SOL     OW46490   8.392   6.908   2.322 -0.2464 -0.3536  0.0552
11854SOL    HW146491   8.471   6.851   2.299 -0.5354 -0.4641 -0.6593
11854SOL    HW246492   8.374   6.902   2.420  1.3753  0.6020  0.4380
11855SOL     OW46493   0.856   8.580   4.314 -0.0055 -0.2415  0.6435
11855SOL    HW146494   0.766   8.582   4.271  0.9908  0.5924 -1.4645
11855SOL    HW246495   0.859   8.646   4.389 -0.5423  1.1133 -0.5167
11856SOL     OW46496   3.792   6.662   2.827  0.4413 -0.4751  0.1748
11856SOL    HW146497   3.874   6.703   2.867  0.6189  0.1754 -0.8463
11856SOL    HW246498   3.807   6.645   2.730 -0.5913 -0.4704  0.0119
11857SOL     OW46499   0.594   4.745   2.062 -0.1042  0.0563 -0.2420
11857SOL    HW146500   0.558   4.827   2.016  1.2728  1.1491  0.5807
11857SOL    HW246501   0.551   4.735   2.151  0.5732  0.5531  0.1445
11858SOL     OW46502   2.376   4.539   4.200  0.0890 -0.0514 -0.2722
11858SOL    HW146503   2.406   4.633   4.189  1.8746 -0.8748 -2.8248
11858SOL    HW246504   2.316   4.532   4.280  1.7356  2.8092  1.2893
11859SOL     OW46505   8.156   7.737   2.172  0.0345  0.0888 -0.4263
11859SOL    HW146506   8.199   7.718   2.261  3.1215  2.8812 -1.2149
11859SOL    HW246507   8.083   7.804   2.183  0.3153  0.3192  0.0215
11860SOL     OW46508   2.867   6.250   1.879  0.4699  0.4539  0.1803
11860SOL    HW146509   2.891   6.257   1.975 -0.5379  1.3049  0.3689
11860SOL    HW246510   2.817   6.164   1.863  1.6713 -0.2666  0.1822
11861SOL     OW46511   7.259   0.435   3.482 -0.0479  0.1099  0.4543
11861SOL    HW146512   7.217   0.391   3.562 -0.8865  0.5184  0.2493
11861SOL    HW246513   7.307   0.367   3.427  0.9880 -0.1002  1.5790
11862SOL     OW46514   4.996   0.122   4.158  0.1895 -0.6835  0.2520
11862SOL    HW146515   5.071   0.079   4.107  0.2648  1.6973 -1.7708
11862SOL    HW246516   4.919   0.138   4.096 -0.0424  1.5429  1.0658
11863SOL     OW46517   1.121   6.150   3.729  0.0547 -0.2730  0.2788
11863SOL    HW146518   1.132   6.249   3.722 -2.0019  0.0706  1.3957
11863SOL    HW246519   1.080   6.128   3.818  0.3560 -2.1037 -0.0328
11864SOL     OW46520   3.977   3.898   1.273 -0.2915 -0.2019  0.0151
11864SOL    HW146521   3.899   3.838   1.254 -0.4661  0.5887 -1.9116
11864SOL    HW246522   4.018   3.927   1.187  1.7774 -0.1143  0.9956
11865SOL     OW46523   3.298   0.993   5.153 -0.4851  0.3200 -0.1377
11865SOL    HW146524   3.340   1.037   5.074  0.0413  0.0116 -0.0295
11865SOL    HW246525   3.251   0.909   5.124 -0.6818  0.4471 -0.1917
11866SOL     OW46526   2.610   7.982   5.461 -0.3374  0.7913  0.5033
11866SOL    HW146527   2.536   7.953   5.522 -0.1501 -0.0091  0.3648
11866SOL    HW246528   2.687   8.016   5.515  0.4440 -1.3754  0.8058
11867SOL     OW46529   9.545   4.851   5.502  0.1656  0.0251  0.3753
11867SOL    HW146530   9.578   4.939   5.467  2.8119 -1.6883 -1.5696
11867SOL    HW246531   9.472   4.817   5.443 -1.8965  1.5322  1.9579
11868SOL     OW46532   3.502   4.717   5.560 -0.6537  0.6886 -0.5379
11868SOL    HW146533   3.546   4.804   5.578  2.1912 -0.6951 -0.5364
11868SOL    HW246534   3.415   4.733   5.514  0.0449  3.4941 -0.9823
11869SOL     OW46535   3.919   8.131   1.098  0.0769  0.8377  0.1919
11869SOL    HW146536   3.912   8.226   1.128  1.9696  1.0912 -0.1482
11869SOL    HW246537   3.996   8.087   1.143 -1.0709 -0.6852  0.6958
11870SOL     OW46538   8.995   1.642   0.885 -0.1269  0.2750  0.2971
11870SOL    HW146539   9.043   1.725   0.860  0.5835 -0.0369  0.6217
11870SOL    HW246540   8.968   1.593   0.802 -1.5289  1.3762  0.0828
11871SOL     OW46541   8.870   4.739   2.841 -0.1209  0.2255  0.1947
11871SOL    HW146542   8.854   4.813   2.776 -1.9856 -0.7967 -0.5479
11871SOL    HW246543   8.835   4.653   2.803  0.8397 -0.7944  1.5861
11872SOL     OW46544   2.890   2.583   2.586 -0.1795 -0.1068 -0.1261
11872SOL    HW146545   2.883   2.623   2.495 -1.3483 -1.3781 -0.6064
11872SOL    HW246546   2.982   2.547   2.600 -0.6226 -1.8922 -1.6610
11873SOL     OW46547   7.284   8.948   3.447 -1.0643 -0.4339  0.2653
11873SOL    HW146548   7.307   8.898   3.531  1.8404 -0.4071 -0.4775
11873SOL    HW246549   7.279   9.046   3.466  1.1508 -0.2717  0.1221
11874SOL     OW46550   7.355   7.038   3.422  0.0044  0.2566 -0.3355
11874SOL    HW146551   7.447   7.016   3.454 -0.1754 -0.2439 -0.1605
11874SOL    HW246552   7.348   7.018   3.324 -0.6646 -2.1174  0.1675
11875SOL     OW46553   5.875   8.338   3.601  1.0392  0.2698 -0.1633
11875SOL    HW146554   5.776   8.354   3.595  0.7031 -1.3332  0.9423
11875SOL    HW246555   5.923   8.426   3.603 -0.4127  1.0637  0.1658
11876SOL     OW46556   9.193   7.943   2.343 -0.1239  0.2302 -0.1664
11876SOL    HW146557   9.225   7.927   2.250 -0.5438  1.8030 -0.5963
11876SOL    HW246558   9.269   7.931   2.407  0.5162  0.5864 -0.8570
11877SOL     OW46559   9.510   1.199   2.418  0.6320 -0.4257 -0.0039
11877SOL    HW146560   9.539   1.112   2.458  1.0852 -0.2961 -0.0501
11877SOL    HW246561   9.512   1.192   2.318  0.2495 -0.5004 -0.0062
11878SOL     OW46562   7.027   7.203   2.542  0.1477 -0.4692 -0.0586
11878SOL    HW146563   6.940   7.240   2.510  0.8953  1.3079 -0.1143
11878SOL    HW246564   7.023   7.103   2.542 -1.3099 -0.4432 -1.7103
11879SOL     OW46565   9.102   1.293   2.666  0.3701 -0.1074 -0.6982
11879SOL    HW146566   9.020   1.322   2.616 -0.1131  0.7544  0.5947
11879SOL    HW246567   9.183   1.317   2.613 -0.1765 -0.2887 -1.6347
11880SOL     OW46568   7.062   0.947   2.073  0.0130 -0.3258  1.0671
11880SOL    HW146569   7.126   1.005   2.123 -0.7174  0.7085  0.8270
11880SOL    HW246570   6.997   0.905   2.137 -0.2596  0.1565  1.1124
11881SOL     OW46571   3.949   9.903   1.596 -0.1471 -0.2132 -0.1395
11881SOL    HW146572   3.872   9.963   1.618  0.1625  0.8290 -1.7898
11881SOL    HW246573   3.914   9.815   1.566 -0.6511 -0.2553  0.5552
11882SOL     OW46574   3.444   7.666   5.254  0.1185 -0.3925 -0.1992
11882SOL    HW146575   3.391   7.595   5.208  0.1021  0.3536 -1.3340
11882SOL    HW246576   3.415   7.756   5.223  1.0826  0.0786  0.2142
11883SOL     OW46577   8.032   5.368   0.752 -0.3244  0.2634  0.0453
11883SOL    HW146578   8.115   5.312   0.756 -0.3546  0.3103  1.6781
11883SOL    HW246579   8.034   5.424   0.669  1.4462  0.5235  0.2415
11884SOL     OW46580   2.990   5.827   1.684  0.2290 -0.8081  0.0241
11884SOL    HW146581   2.946   5.914   1.664  1.2108 -0.0010  1.2647
11884SOL    HW246582   3.045   5.799   1.605  0.6225  0.1534 -0.0508
11885SOL     OW46583   3.560   9.940   3.593 -0.0008  0.0490 -0.1880
11885SOL    HW146584   3.507   9.953   3.676  0.6511  2.0014 -0.0480
11885SOL    HW246585   3.546  10.017   3.532  0.6843 -0.6526 -1.2595
11886SOL     OW46586   2.372   2.911   2.454 -0.6564 -0.3761 -0.2068
11886SOL    HW146587   2.355   2.891   2.550  2.1820  1.7423  0.7919
11886SOL    HW246588   2.314   2.988   2.425 -1.0949 -0.6519 -0.0761
11887SOL     OW46589   2.159   7.891   0.974  0.2606  0.3432  0.1989
11887SOL    HW146590   2.163   7.813   0.912 -0.7376  0.5188 -0.1006
11887SOL    HW246591   2.105   7.964   0.932 -3.0654 -0.6892  2.4716
11888SOL     OW46592   2.119   9.324   5.058  0.1484 -0.2909 -0.5713
11888SOL    HW146593   2.094   9.236   5.097  1.0126 -0.2479  0.0671
11888SOL    HW246594   2.154   9.311   4.965 -0.3798 -0.5395 -0.7422
11889SOL     OW46595   9.613   6.300   5.108  0.1315  0.3550  0.3224
11889SOL    HW146596   9.669   6.379   5.084  1.6529 -0.1930  1.9911
11889SOL    HW246597   9.597   6.298   5.206 -0.1520 -1.2193  0.2621
11890SOL     OW46598   2.514   4.228   5.170  0.4804 -0.0512  0.7508
11890SOL    HW146599   2.438   4.268   5.220 -0.1147  0.9587 -0.9208
11890SOL    HW246600   2.561   4.162   5.229 -1.7203 -0.7707  1.7736
11891SOL     OW46601   6.678   0.340   3.839 -0.0868  0.6130  0.0916
11891SOL    HW146602   6.589   0.353   3.883 -0.3860  1.2001 -0.6635
11891SOL    HW246603   6.737   0.286   3.898 -1.7735 -1.9387 -0.4548
11892SOL     OW46604   0.713   6.357   2.760  0.5020 -0.8185 -0.0452
11892SOL    HW146605   0.618   6.327   2.758  0.0437  0.3640  2.3081
11892SOL    HW246606   0.756   6.337   2.672 -1.9860 -1.0925 -1.2455
11893SOL     OW46607   9.056   5.438   3.284  0.5311 -0.2430  0.7051
11893SOL    HW146608   9.021   5.477   3.369 -0.8759  0.4484 -0.1854
11893SOL    HW246609   9.083   5.511   3.222  2.1716 -0.7548  0.7940
11894SOL     OW46610   8.459   0.675   4.242  0.5829  0.0520  0.1037
11894SOL    HW146611   8.521   0.753   4.236  1.6578 -0.6527  1.7302
11894SOL    HW246612   8.409   0.679   4.329 -1.6317  0.5741 -1.1539
11895SOL     OW46613   8.207   2.299   3.730 -0.1837 -0.1160 -0.5606
11895SOL    HW146614   8.295   2.282   3.775 -0.8333  0.8615  1.1227
11895SOL    HW246615   8.134   2.253   3.781 -0.6397 -0.9702 -1.9846
11896SOL     OW46616   1.964   2.575   1.883  0.9916  0.2088  0.0769
11896SOL    HW146617   1.886   2.603   1.827  1.3541  0.9378 -0.0714
11896SOL    HW246618   2.030   2.650   1.888  1.4173 -0.1995  0.6730
11897SOL     OW46619   3.780   3.733   0.038 -0.1858  0.2353 -0.3012
11897SOL    HW146620   3.815   3.779  -0.043  1.0960  0.3887  0.3309
11897SOL    HW246621   3.844   3.662   0.067 -0.3300  0.5899  0.9235
11898SOL     OW46622   0.750   8.435   4.775 -0.0955  0.5660 -0.2269
11898SOL    HW146623   0.651   8.422   4.779 -0.2122  0.8335 -1.8239
11898SOL    HW246624   0.796   8.357   4.817 -0.9721 -0.4099 -1.0408
11899SOL     OW46625   2.610   9.037   2.442  0.8663 -0.2329 -0.0657
11899SOL    HW146626   2.645   8.971   2.510  1.0673 -0.1261 -0.0660
11899SOL    HW246627   2.510   9.042   2.450  0.6500 -2.0413 -1.4241
11900SOL     OW46628   3.934   7.921   1.976  0.0233  0.4849 -0.1056
11900SOL    HW146629   3.895   7.859   1.908  1.6262 -0.1882 -0.4389
11900SOL    HW246630   3.987   7.867   2.043  0.6693  1.3977  0.1276
11901SOL     OW46631   2.979   4.591   1.082 -0.4544  0.4233 -0.4894
11901SOL    HW146632   3.076   4.591   1.106 -0.3002 -1.4752 -1.0042
11901SOL    HW246633   2.942   4.499   1.095 -2.1293  1.0651 -0.5650
11902SOL     OW46634   3.832   9.364   0.833 -0.0725  0.7344 -0.3001
11902SOL    HW146635   3.895   9.362   0.911  0.7687 -0.1257 -0.9873
11902SOL    HW246636   3.813   9.459   0.807 -0.8642  1.0425  1.3485
11903SOL     OW46637   7.461   9.979   3.482  0.6472  0.3198 -0.6702
11903SOL    HW146638   7.466  10.074   3.511  1.4645  1.3711 -4.0287
11903SOL    HW246639   7.552   9.948   3.453  0.0518 -0.9198 -1.2407
11904SOL     OW46640   3.662   0.634   5.235  0.4565 -0.5279 -0.4299
11904SOL    HW146641   3.720   0.567   5.282 -1.4120 -3.3090 -1.9572
11904SOL    HW246642   3.712   0.673   5.158  1.0410 -1.2699 -0.4332
11905SOL     OW46643   8.636   7.832   4.039 -0.0283  0.5166 -0.0363
11905SOL    HW146644   8.588   7.917   4.061 -0.1875  0.3763  0.1533
11905SOL    HW246645   8.608   7.760   4.103  0.5594  0.4809  0.1799
11906SOL     OW46646   3.157   2.671   5.274  0.0088 -0.0708 -0.2370
11906SOL    HW146647   3.102   2.618   5.339 -2.8710  0.2607 -2.2939
11906SOL    HW246648   3.198   2.610   5.207 -0.0276 -0.0789 -0.2520
11907SOL     OW46649   8.890   7.232   3.894  0.4899  0.6472  0.0308
11907SOL    HW146650   8.933   7.221   3.804 -0.3667  1.4336 -0.4830
11907SOL    HW246651   8.930   7.167   3.958  2.2931  1.1914 -0.4978
11908SOL     OW46652   8.824   6.856   0.685 -0.1536  0.0752  0.0694
11908SOL    HW146653   8.724   6.854   0.696 -0.0440 -2.3337  1.0259
11908SOL    HW246654   8.861   6.764   0.702  2.0443  0.4896 -2.2034
11909SOL     OW46655   3.276   0.307   0.466 -0.7601  0.1263 -0.0826
11909SOL    HW146656   3.355   0.320   0.405 -0.1286  0.1050  0.7248
11909SOL    HW246657   3.221   0.391   0.466 -0.1135  0.5545  0.2413
11910SOL     OW46658   8.137   0.481   5.512 -0.0682  0.0363  0.4900
11910SOL    HW146659   8.166   0.474   5.608 -1.8973  1.3735  1.1826
11910SOL    HW246660   8.163   0.570   5.476 -0.4201 -0.0110  0.1187
11911SOL     OW46661   3.801   2.561   4.828  0.0223 -0.0568 -0.3877
11911SOL    HW146662   3.885   2.590   4.782 -0.1818 -0.7153 -1.1842
11911SOL    HW246663   3.723   2.611   4.791 -0.3215 -1.5309 -1.7170
11912SOL     OW46664   7.450   7.776   2.475  0.5362  0.1227  0.1023
11912SOL    HW146665   7.406   7.737   2.394 -1.2830  1.1423  0.5602
11912SOL    HW246666   7.447   7.876   2.469  2.2960  0.2167  0.4362
11913SOL     OW46667   1.554   6.984   0.139  0.1582 -0.6099 -0.7587
11913SOL    HW146668   1.512   7.028   0.059  0.2094 -0.0213 -0.4667
11913SOL    HW246669   1.650   7.010   0.145 -0.5298  1.7017  1.1173
11914SOL     OW46670   1.652   2.157   0.718 -0.1786  0.1780  0.1483
11914SOL    HW146671   1.560   2.184   0.747 -1.1853 -3.5899  0.7610
11914SOL    HW246672   1.702   2.120   0.797  0.9755 -0.0490 -0.6777
11915SOL     OW46673   1.886   7.985   4.217  0.8613 -0.4975 -0.0482
11915SOL    HW146674   1.821   7.941   4.156  0.6271 -0.3710  0.1123
11915SOL    HW246675   1.840   8.012   4.301  0.9350  0.3483 -0.2819
11916SOL     OW46676   9.127   7.177   3.315  0.8131  0.0298 -0.2518
11916SOL    HW146677   9.194   7.202   3.385  1.0716 -1.2739 -0.0227
11916SOL    HW246678   9.140   7.234   3.234 -1.4325  3.6756  1.8194
11917SOL     OW46679   1.300   9.655   0.976  0.1696  0.1430 -0.3483
11917SOL    HW146680   1.395   9.648   1.007 -0.3927 -3.2451  0.7955
11917SOL    HW246681   1.253   9.724   1.031  0.9349 -1.0535  1.9001
11918SOL     OW46682   4.465   9.997   0.286 -0.0166  0.0125  0.0666
11918SOL    HW146683   4.476   9.925   0.218 -2.7399 -0.4804  0.1289
11918SOL    HW246684   4.478   9.959   0.378 -2.7794 -0.7341  0.1840
11919SOL     OW46685   4.321   9.283   3.650 -0.0075 -0.0407  0.1088
11919SOL    HW146686   4.297   9.295   3.746  0.0076  0.7437  0.0195
11919SOL    HW246687   4.379   9.202   3.640  0.1955  0.0174  0.7944
11920SOL     OW46688   0.101   2.574   3.605  0.1557  0.6011  0.2522
11920SOL    HW146689   0.044   2.655   3.590 -1.3073 -0.5270 -0.4479
11920SOL    HW246690   0.088   2.510   3.529  2.8062  0.5594 -0.2073
11921SOL     OW46691   2.857   0.320   5.030  0.0035 -0.4283  0.0158
11921SOL    HW146692   2.804   0.309   5.114 -0.4336 -0.4460 -0.2642
11921SOL    HW246693   2.804   0.287   4.952 -0.1311  0.8745 -0.4421
11922SOL     OW46694   5.912   8.009   2.287  0.0202  0.2083 -0.1862
11922SOL    HW146695   5.859   8.038   2.208 -1.7086  0.9581  1.2221
11922SOL    HW246696   5.939   7.914   2.276  0.7764  0.6262 -2.1806
11923SOL     OW46697   8.748   4.944   5.086 -0.4221 -0.1159  0.1788
11923SOL    HW146698   8.719   5.004   5.160  0.2194 -0.1782  0.4776
11923SOL    HW246699   8.669   4.892   5.053 -0.6221 -0.4344  1.1335
11924SOL     OW46700   9.108   0.878   5.419  0.2584  0.1443  0.1883
11924SOL    HW146701   9.084   0.932   5.338  3.2964  0.9488 -0.2418
11924SOL    HW246702   9.142   0.939   5.491 -1.6464 -0.6473  1.8029
11925SOL     OW46703   3.456   9.487   0.262  0.7243 -1.0885  0.6827
11925SOL    HW146704   3.454   9.581   0.296  1.7396 -1.2861  1.2794
11925SOL    HW246705   3.460   9.488   0.162  1.4589 -0.4866  0.7130
11926SOL     OW46706   8.914   8.246   3.284  0.1158  0.4968 -0.4097
11926SOL    HW146707   8.930   8.264   3.187  0.9323 -2.6123 -0.9120
11926SOL    HW246708   8.998   8.267   3.335 -0.0639  1.3935 -0.4747
11927SOL     OW46709   0.556   0.347   5.557  0.1444  0.1780  0.1964
11927SOL    HW146710   0.634   0.285   5.567 -1.2830 -1.4098  1.9362
11927SOL    HW246711   0.478   0.311   5.608 -2.3690  0.7063 -3.1121
11928SOL     OW46712   9.925   4.615   3.184  0.2333 -0.0161  0.3006
11928SOL    HW146713   9.897   4.526   3.148 -0.8771  0.4062  0.0871
11928SOL    HW246714   9.846   4.677   3.182  0.6046  0.5199  1.8574
11929SOL     OW46715   6.040   0.570   4.621  0.3728 -0.1657  0.4608
11929SOL    HW146716   5.996   0.572   4.711  0.2972 -0.3144  0.4272
11929SOL    HW246717   5.974   0.597   4.551 -0.3644 -2.7817  0.1198
11930SOL     OW46718   1.033   0.506   0.494 -0.0029 -0.8834  0.0499
11930SOL    HW146719   1.001   0.416   0.523 -1.1776  0.2480  2.3108
11930SOL    HW246720   1.127   0.519   0.525 -0.3289 -0.7603  1.0007
11931SOL     OW46721   9.378   8.631   4.212 -0.2887 -0.2245 -0.8041
11931SOL    HW146722   9.301   8.684   4.176 -0.2045  0.4937  0.0411
11931SOL    HW246723   9.349   8.538   4.232 -0.9694  0.0624 -0.4262
11932SOL     OW46724   3.673   9.935   4.885 -0.2371  0.9839  0.1875
11932SOL    HW146725   3.584   9.962   4.848 -0.1209  1.1030 -0.0047
11932SOL    HW246726   3.662   9.907   4.981 -0.5123  0.8167  0.1072
11933SOL     OW46727   4.359   7.624   2.891  0.1010 -0.1384  0.4356
11933SOL    HW146728   4.318   7.709   2.924 -1.6927 -1.1777  0.9656
11933SOL    HW246729   4.380   7.565   2.969  2.2354  0.1933  0.1318
11934SOL     OW46730   4.188   6.770   2.525 -0.6691 -0.2835 -0.1437
11934SOL    HW146731   4.091   6.786   2.509 -0.3313 -0.5579 -2.6002
11934SOL    HW246732   4.217   6.689   2.474  0.8168 -0.3130  0.7210
11935SOL     OW46733   2.322   6.365   1.639  0.5183  0.5007 -0.2130
11935SOL    HW146734   2.224   6.379   1.625  0.4638  0.3025 -0.0392
11935SOL    HW246735   2.361   6.324   1.557 -0.1252 -2.2801  0.8003
11936SOL     OW46736   2.207   7.125   3.845 -0.1879  0.5767  0.4000
11936SOL    HW146737   2.294   7.142   3.799 -0.3159  0.3011  0.0574
11936SOL    HW246738   2.133   7.167   3.793 -0.1632  1.5708  1.1564
11937SOL     OW46739   3.747   6.898   1.262 -0.2602 -0.0123  0.0160
11937SOL    HW146740   3.681   6.826   1.238 -1.0772  0.1134  1.7777
11937SOL    HW246741   3.709   6.987   1.240  0.0168 -0.0124 -0.4877
11938SOL     OW46742   9.501   7.888   0.829 -0.0946  0.2812 -0.3045
11938SOL    HW146743   9.562   7.814   0.802  1.4850  1.3410  0.2604
11938SOL    HW246744   9.479   7.944   0.750  1.0575  0.8841 -0.2075
11939SOL     OW46745   5.260   9.680   2.904  0.2596 -0.3805 -0.4837
11939SOL    HW146746   5.289   9.743   2.975  1.7018 -1.1701 -0.3590
11939SOL    HW246747   5.164   9.655   2.920  0.2348  0.3104  0.5348
11940SOL     OW46748   9.213   2.405   3.227 -0.2542  0.5097  0.3384
11940SOL    HW146749   9.170   2.314   3.231  0.1472  0.3301  0.5896
11940SOL    HW246750   9.148   2.473   3.259 -0.3956  0.2523  0.6066
11941SOL     OW46751   8.379   9.369   1.686 -0.5721 -0.1401 -0.9567
11941SOL    HW146752   8.282   9.383   1.666 -1.1734 -1.0341  1.1719
11941SOL    HW246753   8.422   9.317   1.613 -2.1358 -1.3307 -1.0375
11942SOL     OW46754   2.709   6.972   1.548 -0.4483  0.5134  0.2477
11942SOL    HW146755   2.636   6.913   1.512 -0.2254  1.1098 -1.2129
11942SOL    HW246756   2.773   6.994   1.475  0.8884  0.4754  1.3930
11943SOL     OW46757   0.619   5.837   1.199 -0.2243  0.6154 -0.0568
11943SOL    HW146758   0.592   5.743   1.179  0.1515  0.4540  0.1869
11943SOL    HW246759   0.641   5.845   1.296  1.5752  0.4974 -0.4281
11944SOL     OW46760   0.741   5.903   1.651 -0.4985 -0.7088 -0.1034
11944SOL    HW146761   0.663   5.905   1.714 -0.3048 -0.0409  0.1277
11944SOL    HW246762   0.826   5.909   1.704 -0.3673  1.0412 -0.4833
11945SOL     OW46763   2.759   7.627   1.317  0.2593 -0.3839 -0.2728
11945SOL    HW146764   2.855   7.608   1.338  0.5305 -0.6251 -1.6864
11945SOL    HW246765   2.743   7.726   1.323  0.9929 -0.1702 -1.5815
11946SOL     OW46766   1.166   0.446   1.396  0.0706 -0.9499 -0.2347
11946SOL    HW146767   1.111   0.506   1.454 -1.5857 -2.6577 -0.0184
11946SOL    HW246768   1.212   0.501   1.327  0.1259  0.8142  1.1499
11947SOL     OW46769   8.434   5.168   2.641  0.1983 -0.7069  0.0815
11947SOL    HW146770   8.365   5.142   2.708 -1.3815  0.8820 -0.8536
11947SOL    HW246771   8.490   5.242   2.678  0.7480 -1.3104  0.4601
11948SOL     OW46772   0.783   8.592   0.948 -0.2433  0.3628  0.3088
11948SOL    HW146773   0.839   8.608   0.867  4.3323 -0.6618  3.0522
11948SOL    HW246774   0.718   8.518   0.930  0.7413  0.1009 -2.3613
11949SOL     OW46775   9.264   6.950   2.468 -0.3881  0.4113 -0.1521
11949SOL    HW146776   9.294   6.946   2.373  0.1348  0.7634 -0.0080
11949SOL    HW246777   9.184   6.892   2.481  0.6965 -1.1763 -0.3712
11950SOL     OW46778   0.585   3.335   1.777  0.4078 -0.1583 -0.2626
11950SOL    HW146779   0.593   3.245   1.821  0.9466 -1.2017 -2.4519
11950SOL    HW246780   0.661   3.348   1.713 -0.7605  1.0147 -1.4374
11951SOL     OW46781   9.713   3.223   4.358 -0.3108 -0.7574  0.5391
11951SOL    HW146782   9.761   3.279   4.426  1.4626 -3.0309  1.2455
11951SOL    HW246783   9.761   3.229   4.271  0.0810 -1.4183  0.7052
11952SOL     OW46784   0.848   5.709   3.236 -0.3251 -0.3645  0.4651
11952SOL    HW146785   0.756   5.704   3.199  0.2373  1.2480 -1.2420
11952SOL    HW246786   0.902   5.631   3.202 -0.8665 -0.9397  0.9258
11953SOL     OW46787   8.562   7.627   0.629  0.0195  0.1468  0.5244
11953SOL    HW146788   8.599   7.539   0.659  0.8143  0.2601 -0.1183
11953SOL    HW246789   8.502   7.612   0.550  1.3554  0.3538 -0.5404
11954SOL     OW46790   2.859   8.370   4.426 -0.6437 -0.1573  0.3658
11954SOL    HW146791   2.921   8.393   4.351 -0.3801 -0.5056  0.4730
11954SOL    HW246792   2.911   8.326   4.500 -0.9867 -0.2768  0.5370
11955SOL     OW46793   7.255   1.497   1.932  0.5732 -0.3319 -0.0601
11955SOL    HW146794   7.202   1.500   1.848 -1.5123 -0.4425  1.2095
11955SOL    HW246795   7.220   1.565   1.996  3.2152  0.9185  0.1311
11956SOL     OW46796   7.665   5.460   4.839  0.3109  0.1924 -0.2030
11956SOL    HW146797   7.685   5.363   4.854  0.6994  0.3816  0.4997
11956SOL    HW246798   7.704   5.489   4.752  0.6169 -0.1547 -0.1814
11957SOL     OW46799   1.164   4.184   1.701 -0.0831  0.0138 -0.1085
11957SOL    HW146800   1.238   4.158   1.639  0.3273  0.8646  0.0156
11957SOL    HW246801   1.080   4.136   1.674  0.1349  0.2427 -1.2237
11958SOL     OW46802   3.085   5.648   5.316 -0.0691 -0.3359 -0.3605
11958SOL    HW146803   3.113   5.685   5.405 -1.0364  1.5574 -0.8021
11958SOL    HW246804   3.145   5.573   5.291  1.9194  0.8507  0.6689
11959SOL     OW46805   0.944   5.198   5.601  0.6363  0.1203 -0.2149
11959SOL    HW146806   0.988   5.119   5.559  1.6650  1.6569 -2.0812
11959SOL    HW246807   1.014   5.256   5.643  0.0401  0.7886 -0.1484
11960SOL     OW46808   2.220   3.968   5.255  0.3241 -0.5775 -0.5333
11960SOL    HW146809   2.164   4.046   5.284 -2.0900 -1.4584 -2.6549
11960SOL    HW246810   2.194   3.887   5.307  0.0720 -0.8449 -1.0747
11961SOL     OW46811   3.447   8.708   4.335  0.1038  0.5692 -0.1073
11961SOL    HW146812   3.379   8.640   4.306 -1.0299  1.1467  1.1223
11961SOL    HW246813   3.508   8.729   4.259 -0.5187 -0.6564 -0.9630
11962SOL     OW46814   9.433   8.476   5.217  0.8852 -0.4256 -0.7289
11962SOL    HW146815   9.510   8.442   5.164  0.9977 -1.2602 -0.0366
11962SOL    HW246816   9.450   8.462   5.314  0.7338  1.2125 -0.4529
11963SOL     OW46817   4.319   7.928   4.545 -0.0027  0.0431  0.6980
11963SOL    HW146818   4.407   7.882   4.543  0.8252  1.6122 -0.1126
11963SOL    HW246819   4.330   8.022   4.577 -0.9731  0.9901 -1.5539
11964SOL     OW46820   5.677   1.002   4.175 -0.3448  0.2042  0.1818
11964SOL    HW146821   5.711   1.092   4.149 -1.0221  0.5650  0.5450
11964SOL    HW246822   5.749   0.952   4.224  0.2861  0.2527 -0.6857
11965SOL     OW46823   1.003   7.793   0.218  0.1753 -0.5095  0.0649
11965SOL    HW146824   0.923   7.833   0.264 -1.8436 -2.0347 -1.9840
11965SOL    HW246825   1.086   7.839   0.250 -1.5541  1.5504  1.7996
11966SOL     OW46826   1.202   7.209   2.831 -0.3037  0.3948 -0.5235
11966SOL    HW146827   1.151   7.124   2.817  0.8846 -0.7514  1.7837
11966SOL    HW246828   1.201   7.233   2.927  1.3386  1.7347 -0.8079
11967SOL     OW46829   2.465   3.554   0.608  0.2698 -0.1126  0.3116
11967SOL    HW146830   2.462   3.595   0.517 -0.4917 -1.5866 -0.3475
11967SOL    HW246831   2.535   3.600   0.663  0.3015  1.2127 -0.7975
11968SOL     OW46832   5.149   0.879   2.298 -0.1954  0.5684 -0.3093
11968SOL    HW146833   5.217   0.940   2.258  0.4021 -0.7123 -1.2921
11968SOL    HW246834   5.194   0.812   2.357 -0.5321 -0.5223 -1.2607
11969SOL     OW46835   8.075   5.763   4.486 -0.0213  0.2681  0.3574
11969SOL    HW146836   8.039   5.739   4.576  1.3501 -2.3887  0.2443
11969SOL    HW246837   8.138   5.840   4.495  1.5316 -1.1565  1.9658
11970SOL     OW46838   9.836   3.744   2.592  0.1412  0.3185  0.4188
11970SOL    HW146839   9.796   3.697   2.514 -2.5128 -1.1478  2.5799
11970SOL    HW246840   9.887   3.678   2.648  0.1086  0.8971  1.1388
11971SOL     OW46841   2.376   1.110   0.231  0.2159 -0.2368  0.2159
11971SOL    HW146842   2.341   1.019   0.206 -2.0203  0.3780  0.9265
11971SOL    HW246843   2.362   1.124   0.329 -0.5064  1.3016 -0.0954
11972SOL     OW46844   1.994   2.747   4.443 -0.1168 -0.4877 -0.4472
11972SOL    HW146845   2.023   2.701   4.527  2.0953 -0.3350 -1.1135
11972SOL    HW246846   2.039   2.836   4.436  0.7447 -1.0603 -2.4485
11973SOL     OW46847   0.460   7.495   0.846 -0.2266 -0.5682 -0.1795
11973SOL    HW146848   0.396   7.484   0.770 -0.4013 -0.8167  0.0020
11973SOL    HW246849   0.506   7.584   0.838  2.4866 -2.0864 -2.6151
11974SOL     OW46850   8.653   5.288   5.242  0.8596 -0.5302  0.1160
11974SOL    HW146851   8.711   5.365   5.271 -0.0346 -0.2644  1.2553
11974SOL    HW246852   8.559   5.321   5.228  0.7660 -1.1510 -0.7482
11975SOL     OW46853   1.609   2.637   0.680  0.2523  0.1671 -0.5535
11975SOL    HW146854   1.534   2.596   0.629  0.7380 -1.0099 -0.3401
11975SOL    HW246855   1.574   2.711   0.739 -0.3377  1.4032 -2.4223
11976SOL     OW46856   0.234   5.019   0.416 -0.1438 -0.0588 -0.6303
11976SOL    HW146857   0.166   5.020   0.343  0.3523 -0.1795 -1.0943
11976SOL    HW246858   0.245   4.926   0.451  0.7156 -0.2692 -1.4347
11977SOL     OW46859   1.682   1.907   4.479  0.7716  0.3170 -0.0059
11977SOL    HW146860   1.615   1.876   4.412 -1.2649  0.3610  1.9686
11977SOL    HW246861   1.739   1.979   4.438 -0.0547 -0.0378 -1.8410
11978SOL     OW46862   3.636   9.681   0.948  0.1591 -0.0824 -0.2225
11978SOL    HW146863   3.655   9.747   0.875  0.0953 -0.8281 -0.9220
11978SOL    HW246864   3.722   9.658   0.994  0.0292  1.2981  0.7345
11979SOL     OW46865   9.488   3.697   4.378 -0.7086 -0.8060  0.3478
11979SOL    HW146866   9.542   3.631   4.430 -0.2102 -0.2580  0.5427
11979SOL    HW246867   9.516   3.790   4.404 -0.3701 -0.5176 -0.9671
11980SOL     OW46868   4.341   6.259   1.196 -0.1717 -0.0224 -0.0203
11980SOL    HW146869   4.317   6.188   1.263  0.5007  1.2263  1.5748
11980SOL    HW246870   4.290   6.343   1.217  1.3009  0.8980 -0.0504
11981SOL     OW46871   8.474   9.556   2.513 -0.2736  0.2412 -0.9527
11981SOL    HW146872   8.482   9.632   2.578 -0.4975 -2.7154  2.7352
11981SOL    HW246873   8.377   9.540   2.492 -0.3215  0.2040 -0.7158
11982SOL     OW46874   6.635   0.710   4.120 -0.0340 -0.0578 -0.0586
11982SOL    HW146875   6.575   0.777   4.076 -0.3079  0.2573  0.7771
11982SOL    HW246876   6.675   0.751   4.203 -0.0572 -0.8728  0.3566
11983SOL     OW46877   2.560   7.782   1.116 -0.2677 -0.5588 -0.1235
11983SOL    HW146878   2.569   7.690   1.153 -0.0266 -0.2294  0.6499
11983SOL    HW246879   2.612   7.846   1.173 -0.2559  0.0170 -0.7814
11984SOL     OW46880   1.924   2.298   0.970 -0.1153  0.1026  0.1569
11984SOL    HW146881   1.853   2.231   0.949 -0.7971  0.6005  0.8426
11984SOL    HW246882   1.920   2.372   0.903  0.6603 -0.5492 -0.6208
11985SOL     OW46883   8.445   2.996   1.178 -0.1750  0.3400 -0.2219
11985SOL    HW146884   8.542   3.018   1.171 -0.1925 -0.0405 -1.6596
11985SOL    HW246885   8.401   3.009   1.089 -1.9839  3.1094  1.0080
11986SOL     OW46886   2.893   9.415   1.263  0.3634 -0.7987  0.0318
11986SOL    HW146887   2.942   9.490   1.218 -0.2448  0.2868  1.1282
11986SOL    HW246888   2.948   9.381   1.339 -0.5253  0.3813  1.2279
11987SOL     OW46889   9.857   2.552   0.872 -0.3191  0.4153 -0.0065
11987SOL    HW146890   9.859   2.554   0.972  0.2977 -0.4812 -0.0026
11987SOL    HW246891   9.811   2.469   0.840 -0.9709  0.9468 -0.4662
11988SOL     OW46892   4.032   8.912   1.983 -0.2655 -0.1346 -0.0699
11988SOL    HW146893   4.108   8.857   2.018  0.0618  0.8786  0.8484
11988SOL    HW246894   3.994   8.868   1.902  0.2776 -1.4718  0.3841
11989SOL     OW46895   4.959   9.079   1.683  0.4477  0.2381 -0.1070
11989SOL    HW146896   4.980   9.039   1.772  0.8813 -1.4643 -0.9674
11989SOL    HW246897   4.919   9.009   1.623  0.2318  1.3507 -1.2816
11990SOL     OW46898   2.659   1.898   3.179  0.2521 -0.1878  0.0380
11990SOL    HW146899   2.570   1.919   3.137  0.3754 -0.0146 -0.1383
11990SOL    HW246900   2.727   1.885   3.108  0.5330  0.4204  0.1864
11991SOL     OW46901   9.897   9.388   4.997 -0.0537  0.1134  0.2274
11991SOL    HW146902   9.891   9.382   5.097 -0.3835  0.5344  0.2320
11991SOL    HW246903   9.816   9.433   4.961  0.6189  1.0402 -0.1358
11992SOL     OW46904   1.261   7.480   4.197 -0.5506  0.8687  0.2882
11992SOL    HW146905   1.299   7.405   4.144 -1.9985  0.5533 -0.3125
11992SOL    HW246906   1.222   7.549   4.136  0.2893  1.8670  0.8502
11993SOL     OW46907   4.259   7.831   4.170 -0.0710 -0.3795 -0.2020
11993SOL    HW146908   4.183   7.843   4.234  0.2964 -0.9563  0.3487
11993SOL    HW246909   4.237   7.875   4.083 -1.5302 -1.5240 -0.4331
11994SOL     OW46910   9.359   4.123   3.763 -0.1104 -0.0467 -0.2914
11994SOL    HW146911   9.304   4.204   3.781 -0.1408 -0.0428 -0.3944
11994SOL    HW246912   9.439   4.122   3.823  0.3751  0.5301 -0.9161
11995SOL     OW46913   4.011   7.573   1.201  0.1745 -0.2428  0.4626
11995SOL    HW146914   3.955   7.571   1.118 -1.0608  0.9804  1.2462
11995SOL    HW246915   4.014   7.482   1.242 -0.7193 -0.4492  0.0795
11996SOL     OW46916   9.302   1.814   4.322 -0.4535  0.0412  0.3043
11996SOL    HW146917   9.217   1.778   4.283 -0.0186 -0.0473 -0.5887
11996SOL    HW246918   9.309   1.912   4.301  0.5164 -0.3394 -1.1825
11997SOL     OW46919   0.557   7.019   1.476 -0.3214  0.3698  0.0364
11997SOL    HW146920   0.530   7.064   1.561  1.4789 -1.0780  1.4187
11997SOL    HW246921   0.655   6.998   1.479 -0.4956 -0.8567 -1.8696
11998SOL     OW46922   4.014   2.434   1.973  0.0384 -0.4444 -0.2744
11998SOL    HW146923   4.013   2.396   1.880 -1.6417  0.6692 -0.7318
11998SOL    HW246924   4.058   2.524   1.971 -1.1248  0.1381 -0.2388
11999SOL     OW46925   3.293   7.341   4.274 -0.4793 -0.1468  0.0039
11999SOL    HW146926   3.359   7.403   4.230 -0.6302 -0.6259 -0.8858
11999SOL    HW246927   3.245   7.288   4.205 -2.1503  0.5362  0.6316
12000SOL     OW46928   4.319   0.233   0.254 -0.1175  0.3543 -0.6101
12000SOL    HW146929   4.369   0.311   0.217  0.0152  0.2385 -0.6745
12000SOL    HW246930   4.383   0.160   0.277 -0.2661  0.1593 -0.8054
12001SOL     OW46931   9.123   1.533   0.201  0.6750  0.0522 -0.2328
12001SOL    HW146932   9.096   1.629   0.192  2.3504  0.7019  1.1696
12001SOL    HW246933   9.042   1.476   0.212 -0.3477  1.2873 -1.2292
12002SOL     OW46934   1.423   5.699   0.094  0.0114 -0.0478  0.0678
12002SOL    HW146935   1.435   5.707  -0.005 -1.5614  1.5586 -0.0005
12002SOL    HW246936   1.416   5.602   0.118 -1.3855 -0.3936 -1.6205
12003SOL     OW46937   4.912   9.082   3.485 -0.4633 -0.4854  0.3047
12003SOL    HW146938   4.924   8.989   3.521  0.1549 -0.5858 -0.1529
12003SOL    HW246939   4.989   9.139   3.515 -0.9886 -0.0438  0.8224
12004SOL     OW46940   8.222   0.261   3.520  0.6867  0.5122  0.6423
12004SOL    HW146941   8.311   0.229   3.488  0.4408  0.7398 -0.3005
12004SOL    HW246942   8.208   0.232   3.615  0.0291 -3.1703 -0.4865
12005SOL     OW46943   3.898   8.850   3.741 -0.0195 -0.6431 -0.1762
12005SOL    HW146944   3.973   8.821   3.799  1.0710  0.5527 -0.9618
12005SOL    HW246945   3.820   8.788   3.752  1.1388 -1.9727  0.5231
12006SOL     OW46946   0.291   1.026   3.142  0.4860  0.2823  0.0418
12006SOL    HW146947   0.361   1.097   3.130  0.6334  0.1364  0.0334
12006SOL    HW246948   0.254   1.032   3.234  0.7781  0.1192  0.1709
12007SOL     OW46949   8.046   3.023   4.969  0.3715 -0.4488 -0.1680
12007SOL    HW146950   7.964   3.073   4.997 -0.3940 -2.5040  1.3934
12007SOL    HW246951   8.031   2.986   4.877 -0.6269 -1.1420  0.2589
12008SOL     OW46952   0.796   0.860   1.683 -0.0589 -0.1115 -0.0093
12008SOL    HW146953   0.707   0.868   1.638  0.6651 -0.2562 -1.4625
12008SOL    HW246954   0.800   0.927   1.758 -0.9671  0.6868 -0.6500
12009SOL     OW46955   9.976   2.119   2.980  0.2780  0.0520  0.2679
12009SOL    HW146956   9.977   2.052   3.055 -1.5837  0.2000  0.4315
12009SOL    HW246957  10.027   2.201   3.007 -0.2535  0.0375  1.3055
12010SOL     OW46958   3.489   7.929   1.381 -0.0393 -0.8901  0.3732
12010SOL    HW146959   3.486   8.000   1.451 -1.1952 -0.6454  0.0886
12010SOL    HW246960   3.577   7.932   1.334 -0.1689  0.5371  0.1888
12011SOL     OW46961   1.950   9.895   1.750 -0.1375  0.2705  0.2623
12011SOL    HW146962   1.982   9.822   1.690  1.5997  1.4261 -0.2665
12011SOL    HW246963   1.893   9.958   1.697 -0.8747 -0.2035  0.4933
12012SOL     OW46964   9.821   7.533   3.600 -0.5162 -0.8240 -0.2303
12012SOL    HW146965   9.845   7.452   3.653  0.7527 -0.9974 -1.0443
12012SOL    HW246966   9.808   7.507   3.504  0.3110 -0.0015 -0.5721
12013SOL     OW46967   9.101   6.372   1.271  0.7487  0.4296  0.0175
12013SOL    HW146968   9.072   6.371   1.366  0.3394 -0.4392 -0.1043
12013SOL    HW246969   9.044   6.435   1.218 -0.1246 -0.3220  0.0311
12014SOL     OW46970   7.672   2.342   3.749  0.0104 -0.5207 -0.1016
12014SOL    HW146971   7.708   2.281   3.820 -0.1140  0.5292  0.8817
12014SOL    HW246972   7.648   2.289   3.668 -0.7175 -1.8581  0.9816
12015SOL     OW46973   9.295   1.102   4.204 -0.4687 -0.2148  0.3555
12015SOL    HW146974   9.340   1.148   4.127 -0.6359 -0.0189  0.3763
12015SOL    HW246975   9.202   1.078   4.178 -0.6624  0.2277  0.6489
12016SOL     OW46976   2.646   8.692   3.716  0.2069 -0.6211 -0.2486
12016SOL    HW146977   2.716   8.728   3.655 -0.5216  2.4950  0.6928
12016SOL    HW246978   2.685   8.676   3.807  0.0031 -0.1721 -0.0844
12017SOL     OW46979   9.781   4.138   4.304  0.3696  0.7049 -0.1264
12017SOL    HW146980   9.684   4.118   4.290 -0.0384  2.2005  0.5388
12017SOL    HW246981   9.793   4.233   4.333  2.1994  1.0603 -1.9357
12018SOL     OW46982   8.626   9.984   4.118 -0.3016 -0.6547  0.5174
12018SOL    HW146983   8.641   9.935   4.204  2.4622 -2.1264 -0.7655
12018SOL    HW246984   8.597   9.920   4.048 -0.3490  0.1745 -0.2256
12019SOL     OW46985   1.845   2.425   1.631 -0.3052 -0.2423  0.3389
12019SOL    HW146986   1.827   2.508   1.578  0.2714  1.3616  2.6144
12019SOL    HW246987   1.940   2.426   1.664  0.3272 -2.7649 -1.2457
12020SOL     OW46988   4.354   0.703   3.194 -0.1866  0.3765 -0.0312
12020SOL    HW146989   4.377   0.797   3.217  1.6017  0.5272 -2.1897
12020SOL    HW246990   4.384   0.642   3.267 -2.1820  1.5244  1.8017
12021SOL     OW46991   5.909   0.751   2.374 -0.5857  0.2273 -0.3768
12021SOL    HW146992   5.966   0.730   2.453  0.0736  0.5090 -0.7764
12021SOL    HW246993   5.821   0.788   2.405 -1.0576 -1.3994  0.2809
12022SOL     OW46994   2.753   6.115   2.356  0.1367  0.0470  0.1108
12022SOL    HW146995   2.776   6.033   2.304 -1.0025 -0.8065  0.9345
12022SOL    HW246996   2.730   6.189   2.294 -0.6870 -0.8116 -0.6233
12023SOL     OW46997   9.517   5.189   3.981  1.0807  0.1205  0.2798
12023SOL    HW146998   9.457   5.133   3.924 -0.2406  0.1538  1.5970
12023SOL    HW246999   9.584   5.130   4.026 -1.6857 -0.7992  3.3849
12024SOL     OW47000   2.575   3.099   2.488 -0.1302 -0.3593 -0.1592
12024SOL    HW147001   2.535   3.190   2.476 -0.7299 -0.8017 -1.7415
12024SOL    HW247002   2.506   3.029   2.469  0.5317 -1.1420  0.2573
12025SOL     OW47003   2.090   5.185   2.871 -0.0958 -0.8213 -0.4441
12025SOL    HW147004   2.129   5.154   2.958 -0.3018 -2.4473 -0.9227
12025SOL    HW247005   2.001   5.226   2.888  0.9051  1.0710  0.4026
12026SOL     OW47006   9.909   3.903   0.116  0.5308 -0.0224  0.1514
12026SOL    HW147007   9.884   3.929   0.209  2.8492  1.1288  0.4798
12026SOL    HW247008   9.847   3.948   0.051  0.1128  0.6975  1.0432
12027SOL     OW47009   9.189   9.901   4.255 -0.7957  0.1666  0.2601
12027SOL    HW147010   9.201   9.838   4.332 -0.1747  3.3346  2.8244
12027SOL    HW247011   9.267   9.893   4.193 -0.2479 -0.8815  1.0770
12028SOL     OW47012   4.519   9.810   4.668  0.3540  0.0913  0.1557
12028SOL    HW147013   4.480   9.870   4.737 -0.0064  0.5763 -0.4610
12028SOL    HW247014   4.485   9.717   4.681  0.6629  0.0862  0.9200
12029SOL     OW47015   1.894   8.825   1.341  0.1444  0.1620 -0.4043
12029SOL    HW147016   1.840   8.904   1.311 -0.3274 -0.1753 -0.4518
12029SOL    HW247017   1.924   8.839   1.436  2.2845  1.5773 -1.2447
12030SOL     OW47018   8.932   1.371   5.338  0.1422  0.1119  0.2954
12030SOL    HW147019   8.915   1.468   5.352  1.0663 -0.0480  2.8736
12030SOL    HW247020   9.018   1.346   5.381  0.4235 -1.6555 -1.2400
12031SOL     OW47021   1.974   6.456   3.864 -0.1195  0.2003  0.4414
12031SOL    HW147022   1.899   6.393   3.887  0.5034 -1.0704 -0.9379
12031SOL    HW247023   2.051   6.404   3.829  0.7442  1.6793  0.1214
12032SOL     OW47024   0.904   9.721   2.497  0.0435  0.2563 -0.0136
12032SOL    HW147025   0.829   9.787   2.497 -0.2187 -0.0343 -0.0576
12032SOL    HW247026   0.972   9.747   2.565  0.1706  0.8209 -0.3479
12033SOL     OW47027   0.050   0.750   1.545 -0.3329 -0.3307 -0.0131
12033SOL    HW147028   0.023   0.833   1.495  1.0456  0.0481 -0.1454
12033SOL    HW247029   0.141   0.763   1.583 -0.6095 -1.3449  1.0035
12034SOL     OW47030   1.430   6.230   4.716  0.4524 -0.5457  0.4604
12034SOL    HW147031   1.434   6.325   4.749 -1.3610 -0.1830 -0.3104
12034SOL    HW247032   1.421   6.230   4.616  0.3836 -1.5306  0.4624
12035SOL     OW47033   1.453   4.349   5.533 -0.2616 -0.1498 -0.2731
12035SOL    HW147034   1.427   4.350   5.629  0.2035 -0.3443 -0.1432
12035SOL    HW247035   1.485   4.439   5.505  2.2016 -0.7624  0.4779
12036SOL     OW47036   2.567   0.783   0.897 -0.5374 -0.4295 -0.0475
12036SOL    HW147037   2.523   0.854   0.841 -0.3229 -0.4819 -0.2863
12036SOL    HW247038   2.549   0.800   0.993 -1.3456 -0.6267 -0.1614
12037SOL     OW47039   8.926   4.434   3.603 -0.0919  0.4379 -0.0534
12037SOL    HW147040   8.887   4.343   3.590  0.3550  0.0806  1.0114
12037SOL    HW247041   8.911   4.464   3.697 -0.9926  1.8403 -0.6230
12038SOL     OW47042   2.918   8.485   0.570 -0.0178 -0.0075  0.2689
12038SOL    HW147043   2.998   8.544   0.557 -0.6023  0.6135 -0.6176
12038SOL    HW247044   2.921   8.445   0.661  0.3888  1.4018  0.9003
12039SOL     OW47045   5.033   5.432   1.307  0.3591 -0.3043  0.9152
12039SOL    HW147046   4.946   5.473   1.279  0.5947  0.0075  0.6260
12039SOL    HW247047   5.060   5.467   1.396  0.2042 -0.3789  0.9923
12040SOL     OW47048   9.112   6.720   4.556 -0.1357 -0.4137 -0.6343
12040SOL    HW147049   9.186   6.662   4.521  1.0503  1.0276 -0.5454
12040SOL    HW247050   9.024   6.679   4.533  0.6627 -3.7371  1.8546
12041SOL     OW47051   3.327   7.462   0.858 -0.1382  0.2805  0.2532
12041SOL    HW147052   3.408   7.404   0.846 -0.8776 -1.5805  3.6002
12041SOL    HW247053   3.275   7.465   0.772  1.0433 -2.2792 -0.5962
12042SOL     OW47054   3.909   4.055   2.263  0.4993  0.6258  0.7054
12042SOL    HW147055   3.980   4.124   2.250  0.0984  0.4623 -2.9034
12042SOL    HW247056   3.820   4.100   2.273  0.2959  0.7122 -1.2193
12043SOL     OW47057   2.979   0.745   1.904  0.0733  0.2322  0.4731
12043SOL    HW147058   3.039   0.810   1.951 -0.9240  0.9962  0.6998
12043SOL    HW247059   2.889   0.744   1.949 -1.3784  2.0423 -2.2986
12044SOL     OW47060   1.479   0.374   3.657  0.1831  0.3423  0.4369
12044SOL    HW147061   1.548   0.341   3.593 -0.9141 -0.8351 -0.1500
12044SOL    HW247062   1.460   0.304   3.725 -1.4173  0.1186 -0.2132
12045SOL     OW47063   7.450   0.174   2.560  0.2263 -0.0724 -0.2820
12045SOL    HW147064   7.355   0.194   2.534 -0.0133 -0.7448  0.0854
12045SOL    HW247065   7.502   0.152   2.477  0.3788  1.5656 -0.6428
12046SOL     OW47066   2.327   6.867   2.028 -0.1200  0.5699 -0.1516
12046SOL    HW147067   2.298   6.797   1.963 -1.3250  0.5022  0.4391
12046SOL    HW247068   2.281   6.953   2.007 -0.5965  0.5229  0.6542
12047SOL     OW47069   1.398   8.187   3.020  0.2800  0.3375 -0.5450
12047SOL    HW147070   1.466   8.260   3.020  0.0787  0.5274 -0.3919
12047SOL    HW247071   1.386   8.153   2.927  1.8470 -0.8924 -0.3114
12048SOL     OW47072   2.867   8.248   0.391 -0.2970 -0.1927 -0.3453
12048SOL    HW147073   2.960   8.212   0.396 -0.5526 -0.8344 -0.1761
12048SOL    HW247074   2.861   8.333   0.443  0.0640 -0.4254  0.0753
12049SOL     OW47075   5.303   4.106   0.816 -0.1275 -0.6513  0.1107
12049SOL    HW147076   5.340   4.197   0.838 -1.4079  0.2764 -1.4639
12049SOL    HW247077   5.265   4.065   0.898  0.2635  0.3476  0.8034
12050SOL     OW47078   1.631   6.897   2.933  0.0387 -0.4514  0.1621
12050SOL    HW147079   1.661   6.987   2.965  0.2883 -0.1901 -0.7841
12050SOL    HW247080   1.548   6.908   2.878 -0.0493 -0.8233  0.2233
12051SOL     OW47081   4.747   9.811   4.099  0.7413  0.3022  0.4447
12051SOL    HW147082   4.806   9.822   4.179  0.7868 -0.4862  0.5297
12051SOL    HW247083   4.665   9.867   4.110  1.2433  1.0240  0.5501
12052SOL     OW47084   8.251   5.566   5.333  0.7213 -0.3299  0.2508
12052SOL    HW147085   8.309   5.532   5.259  0.7347  0.8051 -0.2825
12052SOL    HW247086   8.187   5.495   5.361  1.1674 -0.9952 -0.4023
12053SOL     OW47087   2.259   4.556   4.481 -0.2461 -0.0320 -0.2145
12053SOL    HW147088   2.214   4.618   4.546 -0.4586  1.4940 -1.7714
12053SOL    HW247089   2.317   4.491   4.531 -0.9463  0.6591  1.5327
12054SOL     OW47090   7.873   1.801   1.128 -0.4880 -0.1153 -0.3192
12054SOL    HW147091   7.870   1.874   1.059  0.2988 -0.7363 -1.0284
12054SOL    HW247092   7.968   1.783   1.153 -0.6993 -0.6762  0.0859
12055SOL     OW47093   6.653   9.383   3.458  0.1019 -0.0211  0.4045
12055SOL    HW147094   6.611   9.292   3.456  0.1259 -0.0668  1.5664
12055SOL    HW247095   6.752   9.374   3.454  0.0397  0.0699 -1.8932
12056SOL     OW47096   9.038   3.068   4.852  0.3232 -0.0158  0.0292
12056SOL    HW147097   9.124   3.036   4.889 -0.0004 -1.1631 -0.2003
12056SOL    HW247098   9.053   3.154   4.803  1.1708  0.2452  0.7364
12057SOL     OW47099   1.325   4.596   1.205  0.7803 -0.0139  0.1749
12057SOL    HW147100   1.239   4.564   1.244  0.6415  0.4026  0.2105
12057SOL    HW247101   1.399   4.537   1.235  0.6614  0.2619  1.0146
12058SOL     OW47102   0.090   1.895   0.869  0.3404 -0.5082 -0.6294
12058SOL    HW147103   0.166   1.954   0.896  0.1015  0.3764 -1.8240
12058SOL    HW247104   0.086   1.889   0.769 -2.5427  1.3473 -0.6756
12059SOL     OW47105   4.934   8.561   5.354  0.3628 -0.2807 -0.3493
12059SOL    HW147106   4.950   8.463   5.367 -0.0060 -0.7052 -2.9071
12059SOL    HW247107   4.838   8.582   5.372  0.3987 -0.4102  0.0045
12060SOL     OW47108   9.983   7.485   1.963  0.1097  0.0045 -0.0597
12060SOL    HW147109  10.031   7.572   1.964 -1.7042  1.0368 -0.1014
12060SOL    HW247110   9.894   7.496   1.918 -0.6005 -1.6158  0.8829
12061SOL     OW47111   8.621   3.138   2.894  0.5567 -0.1801 -0.5379
12061SOL    HW147112   8.540   3.175   2.941 -1.3395 -1.6110 -2.5540
12061SOL    HW247113   8.703   3.178   2.933 -1.1255  1.3722  1.5484
12062SOL     OW47114   4.380   3.965   0.749  0.2239  0.3602 -0.5119
12062SOL    HW147115   4.411   4.015   0.830  1.3657 -1.1963  0.0429
12062SOL    HW247116   4.323   3.888   0.778  0.7558 -0.2896 -1.1763
12063SOL     OW47117   2.607   1.260   4.731 -0.4159 -0.1945  0.0488
12063SOL    HW147118   2.683   1.266   4.795 -0.6250  1.3556  0.1785
12063SOL    HW247119   2.569   1.168   4.733  1.2834 -0.9077  0.1754
12064SOL     OW47120   2.903   6.742   1.848 -0.0363 -0.2990  0.1542
12064SOL    HW147121   2.873   6.662   1.797  1.0894  0.3990 -1.6640
12064SOL    HW247122   2.904   6.822   1.787 -1.2381  1.1367  1.9510
12065SOL     OW47123   8.837   5.216   5.029  0.0090 -0.6215 -0.5401
12065SOL    HW147124   8.810   5.121   5.013 -0.6648 -0.7148  1.0334
12065SOL    HW247125   8.797   5.248   5.115 -0.3183  1.3123 -1.3810
12066SOL     OW47126   0.847   3.187   3.920  0.1301 -0.1194  0.7657
12066SOL    HW147127   0.829   3.210   4.016 -1.1701  2.0657  0.0308
12066SOL    HW247128   0.861   3.271   3.867  0.7569 -1.2927 -0.9824
12067SOL     OW47129   9.711   9.315   1.654 -0.2684  0.1239  0.1193
12067SOL    HW147130   9.735   9.359   1.567 -1.1762 -1.0731 -0.7414
12067SOL    HW247131   9.793   9.274   1.693  0.7944  3.2792  1.3740
12068SOL     OW47132   4.318   5.910   2.591 -0.3731 -0.0553  0.5172
12068SOL    HW147133   4.272   5.899   2.679 -2.5308  2.0611 -0.2815
12068SOL    HW247134   4.258   5.875   2.518 -0.9862  3.1600 -0.5865
12069SOL     OW47135   0.920   0.929   2.733 -0.6250 -0.3982  0.2057
12069SOL    HW147136   1.000   0.878   2.701 -0.4519  0.4969 -0.7956
12069SOL    HW247137   0.949   0.993   2.805 -0.4163  0.0111 -0.2399
12070SOL     OW47138   2.003   7.220   2.969 -0.2698 -0.2914  0.2263
12070SOL    HW147139   2.035   7.287   3.036 -0.2080 -0.5782  0.4901
12070SOL    HW247140   2.045   7.238   2.880 -0.7680  0.4151  0.1362
12071SOL     OW47141   3.175   6.312   5.101  0.6229 -0.0560 -0.3303
12071SOL    HW147142   3.088   6.262   5.103 -1.1962  3.0292  0.9595
12071SOL    HW247143   3.203   6.325   5.006 -0.1605 -1.3060 -0.7536
12072SOL     OW47144   0.839   1.245   3.932  0.5861  0.4580  0.4007
12072SOL    HW147145   0.867   1.338   3.907 -1.1379  0.7763 -0.3610
12072SOL    HW247146   0.745   1.229   3.902  1.1453 -1.8215 -0.2017
12073SOL     OW47147   3.146   2.247   5.295 -0.5243  0.3067  0.1701
12073SOL    HW147148   3.088   2.268   5.216 -1.3110  0.2774  0.7342
12073SOL    HW247149   3.104   2.285   5.378  1.3579  2.2306  0.3039
12074SOL     OW47150   1.916   2.516   3.496  0.1061  0.5654 -0.1615
12074SOL    HW147151   1.970   2.458   3.435 -0.4618 -0.7091  0.5095
12074SOL    HW247152   1.906   2.607   3.456 -0.7614 -0.4062 -2.2395
12075SOL     OW47153   4.702   8.229   0.988 -0.3226  0.4405  0.3703
12075SOL    HW147154   4.784   8.253   0.936 -0.1946  0.2390  0.4766
12075SOL    HW247155   4.639   8.306   0.989 -0.9189 -0.0154 -1.2047
12076SOL     OW47156   0.981   9.825   1.172  0.2829  0.1374 -0.6889
12076SOL    HW147157   1.047   9.755   1.201 -0.3051 -0.2461 -0.2674
12076SOL    HW247158   0.988   9.837   1.073  0.6436 -0.2612 -0.7153
12077SOL     OW47159   0.906   4.091   1.620  0.0701  0.2289 -0.2628
12077SOL    HW147160   0.904   4.077   1.719  0.6032 -1.5822 -0.5008
12077SOL    HW247161   0.857   4.017   1.575  0.0881  0.8888 -1.3681
12078SOL     OW47162   8.890   3.268   5.000  0.2021  0.3318  0.3139
12078SOL    HW147163   8.930   3.177   5.016  0.6868  0.3348 -0.8686
12078SOL    HW247164   8.903   3.324   5.082  0.8994 -0.3030  0.6526
12079SOL     OW47165   9.979   1.921   2.016 -0.1028 -0.3051 -0.1350
12079SOL    HW147166   9.977   2.018   1.992 -1.3075  0.0039  1.1118
12079SOL    HW247167  10.056   1.903   2.077 -1.2984  0.4121  1.6622
12080SOL     OW47168   4.129   7.942   2.795  0.1508 -0.3943  0.3129
12080SOL    HW147169   4.181   8.022   2.827 -0.9447  0.3837  0.1742
12080SOL    HW247170   4.067   7.912   2.867 -1.0271  0.2521 -0.4110
12081SOL     OW47171   6.212   0.219   3.429 -0.2354  0.0359 -1.0126
12081SOL    HW147172   6.150   0.240   3.353  0.6075 -0.8311 -1.9487
12081SOL    HW247173   6.305   0.249   3.405  0.1889 -0.9875 -0.6656
12082SOL     OW47174   1.042   1.057   0.302  0.0579 -0.3315  0.1331
12082SOL    HW147175   1.105   1.071   0.226 -1.4852 -1.5087 -1.3937
12082SOL    HW247176   1.084   0.996   0.369  1.7513  1.3700  0.6687
12083SOL     OW47177   3.526   7.694   2.726  0.5732  0.2548 -0.1987
12083SOL    HW147178   3.507   7.607   2.772  0.7588  0.9027  1.1299
12083SOL    HW247179   3.611   7.733   2.761  0.3301  1.1267 -0.5524
12084SOL     OW47180   8.738   0.590   1.426 -0.4762  0.3397  0.3457
12084SOL    HW147181   8.789   0.512   1.462  2.7398  1.5041 -1.4791
12084SOL    HW247182   8.658   0.557   1.376 -0.0925 -1.6862  1.0031
12085SOL     OW47183   0.525   7.590   5.422 -0.4003  0.2481  0.0792
12085SOL    HW147184   0.616   7.602   5.463 -0.7904 -0.8629  1.2839
12085SOL    HW247185   0.524   7.508   5.366 -0.7480  0.1127  0.2843
12086SOL     OW47186   1.228   4.334   5.379  0.0111  0.1524  0.3672
12086SOL    HW147187   1.162   4.277   5.427  0.5968 -0.1759  0.7879
12086SOL    HW247188   1.313   4.338   5.431  0.4312  0.3163 -0.3259
12087SOL     OW47189   1.757   1.302   1.061  0.2167 -0.0592  0.1085
12087SOL    HW147190   1.705   1.371   1.112  0.7864  0.9478 -0.6512
12087SOL    HW247191   1.703   1.219   1.054 -1.1311  0.8349 -0.3195
12088SOL     OW47192   2.626   9.862   4.078 -0.0444 -0.9144 -0.1694
12088SOL    HW147193   2.688   9.847   4.154 -0.9925 -1.6020  0.4764
12088SOL    HW247194   2.678   9.893   3.998  0.8196  0.7933  1.0419
12089SOL     OW47195   6.620   0.435   4.440 -0.2620  0.2688 -0.1099
12089SOL    HW147196   6.569   0.360   4.483 -1.0004  0.8680  0.0723
12089SOL    HW247197   6.573   0.464   4.357 -0.8541  1.5895  0.6688
12090SOL     OW47198   2.919   1.616   0.310  0.6142  0.0383  0.3147
12090SOL    HW147199   2.903   1.553   0.234 -1.9928 -0.4200  1.1868
12090SOL    HW247200   3.012   1.604   0.345  1.8634  0.2748 -2.7973
12091SOL     OW47201   4.088   6.387   2.596  0.0486  0.3972 -0.2602
12091SOL    HW147202   4.186   6.382   2.615  0.0565  0.3447 -0.3113
12091SOL    HW247203   4.037   6.379   2.681  0.1011  0.8970 -0.1812
12092SOL     OW47204   4.336   8.878   2.301  0.3392 -0.4236 -0.2151
12092SOL    HW147205   4.300   8.819   2.228 -0.0916 -1.2076  0.6136
12092SOL    HW247206   4.433   8.860   2.314  0.7369  0.7052 -1.5227
12093SOL     OW47207   6.374   0.837   3.369 -0.3723  0.1243 -0.3518
12093SOL    HW147208   6.417   0.855   3.280  0.8794 -1.3587 -0.0822
12093SOL    HW247209   6.405   0.748   3.402 -0.1602  1.0336  1.9567
12094SOL     OW47210   0.660   3.641   2.424 -0.3364 -0.4257  0.4695
12094SOL    HW147211   0.628   3.607   2.336 -2.0847 -0.8638  1.2435
12094SOL    HW247212   0.750   3.603   2.444  1.0060  1.3223 -2.0467
12095SOL     OW47213   8.169   3.002   1.291  0.2738  0.3436  0.0100
12095SOL    HW147214   8.144   3.097   1.309 -0.4077  0.1667  0.0297
12095SOL    HW247215   8.266   2.996   1.268 -0.0106  1.2657 -1.5282
12096SOL     OW47216   8.949   2.874   4.676  0.2207  0.3078 -0.3335
12096SOL    HW147217   8.914   2.791   4.721 -0.5754  0.9244  0.1887
12096SOL    HW247218   8.976   2.940   4.746  1.0767  0.4066 -0.7509
12097SOL     OW47219   7.921   2.765   3.172 -0.1626  0.0008 -0.3410
12097SOL    HW147220   7.917   2.758   3.272  1.2922  0.4090 -0.2457
12097SOL    HW247221   7.929   2.861   3.145 -1.0122 -0.0703 -0.8819
12098SOL     OW47222   1.949   2.278   3.304 -0.6705 -0.7235  0.4224
12098SOL    HW147223   2.015   2.341   3.265 -1.9753  0.4010 -0.0098
12098SOL    HW247224   1.990   2.187   3.312  0.9324 -0.0339  0.2277
12099SOL     OW47225   7.293   1.789   0.664  0.0989  0.3565 -0.4402
12099SOL    HW147226   7.322   1.874   0.621  0.1617  0.3854 -0.3409
12099SOL    HW247227   7.258   1.726   0.594 -1.3081  1.0176 -0.3607
12100SOL     OW47228   4.126   1.443   1.307 -0.3066 -0.0236 -0.1725
12100SOL    HW147229   4.027   1.458   1.306 -0.3327 -0.1669  0.1142
12100SOL    HW247230   4.147   1.358   1.259 -0.2105  0.6255 -1.3034
12101SOL     OW47231   3.087   7.285   5.310  0.2783 -1.0828  0.2760
12101SOL    HW147232   3.018   7.347   5.345 -0.2770 -1.0491 -0.8535
12101SOL    HW247233   3.135   7.241   5.386  0.8537  0.8977  1.0965
12102SOL     OW47234   5.322   1.148   4.940  0.0066  0.2629  0.0103
12102SOL    HW147235   5.322   1.095   4.855  0.8279  0.3184 -0.0325
12102SOL    HW247236   5.231   1.148   4.980 -0.6161  1.0931 -1.4011
12103SOL     OW47237   7.436   3.704   0.071  0.2419  0.1124  0.4352
12103SOL    HW147238   7.532   3.723   0.049 -0.1300 -0.6241 -1.9561
12103SOL    HW247239   7.430   3.616   0.117  0.5311 -0.8669 -1.3433
12104SOL     OW47240   0.498   9.543   3.487  0.0836  0.4281  0.2854
12104SOL    HW147241   0.497   9.449   3.453 -1.8233  0.0590  1.2464
12104SOL    HW247242   0.414   9.560   3.539  1.5971  1.8519  2.3677
12105SOL     OW47243   3.236   8.941   4.374  0.4564  0.9930 -0.1528
12105SOL    HW147244   3.308   8.900   4.318  0.2079 -0.7179  0.7388
12105SOL    HW247245   3.243   8.907   4.468 -0.9534  1.5149  0.1603
12106SOL     OW47246   2.305   4.330   5.295  0.1408  0.8621  0.1564
12106SOL    HW147247   2.217   4.291   5.267  0.1708  1.3183 -0.5761
12106SOL    HW247248   2.291   4.392   5.372  0.3076 -1.8891  2.4913
12107SOL     OW47249   8.508   0.453   0.205  0.6736 -0.5055 -0.2815
12107SOL    HW147250   8.506   0.359   0.171 -0.1369 -0.5645 -0.0898
12107SOL    HW247251   8.565   0.458   0.287  0.3105 -0.9320 -0.0010
12108SOL     OW47252   2.610   7.322   0.566 -0.3234  0.3191  0.4170
12108SOL    HW147253   2.574   7.230   0.554  0.9341 -0.2973  1.1730
12108SOL    HW247254   2.601   7.349   0.662 -0.0605  0.6956  0.3369
12109SOL     OW47255   8.256   0.379   3.901  0.2658  0.8444 -0.5726
12109SOL    HW147256   8.348   0.355   3.870  0.7590  0.6218  1.0144
12109SOL    HW247257   8.248   0.478   3.909  0.2183  0.8874 -1.1545
12110SOL     OW47258   3.286   9.510   4.166 -0.2219 -0.3010 -0.4083
12110SOL    HW147259   3.191   9.532   4.189 -0.0121  0.5039 -0.2957
12110SOL    HW247260   3.293   9.413   4.144 -1.5478  0.1131 -2.8661
12111SOL     OW47261   4.524   5.761   1.302 -0.1969 -0.4146  0.0722
12111SOL    HW147262   4.444   5.786   1.356 -0.7421 -0.8525 -0.5289
12111SOL    HW247263   4.607   5.787   1.352 -0.6938 -0.7403  1.0821
12112SOL     OW47264   3.751   4.795   5.049 -0.0348 -0.6425 -0.0215
12112SOL    HW147265   3.847   4.787   5.077 -0.0818 -1.3142 -0.0636
12112SOL    HW247266   3.738   4.750   4.961 -0.7691 -2.0797  0.8090
12113SOL     OW47267   7.116   0.791   1.848 -0.5242 -1.0880  0.4154
12113SOL    HW147268   7.112   0.856   1.924 -0.4607  0.8837 -1.2225
12113SOL    HW247269   7.026   0.783   1.805 -0.2478 -1.1140 -0.1715
12114SOL     OW47270   6.434   9.817   1.687  0.4832 -0.3552  0.0652
12114SOL    HW147271   6.430   9.748   1.616 -0.4963  1.1056 -1.3414
12114SOL    HW247272   6.354   9.809   1.747 -1.2245  1.4163 -1.9077
12115SOL     OW47273   9.426   3.877   5.493 -0.6746 -0.6826 -0.0653
12115SOL    HW147274   9.454   3.949   5.430 -0.4026 -1.9445 -1.4082
12115SOL    HW247275   9.355   3.913   5.554  1.5275  1.5704  1.2489
12116SOL     OW47276   3.742   2.572   3.397 -0.4419  0.6280 -0.2903
12116SOL    HW147277   3.648   2.565   3.429 -1.0338  1.0442 -1.8965
12116SOL    HW247278   3.750   2.649   3.333  0.5886 -0.4703 -1.5278
12117SOL     OW47279   0.502   8.704   4.884 -0.5482 -0.5187  0.1923
12117SOL    HW147280   0.538   8.733   4.795 -1.4823 -0.1927 -0.0876
12117SOL    HW247281   0.423   8.761   4.908 -0.3251 -0.6265  1.2145
12118SOL     OW47282   1.092   7.824   2.517  0.6993  0.8218 -0.0507
12118SOL    HW147283   0.995   7.849   2.507  0.6008  0.3003 -0.4426
12118SOL    HW247284   1.148   7.883   2.459  0.4968  0.3406 -0.7490
12119SOL     OW47285   1.264   8.839   4.091  1.0972 -0.2532  0.0409
12119SOL    HW147286   1.203   8.873   4.019  1.5550  2.3614  0.8272
12119SOL    HW247287   1.216   8.839   4.178  1.3805 -0.8025  0.1961
12120SOL     OW47288   1.769   5.338   1.500 -0.3342  0.4609 -0.0211
12120SOL    HW147289   1.735   5.255   1.545 -1.6578  0.4859 -0.9346
12120SOL    HW247290   1.846   5.375   1.551 -0.7365 -0.4635  1.2747
12121SOL     OW47291   3.369   2.640   3.907  0.2563 -0.0824  0.0758
12121SOL    HW147292   3.389   2.543   3.893  1.1879 -0.0263  0.9090
12121SOL    HW247293   3.400   2.692   3.828  1.5922 -0.2523  0.4589
12122SOL     OW47294   0.675   2.488   3.025  0.1739  0.4262 -0.0740
12122SOL    HW147295   0.603   2.446   3.082  0.2268  1.3041  0.6582
12122SOL    HW247296   0.633   2.551   2.960 -0.1037 -2.2436 -2.5880
12123SOL     OW47297   0.734   6.559   5.058  0.4490  0.4005 -0.6589
12123SOL    HW147298   0.703   6.603   4.974  0.5719  0.7628 -0.5157
12123SOL    HW247299   0.695   6.606   5.137 -1.5670 -1.4016 -0.5550
12124SOL     OW47300   3.240   2.375   3.569 -0.1072  0.2823  0.0466
12124SOL    HW147301   3.189   2.289   3.561  0.1103  0.1311  0.2993
12124SOL    HW247302   3.197   2.445   3.511  0.8164 -0.5181 -1.6533
12125SOL     OW47303   9.139   3.280   3.191 -0.4101  0.4749 -0.5625
12125SOL    HW147304   9.228   3.236   3.198  0.3307  1.7620 -1.7975
12125SOL    HW247305   9.128   3.320   3.100 -2.2008  0.4506 -0.3892
12126SOL     OW47306   0.073   8.612   3.823  0.2843  0.5859  0.2087
12126SOL    HW147307   0.117   8.529   3.860  1.0588  0.5798 -0.7045
12126SOL    HW247308  -0.011   8.630   3.874  0.4056 -0.4363  0.8007
12127SOL     OW47309   1.606   9.505   3.846 -0.0023 -1.0831  0.1717
12127SOL    HW147310   1.665   9.436   3.888 -2.1270 -1.9828  1.7624
12127SOL    HW247311   1.593   9.581   3.910 -0.4757 -0.8415 -0.2087
12128SOL     OW47312   1.012   7.584   3.930 -0.3292  0.0415  0.3369
12128SOL    HW147313   0.967   7.650   3.990  2.0678  1.0593  1.0676
12128SOL    HW247314   0.986   7.602   3.835 -2.4260 -0.1999  0.8496
12129SOL     OW47315   2.991   1.445   3.614  0.1251 -0.2320 -0.3513
12129SOL    HW147316   3.032   1.378   3.677  0.0910  0.7070  0.6773
12129SOL    HW247317   3.062   1.480   3.553  0.6430  0.5807  0.7094
12130SOL     OW47318   2.771   5.163   4.321 -0.3674  0.8784 -0.2061
12130SOL    HW147319   2.738   5.168   4.227  1.4479  3.0988 -0.7835
12130SOL    HW247320   2.858   5.114   4.324  1.1471  3.4251 -0.2301
12131SOL     OW47321   4.574   7.769   1.004  0.3867  0.0477 -0.4203
12131SOL    HW147322   4.620   7.683   1.028  0.3050  0.1868  0.2297
12131SOL    HW247323   4.636   7.845   1.022  1.2955  0.0129 -3.0499
12132SOL     OW47324   1.955   7.421   1.282  0.2048  0.5869 -0.3147
12132SOL    HW147325   1.985   7.460   1.369  2.9678 -0.4460 -0.7580
12132SOL    HW247326   1.936   7.324   1.294 -0.0937  0.5945 -0.7223
12133SOL     OW47327   0.196   6.840   1.381 -0.2324  0.1559  0.0063
12133SOL    HW147328   0.120   6.901   1.406 -0.9603 -1.3104  1.4419
12133SOL    HW247329   0.279   6.894   1.370 -1.3395  1.7057 -0.9656
12134SOL     OW47330   0.544   2.389   4.206  0.2453 -0.4675 -0.0556
12134SOL    HW147331   0.586   2.298   4.208 -1.8406 -1.4907 -0.4461
12134SOL    HW247332   0.612   2.459   4.227  2.0996 -2.0468 -0.6948
12135SOL     OW47333   8.676   1.076   0.867  0.1010  0.2482 -0.3481
12135SOL    HW147334   8.703   1.011   0.796  0.1913 -0.6584  0.4945
12135SOL    HW247335   8.636   1.026   0.944 -1.0390  1.3140 -0.2320
12136SOL     OW47336   8.254   6.561   2.102  0.1691  0.0721 -0.1610
12136SOL    HW147337   8.304   6.545   2.017 -0.6435 -1.9601 -0.2612
12136SOL    HW247338   8.165   6.517   2.098 -0.2159  0.6671  1.4239
12137SOL     OW47339   0.923   3.365   0.957 -0.3552  0.7453 -0.0892
12137SOL    HW147340   0.946   3.319   1.043  0.0871  1.3526  0.1274
12137SOL    HW247341   0.849   3.430   0.973  0.4242  1.6101  0.0704
12138SOL     OW47342   8.199   3.732   4.938 -0.7279  0.3090 -0.1962
12138SOL    HW147343   8.130   3.772   4.877 -1.6234  1.0330  1.2692
12138SOL    HW247344   8.264   3.803   4.965 -1.5213  0.4631  1.3192
12139SOL     OW47345   1.970   1.939   2.618 -0.2408  0.5740  0.1472
12139SOL    HW147346   1.888   1.977   2.659  0.5273  1.7510  0.6044
12139SOL    HW247347   2.018   1.882   2.686 -0.4720  0.1883 -0.0077
12140SOL     OW47348   9.261   8.322   2.397  0.0104  0.1119 -0.2010
12140SOL    HW147349   9.278   8.291   2.303 -0.8961  0.8593 -0.6253
12140SOL    HW247350   9.163   8.318   2.416 -0.0335  1.8801  0.0198
12141SOL     OW47351   5.153   1.953   3.255 -0.0352 -0.2328  1.0144
12141SOL    HW147352   5.098   1.952   3.172 -0.4242 -2.1725  1.2890
12141SOL    HW247353   5.095   1.980   3.333  0.1824  0.9576  0.7720
12142SOL     OW47354   0.757   7.001   4.878 -0.5240 -0.0553  0.4373
12142SOL    HW147355   0.767   7.099   4.862  0.7204  0.0891  1.9355
12142SOL    HW247356   0.845   6.956   4.860 -1.1472 -0.9294 -0.4469
12143SOL     OW47357   2.480   2.729   3.089  0.1133  0.1765 -0.1967
12143SOL    HW147358   2.438   2.752   3.177  0.3443 -0.2891  0.0319
12143SOL    HW247359   2.513   2.635   3.091  2.3424  0.9307  0.0719
12144SOL     OW47360   9.161   1.294   5.445  0.0963  0.3391  0.0445
12144SOL    HW147361   9.181   1.300   5.543 -2.2703  4.2089  0.3654
12144SOL    HW247362   9.187   1.379   5.400 -0.3950 -0.7895 -2.4499
12145SOL     OW47363   8.022   5.017   2.613 -0.1344 -0.3069  0.4943
12145SOL    HW147364   8.006   5.097   2.555 -0.1747 -0.9604 -0.4191
12145SOL    HW247365   7.995   5.037   2.707 -0.1143  0.7564  0.2749
12146SOL     OW47366   9.056   6.283   5.286 -0.0831  0.1299 -0.1634
12146SOL    HW147367   9.127   6.239   5.230 -0.3340 -0.9544  0.3698
12146SOL    HW247368   9.098   6.353   5.344  0.9072 -2.0319  1.7846
12147SOL     OW47369   5.300   0.010   4.260 -0.0714 -0.1161 -0.2442
12147SOL    HW147370   5.390  -0.025   4.288 -0.6563  0.1557  2.0473
12147SOL    HW247371   5.269  -0.040   4.178  1.6817 -0.9412 -0.4271
12148SOL     OW47372   8.683   8.409   3.289  0.4301 -0.5902  0.1172
12148SOL    HW147373   8.753   8.338   3.289 -0.6475 -1.6719 -0.8383
12148SOL    HW247374   8.594   8.369   3.267 -0.1712  1.0716 -0.6169
12149SOL     OW47375   3.147   7.275   5.043 -0.6321  0.3072 -0.4701
12149SOL    HW147376   3.110   7.263   5.136 -0.4419  0.4666 -0.3731
12149SOL    HW247377   3.209   7.200   5.021 -0.8771  0.1326 -0.5651
12150SOL     OW47378   6.392   0.760   0.237 -0.1393 -0.4421 -0.1206
12150SOL    HW147379   6.453   0.722   0.307 -0.8459  0.4973  1.0234
12150SOL    HW247380   6.308   0.793   0.280 -1.0488 -0.8433 -1.5654
12151SOL     OW47381   3.265   6.894   3.113  0.0262 -0.0438  0.7659
12151SOL    HW147382   3.294   6.807   3.152 -0.6698 -0.9940 -0.7996
12151SOL    HW247383   3.345   6.942   3.076  0.7274  0.9728  3.5004
12152SOL     OW47384   2.237   7.639   4.899 -0.7959  0.7706  0.3292
12152SOL    HW147385   2.171   7.565   4.889 -1.1536  1.0767  0.3897
12152SOL    HW247386   2.190   7.727   4.891 -0.5395  0.9990  1.2160
12153SOL     OW47387   8.862   6.517   4.505  0.5726  0.4881 -0.4879
12153SOL    HW147388   8.912   6.447   4.555 -0.2434 -0.0758 -0.4468
12153SOL    HW247389   8.764   6.505   4.521  0.3485  0.7336 -1.6518
12154SOL     OW47390   2.452   3.706   5.116 -0.5471  0.3630  0.0180
12154SOL    HW147391   2.414   3.722   5.207 -1.7186  0.8072 -0.5358
12154SOL    HW247392   2.545   3.743   5.111 -0.9275  1.4398  0.6723
12155SOL     OW47393   3.748   6.979   2.241 -0.1644  0.4009  0.3113
12155SOL    HW147394   3.684   6.948   2.171  0.2439  2.2513 -0.9370
12155SOL    HW247395   3.838   6.993   2.200  0.1919  1.0781  1.3044
12156SOL     OW47396   1.687   6.886   5.186  0.1517  0.0491  0.5317
12156SOL    HW147397   1.694   6.929   5.097  0.3994  0.4270  0.7355
12156SOL    HW247398   1.706   6.953   5.258  0.1172 -0.2912  0.8620
12157SOL     OW47399   8.318   6.046   4.012 -0.2206  0.2682  0.2884
12157SOL    HW147400   8.237   6.008   3.968 -0.5247  0.6205  0.5417
12157SOL    HW247401   8.354   6.121   3.957  1.2077 -1.2692 -0.9532
12158SOL     OW47402   9.440   0.881   4.372  0.2042 -0.0946 -0.2086
12158SOL    HW147403   9.397   0.791   4.385  0.0478 -0.2824 -1.8748
12158SOL    HW247404   9.370   0.949   4.353  0.2726  0.5169  1.7199
12159SOL     OW47405   9.942   6.763   5.155 -0.4837  0.2414  0.1415
12159SOL    HW147406   9.983   6.685   5.202 -2.1266  1.3606  3.5615
12159SOL    HW247407   9.999   6.844   5.167 -0.5313  0.3725 -0.4695
12160SOL     OW47408   1.154   5.615   4.620 -0.3336  0.4178 -0.3625
12160SOL    HW147409   1.077   5.679   4.625 -0.5779  0.1035 -0.0201
12160SOL    HW247410   1.163   5.568   4.708  0.5728  0.8217 -0.2451
12161SOL     OW47411   8.887   7.425   1.502 -0.5257  0.4935  0.2958
12161SOL    HW147412   8.814   7.462   1.444  0.5610  1.0745 -0.7262
12161SOL    HW247413   8.875   7.326   1.512 -1.1812  0.5135 -0.2650
12162SOL     OW47414   2.659   6.782   5.455 -0.3316 -0.5262  0.2454
12162SOL    HW147415   2.719   6.701   5.453  0.1721 -0.2224  2.2010
12162SOL    HW247416   2.565   6.753   5.438  0.0165 -1.3463 -0.3671
12163SOL     OW47417   1.623   9.482   3.568 -0.3167 -0.1760 -0.1586
12163SOL    HW147418   1.606   9.494   3.666  2.0263 -2.0408  0.5121
12163SOL    HW247419   1.612   9.570   3.522  0.9089  1.2477  2.1476
12164SOL     OW47420   9.274   9.723   4.779 -0.2434  0.3182 -0.0145
12164SOL    HW147421   9.198   9.663   4.757  0.6969 -1.2055  0.8008
12164SOL    HW247422   9.247   9.787   4.851 -0.5873 -0.5597  0.6355
12165SOL     OW47423   1.986   7.037   5.001  0.2993  0.0412 -0.3527
12165SOL    HW147424   1.914   7.004   4.940 -0.6357 -0.4022  0.9841
12165SOL    HW247425   1.951   7.114   5.055  0.7538 -0.3433  0.4840
12166SOL     OW47426   2.336   8.229   3.012 -0.1256  0.1868 -0.0600
12166SOL    HW147427   2.347   8.323   3.043  0.8935  0.2325 -0.5584
12166SOL    HW247428   2.312   8.171   3.090 -0.0879  0.7412  0.3625
12167SOL     OW47429   8.519   8.999   4.086  0.5751  0.6004  0.1872
12167SOL    HW147430   8.427   9.029   4.111  0.5017  1.5155 -1.1334
12167SOL    HW247431   8.569   9.076   4.048  1.2092 -0.3982 -1.0092
12168SOL     OW47432   8.527   9.366   0.991 -0.0975 -0.2107 -0.2670
12168SOL    HW147433   8.599   9.299   0.973 -0.6010 -0.5189 -1.1925
12168SOL    HW247434   8.544   9.449   0.938 -0.5240 -0.3629 -0.6495
12169SOL     OW47435   4.855   8.830   4.117 -0.1606 -0.5743 -0.0978
12169SOL    HW147436   4.833   8.836   4.214  0.6567 -1.3654  0.1388
12169SOL    HW247437   4.862   8.922   4.078  2.3571 -0.1710  1.2354
12170SOL     OW47438   3.131   7.840   2.821  0.4131 -0.2108  0.5666
12170SOL    HW147439   3.044   7.827   2.773  1.2269 -1.6979 -0.5490
12170SOL    HW247440   3.206   7.833   2.755  1.5197 -1.5951  1.9601
12171SOL     OW47441   8.894   2.382   2.885  0.3641  0.3888 -0.1223
12171SOL    HW147442   8.860   2.361   2.794  1.2942  0.6106 -0.5302
12171SOL    HW247443   8.898   2.481   2.898 -2.0010  0.3701  1.0315
12172SOL     OW47444   7.291   4.013   5.498  0.5953  0.1249 -0.8694
12172SOL    HW147445   7.289   3.913   5.495 -1.2679  0.1585 -1.0525
12172SOL    HW247446   7.289   4.044   5.593  0.8809 -0.0044 -0.8211
12173SOL     OW47447   7.689   1.264   1.347  0.4843 -0.1974 -0.1710
12173SOL    HW147448   7.658   1.327   1.276  1.8486  2.0058  1.1191
12173SOL    HW247449   7.634   1.276   1.430  0.3941 -1.0953 -0.0956
12174SOL     OW47450   0.445   0.788   4.305  0.1243 -0.6624  0.1954
12174SOL    HW147451   0.477   0.740   4.387 -2.6575 -0.3650  1.5030
12174SOL    HW247452   0.428   0.884   4.328 -0.0511 -0.4355 -0.8917
12175SOL     OW47453   3.888   7.795   2.321  0.1426  0.6376  0.3151
12175SOL    HW147454   3.814   7.861   2.332  0.5148  1.1731 -0.3200
12175SOL    HW247455   3.976   7.843   2.324  0.4167  0.1625 -0.0691
12176SOL     OW47456   1.043   9.868   0.165  0.0201  0.0125 -0.0498
12176SOL    HW147457   1.078   9.795   0.224  1.7526 -0.7133 -1.9607
12176SOL    HW247458   0.987   9.828   0.093 -1.7728  0.8790  0.8213
12177SOL     OW47459   9.658   8.416   2.435 -0.6684  0.1145 -0.4941
12177SOL    HW147460   9.757   8.414   2.450 -0.6534  1.0794 -0.3923
12177SOL    HW247461   9.630   8.335   2.384 -0.1686 -1.3193  1.4873
12178SOL     OW47462   8.954   3.948   1.335  0.4351 -0.1891  0.0969
12178SOL    HW147463   9.053   3.958   1.327  0.3902  1.4827  1.5711
12178SOL    HW247464   8.929   3.942   1.431 -1.0061  0.4329 -0.2394
12179SOL     OW47465   1.844   1.175   4.311 -0.3952  0.0598 -0.0773
12179SOL    HW147466   1.866   1.089   4.359  1.0950  1.1117  1.1886
12179SOL    HW247467   1.797   1.237   4.375  0.5407  1.0259 -0.3174
12180SOL     OW47468   2.626   4.846   2.044  0.6859  0.5987  0.0741
12180SOL    HW147469   2.609   4.751   2.069  1.1293 -0.0445 -1.9981
12180SOL    HW247470   2.699   4.883   2.102  0.2909 -0.2082  1.1064
12181SOL     OW47471   2.963   8.673   3.051  0.3357  0.2232  0.1525
12181SOL    HW147472   2.968   8.682   3.151  0.7131  1.1749  0.0480
12181SOL    HW247473   3.011   8.590   3.023  0.2523 -0.0355  0.7573
12182SOL     OW47474   2.312   3.282   3.953 -0.9287 -0.1310  0.6940
12182SOL    HW147475   2.283   3.288   3.858 -0.1817  0.4931  0.4974
12182SOL    HW247476   2.403   3.241   3.958 -0.1738  1.4938  0.9739
12183SOL     OW47477   2.459   4.981   5.446 -0.4625  0.4056  0.0156
12183SOL    HW147478   2.450   4.964   5.348 -0.6545  0.4016  0.0344
12183SOL    HW247479   2.533   5.048   5.461  1.3337 -1.5189  0.0429
12184SOL     OW47480   9.238   5.751   2.019 -0.3099  0.1722  0.1213
12184SOL    HW147481   9.312   5.817   2.006  0.4210 -0.4221  1.1790
12184SOL    HW247482   9.265   5.663   1.981 -0.7906  0.1663 -0.2000
12185SOL     OW47483   2.480   3.675   2.165  0.1314 -0.4415 -0.9228
12185SOL    HW147484   2.422   3.742   2.211  0.4318 -0.4793 -0.4922
12185SOL    HW247485   2.436   3.585   2.170  0.3261 -0.5096 -0.4128
12186SOL     OW47486   4.261   3.411   1.532  0.5385 -0.3614 -0.0472
12186SOL    HW147487   4.257   3.315   1.504  0.2071 -1.3110  3.0249
12186SOL    HW247488   4.306   3.418   1.621 -0.5089  2.2152  0.3381
12187SOL     OW47489   8.392   2.978   0.199  0.2602  0.2446 -0.3405
12187SOL    HW147490   8.341   2.919   0.137  0.4839 -0.8430  0.4837
12187SOL    HW247491   8.481   2.937   0.219 -0.0208  0.3088  1.0959
12188SOL     OW47492   9.943   2.827   1.196  0.3426  0.3450 -0.2293
12188SOL    HW147493   9.977   2.859   1.108  2.0535 -0.5663  0.0799
12188SOL    HW247494   9.928   2.728   1.192  1.1615  0.1770  0.7271
12189SOL     OW47495   4.327   2.218   0.735 -0.5019 -0.1254  0.5572
12189SOL    HW147496   4.375   2.131   0.745  0.8217  0.6842  1.4141
12189SOL    HW247497   4.329   2.246   0.639  0.9816  0.0264  0.6173
12190SOL     OW47498   8.172   5.526   0.455 -0.1950 -0.2113 -0.5878
12190SOL    HW147499   8.174   5.445   0.395  0.6312  1.5177 -2.9558
12190SOL    HW247500   8.263   5.544   0.491 -0.3377 -0.2089 -0.2277
12191SOL     OW47501   8.058   2.584   3.639  0.0872  0.3544  0.1537
12191SOL    HW147502   8.026   2.518   3.572 -0.7926  0.8385  0.0953
12191SOL    HW247503   8.019   2.562   3.729 -1.3321  1.6147 -0.1445
12192SOL     OW47504   8.633   2.253   1.044  0.0052 -0.2064 -0.1867
12192SOL    HW147505   8.715   2.290   1.000  1.0246  0.2518  2.0309
12192SOL    HW247506   8.578   2.327   1.082  0.6658 -0.7521  1.8954
12193SOL     OW47507   8.980   8.050   0.309  0.5798 -0.1316 -0.0931
12193SOL    HW147508   8.903   8.061   0.246 -0.6065 -0.9081  1.1931
12193SOL    HW247509   9.065   8.045   0.257 -0.2184  0.8627 -1.5274
12194SOL     OW47510   4.224   0.204   4.679  0.6905 -0.1869  0.0942
12194SOL    HW147511   4.240   0.222   4.582  0.5825  0.5754  0.2171
12194SOL    HW247512   4.311   0.209   4.729  0.7896 -0.8649 -0.0055
12195SOL     OW47513   0.634   7.747   3.839  0.6431 -0.1280  0.4894
12195SOL    HW147514   0.641   7.845   3.824  2.0436 -0.3500 -0.3815
12195SOL    HW247515   0.591   7.704   3.760 -1.1524 -0.0710  1.4127
12196SOL     OW47516   3.502   6.145   3.746  0.1863 -0.7127  0.4264
12196SOL    HW147517   3.402   6.146   3.748  0.1515 -0.8489 -0.6189
12196SOL    HW247518   3.533   6.158   3.651  1.1688  0.2362  0.8717
12197SOL     OW47519   9.913   5.389   2.764  0.0030  0.0304  0.3693
12197SOL    HW147520   9.832   5.354   2.717  0.2884  0.5286 -0.4912
12197SOL    HW247521   9.948   5.319   2.827 -0.2004 -0.7446 -0.3757
12198SOL     OW47522   8.471   6.848   2.817  0.0646  0.2777  0.2075
12198SOL    HW147523   8.465   6.948   2.819 -2.1524  0.2050 -1.1769
12198SOL    HW247524   8.486   6.814   2.910 -3.0588  1.7353  1.3511
12199SOL     OW47525   7.576   2.998   5.509 -0.3361 -0.2023  0.2984
12199SOL    HW147526   7.481   2.996   5.477 -0.2965  1.6908  0.0207
12199SOL    HW247527   7.578   3.022   5.606 -0.0227  2.3690 -0.3199
12200SOL     OW47528   9.822   5.570   4.678  0.2877 -0.3933 -0.1217
12200SOL    HW147529   9.763   5.491   4.663  0.2009 -0.3930  0.2216
12200SOL    HW247530   9.771   5.654   4.657 -0.0302 -0.3592  0.7692
12201SOL     OW47531   8.209   4.804   0.304  0.0923  0.5929 -0.0203
12201SOL    HW147532   8.220   4.897   0.339  4.9190  0.9216 -1.9735
12201SOL    HW247533   8.222   4.803   0.205  0.3629 -2.1508 -0.0048
12202SOL     OW47534   0.704   2.709   3.621 -0.1342  0.0562  0.0095
12202SOL    HW147535   0.746   2.686   3.709  0.5524  1.1052 -0.0351
12202SOL    HW247536   0.676   2.625   3.574  0.8003 -0.5826  0.5885
12203SOL     OW47537   4.713   8.689   3.570 -0.4028 -0.4599 -0.6181
12203SOL    HW147538   4.796   8.745   3.574 -0.5631 -0.2858  0.4406
12203SOL    HW247539   4.721   8.613   3.634 -2.2874  1.2760  1.7686
12204SOL     OW47540   8.530   9.487   2.028  0.4945 -0.3855  0.3144
12204SOL    HW147541   8.514   9.397   1.989  0.2439 -1.0064  1.7928
12204SOL    HW247542   8.456   9.549   2.001 -0.4574 -1.2073  1.0134
12205SOL     OW47543   4.980   3.190   2.904  0.2959 -0.2418 -0.3614
12205SOL    HW147544   4.967   3.213   2.808 -0.1230  1.4873  0.1022
12205SOL    HW247545   4.938   3.260   2.962  2.4667 -0.0636  1.0968
12206SOL     OW47546   1.799   1.449   2.001 -0.0039 -0.3230 -0.0196
12206SOL    HW147547   1.827   1.538   2.038  1.1385 -1.2214  1.3433
12206SOL    HW247548   1.879   1.390   1.992 -0.7096 -1.1012 -1.2386
12207SOL     OW47549   6.922   3.722   5.312  0.4603  0.0472  0.4259
12207SOL    HW147550   6.854   3.749   5.380  0.3373  0.4656  0.1390
12207SOL    HW247551   6.928   3.792   5.241  1.2852  0.0719  0.5184
12208SOL     OW47552   2.487   2.456   3.375  0.3604 -0.0948 -0.1178
12208SOL    HW147553   2.455   2.482   3.466 -1.5963 -2.3412 -0.0888
12208SOL    HW247554   2.539   2.371   3.382 -1.1156 -1.1168 -1.2420
12209SOL     OW47555   1.881   3.033   0.537  0.5456 -0.1780 -0.1411
12209SOL    HW147556   1.924   3.020   0.627  0.4961  0.6803  0.0121
12209SOL    HW247557   1.930   2.978   0.469  2.9986  2.1136 -0.2806
12210SOL     OW47558   8.030   7.875   1.805  0.4332  0.2059 -0.4471
12210SOL    HW147559   8.098   7.905   1.739  2.3747  0.4403  1.6135
12210SOL    HW247560   8.045   7.922   1.893 -0.3269 -2.1730  1.0131
12211SOL     OW47561   7.591   9.931   4.287 -0.0336 -0.1438  0.0183
12211SOL    HW147562   7.536   9.879   4.221 -2.1894  1.7880  0.2499
12211SOL    HW247563   7.643  10.001   4.239 -1.2598  0.9697  0.2865
12212SOL     OW47564   1.434   0.341   1.405 -0.6263 -0.0017  0.3738
12212SOL    HW147565   1.345   0.384   1.419 -1.6428 -1.0428 -2.3986
12212SOL    HW247566   1.467   0.363   1.313  0.9845 -1.3132  0.6149
12213SOL     OW47567   1.667   0.317   0.743 -0.3628  0.4989 -0.4678
12213SOL    HW147568   1.650   0.341   0.648 -1.1068  1.8407 -0.0148
12213SOL    HW247569   1.766   0.307   0.758 -0.2946 -0.4991 -1.5450
12214SOL     OW47570   9.904   6.924   1.301 -0.2986  0.2706  0.1059
12214SOL    HW147571   9.906   6.831   1.266 -0.3556  0.2546  0.1426
12214SOL    HW247572   9.983   6.975   1.266 -0.0141  0.0739  0.4554
12215SOL     OW47573   8.349   8.848   4.309  0.0616 -0.5328  0.4124
12215SOL    HW147574   8.446   8.837   4.329  0.2238 -1.5952 -0.8760
12215SOL    HW247575   8.317   8.770   4.255 -1.3976  0.0441  0.4144
12216SOL     OW47576   4.349   7.320   2.033  0.1236 -0.0364 -0.4190
12216SOL    HW147577   4.395   7.353   2.115 -1.9367  1.6085  0.1462
12216SOL    HW247578   4.399   7.351   1.952 -0.5087  2.6807  0.1579
12217SOL     OW47579   9.205   0.791   2.715  0.6722  0.2331  0.1084
12217SOL    HW147580   9.212   0.867   2.650 -0.1423  0.8235  0.7046
12217SOL    HW247581   9.193   0.827   2.808 -1.0651 -0.6241  0.2357
12218SOL     OW47582   4.925   1.406   1.515 -0.1611  0.2035  0.7084
12218SOL    HW147583   4.929   1.319   1.564  2.0093 -1.8074 -2.8504
12218SOL    HW247584   5.013   1.452   1.521 -0.0209  0.1689 -0.8114
12219SOL     OW47585   0.736   3.594   4.330  0.1370 -0.2420  0.3168
12219SOL    HW147586   0.833   3.616   4.340  0.2428 -0.2918 -0.5574
12219SOL    HW247587   0.715   3.513   4.385  0.4043  0.2739  1.1718
12220SOL     OW47588   1.678   8.446   3.469  0.2106 -0.3224  0.1420
12220SOL    HW147589   1.687   8.387   3.389 -0.0298  1.6453 -1.3623
12220SOL    HW247590   1.586   8.486   3.471  0.6454  0.6622  0.6750
12221SOL     OW47591   6.692   9.394   2.675  0.1323  0.0706 -0.3872
12221SOL    HW147592   6.625   9.468   2.678 -0.1095 -0.1432 -0.4094
12221SOL    HW247593   6.772   9.422   2.623  1.0679  1.1588  1.5898
12222SOL     OW47594   3.054   9.280   2.669  0.4011 -0.3753 -0.3552
12222SOL    HW147595   2.993   9.208   2.636  0.5932 -0.0175 -1.5120
12222SOL    HW247596   3.000   9.354   2.710  0.0506 -0.0752 -1.3424
12223SOL     OW47597   1.211   1.311   0.609 -0.1105 -0.3922  0.0928
12223SOL    HW147598   1.156   1.386   0.648 -0.2110 -0.7608  0.6653
12223SOL    HW247599   1.196   1.228   0.662  1.3349 -0.3965  0.5187
12224SOL     OW47600   9.753   2.102   5.444  0.1553  0.3733  0.0026
12224SOL    HW147601   9.655   2.091   5.453  0.0973  2.1532  1.8572
12224SOL    HW247602   9.788   2.036   5.377 -2.4384  0.4964 -1.5278
12225SOL     OW47603   1.921   0.720   5.592  0.2253 -0.3098  0.2700
12225SOL    HW147604   1.919   0.672   5.680 -0.2115 -1.0392 -0.1293
12225SOL    HW247605   1.872   0.665   5.524 -0.1716  0.6490 -0.2217
12226SOL     OW47606   9.848   3.369   3.724  0.0302  0.0129 -0.2135
12226SOL    HW147607   9.791   3.326   3.793  0.5896  0.7482  0.7343
12226SOL    HW247608   9.938   3.326   3.724  0.3399  0.6507  0.1941
12227SOL     OW47609   1.728   9.485   2.762  0.1854  0.5599  0.2364
12227SOL    HW147610   1.732   9.478   2.862  0.9652 -0.9863  0.1103
12227SOL    HW247611   1.765   9.574   2.733 -0.8384  1.3763  1.3539
12228SOL     OW47612   2.116   0.304   2.743 -0.1869  0.0432  0.0352
12228SOL    HW147613   2.180   0.295   2.820  0.1547  0.9513 -0.1319
12228SOL    HW247614   2.023   0.286   2.774  0.3476 -3.3560 -0.1478
12229SOL     OW47615   2.682   0.668   1.667 -0.0792  0.1160 -0.0594
12229SOL    HW147616   2.633   0.661   1.754  2.3639  1.9049  1.5248
12229SOL    HW247617   2.763   0.610   1.670  1.0003  1.5756 -0.4120
12230SOL     OW47618   4.712   1.369   2.868  0.7607  0.1164  0.4219
12230SOL    HW147619   4.645   1.429   2.825  0.4873 -0.1882  0.4188
12230SOL    HW247620   4.786   1.423   2.907  0.3793  0.4701  0.6532
12231SOL     OW47621   4.807   7.544   3.734  0.4718 -0.4206 -0.1327
12231SOL    HW147622   4.757   7.629   3.751  0.6906 -0.0077 -1.5015
12231SOL    HW247623   4.905   7.560   3.748  0.4909 -0.5033 -0.1790
12232SOL     OW47624   8.259   4.929   3.136 -0.1380  0.0004 -0.0379
12232SOL    HW147625   8.186   4.992   3.162  0.3292  1.2963 -1.7904
12232SOL    HW247626   8.334   4.935   3.202 -0.9545 -0.2327  0.9251
12233SOL     OW47627   5.706   1.428   3.805  0.0470 -0.0370  0.3488
12233SOL    HW147628   5.659   1.439   3.717  0.5137 -2.4491 -0.2576
12233SOL    HW247629   5.792   1.478   3.804  1.1269 -1.8338 -1.4622
12234SOL     OW47630   3.547   2.433   2.634  0.1575  0.0658 -0.3878
12234SOL    HW147631   3.585   2.357   2.688  0.6117 -0.7366 -1.8013
12234SOL    HW247632   3.569   2.419   2.537  0.8266  2.3730 -0.5948
12235SOL     OW47633   9.368   3.074   3.262  0.5203  0.2921  0.0093
12235SOL    HW147634   9.456   3.073   3.216  0.5341  0.5198  0.0329
12235SOL    HW247635   9.337   2.980   3.277  1.2101  0.1915  0.8678
12236SOL     OW47636   3.006   0.687   3.567 -0.2290  0.0355  0.0004
12236SOL    HW147637   3.096   0.646   3.555  0.1591  0.7490  0.4580
12236SOL    HW247638   3.001   0.733   3.655 -0.3429  1.7381 -0.8732
12237SOL     OW47639   0.692   4.085   4.280 -0.5347 -0.1710  0.6697
12237SOL    HW147640   0.632   4.005   4.281 -0.0801 -0.5060  1.2577
12237SOL    HW247641   0.753   4.080   4.201 -1.8467  0.5942 -0.4050
12238SOL     OW47642   0.975   1.783   2.151  0.3075  0.2154 -0.0338
12238SOL    HW147643   0.905   1.854   2.157 -1.1723 -1.2838  1.0248
12238SOL    HW247644   1.001   1.770   2.055  2.0454  3.5009 -0.0819
12239SOL     OW47645   3.547   0.892   4.416 -0.1627 -0.3607  0.0386
12239SOL    HW147646   3.601   0.925   4.493 -1.0564 -0.0465  0.5404
12239SOL    HW247647   3.505   0.970   4.368 -0.4513 -0.6193 -0.1366
12240SOL     OW47648   0.277   7.365   4.326 -0.7132 -0.6205  0.1127
12240SOL    HW147649   0.276   7.285   4.386 -0.7812 -1.0967 -0.5114
12240SOL    HW247650   0.363   7.367   4.275  0.7661  1.5557  2.5481
12241SOL     OW47651   6.671   0.918   0.282 -0.3941  0.2477 -0.3058
12241SOL    HW147652   6.574   0.938   0.270  0.0921  2.7712 -0.3762
12241SOL    HW247653   6.713   0.900   0.193 -0.7300 -0.5169 -0.3086
12242SOL     OW47654   9.612   1.550   0.114 -0.3036  0.2141  0.3651
12242SOL    HW147655   9.600   1.483   0.041  0.3025  0.7330 -0.2221
12242SOL    HW247656   9.599   1.642   0.077 -2.1365  0.3934  1.3781
12243SOL     OW47657   3.326   3.461   3.934 -0.6078 -0.4360  0.2141
12243SOL    HW147658   3.396   3.390   3.939  0.0572 -0.0106 -2.1251
12243SOL    HW247659   3.241   3.422   3.898 -0.3980 -0.1943 -0.5723
12244SOL     OW47660   2.870   5.527   5.008 -0.0896 -0.3643 -0.4245
12244SOL    HW147661   2.899   5.447   4.956 -0.6883 -0.2164 -1.0021
12244SOL    HW247662   2.924   5.607   4.981  1.3117 -0.8086  0.9965
12245SOL     OW47663   0.759   8.301   0.111 -0.3022  0.4307  0.0996
12245SOL    HW147664   0.764   8.355   0.195 -1.4451  0.4127  0.1824
12245SOL    HW247665   0.697   8.346   0.046  0.5685  0.4440 -0.7377
12246SOL     OW47666   3.471   6.738   1.990  0.1771 -0.3468 -1.0240
12246SOL    HW147667   3.396   6.751   1.925 -2.6254 -2.5381  1.6050
12246SOL    HW247668   3.512   6.827   2.012 -1.2343  0.8340 -2.9861
12247SOL     OW47669   9.302   0.702   0.775  0.3609  0.1173 -0.2306
12247SOL    HW147670   9.328   0.659   0.688 -0.5393 -1.8907  0.4721
12247SOL    HW247671   9.371   0.770   0.801  0.0977  1.5576 -3.0538
12248SOL     OW47672   8.347   8.993   2.064 -0.5457  0.2102  0.0569
12248SOL    HW147673   8.415   8.965   2.132 -1.0463 -1.3741 -0.0852
12248SOL    HW247674   8.366   9.087   2.035  0.9643  0.1424  0.7811
12249SOL     OW47675   0.592   4.946   3.513 -0.4398  0.5026 -0.5301
12249SOL    HW147676   0.647   4.863   3.502 -1.4546 -0.1248 -0.8933
12249SOL    HW247677   0.593   4.998   3.428 -1.5103 -0.1891 -0.9685
12250SOL     OW47678   9.202   6.303   0.053  0.2318 -0.1621  0.0668
12250SOL    HW147679   9.165   6.230  -0.005  0.8971 -0.2338 -0.2675
12250SOL    HW247680   9.178   6.285   0.148  0.9395 -1.1508  0.0676
12251SOL     OW47681   6.740   0.867   4.358 -0.5227 -0.0588 -0.4829
12251SOL    HW147682   6.738   0.938   4.288  1.6806  1.1930  0.6751
12251SOL    HW247683   6.710   0.906   4.445  1.9354 -0.1913  0.4466
12252SOL     OW47684   2.900   1.952   1.790  0.0213 -0.1962 -0.3274
12252SOL    HW147685   2.985   2.004   1.799 -0.3216  0.4692 -0.8402
12252SOL    HW247686   2.890   1.922   1.695  0.4390 -1.6044  0.0583
12253SOL     OW47687   3.274   1.131   4.508 -0.0644 -0.1526 -0.0012
12253SOL    HW147688   3.232   1.063   4.447  0.1990 -0.1402 -0.1992
12253SOL    HW247689   3.234   1.123   4.600 -1.5614  0.8499 -0.5433
12254SOL     OW47690   1.340   5.971   1.982 -0.2393 -0.0247  0.2459
12254SOL    HW147691   1.340   5.955   1.883  0.9343  1.4550 -0.0163
12254SOL    HW247692   1.428   6.011   2.009 -0.5358 -0.4589  1.9069
12255SOL     OW47693   0.715   5.643   2.562  0.0804 -0.0564 -0.1528
12255SOL    HW147694   0.768   5.727   2.575  0.2987 -0.1222 -0.5881
12255SOL    HW247695   0.638   5.641   2.626  0.1372  0.4212 -0.0676
12256SOL     OW47696   5.847   1.608   2.837 -0.1854  0.0601 -0.0839
12256SOL    HW147697   5.775   1.595   2.770 -0.3153 -0.7075  0.2037
12256SOL    HW247698   5.854   1.705   2.860 -1.8707  0.0056  0.7079
12257SOL     OW47699   7.012   0.122   5.173  0.3915  0.0063 -0.2015
12257SOL    HW147700   7.006   0.046   5.238 -1.1766  0.8324  0.6552
12257SOL    HW247701   6.978   0.092   5.084 -0.6142 -0.2041  0.2403
12258SOL     OW47702   3.873   0.329   2.092 -0.5249  0.2570 -0.3586
12258SOL    HW147703   3.810   0.284   2.156 -2.0460  1.6349 -0.8494
12258SOL    HW247704   3.866   0.428   2.104  2.5069  0.4262  0.4642
12259SOL     OW47705   5.351   0.510   3.104  0.1593 -0.4698 -0.0432
12259SOL    HW147706   5.427   0.549   3.156 -1.6003  0.8893  1.5824
12259SOL    HW247707   5.282   0.475   3.167 -1.7020  0.5735 -1.4420
12260SOL     OW47708   0.704   4.918   0.248  0.0177 -0.3728 -0.0999
12260SOL    HW147709   0.785   4.891   0.299 -0.5110 -2.1618 -0.1609
12260SOL    HW247710   0.727   4.990   0.183  1.3663 -0.2898  0.4654
12261SOL     OW47711   3.209   6.576   5.518 -0.3903 -0.2959  0.1018
12261SOL    HW147712   3.213   6.551   5.421  0.8913  1.0020 -0.2148
12261SOL    HW247713   3.266   6.657   5.533 -2.5218  0.9762  1.4941
12262SOL     OW47714   2.173   0.401   5.632 -0.1018 -0.1442 -0.0946
12262SOL    HW147715   2.268   0.396   5.598 -0.4279 -0.1907 -1.0242
12262SOL    HW247716   2.168   0.466   5.707  1.0839 -1.7441  1.4206
12263SOL     OW47717   2.746   9.993   0.394 -0.1521 -0.3208  0.2425
12263SOL    HW147718   2.731   9.899   0.422 -0.3570 -0.4757 -0.3741
12263SOL    HW247719   2.658  10.038   0.378 -0.0676  0.1104  0.9637
12264SOL     OW47720   2.067   3.131   5.471 -0.0175  0.1297  0.3835
12264SOL    HW147721   2.140   3.124   5.539 -0.6662 -1.4102  0.9428
12264SOL    HW247722   1.985   3.084   5.504 -1.0977  1.3562 -0.4784
12265SOL     OW47723   9.251   2.765   0.456  0.3694 -0.3522  0.1634
12265SOL    HW147724   9.199   2.822   0.519  0.1077 -0.1294 -0.2604
12265SOL    HW247725   9.269   2.815   0.372 -0.4337 -1.1303 -0.4707
12266SOL     OW47726   1.412   4.539   1.569 -0.8211  0.1362 -0.5641
12266SOL    HW147727   1.318   4.572   1.578 -1.5010 -1.8424 -0.2473
12266SOL    HW247728   1.423   4.492   1.482 -0.2230  0.0320 -0.4377
12267SOL     OW47729   1.778   4.139   2.969 -0.5965  0.0046  0.0870
12267SOL    HW147730   1.875   4.125   2.993  0.1588 -0.2112 -2.9399
12267SOL    HW247731   1.733   4.190   3.042  1.4908 -0.9445  2.1228
12268SOL     OW47732   4.941   5.507   0.950 -0.2131 -0.1312  0.1067
12268SOL    HW147733   4.952   5.603   0.973  0.0754 -0.0985 -0.1517
12268SOL    HW247734   5.030   5.467   0.931 -0.4248 -0.1818 -0.8209
12269SOL     OW47735   9.059   5.708   2.527 -0.4110 -0.1327 -0.1928
12269SOL    HW147736   9.113   5.653   2.591 -0.4563  0.9171  0.7633
12269SOL    HW247737   9.093   5.694   2.434  0.5379 -0.6140  0.2227
12270SOL     OW47738   3.510   7.024   3.335 -0.3863 -0.3995  0.1443
12270SOL    HW147739   3.479   7.005   3.242  1.5215  0.9485 -0.8085
12270SOL    HW247740   3.562   7.110   3.335  0.7413 -1.0658  2.2128
12271SOL     OW47741   9.778   8.891   4.197  0.2828 -0.7588 -0.1261
12271SOL    HW147742   9.720   8.809   4.199  1.1439 -1.3714  2.5017
12271SOL    HW247743   9.725   8.970   4.225  0.0583 -0.8764 -0.2210
12272SOL     OW47744   5.995   1.182   3.426  0.0589  0.2045  0.4721
12272SOL    HW147745   5.929   1.218   3.492 -2.0570 -2.7853  0.0879
12272SOL    HW247746   6.036   1.098   3.462  0.5268 -0.2455 -1.0648
12273SOL     OW47747   6.741   1.074   3.605  0.0126  0.1345  0.5498
12273SOL    HW147748   6.751   0.986   3.653  0.9195  0.1993  0.4908
12273SOL    HW247749   6.741   1.058   3.506  1.5112  0.3084  0.5008
12274SOL     OW47750   8.110   8.763   2.340  0.3047 -0.0692 -0.1558
12274SOL    HW147751   8.163   8.733   2.261  1.4949 -1.0208  0.9787
12274SOL    HW247752   8.127   8.861   2.355  1.5121 -0.2900  0.0015
12275SOL     OW47753   2.804   4.426   3.974 -0.4588  0.5346  0.0224
12275SOL    HW147754   2.772   4.353   4.034 -0.3657 -0.1105 -0.7014
12275SOL    HW247755   2.904   4.424   3.969 -0.4926  0.2132 -0.6059
12276SOL     OW47756   3.213   5.332   4.801  0.1707 -0.1919 -0.2508
12276SOL    HW147757   3.153   5.273   4.747 -0.8477 -0.1794  0.8470
12276SOL    HW247758   3.244   5.283   4.882  1.1324  0.0314 -0.4684
12277SOL     OW47759   4.204   0.722   1.845 -0.3368 -0.0173  0.1908
12277SOL    HW147760   4.221   0.670   1.761  0.9283  0.9005 -0.1566
12277SOL    HW247761   4.206   0.661   1.924 -0.0404 -0.6753 -0.3190
12278SOL     OW47762   9.754   0.473   0.377  0.3084  0.0515 -0.8102
12278SOL    HW147763   9.794   0.387   0.407 -2.6085 -0.9832  0.2391
12278SOL    HW247764   9.781   0.546   0.441 -0.4825 -0.8684  0.6014
12279SOL     OW47765   3.249   9.484   4.767  0.3841 -0.3017  0.5850
12279SOL    HW147766   3.323   9.549   4.782  0.2541  0.0639 -0.3334
12279SOL    HW247767   3.198   9.472   4.852  1.5493 -0.6323  1.2543
12280SOL     OW47768   4.337   2.958   5.153  0.2898  0.2488 -0.0358
12280SOL    HW147769   4.276   3.037   5.146 -0.2235 -0.1861 -0.5678
12280SOL    HW247770   4.430   2.984   5.129  0.0009  0.5466 -0.8541
12281SOL     OW47771   2.194   2.984   5.200  0.0307  1.0765  0.6180
12281SOL    HW147772   2.177   3.039   5.118 -1.4662  1.4378  1.1580
12281SOL    HW247773   2.269   3.025   5.253  1.5707  0.3677 -0.9818
12282SOL     OW47774   8.266   3.695   4.473 -0.4774  0.1040  0.5485
12282SOL    HW147775   8.299   3.788   4.452 -1.3868  0.6469  1.4725
12282SOL    HW247776   8.280   3.677   4.571  0.4842 -1.0691  0.2015
12283SOL     OW47777   6.145   8.915   1.455 -0.2809  0.2082  0.3158
12283SOL    HW147778   6.119   8.971   1.533 -1.5374 -1.2716  0.9885
12283SOL    HW247779   6.064   8.867   1.420  0.5685 -0.3570 -0.8918
12284SOL     OW47780   3.366   2.698   1.468 -0.3115 -0.6558 -0.1168
12284SOL    HW147781   3.426   2.651   1.403 -0.8578 -0.0475 -1.0897
12284SOL    HW247782   3.404   2.788   1.488 -0.3667 -0.6726  0.0601
12285SOL     OW47783   2.585   0.544   2.594  0.2959 -0.0446  0.0521
12285SOL    HW147784   2.531   0.497   2.664 -0.5854  0.7472 -0.0854
12285SOL    HW247785   2.683   0.531   2.613  0.0631 -1.4947  0.2940
12286SOL     OW47786   5.007   0.397   1.443  0.2337 -0.0020  0.5529
12286SOL    HW147787   4.913   0.369   1.424  0.1804  1.0573 -0.8875
12286SOL    HW247788   5.068   0.357   1.374  0.9402 -1.2111  1.8630
12287SOL     OW47789   2.457   3.510   2.686  0.1247 -0.1834  0.1128
12287SOL    HW147790   2.443   3.461   2.773 -1.7641 -0.0474 -0.1049
12287SOL    HW247791   2.501   3.449   2.621 -2.2477 -1.6509 -0.1673
12288SOL     OW47792   3.844   2.337   0.162 -0.6101  0.1970  0.7199
12288SOL    HW147793   3.941   2.313   0.154 -0.9263 -1.0479  0.6305
12288SOL    HW247794   3.837   2.429   0.202  0.6844  1.8317 -2.5565
12289SOL     OW47795   6.623   3.617   5.189  0.2857 -0.1136 -0.1133
12289SOL    HW147796   6.656   3.548   5.125  0.7421  0.7102 -0.7724
12289SOL    HW247797   6.552   3.577   5.248  1.4056 -1.4821  0.3264
12290SOL     OW47798   9.854   0.072   0.802 -0.2454  0.2873  0.5299
12290SOL    HW147799   9.847   0.171   0.800  1.2625  0.4016  0.4242
12290SOL    HW247800   9.763   0.032   0.815 -1.2592  1.5923 -2.1465
12291SOL     OW47801   2.773   2.770   2.747  0.3401 -0.0960 -0.0531
12291SOL    HW147802   2.789   2.858   2.701 -4.7406  0.0619 -1.8884
12291SOL    HW247803   2.794   2.696   2.684  0.0832 -0.0588 -0.1839
12292SOL     OW47804   7.085   0.384   4.568  0.1881  0.1037  0.5722
12292SOL    HW147805   7.103   0.469   4.517 -0.4268 -0.2635 -0.2625
12292SOL    HW247806   6.995   0.389   4.611 -0.8119 -1.0250 -1.3429
12293SOL     OW47807   3.775   5.425   1.742 -0.5800  0.7708  0.2095
12293SOL    HW147808   3.869   5.392   1.738 -1.0615 -0.4122 -2.0305
12293SOL    HW247809   3.713   5.349   1.759 -1.4059  0.9832 -1.6873
12294SOL     OW47810   4.051   9.582   5.539  0.5709 -0.6972  0.1873
12294SOL    HW147811   4.128   9.610   5.481 -0.2691  0.5907 -0.3316
12294SOL    HW247812   4.063   9.621   5.631 -0.7605  1.7197 -0.6249
12295SOL     OW47813   8.581   0.395   4.472  0.5479  0.4309 -0.2458
12295SOL    HW147814   8.592   0.359   4.565  0.3679  0.1889 -0.3182
12295SOL    HW247815   8.507   0.463   4.472  0.3817  0.2498 -0.2629
12296SOL     OW47816   2.745   6.595   2.482  0.0863  0.1361 -0.5730
12296SOL    HW147817   2.804   6.616   2.559 -0.7644  0.1809  0.0750
12296SOL    HW247818   2.787   6.628   2.397  0.3960  1.2696  0.0186
12297SOL     OW47819   8.938   1.011   5.238  0.2039 -0.3452  0.3134
12297SOL    HW147820   8.935   1.032   5.141 -0.6448  0.1415  0.4429
12297SOL    HW247821   8.940   1.096   5.291  0.3932 -0.6072  0.7314
12298SOL     OW47822   8.482   7.354   0.398  0.1170 -0.1066  0.2023
12298SOL    HW147823   8.467   7.447   0.364  1.4912  0.1930  0.3517
12298SOL    HW247824   8.578   7.329   0.381  0.3237 -0.6664  2.1469
12299SOL     OW47825   3.075   7.005   0.502 -0.0787 -0.1063 -0.1626
12299SOL    HW147826   3.129   7.015   0.418  0.3716 -0.0938  0.1270
12299SOL    HW247827   3.024   6.919   0.498  0.4994 -0.4586 -0.1368
12300SOL     OW47828   9.567   1.514   1.276  0.6113  0.7504 -0.1020
12300SOL    HW147829   9.470   1.538   1.278  0.7128  1.0947  0.8501
12300SOL    HW247830   9.608   1.548   1.191  0.2117  1.8448  0.1292
12301SOL     OW47831   1.858   3.362   4.913 -0.6720 -0.3738  0.0030
12301SOL    HW147832   1.914   3.375   4.831  0.0754  0.8072  0.6951
12301SOL    HW247833   1.770   3.323   4.886 -0.7375  0.7125 -1.4729
12302SOL     OW47834   2.640   6.121   4.610 -0.1830  0.1394 -0.1743
12302SOL    HW147835   2.684   6.089   4.694  2.5204  0.9944 -1.2136
12302SOL    HW247836   2.616   6.043   4.553  0.3877 -0.3359  0.2238
12303SOL     OW47837   6.549   9.308   4.485 -0.0624 -0.4455  0.3087
12303SOL    HW147838   6.482   9.238   4.459  0.5260 -0.8979  0.0109
12303SOL    HW247839   6.508   9.398   4.473 -0.0081 -0.6639 -1.6450
12304SOL     OW47840   9.539   2.765   2.545 -0.4729  0.2427  0.3020
12304SOL    HW147841   9.443   2.741   2.527 -0.7879  0.3363  1.8358
12304SOL    HW247842   9.597   2.687   2.521 -1.1000 -0.4665  1.0537
12305SOL     OW47843   2.762   9.208   0.396  0.2044  0.2166  0.1225
12305SOL    HW147844   2.712   9.121   0.400 -1.6102  1.1705 -0.9722
12305SOL    HW247845   2.828   9.205   0.321  1.3554 -0.7920  1.1361
12306SOL     OW47846   8.412   6.349   4.491 -0.0613  0.4458  0.0826
12306SOL    HW147847   8.470   6.268   4.492  2.0231  1.9115 -0.1003
12306SOL    HW247848   8.357   6.351   4.575 -3.2675 -3.3012 -1.7727
12307SOL     OW47849   9.674   7.740   3.320  0.1832  0.2613 -0.3671
12307SOL    HW147850   9.713   7.658   3.277  1.0332  1.6094 -2.2329
12307SOL    HW247851   9.743   7.782   3.379 -0.3383 -0.4898  0.7960
12308SOL     OW47852   8.856   5.826   3.818 -0.3013 -0.5600 -0.8075
12308SOL    HW147853   8.939   5.837   3.763  0.5977 -2.5907  0.0797
12308SOL    HW247854   8.792   5.900   3.797  0.8783 -0.1101 -3.0200
12309SOL     OW47855   5.555   9.957   4.294 -0.4456  0.1778  0.2963
12309SOL    HW147856   5.573  10.017   4.216  1.1110 -0.1112  0.4075
12309SOL    HW247857   5.598   9.995   4.376  2.4760 -2.1102 -0.0664
12310SOL     OW47858   6.622   9.081   1.490  0.0846 -0.0174 -0.1408
12310SOL    HW147859   6.574   9.025   1.422 -0.2085 -1.3056  1.0956
12310SOL    HW247860   6.572   9.078   1.577  0.3993  1.6893  0.1168
12311SOL     OW47861   9.471   3.729   4.969 -0.2616 -0.1399 -0.9329
12311SOL    HW147862   9.563   3.690   4.967 -1.0663 -2.0101 -1.7494
12311SOL    HW247863   9.443   3.753   4.876 -0.2130  1.4337 -0.5711
12312SOL     OW47864   4.083   0.440   3.831 -0.2172 -0.2623  0.1617
12312SOL    HW147865   4.159   0.384   3.800 -0.9522 -0.6062 -1.0666
12312SOL    HW247866   4.057   0.413   3.924  1.8442  0.6009  1.0232
12313SOL     OW47867   2.787   9.121   4.465 -0.1474  0.2765 -0.5741
12313SOL    HW147868   2.883   9.141   4.449  0.1944 -1.6475 -1.0867
12313SOL    HW247869   2.739   9.111   4.377 -0.4098 -0.5421 -0.3481
12314SOL     OW47870   2.351   2.541   3.575 -0.1373  0.2047  0.6524
12314SOL    HW147871   2.355   2.635   3.608  0.5871  0.1405  0.7530
12314SOL    HW247872   2.256   2.512   3.568 -0.3537  0.8705  0.8314
12315SOL     OW47873   7.904   7.226   3.244 -0.5853 -0.3134 -0.4864
12315SOL    HW147874   7.912   7.193   3.338 -1.6359 -0.4482 -0.4404
12315SOL    HW247875   7.937   7.156   3.181 -0.0509 -0.2930 -0.2330
12316SOL     OW47876   3.528   0.886   5.299  0.2435 -0.0553 -0.0277
12316SOL    HW147877   3.563   0.801   5.260  0.8121 -0.0845  0.5431
12316SOL    HW247878   3.440   0.907   5.257  0.1298 -0.8888 -0.2293
12317SOL     OW47879   8.774   3.334   2.686  0.7590  0.2816  0.0250
12317SOL    HW147880   8.760   3.249   2.635  0.7304 -0.8216  1.8124
12317SOL    HW247881   8.843   3.319   2.757 -0.3399  1.3136  1.3381
12318SOL     OW47882   7.384   2.611   1.519 -0.2502 -0.2791 -0.4103
12318SOL    HW147883   7.337   2.605   1.608 -0.9586 -0.8914 -0.8131
12318SOL    HW247884   7.443   2.531   1.507  0.0874 -0.0385 -0.3578
12319SOL     OW47885   7.995   6.409   3.318 -0.3503 -0.0375 -0.0319
12319SOL    HW147886   7.976   6.453   3.231 -0.2192 -0.4182 -0.2516
12319SOL    HW247887   7.911   6.402   3.371 -0.5600 -0.4516 -0.4230
12320SOL     OW47888   9.687   3.711   3.670  0.8305  0.2379 -0.1745
12320SOL    HW147889   9.681   3.732   3.767  2.7657  0.7599 -0.1392
12320SOL    HW247890   9.629   3.632   3.649 -0.1804  0.5875  1.2406
12321SOL     OW47891   3.351   2.511   1.823 -0.1208 -0.0137  0.2894
12321SOL    HW147892   3.318   2.604   1.811  3.0497  0.7270 -3.7220
12321SOL    HW247893   3.370   2.495   1.920  0.1044  3.8089  0.9606
12322SOL     OW47894   8.010   4.079   1.121  0.0778 -0.2231 -0.1118
12322SOL    HW147895   7.953   4.049   1.197 -0.7017  0.7089 -0.3245
12322SOL    HW247896   7.956   4.135   1.058  1.3930  1.3699  0.1125
12323SOL     OW47897   1.824   6.773   0.772  0.3578  0.0986  0.4002
12323SOL    HW147898   1.780   6.846   0.719  1.8469 -1.0372 -2.5021
12323SOL    HW247899   1.817   6.687   0.722  2.2949 -0.9083  1.8026
12324SOL     OW47900   2.085   3.731   3.254  0.8577 -0.2963  0.6584
12324SOL    HW147901   2.179   3.702   3.272  2.0322  2.9485  0.1610
12324SOL    HW247902   2.049   3.779   3.333  0.9691  1.6513 -0.4333
12325SOL     OW47903   0.180   6.927   2.916  0.4051 -0.1811 -0.4916
12325SOL    HW147904   0.261   6.869   2.924  0.0758 -0.8216 -1.6379
12325SOL    HW247905   0.156   6.964   3.006  1.5961 -0.4877 -0.0437
12326SOL     OW47906   1.515   8.592   0.929 -0.4695 -0.2322 -0.2582
12326SOL    HW147907   1.567   8.525   0.983 -2.4816 -1.0482  0.6967
12326SOL    HW247908   1.532   8.577   0.832  1.0414 -0.5035  0.0236
12327SOL     OW47909   7.794   5.756   3.247  0.1524 -0.5236 -0.1014
12327SOL    HW147910   7.856   5.742   3.324  0.7562  0.1763 -0.4606
12327SOL    HW247911   7.817   5.841   3.200 -1.0763 -0.2564 -0.2437
12328SOL     OW47912   3.929   9.072   2.954 -0.8844  0.0568 -0.1104
12328SOL    HW147913   3.966   9.161   2.979 -0.5386  0.1971 -1.1177
12328SOL    HW247914   3.868   9.081   2.876 -1.1276 -0.5415  0.0037
12329SOL     OW47915   2.107   7.348   3.190  0.0444 -0.0029  0.5327
12329SOL    HW147916   2.058   7.294   3.258  0.9471 -0.8059  0.5546
12329SOL    HW247917   2.145   7.430   3.233  0.4310 -0.3993  0.9503
12330SOL     OW47918   1.467   7.230   1.203 -0.4669 -0.1109 -0.5909
12330SOL    HW147919   1.429   7.282   1.126 -1.3258 -1.0982 -0.8421
12330SOL    HW247920   1.409   7.151   1.221 -0.2021  0.0512  1.0107
12331SOL     OW47921   0.955   0.736   3.174 -0.0452  0.2531 -0.6147
12331SOL    HW147922   0.899   0.699   3.100 -1.0133 -0.2921  0.3655
12331SOL    HW247923   1.035   0.678   3.189 -0.3226 -0.1345 -0.6418
12332SOL     OW47924   3.891   4.202   0.242  0.2062 -0.1607 -0.4044
12332SOL    HW147925   3.825   4.260   0.194  0.9343 -0.2729 -1.5628
12332SOL    HW247926   3.925   4.249   0.323  0.2783  0.7518 -0.9565
12333SOL     OW47927   1.944   1.499   1.022 -0.1488  0.4490  0.1751
12333SOL    HW147928   1.941   1.563   1.099  1.7586 -1.0704  1.5708
12333SOL    HW247929   1.870   1.431   1.031 -1.8089  2.0451 -0.9977
12334SOL     OW47930   9.942   2.946   5.036 -0.0325 -0.1370 -0.3700
12334SOL    HW147931   9.905   2.889   4.962 -0.7283  1.1765 -1.0711
12334SOL    HW247932   9.910   3.040   5.023 -1.0344 -0.0967  2.2139
12335SOL     OW47933   6.798   6.768   2.362  0.1758 -0.7889 -0.9704
12335SOL    HW147934   6.734   6.832   2.320  1.1172  1.5749  1.1096
12335SOL    HW247935   6.885   6.773   2.314  0.3955 -0.1462 -0.5091
12336SOL     OW47936   5.504   0.417   2.757  0.3983 -0.5830  0.2060
12336SOL    HW147937   5.542   0.361   2.830  1.3273 -0.9935 -0.5857
12336SOL    HW247938   5.405   0.412   2.759  0.4427 -1.2126  0.9502
12337SOL     OW47939   8.375   0.863   3.879 -0.1863  0.1394 -0.4922
12337SOL    HW147940   8.327   0.929   3.936 -2.2094  0.2080 -2.1798
12337SOL    HW247941   8.370   0.772   3.920 -1.5471  0.2035 -0.4985
12338SOL     OW47942   7.633   9.326   1.694  1.2016  0.0225  0.3195
12338SOL    HW147943   7.578   9.261   1.642  1.7960  0.1449 -0.4753
12338SOL    HW247944   7.575   9.401   1.727  0.4395 -1.1157  1.5868
12339SOL     OW47945   0.274   3.654   1.179  0.0819 -0.3856  0.1954
12339SOL    HW147946   0.360   3.617   1.214 -0.7037 -1.5600  0.9301
12339SOL    HW247947   0.198   3.622   1.236 -0.8079  0.9793 -0.1841
12340SOL     OW47948   0.077   7.988   2.330 -0.1316  0.0323 -0.4684
12340SOL    HW147949   0.011   7.942   2.271  0.7089 -2.6720  0.6117
12340SOL    HW247950   0.112   8.069   2.283 -1.7801 -0.2920 -2.3716
12341SOL     OW47951   5.195   2.192   2.556 -0.4068 -0.0491 -0.1932
12341SOL    HW147952   5.273   2.130   2.563  0.2237  0.7122 -0.4026
12341SOL    HW247953   5.192   2.232   2.465 -0.0747  1.1784  0.3208
12342SOL     OW47954   0.760   3.525   1.299 -0.2623  0.2309  0.5054
12342SOL    HW147955   0.772   3.481   1.211  0.1650  1.0177  0.1649
12342SOL    HW247956   0.752   3.624   1.287 -1.2059  0.2585  1.2576
12343SOL     OW47957   2.443   0.325   5.348  0.3170  0.4550  0.0903
12343SOL    HW147958   2.399   0.396   5.294 -0.1173  0.4335  0.4134
12343SOL    HW247959   2.539   0.348   5.362  0.5214  0.2959 -0.9770
12344SOL     OW47960   8.860   9.640   0.724  0.1591 -0.7756  0.1278
12344SOL    HW147961   8.884   9.734   0.703 -0.0286 -0.6940  0.2769
12344SOL    HW247962   8.929   9.578   0.687  0.2804 -0.5792  0.0293
12345SOL     OW47963   0.511   6.349   5.333  0.0273 -0.3882 -0.3018
12345SOL    HW147964   0.447   6.402   5.277 -0.7984  0.2621  1.2070
12345SOL    HW247965   0.596   6.401   5.345  0.3265 -0.6715 -1.2193
12346SOL     OW47966   1.156   6.810   2.646  0.1052  0.2448  0.5712
12346SOL    HW147967   1.089   6.738   2.665 -0.0850  0.0354 -0.8372
12346SOL    HW247968   1.139   6.888   2.708 -0.8924 -0.1519  0.8078
12347SOL     OW47969   1.240   5.254   1.925 -0.1765 -0.3184  0.2215
12347SOL    HW147970   1.260   5.322   1.854 -1.8149  1.3016  1.2538
12347SOL    HW247971   1.143   5.231   1.922 -0.4815  0.5548  2.5867
12348SOL     OW47972   2.355   4.396   0.141 -0.3654 -0.5646 -0.1475
12348SOL    HW147973   2.403   4.389   0.228  0.4477 -0.5335 -0.5877
12348SOL    HW247974   2.333   4.304   0.109  0.2395 -0.6260 -0.3990
12349SOL     OW47975   1.293   4.793   3.829 -0.2042 -0.6941  0.4207
12349SOL    HW147976   1.295   4.744   3.742  1.0605 -0.9039  0.5587
12349SOL    HW247977   1.301   4.891   3.813 -1.2585 -0.6338  0.2321
12350SOL     OW47978   2.737   7.685   4.546  0.4658  0.3291  0.5677
12350SOL    HW147979   2.792   7.617   4.595  2.4909  0.6050 -1.2257
12350SOL    HW247980   2.702   7.644   4.462 -0.2253  0.8327  0.6107
12351SOL     OW47981   9.439   3.455   5.201 -0.5341  0.2309 -0.4277
12351SOL    HW147982   9.345   3.420   5.203 -0.0764 -0.9183  2.3417
12351SOL    HW247983   9.503   3.379   5.194  0.3004  0.7699  1.1434
12352SOL     OW47984   9.740   4.476   1.762 -0.1435 -0.0818  0.1809
12352SOL    HW147985   9.710   4.571   1.750 -1.8709 -0.5246  0.7966
12352SOL    HW247986   9.840   4.473   1.766 -0.1153  1.9433  2.0742
12353SOL     OW47987   9.918   0.149   0.302 -0.0355 -0.3828 -0.1557
12353SOL    HW147988  10.014   0.136   0.278 -0.4582 -1.7765 -1.1278
12353SOL    HW247989   9.912   0.203   0.386  1.5937 -0.2736 -0.0945
12354SOL     OW47990   4.879   0.527   0.213 -0.4259  0.6547 -0.1955
12354SOL    HW147991   4.898   0.603   0.276  0.9377  0.6073 -0.5300
12354SOL    HW247992   4.964   0.476   0.196 -0.9784  0.1101 -1.3476
12355SOL     OW47993   3.595   3.047   5.240  0.0216  0.0273 -0.2189
12355SOL    HW147994   3.601   2.959   5.286 -0.0430 -0.7462 -1.6386
12355SOL    HW247995   3.687   3.084   5.226  0.0505  0.1638  0.3497
12356SOL     OW47996   4.466   4.414   1.876  0.3386 -0.2053  0.5045
12356SOL    HW147997   4.434   4.364   1.956  0.3457  0.4659  0.9315
12356SOL    HW247998   4.564   4.432   1.884  0.0032  1.4105  1.1966
12357SOL     OW47999   4.091   1.227   4.292 -0.3007  0.4125 -0.6174
12357SOL    HW148000   4.122   1.297   4.356 -2.2030  1.7534 -1.1108
12357SOL    HW248001   4.012   1.262   4.241 -1.5670 -2.2551 -0.5476
12358SOL     OW48002   9.821   9.231   3.268  0.2164 -0.4221  0.0630
12358SOL    HW148003   9.890   9.303   3.256  0.6053 -0.8936 -0.5598
12358SOL    HW248004   9.734   9.262   3.230  0.2176 -0.0227  0.3873
12359SOL     OW48005   1.482   9.282   1.844 -0.0829  0.5487 -0.0136
12359SOL    HW148006   1.462   9.349   1.773  1.5569 -0.5653 -1.5732
12359SOL    HW248007   1.553   9.316   1.905  0.9921  0.1097 -1.0098
12360SOL     OW48008   1.434   3.403   1.314 -0.6940 -0.1539 -0.0516
12360SOL    HW148009   1.464   3.362   1.228 -0.0224  0.0264  0.0925
12360SOL    HW248010   1.511   3.448   1.359 -1.0261 -0.2738  0.6633
12361SOL     OW48011   8.992   1.576   1.887 -0.1080 -0.2716 -0.4818
12361SOL    HW148012   9.037   1.504   1.940  1.3683  0.7228 -0.3817
12361SOL    HW248013   9.059   1.624   1.831 -0.6845  2.5201  1.1296
12362SOL     OW48014   4.480   5.473   1.299 -0.8444 -0.2975  0.1830
12362SOL    HW148015   4.511   5.567   1.312 -1.4184 -0.1072  0.1590
12362SOL    HW248016   4.442   5.462   1.207 -3.2189  0.1313  1.0870
12363SOL     OW48017   2.719   1.515   2.352 -0.1549 -0.3473  0.0958
12363SOL    HW148018   2.640   1.499   2.292  0.3925  1.5630 -1.1880
12363SOL    HW248019   2.797   1.461   2.320  0.4162  1.3907 -1.5529
12364SOL     OW48020   3.950   8.233   4.912  0.1198 -0.0658 -0.1443
12364SOL    HW148021   3.855   8.206   4.922  0.2000 -0.4628 -0.4475
12364SOL    HW248022   3.982   8.277   4.996 -0.6638  1.0964 -0.4431
12365SOL     OW48023   8.778   1.689   4.047  0.2718 -0.9786 -0.2261
12365SOL    HW148024   8.740   1.726   3.962  1.0169  0.9022  0.2422
12365SOL    HW248025   8.799   1.592   4.034 -1.8140 -1.3021 -1.4466
12366SOL     OW48026   9.377   5.397   5.520 -1.0739  0.2536 -0.4025
12366SOL    HW148027   9.342   5.348   5.601  0.2671 -0.6489 -0.3441
12366SOL    HW248028   9.311   5.389   5.446 -0.9668 -1.5273 -0.3388
12367SOL     OW48029   7.786   6.890   2.899  0.0284 -0.3175  0.6316
12367SOL    HW148030   7.719   6.836   2.848 -0.1480  0.1992  0.3100
12367SOL    HW248031   7.796   6.852   2.991 -2.6738  1.1554  1.5909
12368SOL     OW48032   8.756   2.737   3.133  0.3055 -0.0907  0.0428
12368SOL    HW148033   8.719   2.748   3.224 -0.5243  0.2749 -0.3377
12368SOL    HW248034   8.707   2.796   3.069  1.1140 -0.0754 -0.5745
12369SOL     OW48035   1.518   8.022   2.013 -0.3480 -0.4124  0.5279
12369SOL    HW148036   1.499   7.924   2.008 -0.8634 -0.2379 -1.2571
12369SOL    HW248037   1.441   8.073   1.976  0.3918  0.6220  0.3870
12370SOL     OW48038   1.496   8.680   0.066  0.2761  0.1542  0.2518
12370SOL    HW148039   1.463   8.760   0.016  2.1285  1.6518  1.3999
12370SOL    HW248040   1.558   8.627   0.007 -0.9315 -0.4606 -0.4964
12371SOL     OW48041   0.433   1.517   3.268  0.4899 -0.3588 -0.2111
12371SOL    HW148042   0.344   1.474   3.252  0.4609 -0.3630 -0.0427
12371SOL    HW248043   0.476   1.539   3.180  0.1652 -0.0392 -0.2903
12372SOL     OW48044   2.351   1.506   4.187  0.4305  0.4189 -0.1278
12372SOL    HW148045   2.316   1.570   4.119 -0.4722 -0.4281 -0.4756
12372SOL    HW248046   2.294   1.511   4.269 -0.3784 -0.7908 -0.6038
12373SOL     OW48047   3.597   7.073   1.100 -0.0022 -0.3025  0.2404
12373SOL    HW148048   3.614   7.167   1.128 -0.3615 -0.1422 -0.0693
12373SOL    HW248049   3.562   7.072   1.006 -0.5791 -0.6969  0.4571
12374SOL     OW48050   7.488   9.271   1.292  0.1499  0.3643  0.3206
12374SOL    HW148051   7.574   9.240   1.332 -0.3104  0.8905  1.7471
12374SOL    HW248052   7.418   9.201   1.303 -0.8828  1.8189  3.5192
12375SOL     OW48053   9.387   9.467   4.175  0.0013 -0.1786 -0.1051
12375SOL    HW148054   9.341   9.529   4.112 -1.0801 -1.6825 -0.8479
12375SOL    HW248055   9.463   9.514   4.219 -1.3778  1.9303  0.0824
12376SOL     OW48056   9.527   9.012   0.101 -0.0829 -0.6929  0.5060
12376SOL    HW148057   9.459   9.006   0.174  0.6504 -0.9368  1.1738
12376SOL    HW248058   9.488   9.060   0.022 -0.7606 -0.1195  1.1904
12377SOL     OW48059   7.513   4.198   4.828  0.2525  0.2742  0.4208
12377SOL    HW148060   7.426   4.204   4.780  0.0578  1.5019  0.8973
12377SOL    HW248061   7.519   4.111   4.876 -0.3729 -0.1488 -0.2641
12378SOL     OW48062   7.157   0.337   2.883 -0.4225 -0.3917  0.2931
12378SOL    HW148063   7.220   0.260   2.871 -1.2611 -0.8802 -1.1293
12378SOL    HW248064   7.106   0.352   2.798  0.4765  2.4135  0.1783
12379SOL     OW48065   8.649   2.816   2.239 -0.5963  0.0714  0.1717
12379SOL    HW148066   8.601   2.729   2.236 -2.2498  0.9427  0.3669
12379SOL    HW248067   8.649   2.857   2.147  0.4919 -0.2947  0.0051
12380SOL     OW48068   9.963   4.761   2.627  0.0573 -0.0105 -0.7872
12380SOL    HW148069   9.994   4.723   2.540 -0.7939 -2.2012 -0.1759
12380SOL    HW248070   9.870   4.797   2.617 -0.3282 -0.9390 -0.6261
12381SOL     OW48071   1.061   8.201   3.976  0.5304  0.3737 -0.2116
12381SOL    HW148072   1.071   8.143   4.057  0.2788 -0.1825 -0.5728
12381SOL    HW248073   1.065   8.297   4.003 -0.3515  0.2057  0.5719
12382SOL     OW48074   3.644   3.246   1.387 -0.0456  0.4554 -0.1721
12382SOL    HW148075   3.695   3.163   1.363 -2.9384 -2.0734  2.1366
12382SOL    HW248076   3.592   3.277   1.308  1.4918  0.4275 -1.2161
12383SOL     OW48077   8.988   8.907   2.808  0.1001  0.1231 -0.7126
12383SOL    HW148078   9.021   8.945   2.894  1.5280 -0.0325 -1.1856
12383SOL    HW248079   8.896   8.870   2.821  1.0009 -1.5259  1.2017
12384SOL     OW48080   9.803   6.644   1.205  0.2761  0.3913  0.0699
12384SOL    HW148081   9.807   6.648   1.105 -1.5046 -0.6136 -0.0620
12384SOL    HW248082   9.890   6.609   1.241  0.8678  0.6158 -1.1278
12385SOL     OW48083   2.319   4.658   2.238 -0.1740 -0.8777  0.2036
12385SOL    HW148084   2.247   4.619   2.296 -0.5642 -1.8421 -0.9165
12385SOL    HW248085   2.395   4.593   2.232  0.5405 -0.1218  0.8779
12386SOL     OW48086   4.856   9.982   1.060  0.2244 -0.0215  0.3905
12386SOL    HW148087   4.921   9.932   1.003  2.2160  1.5382  1.1999
12386SOL    HW248088   4.858  10.079   1.035 -1.5590  0.0953  0.6667
12387SOL     OW48089   4.257   1.071   4.440 -0.2324  0.4677  0.4713
12387SOL    HW148090   4.190   1.123   4.386  0.3962 -0.0621 -0.8561
12387SOL    HW248091   4.347   1.076   4.394  0.1785 -0.4872  1.1600
12388SOL     OW48092   8.340   4.335   3.921 -0.2837 -0.0135 -0.7384
12388SOL    HW148093   8.429   4.381   3.931 -1.1039  1.4118  0.2619
12388SOL    HW248094   8.351   4.252   3.866  1.6015  0.3305 -0.9158
12389SOL     OW48095   0.009   4.341   4.584 -0.0375 -0.7856  0.7678
12389SOL    HW148096  -0.056   4.326   4.510  0.0198  2.2042  0.0792
12389SOL    HW248097   0.097   4.300   4.560 -0.0546  0.0511 -0.7734
12390SOL     OW48098   9.818   9.738   3.388  0.3352 -0.3365 -0.1074
12390SOL    HW148099   9.745   9.793   3.347  0.2018  1.3947  2.3092
12390SOL    HW248100   9.782   9.650   3.418  0.1245 -1.0401 -2.3246
12391SOL     OW48101   2.875   5.041   1.819  0.2971  0.0380 -0.5150
12391SOL    HW148102   2.789   4.990   1.824  0.4031 -0.4363 -2.7531
12391SOL    HW248103   2.950   4.977   1.797  0.5477  1.0123 -2.6515
12392SOL     OW48104   4.335   0.470   0.061  0.2571  0.4090 -0.2696
12392SOL    HW148105   4.255   0.445   0.006 -1.2071  4.4874 -0.1346
12392SOL    HW248106   4.416   0.476   0.002 -0.2539 -0.1785 -1.0395
12393SOL     OW48107   7.305   1.065   1.243 -0.5213 -0.3423  0.0440
12393SOL    HW148108   7.312   1.164   1.257 -0.6897 -0.1457 -1.2630
12393SOL    HW248109   7.260   1.024   1.322 -1.9266  0.8320 -0.1201
12394SOL     OW48110   1.545   9.005   2.959 -0.3661 -0.1028 -0.4896
12394SOL    HW148111   1.530   9.102   2.980 -1.1330 -0.3465  0.1035
12394SOL    HW248112   1.514   8.949   3.035  1.4842 -0.7558 -0.2004
12395SOL     OW48113   3.488   4.341   1.727  0.3474 -0.0617 -0.0681
12395SOL    HW148114   3.572   4.341   1.781  0.5712 -0.2107 -0.4161
12395SOL    HW248115   3.412   4.375   1.783  0.4420 -0.8566  0.5563
12396SOL     OW48116   9.267   6.392   4.384 -0.2843  0.4712 -0.0174
12396SOL    HW148117   9.167   6.384   4.378 -0.2840  0.0778  0.4011
12396SOL    HW248118   9.291   6.456   4.456 -0.2321 -0.0327  0.4214
12397SOL     OW48119   5.709   8.655   3.763  0.1365 -0.9256  0.3398
12397SOL    HW148120   5.685   8.569   3.809 -0.4126  0.6165  3.0441
12397SOL    HW248121   5.628   8.690   3.714 -0.2105 -0.9409  0.8968
12398SOL     OW48122   9.577   4.118   3.974 -0.1308 -0.2406  0.8740
12398SOL    HW148123   9.563   4.053   4.049 -0.7820  0.3650  1.2841
12398SOL    HW248124   9.636   4.192   4.005 -0.3451 -0.0255  0.7724
12399SOL     OW48125   1.888   8.313   5.281 -0.0834 -0.1331 -0.1779
12399SOL    HW148126   1.983   8.347   5.285  0.3244 -1.5044  1.9444
12399SOL    HW248127   1.882   8.224   5.325 -2.6551  0.5457  0.9022
12400SOL     OW48128   9.929   6.293   0.738 -0.2426 -0.0991  0.2030
12400SOL    HW148129   9.833   6.311   0.717 -0.7591 -0.9175  1.7963
12400SOL    HW248130   9.983   6.294   0.653 -1.4155  1.6906 -0.5613
12401SOL     OW48131   0.966   8.350   0.778  0.2324  0.2392  0.3105
12401SOL    HW148132   0.964   8.442   0.738 -0.9785  0.0388 -0.0902
12401SOL    HW248133   0.877   8.306   0.767  1.3430 -1.6997 -1.1697
12402SOL     OW48134   0.630   2.779   0.668  0.3150 -0.6575  0.4146
12402SOL    HW148135   0.660   2.707   0.730  0.2248 -1.4168 -0.3960
12402SOL    HW248136   0.704   2.844   0.653  0.1350 -0.1323  1.7861
12403SOL     OW48137   2.969   3.159   0.089  0.5130 -0.0932  0.4407
12403SOL    HW148138   3.056   3.112   0.103 -0.2413 -1.1423  1.7040
12403SOL    HW248139   2.916   3.111   0.018  0.4793 -0.1322  0.4919
12404SOL     OW48140   9.207   3.059   5.320  0.5442  0.1251  0.1134
12404SOL    HW148141   9.205   3.112   5.236 -3.9539  0.5916  0.3925
12404SOL    HW248142   9.180   3.117   5.397 -2.0043 -1.9105  0.8083
12405SOL     OW48143   9.657   1.918   0.231  0.1019 -0.3781 -0.6888
12405SOL    HW148144   9.621   1.920   0.138 -0.9418 -0.6044 -0.3038
12405SOL    HW248145   9.757   1.910   0.229  0.0748 -0.4561 -1.7784
12406SOL     OW48146   5.375   0.273   1.957 -0.2113 -0.3304  0.5116
12406SOL    HW148147   5.430   0.288   2.038 -0.7200 -0.1600  0.8271
12406SOL    HW248148   5.287   0.233   1.983 -0.6590  0.3879  0.1191
12407SOL     OW48149   4.611   3.964   0.355  0.6595  0.3064 -0.1108
12407SOL    HW148150   4.620   3.909   0.438  1.0052 -1.7145 -1.4546
12407SOL    HW248151   4.528   4.020   0.361  0.4196 -0.1873  1.3807
12408SOL     OW48152   4.230   0.377   3.390  0.0025 -0.0843 -0.1540
12408SOL    HW148153   4.284   0.459   3.371 -1.8415  1.0527 -0.6090
12408SOL    HW248154   4.152   0.401   3.448 -2.0586 -0.9757 -2.4599
12409SOL     OW48155   9.059   5.578   3.850  0.3742  0.2922  0.4153
12409SOL    HW148156   8.964   5.607   3.836 -0.5548 -2.9420 -0.3432
12409SOL    HW248157   9.062   5.507   3.920  2.3591  0.8462  0.9185
12410SOL     OW48158   5.756   7.487   2.701  0.3578  0.3160  0.8275
12410SOL    HW148159   5.736   7.390   2.687 -1.6124  0.7271  0.6730
12410SOL    HW248160   5.837   7.512   2.647  0.2988 -1.0057  0.0881
12411SOL     OW48161   7.105   9.252   1.406 -0.2498  0.1594  0.1450
12411SOL    HW148162   7.039   9.197   1.455 -0.2315 -0.8527 -0.9420
12411SOL    HW248163   7.127   9.334   1.459 -3.0215  0.9628  0.1198
12412SOL     OW48164   6.729   0.968   2.344  0.6155  0.0983 -0.5971
12412SOL    HW148165   6.691   1.005   2.259  0.4139  0.3197 -0.4126
12412SOL    HW248166   6.806   0.908   2.322  1.7409  1.5746 -0.8368
12413SOL     OW48167   7.617   1.798   3.453  0.0143 -0.5589 -0.0189
12413SOL    HW148168   7.598   1.722   3.392  0.2738 -1.6067  1.1788
12413SOL    HW248169   7.663   1.764   3.535 -0.2470  0.8268  0.7209
12414SOL     OW48170   8.651   1.878   5.565  0.2136  0.5978  0.0026
12414SOL    HW148171   8.627   1.952   5.628 -0.6043 -0.3184  0.7919
12414SOL    HW248172   8.727   1.825   5.604  0.1487  0.4338 -0.0933
12415SOL     OW48173   2.471   0.078   4.459 -0.1848  0.4251  0.6117
12415SOL    HW148174   2.466  -0.015   4.495 -0.2959  0.3846  0.4921
12415SOL    HW248175   2.378   0.115   4.450 -0.1279  0.6395  0.8975
12416SOL     OW48176   8.327   2.300   2.621 -0.6925 -0.1034  0.1801
12416SOL    HW148177   8.233   2.272   2.641 -0.6680  0.3633  0.9249
12416SOL    HW248178   8.383   2.288   2.702 -0.1946  0.0169 -0.1483
12417SOL     OW48179   8.281   5.873   1.006  0.4104 -0.6133  0.4417
12417SOL    HW148180   8.272   5.961   1.052 -0.7222 -1.0429  1.0549
12417SOL    HW248181   8.335   5.884   0.922  0.8626  0.5228  0.8719
12418SOL     OW48182   9.799   7.486   2.207  0.0495 -0.2528  0.3897
12418SOL    HW148183   9.860   7.493   2.285  1.2907  2.3527 -0.7200
12418SOL    HW248184   9.851   7.463   2.125 -0.9290 -1.0754 -0.0119
12419SOL     OW48185   0.654   1.813   2.211 -0.0108 -0.3951  0.2307
12419SOL    HW148186   0.692   1.794   2.120 -0.6757 -0.5322 -0.0214
12419SOL    HW248187   0.609   1.902   2.211 -0.7456 -0.7652  0.1932
12420SOL     OW48188   4.213   5.536   1.171  0.5529  0.1988 -0.6083
12420SOL    HW148189   4.156   5.617   1.182 -1.8540 -1.6821  1.3373
12420SOL    HW248190   4.219   5.487   1.258  1.9804 -1.7054 -1.7348
12421SOL     OW48191   6.130   1.486   2.581 -0.3364 -0.2721  0.6609
12421SOL    HW148192   6.045   1.527   2.614  0.2260  0.8748  0.6867
12421SOL    HW248193   6.208   1.527   2.628  0.3921  0.4381 -1.1111
12422SOL     OW48194   0.593   5.832   3.495 -0.2532  0.5113  0.5406
12422SOL    HW148195   0.673   5.893   3.490 -1.1802  1.9385  2.6056
12422SOL    HW248196   0.574   5.796   3.404  2.8764 -0.0199  0.0346
12423SOL     OW48197   4.553   8.613   0.237  0.0666 -0.5018 -0.3420
12423SOL    HW148198   4.485   8.687   0.239 -0.6230 -1.1231 -0.3729
12423SOL    HW248199   4.625   8.636   0.172 -0.0645  0.2124 -0.2441
12424SOL     OW48200   8.860   4.344   1.055  0.1483 -0.0790  0.0481
12424SOL    HW148201   8.957   4.371   1.056  0.8177 -2.3173 -0.2530
12424SOL    HW248202   8.819   4.365   1.144  1.0520  0.3832  0.3735
12425SOL     OW48203   0.828   5.725   5.339 -0.1375 -0.1204  0.4299
12425SOL    HW148204   0.752   5.755   5.397  0.6606  1.2415  0.7862
12425SOL    HW248205   0.881   5.655   5.387 -0.2647  0.0353  0.7989
12426SOL     OW48206   9.362   9.752   3.219  0.2297  0.1160  0.0161
12426SOL    HW148207   9.311   9.697   3.152  0.5949 -0.6044  0.3277
12426SOL    HW248208   9.371   9.701   3.304  1.7195  0.1228 -0.1319
12427SOL     OW48209   9.947   0.420   3.355 -0.2246 -0.1675 -0.4975
12427SOL    HW148210   9.963   0.455   3.448  1.6083 -1.0882 -0.4446
12427SOL    HW248211   9.986   0.482   3.288  0.5093 -0.6722 -0.5406
12428SOL     OW48212   5.152   1.263   2.266  0.4383 -0.4048 -0.1088
12428SOL    HW148213   5.130   1.192   2.199  2.2418 -0.6437 -0.4756
12428SOL    HW248214   5.091   1.341   2.253 -0.5441 -1.2572 -0.7127
12429SOL     OW48215   3.219   1.599   4.749 -0.3863  0.5251 -0.0017
12429SOL    HW148216   3.271   1.565   4.828  1.3109  1.2352 -0.7913
12429SOL    HW248217   3.140   1.650   4.781  0.4712  1.0925  1.2501
12430SOL     OW48218   5.319   9.655   3.917 -0.3024 -0.1207 -0.0938
12430SOL    HW148219   5.370   9.697   3.841  0.0311 -0.4397 -0.0472
12430SOL    HW248220   5.363   9.680   4.003 -2.4616  2.7997  0.2257
12431SOL     OW48221   4.395   2.666   2.719  0.1863  0.4267 -0.3242
12431SOL    HW148222   4.354   2.588   2.673  0.5561 -0.5190  0.9388
12431SOL    HW248223   4.336   2.695   2.795 -0.2840  1.8057 -1.1863
12432SOL     OW48224   6.138   0.936   3.490 -0.2679 -0.0908 -0.0641
12432SOL    HW148225   6.175   0.902   3.577  0.3432  0.9412  0.0968
12432SOL    HW248226   6.194   0.902   3.415 -0.8502 -1.0594 -0.0612
12433SOL     OW48227   5.313   1.271   3.989  0.1371 -0.1327 -0.1364
12433SOL    HW148228   5.213   1.269   3.993  0.1531  0.4687  0.6748
12433SOL    HW248229   5.351   1.218   4.064  0.4309  0.1637 -0.0728
12434SOL     OW48230   2.920   9.998   2.679 -0.1022 -0.1563 -0.0268
12434SOL    HW148231   2.984   9.939   2.730  0.3446 -0.9131 -1.4413
12434SOL    HW248232   2.958  10.018   2.589 -0.7306  1.4783  0.0662
12435SOL     OW48233   3.463   9.658   0.607 -0.4703  0.2186 -0.2091
12435SOL    HW148234   3.451   9.596   0.685  0.4128 -0.2722 -0.4529
12435SOL    HW248235   3.536   9.623   0.548 -0.2354  1.2919 -0.5620
12436SOL     OW48236   3.651   2.674   1.091  0.7099  0.5039  0.1006
12436SOL    HW148237   3.595   2.757   1.086  0.7270  0.5483  0.6214
12436SOL    HW248238   3.645   2.625   1.004 -0.5119  0.2637  0.3000
12437SOL     OW48239   2.827   7.984   0.844 -0.5179 -0.4423  0.3640
12437SOL    HW148240   2.843   7.957   0.749 -2.8063 -0.0408 -0.1527
12437SOL    HW248241   2.826   8.084   0.850  1.0645 -0.4529  1.0820
12438SOL     OW48242   8.581   9.349   0.624  0.0582 -0.3993  0.1501
12438SOL    HW148243   8.508   9.400   0.670 -0.4728 -1.3842  0.4140
12438SOL    HW248244   8.639   9.304   0.692  0.8062  0.2187 -0.0667
12439SOL     OW48245   0.355   4.768   0.320  0.0043 -0.2408  0.4625
12439SOL    HW148246   0.416   4.694   0.348 -0.9747 -0.8820  0.9290
12439SOL    HW248247   0.262   4.733   0.310 -0.2976  0.7264 -0.2434
12440SOL     OW48248   1.731   9.991   1.223  0.0847  0.3513 -0.0992
12440SOL    HW148249   1.634   9.991   1.248 -0.4835  0.5434 -2.2091
12440SOL    HW248250   1.741  10.015   1.126  2.2778  0.8144  0.2076
12441SOL     OW48251   2.536   7.643   3.812  0.2011  0.6735 -0.1708
12441SOL    HW148252   2.520   7.659   3.715 -2.1377 -0.6061 -0.0459
12441SOL    HW248253   2.547   7.545   3.828 -0.5796  0.7637  0.9963
12442SOL     OW48254   9.403   6.062   3.808  0.0983  0.5082  0.2904
12442SOL    HW148255   9.441   6.046   3.717 -0.5356 -1.5341  0.3704
12442SOL    HW248256   9.314   6.107   3.799 -0.3984 -0.5446 -0.1507
12443SOL     OW48257   9.126   7.170   2.046 -0.0848 -0.2359 -0.0458
12443SOL    HW148258   9.069   7.170   1.964  0.0003  1.1141 -0.1186
12443SOL    HW248259   9.213   7.216   2.026  0.6942 -1.5073  0.3037
12444SOL     OW48260   2.814   6.281   2.662 -0.6560 -0.0014  0.4034
12444SOL    HW148261   2.815   6.357   2.727 -2.6335  1.5949 -1.3574
12444SOL    HW248262   2.740   6.218   2.686 -1.6260  0.7823 -0.4734
12445SOL     OW48263   1.179   0.825   0.737  0.0295  0.3714 -0.8951
12445SOL    HW148264   1.114   0.762   0.780  0.4498 -0.7627 -1.8923
12445SOL    HW248265   1.148   0.919   0.751 -1.7660 -0.1455 -1.2496
12446SOL     OW48266   8.577   8.278   3.033  0.2940  0.3926  0.4288
12446SOL    HW148267   8.634   8.204   3.069 -0.4998 -1.2072 -1.5634
12446SOL    HW248268   8.635   8.357   3.012  1.8994 -1.3584 -1.9855
12447SOL     OW48269   3.359   7.638   0.101 -0.0006 -0.0618  0.4531
12447SOL    HW148270   3.269   7.621   0.143 -0.4608  1.3695  0.0775
12447SOL    HW248271   3.420   7.562   0.123 -1.8250 -1.9605 -0.7591
12448SOL     OW48272   7.171   0.955   4.838  0.2039 -0.7178 -0.2776
12448SOL    HW148273   7.199   0.882   4.776 -0.3122  0.7506 -2.3063
12448SOL    HW248274   7.191   1.044   4.796 -1.0584  0.3185  1.2422
12449SOL     OW48275   2.144   4.382   5.044 -0.2793 -0.2233 -0.5046
12449SOL    HW148276   2.068   4.319   5.059 -0.0807 -0.5834 -1.0057
12449SOL    HW248277   2.223   4.331   5.009 -0.0460  0.2687 -0.6966
12450SOL     OW48278   1.069   6.273   1.301 -0.5040 -0.0345  0.0378
12450SOL    HW148279   1.066   6.210   1.379 -0.9399 -0.2257 -0.1294
12450SOL    HW248280   1.138   6.343   1.317 -3.5417  2.5582  2.6722
12451SOL     OW48281   2.215   0.562   3.393 -0.2297 -0.0348  0.7818
12451SOL    HW148282   2.209   0.662   3.403  0.5301 -0.0476  1.4453
12451SOL    HW248283   2.303   0.531   3.428 -0.6558 -0.9958  1.0059
12452SOL     OW48284   1.459   3.166   2.743 -0.3579  0.0523  0.0479
12452SOL    HW148285   1.372   3.211   2.720  0.9120  2.2896 -0.5695
12452SOL    HW248286   1.477   3.093   2.677 -1.7326 -0.4008  0.1494
12453SOL     OW48287   7.077   8.073   2.444  0.6771  0.0978  0.1668
12453SOL    HW148288   7.037   8.088   2.353  0.7899  0.9586  0.2625
12453SOL    HW248289   7.019   8.008   2.494  1.8844 -2.2401 -1.3693
12454SOL     OW48290   0.798   2.839   4.638  0.1715  0.0193  0.3120
12454SOL    HW148291   0.730   2.810   4.705  0.0951 -0.9771 -0.1871
12454SOL    HW248292   0.769   2.925   4.596  0.0394  0.4602  1.2828
12455SOL     OW48293   2.552   6.703   0.854  0.6409  0.1030 -0.1361
12455SOL    HW148294   2.550   6.787   0.908 -0.3993  0.5823 -0.9198
12455SOL    HW248295   2.597   6.631   0.907  2.5153  1.4299  0.1186
12456SOL     OW48296   9.325   2.868   1.805  0.3839 -0.0762  0.3344
12456SOL    HW148297   9.250   2.933   1.817 -0.6843 -1.3357  0.5796
12456SOL    HW248298   9.386   2.900   1.733 -1.1421  0.2801 -0.8205
12457SOL     OW48299   2.677   5.180   5.143 -0.0848  0.0510 -0.2989
12457SOL    HW148300   2.776   5.187   5.140 -0.0242 -0.2094  0.8288
12457SOL    HW248301   2.650   5.084   5.152 -0.3626  0.2553  1.2908
12458SOL     OW48302   2.091   3.097   4.959 -0.2398 -0.2417  0.9574
12458SOL    HW148303   1.992   3.103   4.944 -0.2533 -0.2030  1.0614
12458SOL    HW248304   2.133   3.185   4.939  0.3698 -1.4392 -3.4953
12459SOL     OW48305   3.917   2.231   2.382  0.5599 -0.3186 -0.2745
12459SOL    HW148306   3.842   2.169   2.361  0.4572 -0.3207  0.0889
12459SOL    HW248307   4.003   2.179   2.388  0.3441 -0.5690  0.8653
12460SOL     OW48308   7.749   4.587   4.067 -0.1193 -0.1485 -0.2372
12460SOL    HW148309   7.791   4.513   4.120 -0.6580 -0.1404  0.2056
12460SOL    HW248310   7.792   4.591   3.977 -0.2654 -1.1779 -0.3637
12461SOL     OW48311   9.929   8.332   2.417 -0.7219 -0.0615 -0.2667
12461SOL    HW148312   9.909   8.292   2.506 -1.4561  0.3892 -0.2256
12461SOL    HW248313  10.022   8.306   2.389  0.6513  2.1910  1.9791
12462SOL     OW48314   0.693   5.456   5.207  0.0799 -0.4777  0.2351
12462SOL    HW148315   0.786   5.469   5.172  0.1155 -0.1466  0.4471
12462SOL    HW248316   0.638   5.407   5.139  0.6923 -1.5883  0.5162
12463SOL     OW48317   9.344   7.547   0.894  0.5837  0.3150  0.1759
12463SOL    HW148318   9.400   7.466   0.877  0.7361  0.6702 -1.0255
12463SOL    HW248319   9.403   7.624   0.918  0.6607  0.7813 -1.4417
12464SOL     OW48320   2.860   7.192   4.020 -0.0035 -0.5754 -0.0597
12464SOL    HW148321   2.840   7.114   4.080  0.1620 -1.6474 -1.3666
12464SOL    HW248322   2.795   7.194   3.945  2.1298 -1.5732 -2.0055
12465SOL     OW48323   7.802   6.744   4.555  0.2702 -0.0384  0.3231
12465SOL    HW148324   7.896   6.758   4.523  0.0959 -1.4203 -0.8268
12465SOL    HW248325   7.753   6.831   4.555  0.7528  0.2605 -1.6640
12466SOL     OW48326   9.481   2.326   4.147 -0.0763  0.5608  0.3074
12466SOL    HW148327   9.573   2.301   4.174 -0.0081 -0.9397 -1.2000
12466SOL    HW248328   9.484   2.411   4.094  0.5922 -0.0651 -0.6809
12467SOL     OW48329   0.103   4.584   0.511  0.4530  1.0473  0.3880
12467SOL    HW148330   0.170   4.624   0.573  1.5215  0.1482 -0.1808
12467SOL    HW248331   0.084   4.648   0.437  0.4160  1.4401  0.7340
12468SOL     OW48332   8.783   5.938   5.078  0.4868 -0.8262  0.2297
12468SOL    HW148333   8.836   5.973   5.155  0.5426 -0.9564  0.2508
12468SOL    HW248334   8.778   6.009   5.007 -1.0771 -0.0526  1.0935
12469SOL     OW48335   2.882   7.511   5.293 -0.0970  0.4588 -0.2409
12469SOL    HW148336   2.811   7.501   5.362 -0.0571  1.9015  0.0403
12469SOL    HW248337   2.958   7.564   5.332 -1.0399  3.2581 -2.0284
12470SOL     OW48338   3.454   4.339   5.111  0.4963  0.3730 -0.5425
12470SOL    HW148339   3.416   4.281   5.183  0.2193  0.1673 -0.8544
12470SOL    HW248340   3.451   4.290   5.023  1.1998  0.4685 -0.6250
12471SOL     OW48341   0.761   5.104   1.000 -0.0206  0.3796  0.5015
12471SOL    HW148342   0.788   5.010   1.021 -1.3691 -0.0061  0.5303
12471SOL    HW248343   0.843   5.159   0.983  0.7637 -0.8549  0.2295
12472SOL     OW48344   2.165   2.802   1.804  0.1807 -0.0962  0.2433
12472SOL    HW148345   2.184   2.824   1.708 -1.8107  2.1628  0.3224
12472SOL    HW248346   2.249   2.769   1.847  1.6108  0.7774 -1.7527
12473SOL     OW48347   3.660   8.915   5.004  0.5010  0.0023 -0.4461
12473SOL    HW148348   3.669   8.994   4.943  0.9510 -1.2722 -2.0639
12473SOL    HW248349   3.748   8.867   5.010 -0.0509 -1.0159 -0.3509
12474SOL     OW48350   0.232   6.233   1.800 -0.1333  0.1527  0.1805
12474SOL    HW148351   0.258   6.322   1.764 -0.8464  0.3291  0.0994
12474SOL    HW248352   0.302   6.201   1.864  0.2232  0.6727  0.0538
12475SOL     OW48353   2.074   8.946   0.052  0.0431 -0.4412 -0.3848
12475SOL    HW148354   2.151   8.886   0.033  0.5171 -0.9627  3.0284
12475SOL    HW248355   1.992   8.891   0.069 -0.2607 -0.0016 -0.4018
12476SOL     OW48356   3.551   9.183   3.247  0.0401  0.0488 -0.4356
12476SOL    HW148357   3.570   9.281   3.243  0.5352 -0.1148 -2.4533
12476SOL    HW248358   3.553   9.145   3.155  1.4362 -2.1655  0.4857
12477SOL     OW48359   9.467   9.125   4.824 -0.8786 -0.5016  0.1375
12477SOL    HW148360   9.372   9.095   4.833 -0.9814 -0.0467  0.5663
12477SOL    HW248361   9.473   9.194   4.751 -0.8984 -0.4243  0.2093
12478SOL     OW48362   7.046   6.559   3.499  0.5708 -0.1377  0.3523
12478SOL    HW148363   7.076   6.651   3.524 -0.0829  0.0488  0.4639
12478SOL    HW248364   6.950   6.548   3.524  0.4759 -0.6429 -0.2290
12479SOL     OW48365   2.728   3.526   5.517  0.2097 -0.0626  0.0157
12479SOL    HW148366   2.637   3.563   5.500  0.5484  0.7601 -0.0364
12479SOL    HW248367   2.772   3.502   5.430  0.3027  0.1682 -0.0008
12480SOL     OW48368   8.608   8.462   4.688  0.3673 -0.2072  0.1666
12480SOL    HW148369   8.577   8.543   4.739  0.3352  0.2657 -0.5892
12480SOL    HW248370   8.534   8.396   4.682  0.1583  0.0257  0.1609
12481SOL     OW48371   1.237   1.383   2.770 -0.3136 -0.0824 -0.2263
12481SOL    HW148372   1.307   1.318   2.741 -0.2062  0.0116 -0.1774
12481SOL    HW248373   1.146   1.346   2.749 -0.2219  0.2654 -1.2708
12482SOL     OW48374   2.878   0.117   3.896 -0.5664 -0.4307 -0.2052
12482SOL    HW148375   2.869   0.110   3.995 -0.6798  0.8824 -0.1043
12482SOL    HW248376   2.954   0.178   3.874 -0.4624 -0.8199 -0.9203
12483SOL     OW48377   8.014   3.255   0.227 -0.0258  0.3714 -0.0116
12483SOL    HW148378   8.079   3.231   0.155 -0.2194 -1.0097  0.2573
12483SOL    HW248379   8.044   3.339   0.273  1.0549  0.2692 -0.5163
12484SOL     OW48380   7.926   0.162   2.175  0.3954  0.0475 -0.0814
12484SOL    HW148381   7.865   0.103   2.229  0.0578  0.1571 -0.3365
12484SOL    HW248382   7.943   0.247   2.225 -1.7773  1.1492 -1.1132
12485SOL     OW48383   1.482   7.798   3.248  0.4374 -0.5826  0.5339
12485SOL    HW148384   1.416   7.818   3.176 -0.2047  0.4950  1.4179
12485SOL    HW248385   1.448   7.724   3.306  0.2072 -0.3363  0.7149
12486SOL     OW48386   0.262   1.004   1.503  0.0901 -0.4163  0.6671
12486SOL    HW148387   0.189   0.984   1.439  0.5504  1.3091 -0.4237
12486SOL    HW248388   0.231   1.074   1.568  0.8318  0.4829  0.0617
12487SOL     OW48389   8.113   1.096   1.874  0.3263  0.0492 -0.2154
12487SOL    HW148390   8.022   1.079   1.837  0.6789  0.0799 -1.1101
12487SOL    HW248391   8.174   1.127   1.801  0.6947  1.4074  0.6433
12488SOL     OW48392   8.066   9.261   2.478 -0.8202 -0.1039  0.1913
12488SOL    HW148393   8.032   9.344   2.434 -0.3503 -0.3922 -0.7322
12488SOL    HW248394   8.166   9.259   2.473 -0.7722 -0.2671  1.0537
12489SOL     OW48395   2.353   8.927   1.572  0.4271  0.1559 -0.1690
12489SOL    HW148396   2.379   8.996   1.640 -1.0201  0.4866  0.0627
12489SOL    HW248397   2.291   8.968   1.505 -2.5386 -1.5261  1.4421
12490SOL     OW48398   2.816   0.335   2.270  0.3241 -0.0647  0.8677
12490SOL    HW148399   2.837   0.363   2.177  0.7478  0.1285  1.0223
12490SOL    HW248400   2.723   0.296   2.273 -0.2437  1.2494  0.6488
12491SOL     OW48401   4.685   3.897   4.875 -0.4098 -0.1713 -0.0040
12491SOL    HW148402   4.665   3.877   4.971  0.7561  0.4455  0.3755
12491SOL    HW248403   4.636   3.979   4.847  0.8435  0.8145  0.6602
12492SOL     OW48404   9.222   6.722   3.685  0.1482 -0.0647 -0.4229
12492SOL    HW148405   9.265   6.675   3.762 -1.6033  1.1140  1.3088
12492SOL    HW248406   9.249   6.818   3.685 -0.4721  0.1140 -0.8171
12493SOL     OW48407   7.027   7.888   2.896  0.1276 -0.5572 -0.6005
12493SOL    HW148408   7.045   7.914   2.991  0.1455  2.5161 -1.4023
12493SOL    HW248409   7.096   7.929   2.836 -0.3947 -1.7474 -2.0550
12494SOL     OW48410   8.943   6.129   1.704  0.0662 -0.1579 -0.5051
12494SOL    HW148411   8.906   6.043   1.669  0.5751 -0.7735  0.4675
12494SOL    HW248412   8.920   6.203   1.640 -1.0486 -0.8776 -0.9515
12495SOL     OW48413   1.733   5.922   4.154  0.4973 -0.1076  0.3083
12495SOL    HW148414   1.735   5.823   4.139 -0.2501 -0.3294  1.5766
12495SOL    HW248415   1.708   5.968   4.068 -1.4040 -1.1771  0.2492
12496SOL     OW48416   3.137   4.594   0.309  0.5577  0.3810  0.0325
12496SOL    HW148417   3.209   4.630   0.250  1.5946  0.5258  1.3597
12496SOL    HW248418   3.051   4.640   0.288  1.4045  2.0841  0.2254
12497SOL     OW48419   6.583   1.743   2.463  0.6915 -0.0823  0.5125
12497SOL    HW148420   6.586   1.808   2.387 -1.3262  0.5000  0.9060
12497SOL    HW248421   6.523   1.667   2.439 -0.3472  0.3491  1.6964
12498SOL     OW48422   4.684   6.704   3.332 -0.1495  0.1572 -0.0864
12498SOL    HW148423   4.777   6.673   3.355 -0.5578 -0.6073  0.5997
12498SOL    HW248424   4.631   6.714   3.416 -0.7020  0.5466 -0.4786
12499SOL     OW48425   5.926   7.585   1.505  0.3807  0.0791 -0.4639
12499SOL    HW148426   6.018   7.556   1.478  0.0625  0.3133 -1.8348
12499SOL    HW248427   5.922   7.685   1.509  0.7151  0.0201  1.5124
12500SOL     OW48428   0.446   1.236   0.073 -0.7286 -0.3550 -0.0359
12500SOL    HW148429   0.496   1.161   0.028 -0.9174 -1.1777  1.1124
12500SOL    HW248430   0.498   1.269   0.151 -2.2240 -1.6173  1.5269
12501SOL     OW48431   7.898   7.752   3.036 -0.0573 -0.4696 -0.1670
12501SOL    HW148432   7.930   7.847   3.048 -1.7098  0.1407 -0.4430
12501SOL    HW248433   7.814   7.739   3.089 -0.5514 -1.4020 -1.1828
12502SOL     OW48434   5.916   9.583   1.240 -0.0613 -0.5170  0.1030
12502SOL    HW148435   5.974   9.640   1.183  0.4928 -0.0771  1.0879
12502SOL    HW248436   5.857   9.641   1.297  0.3334 -0.9252  0.9365
12503SOL     OW48437   9.374   4.102   5.319 -0.1846 -0.0313 -0.5919
12503SOL    HW148438   9.441   4.079   5.248  0.6025 -0.8388  0.4032
12503SOL    HW248439   9.299   4.036   5.317  0.2409 -0.5300 -0.1473
12504SOL     OW48440   2.660   8.917   0.382 -0.0680 -0.7654  0.0359
12504SOL    HW148441   2.649   8.934   0.284  0.7678 -0.0206  0.0650
12504SOL    HW248442   2.658   8.818   0.399  0.7887 -0.9411 -0.8597
12505SOL     OW48443   3.432   0.798   1.567 -0.0686 -0.1889 -0.1461
12505SOL    HW148444   3.380   0.868   1.618  0.4395  0.8232 -0.9930
12505SOL    HW248445   3.492   0.749   1.630 -1.2851 -0.6514  0.6591
12506SOL     OW48446   8.753   0.676   1.739  0.7925  0.4754 -0.1117
12506SOL    HW148447   8.724   0.669   1.643  0.6503 -1.7882  0.0741
12506SOL    HW248448   8.672   0.670   1.798  1.1829 -1.5194  0.2527
12507SOL     OW48449   4.040   1.719   4.269 -0.2737  0.2389 -0.1432
12507SOL    HW148450   4.131   1.702   4.230  0.2064  1.7897  0.2750
12507SOL    HW248451   3.970   1.690   4.204  0.4914 -2.8075  0.3142
12508SOL     OW48452   3.129   7.420   1.761 -0.1499 -0.4895 -0.7815
12508SOL    HW148453   3.082   7.467   1.836  0.5995 -1.0229  0.0463
12508SOL    HW248454   3.215   7.383   1.795  1.5269  1.6224 -2.6005
12509SOL     OW48455   1.030   4.000   3.941 -0.1215  0.0193  0.1258
12509SOL    HW148456   1.002   4.010   3.845  0.1039  0.1044  0.0691
12509SOL    HW248457   1.067   4.086   3.975 -0.8162  0.1734  0.4924
12510SOL     OW48458   6.329   0.895   2.436 -0.1902  0.3281  0.3696
12510SOL    HW148459   6.357   0.800   2.441 -0.9549  0.1145  0.6170
12510SOL    HW248460   6.402   0.954   2.471  0.9295 -0.0489 -1.2915
12511SOL     OW48461   1.026   1.632   2.972 -0.4650 -0.3661 -0.3820
12511SOL    HW148462   1.065   1.676   2.891  0.9380  0.5527  0.7547
12511SOL    HW248463   1.000   1.702   3.039 -0.4257 -1.1579  0.4789
12512SOL     OW48464   0.661   0.691   2.181  0.4175 -0.2047  0.0387
12512SOL    HW148465   0.615   0.775   2.154  0.2447 -0.5025 -0.5980
12512SOL    HW248466   0.619   0.613   2.134 -1.0105 -0.9351  2.4169
12513SOL     OW48467   0.620   8.506   4.175 -0.3446 -0.1640  0.0377
12513SOL    HW148468   0.656   8.434   4.115  1.0166  1.0127 -0.5940
12513SOL    HW248469   0.560   8.465   4.244  1.1253 -2.0079  0.2521
12514SOL     OW48470   3.107   7.430   5.575  0.0254 -0.1208 -0.2462
12514SOL    HW148471   3.193   7.434   5.524 -0.5943  0.9401 -1.2135
12514SOL    HW248472   3.075   7.523   5.594 -0.7447 -0.5130  0.4018
12515SOL     OW48473   9.784   1.927   2.269  0.3862 -0.2342  0.5716
12515SOL    HW148474   9.730   2.010   2.254  0.2522 -0.2152  1.1759
12515SOL    HW248475   9.856   1.921   2.200  1.3950  1.1959  1.4959
12516SOL     OW48476   8.846   2.561   4.525 -0.0623  0.1102 -0.2139
12516SOL    HW148477   8.770   2.497   4.521  0.9307 -1.1750  1.0913
12516SOL    HW248478   8.895   2.560   4.438  0.9684 -2.2086  0.3489
12517SOL     OW48479   0.060   3.496   5.535  0.1735 -0.5041 -0.0290
12517SOL    HW148480   0.059   3.559   5.458 -0.3336 -0.6502 -0.1476
12517SOL    HW248481  -0.014   3.519   5.598  0.9546 -0.0272  0.7086
12518SOL     OW48482   3.589   2.093   1.352  0.0543  0.0034  0.4106
12518SOL    HW148483   3.601   2.097   1.451 -0.0051  1.2009  0.3820
12518SOL    HW248484   3.678   2.096   1.307  0.0179  1.0713  0.3948
12519SOL     OW48485   0.523   5.563   4.558  0.5139 -0.1632 -0.4694
12519SOL    HW148486   0.450   5.625   4.530  1.6122  1.2103 -0.3036
12519SOL    HW248487   0.513   5.541   4.655  0.6206  0.4168 -0.3290
12520SOL     OW48488   5.027   4.915   1.008  0.0509  0.6667 -0.4355
12520SOL    HW148489   5.035   4.888   1.104 -0.3373  1.1162 -0.2769
12520SOL    HW248490   4.991   5.008   1.003 -0.1411  0.5581 -1.0229
12521SOL     OW48491   8.196   6.932   0.404 -0.5826  0.4185 -0.7125
12521SOL    HW148492   8.231   7.009   0.350  2.8120 -1.0134 -0.6859
12521SOL    HW248493   8.192   6.850   0.346 -2.9478  0.2640 -0.4004
12522SOL     OW48494   1.028   6.015   1.534 -0.5878  0.1913 -0.0733
12522SOL    HW148495   1.127   5.998   1.529 -0.9199 -1.7989 -0.5133
12522SOL    HW248496   0.982   5.961   1.463 -2.1157  0.0760  0.9925
12523SOL     OW48497   7.470   7.490   3.927 -0.5621 -0.3264  0.0076
12523SOL    HW148498   7.570   7.502   3.931 -0.5398 -0.7224  0.7835
12523SOL    HW248499   7.447   7.396   3.950 -0.9232 -1.0893 -3.3299
12524SOL     OW48500   0.089   2.578   0.383 -0.0298 -0.0173 -0.5897
12524SOL    HW148501   0.140   2.571   0.297 -1.7740 -1.2085 -1.5488
12524SOL    HW248502  -0.003   2.541   0.371 -0.2257 -0.4289  1.8741
12525SOL     OW48503   9.372   6.462   1.281 -0.1057 -0.2379 -0.2007
12525SOL    HW148504   9.353   6.548   1.233  0.3342 -0.0869 -0.1075
12525SOL    HW248505   9.289   6.407   1.284 -0.2896  0.0086 -0.6195
12526SOL     OW48506   0.052   4.594   1.065  0.4300 -0.3549 -0.1511
12526SOL    HW148507   0.040   4.653   0.985  2.9817 -0.9433 -1.0117
12526SOL    HW248508   0.044   4.498   1.037  0.3476 -0.5337  0.4842
12527SOL     OW48509   4.208   9.516   4.214  0.0873 -0.5372 -0.2733
12527SOL    HW148510   4.180   9.611   4.203 -0.3434 -0.4678  1.2586
12527SOL    HW248511   4.256   9.505   4.301  0.1321 -1.7168 -0.4328
12528SOL     OW48512   2.125   6.500   1.446  0.4599 -0.1339  0.1266
12528SOL    HW148513   2.113   6.521   1.543  0.1236 -0.6374  0.1970
12528SOL    HW248514   2.059   6.552   1.393  0.7206  0.2290  0.1586
12529SOL     OW48515   9.626   6.242   4.216  0.2193  0.0756  0.2114
12529SOL    HW148516   9.643   6.155   4.262  0.6888  0.7665  1.3516
12529SOL    HW248517   9.585   6.224   4.126 -0.1864 -1.2942  0.6550
12530SOL     OW48518   6.514   9.630   2.620  0.3662  0.0840  0.5459
12530SOL    HW148519   6.560   9.638   2.708  1.8084  0.4698 -0.2409
12530SOL    HW248520   6.581   9.634   2.546 -0.5542 -2.7356 -0.5005
12531SOL     OW48521   0.135   5.913   4.753 -0.5116 -0.3813  0.1112
12531SOL    HW148522   0.074   5.884   4.679 -0.2962  0.0183 -0.2249
12531SOL    HW248523   0.188   5.992   4.723 -0.3130 -0.3134  0.6410
12532SOL     OW48524   9.794   7.994   1.675  0.0965 -0.0267 -0.0491
12532SOL    HW148525   9.844   7.923   1.725  1.3480  1.0148  0.2086
12532SOL    HW248526   9.850   8.077   1.670 -1.5552  1.1253  0.1250
12533SOL     OW48527   2.569   2.800   4.751 -0.1109 -0.4520  0.3670
12533SOL    HW148528   2.661   2.764   4.768  1.1020  2.3334 -0.0806
12533SOL    HW248529   2.521   2.812   4.837  0.4395 -0.5988  0.6955
12534SOL     OW48530   8.616   9.208   3.925 -0.3597  0.1176  0.0579
12534SOL    HW148531   8.685   9.163   3.869  0.0524  1.3356 -0.4311
12534SOL    HW248532   8.530   9.215   3.874 -0.2225  0.4906 -0.1284
12535SOL     OW48533   9.264   1.046   2.587  0.3434  0.6362 -0.2098
12535SOL    HW148534   9.225   1.137   2.574  1.0215  1.0810  0.8729
12535SOL    HW248535   9.345   1.051   2.644  0.7185 -0.5827 -0.6010
12536SOL     OW48536   5.216   0.113   2.347 -0.0011 -0.0916 -0.3671
12536SOL    HW148537   5.308   0.089   2.376 -0.3172 -2.2344 -1.0717
12536SOL    HW248538   5.149   0.054   2.392 -0.9132  0.3357 -1.1250
12537SOL     OW48539   0.163   5.875   2.402  0.1003 -0.1769  0.2010
12537SOL    HW148540   0.245   5.927   2.423  1.9235 -1.7857 -2.6765
12537SOL    HW248541   0.176   5.780   2.431 -0.3879 -0.6367 -1.0657
12538SOL     OW48542   2.926   6.716   2.305 -0.3914 -0.4442 -0.0056
12538SOL    HW148543   2.869   6.797   2.286 -0.0900 -0.2032  0.1135
12538SOL    HW248544   2.947   6.669   2.219 -1.3481 -0.9279  0.0102
12539SOL     OW48545   3.978   7.683   4.646 -0.3046 -0.0286  0.7687
12539SOL    HW148546   4.055   7.703   4.706  0.6148  1.9459 -1.0009
12539SOL    HW248547   3.900   7.739   4.674  0.1624  0.9855  0.0599
12540SOL     OW48548   4.802   2.842   1.380 -0.0104  0.7562 -0.4141
12540SOL    HW148549   4.835   2.936   1.388  2.7250 -0.0984 -0.8785
12540SOL    HW248550   4.824   2.806   1.289  0.1110 -0.7133  0.1675
12541SOL     OW48551   2.697   7.079   0.759 -1.2196 -0.2406 -0.1123
12541SOL    HW148552   2.693   7.174   0.727  0.5759  0.3184  1.2260
12541SOL    HW248553   2.793   7.051   0.769 -1.7131 -1.3550  1.8431
12542SOL     OW48554   3.062   7.901   1.804  0.5016  0.6996 -0.2640
12542SOL    HW148555   3.158   7.905   1.779  0.8615  0.4943  1.0511
12542SOL    HW248556   3.019   7.990   1.787  1.2398  1.1817  0.3416
12543SOL     OW48557   8.674   4.292   1.744  0.1132 -0.4116 -0.9049
12543SOL    HW148558   8.727   4.330   1.668  2.0556 -0.3586  0.4173
12543SOL    HW248559   8.601   4.235   1.709 -0.2291  1.1639 -2.8425
12544SOL     OW48560   3.041   1.756   4.356 -0.4882  0.2242 -0.0002
12544SOL    HW148561   3.135   1.789   4.360  0.1226 -1.3499 -0.7836
12544SOL    HW248562   3.040   1.657   4.370 -1.7730 -0.1346 -2.3212
12545SOL     OW48563   4.112   4.021   0.946  0.1428  0.1819 -0.4878
12545SOL    HW148564   4.144   3.940   0.896 -0.3134  1.7533 -3.4194
12545SOL    HW248565   4.186   4.054   1.005  0.6355 -1.8325  0.0561
12546SOL     OW48566   2.493   2.503   5.258 -0.6163 -0.3743  0.3662
12546SOL    HW148567   2.441   2.584   5.233 -0.6426 -0.4380  0.2154
12546SOL    HW248568   2.547   2.473   5.180 -0.0736 -0.0923  0.6274
12547SOL     OW48569   5.011   0.772   2.630  0.4513 -0.5777 -0.7201
12547SOL    HW148570   4.995   0.862   2.670  1.7417 -0.6112 -0.1080
12547SOL    HW248571   5.096   0.774   2.576  0.8122 -1.5797 -0.2028
12548SOL     OW48572   8.397   4.113   3.775  0.5241 -0.3386  0.7702
12548SOL    HW148573   8.471   4.067   3.824  1.2652 -1.4024 -1.3090
12548SOL    HW248574   8.333   4.045   3.739 -0.1479  0.4469  0.4581
12549SOL     OW48575   6.142   9.118   2.943 -0.0320 -0.0165 -0.0313
12549SOL    HW148576   6.154   9.072   2.855  1.2769 -0.1887  0.2295
12549SOL    HW248577   6.222   9.173   2.962  0.4227 -1.2858  1.8300
12550SOL     OW48578   8.848   3.910   3.800  0.2317 -0.0084 -0.0778
12550SOL    HW148579   8.775   3.978   3.810 -0.6904 -1.0096  0.1100
12550SOL    HW248580   8.808   3.822   3.771  1.1424 -1.0409  1.7096
12551SOL     OW48581   7.849   5.020   1.054  0.2203 -0.1046 -0.3644
12551SOL    HW148582   7.873   5.037   1.150 -1.7917  0.4945  0.0739
12551SOL    HW248583   7.931   5.022   0.998  1.1665  1.9185  1.0314
12552SOL     OW48584   1.965   2.103   5.214 -0.6024  0.2234 -0.3159
12552SOL    HW148585   1.904   2.148   5.278 -0.5458  0.0569 -0.1447
12552SOL    HW248586   2.007   2.172   5.154 -0.2438  0.4349  0.1791
12553SOL     OW48587   3.152   6.460   2.766 -0.1320 -0.3079 -0.0196
12553SOL    HW148588   3.239   6.507   2.753  0.1305 -0.2807  1.7954
12553SOL    HW248589   3.165   6.362   2.756 -0.6103 -0.0986 -3.4316
12554SOL     OW48590   3.259   6.385   0.623  0.1655 -0.2381 -0.2066
12554SOL    HW148591   3.246   6.286   0.614 -1.4904  0.0618 -1.2723
12554SOL    HW248592   3.195   6.421   0.691  0.9791  0.0756  0.4114
12555SOL     OW48593   2.530   9.631   3.948  0.2756  0.0220  0.1076
12555SOL    HW148594   2.588   9.632   3.866  0.8761  1.5796  0.5319
12555SOL    HW248595   2.570   9.691   4.017 -1.0076 -0.1504  1.0004
12556SOL     OW48596   6.882   7.931   2.650  0.1135  0.2589 -0.1960
12556SOL    HW148597   6.812   7.860   2.644  0.6549 -0.2944  0.0061
12556SOL    HW248598   6.910   7.942   2.746  0.7561  0.0437 -0.3606
12557SOL     OW48599   9.052   2.639   3.289  0.1897  0.0929  0.1221
12557SOL    HW148600   9.087   2.721   3.244 -0.2858 -0.6518 -1.6053
12557SOL    HW248601   8.958   2.622   3.260  0.0857 -0.7444  0.9148
12558SOL     OW48602   8.570   0.442   1.023  0.1086 -0.6932  0.6377
12558SOL    HW148603   8.518   0.480   1.098 -0.0748  0.0672  0.1256
12558SOL    HW248604   8.544   0.486   0.937  1.5484 -0.3348  0.3604
12559SOL     OW48605   3.238   5.621   4.111  0.2253  0.1785 -0.1382
12559SOL    HW148606   3.161   5.644   4.052 -0.4048  1.0149  0.9767
12559SOL    HW248607   3.305   5.695   4.108  0.0192  0.3944  0.4617
12560SOL     OW48608   1.186   2.514   5.238  0.2370  0.6177 -0.4987
12560SOL    HW148609   1.227   2.423   5.243 -1.2442  0.0057  1.0998
12560SOL    HW248610   1.229   2.574   5.306 -0.8035  0.2451  0.5138
12561SOL     OW48611   1.211   3.441   3.551 -0.2541 -0.0816 -0.2477
12561SOL    HW148612   1.180   3.498   3.476 -1.4758 -1.3192 -0.7026
12561SOL    HW248613   1.153   3.359   3.557  1.4287 -1.2489  0.4131
12562SOL     OW48614   7.847   2.249   4.314 -0.4880  0.3174  0.2895
12562SOL    HW148615   7.867   2.328   4.371  0.3093 -0.4596  1.1004
12562SOL    HW248616   7.930   2.195   4.302 -1.0707 -0.4950 -0.0986
12563SOL     OW48617   8.553   2.097   5.075  0.9729 -0.4838 -0.0945
12563SOL    HW148618   8.468   2.149   5.061  0.4124 -1.0682  1.0167
12563SOL    HW248619   8.630   2.149   5.040  0.3349  0.7964  0.3439
12564SOL     OW48620   7.978   7.930   2.279 -0.2737  0.2266  0.0587
12564SOL    HW148621   7.937   7.853   2.327  0.0925 -0.0448 -0.0598
12564SOL    HW248622   7.987   8.008   2.341 -2.0151  0.6625 -0.2164
12565SOL     OW48623   8.382   2.467   5.354 -0.8560 -0.3542 -0.4094
12565SOL    HW148624   8.283   2.466   5.363 -1.0613  0.2261 -2.2543
12565SOL    HW248625   8.414   2.562   5.352 -0.3823 -0.5184 -0.8053
12566SOL     OW48626   9.084   7.078   0.360  0.3183  0.6335  0.0856
12566SOL    HW148627   9.028   7.157   0.386 -0.1542  0.2692  0.1827
12566SOL    HW248628   9.088   7.014   0.437 -0.6498 -0.2003 -0.5439
12567SOL     OW48629   1.081   4.722   2.329  0.2359  0.1256 -0.0517
12567SOL    HW148630   1.015   4.699   2.257  1.4192  0.1960 -1.1708
12567SOL    HW248631   1.059   4.669   2.412 -0.6198 -0.5996 -0.7253
12568SOL     OW48632   7.486   2.738   0.508 -0.0742 -0.4389 -0.7511
12568SOL    HW148633   7.527   2.656   0.467  0.4375 -0.4680 -0.1861
12568SOL    HW248634   7.448   2.715   0.598 -1.6292 -0.4862 -1.3999
12569SOL     OW48635   3.306   6.688   3.342  0.0133 -0.1091 -0.0898
12569SOL    HW148636   3.258   6.745   3.410 -1.2383 -1.8721  0.5319
12569SOL    HW248637   3.241   6.660   3.271  0.4449 -1.3676  0.0115
12570SOL     OW48638   9.689   0.828   1.667 -0.3001  0.1711  0.6011
12570SOL    HW148639   9.741   0.797   1.746  0.1370  2.5762  1.3184
12570SOL    HW248640   9.602   0.868   1.698 -0.4501  0.4581 -0.1807
12571SOL     OW48641   1.304   3.900   2.973 -0.8177  0.0751 -0.1865
12571SOL    HW148642   1.231   3.843   2.935 -1.2916  0.7613 -0.3063
12571SOL    HW248643   1.275   3.995   2.975  0.1362  0.3824 -0.4017
12572SOL     OW48644   1.360   4.184   0.712  0.3972  0.4665  0.3842
12572SOL    HW148645   1.458   4.166   0.718  0.4514  0.4998 -0.3523
12572SOL    HW248646   1.310   4.097   0.713  0.4599  0.4293  0.3187
12573SOL     OW48647   8.402   6.032   3.541 -0.0898 -0.4255 -0.8177
12573SOL    HW148648   8.368   6.102   3.604 -2.4406 -1.4518 -0.8656
12573SOL    HW248649   8.435   6.075   3.457 -1.6513  0.6328 -0.9114
12574SOL     OW48650   3.600   1.265   4.427 -0.0174 -0.9150  1.2122
12574SOL    HW148651   3.511   1.264   4.473 -0.5445  0.1967  0.2394
12574SOL    HW248652   3.672   1.281   4.494 -0.7057 -0.0744  1.7555
12575SOL     OW48653   0.935   2.756   3.790 -0.1838  0.0315 -0.2294
12575SOL    HW148654   0.976   2.666   3.808 -1.0944 -0.3573 -0.1133
12575SOL    HW248655   0.972   2.793   3.704  0.3617 -0.3494 -0.1580
12576SOL     OW48656   1.236   5.275   2.829 -0.0382 -0.1242 -0.2055
12576SOL    HW148657   1.251   5.216   2.909  1.8504 -0.6831 -0.9405
12576SOL    HW248658   1.221   5.219   2.748  2.9620  0.3247 -1.1393
12577SOL     OW48659   1.875   5.415   4.250 -0.1711  0.6334  0.2381
12577SOL    HW148660   1.779   5.398   4.272  0.1717 -0.3275  1.0481
12577SOL    HW248661   1.882   5.457   4.159 -1.3154  0.1711 -0.0724
12578SOL     OW48662   0.873   7.861   4.296  0.0858 -0.5742  0.1657
12578SOL    HW148663   0.849   7.854   4.200  5.1560  1.1040 -1.4125
12578SOL    HW248664   0.916   7.775   4.326  1.2279 -0.0661  0.0260
12579SOL     OW48665   0.623   6.689   5.293 -0.5191 -0.2070 -0.2164
12579SOL    HW148666   0.524   6.701   5.283 -0.6510 -1.2283 -0.2629
12579SOL    HW248667   0.666   6.777   5.310 -1.4445  0.2437 -0.1676
12580SOL     OW48668   2.379   2.308   4.363 -0.8348 -0.0630 -0.1293
12580SOL    HW148669   2.444   2.235   4.344 -1.0046 -0.1105 -0.5437
12580SOL    HW248670   2.287   2.278   4.338 -0.8873  0.3397 -0.4341
12581SOL     OW48671   4.662   6.188   1.946  0.1707 -0.0432  0.0134
12581SOL    HW148672   4.745   6.218   1.993  0.5755 -0.8800 -0.1652
12581SOL    HW248673   4.678   6.099   1.904 -0.1942  0.6973 -1.6996
12582SOL     OW48674   3.892   4.631   2.260 -0.0249  0.2348  0.2682
12582SOL    HW148675   3.842   4.661   2.178 -0.0938 -2.5946 -0.7818
12582SOL    HW248676   3.989   4.620   2.238  0.1027  0.2850  0.7990
12583SOL     OW48677   4.316   4.247   1.671 -0.0216  0.5795  0.2528
12583SOL    HW148678   4.371   4.309   1.727  0.7127  0.1976 -0.0250
12583SOL    HW248679   4.376   4.176   1.633 -1.0866 -1.1420  1.7406
12584SOL     OW48680   9.731   6.199   1.944 -0.4986  0.6641 -0.5551
12584SOL    HW148681   9.805   6.193   1.877 -1.1009 -1.4226 -1.0857
12584SOL    HW248682   9.750   6.137   2.020 -1.2272  0.8317 -0.2339
12585SOL     OW48683   2.230   5.811   1.787  0.5441  0.5760  0.6685
12585SOL    HW148684   2.193   5.727   1.828 -1.1123  1.2336  0.5528
12585SOL    HW248685   2.157   5.860   1.740  2.1102  0.6307 -1.7846
12586SOL     OW48686   0.430   3.550   1.695 -0.2557 -0.3559  0.5503
12586SOL    HW148687   0.503   3.503   1.744  0.4066 -0.6161 -0.6549
12586SOL    HW248688   0.410   3.502   1.609 -0.8628  0.5021  0.1947
12587SOL     OW48689   3.677   6.790   3.968  0.3607  0.2455  0.3130
12587SOL    HW148690   3.725   6.834   3.893 -0.4386 -0.4447 -0.6161
12587SOL    HW248691   3.635   6.860   4.026  1.0977  0.7866  0.2092
12588SOL     OW48692   2.312   6.783   3.276  0.2349 -0.0678 -0.1561
12588SOL    HW148693   2.259   6.840   3.213  0.1414  0.6737  0.5820
12588SOL    HW248694   2.366   6.841   3.337 -1.4459 -0.6663  2.0016
12589SOL     OW48695   5.489   1.590   2.955  0.3513 -0.6928  0.6112
12589SOL    HW148696   5.533   1.516   3.004  2.0878 -0.2936 -0.2955
12589SOL    HW248697   5.390   1.572   2.948  0.1492 -1.0349  3.6526
12590SOL     OW48698   4.018   4.047   4.946 -0.6015 -0.1334 -0.0154
12590SOL    HW148699   3.990   3.980   4.878 -0.2369 -0.3843  0.0818
12590SOL    HW248700   4.079   4.004   5.012 -0.1357  0.3703 -0.1156
12591SOL     OW48701   6.287   0.505   4.871 -0.0942  0.0284 -0.6100
12591SOL    HW148702   6.348   0.433   4.839 -0.0369 -0.1649 -0.0697
12591SOL    HW248703   6.335   0.593   4.870  0.8373 -0.4283  1.7103
12592SOL     OW48704   1.602   6.385   2.269 -0.0129  0.1339  0.0472
12592SOL    HW148705   1.669   6.439   2.319  0.2208  0.2046 -0.3461
12592SOL    HW248706   1.557   6.443   2.201 -0.1469 -0.0304 -0.0036
12593SOL     OW48707   8.807   7.321   3.272 -0.1069 -0.0089 -0.1781
12593SOL    HW148708   8.887   7.334   3.331 -0.4770 -0.5908  0.4591
12593SOL    HW248709   8.740   7.264   3.320 -1.6819  1.9574  0.0145
12594SOL     OW48710   2.108   7.142   2.533  0.3124 -0.0212  0.1495
12594SOL    HW148711   2.080   7.071   2.597  1.6511  0.3740  1.1995
12594SOL    HW248712   2.181   7.107   2.474  1.4544  0.6775  1.1256
12595SOL     OW48713   8.412   7.855   2.744 -0.1591 -0.1156 -0.2918
12595SOL    HW148714   8.448   7.829   2.833 -0.3068  1.4583  0.2428
12595SOL    HW248715   8.331   7.911   2.756  0.1394  0.5764 -1.4065
12596SOL     OW48716   4.689   2.613   2.095 -0.0941 -0.1678  0.5360
12596SOL    HW148717   4.689   2.552   2.174 -3.8201  0.3166  0.9859
12596SOL    HW248718   4.687   2.708   2.127  0.7334  0.0944 -0.1699
12597SOL     OW48719   0.544   2.977   4.533  0.0046 -0.0925 -0.2461
12597SOL    HW148720   0.547   2.882   4.500 -0.3955 -0.4424  0.7039
12597SOL    HW248721   0.494   2.980   4.619 -0.3082  1.0507 -0.4632
12598SOL     OW48722   0.960   4.311   3.571 -0.3825 -0.5707 -0.0807
12598SOL    HW148723   0.988   4.352   3.657  0.6226 -0.1696 -0.5903
12598SOL    HW248724   0.990   4.369   3.495 -1.4871 -0.7872 -0.6922
12599SOL     OW48725   1.658   8.071   2.623  0.2968 -0.3470 -0.2465
12599SOL    HW148726   1.633   8.167   2.630 -1.7463 -0.6156 -3.1033
12599SOL    HW248727   1.620   8.020   2.700 -1.1280  0.6566 -0.2760
12600SOL     OW48728   1.404   7.314   1.887  0.4265  0.0637 -0.4819
12600SOL    HW148729   1.406   7.412   1.865 -1.6315  0.3321  0.3479
12600SOL    HW248730   1.340   7.268   1.825  0.1336 -0.4491  0.1914
12601SOL     OW48731   6.297   0.340   2.936  0.5387 -0.2869 -0.7739
12601SOL    HW148732   6.340   0.415   2.986  0.3621 -0.0677 -0.9429
12601SOL    HW248733   6.218   0.376   2.885 -1.2853 -1.1100  1.3974
12602SOL     OW48734   4.487   0.502   3.366 -0.6235 -0.1748  0.4162
12602SOL    HW148735   4.504   0.432   3.296 -0.1535  0.1124  0.2332
12602SOL    HW248736   4.511   0.466   3.456  1.4239  0.3451  0.1229
12603SOL     OW48737   2.765   9.278   3.720 -0.0625  0.6388 -0.2172
12603SOL    HW148738   2.840   9.335   3.753 -0.4819  0.5386  0.9449
12603SOL    HW248739   2.680   9.331   3.722 -0.6150 -0.2654  1.7032
12604SOL     OW48740   0.709   0.631   1.349 -0.1297  0.7153  0.0204
12604SOL    HW148741   0.801   0.598   1.331 -0.2469  1.0826 -1.3216
12604SOL    HW248742   0.642   0.565   1.315 -0.3548  1.5916 -1.2998
12605SOL     OW48743   5.176   9.813   1.887  0.1389  0.0757  0.4344
12605SOL    HW148744   5.248   9.879   1.866  1.4366 -1.6151 -0.5314
12605SOL    HW248745   5.216   9.731   1.928 -1.3382 -0.5072  0.7745
12606SOL     OW48746   3.584   1.740   1.616 -0.6421  0.2259  0.0711
12606SOL    HW148747   3.607   1.750   1.713 -2.5840  2.3373  0.3501
12606SOL    HW248748   3.662   1.770   1.561  0.4022 -0.7867  0.9574
12607SOL     OW48749   2.984   7.131   0.799 -0.0092  0.3438 -0.0884
12607SOL    HW148750   3.064   7.080   0.831 -0.7775 -0.9871 -0.2782
12607SOL    HW248751   2.994   7.151   0.701 -1.2561 -2.4059 -0.8053
12608SOL     OW48752   6.064   0.628   3.182  0.3716  0.0522  0.5606
12608SOL    HW148753   5.985   0.581   3.222  1.0335  0.0286  1.8676
12608SOL    HW248754   6.146   0.574   3.200  0.5574 -0.5314 -1.8189
12609SOL     OW48755   1.899   0.074   4.050 -0.2499  0.4416 -0.1598
12609SOL    HW148756   1.875   0.041   3.959 -2.0138 -0.0807  0.4833
12609SOL    HW248757   1.967   0.013   4.091  0.6782  0.7719 -1.1799
12610SOL     OW48758   7.569   9.329   4.475  0.2128 -0.3328  0.3391
12610SOL    HW148759   7.472   9.350   4.479  0.0668 -0.8348 -0.4256
12610SOL    HW248760   7.618   9.406   4.432  0.2698  0.2719  1.4824
12611SOL     OW48761   2.115   6.808   5.134 -0.2965  0.2062 -0.2014
12611SOL    HW148762   2.076   6.895   5.104 -1.2382  0.5325  1.8994
12611SOL    HW248763   2.044   6.738   5.137 -0.4379  0.4143  2.1304
12612SOL     OW48764   9.816   6.807   3.979  0.1044 -0.2209  0.3809
12612SOL    HW148765   9.773   6.836   4.064  0.7760  0.9780  0.3255
12612SOL    HW248766   9.912   6.832   3.980  0.0924 -0.1088 -0.7789
12613SOL     OW48767   0.577   0.752   3.628 -0.6686  0.2871 -0.2184
12613SOL    HW148768   0.651   0.715   3.683 -1.8901  0.5651  1.6364
12613SOL    HW248769   0.594   0.731   3.531  1.5313 -0.1190  0.2258
12614SOL     OW48770   9.971   5.588   3.018 -0.4302 -0.0896 -0.3457
12614SOL    HW148771   9.968   5.616   2.922 -0.8352 -1.4123 -0.7208
12614SOL    HW248772   9.909   5.511   3.033 -2.7302  2.0519  1.6431
12615SOL     OW48773   4.518   1.668   4.305 -0.1781 -0.1062 -0.2117
12615SOL    HW148774   4.483   1.710   4.388  0.5568  0.8318 -0.3663
12615SOL    HW248775   4.461   1.590   4.281 -0.6403 -0.1362  0.9390
12616SOL     OW48776   0.437   6.168   5.092  0.0276 -0.2247 -0.2174
12616SOL    HW148777   0.523   6.218   5.099 -0.1952 -0.0390  1.3245
12616SOL    HW248778   0.437   6.092   5.157 -1.6211  0.7721  0.9818
12617SOL     OW48779   1.021   6.705   0.574 -0.2759  0.1359 -0.4699
12617SOL    HW148780   1.009   6.619   0.624  1.7516 -0.1607 -0.4278
12617SOL    HW248781   0.933   6.739   0.543 -1.0769 -2.1519 -0.7830
12618SOL     OW48782   5.798   0.534   2.075 -0.1278  1.0055  0.4894
12618SOL    HW148783   5.719   0.494   2.028  0.7411 -0.1450 -0.0403
12618SOL    HW248784   5.775   0.552   2.170 -0.5930 -0.6852  0.7189
12619SOL     OW48785   3.084   9.579   2.337 -0.0225 -0.3812 -0.0883
12619SOL    HW148786   3.034   9.665   2.334 -1.1636 -1.0474 -0.1928
12619SOL    HW248787   3.020   9.503   2.348  0.7886 -1.3930 -2.0783
12620SOL     OW48788   3.970   8.839   5.465  0.2241  0.8100  0.1416
12620SOL    HW148789   4.043   8.840   5.534 -0.6630  0.8525  1.0870
12620SOL    HW248790   3.893   8.894   5.497 -1.0372 -0.8572  0.0293
12621SOL     OW48791   1.088   7.097   1.035  0.2372  0.4683 -0.1336
12621SOL    HW148792   1.120   7.031   0.967 -0.6469 -0.8182  0.6928
12621SOL    HW248793   1.035   7.168   0.990  1.9009  1.1084 -1.1471
12622SOL     OW48794   8.960   8.645   5.157  0.1125 -0.0842  0.7437
12622SOL    HW148795   8.920   8.664   5.067  0.8202 -2.3631 -0.0972
12622SOL    HW248796   9.012   8.725   5.187  0.5974  0.4167 -1.2946
12623SOL     OW48797   7.279   9.289   2.954  0.1336 -0.1488  0.4206
12623SOL    HW148798   7.291   9.368   3.014  2.3352  0.7867 -1.2048
12623SOL    HW248799   7.363   9.272   2.902 -1.4709 -1.3354 -1.9155
12624SOL     OW48800   3.225   8.971   0.539  0.1657  0.4516 -0.0136
12624SOL    HW148801   3.205   9.067   0.518 -0.6418  0.6882  1.7150
12624SOL    HW248802   3.171   8.912   0.478  0.9622  1.0716 -1.3508
12625SOL     OW48803   9.473   2.678   0.580 -0.2624 -0.5225  0.3820
12625SOL    HW148804   9.389   2.690   0.528 -0.3717 -0.8195  0.4838
12625SOL    HW248805   9.533   2.757   0.567 -2.1695  1.5113  3.2847
12626SOL     OW48806   1.451   1.172   5.560  0.2865  0.6762  0.0777
12626SOL    HW148807   1.419   1.113   5.485 -0.7218 -0.4386  1.3492
12626SOL    HW248808   1.385   1.245   5.575  1.0651  1.5970 -0.8642
12627SOL     OW48809   7.561   9.594   2.062 -0.2903  0.2244 -0.2740
12627SOL    HW148810   7.627   9.559   2.129 -2.8269 -0.6281  1.8768
12627SOL    HW248811   7.605   9.663   2.005  2.2359  0.2779  1.6397
12628SOL     OW48812   9.103   3.243   0.808  0.1306  0.0155 -0.5267
12628SOL    HW148813   9.012   3.273   0.780  0.3180 -0.2045 -1.3992
12628SOL    HW248814   9.096   3.181   0.886 -0.3397  1.4505  0.6004
12629SOL     OW48815   3.105   1.932   0.712 -0.4508  0.4446  0.0791
12629SOL    HW148816   3.107   1.881   0.798 -4.1844 -3.5013 -1.9996
12629SOL    HW248817   3.013   1.967   0.697 -0.3747 -0.5989 -3.2081
12630SOL     OW48818   5.661   7.789   4.141  0.3317 -0.1441 -0.6893
12630SOL    HW148819   5.682   7.879   4.180  0.7963 -0.7782  0.5517
12630SOL    HW248820   5.745   7.735   4.134  0.0994 -0.3871 -1.7000
12631SOL     OW48821   2.894   7.790   2.256  0.1419 -0.2471 -0.1880
12631SOL    HW148822   2.820   7.792   2.188  0.7723 -1.5358 -0.9366
12631SOL    HW248823   2.876   7.715   2.321  0.7533 -0.5176 -0.3322
12632SOL     OW48824   4.377   4.253   2.425  0.2443  0.1419  0.0803
12632SOL    HW148825   4.358   4.155   2.433 -0.7140  0.3339  0.2990
12632SOL    HW248826   4.459   4.267   2.370 -0.0019 -0.7671 -0.5316
12633SOL     OW48827   1.888   9.606   4.968  0.1449  0.7275  0.0353
12633SOL    HW148828   1.797   9.646   4.963  0.3482  1.4352  1.6764
12633SOL    HW248829   1.889   9.533   5.036  0.6945  0.4379 -0.2763
12634SOL     OW48830   6.833   8.944   4.294  0.0353 -0.0111  0.0314
12634SOL    HW148831   6.825   9.035   4.335  2.7300  0.6755 -0.8812
12634SOL    HW248832   6.924   8.907   4.311 -0.6460 -2.0723 -0.6123
12635SOL     OW48833   9.213   2.212   0.732  0.4976 -0.0312 -0.5198
12635SOL    HW148834   9.291   2.157   0.761  0.6631  1.1768  1.4059
12635SOL    HW248835   9.245   2.303   0.704 -0.3146  0.9465  1.6004
12636SOL     OW48836   5.651   1.054   4.998  0.1202 -0.2889  0.1260
12636SOL    HW148837   5.553   1.062   5.017  0.0175 -1.8898  0.3305
12636SOL    HW248838   5.668   1.079   4.903 -0.8468 -2.3231 -0.6134
12637SOL     OW48839   9.199   9.573   3.658 -0.3075 -0.3170 -0.3083
12637SOL    HW148840   9.144   9.569   3.741 -1.5104 -1.4823 -1.1208
12637SOL    HW248841   9.224   9.668   3.639 -3.6540  0.5225 -0.9011
12638SOL     OW48842   8.801   4.795   5.416  0.4447  0.0920  0.3662
12638SOL    HW148843   8.743   4.864   5.372 -0.3077 -0.8900 -0.1833
12638SOL    HW248844   8.812   4.818   5.512 -1.1806  0.0631  0.5707
12639SOL     OW48845   8.289   4.142   1.139  0.3107  0.5674 -0.2861
12639SOL    HW148846   8.342   4.078   1.193  1.9042 -0.2960 -2.7613
12639SOL    HW248847   8.193   4.113   1.136  1.0720 -1.9145 -1.6439
12640SOL     OW48848   0.370   0.078   0.537 -0.4191  0.5648 -0.0126
12640SOL    HW148849   0.413   0.109   0.622  0.1995  1.2982 -0.5823
12640SOL    HW248850   0.406  -0.011   0.511  0.6343  1.0848 -0.3798
12641SOL     OW48851   8.989   7.348   2.583  0.1659  0.8421  0.5101
12641SOL    HW148852   9.011   7.363   2.486 -0.4259 -0.6825  0.1194
12641SOL    HW248853   8.911   7.404   2.609 -0.7414  0.0115 -0.3669
12642SOL     OW48854   0.715   3.523   0.978 -0.1824  0.0504 -0.5364
12642SOL    HW148855   0.632   3.475   0.948 -0.1252  0.2138 -0.9587
12642SOL    HW248856   0.703   3.621   0.964  0.6100 -0.0291 -1.9003
12643SOL     OW48857   2.192   9.662   5.430  0.9435 -0.3190  0.5550
12643SOL    HW148858   2.259   9.736   5.429  0.1293  0.4259  0.5717
12643SOL    HW248859   2.195   9.612   5.343 -1.8505  2.7913 -1.4588
12644SOL     OW48860   1.780   2.533   0.238 -0.1888 -0.2633 -0.0561
12644SOL    HW148861   1.728   2.590   0.302 -0.7474  0.4266 -1.1104
12644SOL    HW248862   1.820   2.456   0.288 -2.3151 -0.8766  0.7679
12645SOL     OW48863   1.460   9.973   1.298 -0.0049  0.1337  0.1356
12645SOL    HW148864   1.398  10.041   1.258 -0.9687 -0.8510 -0.0799
12645SOL    HW248865   1.423   9.882   1.282  1.6582 -0.4843 -0.2139
12646SOL     OW48866   4.870   1.685   3.770  0.3869 -0.8299  0.2232
12646SOL    HW148867   4.841   1.779   3.788 -0.4443 -0.9117 -0.6760
12646SOL    HW248868   4.871   1.634   3.856  0.2765 -0.1521  0.6292
12647SOL     OW48869   0.173   3.856   0.120 -0.5954 -0.7582  0.4407
12647SOL    HW148870   0.073   3.858   0.121 -0.5744  0.6510  2.2005
12647SOL    HW248871   0.207   3.928   0.060 -0.6084 -2.6316 -1.9233
12648SOL     OW48872   2.405   1.965   5.116 -0.5934 -0.5658 -0.4397
12648SOL    HW148873   2.363   2.004   5.197 -1.9273 -0.8027 -0.9991
12648SOL    HW248874   2.497   1.933   5.137 -0.4223  0.6177  0.6282
12649SOL     OW48875   5.270   7.920   4.093  0.0525 -0.3996  0.0459
12649SOL    HW148876   5.342   7.959   4.152 -0.3577 -1.3098  1.1800
12649SOL    HW248877   5.312   7.881   4.011  0.6534  0.7495 -0.2022
12650SOL     OW48878   0.480   2.247   0.931  0.6609  0.0116 -0.1485
12650SOL    HW148879   0.492   2.260   0.833 -0.1532 -0.2321 -0.2793
12650SOL    HW248880   0.425   2.166   0.948 -1.2282  1.3731  0.4392
12651SOL     OW48881   2.100   0.429   1.366 -0.0768 -0.3870  0.3789
12651SOL    HW148882   2.001   0.439   1.374  0.0444  0.0474  1.4069
12651SOL    HW248883   2.135   0.499   1.303 -0.2289  0.5851  1.3434
12652SOL     OW48884   8.348   1.275   4.342  0.5170  0.2292 -0.0485
12652SOL    HW148885   8.369   1.187   4.299 -0.6410  0.6386 -1.4672
12652SOL    HW248886   8.273   1.264   4.406  0.3463  0.1887 -0.2549
12653SOL     OW48887   3.422   3.704   0.676  0.0003 -0.6758 -0.0186
12653SOL    HW148888   3.367   3.689   0.758 -0.4732  0.8730 -0.0424
12653SOL    HW248889   3.509   3.747   0.701 -0.1485 -0.1929 -0.3243
12654SOL     OW48890   7.743   2.270   1.850 -0.3190  0.1484  0.4036
12654SOL    HW148891   7.734   2.198   1.918 -1.1743 -0.1383  0.0015
12654SOL    HW248892   7.652   2.295   1.816  0.0929  0.3392 -0.5699
12655SOL     OW48893   2.672   4.584   2.060 -0.4270  0.1992 -0.2133
12655SOL    HW148894   2.769   4.563   2.048 -0.4552  0.2333 -0.5023
12655SOL    HW248895   2.641   4.549   2.149 -0.7728 -2.0530 -1.2000
12656SOL     OW48896   2.602   8.279   2.879  0.1254  0.1427 -0.1482
12656SOL    HW148897   2.510   8.257   2.909  0.1971  0.6122  0.4174
12656SOL    HW248898   2.609   8.264   2.780 -0.3971 -0.4102 -0.1072
12657SOL     OW48899   8.857   8.809   2.348  0.4488  0.8547  0.1125
12657SOL    HW148900   8.919   8.797   2.425  1.9851  0.0897 -1.2087
12657SOL    HW248901   8.893   8.880   2.287  1.0666 -0.9070 -1.6420
12658SOL     OW48902   3.927   7.738   3.688  0.3667  0.2167 -0.3284
12658SOL    HW148903   3.851   7.672   3.689 -0.1867  0.8568  0.0192
12658SOL    HW248904   4.013   7.689   3.674  0.1198 -0.7639  1.3989
12659SOL     OW48905   0.519   2.582   1.275  0.1483 -0.6142  0.2761
12659SOL    HW148906   0.463   2.526   1.336  0.2047  0.0853  0.9900
12659SOL    HW248907   0.551   2.527   1.199 -0.7500 -1.2568  0.3501
12660SOL     OW48908   2.247   1.968   4.278  0.1493 -0.4039  0.0432
12660SOL    HW148909   2.159   2.006   4.306 -0.4116 -0.6928 -1.3161
12660SOL    HW248910   2.264   1.883   4.326 -1.5363 -1.7182 -1.6247
12661SOL     OW48911   0.287   8.154   0.663  0.5960 -0.1618 -0.1173
12661SOL    HW148912   0.281   8.193   0.755  1.0714  0.8302 -0.4973
12661SOL    HW248913   0.302   8.055   0.670  0.7435 -0.0789  0.8738
12662SOL     OW48914   4.287   3.299   2.507 -0.3356  0.5770 -0.2553
12662SOL    HW148915   4.370   3.289   2.452 -0.2630  0.9384 -0.2112
12662SOL    HW248916   4.234   3.378   2.475  0.3643  1.5929  1.0355
12663SOL     OW48917   8.011   5.255   2.474  0.4136 -0.5251 -0.3634
12663SOL    HW148918   7.933   5.294   2.424  0.0898 -0.6591  0.0350
12663SOL    HW248919   8.047   5.322   2.538 -1.0396 -1.3407  1.3478
12664SOL     OW48920   8.303   5.253   4.119 -0.0412 -0.6505 -0.1801
12664SOL    HW148921   8.256   5.180   4.067  0.0816 -0.5924 -0.3732
12664SOL    HW248922   8.353   5.212   4.195  0.9522 -0.8903 -0.9588
12665SOL     OW48923   3.349   3.439   0.554 -0.3841 -0.3409 -0.3496
12665SOL    HW148924   3.259   3.452   0.595  0.0088  0.2041  0.3504
12665SOL    HW248925   3.410   3.513   0.582  0.5934 -1.2929  0.0784
12666SOL     OW48926   9.722   0.399   3.866  0.0504 -0.3707 -0.0190
12666SOL    HW148927   9.816   0.370   3.879  0.6795  2.1512  1.5277
12666SOL    HW248928   9.670   0.326   3.821  2.5948 -1.9702 -0.4728
12667SOL     OW48929   8.967   7.742   4.250 -0.0285  0.6755  0.0967
12667SOL    HW148930   9.027   7.662   4.253  0.6331  1.0636 -2.1281
12667SOL    HW248931   8.918   7.744   4.163  0.3034  2.9254 -0.0695
12668SOL     OW48932   2.151   9.852   3.396 -0.2191 -0.0303  0.8425
12668SOL    HW148933   2.076   9.897   3.445 -1.6620 -0.9059 -0.4931
12668SOL    HW248934   2.159   9.758   3.428  0.6290  0.1953  1.3069
12669SOL     OW48935   1.137   8.906   5.397 -0.2569 -0.0918  0.3582
12669SOL    HW148936   1.105   8.963   5.473  1.7496  0.1199  1.0636
12669SOL    HW248937   1.094   8.816   5.403 -0.6541  0.1531  1.3324
12670SOL     OW48938   1.918   6.762   0.252 -0.1355  0.0776 -0.0681
12670SOL    HW148939   1.978   6.724   0.182  0.5944  1.4868 -0.2435
12670SOL    HW248940   1.863   6.690   0.293 -1.6220 -0.5950 -3.1029
12671SOL     OW48941   4.966   2.798   0.860 -0.1509  0.3766  0.2831
12671SOL    HW148942   5.037   2.728   0.849 -0.7710 -0.4783  1.5734
12671SOL    HW248943   4.903   2.793   0.783 -2.1583 -2.8384  2.0116
12672SOL     OW48944   2.745   2.257   0.938 -0.3530  0.5012 -0.7118
12672SOL    HW148945   2.827   2.277   0.884 -0.1205  1.5196 -0.0024
12672SOL    HW248946   2.767   2.186   1.005 -0.1243  0.5710 -0.7117
12673SOL     OW48947   5.410   8.821   1.889 -0.0408 -0.5663 -0.1391
12673SOL    HW148948   5.506   8.812   1.866  0.3276  1.1116  0.6225
12673SOL    HW248949   5.392   8.775   1.976  0.4445  0.5383  0.5556
12674SOL     OW48950   9.274   8.348   5.017 -0.6129 -0.4028  0.3051
12674SOL    HW148951   9.241   8.266   5.063 -1.1735 -0.1230  0.4035
12674SOL    HW248952   9.292   8.419   5.085 -0.1469 -0.4345  0.2175
12675SOL     OW48953   4.481   2.580   5.429  0.0193  0.3329 -0.5753
12675SOL    HW148954   4.457   2.659   5.485 -0.2917 -0.1818  0.0293
12675SOL    HW248955   4.479   2.497   5.485  1.6703  0.0699 -0.8952
12676SOL     OW48956   7.895   6.849   2.629 -0.6264  0.5077  0.1034
12676SOL    HW148957   7.953   6.776   2.665 -1.8344 -0.2109  0.6596
12676SOL    HW248958   7.847   6.893   2.705 -0.3757  1.4609 -0.2923
12677SOL     OW48959   8.981   5.010   1.371 -0.3687  0.1069  0.4665
12677SOL    HW148960   8.891   4.976   1.343  0.0835 -0.6778 -0.0460
12677SOL    HW248961   9.019   4.947   1.439  0.0286  0.1483  0.2784
12678SOL     OW48962   1.489   9.428   4.483  0.4915 -0.6774 -0.1076
12678SOL    HW148963   1.480   9.372   4.566  1.1233  1.5323  1.5168
12678SOL    HW248964   1.491   9.525   4.509 -1.1238  0.1625 -2.8691
12679SOL     OW48965   3.964   1.414   0.965  0.2477 -0.0148  0.0238
12679SOL    HW148966   3.970   1.364   0.878 -0.8316  0.0524 -0.0968
12679SOL    HW248967   3.882   1.384   1.014  1.2424 -0.5964  1.3628
12680SOL     OW48968   8.369   2.050   5.618 -0.1570  0.2470  0.1771
12680SOL    HW148969   8.459   2.070   5.580  0.0165 -0.4321  0.2200
12680SOL    HW248970   8.307   2.127   5.600  0.6980  1.1529  1.0369
12681SOL     OW48971   8.791   4.480   4.242  0.4078  0.0398 -0.8271
12681SOL    HW148972   8.803   4.535   4.159 -0.5030 -0.3209 -1.1982
12681SOL    HW248973   8.817   4.534   4.321 -0.9347  1.1712 -1.1514
12682SOL     OW48974   0.832   9.890   3.149  0.0727 -0.2940 -0.6389
12682SOL    HW148975   0.856   9.820   3.216  0.0467 -0.4409 -0.7824
12682SOL    HW248976   0.787   9.966   3.195 -0.4796 -0.6602 -0.5659
12683SOL     OW48977   3.869   5.457   1.207  0.0737 -0.2877  0.0964
12683SOL    HW148978   3.831   5.476   1.298  0.4634 -1.0300  0.4211
12683SOL    HW248979   3.942   5.523   1.188 -0.6778  0.4956 -0.0987
12684SOL     OW48980   7.964   1.382   1.222  0.2438 -0.3777 -0.2443
12684SOL    HW148981   7.878   1.351   1.261 -0.3270  2.4647  0.8505
12684SOL    HW248982   7.958   1.383   1.123 -0.8133 -0.6750 -0.1834
12685SOL     OW48983   4.608   4.079   2.254  0.3157  0.1043 -0.4191
12685SOL    HW148984   4.654   4.157   2.212 -3.4459  2.1609 -1.0082
12685SOL    HW248985   4.584   4.012   2.184 -1.4960  1.1736 -0.8672
12686SOL     OW48986   2.754   4.468   4.719  0.0059 -0.0107 -0.2628
12686SOL    HW148987   2.706   4.443   4.635 -1.1314 -0.3475  0.4752
12686SOL    HW248988   2.728   4.405   4.792  0.9843  0.2839  0.3437
12687SOL     OW48989   0.453   6.520   2.571 -0.2544  0.1346 -0.1919
12687SOL    HW148990   0.530   6.561   2.619 -0.4569  0.3259 -0.0261
12687SOL    HW248991   0.369   6.539   2.622 -0.4964  0.5310 -0.7320
12688SOL     OW48992   4.211   0.555   0.836 -0.0512  0.4473  0.0197
12688SOL    HW148993   4.221   0.649   0.803 -3.0710  0.3761 -1.2548
12688SOL    HW248994   4.217   0.554   0.936  1.0916  1.8239 -0.0278
12689SOL     OW48995   5.120   9.558   3.693  0.4379 -0.0517 -0.1873
12689SOL    HW148996   5.062   9.607   3.628  1.1355 -0.2757 -0.9966
12689SOL    HW248997   5.207   9.607   3.702  1.3399 -1.4090 -1.3937
12690SOL     OW48998   0.707   5.680   3.985  0.6703 -0.7332  0.2515
12690SOL    HW148999   0.694   5.635   3.897 -0.3263 -0.1903  0.1059
12690SOL    HW249000   0.625   5.669   4.041  0.8113 -0.0055  0.6158
12691SOL     OW49001   3.669   6.997   4.722 -0.2550  0.0635 -0.2021
12691SOL    HW149002   3.711   6.939   4.792 -0.6027  1.3101  1.0608
12691SOL    HW249003   3.629   6.940   4.651  2.1374 -1.2017 -0.6121
12692SOL     OW49004   6.281   0.042   1.646  0.0192 -0.2891 -0.2851
12692SOL    HW149005   6.376   0.013   1.658 -0.4990 -0.9691  2.8186
12692SOL    HW249006   6.227  -0.034   1.610  0.1444 -0.7684  0.5265
12693SOL     OW49007   4.975   0.911   3.415 -0.4049  0.1933 -0.0260
12693SOL    HW149008   5.028   0.882   3.335 -1.1971 -0.1513 -0.4375
12693SOL    HW249009   5.025   0.889   3.498  0.5014  0.6884 -0.4261
12694SOL     OW49010   4.460   8.379   1.010 -0.4321 -0.2640  0.0195
12694SOL    HW149011   4.369   8.354   0.977 -1.0804  1.0952  0.6970
12694SOL    HW249012   4.507   8.433   0.940  0.0323 -1.3527 -0.5084
12695SOL     OW49013   1.006   5.825   2.201  0.1049 -0.5163 -0.1924
12695SOL    HW149014   0.974   5.918   2.216 -0.1107 -0.5151 -0.6600
12695SOL    HW249015   1.086   5.826   2.141  0.1468 -0.6283 -0.1403
12696SOL     OW49016   0.260   2.758   1.410  0.6614 -0.5698 -0.4488
12696SOL    HW149017   0.295   2.851   1.425 -3.9117  1.1900  0.0609
12696SOL    HW249018   0.235   2.718   1.498  0.2996 -1.3288 -0.8959
12697SOL     OW49019   3.513   0.431   5.597  0.2809 -0.2825  0.0995
12697SOL    HW149020   3.480   0.455   5.506  0.9027 -1.7690 -0.5366
12697SOL    HW249021   3.612   0.444   5.601  0.3742 -0.9916  0.2875
12698SOL     OW49022   7.081   4.156   5.084 -0.0199 -0.2139  0.4000
12698SOL    HW149023   7.118   4.247   5.099 -1.5124  0.3736  0.6321
12698SOL    HW249024   7.155   4.088   5.088  1.3451  1.1310 -1.4882
12699SOL     OW49025   7.851   5.339   3.369 -0.2819 -0.3945  0.3201
12699SOL    HW149026   7.815   5.337   3.462 -1.8117  0.8679 -0.2076
12699SOL    HW249027   7.779   5.372   3.307  2.0394  3.0993 -0.6720
12700SOL     OW49028   1.866   2.783   2.876 -0.0104 -0.3286 -0.2465
12700SOL    HW149029   1.943   2.741   2.923  0.2353  1.4550  0.9891
12700SOL    HW249030   1.782   2.766   2.928  0.2188  1.3994  0.7254
12701SOL     OW49031   9.787   1.601   4.441  0.0076  0.3228 -0.0450
12701SOL    HW149032   9.691   1.600   4.416 -0.4445 -2.3027  1.6235
12701SOL    HW249033   9.833   1.676   4.394 -2.9291  1.9243 -0.4744
12702SOL     OW49034   0.390   1.916   3.296 -0.0103  0.5131  0.6630
12702SOL    HW149035   0.436   1.990   3.247  1.7032 -0.9833 -0.0097
12702SOL    HW249036   0.308   1.952   3.341  0.7894  2.8109  0.3344
12703SOL     OW49037   1.300   2.843   2.764 -0.2325 -0.1563 -0.3548
12703SOL    HW149038   1.301   2.863   2.862  0.7557  1.0295 -0.5963
12703SOL    HW249039   1.388   2.806   2.737 -0.9846 -1.8665 -0.5375
12704SOL     OW49040   2.035   9.208   2.168 -0.1765 -0.6214  0.8113
12704SOL    HW149041   2.017   9.201   2.266  0.5001 -2.0118  0.8536
12704SOL    HW249042   2.125   9.248   2.153  0.3244 -1.7217  0.8063
12705SOL     OW49043   2.166   5.664   0.744 -0.3129 -0.3945 -0.2923
12705SOL    HW149044   2.103   5.587   0.734 -1.0188  0.2466 -0.8654
12705SOL    HW249045   2.155   5.725   0.666 -0.0501  0.4986  0.3717
12706SOL     OW49046   0.229   7.675   2.958  0.2355  0.1728  0.3693
12706SOL    HW149047   0.159   7.741   2.930 -0.0036 -0.3489 -0.2835
12706SOL    HW249048   0.188   7.609   3.021 -0.1838 -0.8345 -0.9260
12707SOL     OW49049   0.537   5.921   1.876  0.4888  0.0084 -0.7717
12707SOL    HW149050   0.494   5.906   1.787 -1.7244  1.1365  0.0497
12707SOL    HW249051   0.521   6.015   1.905  3.0084  0.2693 -0.1027
12708SOL     OW49052   8.252   8.293   4.276 -0.1909 -0.0836  0.3604
12708SOL    HW149053   8.340   8.338   4.284  1.2249 -2.7716  0.3921
12708SOL    HW249054   8.189   8.329   4.346  1.0054  1.4903  0.6466
12709SOL     OW49055   2.771   6.336   3.525 -0.1556  0.8762 -0.4071
12709SOL    HW149056   2.747   6.420   3.476  0.1509  2.1981  1.6522
12709SOL    HW249057   2.850   6.353   3.583 -1.3111 -0.2786  1.5485
12710SOL     OW49058   1.563   9.248   0.952  0.6390 -0.2366 -0.2201
12710SOL    HW149059   1.516   9.162   0.974  0.0439 -0.4003 -2.0377
12710SOL    HW249060   1.554   9.311   1.029 -0.1047 -1.2978  0.5893
12711SOL     OW49061   0.047   6.875   4.314  0.2524 -0.4439 -0.1651
12711SOL    HW149062   0.110   6.952   4.318  1.5610 -1.5209  0.7205
12711SOL    HW249063   0.059   6.819   4.396 -1.9670 -0.6056  0.0888
12712SOL     OW49064   4.702   4.313   2.141  0.1579 -0.5035  0.4969
12712SOL    HW149065   4.749   4.367   2.211 -0.2914 -1.3996  1.5028
12712SOL    HW249066   4.730   4.345   2.050  1.1994  0.2741  1.0788
12713SOL     OW49067   0.485   1.442   5.457  0.2384 -0.0034 -0.9529
12713SOL    HW149068   0.494   1.343   5.462 -1.0469 -0.0660  0.3672
12713SOL    HW249069   0.576   1.483   5.450  1.0086 -1.1244  1.7335
12714SOL     OW49070   7.729   2.049   3.340 -0.3770 -0.2007 -0.3275
12714SOL    HW149071   7.696   2.103   3.417  0.2627  0.4228 -0.4805
12714SOL    HW249072   7.691   1.957   3.344 -0.9166  0.0520  0.3310
12715SOL     OW49073   2.728   5.246   0.664  0.1881 -0.3185  0.0924
12715SOL    HW149074   2.682   5.258   0.576  0.1037  0.3335  0.2176
12715SOL    HW249075   2.756   5.151   0.675  0.5415 -0.3228 -0.8079
12716SOL     OW49076   7.196   8.079   2.800  0.4072 -0.1595 -0.0040
12716SOL    HW149077   7.278   8.079   2.857 -1.0507 -0.0855  2.1395
12716SOL    HW249078   7.152   8.169   2.804  0.2759 -0.1506 -1.2578
12717SOL     OW49079   5.671   9.112   2.825  0.3446  0.0636 -0.2215
12717SOL    HW149080   5.756   9.067   2.855  0.8475  1.2621  0.1876
12717SOL    HW249081   5.597   9.090   2.888  0.5679 -0.2674 -0.0767
12718SOL     OW49082   5.035   9.898   3.478 -0.5554  0.0776  0.3488
12718SOL    HW149083   4.942   9.906   3.442  0.3334  1.2712 -1.7432
12718SOL    HW249084   5.048   9.966   3.550 -1.9742 -1.5763  2.2535
12719SOL     OW49085   8.034   5.042   4.543 -0.3558  0.0117  0.4123
12719SOL    HW149086   7.961   5.092   4.497  0.1488  0.9965  0.6581
12719SOL    HW249087   8.089   5.106   4.597 -0.7989 -1.0647  2.2042
12720SOL     OW49088   9.203   8.984   3.754 -0.5485  0.4100 -0.2258
12720SOL    HW149089   9.191   9.082   3.742 -0.6199  0.2956 -1.0844
12720SOL    HW249090   9.116   8.942   3.780 -0.3605  0.6753  0.8634
12721SOL     OW49091   9.323   4.600   0.354  0.4498  0.2997  0.4892
12721SOL    HW149092   9.383   4.639   0.283  0.9758 -1.2523  0.0623
12721SOL    HW249093   9.303   4.670   0.422  0.8785  1.4923 -0.5843
12722SOL     OW49094   9.788   0.915   2.135 -0.0925 -0.2145 -0.2882
12722SOL    HW149095   9.846   0.994   2.117 -0.2418 -0.6238 -2.6830
12722SOL    HW249096   9.711   0.914   2.072 -1.3044 -1.1081  1.1546
12723SOL     OW49097   9.754   2.536   5.467  0.5955 -0.3180  0.0977
12723SOL    HW149098   9.672   2.550   5.522 -0.2993  0.4466 -1.4092
12723SOL    HW249099   9.831   2.581   5.511  0.1308 -0.6716  1.3018
12724SOL     OW49100   4.404   8.000   1.084 -0.0757  0.4345  0.3489
12724SOL    HW149101   4.450   7.940   1.019 -1.6067  0.2647 -0.6144
12724SOL    HW249102   4.339   8.059   1.035 -2.2320 -0.6369  1.8223
12725SOL     OW49103   3.879   6.639   2.202  0.5891 -0.6432 -0.1813
12725SOL    HW149104   3.930   6.560   2.170  1.7436 -0.2317  0.6093
12725SOL    HW249105   3.793   6.646   2.152  1.0011 -1.7281 -1.0538
12726SOL     OW49106   2.933   9.796   2.326 -0.0096  0.7228 -0.4574
12726SOL    HW149107   2.952   9.887   2.361 -1.1540  0.8920 -0.2834
12726SOL    HW249108   2.857   9.800   2.261 -0.7815 -0.2729  0.3753
12727SOL     OW49109   9.470   9.875   5.238  0.2898 -0.0923  0.1908
12727SOL    HW149110   9.552   9.818   5.235  0.5584  0.3526 -1.4767
12727SOL    HW249111   9.490   9.961   5.283  1.5086  1.1537 -2.6099
12728SOL     OW49112   1.622   6.263   4.391  0.0223 -0.3289  0.2197
12728SOL    HW149113   1.529   6.229   4.381 -0.3574  0.8155 -0.2054
12728SOL    HW249114   1.624   6.335   4.461  0.3263  0.6089 -0.7459
12729SOL     OW49115   9.854   8.657   3.996 -0.4684  0.2761 -0.2385
12729SOL    HW149116   9.838   8.654   4.094  2.0718 -2.2144  0.1570
12729SOL    HW249117   9.877   8.750   3.968 -2.1527  1.1850  1.3255
12730SOL     OW49118   1.529   9.738   0.767 -0.5836 -0.5530 -0.3159
12730SOL    HW149119   1.547   9.833   0.792  1.8890 -0.7383 -1.2647
12730SOL    HW249120   1.513   9.685   0.850 -2.5783  0.7808  0.1835
12731SOL     OW49121   2.486   0.706   5.046 -0.3720  0.2605 -0.0382
12731SOL    HW149122   2.470   0.767   4.969 -0.3592 -0.1431 -0.3603
12731SOL    HW249123   2.439   0.619   5.030  1.5831 -0.7015 -0.6956
12732SOL     OW49124   8.291   8.452   3.561  0.2049  0.0667 -0.2893
12732SOL    HW149125   8.242   8.395   3.626  0.1909  1.2033  0.7222
12732SOL    HW249126   8.226   8.508   3.510  0.1668 -1.3051 -1.7664
12733SOL     OW49127   4.579   7.710   2.756 -0.3003 -0.7268 -0.2339
12733SOL    HW149128   4.621   7.754   2.836 -0.9276  2.6542 -1.6454
12733SOL    HW249129   4.486   7.681   2.778  0.2047 -1.5638  0.8066
12734SOL     OW49130   8.802   8.952   4.148  0.5417  0.2514 -0.8447
12734SOL    HW149131   8.702   8.951   4.141  0.5179  0.2706 -0.5109
12734SOL    HW249132   8.835   8.858   4.162  0.3475  0.5722  2.0526
12735SOL     OW49133   6.425   1.395   2.887 -0.5009 -0.4099  0.2045
12735SOL    HW149134   6.425   1.474   2.826 -2.8270  1.1610  2.1738
12735SOL    HW249135   6.339   1.345   2.878 -0.8412 -0.2077  2.1086
12736SOL     OW49136   9.566   3.187   2.284  0.1272 -0.0420  0.1512
12736SOL    HW149137   9.510   3.148   2.357  1.4052  0.1008  1.2236
12736SOL    HW249138   9.634   3.119   2.254  1.6630  0.9453  1.2907
12737SOL     OW49139   2.449   6.039   2.541 -0.1785  0.4227 -0.2353
12737SOL    HW149140   2.487   6.087   2.621 -0.6035  2.1739 -1.0552
12737SOL    HW249141   2.415   6.106   2.476 -0.9398 -1.0361 -1.3571
12738SOL     OW49142   8.396   3.946   1.296 -0.9340 -0.0036  0.3587
12738SOL    HW149143   8.410   3.871   1.231  3.2055  0.2236  0.8877
12738SOL    HW249144   8.429   3.920   1.386  0.5177  2.4194  0.5707
12739SOL     OW49145   9.488   2.627   1.446 -0.3700  0.0716 -0.6096
12739SOL    HW149146   9.576   2.666   1.418  0.3074 -0.5317  0.6287
12739SOL    HW249147   9.488   2.611   1.545 -1.3255 -1.3098 -0.8093
12740SOL     OW49148   9.122   8.747   1.086 -0.3469  0.2510 -0.0843
12740SOL    HW149149   9.191   8.764   1.157 -2.7813  0.6205  2.2665
12740SOL    HW249150   9.037   8.795   1.110 -1.7338 -0.9501 -2.4385
12741SOL     OW49151   6.648   9.645   2.855  0.5654  0.2576  0.0340
12741SOL    HW149152   6.644   9.737   2.893  0.9719  0.3257 -0.0875
12741SOL    HW249153   6.725   9.595   2.897  0.7102  0.1698 -0.3343
12742SOL     OW49154   5.574   1.570   2.694 -0.5533 -0.2427  0.2227
12742SOL    HW149155   5.601   1.474   2.685  0.1561 -0.1017  0.7844
12742SOL    HW249156   5.549   1.590   2.789 -1.0189  0.0442  0.0409
12743SOL     OW49157   9.781   4.548   3.509  0.1224 -0.0478  0.3963
12743SOL    HW149158   9.874   4.582   3.499  0.2902 -0.0417  1.8691
12743SOL    HW249159   9.777   4.452   3.480  0.6214 -0.0958  0.4914
12744SOL     OW49160   0.685   8.768   4.415  0.1940  0.1467  0.4163
12744SOL    HW149161   0.650   8.819   4.493 -0.3264 -0.3510  0.5092
12744SOL    HW249162   0.618   8.698   4.388  0.5112  0.1028 -0.2659
12745SOL     OW49163   0.493   3.031   3.596  0.0032  0.1688  0.4158
12745SOL    HW149164   0.471   3.124   3.624  0.5171  0.0976  1.0602
12745SOL    HW249165   0.482   2.969   3.674 -0.2478 -0.2953  0.0147
12746SOL     OW49166   9.145   5.762   1.457 -0.2333  0.6039 -0.4816
12746SOL    HW149167   9.187   5.851   1.478 -0.3817  0.6431 -0.3468
12746SOL    HW249168   9.205   5.689   1.489 -0.3791  0.6626 -0.0685
12747SOL     OW49169   5.741   0.880   0.988 -0.1181 -0.1808 -0.0622
12747SOL    HW149170   5.682   0.933   1.049 -0.6681  0.5780 -1.2284
12747SOL    HW249171   5.763   0.792   1.030 -0.5361  0.3062  1.1913
12748SOL     OW49172   1.784   3.715   3.943 -0.1384 -0.2945  0.1330
12748SOL    HW149173   1.735   3.740   4.026 -0.9898  2.2250 -1.0821
12748SOL    HW249174   1.723   3.664   3.882  0.0016 -0.7595  0.3839
12749SOL     OW49175   3.562   5.654   4.076  0.4078 -0.5400 -0.0606
12749SOL    HW149176   3.539   5.707   3.994  0.4683 -1.2815 -0.5693
12749SOL    HW249177   3.502   5.680   4.151  2.0198  1.9783  0.4047
12750SOL     OW49178   4.157   4.710   2.238 -0.1532 -0.1910  0.2091
12750SOL    HW149179   4.184   4.617   2.261 -0.1236 -0.4866 -0.9728
12750SOL    HW249180   4.210   4.742   2.159 -0.6002  0.5915  0.2172
12751SOL     OW49181   9.403   3.967   4.442  0.2252  0.1261 -0.0249
12751SOL    HW149182   9.414   4.054   4.488  2.1539 -0.2877  0.3305
12751SOL    HW249183   9.324   3.918   4.480 -1.7533  2.3074 -1.2159
12752SOL     OW49184   0.022   5.647   2.095  0.2031 -0.6152  0.2729
12752SOL    HW149185  -0.045   5.673   2.025  1.3096 -2.5325 -1.5371
12752SOL    HW249186   0.104   5.704   2.085  0.2543 -0.7037  0.1899
12753SOL     OW49187   1.844   6.511   5.341  0.4788 -0.9409  0.1566
12753SOL    HW149188   1.940   6.490   5.321  0.4128 -0.3447 -0.8329
12753SOL    HW249189   1.799   6.430   5.379  1.7393 -0.8020  2.0060
12754SOL     OW49190   1.319   5.475   2.660  0.3044  0.3672 -0.3573
12754SOL    HW149191   1.251   5.462   2.589 -0.5730 -0.5057  0.6244
12754SOL    HW249192   1.305   5.408   2.733  3.0732 -0.7652 -0.7906
12755SOL     OW49193   5.565   1.428   2.160 -0.1564  0.5913  0.4212
12755SOL    HW149194   5.472   1.396   2.144 -0.6738  2.0212  0.4924
12755SOL    HW249195   5.617   1.423   2.074 -0.0946 -0.8306  0.5345
12756SOL     OW49196   2.513   3.458   3.732  0.9028  0.3672 -0.4571
12756SOL    HW149197   2.504   3.539   3.790  0.2733  0.0769 -0.1444
12756SOL    HW249198   2.423   3.415   3.721  1.2905 -0.4675 -0.3611
12757SOL     OW49199   3.269   7.769   2.339  0.1171 -0.3989 -0.5084
12757SOL    HW149200   3.228   7.678   2.348 -2.6578  0.8953  0.2520
12757SOL    HW249201   3.199   7.836   2.315  1.5217  2.1070  2.0251
12758SOL     OW49202   8.748   0.272   0.162  0.2141 -0.2334  0.2448
12758SOL    HW149203   8.696   0.187   0.169  0.8506 -0.5852  0.7790
12758SOL    HW249204   8.746   0.305   0.068  0.0766 -0.9190  0.0061
12759SOL     OW49205   3.290   4.264   3.943  0.1646  0.1379 -0.5904
12759SOL    HW149206   3.248   4.220   3.863 -1.3408  0.0974  0.2081
12759SOL    HW249207   3.276   4.207   4.024  0.2259  0.9859  0.0265
12760SOL     OW49208   8.350   6.069   3.262  0.2568  0.3446  0.5567
12760SOL    HW149209   8.268   6.125   3.253 -0.3119 -0.4144  0.9382
12760SOL    HW249210   8.407   6.079   3.180  0.3243  1.7176  0.7538
12761SOL     OW49211   1.061   2.988   2.095  0.0419  0.5772 -0.5331
12761SOL    HW149212   0.998   2.913   2.115  0.3069  0.2351 -0.9744
12761SOL    HW249213   1.109   3.014   2.179  0.1206  0.0950 -0.4259
12762SOL     OW49214   2.064   1.243   2.727 -0.5335 -0.0719 -0.4036
12762SOL    HW149215   2.133   1.173   2.747  1.1823  1.3337 -1.2586
12762SOL    HW249216   2.017   1.221   2.642 -0.2883 -0.3997 -0.4538
12763SOL     OW49217   3.271   1.763   3.321 -0.3883  0.5455  0.7650
12763SOL    HW149218   3.303   1.840   3.266 -0.3135 -0.5778 -0.7764
12763SOL    HW249219   3.191   1.792   3.375 -1.1895  1.3342 -0.8012
12764SOL     OW49220   1.813   5.916   1.329  0.4201  0.2695 -0.1506
12764SOL    HW149221   1.765   5.892   1.244  1.6497 -0.1859 -0.7177
12764SOL    HW249222   1.777   5.859   1.403 -1.1660  1.1685 -0.1955
12765SOL     OW49223   9.017   2.338   1.816  0.3048  0.2555 -0.5517
12765SOL    HW149224   9.099   2.329   1.760  0.0730  1.4563 -1.1059
12765SOL    HW249225   8.937   2.312   1.763  0.2540 -0.2334 -0.2371
12766SOL     OW49226   9.961   4.974   0.943 -0.0684 -0.5378 -0.3765
12766SOL    HW149227   9.903   4.905   0.987  1.1009 -1.2299  0.0908
12766SOL    HW249228   9.999   4.936   0.858 -1.4014  0.3987 -1.4236
12767SOL     OW49229   2.562   3.803   4.288  0.2439 -0.2726 -0.2626
12767SOL    HW149230   2.649   3.819   4.241 -0.3005  1.3178 -0.7670
12767SOL    HW249231   2.550   3.705   4.304  1.8758 -0.5465 -0.6736
12768SOL     OW49232   0.203   5.405   2.601  0.1524 -0.3313 -0.5224
12768SOL    HW149233   0.236   5.491   2.563 -1.3183  0.8348  0.7649
12768SOL    HW249234   0.250   5.386   2.687 -1.2061  0.4496  0.4261
12769SOL     OW49235   1.215   6.909   0.873  0.1899  0.1941 -0.0999
12769SOL    HW149236   1.147   6.935   0.804  1.3203  2.3166 -0.4506
12769SOL    HW249237   1.301   6.887   0.828  0.6624  0.6932  0.5558
12770SOL     OW49238   2.325   8.254   4.918 -0.4389  0.4742  0.2074
12770SOL    HW149239   2.364   8.162   4.923  0.9162  1.1030  1.5578
12770SOL    HW249240   2.378   8.316   4.976  0.5463  2.7808 -3.0302
12771SOL     OW49241   0.637   9.778   1.637  0.4102 -0.2382 -0.1070
12771SOL    HW149242   0.608   9.865   1.676  0.8413 -0.1475  0.0104
12771SOL    HW249243   0.733   9.783   1.610 -0.3866  0.3927 -3.1054
12772SOL     OW49244   1.322   9.420   3.924 -0.3862  0.1994 -0.3502
12772SOL    HW149245   1.390   9.413   3.997  0.7922 -3.7891 -1.7212
12772SOL    HW249246   1.367   9.427   3.836 -1.7970  0.4189 -1.0764
12773SOL     OW49247   2.157   8.976   3.998  0.2601 -0.2486 -0.4125
12773SOL    HW149248   2.249   8.969   3.960 -0.3745  1.2796 -2.2956
12773SOL    HW249249   2.130   8.887   4.036  2.6335 -0.6065  0.5191
12774SOL     OW49250   6.701   8.715   4.377 -0.3903 -0.3495  0.4447
12774SOL    HW149251   6.601   8.720   4.381 -0.4002  1.1191 -0.8720
12774SOL    HW249252   6.738   8.806   4.356  1.1592 -1.0927 -0.1248
12775SOL     OW49253   9.547   6.535   5.549  0.3190 -0.2783  0.0936
12775SOL    HW149254   9.512   6.568   5.637  0.0795  0.8905 -0.4474
12775SOL    HW249255   9.483   6.557   5.477  1.2562  0.1616 -0.6175
12776SOL     OW49256   8.690   5.500   2.376  0.0994 -0.6848 -0.1353
12776SOL    HW149257   8.686   5.524   2.279  1.2092  0.9191  0.2028
12776SOL    HW249258   8.698   5.400   2.385  0.5410 -0.8034 -1.6960
12777SOL     OW49259   3.735   8.866   2.068 -0.2066  0.4387  0.0431
12777SOL    HW149260   3.835   8.866   2.063 -0.2601  0.1024 -1.1673
12777SOL    HW249261   3.702   8.771   2.073 -0.4376  0.5687  1.2224
12778SOL     OW49262   4.332   6.854   1.380 -0.2783  0.1484 -0.2436
12778SOL    HW149263   4.238   6.855   1.416 -0.0565  0.6879  0.3298
12778SOL    HW249264   4.336   6.794   1.300 -0.8598 -0.7845  0.4145
12779SOL     OW49265   0.060   6.497   3.335 -0.3334  0.7501  0.2939
12779SOL    HW149266   0.088   6.587   3.303 -0.9571  0.8607  0.0453
12779SOL    HW249267   0.022   6.445   3.259 -0.6066  0.5295  0.5803
12780SOL     OW49268   0.570   4.640   3.826 -0.2610  0.5801 -0.4981
12780SOL    HW149269   0.558   4.617   3.923  1.1660  1.3292 -0.1379
12780SOL    HW249270   0.581   4.556   3.773 -3.2218  0.0203 -0.3523
12781SOL     OW49271   9.979   0.161   2.036 -0.1007  0.2421  0.3545
12781SOL    HW149272  10.048   0.116   1.980 -1.6514 -1.3592 -0.3402
12781SOL    HW249273   9.931   0.230   1.981  0.1183  0.4854  0.4694
12782SOL     OW49274   1.887   2.913   1.302 -0.4850  0.9682 -0.7345
12782SOL    HW149275   1.873   2.982   1.372 -2.5818  0.1813 -0.3370
12782SOL    HW249276   1.983   2.888   1.297 -0.1193  2.0526  0.8853
12783SOL     OW49277   3.367   2.325   4.240 -0.4152  0.0663  0.4883
12783SOL    HW149278   3.291   2.266   4.267 -3.1215  2.2269 -2.0415
12783SOL    HW249279   3.419   2.281   4.167 -0.3308 -0.6915  1.0097
12784SOL     OW49280   0.912   0.016   3.909  0.0562 -0.4495  0.2879
12784SOL    HW149281   0.908  -0.084   3.907 -0.3826 -0.4180 -0.4718
12784SOL    HW249282   0.965   0.045   3.988 -0.5147 -1.2701  0.9885
12785SOL     OW49283   3.635   4.340   5.466  0.2462  0.2236  0.5474
12785SOL    HW149284   3.545   4.350   5.422 -0.4440  0.1626  1.9061
12785SOL    HW249285   3.707   4.350   5.398 -0.8260 -1.0409 -0.8035
12786SOL     OW49286   3.217   8.764   4.634  0.1262 -0.0804 -0.2216
12786SOL    HW149287   3.218   8.664   4.629  1.5189 -0.0111 -1.7839
12786SOL    HW249288   3.127   8.795   4.663 -0.3657 -1.7873  0.1246
12787SOL     OW49289   9.199   6.199   1.757  0.7238 -0.0849  0.3717
12787SOL    HW149290   9.120   6.146   1.724  1.0796 -0.4844  0.1632
12787SOL    HW249291   9.246   6.242   1.680  2.0340 -1.6857  0.2520
12788SOL     OW49292   4.366   2.832   1.228 -0.0675  0.0920 -0.1473
12788SOL    HW149293   4.426   2.831   1.148 -1.0698 -1.6169 -0.9222
12788SOL    HW249294   4.406   2.887   1.300  0.3304  2.6413 -2.2383
12789SOL     OW49295   0.886   7.051   3.240 -0.1897 -0.4282  0.1032
12789SOL    HW149296   0.915   7.146   3.255 -0.8056 -0.3452  0.7953
12789SOL    HW249297   0.789   7.049   3.220 -0.1609 -0.9076  0.0168
12790SOL     OW49298   0.986   2.337   4.933  0.0820  0.2390 -0.0473
12790SOL    HW149299   0.913   2.272   4.957  1.1101  0.0513  2.7240
12790SOL    HW249300   1.023   2.312   4.843 -2.7543 -0.0846 -1.1928
12791SOL     OW49301   4.631   0.725   3.630  0.1965 -0.3186  0.3488
12791SOL    HW149302   4.550   0.670   3.648  0.4315 -0.6343  0.4591
12791SOL    HW249303   4.696   0.672   3.575 -0.3311  0.4830 -1.0648
12792SOL     OW49304   3.099   0.971   2.973 -0.1469  0.3556 -0.0096
12792SOL    HW149305   3.169   1.032   3.010  0.0643  0.8635 -1.2290
12792SOL    HW249306   3.140   0.914   2.901 -0.6641 -0.2944  0.2065
12793SOL     OW49307   1.390   8.875   5.302  0.0905  0.5002  0.1896
12793SOL    HW149308   1.297   8.890   5.335  0.2488 -0.4099  1.0544
12793SOL    HW249309   1.387   8.837   5.209 -0.4226 -0.7201  0.7050
12794SOL     OW49310   2.349   5.255   1.608  0.3569 -0.4513  0.7498
12794SOL    HW149311   2.374   5.205   1.691 -0.7715  0.7388  1.8346
12794SOL    HW249312   2.415   5.235   1.536  1.8372 -0.8570  2.1899
12795SOL     OW49313   0.239   6.732   5.057  0.3111  0.3215  0.3131
12795SOL    HW149314   0.205   6.826   5.057 -1.1090 -0.1638 -1.5038
12795SOL    HW249315   0.265   6.706   4.965 -1.4919 -1.8119  0.3534
12796SOL     OW49316   0.009   3.936   1.494 -0.3282 -0.0914 -0.1928
12796SOL    HW149317  -0.061   3.886   1.443 -0.1354 -0.6913  0.1268
12796SOL    HW249318   0.094   3.883   1.495  0.1813  0.6954 -0.7032
12797SOL     OW49319   7.680   9.914   3.327  0.8510 -0.4531 -0.1444
12797SOL    HW149320   7.762   9.939   3.379  0.7741 -0.2353 -0.1260
12797SOL    HW249321   7.670   9.977   3.249 -0.5398  0.9675  1.1366
12798SOL     OW49322   8.846   5.687   1.939  0.2545  0.0101  0.2747
12798SOL    HW149323   8.846   5.741   2.024 -0.9016  0.8093 -0.2214
12798SOL    HW249324   8.860   5.591   1.962 -1.8583 -0.0274  1.5676
12799SOL     OW49325   7.595   9.584   4.373  0.3933  0.2142 -0.4313
12799SOL    HW149326   7.683   9.565   4.328 -0.5179 -1.4134 -1.5746
12799SOL    HW249327   7.599   9.673   4.418  1.3571  1.8991 -3.7147
12800SOL     OW49328   6.692   9.471   3.738 -0.4152  0.0783  0.2031
12800SOL    HW149329   6.600   9.467   3.778 -0.6618  0.6378 -0.2981
12800SOL    HW249330   6.687   9.447   3.641 -0.5491  3.2874 -0.6391
12801SOL     OW49331   4.533   4.295   0.140  0.1009 -0.0057 -0.4563
12801SOL    HW149332   4.561   4.387   0.112 -1.6691  0.2606 -1.3938
12801SOL    HW249333   4.614   4.243   0.169  0.8639  2.5290  2.2171
12802SOL     OW49334   9.489   4.701   4.006  0.2918 -0.2612 -0.3799
12802SOL    HW149335   9.416   4.725   4.071 -0.3560 -0.6081 -0.9776
12802SOL    HW249336   9.573   4.684   4.057 -0.0021  0.2793  0.3063
12803SOL     OW49337   0.955   2.704   1.938 -0.6567 -0.0869  0.2289
12803SOL    HW149338   1.054   2.708   1.923 -0.9967  0.1497 -2.1279
12803SOL    HW249339   0.929   2.610   1.961  0.2162  0.0335  1.8257
12804SOL     OW49340   8.601   7.224   1.489  0.2110 -0.1374 -0.4863
12804SOL    HW149341   8.568   7.283   1.562 -0.9097  0.2296 -1.2809
12804SOL    HW249342   8.562   7.133   1.500 -0.6047  0.1337 -1.0779
12805SOL     OW49343   4.180   5.649   2.129 -0.0216  0.4051  0.0995
12805SOL    HW149344   4.187   5.557   2.168 -1.8144  0.3355  0.2577
12805SOL    HW249345   4.156   5.642   2.032  0.5536  0.6976 -0.0684
12806SOL     OW49346   9.200   9.078   4.908 -0.1566  0.4567  1.0159
12806SOL    HW149347   9.216   9.056   5.004  1.2333 -0.1107  0.6628
12806SOL    HW249348   9.111   9.041   4.879 -1.2639  1.9104  2.4659
12807SOL     OW49349   4.106   8.070   1.820 -0.0005 -0.2777  0.3118
12807SOL    HW149350   4.050   8.015   1.883 -0.3941  1.2518  1.3275
12807SOL    HW249351   4.203   8.049   1.835  0.0888  1.7969  3.2007
12808SOL     OW49352   1.434   4.990   2.244 -0.0749 -0.2465  0.0604
12808SOL    HW149353   1.457   5.086   2.255  0.0315  0.0729 -2.8088
12808SOL    HW249354   1.381   4.959   2.323 -0.6206  2.3036  0.7107
12809SOL     OW49355   4.973   8.821   0.062  0.0770  0.5631  0.0226
12809SOL    HW149356   5.029   8.776   0.131 -2.3360 -1.5499  0.6638
12809SOL    HW249357   4.915   8.890   0.105  0.4604  1.0962 -0.2999
12810SOL     OW49358   2.302   1.069   4.392 -0.4732  0.2601  0.1610
12810SOL    HW149359   2.254   1.156   4.384  0.0440  0.4928 -0.4110
12810SOL    HW249360   2.265   1.018   4.470  0.8265  2.0028  1.9653
12811SOL     OW49361   0.163   7.371   4.011 -0.9620  0.3060  0.1373
12811SOL    HW149362   0.200   7.321   4.089 -0.8562 -0.2531 -0.2673
12811SOL    HW249363   0.131   7.461   4.041 -0.9677  0.0749  0.8302
12812SOL     OW49364   4.318   1.462   3.259  0.1910  0.0720 -0.2973
12812SOL    HW149365   4.389   1.400   3.294 -0.4474  0.1188  1.0959
12812SOL    HW249366   4.247   1.408   3.213  0.1887 -0.1302 -0.0572
12813SOL     OW49367   9.360   3.323   0.688  0.5674 -0.3438 -0.3547
12813SOL    HW149368   9.276   3.298   0.734  1.0707 -0.1770  0.6633
12813SOL    HW249369   9.372   3.422   0.691  0.8149 -0.3691 -0.4688
12814SOL     OW49370   9.359   0.771   5.328  0.0355  0.1958  0.3676
12814SOL    HW149371   9.278   0.822   5.358 -0.0061 -0.0952  0.7575
12814SOL    HW249372   9.437   0.833   5.323  0.5553 -0.1966  3.2479
12815SOL     OW49373   9.222   2.212   0.134 -0.1982  0.0347 -0.3925
12815SOL    HW149374   9.169   2.198   0.050  1.4803  0.6135 -1.5685
12815SOL    HW249375   9.320   2.212   0.112  0.1948  3.5314  0.9939
12816SOL     OW49376   8.152   0.367   2.225  0.3615  0.3148 -0.2095
12816SOL    HW149377   8.172   0.393   2.319  0.2507  2.6262 -0.8043
12816SOL    HW249378   8.214   0.293   2.198  0.6581 -0.1064  1.5424
12817SOL     OW49379   2.511   1.490   4.629 -0.5039 -0.0788 -0.1076
12817SOL    HW149380   2.588   1.553   4.642  0.6984 -1.4509 -0.4019
12817SOL    HW249381   2.542   1.396   4.645 -2.3657 -0.5771  0.7440
12818SOL     OW49382   8.071   4.602   0.426  0.1795 -0.0135 -0.1166
12818SOL    HW149383   8.069   4.520   0.369 -0.1626  0.3932 -0.7069
12818SOL    HW249384   8.120   4.675   0.377 -2.4009  1.1601 -1.0638
12819SOL     OW49385   3.022   7.545   1.390  0.0262 -0.1627 -0.0485
12819SOL    HW149386   3.042   7.516   1.297  2.7325  1.0345  0.1253
12819SOL    HW249387   3.017   7.466   1.450  2.6042 -0.6399 -0.4294
12820SOL     OW49388   1.427   8.966   1.856 -0.0683  0.3693 -1.0110
12820SOL    HW149389   1.450   9.061   1.880  0.3108 -0.5494  2.4082
12820SOL    HW249390   1.488   8.935   1.783  1.7165  1.8251 -0.1894
12821SOL     OW49391   5.060   6.647   2.135  0.3512  0.0701 -0.3577
12821SOL    HW149392   5.074   6.693   2.223 -1.8419 -2.2299  1.2548
12821SOL    HW249393   4.975   6.678   2.094  0.1852 -0.6013 -0.5233
12822SOL     OW49394   3.572   4.189   2.112  0.4283 -0.1441  0.0746
12822SOL    HW149395   3.575   4.134   2.196 -1.9910 -0.2105  0.1772
12822SOL    HW249396   3.487   4.242   2.111  0.5698  0.0723 -2.2012
12823SOL     OW49397   2.492   1.808   3.567  0.5191 -0.1999 -0.2999
12823SOL    HW149398   2.519   1.761   3.652 -0.4161  0.8854  0.6254
12823SOL    HW249399   2.434   1.747   3.513 -1.9105  0.3341  1.5851
12824SOL     OW49400   0.137   7.882   0.956 -0.5077 -0.4809 -0.0173
12824SOL    HW149401   0.097   7.928   0.876 -1.1778 -2.5051 -0.8758
12824SOL    HW249402   0.161   7.951   1.025 -0.4195  1.2548 -1.7282
12825SOL     OW49403   8.738   0.580   4.191 -0.4570  0.0671  0.2674
12825SOL    HW149404   8.752   0.585   4.092  0.1749 -0.7803  0.3107
12825SOL    HW249405   8.641   0.594   4.212 -0.9127 -1.5797 -0.6185
12826SOL     OW49406   9.719   6.649   3.221  0.0151 -0.0245  0.5101
12826SOL    HW149407   9.679   6.676   3.309 -0.4384 -0.7075  0.5188
12826SOL    HW249408   9.665   6.575   3.181  1.3953 -1.0869  0.5954
12827SOL     OW49409   9.185   4.232   0.098 -0.0831  0.4250  0.0348
12827SOL    HW149410   9.192   4.133   0.085 -0.8771  0.2570  0.8714
12827SOL    HW249411   9.241   4.259   0.176  0.1515  0.6430 -0.2076
12828SOL     OW49412   2.286   1.033   1.511  0.0680 -0.0774 -0.3201
12828SOL    HW149413   2.317   0.986   1.428  0.1432  0.5569 -0.6560
12828SOL    HW249414   2.341   1.004   1.589 -1.4474 -2.3664 -0.0637
12829SOL     OW49415   3.255   4.681   0.595 -0.2793 -0.0107  0.3930
12829SOL    HW149416   3.206   4.712   0.676 -0.1113  0.5548  0.2837
12829SOL    HW249417   3.191   4.669   0.519 -0.2133  1.0179  0.1659
12830SOL     OW49418   2.305   5.478   4.376 -0.2211  0.3274 -0.0718
12830SOL    HW149419   2.240   5.403   4.386  0.1668  0.0486  0.3923
12830SOL    HW249420   2.262   5.554   4.328 -0.1129 -0.8405 -2.1138
12831SOL     OW49421   4.453   1.220   5.491  0.5582  0.2882 -0.1479
12831SOL    HW149422   4.366   1.252   5.451 -0.3400  1.0636  2.3448
12831SOL    HW249423   4.446   1.122   5.512  0.9593 -0.0739 -1.6651
12832SOL     OW49424   7.104   1.030   4.307  0.0027 -0.6184 -0.2682
12832SOL    HW149425   7.093   1.050   4.210  2.1005  0.7249 -0.2603
12832SOL    HW249426   7.063   0.941   4.327  0.0297 -1.1761 -2.4960
12833SOL     OW49427   5.806   0.527   4.859 -0.3186  0.0968  0.7574
12833SOL    HW149428   5.805   0.627   4.863 -1.2123  0.0724  1.2386
12833SOL    HW249429   5.873   0.491   4.924  0.0163  0.3827  0.5707
12834SOL     OW49430   4.304   1.152   0.572 -0.1380 -0.1196 -0.7700
12834SOL    HW149431   4.404   1.155   0.574 -0.1499  2.2075 -1.7826
12834SOL    HW249432   4.273   1.134   0.479 -0.6835 -0.0470 -0.6041
12835SOL     OW49433   9.549   9.133   5.117 -0.7594  0.1233  0.1065
12835SOL    HW149434   9.536   9.035   5.133 -0.5318  0.0388 -0.2172
12835SOL    HW249435   9.487   9.163   5.045 -0.3900  0.0856 -0.2264
12836SOL     OW49436   6.089   0.710   2.900 -0.0271  0.4399 -0.1789
12836SOL    HW149437   6.055   0.794   2.858  0.2583  0.3971 -0.5045
12836SOL    HW249438   6.068   0.710   2.998 -0.6987  0.5426 -0.3214
12837SOL     OW49439   8.381   4.574   5.173 -0.2590  0.1345 -0.0687
12837SOL    HW149440   8.354   4.545   5.081 -0.2800 -0.2592  0.0601
12837SOL    HW249441   8.344   4.509   5.240  0.0555  0.2227  0.1899
12838SOL     OW49442   3.913   3.693   2.485 -0.3246 -0.0063 -0.0446
12838SOL    HW149443   3.913   3.617   2.550 -1.4213 -0.2664 -0.3335
12838SOL    HW249444   3.879   3.776   2.531  1.3901  0.4572  0.4212
12839SOL     OW49445   1.804   9.094   0.356  0.4507 -0.1686  0.2122
12839SOL    HW149446   1.758   9.021   0.304 -0.4535  1.4186 -1.2740
12839SOL    HW249447   1.821   9.063   0.449 -1.3236 -1.7214  0.0408
12840SOL     OW49448   7.457   8.591   2.309 -0.4785  0.3252  0.8573
12840SOL    HW149449   7.390   8.619   2.378  0.5208  1.7874  1.2485
12840SOL    HW249450   7.538   8.553   2.354 -1.1153 -1.6894  0.3766
12841SOL     OW49451   4.173   0.282   0.846  0.6990 -0.3741 -0.0803
12841SOL    HW149452   4.213   0.367   0.812  1.2203 -0.2227  0.8971
12841SOL    HW249453   4.095   0.303   0.905 -0.3726 -0.6451 -1.3790
12842SOL     OW49454   4.512   3.554   4.607 -0.6261  0.8386  0.2380
12842SOL    HW149455   4.530   3.532   4.511 -0.0267 -0.0258  0.5386
12842SOL    HW249456   4.594   3.596   4.647 -0.4030 -0.0404  0.7231
12843SOL     OW49457   9.217   3.025   4.331 -0.2728  0.2434  0.6763
12843SOL    HW149458   9.190   2.993   4.239 -1.2044  2.3461  0.1855
12843SOL    HW249459   9.316   3.034   4.335 -0.1413 -0.8923  0.2256
12844SOL     OW49460   8.802   1.730   1.625 -0.8360  0.9198  0.2792
12844SOL    HW149461   8.863   1.779   1.687 -0.7856  0.3976  0.6519
12844SOL    HW249462   8.743   1.795   1.577 -0.9004  1.3209  0.9024
12845SOL     OW49463   2.324   8.471   3.137 -0.6125  0.0710 -0.4083
12845SOL    HW149464   2.314   8.557   3.088  0.4859  0.7471  0.5224
12845SOL    HW249465   2.235   8.443   3.175 -1.0380  0.5973 -1.0126
12846SOL     OW49466   1.803   5.416   0.940  0.2981 -0.2704 -0.8982
12846SOL    HW149467   1.894   5.390   0.973  1.1124  2.1755 -1.1238
12846SOL    HW249468   1.741   5.426   1.018  1.0332  1.0555 -0.4663
12847SOL     OW49469   4.674   2.872   0.740  0.6077  0.2298  0.0991
12847SOL    HW149470   4.714   2.781   0.726  0.1934 -0.2847  2.0108
12847SOL    HW249471   4.610   2.892   0.666  1.0497 -0.8477 -0.5892
12848SOL     OW49472   4.537   8.938   1.154 -0.3116 -0.3629  0.7123
12848SOL    HW149473   4.610   8.979   1.099 -0.1813 -2.7464 -0.9575
12848SOL    HW249474   4.575   8.863   1.208 -1.6252 -2.0669 -0.6767
12849SOL     OW49475   1.110   1.095   4.828 -0.1060  0.0998  0.5160
12849SOL    HW149476   1.020   1.071   4.866  0.1403 -0.8171  0.5314
12849SOL    HW249477   1.104   1.184   4.783 -1.3347 -0.4837 -0.5338
12850SOL     OW49478   0.482   2.376   3.175  0.3015  0.0952  0.3692
12850SOL    HW149479   0.510   2.281   3.156 -2.4257 -0.3891 -1.4768
12850SOL    HW249480   0.457   2.385   3.271  0.8057 -0.9880  0.6100
12851SOL     OW49481   8.499   8.405   1.586 -0.4263 -0.1111  0.8963
12851SOL    HW149482   8.547   8.342   1.648 -0.3060 -0.6857  0.2254
12851SOL    HW249483   8.509   8.372   1.492 -4.0772 -1.5135  0.9255
12852SOL     OW49484   2.741   5.351   0.255 -0.3594 -0.3320  0.2641
12852SOL    HW149485   2.693   5.426   0.209  0.0291  0.3000  0.8860
12852SOL    HW249486   2.817   5.321   0.197 -1.8554 -1.7666 -1.0235
12853SOL     OW49487   0.241   3.062   3.890  0.0103 -0.4265  0.3204
12853SOL    HW149488   0.307   2.990   3.867  1.6306  1.2945 -0.6580
12853SOL    HW249489   0.157   3.021   3.924  0.2532 -2.8503 -1.8021
12854SOL     OW49490   6.913   9.335   3.498  0.1865  0.0139 -0.1679
12854SOL    HW149491   6.989   9.354   3.435  0.9872  0.0800  0.8075
12854SOL    HW249492   6.934   9.252   3.551 -1.4718 -1.3358 -1.5394
12855SOL     OW49493   6.635   0.580   5.485  0.0825  0.0507  0.2291
12855SOL    HW149494   6.543   0.550   5.462  0.7322 -0.8645 -1.2545
12855SOL    HW249495   6.636   0.680   5.495 -0.6686  0.2770 -1.7060
12856SOL     OW49496   2.366   6.627   4.053  0.3366  0.1523 -0.4484
12856SOL    HW149497   2.303   6.696   4.017  1.3003  1.2654 -0.0066
12856SOL    HW249498   2.336   6.599   4.144  0.5213  0.7364 -0.2061
12857SOL     OW49499   7.311   4.758   4.958  0.2310 -0.5776 -0.1477
12857SOL    HW149500   7.285   4.795   5.048  1.0905 -0.9506  0.2648
12857SOL    HW249501   7.411   4.750   4.954  0.2857  0.8231 -1.6919
12858SOL     OW49502   8.201   0.302   2.640 -0.0559  0.0219 -0.4797
12858SOL    HW149503   8.146   0.218   2.643  0.7966 -0.5486 -0.5884
12858SOL    HW249504   8.145   0.379   2.670 -1.2627 -0.3540 -1.6975
12859SOL     OW49505   3.831   9.600   0.256 -0.0157 -0.2806 -0.0419
12859SOL    HW149506   3.894   9.545   0.202 -2.5227 -1.7668 -1.5260
12859SOL    HW249507   3.767   9.648   0.196 -1.9190 -0.7863  1.5205
12860SOL     OW49508   6.097   7.818   2.034 -0.7094  0.5511  0.3317
12860SOL    HW149509   6.134   7.803   2.126 -1.0699 -0.2177  0.3548
12860SOL    HW249510   6.128   7.744   1.974  0.8518  1.8930 -0.5676
12861SOL     OW49511   5.951   7.651   3.687  0.5746  0.5549  0.2027
12861SOL    HW149512   6.011   7.690   3.757  0.5098  1.9137 -0.4858
12861SOL    HW249513   5.912   7.724   3.631  2.6214 -0.5862 -2.8845
12862SOL     OW49514   1.006   7.144   1.552 -0.1750 -0.3466  0.7232
12862SOL    HW149515   1.051   7.161   1.464  1.0458 -1.2640  1.1450
12862SOL    HW249516   0.957   7.226   1.581 -0.6277 -0.0430 -0.8310
12863SOL     OW49517   8.475   8.441   2.343  0.4508 -0.6089 -0.7758
12863SOL    HW149518   8.469   8.471   2.248 -0.0645 -1.6244 -1.0835
12863SOL    HW249519   8.544   8.369   2.351  1.0758  0.0540 -0.2252
12864SOL     OW49520   5.149   2.605   0.759 -0.5449 -0.0487 -0.4403
12864SOL    HW149521   5.219   2.647   0.701 -2.4852  0.1988 -2.6652
12864SOL    HW249522   5.110   2.526   0.711 -1.7925 -0.1880  0.7819
12865SOL     OW49523   2.154   5.133   5.076  0.1170 -0.2425  0.4646
12865SOL    HW149524   2.150   5.200   5.151  0.7633 -1.3497  1.4982
12865SOL    HW249525   2.155   5.041   5.114 -3.3102 -0.9623 -1.0040
12866SOL     OW49526   3.020   1.165   0.692 -0.0738 -0.4447  0.2245
12866SOL    HW149527   3.003   1.089   0.755 -1.3814  0.6132  1.1668
12866SOL    HW249528   2.958   1.241   0.713  1.1139  0.8348 -0.8003
12867SOL     OW49529   0.988   3.253   0.526 -0.8841 -0.4712  0.5271
12867SOL    HW149530   0.965   3.317   0.452  1.0202 -2.7047 -2.0930
12867SOL    HW249531   0.916   3.184   0.533  0.3836 -2.0876 -1.4697
12868SOL     OW49532   7.698   9.578   2.318 -0.4859 -0.1901 -0.1778
12868SOL    HW149533   7.794   9.586   2.289 -0.1979  0.0898  0.8432
12868SOL    HW249534   7.694   9.530   2.405 -1.1592  1.0404  0.4805
12869SOL     OW49535   8.267   0.185   0.924  0.4392  0.1856  0.1956
12869SOL    HW149536   8.367   0.191   0.917  0.4618 -0.2577  0.1193
12869SOL    HW249537   8.242   0.110   0.985  0.1315 -1.6805 -2.1141
12870SOL     OW49538   7.533   3.669   1.261  0.4567  0.3530 -0.2666
12870SOL    HW149539   7.559   3.641   1.354  0.3705  0.2236 -0.2815
12870SOL    HW249540   7.438   3.700   1.261  0.5449  0.6277 -0.2541
12871SOL     OW49541   3.261   1.465   1.110 -0.2747  0.7963 -0.8218
12871SOL    HW149542   3.253   1.516   1.196  0.8001  0.0338 -0.2634
12871SOL    HW249543   3.194   1.391   1.108  1.6956 -1.1056  0.7251
12872SOL     OW49544   7.903   5.479   4.265  0.2425  0.0980 -0.2251
12872SOL    HW149545   7.847   5.554   4.298 -0.6534 -0.8975  0.5727
12872SOL    HW249546   7.957   5.442   4.341 -0.2057 -0.8141 -0.3411
12873SOL     OW49547   3.651   2.852   4.481 -0.0453 -0.6428  0.0890
12873SOL    HW149548   3.719   2.843   4.554  1.2229  0.0041 -1.0119
12873SOL    HW249549   3.579   2.915   4.511  0.3740 -0.5207  0.8592
12874SOL     OW49550   7.835   8.973   0.481  0.0825 -0.4349 -0.0809
12874SOL    HW149551   7.785   9.010   0.402  0.5156 -0.8048 -0.5321
12874SOL    HW249552   7.772   8.965   0.559 -0.3336 -0.0068 -0.3682
12875SOL     OW49553   8.057   3.886   4.769 -0.0242 -0.6997  0.0896
12875SOL    HW149554   8.114   3.960   4.803 -0.5531 -0.1044 -0.3242
12875SOL    HW249555   8.038   3.900   4.672 -0.6881 -1.0215  0.1740
12876SOL     OW49556   1.625   4.570   0.352  0.4313 -0.3136  0.6239
12876SOL    HW149557   1.537   4.608   0.323  0.0621 -2.1374 -0.8082
12876SOL    HW249558   1.612   4.475   0.381  2.2047 -1.2955 -1.5760
12877SOL     OW49559   2.801   2.216   1.568  0.1867 -0.2674  0.0708
12877SOL    HW149560   2.901   2.226   1.569  0.3040 -1.3953  1.4713
12877SOL    HW249561   2.766   2.218   1.662 -1.0803 -0.1417 -0.3939
12878SOL     OW49562   2.049   9.165   3.834  0.2070  0.4977 -0.2471
12878SOL    HW149563   2.067   9.244   3.892 -0.0191 -0.6163  1.3476
12878SOL    HW249564   2.084   9.082   3.877 -0.1967 -0.3918 -1.5736
12879SOL     OW49565   0.166   9.369   3.438 -0.0049 -0.2326 -1.0934
12879SOL    HW149566   0.144   9.302   3.509 -1.4175 -0.6698 -1.9384
12879SOL    HW249567   0.200   9.452   3.482  1.9547 -1.5279 -0.0397
12880SOL     OW49568   6.082   6.372   3.566 -0.4137 -0.2496  0.5738
12880SOL    HW149569   5.983   6.363   3.577 -0.3919 -0.5926  0.4959
12880SOL    HW249570   6.122   6.283   3.546  0.1821 -0.4653  2.6633
12881SOL     OW49571   9.530   6.482   1.632 -0.2127 -0.3609  0.2525
12881SOL    HW149572   9.618   6.522   1.607 -1.4203  0.9263 -2.1302
12881SOL    HW249573   9.520   6.483   1.731  1.4555  1.6992  0.4403
12882SOL     OW49574   1.415   4.329   4.756  0.3619  0.2804 -0.0300
12882SOL    HW149575   1.391   4.236   4.787  0.9886 -0.1618 -0.8595
12882SOL    HW249576   1.403   4.335   4.657  2.8863  0.2776 -0.3693
12883SOL     OW49577   9.557   7.860   4.534  0.2883  0.2740  0.7573
12883SOL    HW149578   9.560   7.951   4.494  1.9326  0.6831  1.7714
12883SOL    HW249579   9.522   7.795   4.467  1.9902  1.1309 -0.9771
12884SOL     OW49580   8.797   7.139   0.723 -0.4770 -0.0511 -0.0342
12884SOL    HW149581   8.745   7.054   0.715 -1.0689  0.3187 -0.1438
12884SOL    HW249582   8.895   7.119   0.718 -0.6094 -0.7399  0.0753
12885SOL     OW49583   6.165   8.793   2.757 -0.1431 -0.0710 -0.3634
12885SOL    HW149584   6.076   8.794   2.712 -0.2321  2.1014 -0.1798
12885SOL    HW249585   6.221   8.721   2.718 -1.0263  0.2797 -2.3292
12886SOL     OW49586   9.421   9.849   4.124 -0.1933  0.3447  0.0764
12886SOL    HW149587   9.414   9.877   4.028 -0.6740  0.2849  0.0922
12886SOL    HW249588   9.504   9.795   4.137 -0.4495 -0.1775 -0.4389
12887SOL     OW49589   4.998   8.120   1.347 -0.3064  0.1720  0.2163
12887SOL    HW149590   4.968   8.056   1.276 -0.3909  0.1387  0.2813
12887SOL    HW249591   5.020   8.070   1.430 -0.1486  0.2040  0.1935
12888SOL     OW49592   7.801   1.897   5.495  0.2995 -0.0464 -0.0957
12888SOL    HW149593   7.805   1.830   5.569  0.7231  1.0425  0.8899
12888SOL    HW249594   7.746   1.975   5.524  1.2952  0.8440 -0.5380
12889SOL     OW49595   4.194   7.591   1.472  0.7758 -0.8137  0.3747
12889SOL    HW149596   4.273   7.596   1.411  0.1868 -3.1536 -0.6270
12889SOL    HW249597   4.139   7.511   1.448 -2.5855  1.4456  0.2118
12890SOL     OW49598   8.305   4.472   4.591  0.2104  0.0017 -0.7114
12890SOL    HW149599   8.262   4.446   4.677 -1.6544  0.1152 -1.5897
12890SOL    HW249600   8.349   4.561   4.601 -0.2328  0.1404  0.0538
12891SOL     OW49601   4.060   2.891   4.304  0.1211  0.0035  0.6318
12891SOL    HW149602   3.983   2.827   4.305  0.5437 -0.5031  1.5890
12891SOL    HW249603   4.116   2.876   4.385  0.7877  0.9104  0.3409
12892SOL     OW49604   1.777   3.766   2.187 -0.1927 -0.2788  0.3732
12892SOL    HW149605   1.810   3.676   2.217 -0.1141 -0.6196 -0.6865
12892SOL    HW249606   1.732   3.756   2.098 -2.8256  0.2136  1.5768
12893SOL     OW49607   3.089   2.130   2.122 -0.4638  0.3342 -0.5030
12893SOL    HW149608   3.094   2.053   2.059  2.7332  0.4569 -0.5040
12893SOL    HW249609   3.116   2.214   2.074 -3.4550  1.4139 -0.3830
12894SOL     OW49610   3.204   2.749   1.889 -0.3021 -0.2565  0.0170
12894SOL    HW149611   3.131   2.798   1.842  0.6959  0.9451 -0.3145
12894SOL    HW249612   3.165   2.690   1.960 -1.5727  0.3813 -0.1378
12895SOL     OW49613   0.945   5.241   2.469 -0.0086  0.4694 -0.6745
12895SOL    HW149614   0.989   5.153   2.453 -2.0781 -0.9927  1.2389
12895SOL    HW249615   0.899   5.271   2.386 -0.5605 -1.0303 -0.9323
12896SOL     OW49616   8.126   9.561   0.370 -0.1466  0.3973 -0.3668
12896SOL    HW149617   8.029   9.580   0.356 -0.1690  0.5761  0.0059
12896SOL    HW249618   8.142   9.463   0.362 -0.8942 -0.0297  2.5310
12897SOL     OW49619   1.271   4.777   4.896  0.5325  0.1122  0.3197
12897SOL    HW149620   1.322   4.790   4.811  3.3127  0.0753  1.9128
12897SOL    HW249621   1.244   4.681   4.905  1.4410 -0.1722  0.1048
12898SOL     OW49622   4.281   4.754   0.550  0.0896  0.1451  0.3560
12898SOL    HW149623   4.277   4.724   0.646  0.3207  0.3497  0.4290
12898SOL    HW249624   4.310   4.677   0.493  0.8189  0.2708  0.5632
12899SOL     OW49625   2.268   2.751   4.245 -0.6014 -0.0563 -0.0303
12899SOL    HW149626   2.287   2.847   4.265  0.0515 -0.1893  0.0194
12899SOL    HW249627   2.267   2.699   4.330 -0.9991 -0.0836 -0.0536
12900SOL     OW49628   5.725   9.146   2.315 -0.0189  0.1664 -1.0579
12900SOL    HW149629   5.718   9.245   2.299 -1.2129  0.3280  0.4076
12900SOL    HW249630   5.746   9.129   2.411 -1.5817 -1.0582 -0.9269
12901SOL     OW49631   9.742   8.395   3.267  0.0458  0.1809  0.1677
12901SOL    HW149632   9.761   8.359   3.176  1.5458  0.6405  0.2879
12901SOL    HW249633   9.663   8.457   3.262  1.5988  2.0892 -1.2920
12902SOL     OW49634   9.294   7.858   1.023  0.4219 -0.5146  0.5877
12902SOL    HW149635   9.223   7.925   0.999 -0.1800 -1.1309  0.6458
12902SOL    HW249636   9.376   7.875   0.968 -0.3011 -0.7514 -0.5695
12903SOL     OW49637   9.536   3.902   3.548  0.1306  0.3334  0.0504
12903SOL    HW149638   9.593   3.828   3.585  1.0779  0.8282 -0.3893
12903SOL    HW249639   9.452   3.910   3.601  0.8367  0.1077  1.2055
12904SOL     OW49640   0.086   1.088   4.507 -0.2927 -0.9306 -0.0361
12904SOL    HW149641   0.044   1.059   4.421 -0.3905 -0.0913 -0.2804
12904SOL    HW249642   0.125   1.180   4.495  1.0635 -1.4551  0.3727
12905SOL     OW49643   0.317   0.729   1.343 -0.1919  0.9071  0.5668
12905SOL    HW149644   0.315   0.734   1.443 -1.3464  0.2579  0.5974
12905SOL    HW249645   0.283   0.639   1.314 -0.6062  1.3738 -0.4288
12906SOL     OW49646   3.226   6.488   4.556  0.2133 -0.0638 -0.0954
12906SOL    HW149647   3.197   6.467   4.650 -1.0124  0.4626 -0.3499
12906SOL    HW249648   3.305   6.549   4.559  0.5984 -0.5882  0.5979
12907SOL     OW49649   3.820   6.176   2.732  0.9715  0.7227 -0.3191
12907SOL    HW149650   3.903   6.164   2.787  1.1989 -0.7767 -0.9771
12907SOL    HW249651   3.759   6.241   2.778  2.1587  1.2282  0.5661
12908SOL     OW49652   4.335   4.179   0.009  0.1313  0.2697  0.7524
12908SOL    HW149653   4.413   4.218   0.058  2.3678 -0.5497 -2.0035
12908SOL    HW249654   4.305   4.243  -0.062 -0.2184 -0.3532  0.3304
12909SOL     OW49655   9.114   0.385   5.449  0.5066 -0.5282  0.5425
12909SOL    HW149656   9.202   0.415   5.487 -0.1591  0.7504  1.1312
12909SOL    HW249657   9.058   0.346   5.521  1.5683 -3.7880 -0.3277
12910SOL     OW49658   2.149   4.719   4.673 -0.4813 -0.1822 -0.5602
12910SOL    HW149659   2.113   4.811   4.689 -0.6679 -0.7238  2.5630
12910SOL    HW249660   2.079   4.651   4.697  1.1161 -1.1712  1.4621
12911SOL     OW49661   8.150   3.998   4.271 -0.3859 -0.2922 -0.4905
12911SOL    HW149662   8.066   4.035   4.231  0.1427  1.1970 -0.2255
12911SOL    HW249663   8.228   4.056   4.246  0.4577 -1.2435 -0.1120
12912SOL     OW49664   5.522   0.859   2.652  1.0032  0.1804  1.1483
12912SOL    HW149665   5.440   0.874   2.706 -0.7229 -0.3073 -1.2768
12912SOL    HW249666   5.550   0.764   2.659  0.6190  0.0543  0.9481
12913SOL     OW49667   8.920   0.635   2.044 -0.1654 -0.7099  0.4489
12913SOL    HW149668   8.865   0.657   1.964 -1.0311 -1.4428  0.8309
12913SOL    HW249669   8.874   0.564   2.098  0.9103 -0.9783  1.0382
12914SOL     OW49670   3.854   9.828   4.718 -0.3091  0.4815  0.1747
12914SOL    HW149671   3.827   9.827   4.622  1.4533  1.9750 -0.3528
12914SOL    HW249672   3.780   9.869   4.772 -1.5774 -0.9622 -0.4301
12915SOL     OW49673   6.306   0.463   0.116  0.0529 -0.2305 -0.2589
12915SOL    HW149674   6.312   0.553   0.159  0.0817 -1.0206  1.4603
12915SOL    HW249675   6.320   0.471   0.017 -0.2603  1.6739 -0.1514
12916SOL     OW49676   8.914   8.922   1.096  0.0652 -0.0336 -0.2035
12916SOL    HW149677   8.839   8.921   1.029 -1.8842 -1.5191  1.9476
12916SOL    HW249678   8.888   8.979   1.174  0.5765 -1.6968  1.2117
12917SOL     OW49679   1.207   5.789   1.061  0.0964 -0.0640  0.0018
12917SOL    HW149680   1.230   5.811   0.966  0.4196 -0.1204  0.0639
12917SOL    HW249681   1.226   5.869   1.118 -1.1970  0.3570 -0.1462
12918SOL     OW49682   2.093   7.384   4.836  0.2035  0.2215  0.3720
12918SOL    HW149683   2.112   7.377   4.739  0.7468  0.7327  0.4437
12918SOL    HW249684   1.999   7.353   4.854  0.0880  0.1762 -0.3163
12919SOL     OW49685   0.974   2.554   3.207  0.0387 -0.5928  0.4092
12919SOL    HW149686   1.005   2.511   3.292 -0.5953 -1.9223 -0.0142
12919SOL    HW249687   0.916   2.490   3.157  0.1064  0.3154 -0.8516
12920SOL     OW49688   9.551   6.750   2.381  0.0181  0.3868  0.5691
12920SOL    HW149689   9.560   6.807   2.300 -0.1672  0.8712  0.8902
12920SOL    HW249690   9.472   6.689   2.371 -0.1000  0.5589  0.4568
12921SOL     OW49691   4.774   7.115   2.779  0.2997 -0.9189 -0.3687
12921SOL    HW149692   4.829   7.171   2.717  0.4705 -1.1071 -0.3879
12921SOL    HW249693   4.677   7.125   2.756  0.2454  0.2358  0.3448
12922SOL     OW49694   4.167   5.857   2.322  0.0745 -0.2820 -0.7913
12922SOL    HW149695   4.185   5.784   2.256 -0.3260 -0.4738 -0.6900
12922SOL    HW249696   4.241   5.924   2.319  0.0109 -0.2409 -1.5009
12923SOL     OW49697   9.428   1.390   4.192 -0.2271  0.3301  0.2125
12923SOL    HW149698   9.336   1.357   4.217 -0.1778 -1.0632 -1.3624
12923SOL    HW249699   9.465   1.332   4.120  2.0508  0.6855  1.0624
12924SOL     OW49700   3.500   9.853   2.122  0.1499 -1.1450 -0.0727
12924SOL    HW149701   3.568   9.823   2.188  0.0889  0.0386  0.5467
12924SOL    HW249702   3.530   9.830   2.029  0.6232 -2.0731  0.3081
12925SOL     OW49703   5.502   9.009   2.219  0.2837 -0.3016  0.8237
12925SOL    HW149704   5.583   9.050   2.260 -0.1194  1.2727  0.0804
12925SOL    HW249705   5.474   9.061   2.139  0.5952 -2.9029 -1.0397
12926SOL     OW49706   3.111   9.018   0.182  0.0100 -0.0944 -0.4974
12926SOL    HW149707   3.128   9.028   0.084  2.0614  2.4226  0.0798
12926SOL    HW249708   3.147   8.930   0.213 -0.3366 -0.7512 -1.9061
12927SOL     OW49709   1.265   3.526   0.758  0.1730  0.1180  0.1614
12927SOL    HW149710   1.207   3.448   0.734 -0.6137  0.6713  0.2412
12927SOL    HW249711   1.330   3.544   0.684  1.5985 -1.7477  0.9113
12928SOL     OW49712   9.493   1.488   4.899  0.2591 -0.0927 -0.1610
12928SOL    HW149713   9.592   1.483   4.914  0.3495  0.4420 -0.5677
12928SOL    HW249714   9.453   1.557   4.960  0.0923 -0.5231  0.2173
12929SOL     OW49715   4.521   3.899   1.787 -0.1788 -0.0610 -0.7506
12929SOL    HW149716   4.530   3.950   1.701  3.2355 -1.2226 -1.1372
12929SOL    HW249717   4.461   3.821   1.774 -1.1927  0.8319 -1.5419
12930SOL     OW49718   3.679   8.898   5.284  0.7191 -0.0613  0.2983
12930SOL    HW149719   3.679   8.898   5.184 -0.2581  0.3968  0.2975
12930SOL    HW249720   3.653   8.807   5.317  0.6506 -0.1013  0.1351
12931SOL     OW49721   9.399   4.111   1.441  0.1191 -0.2254  0.3842
12931SOL    HW149722   9.474   4.164   1.401  0.7213 -0.9362  0.5523
12931SOL    HW249723   9.372   4.151   1.529  0.8661 -0.4415  0.7190
12932SOL     OW49724   9.091   7.797   0.087  0.4408  0.9622  0.2139
12932SOL    HW149725   9.145   7.783   0.004  1.2588  2.0799  0.5494
12932SOL    HW249726   9.151   7.797   0.167 -0.3500 -0.1300  0.8249
12933SOL     OW49727   9.362   4.510   2.207  0.0772  0.4817  0.2093
12933SOL    HW149728   9.297   4.496   2.133  0.5352 -2.9276  0.3725
12933SOL    HW249729   9.313   4.543   2.288 -1.2949 -0.8252 -0.0565
12934SOL     OW49730   0.128   8.764   1.418 -0.6673 -0.6131  0.9002
12934SOL    HW149731   0.053   8.816   1.459 -1.5152  1.3127 -2.7967
12934SOL    HW249732   0.090   8.696   1.355  0.6265 -0.8753  0.3942
12935SOL     OW49733   8.465   5.722   3.236  0.1065 -0.1564 -0.6996
12935SOL    HW149734   8.511   5.635   3.216  0.2355 -0.5204  1.1236
12935SOL    HW249735   8.368   5.713   3.216  0.3170 -0.3399 -1.6616
12936SOL     OW49736   9.246   8.902   0.776  0.0783 -0.1786  0.0627
12936SOL    HW149737   9.236   8.991   0.731  0.3759  0.2040  0.7368
12936SOL    HW249738   9.333   8.900   0.825 -0.3467 -0.5018  0.8021
12937SOL     OW49739   0.257   1.931   1.227  0.1219 -0.4141 -0.0956
12937SOL    HW149740   0.178   1.870   1.224  0.6657 -1.1296 -0.3580
12937SOL    HW249741   0.340   1.876   1.238  0.7486  0.1837 -1.7396
12938SOL     OW49742   7.167   0.576   3.273 -0.4437 -0.6848 -0.3539
12938SOL    HW149743   7.185   0.526   3.358  0.1358  1.9955  1.1453
12938SOL    HW249744   7.254   0.591   3.225 -0.4854 -0.2680 -0.3007
12939SOL     OW49745   2.743   8.894   1.695  0.3371  0.1098 -0.2054
12939SOL    HW149746   2.811   8.872   1.764 -0.8117 -3.1921 -0.0536
12939SOL    HW249747   2.788   8.908   1.607  1.3334 -0.4180  0.2224
12940SOL     OW49748   0.897   3.573   3.644 -0.1657 -0.4347 -0.2008
12940SOL    HW149749   0.798   3.562   3.652 -0.0605 -1.3165 -0.0304
12940SOL    HW249750   0.937   3.579   3.736 -0.2778  2.0188 -0.2980
12941SOL     OW49751   8.614   4.706   0.660  0.0600 -0.2998 -0.5854
12941SOL    HW149752   8.543   4.653   0.614  0.4933 -1.9379  0.5821
12941SOL    HW249753   8.673   4.749   0.592 -0.0444 -1.6682 -1.5510
12942SOL     OW49754   4.854   9.596   5.007  0.0219  0.1695 -0.4951
12942SOL    HW149755   4.933   9.561   4.957 -0.7244  0.1538 -1.7000
12942SOL    HW249756   4.838   9.691   4.981 -0.1201  0.2886  0.0327
12943SOL     OW49757   7.040   7.625   2.891 -0.8967  0.4099 -0.4263
12943SOL    HW149758   7.026   7.722   2.911 -0.3993  0.7038 -1.4553
12943SOL    HW249759   7.074   7.579   2.973 -0.5347  1.2378 -0.1031
12944SOL     OW49760   3.070   4.346   2.260  0.1709  0.8430 -0.2884
12944SOL    HW149761   3.073   4.246   2.257 -1.8161  0.7715 -0.8295
12944SOL    HW249762   3.080   4.377   2.354 -1.7887  0.0039  0.2122
12945SOL     OW49763   3.611   4.244   3.345  0.3130 -0.0274  0.0726
12945SOL    HW149764   3.657   4.156   3.328 -0.8605 -1.0519  2.0695
12945SOL    HW249765   3.649   4.286   3.427 -0.0688  0.7054 -0.1205
12946SOL     OW49766   0.539   4.245   1.082  0.0110  0.2346 -0.0477
12946SOL    HW149767   0.588   4.170   1.128 -0.9895 -0.1757  0.3482
12946SOL    HW249768   0.494   4.302   1.150 -2.2301 -0.8943 -0.5353
12947SOL     OW49769   7.311   0.549   0.098 -0.4178 -0.2049 -0.0347
12947SOL    HW149770   7.313   0.482   0.024  0.0426 -2.1120  1.6601
12947SOL    HW249771   7.216   0.569   0.122 -0.5605 -0.1197 -0.6552
12948SOL     OW49772   3.823   1.701   4.098  0.0250 -0.2844 -0.5801
12948SOL    HW149773   3.741   1.667   4.054 -0.7077  0.1291  0.4427
12948SOL    HW249774   3.830   1.800   4.087 -0.3596 -0.1230  0.5219
12949SOL     OW49775   2.406   8.113   0.734  0.6136  0.5925  0.6537
12949SOL    HW149776   2.424   8.015   0.746 -0.6882  0.2983  0.3459
12949SOL    HW249777   2.479   8.154   0.680 -0.4377 -0.9249 -2.0619
12950SOL     OW49778   5.241   7.696   2.366 -0.5644 -0.0496  0.6346
12950SOL    HW149779   5.325   7.676   2.315 -2.1212  0.1639 -2.0450
12950SOL    HW249780   5.162   7.685   2.307 -2.2820  2.3877  2.3864
12951SOL     OW49781   0.282   5.317   1.056 -0.2201  0.2975 -0.1859
12951SOL    HW149782   0.268   5.226   1.018  0.2604 -0.9635  2.5171
12951SOL    HW249783   0.313   5.379   0.984 -0.7297 -1.5987 -2.1001
12952SOL     OW49784   2.810   1.278   4.100 -0.3816 -0.2313  0.3764
12952SOL    HW149785   2.826   1.276   4.001 -0.3051  0.5995  0.3638
12952SOL    HW249786   2.802   1.373   4.130 -1.2195 -0.5129  1.0453
12953SOL     OW49787   4.797   2.055   0.186 -0.3902  0.3676  0.1481
12953SOL    HW149788   4.791   1.969   0.235  1.9721 -0.9084 -1.6658
12953SOL    HW249789   4.710   2.075   0.141 -0.8281 -1.2819  0.2527
12954SOL     OW49790   0.846   1.258   1.138  0.3008 -0.1655 -0.0385
12954SOL    HW149791   0.748   1.268   1.149  0.1419 -0.4778 -1.1163
12954SOL    HW249792   0.874   1.293   1.048  0.9929 -1.1827 -0.2330
12955SOL     OW49793   2.322   3.749   3.003  0.2312 -0.3422  0.0343
12955SOL    HW149794   2.267   3.766   3.084 -0.0728 -0.7037 -0.0940
12955SOL    HW249795   2.273   3.779   2.922 -0.2657 -1.6904 -0.1835
12956SOL     OW49796   1.666   1.461   3.032  0.1796 -1.0043  0.1310
12956SOL    HW149797   1.569   1.438   3.046  0.5593 -1.8852  1.4141
12956SOL    HW249798   1.718   1.378   3.015  0.7747 -0.5713 -0.1921
12957SOL     OW49799   2.819   7.532   3.182 -0.1167  0.3323 -0.1014
12957SOL    HW149800   2.834   7.482   3.097  0.1743  0.5933 -0.2025
12957SOL    HW249801   2.723   7.523   3.209 -0.0493 -0.3505 -0.0722
12958SOL     OW49802   3.307   2.292   2.294  0.9230 -0.3140  0.2919
12958SOL    HW149803   3.321   2.301   2.195  1.8230  1.1430  0.5210
12958SOL    HW249804   3.211   2.277   2.313  0.3070  2.1807 -0.6638
12959SOL     OW49805   3.397   6.625   3.023 -0.0400  0.1329  0.8419
12959SOL    HW149806   3.320   6.568   3.049 -0.2273 -0.6920 -1.3983
12959SOL    HW249807   3.420   6.609   2.927 -0.4671  4.2396 -0.0536
12960SOL     OW49808   0.939   2.866   0.285  0.9918  0.0759  0.0772
12960SOL    HW149809   0.879   2.930   0.333 -0.0364 -0.4637 -0.4832
12960SOL    HW249810   0.895   2.833   0.202  2.0334 -0.3864 -0.3112
12961SOL     OW49811   0.501   3.976   5.005  0.3391 -0.0272  0.0752
12961SOL    HW149812   0.594   3.942   5.017  0.2374  0.0176  1.0711
12961SOL    HW249813   0.458   3.930   4.927  1.0701 -0.3152 -0.1605
12962SOL     OW49814   2.981   8.454   2.160  0.7832  0.0895 -0.0889
12962SOL    HW149815   2.915   8.412   2.098 -0.0586  2.4643 -0.8623
12962SOL    HW249816   2.934   8.520   2.219  2.2403  0.7933  0.3103
12963SOL     OW49817   8.789   4.022   1.576 -0.0953  0.4347 -0.1702
12963SOL    HW149818   8.802   4.106   1.524 -0.8433  0.1498 -0.8409
12963SOL    HW249819   8.696   3.987   1.560  0.9937 -1.8467 -1.9065
12964SOL     OW49820   7.914   7.382   1.426 -0.0912 -0.0983  0.3831
12964SOL    HW149821   7.815   7.376   1.416  0.0029 -0.2661 -0.4957
12964SOL    HW249822   7.940   7.477   1.444 -0.4465 -0.1267  1.0604
12965SOL     OW49823   8.797   0.044   2.503  0.5258 -0.0523  0.2405
12965SOL    HW149824   8.751  -0.031   2.551 -0.2754  0.7970  0.8426
12965SOL    HW249825   8.870   0.008   2.446  0.9696 -1.1665  1.4938
12966SOL     OW49826   4.522   3.125   3.109 -0.2400 -0.3924  0.4394
12966SOL    HW149827   4.510   3.213   3.063 -1.0744 -0.1583  1.0901
12966SOL    HW249828   4.618   3.114   3.136  0.5701 -1.1780 -2.5990
12967SOL     OW49829   3.665   9.899   5.143 -0.1371 -0.3798  0.7713
12967SOL    HW149830   3.677   9.998   5.151  1.1165 -0.2597 -1.7813
12967SOL    HW249831   3.691   9.854   5.228 -0.0229  1.4384  1.7077
12968SOL     OW49832   1.784   3.618   5.441 -0.1517  0.4093 -0.1209
12968SOL    HW149833   1.721   3.542   5.457 -1.4398  1.6431  0.8663
12968SOL    HW249834   1.746   3.679   5.371  0.7131  0.3230 -0.6752
12969SOL     OW49835   1.652   3.791   0.223 -0.1767 -0.3014  0.4401
12969SOL    HW149836   1.639   3.844   0.307  1.0425  0.9798 -0.1671
12969SOL    HW249837   1.675   3.853   0.148  0.0178 -1.5687 -0.5565
12970SOL     OW49838   7.553   1.776   2.984 -0.2075  0.2554  0.5202
12970SOL    HW149839   7.475   1.786   2.922 -0.4286  0.9169  0.8946
12970SOL    HW249840   7.558   1.856   3.044  0.2306 -0.2015  1.0995
12971SOL     OW49841   2.127   0.514   0.426  0.6498 -0.0737 -0.6333
12971SOL    HW149842   2.212   0.543   0.470 -0.2372  1.0095  0.4195
12971SOL    HW249843   2.051   0.565   0.466 -0.3158  0.0950 -2.6645
12972SOL     OW49844   2.469   2.754   2.806  0.4329  0.2378  0.1379
12972SOL    HW149845   2.455   2.756   2.905 -1.8689 -0.7106 -0.1435
12972SOL    HW249846   2.567   2.747   2.787  0.8325 -0.7993  2.3814
12973SOL     OW49847   7.327   9.522   4.447  0.8839  0.2862 -0.4627
12973SOL    HW149848   7.405   9.581   4.424  1.3257 -0.0873  0.0717
12973SOL    HW249849   7.266   9.516   4.368  1.9692 -0.3253 -1.2708
12974SOL     OW49850   2.868   7.657   0.438 -0.2450  0.3113 -0.4513
12974SOL    HW149851   2.814   7.652   0.522 -1.7577  1.8235 -1.2838
12974SOL    HW249852   2.963   7.678   0.460 -0.8052  1.6046  0.8567
12975SOL     OW49853   8.654   0.648   5.471  0.3484 -0.0491 -0.4571
12975SOL    HW149854   8.620   0.611   5.385 -0.4350 -0.9141  0.2171
12975SOL    HW249855   8.619   0.741   5.484  0.1864 -0.0519 -0.8996
12976SOL     OW49856   3.335   6.753   4.771 -0.3474 -0.0587  0.6408
12976SOL    HW149857   3.265   6.776   4.704 -1.9600 -0.7237  2.0788
12976SOL    HW249858   3.422   6.739   4.724 -1.0048  1.4662 -1.0762
12977SOL     OW49859   7.999   1.709   3.374 -0.4015 -0.4481 -0.0724
12977SOL    HW149860   7.975   1.612   3.370  1.3671 -0.8996  0.0401
12977SOL    HW249861   8.006   1.746   3.282 -1.8278 -0.2222 -0.1044
12978SOL     OW49862   1.677   6.298   4.995 -0.2539 -0.1522 -0.1698
12978SOL    HW149863   1.640   6.292   5.087 -1.7381  0.1400 -0.7263
12978SOL    HW249864   1.774   6.322   4.999  0.2042 -2.2263  1.3501
12979SOL     OW49865   1.715   1.572   0.534 -0.0906 -0.0787 -0.0512
12979SOL    HW149866   1.789   1.629   0.570  0.8011 -1.5296  0.4515
12979SOL    HW249867   1.754   1.496   0.482 -1.2521 -0.3598 -0.5174
12980SOL     OW49868   1.990   0.187   1.178 -0.4563  0.0424 -0.3577
12980SOL    HW149869   2.012   0.149   1.088 -1.2103  0.2315 -0.6325
12980SOL    HW249870   1.891   0.199   1.185 -0.4206 -0.1784  0.5883
12981SOL     OW49871   3.991   0.554   4.541  0.7705 -0.6080  0.5417
12981SOL    HW149872   4.018   0.499   4.620  1.4517  0.9214  1.4093
12981SOL    HW249873   3.916   0.615   4.568  1.0548 -0.0317  0.0253
12982SOL     OW49874   3.237   6.428   1.208 -0.4042  0.3657  0.1701
12982SOL    HW149875   3.262   6.500   1.143 -2.0058 -0.7093 -1.7035
12982SOL    HW249876   3.293   6.436   1.290 -0.2304  3.4411 -0.2077
12983SOL     OW49877   8.060   3.869   0.675 -0.5188  0.0910 -0.1253
12983SOL    HW149878   8.137   3.829   0.625 -0.8520 -0.5568 -0.1236
12983SOL    HW249879   8.094   3.937   0.740 -0.0614  0.7367 -1.0333
12984SOL     OW49880   3.174   9.065   4.950 -0.4345  0.1072 -0.2087
12984SOL    HW149881   3.225   9.049   4.865 -1.1557  0.4663 -0.7066
12984SOL    HW249882   3.078   9.082   4.929 -0.8647 -1.0436  0.7622
12985SOL     OW49883   0.670   8.798   1.094 -0.0202  0.2161  0.0595
12985SOL    HW149884   0.709   8.721   1.043  2.1112  1.6458 -0.5309
12985SOL    HW249885   0.684   8.882   1.043 -0.1745  1.3373  1.8375
12986SOL     OW49886   4.000   6.818   2.930  0.0483 -0.3705 -0.6419
12986SOL    HW149887   4.035   6.890   2.990 -0.9279 -2.2546  2.3328
12986SOL    HW249888   4.061   6.738   2.936 -0.7146 -0.9999 -1.2561
12987SOL     OW49889   0.371   3.046   4.178  0.4205  0.0439 -0.2093
12987SOL    HW149890   0.385   3.125   4.119  0.3255  0.9145  0.9268
12987SOL    HW249891   0.454   2.991   4.181  0.4538  0.0390 -1.0728
12988SOL     OW49892   2.507   2.293   0.569  0.1546  0.1035  0.2562
12988SOL    HW149893   2.447   2.354   0.621  1.5214  0.0767  1.8717
12988SOL    HW249894   2.549   2.226   0.630  3.6722  1.5824 -0.4121
12989SOL     OW49895   1.379   6.947   2.785  0.8963  0.0609 -0.0472
12989SOL    HW149896   1.355   7.040   2.757  1.1196 -0.4083 -1.8775
12989SOL    HW249897   1.355   6.883   2.712 -0.9586 -1.5805  1.9298
12990SOL     OW49898   8.876   0.111   4.489 -0.1092  0.1923  0.2079
12990SOL    HW149899   8.799   0.097   4.551 -2.2355 -1.4062 -2.6463
12990SOL    HW249900   8.955   0.058   4.520 -0.6293  0.6136  2.3073
12991SOL     OW49901   8.108   6.004   5.031  0.1561  0.0064  0.0060
12991SOL    HW149902   8.156   5.920   5.007  0.0537 -0.1746  0.4331
12991SOL    HW249903   8.034   6.020   4.965 -0.2050 -0.5573  0.2710
12992SOL     OW49904   3.881   4.898   1.819  0.3003  0.0547  0.1985
12992SOL    HW149905   3.944   4.907   1.741  0.8480 -2.6174  0.2938
12992SOL    HW249906   3.792   4.866   1.787  0.0295  0.5274  0.4758
12993SOL     OW49907   9.098   9.090   0.501 -0.0964  0.3372  0.1841
12993SOL    HW149908   9.137   9.161   0.559  0.5733 -1.2988  1.7688
12993SOL    HW249909   9.103   9.119   0.405  4.0940  0.5989  0.4098
12994SOL     OW49910   3.123   8.168   3.328  0.2200 -0.3472 -0.0274
12994SOL    HW149911   3.200   8.106   3.341  0.3032 -0.4265 -0.8351
12994SOL    HW249912   3.042   8.132   3.374  0.2179 -1.1594 -0.6492
12995SOL     OW49913   0.404   5.663   1.462  0.3150  0.0979  0.1976
12995SOL    HW149914   0.499   5.654   1.491  0.4508  0.1320 -0.2396
12995SOL    HW249915   0.400   5.676   1.363 -0.1685 -0.3360  0.1599
12996SOL     OW49916   0.110   5.905   1.751  0.3776  0.6452  0.5259
12996SOL    HW149917   0.099   5.996   1.791 -1.6852  0.4675  0.3955
12996SOL    HW249918   0.024   5.874   1.712  1.1186 -1.2690  0.3158
12997SOL     OW49919   8.404   5.918   4.244  0.4524 -0.0187  0.1574
12997SOL    HW149920   8.374   5.958   4.158 -1.3454 -0.0622  0.7438
12997SOL    HW249921   8.439   5.991   4.304  0.4306  0.1936 -0.0857
12998SOL     OW49922   6.367   9.558   4.664 -0.0438  0.4208  0.2374
12998SOL    HW149923   6.410   9.494   4.727 -0.8432  0.7946  1.1817
12998SOL    HW249924   6.437   9.617   4.624  0.8140 -1.5869 -1.3107
12999SOL     OW49925   9.770   2.204   2.103  0.2479  0.2841  0.2081
12999SOL    HW149926   9.758   2.125   2.043  0.6021 -0.8374  1.5798
12999SOL    HW249927   9.740   2.286   2.056 -0.0248 -0.6506 -1.2897
13000SOL     OW49928   3.515   6.226   2.627  0.6610 -0.0636  0.0972
13000SOL    HW149929   3.424   6.199   2.595  0.3027  1.1763  0.0598
13000SOL    HW249930   3.577   6.235   2.549  0.2708  1.1302 -0.0835
13001SOL     OW49931   1.908   1.002   4.720  0.2320  0.5489 -0.2553
13001SOL    HW149932   1.879   0.949   4.641  1.5085  0.7009 -0.8309
13001SOL    HW249933   1.914   1.099   4.695  0.8418  0.5712 -0.0337
13002SOL     OW49934   2.752   2.316   1.331 -0.2824 -0.3012  0.1730
13002SOL    HW149935   2.747   2.270   1.420  0.7463 -0.6733  0.0416
13002SOL    HW249936   2.661   2.319   1.291 -0.7343 -0.2770  1.1671
13003SOL     OW49937   2.800   7.948   0.564 -0.1796 -0.5323 -0.1125
13003SOL    HW149938   2.873   7.966   0.498  0.2006 -0.7101  0.2545
13003SOL    HW249939   2.758   7.860   0.545 -0.7157 -0.1599 -0.6999
13004SOL     OW49940   8.300   2.945   2.746 -0.5389  0.0185 -0.4146
13004SOL    HW149941   8.290   3.018   2.678  1.4970  2.5562  1.9429
13004SOL    HW249942   8.389   2.901   2.735 -0.0469  0.6961  0.8690
13005SOL     OW49943   1.388   1.803   5.084 -0.5954 -0.3631 -0.2956
13005SOL    HW149944   1.447   1.880   5.061 -0.4044  0.9255  4.1953
13005SOL    HW249945   1.442   1.719   5.085  1.0556  0.6818  2.9056
13006SOL     OW49946   3.321   7.483   5.113  0.3379  0.3020  1.6684
13006SOL    HW149947   3.295   7.523   5.025  1.6524  0.6875  1.4446
13006SOL    HW249948   3.275   7.395   5.124 -0.6363  0.7278  1.0535
13007SOL     OW49949   9.835   6.096   5.173 -0.0244  0.1877 -0.0145
13007SOL    HW149950   9.740   6.125   5.161 -0.6278 -1.4176  0.6600
13007SOL    HW249951   9.836   6.005   5.215  1.8555  1.0613  1.9076
13008SOL     OW49952   6.480   1.484   2.489  0.1445  0.1654  0.1819
13008SOL    HW149953   6.557   1.437   2.531  0.4465  0.3685 -0.1425
13008SOL    HW249954   6.420   1.418   2.444  1.7136  0.2774 -2.1505
13009SOL     OW49955   6.321   0.755   1.110  0.5174  0.3914  0.0023
13009SOL    HW149956   6.241   0.814   1.121  0.2385  0.4521 -2.1019
13009SOL    HW249957   6.379   0.790   1.036  1.2812 -0.9356 -0.0494
13010SOL     OW49958   0.952   9.815   0.894  0.8561 -0.5423  0.0359
13010SOL    HW149959   1.012   9.830   0.815 -0.2812 -1.8543 -1.1005
13010SOL    HW249960   0.946   9.717   0.913 -0.2676 -0.3541  0.6641
13011SOL     OW49961   9.605   2.299   3.480 -0.2992  0.4218  0.0152
13011SOL    HW149962   9.610   2.358   3.399  0.4462 -1.0063 -0.9967
13011SOL    HW249963   9.654   2.214   3.463 -0.0758  0.1148  2.0010
13012SOL     OW49964   3.250   2.951   0.108 -0.0794 -0.7657 -0.0708
13012SOL    HW149965   3.249   2.909   0.198  1.5344  1.2584  0.9269
13012SOL    HW249966   3.316   2.904   0.050  0.8386 -0.4013  0.6619
13013SOL     OW49967   2.038   8.234   1.442 -0.3715  0.4837 -0.0318
13013SOL    HW149968   2.133   8.264   1.448 -0.4860  1.0288 -0.8191
13013SOL    HW249969   2.008   8.236   1.347 -1.5300  1.4582  0.3265
13014SOL     OW49970   1.345   6.310   1.562  0.1151  0.3701 -0.2133
13014SOL    HW149971   1.296   6.373   1.501  1.2121  1.1030 -0.3490
13014SOL    HW249972   1.306   6.315   1.654 -1.4803 -0.6572 -0.8209
13015SOL     OW49973   9.795   1.315   3.294  0.4570  0.3689  0.7333
13015SOL    HW149974   9.711   1.279   3.335  1.4696  0.5876  3.1313
13015SOL    HW249975   9.853   1.238   3.266  0.2293  0.1959  0.7332
13016SOL     OW49976   0.371   4.967   4.964 -0.0166  0.2545  0.3483
13016SOL    HW149977   0.471   4.962   4.963 -0.1123 -1.9353 -0.4430
13016SOL    HW249978   0.335   4.904   5.032 -0.8474  1.7568  1.3170
13017SOL     OW49979   9.155   2.219   5.496 -0.0045  0.3461  0.2990
13017SOL    HW149980   9.138   2.310   5.459  1.2363  1.0615  1.4449
13017SOL    HW249981   9.196   2.161   5.425  1.4622  1.4204  0.2555
13018SOL     OW49982   3.647   8.600   2.972 -0.1719  0.4160  0.5177
13018SOL    HW149983   3.610   8.685   3.011 -0.8112  0.6199 -0.5123
13018SOL    HW249984   3.746   8.607   2.966 -0.3645  1.8767 -1.3359
13019SOL     OW49985   5.358   9.286   1.613 -0.0054  0.3796  0.3190
13019SOL    HW149986   5.407   9.293   1.527 -0.8168  0.2249 -0.1589
13019SOL    HW249987   5.382   9.363   1.672  3.1714 -1.2691  1.3257
13020SOL     OW49988   7.558   3.381   0.457  0.3806 -0.3351  0.5014
13020SOL    HW149989   7.555   3.407   0.553  1.4164 -0.5731  0.6072
13020SOL    HW249990   7.536   3.284   0.447  0.2215 -0.2975  0.4996
13021SOL     OW49991   3.305   6.945   5.015 -0.2285  0.1863 -0.3565
13021SOL    HW149992   3.401   6.968   5.033 -0.4447  0.1544  0.8582
13021SOL    HW249993   3.300   6.884   4.936  0.6980  0.7332 -0.8419
13022SOL     OW49994   2.258   6.040   5.007  0.4331 -0.2929 -0.2056
13022SOL    HW149995   2.358   6.043   5.009  0.4602 -0.0467 -1.5472
13022SOL    HW249996   2.226   5.964   5.063  1.3149  0.4553  1.3627
13023SOL     OW49997   4.460   9.379   3.358 -0.1771 -0.1839 -0.2744
13023SOL    HW149998   4.416   9.455   3.406 -1.2869 -1.0215  0.0555
13023SOL    HW249999   4.539   9.348   3.412 -0.8740 -0.5207  0.5721
13024SOL     OW50000   8.028   5.641   4.748 -0.3496  0.7184 -0.8118
13024SOL    HW150001   8.012   5.667   4.843 -2.4421 -1.2906 -0.5809
13024SOL    HW250002   8.115   5.591   4.742 -0.9082 -0.4117  0.3043
13025SOL     OW50003   6.359   0.328   2.023  0.7905 -0.4742  0.8103
13025SOL    HW150004   6.274   0.364   1.986  1.1779  1.1967  1.5155
13025SOL    HW250005   6.436   0.380   1.988  1.2835  0.0361  2.6237
13026SOL     OW50006   8.594   5.334   2.779 -0.1343  0.0478 -0.6287
13026SOL    HW150007   8.684   5.343   2.735  1.2647 -0.7095  1.9713
13026SOL    HW250008   8.558   5.426   2.799 -0.3527  0.3730 -2.4465
13027SOL     OW50009   8.711   8.179   5.472  0.0833 -0.9865  0.2716
13027SOL    HW150010   8.795   8.126   5.482  0.6353 -0.3858 -1.1398
13027SOL    HW250011   8.674   8.166   5.380  0.0054  0.7492  0.0468
13028SOL     OW50012   9.146   1.962   1.867 -0.4984 -0.3649  0.3724
13028SOL    HW150013   9.145   1.995   1.961  0.0644 -2.5569  1.1833
13028SOL    HW250014   9.052   1.952   1.833 -0.7363 -0.9767  1.2141
13029SOL     OW50015   0.879   1.720   3.196  0.2403 -0.1405 -0.3852
13029SOL    HW150016   0.848   1.625   3.192  1.8282 -0.6527 -1.2614
13029SOL    HW250017   0.977   1.722   3.218  0.1092  1.3190  0.1303
13030SOL     OW50018   2.484   7.245   2.831 -0.4549  0.4589 -0.1400
13030SOL    HW150019   2.504   7.148   2.817 -1.6315  0.4688 -1.9283
13030SOL    HW250020   2.564   7.289   2.873 -0.0322 -1.3282  0.9877
13031SOL     OW50021   9.076   7.761   1.831 -0.5347  0.2286 -0.0710
13031SOL    HW150022   9.042   7.673   1.865  0.1025  0.2879  0.7361
13031SOL    HW250023   9.134   7.745   1.751  1.2081 -0.2800  1.2682
13032SOL     OW50024   4.300   4.119   5.365  0.0971 -0.3786  0.3987
13032SOL    HW150025   4.239   4.104   5.288 -0.5772  0.2740  0.8027
13032SOL    HW250026   4.329   4.031   5.402 -0.7197 -0.6916  0.3030
13033SOL     OW50027   0.889   8.234   3.543 -0.4150 -0.5453  0.5825
13033SOL    HW150028   0.968   8.247   3.603  0.1925 -1.3602 -0.0397
13033SOL    HW250029   0.848   8.145   3.559  1.0626 -1.6816 -1.7137
13034SOL     OW50030   9.625   8.652   3.569 -0.1037 -0.3711 -0.0488
13034SOL    HW150031   9.656   8.740   3.604  0.3011 -0.8973  0.9349
13034SOL    HW250032   9.540   8.626   3.616 -1.0597  0.2040 -1.4263
13035SOL     OW50033   0.228   0.132   1.913  0.0524 -0.2877 -0.5226
13035SOL    HW150034   0.315   0.087   1.933 -0.3820 -0.7658  0.3174
13035SOL    HW250035   0.217   0.140   1.814 -0.0043 -2.3367 -0.7058
13036SOL     OW50036   2.454   9.619   0.337 -0.0987  0.2668  0.1768
13036SOL    HW150037   2.471   9.699   0.279  0.0539  0.0388 -0.0938
13036SOL    HW250038   2.358   9.617   0.364  0.0453  0.9301  0.7648
13037SOL     OW50039   3.545   4.323   4.268  0.1252  0.2193  0.1078
13037SOL    HW150040   3.629   4.271   4.285 -0.9492 -1.5525  0.0862
13037SOL    HW250041   3.554   4.372   4.181  1.3404  0.4746  0.3642
13038SOL     OW50042   5.270   8.111   3.153 -0.0589  0.2762 -0.0095
13038SOL    HW150043   5.312   8.182   3.209 -0.3261  0.9744 -0.6944
13038SOL    HW250044   5.173   8.101   3.178  0.1146 -0.2417  0.4739
13039SOL     OW50045   5.792  10.000   1.544 -0.0482 -1.2304  0.4936
13039SOL    HW150046   5.779   9.974   1.639  0.3238  1.5414  1.3491
13039SOL    HW250047   5.888   9.988   1.519  0.1194 -0.6741  0.8732
13040SOL     OW50048   4.297   8.180   4.628 -0.5306  0.0206  0.2781
13040SOL    HW150049   4.212   8.233   4.631 -0.9063 -0.6332  1.2444
13040SOL    HW250050   4.361   8.224   4.565 -2.0823 -0.2182 -1.5113
13041SOL     OW50051   3.853   9.201   4.015  0.1876  1.0670 -0.1255
13041SOL    HW150052   3.758   9.231   4.009 -0.3423  0.4687  3.7184
13041SOL    HW250053   3.904   9.265   4.071  0.7873 -1.2726  2.0880
13042SOL     OW50054   5.782   1.310   2.278  0.0603  0.8870 -0.0840
13042SOL    HW150055   5.700   1.358   2.246  0.2288  1.2312 -0.0113
13042SOL    HW250056   5.756   1.230   2.330 -0.2414  1.4522  0.6422
13043SOL     OW50057   1.796   5.200   1.888 -0.2215 -0.4319  0.6698
13043SOL    HW150058   1.713   5.180   1.836  0.6666 -0.6081 -0.7139
13043SOL    HW250059   1.872   5.146   1.852  1.3197  2.3970 -0.5182
13044SOL     OW50060   7.392   2.754   0.746  0.0008  0.2264 -0.2871
13044SOL    HW150061   7.425   2.771   0.839 -0.7808 -0.8709  0.2130
13044SOL    HW250062   7.322   2.682   0.749  0.1106  0.0491 -1.7486
13045SOL     OW50063   8.758   8.038   0.153  0.0564  0.1820  0.5302
13045SOL    HW150064   8.807   7.994   0.077  0.5202  0.3888  0.7068
13045SOL    HW250065   8.686   8.096   0.117  0.3665  0.3883  0.2438
13046SOL     OW50066   9.984   9.616   4.872 -0.2410 -0.5168  0.1525
13046SOL    HW150067  10.044   9.659   4.939 -0.4864 -1.3372  0.8935
13046SOL    HW250068   9.959   9.524   4.902 -0.4410 -0.8546 -1.0018
13047SOL     OW50069   3.144   4.795   3.273 -0.2233 -0.2484  0.1634
13047SOL    HW150070   3.241   4.821   3.264 -0.4013 -0.2734 -2.2546
13047SOL    HW250071   3.137   4.711   3.326  1.0791 -0.1941  0.4508
13048SOL     OW50072   1.442   2.539   2.701 -0.4990 -0.5373  0.0995
13048SOL    HW150073   1.359   2.496   2.735 -1.1170  1.0688  0.6946
13048SOL    HW250074   1.519   2.516   2.761 -0.8804 -0.5912  0.5663
13049SOL     OW50075   3.573   3.681   5.344 -0.3211 -0.3395 -0.1527
13049SOL    HW150076   3.627   3.706   5.425  1.3021 -0.6912 -1.1076
13049SOL    HW250077   3.633   3.641   5.275 -1.3218  1.7700 -2.3243
13050SOL     OW50078   0.236   3.771   4.421  0.3215 -0.2977  0.5133
13050SOL    HW150079   0.230   3.857   4.369 -0.8655 -1.0818 -0.6639
13050SOL    HW250080   0.332   3.750   4.438  0.6511  0.9383  0.2515
13051SOL     OW50081   0.034   3.577   1.297 -0.2173  0.0272 -0.1692
13051SOL    HW150082   0.020   3.504   1.363 -0.3574  0.4150  0.2358
13051SOL    HW250083  -0.006   3.551   1.209  1.9346 -1.4326 -0.7600
13052SOL     OW50084   7.928   4.408   4.139  0.4764 -0.4612 -0.2222
13052SOL    HW150085   7.972   4.341   4.080  2.4047  2.0463 -1.7251
13052SOL    HW250086   7.989   4.486   4.152 -2.1265  1.5015  0.5733
13053SOL     OW50087   7.366   8.336   1.884  0.1408  0.2146  0.1141
13053SOL    HW150088   7.442   8.392   1.916  0.4543 -0.2188  0.1280
13053SOL    HW250089   7.400   8.247   1.855 -0.1700  0.5104 -1.2081
13054SOL     OW50090   3.460   4.924   4.889  0.3628  0.3618 -0.3223
13054SOL    HW150091   3.524   4.890   4.958 -0.0557  2.8413  1.3534
13054SOL    HW250092   3.508   4.939   4.803  1.3700 -0.6584  0.0543
13055SOL     OW50093   9.648   6.806   4.571 -0.1080  0.0009 -0.3440
13055SOL    HW150094   9.570   6.866   4.556  0.4431  0.7797 -0.1251
13055SOL    HW250095   9.695   6.831   4.655 -1.2605 -2.2688  1.0307
13056SOL     OW50096   7.431   3.240   4.420 -0.0943  0.6505 -0.4306
13056SOL    HW150097   7.518   3.256   4.372  0.6998 -1.7063  0.1409
13056SOL    HW250098   7.385   3.161   4.379 -0.5187  0.0394  1.1903
13057SOL     OW50099   6.117   7.912   3.426 -0.1159 -0.5901 -0.0883
13057SOL    HW150100   6.128   7.997   3.375 -0.3025 -0.7425 -0.3867
13057SOL    HW250101   6.020   7.897   3.446 -0.2775 -1.5719 -1.5050
13058SOL     OW50102   4.716   7.214   3.454 -0.1264 -0.0882 -0.0521
13058SOL    HW150103   4.732   7.143   3.522  0.1509 -0.2944 -0.3286
13058SOL    HW250104   4.637   7.269   3.481  0.6645  0.5419  0.9983
13059SOL     OW50105   0.069   6.680   4.103  0.2978  0.1013  0.5468
13059SOL    HW150106   0.084   6.759   4.163  0.4842  0.1366  0.4565
13059SOL    HW250107  -0.014   6.633   4.130 -1.7094  2.3212 -1.5479
13060SOL     OW50108   8.903   0.297   3.417  0.1680  0.6567 -0.2976
13060SOL    HW150109   8.940   0.390   3.418  2.7860 -0.3728  0.6979
13060SOL    HW250110   8.968   0.235   3.374 -3.2699 -0.1086 -4.7853
13061SOL     OW50111   6.271   0.053   2.905  0.1110 -0.2791  0.1969
13061SOL    HW150112   6.286   0.015   2.814  0.0924 -0.0145  0.0844
13061SOL    HW250113   6.271   0.153   2.901 -0.9330 -0.2664  0.3172
13062SOL     OW50114   6.279   8.810   3.474 -0.8768  0.0641 -0.3036
13062SOL    HW150115   6.368   8.836   3.437 -0.2989 -1.7966 -0.3100
13062SOL    HW250116   6.207   8.833   3.408 -0.0136 -1.7791 -1.9640
13063SOL     OW50117   0.744   6.517   0.629 -0.6070 -0.1178  0.0390
13063SOL    HW150118   0.725   6.447   0.699  0.2434 -0.5012 -0.1023
13063SOL    HW250119   0.677   6.510   0.556 -0.8461 -0.4405  0.2860
13064SOL     OW50120   8.654   5.215   2.032  0.1221 -0.1403  0.0283
13064SOL    HW150121   8.609   5.263   1.957  1.3881 -0.6213 -1.0612
13064SOL    HW250122   8.598   5.137   2.061  0.4889 -1.0497 -1.6661
13065SOL     OW50123   8.318   0.150   2.197 -0.5936  0.0189  0.2868
13065SOL    HW150124   8.301   0.121   2.103  1.1672  1.8079 -0.6167
13065SOL    HW250125   8.384   0.089   2.240 -0.2644  0.0820 -0.1307
13066SOL     OW50126   0.316   4.544   3.623 -0.2786 -0.2292  0.5633
13066SOL    HW150127   0.365   4.628   3.644 -0.8021  0.6617 -1.7390
13066SOL    HW250128   0.379   4.479   3.579 -0.5372 -0.0303 -0.1004
13067SOL     OW50129   0.574   4.680   1.379 -0.0385 -0.0688  0.4379
13067SOL    HW150130   0.545   4.684   1.283 -1.7557  0.0868  0.9512
13067SOL    HW250131   0.495   4.664   1.438  1.0286 -0.3737  1.8272
13068SOL     OW50132   8.837   1.980   4.023 -0.1010 -0.9384 -0.2360
13068SOL    HW150133   8.853   1.881   4.020 -1.3180 -1.1159 -0.9054
13068SOL    HW250134   8.826   2.015   3.930 -0.5512 -0.3230  0.0452
13069SOL     OW50135   3.267   7.721   1.682  0.1116 -0.4167  0.5507
13069SOL    HW150136   3.248   7.622   1.683  0.7767 -0.5935 -1.7213
13069SOL    HW250137   3.231   7.761   1.597 -2.2906  1.7596  2.5317
13070SOL     OW50138   8.307   4.690   3.051  0.1584  0.4213  0.0278
13070SOL    HW150139   8.292   4.785   3.078 -0.3255  0.3589 -0.0175
13070SOL    HW250140   8.331   4.687   2.954 -0.2920  0.4559 -0.0835
13071SOL     OW50141   3.778   8.499   2.614 -0.1743 -0.2758  0.1993
13071SOL    HW150142   3.755   8.404   2.595  0.3654 -0.6788  1.4725
13071SOL    HW250143   3.812   8.542   2.531  4.3642 -2.6478  0.6681
13072SOL     OW50144   3.895   4.360   2.355 -0.1770  0.0943 -0.2536
13072SOL    HW150145   3.958   4.329   2.284 -0.5016  1.5151 -1.1846
13072SOL    HW250146   3.856   4.448   2.329 -0.8931  0.2702  1.3307
13073SOL     OW50147   9.284   4.747   0.605 -0.0863 -0.2025 -0.4268
13073SOL    HW150148   9.347   4.750   0.682 -0.5465 -0.6664 -0.0304
13073SOL    HW250149   9.190   4.754   0.638 -0.3510 -1.6148 -0.8392
13074SOL     OW50150   4.389   8.893   2.996  0.4977  0.3235 -0.2254
13074SOL    HW150151   4.338   8.898   3.082  0.4592  1.8731 -0.3191
13074SOL    HW250152   4.331   8.926   2.921  1.1303  0.6850 -0.5602
13075SOL     OW50153   9.628   3.532   4.539  0.4827 -0.3877 -0.1225
13075SOL    HW150154   9.713   3.572   4.573 -0.0492  1.0485 -0.4196
13075SOL    HW250155   9.607   3.449   4.590  0.2480  1.1440  2.3983
13076SOL     OW50156   3.740   4.036   1.098  0.0889  0.1022 -0.3630
13076SOL    HW150157   3.747   4.099   1.020 -0.8651 -2.3191 -2.4835
13076SOL    HW250158   3.744   3.942   1.064 -0.2505 -0.9962  2.5700
13077SOL     OW50159   1.662   3.206   4.808  0.1736  0.3454 -0.3525
13077SOL    HW150160   1.720   3.153   4.747  0.7321 -1.4896  1.6869
13077SOL    HW250161   1.582   3.151   4.833  0.2437  0.8384  1.0034
13078SOL     OW50162   9.256   1.257   0.435  0.1700 -0.4568 -0.1620
13078SOL    HW150163   9.316   1.258   0.515 -0.9885 -1.4595  0.7560
13078SOL    HW250164   9.309   1.273   0.352  1.5009 -0.1238  0.7475
13079SOL     OW50165   7.889   3.091   5.563  0.2170  0.2368  0.2790
13079SOL    HW150166   7.967   3.149   5.587  0.1416  0.7418 -0.6875
13079SOL    HW250167   7.818   3.146   5.519 -1.1858  0.0121  2.1535
13080SOL     OW50168   1.851   2.650   1.029  0.2423 -0.5236 -0.6539
13080SOL    HW150169   1.839   2.584   0.955 -1.9407 -2.1728  1.1064
13080SOL    HW250170   1.796   2.622   1.108  0.3159  2.6850  0.6054
13081SOL     OW50171   9.015   4.859   5.006  0.1190 -0.5751  0.4559
13081SOL    HW150172   8.920   4.890   5.008 -0.1578 -1.4433  0.9406
13081SOL    HW250173   9.021   4.770   4.961  0.4714 -1.2727  1.8552
13082SOL     OW50174   4.769   1.470   2.098  0.6885  0.5939 -0.4300
13082SOL    HW150175   4.710   1.500   2.023  0.7596  1.0400 -0.3049
13082SOL    HW250176   4.724   1.395   2.148 -0.1334  1.4880  0.1797
13083SOL     OW50177   9.112   1.864   0.767  0.0202 -0.4049 -0.2096
13083SOL    HW150178   9.192   1.825   0.721  1.9700  2.7636  0.3713
13083SOL    HW250179   9.080   1.943   0.715 -1.3741 -0.2985  0.7899
13084SOL     OW50180   6.688   0.803   3.437  0.0615  0.5679  0.0823
13084SOL    HW150181   6.781   0.767   3.427  0.0067  0.1732  0.9312
13084SOL    HW250182   6.684   0.897   3.402  0.7197  0.5053 -0.1639
13085SOL     OW50183   0.764   2.016   4.830  0.4570  0.1560 -0.2020
13085SOL    HW150184   0.694   1.946   4.816  0.3943 -0.0104  0.9154
13085SOL    HW250185   0.747   2.063   4.917  1.3304  0.5826 -0.2607
13086SOL     OW50186   8.761   2.304   0.748 -0.0638  0.2771  0.4095
13086SOL    HW150187   8.720   2.380   0.698 -1.3970 -0.3109  0.5899
13086SOL    HW250188   8.713   2.219   0.726 -0.1418 -0.1262  2.0559
13087SOL     OW50189   5.365   0.402   4.715 -0.0509 -0.2411  0.1393
13087SOL    HW150190   5.273   0.421   4.751 -0.0610 -3.0655  1.7362
13087SOL    HW250191   5.358   0.350   4.630  0.0733 -0.0476  0.0096
13088SOL     OW50192   1.720   2.851   1.926  0.6626  0.5278  0.1028
13088SOL    HW150193   1.655   2.836   1.852  0.7315 -0.1159  0.1736
13088SOL    HW250194   1.799   2.902   1.891  0.5903  0.4215 -0.2125
13089SOL     OW50195   0.803   4.249   4.746 -0.0269 -0.0136  0.0025
13089SOL    HW150196   0.860   4.179   4.789 -0.5691 -0.7420 -0.4581
13089SOL    HW250197   0.843   4.339   4.764  1.4377 -0.5333 -0.5653
13090SOL     OW50198   6.647   0.027   2.475  0.9836 -0.2509  0.3190
13090SOL    HW150199   6.694  -0.038   2.415 -1.5426 -1.6409 -0.2423
13090SOL    HW250200   6.661   0.001   2.570  0.5509 -1.2696  0.1190
13091SOL     OW50201   3.845   2.578   0.603  0.5303 -0.1185  0.2174
13091SOL    HW150202   3.818   2.674   0.612 -0.3491 -0.4161  0.9371
13091SOL    HW250203   3.909   2.554   0.676  0.1986 -0.2574  0.4659
13092SOL     OW50204   4.051   2.911   1.527  0.1360 -0.7887 -0.1352
13092SOL    HW150205   4.022   2.842   1.593 -0.6689 -0.2087  0.1253
13092SOL    HW250206   4.050   2.872   1.435 -0.4287 -1.0936 -0.0013
13093SOL     OW50207   0.651   2.447   3.585 -0.9597 -0.4752 -0.0557
13093SOL    HW150208   0.750   2.445   3.600 -0.9763  0.1707  0.1623
13093SOL    HW250209   0.607   2.384   3.650 -0.6280 -1.3990 -0.7198
13094SOL     OW50210   7.588   9.121   3.967 -0.1066 -0.1263  0.0417
13094SOL    HW150211   7.543   9.077   4.045 -0.4217 -1.4354 -0.8729
13094SOL    HW250212   7.528   9.116   3.887  0.7914  0.0019 -0.6464
13095SOL     OW50213   9.931   3.744   4.210 -0.3112  0.8763  0.1856
13095SOL    HW150214   9.977   3.659   4.236 -0.8042  0.5915  0.1328
13095SOL    HW250215   9.890   3.786   4.291 -1.5886  0.1436 -0.0595
13096SOL     OW50216   2.193   4.674   2.672  0.0653  0.1989  0.1100
13096SOL    HW150217   2.185   4.772   2.652 -3.0604 -0.0416 -0.1826
13096SOL    HW250218   2.113   4.645   2.725  0.5136 -2.3549 -0.5401
13097SOL     OW50219   0.248   3.597   2.794 -0.1146  0.1529 -0.0377
13097SOL    HW150220   0.154   3.615   2.763  0.7937  2.2610 -1.6546
13097SOL    HW250221   0.245   3.542   2.878 -2.8196  1.2731  0.6498
13098SOL     OW50222   2.621   2.080   3.759  0.3516  0.3652 -0.0916
13098SOL    HW150223   2.551   2.024   3.804  0.9078  0.3506  0.7641
13098SOL    HW250224   2.649   2.154   3.820 -0.3495  1.5603 -1.2054
13099SOL     OW50225   7.541   1.843   0.876  0.3575  0.0432  0.3693
13099SOL    HW150226   7.542   1.917   0.809  0.8215 -0.8719 -0.6470
13099SOL    HW250227   7.456   1.847   0.928  0.4167  1.3399  0.3813
13100SOL     OW50228   0.818   8.917   4.215  0.1295  0.2493 -0.5766
13100SOL    HW150229   0.810   8.863   4.131 -2.5575  1.8149 -1.3742
13100SOL    HW250230   0.787   8.862   4.293  0.9094 -0.5814 -0.8390
13101SOL     OW50231   2.688   5.294   1.634  0.1500 -0.3670  0.4889
13101SOL    HW150232   2.733   5.359   1.695  0.2925 -0.3908  0.4065
13101SOL    HW250233   2.722   5.202   1.651  0.1761 -0.3767  0.3862
13102SOL     OW50234   0.895   4.500   3.874  0.0589 -0.2258 -0.0759
13102SOL    HW150235   0.838   4.580   3.893 -0.7178 -0.2991 -1.9938
13102SOL    HW250236   0.986   4.514   3.912 -0.1455  1.4674 -0.1835
13103SOL     OW50237   9.245   9.242   4.534  0.0455 -0.9291 -0.1902
13103SOL    HW150238   9.248   9.182   4.454 -0.5747 -1.2015 -0.0088
13103SOL    HW250239   9.338   9.258   4.567  0.3044 -0.8026 -0.9748
13104SOL     OW50240   4.983   2.208   3.872 -0.2354  0.4848  0.5287
13104SOL    HW150241   4.962   2.146   3.796 -0.9349 -1.6153  2.3736
13104SOL    HW250242   5.082   2.222   3.877 -0.0891 -0.3294 -0.0356
13105SOL     OW50243   2.595   6.140   2.758  0.5455 -0.2753  0.2035
13105SOL    HW150244   2.557   6.186   2.839 -0.8624 -2.0080  0.5727
13105SOL    HW250245   2.629   6.050   2.784  1.8769 -0.0820 -0.7951
13106SOL     OW50246   4.028   3.503   5.100 -0.6371 -0.1031 -0.5742
13106SOL    HW150247   4.019   3.535   5.006 -2.7166 -0.5118 -0.5374
13106SOL    HW250248   4.090   3.424   5.102  2.0930  1.9330 -1.0780
13107SOL     OW50249   0.243   8.381   4.960  0.0769  0.4368  0.3952
13107SOL    HW150250   0.239   8.286   4.991 -0.9233  0.9466  1.8896
13107SOL    HW250251   0.173   8.435   5.007 -0.0211  1.7116 -1.1799
13108SOL     OW50252   1.842   8.567   2.343  0.4118  0.1259 -0.1425
13108SOL    HW150253   1.936   8.601   2.346  0.3324  0.5412 -1.5325
13108SOL    HW250254   1.793   8.615   2.270 -0.7801 -0.3151  0.3723
13109SOL     OW50255   0.663   6.737   0.281  0.0794 -0.2177  0.4107
13109SOL    HW150256   0.650   6.739   0.182  0.3806  2.6213  0.3882
13109SOL    HW250257   0.579   6.705   0.325 -1.5470  2.5207 -0.5632
13110SOL     OW50258   7.697   0.562   1.421 -0.1436 -0.1085 -0.6594
13110SOL    HW150259   7.706   0.565   1.520 -3.5729  2.7516 -0.3296
13110SOL    HW250260   7.617   0.507   1.396 -0.1434  0.3696 -1.7433
13111SOL     OW50261   2.739   6.380   4.637  0.5509 -0.1491  0.3883
13111SOL    HW150262   2.839   6.377   4.644  0.7456 -0.3886 -1.9709
13111SOL    HW250263   2.703   6.287   4.640  0.5439 -0.1731 -0.2227
13112SOL     OW50264   2.765   5.545   5.572  0.1198  0.5784  0.1532
13112SOL    HW150265   2.667   5.526   5.583  0.0154  1.9882  1.8031
13112SOL    HW250266   2.810   5.465   5.532 -1.7174 -0.0326 -0.7550
13113SOL     OW50267   2.620   2.884   1.321 -0.4033  0.0948  0.6330
13113SOL    HW150268   2.706   2.850   1.357 -0.4772  0.0590  0.7757
13113SOL    HW250269   2.618   2.872   1.221 -0.5691 -0.6489  0.7196
13114SOL     OW50270   3.536   9.093   4.578  0.0930  0.3902 -0.0717
13114SOL    HW150271   3.564   8.998   4.566 -3.0706 -0.7799  1.2271
13114SOL    HW250272   3.551   9.120   4.673 -0.6050  0.6126 -0.0232
13115SOL     OW50273   5.883   9.284   3.033 -0.0299  0.2423  0.4030
13115SOL    HW150274   5.864   9.191   3.001  1.1137 -1.1316  3.5409
13115SOL    HW250275   5.813   9.346   2.999 -1.4789 -1.9680 -0.7679
13116SOL     OW50276   2.016   4.187   2.586 -0.6555  0.0555  0.1233
13116SOL    HW150277   1.970   4.247   2.651 -2.5356  0.4129 -1.5057
13116SOL    HW250278   2.031   4.235   2.499  1.5798 -0.5049  0.1486
13117SOL     OW50279   1.281   8.564   0.566  0.6730  0.1203 -0.7252
13117SOL    HW150280   1.374   8.567   0.603 -0.3677 -0.3467  2.0661
13117SOL    HW250281   1.268   8.639   0.502  1.8353  2.4471  1.6699
13118SOL     OW50282   9.257   8.983   5.151 -0.1190  0.1069 -0.0011
13118SOL    HW150283   9.246   8.898   5.203 -0.3848  0.2315  0.1448
13118SOL    HW250284   9.216   9.059   5.201  0.1031  0.3203 -0.1398
13119SOL     OW50285   0.360   8.005   3.838 -0.0846  0.2558  0.5998
13119SOL    HW150286   0.415   7.934   3.881  1.6868 -0.0706 -2.1064
13119SOL    HW250287   0.295   7.964   3.775  1.2781  1.0111 -1.3456
13120SOL     OW50288   9.015   1.419   4.635 -0.0536 -0.5478  0.1036
13120SOL    HW150289   9.041   1.476   4.713  1.8530 -1.6474  0.3044
13120SOL    HW250290   9.019   1.322   4.661 -0.3255 -0.8935 -1.0908
13121SOL     OW50291   0.159   6.436   2.455 -0.0943  0.4106  0.0948
13121SOL    HW150292   0.140   6.533   2.439 -2.3556 -0.1602 -0.8676
13121SOL    HW250293   0.074   6.389   2.476  0.7066 -1.7324 -1.3081
13122SOL     OW50294   9.588   7.651   1.017  0.2870  0.3545  0.0740
13122SOL    HW150295   9.618   7.573   1.073 -0.1943  0.0899 -0.0396
13122SOL    HW250296   9.629   7.735   1.053  1.2703 -0.0246 -0.1488
13123SOL     OW50297   9.432   5.945   1.965  0.6102 -0.0627 -0.1325
13123SOL    HW150298   9.381   6.031   1.978 -0.0057 -0.4177 -0.1629
13123SOL    HW250299   9.505   5.939   2.033 -1.1509 -0.8380  1.7609
13124SOL     OW50300   8.239   9.559   3.669 -0.1655  0.5179  0.0325
13124SOL    HW150301   8.331   9.519   3.667 -0.4414 -0.1221  0.1079
13124SOL    HW250302   8.243   9.649   3.712  0.4227  0.4855  0.0525
13125SOL     OW50303   6.491   1.478   3.804  0.1429 -0.0947  0.2944
13125SOL    HW150304   6.498   1.441   3.897  1.3136  0.9688  0.6376
13125SOL    HW250305   6.394   1.497   3.784 -0.0922 -0.1079  1.3765
13126SOL     OW50306   9.611   1.710   2.311 -0.1024  0.6025  0.3265
13126SOL    HW150307   9.523   1.726   2.267  0.6232 -0.0728 -1.4320
13126SOL    HW250308   9.670   1.790   2.297 -0.3492  0.9648  1.3118
13127SOL     OW50309   3.077   6.741   5.112  0.0006  0.0212 -0.6275
13127SOL    HW150310   3.038   6.677   5.045  3.1933 -0.7146 -1.8710
13127SOL    HW250311   3.042   6.833   5.094 -0.5705 -0.4834 -2.1859
13128SOL     OW50312   2.610   1.385   3.303  0.4954  0.1898 -0.4890
13128SOL    HW150313   2.556   1.329   3.239 -0.5713 -0.5735  1.0461
13128SOL    HW250314   2.693   1.336   3.327  0.7934  0.3822 -1.1167
13129SOL     OW50315   4.806   0.874   0.245  0.4545  0.1936  0.3059
13129SOL    HW150316   4.835   0.968   0.226 -0.1694  0.6179  1.3788
13129SOL    HW250317   4.799   0.823   0.160  1.3051  0.9679 -0.2407
13130SOL     OW50318   1.569   1.029   4.566 -0.7827  0.5227  0.0954
13130SOL    HW150319   1.494   0.988   4.514 -0.3357 -0.7029  0.4187
13130SOL    HW250320   1.545   1.032   4.663 -0.0469 -0.6638  0.3075
13131SOL     OW50321   8.698   3.090   1.448 -0.2278  0.1082 -0.1573
13131SOL    HW150322   8.665   2.999   1.423  0.9904 -0.0519 -1.2336
13131SOL    HW250323   8.797   3.088   1.460  0.0962  1.7025 -2.2066
13132SOL     OW50324   8.815   4.060   1.141 -0.5059  0.3905 -0.3666
13132SOL    HW150325   8.860   4.008   1.214  0.6880 -0.4020 -1.6333
13132SOL    HW250326   8.835   4.157   1.152 -0.6006  0.3113  0.5370
13133SOL     OW50327   5.951   9.504   4.382  0.4064  0.4033 -0.2535
13133SOL    HW150328   5.916   9.598   4.388  1.6460  0.8579 -0.0632
13133SOL    HW250329   5.883   9.446   4.337 -0.8036  1.1685  0.5689
13134SOL     OW50330   2.622   1.888   2.782  0.1146  0.4721 -0.5039
13134SOL    HW150331   2.531   1.927   2.792 -0.9567 -1.9118 -0.5921
13134SOL    HW250332   2.625   1.830   2.700  1.8121  0.8022 -0.6983
13135SOL     OW50333   2.105   7.828   2.951 -0.6805  0.0066 -0.4404
13135SOL    HW150334   2.109   7.859   3.046  0.8961  0.7778 -0.7364
13135SOL    HW250335   2.017   7.855   2.911 -1.5192 -0.6686  0.8954
13136SOL     OW50336   4.774   9.623   4.369 -0.0529 -0.3871 -0.0745
13136SOL    HW150337   4.757   9.721   4.380  0.5217 -0.2420 -0.5129
13136SOL    HW250338   4.761   9.597   4.274  1.7964 -0.3425 -0.3640
13137SOL     OW50339   1.752   4.591   3.015  0.2215 -0.1815 -0.1740
13137SOL    HW150340   1.701   4.620   2.934  1.8768 -1.1812 -1.5832
13137SOL    HW250341   1.732   4.654   3.091 -1.8055  0.4033 -1.1628
13138SOL     OW50342   7.377   5.566   5.320  0.4127 -0.0038  0.1312
13138SOL    HW150343   7.428   5.581   5.405 -0.8370  1.0615  0.6958
13138SOL    HW250344   7.382   5.647   5.262 -1.3282  0.4097  0.5487
13139SOL     OW50345   1.253   1.583   4.469  0.0949  0.3839 -0.1016
13139SOL    HW150346   1.343   1.549   4.493 -0.4635  0.6174  2.4723
13139SOL    HW250347   1.193   1.506   4.444  0.2632 -0.0253  0.7493
13140SOL     OW50348   9.404   3.882   1.910  0.8710 -0.0930  0.1635
13140SOL    HW150349   9.498   3.885   1.879  0.8109  0.8438  0.0559
13140SOL    HW250350   9.402   3.875   2.010  1.0541 -0.2208  0.1572
13141SOL     OW50351   2.644   6.028   3.062  0.5781  0.0038  0.6440
13141SOL    HW150352   2.656   5.983   3.150 -0.7888 -1.0464  0.3168
13141SOL    HW250353   2.602   5.964   2.997  1.3244  0.8356 -0.7026
13142SOL     OW50354   7.743   0.111   0.066 -0.4540 -0.0314 -0.0917
13142SOL    HW150355   7.773   0.120   0.161 -2.0663 -0.3352  0.4519
13142SOL    HW250356   7.786   0.031   0.025 -1.3867 -1.1229  1.0291
13143SOL     OW50357   4.152   1.207   3.984  0.2967  0.0299 -0.1837
13143SOL    HW150358   4.121   1.187   4.077 -2.7557  1.8993 -0.7191
13143SOL    HW250359   4.211   1.288   3.985 -1.4374  1.3356 -0.0567
13144SOL     OW50360   8.783   5.425   3.014  0.0609  0.1373 -0.0886
13144SOL    HW150361   8.815   5.344   3.064 -0.5485  0.6762  1.1888
13144SOL    HW250362   8.808   5.416   2.917 -0.3349 -1.7534 -0.0376
13145SOL     OW50363   0.383   9.153   1.041 -0.1094  0.3601  0.5194
13145SOL    HW150364   0.284   9.139   1.039  0.1425 -1.4846  0.4513
13145SOL    HW250365   0.402   9.249   1.064 -1.9035  0.8228  0.1789
13146SOL     OW50366   2.356   8.134   3.963 -0.4054  0.5293 -0.1278
13146SOL    HW150367   2.292   8.136   3.886  1.0509  0.3526 -1.3585
13146SOL    HW250368   2.365   8.226   4.001  1.6809  1.3753 -2.5478
13147SOL     OW50369   1.427   4.794   3.055  0.2475  0.1675 -0.0370
13147SOL    HW150370   1.493   4.831   3.121  0.6946 -1.0851  0.2507
13147SOL    HW250371   1.463   4.804   2.962 -1.0308  3.2494 -0.2290
13148SOL     OW50372   0.495   0.631   5.174 -0.4654 -0.3115  0.6614
13148SOL    HW150373   0.543   0.640   5.087  2.0121  0.9583  2.0731
13148SOL    HW250374   0.432   0.708   5.185  1.1320  0.9880  1.0694
13149SOL     OW50375   0.904   3.188   3.408  0.1426  0.5205  0.4522
13149SOL    HW150376   0.828   3.153   3.463  1.2342  2.6696  3.3997
13149SOL    HW250377   0.990   3.154   3.444  0.8030  0.8846 -0.7541
13150SOL     OW50378   1.580   5.607   3.376  0.2633  0.3695  0.0847
13150SOL    HW150379   1.517   5.531   3.389  1.6539 -0.5133  1.7972
13150SOL    HW250380   1.559   5.680   3.441 -0.3497  1.0047 -0.8032
13151SOL     OW50381   0.113   5.663   1.301 -0.0650  0.6266  0.0624
13151SOL    HW150382   0.201   5.689   1.262 -1.0207  1.3854 -1.6635
13151SOL    HW250383   0.072   5.742   1.347  0.4069  0.1215  1.3570
13152SOL     OW50384   8.279   3.586   1.760 -0.2821  0.3717 -0.5316
13152SOL    HW150385   8.194   3.591   1.812 -0.2979  1.5420 -0.6503
13152SOL    HW250386   8.259   3.580   1.662 -0.2447  2.7498 -0.7197
13153SOL     OW50387   2.525   7.643   4.923 -0.1999  0.0373 -0.2648
13153SOL    HW150388   2.571   7.712   4.978 -0.0063  1.8686 -2.6578
13153SOL    HW250389   2.426   7.659   4.926 -0.4437 -1.6036  1.8017
13154SOL     OW50390   8.813   4.202   4.335 -0.4646  0.2037 -0.7687
13154SOL    HW150391   8.735   4.195   4.397  2.7586  2.1260  3.8305
13154SOL    HW250392   8.821   4.297   4.303  0.8583  0.3911  0.0838
13155SOL     OW50393   4.777   2.820   2.895  0.0797  0.1626 -0.5376
13155SOL    HW150394   4.760   2.800   2.798  1.2210 -2.4483 -0.2564
13155SOL    HW250395   4.770   2.735   2.947  1.0395  1.2842  1.4443
13156SOL     OW50396   3.709   2.926   1.380 -0.5490 -0.2047  0.2314
13156SOL    HW150397   3.696   2.898   1.285 -1.2116 -1.8235  0.7752
13156SOL    HW250398   3.779   2.997   1.385 -2.3715  1.7957 -1.7449
13157SOL     OW50399   7.893   5.334   5.628  0.0127  0.2951  0.5207
13157SOL    HW150400   7.863   5.427   5.652  1.0254  0.3315  1.7109
13157SOL    HW250401   7.988   5.322   5.655  0.3462 -0.6170 -1.0021
13158SOL     OW50402   0.086   3.177   1.376 -0.1484 -0.0625  0.5541
13158SOL    HW150403   0.053   3.084   1.394  2.2131 -0.5904  2.3940
13158SOL    HW250404   0.137   3.177   1.290 -1.8321 -0.0067 -0.4701
13159SOL     OW50405   5.717   8.966   3.435  0.1108 -0.2527 -0.2971
13159SOL    HW150406   5.749   8.925   3.521 -1.2682 -0.7312  0.0081
13159SOL    HW250407   5.639   9.026   3.454  0.6373  0.6705 -1.0508
13160SOL     OW50408   8.254   4.559   3.730 -0.4338  0.3229  0.0778
13160SOL    HW150409   8.190   4.522   3.663  1.0137 -0.1070 -1.0647
13160SOL    HW250410   8.298   4.484   3.779  0.7171  0.5916 -0.5556
13161SOL     OW50411   9.342   6.543   2.742 -0.0938  0.0520 -0.4690
13161SOL    HW150412   9.255   6.498   2.726 -0.7044 -0.5237  3.9065
13161SOL    HW250413   9.328   6.641   2.754 -0.3410 -0.2252  1.5729
13162SOL     OW50414   4.360   3.492   2.691 -0.2598  0.4212  0.6299
13162SOL    HW150415   4.444   3.439   2.694 -1.0743 -0.9337  0.0841
13162SOL    HW250416   4.285   3.435   2.657 -0.7792  2.4419 -1.7823
13163SOL     OW50417   9.201   7.923   2.081 -0.3415  0.7457 -0.1519
13163SOL    HW150418   9.105   7.912   2.056 -0.2651 -2.7660  0.7729
13163SOL    HW250419   9.258   7.873   2.015  0.5355 -0.4633  1.4917
13164SOL     OW50420   1.417   0.636   3.756 -0.7847  0.0739  0.0355
13164SOL    HW150421   1.475   0.717   3.760  0.5023 -0.8826  1.3383
13164SOL    HW250422   1.465   0.563   3.708 -1.6739 -0.1307 -0.5486
13165SOL     OW50423   6.989   2.175   3.274 -0.4965  0.1241 -0.0673
13165SOL    HW150424   7.046   2.093   3.278 -0.6556  0.0289  0.2545
13165SOL    HW250425   7.045   2.255   3.297 -0.4744  0.0417  0.1657
13166SOL     OW50426   2.056   8.331   4.843 -0.4627  0.8347  0.0352
13166SOL    HW150427   2.037   8.260   4.775  0.0504  1.0845 -0.3721
13166SOL    HW250428   2.141   8.309   4.890 -0.3925  1.0945  0.0280
13167SOL     OW50429   9.628   2.420   3.225 -0.3080  0.0429 -0.4929
13167SOL    HW150430   9.565   2.367   3.170  0.5634 -1.6388  0.0930
13167SOL    HW250431   9.709   2.442   3.171  0.0175 -0.5780 -0.2671
13168SOL     OW50432   4.353   5.445   1.826  0.2332 -0.2689  0.0515
13168SOL    HW150433   4.386   5.457   1.732  1.1953 -1.6920  0.1861
13168SOL    HW250434   4.268   5.496   1.838 -0.5532 -1.0199 -1.9580
13169SOL     OW50435   8.288   2.726   3.600  0.1338  0.8137 -0.2702
13169SOL    HW150436   8.203   2.675   3.612  0.9438 -0.2353  1.1455
13169SOL    HW250437   8.366   2.671   3.630  1.3579  1.6916 -1.7068
13170SOL     OW50438   0.736   6.161   4.069  0.5119 -0.5108  0.0304
13170SOL    HW150439   0.742   6.071   4.113  0.4932  0.0582  1.2366
13170SOL    HW250440   0.815   6.173   4.008  1.2912 -0.7855  0.9593
13171SOL     OW50441   4.656   8.973   2.228  0.0375  0.1630  0.2912
13171SOL    HW150442   4.685   8.997   2.136  0.6868 -0.2879  0.3764
13171SOL    HW250443   4.632   8.876   2.232 -0.0404  0.1940  0.5846
13172SOL     OW50444   9.635   9.692   1.556  1.2592  0.0118 -0.3799
13172SOL    HW150445   9.636   9.773   1.498  4.4416 -0.1969 -0.6846
13172SOL    HW250446   9.572   9.624   1.518  0.3779  1.3900 -1.4176
13173SOL     OW50447   8.194   7.105   2.861  0.1403 -0.3043  0.9505
13173SOL    HW150448   8.186   7.019   2.911 -0.7308  0.0770  1.4871
13173SOL    HW250449   8.290   7.125   2.845  0.3537 -1.3121  0.9307
13174SOL     OW50450   8.599   7.874   5.430 -0.3698 -0.2160 -0.0862
13174SOL    HW150451   8.524   7.888   5.495 -2.8264 -1.2732 -2.5555
13174SOL    HW250452   8.603   7.950   5.366  1.0412  0.0906  0.3502
13175SOL     OW50453   0.761   8.824   3.939  0.1503 -0.0859  0.5051
13175SOL    HW150454   0.699   8.879   3.883 -0.1913  0.8957  1.7994
13175SOL    HW250455   0.854   8.829   3.901  0.1678  1.5840  0.7002
13176SOL     OW50456   2.051   4.176   5.243 -0.9064  0.0694  0.1583
13176SOL    HW150457   2.001   4.243   5.297 -0.8593  0.3713 -0.1695
13176SOL    HW250458   1.996   4.151   5.163 -0.3259  0.7643 -0.4605
13177SOL     OW50459   6.200   9.156   1.831 -0.1777  0.7869  0.1565
13177SOL    HW150460   6.259   9.174   1.753  0.1834  0.0196  0.2497
13177SOL    HW250461   6.149   9.239   1.854  1.7685  1.8152  0.8384
13178SOL     OW50462   5.485   7.618   4.044  0.2444 -0.5080 -0.1553
13178SOL    HW150463   5.489   7.627   3.944  0.4340 -0.0472 -0.1046
13178SOL    HW250464   5.538   7.691   4.087 -1.2587  0.3356  0.3095
13179SOL     OW50465   7.427   0.966   3.956 -0.0397  0.1131  0.1312
13179SOL    HW150466   7.527   0.970   3.959  0.0055 -0.7216 -0.2013
13179SOL    HW250467   7.392   1.051   3.917  0.4371  1.3005  2.1970
13180SOL     OW50468   6.950   0.728   3.391 -0.6890  0.2495  0.0584
13180SOL    HW150469   7.002   0.810   3.416  0.6399 -1.7684  4.3002
13180SOL    HW250470   7.011   0.663   3.346 -1.3139  0.7609 -1.5777
13181SOL     OW50471   0.350   0.184   0.902  0.3613  0.3726  0.3529
13181SOL    HW150472   0.359   0.194   1.001  0.7660  0.5120  0.2995
13181SOL    HW250473   0.260   0.146   0.881  0.3959  0.0382  0.7969
13182SOL     OW50474   2.637   3.927   1.529  0.0545 -0.2821  0.5440
13182SOL    HW150475   2.566   3.862   1.503 -0.7721  0.0000  2.0445
13182SOL    HW250476   2.666   3.979   1.449 -2.0427  0.1900  0.0726
13183SOL     OW50477   2.630   3.732   1.121  0.3751 -0.3897  0.3574
13183SOL    HW150478   2.598   3.809   1.176  0.3159 -1.2272  1.5140
13183SOL    HW250479   2.607   3.646   1.167 -0.5931 -1.1504 -1.4548
13184SOL     OW50480   3.390  10.000   2.730 -0.4647  0.0242 -0.1943
13184SOL    HW150481   3.453  10.064   2.775 -1.6562 -1.2541  3.4844
13184SOL    HW250482   3.438   9.914   2.712  0.2752  0.8527 -2.3115
13185SOL     OW50483   9.373   5.595   1.491 -0.4031  0.4403  0.2987
13185SOL    HW150484   9.469   5.581   1.465 -0.2972  1.2465  0.2403
13185SOL    HW250485   9.336   5.511   1.529  0.3049  0.0963  0.2306
13186SOL     OW50486   2.828   2.783   5.090  0.1025 -0.2098  0.1559
13186SOL    HW150487   2.743   2.815   5.132  0.4880  0.9326  0.0889
13186SOL    HW250488   2.880   2.862   5.055  1.3677 -0.8593  0.5432
13187SOL     OW50489   9.540   6.931  -0.004 -0.0996 -0.2388 -0.0144
13187SOL    HW150490   9.602   6.985   0.054 -1.5221  1.2874  0.1195
13187SOL    HW250491   9.470   6.889   0.053 -1.4698  1.2221 -0.5914
13188SOL     OW50492   1.843   2.619   5.317 -0.6019  0.0445  0.1456
13188SOL    HW150493   1.924   2.562   5.336 -1.1471 -1.4618 -1.8431
13188SOL    HW250494   1.873   2.707   5.281  0.2120  0.3477  1.5356
13189SOL     OW50495   3.002   7.651   0.072  0.9763 -0.5997  0.1455
13189SOL    HW150496   2.914   7.698   0.082  0.9661 -0.2484 -1.3675
13189SOL    HW250497   3.066   7.684   0.142  1.0984  2.0391 -1.1370
13190SOL     OW50498   9.060   7.638   1.391  0.1014 -0.5089 -0.3974
13190SOL    HW150499   9.074   7.635   1.292 -0.8869 -0.1607 -0.5520
13190SOL    HW250500   9.000   7.563   1.419 -3.8296  2.3075 -0.7948
13191SOL     OW50501   3.437   0.985   0.613  0.5637 -0.4429  0.0426
13191SOL    HW150502   3.398   1.059   0.669  1.0252 -1.8529  2.3095
13191SOL    HW250503   3.525   0.958   0.652  0.7016 -1.7455 -1.1464
13192SOL     OW50504   8.712   4.086   1.983 -0.1846  0.5664  0.2414
13192SOL    HW150505   8.783   4.080   1.913 -1.1859 -0.2639 -0.7261
13192SOL    HW250506   8.654   4.166   1.966 -2.0212 -1.0693 -1.4410
13193SOL     OW50507   0.395   8.569   0.803  0.3477 -0.3795  0.0716
13193SOL    HW150508   0.445   8.652   0.829  0.2580 -1.4571  4.0355
13193SOL    HW250509   0.298   8.592   0.793  0.5682  0.3143 -0.5639
13194SOL     OW50510   7.714   1.646   4.386  0.2075 -0.3562 -0.2900
13194SOL    HW150511   7.676   1.591   4.312  1.4927 -1.6778  0.0100
13194SOL    HW250512   7.695   1.600   4.474 -0.8122  0.9091  0.1645
13195SOL     OW50513   2.016   3.601   2.523  0.2665 -0.2131 -0.4541
13195SOL    HW150514   2.110   3.631   2.512  0.1985 -0.1906 -1.0050
13195SOL    HW250515   1.967   3.665   2.582  0.4250  0.1330 -0.6960
13196SOL     OW50516   5.038   1.581   5.599 -0.3684 -0.0985 -0.0999
13196SOL    HW150517   4.984   1.498   5.608 -0.2367 -0.4476 -2.1713
13196SOL    HW250518   4.979   1.656   5.571 -0.5981  0.6819  2.3787
13197SOL     OW50519   2.971   2.381   2.289 -0.0516 -0.1206 -0.2541
13197SOL    HW150520   2.917   2.455   2.330  0.1653  1.3246 -2.5100
13197SOL    HW250521   2.910   2.321   2.237  0.2234  0.2661 -1.0172
13198SOL     OW50522   9.345   7.796   4.075  0.2780  0.2128  0.1092
13198SOL    HW150523   9.331   7.726   4.144  1.2772  1.0284  1.1496
13198SOL    HW250524   9.416   7.767   4.011  0.7124  0.2930  0.5582
13199SOL     OW50525   1.895   1.321   0.472 -0.0541  0.4090 -0.4441
13199SOL    HW150526   1.858   1.281   0.556  0.2584  1.0245 -0.0066
13199SOL    HW250527   1.889   1.254   0.398  1.7636 -0.9667  0.5915
13200SOL     OW50528   0.568   0.717   4.924 -0.5378  0.3947 -0.0945
13200SOL    HW150529   0.655   0.669   4.918 -0.5154  0.0440  2.4143
13200SOL    HW250530   0.532   0.734   4.832  2.8350  1.8291 -1.2189
13201SOL     OW50531   5.483   7.454   2.506  0.2347 -0.6571  0.3773
13201SOL    HW150532   5.385   7.443   2.493 -0.2086  1.3601  1.6601
13201SOL    HW250533   5.500   7.496   2.596  2.1050  0.9739 -0.6821
13202SOL     OW50534   9.213   5.140   0.309 -0.0576  0.5791 -0.1881
13202SOL    HW150535   9.224   5.048   0.273 -0.4935 -0.3769  2.0399
13202SOL    HW250536   9.154   5.137   0.390  0.7712  2.6668  0.5197
13203SOL     OW50537   5.830   3.598   0.030 -0.1289  0.5735 -0.0842
13203SOL    HW150538   5.825   3.531   0.104 -2.4520  0.9598  0.1539
13203SOL    HW250539   5.740   3.640   0.017  0.4786  1.2058 -2.5021
13204SOL     OW50540   0.011   7.281   4.634 -1.1208 -0.2528  0.1948
13204SOL    HW150541  -0.037   7.220   4.697 -0.3159 -0.3211  0.7452
13204SOL    HW250542  -0.052   7.351   4.601 -2.5808 -2.4531 -1.8759
13205SOL     OW50543   8.672   8.238   4.961 -0.0870  0.0762  0.2270
13205SOL    HW150544   8.702   8.289   5.041 -0.1196  1.2186 -0.4692
13205SOL    HW250545   8.737   8.251   4.886 -0.0819 -0.9340  0.0479
13206SOL     OW50546   8.608   2.643   0.142 -0.0102  0.1102 -0.3369
13206SOL    HW150547   8.526   2.607   0.188  1.0876 -2.2372 -0.1317
13206SOL    HW250548   8.624   2.591   0.059  0.9971  0.9002 -0.6373
13207SOL     OW50549   1.574   1.436   0.748  0.7127  0.6410  0.6958
13207SOL    HW150550   1.583   1.427   0.649  0.8063  0.3539  0.7292
13207SOL    HW250551   1.504   1.504   0.769  2.0121  2.0633  0.4352
13208SOL     OW50552   3.622   7.176   2.369 -0.3975  0.2646  0.1912
13208SOL    HW150553   3.683   7.107   2.331 -0.3978  0.1499  0.3988
13208SOL    HW250554   3.527   7.153   2.345 -0.5750 -0.8773  1.9140
13209SOL     OW50555   3.171   8.589   5.187 -0.1438  0.9839  0.5417
13209SOL    HW150556   3.266   8.561   5.179 -0.2338  0.4333  1.3917
13209SOL    HW250557   3.113   8.508   5.199 -0.8980  1.1744 -1.5613
13210SOL     OW50558   0.324   1.166   2.514 -0.1420 -0.0091  0.2994
13210SOL    HW150559   0.369   1.249   2.481 -0.8334  0.9070  1.6368
13210SOL    HW250560   0.385   1.087   2.498  1.5810  1.0947  1.2913
13211SOL     OW50561   7.247   8.546   2.934  0.0025 -0.0828 -0.4943
13211SOL    HW150562   7.309   8.497   2.994 -0.8527 -0.0338  0.4419
13211SOL    HW250563   7.242   8.642   2.962  2.3835  0.8021 -2.8847
13212SOL     OW50564   8.034   2.377   2.416  0.0851  0.6067  0.1026
13212SOL    HW150565   8.031   2.467   2.371 -1.1822  1.4192  1.7446
13212SOL    HW250566   8.032   2.390   2.515 -0.7115 -1.2561  0.3455
13213SOL     OW50567   0.932   0.400   1.713 -1.0287  0.5246 -0.7001
13213SOL    HW150568   0.918   0.409   1.812  1.0111  0.7403 -0.4136
13213SOL    HW250569   0.870   0.461   1.664 -0.2677  2.3297  0.5464
13214SOL     OW50570   4.167   6.247   2.323  0.7105  0.5807  0.0212
13214SOL    HW150571   4.204   6.194   2.246 -1.0112  1.3501 -1.3644
13214SOL    HW250572   4.223   6.230   2.404  0.6547 -2.8080 -0.5493
13215SOL     OW50573   9.350   4.588   5.477  0.0304  0.5005 -0.1374
13215SOL    HW150574   9.308   4.535   5.403  0.2423  0.5191 -0.2711
13215SOL    HW250575   9.429   4.538   5.513  0.1512  0.6678 -0.1759
13216SOL     OW50576   3.618   1.608   4.611 -0.7345  0.4019 -0.5643
13216SOL    HW150577   3.605   1.638   4.516 -1.5876  0.7134 -0.3519
13216SOL    HW250578   3.554   1.535   4.631  0.4735 -0.7096 -0.6836
13217SOL     OW50579   8.381   4.444   4.212  0.0581  0.1155  0.4430
13217SOL    HW150580   8.447   4.382   4.169 -0.0092 -0.4189  1.1003
13217SOL    HW250581   8.422   4.535   4.219  0.4973 -0.0655  0.2901
13218SOL     OW50582   2.240   3.419   0.950  0.3969 -0.2175 -0.6289
13218SOL    HW150583   2.172   3.406   0.878 -0.4559  0.3126  0.0748
13218SOL    HW250584   2.309   3.484   0.919 -0.1825  0.3141 -0.8244
13219SOL     OW50585   4.011   3.718   1.933 -0.6494 -0.0842 -0.6453
13219SOL    HW150586   3.987   3.691   1.840  1.4634  1.3286 -1.6461
13219SOL    HW250587   4.011   3.818   1.941 -0.4887 -0.1798  0.7708
13220SOL     OW50588   1.234   2.250   5.216  0.4655 -0.1099 -0.4131
13220SOL    HW150589   1.275   2.249   5.307  1.0811  2.1275 -0.6328
13220SOL    HW250590   1.143   2.209   5.220  1.0102 -1.2253  0.9339
13221SOL     OW50591   6.120   0.314   1.894  0.1428  0.1980  0.2638
13221SOL    HW150592   6.146   0.218   1.907 -0.4574  0.1566  1.1704
13221SOL    HW250593   6.060   0.343   1.969  1.1887  1.5935  0.5801
13222SOL     OW50594   0.192   5.707   5.218 -0.2281  0.2523  0.0221
13222SOL    HW150595   0.127   5.633   5.233  1.1520 -0.7255  1.4515
13222SOL    HW250596   0.222   5.743   5.307  0.4952  1.2741 -0.6229
13223SOL     OW50597   8.784   0.139   4.880  0.1887  0.3648 -0.0651
13223SOL    HW150598   8.734   0.098   4.804 -0.3492 -0.6173  0.8175
13223SOL    HW250599   8.774   0.083   4.962  1.2058  1.1338  0.6067
13224SOL     OW50600   2.673   4.380   1.180  0.0509  0.0984  0.4546
13224SOL    HW150601   2.732   4.409   1.255  0.4096 -2.2601  1.1218
13224SOL    HW250602   2.580   4.368   1.213 -0.3262  1.4425 -0.0606
13225SOL     OW50603   8.568   9.357   1.270  0.2186 -0.3387 -0.1144
13225SOL    HW150604   8.556   9.371   1.172 -0.0379 -0.1749 -0.0607
13225SOL    HW250605   8.663   9.374   1.294 -0.4117  3.0398  0.2111
13226SOL     OW50606   7.215   0.360   1.005  0.8170  0.1563 -0.0996
13226SOL    HW150607   7.192   0.439   0.947 -1.1345 -0.1283  0.2375
13226SOL    HW250608   7.252   0.392   1.092 -0.5656  0.7384  0.2878
13227SOL     OW50609   1.606   2.411   4.930 -0.3407 -0.0402 -0.3093
13227SOL    HW150610   1.547   2.336   4.960 -0.5863  1.2156  2.5174
13227SOL    HW250611   1.556   2.468   4.865 -0.5104 -1.7036 -1.6667
13228SOL     OW50612   8.842   9.372   1.367  0.2161 -0.1549 -0.5351
13228SOL    HW150613   8.818   9.316   1.446 -1.2511  0.8169 -0.2753
13228SOL    HW250614   8.923   9.427   1.388  0.5090 -0.7389 -0.1205
13229SOL     OW50615   9.474   2.087   2.114  0.1995  0.0973  0.4964
13229SOL    HW150616   9.491   2.169   2.169 -0.2769 -0.2307  1.1333
13229SOL    HW250617   9.405   2.030   2.159 -0.9382  0.3241 -0.9541
13230SOL     OW50618   4.270   2.635   3.506  0.4668 -0.7066  0.4257
13230SOL    HW150619   4.191   2.691   3.528 -0.2536 -0.4532 -2.6447
13230SOL    HW250620   4.341   2.692   3.463  1.5669 -1.2924  1.4275
13231SOL     OW50621   9.251   5.193   0.646  0.2351 -0.3269 -0.7791
13231SOL    HW150622   9.245   5.217   0.742  2.7562 -0.0433 -0.6714
13231SOL    HW250623   9.170   5.141   0.620 -0.8133  0.2120  1.2948
13232SOL     OW50624   0.694   9.936   2.460 -0.0330 -0.2662 -0.1932
13232SOL    HW150625   0.694  10.033   2.434  0.8938 -0.3185 -0.4265
13232SOL    HW250626   0.668   9.881   2.381 -2.4789 -0.1018  0.4601
13233SOL     OW50627   4.282   0.798   4.475 -0.3116 -0.0415 -0.2961
13233SOL    HW150628   4.314   0.761   4.562  0.6764 -0.2275 -0.7284
13233SOL    HW250629   4.288   0.898   4.477  0.5044 -0.0831 -0.4463
13234SOL     OW50630   2.375   5.826   2.974 -0.0104  0.2341 -0.4676
13234SOL    HW150631   2.353   5.793   2.882  0.4893  0.4216 -0.6519
13234SOL    HW250632   2.473   5.816   2.991  0.0839  1.2593 -0.3753
13235SOL     OW50633   2.660   1.125   5.380  0.1481  0.4650 -0.6140
13235SOL    HW150634   2.653   1.079   5.292  1.8827  2.6921 -1.9765
13235SOL    HW250635   2.755   1.149   5.398 -0.6153  3.0514  0.2306
13236SOL     OW50636   5.118   9.419   2.740 -0.1338 -0.2841  0.3713
13236SOL    HW150637   5.159   9.356   2.674 -0.7854  0.2732 -0.5711
13236SOL    HW250638   5.124   9.380   2.832  0.9225 -0.9922  0.0105
13237SOL     OW50639   3.806   3.887   1.569  0.2613 -0.1789 -0.5232
13237SOL    HW150640   3.753   3.917   1.489  1.5396  2.4979 -0.4326
13237SOL    HW250641   3.783   3.945   1.647  2.8981  0.7451 -0.3698
13238SOL     OW50642   3.415   9.809   5.004  0.4703 -0.4321  0.2712
13238SOL    HW150643   3.389   9.863   4.924 -1.1577 -2.8703 -0.9169
13238SOL    HW250644   3.420   9.868   5.084 -0.3952  1.6239 -1.1531
13239SOL     OW50645   8.793   0.874   4.048 -0.0063  0.0962 -0.7443
13239SOL    HW150646   8.872   0.918   4.007 -0.8371  0.4148 -2.0514
13239SOL    HW250647   8.777   0.786   4.004 -0.5182  0.1382 -0.6523
13240SOL     OW50648   3.087   2.596   0.323 -0.0298  0.2787  0.1751
13240SOL    HW150649   3.062   2.564   0.415  1.8211  0.7263  0.8439
13240SOL    HW250650   3.064   2.693   0.314  0.3700  0.3946  0.3890
13241SOL     OW50651   2.013   9.864   0.091  0.0502 -0.2346 -0.1196
13241SOL    HW150652   2.035   9.862   0.188 -2.7542  0.8920  0.5864
13241SOL    HW250653   2.022   9.772   0.053  0.9723 -0.7206  1.2268
13242SOL     OW50654   7.823   5.564   0.125  0.1234  0.2328 -0.1081
13242SOL    HW150655   7.854   5.639   0.184  1.2719  0.2718 -0.7601
13242SOL    HW250656   7.731   5.537   0.153  0.0066  1.3542  0.6477
13243SOL     OW50657   1.880   2.683   4.182 -0.2864  0.1127  0.6397
13243SOL    HW150658   1.917   2.706   4.272 -2.6964  1.8837  1.2057
13243SOL    HW250659   1.781   2.697   4.181 -0.3765 -0.3652 -2.1539
13244SOL     OW50660   1.683   8.802   3.348  0.3798 -0.3204  0.2285
13244SOL    HW150661   1.620   8.830   3.275  0.9058  1.1646  0.3237
13244SOL    HW250662   1.630   8.776   3.429 -0.1522 -0.5077 -0.1693
13245SOL     OW50663   6.541   9.777   4.036 -0.0005 -0.4677 -0.3959
13245SOL    HW150664   6.605   9.719   3.986 -1.4099 -0.6765 -1.9987
13245SOL    HW250665   6.503   9.725   4.113  1.0233 -0.6478 -0.0007
13246SOL     OW50666   1.834   3.497   3.618  0.3298  0.0224 -0.4995
13246SOL    HW150667   1.751   3.514   3.673  0.1406  1.0358 -1.0831
13246SOL    HW250668   1.811   3.440   3.540  0.0395  0.8684 -1.0364
13247SOL     OW50669   9.257   8.211   2.114 -0.5313  0.1569 -0.6262
13247SOL    HW150670   9.246   8.115   2.138 -2.6920  0.4098 -0.4745
13247SOL    HW250671   9.168   8.249   2.087  0.7164  1.4769 -3.0915
13248SOL     OW50672   8.664   1.923   4.655 -0.2024 -0.2788  0.0698
13248SOL    HW150673   8.669   1.858   4.579  0.0244  0.0198 -0.1734
13248SOL    HW250674   8.708   2.009   4.628 -0.2336 -0.1284  0.4952
13249SOL     OW50675   0.106   1.108   3.870  0.1003 -0.0937 -0.1536
13249SOL    HW150676   0.168   1.138   3.798  1.0739  0.7172  0.9995
13249SOL    HW250677   0.060   1.188   3.910  0.4100 -0.4266  0.8806
13250SOL     OW50678   9.555   2.314   2.571 -0.1986 -0.0828 -0.3995
13250SOL    HW150679   9.647   2.280   2.592 -0.1592 -0.3426 -0.9667
13250SOL    HW250680   9.488   2.266   2.628 -0.0854 -0.6978 -0.7848
13251SOL     OW50681   4.743   0.200   3.989 -0.0910  0.1064  0.3697
13251SOL    HW150682   4.685   0.202   4.070  0.0914 -0.5488  0.5199
13251SOL    HW250683   4.734   0.111   3.943  1.4833 -0.3478  0.9020
13252SOL     OW50684   0.397   1.848   1.978  0.6292 -0.1287 -0.0703
13252SOL    HW150685   0.390   1.943   1.948  0.4308  0.6875  2.4695
13252SOL    HW250686   0.492   1.817   1.972  0.8731  0.5780  0.1553
13253SOL     OW50687   8.822   6.519   5.450 -0.2356 -0.4809  0.0362
13253SOL    HW150688   8.820   6.513   5.550  2.6744 -1.1635  0.1129
13253SOL    HW250689   8.746   6.467   5.411 -0.7261 -1.1517  1.8602
13254SOL     OW50690   6.326   7.328   3.345 -0.0459  0.1213  0.3723
13254SOL    HW150691   6.330   7.415   3.395  1.3964  0.0339  0.4507
13254SOL    HW250692   6.358   7.254   3.404  0.3740 -0.1877 -0.2307
13255SOL     OW50693   3.711   8.123   1.507 -0.5721  0.2028  0.3661
13255SOL    HW150694   3.771   8.154   1.581 -0.2280  2.6174 -0.8750
13255SOL    HW250695   3.617   8.119   1.540 -0.2720  0.2686  1.2391
13256SOL     OW50696   9.720   7.939   0.131 -0.0744 -0.2171  0.3221
13256SOL    HW150697   9.750   7.877   0.204 -1.1340  2.2289  2.9621
13256SOL    HW250698   9.637   7.902   0.089  1.4580 -2.4671 -0.8078
13257SOL     OW50699   2.048   8.755   1.143 -0.4261 -0.7210 -0.0372
13257SOL    HW150700   2.141   8.766   1.178 -0.2954 -0.1906 -0.5480
13257SOL    HW250701   1.982   8.782   1.214 -0.2517 -3.0729  1.0641
13258SOL     OW50702   8.519   0.849   1.591 -0.5364 -0.0054  0.7045
13258SOL    HW150703   8.535   0.836   1.689 -1.2375 -0.3443  0.7840
13258SOL    HW250704   8.506   0.946   1.572  2.5033  0.3772  0.4752
13259SOL     OW50705   9.940   7.711   0.971 -0.0212 -0.0521 -0.2708
13259SOL    HW150706   9.981   7.621   0.985  0.0742 -0.3847 -2.5506
13259SOL    HW250707  10.012   7.780   0.973  0.0704 -0.1564  0.1669
13260SOL     OW50708   2.827   6.225   3.072  0.2215 -0.8231 -0.6729
13260SOL    HW150709   2.770   6.144   3.062  0.5172 -0.9829 -1.0538
13260SOL    HW250710   2.786   6.301   3.022 -0.4029 -0.5562  0.2246
13261SOL     OW50711   1.509   7.759   1.595  0.9064 -0.1939 -0.3792
13261SOL    HW150712   1.483   7.714   1.509 -0.7425  0.2779 -0.1406
13261SOL    HW250713   1.463   7.847   1.601  1.6820  0.1455  0.6039
13262SOL     OW50714   3.043   0.624   2.486 -0.0555 -0.3140  0.4282
13262SOL    HW150715   3.060   0.645   2.582 -0.3502 -0.4864  0.5169
13262SOL    HW250716   2.985   0.543   2.479 -0.6521  0.1354  0.1158
13263SOL     OW50717   2.836   7.076   1.280 -0.1875  0.0507 -0.3522
13263SOL    HW150718   2.885   7.116   1.203  0.0639  0.6675  0.1184
13263SOL    HW250719   2.748   7.040   1.249 -0.2513  0.6339 -0.8560
13264SOL     OW50720   1.698   4.825   3.170 -0.7802 -0.9930  0.4919
13264SOL    HW150721   1.742   4.901   3.122 -2.7097 -0.4055 -0.4057
13264SOL    HW250722   1.740   4.814   3.260  0.5807  0.1011  0.0246
13265SOL     OW50723   1.872   2.946   5.568 -0.3091 -0.1059 -0.0701
13265SOL    HW150724   1.919   2.858   5.569 -1.2798 -0.6315  0.1285
13265SOL    HW250725   1.882   2.990   5.658  2.5393  1.2851 -1.0059
13266SOL     OW50726   7.629   9.038   2.840  0.2548 -0.2586 -0.5891
13266SOL    HW150727   7.666   9.035   2.748 -0.5978 -1.9878 -0.8982
13266SOL    HW250728   7.604   8.945   2.869 -1.4153  0.5172  0.5620
13267SOL     OW50729   4.257   9.903   3.245 -0.3470 -0.6521 -0.4914
13267SOL    HW150730   4.206   9.972   3.296  0.5652  0.8682 -1.6043
13267SOL    HW250731   4.199   9.862   3.175 -0.4986 -0.0414 -0.7227
13268SOL     OW50732   8.908   0.482   5.290  0.4687  0.1513  0.3577
13268SOL    HW150733   8.992   0.474   5.342  0.9921 -2.8831 -0.8188
13268SOL    HW250734   8.844   0.411   5.320  0.0207 -0.3453 -1.7013
13269SOL     OW50735   0.058   8.798   4.499 -0.0362  0.0345  0.1467
13269SOL    HW150736   0.074   8.834   4.407 -0.3496 -0.3793 -0.0755
13269SOL    HW250737  -0.029   8.748   4.500 -1.3433  2.2737  1.3495
13270SOL     OW50738   5.704   6.670   2.281 -0.1707 -0.2385 -0.2849
13270SOL    HW150739   5.783   6.646   2.337 -0.0736 -0.4783 -0.5244
13270SOL    HW250740   5.635   6.599   2.288  0.5314 -1.1053 -1.7846
13271SOL     OW50741   1.261   3.920   0.676  0.1640  0.4638 -0.3561
13271SOL    HW150742   1.282   3.847   0.741 -1.1605  1.5841  1.3843
13271SOL    HW250743   1.167   3.908   0.643  0.0089  1.2825 -0.2047
13272SOL     OW50744   2.794   8.102   5.628  0.3791  0.6213 -0.4674
13272SOL    HW150745   2.880   8.130   5.670  0.6230 -1.3387  0.4179
13272SOL    HW250746   2.724   8.172   5.644  0.6024  0.1669  2.8329
13273SOL     OW50747   3.662   7.788   2.029 -0.3507 -0.0009 -0.3224
13273SOL    HW150748   3.688   7.883   2.042 -0.1055 -0.3567  1.8832
13273SOL    HW250749   3.601   7.781   1.950 -0.9429  2.0798 -0.0722
13274SOL     OW50750   9.553   3.467   2.324  0.0802  0.2155  0.0203
13274SOL    HW150751   9.469   3.511   2.291 -0.1198  0.1764  0.4721
13274SOL    HW250752   9.549   3.370   2.304 -0.4161  0.0442  0.8890
13275SOL     OW50753   1.331   3.596   5.189  0.2125  0.1414  0.1414
13275SOL    HW150754   1.358   3.511   5.234  0.2890 -0.3201 -0.7447
13275SOL    HW250755   1.284   3.656   5.254 -0.0438 -0.6782  0.7170
13276SOL     OW50756   1.207   6.057   0.526  0.1070 -0.3124  0.4633
13276SOL    HW150757   1.193   6.110   0.442 -0.8806 -0.6146  0.4446
13276SOL    HW250758   1.215   5.960   0.504 -0.4437 -0.4235  0.7495
13277SOL     OW50759   3.333   4.668   2.083 -0.2059 -0.4921 -0.0900
13277SOL    HW150760   3.411   4.723   2.112  0.1621 -0.1606 -1.6590
13277SOL    HW250761   3.258   4.680   2.147  0.5460  0.3047  0.6483
13278SOL     OW50762   9.608   1.281   2.667  0.1668 -0.2120  0.0648
13278SOL    HW150763   9.595   1.294   2.568 -1.7630  2.9990  0.6681
13278SOL    HW250764   9.532   1.227   2.703 -0.9371  1.4409  0.2871
13279SOL     OW50765   4.958   0.017   2.475 -0.0989 -0.8005  0.0899
13279SOL    HW150766   4.949   0.117   2.485  0.5229 -0.7488  0.1216
13279SOL    HW250767   4.964  -0.025   2.565 -0.7826 -0.9063  0.0873
13280SOL     OW50768   5.626   0.012   4.572 -0.1653  0.0274  0.2614
13280SOL    HW150769   5.614   0.051   4.664  0.9001 -3.3449  1.9199
13280SOL    HW250770   5.631  -0.088   4.579 -0.5421 -0.3315 -3.5575
13281SOL     OW50771   8.475   9.804   3.974  0.0494  0.1254 -0.1167
13281SOL    HW150772   8.519   9.718   3.947  0.2957  0.1395  0.2403
13281SOL    HW250773   8.405   9.827   3.906 -0.8455 -0.9761  0.4041
13282SOL     OW50774   3.888   7.893   0.553 -0.5042  0.0368  0.2492
13282SOL    HW150775   3.803   7.852   0.586 -0.7836  1.1711  0.9886
13282SOL    HW250776   3.883   7.992   0.563  1.7904 -0.0035  2.5318
13283SOL     OW50777   9.931   5.562   0.361  0.2219 -0.3579  0.6422
13283SOL    HW150778   9.858   5.561   0.429  0.4963  1.8211  1.0281
13283SOL    HW250779   9.975   5.653   0.361  1.2229 -0.8095 -1.3757
13284SOL     OW50780   1.508   4.350   2.159 -0.1571 -0.0603  0.2909
13284SOL    HW150781   1.502   4.372   2.061  1.0309 -0.0782  0.2092
13284SOL    HW250782   1.434   4.396   2.208 -1.5126 -1.0545 -0.7911
13285SOL     OW50783   4.532   5.511   2.038  0.1691  0.6156 -0.6442
13285SOL    HW150784   4.486   5.492   1.951  2.7803  0.5256 -2.0772
13285SOL    HW250785   4.510   5.603   2.068 -2.9299 -0.2922  0.0481
13286SOL     OW50786   1.849   2.508   5.055 -0.3931 -0.7488  0.2099
13286SOL    HW150787   1.834   2.536   5.150  0.6195 -0.5382  0.3102
13286SOL    HW250788   1.764   2.471   5.018 -0.5021 -1.8989  1.5617
13287SOL     OW50789   2.311   3.970   5.003 -0.3193  0.1873 -0.0270
13287SOL    HW150790   2.308   3.881   4.958 -2.3126  0.1660  0.1017
13287SOL    HW250791   2.281   3.961   5.098  0.3726  0.8388  0.2576
13288SOL     OW50792   3.087   2.588   2.085  0.5213  0.9522  0.4591
13288SOL    HW150793   2.988   2.598   2.088  0.4485  1.3027 -2.2366
13288SOL    HW250794   3.122   2.580   2.179 -1.9958  1.0762  1.4602
13289SOL     OW50795   7.950   6.615   4.192 -0.1658  0.5753 -0.4601
13289SOL    HW150796   7.964   6.575   4.283  0.5823  1.9846  0.0625
13289SOL    HW250797   7.907   6.548   4.132 -2.2672  0.1866  1.4258
13290SOL     OW50798   2.154   7.425   1.094  0.3714 -0.2827 -0.4837
13290SOL    HW150799   2.130   7.488   1.020  0.5280 -1.0435 -1.1856
13290SOL    HW250800   2.078   7.421   1.160  0.6413  1.1539 -0.0772
13291SOL     OW50801   8.922   5.400   4.601  0.2531  0.1351 -0.0115
13291SOL    HW150802   8.962   5.484   4.564  0.3419 -0.3037 -0.9064
13291SOL    HW250803   8.990   5.352   4.656  0.5248  0.1175 -0.3617
13292SOL     OW50804   4.109   0.641   3.139 -0.1890 -0.4256 -0.5588
13292SOL    HW150805   4.204   0.669   3.153 -0.3805  1.1619 -2.1758
13292SOL    HW250806   4.052   0.681   3.211  0.1079  0.2274 -0.6772
13293SOL     OW50807   0.936   6.031   5.541  0.1821 -0.2242  0.1570
13293SOL    HW150808   0.912   6.074   5.454  0.6853 -1.5548 -0.6587
13293SOL    HW250809   0.865   5.965   5.565  0.2283 -0.1215  0.5662
13294SOL     OW50810   1.025   5.861   2.862  0.5108 -0.1793  0.0704
13294SOL    HW150811   1.120   5.864   2.894 -0.1679  0.5410  2.1459
13294SOL    HW250812   0.971   5.928   2.913 -1.0564 -0.3833 -1.2828
13295SOL     OW50813   8.070   3.719   5.592  0.2440  0.0269  0.3472
13295SOL    HW150814   8.028   3.681   5.675  1.3254 -0.0874  0.8462
13295SOL    HW250815   8.064   3.652   5.518 -0.0816 -0.1533  0.5359
13296SOL     OW50816   1.612   4.078   2.741 -0.2303 -0.0458  0.2550
13296SOL    HW150817   1.685   4.102   2.806  0.6594 -0.2886 -0.6443
13296SOL    HW250818   1.639   4.107   2.649 -2.0330  1.4287  0.1696
13297SOL     OW50819   2.377   5.581   5.148 -0.8163  0.1690 -0.5481
13297SOL    HW150820   2.360   5.636   5.066 -0.3058  0.2647 -0.5891
13297SOL    HW250821   2.475   5.567   5.159 -0.9933 -1.7910 -1.2186
13298SOL     OW50822   8.403   6.254   5.161 -0.5923  1.0924  0.2613
13298SOL    HW150823   8.413   6.334   5.102 -1.8322  1.2486  0.2438
13298SOL    HW250824   8.311   6.254   5.201 -0.7889 -0.6024 -0.1507
13299SOL     OW50825   8.064   7.022   5.271  0.0903 -0.0529  0.4585
13299SOL    HW150826   8.040   7.008   5.367 -1.2759  1.0623  0.3055
13299SOL    HW250827   8.085   6.934   5.229 -0.5869 -0.7084  1.4620
13300SOL     OW50828   3.852   9.995   1.047 -0.0306  0.1311 -0.0398
13300SOL    HW150829   3.925   9.996   1.115 -0.0250  0.9540 -0.0577
13300SOL    HW250830   3.808  10.084   1.044 -0.9268 -0.3051 -0.1485
13301SOL     OW50831   1.600   3.095   1.110  0.2857  0.2759  0.2233
13301SOL    HW150832   1.535   3.037   1.160 -0.3228  2.0039  1.5128
13301SOL    HW250833   1.654   3.039   1.048  0.7972 -1.8944  2.5474
13302SOL     OW50834   8.298   1.777   5.576  0.1495 -0.1639  0.1422
13302SOL    HW150835   8.371   1.708   5.576 -0.5782 -0.9881 -2.0503
13302SOL    HW250836   8.334   1.863   5.611  1.3169 -1.4044  2.1201
13303SOL     OW50837   7.858   8.899   5.113  0.6961  0.1431 -0.0547
13303SOL    HW150838   7.783   8.846   5.073 -0.0629  0.2068  1.2729
13303SOL    HW250839   7.938   8.894   5.052  0.0528 -1.0155 -0.8328
13304SOL     OW50840   0.251   5.435   3.260 -0.1763  0.1940 -0.1815
13304SOL    HW150841   0.243   5.534   3.245 -1.8534 -0.0624 -0.9662
13304SOL    HW250842   0.216   5.386   3.181 -0.4428 -1.0561  0.7055
13305SOL     OW50843   3.491   7.803   3.900 -0.6452  0.1107 -0.1088
13305SOL    HW150844   3.424   7.776   3.968 -0.4065  1.0425  0.5063
13305SOL    HW250845   3.465   7.891   3.860 -0.7663 -0.4086 -1.1992
13306SOL     OW50846   9.516   6.832   4.081 -0.4933  0.1572 -0.5170
13306SOL    HW150847   9.551   6.829   3.988 -1.4915  0.6302 -0.9243
13306SOL    HW250848   9.504   6.928   4.109  1.0396  0.0404  0.5809
13307SOL     OW50849   7.562   3.621   4.744 -0.4015 -0.1490 -0.1882
13307SOL    HW150850   7.558   3.707   4.693  0.9916  0.3037  0.4482
13307SOL    HW250851   7.495   3.623   4.818  0.1222  0.6854  0.2706
13308SOL     OW50852   7.801   0.348   0.606  0.0692 -0.6412 -0.1095
13308SOL    HW150853   7.889   0.354   0.560 -0.1774  0.4789 -0.4536
13308SOL    HW250854   7.812   0.304   0.696  1.5382  2.4058  1.2618
13309SOL     OW50855   9.901   4.780   4.039 -0.4893 -0.2133 -0.1222
13309SOL    HW150856   9.930   4.772   3.943 -1.2258 -0.1219 -0.3580
13309SOL    HW250857   9.978   4.758   4.099 -0.0278 -0.2997 -0.7361
13310SOL     OW50858   0.581   4.184   1.983  0.2010  0.1284 -0.0419
13310SOL    HW150859   0.594   4.201   1.885  1.0529 -3.9038 -0.7204
13310SOL    HW250860   0.483   4.174   2.002  0.1586 -1.0715 -0.8634
13311SOL     OW50861   3.917   2.168   4.154  0.0316  0.2017 -0.3339
13311SOL    HW150862   3.994   2.165   4.217 -0.4859  1.0567  0.3523
13311SOL    HW250863   3.945   2.214   4.069 -0.1642  2.0484  0.5661
13312SOL     OW50864   7.635   7.963   2.032  0.5111 -0.0902 -0.4612
13312SOL    HW150865   7.677   8.027   2.096  0.5145 -0.4193 -0.1300
13312SOL    HW250866   7.637   7.871   2.071 -0.4639 -0.1197 -0.4630
13313SOL     OW50867   4.865   2.041   3.680 -0.5675 -0.4489  0.2888
13313SOL    HW150868   4.882   1.973   3.608 -0.9658 -0.2611  0.0164
13313SOL    HW250869   4.811   1.999   3.753  0.0346 -0.7067  0.5937
13314SOL     OW50870   2.592   8.769   5.144 -0.1675  0.0275 -0.3055
13314SOL    HW150871   2.666   8.777   5.077 -1.3730  0.8839 -1.5787
13314SOL    HW250872   2.550   8.859   5.158 -0.0070 -0.1750  1.5165
13315SOL     OW50873   1.971   7.532   4.479  0.3388  0.6335 -0.0963
13315SOL    HW150874   1.931   7.548   4.569  0.1054 -2.0587  0.3072
13315SOL    HW250875   2.056   7.481   4.489  1.9013  2.9450 -1.2183
13316SOL     OW50876   2.410   3.625   0.903  0.3024 -0.1126 -0.4777
13316SOL    HW150877   2.394   3.691   0.977 -0.9650 -0.8883 -0.0349
13316SOL    HW250878   2.501   3.638   0.865  0.5249  1.0694  0.4459
13317SOL     OW50879   9.012   1.554   4.412  0.3415 -0.1008 -0.5226
13317SOL    HW150880   9.013   1.511   4.502 -0.0752 -0.0054 -0.4746
13317SOL    HW250881   8.957   1.499   4.349 -0.2451  0.4003 -0.4431
13318SOL     OW50882   8.381   2.740   3.306 -0.1396 -0.1027 -0.6018
13318SOL    HW150883   8.418   2.650   3.287  1.5019  0.7003 -1.2528
13318SOL    HW250884   8.386   2.758   3.405 -0.5179 -0.7292 -0.4641
13319SOL     OW50885   4.628   9.984   0.582  0.3814 -0.0804  0.5109
13319SOL    HW150886   4.642   9.899   0.634  0.9989  1.6892  3.3342
13319SOL    HW250887   4.717  10.025   0.561  0.0654  0.1806 -0.3200
13320SOL     OW50888   4.858   2.385   1.559 -0.4639 -0.2454 -0.0010
13320SOL    HW150889   4.907   2.469   1.582  0.8014 -1.0135  0.1262
13320SOL    HW250890   4.760   2.404   1.556 -0.1796  1.2788 -0.1544
13321SOL     OW50891   2.660   5.895   3.311  0.6450  0.1688 -1.4860
13321SOL    HW150892   2.697   5.803   3.297 -0.5695 -0.5947  0.2268
13321SOL    HW250893   2.712   5.942   3.382 -1.7598 -1.0344  1.1811
13322SOL     OW50894   9.279   4.113   2.129  0.2198  0.0991 -0.0086
13322SOL    HW150895   9.344   4.150   2.196  0.7921 -0.7497 -0.0822
13322SOL    HW250896   9.255   4.019   2.155 -0.9481  0.3927 -0.0113
13323SOL     OW50897   6.200   4.085   0.021  0.6225  0.2705 -0.2200
13323SOL    HW150898   6.287   4.082  -0.030  1.6108  0.4323  1.4258
13323SOL    HW250899   6.130   4.034  -0.029  1.6622  0.1306 -1.5639
13324SOL     OW50900   3.803   0.647   3.589 -0.2771 -0.3967 -0.6254
13324SOL    HW150901   3.724   0.607   3.635  0.1902 -0.5753  0.0367
13324SOL    HW250902   3.861   0.692   3.657  1.3378 -2.2017 -0.7622
13325SOL     OW50903   8.930   8.073   1.145  0.2735 -0.1232  0.1313
13325SOL    HW150904   8.938   8.018   1.229  1.1590  0.2212  0.2775
13325SOL    HW250905   8.841   8.055   1.102 -0.1418 -0.3871  1.0818
13326SOL     OW50906   4.175   3.097   4.746  0.0088  0.7536 -0.3740
13326SOL    HW150907   4.171   3.158   4.825 -1.3154  1.7995 -1.2107
13326SOL    HW250908   4.101   3.121   4.682  0.6533 -0.4928 -1.6117
13327SOL     OW50909   1.740   4.360   3.177 -0.2207 -0.5517 -0.6146
13327SOL    HW150910   1.720   4.443   3.124 -0.6805 -1.1946 -1.4549
13327SOL    HW250911   1.733   4.380   3.275  1.0239  0.7515 -0.7733
13328SOL     OW50912   4.282   0.561   1.103 -0.4174 -1.2540  0.1347
13328SOL    HW150913   4.303   0.659   1.098  1.1836 -1.6297 -0.7144
13328SOL    HW250914   4.299   0.528   1.196 -1.3133 -0.6604  0.5181
13329SOL     OW50915   0.922   1.019   0.547 -0.0596 -0.2157  0.1628
13329SOL    HW150916   0.932   1.070   0.462 -0.2980  0.0010  0.2636
13329SOL    HW250917   0.831   0.976   0.550 -0.4196  0.5694  0.7366
13330SOL     OW50918   6.695   0.452   3.585  0.6343 -0.5053 -0.5258
13330SOL    HW150919   6.777   0.509   3.588  0.8193 -0.8254  0.7970
13330SOL    HW250920   6.686   0.403   3.672 -0.2291 -1.4901 -1.1678
13331SOL     OW50921   1.040   4.971   5.489  0.2657 -0.5803 -0.1943
13331SOL    HW150922   0.947   4.953   5.458 -0.5925  1.1991  1.3242
13331SOL    HW250923   1.091   5.018   5.416 -0.6523  0.3026 -0.2713
13332SOL     OW50924   1.309   5.155   3.496  0.2063 -0.3155  0.5894
13332SOL    HW150925   1.249   5.117   3.566 -1.4456 -0.6430 -0.9490
13332SOL    HW250926   1.309   5.095   3.416  2.5516 -0.2669  0.5361
13333SOL     OW50927   8.213   2.979   4.652  0.4675 -1.0851  0.0773
13333SOL    HW150928   8.241   3.045   4.582 -1.8680  2.6398  2.4840
13333SOL    HW250929   8.259   2.999   4.738  0.3377 -3.1627  0.6557
13334SOL     OW50930   4.206   2.447   3.730 -0.7448 -0.2964  0.0744
13334SOL    HW150931   4.169   2.522   3.785  1.2440  0.1840  0.7680
13334SOL    HW250932   4.224   2.480   3.637 -0.3147 -0.0440  0.2476
13335SOL     OW50933   3.283   8.179   3.009  0.2607 -0.0327 -0.0634
13335SOL    HW150934   3.259   8.091   3.050 -0.7368  0.4238  0.3511
13335SOL    HW250935   3.356   8.222   3.063 -1.6006  0.9343  1.7584
13336SOL     OW50936   1.960   5.499   5.490  0.4204  0.7079 -0.0581
13336SOL    HW150937   1.860   5.500   5.485  0.3655  1.2859  0.9758
13336SOL    HW250938   1.998   5.498   5.397 -0.5419  0.3107 -0.4555
13337SOL     OW50939   8.851   2.222   5.074  0.0627  0.5061 -0.2296
13337SOL    HW150940   8.828   2.248   5.168  1.6446  1.4584 -0.0994
13337SOL    HW250941   8.934   2.269   5.046  1.6580 -2.5516 -0.8332
13338SOL     OW50942   0.821   9.261   1.706 -0.1386 -0.5308 -0.3356
13338SOL    HW150943   0.742   9.220   1.659 -0.6387 -1.4227  1.2311
13338SOL    HW250944   0.824   9.359   1.686 -0.5932 -0.8123 -1.8537
13339SOL     OW50945   9.220   6.773   5.531 -0.1215  0.1405 -0.4176
13339SOL    HW150946   9.267   6.732   5.453 -1.4068  0.8596 -1.5925
13339SOL    HW250947   9.149   6.710   5.564 -2.0495  1.3374 -2.1788
13340SOL     OW50948   4.336   3.920   5.019 -1.5267  0.2892 -0.1324
13340SOL    HW150949   4.391   3.844   5.054 -0.3835  1.4123  0.5535
13340SOL    HW250950   4.270   3.886   4.952  0.4328 -1.0114 -1.4659
13341SOL     OW50951   5.700   8.077   1.302  0.1765  0.1009 -0.5507
13341SOL    HW150952   5.628   8.009   1.290 -0.2695  0.4789 -0.0165
13341SOL    HW250953   5.687   8.152   1.238 -1.0064  1.0966  0.8158
13342SOL     OW50954   2.796   8.633   2.332 -0.4470  0.6831 -0.5566
13342SOL    HW150955   2.729   8.660   2.402  1.8224  0.3216  1.8312
13342SOL    HW250956   2.824   8.713   2.280  0.4826  1.6334  1.3451
13343SOL     OW50957   2.147   3.433   3.418  0.2916  0.2141  0.4778
13343SOL    HW150958   2.110   3.519   3.452  0.5191 -0.0674  1.4698
13343SOL    HW250959   2.237   3.416   3.460  0.5578 -0.1689 -0.2357
13344SOL     OW50960   4.542   9.830   3.692  0.3190 -0.7028 -0.1595
13344SOL    HW150961   4.486   9.856   3.614  2.0653 -1.8143 -1.8375
13344SOL    HW250962   4.498   9.754   3.740 -1.3900  0.8115  0.7167
13345SOL     OW50963   5.563   0.157   2.862 -0.0810 -0.4274 -0.2480
13345SOL    HW150964   5.516   0.160   2.950  2.3384  0.0989  1.0672
13345SOL    HW250965   5.628   0.081   2.861  0.5086  0.0719 -1.2592
13346SOL     OW50966   8.756   3.925   5.099  0.1847 -0.3824  0.2351
13346SOL    HW150967   8.754   4.018   5.136 -1.3983 -0.6464  0.8137
13346SOL    HW250968   8.820   3.922   5.022 -0.9350  1.5622 -0.8006
13347SOL     OW50969   2.121   9.381   4.004  0.0676 -0.0944  0.2830
13347SOL    HW150970   2.221   9.375   4.015 -0.1542  0.1352  2.7933
13347SOL    HW250971   2.096   9.471   3.970  0.5659  0.7889  2.1775
13348SOL     OW50972   0.381   9.438   2.232  0.0056  0.2875  0.2231
13348SOL    HW150973   0.286   9.437   2.263  0.3778 -4.6654  1.7093
13348SOL    HW250974   0.385   9.440   2.132 -1.7666 -1.6249  0.0914
13349SOL     OW50975   5.734   8.121   2.088 -0.1367 -0.3252  0.4463
13349SOL    HW150976   5.642   8.083   2.079 -1.0553  1.8080  0.3542
13349SOL    HW250977   5.731   8.219   2.067  2.0116 -0.0756  1.2186
13350SOL     OW50978   9.231   5.200   4.354  0.0578 -0.5006 -0.7700
13350SOL    HW150979   9.291   5.134   4.400 -0.2187 -0.1686  0.0910
13350SOL    HW250980   9.266   5.293   4.371 -1.7873 -0.1501  1.4556
13351SOL     OW50981   1.977   7.717   3.736 -0.5395  0.8594 -0.3433
13351SOL    HW150982   1.922   7.741   3.816  0.3871 -0.1728  0.6277
13351SOL    HW250983   2.059   7.774   3.733  0.8461 -0.9692  1.0609
13352SOL     OW50984   5.053   6.391   2.440 -0.1928 -0.4339  0.6865
13352SOL    HW150985   5.128   6.386   2.375 -0.2586  0.9046  0.4834
13352SOL    HW250986   5.082   6.442   2.521 -0.2046 -1.8250  1.5937
13353SOL     OW50987   0.973   6.179   1.742  0.5319 -0.0723 -0.4070
13353SOL    HW150988   1.059   6.213   1.780 -0.6659 -0.1364  2.5201
13353SOL    HW250989   0.992   6.117   1.667  3.1046 -1.1164  1.0497
13354SOL     OW50990   9.899   5.260   4.866  0.0062  0.4822 -0.2373
13354SOL    HW150991   9.932   5.243   4.774  1.4881 -0.4350  0.4551
13354SOL    HW250992   9.950   5.336   4.907  1.7220 -1.3130  1.0436
13355SOL     OW50993   8.855   5.650   5.573  0.3517 -0.1361 -0.1714
13355SOL    HW150994   8.952   5.668   5.558  0.1731  1.5484  0.4996
13355SOL    HW250995   8.842   5.612   5.665  0.5845 -2.3762 -1.0543
13356SOL     OW50996   3.097   1.239   1.752 -0.0962  0.0113 -0.0105
13356SOL    HW150997   3.017   1.214   1.806  0.5647 -1.8201  0.1360
13356SOL    HW250998   3.156   1.300   1.806 -0.6286  0.1279  0.4432
13357SOL     OW50999   7.380   1.472   0.576 -0.1436 -0.5787 -0.3870
13357SOL    HW151000   7.320   1.444   0.651 -0.0544  0.2533  0.0052
13357SOL    HW251001   7.328   1.473   0.491 -0.5206 -0.5082 -0.1605
13358SOL     OW51002   0.159   7.086   2.193 -0.1208 -0.3788 -0.2096
13358SOL    HW151003   0.175   7.182   2.170 -3.6426  1.0072  2.7475
13358SOL    HW251004   0.090   7.048   2.131 -1.8354  0.2949  1.2318
13359SOL     OW51005   8.701   3.730   4.041  0.3635  0.0761  0.2731
13359SOL    HW151006   8.758   3.788   4.099  1.2608  0.7590 -1.2516
13359SOL    HW251007   8.618   3.704   4.091  1.1765  0.5176  1.8952
13360SOL     OW51008   9.735   9.468   5.308 -0.2474  1.1608  0.3379
13360SOL    HW151009   9.655   9.415   5.280 -1.4954  2.3065  1.6196
13360SOL    HW251010   9.792   9.414   5.370  0.4368  0.0381 -1.2468
13361SOL     OW51011   3.644   5.191   0.707  0.6195 -0.4582  0.2598
13361SOL    HW151012   3.563   5.248   0.719  1.6269  1.2695 -0.8917
13361SOL    HW251013   3.716   5.221   0.769 -0.0198 -2.8615  2.2558
13362SOL     OW51014   0.847   8.681   3.162 -0.1885  0.0378  0.1588
13362SOL    HW151015   0.851   8.709   3.259 -0.3510 -0.0662  0.1951
13362SOL    HW251016   0.768   8.622   3.148 -0.8737  1.0740 -0.3059
13363SOL     OW51017   8.756   4.677   2.216  0.4260  0.4547  0.8495
13363SOL    HW151018   8.740   4.681   2.315  1.3568 -1.2859  1.0914
13363SOL    HW251019   8.774   4.582   2.189 -2.1104  0.5719 -1.3790
13364SOL     OW51020   1.229   3.999   5.316  0.1225  0.8571 -0.0038
13364SOL    HW151021   1.210   4.074   5.380 -0.6841  0.5215  0.1535
13364SOL    HW251022   1.321   3.964   5.333  1.6049  3.6190 -1.9002
13365SOL     OW51023   5.783   9.929   1.212 -0.3888  0.3896 -0.3937
13365SOL    HW151024   5.844  10.003   1.241 -1.7230  1.1625  0.5302
13365SOL    HW251025   5.768   9.866   1.289 -2.5430  1.4666  0.1042
13366SOL     OW51026   9.911   8.407   4.576  0.4456  0.0439  0.2115
13366SOL    HW151027   9.927   8.331   4.639 -0.8532  0.6859  1.3412
13366SOL    HW251028   9.968   8.395   4.495  0.9014 -1.6778  0.7541
13367SOL     OW51029   1.658   9.748   4.995  0.2458 -0.1856 -0.1582
13367SOL    HW151030   1.598   9.768   5.073  0.7351  1.3480 -0.1494
13367SOL    HW251031   1.604   9.750   4.911  0.1289  0.4073 -0.0743
13368SOL     OW51032   1.713   6.035   3.889 -0.6834  0.9542  0.1653
13368SOL    HW151033   1.771   5.965   3.848 -1.7968  0.3910 -0.4416
13368SOL    HW251034   1.633   6.051   3.832 -1.6805  0.9560  1.5422
13369SOL     OW51035   9.682   6.989   0.425  0.4213 -0.3271 -0.3997
13369SOL    HW151036   9.617   6.913   0.432  0.4838 -0.5459 -2.1123
13369SOL    HW251037   9.688   7.020   0.331  3.3678 -0.7946 -0.4206
13370SOL     OW51038   6.413   1.135   2.106  0.2810  0.5621  0.1618
13370SOL    HW151039   6.331   1.182   2.074 -1.3084 -0.2070  2.9434
13370SOL    HW251040   6.400   1.036   2.098  1.1772  0.4439  0.0865
13371SOL     OW51041   4.309   1.401   4.029  0.2150 -0.5194 -0.2892
13371SOL    HW151042   4.372   1.451   3.969  0.2533  0.2526  0.3885
13371SOL    HW251043   4.349   1.394   4.120  0.1679 -1.7187 -0.3413
13372SOL     OW51044   8.396   1.401   0.207 -0.0621  0.0662 -0.0437
13372SOL    HW151045   8.333   1.462   0.256  1.8017  0.6228  1.7316
13372SOL    HW251046   8.389   1.309   0.245  0.2951  0.1642  0.2647
13373SOL     OW51047   7.084   8.789   1.087  0.0552 -0.4388  0.1394
13373SOL    HW151048   7.124   8.768   1.176 -0.6029 -0.5365  0.4143
13373SOL    HW251049   7.088   8.708   1.028  1.1718 -0.1596 -0.1836
13374SOL     OW51050   6.309   9.762   2.771 -0.3278 -0.3701  0.4946
13374SOL    HW151051   6.388   9.738   2.714 -0.1086 -0.9667  1.0324
13374SOL    HW251052   6.300   9.694   2.843  1.2737  2.0358  3.0657
13375SOL     OW51053   9.021   6.833   3.960 -0.1448 -0.1857  0.1625
13375SOL    HW151054   9.038   6.896   4.035 -2.4607  0.6028  0.0312
13375SOL    HW251055   9.105   6.781   3.941  1.5038  2.1374  0.9004
13376SOL     OW51056   0.462   2.022   2.863  0.2690 -0.0605  0.2555
13376SOL    HW151057   0.441   1.925   2.856 -0.1172 -0.0780  1.5156
13376SOL    HW251058   0.416   2.072   2.790 -0.7017 -0.6349  0.4754
13377SOL     OW51059   8.939   2.586   2.201 -0.4264  0.2584 -0.2043
13377SOL    HW151060   8.976   2.608   2.110  1.7091  0.8031  0.7462
13377SOL    HW251061   8.889   2.500   2.197  4.0910 -2.5034 -0.8967
13378SOL     OW51062   8.752   9.370   4.794 -0.3926  0.4621 -0.1500
13378SOL    HW151063   8.708   9.281   4.804 -2.6679  1.6960  1.2472
13378SOL    HW251064   8.851   9.358   4.788 -0.6918 -2.1623 -0.1368
13379SOL     OW51065   9.616   4.823   3.796  0.4267  0.0411 -0.0417
13379SOL    HW151066   9.618   4.762   3.717  1.2736  0.0635 -0.0412
13379SOL    HW251067   9.580   4.773   3.875  3.4018 -1.2400  0.5859
13380SOL     OW51068   8.088   5.000   0.058  0.2038  0.6231  0.1161
13380SOL    HW151069   8.145   4.919   0.044 -0.1687  0.4619 -0.4943
13380SOL    HW251070   8.037   4.990   0.144 -1.4517 -0.7814 -0.9637
13381SOL     OW51071   8.911   7.362   0.936  0.4929  0.6112 -0.6113
13381SOL    HW151072   8.982   7.427   0.911  0.5211  0.2307 -1.5498
13381SOL    HW251073   8.871   7.322   0.853  0.6915 -0.7848 -0.0604
13382SOL     OW51074   2.629   8.797   2.633 -0.3165  0.0113  0.2809
13382SOL    HW151075   2.707   8.744   2.665  0.3651  1.2904  0.7627
13382SOL    HW251076   2.566   8.737   2.584  0.9298 -1.0470 -0.0529
13383SOL     OW51077   2.256   8.104   3.264 -0.0976 -0.3981  0.1555
13383SOL    HW151078   2.314   8.124   3.344 -0.0146 -0.4601  0.1116
13383SOL    HW251079   2.166   8.075   3.295  0.0792 -0.8602  0.2314
13384SOL     OW51080   0.713   3.583   4.878 -0.0355 -0.8784 -0.4701
13384SOL    HW151081   0.711   3.500   4.934  0.0684 -0.5731 -0.0062
13384SOL    HW251082   0.686   3.561   4.784  4.6757 -2.3533 -1.6012
13385SOL     OW51083   7.167   0.996   3.340 -0.0447  0.3068 -0.1073
13385SOL    HW151084   7.161   1.096   3.336  2.5006  0.4627 -0.4996
13385SOL    HW251085   7.225   0.969   3.417  0.9211 -0.8083 -1.2092
13386SOL     OW51086   8.881   0.888   2.833  0.4898 -0.3045  0.2452
13386SOL    HW151087   8.847   0.972   2.875  0.4712 -0.2881  0.1976
13386SOL    HW251088   8.840   0.809   2.880 -0.6435 -0.2702 -0.6607
13387SOL     OW51089   0.242   1.322   0.442 -0.4056 -0.0275 -1.1992
13387SOL    HW151090   0.143   1.335   0.443 -0.3190  0.7770  2.5343
13387SOL    HW251091   0.263   1.233   0.401 -2.5954  0.0493 -2.5908
13388SOL     OW51092   9.566   6.910   2.597  0.2104  1.0618 -0.8444
13388SOL    HW151093   9.510   6.992   2.585 -0.5993  0.8125  1.0523
13388SOL    HW251094   9.561   6.854   2.514 -1.9382  1.2978 -0.9008
13389SOL     OW51095   2.834   8.680   2.805  0.4795 -0.2966 -0.3039
13389SOL    HW151096   2.905   8.669   2.875  0.8645  1.6063 -0.3728
13389SOL    HW251097   2.858   8.624   2.726  1.9564  0.3534 -0.3420
13390SOL     OW51098   8.841   2.178   4.672 -0.4009  0.3728  0.2001
13390SOL    HW151099   8.852   2.151   4.576 -1.1783  1.2351 -0.1512
13390SOL    HW251100   8.921   2.150   4.725 -1.8886 -4.1541  0.2652
13391SOL     OW51101   9.827   4.224   1.381 -0.1001 -0.1522  0.6665
13391SOL    HW151102   9.828   4.207   1.479 -0.0695 -0.5328  0.6009
13391SOL    HW251103   9.849   4.320   1.363  2.0422 -0.5644  0.9239
13392SOL     OW51104   8.766   5.711   2.845  0.4140 -0.2082  0.0253
13392SOL    HW151105   8.743   5.712   2.748  0.7116  0.3587 -0.0429
13392SOL    HW251106   8.703   5.652   2.894 -0.4334  0.3863 -0.3404
13393SOL     OW51107   0.100   6.056   1.114 -0.2415 -0.0281  0.4995
13393SOL    HW151108   0.056   6.127   1.169  0.6649  0.5350  0.4927
13393SOL    HW251109   0.078   6.070   1.017  0.7432  0.8170  0.3978
13394SOL     OW51110   9.515   5.308   3.215  0.1439 -0.2953  0.4962
13394SOL    HW151111   9.433   5.364   3.217  0.7816  0.6690 -0.2193
13394SOL    HW251112   9.558   5.309   3.305  0.3254  0.6109  0.4009
13395SOL     OW51113   5.587   1.418   3.155  0.4696 -0.3604 -0.2942
13395SOL    HW151114   5.573   1.504   3.204 -0.0135  0.1142 -1.2530
13395SOL    HW251115   5.680   1.415   3.119  0.4033 -0.1129 -0.4911
13396SOL     OW51116   9.365   7.608   0.408 -0.1916  0.0993  0.3745
13396SOL    HW151117   9.395   7.631   0.501  1.9140 -0.2316 -0.1976
13396SOL    HW251118   9.347   7.510   0.402 -1.1276  0.2518  0.6428
13397SOL     OW51119   0.106   1.448   3.869 -0.4810  0.5617  0.4009
13397SOL    HW151120   0.164   1.434   3.949 -1.0634  0.3208  0.7908
13397SOL    HW251121   0.094   1.546   3.854 -0.5442  0.6086  0.7432
13398SOL     OW51122   2.748   9.865   4.590 -0.6225  0.5298 -0.0417
13398SOL    HW151123   2.776   9.819   4.675  1.3064  1.4915 -0.1141
13398SOL    HW251124   2.746   9.964   4.605 -1.3121  0.6410 -0.8316
13399SOL     OW51125   9.060   2.054   0.312  0.3683 -0.5262 -0.5014
13399SOL    HW151126   9.046   2.066   0.410  0.2770 -0.5944 -0.5059
13399SOL    HW251127   9.129   2.119   0.279  1.5050 -1.5040 -0.1107
13400SOL     OW51128   4.474   0.771   0.766  0.4592  0.3701 -0.3412
13400SOL    HW151129   4.432   0.846   0.816 -0.5069  0.3386 -1.1002
13400SOL    HW251130   4.446   0.775   0.670  0.7532 -0.7027 -0.4786
13401SOL     OW51131   2.329   3.292   2.839  0.6009 -0.1454 -0.1162
13401SOL    HW151132   2.363   3.211   2.887  1.1802 -0.0054 -0.2861
13401SOL    HW251133   2.261   3.339   2.896 -0.5611 -1.3550 -0.4672
13402SOL     OW51134   2.266   0.769   1.994  0.3008  0.0850 -0.7138
13402SOL    HW151135   2.170   0.761   2.020  1.0088  1.6864  2.6150
13402SOL    HW251136   2.282   0.717   1.910 -3.1567 -1.3756 -0.5463
13403SOL     OW51137   2.122   2.628   2.888 -0.0695 -0.2717  0.2926
13403SOL    HW151138   2.183   2.563   2.934  0.4308  0.2338  0.3460
13403SOL    HW251139   2.158   2.648   2.797 -0.8634 -0.9915 -0.1829
13404SOL     OW51140   9.498   3.052   4.330 -0.0885  0.0207  0.5209
13404SOL    HW151141   9.492   2.982   4.402 -1.3430 -0.0285  0.3795
13404SOL    HW251142   9.570   3.117   4.353 -0.4169 -0.0528  1.7841
13405SOL     OW51143   2.663   3.702   2.789 -0.3074 -0.0408 -0.2162
13405SOL    HW151144   2.726   3.626   2.773 -0.9290 -0.4745 -0.5947
13405SOL    HW251145   2.589   3.671   2.849  0.2838  0.6947  0.9073
13406SOL     OW51146   3.137   9.980   2.842 -0.4230 -0.7347  0.1788
13406SOL    HW151147   3.194   9.936   2.912  0.3688 -3.5968 -2.1706
13406SOL    HW251148   3.193  10.046   2.791 -0.4998 -0.0538  0.9595
13407SOL     OW51149   3.688   8.720   0.542  0.3183  0.3336  0.4843
13407SOL    HW151150   3.766   8.740   0.601  0.8644  0.0362 -0.1329
13407SOL    HW251151   3.721   8.682   0.456 -0.5007  0.3860  0.1500
13408SOL     OW51152   3.157   5.669   4.960  0.0848  0.3929 -0.3459
13408SOL    HW151153   3.240   5.650   5.012 -0.7939  1.2765  1.4436
13408SOL    HW251154   3.110   5.748   5.000 -0.5843  1.1604 -2.5608
13409SOL     OW51155   5.104   3.504   2.088  0.2009 -0.2994 -0.6018
13409SOL    HW151156   5.054   3.578   2.044  1.7246  0.8696 -0.4011
13409SOL    HW251157   5.117   3.524   2.185  1.1665 -0.5160 -0.6768
13410SOL     OW51158   9.178   2.194   2.410 -0.2820 -0.2426  0.4178
13410SOL    HW151159   9.092   2.187   2.361  0.1804  0.5466 -0.5107
13410SOL    HW251160   9.173   2.139   2.494 -1.2339 -1.2121 -0.2651
13411SOL     OW51161   8.000   6.093   2.699 -0.1120 -0.0620  0.0767
13411SOL    HW151162   7.993   6.007   2.649  1.2147  0.5974 -1.3106
13411SOL    HW251163   8.097   6.116   2.712 -0.4381  1.4714 -0.0493
13412SOL     OW51164   2.877   4.457   1.348 -0.8091 -0.1295  0.2475
13412SOL    HW151165   2.806   4.480   1.415 -0.1340 -0.3979  1.0545
13412SOL    HW251166   2.966   4.484   1.384 -0.4269 -0.4410 -0.4683
13413SOL     OW51167   9.705   4.846   2.677 -0.2789 -0.1725 -0.2526
13413SOL    HW151168   9.618   4.888   2.702 -0.4288 -0.3721 -0.4337
13413SOL    HW251169   9.689   4.755   2.638 -0.1115  0.3632 -1.6318
13414SOL     OW51170   8.702   2.258   1.347 -0.3023 -0.2314 -0.4561
13414SOL    HW151171   8.775   2.320   1.319  0.9980 -1.2402  0.5810
13414SOL    HW251172   8.673   2.203   1.269  2.4594 -2.1959 -0.1910
13415SOL     OW51173   3.752   1.527   3.446  0.2662  0.4952  0.1746
13415SOL    HW151174   3.851   1.514   3.455  0.4673  0.2673 -2.1426
13415SOL    HW251175   3.709   1.442   3.414 -0.7808  0.4048  1.7530
13416SOL     OW51176   0.624   6.089   2.913  0.4159 -1.0951 -0.6567
13416SOL    HW151177   0.694   6.062   2.978  0.9723  0.1041 -0.7446
13416SOL    HW251178   0.652   6.064   2.820  0.3809 -1.3067 -0.6090
13417SOL     OW51179   3.994   5.749   1.695 -0.2079  0.3057  0.9780
13417SOL    HW151180   3.895   5.737   1.706 -0.4006  0.9776 -0.0768
13417SOL    HW251181   4.015   5.846   1.683  0.4768  0.0435  0.0847
13418SOL     OW51182   7.635   8.077   1.563 -0.3133 -0.0752  0.1983
13418SOL    HW151183   7.696   8.136   1.510 -1.3296  2.1362  1.4246
13418SOL    HW251184   7.689   8.025   1.630  0.5362 -0.1636 -0.5424
13419SOL     OW51185   7.678   5.988   4.173 -0.4536  0.0906 -0.7899
13419SOL    HW151186   7.663   5.893   4.197 -0.3241 -0.3542 -2.4041
13419SOL    HW251187   7.608   6.018   4.109  0.2104  0.7137 -1.2381
13420SOL     OW51188   9.500   3.922   5.139 -0.4863  0.2129 -0.1488
13420SOL    HW151189   9.473   3.849   5.076 -0.8403  1.6367 -1.6774
13420SOL    HW251190   9.599   3.918   5.154 -0.3921 -0.1110 -0.8338
13421SOL     OW51191   2.140   5.411   2.115  0.0793  0.3944  0.2115
13421SOL    HW151192   2.236   5.390   2.129 -0.1154 -0.6689 -0.0593
13421SOL    HW251193   2.108   5.471   2.189  0.8434  0.4476  0.5005
13422SOL     OW51194   6.879   9.850   1.395  0.1937 -0.0102  0.3766
13422SOL    HW151195   6.962   9.879   1.442  1.0408  1.0863 -1.7376
13422SOL    HW251196   6.807   9.918   1.407 -0.0310 -0.3845  1.1966
13423SOL     OW51197   3.771   5.907   1.746 -0.0294 -0.3869 -0.3267
13423SOL    HW151198   3.758   5.977   1.816  0.2219 -0.6415 -0.0262
13423SOL    HW251199   3.766   5.950   1.655 -2.2181 -0.3489 -0.2267
13424SOL     OW51200   3.160   0.594   4.184  0.0459 -0.7556 -0.0001
13424SOL    HW151201   3.079   0.653   4.185 -0.8081 -1.8468 -1.8597
13424SOL    HW251202   3.221   0.620   4.259 -1.8621  0.3001  1.2369
13425SOL     OW51203   1.012   0.659   2.689  0.1519 -0.1694 -0.3109
13425SOL    HW151204   1.071   0.689   2.763 -1.0021 -1.3367  1.1029
13425SOL    HW251205   0.963   0.576   2.716 -2.2411  0.8412 -1.3678
13426SOL     OW51206   2.341   3.837   4.023  0.0445 -0.3174  0.1991
13426SOL    HW151207   2.251   3.818   3.983 -1.0752  0.6162  2.2022
13426SOL    HW251208   2.330   3.865   4.118  2.4298  0.4453  0.2858
13427SOL     OW51209   2.311   5.113   4.630 -0.1000  0.1331 -0.2800
13427SOL    HW151210   2.328   5.076   4.721 -1.5529 -1.0403 -0.4523
13427SOL    HW251211   2.390   5.164   4.599 -0.2724  2.1063  2.3959
13428SOL     OW51212   0.341   8.551   2.127  0.7570  0.2508 -0.0948
13428SOL    HW151213   0.419   8.498   2.092  0.9978  0.0951  0.6643
13428SOL    HW251214   0.256   8.511   2.095  1.0445  2.0964 -3.3019
13429SOL     OW51215   8.727   1.493   3.332 -0.2203  0.5504 -0.1938
13429SOL    HW151216   8.781   1.517   3.251  1.8633  0.2250  1.0766
13429SOL    HW251217   8.773   1.526   3.414  0.2018 -3.3941  1.2307
13430SOL     OW51218   8.154   4.978   0.985 -0.1667  0.1580  0.1033
13430SOL    HW151219   8.147   5.069   1.027  2.6981  1.7065 -2.4923
13430SOL    HW251220   8.249   4.948   0.989 -1.0393 -2.6135  0.5992
13431SOL     OW51221   8.018   3.325   4.933  0.1572 -0.8117  0.3090
13431SOL    HW151222   7.969   3.341   4.848  0.9911 -1.0191 -0.2142
13431SOL    HW251223   7.965   3.262   4.990 -0.8890  0.1302  0.3898
13432SOL     OW51224   1.630   2.575   5.626 -0.1401 -0.2155  0.1777
13432SOL    HW151225   1.664   2.570   5.720  2.5336  0.4276 -0.7119
13432SOL    HW251226   1.619   2.671   5.600  0.4709 -0.3453 -0.6000
13433SOL     OW51227   3.854   3.841   4.306 -0.0283 -0.0181  0.5070
13433SOL    HW151228   3.755   3.841   4.315 -0.0980  1.9841 -0.2146
13433SOL    HW251229   3.896   3.866   4.394 -0.2090  1.0179  0.2970
13434SOL     OW51230   9.395   2.491   4.369 -0.1518 -0.4579 -0.4639
13434SOL    HW151231   9.408   2.396   4.340 -0.5088 -0.3984 -0.8158
13434SOL    HW251232   9.367   2.546   4.291 -1.8339 -0.4364  0.1387
13435SOL     OW51233   3.663   0.735   4.732 -0.3849  0.4859 -0.5164
13435SOL    HW151234   3.689   0.660   4.671  1.8933 -0.2419  1.2721
13435SOL    HW251235   3.687   0.822   4.689  0.8751  0.0041 -0.8186
13436SOL     OW51236   4.372   3.982   1.204  0.2636  0.0320  0.3149
13436SOL    HW151237   4.335   4.071   1.231  0.6819 -0.1170  1.3889
13436SOL    HW251238   4.454   3.996   1.148  0.4751  0.3220  0.6957
13437SOL     OW51239   3.162   9.632   5.446 -0.0683  0.2995 -0.1553
13437SOL    HW151240   3.245   9.653   5.395  0.4660  0.6895  0.8585
13437SOL    HW251241   3.089   9.695   5.419 -0.4134 -0.8250 -1.9504
13438SOL     OW51242   5.854   0.601   0.824 -0.1261 -0.1291 -0.0446
13438SOL    HW151243   5.830   0.698   0.816 -0.9103 -0.3548 -0.3862
13438SOL    HW251244   5.951   0.593   0.850  0.3771  0.7279 -1.6342
13439SOL     OW51245   9.106   8.191   1.480  0.2079 -0.2365  0.0232
13439SOL    HW151246   9.091   8.104   1.432  1.7468  0.2759 -1.4377
13439SOL    HW251247   9.084   8.267   1.419  1.0728  0.4164  0.5214
13440SOL     OW51248   4.885   1.520   2.576 -0.2385  0.1414  0.4479
13440SOL    HW151249   4.901   1.458   2.498  0.3579  0.4639  0.3121
13440SOL    HW251250   4.787   1.527   2.593 -0.4480  1.0233 -1.0480
13441SOL     OW51251   1.550   1.394   2.079 -0.2321  0.4375 -0.2524
13441SOL    HW151252   1.643   1.395   2.042  0.0456 -1.9892  0.2871
13441SOL    HW251253   1.539   1.471   2.142  1.4422  0.7165 -0.2722
13442SOL     OW51254   6.541   9.080   3.754 -0.0032 -0.1649  0.1965
13442SOL    HW151255   6.612   9.021   3.793 -0.1701  0.7027  1.8648
13442SOL    HW251256   6.581   9.140   3.685  0.4535 -1.1556 -0.4182
13443SOL     OW51257   3.500   5.583   4.591  0.2329 -0.2934  0.5264
13443SOL    HW151258   3.406   5.569   4.625 -0.4014  0.1292 -1.0168
13443SOL    HW251259   3.528   5.504   4.537 -0.6611  1.1996 -2.1737
13444SOL     OW51260   8.179   5.563   3.565 -0.7900  0.0081  0.2702
13444SOL    HW151261   8.183   5.555   3.665  1.4867 -0.4099  0.1810
13444SOL    HW251262   8.204   5.657   3.539 -0.3235 -0.1778  0.0455
13445SOL     OW51263   4.098   6.027   1.748  0.4051  0.0897 -0.3038
13445SOL    HW151264   4.066   6.026   1.842  0.1972  3.1452 -0.3012
13445SOL    HW251265   4.195   6.052   1.746 -0.3824  3.2350 -1.0585
13446SOL     OW51266   3.205   2.051   1.807  0.4917 -0.5304  0.3775
13446SOL    HW151267   3.288   2.000   1.787  2.0367  2.1851 -0.4503
13446SOL    HW251268   3.185   2.114   1.731 -1.8536 -0.5517  0.9368
13447SOL     OW51269   8.855   9.080   3.904  0.3279 -0.1075 -0.2451
13447SOL    HW151270   8.862   9.021   3.984  1.9042 -0.6981 -0.7942
13447SOL    HW251271   8.910   9.162   3.919 -0.1554  0.2346 -0.3347
13448SOL     OW51272   2.541   0.538   1.878  0.2844 -0.1485  0.0025
13448SOL    HW151273   2.529   0.439   1.882  0.3899 -0.2299 -1.6767
13448SOL    HW251274   2.461   0.580   1.835 -0.0520  0.5695  1.2892
13449SOL     OW51275   2.841   3.491   2.736  0.0736  0.3500  0.0773
13449SOL    HW151276   2.867   3.507   2.641  1.1320  1.6050  0.5634
13449SOL    HW251277   2.832   3.393   2.752  0.6617  0.0927 -1.1160
13450SOL     OW51278   8.496   1.105   1.522  0.0881 -0.1442 -0.2180
13450SOL    HW151279   8.401   1.078   1.506  0.0954 -0.6150  0.4972
13450SOL    HW251280   8.526   1.167   1.450 -1.9123  2.9283  1.4957
13451SOL     OW51281   1.613   4.847   0.011 -0.3014  0.7051  0.8424
13451SOL    HW151282   1.670   4.928   0.026 -0.6708  0.8486  1.4493
13451SOL    HW251283   1.662   4.783  -0.049  0.0361  1.3212  0.4546
13452SOL     OW51284   0.026   1.875   4.601 -0.5933  0.4626  0.4268
13452SOL    HW151285   0.071   1.805   4.545  1.5344  2.7882 -0.9210
13452SOL    HW251286  -0.062   1.899   4.561  0.1344  0.8451 -0.9921
13453SOL     OW51287   5.576   0.627   1.663 -0.3178  0.6499  0.2089
13453SOL    HW151288   5.667   0.664   1.677 -0.2035  0.5918 -0.3788
13453SOL    HW251289   5.508   0.695   1.689 -0.1330 -0.3689  3.5555
13454SOL     OW51290   0.252   1.494   3.589 -0.2273  0.0015 -0.6225
13454SOL    HW151291   0.231   1.524   3.682  1.2549  1.4586 -0.7464
13454SOL    HW251292   0.166   1.481   3.539 -0.9835  1.7386  0.1694
13455SOL     OW51293   0.534   2.681   4.486  0.1783  0.2836  0.0080
13455SOL    HW151294   0.605   2.677   4.416  1.1645  2.3887  0.8607
13455SOL    HW251295   0.547   2.606   4.550  0.6653 -0.2829 -0.7382
13456SOL     OW51296   3.106   6.428   1.514 -0.8239  0.3459  0.6477
13456SOL    HW151297   3.115   6.336   1.476 -1.2081 -0.0500  1.5021
13456SOL    HW251298   3.119   6.424   1.613  0.8494  1.4605  0.4913
13457SOL     OW51299   2.232   1.048   2.816  0.0625 -0.0653  0.1995
13457SOL    HW151300   2.271   1.122   2.871  0.3853  0.7739 -1.1248
13457SOL    HW251301   2.306   0.996   2.774 -0.2002  0.0079 -0.3555
13458SOL     OW51302   7.382   3.266   0.706 -0.0445 -0.2159  0.1351
13458SOL    HW151303   7.310   3.233   0.767  1.2850  0.5419  2.1790
13458SOL    HW251304   7.371   3.225   0.615 -1.7646 -1.7847  1.0257
13459SOL     OW51305   8.731   5.132   0.766  0.1705  0.0828  0.1953
13459SOL    HW151306   8.750   5.127   0.668  0.9460  1.0671  0.2852
13459SOL    HW251307   8.651   5.190   0.781  1.6643  2.1863  0.2999
13460SOL     OW51308   9.088   5.260   2.725  0.6242 -0.4328  0.2364
13460SOL    HW151309   9.036   5.188   2.771 -0.5567 -1.2672 -2.3335
13460SOL    HW251310   9.142   5.220   2.651 -0.0817  1.3214 -1.2658
13461SOL     OW51311   1.764   9.418   4.413  0.0175 -0.0159  0.1401
13461SOL    HW151312   1.667   9.443   4.412 -0.1132 -0.4696  1.3971
13461SOL    HW251313   1.774   9.320   4.428  0.7112  0.2848  1.7253
13462SOL     OW51314   2.770   6.929   4.489 -0.5801 -0.5398  0.3804
13462SOL    HW151315   2.777   6.852   4.426 -0.3473 -0.1303 -0.0922
13462SOL    HW251316   2.852   6.934   4.546 -0.5211 -0.5330  0.2932
13463SOL     OW51317   8.929   9.847   5.160  0.2059 -0.0590 -0.5592
13463SOL    HW151318   8.869   9.926   5.146  1.1021  0.6689 -0.3419
13463SOL    HW251319   8.890   9.767   5.114 -0.8967  0.4184 -0.4736
13464SOL     OW51320   8.533   7.242   0.073  0.2097  0.1647 -0.3347
13464SOL    HW151321   8.618   7.286   0.103 -0.4932  1.0279  0.4458
13464SOL    HW251322   8.504   7.282  -0.014 -0.3424  1.1619  0.2948
13465SOL     OW51323   0.722   7.660   5.081  0.3525 -0.4264 -0.1935
13465SOL    HW151324   0.643   7.721   5.090  0.2664 -0.3113 -1.5791
13465SOL    HW251325   0.794   7.691   5.143 -0.8206 -0.7769  1.3763
13466SOL     OW51326   4.154   7.507   2.670  0.2551  0.3438 -0.4096
13466SOL    HW151327   4.171   7.523   2.767 -0.9086  0.5023 -0.2345
13466SOL    HW251328   4.095   7.427   2.658  0.5384  0.2141 -0.9963
13467SOL     OW51329   0.458   0.499   4.278  0.5814 -0.1320 -0.2187
13467SOL    HW151330   0.447   0.593   4.246 -2.2997 -0.5133 -0.4890
13467SOL    HW251331   0.501   0.444   4.207 -0.3552  0.3569 -1.1792
13468SOL     OW51332   8.921   1.800   2.067 -0.4427  0.1508 -0.0774
13468SOL    HW151333   8.910   1.735   1.992  2.8688  0.5502 -0.9767
13468SOL    HW251334   9.015   1.797   2.101 -1.3807  1.3705  2.7853
13469SOL     OW51335   3.392   3.202   5.360 -0.0264  0.0414  0.0048
13469SOL    HW151336   3.413   3.241   5.450  0.0381  0.1914 -0.0754
13469SOL    HW251337   3.471   3.150   5.328 -0.5662 -1.2118  0.6752
13470SOL     OW51338   4.646   3.886   0.616  0.2526  0.2402 -0.0017
13470SOL    HW151339   4.728   3.931   0.652 -0.2751  2.3612 -1.3768
13470SOL    HW251340   4.569   3.904   0.676  0.0488  1.2047 -0.5336
13471SOL     OW51341   9.101   4.495   1.057  0.2435 -0.1691  0.3382
13471SOL    HW151342   9.153   4.427   1.006 -0.2639  0.5538 -1.1537
13471SOL    HW251343   9.159   4.575   1.074  0.4610 -0.4688  1.0595
13472SOL     OW51344   9.547   4.547   4.408 -0.2532 -0.3295 -0.0825
13472SOL    HW151345   9.521   4.493   4.328 -2.2162 -0.2336  0.4782
13472SOL    HW251346   9.470   4.555   4.470  1.2867 -0.4895  1.9029
13473SOL     OW51347   4.452   8.884   0.235 -0.7036  0.1882  0.4968
13473SOL    HW151348   4.414   8.943   0.164  0.1504  0.0025 -0.1179
13473SOL    HW251349   4.408   8.904   0.322 -1.0963  1.0636  0.1012
13474SOL     OW51350   2.688   1.944   3.450 -0.0972  0.1014  0.1717
13474SOL    HW151351   2.665   1.931   3.354  0.3401 -2.5836  0.3918
13474SOL    HW251352   2.620   1.899   3.507  0.6302  0.1135  1.0699
13475SOL     OW51353   8.129   6.918   3.374 -0.1374  0.0236  0.1037
13475SOL    HW151354   8.173   6.829   3.389 -0.5096  0.0488  1.3891
13475SOL    HW251355   8.039   6.904   3.333  0.8131 -0.0549 -2.0385
13476SOL     OW51356   5.328   0.715   2.033 -0.1843 -0.0813 -0.1220
13476SOL    HW151357   5.252   0.659   2.065 -0.0363  0.4028  1.1243
13476SOL    HW251358   5.403   0.710   2.099 -0.0345  1.2845 -0.1677
13477SOL     OW51359   4.460   1.602   2.994  0.1455 -0.0618  0.1558
13477SOL    HW151360   4.361   1.588   2.988  0.1551 -0.3015  0.5393
13477SOL    HW251361   4.492   1.573   3.085  0.1370  2.5743  1.0297
13478SOL     OW51362   9.272   2.603   4.579 -0.5495 -0.2127  0.1994
13478SOL    HW151363   9.312   2.546   4.507 -0.5567 -1.1371  0.9203
13478SOL    HW251364   9.224   2.680   4.537 -2.3316 -1.8763 -0.9110
13479SOL     OW51365   9.913   6.259   2.743 -0.7944 -0.2878 -0.0979
13479SOL    HW151366   9.842   6.260   2.672 -0.2242 -0.2982 -0.6772
13479SOL    HW251367   9.919   6.168   2.782 -1.2320 -0.2383  0.0818
13480SOL     OW51368   4.370   9.798   1.624 -0.0619 -0.2185  0.5123
13480SOL    HW151369   4.315   9.765   1.701 -0.5279 -0.7015 -0.0156
13480SOL    HW251370   4.464   9.813   1.654 -0.3735  0.1534  1.3127
13481SOL     OW51371   1.178   9.343   2.484  0.4036 -0.0389  0.1561
13481SOL    HW151372   1.152   9.308   2.574  2.3347  0.7251  1.0463
13481SOL    HW251373   1.275   9.322   2.468 -0.4103 -1.9269 -2.5934
13482SOL     OW51374   1.903   3.807   1.766  0.2439  0.1998  0.9080
13482SOL    HW151375   1.990   3.852   1.788 -0.3055  0.8032  1.8831
13482SOL    HW251376   1.842   3.813   1.845 -0.7194 -0.1298  0.1911
13483SOL     OW51377   4.022   9.364   4.497 -0.2498  0.5740 -0.3991
13483SOL    HW151378   4.009   9.463   4.485  0.3037  0.7422  0.3495
13483SOL    HW251379   4.118   9.341   4.482 -0.5439 -0.0022 -1.5004
13484SOL     OW51380   8.370   1.742   4.063  0.2879 -0.1627 -0.9482
13484SOL    HW151381   8.271   1.733   4.061  0.2030 -0.0044  1.5222
13484SOL    HW251382   8.395   1.834   4.031 -0.3095 -0.4530 -2.2632
13485SOL     OW51383   9.440   6.137   0.602 -0.3302  0.9379 -0.2799
13485SOL    HW151384   9.510   6.092   0.657 -1.6279 -0.0315  0.6165
13485SOL    HW251385   9.360   6.157   0.659 -0.7006  2.2207 -1.2287
13486SOL     OW51386   3.927   8.414   4.306 -0.6560  0.2628  0.3738
13486SOL    HW151387   3.857   8.468   4.259 -1.4338 -0.3229  0.8564
13486SOL    HW251388   3.906   8.316   4.295  1.6882 -0.0546 -2.0308
13487SOL     OW51389   0.779   9.235   2.606  0.1947  0.4499 -0.3892
13487SOL    HW151390   0.728   9.151   2.625  1.9366 -0.7468 -0.9270
13487SOL    HW251391   0.741   9.278   2.523  0.5240 -0.8216 -1.2123
13488SOL     OW51392   9.175   7.670   5.196 -0.1263  0.2146 -0.0834
13488SOL    HW151393   9.174   7.571   5.181 -0.6216  0.5147 -2.1762
13488SOL    HW251394   9.270   7.701   5.206  0.1515 -0.2508 -1.1275
13489SOL     OW51395   3.684   0.813   5.605  0.2928 -0.1174 -0.2215
13489SOL    HW151396   3.703   0.899   5.653 -1.0230 -0.1022  0.3018
13489SOL    HW251397   3.598   0.774   5.640  0.5571 -1.3223 -0.8967
13490SOL     OW51398   3.640   2.403   2.340  0.0611 -0.3047  0.4717
13490SOL    HW151399   3.550   2.375   2.306  0.7163 -0.1862 -1.3698
13490SOL    HW251400   3.709   2.389   2.269  1.0677  2.1752  0.9083
13491SOL     OW51401   9.694   9.837   2.631  0.0554 -0.3993  0.2646
13491SOL    HW151402   9.704   9.820   2.729  1.5328  0.6475  0.3177
13491SOL    HW251403   9.749   9.917   2.606 -0.9831 -0.1557 -1.2620
13492SOL     OW51404   4.219   1.905   1.866 -0.3564  0.3482  0.2136
13492SOL    HW151405   4.248   1.866   1.779  0.5254  0.4479  0.4540
13492SOL    HW251406   4.235   2.004   1.865  0.5859  0.2089  0.8446
13493SOL     OW51407   0.833   7.788   4.009  0.0124  0.4467  0.0031
13493SOL    HW151408   0.760   7.745   3.955  0.1253  1.4173 -0.9347
13493SOL    HW251409   0.864   7.871   3.963  2.1907 -0.3237  0.0265
13494SOL     OW51410   1.913   5.794   0.911 -0.5046 -0.5073  0.2130
13494SOL    HW151411   1.855   5.713   0.902 -0.3648 -0.5405 -0.4803
13494SOL    HW251412   1.907   5.848   0.827  0.1544 -0.3056  0.2904
13495SOL     OW51413   7.885   9.869   1.627 -0.2415 -0.1012 -0.0099
13495SOL    HW151414   7.894   9.955   1.676  1.3541  1.1435 -2.3648
13495SOL    HW251415   7.800   9.823   1.653 -2.1610  3.1995 -0.2565
13496SOL     OW51416   3.022   0.069   3.269 -0.2340 -0.5558 -0.6404
13496SOL    HW151417   2.993  -0.014   3.317 -0.1844 -0.0528  0.2676
13496SOL    HW251418   3.003   0.059   3.171 -1.5073 -1.0908 -0.3572
13497SOL     OW51419   5.374   0.631   4.191  0.3372  0.2258  0.3088
13497SOL    HW151420   5.400   0.595   4.102 -0.9032  1.1264 -0.4374
13497SOL    HW251421   5.443   0.605   4.259 -0.1320 -2.8442 -0.3385
13498SOL     OW51422   1.792   5.025   2.220  0.1926 -0.4239  0.8682
13498SOL    HW151423   1.839   5.086   2.156 -0.7639 -0.4854  0.0992
13498SOL    HW251424   1.859   4.986   2.283  1.0842 -0.0241  0.1896
13499SOL     OW51425   9.676   4.295   0.314  0.0820 -0.4855 -0.5760
13499SOL    HW151426   9.722   4.380   0.290 -0.6341 -0.2364 -1.1143
13499SOL    HW251427   9.577   4.309   0.312 -0.0274 -1.1451  0.0300
13500SOL     OW51428   9.717   5.789   0.003 -0.4041 -0.4772  0.0779
13500SOL    HW151429   9.653   5.740   0.061 -1.3703  1.3942  0.6578
13500SOL    HW251430   9.674   5.874  -0.029 -0.1259 -1.6767 -3.8382
13501SOL     OW51431   8.326   8.305   2.943  0.0444  0.5356 -0.5997
13501SOL    HW151432   8.328   8.310   2.843 -0.2413  2.0225 -0.5454
13501SOL    HW251433   8.418   8.312   2.979  0.0356  1.4891 -0.7223
13502SOL     OW51434   9.713   1.792   4.728  0.8297  0.0165  0.5386
13502SOL    HW151435   9.615   1.808   4.731  0.6621 -1.1951  1.9017
13502SOL    HW251436   9.745   1.801   4.633 -0.9378 -1.5447 -0.2444
13503SOL     OW51437   9.766   6.675   2.548 -0.6436 -0.0869 -0.5380
13503SOL    HW151438   9.703   6.706   2.476  0.1619  1.4594 -0.6057
13503SOL    HW251439   9.855   6.719   2.535 -0.0403 -0.9629  0.5331
13504SOL     OW51440   7.648   8.546   3.701 -0.1006 -0.3090 -0.2508
13504SOL    HW151441   7.644   8.603   3.783 -1.4671  1.3031 -1.3844
13504SOL    HW251442   7.661   8.451   3.726  0.2575  0.2654  1.7887
13505SOL     OW51443   3.292   5.451   5.292  0.8131  0.2639  0.0017
13505SOL    HW151444   3.325   5.475   5.383  0.0408  0.7553  0.1577
13505SOL    HW251445   3.263   5.355   5.291  1.2163  0.1428  0.1613
13506SOL     OW51446   3.953   9.191   3.369 -0.0336 -0.0144  0.0713
13506SOL    HW151447   3.943   9.290   3.369 -1.4186 -0.1423  0.5565
13506SOL    HW251448   3.876   9.150   3.417 -1.5401 -1.5230 -3.4272
13507SOL     OW51449   8.840   8.355   4.094 -0.9622  0.2784  0.0672
13507SOL    HW151450   8.849   8.285   4.164  0.8718 -0.2713 -0.6985
13507SOL    HW251451   8.743   8.369   4.073 -1.5509  0.5334  2.7588
13508SOL     OW51452   0.843   9.190   4.186  0.4050  0.4711 -0.4266
13508SOL    HW151453   0.827   9.197   4.284  0.2163 -0.2768 -0.4031
13508SOL    HW251454   0.840   9.093   4.158  0.1022  0.7057 -1.2261
13509SOL     OW51455   8.791   3.919   4.200 -0.3342  0.0428 -0.2068
13509SOL    HW151456   8.822   4.011   4.226  0.7831 -0.4484  0.1912
13509SOL    HW251457   8.752   3.873   4.280  1.5641 -0.8321  0.2365
13510SOL     OW51458   4.405   9.641   0.352 -0.3892 -0.0338 -0.0183
13510SOL    HW151459   4.382   9.700   0.429 -0.2555  0.3778 -0.2891
13510SOL    HW251460   4.482   9.582   0.377 -0.7349 -0.3228  0.3619
13511SOL     OW51461   0.036   7.109   0.203  0.4329  0.2031  0.0511
13511SOL    HW151462   0.005   7.190   0.254 -0.3122 -0.8005  1.2142
13511SOL    HW251463   0.079   7.044   0.266 -1.5143 -1.5604 -0.3690
13512SOL     OW51464   7.510   8.821   3.191  0.0648  0.5542  0.5385
13512SOL    HW151465   7.593   8.773   3.218  1.6837  3.3203  0.6062
13512SOL    HW251466   7.505   8.909   3.238 -2.1906  1.0489 -0.5496
13513SOL     OW51467   3.395   3.816   2.689  0.2776 -0.0476  0.0059
13513SOL    HW151468   3.331   3.746   2.656 -1.7371  0.9925  1.5771
13513SOL    HW251469   3.383   3.830   2.787  0.7018  2.4072 -0.2436
13514SOL     OW51470   5.332   9.017   3.734 -0.2430  0.0507  0.2435
13514SOL    HW151471   5.413   9.070   3.709 -0.9143  0.1078 -1.9146
13514SOL    HW251472   5.356   8.920   3.741 -0.1280 -0.0298 -1.1452
13515SOL     OW51473   4.447   7.332   3.745 -0.2643 -0.3679 -0.4504
13515SOL    HW151474   4.545   7.316   3.750 -0.2458 -1.2888 -3.0055
13515SOL    HW251475   4.412   7.355   3.836  2.4030  0.6330  0.3666
13516SOL     OW51476   6.173   1.242   2.932  0.3886 -0.4199 -0.2067
13516SOL    HW151477   6.225   1.167   2.973  1.1981 -0.5161 -1.3923
13516SOL    HW251478   6.103   1.273   2.997  2.7045  0.5406  1.9320
13517SOL     OW51479   4.483   9.924   1.006  0.6325 -0.0221 -0.1068
13517SOL    HW151480   4.533   9.844   1.039 -1.6711 -0.7583  1.7007
13517SOL    HW251481   4.454   9.980   1.084  0.5905  1.6023 -1.2561
13518SOL     OW51482   1.703   2.392   1.094 -0.5409  0.1715  0.2472
13518SOL    HW151483   1.705   2.367   1.191 -1.3614 -1.4081 -0.1386
13518SOL    HW251484   1.781   2.351   1.047  0.6519  2.0823  0.4841
13519SOL     OW51485   2.482   1.543   3.777  0.3364 -0.0878  0.0370
13519SOL    HW151486   2.555   1.533   3.845  0.9769 -0.0694 -0.6509
13519SOL    HW251487   2.504   1.489   3.696  0.4901  1.3998 -0.9180
13520SOL     OW51488   8.793   1.082   0.471 -0.6283  0.1615 -0.6834
13520SOL    HW151489   8.745   1.032   0.544 -0.4942  0.3682 -0.4514
13520SOL    HW251490   8.862   1.023   0.430 -2.4436 -0.8415 -2.4174
13521SOL     OW51491   2.766   0.580   0.319 -0.1798 -0.2893 -0.3911
13521SOL    HW151492   2.809   0.667   0.294 -0.5837 -0.3573 -1.3406
13521SOL    HW251493   2.795   0.554   0.411  0.8567  0.2766 -0.5491
13522SOL     OW51494   1.217   5.491   1.310  0.5427  0.1297 -0.1641
13522SOL    HW151495   1.248   5.481   1.215  0.8641  0.6562 -0.1198
13522SOL    HW251496   1.288   5.539   1.362 -0.5316  1.7287 -0.1507
13523SOL     OW51497   2.037   9.043   1.568  0.3729  0.4989  0.3347
13523SOL    HW151498   2.033   8.955   1.616 -0.9543  0.4598  0.1654
13523SOL    HW251499   1.964   9.103   1.602  0.5505  1.1175 -0.3700
13524SOL     OW51500   9.388   8.600   3.684 -0.3157  0.4915 -0.6962
13524SOL    HW151501   9.321   8.532   3.714 -0.9364  0.9839 -0.9517
13524SOL    HW251502   9.402   8.668   3.756 -2.4527  2.1637 -1.7801
13525SOL     OW51503   1.553   9.706   5.291 -0.2410 -0.1948  0.3186
13525SOL    HW151504   1.646   9.731   5.316 -0.4148 -0.5033  1.3305
13525SOL    HW251505   1.489   9.776   5.325 -0.3334  0.2563 -0.7856
13526SOL     OW51506   4.126   6.454   1.248 -0.1087  0.4903  0.8516
13526SOL    HW151507   4.066   6.448   1.168 -0.0407  3.2059  0.5302
13526SOL    HW251508   4.073   6.433   1.330 -0.7438 -0.1244  0.2926
13527SOL     OW51509   1.775   5.678   1.475 -0.8828 -0.0410  0.3659
13527SOL    HW151510   1.733   5.595   1.513 -0.6148 -0.3078  0.0740
13527SOL    HW251511   1.806   5.661   1.382 -0.4309  0.2623  0.4600
13528SOL     OW51512   4.053  10.001   5.300 -1.0827 -0.2700 -0.0666
13528SOL    HW151513   4.093   9.986   5.391  0.4737 -0.7731 -0.8304
13528SOL    HW251514   4.006   9.918   5.270 -0.6372 -0.4693 -0.2086
13529SOL     OW51515   5.989   8.882   3.383 -0.6878  0.2305  0.0686
13529SOL    HW151516   5.909   8.924   3.425 -1.2827 -0.8433  0.0235
13529SOL    HW251517   6.023   8.940   3.308 -1.4765  0.6372  0.0310
13530SOL     OW51518   8.450   0.129   3.396  0.4993  0.0843  0.1064
13530SOL    HW151519   8.545   0.137   3.426  1.2515  0.8598 -2.4132
13530SOL    HW251520   8.444   0.144   3.298 -2.2807  0.3245  0.2686
13531SOL     OW51521   0.440   9.050   4.797  0.1116  0.0915 -0.4400
13531SOL    HW151522   0.491   9.098   4.869  0.7821 -0.2078 -0.7205
13531SOL    HW251523   0.349   9.028   4.831  0.6117 -0.5369  0.5112
13532SOL     OW51524   7.012   8.615   4.455  0.9788  0.2089  0.4142
13532SOL    HW151525   6.987   8.581   4.364 -0.2651  1.2696  0.3365
13532SOL    HW251526   7.024   8.714   4.450  0.0936  0.3856  1.5663
13533SOL     OW51527   4.638   7.269   2.100 -0.4062 -0.5490  0.0248
13533SOL    HW151528   4.638   7.188   2.158  1.0355 -0.1545  0.5984
13533SOL    HW251529   4.603   7.347   2.152  1.2222 -0.1169  0.5085
13534SOL     OW51530   2.166   8.035   0.369  0.2666  0.2385 -0.4555
13534SOL    HW151531   2.197   8.129   0.358  1.1544 -0.1942 -1.9027
13534SOL    HW251532   2.240   7.980   0.407  0.1264 -0.0983 -0.6668
13535SOL     OW51533   7.214   4.483   0.747  0.6583  0.4544 -1.0092
13535SOL    HW151534   7.165   4.502   0.662  2.1970  1.0864 -1.7760
13535SOL    HW251535   7.272   4.403   0.735  0.0407 -0.1274 -0.1944
13536SOL     OW51536   9.657   3.496   4.962  0.4500  0.2362 -0.0216
13536SOL    HW151537   9.568   3.468   4.926 -0.4436  1.8499  0.8678
13536SOL    HW251538   9.729   3.464   4.901 -0.7787 -0.5651 -1.0790
13537SOL     OW51539   5.180   7.191   3.644  0.1236  0.0010 -0.4400
13537SOL    HW151540   5.220   7.261   3.703  1.9484 -1.7391  0.4394
13537SOL    HW251541   5.103   7.230   3.593  0.6091  2.4102  0.6191
13538SOL     OW51542   4.009   6.794   1.953 -0.2474 -0.1020 -0.3273
13538SOL    HW151543   3.927   6.851   1.944 -0.4094 -0.1199  0.8312
13538SOL    HW251544   4.007   6.748   2.042 -0.3440 -2.2961 -1.4343
13539SOL     OW51545   7.292   3.316   1.095 -0.0248 -0.0275  1.0286
13539SOL    HW151546   7.290   3.224   1.058 -0.9137 -0.4139  2.0005
13539SOL    HW251547   7.380   3.332   1.141 -0.0396 -0.5398  1.2328
13540SOL     OW51548   0.865   1.967   1.827 -0.1429  0.1833 -0.0604
13540SOL    HW151549   0.826   2.037   1.766 -0.7213 -2.3928 -2.7650
13540SOL    HW251550   0.960   1.990   1.847  0.5427  0.3558 -3.2007
13541SOL     OW51551   5.739   9.420   1.698 -0.3082 -0.3775  0.4664
13541SOL    HW151552   5.777   9.374   1.618 -0.8877 -0.5581  0.2947
13541SOL    HW251553   5.658   9.472   1.672  1.4755  2.4012  0.2713
13542SOL     OW51554   8.598   9.635   1.489 -0.1144  0.0016 -0.6720
13542SOL    HW151555   8.684   9.654   1.538 -0.3947  0.2757 -0.2752
13542SOL    HW251556   8.521   9.656   1.549 -0.4760  0.9339 -1.4453
13543SOL     OW51557   1.260   5.483   1.044 -0.2528 -0.5390  0.5023
13543SOL    HW151558   1.200   5.561   1.062  0.5219  0.1201  0.2641
13543SOL    HW251559   1.254   5.457   0.948  0.6862  0.2595  0.2143
13544SOL     OW51560   3.553   8.288   3.704 -0.4480 -0.3749 -0.6479
13544SOL    HW151561   3.605   8.310   3.621  3.5869 -1.1811  1.5689
13544SOL    HW251562   3.563   8.191   3.725 -0.1482  0.1396  1.6586
13545SOL     OW51563   4.018   1.623   0.521  0.0431 -0.7199  0.1812
13545SOL    HW151564   3.933   1.663   0.555 -1.3596 -3.6647  0.2747
13545SOL    HW251565   4.058   1.683   0.451 -1.7102  1.0354  0.6429
13546SOL     OW51566   2.468   1.800   0.129  0.0263 -0.1810 -0.3102
13546SOL    HW151567   2.369   1.800   0.115 -0.0789  1.2554  0.4633
13546SOL    HW251568   2.512   1.839   0.048  0.0077 -1.1608 -0.8145
13547SOL     OW51569   0.084   1.621   4.765 -0.6208  0.5880 -0.3553
13547SOL    HW151570   0.018   1.666   4.825 -0.0464 -0.6556  1.2186
13547SOL    HW251571   0.037   1.550   4.712 -0.7399  0.3514  0.0646
13548SOL     OW51572   1.113   6.325   2.698 -0.4940  0.1758 -0.0992
13548SOL    HW151573   1.106   6.256   2.627  0.9850 -0.2490  0.1504
13548SOL    HW251574   1.199   6.314   2.747 -0.9146  1.2662  0.9206
13549SOL     OW51575   9.838   3.301   5.462 -0.0343  0.6476  0.3155
13549SOL    HW151576   9.858   3.205   5.483  0.2623  0.8806  1.1456
13549SOL    HW251577   9.921   3.355   5.476  0.6330  0.5799 -3.0945
13550SOL     OW51578   1.769   7.605   4.081  0.2170  0.3990  0.2266
13550SOL    HW151579   1.856   7.627   4.038  0.4838  0.0265  0.5798
13550SOL    HW251580   1.699   7.668   4.047  0.1501 -0.6939 -1.7203
13551SOL     OW51581   8.010   3.319   4.315  0.2794 -0.2106 -0.2393
13551SOL    HW151582   7.932   3.316   4.377 -0.6956  0.4488 -1.4068
13551SOL    HW251583   8.037   3.225   4.292 -0.3040 -0.4480  0.0217
13552SOL     OW51584   9.830   9.595   1.306 -0.2672  0.1545 -0.4078
13552SOL    HW151585   9.790   9.679   1.270 -0.2141  0.6622  0.6809
13552SOL    HW251586   9.771   9.517   1.284 -1.8256  0.8760  1.0836
13553SOL     OW51587   0.166   1.320   4.461 -0.1568  0.0265 -0.3122
13553SOL    HW151588   0.138   1.381   4.387  1.0812 -0.2880 -1.0505
13553SOL    HW251589   0.243   1.361   4.510  1.2848 -1.3445 -1.3886
13554SOL     OW51590   9.375   2.262   2.823  0.4877  0.2410  0.2743
13554SOL    HW151591   9.289   2.251   2.772 -0.0569  1.2837  0.9457
13554SOL    HW251592   9.370   2.344   2.879  1.6117 -0.1548  0.9754
13555SOL     OW51593   1.719   4.376   3.452 -0.2536 -0.1031  0.1769
13555SOL    HW151594   1.729   4.450   3.518 -0.2836  0.7594 -0.7594
13555SOL    HW251595   1.657   4.307   3.487  0.3347 -0.0367  1.3684
13556SOL     OW51596   2.744   2.606   3.387 -0.5529  0.2873 -0.5492
13556SOL    HW151597   2.645   2.596   3.380 -0.3091 -0.2030 -3.7748
13556SOL    HW251598   2.788   2.518   3.371  0.4835  0.8975 -1.0921
13557SOL     OW51599   2.189   7.436   2.410  0.2646  0.1297  0.1156
13557SOL    HW151600   2.227   7.482   2.490  0.7427  1.1258 -0.6730
13557SOL    HW251601   2.116   7.373   2.439  1.7420 -0.9872  1.5382
13558SOL     OW51602   2.643   8.293   3.463 -0.4406 -0.3715  0.3634
13558SOL    HW151603   2.664   8.363   3.394  0.7486 -0.2336  0.8488
13558SOL    HW251604   2.547   8.265   3.454 -0.1212 -0.8896 -1.8410
13559SOL     OW51605   3.140   9.015   5.563  0.4222  0.4535  0.9294
13559SOL    HW151606   3.182   9.055   5.481  2.8242  1.4600  2.5884
13559SOL    HW251607   3.146   8.916   5.558  0.2688  0.4884 -0.2359
13560SOL     OW51608   0.931   8.615   0.719 -0.0015  0.1492 -0.1645
13560SOL    HW151609   0.875   8.630   0.638 -0.2791  1.7721  0.3174
13560SOL    HW251610   1.013   8.672   0.715 -0.0798  0.3379  0.7505
13561SOL     OW51611   7.634   3.270   4.932 -0.2564  0.3766  0.6150
13561SOL    HW151612   7.675   3.269   5.024  0.8294 -4.7940  0.2312
13561SOL    HW251613   7.544   3.227   4.935 -0.0153 -0.2383 -0.8431
13562SOL     OW51614   2.546   0.151   1.099 -0.5608  0.3018 -0.2387
13562SOL    HW151615   2.544   0.244   1.135 -0.6162 -0.8258  2.7618
13562SOL    HW251616   2.629   0.105   1.131 -1.4256 -1.2591 -0.2357
13563SOL     OW51617   4.188   8.947   4.247  0.2010 -0.2166  0.3377
13563SOL    HW151618   4.094   8.936   4.213  0.3002 -1.5428  0.4886
13563SOL    HW251619   4.226   9.033   4.212 -1.0414  0.3066  0.2225
13564SOL     OW51620   2.392   4.614   0.985 -0.5863 -0.2608  0.1200
13564SOL    HW151621   2.490   4.626   1.005 -0.7159  0.7306  0.1999
13564SOL    HW251622   2.381   4.592   0.888 -0.3846  1.3129 -0.2774
13565SOL     OW51623   2.317   2.059   1.233 -0.3804  0.5641  0.3139
13565SOL    HW151624   2.256   1.995   1.185 -0.5410  1.4677 -0.7105
13565SOL    HW251625   2.268   2.102   1.308 -0.2400 -0.5815  1.0844
13566SOL     OW51626   1.195   2.233   0.437  0.4815 -0.2666 -0.3218
13566SOL    HW151627   1.279   2.247   0.385  1.0103 -0.1927  0.5376
13566SOL    HW251628   1.117   2.227   0.374  0.7197  2.6876 -1.0030
13567SOL     OW51629   2.158   9.138   4.252 -0.3428  0.2866 -0.3968
13567SOL    HW151630   2.148   9.076   4.330  1.2691  0.3475 -0.1300
13567SOL    HW251631   2.143   9.087   4.167 -1.4427  0.0782 -0.0920
13568SOL     OW51632   8.539   6.256   0.392  0.5360 -0.3843  0.4513
13568SOL    HW151633   8.616   6.317   0.375  0.6146 -0.3393  0.9841
13568SOL    HW251634   8.466   6.307   0.439 -0.0343 -0.2834 -0.5236
13569SOL     OW51635   0.221   3.512   3.055  0.5645 -0.5193  0.4429
13569SOL    HW151636   0.200   3.424   3.012  0.7668 -0.5478  0.4014
13569SOL    HW251637   0.195   3.510   3.151  0.8062 -0.7140  0.5045
13570SOL     OW51638   4.629   9.275   3.173  0.3846  0.1043  0.1425
13570SOL    HW151639   4.567   9.320   3.238  0.2032  0.3051 -0.1655
13570SOL    HW251640   4.629   9.176   3.190 -0.1365  0.0874  0.0492
13571SOL     OW51641   4.806   4.483   1.049 -0.0267 -0.3381 -0.0773
13571SOL    HW151642   4.862   4.562   1.022 -0.4704 -0.1429 -0.4115
13571SOL    HW251643   4.786   4.490   1.147 -0.5819  0.2827 -0.2329
13572SOL     OW51644   1.914   0.291   5.565 -0.3577 -0.4480 -0.1319
13572SOL    HW151645   2.010   0.318   5.575  0.4978 -2.6063 -1.9326
13572SOL    HW251646   1.887   0.298   5.469 -1.2281 -2.1637 -0.0458
13573SOL     OW51647   0.909   9.495   0.665  0.0565 -0.0279  0.3170
13573SOL    HW151648   0.939   9.517   0.758 -0.9847  0.0116  0.6616
13573SOL    HW251649   0.856   9.571   0.628 -2.0585 -1.1755  0.8462
13574SOL     OW51650   0.100   1.530   2.692  0.1889  0.4097  0.1323
13574SOL    HW151651   0.196   1.503   2.678  0.5368  1.6564  0.0596
13574SOL    HW251652   0.041   1.469   2.640  0.8893 -0.8305  0.7527
13575SOL     OW51653   8.790   5.920   1.655 -0.0423 -0.0609  0.0110
13575SOL    HW151654   8.711   5.979   1.671  0.9448  1.8282 -1.8067
13575SOL    HW251655   8.768   5.854   1.584 -0.6654 -0.9464  1.0104
13576SOL     OW51656   3.172   6.884   2.778  1.2837  0.0301  0.0191
13576SOL    HW151657   3.272   6.880   2.765  1.3914 -0.4759  0.9831
13576SOL    HW251658   3.145   6.817   2.846  0.7315  2.6246  2.4168
13577SOL     OW51659   8.879   6.169   3.856  0.5177  0.0955 -0.3641
13577SOL    HW151660   8.798   6.161   3.797 -0.3777  0.2001  0.8174
13577SOL    HW251661   8.874   6.254   3.908  1.0694 -0.1982  0.1789
13578SOL     OW51662   1.375   3.255   2.415  0.1777  0.0760 -0.5092
13578SOL    HW151663   1.362   3.315   2.336 -0.0299  1.6015  0.6791
13578SOL    HW251664   1.446   3.188   2.394  0.1122  0.4464 -1.9939
13579SOL     OW51665   8.488   8.462   4.309 -0.1795 -0.0032  0.2520
13579SOL    HW151666   8.540   8.546   4.292  1.2747 -1.0630 -0.6365
13579SOL    HW251667   8.548   8.394   4.352 -1.0507 -0.9777 -0.0675
13580SOL     OW51668   9.381   1.798   1.317 -0.8609 -0.3886  0.1277
13580SOL    HW151669   9.479   1.784   1.312 -0.6649 -0.2676  3.0398
13580SOL    HW251670   9.334   1.710   1.322 -0.7143 -0.3868  1.5641
13581SOL     OW51671   2.917   4.532   1.777  0.2110  0.0037 -0.0631
13581SOL    HW151672   2.892   4.609   1.718  1.7788  0.5369 -0.0713
13581SOL    HW251673   2.951   4.457   1.720 -1.4035 -0.7383 -0.0615
13582SOL     OW51674   7.341   0.668   1.856 -0.0778  0.0820  0.8750
13582SOL    HW151675   7.245   0.696   1.857  0.2021  1.0487  1.0797
13582SOL    HW251676   7.399   0.745   1.884  0.7852 -0.3789  0.3871
13583SOL     OW51677   6.272   9.521   1.329  0.1930  0.2278  0.7058
13583SOL    HW151678   6.295   9.581   1.406  0.2889  1.6087 -0.3742
13583SOL    HW251679   6.247   9.577   1.250  0.0292 -1.1767 -0.2516
13584SOL     OW51680   2.046   3.000   2.839  0.1701  0.0847 -0.0559
13584SOL    HW151681   1.951   2.971   2.843 -0.0158  0.5776 -0.8721
13584SOL    HW251682   2.053   3.089   2.794  1.0570 -0.1706 -0.4547
13585SOL     OW51683   3.428   4.065   2.510  0.0819 -0.7908 -0.0440
13585SOL    HW151684   3.344   4.068   2.456 -0.4629 -1.4069  0.7524
13585SOL    HW251685   3.434   3.977   2.557  1.3408 -0.8731 -0.3513
13586SOL     OW51686   9.155   1.555   3.646  0.1050  0.1931  0.4708
13586SOL    HW151687   9.206   1.531   3.729 -2.0627 -3.3894  0.8393
13586SOL    HW251688   9.192   1.503   3.569 -1.2473 -0.4345  0.2357
13587SOL     OW51689   0.229   0.636   0.306  0.4668  0.4217  0.3102
13587SOL    HW151690   0.168   0.709   0.335 -0.0771  0.2164 -0.2974
13587SOL    HW251691   0.233   0.633   0.206  1.3100  0.2966  0.3391
13588SOL     OW51692   5.060   7.219   3.339  0.4184  0.2855 -0.1644
13588SOL    HW151693   5.012   7.279   3.274 -1.0237 -0.9005 -0.2231
13588SOL    HW251694   5.134   7.172   3.292  1.1103  1.4620 -0.2871
13589SOL     OW51695   2.730   1.528   3.896  0.1670  0.1340 -0.5914
13589SOL    HW151696   2.737   1.579   3.810  1.7724 -0.3420 -0.7587
13589SOL    HW251697   2.785   1.573   3.966 -0.1501 -0.1623 -0.1530
13590SOL     OW51698   4.495   0.652   0.247 -0.1042  0.3757  0.2848
13590SOL    HW151699   4.514   0.694   0.158 -1.0815  1.2627  0.4884
13590SOL    HW251700   4.479   0.554   0.234 -2.4393  0.8485 -0.8462
13591SOL     OW51701   8.453   4.164   0.355 -0.0775 -0.1730 -0.2497
13591SOL    HW151702   8.459   4.122   0.445  0.0835 -0.7969 -0.5512
13591SOL    HW251703   8.537   4.215   0.336  0.2964 -0.8631 -0.4557
13592SOL     OW51704   1.161   0.072   0.392 -0.2017 -0.4922 -0.3578
13592SOL    HW151705   1.257   0.042   0.393 -0.1886 -0.4417  0.6616
13592SOL    HW251706   1.112   0.022   0.321  0.6440 -0.3180 -1.0814
13593SOL     OW51707   4.581   1.000   3.396  0.1431 -0.0501  0.3596
13593SOL    HW151708   4.641   1.064   3.443  1.9602  0.4574 -2.5092
13593SOL    HW251709   4.601   1.002   3.298 -2.3532 -2.2771 -0.2454
13594SOL     OW51710   2.681   4.613   0.348  0.1147  0.6221 -0.7576
13594SOL    HW151711   2.604   4.564   0.389  0.9334 -0.7247 -0.8070
13594SOL    HW251712   2.647   4.673   0.276 -0.9917  0.7021 -0.1824
13595SOL     OW51713   8.041   0.336   0.519  0.1823  0.3511 -0.0238
13595SOL    HW151714   8.099   0.360   0.596  0.9084  1.2249 -0.8390
13595SOL    HW251715   8.095   0.334   0.435 -1.0488  1.7190 -0.8877
13596SOL     OW51716   7.411   2.015   1.388  0.1483 -0.0018 -0.0592
13596SOL    HW151717   7.447   1.947   1.452 -0.5078 -0.0669  0.2386
13596SOL    HW251718   7.443   1.994   1.296  0.3197 -0.4517  0.1005
13597SOL     OW51719   6.763   1.845   2.696  0.6159  0.1595  0.2794
13597SOL    HW151720   6.747   1.942   2.715 -2.4900 -0.4688  1.1480
13597SOL    HW251721   6.706   1.816   2.619  1.8648 -0.8824 -0.2778
13598SOL     OW51722   8.629   7.162   2.602  0.4267 -0.3266  0.6599
13598SOL    HW151723   8.701   7.232   2.598 -1.0689  1.3495  2.4523
13598SOL    HW251724   8.586   7.163   2.692 -2.3354 -0.8222 -0.5927
13599SOL     OW51725   3.570   2.921   0.866  0.0613 -0.2049  0.4708
13599SOL    HW151726   3.631   2.993   0.834 -2.1053  1.5165  0.0433
13599SOL    HW251727   3.510   2.957   0.937 -0.9435 -1.6332  0.3680
13600SOL     OW51728   7.861   8.789   0.751  0.1817 -0.1471  0.3774
13600SOL    HW151729   7.863   8.721   0.824  1.3138 -1.3027 -0.7091
13600SOL    HW251730   7.954   8.820   0.733  0.2646 -1.9273 -2.4702
13601SOL     OW51731   9.534   0.126   1.550  0.8878  0.2948 -0.0566
13601SOL    HW151732   9.582   0.127   1.462 -0.1536  0.7359 -0.6189
13601SOL    HW251733   9.438   0.150   1.537 -0.7270 -5.2502  0.3247
13602SOL     OW51734   9.668   2.464   1.272  0.1781 -0.2740  0.1461
13602SOL    HW151735   9.671   2.366   1.250  1.0481  0.2354 -2.1468
13602SOL    HW251736   9.573   2.495   1.272 -0.0123 -0.8332 -0.5983
13603SOL     OW51737   9.413   9.193   5.549  0.4220 -0.6844 -0.1700
13603SOL    HW151738   9.479   9.223   5.480 -1.4698 -1.5103 -2.4089
13603SOL    HW251739   9.380   9.273   5.600  0.3807  0.2201 -1.5636
13604SOL     OW51740   0.349   3.264   3.284  0.8191  0.0159 -0.4468
13604SOL    HW151741   0.314   3.345   3.237 -1.9224  1.0702  3.2186
13604SOL    HW251742   0.300   3.183   3.252  1.1250  0.2627 -1.5753
13605SOL     OW51743   0.177   7.510   3.357  0.4537 -0.6010  0.0531
13605SOL    HW151744   0.217   7.582   3.413 -1.8859  1.5723 -0.9550
13605SOL    HW251745   0.103   7.466   3.408 -1.2931  0.9899 -1.0481
13606SOL     OW51746   7.676   9.758   1.790  0.7246 -0.7768 -0.1610
13606SOL    HW151747   7.652   9.851   1.816  1.5637 -0.7477  0.5023
13606SOL    HW251748   7.592   9.707   1.769  0.2904  0.1979 -0.7965
13607SOL     OW51749   9.989   5.242   2.981  0.2109 -0.7839 -0.9509
13607SOL    HW151750   9.928   5.312   3.018  1.2722 -0.0149 -0.6153
13607SOL    HW251751   9.949   5.152   2.995 -0.4168 -0.3572  0.0942
13608SOL     OW51752   8.632   3.488   0.931  0.3828  0.3934  0.5164
13608SOL    HW151753   8.653   3.583   0.910  0.6008  0.5794  1.5305
13608SOL    HW251754   8.553   3.485   0.993 -0.7234 -0.1643 -0.9084
13609SOL     OW51755   3.260   2.459   0.905  0.4448 -0.2109 -0.1000
13609SOL    HW151756   3.192   2.386   0.917 -1.9377  2.0626  0.5801
13609SOL    HW251757   3.238   2.512   0.824  0.6319  1.3514  0.8568
13610SOL     OW51758   9.604   6.465   2.677 -0.1176 -0.2285  0.3192
13610SOL    HW151759   9.684   6.525   2.681  0.6277 -1.3403  2.5018
13610SOL    HW251760   9.523   6.516   2.703  0.1037  0.4979 -0.3845
13611SOL     OW51761   2.862   1.073   2.586  0.1058  0.1725  0.0366
13611SOL    HW151762   2.853   1.046   2.682 -1.3213  1.8456  0.4101
13611SOL    HW251763   2.832   1.168   2.576  1.0386  0.2764 -1.9325
13612SOL     OW51764   8.134   6.276   5.190 -0.0116  0.1827 -0.6516
13612SOL    HW151765   8.064   6.254   5.121  0.9202  0.0277 -1.5662
13612SOL    HW251766   8.100   6.347   5.251 -1.6490 -1.1489  0.0113
13613SOL     OW51767   8.863   9.022   0.177 -0.3697 -0.7135 -0.0449
13613SOL    HW151768   8.791   9.015   0.246 -2.0309  3.1439 -1.2910
13613SOL    HW251769   8.827   9.064   0.094  3.1181  0.6037 -0.9978
13614SOL     OW51770   2.193   3.121   2.371  0.2623 -0.7735 -0.2800
13614SOL    HW151771   2.118   3.156   2.316  1.6671  0.8173 -1.2085
13614SOL    HW251772   2.220   3.189   2.439  1.6497 -0.8673 -0.7308
13615SOL     OW51773   9.484   8.762   3.147  0.3384  0.3859 -0.2120
13615SOL    HW151774   9.543   8.840   3.168 -1.9861  2.1220 -0.0588
13615SOL    HW251775   9.392   8.778   3.183 -1.4971 -0.2802 -4.3957
13616SOL     OW51776   8.198   2.289   3.283 -0.5692  0.4323  0.2131
13616SOL    HW151777   8.140   2.370   3.280 -1.1317  0.0569  0.8472
13616SOL    HW251778   8.143   2.207   3.266  0.1777  0.2605 -1.4698
13617SOL     OW51779   8.165   4.676   4.840 -0.0611 -0.6248 -0.3114
13617SOL    HW151780   8.124   4.765   4.819  2.3462 -0.0822 -3.1654
13617SOL    HW251781   8.108   4.604   4.802 -0.7713 -0.1395 -0.1715
13618SOL     OW51782   2.461   5.377   3.185 -0.4837 -0.0379 -0.6231
13618SOL    HW151783   2.530   5.449   3.191 -1.2471  0.4971  2.7737
13618SOL    HW251784   2.498   5.300   3.134  2.9563 -0.1258  1.8182
13619SOL     OW51785   8.268   6.265   3.029  0.3326 -0.4410  0.0111
13619SOL    HW151786   8.169   6.280   3.029  0.1522 -1.5793 -0.4230
13619SOL    HW251787   8.295   6.219   2.945  0.9611 -1.8272  0.9438
13620SOL     OW51788   9.398   0.138   5.379  0.6349 -0.1533 -0.2572
13620SOL    HW151789   9.312   0.118   5.426  0.6097 -0.0554 -0.2632
13620SOL    HW251790   9.379   0.170   5.286  0.7030 -0.8580 -0.5169
13621SOL     OW51791   7.571   1.899   1.827 -0.2495 -0.2342 -0.0945
13621SOL    HW151792   7.620   1.812   1.833 -1.1504 -0.7696 -0.4226
13621SOL    HW251793   7.615   1.966   1.886  0.3400 -0.9658  0.3044
13622SOL     OW51794   2.964   2.488   1.256  0.1835  0.1490  0.1720
13622SOL    HW151795   2.913   2.409   1.290  0.1467  0.9298  2.0321
13622SOL    HW251796   3.057   2.486   1.292  0.3965  0.5850 -0.3381
13623SOL     OW51797   2.131   5.836   0.264  0.3337 -0.2372 -0.2860
13623SOL    HW151798   2.223   5.804   0.239 -0.4311 -2.8262  0.0298
13623SOL    HW251799   2.109   5.807   0.357 -0.6706  0.6567 -0.2329
13624SOL     OW51800   5.339   1.468   1.747  0.0475 -0.3406  0.2433
13624SOL    HW151801   5.431   1.438   1.776 -0.0244 -1.3219 -0.5144
13624SOL    HW251802   5.271   1.404   1.782 -0.1945 -0.5722 -0.6355
13625SOL     OW51803   0.782   8.909   5.440 -0.0085  0.0194  0.4904
13625SOL    HW151804   0.707   8.893   5.505 -1.5060  2.5919 -0.5024
13625SOL    HW251805   0.819   9.001   5.455  1.2410 -0.2816 -0.7040
13626SOL     OW51806   4.518   0.975   0.227  0.0672  0.7067  0.1909
13626SOL    HW151807   4.527   0.966   0.128 -0.6757 -0.4375  0.2179
13626SOL    HW251808   4.603   0.945   0.271 -0.7923 -2.0655  0.0491
13627SOL     OW51809   4.368   4.499   5.635 -0.1401  0.6737  0.2372
13627SOL    HW151810   4.307   4.569   5.671  0.6977  0.9690  1.1104
13627SOL    HW251811   4.328   4.459   5.552 -2.0825 -0.0001  1.4622
13628SOL     OW51812   0.146   7.881   3.693  0.0465 -0.2002 -0.0955
13628SOL    HW151813   0.115   7.972   3.664  2.5684  0.4116 -1.0275
13628SOL    HW251814   0.155   7.822   3.613 -0.9661 -1.0827  0.4379
13629SOL     OW51815   7.248   0.822   0.133 -0.2500  0.6733  0.0567
13629SOL    HW151816   7.317   0.765   0.087 -0.9522  0.4508 -0.7268
13629SOL    HW251817   7.292   0.903   0.171  0.6422 -0.0399  0.5663
13630SOL     OW51818   3.501   9.818   0.307 -0.1139 -0.5164  0.0972
13630SOL    HW151819   3.581   9.797   0.363 -0.4853 -0.2940  0.7227
13630SOL    HW251820   3.425   9.845   0.367 -0.4785 -0.1537 -0.5223
13631SOL     OW51821   7.024   0.512   3.046  0.1287  0.4592  0.0575
13631SOL    HW151822   7.071   0.536   3.131  0.1194  1.7792 -0.3008
13631SOL    HW251823   7.084   0.456   2.989  0.7274  0.9117  0.2430
13632SOL     OW51824   1.610   8.832   0.284 -0.0319  0.4290 -0.2029
13632SOL    HW151825   1.533   8.879   0.328 -0.9012  0.7974 -2.0519
13632SOL    HW251826   1.579   8.744   0.249  1.1471 -0.7580  1.6392
13633SOL     OW51827   4.154   4.125   4.538 -0.4855 -0.0917  0.3873
13633SOL    HW151828   4.198   4.113   4.449  1.5116 -0.4793  1.3852
13633SOL    HW251829   4.201   4.197   4.590  0.3907 -1.9877  2.3233
13634SOL     OW51830   2.101   8.646   2.328 -0.1186  0.0924 -0.0143
13634SOL    HW151831   2.144   8.565   2.289 -1.2369 -0.0978 -0.8806
13634SOL    HW251832   2.143   8.728   2.289  1.0025 -0.0506  0.8510
13635SOL     OW51833   0.378   4.319   5.232  0.5559 -0.0949 -0.1054
13635SOL    HW151834   0.301   4.381   5.243  1.3469  0.8825 -0.0486
13635SOL    HW251835   0.452   4.364   5.182  1.0610 -1.0471 -0.2438
13636SOL     OW51836   2.709   4.687   5.059 -0.3290  0.0762  0.1898
13636SOL    HW151837   2.658   4.621   5.116  0.5453  0.2178  1.1587
13636SOL    HW251838   2.798   4.648   5.034  0.4181  1.0786  1.2168
13637SOL     OW51839   2.462   1.084   2.550 -0.4175 -0.0347  0.2654
13637SOL    HW151840   2.435   1.012   2.613  0.2430  0.2344  0.8517
13637SOL    HW251841   2.494   1.043   2.464 -0.3206 -0.4280  0.4893
13638SOL     OW51842   7.223   9.573   4.055  0.6519  0.3892 -0.2915
13638SOL    HW151843   7.137   9.553   4.102 -0.2537  0.6135 -1.8000
13638SOL    HW251844   7.283   9.494   4.059  0.6497  0.4620  1.3524
13639SOL     OW51845   8.844   5.413   2.026  0.0168  0.3638  0.5711
13639SOL    HW151846   8.941   5.386   2.026  0.1343  0.7538  2.0138
13639SOL    HW251847   8.789   5.336   1.993  0.7321 -0.1785  0.6133
13640SOL     OW51848   8.847   5.454   5.292 -0.0723 -0.0739  0.0333
13640SOL    HW151849   8.881   5.547   5.276  0.7416 -0.4962 -0.7065
13640SOL    HW251850   8.904   5.409   5.360 -1.2187  0.3857  1.3239
13641SOL     OW51851   2.296   0.216   1.719 -0.6755 -0.3631 -0.0660
13641SOL    HW151852   2.285   0.129   1.768  0.3976 -0.2746  0.3501
13641SOL    HW251853   2.296   0.198   1.620 -0.1651 -0.8891  0.0194
13642SOL     OW51854   9.392   4.118   4.680 -0.0446 -0.6780 -0.1169
13642SOL    HW151855   9.396   4.023   4.710  0.4280 -0.4241  0.6348
13642SOL    HW251856   9.484   4.155   4.671 -0.2483  0.0489  0.7093
13643SOL     OW51857   4.575   1.466   5.531  0.2634  0.2280  0.4571
13643SOL    HW151858   4.545   1.371   5.519  1.3767  0.1226 -1.8982
13643SOL    HW251859   4.503   1.518   5.577 -1.8855 -0.9236 -1.4760
13644SOL     OW51860   0.201   1.765   2.661  0.1146  0.4519  0.8498
13644SOL    HW151861   0.141   1.686   2.674 -0.1333  0.3798 -0.5964
13644SOL    HW251862   0.186   1.831   2.734  0.1645 -0.7389  1.9467
13645SOL     OW51863   8.397   4.567   0.526  0.2131  0.3648  0.6739
13645SOL    HW151864   8.358   4.510   0.454  0.4106 -1.0787  1.6879
13645SOL    HW251865   8.342   4.650   0.536  0.7552  1.0620 -1.7953
13646SOL     OW51866   3.332   2.839   2.631 -0.3055  0.3141 -0.0305
13646SOL    HW151867   3.402   2.773   2.661  0.1739  0.6268 -0.4469
13646SOL    HW251868   3.276   2.865   2.709  0.8491  1.0198  0.5833
13647SOL     OW51869   8.492   9.143   0.452  0.7261 -0.1379  0.4801
13647SOL    HW151870   8.533   9.217   0.505 -0.0564  0.3223  0.4638
13647SOL    HW251871   8.396   9.132   0.479  0.1593  0.4726 -1.1896
13648SOL     OW51872   8.195   1.956   1.448  0.0602  0.1088 -0.0543
13648SOL    HW151873   8.188   2.053   1.472 -0.9889  0.7258 -2.6910
13648SOL    HW251874   8.113   1.908   1.481  0.1694  0.2800  0.4760
13649SOL     OW51875   9.267   4.306   0.914 -0.0886  0.0484  0.8158
13649SOL    HW151876   9.319   4.329   0.832  1.5575  1.0361  2.0912
13649SOL    HW251877   9.258   4.207   0.922 -0.7704 -0.0443 -0.8356
13650SOL     OW51878   7.972   2.905   2.629  0.0840  0.1146 -0.3303
13650SOL    HW151879   7.933   2.913   2.721  1.6681  0.1912  0.3472
13650SOL    HW251880   7.967   2.993   2.583  1.6368  0.7266  0.6488
13651SOL     OW51881   7.958   8.581   4.832 -0.0865 -0.0497 -0.2244
13651SOL    HW151882   8.048   8.547   4.856  0.5474  1.8699  0.1863
13651SOL    HW251883   7.953   8.597   4.733  0.2623  0.4788 -0.1602
13652SOL     OW51884   8.414   3.808   1.779 -0.1927  0.1058  0.8353
13652SOL    HW151885   8.367   3.732   1.735 -2.2216  2.3813 -1.0728
13652SOL    HW251886   8.365   3.835   1.861  0.2519 -0.3083  1.2421
13653SOL     OW51887   2.959   8.274   5.008 -1.0753  0.6326  0.2364
13653SOL    HW151888   2.952   8.177   5.034  0.0208  0.0804 -1.4668
13653SOL    HW251889   2.886   8.297   4.944 -0.2909  0.4853 -0.7088
13654SOL     OW51890   3.125   7.199   4.080  0.3641 -0.2095  0.0541
13654SOL    HW151891   3.176   7.271   4.032  0.9152 -2.5857 -3.1196
13654SOL    HW251892   3.027   7.216   4.072  0.4845  0.0731 -0.8880
13655SOL     OW51893   0.642   2.531   2.542  0.0971 -0.2949 -0.6316
13655SOL    HW151894   0.553   2.576   2.544  1.0962  1.6863  0.7226
13655SOL    HW251895   0.634   2.445   2.490 -2.1068  0.8304 -2.2874
13656SOL     OW51896   0.858   0.341   5.576  0.3231  0.3966 -0.0750
13656SOL    HW151897   0.953   0.313   5.585 -0.0557 -0.5291  1.3767
13656SOL    HW251898   0.847   0.435   5.610  0.3093 -0.3620  2.1127
13657SOL     OW51899   4.065   4.614   1.885 -0.5504 -0.4174 -0.1806
13657SOL    HW151900   4.009   4.588   1.964  0.7416 -0.7264  0.6429
13657SOL    HW251901   4.082   4.533   1.829 -0.6915 -0.3767 -0.2837
13658SOL     OW51902   7.945   9.722   2.221  0.3734 -0.1173 -0.7101
13658SOL    HW151903   7.864   9.725   2.163  0.1857  1.9420 -0.3492
13658SOL    HW251904   8.023   9.761   2.172  1.2879 -2.4048 -1.1920
13659SOL     OW51905   0.558   0.213   3.610 -0.0575 -0.3829  0.1714
13659SOL    HW151906   0.625   0.216   3.684 -0.9825  0.1852  0.9890
13659SOL    HW251907   0.579   0.136   3.550  0.4593 -1.0979  1.2518
13660SOL     OW51908   2.035   2.066   4.403  0.3097 -1.1004 -0.4531
13660SOL    HW151909   1.978   2.127   4.458  3.1145  0.9635  0.2856
13660SOL    HW251910   1.980   2.025   4.330 -2.2545  0.2290  0.6775
13661SOL     OW51911   1.625   2.484   3.577 -0.3174 -0.1514  0.4531
13661SOL    HW151912   1.667   2.496   3.666 -0.8818  0.5452  0.6322
13661SOL    HW251913   1.696   2.481   3.506  0.3413 -3.5298  1.1802
13662SOL     OW51914   0.059   1.283   3.014 -0.2439  0.4439 -0.2607
13662SOL    HW151915  -0.005   1.336   2.958 -0.1333  0.1753 -0.6478
13662SOL    HW251916   0.110   1.220   2.955  1.4435  1.6955 -0.1917
13663SOL     OW51917   9.353   7.982   5.219  0.1432 -0.1008  0.1715
13663SOL    HW151918   9.437   8.036   5.216  0.4197 -0.3830  2.4632
13663SOL    HW251919   9.369   7.892   5.179  1.2368 -0.5731  1.6800
13664SOL     OW51920   7.795   5.273   0.870  0.0705 -0.4133 -0.4524
13664SOL    HW151921   7.889   5.306   0.862 -0.5305  1.2143 -0.9023
13664SOL    HW251922   7.785   5.220   0.955  1.1296  0.2871  0.1090
13665SOL     OW51923   8.778   0.391   5.549 -0.1815 -0.0572 -0.7549
13665SOL    HW151924   8.693   0.441   5.532 -1.9059 -2.1845  1.2769
13665SOL    HW251925   8.849   0.455   5.578 -1.7678  1.4539 -0.1465
13666SOL     OW51926   9.973   2.868   1.927 -0.3982  0.3923 -0.6709
13666SOL    HW151927  10.026   2.783   1.939  0.0342  0.6605 -0.6808
13666SOL    HW251928   9.918   2.884   2.009 -1.9471 -0.9213 -1.4449
13667SOL     OW51929   1.946   6.739   4.191  0.0129 -0.5037 -0.4079
13667SOL    HW151930   1.948   6.724   4.093  1.3376  1.2183 -0.6796
13667SOL    HW251931   1.998   6.667   4.237  0.7217 -0.4512 -1.1092
13668SOL     OW51932   8.744   0.722   3.002  0.1280  0.0683  0.0594
13668SOL    HW151933   8.690   0.695   2.922 -0.8284 -0.1992  0.7846
13668SOL    HW251934   8.695   0.697   3.086  2.0410 -1.5092  0.7371
13669SOL     OW51935   1.533   7.919   2.841  0.1383  1.0512  0.0998
13669SOL    HW151936   1.459   7.987   2.846 -0.7553 -0.0170  1.7422
13669SOL    HW251937   1.496   7.832   2.810  0.7586  0.5878  0.6495
13670SOL     OW51938   9.013   9.128   4.189 -0.8143  0.0965 -0.0540
13670SOL    HW151939   8.936   9.065   4.179 -0.3343 -0.3865 -0.7856
13670SOL    HW251940   9.034   9.169   4.100  0.8962 -1.1102 -0.2432
13671SOL     OW51941   3.014   8.710   3.331 -0.2647  0.3249 -0.5304
13671SOL    HW151942   2.921   8.685   3.358 -0.2705 -0.7233 -1.5104
13671SOL    HW251943   3.078   8.678   3.401 -0.7258  2.2433  0.8407
13672SOL     OW51944   1.835   5.280   2.862  0.4714  0.6973  0.1789
13672SOL    HW151945   1.821   5.198   2.918 -0.7679  1.3285  0.8332
13672SOL    HW251946   1.809   5.261   2.767 -0.5379  0.5398  0.4822
13673SOL     OW51947   0.280   8.686   1.770  0.5488  0.1557 -0.1478
13673SOL    HW151948   0.316   8.689   1.677  1.6141 -1.2732  0.2057
13673SOL    HW251949   0.355   8.668   1.834 -0.4066 -0.3353  0.8428
13674SOL     OW51950   9.841   1.657   5.446  0.2542 -0.5618  0.3039
13674SOL    HW151951   9.851   1.565   5.484  1.5993 -0.9939 -1.0680
13674SOL    HW251952   9.932   1.699   5.437 -0.3868  1.1360  1.4717
13675SOL     OW51953   0.975   6.294   4.659  0.0483  0.1654 -0.4284
13675SOL    HW151954   0.974   6.240   4.744  1.3290  1.6470  0.5742
13675SOL    HW251955   0.904   6.364   4.663  0.0080  0.1346 -0.6310
13676SOL     OW51956   9.024   3.695   2.791 -0.3001  0.2383  0.2975
13676SOL    HW151957   9.078   3.776   2.813 -0.7935  0.2006  1.7295
13676SOL    HW251958   8.939   3.697   2.844 -1.2961 -0.1421 -1.2638
13677SOL     OW51959   0.889   1.286   0.220 -0.1994  0.2866  0.3319
13677SOL    HW151960   0.965   1.223   0.230 -1.5373 -1.6252 -1.1249
13677SOL    HW251961   0.923   1.376   0.193  1.4985 -0.6420 -0.6884
13678SOL     OW51962   6.075   1.292   2.391  0.0151 -0.1062 -0.0766
13678SOL    HW151963   6.086   1.360   2.464  0.0264 -0.3929  0.1918
13678SOL    HW251964   5.994   1.314   2.337 -1.1891 -1.0244  1.2804
13679SOL     OW51965   2.340   2.164   4.951 -0.1155 -0.1258  0.2791
13679SOL    HW151966   2.343   2.070   4.987  0.0292 -0.9954 -1.9156
13679SOL    HW251967   2.245   2.197   4.954 -0.6159 -1.3346 -1.3144
13680SOL     OW51968   0.071   5.170   2.558 -0.6190  0.1496 -0.2536
13680SOL    HW151969  -0.015   5.202   2.516 -1.7061 -1.3401  0.8060
13680SOL    HW251970   0.133   5.248   2.569 -2.0600  1.3572 -0.4659
13681SOL     OW51971   4.407   2.342   1.852  0.0239  0.4558 -0.1813
13681SOL    HW151972   4.424   2.433   1.889  0.3587 -0.2690  1.5068
13681SOL    HW251973   4.474   2.278   1.890 -2.2792 -1.1451  1.2870
13682SOL     OW51974   9.810   4.229   3.471 -0.0192  0.3702  0.1082
13682SOL    HW151975   9.758   4.176   3.538  1.2194 -1.8821 -0.6389
13682SOL    HW251976   9.815   4.178   3.385  4.0540  0.1091  0.3978
13683SOL     OW51977   2.761   6.909   2.194  0.1368  0.0628 -0.1527
13683SOL    HW151978   2.662   6.908   2.210 -0.0181  0.4988 -1.0371
13683SOL    HW251979   2.779   6.905   2.096  1.0001  0.1368 -0.0032
13684SOL     OW51980   8.001   0.494   1.750 -0.2404 -0.0614  0.4711
13684SOL    HW151981   8.034   0.573   1.699  0.5941 -1.8239 -1.8350
13684SOL    HW251982   7.902   0.502   1.764  0.0127  1.8905  1.2179
13685SOL     OW51983   2.439   9.789   2.663 -0.0271  0.0870  0.7801
13685SOL    HW151984   2.361   9.853   2.668 -0.8282 -0.9119  1.1797
13685SOL    HW251985   2.523   9.841   2.646 -0.8551  1.1287 -0.2337
13686SOL     OW51986   7.422   1.183   0.444 -0.5630  0.0931  0.2611
13686SOL    HW151987   7.519   1.178   0.469 -0.3278 -1.0209 -0.8487
13686SOL    HW251988   7.400   1.275   0.414 -0.1249  0.6557  1.6219
13687SOL     OW51989   1.243   2.357   0.666 -0.4103 -0.4610 -0.6895
13687SOL    HW151990   1.194   2.410   0.736 -0.1282 -0.1898 -0.6978
13687SOL    HW251991   1.178   2.322   0.599 -0.8753 -1.9436  0.5039
13688SOL     OW51992   8.815   6.504   3.886  0.4722 -0.2245  0.3168
13688SOL    HW151993   8.733   6.511   3.829  0.0822 -0.9795  0.7745
13688SOL    HW251994   8.895   6.493   3.827 -0.0191 -1.8624 -0.0732
13689SOL     OW51995   1.573   0.335   2.164 -0.0129  0.0137  0.2543
13689SOL    HW151996   1.572   0.296   2.256 -0.6330  0.2953  0.3720
13689SOL    HW251997   1.482   0.325   2.123 -0.0812  1.0234  0.1570
13690SOL     OW51998   5.981   7.756   2.324 -0.0575  0.3950 -0.0485
13690SOL    HW151999   6.077   7.735   2.304  0.2817  1.2072  0.7092
13690SOL    HW252000   5.947   7.694   2.395 -0.7648 -1.3665 -1.8649
13691SOL     OW52001   0.209   0.676   0.850  0.3493  0.5769  0.0065
13691SOL    HW152002   0.145   0.744   0.885  0.9609  1.0768  0.1625
13691SOL    HW252003   0.269   0.717   0.782  2.8667  1.0788  2.4152
13692SOL     OW52004   7.796   8.724   2.503  0.2517 -0.0815  0.2225
13692SOL    HW152005   7.849   8.764   2.427 -0.2285  0.3887  0.1330
13692SOL    HW252006   7.823   8.769   2.588 -0.5199  0.6604  0.0776
13693SOL     OW52007   7.619   2.477   1.406 -0.4450  0.1486  0.2151
13693SOL    HW152008   7.565   2.503   1.326 -2.2249 -1.0379  0.9866
13693SOL    HW252009   7.642   2.380   1.401  1.8383  0.6940 -0.2076
13694SOL     OW52010   7.807   5.544   4.622  0.3193  0.3498 -0.7827
13694SOL    HW152011   7.785   5.565   4.526  1.3043 -0.2597 -1.1394
13694SOL    HW252012   7.887   5.597   4.650 -0.1200  0.7173 -0.2152
13695SOL     OW52013   4.414   4.237   3.386  0.8097  0.3542 -0.5869
13695SOL    HW152014   4.475   4.306   3.426  2.1072 -0.1232 -1.7306
13695SOL    HW252015   4.467   4.156   3.362 -0.5048 -0.5665 -0.4237
13696SOL     OW52016   4.483   7.981   4.200  0.0056 -0.4411  0.4266
13696SOL    HW152017   4.464   8.056   4.138 -0.2140 -1.5363 -0.8574
13696SOL    HW252018   4.402   7.923   4.209  0.4203 -0.9883  0.7354
13697SOL     OW52019   1.522   6.018   0.419  0.3804  0.0522  0.4272
13697SOL    HW152020   1.594   6.052   0.479 -0.0033  0.0564  0.8968
13697SOL    HW252021   1.527   5.919   0.414 -0.1264 -0.0217  1.1827
13698SOL     OW52022   3.732   9.570   2.781 -0.4185  0.2205 -0.3900
13698SOL    HW152023   3.650   9.553   2.727 -0.5784 -1.0035  0.2105
13698SOL    HW252024   3.748   9.492   2.842  1.0718  0.5471 -0.3555
13699SOL     OW52025   0.950   8.241   1.502  0.8242  0.1207  0.1915
13699SOL    HW152026   0.988   8.314   1.447  1.7739  0.2459  0.9978
13699SOL    HW252027   1.006   8.227   1.584 -1.0129  0.5121  1.5684
13700SOL     OW52028   2.663   1.209   3.756  0.3984  0.0851  0.7746
13700SOL    HW152029   2.732   1.153   3.711 -0.4958 -1.0601  0.8106
13700SOL    HW252030   2.624   1.159   3.833  2.4809  2.3088  3.3923
13701SOL     OW52031   3.557   2.958   4.810 -0.1514 -0.2029 -0.0734
13701SOL    HW152032   3.572   3.043   4.761 -0.7470 -0.3323 -0.4808
13701SOL    HW252033   3.486   2.971   4.880 -1.2706 -0.7334 -1.0986
13702SOL     OW52034   9.122   2.492   5.424  0.4573  0.1263 -0.2493
13702SOL    HW152035   9.062   2.549   5.481  0.8220 -0.0369  0.2998
13702SOL    HW252036   9.168   2.549   5.357  0.6225  0.4387  0.1286
13703SOL     OW52037   1.469   1.179   2.822  0.2392  0.4721  0.1486
13703SOL    HW152038   1.510   1.112   2.883  1.0195  0.9064  0.0977
13703SOL    HW252039   1.462   1.141   2.729 -0.8340 -0.1413  0.4626
13704SOL     OW52040   9.663   0.050   1.020 -0.2304  0.4718 -0.4257
13704SOL    HW152041   9.716   0.126   1.058 -0.2348  0.1253  0.2818
13704SOL    HW252042   9.567   0.075   1.016 -0.2127  0.5561 -0.3297
13705SOL     OW52043   1.418   7.379   1.554 -0.2913  0.0141 -0.3784
13705SOL    HW152044   1.354   7.329   1.612 -0.0501 -0.4424 -0.5111
13705SOL    HW252045   1.493   7.319   1.526  0.5062  0.6990  0.2479
13706SOL     OW52046   4.331   4.481   2.257 -0.5671 -0.5806  0.0535
13706SOL    HW152047   4.354   4.434   2.172  1.0994 -0.7127  0.5487
13706SOL    HW252048   4.345   4.420   2.334  0.6525  0.3824  0.6214
13707SOL     OW52049   0.781   6.591   2.338  0.3413  0.0766  0.4922
13707SOL    HW152050   0.812   6.665   2.398  0.8137 -0.1864  0.5652
13707SOL    HW252051   0.811   6.609   2.244 -2.4070  1.7346 -0.1592
13708SOL     OW52052   1.389   5.565   4.458 -0.4141  0.9276 -0.3861
13708SOL    HW152053   1.421   5.659   4.446 -0.1510  0.8696 -0.1274
13708SOL    HW252054   1.295   5.566   4.492  0.1861  1.0972  1.2725
13709SOL     OW52055   4.109   7.736   2.101  0.0956  0.2846 -0.9185
13709SOL    HW152056   4.190   7.794   2.104 -0.5002  1.1193 -0.6209
13709SOL    HW252057   4.120   7.660   2.165  0.5304  0.5471 -0.6779
13710SOL     OW52058   8.665   8.524   2.949  0.2087  0.2596  0.3882
13710SOL    HW152059   8.750   8.542   2.997  0.2997 -1.1267  0.7615
13710SOL    HW252060   8.605   8.604   2.957  2.4331  2.2474 -2.0422
13711SOL     OW52061   1.565   3.743   1.378  0.1120 -0.1310  0.5543
13711SOL    HW152062   1.548   3.765   1.474 -0.2515 -0.9996  0.6990
13711SOL    HW252063   1.615   3.657   1.372 -0.7008 -0.5703 -0.0575
13712SOL     OW52064   8.006   5.003   0.614 -0.3873  0.4048 -0.7452
13712SOL    HW152065   7.978   5.098   0.598 -2.3017 -0.2526 -1.5088
13712SOL    HW252066   7.938   4.959   0.673  0.8647 -0.2942  0.1825
13713SOL     OW52067   9.739   9.462   0.974  0.3832 -0.0785  0.4847
13713SOL    HW152068   9.743   9.434   1.070  1.2921 -0.5115  0.3300
13713SOL    HW252069   9.738   9.380   0.916 -1.1758  0.1682  0.1547
13714SOL     OW52070   2.415   7.633   0.886  0.1816 -0.1231  0.5612
13714SOL    HW152071   2.425   7.682   0.973  0.4341  0.3726  0.2522
13714SOL    HW252072   2.440   7.537   0.899  0.4564  0.0045  0.9789
13715SOL     OW52073   1.659   3.647   0.748 -0.0890 -0.5236 -0.0787
13715SOL    HW152074   1.757   3.629   0.745  0.0551  0.0480  1.2710
13715SOL    HW252075   1.616   3.610   0.665  1.2427 -0.8553 -0.6260
13716SOL     OW52076   8.677   4.239   4.938 -0.1565 -0.2881 -0.1396
13716SOL    HW152077   8.713   4.246   5.032 -0.5569  1.8113 -0.1244
13716SOL    HW252078   8.752   4.255   4.873 -0.3586  0.7183 -0.1375
13717SOL     OW52079   1.340   8.624   4.613  0.2529  0.0503 -0.0603
13717SOL    HW152080   1.291   8.552   4.564  1.3303 -1.0086  0.4008
13717SOL    HW252081   1.423   8.648   4.562  2.3292 -2.3149  2.0693
13718SOL     OW52082   0.332   6.107   5.584  0.1373 -0.2879 -0.7926
13718SOL    HW152083   0.372   6.051   5.511  0.6487 -1.0543  0.0687
13718SOL    HW252084   0.390   6.187   5.600  1.7314 -1.7524  0.9233
13719SOL     OW52085   1.927   4.816   0.259 -0.0125  0.4904 -0.6630
13719SOL    HW152086   2.027   4.812   0.268 -0.1369  0.8737  1.1479
13719SOL    HW252087   1.896   4.744   0.197  1.4448  0.7990 -1.7759
13720SOL     OW52088   1.795   1.957   2.037  0.4889  0.1342  0.3029
13720SOL    HW152089   1.722   1.973   2.103 -0.6084  0.5415 -1.0049
13720SOL    HW252090   1.760   1.966   1.944  1.7904 -1.4444 -0.3756
13721SOL     OW52091   8.225   8.919   3.053 -0.3302 -0.3880 -0.3859
13721SOL    HW152092   8.191   8.971   2.974 -0.2866 -1.0715 -0.8632
13721SOL    HW252093   8.154   8.912   3.122  0.0243  1.2783  0.1823
13722SOL     OW52094   1.734   9.275   3.345 -0.3223 -0.3089 -0.3503
13722SOL    HW152095   1.818   9.242   3.301 -2.0655 -0.9741 -3.3703
13722SOL    HW252096   1.751   9.362   3.389  1.4134  0.7994 -3.0928
13723SOL     OW52097   1.857   5.845   3.234  0.2732  0.1246  0.5996
13723SOL    HW152098   1.925   5.777   3.208  0.0976  0.3588 -0.4857
13723SOL    HW252099   1.844   5.842   3.333  1.3762 -0.3715  0.7445
13724SOL     OW52100   0.374   4.958   5.292 -0.0721 -0.0907 -0.2394
13724SOL    HW152101   0.275   4.953   5.278 -0.2683  0.6068  0.8172
13724SOL    HW252102   0.403   5.054   5.288  0.4543 -0.2322  0.1475
13725SOL     OW52103   6.941   6.554   2.457 -0.4092  0.3012  0.3505
13725SOL    HW152104   6.917   6.460   2.435  1.3169 -0.3398  1.0987
13725SOL    HW252105   6.865   6.615   2.433 -1.3965 -1.2276 -0.4646
13726SOL     OW52106   1.171   9.367   1.030 -0.7466  0.5912 -0.1169
13726SOL    HW152107   1.160   9.268   1.033 -0.6599  0.5023 -2.2246
13726SOL    HW252108   1.263   9.389   0.996 -0.9672  1.3969 -0.1845
13727SOL     OW52109   7.963   9.946   3.833 -0.4176 -0.3050 -0.0090
13727SOL    HW152110   7.950   9.859   3.787 -0.4033 -0.5996  0.5410
13727SOL    HW252111   7.895   9.956   3.906 -0.8870  0.4683 -0.5493
13728SOL     OW52112   3.038   9.135   2.934 -0.2063  0.0275  0.2319
13728SOL    HW152113   3.047   9.036   2.922 -2.7313 -0.0966 -0.9813
13728SOL    HW252114   2.942   9.158   2.948  0.3294  2.3492  0.2467
13729SOL     OW52115   2.988   8.198   4.639 -0.3693  0.2141 -0.2765
13729SOL    HW152116   3.066   8.135   4.640 -0.5799 -0.0589 -0.7566
13729SOL    HW252117   2.937   8.190   4.725  1.7143  2.4033  1.2423
13730SOL     OW52118   5.310   7.909   3.319 -0.4046  0.0360 -0.2187
13730SOL    HW152119   5.290   7.968   3.242  4.0428 -0.1898 -1.7364
13730SOL    HW252120   5.292   7.814   3.293  0.6427  0.0023 -0.8654
13731SOL     OW52121   8.185   1.723   2.083 -0.1614  0.5815  0.1319
13731SOL    HW152122   8.182   1.665   2.001 -2.4670 -0.5605  0.9819
13731SOL    HW252123   8.264   1.698   2.139 -0.6577 -1.1704  0.0697
13732SOL     OW52124   9.380   5.565   1.124  0.1853  0.1745 -0.0339
13732SOL    HW152125   9.297   5.508   1.130 -0.4810  1.0986 -0.3878
13732SOL    HW252126   9.453   5.522   1.177 -1.0089  0.2043  1.6792
13733SOL     OW52127   7.464   6.967   2.878 -0.1808 -0.1506  0.1817
13733SOL    HW152128   7.449   6.960   2.779  1.3187  0.9732 -0.1316
13733SOL    HW252129   7.439   6.880   2.922 -2.6710 -0.0310 -0.9352
13734SOL     OW52130   0.551   7.345   5.261  0.0066  0.1742  0.7498
13734SOL    HW152131   0.452   7.331   5.262  0.1151 -0.6802 -0.4515
13734SOL    HW252132   0.578   7.387   5.175  0.6629  0.6495  1.1844
13735SOL     OW52133   2.021   5.320   4.655  0.4546 -0.6298 -0.0718
13735SOL    HW152134   2.086   5.260   4.702  0.4490  0.3739  1.2703
13735SOL    HW252135   2.051   5.415   4.666 -0.8459 -0.2159 -0.0614
13736SOL     OW52136   8.069   5.990   1.665  0.1544  0.5083 -0.0199
13736SOL    HW152137   8.060   5.910   1.725  1.0696  0.1582 -0.3492
13736SOL    HW252138   8.068   5.961   1.570 -1.8045  1.1157 -0.2162
13737SOL     OW52139   3.282   6.727   3.710  0.2732  0.7276 -0.2497
13737SOL    HW152140   3.224   6.786   3.767  0.5129  0.8192 -0.0985
13737SOL    HW252141   3.356   6.782   3.671 -0.4374  0.8610 -1.4184
13738SOL     OW52142   0.670   1.760   1.864  0.0867 -0.2461  0.3077
13738SOL    HW152143   0.758   1.808   1.869 -0.3815  0.4730  2.1386
13738SOL    HW252144   0.610   1.808   1.799  0.1766  0.7410  0.9370
13739SOL     OW52145   0.492   6.752   4.619  0.3448 -0.3105 -0.3054
13739SOL    HW152146   0.513   6.841   4.578  0.6860 -0.1343  0.2447
13739SOL    HW252147   0.419   6.708   4.566  0.7198 -0.0547 -1.0437
13740SOL     OW52148   7.325   0.317   4.201 -0.5372  0.2638 -0.3013
13740SOL    HW152149   7.380   0.280   4.276 -1.7140 -0.6653  0.1076
13740SOL    HW252150   7.324   0.417   4.208  1.0433  0.2916 -0.2802
13741SOL     OW52151   9.525   4.213   3.313 -0.0461  0.8619  0.0216
13741SOL    HW152152   9.503   4.240   3.406 -0.1748  2.9279 -0.5992
13741SOL    HW252153   9.624   4.213   3.300  0.0537 -1.0370  0.6128
13742SOL     OW52154   6.959   8.966   3.352 -0.2166 -0.4050  0.4652
13742SOL    HW152155   6.980   9.029   3.427  1.3001  2.2457 -2.0677
13742SOL    HW252156   7.044   8.943   3.304 -1.1120 -2.3949 -0.1997
13743SOL     OW52157   4.614   3.613   5.535  0.3020  0.6349  0.4547
13743SOL    HW152158   4.678   3.560   5.590  0.3554  0.5827  0.3414
13743SOL    HW252159   4.628   3.593   5.439  1.5670  2.2236  0.2782
13744SOL     OW52160   0.675   3.769   1.987  0.0751  0.7072  0.0678
13744SOL    HW152161   0.592   3.749   2.040 -0.4147 -0.3575 -1.0825
13744SOL    HW252162   0.650   3.818   1.903  0.7731  1.6881  0.4168
13745SOL     OW52163   2.236   2.065   5.334 -0.4602 -0.1736  0.0292
13745SOL    HW152164   2.287   2.112   5.406 -0.0189 -1.1849  0.3837
13745SOL    HW252165   2.140   2.093   5.337 -0.2765  0.4081  0.4781
13746SOL     OW52166   6.834   8.064   3.920  0.4610 -0.7373 -0.2859
13746SOL    HW152167   6.911   8.003   3.901  0.8774  0.3011 -2.0583
13746SOL    HW252168   6.853   8.154   3.881 -0.0239  0.6361  2.5333
13747SOL     OW52169   2.861   2.507   5.138  0.0820 -0.1375 -0.5218
13747SOL    HW152170   2.883   2.605   5.137 -0.1561 -0.0843 -2.1504
13747SOL    HW252171   2.770   2.493   5.099  0.2653 -1.0545 -0.6386
13748SOL     OW52172   7.080   0.686   2.773  0.2933 -0.1419 -0.2620
13748SOL    HW152173   7.015   0.696   2.848  0.2701  2.5065 -0.5850
13748SOL    HW252174   7.100   0.589   2.759 -0.0372 -0.7009  2.8481
13749SOL     OW52175   8.559   2.922   0.671 -0.1561  0.5382 -0.6615
13749SOL    HW152176   8.650   2.951   0.640 -0.2170  2.1095  0.5631
13749SOL    HW252177   8.563   2.902   0.769 -1.1913  0.8580 -0.5517
13750SOL     OW52178   6.350   0.017   0.900  0.7504  0.6142 -0.5201
13750SOL    HW152179   6.260   0.050   0.869  0.5706 -1.4686 -2.3352
13750SOL    HW252180   6.421   0.081   0.870  0.2848  0.0704 -2.8988
13751SOL     OW52181   0.750   0.153   2.992  0.1685 -0.2979  0.3357
13751SOL    HW152182   0.741   0.147   3.091 -0.8176 -1.2960  0.1993
13751SOL    HW252183   0.804   0.076   2.959  0.6711  0.1456  0.1137
13752SOL     OW52184   1.933   8.305   4.522 -0.1994  0.1709 -0.1096
13752SOL    HW152185   1.910   8.385   4.578  1.6987  0.2202  0.6327
13752SOL    HW252186   1.912   8.222   4.573 -1.2712  0.1874 -0.5075
13753SOL     OW52187   3.020   5.071   5.078 -0.0300  0.1668  0.1678
13753SOL    HW152188   3.110   5.070   5.035  0.0692  0.0254  0.3791
13753SOL    HW252189   2.965   4.996   5.040 -0.1873  0.4853 -0.2365
13754SOL     OW52190   8.502   3.037   4.117  0.0602  0.1923 -0.1758
13754SOL    HW152191   8.474   3.113   4.175  0.2766  0.1207  0.0223
13754SOL    HW252192   8.428   3.015   4.053 -0.5768 -0.3900  0.7410
13755SOL     OW52193   2.283   6.660   0.431 -0.3375 -0.4683  0.1541
13755SOL    HW152194   2.265   6.758   0.422  0.5113 -0.0844  2.3673
13755SOL    HW252195   2.294   6.620   0.340 -0.3018  1.5494 -0.7573
13756SOL     OW52196   5.076   3.776   3.397  0.6968  0.6316  0.4876
13756SOL    HW152197   5.158   3.726   3.424  0.2229 -0.7237 -0.5422
13756SOL    HW252198   5.008   3.712   3.362 -0.0389  1.9738 -0.5768
13757SOL     OW52199   4.005   0.462   3.538  0.3041  0.5616 -0.1055
13757SOL    HW152200   4.037   0.464   3.633  0.0983  0.4920 -0.0349
13757SOL    HW252201   3.933   0.531   3.525 -0.9343 -0.6435  0.2412
13758SOL     OW52202   2.342   1.672   0.495  0.3602 -0.2171 -0.1075
13758SOL    HW152203   2.355   1.763   0.456 -0.9721  0.0927  0.1313
13758SOL    HW252204   2.416   1.612   0.465  0.1919  0.4227 -1.8930
13759SOL     OW52205   3.527   9.507   2.615 -0.6688  0.1967  0.3570
13759SOL    HW152206   3.591   9.436   2.585 -1.3536  0.2716 -1.3265
13759SOL    HW252207   3.445   9.504   2.559 -2.0323  0.3348  2.2725
13760SOL     OW52208   4.502   4.058   4.646  0.4781  0.1150  0.6468
13760SOL    HW152209   4.497   4.108   4.559  3.1569 -1.8128 -0.6819
13760SOL    HW252210   4.574   4.098   4.703 -0.5157  0.6580  1.5481
13761SOL     OW52211   0.097   9.802   3.439 -0.1773 -0.7355 -0.2947
13761SOL    HW152212  -0.000   9.779   3.436 -0.3712  0.0985 -0.4036
13761SOL    HW252213   0.140   9.779   3.351  0.0243 -2.3700  0.1994
13762SOL     OW52214   0.240   9.596   5.337 -0.6895  0.0002  0.2827
13762SOL    HW152215   0.165   9.615   5.400  0.1079  1.5811  0.8040
13762SOL    HW252216   0.311   9.666   5.349  0.5644 -1.0979 -0.6514
13763SOL     OW52217   8.976   0.326   1.169 -0.2731 -0.3242 -0.3438
13763SOL    HW152218   8.995   0.298   1.263 -0.3252 -1.0201 -0.5363
13763SOL    HW252219   9.038   0.400   1.143 -1.0738  0.7072  0.6399
13764SOL     OW52220   5.037   9.066   3.229  0.3156 -0.3146 -0.0745
13764SOL    HW152221   4.974   9.057   3.305 -0.7069 -0.1200 -0.8935
13764SOL    HW252222   4.999   9.128   3.160  1.9293  0.7545 -0.0257
13765SOL     OW52223   0.593   5.056   3.946  0.3431  0.2939 -0.5225
13765SOL    HW152224   0.660   4.982   3.934 -1.2973 -0.8002 -3.3063
13765SOL    HW252225   0.599   5.118   3.868 -0.0391  1.7070  0.5680
13766SOL     OW52226   9.044   8.764   2.561 -0.6095  0.2029 -0.7031
13766SOL    HW152227   9.086   8.848   2.528  0.9299 -0.5546 -0.6977
13766SOL    HW252228   9.035   8.768   2.661  0.0054  0.1243 -0.6420
13767SOL     OW52229  10.004   4.236   0.064  0.1099  0.1599  0.3324
13767SOL    HW152230   9.968   4.330   0.069 -0.3355  0.1457 -2.1014
13767SOL    HW252231   9.960   4.180   0.134  0.9058  1.9230  2.2841
13768SOL     OW52232   2.169   2.326   1.096  0.0808 -0.4115 -0.1675
13768SOL    HW152233   2.103   2.300   1.026  0.0430 -1.6114  0.3034
13768SOL    HW252234   2.229   2.248   1.116  0.0558 -0.1068  1.1635
13769SOL     OW52235   4.423   7.879   0.786  0.0912 -0.0078  0.3667
13769SOL    HW152236   4.461   7.822   0.859  0.5035 -0.4957 -0.2153
13769SOL    HW252237   4.329   7.904   0.808  0.0706 -0.5105  0.8611
13770SOL     OW52238   8.145   2.068   4.568 -0.6291  0.5155  0.0247
13770SOL    HW152239   8.234   2.058   4.611  0.4669  0.7598 -2.1320
13770SOL    HW252240   8.081   2.108   4.633  0.7078 -0.0541  1.7283
13771SOL     OW52241   9.128   4.857   3.787  0.3593 -0.2732 -0.6969
13771SOL    HW152242   9.061   4.911   3.735 -0.4588 -0.1964  0.4211
13771SOL    HW252243   9.137   4.767   3.746 -1.5705 -0.8176  0.0350
13772SOL     OW52244   9.890   3.474   4.819 -0.1883  0.3125 -0.8542
13772SOL    HW152245   9.954   3.479   4.742  0.2154 -0.8580 -0.5980
13772SOL    HW252246   9.930   3.519   4.899  0.9066 -1.5665 -0.3029
13773SOL     OW52247   3.391   8.087   4.511 -0.5136 -0.0137  0.0539
13773SOL    HW152248   3.365   8.183   4.496 -0.5426 -0.2746 -1.6809
13773SOL    HW252249   3.426   8.049   4.425  2.2458 -0.7139  1.4398
13774SOL     OW52250   3.179   8.666   0.558 -0.4422 -0.1614 -0.1220
13774SOL    HW152251   3.263   8.656   0.612  0.9469  1.1783 -1.9434
13774SOL    HW252252   3.114   8.724   0.607  0.5421  0.5203  0.3930
13775SOL     OW52253   4.580   0.037   1.482  0.8133 -0.0425 -0.1975
13775SOL    HW152254   4.606  -0.002   1.570  0.1265 -0.9589 -0.3855
13775SOL    HW252255   4.639   0.001   1.410  0.9666  0.2199 -0.2044
13776SOL     OW52256   6.553   0.085   1.094  0.3391  0.1521 -0.1961
13776SOL    HW152257   6.471   0.056   1.044 -0.1965  2.1632 -0.4935
13776SOL    HW252258   6.561   0.031   1.178 -2.0233  0.8256  0.4892
13777SOL     OW52259   2.979   5.168   2.580  0.2499  0.3568 -0.0315
13777SOL    HW152260   3.044   5.244   2.587  0.5642  0.1744 -0.9256
13777SOL    HW252261   3.027   5.082   2.599 -0.0955  0.3787  0.9373
13778SOL     OW52262   4.711   9.713   3.216 -0.0203  0.6321 -0.0283
13778SOL    HW152263   4.693   9.680   3.309 -0.9949  1.1974 -0.0141
13778SOL    HW252264   4.700   9.637   3.151 -0.0265  0.4039  0.2367
13779SOL     OW52265   2.008   0.237   3.395  0.0252  0.3288  0.0604
13779SOL    HW152266   1.914   0.261   3.418  0.7987  2.0596  1.5129
13779SOL    HW252267   2.048   0.311   3.340  0.7245 -0.0991 -0.0071
13780SOL     OW52268   8.669   1.920   1.494  0.4610  0.4090  0.1734
13780SOL    HW152269   8.615   2.001   1.520  0.1400  0.0859  0.5084
13780SOL    HW252270   8.638   1.888   1.404  0.5299  0.6071  0.0774
13781SOL     OW52271   2.939   3.037   1.689  0.1600 -0.1819  0.8172
13781SOL    HW152272   3.019   2.993   1.647 -0.6404 -1.3959  0.5564
13781SOL    HW252273   2.970   3.108   1.752  1.4488 -0.5012  0.5579
13782SOL     OW52274   9.113   0.068   5.609  0.1353 -0.7729  0.1089
13782SOL    HW152275   9.110  -0.005   5.677  0.9559 -1.3943 -0.5211
13782SOL    HW252276   9.099   0.156   5.655 -2.6850 -1.4360  0.6492
13783SOL     OW52277   8.614   1.297   0.527  0.5511 -0.0563 -0.2382
13783SOL    HW152278   8.549   1.269   0.457  0.3397  1.2153 -0.5591
13783SOL    HW252279   8.680   1.223   0.542  1.0654 -0.0786 -2.3287
13784SOL     OW52280   3.618   3.200   1.663  0.5130  0.4377 -0.5728
13784SOL    HW152281   3.645   3.216   1.568  0.6440 -0.1338 -0.6346
13784SOL    HW252282   3.593   3.287   1.706  2.4367  0.9712 -0.5120
13785SOL     OW52283   2.060   5.602   3.559  0.3100  0.4979  0.4938
13785SOL    HW152284   2.111   5.588   3.474  0.3194  1.2076  0.3769
13785SOL    HW252285   1.970   5.559   3.550  1.1157 -1.3114  0.9464
13786SOL     OW52286   0.576   6.988   4.468 -0.0234 -0.2554 -0.3782
13786SOL    HW152287   0.645   7.042   4.516 -0.2632 -0.4081  0.1433
13786SOL    HW252288   0.614   6.954   4.382 -0.0607  1.2107 -0.9786
13787SOL     OW52289   3.170   3.293   3.181 -0.2058 -1.0736  0.1461
13787SOL    HW152290   3.155   3.261   3.274  0.1623  0.7651  0.8578
13787SOL    HW252291   3.100   3.361   3.157 -0.6067 -1.9010 -1.1077
13788SOL     OW52292   7.788   3.158   4.079 -0.1695 -0.0068 -0.0688
13788SOL    HW152293   7.753   3.200   4.163 -2.6783 -0.9347 -0.5855
13788SOL    HW252294   7.805   3.061   4.096 -0.0249 -0.0439 -0.4331
13789SOL     OW52295   1.458   4.099   3.126 -0.6179  0.0763 -0.0782
13789SOL    HW152296   1.431   4.180   3.179 -0.1841 -0.7331  1.4108
13789SOL    HW252297   1.393   4.026   3.141 -0.0332 -0.4326 -0.0003
13790SOL     OW52298   0.579   1.750   4.885  0.1768 -0.2180  0.3733
13790SOL    HW152299   0.603   1.787   4.975  0.0839  0.5852  0.0713
13790SOL    HW252300   0.662   1.718   4.839  0.3351  0.1681  0.3917
13791SOL     OW52301   7.011   8.409   3.590  0.3401  0.3953 -0.1869
13791SOL    HW152302   6.935   8.474   3.582  0.2625  0.1934 -1.1618
13791SOL    HW252303   7.092   8.448   3.546  1.2949  1.3446  2.3463
13792SOL     OW52304   2.177   7.814   2.692 -0.4028 -0.1876 -0.3413
13792SOL    HW152305   2.241   7.889   2.675 -1.1893  0.7659  0.8052
13792SOL    HW252306   2.161   7.805   2.790  0.0442 -2.1896 -0.4209
13793SOL     OW52307   0.299   3.334   5.491  0.2302 -0.2343  0.4977
13793SOL    HW152308   0.202   3.356   5.500  0.2976  0.5765 -0.6586
13793SOL    HW252309   0.334   3.303   5.579 -0.8949  0.2070  1.1160
13794SOL     OW52310   6.310   8.017   3.192  0.1641  0.2852 -0.2451
13794SOL    HW152311   6.401   8.024   3.233 -0.2550 -0.2465  0.8175
13794SOL    HW252312   6.301   7.927   3.149 -0.7023 -0.6625  1.8280
13795SOL     OW52313   0.621   7.708   1.336 -0.3522 -0.0068  0.6237
13795SOL    HW152314   0.586   7.622   1.299  0.1313 -0.6208  1.5491
13795SOL    HW252315   0.691   7.746   1.275  1.3229 -1.6365  1.4828
13796SOL     OW52316   6.514   8.721   2.816  0.2347 -0.4379 -0.0650
13796SOL    HW152317   6.436   8.716   2.754 -0.1706 -0.2229  0.4219
13796SOL    HW252318   6.497   8.791   2.885  1.0064 -0.1562 -0.1575
13797SOL     OW52319   1.143   1.490   1.984 -0.0148  0.6422 -0.0773
13797SOL    HW152320   1.235   1.499   1.945  0.0097 -0.8830 -0.3865
13797SOL    HW252321   1.148   1.439   2.070 -0.4437  1.5196  0.4809
13798SOL     OW52322   0.982   8.393   4.993 -0.7192 -0.1294  0.4498
13798SOL    HW152323   0.953   8.309   4.946 -0.0654 -0.5767  0.8270
13798SOL    HW252324   1.021   8.456   4.927 -0.7029 -0.3535  0.2416
13799SOL     OW52325   4.849   1.458   4.448  0.4523  0.0568 -0.0999
13799SOL    HW152326   4.852   1.558   4.460 -0.8761  0.0969  0.0444
13799SOL    HW252327   4.919   1.416   4.505  1.0914  0.9140 -0.2349
13800SOL     OW52328   5.706   0.490   3.526  0.0027  0.4667  0.0646
13800SOL    HW152329   5.682   0.579   3.564  1.2132  0.2441  1.3869
13800SOL    HW252330   5.773   0.445   3.585  0.3150 -0.8071 -1.2231
13801SOL     OW52331   1.016   4.739   0.796  0.1493  0.0287  0.0036
13801SOL    HW152332   0.953   4.798   0.745  0.0792  0.4043  0.5193
13801SOL    HW252333   0.976   4.649   0.808  0.1903 -0.0828 -0.6594
13802SOL     OW52334   9.838   9.286   3.858 -0.0655 -0.0994 -0.1438
13802SOL    HW152335   9.763   9.349   3.878  1.8615  2.4282 -0.6643
13802SOL    HW252336   9.917   9.310   3.915  0.3676 -2.7479  0.4272
13803SOL     OW52337   3.452   9.303   4.440  0.1723 -0.0228 -0.3365
13803SOL    HW152338   3.522   9.343   4.380 -0.2465 -0.2371 -0.9805
13803SOL    HW252339   3.493   9.228   4.493  1.4963  2.5979  2.4653
13804SOL     OW52340   2.291   5.412   3.589  0.2793 -0.1550 -0.5825
13804SOL    HW152341   2.238   5.363   3.658  0.1421  2.0778  0.9596
13804SOL    HW252342   2.383   5.373   3.583  0.1922 -0.5684  0.6700
13805SOL     OW52343   1.633   2.802   4.217  0.5991 -0.4424  0.3604
13805SOL    HW152344   1.538   2.782   4.243  0.9435  1.2666  3.1555
13805SOL    HW252345   1.634   2.849   4.129 -1.3220  1.2075  1.1722
13806SOL     OW52346   2.677   9.487   3.499 -0.0983  0.3624  0.2251
13806SOL    HW152347   2.611   9.412   3.489  0.1337 -0.0766  1.7240
13806SOL    HW252348   2.760   9.466   3.448  0.0810 -0.5733  0.8756
13807SOL     OW52349   3.473   9.395   5.357 -0.4980  0.0134  0.0827
13807SOL    HW152350   3.547   9.328   5.347 -0.3161  0.1858  0.2574
13807SOL    HW252351   3.491   9.474   5.299 -0.7355 -0.1120 -0.1561
13808SOL     OW52352   0.009   6.157   4.963  0.0637  0.3249  0.0709
13808SOL    HW152353   0.084   6.098   4.992  0.2749  1.0641  1.0495
13808SOL    HW252354  -0.069   6.146   5.024 -0.8785 -0.9166 -1.3188
13809SOL     OW52355   8.881   2.652   4.076  0.1387 -0.1363 -0.3423
13809SOL    HW152356   8.930   2.638   4.163  0.3331 -0.5828 -0.5214
13809SOL    HW252357   8.938   2.619   4.001  0.4756  1.3451 -0.7564
13810SOL     OW52358   1.988   5.538   0.279 -0.1536  0.2632 -0.2909
13810SOL    HW152359   1.916   5.598   0.243  2.0773  2.6341 -0.9761
13810SOL    HW252360   2.041   5.500   0.204  0.1702 -0.3831  0.2565
13811SOL     OW52361   1.074   8.680   2.061 -0.8052  0.1805 -0.5146
13811SOL    HW152362   1.142   8.753   2.070 -0.4491 -0.1904 -0.1841
13811SOL    HW252363   1.032   8.664   2.151 -2.0994  1.1485 -0.9226
13812SOL     OW52364   7.254   0.327   5.188 -0.2243 -0.2861 -0.6184
13812SOL    HW152365   7.187   0.253   5.174 -0.9222 -0.0265  1.1729
13812SOL    HW252366   7.339   0.288   5.222 -0.4150 -0.3153 -0.1766
13813SOL     OW52367   1.334   5.059   2.982  0.7932 -0.5214 -0.3832
13813SOL    HW152368   1.350   5.019   3.072  1.7636 -1.8327 -1.1092
13813SOL    HW252369   1.404   5.027   2.919  0.0152  0.2338 -1.6587
13814SOL     OW52370   2.965   2.637   2.930  0.2301 -0.3447  0.1773
13814SOL    HW152371   2.934   2.542   2.921  1.2264 -0.6750  0.2770
13814SOL    HW252372   2.888   2.698   2.911 -0.5470 -1.1722  0.6315
13815SOL     OW52373   8.575   9.347   3.181  0.5071  0.6330  0.1279
13815SOL    HW152374   8.630   9.275   3.221 -0.2814 -1.7203 -2.8091
13815SOL    HW252375   8.488   9.309   3.150 -0.1315  2.9389 -1.0409
13816SOL     OW52376   1.389   7.706   0.709  0.1972 -0.5405 -0.2762
13816SOL    HW152377   1.361   7.733   0.617  0.6592 -0.7925 -0.4942
13816SOL    HW252378   1.368   7.779   0.773  0.9216  0.1132 -0.7672
13817SOL     OW52379   8.996   3.544   0.676 -0.3179 -0.3566  0.4704
13817SOL    HW152380   8.954   3.456   0.700 -0.5689 -0.1573  0.7675
13817SOL    HW252381   9.038   3.537   0.585 -0.1605 -0.8428  0.5785
13818SOL     OW52382   9.574   0.422   5.375 -0.1059 -0.0134 -0.1594
13818SOL    HW152383   9.575   0.473   5.289  0.2706 -0.5507 -0.4791
13818SOL    HW252384   9.516   0.342   5.365  0.3001 -0.3210 -0.0586
13819SOL     OW52385   9.894   3.582   5.188 -0.1085 -0.0536 -0.1376
13819SOL    HW152386   9.940   3.643   5.122  0.8716  0.6009  1.1355
13819SOL    HW252387   9.807   3.622   5.215  0.0173  0.2440 -0.1658
13820SOL     OW52388   8.283   6.594   5.276  0.1957  0.0342  0.6480
13820SOL    HW152389   8.351   6.588   5.349  2.2816 -2.0043 -1.3700
13820SOL    HW252390   8.197   6.552   5.307  1.2156 -1.2766  1.7628
13821SOL     OW52391   9.266   9.643   2.683 -0.2328 -0.1725 -0.1057
13821SOL    HW152392   9.278   9.549   2.715 -0.8773 -0.2479 -0.0752
13821SOL    HW252393   9.334   9.663   2.612 -1.7767 -1.5494 -2.0447
13822SOL     OW52394   1.283   0.169   4.367  0.0211 -0.0923 -0.4375
13822SOL    HW152395   1.226   0.087   4.374  1.1913 -1.1290 -2.6152
13822SOL    HW252396   1.375   0.149   4.400  0.1654  0.5316 -0.4459
13823SOL     OW52397   2.085   5.570   3.998  0.1348  0.6883 -0.2917
13823SOL    HW152398   2.096   5.645   3.933  1.4185  0.4824 -0.3237
13823SOL    HW252399   2.111   5.600   4.090  2.7954 -0.2837 -0.6602
13824SOL     OW52400   4.122   8.718   0.619 -0.7291 -0.5611 -0.2709
13824SOL    HW152401   4.023   8.703   0.619 -0.7999 -0.1100 -0.8927
13824SOL    HW252402   4.160   8.690   0.532 -0.1419 -1.7743  0.3691
13825SOL     OW52403   3.302   3.520   1.326 -0.5836  0.1643 -0.2274
13825SOL    HW152404   3.366   3.564   1.389 -1.5080  1.0046  0.1370
13825SOL    HW252405   3.233   3.470   1.379 -0.8725  0.1741 -0.5950
13826SOL     OW52406   5.165   1.567   1.576 -0.4759  0.3336 -0.1787
13826SOL    HW152407   5.233   1.539   1.643  0.4010  1.0180 -0.7693
13826SOL    HW252408   5.144   1.664   1.587 -1.0712  0.2182 -0.2480
13827SOL     OW52409   1.629   4.969   4.077 -0.1903 -0.4542 -0.0957
13827SOL    HW152410   1.621   4.960   3.977  1.8335 -1.6888 -0.1840
13827SOL    HW252411   1.595   5.059   4.105 -0.8854 -0.1274 -1.8807
13828SOL     OW52412   1.924   6.466   3.577  0.1542  0.3018  0.1917
13828SOL    HW152413   2.008   6.502   3.617 -0.2570  2.6885 -0.9785
13828SOL    HW252414   1.937   6.371   3.551  2.4030  0.5703  0.2449
13829SOL     OW52415   8.326   9.600   1.872 -0.2489 -0.0911  0.4483
13829SOL    HW152416   8.232   9.632   1.881 -0.6708 -0.6411 -1.6429
13829SOL    HW252417   8.326   9.511   1.827  1.4323  1.3221 -2.4842
13830SOL     OW52418   9.439   0.110   4.733 -0.5225  0.4361  0.5887
13830SOL    HW152419   9.500   0.035   4.758 -0.8158  0.1815  0.5442
13830SOL    HW252420   9.387   0.084   4.652 -0.0677  0.9900  0.1141
13831SOL     OW52421   9.347   2.373   3.474  0.2379  0.0240 -0.0112
13831SOL    HW152422   9.445   2.354   3.467 -0.1214 -1.3478 -2.1095
13831SOL    HW252423   9.310   2.388   3.382 -1.3029  1.7458  0.8695
13832SOL     OW52424   1.588   2.352   2.390 -0.4979  0.2917 -0.5483
13832SOL    HW152425   1.637   2.288   2.448 -0.8946  0.9641  0.5645
13832SOL    HW252426   1.641   2.372   2.308  0.7381  0.4339  0.2768
13833SOL     OW52427   4.051   9.101   4.643 -0.0834  0.4183  0.4171
13833SOL    HW152428   3.989   9.052   4.582  1.9513 -1.2972 -0.3116
13833SOL    HW252429   4.031   9.199   4.638 -2.9574 -0.1223  0.4903
13834SOL     OW52430   3.256   2.558   3.208  0.2771 -0.6069 -0.4446
13834SOL    HW152431   3.335   2.617   3.224 -0.6292  0.3250  0.5891
13834SOL    HW252432   3.215   2.581   3.120 -0.6872  1.0166  0.4156
13835SOL     OW52433   9.511   9.256   2.599  0.2041  0.3992  0.2442
13835SOL    HW152434   9.512   9.220   2.506  1.3947  0.6609  0.1540
13835SOL    HW252435   9.568   9.338   2.604  1.7098 -0.6920  1.6322
13836SOL     OW52436   8.486   2.595   2.230  0.4909  0.1983  0.2850
13836SOL    HW152437   8.440   2.596   2.140  1.7666 -1.6553 -0.4119
13836SOL    HW252438   8.430   2.544   2.295  0.3735  0.0719  0.0865
13837SOL     OW52439   1.799   7.646   0.555  0.2535  0.3922 -0.0019
13837SOL    HW152440   1.728   7.580   0.581 -0.2992  0.8035 -0.4656
13837SOL    HW252441   1.791   7.667   0.458  2.0036 -0.7548 -0.4220
13838SOL     OW52442   1.482   8.964   4.551 -0.0182  0.2038  0.5331
13838SOL    HW152443   1.397   8.952   4.602 -1.1556 -0.6665 -1.5093
13838SOL    HW252444   1.512   8.876   4.515  1.9804  0.4403  1.5593
13839SOL     OW52445   1.503   0.735   5.137 -0.4151 -0.3802 -0.1133
13839SOL    HW152446   1.564   0.773   5.207 -2.5911  3.6416 -0.2159
13839SOL    HW252447   1.408   0.749   5.165 -1.3234 -3.2871 -1.5952
13840SOL     OW52448   3.371   0.234   4.489 -0.2190  0.5114 -0.1729
13840SOL    HW152449   3.282   0.205   4.524  0.7316 -0.5385  1.4573
13840SOL    HW252450   3.416   0.292   4.558  0.8101  0.1489 -0.5347
13841SOL     OW52451   9.646   5.379   4.614  0.3592 -0.4456 -0.6152
13841SOL    HW152452   9.547   5.394   4.611  0.0312 -2.6591 -1.7057
13841SOL    HW252453   9.670   5.301   4.557  2.5462 -1.0265  1.0298
13842SOL     OW52454   3.469   0.895   2.478  0.6406 -0.8298  0.5516
13842SOL    HW152455   3.544   0.945   2.435 -0.6343  0.3370 -0.3388
13842SOL    HW252456   3.468   0.914   2.576  0.3802  0.6383  0.2784
13843SOL     OW52457   8.630   9.573   0.844  0.0030 -0.0353 -0.3306
13843SOL    HW152458   8.578   9.642   0.793  1.3869  1.4170  0.2058
13843SOL    HW252459   8.727   9.581   0.823  0.2226 -1.6204 -0.0077
13844SOL     OW52460   5.863   7.630   4.059  0.0338 -0.0890 -0.4529
13844SOL    HW152461   5.936   7.692   4.029 -1.4905  2.2185  0.4025
13844SOL    HW252462   5.821   7.588   3.978  0.4979  0.7311 -1.1384
13845SOL     OW52463   2.546   9.562   3.015  0.0466 -0.1368 -0.2366
13845SOL    HW152464   2.637   9.562   3.057  0.2962  1.5058 -0.7334
13845SOL    HW252465   2.555   9.550   2.916 -0.3912 -1.6852 -0.0930
13846SOL     OW52466   2.407   5.040   0.510 -0.0538  0.1269  0.2744
13846SOL    HW152467   2.468   5.020   0.587 -1.5137 -0.4291  1.3256
13846SOL    HW252468   2.312   5.039   0.543 -0.6518  0.5027 -1.4191
13847SOL     OW52469   8.682   2.763   3.419 -0.3512 -0.0883 -0.1277
13847SOL    HW152470   8.730   2.702   3.482  0.3755  0.1263 -0.4643
13847SOL    HW252471   8.604   2.804   3.465 -1.0172 -1.4905  0.0180
13848SOL     OW52472   1.454   9.091   4.969  0.3232  0.3365  0.4465
13848SOL    HW152473   1.528   9.023   4.963 -0.5379 -0.7589  2.0048
13848SOL    HW252474   1.409   9.084   5.058 -0.8825  1.8209 -0.0274
13849SOL     OW52475   2.087   2.121   0.443 -0.2040 -0.5720 -0.1975
13849SOL    HW152476   2.128   2.093   0.530  0.7761 -1.2775 -0.8730
13849SOL    HW252477   2.129   2.069   0.368 -0.7877  0.2803 -1.1287
13850SOL     OW52478   2.499   5.882   1.861 -0.2283  0.6174 -0.3045
13850SOL    HW152479   2.509   5.898   1.959 -2.0169 -0.5938  0.1025
13850SOL    HW252480   2.406   5.851   1.841 -0.0716  1.4548 -2.4750
13851SOL     OW52481   3.064   5.250   3.028 -0.6067 -0.0737 -0.7212
13851SOL    HW152482   3.076   5.151   3.030 -1.0503 -0.1156  0.7606
13851SOL    HW252483   3.126   5.290   2.960 -0.9821 -1.4292 -1.8784
13852SOL     OW52484   9.974   0.011   3.159  0.8019 -0.4218 -0.0292
13852SOL    HW152485  10.036   0.061   3.219  1.9627 -0.5097 -1.1358
13852SOL    HW252486   9.927   0.074   3.098 -0.9106 -0.2563  1.4207
13853SOL     OW52487   1.195   5.680   2.007 -0.5837 -0.2377  0.3226
13853SOL    HW152488   1.251   5.758   1.978  0.3478 -0.9099  0.2849
13853SOL    HW252489   1.133   5.654   1.933 -0.4332  0.0492  0.0957
13854SOL     OW52490   8.769   2.719   5.298 -0.9310  0.7004 -0.1133
13854SOL    HW152491   8.778   2.712   5.199  0.4900 -0.1049  0.0611
13854SOL    HW252492   8.849   2.766   5.336 -1.7015  1.4547  0.6114
13855SOL     OW52493   1.498   5.118   5.313  0.0410 -0.0525  0.0602
13855SOL    HW152494   1.575   5.113   5.376 -1.0117 -1.4978  1.2829
13855SOL    HW252495   1.531   5.132   5.220  1.7915 -0.9039  0.5311
13856SOL     OW52496   1.932   9.607   3.329 -0.0658  0.0030 -0.3455
13856SOL    HW152497   1.867   9.683   3.328 -0.7721 -0.5898  0.0370
13856SOL    HW252498   1.997   9.618   3.253 -0.4694  0.7197 -0.5951
13857SOL     OW52499   7.902   8.755   0.302 -0.0346  0.2504  0.3743
13857SOL    HW152500   7.839   8.748   0.380  1.5047 -3.2031  1.4009
13857SOL    HW252501   7.978   8.814   0.327 -0.6418  0.9206  0.6898
13858SOL     OW52502   0.368   6.071   1.216  0.1088 -0.1577  0.5296
13858SOL    HW152503   0.275   6.081   1.182  0.0598  0.1167  0.7393
13858SOL    HW252504   0.431   6.062   1.139 -0.3995 -3.2414  0.4275
13859SOL     OW52505   0.346   5.890   3.549 -0.3434  0.1036  0.0840
13859SOL    HW152506   0.432   5.857   3.512 -1.0692  0.3705 -1.9475
13859SOL    HW252507   0.354   5.904   3.647  1.2983 -1.8073  0.2330
13860SOL     OW52508   4.207   3.885   2.089 -0.3409  0.2770 -0.1710
13860SOL    HW152509   4.157   3.871   2.175  1.2359  0.2564  0.7741
13860SOL    HW252510   4.241   3.797   2.056 -0.4878  0.3567 -0.5304
13861SOL     OW52511   1.473   1.173   1.628  0.4810  0.2038 -0.5471
13861SOL    HW152512   1.410   1.249   1.647 -0.8141 -0.5629 -1.6617
13861SOL    HW252513   1.445   1.093   1.681  0.9391  0.0645 -0.5174
13862SOL     OW52514   6.211   1.766   2.512 -0.1760 -0.1882 -0.4209
13862SOL    HW152515   6.142   1.836   2.532 -0.4485 -0.7414  0.6634
13862SOL    HW252516   6.295   1.809   2.481 -0.6893  0.5580 -0.7828
13863SOL     OW52517   9.477   0.486   1.327  0.3092 -0.0012  0.4980
13863SOL    HW152518   9.467   0.569   1.273  0.8992 -0.4112 -0.2553
13863SOL    HW252519   9.573   0.460   1.332  0.1632 -0.4609  0.9992
13864SOL     OW52520   7.728   5.997   3.832  0.3596  0.5584  0.0917
13864SOL    HW152521   7.735   5.933   3.909  1.8648 -0.3773 -0.7945
13864SOL    HW252522   7.799   6.067   3.839  1.0134  0.0046 -0.8503
13865SOL     OW52523   0.162   4.891   4.785  0.3291  0.0556  0.2678
13865SOL    HW152524   0.196   4.908   4.693 -0.0733 -1.8474 -0.2520
13865SOL    HW252525   0.239   4.874   4.847  0.5449  0.1862  0.0343
13866SOL     OW52526   4.858   6.208   1.255 -0.5343  0.0667 -0.0734
13866SOL    HW152527   4.943   6.156   1.264 -0.4445  0.3288  0.6323
13866SOL    HW252528   4.796   6.159   1.193 -0.3146 -0.7171  0.3093
13867SOL     OW52529   8.079   0.281   1.287  0.6543 -0.4677 -0.0262
13867SOL    HW152530   8.138   0.341   1.233  0.6074 -1.5690 -1.3227
13867SOL    HW252531   8.103   0.289   1.383  2.8990 -0.8579 -0.5246
13868SOL     OW52532   1.127   0.219   5.579  0.3019  0.2829  0.7522
13868SOL    HW152533   1.205   0.184   5.631  0.4567  1.9570  1.6871
13868SOL    HW252534   1.109   0.159   5.501  0.2550 -2.1132  2.5486
13869SOL     OW52535   2.660   8.592   1.650  0.4662  0.1186 -0.2148
13869SOL    HW152536   2.674   8.690   1.636  2.2855  0.0721  1.0857
13869SOL    HW252537   2.657   8.573   1.748  1.8275 -1.3369 -0.4447
13870SOL     OW52538   8.793   4.792   1.920 -0.2191 -0.2753  0.3739
13870SOL    HW152539   8.873   4.784   1.981 -0.0036 -0.4192  0.0742
13870SOL    HW252540   8.820   4.768   1.827 -0.8466 -1.3347  0.4528
13871SOL     OW52541   1.314   3.462   5.607 -0.1604 -0.1714 -0.3829
13871SOL    HW152542   1.215   3.449   5.601 -0.2249  0.2701 -0.2607
13871SOL    HW252543   1.337   3.556   5.583  0.0543  0.2357  1.3456
13872SOL     OW52544   0.677   2.107   5.587 -0.3263 -0.1790 -0.4296
13872SOL    HW152545   0.709   2.113   5.492 -2.2842  0.1597 -1.0867
13872SOL    HW252546   0.679   2.197   5.629  0.3517 -0.2954 -0.2121
13873SOL     OW52547   1.206   4.304   0.363 -0.5728 -0.2724  0.1368
13873SOL    HW152548   1.215   4.300   0.462  2.0194  2.1509  0.0734
13873SOL    HW252549   1.109   4.307   0.338 -1.2396  0.7938  2.6998
13874SOL     OW52550   4.477   5.506   1.584  0.1256  0.5971 -0.0476
13874SOL    HW152551   4.435   5.594   1.606  0.2826  0.5789  0.3122
13874SOL    HW252552   4.460   5.484   1.487 -1.7397  0.0210  0.3912
13875SOL     OW52553   2.020   3.347   4.652 -0.5455 -0.1959  0.3936
13875SOL    HW152554   2.113   3.330   4.685 -0.1483  0.3744 -0.4374
13875SOL    HW252555   1.979   3.261   4.622  0.0439 -0.3016 -0.1025
13876SOL     OW52556   2.508   4.339   3.604  0.0554 -0.3732  0.2162
13876SOL    HW152557   2.477   4.432   3.586 -0.6280 -0.6322  0.0296
13876SOL    HW252558   2.484   4.280   3.527  1.9505 -0.3751 -0.3939
13877SOL     OW52559   8.665   5.923   1.930 -0.0702  0.3152  0.2776
13877SOL    HW152560   8.738   5.971   1.979 -1.6541  0.7075  2.3239
13877SOL    HW252561   8.704   5.874   1.853  2.5010 -0.1620  1.8060
13878SOL     OW52562   3.442   2.104   0.400  0.1479 -0.6005 -0.1112
13878SOL    HW152563   3.467   2.014   0.364  0.2346 -0.9417  0.7892
13878SOL    HW252564   3.487   2.175   0.347 -0.0166 -1.0855 -0.9065
13879SOL     OW52565   9.240   2.895   4.954 -0.4174  0.0870  0.1760
13879SOL    HW152566   9.221   2.797   4.946  1.7942 -0.2153 -1.7826
13879SOL    HW252567   9.323   2.908   5.009 -1.9969  1.0106  2.4091
13880SOL     OW52568   7.699   8.591   2.825  0.0961  0.4844  0.1258
13880SOL    HW152569   7.726   8.595   2.729  2.1185 -0.8732  0.6159
13880SOL    HW252570   7.663   8.680   2.853  3.2138  2.1197 -0.8339
13881SOL     OW52571   3.442   4.767   3.532 -0.5127  0.1113  0.2305
13881SOL    HW152572   3.502   4.774   3.611 -0.4454  2.3301  0.0317
13881SOL    HW252573   3.371   4.699   3.549  0.1677 -0.2401  1.7330
13882SOL     OW52574   4.579   9.405   4.405 -0.4308 -0.3802 -0.8345
13882SOL    HW152575   4.616   9.465   4.476  1.6302 -1.5110 -0.9160
13882SOL    HW252576   4.556   9.460   4.325 -1.3351  0.6934  0.1347
13883SOL     OW52577   3.142   0.744   5.085 -0.4342  0.2909 -0.3701
13883SOL    HW152578   3.072   0.682   5.119  1.0580 -0.3599  1.6286
13883SOL    HW252579   3.221   0.691   5.054  0.6438  1.1648  0.8691
13884SOL     OW52580   1.783   8.229   4.024 -0.2756  0.3045 -0.2590
13884SOL    HW152581   1.844   8.179   4.087 -1.2075 -0.1700  0.2860
13884SOL    HW252582   1.710   8.167   3.993 -1.1882  1.2090  0.0698
13885SOL     OW52583   8.558   2.963   2.016 -0.1148  0.0475 -0.0682
13885SOL    HW152584   8.629   2.996   1.954  1.3832 -0.1924  1.4848
13885SOL    HW252585   8.496   2.902   1.967 -0.3861  1.7517 -1.8968
13886SOL     OW52586   6.832   7.654   1.962 -0.0111  0.4383 -0.4958
13886SOL    HW152587   6.783   7.723   2.017 -0.4634 -1.3417  1.3933
13886SOL    HW252588   6.906   7.615   2.017  1.8936  1.2151 -2.4404
13887SOL     OW52589   4.458   7.401   3.473  0.2012 -0.0588 -0.9092
13887SOL    HW152590   4.432   7.386   3.568  0.6687  1.7117 -0.4744
13887SOL    HW252591   4.396   7.350   3.413 -0.1476 -1.1201  0.3316
13888SOL     OW52592   8.050   0.907   5.498 -0.3161 -0.0679 -0.1844
13888SOL    HW152593   7.973   0.851   5.529 -1.3240  1.3115 -0.1318
13888SOL    HW252594   8.078   0.968   5.572  1.0298 -0.7569 -0.1108
13889SOL     OW52595   5.649   0.565   2.310  0.1725 -0.8170 -0.2688
13889SOL    HW152596   5.614   0.471   2.301  2.3661 -1.5382 -1.6732
13889SOL    HW252597   5.636   0.596   2.404 -0.5277 -2.5565  0.2293
13890SOL     OW52598   9.107   0.953   3.215  0.3018  0.4482  0.1967
13890SOL    HW152599   9.010   0.934   3.203  0.2184  0.1997  1.2008
13890SOL    HW252600   9.159   0.907   3.143 -0.3844  1.2873 -0.8481
13891SOL     OW52601   0.805   9.185   4.490  0.8971  0.2669 -0.0436
13891SOL    HW152602   0.802   9.093   4.529  1.0383  0.3710  0.2217
13891SOL    HW252603   0.727   9.238   4.523  2.3507  1.1319  2.1158
13892SOL     OW52604   3.653   8.167   1.219 -0.2025 -0.4077 -0.4726
13892SOL    HW152605   3.734   8.143   1.166  0.1206  0.2686 -0.2889
13892SOL    HW252606   3.672   8.157   1.316  0.3089  1.6930 -0.3372
13893SOL     OW52607   2.171   2.446   3.298  0.2409  0.4705  0.0272
13893SOL    HW152608   2.260   2.460   3.341  0.4301  1.5619 -0.7040
13893SOL    HW252609   2.129   2.535   3.278 -1.2684 -0.0261  0.8946
13894SOL     OW52610   3.652   4.013   3.226 -0.2347 -0.6611  0.0751
13894SOL    HW152611   3.685   4.038   3.135 -1.9244  0.7012 -0.2045
13894SOL    HW252612   3.602   3.927   3.221  2.3818 -2.2402  0.3321
13895SOL     OW52613   7.280   4.287   5.458  0.2095 -0.0738  0.2502
13895SOL    HW152614   7.189   4.329   5.467  0.7223  0.7326  1.9983
13895SOL    HW252615   7.271   4.188   5.452 -0.7794 -0.0279  0.8659
13896SOL     OW52616   8.391   4.827   4.859 -0.2310 -0.0221 -0.8495
13896SOL    HW152617   8.366   4.892   4.930  1.1766  1.8047 -1.9904
13896SOL    HW252618   8.317   4.761   4.846 -1.4429  1.0180  0.7038
13897SOL     OW52619   4.574   3.828   2.388  0.3995 -0.3343 -0.2293
13897SOL    HW152620   4.553   3.920   2.355  1.2492 -0.3621 -0.8544
13897SOL    HW252621   4.490   3.784   2.419  0.0892  0.9052  0.7288
13898SOL     OW52622   9.079   8.616   3.346 -0.0295 -0.0812 -0.1334
13898SOL    HW152623   9.137   8.672   3.405  1.5127  1.5865 -3.1143
13898SOL    HW252624   9.113   8.522   3.346  1.2488  0.3661 -0.0066
13899SOL     OW52625   1.384   1.552   4.172 -0.0222 -0.6757  0.0995
13899SOL    HW152626   1.470   1.584   4.212 -1.2854  1.5176  1.1541
13899SOL    HW252627   1.346   1.480   4.230  0.1164 -0.2590  0.7193
13900SOL     OW52628   0.724   2.940   3.892 -0.4248  0.4301  0.2519
13900SOL    HW152629   0.757   3.034   3.900 -0.0531  0.3217  0.0249
13900SOL    HW252630   0.801   2.879   3.874 -0.6597  0.0760  0.4433
13901SOL     OW52631   9.847   1.110   1.819 -0.0144 -0.1280  0.0725
13901SOL    HW152632   9.803   1.024   1.790 -0.0340  0.5353 -1.9537
13901SOL    HW252633   9.843   1.176   1.744  2.2808  0.7949  0.7221
13902SOL     OW52634   4.101   2.978   3.884 -0.0379 -0.0256  0.7705
13902SOL    HW152635   4.133   2.886   3.861 -0.6044 -0.3678  1.3575
13902SOL    HW252636   4.068   2.980   3.978  0.7915  0.9901  1.0582
13903SOL     OW52637   8.190   0.839   1.201 -0.0192  0.0218  0.4487
13903SOL    HW152638   8.189   0.884   1.112 -0.8119 -0.7037  0.0735
13903SOL    HW252639   8.143   0.751   1.193 -0.0470 -0.0660  1.5756
13904SOL     OW52640   1.228   1.616   4.745  0.3403 -0.7868 -1.0110
13904SOL    HW152641   1.221   1.631   4.646  2.0582 -1.4106 -1.2391
13904SOL    HW252642   1.307   1.558   4.765 -0.7658 -1.7674  0.6339
13905SOL     OW52643   1.884   4.523   4.981  0.1898  0.2029  0.0665
13905SOL    HW152644   1.965   4.471   5.010 -0.9738 -1.6232  0.0989
13905SOL    HW252645   1.912   4.616   4.957  2.1969 -0.1905  0.7366
13906SOL     OW52646   5.131   8.794   3.765  0.3820 -0.0895  0.6526
13906SOL    HW152647   5.160   8.857   3.837 -2.0880  1.4343  0.3581
13906SOL    HW252648   5.087   8.714   3.805  1.3350 -0.4789  0.9279
13907SOL     OW52649   1.436   0.707   2.496  0.5845  0.6579 -0.2812
13907SOL    HW152650   1.341   0.737   2.486  0.1392 -0.4809  0.5023
13907SOL    HW252651   1.486   0.728   2.412 -0.4373  0.9670 -0.8238
13908SOL     OW52652   9.570   7.599   0.201  0.4360  0.3875  0.2049
13908SOL    HW152653   9.550   7.646   0.115 -1.6854 -1.0524 -0.1195
13908SOL    HW252654   9.503   7.626   0.270  0.3138 -0.7528  0.5406
13909SOL     OW52655   1.692   0.521   1.179  0.4189  0.1432  0.5347
13909SOL    HW152656   1.602   0.522   1.136 -0.7133 -1.3421  2.7629
13909SOL    HW252657   1.761   0.546   1.112 -1.4817 -0.1716 -1.6054
13910SOL     OW52658   4.020   7.356   1.358 -0.1672  0.3718 -0.3790
13910SOL    HW152659   4.105   7.306   1.378 -0.4151  0.0715 -0.0570
13910SOL    HW252660   3.956   7.342   1.434 -1.5037 -1.6038 -1.8284
13911SOL     OW52661   3.930   0.245   5.286 -0.9188  0.6490  0.2167
13911SOL    HW152662   4.003   0.309   5.262 -0.5133 -0.3738 -1.3618
13911SOL    HW252663   3.968   0.152   5.291 -2.3458 -0.0799 -1.9085
13912SOL     OW52664   9.029   0.893   0.634 -0.2757  0.9149 -0.2402
13912SOL    HW152665   9.073   0.932   0.554 -1.1351 -0.2317 -1.2838
13912SOL    HW252666   9.039   0.955   0.712  1.6105  1.4892 -0.9167
13913SOL     OW52667   0.615   0.012   3.448 -0.0465  0.0408 -0.1675
13913SOL    HW152668   0.517   0.001   3.431 -0.3027 -0.0356  1.2506
13913SOL    HW252669   0.657  -0.077   3.460  0.2945  0.0509 -1.2260
13914SOL     OW52670   1.826   6.949   3.399 -0.2487  0.5482 -0.1865
13914SOL    HW152671   1.730   6.956   3.370  0.1862  0.9709 -1.5477
13914SOL    HW252672   1.857   7.038   3.433  0.0112  0.7126 -0.8527
13915SOL     OW52673   3.520   3.910   0.426  0.0219  0.2874 -0.3683
13915SOL    HW152674   3.531   3.828   0.483  0.9111 -0.1036 -1.0780
13915SOL    HW252675   3.606   3.928   0.377  0.0586  2.0485  0.3052
13916SOL     OW52676   6.899   0.163   1.535 -0.2962 -0.2254 -0.3956
13916SOL    HW152677   6.825   0.120   1.483  1.4851 -1.1552 -2.2829
13916SOL    HW252678   6.959   0.212   1.472 -0.2192  1.9479  1.3042
13917SOL     OW52679   8.383   5.129   1.669  0.5034 -0.1378 -0.1449
13917SOL    HW152680   8.371   5.072   1.750 -0.3897 -0.9956 -0.8696
13917SOL    HW252681   8.475   5.115   1.633  0.3494 -0.9954 -0.2181
13918SOL     OW52682   2.131   4.841   2.158 -0.1201  0.2621  0.4728
13918SOL    HW152683   2.198   4.776   2.194 -1.6384 -1.0191  1.0657
13918SOL    HW252684   2.075   4.796   2.088 -0.9225  1.0376  0.6081
13919SOL     OW52685   3.974   9.678   4.147 -0.2508  0.7587 -0.5364
13919SOL    HW152686   3.965   9.707   4.242 -0.1775  0.1705 -0.3520
13919SOL    HW252687   3.899   9.616   4.124  0.9469 -0.8031 -0.2363
13920SOL     OW52688   8.095   2.820   1.471 -0.2378  0.3587 -0.0287
13920SOL    HW152689   8.151   2.738   1.472 -0.5615  0.1399  0.9218
13920SOL    HW252690   8.138   2.890   1.414  1.0751  0.2481  0.8154
13921SOL     OW52691   3.168   1.391   1.978  0.2190  0.0876  0.0716
13921SOL    HW152692   3.232   1.436   2.040  0.1113  0.4375 -0.0696
13921SOL    HW252693   3.102   1.458   1.944 -0.7275 -0.4425  0.8502
13922SOL     OW52694   8.444   4.426   4.894  0.0659  0.0473  0.0136
13922SOL    HW152695   8.540   4.400   4.905  0.2375 -0.6183 -2.8482
13922SOL    HW252696   8.434   4.490   4.818 -1.8018 -0.1492  0.0508
13923SOL     OW52697   1.773   6.613   4.419  0.1114  0.4401  0.0542
13923SOL    HW152698   1.817   6.690   4.464 -0.1499  2.1569 -2.5051
13923SOL    HW252699   1.816   6.597   4.330 -1.4088 -0.8457 -0.4789
13924SOL     OW52700   2.962   1.272   5.075 -0.3720 -0.2127 -0.3623
13924SOL    HW152701   3.057   1.291   5.050 -0.5291 -1.3901 -1.9644
13924SOL    HW252702   2.951   1.174   5.089 -1.3225 -0.0606 -0.0361
13925SOL     OW52703   9.438   7.731   5.173 -0.0527  0.0544  0.5637
13925SOL    HW152704   9.422   7.680   5.088 -0.8315 -0.1732  0.8367
13925SOL    HW252705   9.536   7.738   5.190  0.1263  0.5933 -0.6453
13926SOL     OW52706   3.939   7.930   2.985  0.0070 -0.1645 -0.2677
13926SOL    HW152707   3.985   8.018   2.995  0.3592 -0.4496  0.7187
13926SOL    HW252708   3.986   7.862   3.041 -2.6404 -0.0689  2.1481
13927SOL     OW52709   0.051   8.182   2.892  0.7655  0.0247  0.0136
13927SOL    HW152710   0.123   8.219   2.834 -0.4752  0.2329 -1.4410
13927SOL    HW252711   0.085   8.100   2.939  1.7649 -0.2332 -1.1222
13928SOL     OW52712   2.198   5.215   0.788  0.4583 -0.2626 -0.7165
13928SOL    HW152713   2.114   5.223   0.842 -0.0743  0.3224 -1.6219
13928SOL    HW252714   2.184   5.148   0.716  1.0423 -0.7604 -0.3648
13929SOL     OW52715   7.300   0.886   1.034 -0.2816 -0.1680 -0.1586
13929SOL    HW152716   7.326   0.928   0.947 -0.4518  0.3281  0.0337
13929SOL    HW252717   7.279   0.957   1.101  0.3957 -0.5441  0.4596
13930SOL     OW52718   3.580   2.165   1.622  0.1065  0.6076  0.3638
13930SOL    HW152719   3.555   2.262   1.615 -0.3558  0.3334 -2.4833
13930SOL    HW252720   3.679   2.156   1.621  0.1290  0.9474 -1.4273
13931SOL     OW52721   9.615   9.484   3.870  0.3766 -0.2413 -0.8390
13931SOL    HW152722   9.686   9.552   3.857 -1.0780  0.9878 -2.6072
13931SOL    HW252723   9.534   9.528   3.909  0.3683 -1.5009  0.5976
13932SOL     OW52724   1.451   2.236   1.078 -0.0440 -0.2531 -0.3456
13932SOL    HW152725   1.508   2.319   1.085 -0.6026  0.0863  0.3208
13932SOL    HW252726   1.484   2.168   1.144 -1.1066  0.3781  0.8612
13933SOL     OW52727   7.653   8.943   1.955  0.8286 -0.2337 -0.1862
13933SOL    HW152728   7.744   8.948   1.997  2.4533 -2.6226 -3.1886
13933SOL    HW252729   7.595   8.880   2.006  1.5132 -0.2417  0.5877
13934SOL     OW52730   7.106   0.337   1.997 -0.1312 -0.1375  0.6646
13934SOL    HW152731   7.094   0.396   1.917  1.0742  0.8130  1.1611
13934SOL    HW252732   7.161   0.385   2.065  2.0558 -2.3348  0.5343
13935SOL     OW52733   1.472   0.906   3.189  0.2557  0.3383  0.3336
13935SOL    HW152734   1.396   0.849   3.221  0.6351  0.0381  0.7028
13935SOL    HW252735   1.500   0.968   3.262  0.0335  0.8019  0.0269
13936SOL     OW52736   2.049   5.953   2.004  0.2938 -0.5218  0.0863
13936SOL    HW152737   2.005   6.020   2.064  0.2404  0.4086 -0.9787
13936SOL    HW252738   2.140   5.931   2.040  1.0445  1.4942 -0.5158
13937SOL     OW52739   7.804   8.311   1.516  0.3109  0.2202  0.0073
13937SOL    HW152740   7.748   8.394   1.521 -1.1117 -0.5985 -1.5796
13937SOL    HW252741   7.849   8.307   1.427  0.6609 -0.5387  0.2159
13938SOL     OW52742   0.381   0.869   0.145 -0.6297  0.2262 -0.5020
13938SOL    HW152743   0.357   0.774   0.126  0.7234  0.2186 -2.2901
13938SOL    HW252744   0.312   0.929   0.104  0.6602  0.1136 -2.8954
13939SOL     OW52745   4.531   4.985   0.606  0.3819 -0.0223 -0.4503
13939SOL    HW152746   4.443   5.029   0.592 -0.3954 -0.8467  1.6580
13939SOL    HW252747   4.591   5.045   0.659  0.7114  0.0942 -0.9502
13940SOL     OW52748   1.339   3.048   0.720  0.5340  0.4283  0.5459
13940SOL    HW152749   1.412   3.088   0.663  0.7852 -1.1498 -0.2784
13940SOL    HW252750   1.279   3.121   0.752  0.8068  1.4511 -1.1478
13941SOL     OW52751   9.256   6.241   2.338 -0.1110  0.3621 -0.4869
13941SOL    HW152752   9.163   6.275   2.329 -0.3869 -0.7279 -1.7812
13941SOL    HW252753   9.254   6.147   2.372  0.4285 -0.3884 -2.4892
13942SOL     OW52754   8.121   5.827   5.319  0.0716  0.3066 -0.0121
13942SOL    HW152755   8.177   5.910   5.311 -0.1965  0.4439 -0.4625
13942SOL    HW252756   8.181   5.747   5.328  0.3528  0.3332 -1.5968
13943SOL     OW52757   9.212   3.772   4.525 -0.3276  0.1890 -0.1410
13943SOL    HW152758   9.137   3.786   4.461 -0.2681 -0.6119 -0.3842
13943SOL    HW252759   9.264   3.691   4.499 -1.8592 -1.6858  2.3662
13944SOL     OW52760   0.596   5.309   4.465  0.5132 -0.2778 -0.2188
13944SOL    HW152761   0.656   5.316   4.545 -1.2238 -1.0639  1.1736
13944SOL    HW252762   0.543   5.393   4.456 -1.3803 -1.2673  1.1940
13945SOL     OW52763   1.391   7.688   5.269 -0.1815 -0.7825  0.2513
13945SOL    HW152764   1.373   7.786   5.272  0.5121 -0.6137 -1.0362
13945SOL    HW252765   1.400   7.653   5.362  1.3471  0.6962  0.6799
13946SOL     OW52766   4.298   9.525   3.546  0.0116  0.4542 -0.2334
13946SOL    HW152767   4.210   9.571   3.550  0.0430  0.4813  0.1184
13946SOL    HW252768   4.289   9.433   3.585  0.7953  1.4712  2.4194
13947SOL     OW52769   1.209   7.938   5.359 -0.0259 -0.0923  0.0659
13947SOL    HW152770   1.113   7.940   5.331  0.0448 -0.0005 -0.1725
13947SOL    HW252771   1.214   7.934   5.459 -0.2746  0.3360  0.0988
13948SOL     OW52772   3.925   6.844   3.496 -0.1806  0.0747  0.7792
13948SOL    HW152773   3.860   6.832   3.421  1.7852  0.9844 -1.1282
13948SOL    HW252774   3.932   6.759   3.548 -0.6391 -0.9852 -0.8493
13949SOL     OW52775   0.624   8.877   3.189 -0.0656  0.0660  0.0858
13949SOL    HW152776   0.691   8.824   3.240  0.1019 -1.1612 -1.3769
13949SOL    HW252777   0.670   8.938   3.125 -0.2902  1.1663  0.9566
13950SOL     OW52778   1.573   0.657   0.447 -0.0498 -0.2152  0.1801
13950SOL    HW152779   1.595   0.635   0.542  1.2272  0.3434  0.0233
13950SOL    HW252780   1.536   0.575   0.401  1.4431 -1.1166  0.5423
13951SOL     OW52781   1.559   0.458   5.067  0.0263 -0.0936  0.4644
13951SOL    HW152782   1.634   0.456   5.000  0.7882  1.0475  1.2664
13951SOL    HW252783   1.529   0.552   5.081 -2.2520 -0.6295 -0.5631
13952SOL     OW52784   5.818   7.189   3.328 -0.0549 -0.2831 -0.2560
13952SOL    HW152785   5.820   7.284   3.358 -0.5013 -0.4251  0.2417
13952SOL    HW252786   5.858   7.131   3.399 -1.6803 -0.6911  0.3544
13953SOL     OW52787   9.316   1.779   0.630 -0.3525  0.1424 -0.2463
13953SOL    HW152788   9.329   1.715   0.555 -1.8107 -1.9318  1.2291
13953SOL    HW252789   9.386   1.850   0.626  1.1767 -1.4285 -2.0072
13954SOL     OW52790   8.870   2.988   4.245  0.0842 -0.1713  0.2153
13954SOL    HW152791   8.779   3.001   4.205 -0.1668  0.1800  0.8991
13954SOL    HW252792   8.871   2.903   4.297 -0.7435  1.2674  2.6712
13955SOL     OW52793   3.151   0.783   2.129 -0.7045  0.0095  0.0137
13955SOL    HW152794   3.140   0.851   2.201 -1.5339  0.3880 -0.4601
13955SOL    HW252795   3.243   0.790   2.091 -0.6230  0.5378  0.3001
13956SOL     OW52796   9.118   1.181   4.739  0.3058 -0.5444  0.3019
13956SOL    HW152797   9.203   1.156   4.785  1.6788  1.2980 -1.1339
13956SOL    HW252798   9.087   1.104   4.683  0.3250 -1.6677  1.7942
13957SOL     OW52799   8.984   7.966   0.758 -0.4304  0.1672 -0.0674
13957SOL    HW152800   9.005   7.897   0.828 -1.1423 -0.3030 -0.3126
13957SOL    HW252801   8.997   8.057   0.797  1.8839 -0.1056 -0.1658
13958SOL     OW52802   8.537   0.306   3.070  0.6320  0.1805 -0.2061
13958SOL    HW152803   8.531   0.222   3.124  2.1061  0.8069  0.9689
13958SOL    HW252804   8.515   0.287   2.975  0.1881 -1.3766  0.2013
13959SOL     OW52805   0.913   3.471   5.065 -0.3427  0.1617 -0.5098
13959SOL    HW152806   0.872   3.445   5.153  1.1476 -1.7077 -0.3545
13959SOL    HW252807   0.961   3.558   5.076  1.4586 -0.9932  1.0527
13960SOL     OW52808   2.764   0.162   1.753  0.2821  0.0541 -0.1748
13960SOL    HW152809   2.792   0.099   1.826 -0.0660  0.8287  0.6240
13960SOL    HW252810   2.764   0.113   1.666 -0.9609 -1.3400  0.5842
13961SOL     OW52811   8.997   2.000   0.047  0.0661 -0.5792 -0.3193
13961SOL    HW152812   8.957   2.062  -0.020  3.4668  1.1504 -0.8549
13961SOL    HW252813   9.016   2.050   0.131  3.3385 -0.6763 -0.9385
13962SOL     OW52814   8.940   6.240   2.957 -0.2684  0.2232  0.2416
13962SOL    HW152815   8.892   6.317   2.916  0.6905  0.8996  0.3779
13962SOL    HW252816   8.881   6.196   3.025 -0.8843  0.7229  0.0311
13963SOL     OW52817   3.687   3.693   0.500 -0.3053  0.1962  0.2826
13963SOL    HW152818   3.694   3.611   0.557 -2.3139  0.0424  0.3677
13963SOL    HW252819   3.668   3.666   0.406 -1.4705  0.5653  0.4050
13964SOL     OW52820   7.737   3.728   1.084  0.2487 -0.9927 -0.1094
13964SOL    HW152821   7.764   3.638   1.052  0.4525 -1.0489  0.2213
13964SOL    HW252822   7.666   3.718   1.154  0.9423 -0.9341  0.6032
13965SOL     OW52823   5.286   7.571   2.102  0.0874  0.1409 -0.0774
13965SOL    HW152824   5.273   7.472   2.106 -0.4915  0.1624 -1.1858
13965SOL    HW252825   5.316   7.597   2.010 -0.2682  1.0549  0.0588
13966SOL     OW52826   0.755   4.609   2.891 -0.2908 -0.3074  0.9259
13966SOL    HW152827   0.690   4.684   2.877 -0.0868  0.0362  1.8052
13966SOL    HW252828   0.727   4.530   2.836  0.2880  0.8793 -1.1252
13967SOL     OW52829   0.776   7.850   0.364 -0.6126  0.0542  0.1358
13967SOL    HW152830   0.805   7.847   0.459  0.1846  1.6845 -0.0342
13967SOL    HW252831   0.695   7.909   0.356 -1.4341 -1.0799 -0.0212
13968SOL     OW52832   8.029   9.994   1.936 -0.6584  0.1180  0.0420
13968SOL    HW152833   7.995  10.042   1.856  0.2659  0.3771 -0.1959
13968SOL    HW252834   7.979  10.024   2.017 -0.8592  0.6453 -0.2776
13969SOL     OW52835   1.929   9.052   4.809 -0.4094 -0.5763  0.6377
13969SOL    HW152836   1.888   9.139   4.838 -1.5422 -0.4678 -1.1809
13969SOL    HW252837   1.856   8.988   4.783  0.4861 -1.3769  0.0539
13970SOL     OW52838   4.001   1.069   1.890 -0.3374  0.4983  0.4798
13970SOL    HW152839   3.949   1.024   1.818 -0.2715 -0.6368  1.1318
13970SOL    HW252840   3.969   1.163   1.900  0.6165  1.1252 -1.9796
13971SOL     OW52841   7.619   1.428   4.245 -0.0165  0.8096 -0.0540
13971SOL    HW152842   7.603   1.339   4.287  1.0353  0.3441 -0.6134
13971SOL    HW252843   7.532   1.470   4.221 -0.5123 -0.1609  0.0392
13972SOL     OW52844   9.721   6.201   3.709  0.2601 -0.4837 -0.1001
13972SOL    HW152845   9.635   6.151   3.714 -0.5013  0.8690  0.9341
13972SOL    HW252846   9.755   6.218   3.802  1.1634 -0.2120 -0.4753
13973SOL     OW52847   1.008   9.304   2.743 -0.4010 -0.1383 -0.2800
13973SOL    HW152848   1.033   9.250   2.824  0.2776 -1.6583 -1.4767
13973SOL    HW252849   0.917   9.277   2.712 -0.4958  0.1573 -0.2543
13974SOL     OW52850   4.697   7.655   4.427  0.7428  0.5792 -0.3647
13974SOL    HW152851   4.759   7.725   4.462 -1.1522  2.3353 -0.4372
13974SOL    HW252852   4.666   7.680   4.335  0.1930 -0.4376 -0.4665
13975SOL     OW52853   4.113   4.402   3.937 -0.1015 -0.0014 -0.2519
13975SOL    HW152854   4.068   4.489   3.916  0.1541  0.4264  0.9533
13975SOL    HW252855   4.193   4.391   3.878 -1.0212 -0.1492 -1.4910
13976SOL     OW52856   0.975   0.001   1.389  0.0274 -0.0819 -0.1194
13976SOL    HW152857   0.948  -0.028   1.297  1.2525 -1.3826 -0.0778
13976SOL    HW252858   1.058   0.057   1.384  1.5801 -2.2633  0.3800
13977SOL     OW52859   1.410   2.195   0.807  0.0826 -0.6129  1.0579
13977SOL    HW152860   1.346   2.259   0.766 -1.2005 -1.8044  1.1385
13977SOL    HW252861   1.411   2.207   0.906  0.0771 -0.5083  1.0445
13978SOL     OW52862   8.703   0.243   4.045 -0.0918  0.0571 -0.1597
13978SOL    HW152863   8.755   0.273   4.125 -1.1149  0.2700  0.4393
13978SOL    HW252864   8.661   0.154   4.065 -0.0591 -0.0540 -0.5877
13979SOL     OW52865   7.719   9.086   4.437  0.1801 -0.2572  0.1498
13979SOL    HW152866   7.652   9.156   4.463  0.4455  0.3090 -0.7016
13979SOL    HW252867   7.806   9.103   4.483  0.1017 -0.3060  0.3177
13980SOL     OW52868   4.067   2.855   4.819 -0.0318 -0.5905  0.1641
13980SOL    HW152869   4.116   2.940   4.797  0.1558 -0.9990 -1.0261
13980SOL    HW252870   3.987   2.877   4.875  0.5580  0.2635  0.7069
13981SOL     OW52871   0.264   7.896   3.348 -0.5059 -0.3806 -0.0946
13981SOL    HW152872   0.314   7.977   3.376 -0.5841 -0.6405  0.8264
13981SOL    HW252873   0.278   7.823   3.415 -1.4615 -0.7148 -0.2445
13982SOL     OW52874   0.822   1.744   0.546 -0.0080 -0.0597 -0.2132
13982SOL    HW152875   0.746   1.805   0.568 -0.1084 -0.2712  0.0328
13982SOL    HW252876   0.908   1.785   0.577 -0.3197 -1.0976  2.0853
13983SOL     OW52877   9.128   1.937   4.774 -0.2141 -0.1452  0.0873
13983SOL    HW152878   9.136   1.859   4.713  1.0991  0.4949 -0.5904
13983SOL    HW252879   9.176   2.015   4.735  2.1411 -0.1901  2.6920
13984SOL     OW52880   8.984   6.668   0.170 -0.5417 -0.3412 -0.2355
13984SOL    HW152881   8.941   6.673   0.260  2.0449 -1.8879  1.1183
13984SOL    HW252882   9.032   6.754   0.152 -1.8133  0.3256 -0.5907
13985SOL     OW52883   9.154   9.879   4.975  0.6453  0.3747  0.0727
13985SOL    HW152884   9.094   9.849   5.049  1.2349 -1.9826 -0.3609
13985SOL    HW252885   9.126   9.970   4.944 -1.3791  0.2007  1.2902
13986SOL     OW52886   2.882   2.834   0.936 -0.1811 -0.2322 -0.2754
13986SOL    HW152887   2.784   2.843   0.956 -0.4616  1.8652 -2.4589
13986SOL    HW252888   2.933   2.904   0.986  0.1277 -0.8805  0.3172
13987SOL     OW52889   7.815   9.287   3.522  0.5836 -0.2135 -0.0632
13987SOL    HW152890   7.811   9.372   3.574 -1.2675 -0.3463  0.0452
13987SOL    HW252891   7.908   9.250   3.525  1.1201  1.1760  0.8847
13988SOL     OW52892   8.059   5.615   3.198 -0.0871 -0.0312 -0.3847
13988SOL    HW152893   7.986   5.588   3.260  1.5866 -1.4833  0.9960
13988SOL    HW252894   8.099   5.702   3.229  0.5229 -0.5843  0.3890
13989SOL     OW52895   8.038   1.593   0.863 -0.9510  0.4575  0.1236
13989SOL    HW152896   8.007   1.676   0.911 -0.7481  1.0189 -0.7033
13989SOL    HW252897   8.108   1.618   0.797 -0.6564 -0.4321  0.0990
13990SOL     OW52898   8.320   6.824   0.624 -0.1794 -0.6017 -0.3161
13990SOL    HW152899   8.398   6.887   0.623 -0.1357 -0.6567 -0.3180
13990SOL    HW252900   8.270   6.832   0.538  0.2127 -1.0515 -0.5895
13991SOL     OW52901   0.357   3.582   2.478 -0.3076  0.2211  0.0582
13991SOL    HW152902   0.455   3.576   2.457 -0.2379  0.3393  0.3459
13991SOL    HW252903   0.322   3.490   2.498 -0.2684  0.1708 -0.1017
13992SOL     OW52904   9.657   6.900   1.781  0.1759 -0.0851 -0.4601
13992SOL    HW152905   9.689   6.903   1.686 -2.7550  0.2405 -1.5012
13992SOL    HW252906   9.670   6.990   1.823  1.1573 -0.1307 -0.6606
13993SOL     OW52907   8.009   6.358   2.059 -0.8794  0.0490  0.2735
13993SOL    HW152908   7.922   6.396   2.090 -1.4026 -0.9107  0.0201
13993SOL    HW252909   8.010   6.259   2.077 -0.8812 -0.4012 -1.9747
13994SOL     OW52910   2.588   9.537   2.231  0.3854 -0.2857  0.4030
13994SOL    HW152911   2.528   9.536   2.310  1.2299 -0.0038  1.0535
13994SOL    HW252912   2.534   9.524   2.148 -0.4459 -1.0333  1.0553
13995SOL     OW52913   1.596   7.400   2.334  0.1758 -0.5835  0.3442
13995SOL    HW152914   1.612   7.394   2.235 -0.0400 -1.2816  0.3546
13995SOL    HW252915   1.681   7.380   2.383  0.1020 -0.9387  0.3217
13996SOL     OW52916   9.458   7.058   5.343 -0.0436 -0.2945 -0.1726
13996SOL    HW152917   9.467   6.985   5.275  1.2571  0.8803 -1.3040
13996SOL    HW252918   9.493   7.026   5.431 -1.3447 -1.6903 -0.1497
13997SOL     OW52919   0.266   1.369   1.867 -0.1744  0.3909 -0.4343
13997SOL    HW152920   0.262   1.468   1.870 -0.9986  0.3672 -0.4720
13997SOL    HW252921   0.234   1.332   1.954  0.0264  0.1562 -0.4593
13998SOL     OW52922   8.768   3.227   2.077 -0.0145 -0.6393 -0.0977
13998SOL    HW152923   8.793   3.165   2.152  0.7390 -2.0514 -1.4914
13998SOL    HW252924   8.690   3.283   2.105  0.5651 -0.7956  1.9192
13999SOL     OW52925   1.930   2.080   1.223 -0.6202  0.2389 -0.4044
13999SOL    HW152926   1.970   2.007   1.169 -1.3671 -0.6742  0.2620
13999SOL    HW252927   2.002   2.130   1.272  0.0687  1.1418 -2.3070
14000SOL     OW52928   5.621   8.403   3.579  0.5508 -0.6203 -0.0661
14000SOL    HW152929   5.540   8.426   3.633  0.4907 -0.2731 -0.2985
14000SOL    HW252930   5.624   8.462   3.498  0.7585 -0.9838 -0.3238
14001SOL     OW52931   0.088   3.708   1.925  0.4396  0.4935  0.9128
14001SOL    HW152932   0.055   3.785   1.870  1.0956  0.6293  0.6961
14001SOL    HW252933   0.113   3.632   1.864 -0.6895 -0.0833  1.1613
14002SOL     OW52934   4.626   1.030   3.136 -0.6747 -0.0676  0.3238
14002SOL    HW152935   4.719   1.057   3.110  0.0623 -2.1167  0.7312
14002SOL    HW252936   4.579   0.993   3.056 -1.3167  1.3742  0.0143
14003SOL     OW52937   3.895   0.712   1.858  0.1685 -0.7770  0.6137
14003SOL    HW152938   3.979   0.718   1.804 -0.6702 -0.7309 -0.7173
14003SOL    HW252939   3.834   0.787   1.833 -1.0169 -1.8405  0.2241
14004SOL     OW52940   0.495   9.781   1.416  0.2742  0.2572  0.3834
14004SOL    HW152941   0.426   9.851   1.403 -0.0960  0.0621  1.2666
14004SOL    HW252942   0.542   9.795   1.503  2.0037  0.9488 -0.6332
14005SOL     OW52943   0.561   1.732   3.049  0.5327 -0.0484 -0.4425
14005SOL    HW152944   0.503   1.759   2.973 -2.4326 -2.5805  0.8267
14005SOL    HW252945   0.523   1.768   3.135  0.3954 -2.3055  0.4789
14006SOL     OW52946   4.533   2.503   3.378  0.3463 -0.3121  0.9627
14006SOL    HW152947   4.561   2.538   3.288 -0.7458  2.6826  1.7050
14006SOL    HW252948   4.433   2.496   3.380  0.4563 -1.8830  1.4478
14007SOL     OW52949   1.507   2.559   3.955  0.4257 -0.3722  0.5727
14007SOL    HW152950   1.544   2.538   4.045 -1.4458 -3.5760  0.7085
14007SOL    HW252951   1.581   2.562   3.888  1.6105 -0.0603  1.8839
14008SOL     OW52952   6.129   8.120   2.061  0.6296  0.2584  0.0577
14008SOL    HW152953   6.113   8.021   2.062  2.9728 -0.1488  0.1385
14008SOL    HW252954   6.148   8.151   2.154 -0.2854  0.8194  0.0568
14009SOL     OW52955   9.947   5.395   0.026  0.6164  0.0145  0.1699
14009SOL    HW152956  10.010   5.318   0.023  0.3466 -0.1604 -1.4532
14009SOL    HW252957   9.995   5.476   0.060  1.2833 -0.5270  0.5120
14010SOL     OW52958   0.906   4.846   3.739 -0.6740  0.1829  0.2018
14010SOL    HW152959   0.845   4.825   3.663 -0.4264  1.7753 -0.4618
14010SOL    HW252960   0.857   4.836   3.826 -1.3506 -0.3044 -0.2358
14011SOL     OW52961   9.058   0.735   0.887  0.5084  0.0088  0.7304
14011SOL    HW152962   8.989   0.727   0.815  0.4927 -1.3357  0.8787
14011SOL    HW252963   9.149   0.732   0.846  0.4974  1.3628  0.5758
14012SOL     OW52964   5.004   3.535   5.370  0.5817 -0.0398 -0.0318
14012SOL    HW152965   4.977   3.463   5.434 -0.0586 -0.8160 -1.1585
14012SOL    HW252966   5.090   3.509   5.326  1.0415  0.5113  0.5379
14013SOL     OW52967   8.231   6.507   0.958 -0.0441 -0.0760 -0.1549
14013SOL    HW152968   8.132   6.494   0.957 -0.0019 -0.3759 -0.4878
14013SOL    HW252969   8.276   6.422   0.982  0.1709 -0.1951 -0.9532
14014SOL     OW52970   9.960   5.666   2.766 -0.3054  0.0210 -0.0701
14014SOL    HW152971   9.860   5.672   2.767 -0.2887  0.6607 -1.6947
14014SOL    HW252972   9.987   5.578   2.728 -0.2433 -0.6925  1.5658
14015SOL     OW52973   0.304   7.425   1.463 -0.4055 -0.4918  0.2249
14015SOL    HW152974   0.299   7.516   1.421 -3.2318 -0.7218 -0.0596
14015SOL    HW252975   0.304   7.433   1.562  1.8383 -0.1070  0.2073
14016SOL     OW52976   0.846   2.436   0.192  0.2757  0.0814 -0.1251
14016SOL    HW152977   0.786   2.497   0.244  0.2354 -0.1733  0.1326
14016SOL    HW252978   0.895   2.488   0.122 -0.0456  0.3373 -0.1596
14017SOL     OW52979   9.875   9.222   1.373 -0.2348  0.2822 -0.4659
14017SOL    HW152980   9.948   9.291   1.371  1.6071 -1.4434  2.8498
14017SOL    HW252981   9.914   9.132   1.354 -1.6468 -0.5211  0.3670
14018SOL     OW52982   3.229   7.122   2.076 -0.0600 -0.0093  0.3769
14018SOL    HW152983   3.141   7.144   2.119  0.3749  0.4590  1.0261
14018SOL    HW252984   3.221   7.034   2.028 -0.3773 -0.8499  1.9161
14019SOL     OW52985   0.982   2.265   3.221  0.1870  0.0601 -0.0111
14019SOL    HW152986   1.030   2.311   3.296  0.6083 -0.5882  0.1200
14019SOL    HW252987   0.945   2.178   3.253 -1.7896  0.9191  0.1017
14020SOL     OW52988   1.008   7.486   0.498  0.3874 -0.1919  0.6800
14020SOL    HW152989   1.033   7.420   0.570 -0.3289 -0.6975  0.4676
14020SOL    HW252990   0.913   7.515   0.510  0.1173 -0.6294 -0.3291
14021SOL     OW52991   1.268   6.569   0.805  0.3588 -0.0430  0.2835
14021SOL    HW152992   1.306   6.635   0.870 -1.1221 -0.6696  1.8172
14021SOL    HW252993   1.343   6.528   0.752  1.5529  0.7853  1.2951
14022SOL     OW52994   0.928   0.819   5.043 -0.0039 -0.3195  0.0843
14022SOL    HW152995   0.856   0.882   5.013  0.1964 -0.2908 -0.3401
14022SOL    HW252996   0.920   0.733   4.993  1.7021  0.5229 -1.7188
14023SOL     OW52997   2.075   3.602   1.108 -0.2465 -0.3681 -0.2464
14023SOL    HW152998   2.127   3.668   1.053 -1.3382 -0.4928 -1.4444
14023SOL    HW252999   2.124   3.515   1.111 -0.7588 -0.7327 -2.0494
14024SOL     OW53000   5.980   7.272   2.422  0.3424 -0.3129  0.2738
14024SOL    HW153001   6.025   7.183   2.425 -1.4267 -1.2521 -0.5894
14024SOL    HW253002   5.915   7.280   2.498  1.4588  0.7843  1.1375
14025SOL     OW53003   0.294   5.747   4.476 -0.7535 -0.2604 -0.5749
14025SOL    HW153004   0.304   5.771   4.379  0.7239 -1.0971 -0.6403
14025SOL    HW253005   0.197   5.754   4.502 -0.9565  1.4742 -1.6987
14026SOL     OW53006   6.709   0.429   2.812 -0.6587 -0.9318 -0.1936
14026SOL    HW153007   6.710   0.517   2.765  0.1021 -0.7633  0.1234
14026SOL    HW253008   6.705   0.445   2.911 -0.0755 -1.2423 -0.1171
14027SOL     OW53009   1.109   3.623   1.467  0.0120 -0.1814 -0.4435
14027SOL    HW153010   1.030   3.684   1.473  0.3816  0.3154 -0.5932
14027SOL    HW253011   1.165   3.647   1.387 -0.2881 -1.2567 -0.9899
14028SOL     OW53012   3.761   2.635   0.254  0.2575  0.0345 -0.1287
14028SOL    HW153013   3.778   2.616   0.158  1.0235  0.0727 -0.0017
14028SOL    HW253014   3.848   2.645   0.303 -0.1169 -1.2565  0.8194
14029SOL     OW53015   3.279   1.987   3.704  0.1931  0.2936  0.2670
14029SOL    HW153016   3.217   1.920   3.663 -0.4757 -0.7403  2.8582
14029SOL    HW253017   3.311   1.953   3.792  0.7113  2.9163  1.1366
14030SOL     OW53018   9.834   2.508   0.478  0.2819  0.6405  0.3307
14030SOL    HW153019   9.860   2.467   0.565  1.0262  0.4661  0.0288
14030SOL    HW253020   9.744   2.472   0.450  0.6027 -0.2410  0.4182
14031SOL     OW53021   9.088   0.688   0.422  0.1478 -0.0754 -0.1976
14031SOL    HW153022   9.185   0.707   0.437  0.4652 -2.3459  0.8886
14031SOL    HW253023   9.038   0.700   0.508 -0.2830 -0.3252 -0.4132
14032SOL     OW53024   5.802   9.713   1.959 -0.3820 -0.7237 -0.2905
14032SOL    HW153025   5.795   9.751   2.051 -0.4243  0.9988 -0.9945
14032SOL    HW253026   5.853   9.626   1.963  0.1092 -0.3808  1.2688
14033SOL     OW53027   2.090   5.081   1.075 -0.0136 -0.3479  0.7008
14033SOL    HW153028   2.162   5.065   1.142 -0.0949 -1.4511  0.5230
14033SOL    HW253029   2.004   5.044   1.108 -0.2238 -0.2025  0.3228
14034SOL     OW53030   8.433   1.984   2.695 -0.4542  0.1762 -0.1074
14034SOL    HW153031   8.429   2.007   2.597  1.6848 -0.7364 -0.4390
14034SOL    HW253032   8.430   2.068   2.749 -0.7740  0.7363 -0.9812
14035SOL     OW53033   0.191   4.429   1.376  0.1542  0.4285  0.2070
14035SOL    HW153034   0.205   4.389   1.467 -0.7933 -1.6834 -0.5396
14035SOL    HW253035   0.094   4.439   1.359  0.3691  2.9395  0.2818
14036SOL     OW53036   9.774   2.322   0.765  0.1189 -0.3687 -0.2227
14036SOL    HW153037   9.695   2.316   0.704  0.7085  0.2881 -1.0664
14036SOL    HW253038   9.856   2.288   0.718  0.4131 -0.6983  0.5154
14037SOL     OW53039   8.930   7.974   2.342 -0.2633 -0.3779 -0.0107
14037SOL    HW153040   9.029   7.961   2.351 -0.3985 -0.5903  1.3007
14037SOL    HW253041   8.883   7.892   2.375 -0.9085  0.1616  0.4178
14038SOL     OW53042   2.065   9.210   5.539 -0.0661  0.5995  0.5087
14038SOL    HW153043   2.157   9.248   5.548  0.2589 -0.0357 -0.0858
14038SOL    HW253044   2.061   9.121   5.583  0.5579 -0.9266 -2.3957
14039SOL     OW53045   4.279   1.755   0.908 -0.5412 -0.7620 -0.6978
14039SOL    HW153046   4.227   1.695   0.847  0.1909 -2.7516  0.5846
14039SOL    HW253047   4.302   1.705   0.992  1.2830  0.8923 -0.1861
14040SOL     OW53048   8.580   4.305   4.085 -0.4444  0.2835  0.2399
14040SOL    HW153049   8.665   4.338   4.127 -0.5608  0.8386  0.0444
14040SOL    HW253050   8.600   4.225   4.029 -0.2268 -0.2444  1.0622
14041SOL     OW53051   6.830   7.823   2.211 -0.2854  0.5027 -0.0471
14041SOL    HW153052   6.758   7.890   2.229 -1.2005 -1.2334  3.1296
14041SOL    HW253053   6.919   7.863   2.233 -0.8122  0.7612  1.6993
14042SOL     OW53054   0.367   8.675   3.560  0.0333 -0.1565 -0.3013
14042SOL    HW153055   0.381   8.607   3.632  0.2352 -1.5993 -1.6819
14042SOL    HW253056   0.310   8.749   3.595  0.2207 -0.7772  1.3713
14043SOL     OW53057   7.901   9.784   2.498 -0.4276  0.0873 -0.2173
14043SOL    HW153058   7.977   9.807   2.559  0.2645 -0.6996 -0.7639
14043SOL    HW253059   7.930   9.796   2.403 -0.9709 -0.2685 -0.4293
14044SOL     OW53060   6.178   8.021   1.596  0.4565 -0.1173  0.0958
14044SOL    HW153061   6.093   8.024   1.544  0.2203  0.3527  0.5056
14044SOL    HW253062   6.255   8.040   1.535  0.1702  0.5563 -0.0649
14045SOL     OW53063   9.757   7.039   2.387  0.0948 -0.2355 -0.3054
14045SOL    HW153064   9.715   7.014   2.299 -1.3204 -1.9923  0.8203
14045SOL    HW253065   9.810   6.961   2.422 -0.0207  0.1653  0.7817
14046SOL     OW53066   6.087   7.742   3.971  0.0355 -0.8718 -0.3707
14046SOL    HW153067   6.132   7.829   3.951 -0.4956 -0.8028 -1.3073
14046SOL    HW253068   6.154   7.677   4.008  0.7196 -0.4978 -0.9346
14047SOL     OW53069   0.044   6.744   3.237  0.1253  0.0399 -0.1586
14047SOL    HW153070   0.112   6.795   3.184 -0.5921 -1.5492 -2.6871
14047SOL    HW253071  -0.030   6.715   3.177 -0.7725 -1.7602  1.7514
14048SOL     OW53072   3.439   7.111   3.009  0.4376 -0.3321  0.4052
14048SOL    HW153073   3.411   7.179   2.941  1.6311 -0.7811 -0.5412
14048SOL    HW253074   3.539   7.111   3.016  0.4764 -2.4192 -0.0407
14049SOL     OW53075   1.270   3.965   4.229 -0.1621  0.4959  0.2084
14049SOL    HW153076   1.305   3.903   4.300 -1.0963 -1.0331 -0.6482
14049SOL    HW253077   1.335   3.968   4.153 -0.5245 -0.1268 -0.1316
14050SOL     OW53078   5.855   8.907   3.714 -0.3533  0.1356  0.3743
14050SOL    HW153079   5.892   8.975   3.778  0.5962 -0.3305  0.3160
14050SOL    HW253080   5.809   8.835   3.766 -1.5695  0.9338  0.4274
14051SOL     OW53081   0.361   0.196   2.325 -0.5665 -0.3946 -0.2881
14051SOL    HW153082   0.317   0.279   2.292 -0.5721  0.8055  2.6291
14051SOL    HW253083   0.347   0.187   2.424 -0.2897 -3.6906 -0.4824
14052SOL     OW53084   7.087   8.327   3.297 -0.1253  0.5085  0.1507
14052SOL    HW153085   7.124   8.406   3.346 -1.3937  1.9215 -1.1307
14052SOL    HW253086   6.987   8.333   3.296 -0.1337  1.5076 -4.1208
14053SOL     OW53087   9.239   1.013   5.164 -0.5384 -0.0452  0.4239
14053SOL    HW153088   9.202   1.091   5.113 -0.4082  0.0556  0.4820
14053SOL    HW253089   9.289   1.047   5.244  0.4200 -0.1429 -0.1271
14054SOL     OW53090   9.593   1.627   1.034  0.5041 -0.1976  0.7106
14054SOL    HW153091   9.531   1.628   0.956  1.5605  0.2903 -0.1248
14054SOL    HW253092   9.589   1.716   1.080  2.1034  0.5491 -0.5581
14055SOL     OW53093   0.089   4.224   3.444 -0.1355 -0.0242  0.2711
14055SOL    HW153094  -0.011   4.226   3.453 -0.1697 -1.3035  0.2470
14055SOL    HW253095   0.113   4.226   3.347 -0.1678 -0.7378  0.2477
14056SOL     OW53096   9.925   8.530   0.352 -0.1430  0.1984  0.5607
14056SOL    HW153097   9.955   8.522   0.447 -1.9091  0.3048  1.1417
14056SOL    HW253098   9.920   8.439   0.310 -0.6448  0.0385  0.9725
14057SOL     OW53099   8.963   0.442   3.837 -0.7232 -0.1937  0.1283
14057SOL    HW153100   9.044   0.490   3.803 -1.9258 -0.1487 -2.7591
14057SOL    HW253101   8.987   0.349   3.862  0.5167  0.2854  0.7710
14058SOL     OW53102   4.830   6.736   1.939 -0.1127  0.2808 -0.2389
14058SOL    HW153103   4.853   6.833   1.947  0.7268  0.0064  0.8838
14058SOL    HW253104   4.741   6.720   1.982 -0.1855  0.5220 -0.2968
14059SOL     OW53105   9.892   7.793   1.844  0.4416  0.4617 -0.6808
14059SOL    HW153106   9.844   7.706   1.859  2.4299 -0.5388 -0.0031
14059SOL    HW253107   9.988   7.776   1.824  1.7068  2.6177  3.0353
14060SOL     OW53108   9.101   3.024   1.816  0.6093  0.8667  0.6835
14060SOL    HW153109   9.068   3.114   1.789  0.5346  0.3481 -1.0196
14060SOL    HW253110   9.058   2.997   1.902 -1.4541  1.2860 -0.1842
14061SOL     OW53111   2.563   1.937   5.536  0.4113 -0.5469 -0.2757
14061SOL    HW153112   2.649   1.977   5.505  0.6087 -1.0120 -0.3303
14061SOL    HW253113   2.539   1.859   5.478  0.0426 -0.5308 -0.1496
14062SOL     OW53114   8.267   7.411   5.106  0.3442  0.6065 -0.0625
14062SOL    HW153115   8.299   7.378   5.017 -0.6972  2.1567 -1.0196
14062SOL    HW253116   8.276   7.510   5.110  0.6978  0.5196  1.7015
14063SOL     OW53117   5.456   1.003   3.317  0.3368 -0.4712  0.3262
14063SOL    HW153118   5.390   0.999   3.242  2.2555  0.0604 -1.4675
14063SOL    HW253119   5.478   0.910   3.347  0.6994 -0.7767 -0.8515
14064SOL     OW53120   4.857   0.754   2.903 -0.0129  0.4289 -0.2481
14064SOL    HW153121   4.846   0.702   2.819 -1.8638  1.9083 -0.9652
14064SOL    HW253122   4.930   0.821   2.891 -0.6064  0.9717 -0.8525
14065SOL     OW53123   1.700   4.510   3.732 -0.0686 -0.2089 -1.0272
14065SOL    HW153124   1.643   4.583   3.770  1.6985 -0.2447  1.7619
14065SOL    HW253125   1.644   4.427   3.721 -0.9389  0.1960  0.2139
14066SOL     OW53126   7.019   0.048   2.679 -0.2553  0.5808  0.0028
14066SOL    HW153127   7.044  -0.031   2.735  1.9121  0.3417 -1.2526
14066SOL    HW253128   6.933   0.087   2.713  0.5266 -0.0929  2.9202
14067SOL     OW53129   0.699   2.659   4.261 -0.7983 -0.1799  0.1192
14067SOL    HW153130   0.726   2.600   4.186 -0.9378  1.0111 -0.8835
14067SOL    HW253131   0.775   2.720   4.285 -1.3356  0.6269 -0.2218
14068SOL     OW53132   3.184   2.593   2.356  0.4890 -0.2442  0.0746
14068SOL    HW153133   3.160   2.552   2.444 -0.4047  1.4144  0.6096
14068SOL    HW253134   3.282   2.582   2.341  0.2960 -2.5540  0.2057
14069SOL     OW53135   0.065   8.308   1.541 -0.5534 -0.3111 -0.1663
14069SOL    HW153136   0.157   8.313   1.580 -0.6712  0.6506  0.0089
14069SOL    HW253137   0.000   8.280   1.613 -0.6017  0.3506  0.0471
14070SOL     OW53138   8.594   5.485   2.103  0.2359  0.5170  0.2277
14070SOL    HW153139   8.682   5.462   2.062 -0.8534  1.4680 -2.7428
14070SOL    HW253140   8.589   5.584   2.119  0.5285  0.2079  2.5027
14071SOL     OW53141   6.404   7.125   2.984 -0.1062  0.0740  0.1801
14071SOL    HW153142   6.411   7.026   2.979  0.2428 -0.0086  1.8103
14071SOL    HW253143   6.396   7.163   2.892  0.9772 -1.3768 -0.5357
14072SOL     OW53144   3.795   8.104   0.855  0.2570  0.0318  0.4170
14072SOL    HW153145   3.831   8.100   0.949  0.4790 -0.6117  0.3051
14072SOL    HW253146   3.714   8.047   0.848 -0.3659  0.9067  0.4784
14073SOL     OW53147   1.275   0.164   5.271 -0.0157  0.3398 -0.3664
14073SOL    HW153148   1.372   0.184   5.257 -0.0839  0.4004 -0.7480
14073SOL    HW253149   1.224   0.181   5.187 -0.2798 -0.2064 -0.3225
14074SOL     OW53150   8.109   4.363   5.173  0.6583 -0.8331 -0.0920
14074SOL    HW153151   8.194   4.335   5.129  0.6283 -0.6823 -0.2432
14074SOL    HW253152   8.108   4.328   5.267  1.3369  0.0040  0.2422
14075SOL     OW53153   7.659   1.420   1.781  0.5536 -0.1119  0.4645
14075SOL    HW153154   7.687   1.512   1.810 -2.4891  1.9612 -2.7132
14075SOL    HW253155   7.599   1.380   1.850  1.1844  0.6356  1.4650
14076SOL     OW53156   9.796   3.056   0.183 -0.2940 -0.0842 -0.0317
14076SOL    HW153157   9.766   3.101   0.267 -0.7340 -0.1600 -0.1478
14076SOL    HW253158   9.742   2.973   0.168  1.0657 -1.1109  0.6130
14077SOL     OW53159   5.680   8.199   2.593  0.2408 -0.1063  0.5813
14077SOL    HW153160   5.621   8.267   2.638 -0.5620  0.5335 -1.3991
14077SOL    HW253161   5.768   8.241   2.570 -0.3252  0.3328 -0.8144
14078SOL     OW53162   4.299   1.814   1.608  0.4042  0.0012  0.2912
14078SOL    HW153163   4.278   1.859   1.521 -0.2783  0.2995  0.6085
14078SOL    HW253164   4.398   1.802   1.616  0.5807  1.2672  0.1158
14079SOL     OW53165   0.799   4.076   4.049 -0.0302  0.0926  0.0155
14079SOL    HW153166   0.773   4.160   4.001  2.3189  0.7128 -0.2249
14079SOL    HW253167   0.881   4.038   4.007 -0.8413 -2.1310  0.3766
14080SOL     OW53168   8.260   1.020   4.071 -0.1112  0.2608 -0.1948
14080SOL    HW153169   8.167   0.985   4.063 -0.0496  0.3235 -1.1921
14080SOL    HW253170   8.292   1.008   4.165 -0.7489 -0.7045 -0.0967
14081SOL     OW53171   8.963   7.479   1.777  0.6232 -0.3553 -0.7763
14081SOL    HW153172   8.958   7.485   1.678 -1.6065 -1.6520 -0.7747
14081SOL    HW253173   8.999   7.389   1.803  2.1517  0.3474 -0.4003
14082SOL     OW53174   9.411   3.848   4.716 -0.7740 -0.0350 -0.5369
14082SOL    HW153175   9.505   3.841   4.683 -0.6944  1.5611 -0.7092
14082SOL    HW253176   9.348   3.822   4.643 -0.4793 -0.3525 -0.6763
14083SOL     OW53177   2.034   3.622   4.725  0.0318  0.8536 -0.1600
14083SOL    HW153178   2.116   3.670   4.693  1.6054 -0.2208  2.1231
14083SOL    HW253179   2.032   3.530   4.685  0.6657  0.4058  0.8211
14084SOL     OW53180   5.312   9.152   1.206 -0.5069  0.1260  0.3085
14084SOL    HW153181   5.290   9.064   1.249 -3.0689  0.5508 -0.0419
14084SOL    HW253182   5.376   9.202   1.264 -1.8956 -0.4075  2.3824
14085SOL     OW53183   1.337   6.148   0.904  0.1099  0.0313  0.0999
14085SOL    HW153184   1.378   6.234   0.935  0.0944  0.1372 -0.1725
14085SOL    HW253185   1.274   6.115   0.974 -0.3155  0.5372 -0.0388
14086SOL     OW53186   9.755   0.201   2.211 -0.1164 -0.0370  0.2805
14086SOL    HW153187   9.833   0.150   2.176  0.7625  1.6817 -0.3426
14086SOL    HW253188   9.787   0.267   2.280 -0.9272  1.0134 -0.3258
14087SOL     OW53189   0.880   2.132   2.745 -0.0315  0.6324 -0.3420
14087SOL    HW153190   0.832   2.220   2.744 -0.0176  0.6593  0.6015
14087SOL    HW253191   0.848   2.076   2.670 -3.3773 -0.2957  1.6800
14088SOL     OW53192   2.914   2.366   2.911 -0.4531  0.1729  0.0487
14088SOL    HW153193   3.002   2.352   2.865  0.0592 -1.8159  1.5411
14088SOL    HW253194   2.854   2.289   2.891 -1.1159  0.5188  0.6810
14089SOL     OW53195   3.406   3.378   5.150  0.4424  0.1532  0.5005
14089SOL    HW153196   3.310   3.377   5.122 -0.5442  5.0281  3.0602
14089SOL    HW253197   3.416   3.332   5.238  0.2218  0.7167  0.8203
14090SOL     OW53198   5.927   6.591   2.396 -0.1393  0.9557  0.0933
14090SOL    HW153199   5.993   6.577   2.470 -0.6798  1.4082  0.6600
14090SOL    HW253200   5.972   6.572   2.308  0.7017  1.1085  0.4818
14091SOL     OW53201   4.374   2.590   1.586 -0.3568  0.2595  0.3250
14091SOL    HW153202   4.464   2.547   1.597 -0.5257 -0.1780  0.0191
14091SOL    HW253203   4.371   2.675   1.638  0.4480  0.5869 -0.1619
14092SOL     OW53204   0.386   1.469   2.587  0.6621  0.1668  0.2762
14092SOL    HW153205   0.471   1.449   2.635  1.4069  0.7967 -0.7477
14092SOL    HW253206   0.404   1.532   2.511 -0.2981 -1.5615 -1.4453
14093SOL     OW53207   5.247   6.162   1.557 -0.5911  0.0905 -0.1704
14093SOL    HW153208   5.270   6.243   1.611  1.6317 -0.2378 -0.5682
14093SOL    HW253209   5.176   6.109   1.604  1.3397 -0.2380  2.4873
14094SOL     OW53210   3.708   8.052   2.067  0.4230 -0.1826  0.0829
14094SOL    HW153211   3.657   8.065   1.982  0.2079 -1.0517  0.0699
14094SOL    HW253212   3.805   8.042   2.046  0.4568  0.2879  0.0036
14095SOL     OW53213   1.097   8.726   5.631 -0.1388  0.4466 -0.1837
14095SOL    HW153214   1.071   8.680   5.546 -1.5527  0.1482  0.3887
14095SOL    HW253215   1.167   8.672   5.678  0.2631  0.3424 -0.8934
14096SOL     OW53216   2.892   7.793   4.260  0.2117 -0.1192  0.4096
14096SOL    HW153217   2.934   7.812   4.349  0.2947 -1.8312  0.7505
14096SOL    HW253218   2.836   7.871   4.232 -0.3286  0.1613  2.2609
14097SOL     OW53219   2.819   4.031   3.889 -0.5336  0.0923  0.5693
14097SOL    HW153220   2.799   3.937   3.861  1.7386 -0.4512  0.6713
14097SOL    HW253221   2.756   4.093   3.842  0.8352 -1.1107 -3.0451
14098SOL     OW53222   7.117   8.390   1.936  0.0861  0.0263 -0.1676
14098SOL    HW153223   7.102   8.477   1.889  0.2958  0.1767  0.0424
14098SOL    HW253224   7.214   8.366   1.933  0.2947  0.6270  1.2046
14099SOL     OW53225   9.092   7.802   3.691  0.4499 -0.6574 -0.9050
14099SOL    HW153226   9.078   7.710   3.727 -0.4140 -1.0986 -2.3191
14099SOL    HW253227   9.092   7.868   3.766 -0.7182 -1.6239 -0.0400
14100SOL     OW53228   3.657   4.048   2.327 -0.5329  0.2575 -0.2113
14100SOL    HW153229   3.655   3.948   2.325 -1.4504  0.2845 -4.7101
14100SOL    HW253230   3.585   4.081   2.388 -0.7783 -1.8087  0.6705
14101SOL     OW53231   4.165   9.936   4.500 -0.4555 -0.0882 -0.0512
14101SOL    HW153232   4.200  10.016   4.451  0.4963  0.9994  2.3240
14101SOL    HW253233   4.153   9.959   4.597 -0.0767 -2.8638  0.6875
14102SOL     OW53234   8.087   5.336   4.430  0.2235  0.9380  0.2413
14102SOL    HW153235   8.129   5.344   4.521  0.4734  0.9037  0.1294
14102SOL    HW253236   8.152   5.292   4.367 -0.1265  0.5363  0.1635
14103SOL     OW53237   4.061   7.823   4.375 -1.0750 -0.4143 -0.1973
14103SOL    HW153238   3.988   7.781   4.430  0.8569 -1.4738  1.6493
14103SOL    HW253239   4.137   7.849   4.434  0.6636 -0.6583 -2.2297
14104SOL     OW53240   9.261   8.418   2.932  0.0170  0.5681 -0.2518
14104SOL    HW153241   9.283   8.515   2.922 -0.6130  0.6080 -1.2899
14104SOL    HW253242   9.222   8.384   2.847  0.7756 -0.7448 -0.0759
14105SOL     OW53243   9.463   2.232   3.110  0.4790 -0.1303 -0.4211
14105SOL    HW153244   9.467   2.195   3.017  0.5763 -0.8423 -0.1388
14105SOL    HW253245   9.376   2.205   3.152  0.5252  0.0187 -0.2336
14106SOL     OW53246   4.047   3.098   2.046  0.6127 -0.1567 -0.0803
14106SOL    HW153247   3.953   3.133   2.033  0.5706 -0.3578 -0.3120
14106SOL    HW253248   4.071   3.104   2.143  0.3853 -0.0391 -0.0295
14107SOL     OW53249   0.893   3.507   0.067  0.3203  0.4687  0.0139
14107SOL    HW153250   0.796   3.522   0.045  0.3225 -0.4901 -0.6924
14107SOL    HW253251   0.938   3.462  -0.010  1.2592  0.6287  0.4628
14108SOL     OW53252   3.098   8.709   2.034  0.1262 -0.1226  0.7125
14108SOL    HW153253   3.139   8.705   1.943  0.7478  0.9762  0.9338
14108SOL    HW253254   3.081   8.616   2.067 -1.9698 -0.5092 -1.3517
14109SOL     OW53255   2.008   1.651   0.153 -0.0070  0.0435 -0.0516
14109SOL    HW153256   1.917   1.680   0.123 -0.2607 -1.3624 -0.7279
14109SOL    HW253257   2.001   1.598   0.237  0.2806  0.6521  0.3574
14110SOL     OW53258   0.325   8.992   1.862 -0.0483 -0.2553  0.0105
14110SOL    HW153259   0.280   9.047   1.791  1.2585  0.6723 -0.1104
14110SOL    HW253260   0.323   8.896   1.836  0.1290  0.0392 -1.1290
14111SOL     OW53261   2.700   4.248   4.905 -0.3228  0.0907  0.1015
14111SOL    HW153262   2.626   4.219   4.966 -0.2832  1.1176  0.6409
14111SOL    HW253263   2.706   4.184   4.828 -1.7095 -0.0516  0.1002
14112SOL     OW53264   1.064   3.384   4.806  0.3906 -0.2947  0.1389
14112SOL    HW153265   1.095   3.463   4.753  2.1677 -1.0958 -0.0404
14112SOL    HW253266   0.997   3.414   4.874  0.1209  1.1643 -0.7446
14113SOL     OW53267   5.894   0.585   1.401  0.2056 -0.5896 -0.1518
14113SOL    HW153268   5.898   0.632   1.489  0.7546 -0.3878 -0.2813
14113SOL    HW253269   5.962   0.625   1.339  2.2131 -3.0257  0.4360
14114SOL     OW53270   4.750   8.932   0.231  0.4322  0.3886  0.2561
14114SOL    HW153271   4.767   8.993   0.309 -1.2274 -1.3324  2.0105
14114SOL    HW253272   4.652   8.931   0.210  0.6193 -0.6370 -0.6354
14115SOL     OW53273   2.999   7.979   3.014  0.3524  0.2494  0.8597
14115SOL    HW153274   2.994   7.900   3.074 -0.2019  0.6935  1.4180
14115SOL    HW253275   3.067   7.964   2.943  0.8128 -0.4013  1.4345
14116SOL     OW53276   0.719   5.084   4.325  0.1817 -0.1125  0.0384
14116SOL    HW153277   0.785   5.115   4.256 -1.0594  0.4204 -0.9338
14116SOL    HW253278   0.700   5.158   4.389  2.5051 -1.0829  1.9126
14117SOL     OW53279   5.112   7.101   1.863  0.0299 -0.0148 -0.7824
14117SOL    HW153280   5.049   7.124   1.937  1.8499  0.5186  0.6410
14117SOL    HW253281   5.091   7.157   1.783 -0.4585  1.1167  0.1142
14118SOL     OW53282   1.215   4.469   4.908 -0.2568 -0.2593  0.0184
14118SOL    HW153283   1.252   4.442   4.997  1.3080  0.7171 -0.3168
14118SOL    HW253284   1.280   4.446   4.836 -1.1434 -0.2546 -0.7899
14119SOL     OW53285   2.371   8.906   0.104 -0.3045 -0.0824 -0.2965
14119SOL    HW153286   2.359   8.981   0.169 -0.8352  2.1698 -2.9010
14119SOL    HW253287   2.468   8.895   0.083 -0.4977  2.2784 -2.5838
14120SOL     OW53288   6.997   8.392   3.926  0.1114  0.4544 -0.4967
14120SOL    HW153289   6.929   8.464   3.937  1.3223  1.4780  0.5378
14120SOL    HW253290   7.035   8.396   3.834 -0.1149  0.8882 -0.5723
14121SOL     OW53291   9.990   0.941   0.095  0.5742  0.4052  0.0101
14121SOL    HW153292  10.047   1.018   0.066 -0.1843  0.0499 -2.5801
14121SOL    HW253293   9.912   0.933   0.033 -1.7936  0.2713  2.8859
14122SOL     OW53294   4.183   6.543   2.387  0.4366  0.0249 -0.5365
14122SOL    HW153295   4.112   6.589   2.333  1.0708  0.9388 -0.5862
14122SOL    HW253296   4.144   6.459   2.426 -0.5500  0.2873 -0.9213
14123SOL     OW53297   1.549   0.020   0.811 -0.1670 -0.5410 -0.5390
14123SOL    HW153298   1.462   0.067   0.795 -0.5150 -1.1564 -0.4502
14123SOL    HW253299   1.615   0.085   0.849 -0.5913 -0.0773 -0.5930
14124SOL     OW53300   2.378   4.740   1.708  0.3377 -0.0481 -0.2122
14124SOL    HW153301   2.318   4.697   1.641  0.8354 -1.6050  0.3160
14124SOL    HW253302   2.436   4.671   1.750  0.3997  0.9769  1.4520
14125SOL     OW53303   0.180   8.630   2.408  0.0109  0.2158 -0.2920
14125SOL    HW153304   0.198   8.537   2.440 -0.8139  0.1569  0.0286
14125SOL    HW253305   0.224   8.645   2.320 -0.1284 -0.5833 -0.4914
14126SOL     OW53306   5.882   0.143   4.582 -0.3813  0.3298 -0.6485
14126SOL    HW153307   5.812   0.204   4.621 -1.0211 -0.1753 -1.0127
14126SOL    HW253308   5.846   0.050   4.577  1.6558 -0.7277  2.8001
14127SOL     OW53309   9.686   9.014   2.733 -0.6039 -0.2943 -0.4611
14127SOL    HW153310   9.736   9.080   2.677  0.9565 -0.6054  0.5346
14127SOL    HW253311   9.751   8.956   2.783 -1.9535 -1.6875 -0.2672
14128SOL     OW53312   1.391   6.925   5.119  0.2617 -0.2963 -0.3959
14128SOL    HW153313   1.363   6.839   5.076 -2.3904  0.1460  0.3600
14128SOL    HW253314   1.437   6.904   5.206  1.0992 -0.9901 -0.9926
14129SOL     OW53315   0.719   1.974   0.939  0.1484 -0.1168 -1.0542
14129SOL    HW153316   0.801   2.020   0.906  1.2243 -1.7341 -0.6887
14129SOL    HW253317   0.647   1.980   0.869  0.5835  1.2500 -1.4013
14130SOL     OW53318   7.550   1.256   1.577  0.3623  0.1166 -0.1340
14130SOL    HW153319   7.565   1.161   1.604 -2.7733 -0.1946  0.7315
14130SOL    HW253320   7.596   1.317   1.642 -1.7735 -0.7466  2.2357
14131SOL     OW53321   2.213   0.847   5.083 -0.1295 -0.0307  0.1589
14131SOL    HW153322   2.249   0.919   5.022  0.2199  0.3326  0.7868
14131SOL    HW253323   2.182   0.889   5.168  0.0772 -0.6245  0.5264
14132SOL     OW53324   2.156   2.167   1.811  0.3193  0.6183 -0.0538
14132SOL    HW153325   2.158   2.267   1.804 -0.0389  0.5430 -1.2491
14132SOL    HW253326   2.126   2.141   1.903  0.8607  1.6071  0.4126
14133SOL     OW53327   1.284   2.991   1.968 -0.1915 -0.0561 -0.3944
14133SOL    HW153328   1.282   3.065   1.901 -1.7754 -0.1695 -0.4801
14133SOL    HW253329   1.204   2.998   2.028  0.0662 -1.2342  0.1016
14134SOL     OW53330   0.939   5.880   1.036  0.8560 -0.1450 -0.3766
14134SOL    HW153331   0.885   5.822   0.976  0.5655 -0.8832  0.5926
14134SOL    HW253332   1.017   5.828   1.072  0.5216  0.0205  0.5995
14135SOL     OW53333   9.767   2.249   4.329  0.3112  0.2891 -0.4559
14135SOL    HW153334   9.786   2.151   4.329  0.3724  0.3041 -1.5295
14135SOL    HW253335   9.838   2.298   4.278  0.5772  0.9587  0.5247
14136SOL     OW53336   3.100   7.916   0.100  0.1242  0.4225  0.7925
14136SOL    HW153337   3.124   7.879   0.011  1.8340  0.3071  1.2915
14136SOL    HW253338   3.096   8.016   0.095 -3.2065  0.2861 -0.2327
14137SOL     OW53339   2.858   6.566   5.430 -0.0180 -0.5621 -0.2676
14137SOL    HW153340   2.835   6.524   5.342  0.3409 -1.7601  0.2030
14137SOL    HW253341   2.932   6.631   5.417 -0.8780  0.2717 -1.0827
14138SOL     OW53342   4.634   9.015   3.885 -0.3233 -0.2433 -0.1778
14138SOL    HW153343   4.725   9.030   3.924 -0.1390  0.9823 -1.0386
14138SOL    HW253344   4.566   9.008   3.958  0.0669  1.6274  0.3987
14139SOL     OW53345   7.755   2.772   1.117  0.7112  0.4729 -0.3129
14139SOL    HW153346   7.766   2.759   1.216 -0.4769 -2.5693 -0.5343
14139SOL    HW253347   7.658   2.787   1.096  0.8901  0.5716 -1.0766
14140SOL     OW53348   9.046   7.366   4.931 -0.2421 -0.3108  0.3988
14140SOL    HW153349   8.951   7.368   4.963 -0.0473 -3.4272  1.3297
14140SOL    HW253350   9.108   7.376   5.009  0.2234  0.8452 -0.1013
14141SOL     OW53351   3.010   3.783   1.992 -0.5064 -0.1623  0.7493
14141SOL    HW153352   2.924   3.830   1.971 -0.5654 -0.1553  1.0128
14141SOL    HW253353   3.047   3.743   1.908  0.4447  1.8493  0.1807
14142SOL     OW53354   3.066   4.300   1.678 -0.7576 -0.1104 -0.2803
14142SOL    HW153355   3.141   4.348   1.723 -1.7071  2.0230 -0.8891
14142SOL    HW253356   3.098   4.261   1.592  0.0093 -0.4633  0.1671
14143SOL     OW53357   6.694   1.512   2.675 -0.4560  0.1673  0.3806
14143SOL    HW153358   6.681   1.610   2.660  1.3614  0.1935 -1.3006
14143SOL    HW253359   6.679   1.490   2.771  1.5563  2.5291  1.2808
14144SOL     OW53360   8.971   4.350   5.051 -0.5303 -0.2382 -0.6471
14144SOL    HW153361   9.062   4.332   5.087 -0.7466 -0.1763 -0.0658
14144SOL    HW253362   8.902   4.309   5.111 -0.8934 -0.1350 -0.9881
14145SOL     OW53363   1.191   3.153   3.444  0.2539 -0.2841 -0.3079
14145SOL    HW153364   1.227   3.114   3.529 -1.0583 -1.0288 -0.0730
14145SOL    HW253365   1.262   3.205   3.398  0.8696  0.4809  1.4628
14146SOL     OW53366   2.962   2.090   1.256 -0.1552  1.0199 -0.4285
14146SOL    HW153367   2.881   2.045   1.220  1.4375 -0.2901 -2.4189
14146SOL    HW253368   3.040   2.028   1.254  1.2833  2.7456  0.0102
14147SOL     OW53369   9.655   4.672   0.467  0.3847  0.1294 -0.4272
14147SOL    HW153370   9.697   4.643   0.381 -0.4095 -1.0651 -0.4220
14147SOL    HW253371   9.598   4.753   0.450  0.7061  0.2614 -0.9011
14148SOL     OW53372   3.741   2.639   2.421  0.0363  0.2571 -0.5402
14148SOL    HW153373   3.799   2.622   2.501 -0.1373 -2.4285 -0.9550
14148SOL    HW253374   3.690   2.556   2.399 -3.5194  2.3457 -0.5688
14149SOL     OW53375   9.955   4.028   0.633 -0.7262 -0.0335 -1.2695
14149SOL    HW153376  10.039   4.070   0.667 -1.6061  0.4223  0.4134
14149SOL    HW253377   9.946   4.046   0.535  1.2494 -0.3130 -1.5241
14150SOL     OW53378   1.988   3.041   3.425  0.9321 -0.3979  0.5538
14150SOL    HW153379   2.033   2.963   3.383 -1.2148 -1.3877  0.0094
14150SOL    HW253380   2.003   3.123   3.370 -1.7035 -1.6360 -2.1322
14151SOL     OW53381   4.063   4.698   5.537 -0.0910 -0.4412  0.0311
14151SOL    HW153382   3.968   4.719   5.511  0.1152  1.5331  0.8236
14151SOL    HW253383   4.079   4.599   5.526 -2.2329 -0.8011 -0.0949
14152SOL     OW53384   2.671   3.032   0.018 -0.1086  0.1463  0.5433
14152SOL    HW153385   2.596   3.025  -0.047 -1.4913 -0.0137  2.1167
14152SOL    HW253386   2.758   3.023  -0.030 -0.8620  5.0149 -2.0400
14153SOL     OW53387   4.955   9.788   2.297  0.3922 -0.2362  0.1275
14153SOL    HW153388   4.944   9.871   2.352 -2.2319 -0.6342  0.2828
14153SOL    HW253389   4.930   9.708   2.352  0.8481 -0.9276 -0.6675
14154SOL     OW53390   2.720   7.295   2.087  0.0066 -0.4357 -0.4352
14154SOL    HW153391   2.747   7.380   2.041 -0.6697  0.5221  0.9324
14154SOL    HW253392   2.656   7.245   2.029  2.3071 -1.2713 -2.3821
14155SOL     OW53393   2.622   1.832   2.512  0.1194  0.8388 -0.3240
14155SOL    HW153394   2.678   1.915   2.503  1.6440 -0.4018 -2.7084
14155SOL    HW253395   2.628   1.779   2.428  0.6809 -2.6364  1.8198
14156SOL     OW53396   9.149   7.554   4.763  0.1807  0.0550 -0.3295
14156SOL    HW153397   9.100   7.470   4.787 -1.3070  0.6262 -1.3116
14156SOL    HW253398   9.109   7.593   4.680  0.8648  1.7429  0.1209
14157SOL     OW53399   8.227   7.189   1.067  0.4804  0.2483  0.1678
14157SOL    HW153400   8.186   7.192   1.157 -0.5962  0.9879 -0.3439
14157SOL    HW253401   8.156   7.192   0.997  1.2401 -1.3476 -0.7094
14158SOL     OW53402   9.286   4.949   5.344  0.0861  0.5097 -0.2697
14158SOL    HW153403   9.318   4.965   5.438  0.7083 -1.3548 -0.1363
14158SOL    HW253404   9.189   4.928   5.345  0.4963 -1.4445  0.1972
14159SOL     OW53405   4.783   9.021   1.034 -0.1708 -0.6133 -0.4264
14159SOL    HW153406   4.767   9.079   0.955 -0.7856 -0.8445 -0.4728
14159SOL    HW253407   4.841   8.944   1.008  1.9613  0.8089 -0.0063
14160SOL     OW53408   7.997   2.375   1.094  0.1448  0.5317 -0.4937
14160SOL    HW153409   7.959   2.282   1.101 -1.4211  1.2356  0.9233
14160SOL    HW253410   8.081   2.380   1.147 -1.4095  0.6781  2.0893
14161SOL     OW53411   1.506   9.409   1.184  0.0888 -0.3767  0.5062
14161SOL    HW153412   1.433   9.350   1.218 -1.3587  1.6255  0.9515
14161SOL    HW253413   1.573   9.424   1.257 -2.2989  2.7906  2.1353
14162SOL     OW53414   3.438   0.325   4.218 -0.0608 -0.4111 -0.0463
14162SOL    HW153415   3.385   0.321   4.303 -0.1573 -0.3217 -0.1028
14162SOL    HW253416   3.484   0.414   4.212 -2.5909  0.8273 -1.6255
14163SOL     OW53417   1.203   9.118   3.955  0.6587  0.3705 -0.0686
14163SOL    HW153418   1.293   9.108   3.997 -0.4664 -0.9468  2.1555
14163SOL    HW253419   1.158   9.200   3.991  0.4123  0.2552 -0.1112
14164SOL     OW53420   0.615   4.842   4.198 -0.5248  0.4455  0.2469
14164SOL    HW153421   0.644   4.929   4.238 -0.8659  1.0439 -0.7971
14164SOL    HW253422   0.528   4.853   4.151 -0.3407 -0.3474 -0.3028
14165SOL     OW53423   9.375   0.529   5.190 -0.3084 -0.7721 -0.0739
14165SOL    HW153424   9.389   0.578   5.276 -3.8233 -0.4164  0.3532
14165SOL    HW253425   9.349   0.593   5.118 -2.3167 -1.6277 -0.1510
14166SOL     OW53426   2.166   4.063   3.741 -0.2292 -0.0769 -0.3995
14166SOL    HW153427   2.192   4.108   3.827 -1.4574  1.8182 -0.9731
14166SOL    HW253428   2.088   4.003   3.757  0.5714 -0.9845  0.1209
14167SOL     OW53429   8.639   0.102   4.630 -0.5722  0.3429 -0.5193
14167SOL    HW153430   8.581   0.176   4.664 -1.6885 -0.2897 -1.0302
14167SOL    HW253431   8.582   0.032   4.587  0.6019 -0.1123 -1.3574
14168SOL     OW53432   9.358   5.809   4.605 -0.1162  0.0617 -0.0945
14168SOL    HW153433   9.374   5.908   4.605 -0.4970  0.1403 -1.8245
14168SOL    HW253434   9.354   5.775   4.699  0.0753  1.6800  0.5019
14169SOL     OW53435   0.380   5.542   5.033 -0.1229  0.1794 -0.2385
14169SOL    HW153436   0.422   5.590   5.110 -0.5055 -1.9778  1.3588
14169SOL    HW253437   0.296   5.590   5.006  0.2004  1.1430  0.4492
14170SOL     OW53438   0.153   2.322   3.036  0.1451 -0.6145 -0.4198
14170SOL    HW153439   0.169   2.309   3.134 -2.4767  1.8115  0.3858
14170SOL    HW253440   0.239   2.348   2.992  0.8828  0.8024  1.7286
14171SOL     OW53441   6.071   7.395   3.820 -0.0277 -0.1929 -0.2189
14171SOL    HW153442   6.001   7.334   3.858  0.4283 -0.7793 -0.3041
14171SOL    HW253443   6.031   7.453   3.750 -0.4656 -0.4127 -0.1489
14172SOL     OW53444   1.343   2.490   2.379 -0.2850 -0.7251  0.1222
14172SOL    HW153445   1.322   2.554   2.452 -2.3664 -0.8532 -0.3182
14172SOL    HW253446   1.433   2.449   2.394 -0.4391 -0.3100  2.2698
14173SOL     OW53447   0.941   0.738   5.516  0.2769  0.0359 -0.2656
14173SOL    HW153448   0.861   0.682   5.493 -0.0711  1.0358 -1.5945
14173SOL    HW253449   0.919   0.796   5.594  0.1575 -0.6687  0.2238
14174SOL     OW53450   8.506   3.401   2.610  0.0046 -0.5375 -0.3608
14174SOL    HW153451   8.601   3.369   2.609  0.2549  0.1876 -0.4114
14174SOL    HW253452   8.501   3.488   2.661 -0.9233 -1.4759  1.2011
14175SOL     OW53453   2.515   0.274   1.872 -0.2878  0.0848 -0.6134
14175SOL    HW153454   2.594   0.248   1.817 -0.9358 -0.1792 -1.4307
14175SOL    HW253455   2.431   0.248   1.824 -0.8916  1.1523 -0.1584
14176SOL     OW53456   3.001   8.821   1.144 -0.0668 -0.0316 -0.2443
14176SOL    HW153457   2.966   8.904   1.189  0.0541 -1.7596  3.1646
14176SOL    HW253458   2.965   8.817   1.050 -0.2118  3.7558 -0.4551
14177SOL     OW53459   8.955   1.004   2.575 -0.3552  0.3010  0.4344
14177SOL    HW153460   9.006   1.083   2.609  2.8741 -1.6836  0.4473
14177SOL    HW253461   8.915   0.956   2.653 -2.1053  1.7355  0.4490
14178SOL     OW53462   4.026   3.451   3.884  0.0122 -0.4317 -0.1020
14178SOL    HW153463   4.006   3.353   3.888  1.3512 -0.7479 -0.5815
14178SOL    HW253464   4.122   3.466   3.908 -0.3769  0.8484  0.7295
14179SOL     OW53465   9.890   6.487   3.570  0.3948  0.7160 -0.1432
14179SOL    HW153466   9.935   6.513   3.485 -1.1652 -0.8615 -1.5057
14179SOL    HW253467   9.926   6.399   3.601  0.0817  0.6940  0.1610
14180SOL     OW53468   5.408   1.201   3.502  0.7012  0.0175  0.1675
14180SOL    HW153469   5.429   1.119   3.448 -2.1976 -0.2350 -0.6062
14180SOL    HW253470   5.403   1.281   3.442 -0.5715  0.0692  0.3412
14181SOL     OW53471   9.969   8.947   1.242 -0.5250  0.3505  0.1050
14181SOL    HW153472   9.911   8.889   1.300  0.3534 -1.6892 -0.9759
14181SOL    HW253473   9.913   8.999   1.178 -1.3734  1.1091  1.4621
14182SOL     OW53474   1.436   6.935   1.573  0.0117  0.0247  0.1709
14182SOL    HW153475   1.477   7.024   1.591 -1.2978  0.7059 -0.1198
14182SOL    HW253476   1.336   6.945   1.568 -0.1878 -1.5708  0.7937
14183SOL     OW53477   1.498   0.639   3.148 -0.1918  0.4498 -0.5681
14183SOL    HW153478   1.523   0.733   3.168  0.8073  0.3555 -1.3523
14183SOL    HW253479   1.419   0.637   3.087 -0.7485  0.7679  0.1396
14184SOL     OW53480   2.987   5.858   2.652 -0.2190  0.1660 -0.2821
14184SOL    HW153481   2.991   5.802   2.735  0.0144  2.1744  1.0957
14184SOL    HW253482   3.078   5.862   2.610 -0.5539 -1.7167 -1.2668
14185SOL     OW53483   1.102   6.191   0.774  0.4117  0.0798  0.2096
14185SOL    HW153484   1.188   6.179   0.824  1.4999  0.9920 -1.3881
14185SOL    HW253485   1.098   6.127   0.697 -1.3105 -1.4083  1.4958
14186SOL     OW53486   3.618   7.291   2.031  0.1632  0.0220 -0.1389
14186SOL    HW153487   3.660   7.331   2.112  1.5292  1.8665 -1.6818
14186SOL    HW253488   3.684   7.232   1.985  0.2789  1.0012 -1.2594
14187SOL     OW53489   7.934   4.447   4.988  0.6991  1.0588 -0.2439
14187SOL    HW153490   7.979   4.419   5.073  2.2277  0.4421 -1.2390
14187SOL    HW253491   7.843   4.404   4.983  0.5802  1.1342  1.0882
14188SOL     OW53492   6.042   0.088   3.889  0.7324  0.5652  0.2547
14188SOL    HW153493   5.958   0.131   3.857  1.5643  1.1637 -1.1571
14188SOL    HW253494   6.067   0.124   3.979 -0.1430  0.8763  0.3705
14189SOL     OW53495   8.474   3.466   5.035  0.1912  0.1492  0.0718
14189SOL    HW153496   8.379   3.477   5.063 -0.1211  0.6997 -1.1739
14189SOL    HW253497   8.533   3.521   5.094 -0.4443  1.1688 -0.2388
14190SOL     OW53498   5.552   1.288   4.497  0.0013 -0.0356  0.0103
14190SOL    HW153499   5.455   1.263   4.493  0.0587 -0.7831  2.3136
14190SOL    HW253500   5.575   1.344   4.418 -2.0300 -0.8003 -1.1785
14191SOL     OW53501   0.243   8.921   2.852 -0.0915 -0.1291  0.4409
14191SOL    HW153502   0.186   8.887   2.927  2.1809 -0.6711  2.0066
14191SOL    HW253503   0.188   8.933   2.770 -2.0837 -2.1828  1.4376
14192SOL     OW53504   2.124   2.018   0.183  0.1266 -0.3560 -0.4310
14192SOL    HW153505   2.133   2.087   0.111  0.1300 -2.1412 -2.1742
14192SOL    HW253506   2.178   1.937   0.159 -0.0072 -1.0551  1.5108
14193SOL     OW53507   3.470   4.071   1.704 -0.0265 -0.0299  0.3361
14193SOL    HW153508   3.455   4.169   1.710  0.2016  0.0879 -0.7965
14193SOL    HW253509   3.562   4.049   1.736  1.4884  0.6755 -3.2687
14194SOL     OW53510   1.844   8.556   3.276 -0.2900  0.4519 -0.5141
14194SOL    HW153511   1.808   8.647   3.254  1.8687  1.5490  0.3321
14194SOL    HW253512   1.847   8.545   3.375  1.9026  0.4847 -0.5689
14195SOL     OW53513   9.006   9.500   5.130  0.2956  0.5263  0.7606
14195SOL    HW153514   9.069   9.565   5.171  0.4596  0.9519 -0.1467
14195SOL    HW253515   8.950   9.547   5.061  0.7268 -0.3921 -0.2195
14196SOL     OW53516   3.417   8.103   1.054 -0.0235  0.4888 -0.0555
14196SOL    HW153517   3.463   8.049   0.984 -0.9927 -1.4343  0.7488
14196SOL    HW253518   3.481   8.123   1.128 -0.0111 -0.6921  0.2552
14197SOL     OW53519   2.510   1.603   1.936 -0.0199 -0.2088  0.5906
14197SOL    HW153520   2.510   1.574   1.840  1.3301 -0.3709  0.6280
14197SOL    HW253521   2.516   1.703   1.940  0.5691 -0.2401  0.5110
14198SOL     OW53522   4.330   7.658   3.846  0.4907  0.2681  0.2736
14198SOL    HW153523   4.271   7.705   3.912 -0.3715  0.4917 -0.6559
14198SOL    HW253524   4.414   7.629   3.892  0.7919  2.1971  1.0095
14199SOL     OW53525   0.478   7.028   3.719 -0.1308 -0.0389 -0.2997
14199SOL    HW153526   0.564   7.043   3.671 -0.0255 -1.2111 -0.4850
14199SOL    HW253527   0.492   6.961   3.793 -0.5245  0.9427  0.6854
14200SOL     OW53528   3.904   8.958   4.108 -0.7653  0.0728 -0.1344
14200SOL    HW153529   3.888   9.050   4.073  0.4276  0.3711  0.1106
14200SOL    HW253530   3.848   8.893   4.057 -1.1555  0.8530 -0.7090
14201SOL     OW53531   9.862   0.572   4.649  0.3449 -0.0136 -0.4299
14201SOL    HW153532   9.883   0.583   4.552 -0.4541  0.9576 -0.4967
14201SOL    HW253533   9.905   0.488   4.683  0.8407 -0.2245 -1.5542
14202SOL     OW53534   5.456   7.928   4.345 -0.4210  0.4673  0.5818
14202SOL    HW153535   5.461   7.828   4.348 -1.3275  0.3597 -0.8494
14202SOL    HW253536   5.546   7.966   4.362 -0.0883 -0.5943  1.2581
14203SOL     OW53537   9.598   2.051   1.485 -0.1511 -0.3683  0.3356
14203SOL    HW153538   9.686   2.005   1.476  0.0078  0.0498 -0.3612
14203SOL    HW253539   9.572   2.056   1.581  1.2596  0.7350  0.6771
14204SOL     OW53540   0.235   7.924   3.063  0.0225 -0.2259 -1.1585
14204SOL    HW153541   0.278   7.844   3.022  0.3458 -0.6758  0.0593
14204SOL    HW253542   0.232   7.914   3.162  0.3690  1.4086 -0.9693
14205SOL     OW53543   9.490   8.286   0.792  0.3981 -0.2609  0.2383
14205SOL    HW153544   9.529   8.229   0.863  0.5462 -2.3490 -1.4781
14205SOL    HW253545   9.395   8.259   0.774  0.3446  0.2666 -0.3380
14206SOL     OW53546   8.922   5.060   2.542 -0.0577 -0.3435 -0.0125
14206SOL    HW153547   8.912   5.064   2.641  0.1491  0.7613 -0.0336
14206SOL    HW253548   8.964   5.144   2.509 -0.2171 -0.6625 -1.0534
14207SOL     OW53549   2.543   9.917   1.396  0.3780 -0.3433  0.2985
14207SOL    HW153550   2.455   9.959   1.371 -0.0748 -0.0231  2.3078
14207SOL    HW253551   2.562   9.936   1.492  1.3848 -2.6849  0.5751
14208SOL     OW53552   2.729   1.694   4.654  0.5584  0.3300 -0.3503
14208SOL    HW153553   2.768   1.769   4.600  1.0765  0.8613  0.7346
14208SOL    HW253554   2.685   1.732   4.735 -0.1639 -0.4657 -0.3685
14209SOL     OW53555   3.447   4.353   0.358 -0.5600 -0.3125  0.4677
14209SOL    HW153556   3.474   4.413   0.283 -0.0622  0.4896  1.2855
14209SOL    HW253557   3.432   4.407   0.441 -0.5410 -1.2550  1.0952
14210SOL     OW53558   7.447   2.782   1.916 -0.3575 -0.0723  0.1566
14210SOL    HW153559   7.406   2.846   1.851 -0.0734  0.4843  0.5193
14210SOL    HW253560   7.410   2.691   1.901 -0.4203  0.0834 -0.6791
14211SOL     OW53561   2.905   9.406   3.363  0.2299 -0.4111 -0.4728
14211SOL    HW153562   2.973   9.471   3.396 -0.1484 -1.1579  1.8277
14211SOL    HW253563   2.950   9.336   3.308  1.3551 -0.9463  1.1006
14212SOL     OW53564   0.791   9.067   4.862 -0.7258 -0.1238 -0.1607
14212SOL    HW153565   0.835   9.158   4.866  0.6338 -0.7126 -1.1478
14212SOL    HW253566   0.751   9.046   4.951  0.7543  0.5752  0.6969
14213SOL     OW53567   3.166   0.605   0.005  0.0362 -0.2670  0.1579
14213SOL    HW153568   3.148   0.552  -0.078 -0.5819 -0.6713  0.5400
14213SOL    HW253569   3.181   0.542   0.082  0.8311  0.1027  0.3038
14214SOL     OW53570   7.384   2.464   2.905  0.1239  0.4474 -0.0649
14214SOL    HW153571   7.477   2.434   2.925 -0.0539  0.9537  1.5752
14214SOL    HW253572   7.387   2.549   2.852  0.5891  0.3198 -0.2473
14215SOL     OW53573   2.833   0.707   2.777  0.7083 -0.2380  0.4669
14215SOL    HW153574   2.838   0.795   2.823 -0.5004  0.3050 -0.4102
14215SOL    HW253575   2.925   0.668   2.768  1.4650  1.7150 -0.6306
14216SOL     OW53576   4.870   9.091   4.015 -0.3602 -0.2521  0.2901
14216SOL    HW153577   4.811   9.166   4.045 -0.6924  0.0415 -1.0638
14216SOL    HW253578   4.964   9.124   4.005 -0.9439  0.6461 -2.7011
14217SOL     OW53579   3.241   3.467   2.729  0.2936  0.1356 -0.2277
14217SOL    HW153580   3.227   3.368   2.729  0.8158  0.0029  2.3999
14217SOL    HW253581   3.268   3.496   2.821 -1.3026  2.9384 -0.6022
14218SOL     OW53582   7.780   5.163   4.488  0.2837  0.4315  0.3610
14218SOL    HW153583   7.731   5.080   4.515  0.0747  0.0557 -1.1047
14218SOL    HW253584   7.763   5.236   4.554 -0.1003 -0.4942  1.2802
14219SOL     OW53585   7.067   9.694   1.639  0.1561  0.1747  0.2356
14219SOL    HW153586   6.987   9.694   1.580  0.9402  0.0366 -0.8530
14219SOL    HW253587   7.049   9.747   1.721 -0.8925  0.5203 -0.2150
14220SOL     OW53588   3.969   2.700   2.581  0.1080  0.3352 -0.0407
14220SOL    HW153589   3.968   2.600   2.572  0.8711  0.2620  0.5883
14220SOL    HW253590   4.029   2.739   2.511  1.6556  0.1706  1.1596
14221SOL     OW53591   2.387   8.153   3.504  0.0362 -0.2428 -0.1507
14221SOL    HW153592   2.352   8.227   3.562 -0.0313  0.4430 -1.0396
14221SOL    HW253593   2.388   8.068   3.555 -1.6049  0.0048  0.3349
14222SOL     OW53594   0.732   8.243   4.220  0.0435  0.0482 -0.0620
14222SOL    HW153595   0.791   8.224   4.142  0.4402 -0.6330  0.3980
14222SOL    HW253596   0.778   8.304   4.283 -0.2328  0.5078 -0.2983
14223SOL     OW53597   9.005   2.288   3.965 -0.1844  0.2569 -0.1523
14223SOL    HW153598   9.015   2.230   4.046 -1.0989  1.0531  0.5452
14223SOL    HW253599   8.979   2.232   3.887  1.2207 -0.5945 -0.0252
14224SOL     OW53600   7.453   8.714   0.956 -0.1786 -0.1077 -0.4720
14224SOL    HW153601   7.428   8.779   1.028  0.7197 -0.2457 -0.0244
14224SOL    HW253602   7.438   8.755   0.866  1.0708  0.9752 -0.1860
14225SOL     OW53603   4.015   2.748   0.379 -0.2758  0.0668 -0.5778
14225SOL    HW153604   4.093   2.716   0.432 -0.3481 -0.5514 -0.8313
14225SOL    HW253605   3.939   2.771   0.440 -0.2283 -0.2746 -0.3903
14226SOL     OW53606   2.292   7.093   0.389  0.2587 -0.1049 -0.0446
14226SOL    HW153607   2.246   7.174   0.427 -0.6574 -0.1289 -1.0621
14226SOL    HW253608   2.389   7.097   0.411 -0.1968  0.0224  2.0268
14227SOL     OW53609   0.990   0.005   3.584 -0.3341 -0.0032  0.2387
14227SOL    HW153610   0.910   0.064   3.584  0.0453  0.5077  0.3816
14227SOL    HW253611   1.072   0.058   3.604 -0.0418 -0.6419  0.7753
14228SOL     OW53612   4.808   7.923   4.011  0.9689 -0.2412 -0.1945
14228SOL    HW153613   4.780   7.850   4.074 -1.1240  0.4180 -0.3292
14228SOL    HW253614   4.826   8.007   4.063  2.2714 -0.5269 -0.1636
14229SOL     OW53615   4.943   9.827   0.751 -0.0038  0.1039 -0.2242
14229SOL    HW153616   4.980   9.917   0.729  0.7693 -0.7906 -2.7467
14229SOL    HW253617   5.006   9.779   0.812 -0.1985  1.0572  0.7595
14230SOL     OW53618   7.613   1.866   2.653  0.1437  0.5701 -0.4788
14230SOL    HW153619   7.655   1.931   2.717 -0.1319  1.1617 -0.9057
14230SOL    HW253620   7.675   1.788   2.641  0.4989  0.7750 -0.0159
14231SOL     OW53621   8.561   5.763   2.129 -1.1505  0.0669 -0.1626
14231SOL    HW153622   8.607   5.811   2.054 -0.5572 -1.0404 -0.5151
14231SOL    HW253623   8.581   5.809   2.216  1.3748 -0.9293 -0.1816
14232SOL     OW53624   3.183   1.644   1.351 -0.2650 -0.1420  0.7729
14232SOL    HW153625   3.273   1.602   1.362  0.3142  0.9223  0.0884
14232SOL    HW253626   3.112   1.574   1.363  0.5855 -0.6917  2.8617
14233SOL     OW53627   9.444   7.402   2.372 -0.5028  0.0363  0.1517
14233SOL    HW153628   9.540   7.396   2.399 -0.3190  3.1962  0.4532
14233SOL    HW253629   9.386   7.376   2.449  0.0858 -1.1798  0.1977
14234SOL     OW53630   5.899   9.826   4.260  0.1330  0.0145  0.4498
14234SOL    HW153631   5.820   9.783   4.216 -0.0068  1.6192 -0.9463
14234SOL    HW253632   5.874   9.859   4.351 -0.6566  0.0335  0.2237
14235SOL     OW53633   2.062   9.841   1.190  0.0730 -0.5024 -0.0281
14235SOL    HW153634   2.011   9.901   1.252 -0.1843  1.0428 -1.7194
14235SOL    HW253635   1.998   9.780   1.143  0.0366 -0.2430 -0.3189
14236SOL     OW53636   3.544   8.053   4.757  0.0220 -0.1844  0.5080
14236SOL    HW153637   3.513   8.037   4.663  0.8947 -0.9419  0.3419
14236SOL    HW253638   3.630   8.104   4.755  0.2189 -0.5052  0.8921
14237SOL     OW53639   2.402   2.689   4.552  0.3954 -0.0247 -0.1307
14237SOL    HW153640   2.401   2.590   4.565  2.4862 -0.0895 -0.2950
14237SOL    HW253641   2.440   2.733   4.633 -0.6129  0.6546 -0.0198
14238SOL     OW53642   1.117   4.475   1.336  0.3412 -0.0512 -0.3371
14238SOL    HW153643   1.121   4.389   1.387  1.7656 -0.3042 -0.8342
14238SOL    HW253644   1.116   4.552   1.400  0.7823 -0.3965  0.0903
14239SOL     OW53645   4.744   9.902   3.457 -0.6877  0.5061 -0.0528
14239SOL    HW153646   4.739   9.842   3.537 -0.4742  0.5768  0.0121
14239SOL    HW253647   4.695   9.859   3.381  0.1619 -0.1234 -0.2513
14240SOL     OW53648   1.151   4.669   1.521  0.3519  0.0409  0.5760
14240SOL    HW153649   1.064   4.679   1.568  0.4348 -2.6015  1.3997
14240SOL    HW253650   1.182   4.758   1.486 -1.6257  1.3430  2.0828
14241SOL     OW53651   9.176   0.339   2.658 -0.3462  0.4881 -0.6104
14241SOL    HW153652   9.107   0.267   2.664 -0.3593  0.5331 -0.2419
14241SOL    HW253653   9.239   0.332   2.736 -0.1107  0.6307 -0.7866
14242SOL     OW53654   0.426   6.389   3.222 -0.0649 -0.3340 -0.1047
14242SOL    HW153655   0.398   6.366   3.315 -0.7578  1.1079  0.0611
14242SOL    HW253656   0.356   6.359   3.158 -1.1108  1.5253  0.1370
14243SOL     OW53657   8.692   7.005   3.210 -0.0301  0.2056  0.4534
14243SOL    HW153658   8.676   7.066   3.287  0.9411  0.3399  0.5498
14243SOL    HW253659   8.745   7.052   3.140 -1.2852  0.2291 -0.4943
14244SOL     OW53660   8.581   2.564   0.869  0.5393  0.6241 -0.6699
14244SOL    HW153661   8.582   2.663   0.886 -0.2950  0.4681  0.3631
14244SOL    HW253662   8.542   2.517   0.948  1.7169 -0.6112 -0.8082
14245SOL     OW53663   9.962   0.624   2.684 -0.0039  0.0244  0.1840
14245SOL    HW153664   9.890   0.694   2.689  0.7024  0.9274 -1.9640
14245SOL    HW253665  10.046   0.659   2.725 -0.6084 -0.8607  2.2607
14246SOL     OW53666   9.306   2.483   2.969  0.6148 -0.3469 -0.2145
14246SOL    HW153667   9.269   2.451   3.056 -0.8249  1.3476 -0.1792
14246SOL    HW253668   9.305   2.583   2.967  2.9739 -0.2944 -1.1933
14247SOL     OW53669   9.700   9.733   5.207  0.8324  0.2061 -0.1273
14247SOL    HW153670   9.716   9.761   5.113 -0.2274 -2.3659 -1.1195
14247SOL    HW253671   9.721   9.636   5.217  0.6028  0.3581  2.2173
14248SOL     OW53672   8.878   1.950   1.257 -0.2564  0.0206 -0.0046
14248SOL    HW153673   8.781   1.968   1.273 -0.6894 -1.4218 -0.8993
14248SOL    HW253674   8.893   1.930   1.161  0.8221 -0.4044  0.2428
14249SOL     OW53675   1.189   4.484   3.680  0.2846 -0.0405 -0.6239
14249SOL    HW153676   1.222   4.562   3.627  1.0850  0.4711  0.6305
14249SOL    HW253677   1.169   4.512   3.773  0.4385 -1.2980 -0.2019
14250SOL     OW53678   0.459   2.482   1.853 -0.2135  0.4782  0.2722
14250SOL    HW153679   0.486   2.475   1.757  1.5839 -1.1597  0.8694
14250SOL    HW253680   0.488   2.570   1.891  0.9209  0.2728 -0.1259
14251SOL     OW53681   9.318   1.560   0.416 -0.2733  0.1071 -0.0008
14251SOL    HW153682   9.228   1.539   0.379 -1.8139  0.9466  3.1361
14251SOL    HW253683   9.345   1.490   0.482  1.2477  0.0207 -0.6802
14252SOL     OW53684   2.965   3.399   0.847 -0.1143  0.2843 -0.7489
14252SOL    HW153685   2.918   3.364   0.766 -0.0784  0.2180 -0.7412
14252SOL    HW253686   2.900   3.448   0.905  0.2862  2.1766 -1.8624
14253SOL     OW53687   1.128   2.894   2.994 -1.1375  0.0461  0.1408
14253SOL    HW153688   1.100   2.967   2.932 -0.8657 -0.1540 -0.2155
14253SOL    HW253689   1.055   2.878   3.061 -0.7597  1.3826  0.8953
14254SOL     OW53690   7.942   3.476   2.123 -0.6253 -0.4136  0.2067
14254SOL    HW153691   7.868   3.410   2.113 -0.1224 -0.6623 -2.2125
14254SOL    HW253692   7.933   3.523   2.211 -3.1258 -1.0720  0.3469
14255SOL     OW53693   9.655   4.988   0.782 -0.1201 -0.0228  0.3327
14255SOL    HW153694   9.728   5.055   0.770  0.4006 -0.5230  0.7232
14255SOL    HW253695   9.586   5.002   0.711  1.1768 -0.6472 -1.0706
14256SOL     OW53696   8.768   0.938   1.984  0.0736  0.2335  0.0969
14256SOL    HW153697   8.861   0.907   1.962 -0.2782 -0.9656  0.2462
14256SOL    HW253698   8.753   0.933   2.082  0.7443  3.0359  0.3697
14257SOL     OW53699   0.049   2.526   3.339 -0.8437  0.3827 -0.5069
14257SOL    HW153700  -0.040   2.566   3.317 -1.8852 -2.3364 -1.3918
14257SOL    HW253701   0.114   2.549   3.267 -1.0485  1.6180 -0.3112
14258SOL     OW53702   5.336   7.766   3.833  0.2073 -0.4964 -0.9851
14258SOL    HW153703   5.363   7.684   3.784 -0.6086 -0.6126 -1.2517
14258SOL    HW253704   5.339   7.845   3.772 -1.8018 -0.8091 -1.5238
14259SOL     OW53705   9.620   8.211   3.543  0.3246  0.0106  0.5916
14259SOL    HW153706   9.551   8.267   3.496 -1.3142 -1.7150  0.8972
14259SOL    HW253707   9.710   8.228   3.502 -0.6695  0.4344 -1.4716
14260SOL     OW53708   6.849   9.492   2.968  0.0728 -0.0482 -0.1849
14260SOL    HW153709   6.886   9.418   3.023 -1.6473 -0.8200 -0.0207
14260SOL    HW253710   6.914   9.518   2.897  1.3784 -0.5623  0.8172
14261SOL     OW53711   2.469   5.980   1.129 -0.2141 -0.0667  0.0713
14261SOL    HW153712   2.464   6.041   1.050 -1.8676  0.3239  0.4659
14261SOL    HW253713   2.377   5.951   1.154  0.2676  0.0956  2.0818
14262SOL     OW53714   8.121   1.370   4.177 -0.3972 -0.1041  0.1699
14262SOL    HW153715   8.101   1.460   4.215  0.2621 -0.0662  0.4204
14262SOL    HW253716   8.215   1.344   4.199 -0.5542 -0.8099  0.0109
14263SOL     OW53717   8.900   1.940   1.774 -0.5848  0.0357  0.3403
14263SOL    HW153718   8.829   1.967   1.839 -0.4962 -0.1869  0.5320
14263SOL    HW253719   8.885   1.985   1.686 -0.9922 -0.0582  0.3645
14264SOL     OW53720   3.968   7.292   2.623  0.1066  0.0771  0.0005
14264SOL    HW153721   3.962   7.207   2.675  4.0621 -0.1938  0.1904
14264SOL    HW253722   3.887   7.348   2.642 -1.8908 -2.9692  0.9825
14265SOL     OW53723   4.187   8.175   2.228  0.4417  0.1835  0.2875
14265SOL    HW153724   4.240   8.251   2.267 -0.0497  0.2998  0.7370
14265SOL    HW253725   4.158   8.114   2.302  0.0265  0.0674  0.0272
14266SOL     OW53726   0.174   1.688   4.449 -0.0069 -0.6006 -0.1199
14266SOL    HW153727   0.209   1.639   4.529 -1.7719 -0.2480  0.8817
14266SOL    HW253728   0.137   1.622   4.383 -0.6000 -0.7379  0.3509
14267SOL     OW53729   9.948   7.405   0.928  0.1067  0.3382 -0.3500
14267SOL    HW153730   9.959   7.308   0.905 -0.5047  0.1487  0.1358
14267SOL    HW253731   9.860   7.437   0.892  0.5023  0.8360 -0.8971
14268SOL     OW53732   9.504   7.839   5.621  1.0665  0.2264  0.0907
14268SOL    HW153733   9.569   7.796   5.558  0.6606  0.5881 -0.5920
14268SOL    HW253734   9.415   7.845   5.576  0.6790  0.1394  0.8540
14269SOL     OW53735   3.415   4.091   4.959 -0.5091 -0.5471 -0.2580
14269SOL    HW153736   3.439   4.092   4.862  2.3374 -0.8851  0.3875
14269SOL    HW253737   3.490   4.051   5.012 -1.3672  0.9750  2.2410
14270SOL     OW53738   1.001   5.412   2.913  0.4227 -0.3688 -0.2112
14270SOL    HW153739   1.089   5.389   2.872  0.4598  3.0384 -2.2291
14270SOL    HW253740   0.928   5.400   2.845  0.0263  1.9371 -0.2233
14271SOL     OW53741   3.416   0.050   3.169 -0.1673  0.0139  0.3183
14271SOL    HW153742   3.382  -0.041   3.193 -0.0665  0.2973  1.5608
14271SOL    HW253743   3.488   0.042   3.100 -2.2051 -0.6466 -1.8081
14272SOL     OW53744   7.407   7.329   3.466  0.1376 -0.0186 -0.1216
14272SOL    HW153745   7.389   7.231   3.465  0.3392 -0.0453 -1.0778
14272SOL    HW253746   7.429   7.360   3.374  0.4162  0.8644  0.2391
14273SOL     OW53747   3.859   1.981   5.391 -0.2920  0.6762 -0.0611
14273SOL    HW153748   3.853   1.888   5.427  1.5361  0.1040 -1.1963
14273SOL    HW253749   3.775   2.004   5.342 -0.0029 -1.0837 -1.4275
14274SOL     OW53750   0.780   9.685   0.303 -0.0423 -0.9036 -0.1697
14274SOL    HW153751   0.844   9.609   0.317 -0.3866 -1.0881  0.3993
14274SOL    HW253752   0.764   9.731   0.390  0.1035 -0.2220 -0.4988
14275SOL     OW53753   1.433   1.902   1.171 -0.8081  0.0809 -0.0057
14275SOL    HW153754   1.349   1.874   1.218 -1.4807  1.0040 -0.6634
14275SOL    HW253755   1.486   1.962   1.230 -0.8710 -0.0666  0.2010
14276SOL     OW53756   3.294   3.963   1.910  0.3302 -0.0568  0.3984
14276SOL    HW153757   3.211   3.930   1.865  0.8023  0.6876 -1.0643
14276SOL    HW253758   3.359   3.993   1.840  0.7189  2.0098  1.6310
14277SOL     OW53759   3.101   1.260   1.103 -0.7345  0.1324 -0.2601
14277SOL    HW153760   3.100   1.168   1.141 -0.4584  0.1702 -0.1657
14277SOL    HW253761   3.007   1.291   1.090 -0.8366  0.3346  0.9011
14278SOL     OW53762   4.542   1.504   1.477 -0.3858 -0.4966  0.4760
14278SOL    HW153763   4.627   1.535   1.436 -0.8673  0.6579  0.3290
14278SOL    HW253764   4.558   1.419   1.526  0.4944 -1.1516 -0.9156
14279SOL     OW53765   7.492   1.301   1.960 -0.2103  0.2001 -0.9181
14279SOL    HW153766   7.399   1.335   1.946 -0.4441 -1.0177 -2.3988
14279SOL    HW253767   7.509   1.290   2.058 -1.4793  0.7828 -0.6231
14280SOL     OW53768   2.268   3.560   0.184  0.4878  0.1009 -0.0312
14280SOL    HW153769   2.326   3.628   0.230 -0.6173  1.0216  0.0119
14280SOL    HW253770   2.175   3.594   0.178 -0.0103 -1.2820 -0.3236
14281SOL     OW53771   1.048   4.283   2.372  0.4102  0.2977  0.3218
14281SOL    HW153772   1.139   4.289   2.412  0.8210  0.4526 -0.6143
14281SOL    HW253773   1.001   4.201   2.406  1.4746 -0.6039 -0.3530
14282SOL     OW53774   1.014   8.505   1.454 -0.1277  0.5747  0.0477
14282SOL    HW153775   1.080   8.550   1.515 -0.6569  0.8523  0.4205
14282SOL    HW253776   0.926   8.552   1.459 -0.3366  0.2483 -0.5047
14283SOL     OW53777   2.478   6.248   5.543  0.0071  0.2771 -0.0564
14283SOL    HW153778   2.420   6.269   5.464  1.0637  0.6400 -0.7632
14283SOL    HW253779   2.540   6.173   5.519 -0.2040 -0.1437  0.7038
14284SOL     OW53780   4.863   2.515   2.739  0.3851  0.6168 -0.4260
14284SOL    HW153781   4.922   2.436   2.720 -1.0950 -0.5816 -0.1632
14284SOL    HW253782   4.895   2.594   2.686  2.5115  0.1411  0.1047
14285SOL     OW53783   0.957   9.044   3.262  0.1075 -0.3238  0.2029
14285SOL    HW153784   1.005   9.131   3.266  2.3044 -1.4102 -1.3476
14285SOL    HW253785   0.892   9.044   3.186  0.9756 -0.4290 -0.5525
14286SOL     OW53786   8.365   6.538   1.503  0.3113  0.2119 -0.1624
14286SOL    HW153787   8.285   6.483   1.528 -0.3006  1.0681 -0.2195
14286SOL    HW253788   8.403   6.582   1.584  0.3724  0.2777 -0.2256
14287SOL     OW53789   0.187   1.888   2.171 -0.1497 -0.0597  0.5856
14287SOL    HW153790   0.191   1.936   2.258 -1.4115 -0.2078  0.7398
14287SOL    HW253791   0.279   1.876   2.134  0.1948  2.1460  0.7127
14288SOL     OW53792   8.665   1.725   2.926  0.1626  0.8398  0.2518
14288SOL    HW153793   8.748   1.766   2.888  1.2981 -0.1054  1.6544
14288SOL    HW253794   8.591   1.733   2.859  1.8748 -0.0645 -1.8393
14289SOL     OW53795   2.475   4.872   1.158  0.0025  0.1878  0.2583
14289SOL    HW153796   2.517   4.877   1.248 -1.9037 -0.4138  1.2206
14289SOL    HW253797   2.502   4.788   1.113  0.7759  0.3771  0.3693
14290SOL     OW53798   8.878   9.791   4.459 -0.4930  0.0760  0.4174
14290SOL    HW153799   8.898   9.888   4.443 -1.7042  0.3286  0.3329
14290SOL    HW253800   8.782   9.774   4.437 -0.6801 -0.8207  1.8680
14291SOL     OW53801   4.349   9.173   0.426  0.0630 -0.4174 -0.3315
14291SOL    HW153802   4.292   9.250   0.455  1.6401  1.0137 -0.9960
14291SOL    HW253803   4.315   9.089   0.469  0.9825  1.2841  4.0372
14292SOL     OW53804   9.536   8.107   2.890 -0.3336 -0.4760  0.0152
14292SOL    HW153805   9.439   8.085   2.879  0.1508 -2.3112 -0.7743
14292SOL    HW253806   9.558   8.187   2.834 -1.1500 -0.7211 -0.6749
14293SOL     OW53807   8.161   6.483   4.611  0.4940 -0.3848  0.3620
14293SOL    HW153808   8.216   6.442   4.684 -0.5258 -1.1022  0.7377
14293SOL    HW253809   8.069   6.504   4.646 -0.2691 -1.5011 -0.9286
14294SOL     OW53810   8.109   2.517   3.155 -0.2812  0.6397 -0.1026
14294SOL    HW153811   8.094   2.614   3.175  0.5546  0.6696  0.4204
14294SOL    HW253812   8.087   2.499   3.059 -1.0888  1.2015 -0.0302
14295SOL     OW53813   2.195   3.808   4.610 -0.5702 -0.6180  0.1205
14295SOL    HW153814   2.153   3.881   4.662  0.9626  0.4834 -0.1558
14295SOL    HW253815   2.241   3.846   4.529  2.4330 -1.5466  1.3253
14296SOL     OW53816   5.412   0.207   3.928 -0.5451  0.1520  0.4309
14296SOL    HW153817   5.322   0.243   3.953 -0.2031  0.2729  1.5274
14296SOL    HW253818   5.402   0.139   3.856 -1.3502  1.3680 -0.6209
14297SOL     OW53819   8.866   4.152   2.802 -0.5345 -0.5543  0.3437
14297SOL    HW153820   8.800   4.164   2.876 -1.4814 -2.5542 -0.1574
14297SOL    HW253821   8.822   4.168   2.714  0.0112 -0.4683  0.0821
14298SOL     OW53822   8.191   3.393   2.197  0.7032 -0.6125  0.0885
14298SOL    HW153823   8.260   3.448   2.243 -0.3344 -0.1856  1.1382
14298SOL    HW253824   8.114   3.451   2.169  0.5935 -1.1453 -0.7571
14299SOL     OW53825   9.313   2.601   1.064  0.5048 -0.2964 -0.0314
14299SOL    HW153826   9.343   2.549   1.144  1.9738  0.6414  0.0370
14299SOL    HW253827   9.376   2.584   0.988 -1.1739 -1.5961 -1.1751
14300SOL     OW53828   4.356   9.225   2.610  0.1506 -0.2713  0.6806
14300SOL    HW153829   4.308   9.308   2.581  0.7156 -0.5164 -1.0089
14300SOL    HW253830   4.346   9.213   2.708  2.2013  3.2138  1.3779
14301SOL     OW53831   8.169   4.134   4.803 -0.3802 -0.0097 -0.4219
14301SOL    HW153832   8.243   4.170   4.859 -1.1377  1.1845 -0.1598
14301SOL    HW253833   8.082   4.151   4.848 -0.9006 -0.2566 -1.3193
14302SOL     OW53834   0.859   2.215   4.178  0.0666  0.4863 -0.1799
14302SOL    HW153835   0.883   2.237   4.272 -2.4887 -1.0956  0.9096
14302SOL    HW253836   0.776   2.159   4.177  1.2258 -1.3182 -3.2747
14303SOL     OW53837   5.137   4.255   5.316 -0.0514 -0.5415  0.6912
14303SOL    HW153838   5.122   4.266   5.218 -0.3131 -0.8457  0.6992
14303SOL    HW253839   5.049   4.249   5.363  0.0797 -0.8011  0.9012
14304SOL     OW53840   9.026   4.779   0.661  1.0138 -0.1263 -0.7540
14304SOL    HW153841   8.979   4.745   0.579  1.3115 -1.0832 -0.5262
14304SOL    HW253842   8.964   4.776   0.739 -0.1660  3.3120 -1.4528
14305SOL     OW53843   9.202   8.372   4.188 -0.1041  0.3674  0.0504
14305SOL    HW153844   9.139   8.342   4.260  0.2416 -1.6820 -0.4652
14305SOL    HW253845   9.154   8.434   4.125 -1.0421  0.3868  0.7719
14306SOL     OW53846   0.510   5.094   0.302  0.4562  0.0860  0.3371
14306SOL    HW153847   0.436   5.039   0.341  0.9961 -0.7249  0.2277
14306SOL    HW253848   0.595   5.041   0.303  1.4131  1.5933  1.9723
14307SOL     OW53849   4.171   8.242   1.212  0.1326 -0.2718  0.4632
14307SOL    HW153850   4.175   8.151   1.255 -1.4501 -0.5410  0.0862
14307SOL    HW253851   4.126   8.306   1.275  0.4889  0.0413  0.3970
14308SOL     OW53852   6.413   9.397   1.842  0.3685  0.4313 -0.0535
14308SOL    HW153853   6.337   9.387   1.906 -1.7207 -0.5580 -2.6385
14308SOL    HW253854   6.446   9.491   1.843 -1.9363  1.2575 -0.0648
14309SOL     OW53855   1.018   5.494   3.168 -0.8503 -0.0218 -0.4283
14309SOL    HW153856   1.111   5.502   3.205 -1.5015 -0.2777  1.3180
14309SOL    HW253857   1.023   5.473   3.071  0.9198  1.1487 -0.6199
14310SOL     OW53858   9.519   6.274   2.256  0.2431  0.2286  0.2594
14310SOL    HW153859   9.420   6.270   2.270  0.1583  1.7709  0.1306
14310SOL    HW253860   9.552   6.183   2.230 -1.2837 -0.0709 -0.6948
14311SOL     OW53861   1.542   6.838   3.677  0.1047 -0.1851 -0.0914
14311SOL    HW153862   1.558   6.849   3.775 -0.2795 -0.6548  0.0250
14311SOL    HW253863   1.611   6.776   3.639 -0.0345 -0.3765 -0.0303
14312SOL     OW53864   4.560   7.546   3.993 -0.0988 -0.0555 -0.5755
14312SOL    HW153865   4.629   7.490   3.947 -0.4887 -0.7609 -0.3128
14312SOL    HW253866   4.496   7.487   4.042 -0.5496  0.6200 -0.3352
14313SOL     OW53867   4.779   5.575   1.588 -0.4552  0.2006 -0.2461
14313SOL    HW153868   4.755   5.575   1.491 -0.2266  0.7098 -0.3066
14313SOL    HW253869   4.698   5.595   1.643 -1.0288 -2.1583 -0.2050
14314SOL     OW53870   9.427   6.996   4.547 -0.5735 -0.3680  0.6004
14314SOL    HW153871   9.383   6.992   4.457  0.2470 -0.4727  0.1934
14314SOL    HW253872   9.359   6.982   4.618 -0.8618 -2.7003 -0.0909
14315SOL     OW53873  -0.004   8.209   4.300  0.6310  0.6747  0.3604
14315SOL    HW153874   0.020   8.164   4.386  1.4583  0.8727  0.2441
14315SOL    HW253875   0.047   8.296   4.293 -0.9415  1.6263  0.5869
14316SOL     OW53876   3.337   3.899   1.503 -0.0668  0.1695 -0.0187
14316SOL    HW153877   3.383   3.969   1.557 -0.4731  0.7438 -0.4051
14316SOL    HW253878   3.391   3.816   1.503 -0.3817 -0.0618  1.8162
14317SOL     OW53879   3.230   5.808   1.196  0.2295  0.7156  0.1087
14317SOL    HW153880   3.178   5.768   1.121 -0.8378 -1.5514  2.0029
14317SOL    HW253881   3.326   5.780   1.189 -0.0200 -0.1292  0.0146
14318SOL     OW53882   7.254   1.941   3.296  0.5065 -0.1437  0.0681
14318SOL    HW153883   7.281   1.910   3.205 -1.3233  0.7565 -0.8201
14318SOL    HW253884   7.179   1.884   3.330  1.8234 -1.0838  1.4357
14319SOL     OW53885   2.178   5.038   2.346  0.0920  0.0853  0.4676
14319SOL    HW153886   2.273   5.053   2.372  0.2461 -2.1188  1.2717
14319SOL    HW253887   2.174   4.983   2.263 -0.4799 -0.5893  0.9348
14320SOL     OW53888   9.037   8.516   4.003 -0.6345 -0.0440 -0.2933
14320SOL    HW153889   9.074   8.461   3.928  2.2207  0.0989  0.9333
14320SOL    HW253890   8.956   8.471   4.041  0.7641 -2.6434 -0.2823
14321SOL     OW53891   5.579   1.749   2.198 -0.3546  0.0925 -0.2278
14321SOL    HW153892   5.487   1.778   2.223 -0.5983 -1.4368  0.7495
14321SOL    HW253893   5.581   1.649   2.190  0.8863  0.2164 -1.6331
14322SOL     OW53894   9.286   8.722   4.672  0.1976  0.3295  0.4183
14322SOL    HW153895   9.357   8.788   4.647  2.2043 -2.1264 -0.5803
14322SOL    HW253896   9.328   8.633   4.692 -2.5571 -1.0572  0.3151
14323SOL     OW53897   0.550   0.647   5.489  0.6402  0.6988  0.9430
14323SOL    HW153898   0.485   0.652   5.413  0.9881  1.6307  0.7036
14323SOL    HW253899   0.637   0.612   5.455  1.2666  2.5508  0.5877
14324SOL     OW53900   0.729   0.979   4.214 -0.7141  0.3729 -0.7722
14324SOL    HW153901   0.705   0.895   4.262 -0.9677  0.1032 -1.3697
14324SOL    HW253902   0.696   1.058   4.267 -0.1774  0.1161 -0.0464
14325SOL     OW53903   9.723   8.092   1.240 -0.1644 -0.1028  0.1143
14325SOL    HW153904   9.643   8.136   1.280  1.1711  1.9793  0.5507
14325SOL    HW253905   9.790   8.073   1.312  0.4486 -0.2874 -0.4975
14326SOL     OW53906   6.216   7.847   3.689 -0.1096  0.0750 -0.5785
14326SOL    HW153907   6.223   7.931   3.742 -0.7616 -0.2182 -0.0164
14326SOL    HW253908   6.176   7.867   3.600  0.1400  0.4301 -0.6106
14327SOL     OW53909   3.100   5.541   1.770 -0.7352  0.1260 -0.1945
14327SOL    HW153910   3.187   5.556   1.817  0.2692 -1.5000 -1.4733
14327SOL    HW253911   3.079   5.621   1.713 -0.3190  0.7337  0.4977
14328SOL     OW53912   0.325   5.754   1.167  0.0715 -0.3441 -0.4294
14328SOL    HW153913   0.361   5.846   1.183 -0.2283 -0.3546  0.2929
14328SOL    HW253914   0.255   5.758   1.096 -0.6734  0.1426  0.3300
14329SOL     OW53915   7.981   9.672   5.279 -0.7017 -0.3230 -0.2064
14329SOL    HW153916   8.049   9.600   5.295 -0.2678 -0.0437 -0.7790
14329SOL    HW253917   7.889   9.636   5.296 -0.4317 -0.7879  0.2783
14330SOL     OW53918   4.047   1.764   0.238 -0.1223  0.3761  0.7751
14330SOL    HW153919   3.981   1.729   0.172 -2.7192 -0.0861  3.4508
14330SOL    HW253920   4.055   1.863   0.227 -0.2879  0.2613 -0.4358
14331SOL     OW53921   3.726   1.943   3.966  0.2562 -0.0476 -0.5642
14331SOL    HW153922   3.815   1.975   3.933  0.0239  0.4898 -0.6724
14331SOL    HW253923   3.701   1.992   4.049  0.2550 -0.5024 -0.2932
14332SOL     OW53924   7.941   6.651   4.752  0.1003 -0.7103 -0.5312
14332SOL    HW153925   7.924   6.606   4.840 -0.8521  2.1710  0.8292
14332SOL    HW253926   7.856   6.655   4.699 -0.2759  1.0537  0.1575
14333SOL     OW53927   1.763   5.551   2.414  0.1600 -0.7844  0.4190
14333SOL    HW153928   1.774   5.624   2.482 -0.6819  0.0884 -0.3702
14333SOL    HW253929   1.678   5.564   2.364 -1.9867 -4.5030  2.8513
14334SOL     OW53930   8.910   7.460   3.542  0.5956 -0.7554 -0.5914
14334SOL    HW153931   8.968   7.492   3.467 -1.5659  0.1428 -1.9370
14334SOL    HW253932   8.834   7.523   3.554 -0.3830 -2.1681  0.8061
14335SOL     OW53933   3.516   3.655   0.078  0.3652 -0.3540 -0.6177
14335SOL    HW153934   3.614   3.665   0.063  0.2167  0.3846 -1.1551
14335SOL    HW253935   3.476   3.745   0.097 -0.5142 -0.3732 -2.2993
14336SOL     OW53936   2.581   0.937   2.073 -0.0676  0.0734  0.0625
14336SOL    HW153937   2.530   0.958   1.990  0.9271 -0.0012 -0.5675
14336SOL    HW253938   2.641   0.859   2.057  0.3453  0.2380  0.7625
14337SOL     OW53939   3.192   1.594   5.330 -0.1359 -0.7070 -0.3376
14337SOL    HW153940   3.168   1.610   5.426  0.7818 -0.4289 -0.1420
14337SOL    HW253941   3.233   1.504   5.321  0.0590 -0.6108 -0.4130
14338SOL     OW53942   9.720   4.949   2.239  0.0543 -0.1352  0.0143
14338SOL    HW153943   9.819   4.955   2.251  0.2570  2.3588 -2.4929
14338SOL    HW253944   9.696   4.859   2.203  1.3342 -0.8723  0.9487
14339SOL     OW53945   4.484   3.168   4.416  0.4624 -0.4761 -0.0139
14339SOL    HW153946   4.527   3.249   4.376  0.7888 -0.3007  0.6812
14339SOL    HW253947   4.542   3.088   4.399  1.3181 -0.1548  1.3552
14340SOL     OW53948   9.172   5.274   3.615  0.3205  0.2620 -0.1595
14340SOL    HW153949   9.158   5.291   3.713 -0.0148 -0.7841 -0.0161
14340SOL    HW253950   9.251   5.214   3.603 -0.1483 -0.2924 -0.4769
14341SOL     OW53951   8.357   9.467   0.721 -0.3606 -0.4186 -0.1971
14341SOL    HW153952   8.349   9.567   0.728  1.1716 -0.4105  1.4528
14341SOL    HW253953   8.265   9.427   0.719 -0.9852  1.0023 -0.6969
14342SOL     OW53954   3.526   3.108   3.040 -0.8493 -0.1851  0.0374
14342SOL    HW153955   3.616   3.112   2.997 -0.4063  1.0935  1.0277
14342SOL    HW253956   3.482   3.021   3.019  0.6642 -0.8625 -0.3749
14343SOL     OW53957   1.799   5.933   5.564  0.1797  0.5288  0.4873
14343SOL    HW153958   1.745   5.855   5.533  0.0341  0.7248  0.2489
14343SOL    HW253959   1.879   5.900   5.614  0.0517  0.2302  0.4991
14344SOL     OW53960   8.038   2.931   1.039 -0.2239  0.9899 -0.3338
14344SOL    HW153961   8.008   2.836   1.044  0.9061  0.4393 -3.0912
14344SOL    HW253962   8.100   2.951   1.115 -1.2609 -0.1674  0.8329
14345SOL     OW53963   0.368   2.870   1.774  0.7682  0.0559  0.5356
14345SOL    HW153964   0.343   2.959   1.737 -0.2243 -1.1399 -1.7670
14345SOL    HW253965   0.451   2.837   1.728  0.7407 -0.5149  0.8878
14346SOL     OW53966   4.445   9.470   0.953  0.2664  0.0457  0.0751
14346SOL    HW153967   4.515   9.535   0.981  0.3276  0.0422 -0.0682
14346SOL    HW253968   4.400   9.502   0.869  1.9405 -1.2605 -1.3763
14347SOL     OW53969   1.410   1.437   4.862  0.6913  0.6883 -0.4746
14347SOL    HW153970   1.484   1.486   4.815  0.2021  0.4026 -1.5593
14347SOL    HW253971   1.430   1.339   4.863  0.0480  0.5472 -1.2838
14348SOL     OW53972   1.478   1.365   3.298  0.1328  0.4776 -0.1133
14348SOL    HW153973   1.491   1.266   3.290 -2.0362  0.1688  0.0978
14348SOL    HW253974   1.469   1.404   3.206 -0.3195  0.3095 -0.1383
14349SOL     OW53975   9.366   5.397   4.085  0.4258  0.2467  0.4776
14349SOL    HW153976   9.357   5.464   4.012 -1.4075  0.3868  0.8068
14349SOL    HW253977   9.403   5.312   4.047 -0.4493  0.3398 -0.6144
14350SOL     OW53978   2.511   2.181   0.053 -0.2401  0.0884  0.1410
14350SOL    HW153979   2.529   2.099  -0.001  2.2744  1.4169 -1.1664
14350SOL    HW253980   2.487   2.155   0.146  0.5152 -2.1188 -0.2431
14351SOL     OW53981   2.755   2.066   2.443 -0.0062  0.1672 -0.1410
14351SOL    HW153982   2.755   2.155   2.489 -2.0198  0.5541 -0.8586
14351SOL    HW253983   2.707   2.073   2.356 -1.1676 -1.8731  0.2877
14352SOL     OW53984   5.527   0.173   3.488  0.0322 -0.5099  0.0966
14352SOL    HW153985   5.595   0.246   3.495 -0.0397 -0.2620 -1.6062
14352SOL    HW253986   5.555   0.109   3.417 -2.0426  0.1730 -1.3664
14353SOL     OW53987   9.129   6.085   1.152 -0.4587 -0.5413  0.2937
14353SOL    HW153988   9.228   6.089   1.139 -0.4815 -1.2204 -0.1317
14353SOL    HW253989   9.097   6.172   1.190  0.1318  0.1391 -0.7374
14354SOL     OW53990   4.440   9.821   0.045 -0.3954 -0.0940  0.2832
14354SOL    HW153991   4.508   9.752   0.070 -1.9794 -1.8507 -0.0658
14354SOL    HW253992   4.349   9.778   0.044 -1.6389  2.4181  1.7154
14355SOL     OW53993   9.946   9.245   1.772  0.3909  0.3620  0.1598
14355SOL    HW153994  10.019   9.306   1.742  0.4543 -0.3535 -1.1792
14355SOL    HW253995   9.986   9.163   1.813  0.3619 -0.2910 -1.0957
14356SOL     OW53996   8.033   9.422   1.400  0.2352 -0.1398 -0.3373
14356SOL    HW153997   8.124   9.439   1.363 -0.6459  1.0987 -1.9908
14356SOL    HW253998   8.013   9.489   1.472  0.1826  0.2834 -0.7511
14357SOL     OW53999   1.185   1.956   0.344 -0.7401 -0.7848  0.0509
14357SOL    HW154000   1.103   1.991   0.390  0.1765  0.0549  1.0478
14357SOL    HW254001   1.263   2.012   0.367  0.1326 -1.5762 -0.9270
14358SOL     OW54002   4.138   7.977   0.813 -0.9607  0.3669 -0.1012
14358SOL    HW154003   4.092   8.056   0.853 -0.8228 -0.1933  1.1648
14358SOL    HW254004   4.108   7.894   0.860 -1.0072 -0.3285 -1.3381
14359SOL     OW54005   0.481   6.805   2.788 -0.4437 -0.1801 -0.0312
14359SOL    HW154006   0.474   6.828   2.885  0.8186 -0.0935  0.0397
14359SOL    HW254007   0.403   6.748   2.762  0.0288 -1.5028  1.3998
14360SOL     OW54008   8.132   1.513   0.013  0.1079 -0.4238 -0.5273
14360SOL    HW154009   8.161   1.450  -0.059 -0.1099  0.0964 -1.0792
14360SOL    HW254010   8.210   1.567   0.044 -0.1474  0.7220 -1.7590
14361SOL     OW54011   0.396   2.656   3.389 -0.1306 -0.1911 -0.4454
14361SOL    HW154012   0.439   2.569   3.365 -0.2356 -0.5409  0.6046
14361SOL    HW254013   0.305   2.661   3.349 -1.0656 -1.5976  1.4736
14362SOL     OW54014   7.372   1.177   5.539 -0.0632 -0.3772 -0.5416
14362SOL    HW154015   7.404   1.082   5.536  1.8639  0.3077 -3.4424
14362SOL    HW254016   7.333   1.202   5.451  2.2107  2.4066 -0.8354
14363SOL     OW54017   2.866   2.093   0.373 -0.0206  0.3783 -0.3631
14363SOL    HW154018   2.867   2.064   0.277 -1.2797 -1.0121  0.0320
14363SOL    HW254019   2.936   2.163   0.387  2.2546 -1.5969 -1.5933
14364SOL     OW54020   8.097   1.189   0.337 -0.7706  0.8253  0.1054
14364SOL    HW154021   8.050   1.261   0.286 -1.7407 -0.1498 -0.3825
14364SOL    HW254022   8.039   1.158   0.412 -0.8308 -0.2483 -0.3847
14365SOL     OW54023   9.509   0.545   2.198 -0.4384 -0.9646 -0.1436
14365SOL    HW154024   9.522   0.490   2.281 -2.1744 -2.2985 -0.7265
14365SOL    HW254025   9.509   0.484   2.118  1.7648  0.3505 -1.2169
14366SOL     OW54026   2.309   3.879   4.373  0.1995 -0.0117 -0.6115
14366SOL    HW154027   2.405   3.857   4.360  0.4676  1.7717 -1.7789
14366SOL    HW254028   2.291   3.973   4.343 -1.8494 -0.2387 -0.2016
14367SOL     OW54029   8.921   1.951   5.106  0.5757 -0.2031  0.2153
14367SOL    HW154030   8.904   2.043   5.071  1.4553  0.7166  2.1735
14367SOL    HW254031   8.876   1.939   5.194 -0.4332 -2.0238 -0.5217
14368SOL     OW54032   9.632   9.610   0.553 -0.7223  0.3051  0.5638
14368SOL    HW154033   9.663   9.664   0.474  0.5926 -1.1647  0.0475
14368SOL    HW254034   9.624   9.670   0.633  2.6023  0.9449  0.5007
14369SOL     OW54035   2.274   2.689   5.523 -0.4771 -0.0156 -0.0132
14369SOL    HW154036   2.356   2.717   5.575  1.5099  0.1866 -3.1164
14369SOL    HW254037   2.268   2.590   5.523 -0.8412  0.0037  1.1323
14370SOL     OW54038   0.005   7.783   3.909 -0.0222 -0.3227 -0.0669
14370SOL    HW154039   0.058   7.739   3.982 -0.9378 -1.9542 -0.3718
14370SOL    HW254040   0.068   7.832   3.848  1.0255 -1.2208  0.2679
14371SOL     OW54041   2.621   0.736   3.529 -0.2248  0.3080 -0.4512
14371SOL    HW154042   2.558   0.684   3.471 -0.7990  0.0550  0.3794
14371SOL    HW254043   2.673   0.672   3.587 -0.3977  0.6084  0.0405
14372SOL     OW54044   9.420   3.481   0.325 -0.2849 -0.0971  0.0928
14372SOL    HW154045   9.404   3.502   0.229 -0.5376 -2.4148 -0.3885
14372SOL    HW254046   9.515   3.501   0.349 -0.4528  1.3255 -0.3895
14373SOL     OW54047   3.347   2.726   3.609 -0.0606 -0.6582  0.4803
14373SOL    HW154048   3.380   2.793   3.542 -0.2581  1.1963  2.2304
14373SOL    HW254049   3.248   2.718   3.603 -0.0728 -0.5349  0.5278
14374SOL     OW54050   7.923   5.638   0.517  0.3108  0.3802  0.0509
14374SOL    HW154051   7.907   5.707   0.588 -0.5739 -1.0564  1.2800
14374SOL    HW254052   8.017   5.644   0.485  1.5398 -0.6727  3.2708
14375SOL     OW54053   1.746   1.700   1.753 -0.5967  0.0410 -0.0458
14375SOL    HW154054   1.801   1.640   1.696 -0.7813 -0.0747 -0.1027
14375SOL    HW254055   1.701   1.646   1.824 -1.1832  0.0347 -0.4206
14376SOL     OW54056   1.272   2.192   3.944 -0.3682  0.0174  0.0360
14376SOL    HW154057   1.194   2.135   3.970 -0.7169  1.2776  1.8528
14376SOL    HW254058   1.347   2.134   3.913 -1.0878 -1.3599  0.8403
14377SOL     OW54059   2.787   9.503   3.150  0.1900  0.0357  0.2060
14377SOL    HW154060   2.866   9.541   3.102  0.0113  1.5412  1.0668
14377SOL    HW254061   2.814   9.473   3.241 -0.5405  2.0690  1.1188
14378SOL     OW54062   9.494   2.026   4.471  0.0649 -0.2121 -0.0980
14378SOL    HW154063   9.453   2.091   4.534  1.9135 -0.1683  1.0932
14378SOL    HW254064   9.439   2.021   4.387 -1.1877  1.3626  0.6097
14379SOL     OW54065   4.868   1.533   4.778 -0.4365  0.0758  0.0787
14379SOL    HW154066   4.802   1.557   4.849 -0.5873 -0.1772  0.0255
14379SOL    HW254067   4.955   1.509   4.820 -0.1567  1.1097  0.1125
14380SOL     OW54068   7.913   5.116   3.730 -0.2732 -0.6261 -0.0902
14380SOL    HW154069   7.872   5.087   3.816  0.1280  0.1061  0.3547
14380SOL    HW254070   7.944   5.036   3.679 -0.3138 -1.0503  0.5472
14381SOL     OW54071   7.734   0.817   4.845  0.1120  0.0281 -0.1259
14381SOL    HW154072   7.741   0.900   4.790  0.4465 -0.0262 -0.1656
14381SOL    HW254073   7.810   0.755   4.823  0.0907 -0.1145  0.1918
14382SOL     OW54074   2.589   5.155   4.531 -0.9204  0.4868  0.5715
14382SOL    HW154075   2.581   5.062   4.569 -1.2043 -0.1587 -1.0192
14382SOL    HW254076   2.658   5.156   4.459 -2.0416  1.1227 -0.5309
14383SOL     OW54077   0.339   4.921   3.703  0.4752 -0.3275 -0.1659
14383SOL    HW154078   0.425   4.968   3.682  0.7277 -0.7584 -0.0979
14383SOL    HW254079   0.286   4.908   3.619 -1.1372  3.0648  0.2407
14384SOL     OW54080   9.515   3.777   2.174 -0.0933  0.3008 -0.4547
14384SOL    HW154081   9.420   3.748   2.189 -0.3001  0.9953 -0.4005
14384SOL    HW254082   9.557   3.801   2.262  0.1558 -0.0697 -0.4714
  10.00000  10.00000   5.63389
